{
	 "smiles": "NC(CCCNC(N)=O)C(O)=O", 
	 "Tm": 509.15, 
	 "num_atms": 25, 
	 "gaussian": { 
		 "optdone": 1, 
		 "sigma_profile": "yes", 
		 "theory": "DFT", 
		 "functional": "B3LYP", 
		 "basiset": "6-31G**", 
		 "properties": { 
			 "R2extent": 3946.1352, 
			 "electric_dipole_moment_norm": 5.61133501851, 
			 "electric_quadrupole_moment_norm": 21.57191155, 
			 "total_energy": -626.439701859, 
			 "HOMO_LUMO_gap": 0.26564, 
			 "cosmo_polarized_energy": -26.38, 
			 "cosmo_cavitation_energy": 27.97, 
			 "cosmo_dispersion_energy": -19.9, 
			 "cosmo_repulsion_energy": 1.63, 
			 "cosmo_total_nonelectrostatic_energy": 9.7, 
			 "SMD_solvation_energy": 6.36 
		},
		"coords": [
			{
				"x": 0.1817732819,
				"y": 1.1661308769,
				"z": 2.0746911327,
				"element": "N" 
			},
			{
				"x": 0.5038363543,
				"y": 2.2375056509,
				"z": 1.1182982937,
				"element": "C" 
			},
			{
				"x": 0.9429390317,
				"y": 1.7934148646,
				"z": -0.2862107877,
				"element": "C" 
			},
			{
				"x": -0.046988858,
				"y": 0.8969053429,
				"z": -1.0468052314,
				"element": "C" 
			},
			{
				"x": -1.4395212509,
				"y": 1.5018206118,
				"z": -1.3094322723,
				"element": "C" 
			},
			{
				"x": -2.3409018819,
				"y": 1.4621077995,
				"z": -0.1515738152,
				"element": "N" 
			},
			{
				"x": -3.3040638535,
				"y": 0.4817345371,
				"z": 0.0660724715,
				"element": "C" 
			},
			{
				"x": -3.1273249196,
				"y": -0.6987581676,
				"z": -0.634658911,
				"element": "N" 
			},
			{
				"x": -4.2487241982,
				"y": 0.6649339082,
				"z": 0.8210700159,
				"element": "O" 
			},
			{
				"x": 1.5611761623,
				"y": 3.1736587456,
				"z": 1.7479256472,
				"element": "C" 
			},
			{
				"x": 1.6680601095,
				"y": 3.0374716508,
				"z": 3.0762819753,
				"element": "O" 
			},
			{
				"x": 2.202758787,
				"y": 3.9732948702,
				"z": 1.1056013888,
				"element": "O" 
			},
			{
				"x": 0.7841451493,
				"y": 0.3580334367,
				"z": 1.9326501174,
				"element": "H" 
			},
			{
				"x": -0.7791722106,
				"y": 0.8599161371,
				"z": 1.9502081008,
				"element": "H" 
			},
			{
				"x": -0.3985878575,
				"y": 2.8545566193,
				"z": 1.0330422485,
				"element": "H" 
			},
			{
				"x": 1.9017796162,
				"y": 1.2644343594,
				"z": -0.2000773327,
				"element": "H" 
			},
			{
				"x": 1.1559093377,
				"y": 2.6971318941,
				"z": -0.8663161148,
				"element": "H" 
			},
			{
				"x": 0.4041448969,
				"y": 0.6473064537,
				"z": -2.0151923219,
				"element": "H" 
			},
			{
				"x": -0.1681869318,
				"y": -0.0566380291,
				"z": -0.5136298027,
				"element": "H" 
			},
			{
				"x": -1.9135894118,
				"y": 0.9815537147,
				"z": -2.1503335349,
				"element": "H" 
			},
			{
				"x": -1.3316333291,
				"y": 2.5481568198,
				"z": -1.6151979716,
				"element": "H" 
			},
			{
				"x": -2.6669199283,
				"y": 2.3484165615,
				"z": 0.208906061,
				"element": "H" 
			},
			{
				"x": -2.207227506,
				"y": -0.9803974609,
				"z": -0.9370762947,
				"element": "H" 
			},
			{
				"x": -3.7312691833,
				"y": -1.44259782,
				"z": -0.3178666842,
				"element": "H" 
			},
			{
				"x": 1.0531885938,
				"y": 2.2968066226,
				"z": 3.2984236224,
				"element": "H" 
			}
		],
		 "valence_orbital": [ 
			{
				"type": "occ",
				"energy": -0.29616,
				"method": "rhf"
			},
			{
				"type": "occ",
				"energy": -0.2828,
				"method": "rhf"
			},
			{
				"type": "occ",
				"energy": -0.26929,
				"method": "rhf"
			},
			{
				"type": "occ",
				"energy": -0.25645,
				"method": "rhf"
			},
			{
				"type": "occ",
				"energy": -0.25187,
				"method": "rhf"
			},
			{
				"type": "unocc",
				"energy": 0.01377,
				"method": "rhf"
			},
			{
				"type": "unocc",
				"energy": 0.03766,
				"method": "rhf"
			},
			{
				"type": "unocc",
				"energy": 0.05311,
				"method": "rhf"
			},
			{
				"type": "unocc",
				"energy": 0.06256,
				"method": "rhf"
			},
			{
				"type": "unocc",
				"energy": 0.07695,
				"method": "rhf"
			}
		],
		"cosmo_sigma_profile": { 
			"-0.025": 0.0,
			"-0.024": 0.0,
			"-0.023": 0.0,
			"-0.022": 0.0,
			"-0.021": 0.0,
			"-0.02": 0.0,
			"-0.019": 0.0,
			"-0.018": 0.0,
			"-0.017": 0.0,
			"-0.016": 0.0,
			"-0.015": 0.0,
			"-0.014": 0.0550785297111,
			"-0.013": 1.8585849669,
			"-0.012": 3.42728670395,
			"-0.011": 4.93311488906,
			"-0.01": 6.06655932553,
			"-0.009": 7.7292383933,
			"-0.008": 8.03808212956,
			"-0.007": 9.17320223145,
			"-0.006": 10.1810137629,
			"-0.005": 13.8245745586,
			"-0.004": 18.2152611616,
			"-0.003": 18.646684594,
			"-0.002": 15.0599402917,
			"-0.001": 11.5461713924,
			"0.0": 8.48254678913,
			"0.001": 4.89150723627,
			"0.002": 4.96902338226,
			"0.003": 4.57704877306,
			"0.004": 5.1154115777,
			"0.005": 4.48184422238,
			"0.006": 5.20203201355,
			"0.007": 4.55007930839,
			"0.008": 3.9931692124,
			"0.009": 5.0901157228,
			"0.01": 5.42005696823,
			"0.011": 7.07253615006,
			"0.012": 6.65148193824,
			"0.013": 6.16780668514,
			"0.014": 6.13295043811,
			"0.015": 5.3158964685,
			"0.016": 0.407805039113,
			"0.017": 0.0,
			"0.018": 0.0,
			"0.019": 0.0,
			"0.02": 0.0,
			"0.021": 0.0,
			"0.022": 0.0,
			"0.023": 0.0,
			"0.024": 0.0,
			"0.025": 0.0
		}
	}
}
