{
	 "smiles": "CN(C)C1=CC=C(F)C=C1", 
	 "Tm": 309.15, 
	 "num_atms": 20, 
	 "gaussian": { 
		 "optdone": 1, 
		 "sigma_profile": "yes", 
		 "theory": "DFT", 
		 "functional": "B3LYP", 
		 "basiset": "6-31G**", 
		 "properties": { 
			 "R2extent": 1799.6851, 
			 "electric_dipole_moment_norm": 3.20345018691, 
			 "electric_quadrupole_moment_norm": 6.88041462631, 
			 "total_energy": -465.453420063, 
			 "HOMO_LUMO_gap": 0.18596, 
			 "cosmo_polarized_energy": -5.32, 
			 "cosmo_cavitation_energy": 23.04, 
			 "cosmo_dispersion_energy": -17.07, 
			 "cosmo_repulsion_energy": 1.34, 
			 "cosmo_total_nonelectrostatic_energy": 7.31, 
			 "SMD_solvation_energy": 4.02 
		},
		"coords": [
			{
				"x": 1.6626844135,
				"y": 1.5733300473,
				"z": 1.4667417531,
				"element": "C" 
			},
			{
				"x": 1.4634978651,
				"y": 0.4013242478,
				"z": 0.6317964415,
				"element": "N" 
			},
			{
				"x": 2.1343249975,
				"y": -0.8253025019,
				"z": 1.026590948,
				"element": "C" 
			},
			{
				"x": 0.3031712019,
				"y": 0.3151046635,
				"z": -0.1405713798,
				"element": "C" 
			},
			{
				"x": -0.5328703783,
				"y": 1.4373510131,
				"z": -0.338481203,
				"element": "C" 
			},
			{
				"x": -1.6697370085,
				"y": 1.3610649724,
				"z": -1.1405454124,
				"element": "C" 
			},
			{
				"x": -1.998253559,
				"y": 0.1591073285,
				"z": -1.7516959563,
				"element": "C" 
			},
			{
				"x": -3.1059398702,
				"y": 0.0842344423,
				"z": -2.5281765043,
				"element": "F" 
			},
			{
				"x": -1.2114465772,
				"y": -0.9695633033,
				"z": -1.5695442591,
				"element": "C" 
			},
			{
				"x": -0.0744372057,
				"y": -0.8939910527,
				"z": -0.7676064891,
				"element": "C" 
			},
			{
				"x": 0.8684842215,
				"y": 1.7118026747,
				"z": 2.2186178231,
				"element": "H" 
			},
			{
				"x": 1.7132860927,
				"y": 2.4836438293,
				"z": 0.8589860499,
				"element": "H" 
			},
			{
				"x": 2.6156855271,
				"y": 1.4804006042,
				"z": 1.9905110145,
				"element": "H" 
			},
			{
				"x": 2.4751912095,
				"y": -1.3858099283,
				"z": 0.1489631707,
				"element": "H" 
			},
			{
				"x": 3.0191906338,
				"y": -0.5746893437,
				"z": 1.6142863593,
				"element": "H" 
			},
			{
				"x": 1.498425413,
				"y": -1.4940914433,
				"z": 1.6295734693,
				"element": "H" 
			},
			{
				"x": -0.3020177343,
				"y": 2.3839513346,
				"z": 0.1334086752,
				"element": "H" 
			},
			{
				"x": -2.3041413324,
				"y": 2.2288555585,
				"z": -1.2880238629,
				"element": "H" 
			},
			{
				"x": -1.4918751807,
				"y": -1.9019515875,
				"z": -2.0483980689,
				"element": "H" 
			},
			{
				"x": 0.5186772707,
				"y": -1.7898715555,
				"z": -0.6349325688,
				"element": "H" 
			}
		],
		 "valence_orbital": [ 
			{
				"type": "occ",
				"energy": -0.35277,
				"method": "rhf"
			},
			{
				"type": "occ",
				"energy": -0.32939,
				"method": "rhf"
			},
			{
				"type": "occ",
				"energy": -0.27434,
				"method": "rhf"
			},
			{
				"type": "occ",
				"energy": -0.24912,
				"method": "rhf"
			},
			{
				"type": "occ",
				"energy": -0.18635,
				"method": "rhf"
			},
			{
				"type": "unocc",
				"energy": -0.00039,
				"method": "rhf"
			},
			{
				"type": "unocc",
				"energy": 0.02621,
				"method": "rhf"
			},
			{
				"type": "unocc",
				"energy": 0.08133,
				"method": "rhf"
			},
			{
				"type": "unocc",
				"energy": 0.10552,
				"method": "rhf"
			},
			{
				"type": "unocc",
				"energy": 0.11797,
				"method": "rhf"
			}
		],
		"cosmo_sigma_profile": { 
			"-0.025": 0.0,
			"-0.024": 0.0,
			"-0.023": 0.0,
			"-0.022": 0.0,
			"-0.021": 0.0,
			"-0.02": 0.0,
			"-0.019": 0.0,
			"-0.018": 0.0,
			"-0.017": 0.0,
			"-0.016": 0.0,
			"-0.015": 0.0,
			"-0.014": 0.0,
			"-0.013": 0.0,
			"-0.012": 0.0,
			"-0.011": 0.0,
			"-0.01": 0.0,
			"-0.009": 0.0,
			"-0.008": 0.0,
			"-0.007": 0.951920510565,
			"-0.006": 8.58418775016,
			"-0.005": 12.9101660328,
			"-0.004": 15.8233010282,
			"-0.003": 18.4728194969,
			"-0.002": 20.1779880997,
			"-0.001": 19.8772416347,
			"0.0": 9.23162336804,
			"0.001": 8.14664232913,
			"0.002": 10.739275827,
			"0.003": 11.9699996678,
			"0.004": 12.1122930816,
			"0.005": 21.0767929499,
			"0.006": 10.5734879195,
			"0.007": 0.900046428296,
			"0.008": 0.736325974501,
			"0.009": 0.357862450055,
			"0.01": 0.0584543561506,
			"0.011": 0.0,
			"0.012": 0.0,
			"0.013": 0.0,
			"0.014": 0.0,
			"0.015": 0.0,
			"0.016": 0.0,
			"0.017": 0.0,
			"0.018": 0.0,
			"0.019": 0.0,
			"0.02": 0.0,
			"0.021": 0.0,
			"0.022": 0.0,
			"0.023": 0.0,
			"0.024": 0.0,
			"0.025": 0.0
		}
	}
}
