{
	 "smiles": "COC1=CC(=CC(OC)=C1)C(=O)NC1=CC(C(O)=O)=C(O)C=C1", 
	 "Tm": 515.15, 
	 "num_atms": 38, 
	 "gaussian": { 
		 "optdone": 1, 
		 "sigma_profile": "yes", 
		 "theory": "DFT", 
		 "functional": "B3LYP", 
		 "basiset": "6-31G**", 
		 "properties": { 
			 "R2extent": 7692.5836, 
			 "electric_dipole_moment_norm": 2.94806957007, 
			 "electric_quadrupole_moment_norm": 29.7814534461, 
			 "total_energy": -1124.84283256, 
			 "HOMO_LUMO_gap": 0.15577, 
			 "cosmo_polarized_energy": -23.77, 
			 "cosmo_cavitation_energy": 42.99, 
			 "cosmo_dispersion_energy": -28.89, 
			 "cosmo_repulsion_energy": 2.2, 
			 "cosmo_total_nonelectrostatic_energy": 16.31, 
			 "SMD_solvation_energy": 10.81 
		},
		"coords": [
			{
				"x": 0.159698777,
				"y": 0.720805322,
				"z": 3.4116532944,
				"element": "C" 
			},
			{
				"x": 0.5698463447,
				"y": 1.7498114031,
				"z": 2.5219471091,
				"element": "O" 
			},
			{
				"x": -0.0542925914,
				"y": 1.8472082802,
				"z": 1.3144904362,
				"element": "C" 
			},
			{
				"x": -1.0804907684,
				"y": 1.0049147109,
				"z": 0.8845557495,
				"element": "C" 
			},
			{
				"x": -1.6492508239,
				"y": 1.2232656058,
				"z": -0.384200166,
				"element": "C" 
			},
			{
				"x": -1.2133812669,
				"y": 2.2638806582,
				"z": -1.1970186642,
				"element": "C" 
			},
			{
				"x": -0.1640668284,
				"y": 3.0911921191,
				"z": -0.760688209,
				"element": "C" 
			},
			{
				"x": 0.2136557436,
				"y": 4.0676430321,
				"z": -1.629947522,
				"element": "O" 
			},
			{
				"x": 1.2495786491,
				"y": 4.9571538783,
				"z": -1.2381642426,
				"element": "C" 
			},
			{
				"x": 0.418213448,
				"y": 2.8835323368,
				"z": 0.4892197692,
				"element": "C" 
			},
			{
				"x": -2.7990158837,
				"y": 0.3963590694,
				"z": -0.8871570385,
				"element": "C" 
			},
			{
				"x": -3.7378365063,
				"y": 0.90311756,
				"z": -1.4870339126,
				"element": "O" 
			},
			{
				"x": -2.8096360955,
				"y": -0.9661348668,
				"z": -0.6213503803,
				"element": "N" 
			},
			{
				"x": -1.7400249147,
				"y": -1.8582880953,
				"z": -0.3599092006,
				"element": "C" 
			},
			{
				"x": -0.4541330706,
				"y": -1.6549089968,
				"z": -0.8505246433,
				"element": "C" 
			},
			{
				"x": 0.589536058,
				"y": -2.5538956134,
				"z": -0.5652295431,
				"element": "C" 
			},
			{
				"x": 1.9816587116,
				"y": -2.3175088657,
				"z": -1.0065263249,
				"element": "C" 
			},
			{
				"x": 2.3177723318,
				"y": -1.1010596934,
				"z": -1.478432423,
				"element": "O" 
			},
			{
				"x": 2.851551362,
				"y": -3.1804248618,
				"z": -0.945900343,
				"element": "O" 
			},
			{
				"x": 0.3082487146,
				"y": -3.7434642549,
				"z": 0.1561119118,
				"element": "C" 
			},
			{
				"x": 1.23469278,
				"y": -4.6759211597,
				"z": 0.4124139954,
				"element": "O" 
			},
			{
				"x": -0.9978258193,
				"y": -3.9526114791,
				"z": 0.6325746673,
				"element": "C" 
			},
			{
				"x": -1.9938395315,
				"y": -3.02071388,
				"z": 0.3939831029,
				"element": "C" 
			},
			{
				"x": 0.3106320383,
				"y": -0.2744310681,
				"z": 2.9749910834,
				"element": "H" 
			},
			{
				"x": -0.8934209091,
				"y": 0.8320643983,
				"z": 3.6987623135,
				"element": "H" 
			},
			{
				"x": 0.7868866892,
				"y": 0.8234701733,
				"z": 4.2981553809,
				"element": "H" 
			},
			{
				"x": -1.4502645156,
				"y": 0.2044032756,
				"z": 1.5104267541,
				"element": "H" 
			},
			{
				"x": -1.6818443743,
				"y": 2.44928926,
				"z": -2.1560891324,
				"element": "H" 
			},
			{
				"x": 2.1935908958,
				"y": 4.4257189309,
				"z": -1.0626147096,
				"element": "H" 
			},
			{
				"x": 1.377733847,
				"y": 5.6524430943,
				"z": -2.0687189953,
				"element": "H" 
			},
			{
				"x": 0.979168434,
				"y": 5.5176745281,
				"z": -0.3345488789,
				"element": "H" 
			},
			{
				"x": 1.2226742681,
				"y": 3.5018699979,
				"z": 0.8662039081,
				"element": "H" 
			},
			{
				"x": -3.6840926667,
				"y": -1.3854060554,
				"z": -0.9165666456,
				"element": "H" 
			},
			{
				"x": -0.2761003721,
				"y": -0.7931638956,
				"z": -1.4850592872,
				"element": "H" 
			},
			{
				"x": 1.6084110009,
				"y": -0.4618817939,
				"z": -1.3207849546,
				"element": "H" 
			},
			{
				"x": 2.0623333121,
				"y": -4.3877710201,
				"z": -0.0483055436,
				"element": "H" 
			},
			{
				"x": -1.1986469232,
				"y": -4.8584094289,
				"z": 1.1942052261,
				"element": "H" 
			},
			{
				"x": -2.9937195443,
				"y": -3.1880226055,
				"z": 0.7852760584,
				"element": "H" 
			}
		],
		 "valence_orbital": [ 
			{
				"type": "occ",
				"energy": -0.28136,
				"method": "rhf"
			},
			{
				"type": "occ",
				"energy": -0.26403,
				"method": "rhf"
			},
			{
				"type": "occ",
				"energy": -0.24478,
				"method": "rhf"
			},
			{
				"type": "occ",
				"energy": -0.22861,
				"method": "rhf"
			},
			{
				"type": "occ",
				"energy": -0.22087,
				"method": "rhf"
			},
			{
				"type": "unocc",
				"energy": -0.0651,
				"method": "rhf"
			},
			{
				"type": "unocc",
				"energy": -0.04397,
				"method": "rhf"
			},
			{
				"type": "unocc",
				"energy": -0.01111,
				"method": "rhf"
			},
			{
				"type": "unocc",
				"energy": 0.00376,
				"method": "rhf"
			},
			{
				"type": "unocc",
				"energy": 0.03277,
				"method": "rhf"
			}
		],
		"cosmo_sigma_profile": { 
			"-0.025": 0.0,
			"-0.024": 0.0,
			"-0.023": 0.0,
			"-0.022": 0.0,
			"-0.021": 0.0,
			"-0.02": 0.0,
			"-0.019": 0.0,
			"-0.018": 0.0,
			"-0.017": 0.0,
			"-0.016": 0.0241716928038,
			"-0.015": 1.06540674408,
			"-0.014": 1.73169147424,
			"-0.013": 2.22007473872,
			"-0.012": 1.59421550636,
			"-0.011": 3.72137891823,
			"-0.01": 3.78826965515,
			"-0.009": 2.51584206961,
			"-0.008": 3.89567125369,
			"-0.007": 8.40487369502,
			"-0.006": 19.7429326488,
			"-0.005": 27.3394736947,
			"-0.004": 29.6061671496,
			"-0.003": 29.9886228094,
			"-0.002": 20.3869651369,
			"-0.001": 21.1157844622,
			"0.0": 18.6289473927,
			"0.001": 21.9695010778,
			"0.002": 22.5065169013,
			"0.003": 17.560788635,
			"0.004": 14.4076248942,
			"0.005": 9.22006173305,
			"0.006": 6.99802859972,
			"0.007": 9.01130670268,
			"0.008": 7.81870635634,
			"0.009": 9.90421048255,
			"0.01": 10.6402835182,
			"0.011": 5.04863255484,
			"0.012": 4.9404733556,
			"0.013": 5.62506825219,
			"0.014": 1.37175271623,
			"0.015": 0.0,
			"0.016": 0.0,
			"0.017": 0.0,
			"0.018": 0.0,
			"0.019": 0.0,
			"0.02": 0.0,
			"0.021": 0.0,
			"0.022": 0.0,
			"0.023": 0.0,
			"0.024": 0.0,
			"0.025": 0.0
		}
	}
}
