{
	 "smiles": "CC(C)C1=CC=C(C)C2=CC=C(C)C2=C1", 
	 "Tm": 304.95, 
	 "num_atms": 33, 
	 "gaussian": { 
		 "optdone": 1, 
		 "sigma_profile": "yes", 
		 "theory": "DFT", 
		 "functional": "B3LYP", 
		 "basiset": "6-31G**", 
		 "properties": { 
			 "R2extent": 4209.3053, 
			 "electric_dipole_moment_norm": 1.13328884668, 
			 "electric_quadrupole_moment_norm": 7.88296083524, 
			 "total_energy": -582.428300512, 
			 "HOMO_LUMO_gap": 0.11601, 
			 "cosmo_polarized_energy": -5.19, 
			 "cosmo_cavitation_energy": 34.17, 
			 "cosmo_dispersion_energy": -24.26, 
			 "cosmo_repulsion_energy": 1.9, 
			 "cosmo_total_nonelectrostatic_energy": 11.8, 
			 "SMD_solvation_energy": 5.63 
		},
		"coords": [
			{
				"x": -2.7158692618,
				"y": 0.73593005,
				"z": -0.516678655,
				"element": "C" 
			},
			{
				"x": -1.4537879186,
				"y": 0.7041246016,
				"z": -1.3996584053,
				"element": "C" 
			},
			{
				"x": -1.8003214396,
				"y": 0.3098946024,
				"z": -2.8481864177,
				"element": "C" 
			},
			{
				"x": -0.3515766558,
				"y": -0.1810185556,
				"z": -0.8055474741,
				"element": "C" 
			},
			{
				"x": -0.6176286287,
				"y": -1.5469303563,
				"z": -0.6583026008,
				"element": "C" 
			},
			{
				"x": 0.1597939272,
				"y": -2.5983639824,
				"z": -0.1609391655,
				"element": "C" 
			},
			{
				"x": 1.4643935829,
				"y": -2.6195723173,
				"z": 0.3528963323,
				"element": "C" 
			},
			{
				"x": 1.9991710896,
				"y": -3.9624450776,
				"z": 0.8091859515,
				"element": "C" 
			},
			{
				"x": 2.3138156941,
				"y": -1.5083283705,
				"z": 0.480242939,
				"element": "C" 
			},
			{
				"x": 3.6189501648,
				"y": -1.5138746987,
				"z": 0.9913505145,
				"element": "C" 
			},
			{
				"x": 4.1241344168,
				"y": -0.1998511257,
				"z": 0.9465538156,
				"element": "C" 
			},
			{
				"x": 3.1722882537,
				"y": 0.6779831179,
				"z": 0.4129849525,
				"element": "C" 
			},
			{
				"x": 3.3496694934,
				"y": 2.1556633217,
				"z": 0.2098976114,
				"element": "C" 
			},
			{
				"x": 2.0170955667,
				"y": -0.0868026281,
				"z": 0.1026279706,
				"element": "C" 
			},
			{
				"x": 0.8565892081,
				"y": 0.4410291245,
				"z": -0.4478861485,
				"element": "C" 
			},
			{
				"x": -2.4778319756,
				"y": 1.0556250274,
				"z": 0.5026172245,
				"element": "H" 
			},
			{
				"x": -3.1877075036,
				"y": -0.2509330856,
				"z": -0.454448737,
				"element": "H" 
			},
			{
				"x": -3.4571094294,
				"y": 1.4300683846,
				"z": -0.9280206086,
				"element": "H" 
			},
			{
				"x": -1.0573438474,
				"y": 1.7268014545,
				"z": -1.4308260677,
				"element": "H" 
			},
			{
				"x": -2.2270962281,
				"y": -0.6979051934,
				"z": -2.8990104658,
				"element": "H" 
			},
			{
				"x": -2.5376273412,
				"y": 1.0016028117,
				"z": -3.2705624852,
				"element": "H" 
			},
			{
				"x": -0.9114332723,
				"y": 0.327173861,
				"z": -3.486468909,
				"element": "H" 
			},
			{
				"x": -1.6072686001,
				"y": -1.8597744621,
				"z": -0.9878546424,
				"element": "H" 
			},
			{
				"x": -0.3384725379,
				"y": -3.565407262,
				"z": -0.177739488,
				"element": "H" 
			},
			{
				"x": 2.9037432038,
				"y": -4.2323877901,
				"z": 0.253119717,
				"element": "H" 
			},
			{
				"x": 2.2732099673,
				"y": -3.9342451716,
				"z": 1.8695741704,
				"element": "H" 
			},
			{
				"x": 1.2636951995,
				"y": -4.7575450999,
				"z": 0.6689315378,
				"element": "H" 
			},
			{
				"x": 4.154252997,
				"y": -2.3783517735,
				"z": 1.3597343904,
				"element": "H" 
			},
			{
				"x": 5.1141500827,
				"y": 0.0971234047,
				"z": 1.2785608393,
				"element": "H" 
			},
			{
				"x": 3.2493105188,
				"y": 2.4463260429,
				"z": -0.8437220455,
				"element": "H" 
			},
			{
				"x": 4.3434803212,
				"y": 2.4717851929,
				"z": 0.5402299458,
				"element": "H" 
			},
			{
				"x": 2.6162276726,
				"y": 2.7448313363,
				"z": 0.7752313241,
				"element": "H" 
			},
			{
				"x": 0.8916032797,
				"y": 1.5146746164,
				"z": -0.6318869209,
				"element": "H" 
			}
		],
		 "valence_orbital": [ 
			{
				"type": "occ",
				"energy": -0.31536,
				"method": "rhf"
			},
			{
				"type": "occ",
				"energy": -0.30859,
				"method": "rhf"
			},
			{
				"type": "occ",
				"energy": -0.27654,
				"method": "rhf"
			},
			{
				"type": "occ",
				"energy": -0.21899,
				"method": "rhf"
			},
			{
				"type": "occ",
				"energy": -0.17772,
				"method": "rhf"
			},
			{
				"type": "unocc",
				"energy": -0.06171,
				"method": "rhf"
			},
			{
				"type": "unocc",
				"energy": -0.02883,
				"method": "rhf"
			},
			{
				"type": "unocc",
				"energy": 0.08248,
				"method": "rhf"
			},
			{
				"type": "unocc",
				"energy": 0.08864,
				"method": "rhf"
			},
			{
				"type": "unocc",
				"energy": 0.10114,
				"method": "rhf"
			}
		],
		"cosmo_sigma_profile": { 
			"-0.025": 0.0,
			"-0.024": 0.0,
			"-0.023": 0.0,
			"-0.022": 0.0,
			"-0.021": 0.0,
			"-0.02": 0.0,
			"-0.019": 0.0,
			"-0.018": 0.0,
			"-0.017": 0.0,
			"-0.016": 0.0,
			"-0.015": 0.0,
			"-0.014": 0.0,
			"-0.013": 0.0,
			"-0.012": 0.0,
			"-0.011": 0.0,
			"-0.01": 0.0,
			"-0.009": 0.0,
			"-0.008": 0.0,
			"-0.007": 0.0,
			"-0.006": 1.10930889078,
			"-0.005": 12.0987224263,
			"-0.004": 19.1649127487,
			"-0.003": 31.6740969553,
			"-0.002": 32.9729311533,
			"-0.001": 33.0109976127,
			"0.0": 33.6503174333,
			"0.001": 31.5632236105,
			"0.002": 16.1685542917,
			"0.003": 11.6089203998,
			"0.004": 17.1735167132,
			"0.005": 13.1845668501,
			"0.006": 6.40103308526,
			"0.007": 6.28008891558,
			"0.008": 2.50070257646,
			"0.009": 0.0,
			"0.01": 0.0,
			"0.011": 0.0,
			"0.012": 0.0,
			"0.013": 0.0,
			"0.014": 0.0,
			"0.015": 0.0,
			"0.016": 0.0,
			"0.017": 0.0,
			"0.018": 0.0,
			"0.019": 0.0,
			"0.02": 0.0,
			"0.021": 0.0,
			"0.022": 0.0,
			"0.023": 0.0,
			"0.024": 0.0,
			"0.025": 0.0
		}
	}
}
