{
	 "smiles": "OC(=O)C1=CC(NS(=O)(=O)C2=CC3=C(C=CC=C3)C=C2)=CC=C1", 
	 "Tm": 479.15, 
	 "num_atms": 36, 
	 "gaussian": { 
		 "optdone": 1, 
		 "sigma_profile": "yes", 
		 "theory": "DFT", 
		 "functional": "B3LYP", 
		 "basiset": "6-31G**", 
		 "properties": { 
			 "R2extent": 8899.7068, 
			 "electric_dipole_moment_norm": 3.32487480215, 
			 "electric_quadrupole_moment_norm": 39.4193484349, 
			 "total_energy": -1409.42958154, 
			 "HOMO_LUMO_gap": 0.16998, 
			 "cosmo_polarized_energy": -24.95, 
			 "cosmo_cavitation_energy": 42.49, 
			 "cosmo_dispersion_energy": -30.07, 
			 "cosmo_repulsion_energy": 2.23, 
			 "cosmo_total_nonelectrostatic_energy": 14.65, 
			 "SMD_solvation_energy": 7.16 
		},
		"coords": [
			{
				"x": -1.3621211968,
				"y": 0.2746839003,
				"z": 5.4899759668,
				"element": "O" 
			},
			{
				"x": -1.2498589087,
				"y": 0.595964682,
				"z": 4.1743760617,
				"element": "C" 
			},
			{
				"x": -2.1932906987,
				"y": 1.0679438328,
				"z": 3.5843112539,
				"element": "O" 
			},
			{
				"x": 0.0791979066,
				"y": 0.3364093154,
				"z": 3.5272806938,
				"element": "C" 
			},
			{
				"x": 0.3451176369,
				"y": 1.0081561712,
				"z": 2.3294784098,
				"element": "C" 
			},
			{
				"x": 1.5640203124,
				"y": 0.8292843199,
				"z": 1.6698026736,
				"element": "C" 
			},
			{
				"x": 1.8411452703,
				"y": 1.5888347838,
				"z": 0.5052541878,
				"element": "N" 
			},
			{
				"x": 2.3802377534,
				"y": 0.9237547108,
				"z": -0.9694553348,
				"element": "S" 
			},
			{
				"x": 3.519886942,
				"y": 0.0633644064,
				"z": -0.6542377337,
				"element": "O" 
			},
			{
				"x": 2.4862649155,
				"y": 2.0850780929,
				"z": -1.8509159956,
				"element": "O" 
			},
			{
				"x": 1.0534968401,
				"y": -0.1206099829,
				"z": -1.5710033542,
				"element": "C" 
			},
			{
				"x": 0.1694714371,
				"y": 0.3950791205,
				"z": -2.493279356,
				"element": "C" 
			},
			{
				"x": -0.9033639366,
				"y": -0.4034770866,
				"z": -2.967139334,
				"element": "C" 
			},
			{
				"x": -1.0482362331,
				"y": -1.7399131356,
				"z": -2.4679603315,
				"element": "C" 
			},
			{
				"x": -2.1261074237,
				"y": -2.5337277569,
				"z": -2.942048154,
				"element": "C" 
			},
			{
				"x": -3.0163015012,
				"y": -2.0311353589,
				"z": -3.864557429,
				"element": "C" 
			},
			{
				"x": -2.8707850406,
				"y": -0.7112809928,
				"z": -4.3593228754,
				"element": "C" 
			},
			{
				"x": -1.8368343042,
				"y": 0.0844040189,
				"z": -3.9214220884,
				"element": "C" 
			},
			{
				"x": -0.1050028797,
				"y": -2.2296788215,
				"z": -1.5229161798,
				"element": "C" 
			},
			{
				"x": 0.932685912,
				"y": -1.4451551066,
				"z": -1.0785663862,
				"element": "C" 
			},
			{
				"x": 2.520043087,
				"y": -0.0511168314,
				"z": 2.2049841648,
				"element": "C" 
			},
			{
				"x": 2.2294566788,
				"y": -0.7563936765,
				"z": 3.3702166162,
				"element": "C" 
			},
			{
				"x": 1.0202176009,
				"y": -0.5656555997,
				"z": 4.0404045007,
				"element": "C" 
			},
			{
				"x": -0.4923148019,
				"y": 0.0673012273,
				"z": 5.8587572166,
				"element": "H" 
			},
			{
				"x": -0.4178976629,
				"y": 1.6700780722,
				"z": 1.931403443,
				"element": "H" 
			},
			{
				"x": 1.1828497461,
				"y": 2.3383358774,
				"z": 0.3165217617,
				"element": "H" 
			},
			{
				"x": 0.303611606,
				"y": 1.4044146739,
				"z": -2.8692163461,
				"element": "H" 
			},
			{
				"x": -2.237112575,
				"y": -3.5464066675,
				"z": -2.5640157233,
				"element": "H" 
			},
			{
				"x": -3.837219016,
				"y": -2.6476625985,
				"z": -4.2185964106,
				"element": "H" 
			},
			{
				"x": -3.5806383505,
				"y": -0.3300913491,
				"z": -5.087199716,
				"element": "H" 
			},
			{
				"x": -1.7202323307,
				"y": 1.0969311255,
				"z": -4.2980044661,
				"element": "H" 
			},
			{
				"x": -0.210182555,
				"y": -3.2476591914,
				"z": -1.1579477949,
				"element": "H" 
			},
			{
				"x": 1.6649483166,
				"y": -1.8280141925,
				"z": -0.3776041686,
				"element": "H" 
			},
			{
				"x": 3.4705525203,
				"y": -0.1738576138,
				"z": 1.7008538139,
				"element": "H" 
			},
			{
				"x": 2.962238194,
				"y": -1.4523120745,
				"z": 3.7670564937,
				"element": "H" 
			},
			{
				"x": 0.8104567395,
				"y": -1.1492702944,
				"z": 4.9330319202,
				"element": "H" 
			}
		],
		 "valence_orbital": [ 
			{
				"type": "occ",
				"energy": -0.28323,
				"method": "rhf"
			},
			{
				"type": "occ",
				"energy": -0.27153,
				"method": "rhf"
			},
			{
				"type": "occ",
				"energy": -0.26647,
				"method": "rhf"
			},
			{
				"type": "occ",
				"energy": -0.25011,
				"method": "rhf"
			},
			{
				"type": "occ",
				"energy": -0.23519,
				"method": "rhf"
			},
			{
				"type": "unocc",
				"energy": -0.06521,
				"method": "rhf"
			},
			{
				"type": "unocc",
				"energy": -0.05754,
				"method": "rhf"
			},
			{
				"type": "unocc",
				"energy": -0.04153,
				"method": "rhf"
			},
			{
				"type": "unocc",
				"energy": -0.02463,
				"method": "rhf"
			},
			{
				"type": "unocc",
				"energy": 0.00998,
				"method": "rhf"
			}
		],
		"cosmo_sigma_profile": { 
			"-0.025": 0.0,
			"-0.024": 0.0,
			"-0.023": 0.0,
			"-0.022": 0.0,
			"-0.021": 0.0,
			"-0.02": 0.0,
			"-0.019": 0.197634019876,
			"-0.018": 1.12694357875,
			"-0.017": 0.997572189971,
			"-0.016": 1.65663909438,
			"-0.015": 1.97529538801,
			"-0.014": 2.01866277537,
			"-0.013": 2.60407105872,
			"-0.012": 2.72027787719,
			"-0.011": 2.37445257949,
			"-0.01": 2.27790494594,
			"-0.009": 2.38058301289,
			"-0.008": 4.65409572021,
			"-0.007": 13.869763214,
			"-0.006": 21.4905910073,
			"-0.005": 19.5088164513,
			"-0.004": 20.4698726242,
			"-0.003": 15.8535440519,
			"-0.002": 18.3722175743,
			"-0.001": 16.570199717,
			"0.0": 21.4048876485,
			"0.001": 25.8519505294,
			"0.002": 37.7100668158,
			"0.003": 27.387362056,
			"0.004": 14.9368841115,
			"0.005": 6.25248141896,
			"0.006": 6.99006631395,
			"0.007": 5.80185710589,
			"0.008": 6.7597686397,
			"0.009": 7.59652392861,
			"0.01": 12.3426877503,
			"0.011": 11.5137279985,
			"0.012": 4.72567205636,
			"0.013": 1.23935344111,
			"0.014": 0.00382099463266,
			"0.015": 0.0,
			"0.016": 0.0,
			"0.017": 0.0,
			"0.018": 0.0,
			"0.019": 0.0,
			"0.02": 0.0,
			"0.021": 0.0,
			"0.022": 0.0,
			"0.023": 0.0,
			"0.024": 0.0,
			"0.025": 0.0
		}
	}
}
