{
	 "smiles": "CCCN1C(=O)CC(=O)NC1=S", 
	 "Tm": 401.15, 
	 "num_atms": 22, 
	 "gaussian": { 
		 "optdone": 1, 
		 "sigma_profile": "yes", 
		 "theory": "DFT", 
		 "functional": "B3LYP", 
		 "basiset": "6-31G**", 
		 "properties": { 
			 "R2extent": 2624.287, 
			 "electric_dipole_moment_norm": 1.39328560604, 
			 "electric_quadrupole_moment_norm": 8.8731487055, 
			 "total_energy": -930.953125515, 
			 "HOMO_LUMO_gap": 0.1573, 
			 "cosmo_polarized_energy": -13.91, 
			 "cosmo_cavitation_energy": 26.74, 
			 "cosmo_dispersion_energy": -19.79, 
			 "cosmo_repulsion_energy": 1.54, 
			 "cosmo_total_nonelectrostatic_energy": 8.49, 
			 "SMD_solvation_energy": 4.94 
		},
		"coords": [
			{
				"x": -1.9715653188,
				"y": -1.9630611811,
				"z": -0.5557768512,
				"element": "C" 
			},
			{
				"x": -1.6156095692,
				"y": -0.8124429257,
				"z": -1.502228893,
				"element": "C" 
			},
			{
				"x": -0.9783047953,
				"y": 0.4085560345,
				"z": -0.8274051025,
				"element": "C" 
			},
			{
				"x": 0.3176600223,
				"y": 0.116080838,
				"z": -0.1601669624,
				"element": "N" 
			},
			{
				"x": 0.2756621385,
				"y": -0.0907374139,
				"z": 1.2346183088,
				"element": "C" 
			},
			{
				"x": -0.7645478903,
				"y": -0.0023645554,
				"z": 1.8564053191,
				"element": "O" 
			},
			{
				"x": 1.5656344487,
				"y": -0.4567449776,
				"z": 1.9401429414,
				"element": "C" 
			},
			{
				"x": 2.8406379501,
				"y": -0.3927035594,
				"z": 1.1397433635,
				"element": "C" 
			},
			{
				"x": 3.9474478095,
				"y": -0.5663839393,
				"z": 1.6074813054,
				"element": "O" 
			},
			{
				"x": 2.6595048828,
				"y": -0.1306131842,
				"z": -0.2106986168,
				"element": "N" 
			},
			{
				"x": 1.4882123319,
				"y": 0.1254321117,
				"z": -0.9016019789,
				"element": "C" 
			},
			{
				"x": 1.5752619704,
				"y": 0.4344369144,
				"z": -2.5349453402,
				"element": "S" 
			},
			{
				"x": -2.6323607551,
				"y": -1.6328806276,
				"z": 0.2513385237,
				"element": "H" 
			},
			{
				"x": -2.4752016904,
				"y": -2.7659328852,
				"z": -1.1030738335,
				"element": "H" 
			},
			{
				"x": -1.0780203152,
				"y": -2.3972543244,
				"z": -0.0945478528,
				"element": "H" 
			},
			{
				"x": -0.9547783235,
				"y": -1.1659008966,
				"z": -2.3002594121,
				"element": "H" 
			},
			{
				"x": -2.5251978012,
				"y": -0.4477153558,
				"z": -1.9963461521,
				"element": "H" 
			},
			{
				"x": -0.7865688815,
				"y": 1.1895141912,
				"z": -1.563439236,
				"element": "H" 
			},
			{
				"x": -1.6286615823,
				"y": 0.7982581002,
				"z": -0.0447421034,
				"element": "H" 
			},
			{
				"x": 1.6647871339,
				"y": 0.1801541856,
				"z": 2.8239471054,
				"element": "H" 
			},
			{
				"x": 1.4540909815,
				"y": -1.4776565557,
				"z": 2.3251945287,
				"element": "H" 
			},
			{
				"x": 3.5015172534,
				"y": -0.0987399934,
				"z": -0.7744390611,
				"element": "H" 
			}
		],
		 "valence_orbital": [ 
			{
				"type": "occ",
				"energy": -0.30806,
				"method": "rhf"
			},
			{
				"type": "occ",
				"energy": -0.29859,
				"method": "rhf"
			},
			{
				"type": "occ",
				"energy": -0.28627,
				"method": "rhf"
			},
			{
				"type": "occ",
				"energy": -0.25597,
				"method": "rhf"
			},
			{
				"type": "occ",
				"energy": -0.238,
				"method": "rhf"
			},
			{
				"type": "unocc",
				"energy": -0.0807,
				"method": "rhf"
			},
			{
				"type": "unocc",
				"energy": -0.01469,
				"method": "rhf"
			},
			{
				"type": "unocc",
				"energy": 0.0163,
				"method": "rhf"
			},
			{
				"type": "unocc",
				"energy": 0.05811,
				"method": "rhf"
			},
			{
				"type": "unocc",
				"energy": 0.08283,
				"method": "rhf"
			}
		],
		"cosmo_sigma_profile": { 
			"-0.025": 0.0,
			"-0.024": 0.0,
			"-0.023": 0.0,
			"-0.022": 0.0,
			"-0.021": 0.0,
			"-0.02": 0.0,
			"-0.019": 0.0,
			"-0.018": 0.0,
			"-0.017": 0.0,
			"-0.016": 0.364747527182,
			"-0.015": 0.440037719006,
			"-0.014": 1.23339079507,
			"-0.013": 0.838201000669,
			"-0.012": 0.391077038115,
			"-0.011": 2.24847090547,
			"-0.01": 6.45397522481,
			"-0.009": 7.25374528539,
			"-0.008": 5.65552512266,
			"-0.007": 5.39316662173,
			"-0.006": 6.7063715129,
			"-0.005": 5.91858685575,
			"-0.004": 13.7601475252,
			"-0.003": 20.0273412934,
			"-0.002": 17.061138614,
			"-0.001": 15.8009250317,
			"0.0": 13.949638504,
			"0.001": 12.7386115627,
			"0.002": 9.24127738731,
			"0.003": 6.15348962899,
			"0.004": 8.16363202959,
			"0.005": 8.28973076485,
			"0.006": 8.68969337735,
			"0.007": 9.62475492213,
			"0.008": 5.58804328134,
			"0.009": 4.90197752752,
			"0.01": 4.91104593493,
			"0.011": 8.86470660792,
			"0.012": 3.14587894777,
			"0.013": 0.0753801956593,
			"0.014": 0.0,
			"0.015": 0.0,
			"0.016": 0.0,
			"0.017": 0.0,
			"0.018": 0.0,
			"0.019": 0.0,
			"0.02": 0.0,
			"0.021": 0.0,
			"0.022": 0.0,
			"0.023": 0.0,
			"0.024": 0.0,
			"0.025": 0.0
		}
	}
}
