{
	 "smiles": "CC(C)(C)OC(=O)N1C(=O)NC(C)(C)C1=O", 
	 "Tm": 426.15, 
	 "num_atms": 32, 
	 "gaussian": { 
		 "optdone": 1, 
		 "sigma_profile": "yes", 
		 "theory": "DFT", 
		 "functional": "B3LYP", 
		 "basiset": "6-31G**", 
		 "properties": { 
			 "R2extent": 4404.4095, 
			 "electric_dipole_moment_norm": 3.50656154516, 
			 "electric_quadrupole_moment_norm": 23.249619453, 
			 "total_energy": -801.173231757, 
			 "HOMO_LUMO_gap": 0.24321, 
			 "cosmo_polarized_energy": -18.76, 
			 "cosmo_cavitation_energy": 35.19, 
			 "cosmo_dispersion_energy": -23.71, 
			 "cosmo_repulsion_energy": 1.88, 
			 "cosmo_total_nonelectrostatic_energy": 13.36, 
			 "SMD_solvation_energy": 8.57 
		},
		"coords": [
			{
				"x": 0.0756482946,
				"y": 2.1317584843,
				"z": 3.2074473134,
				"element": "C" 
			},
			{
				"x": 0.8122555673,
				"y": 2.0584014266,
				"z": 1.8673545682,
				"element": "C" 
			},
			{
				"x": 0.685079893,
				"y": 3.3479222791,
				"z": 1.0526127776,
				"element": "C" 
			},
			{
				"x": 2.2769621809,
				"y": 1.6659869322,
				"z": 2.0657263113,
				"element": "C" 
			},
			{
				"x": 0.2892727301,
				"y": 0.9182123849,
				"z": 1.0758769518,
				"element": "O" 
			},
			{
				"x": -0.9978026448,
				"y": 0.8403992358,
				"z": 0.7540762245,
				"element": "C" 
			},
			{
				"x": -1.8618654207,
				"y": 1.670511619,
				"z": 0.8918473308,
				"element": "O" 
			},
			{
				"x": -1.252470027,
				"y": -0.442717695,
				"z": 0.171763757,
				"element": "N" 
			},
			{
				"x": -2.1795676752,
				"y": -0.6194979277,
				"z": -0.9133045372,
				"element": "C" 
			},
			{
				"x": -2.7107297007,
				"y": 0.2587491856,
				"z": -1.5498487372,
				"element": "O" 
			},
			{
				"x": -2.2908022097,
				"y": -1.9744212735,
				"z": -1.0788544324,
				"element": "N" 
			},
			{
				"x": -1.3786536871,
				"y": -2.7640791443,
				"z": -0.2575512666,
				"element": "C" 
			},
			{
				"x": -2.1189431047,
				"y": -3.7819960809,
				"z": 0.6225780323,
				"element": "C" 
			},
			{
				"x": -0.2751741641,
				"y": -3.4392495243,
				"z": -1.0918475744,
				"element": "C" 
			},
			{
				"x": -0.7515308977,
				"y": -1.6683208254,
				"z": 0.6274735787,
				"element": "C" 
			},
			{
				"x": 0.0020495363,
				"y": -1.8619700927,
				"z": 1.5532826563,
				"element": "O" 
			},
			{
				"x": 0.5503238789,
				"y": 2.8885025751,
				"z": 3.8398870029,
				"element": "H" 
			},
			{
				"x": -0.9725200707,
				"y": 2.4017907379,
				"z": 3.0721474025,
				"element": "H" 
			},
			{
				"x": 0.1332475083,
				"y": 1.1690109187,
				"z": 3.7240737808,
				"element": "H" 
			},
			{
				"x": 1.1737624779,
				"y": 4.1664151294,
				"z": 1.5909181229,
				"element": "H" 
			},
			{
				"x": 1.1791853196,
				"y": 3.2367803103,
				"z": 0.0825851037,
				"element": "H" 
			},
			{
				"x": -0.3606311578,
				"y": 3.6100539256,
				"z": 0.8886335104,
				"element": "H" 
			},
			{
				"x": 2.7860080842,
				"y": 1.5740040318,
				"z": 1.1020666393,
				"element": "H" 
			},
			{
				"x": 2.7905261813,
				"y": 2.4291233206,
				"z": 2.6578481554,
				"element": "H" 
			},
			{
				"x": 2.3489544271,
				"y": 0.7075936488,
				"z": 2.5867078946,
				"element": "H" 
			},
			{
				"x": -2.7328691428,
				"y": -2.3228487658,
				"z": -1.9162832098,
				"element": "H" 
			},
			{
				"x": -2.5554246035,
				"y": -4.5726999962,
				"z": 0.0039789536,
				"element": "H" 
			},
			{
				"x": -2.923192748,
				"y": -3.2973614556,
				"z": 1.1822499819,
				"element": "H" 
			},
			{
				"x": -1.4211769115,
				"y": -4.2348619475,
				"z": 1.3312403316,
				"element": "H" 
			},
			{
				"x": -0.7069614171,
				"y": -4.2126001569,
				"z": -1.7358010305,
				"element": "H" 
			},
			{
				"x": 0.2421085037,
				"y": -2.7106509453,
				"z": -1.7227268994,
				"element": "H" 
			},
			{
				"x": 0.4564309999,
				"y": -3.9085403149,
				"z": -0.4291586942,
				"element": "H" 
			}
		],
		 "valence_orbital": [ 
			{
				"type": "occ",
				"energy": -0.2988,
				"method": "rhf"
			},
			{
				"type": "occ",
				"energy": -0.28758,
				"method": "rhf"
			},
			{
				"type": "occ",
				"energy": -0.27709,
				"method": "rhf"
			},
			{
				"type": "occ",
				"energy": -0.2694,
				"method": "rhf"
			},
			{
				"type": "occ",
				"energy": -0.26534,
				"method": "rhf"
			},
			{
				"type": "unocc",
				"energy": -0.02213,
				"method": "rhf"
			},
			{
				"type": "unocc",
				"energy": 0.00684,
				"method": "rhf"
			},
			{
				"type": "unocc",
				"energy": 0.06358,
				"method": "rhf"
			},
			{
				"type": "unocc",
				"energy": 0.07393,
				"method": "rhf"
			},
			{
				"type": "unocc",
				"energy": 0.08481,
				"method": "rhf"
			}
		],
		"cosmo_sigma_profile": { 
			"-0.025": 0.0,
			"-0.024": 0.0,
			"-0.023": 0.0,
			"-0.022": 0.0,
			"-0.021": 0.0,
			"-0.02": 0.0,
			"-0.019": 0.0,
			"-0.018": 0.0,
			"-0.017": 0.0,
			"-0.016": 0.399606998312,
			"-0.015": 1.27902380472,
			"-0.014": 1.37498821099,
			"-0.013": 0.993117267098,
			"-0.012": 0.74085597417,
			"-0.011": 1.06291659151,
			"-0.01": 1.0775317453,
			"-0.009": 1.02826548443,
			"-0.008": 2.04410036625,
			"-0.007": 3.66909367544,
			"-0.006": 6.11693774038,
			"-0.005": 18.3005429269,
			"-0.004": 28.7204426051,
			"-0.003": 30.097993284,
			"-0.002": 29.1064775888,
			"-0.001": 34.8797740049,
			"0.0": 31.2224242252,
			"0.001": 11.2500198461,
			"0.002": 7.40639727651,
			"0.003": 6.57980288342,
			"0.004": 4.57236465106,
			"0.005": 4.57229786452,
			"0.006": 4.45296986538,
			"0.007": 3.98120056145,
			"0.008": 4.14493745462,
			"0.009": 5.8408165881,
			"0.01": 8.41210739342,
			"0.011": 9.50077520128,
			"0.012": 7.41865132239,
			"0.013": 3.70512144576,
			"0.014": 1.22311092712,
			"0.015": 0.0369729733094,
			"0.016": 0.0,
			"0.017": 0.0,
			"0.018": 0.0,
			"0.019": 0.0,
			"0.02": 0.0,
			"0.021": 0.0,
			"0.022": 0.0,
			"0.023": 0.0,
			"0.024": 0.0,
			"0.025": 0.0
		}
	}
}
