{
	 "smiles": "CC1=NC(N)=C(C=C1)[N+]([O-])=O", 
	 "Tm": 421.15, 
	 "num_atms": 18, 
	 "gaussian": { 
		 "optdone": 1, 
		 "sigma_profile": "yes", 
		 "theory": "DFT", 
		 "functional": "B3LYP", 
		 "basiset": "6-31G**", 
		 "properties": { 
			 "R2extent": 2451.5833, 
			 "electric_dipole_moment_norm": 3.87727619212, 
			 "electric_quadrupole_moment_norm": 15.8359941121, 
			 "total_energy": -547.479929724, 
			 "HOMO_LUMO_gap": 0.14832, 
			 "cosmo_polarized_energy": -10.22, 
			 "cosmo_cavitation_energy": 22.46, 
			 "cosmo_dispersion_energy": -17.08, 
			 "cosmo_repulsion_energy": 1.38, 
			 "cosmo_total_nonelectrostatic_energy": 6.76, 
			 "SMD_solvation_energy": 4.75 
		},
		"coords": [
			{
				"x": -1.8145815422,
				"y": -0.7623274132,
				"z": 0.7114939259,
				"element": "C" 
			},
			{
				"x": -0.5332941893,
				"y": -0.4190144359,
				"z": -0.0038091011,
				"element": "C" 
			},
			{
				"x": 0.4259682909,
				"y": 0.1461780675,
				"z": 0.7235426464,
				"element": "N" 
			},
			{
				"x": 1.6057863152,
				"y": 0.4807000612,
				"z": 0.1481202081,
				"element": "C" 
			},
			{
				"x": 2.5130789569,
				"y": 1.0475554922,
				"z": 0.9664688597,
				"element": "N" 
			},
			{
				"x": 1.8274886623,
				"y": 0.2300105746,
				"z": -1.237251567,
				"element": "C" 
			},
			{
				"x": 0.8081342296,
				"y": -0.3654268433,
				"z": -1.9895875342,
				"element": "C" 
			},
			{
				"x": -0.384502008,
				"y": -0.6965871917,
				"z": -1.3807707485,
				"element": "C" 
			},
			{
				"x": 3.0619365928,
				"y": 0.5634069764,
				"z": -1.9052473494,
				"element": "N" 
			},
			{
				"x": 3.9752061201,
				"y": 1.094480836,
				"z": -1.2446967928,
				"element": "O" 
			},
			{
				"x": 3.1660983863,
				"y": 0.3095223681,
				"z": -3.1069770026,
				"element": "O" 
			},
			{
				"x": -2.6683240668,
				"y": -0.2597824217,
				"z": 0.2431813033,
				"element": "H" 
			},
			{
				"x": -2.0094094678,
				"y": -1.8397381899,
				"z": 0.6626894993,
				"element": "H" 
			},
			{
				"x": -1.7527027455,
				"y": -0.460030238,
				"z": 1.7573778971,
				"element": "H" 
			},
			{
				"x": 3.4111574796,
				"y": 1.3179400331,
				"z": 0.593896104,
				"element": "H" 
			},
			{
				"x": 2.247981165,
				"y": 1.176674583,
				"z": 1.9298167144,
				"element": "H" 
			},
			{
				"x": 0.991292015,
				"y": -0.5495917179,
				"z": -3.0411638507,
				"element": "H" 
			},
			{
				"x": -1.1904141943,
				"y": -1.1583705404,
				"z": -1.9402832118,
				"element": "H" 
			}
		],
		 "valence_orbital": [ 
			{
				"type": "occ",
				"energy": -0.30346,
				"method": "rhf"
			},
			{
				"type": "occ",
				"energy": -0.29703,
				"method": "rhf"
			},
			{
				"type": "occ",
				"energy": -0.28924,
				"method": "rhf"
			},
			{
				"type": "occ",
				"energy": -0.27394,
				"method": "rhf"
			},
			{
				"type": "occ",
				"energy": -0.23276,
				"method": "rhf"
			},
			{
				"type": "unocc",
				"energy": -0.08444,
				"method": "rhf"
			},
			{
				"type": "unocc",
				"energy": -0.01855,
				"method": "rhf"
			},
			{
				"type": "unocc",
				"energy": 0.00315,
				"method": "rhf"
			},
			{
				"type": "unocc",
				"energy": 0.09217,
				"method": "rhf"
			},
			{
				"type": "unocc",
				"energy": 0.10112,
				"method": "rhf"
			}
		],
		"cosmo_sigma_profile": { 
			"-0.025": 0.0,
			"-0.024": 0.0,
			"-0.023": 0.0,
			"-0.022": 0.0,
			"-0.021": 0.0,
			"-0.02": 0.0,
			"-0.019": 0.0,
			"-0.018": 0.0,
			"-0.017": 0.0,
			"-0.016": 0.0,
			"-0.015": 0.156090186455,
			"-0.014": 0.809857360309,
			"-0.013": 0.990208516657,
			"-0.012": 1.21432753421,
			"-0.011": 1.32384856855,
			"-0.01": 1.92598100817,
			"-0.009": 1.66705478324,
			"-0.008": 2.13166996403,
			"-0.007": 3.73860175046,
			"-0.006": 6.65658013623,
			"-0.005": 11.6725218792,
			"-0.004": 13.5706779154,
			"-0.003": 13.2840343418,
			"-0.002": 14.2222139074,
			"-0.001": 19.798784943,
			"0.0": 16.3928146163,
			"0.001": 11.2606255931,
			"0.002": 9.55943405272,
			"0.003": 7.24724782878,
			"0.004": 5.19764262853,
			"0.005": 4.98534218999,
			"0.006": 2.96806072529,
			"0.007": 4.83852381103,
			"0.008": 7.22521605724,
			"0.009": 6.15950698202,
			"0.01": 5.2743420773,
			"0.011": 3.87426908548,
			"0.012": 0.758258247683,
			"0.013": 0.357434937451,
			"0.014": 0.0,
			"0.015": 0.0,
			"0.016": 0.0,
			"0.017": 0.0,
			"0.018": 0.0,
			"0.019": 0.0,
			"0.02": 0.0,
			"0.021": 0.0,
			"0.022": 0.0,
			"0.023": 0.0,
			"0.024": 0.0,
			"0.025": 0.0
		}
	}
}
