{
	 "smiles": "OC(=O)CNS(=O)(=O)C1=C(Cl)C=CC(=C1)C(F)(F)F", 
	 "Tm": 431.15, 
	 "num_atms": 26, 
	 "gaussian": { 
		 "optdone": 1, 
		 "sigma_profile": "yes", 
		 "theory": "DFT", 
		 "functional": "B3LYP", 
		 "basiset": "6-31G**", 
		 "properties": { 
			 "R2extent": 6790.7888, 
			 "electric_dipole_moment_norm": 3.99953294523, 
			 "electric_quadrupole_moment_norm": 16.0318429973, 
			 "total_energy": -1860.66006248, 
			 "HOMO_LUMO_gap": 0.2053, 
			 "cosmo_polarized_energy": -19.42, 
			 "cosmo_cavitation_energy": 36.09, 
			 "cosmo_dispersion_energy": -25.21, 
			 "cosmo_repulsion_energy": 1.86, 
			 "cosmo_total_nonelectrostatic_energy": 12.74, 
			 "SMD_solvation_energy": 7.36 
		},
		"coords": [
			{
				"x": 4.1524278315,
				"y": 0.3785429597,
				"z": 2.0702323182,
				"element": "O" 
			},
			{
				"x": 3.3912514147,
				"y": 1.4932423048,
				"z": 2.0364131755,
				"element": "C" 
			},
			{
				"x": 3.8352176725,
				"y": 2.6131554823,
				"z": 1.9530728506,
				"element": "O" 
			},
			{
				"x": 1.9048955651,
				"y": 1.1830168853,
				"z": 2.189602389,
				"element": "C" 
			},
			{
				"x": 1.4818750906,
				"y": -0.1911529159,
				"z": 1.9374372058,
				"element": "N" 
			},
			{
				"x": 1.4243988678,
				"y": -0.720861602,
				"z": 0.3347058177,
				"element": "S" 
			},
			{
				"x": 1.9977417186,
				"y": 0.3196991689,
				"z": -0.5244298289,
				"element": "O" 
			},
			{
				"x": 1.9156172386,
				"y": -2.0964608585,
				"z": 0.3196364957,
				"element": "O" 
			},
			{
				"x": -0.3492904423,
				"y": -0.7312737749,
				"z": -0.0216082823,
				"element": "C" 
			},
			{
				"x": -1.2803170451,
				"y": -1.5289042862,
				"z": 0.6615388127,
				"element": "C" 
			},
			{
				"x": -0.8294540505,
				"y": -2.5685120732,
				"z": 1.987751352,
				"element": "Cl" 
			},
			{
				"x": -2.6268009905,
				"y": -1.4960043837,
				"z": 0.2920631376,
				"element": "C" 
			},
			{
				"x": -3.0452643015,
				"y": -0.6834161123,
				"z": -0.757291374,
				"element": "C" 
			},
			{
				"x": -2.1195966379,
				"y": 0.1048194215,
				"z": -1.4432494136,
				"element": "C" 
			},
			{
				"x": -0.7754875112,
				"y": 0.0790503616,
				"z": -1.0756354338,
				"element": "C" 
			},
			{
				"x": -2.5664352541,
				"y": 0.9428570865,
				"z": -2.613399485,
				"element": "C" 
			},
			{
				"x": -2.5825952863,
				"y": 0.2238722177,
				"z": -3.7569292458,
				"element": "F" 
			},
			{
				"x": -3.8178065123,
				"y": 1.4176954697,
				"z": -2.4281671165,
				"element": "F" 
			},
			{
				"x": -1.7504883224,
				"y": 1.9969206183,
				"z": -2.8145924903,
				"element": "F" 
			},
			{
				"x": 5.0750214126,
				"y": 0.664752358,
				"z": 1.9621724732,
				"element": "H" 
			},
			{
				"x": 1.3630193829,
				"y": 1.8657245742,
				"z": 1.5340284485,
				"element": "H" 
			},
			{
				"x": 1.621230935,
				"y": 1.4370803024,
				"z": 3.2174688199,
				"element": "H" 
			},
			{
				"x": 1.9769085938,
				"y": -0.891979858,
				"z": 2.4824801265,
				"element": "H" 
			},
			{
				"x": -3.3383895811,
				"y": -2.1093617179,
				"z": 0.8329207401,
				"element": "H" 
			},
			{
				"x": -4.093277797,
				"y": -0.6571558458,
				"z": -1.0351879082,
				"element": "H" 
			},
			{
				"x": -0.0446019912,
				"y": 0.6891542174,
				"z": -1.5928335846,
				"element": "H" 
			}
		],
		 "valence_orbital": [ 
			{
				"type": "occ",
				"energy": -0.32067,
				"method": "rhf"
			},
			{
				"type": "occ",
				"energy": -0.31406,
				"method": "rhf"
			},
			{
				"type": "occ",
				"energy": -0.29647,
				"method": "rhf"
			},
			{
				"type": "occ",
				"energy": -0.28068,
				"method": "rhf"
			},
			{
				"type": "occ",
				"energy": -0.27128,
				"method": "rhf"
			},
			{
				"type": "unocc",
				"energy": -0.06598,
				"method": "rhf"
			},
			{
				"type": "unocc",
				"energy": -0.05051,
				"method": "rhf"
			},
			{
				"type": "unocc",
				"energy": -0.00434,
				"method": "rhf"
			},
			{
				"type": "unocc",
				"energy": 0.00013,
				"method": "rhf"
			},
			{
				"type": "unocc",
				"energy": 0.05009,
				"method": "rhf"
			}
		],
		"cosmo_sigma_profile": { 
			"-0.025": 0.0,
			"-0.024": 0.0,
			"-0.023": 0.0,
			"-0.022": 0.0,
			"-0.021": 0.0,
			"-0.02": 0.0,
			"-0.019": 0.585336284092,
			"-0.018": 1.14291408857,
			"-0.017": 0.721783341542,
			"-0.016": 0.518971276863,
			"-0.015": 0.946251882732,
			"-0.014": 2.03208379373,
			"-0.013": 1.68742311672,
			"-0.012": 1.00416185474,
			"-0.011": 1.66142954276,
			"-0.01": 2.84351501615,
			"-0.009": 6.72611169573,
			"-0.008": 10.7711225614,
			"-0.007": 9.52607543624,
			"-0.006": 9.70138453472,
			"-0.005": 10.36110293,
			"-0.004": 11.3512533886,
			"-0.003": 14.973307275,
			"-0.002": 17.9289691136,
			"-0.001": 25.7244632301,
			"0.0": 21.9124564844,
			"0.001": 16.6628874488,
			"0.002": 32.7555094377,
			"0.003": 25.7002701607,
			"0.004": 9.41936194033,
			"0.005": 7.27667300615,
			"0.006": 7.97650547312,
			"0.007": 5.43969399365,
			"0.008": 4.98735991623,
			"0.009": 8.24268837131,
			"0.01": 10.7883917744,
			"0.011": 7.36760536296,
			"0.012": 2.24381511431,
			"0.013": 0.0256222537572,
			"0.014": 0.0,
			"0.015": 0.0,
			"0.016": 0.0,
			"0.017": 0.0,
			"0.018": 0.0,
			"0.019": 0.0,
			"0.02": 0.0,
			"0.021": 0.0,
			"0.022": 0.0,
			"0.023": 0.0,
			"0.024": 0.0,
			"0.025": 0.0
		}
	}
}
