{
	 "smiles": "CC(C)CC(N)C1=NC(=NO1)C1=NN=CN1", 
	 "Tm": 477.15, 
	 "num_atms": 30, 
	 "gaussian": { 
		 "optdone": 1, 
		 "sigma_profile": "yes", 
		 "theory": "DFT", 
		 "functional": "B3LYP", 
		 "basiset": "6-31G**", 
		 "properties": { 
			 "R2extent": 4827.3994, 
			 "electric_dipole_moment_norm": 4.4470032134, 
			 "electric_quadrupole_moment_norm": 28.7461305201, 
			 "total_energy": -755.061947203, 
			 "HOMO_LUMO_gap": 0.19841, 
			 "cosmo_polarized_energy": -24.39, 
			 "cosmo_cavitation_energy": 33.59, 
			 "cosmo_dispersion_energy": -23.69, 
			 "cosmo_repulsion_energy": 1.84, 
			 "cosmo_total_nonelectrostatic_energy": 11.74, 
			 "SMD_solvation_energy": 0.84 
		},
		"coords": [
			{
				"x": -2.7531567302,
				"y": 2.5640760594,
				"z": -1.1476454111,
				"element": "C" 
			},
			{
				"x": -2.6005754434,
				"y": 1.2622235796,
				"z": -0.3407016972,
				"element": "C" 
			},
			{
				"x": -1.9896440462,
				"y": 0.1447755304,
				"z": -1.2012201923,
				"element": "C" 
			},
			{
				"x": -1.9153614337,
				"y": 1.4439778997,
				"z": 1.0363786272,
				"element": "C" 
			},
			{
				"x": -0.385977799,
				"y": 1.7324539833,
				"z": 1.1356405505,
				"element": "C" 
			},
			{
				"x": 0.1536365485,
				"y": 2.9043274076,
				"z": 0.4485105615,
				"element": "N" 
			},
			{
				"x": 0.4317142994,
				"y": 0.5159406426,
				"z": 0.7931060472,
				"element": "C" 
			},
			{
				"x": 0.3636665959,
				"y": -0.6598467109,
				"z": 1.3495153753,
				"element": "N" 
			},
			{
				"x": 1.3078090684,
				"y": -1.3655015282,
				"z": 0.6462799469,
				"element": "C" 
			},
			{
				"x": 1.9288503261,
				"y": -0.6823738359,
				"z": -0.2921732403,
				"element": "N" 
			},
			{
				"x": 1.3452325184,
				"y": 0.5864649345,
				"z": -0.1935947158,
				"element": "O" 
			},
			{
				"x": 1.6398515487,
				"y": -2.7631663792,
				"z": 0.8777930276,
				"element": "C" 
			},
			{
				"x": 1.0909079583,
				"y": -3.588663203,
				"z": 1.7449634513,
				"element": "N" 
			},
			{
				"x": 1.7195937725,
				"y": -4.80508671,
				"z": 1.6063880435,
				"element": "N" 
			},
			{
				"x": 2.6256259802,
				"y": -4.6762923013,
				"z": 0.6626225174,
				"element": "C" 
			},
			{
				"x": 2.6197767043,
				"y": -3.4071665802,
				"z": 0.1660643768,
				"element": "N" 
			},
			{
				"x": -1.8010751416,
				"y": 2.9196431528,
				"z": -1.5538161756,
				"element": "H" 
			},
			{
				"x": -3.1761652559,
				"y": 3.3687679052,
				"z": -0.5357607801,
				"element": "H" 
			},
			{
				"x": -3.4253355543,
				"y": 2.4075346628,
				"z": -1.9982313021,
				"element": "H" 
			},
			{
				"x": -3.6212280431,
				"y": 0.9414167265,
				"z": -0.0872367548,
				"element": "H" 
			},
			{
				"x": -1.9118565988,
				"y": -0.7941748341,
				"z": -0.6445082033,
				"element": "H" 
			},
			{
				"x": -2.611427591,
				"y": -0.0391304335,
				"z": -2.0838735881,
				"element": "H" 
			},
			{
				"x": -0.9889942979,
				"y": 0.4057091917,
				"z": -1.5636877288,
				"element": "H" 
			},
			{
				"x": -2.0991085682,
				"y": 0.5455842933,
				"z": 1.6377292729,
				"element": "H" 
			},
			{
				"x": -2.4166097163,
				"y": 2.26932735,
				"z": 1.5598158004,
				"element": "H" 
			},
			{
				"x": -0.2010114109,
				"y": 1.8847666546,
				"z": 2.2079989318,
				"element": "H" 
			},
			{
				"x": -0.399398091,
				"y": 3.7219040781,
				"z": 0.6876304115,
				"element": "H" 
			},
			{
				"x": 0.1045921462,
				"y": 2.7942019426,
				"z": -0.5594994438,
				"element": "H" 
			},
			{
				"x": 3.29117318,
				"y": -5.4528871567,
				"z": 0.3148674695,
				"element": "H" 
			},
			{
				"x": 3.1950950744,
				"y": -3.001506322,
				"z": -0.5584551784,
				"element": "H" 
			}
		],
		 "valence_orbital": [ 
			{
				"type": "occ",
				"energy": -0.30654,
				"method": "rhf"
			},
			{
				"type": "occ",
				"energy": -0.30134,
				"method": "rhf"
			},
			{
				"type": "occ",
				"energy": -0.25983,
				"method": "rhf"
			},
			{
				"type": "occ",
				"energy": -0.258,
				"method": "rhf"
			},
			{
				"type": "occ",
				"energy": -0.24899,
				"method": "rhf"
			},
			{
				"type": "unocc",
				"energy": -0.05058,
				"method": "rhf"
			},
			{
				"type": "unocc",
				"energy": -0.00527,
				"method": "rhf"
			},
			{
				"type": "unocc",
				"energy": 0.02671,
				"method": "rhf"
			},
			{
				"type": "unocc",
				"energy": 0.04548,
				"method": "rhf"
			},
			{
				"type": "unocc",
				"energy": 0.06582,
				"method": "rhf"
			}
		],
		"cosmo_sigma_profile": { 
			"-0.025": 0.0,
			"-0.024": 0.0,
			"-0.023": 0.0,
			"-0.022": 0.0,
			"-0.021": 0.0,
			"-0.02": 0.0,
			"-0.019": 0.0771814487986,
			"-0.018": 1.13107135163,
			"-0.017": 0.989610400016,
			"-0.016": 0.964008487053,
			"-0.015": 1.23494878171,
			"-0.014": 0.80885864664,
			"-0.013": 1.1680793569,
			"-0.012": 1.44798864775,
			"-0.011": 4.19773260817,
			"-0.01": 4.04574047877,
			"-0.009": 5.83281700944,
			"-0.008": 6.45127156272,
			"-0.007": 6.95540738295,
			"-0.006": 8.9994984073,
			"-0.005": 8.73971480166,
			"-0.004": 12.0095251963,
			"-0.003": 22.1670689787,
			"-0.002": 31.7635970271,
			"-0.001": 28.4008202771,
			"0.0": 19.7579934482,
			"0.001": 19.4642830366,
			"0.002": 9.27997601759,
			"0.003": 4.63408840307,
			"0.004": 5.55154064867,
			"0.005": 6.21078462527,
			"0.006": 6.64437745001,
			"0.007": 5.20513898239,
			"0.008": 4.51041593603,
			"0.009": 4.78183891793,
			"0.01": 6.29982395154,
			"0.011": 4.2408416331,
			"0.012": 4.41607858542,
			"0.013": 5.95627429419,
			"0.014": 3.81109111679,
			"0.015": 3.23046898829,
			"0.016": 2.4644054529,
			"0.017": 0.623035315664,
			"0.018": 0.27430904572,
			"0.019": 0.0,
			"0.02": 0.0,
			"0.021": 0.0,
			"0.022": 0.0,
			"0.023": 0.0,
			"0.024": 0.0,
			"0.025": 0.0
		}
	}
}
