{
	 "smiles": "CC=CC1=C(N2[C@H](SC1)[C@H](NC(=O)[C@H](N)C1=CC=C(O)C=C1)C2=O)C(O)=O", 
	 "Tm": 494.65, 
	 "num_atms": 46, 
	 "gaussian": { 
		 "optdone": 1, 
		 "sigma_profile": "yes", 
		 "theory": "DFT", 
		 "functional": "B3LYP", 
		 "basiset": "6-31G**", 
		 "properties": { 
			 "R2extent": 13556.2509, 
			 "electric_dipole_moment_norm": 7.5990400295, 
			 "electric_quadrupole_moment_norm": 54.0684445706, 
			 "total_energy": -1635.90005777, 
			 "HOMO_LUMO_gap": 0.15567, 
			 "cosmo_polarized_energy": -34.62, 
			 "cosmo_cavitation_energy": 50.86, 
			 "cosmo_dispersion_energy": -35.19, 
			 "cosmo_repulsion_energy": 2.66, 
			 "cosmo_total_nonelectrostatic_energy": 18.33, 
			 "SMD_solvation_energy": 9.05 
		},
		"coords": [
			{
				"x": 3.3774652753,
				"y": 2.2524145878,
				"z": -4.2233451871,
				"element": "C" 
			},
			{
				"x": 2.4971303249,
				"y": 1.3603286064,
				"z": -3.4004250134,
				"element": "C" 
			},
			{
				"x": 2.9661957559,
				"y": 0.49679877,
				"z": -2.4793309043,
				"element": "C" 
			},
			{
				"x": 2.1590961297,
				"y": -0.3990429487,
				"z": -1.6464824548,
				"element": "C" 
			},
			{
				"x": 2.7256539272,
				"y": -1.2997829494,
				"z": -0.7802767463,
				"element": "C" 
			},
			{
				"x": 1.8805290042,
				"y": -2.1802727219,
				"z": -0.0638114419,
				"element": "N" 
			},
			{
				"x": 0.470369861,
				"y": -2.4459031746,
				"z": -0.3568392353,
				"element": "C" 
			},
			{
				"x": -0.4721989863,
				"y": -0.9079519813,
				"z": -0.5468452909,
				"element": "S" 
			},
			{
				"x": 0.6531445943,
				"y": -0.2687447568,
				"z": -1.847061191,
				"element": "C" 
			},
			{
				"x": 0.3847920755,
				"y": -3.2140225197,
				"z": 1.0098318295,
				"element": "C" 
			},
			{
				"x": -0.5633463474,
				"y": -2.8469092153,
				"z": 2.0152783335,
				"element": "N" 
			},
			{
				"x": -0.4168322202,
				"y": -1.7623004315,
				"z": 2.8399486631,
				"element": "C" 
			},
			{
				"x": 0.4932914348,
				"y": -0.9541784684,
				"z": 2.7522226609,
				"element": "O" 
			},
			{
				"x": -1.5362449985,
				"y": -1.6207345053,
				"z": 3.8956918976,
				"element": "C" 
			},
			{
				"x": -2.1448073349,
				"y": -2.9299488014,
				"z": 4.1744099615,
				"element": "N" 
			},
			{
				"x": -2.57115068,
				"y": -0.6215763451,
				"z": 3.3950865585,
				"element": "C" 
			},
			{
				"x": -3.7299744309,
				"y": -1.0296301396,
				"z": 2.7196847568,
				"element": "C" 
			},
			{
				"x": -4.6545436856,
				"y": -0.0994130493,
				"z": 2.252210984,
				"element": "C" 
			},
			{
				"x": -4.4243534359,
				"y": 1.2669747796,
				"z": 2.4423117338,
				"element": "C" 
			},
			{
				"x": -5.3627246991,
				"y": 2.1372350524,
				"z": 1.9663237331,
				"element": "O" 
			},
			{
				"x": -3.2651022584,
				"y": 1.6890801213,
				"z": 3.102991465,
				"element": "C" 
			},
			{
				"x": -2.3510616624,
				"y": 0.7488914602,
				"z": 3.5726815897,
				"element": "C" 
			},
			{
				"x": 1.8521523447,
				"y": -2.7606477986,
				"z": 1.1890608739,
				"element": "C" 
			},
			{
				"x": 2.7139797442,
				"y": -2.9248999208,
				"z": 2.0340173416,
				"element": "O" 
			},
			{
				"x": 4.22577935,
				"y": -1.4851725539,
				"z": -0.604149463,
				"element": "C" 
			},
			{
				"x": 4.6655299847,
				"y": -2.0412703908,
				"z": 0.52399463,
				"element": "O" 
			},
			{
				"x": 5.0212458533,
				"y": -1.1537713234,
				"z": -1.4614362416,
				"element": "O" 
			},
			{
				"x": 3.2460479452,
				"y": 2.0563214686,
				"z": -5.2956239145,
				"element": "H" 
			},
			{
				"x": 3.1234849259,
				"y": 3.3094534134,
				"z": -4.0688989406,
				"element": "H" 
			},
			{
				"x": 4.4337308785,
				"y": 2.1142013956,
				"z": -3.9774779213,
				"element": "H" 
			},
			{
				"x": 1.4308129558,
				"y": 1.445653001,
				"z": -3.6030266128,
				"element": "H" 
			},
			{
				"x": 4.0370103035,
				"y": 0.4230309054,
				"z": -2.3435174015,
				"element": "H" 
			},
			{
				"x": 0.3510514469,
				"y": -3.0747397184,
				"z": -1.2455006391,
				"element": "H" 
			},
			{
				"x": 0.3823040494,
				"y": -0.7166501649,
				"z": -2.8105793758,
				"element": "H" 
			},
			{
				"x": 0.4001636491,
				"y": 0.7916068692,
				"z": -1.9103235424,
				"element": "H" 
			},
			{
				"x": 0.3211499248,
				"y": -4.2933374844,
				"z": 0.843442441,
				"element": "H" 
			},
			{
				"x": -1.3261190793,
				"y": -3.4710642995,
				"z": 2.253545415,
				"element": "H" 
			},
			{
				"x": -1.0314310829,
				"y": -1.179060135,
				"z": 4.7659903726,
				"element": "H" 
			},
			{
				"x": -1.522340606,
				"y": -3.4853579711,
				"z": 4.7564251807,
				"element": "H" 
			},
			{
				"x": -3.0076831812,
				"y": -2.8034309401,
				"z": 4.6969764015,
				"element": "H" 
			},
			{
				"x": -3.9136041225,
				"y": -2.0871998422,
				"z": 2.5580101653,
				"element": "H" 
			},
			{
				"x": -5.5551036698,
				"y": -0.4126940483,
				"z": 1.7345031855,
				"element": "H" 
			},
			{
				"x": -5.0786306114,
				"y": 3.0419615489,
				"z": 2.150500576,
				"element": "H" 
			},
			{
				"x": -3.0786725085,
				"y": 2.7505376227,
				"z": 3.2527712581,
				"element": "H" 
			},
			{
				"x": -1.448335823,
				"y": 1.0850283052,
				"z": 4.0741729909,
				"element": "H" 
			},
			{
				"x": 3.9767496854,
				"y": -2.2920093077,
				"z": 1.1932665184,
				"element": "H" 
			}
		],
		 "valence_orbital": [ 
			{
				"type": "occ",
				"energy": -0.25784,
				"method": "rhf"
			},
			{
				"type": "occ",
				"energy": -0.25504,
				"method": "rhf"
			},
			{
				"type": "occ",
				"energy": -0.2336,
				"method": "rhf"
			},
			{
				"type": "occ",
				"energy": -0.22386,
				"method": "rhf"
			},
			{
				"type": "occ",
				"energy": -0.21534,
				"method": "rhf"
			},
			{
				"type": "unocc",
				"energy": -0.05967,
				"method": "rhf"
			},
			{
				"type": "unocc",
				"energy": -0.01166,
				"method": "rhf"
			},
			{
				"type": "unocc",
				"energy": -0.00748,
				"method": "rhf"
			},
			{
				"type": "unocc",
				"energy": -0.00188,
				"method": "rhf"
			},
			{
				"type": "unocc",
				"energy": 0.01849,
				"method": "rhf"
			}
		],
		"cosmo_sigma_profile": { 
			"-0.025": 0.0,
			"-0.024": 0.0,
			"-0.023": 0.0,
			"-0.022": 0.0,
			"-0.021": 0.0,
			"-0.02": 0.0,
			"-0.019": 0.0,
			"-0.018": 0.461019670667,
			"-0.017": 0.873616125724,
			"-0.016": 1.40332457834,
			"-0.015": 0.9215374763,
			"-0.014": 1.19333746352,
			"-0.013": 1.667145665,
			"-0.012": 1.63734675176,
			"-0.011": 4.48135702109,
			"-0.01": 8.92510565801,
			"-0.009": 9.73902037865,
			"-0.008": 13.5145586776,
			"-0.007": 14.6521821954,
			"-0.006": 16.2669969707,
			"-0.005": 25.6241803861,
			"-0.004": 26.5485878095,
			"-0.003": 27.35906275,
			"-0.002": 23.5647825935,
			"-0.001": 24.8820453236,
			"0.0": 24.3920268541,
			"0.001": 19.0156753639,
			"0.002": 17.4469008995,
			"0.003": 19.4667376489,
			"0.004": 21.9816176275,
			"0.005": 22.4076892102,
			"0.006": 10.5652100567,
			"0.007": 9.5357633996,
			"0.008": 9.46896887912,
			"0.009": 8.23129170381,
			"0.01": 9.82606892837,
			"0.011": 12.156053853,
			"0.012": 8.88411182656,
			"0.013": 6.62408513785,
			"0.014": 1.50564776457,
			"0.015": 0.0,
			"0.016": 0.0,
			"0.017": 0.0,
			"0.018": 0.0,
			"0.019": 0.0,
			"0.02": 0.0,
			"0.021": 0.0,
			"0.022": 0.0,
			"0.023": 0.0,
			"0.024": 0.0,
			"0.025": 0.0
		}
	}
}
