{
	 "smiles": "CCOC(=O)C1=C(NC(=O)CCl)N(C)N=C1", 
	 "Tm": 364.15, 
	 "num_atms": 28, 
	 "gaussian": { 
		 "optdone": 1, 
		 "sigma_profile": "yes", 
		 "theory": "DFT", 
		 "functional": "B3LYP", 
		 "basiset": "6-31G**", 
		 "properties": { 
			 "R2extent": 6823.5864, 
			 "electric_dipole_moment_norm": 4.1625271903, 
			 "electric_quadrupole_moment_norm": 18.6147425668, 
			 "total_energy": -1200.31150955, 
			 "HOMO_LUMO_gap": 0.21526, 
			 "cosmo_polarized_energy": -18.53, 
			 "cosmo_cavitation_energy": 34.65, 
			 "cosmo_dispersion_energy": -24.31, 
			 "cosmo_repulsion_energy": 1.95, 
			 "cosmo_total_nonelectrostatic_energy": 12.29, 
			 "SMD_solvation_energy": 6.67 
		},
		"coords": [
			{
				"x": -2.8808034879,
				"y": 3.628803778,
				"z": 1.2379915894,
				"element": "C" 
			},
			{
				"x": -1.7662885743,
				"y": 2.7497165867,
				"z": 0.7043152164,
				"element": "C" 
			},
			{
				"x": -2.3764376707,
				"y": 1.5440356485,
				"z": 0.1841888185,
				"element": "O" 
			},
			{
				"x": -1.5309945557,
				"y": 0.6393662472,
				"z": -0.3482651176,
				"element": "C" 
			},
			{
				"x": -0.3185654979,
				"y": 0.7870964781,
				"z": -0.3958575539,
				"element": "O" 
			},
			{
				"x": -2.2315469227,
				"y": -0.5298966973,
				"z": -0.8788612857,
				"element": "C" 
			},
			{
				"x": -1.5958801622,
				"y": -1.6737840718,
				"z": -1.367923105,
				"element": "C" 
			},
			{
				"x": -0.2301840044,
				"y": -1.9658075921,
				"z": -1.4426519428,
				"element": "N" 
			},
			{
				"x": 0.4749620946,
				"y": -2.8703699055,
				"z": -0.632864844,
				"element": "C" 
			},
			{
				"x": 1.6836649972,
				"y": -2.8549161103,
				"z": -0.6023385999,
				"element": "O" 
			},
			{
				"x": -0.3969786789,
				"y": -3.844985006,
				"z": 0.1664598072,
				"element": "C" 
			},
			{
				"x": 0.5657305383,
				"y": -4.8570920398,
				"z": 1.2808327709,
				"element": "Cl" 
			},
			{
				"x": -2.5750709005,
				"y": -2.4844487701,
				"z": -1.8521147319,
				"element": "N" 
			},
			{
				"x": -2.4416423704,
				"y": -3.73428813,
				"z": -2.579260842,
				"element": "C" 
			},
			{
				"x": -3.8149344613,
				"y": -1.9488883915,
				"z": -1.6789369,
				"element": "N" 
			},
			{
				"x": -3.6076671078,
				"y": -0.7737281325,
				"z": -1.1000538437,
				"element": "C" 
			},
			{
				"x": -3.4303662811,
				"y": 3.122738139,
				"z": 2.0368194475,
				"element": "H" 
			},
			{
				"x": -3.5872706878,
				"y": 3.8905791455,
				"z": 0.4450621584,
				"element": "H" 
			},
			{
				"x": -2.4598497003,
				"y": 4.5542254623,
				"z": 1.6429185907,
				"element": "H" 
			},
			{
				"x": -1.205682451,
				"y": 3.2359780285,
				"z": -0.1001296558,
				"element": "H" 
			},
			{
				"x": -1.0498219384,
				"y": 2.4729555888,
				"z": 1.4838697788,
				"element": "H" 
			},
			{
				"x": 0.3397321738,
				"y": -1.1449940912,
				"z": -1.6348117009,
				"element": "H" 
			},
			{
				"x": -0.9337664722,
				"y": -4.5186130383,
				"z": -0.502898663,
				"element": "H" 
			},
			{
				"x": -1.131475133,
				"y": -3.2922016696,
				"z": 0.7567734483,
				"element": "H" 
			},
			{
				"x": -2.7252091999,
				"y": -4.5874875929,
				"z": -1.9551143777,
				"element": "H" 
			},
			{
				"x": -1.4074620957,
				"y": -3.8417016741,
				"z": -2.9097287683,
				"element": "H" 
			},
			{
				"x": -3.1032993325,
				"y": -3.6995417272,
				"z": -3.4458544867,
				"element": "H" 
			},
			{
				"x": -4.4420921175,
				"y": -0.1294504622,
				"z": -0.8610652073,
				"element": "H" 
			}
		],
		 "valence_orbital": [ 
			{
				"type": "occ",
				"energy": -0.30104,
				"method": "rhf"
			},
			{
				"type": "occ",
				"energy": -0.28504,
				"method": "rhf"
			},
			{
				"type": "occ",
				"energy": -0.28024,
				"method": "rhf"
			},
			{
				"type": "occ",
				"energy": -0.27367,
				"method": "rhf"
			},
			{
				"type": "occ",
				"energy": -0.25199,
				"method": "rhf"
			},
			{
				"type": "unocc",
				"energy": -0.03673,
				"method": "rhf"
			},
			{
				"type": "unocc",
				"energy": -0.00587,
				"method": "rhf"
			},
			{
				"type": "unocc",
				"energy": 0.00185,
				"method": "rhf"
			},
			{
				"type": "unocc",
				"energy": 0.01759,
				"method": "rhf"
			},
			{
				"type": "unocc",
				"energy": 0.0708,
				"method": "rhf"
			}
		],
		"cosmo_sigma_profile": { 
			"-0.025": 0.0,
			"-0.024": 0.0,
			"-0.023": 0.0,
			"-0.022": 0.0,
			"-0.021": 0.0,
			"-0.02": 0.0,
			"-0.019": 0.0,
			"-0.018": 0.0,
			"-0.017": 0.0,
			"-0.016": 0.0,
			"-0.015": 0.0,
			"-0.014": 0.0,
			"-0.013": 0.0976561455172,
			"-0.012": 0.586328431153,
			"-0.011": 1.33001415576,
			"-0.01": 3.73341087045,
			"-0.009": 6.92410788248,
			"-0.008": 8.30387791237,
			"-0.007": 11.3280538551,
			"-0.006": 10.7389493966,
			"-0.005": 16.2313520846,
			"-0.004": 23.923149645,
			"-0.003": 22.9719229938,
			"-0.002": 20.1323382284,
			"-0.001": 19.5825112177,
			"0.0": 20.0966152649,
			"0.001": 14.8472657167,
			"0.002": 12.284235205,
			"0.003": 10.3230532125,
			"0.004": 11.379438434,
			"0.005": 13.2140185436,
			"0.006": 9.67841541758,
			"0.007": 6.41637596292,
			"0.008": 3.50064452596,
			"0.009": 5.37884209631,
			"0.01": 5.80338291272,
			"0.011": 8.31789454599,
			"0.012": 6.49502812293,
			"0.013": 2.28216261988,
			"0.014": 1.1264619716,
			"0.015": 0.200307159293,
			"0.016": 0.0,
			"0.017": 0.0,
			"0.018": 0.0,
			"0.019": 0.0,
			"0.02": 0.0,
			"0.021": 0.0,
			"0.022": 0.0,
			"0.023": 0.0,
			"0.024": 0.0,
			"0.025": 0.0
		}
	}
}
