{
	 "smiles": "BrC1=CC=C(NCC2=NC=CC=C2)C=C1", 
	 "Tm": 350.15, 
	 "num_atms": 26, 
	 "gaussian": { 
		 "optdone": 1, 
		 "sigma_profile": "yes", 
		 "theory": "DFT", 
		 "functional": "B3LYP", 
		 "basiset": "6-31G**", 
		 "properties": { 
			 "R2extent": 7083.4037, 
			 "electric_dipole_moment_norm": 3.70488192659, 
			 "electric_quadrupole_moment_norm": 13.8073181201, 
			 "total_energy": -3144.81082875, 
			 "HOMO_LUMO_gap": 0.17259, 
			 "cosmo_polarized_energy": -10.82, 
			 "cosmo_cavitation_energy": 32.38, 
			 "cosmo_dispersion_energy": -23.79, 
			 "cosmo_repulsion_energy": 1.87, 
			 "cosmo_total_nonelectrostatic_energy": 10.47, 
			 "SMD_solvation_energy": 2.49 
		},
		"coords": [
			{
				"x": 4.1460945229,
				"y": 1.300686619,
				"z": 3.0426200011,
				"element": "Br" 
			},
			{
				"x": 2.9767029117,
				"y": 0.6606293178,
				"z": 1.6689218112,
				"element": "C" 
			},
			{
				"x": 3.5023030575,
				"y": -0.0415777287,
				"z": 0.5841836472,
				"element": "C" 
			},
			{
				"x": 2.6504829639,
				"y": -0.5054444577,
				"z": -0.4115236566,
				"element": "C" 
			},
			{
				"x": 1.261416745,
				"y": -0.2799528638,
				"z": -0.3454956561,
				"element": "C" 
			},
			{
				"x": 0.4422104792,
				"y": -0.7361089179,
				"z": -1.3767013994,
				"element": "N" 
			},
			{
				"x": -0.9974365243,
				"y": -0.8570390003,
				"z": -1.221154565,
				"element": "C" 
			},
			{
				"x": -1.7745726497,
				"y": 0.4287286508,
				"z": -1.4768390742,
				"element": "C" 
			},
			{
				"x": -2.9995844792,
				"y": 0.4674945433,
				"z": -0.9306016385,
				"element": "N" 
			},
			{
				"x": -3.7504140416,
				"y": 1.5521791165,
				"z": -1.1546955698,
				"element": "C" 
			},
			{
				"x": -3.3267066603,
				"y": 2.6419229496,
				"z": -1.9161249604,
				"element": "C" 
			},
			{
				"x": -2.0494649516,
				"y": 2.5957329433,
				"z": -2.474103291,
				"element": "C" 
			},
			{
				"x": -1.2575424076,
				"y": 1.4703744621,
				"z": -2.2537094576,
				"element": "C" 
			},
			{
				"x": 0.753365752,
				"y": 0.4313785227,
				"z": 0.7567882718,
				"element": "C" 
			},
			{
				"x": 1.6082007334,
				"y": 0.8971988856,
				"z": 1.7557944187,
				"element": "C" 
			},
			{
				"x": 4.5685793748,
				"y": -0.2273056016,
				"z": 0.5188804007,
				"element": "H" 
			},
			{
				"x": 3.0647885298,
				"y": -1.0518529501,
				"z": -1.255718994,
				"element": "H" 
			},
			{
				"x": 0.8673092706,
				"y": -1.4454222623,
				"z": -1.9545727773,
				"element": "H" 
			},
			{
				"x": -1.3443656379,
				"y": -1.6099947681,
				"z": -1.9385432758,
				"element": "H" 
			},
			{
				"x": -1.2803456371,
				"y": -1.2280275429,
				"z": -0.2263148727,
				"element": "H" 
			},
			{
				"x": -4.7385359965,
				"y": 1.5513502579,
				"z": -0.6971184888,
				"element": "H" 
			},
			{
				"x": -3.9771519678,
				"y": 3.4988715458,
				"z": -2.0595727173,
				"element": "H" 
			},
			{
				"x": -1.6747568562,
				"y": 3.423513846,
				"z": -3.0697842874,
				"element": "H" 
			},
			{
				"x": -0.2554751006,
				"y": 1.3891109489,
				"z": -2.6599187651,
				"element": "H" 
			},
			{
				"x": -0.3082642138,
				"y": 0.6345461775,
				"z": 0.8379395134,
				"element": "H" 
			},
			{
				"x": 1.2029627835,
				"y": 1.4438073067,
				"z": 2.6000653826,
				"element": "H" 
			}
		],
		 "valence_orbital": [ 
			{
				"type": "occ",
				"energy": -0.27364,
				"method": "rhf"
			},
			{
				"type": "occ",
				"energy": -0.2597,
				"method": "rhf"
			},
			{
				"type": "occ",
				"energy": -0.25705,
				"method": "rhf"
			},
			{
				"type": "occ",
				"energy": -0.25378,
				"method": "rhf"
			},
			{
				"type": "occ",
				"energy": -0.20052,
				"method": "rhf"
			},
			{
				"type": "unocc",
				"energy": -0.02793,
				"method": "rhf"
			},
			{
				"type": "unocc",
				"energy": -0.01299,
				"method": "rhf"
			},
			{
				"type": "unocc",
				"energy": -0.00565,
				"method": "rhf"
			},
			{
				"type": "unocc",
				"energy": 0.00848,
				"method": "rhf"
			},
			{
				"type": "unocc",
				"energy": 0.01745,
				"method": "rhf"
			}
		],
		"cosmo_sigma_profile": { 
			"-0.025": 0.0,
			"-0.024": 0.0,
			"-0.023": 0.0,
			"-0.022": 0.0,
			"-0.021": 0.0,
			"-0.02": 0.0,
			"-0.019": 0.0,
			"-0.018": 0.0,
			"-0.017": 0.0,
			"-0.016": 0.0,
			"-0.015": 0.0,
			"-0.014": 0.160317539461,
			"-0.013": 1.35126640134,
			"-0.012": 1.3035744731,
			"-0.011": 1.56737042605,
			"-0.01": 1.43134150137,
			"-0.009": 1.95985203833,
			"-0.008": 2.15239225329,
			"-0.007": 6.59806844175,
			"-0.006": 14.1718174687,
			"-0.005": 18.128408201,
			"-0.004": 18.5800575367,
			"-0.003": 16.2234701611,
			"-0.002": 18.1114121868,
			"-0.001": 14.398597806,
			"0.0": 14.7193257359,
			"0.001": 17.9408228888,
			"0.002": 22.5425854407,
			"0.003": 28.6635629317,
			"0.004": 23.7693670597,
			"0.005": 25.13888682,
			"0.006": 4.58203472089,
			"0.007": 0.869297666438,
			"0.008": 1.68483624249,
			"0.009": 1.22195361316,
			"0.01": 0.456727630609,
			"0.011": 0.56408338436,
			"0.012": 1.19903495507,
			"0.013": 0.72004993173,
			"0.014": 0.654360129329,
			"0.015": 0.891191728501,
			"0.016": 0.524099780013,
			"0.017": 0.0871413805282,
			"0.018": 0.0,
			"0.019": 0.0,
			"0.02": 0.0,
			"0.021": 0.0,
			"0.022": 0.0,
			"0.023": 0.0,
			"0.024": 0.0,
			"0.025": 0.0
		}
	}
}
