{
	 "smiles": "COC1=C(OC)C=C2C(NCCC2=C1)C1=CC=CC=C1", 
	 "Tm": 385.15, 
	 "num_atms": 39, 
	 "gaussian": { 
		 "optdone": 1, 
		 "sigma_profile": "yes", 
		 "theory": "DFT", 
		 "functional": "B3LYP", 
		 "basiset": "6-31G**", 
		 "properties": { 
			 "R2extent": 6616.4069, 
			 "electric_dipole_moment_norm": 1.51138469292, 
			 "electric_quadrupole_moment_norm": 14.765780404, 
			 "total_energy": -864.429056942, 
			 "HOMO_LUMO_gap": 0.20063, 
			 "cosmo_polarized_energy": -11.3, 
			 "cosmo_cavitation_energy": 40.54, 
			 "cosmo_dispersion_energy": -28.22, 
			 "cosmo_repulsion_energy": 2.19, 
			 "cosmo_total_nonelectrostatic_energy": 14.52, 
			 "SMD_solvation_energy": 5.45 
		},
		"coords": [
			{
				"x": -0.8117826394,
				"y": 3.9501310237,
				"z": -4.1020897676,
				"element": "C" 
			},
			{
				"x": -0.0267093704,
				"y": 4.0029809456,
				"z": -2.9094859468,
				"element": "O" 
			},
			{
				"x": 0.0672971079,
				"y": 2.8307572221,
				"z": -2.1984111692,
				"element": "C" 
			},
			{
				"x": -1.0466177468,
				"y": 2.2692345978,
				"z": -1.5318547891,
				"element": "C" 
			},
			{
				"x": -2.2333932936,
				"y": 2.9354604138,
				"z": -1.6699199234,
				"element": "O" 
			},
			{
				"x": -3.3658291601,
				"y": 2.428739459,
				"z": -0.9820727595,
				"element": "C" 
			},
			{
				"x": -0.8706237439,
				"y": 1.1082910076,
				"z": -0.7819774025,
				"element": "C" 
			},
			{
				"x": 0.3902787295,
				"y": 0.5003652229,
				"z": -0.653179336,
				"element": "C" 
			},
			{
				"x": 0.5147271174,
				"y": -0.8066424043,
				"z": 0.1434378278,
				"element": "C" 
			},
			{
				"x": 1.8988928195,
				"y": -1.2678542145,
				"z": 0.3514135488,
				"element": "N" 
			},
			{
				"x": 2.7478278512,
				"y": -1.0668763738,
				"z": -0.8227653999,
				"element": "C" 
			},
			{
				"x": 2.8625149127,
				"y": 0.409023249,
				"z": -1.225373488,
				"element": "C" 
			},
			{
				"x": 1.4936896393,
				"y": 1.0550280236,
				"z": -1.313409754,
				"element": "C" 
			},
			{
				"x": 1.3061031966,
				"y": 2.2160133367,
				"z": -2.0795758424,
				"element": "C" 
			},
			{
				"x": -0.1822024597,
				"y": -0.771616279,
				"z": 1.4989867068,
				"element": "C" 
			},
			{
				"x": -0.0595643206,
				"y": 0.3357274935,
				"z": 2.3499096257,
				"element": "C" 
			},
			{
				"x": -0.6421679298,
				"y": 0.3277411263,
				"z": 3.6180443434,
				"element": "C" 
			},
			{
				"x": -1.3604719812,
				"y": -0.7879867537,
				"z": 4.0532153741,
				"element": "C" 
			},
			{
				"x": -1.4890693791,
				"y": -1.8958189214,
				"z": 3.2136738009,
				"element": "C" 
			},
			{
				"x": -0.9002758371,
				"y": -1.886124347,
				"z": 1.9481243011,
				"element": "C" 
			},
			{
				"x": -1.8600230072,
				"y": 3.7248465064,
				"z": -3.8854796227,
				"element": "H" 
			},
			{
				"x": -0.4135886477,
				"y": 3.2019515513,
				"z": -4.8004935022,
				"element": "H" 
			},
			{
				"x": -0.7381068194,
				"y": 4.9397976498,
				"z": -4.558276274,
				"element": "H" 
			},
			{
				"x": -4.1852605729,
				"y": 3.1137713242,
				"z": -1.2057019087,
				"element": "H" 
			},
			{
				"x": -3.6336554815,
				"y": 1.4209805361,
				"z": -1.3256382582,
				"element": "H" 
			},
			{
				"x": -3.200835721,
				"y": 2.4031522319,
				"z": 0.1024730181,
				"element": "H" 
			},
			{
				"x": -1.7134641361,
				"y": 0.6674733611,
				"z": -0.261919458,
				"element": "H" 
			},
			{
				"x": 0.0183693378,
				"y": -1.5870621542,
				"z": -0.4546084604,
				"element": "H" 
			},
			{
				"x": 2.294012778,
				"y": -0.7663337276,
				"z": 1.1448507321,
				"element": "H" 
			},
			{
				"x": 2.3173290641,
				"y": -1.6457179913,
				"z": -1.6505318902,
				"element": "H" 
			},
			{
				"x": 3.7362116992,
				"y": -1.4922963665,
				"z": -0.6164314446,
				"element": "H" 
			},
			{
				"x": 3.3878559447,
				"y": 0.5108005668,
				"z": -2.1836214681,
				"element": "H" 
			},
			{
				"x": 3.4815945046,
				"y": 0.9350738452,
				"z": -0.4827921003,
				"element": "H" 
			},
			{
				"x": 2.142979854,
				"y": 2.6698024989,
				"z": -2.6037917467,
				"element": "H" 
			},
			{
				"x": 0.4819834054,
				"y": 1.2139589145,
				"z": 2.0091728766,
				"element": "H" 
			},
			{
				"x": -0.5390316384,
				"y": 1.1951021607,
				"z": 4.2643066676,
				"element": "H" 
			},
			{
				"x": -1.8183866907,
				"y": -0.7926667533,
				"z": 5.0383294306,
				"element": "H" 
			},
			{
				"x": -2.0463593727,
				"y": -2.7681887148,
				"z": 3.5436045044,
				"element": "H" 
			},
			{
				"x": -0.9923480128,
				"y": -2.7544192672,
				"z": 1.3006589545,
				"element": "H" 
			}
		],
		 "valence_orbital": [ 
			{
				"type": "occ",
				"energy": -0.24956,
				"method": "rhf"
			},
			{
				"type": "occ",
				"energy": -0.24534,
				"method": "rhf"
			},
			{
				"type": "occ",
				"energy": -0.22913,
				"method": "rhf"
			},
			{
				"type": "occ",
				"energy": -0.21592,
				"method": "rhf"
			},
			{
				"type": "occ",
				"energy": -0.20419,
				"method": "rhf"
			},
			{
				"type": "unocc",
				"energy": -0.00356,
				"method": "rhf"
			},
			{
				"type": "unocc",
				"energy": -0.00143,
				"method": "rhf"
			},
			{
				"type": "unocc",
				"energy": 0.00611,
				"method": "rhf"
			},
			{
				"type": "unocc",
				"energy": 0.01703,
				"method": "rhf"
			},
			{
				"type": "unocc",
				"energy": 0.09528,
				"method": "rhf"
			}
		],
		"cosmo_sigma_profile": { 
			"-0.025": 0.0,
			"-0.024": 0.0,
			"-0.023": 0.0,
			"-0.022": 0.0,
			"-0.021": 0.0,
			"-0.02": 0.0,
			"-0.019": 0.0,
			"-0.018": 0.0,
			"-0.017": 0.0,
			"-0.016": 0.0,
			"-0.015": 0.0,
			"-0.014": 0.0,
			"-0.013": 0.0,
			"-0.012": 0.0,
			"-0.011": 0.0,
			"-0.01": 0.0265548986867,
			"-0.009": 0.711354734426,
			"-0.008": 1.14694216494,
			"-0.007": 1.61741479793,
			"-0.006": 7.50107349894,
			"-0.005": 24.9323269442,
			"-0.004": 34.7921220545,
			"-0.003": 43.791613593,
			"-0.002": 36.1606163404,
			"-0.001": 27.5429751113,
			"0.0": 20.1427125495,
			"0.001": 16.0856344383,
			"0.002": 17.8494904859,
			"0.003": 16.4572178851,
			"0.004": 18.5640430879,
			"0.005": 16.9768693545,
			"0.006": 13.7278485669,
			"0.007": 4.107294688,
			"0.008": 2.41760309583,
			"0.009": 3.11588937779,
			"0.01": 3.58810791917,
			"0.011": 3.08146897721,
			"0.012": 2.31459816573,
			"0.013": 1.01127463885,
			"0.014": 0.552567220075,
			"0.015": 0.38491702865,
			"0.016": 0.558196832986,
			"0.017": 0.650224432082,
			"0.018": 0.18160352227,
			"0.019": 0.0,
			"0.02": 0.0,
			"0.021": 0.0,
			"0.022": 0.0,
			"0.023": 0.0,
			"0.024": 0.0,
			"0.025": 0.0
		}
	}
}
