{
	 "smiles": "[O-][P+](C1SC2=CC=CC=C2S1)(C1=CC=CC=C1)C1=CC=CC=C1", 
	 "Tm": 454.15, 
	 "num_atms": 38, 
	 "gaussian": { 
		 "optdone": 1, 
		 "sigma_profile": "yes", 
		 "theory": "DFT", 
		 "functional": "B3LYP", 
		 "basiset": "6-31G**", 
		 "properties": { 
			 "R2extent": 10837.7876, 
			 "electric_dipole_moment_norm": 2.99868359285, 
			 "electric_quadrupole_moment_norm": 12.8447610791, 
			 "total_energy": -1946.02727402, 
			 "HOMO_LUMO_gap": 0.16055, 
			 "cosmo_polarized_energy": -20.53, 
			 "cosmo_cavitation_energy": 45.86, 
			 "cosmo_dispersion_energy": -31.8, 
			 "cosmo_repulsion_energy": 2.32, 
			 "cosmo_total_nonelectrostatic_energy": 16.38, 
			 "SMD_solvation_energy": 7.21 
		},
		"coords": [
			{
				"x": 2.3466534621,
				"y": -2.1403025757,
				"z": -0.5615323384,
				"element": "O" 
			},
			{
				"x": 1.1743080305,
				"y": -1.2676270969,
				"z": -0.2278258185,
				"element": "P" 
			},
			{
				"x": -0.0554064107,
				"y": -1.0395632288,
				"z": -1.6290663938,
				"element": "C" 
			},
			{
				"x": -0.8380827007,
				"y": -2.6293891916,
				"z": -2.1325305639,
				"element": "S" 
			},
			{
				"x": 0.2594097395,
				"y": -2.9206223575,
				"z": -3.5012369747,
				"element": "C" 
			},
			{
				"x": 0.3763381792,
				"y": -4.1556890269,
				"z": -4.1374553974,
				"element": "C" 
			},
			{
				"x": 1.219306554,
				"y": -4.28095399,
				"z": -5.2450974181,
				"element": "C" 
			},
			{
				"x": 1.9506484007,
				"y": -3.1840965229,
				"z": -5.7014239507,
				"element": "C" 
			},
			{
				"x": 1.8479458068,
				"y": -1.949159624,
				"z": -5.0552265231,
				"element": "C" 
			},
			{
				"x": 0.9955813491,
				"y": -1.8173611039,
				"z": -3.9597952512,
				"element": "C" 
			},
			{
				"x": 0.7307277016,
				"y": -0.2776150301,
				"z": -3.1104922061,
				"element": "S" 
			},
			{
				"x": 0.1719547573,
				"y": -1.923851492,
				"z": 1.1537849396,
				"element": "C" 
			},
			{
				"x": 0.7670835189,
				"y": -2.9362556667,
				"z": 1.9204033952,
				"element": "C" 
			},
			{
				"x": 0.0863848972,
				"y": -3.4885749704,
				"z": 3.0056433782,
				"element": "C" 
			},
			{
				"x": -1.1956262773,
				"y": -3.041244929,
				"z": 3.3298925963,
				"element": "C" 
			},
			{
				"x": -1.8007849853,
				"y": -2.042692058,
				"z": 2.5637432683,
				"element": "C" 
			},
			{
				"x": -1.1217221688,
				"y": -1.4865411672,
				"z": 1.4793345125,
				"element": "C" 
			},
			{
				"x": 1.6794541937,
				"y": 0.4388874494,
				"z": 0.1968808323,
				"element": "C" 
			},
			{
				"x": 0.8200584416,
				"y": 1.3986724888,
				"z": 0.7523744265,
				"element": "C" 
			},
			{
				"x": 1.287090477,
				"y": 2.6837990122,
				"z": 1.0269607446,
				"element": "C" 
			},
			{
				"x": 2.6150577828,
				"y": 3.0190343817,
				"z": 0.7512813555,
				"element": "C" 
			},
			{
				"x": 3.4765745335,
				"y": 2.0668348969,
				"z": 0.203983623,
				"element": "C" 
			},
			{
				"x": 3.012484247,
				"y": 0.7805497224,
				"z": -0.0735372281,
				"element": "C" 
			},
			{
				"x": -0.8554736902,
				"y": -0.3656148701,
				"z": -1.3132686072,
				"element": "H" 
			},
			{
				"x": -0.1797947616,
				"y": -5.0128134021,
				"z": -3.7706917511,
				"element": "H" 
			},
			{
				"x": 1.3114650498,
				"y": -5.242513174,
				"z": -5.740641236,
				"element": "H" 
			},
			{
				"x": 2.6148270881,
				"y": -3.2876890497,
				"z": -6.5539480966,
				"element": "H" 
			},
			{
				"x": 2.4298901204,
				"y": -1.0995425204,
				"z": -5.3987305606,
				"element": "H" 
			},
			{
				"x": 1.7567037441,
				"y": -3.2867969828,
				"z": 1.6447768529,
				"element": "H" 
			},
			{
				"x": 0.5548201836,
				"y": -4.2721375863,
				"z": 3.5941046742,
				"element": "H" 
			},
			{
				"x": -1.7261973656,
				"y": -3.473591205,
				"z": 4.1733868515,
				"element": "H" 
			},
			{
				"x": -2.8027378984,
				"y": -1.7007367086,
				"z": 2.8062252995,
				"element": "H" 
			},
			{
				"x": -1.6174311944,
				"y": -0.7208302877,
				"z": 0.8889733429,
				"element": "H" 
			},
			{
				"x": -0.2088687523,
				"y": 1.1476284593,
				"z": 0.9922533144,
				"element": "H" 
			},
			{
				"x": 0.6172985388,
				"y": 3.4210023411,
				"z": 1.4602142174,
				"element": "H" 
			},
			{
				"x": 2.9771311219,
				"y": 4.0201494146,
				"z": 0.9675597002,
				"element": "H" 
			},
			{
				"x": 4.5105534437,
				"y": 2.3245712122,
				"z": -0.0062364119,
				"element": "H" 
			},
			{
				"x": 3.6700748426,
				"y": 0.0260764396,
				"z": -0.4932405975,
				"element": "H" 
			}
		],
		 "valence_orbital": [ 
			{
				"type": "occ",
				"energy": -0.26009,
				"method": "rhf"
			},
			{
				"type": "occ",
				"energy": -0.25904,
				"method": "rhf"
			},
			{
				"type": "occ",
				"energy": -0.25809,
				"method": "rhf"
			},
			{
				"type": "occ",
				"energy": -0.22967,
				"method": "rhf"
			},
			{
				"type": "occ",
				"energy": -0.20007,
				"method": "rhf"
			},
			{
				"type": "unocc",
				"energy": -0.03952,
				"method": "rhf"
			},
			{
				"type": "unocc",
				"energy": -0.0232,
				"method": "rhf"
			},
			{
				"type": "unocc",
				"energy": -0.01956,
				"method": "rhf"
			},
			{
				"type": "unocc",
				"energy": -0.01026,
				"method": "rhf"
			},
			{
				"type": "unocc",
				"energy": -0.00757,
				"method": "rhf"
			}
		],
		"cosmo_sigma_profile": { 
			"-0.025": 0.0,
			"-0.024": 0.0,
			"-0.023": 0.0,
			"-0.022": 0.0,
			"-0.021": 0.0,
			"-0.02": 0.0,
			"-0.019": 0.0,
			"-0.018": 0.0114215434278,
			"-0.017": 0.0821949997747,
			"-0.016": 0.198097016132,
			"-0.015": 0.192740113424,
			"-0.014": 0.400740491212,
			"-0.013": 0.349072548845,
			"-0.012": 0.501925552185,
			"-0.011": 2.02231521178,
			"-0.01": 2.7133614107,
			"-0.009": 2.25393035281,
			"-0.008": 3.38550978752,
			"-0.007": 11.545498453,
			"-0.006": 26.8221633664,
			"-0.005": 30.77021697,
			"-0.004": 29.2903798973,
			"-0.003": 18.7613943363,
			"-0.002": 20.0640901253,
			"-0.001": 19.5742780117,
			"0.0": 21.0825448105,
			"0.001": 25.009627193,
			"0.002": 27.8432015579,
			"0.003": 35.1138384752,
			"0.004": 41.7455978824,
			"0.005": 19.6216061843,
			"0.006": 7.22592975699,
			"0.007": 6.42514746754,
			"0.008": 3.82247516699,
			"0.009": 1.24270234298,
			"0.01": 1.98801675871,
			"0.011": 0.937140847111,
			"0.012": 1.55486604837,
			"0.013": 1.65286687517,
			"0.014": 1.95033004677,
			"0.015": 4.3423774372,
			"0.016": 0.49033780202,
			"0.017": 0.0,
			"0.018": 0.0,
			"0.019": 0.0,
			"0.02": 0.0,
			"0.021": 0.0,
			"0.022": 0.0,
			"0.023": 0.0,
			"0.024": 0.0,
			"0.025": 0.0
		}
	}
}
