{
	 "smiles": "CC1=CC(Cl)=C(C=C1[N+]([O-])=O)[N+]([O-])=O", 
	 "Tm": 363.15, 
	 "num_atms": 19, 
	 "gaussian": { 
		 "optdone": 1, 
		 "sigma_profile": "yes", 
		 "theory": "DFT", 
		 "functional": "B3LYP", 
		 "basiset": "6-31G**", 
		 "properties": { 
			 "R2extent": 3847.0331, 
			 "electric_dipole_moment_norm": 4.53798590126, 
			 "electric_quadrupole_moment_norm": 12.7667822054, 
			 "total_energy": -1140.1340315, 
			 "HOMO_LUMO_gap": 0.18044, 
			 "cosmo_polarized_energy": -11.64, 
			 "cosmo_cavitation_energy": 26.63, 
			 "cosmo_dispersion_energy": -19.58, 
			 "cosmo_repulsion_energy": 1.53, 
			 "cosmo_total_nonelectrostatic_energy": 8.57, 
			 "SMD_solvation_energy": 8.71 
		},
		"coords": [
			{
				"x": 3.4838961095,
				"y": 1.9284422967,
				"z": -0.8853740641,
				"element": "C" 
			},
			{
				"x": 2.1078653452,
				"y": 1.3135072021,
				"z": -0.9024204533,
				"element": "C" 
			},
			{
				"x": 1.8961785273,
				"y": 0.1410858337,
				"z": -0.1658638167,
				"element": "C" 
			},
			{
				"x": 0.6618081253,
				"y": -0.507275241,
				"z": -0.0946710729,
				"element": "C" 
			},
			{
				"x": 0.5831759694,
				"y": -1.9794808127,
				"z": 0.8200449143,
				"element": "Cl" 
			},
			{
				"x": -0.423470872,
				"y": 0.0334579963,
				"z": -0.8022436325,
				"element": "C" 
			},
			{
				"x": -0.2481339208,
				"y": 1.1845485474,
				"z": -1.5584415875,
				"element": "C" 
			},
			{
				"x": 0.9894981839,
				"y": 1.8159429694,
				"z": -1.6007458371,
				"element": "C" 
			},
			{
				"x": 1.058233263,
				"y": 3.0386991376,
				"z": -2.4256508197,
				"element": "N" 
			},
			{
				"x": 0.0021716075,
				"y": 3.4812130038,
				"z": -2.871815241,
				"element": "O" 
			},
			{
				"x": 2.1635915571,
				"y": 3.5413444803,
				"z": -2.6234590539,
				"element": "O" 
			},
			{
				"x": -1.780549283,
				"y": -0.5440097897,
				"z": -0.7922185548,
				"element": "N" 
			},
			{
				"x": -2.4643052138,
				"y": -0.3553744373,
				"z": -1.7964844609,
				"element": "O" 
			},
			{
				"x": -2.1423250182,
				"y": -1.141441842,
				"z": 0.2148904669,
				"element": "O" 
			},
			{
				"x": 4.1295249628,
				"y": 1.371211209,
				"z": -0.2029458975,
				"element": "H" 
			},
			{
				"x": 3.929851247,
				"y": 1.9247862952,
				"z": -1.8828791521,
				"element": "H" 
			},
			{
				"x": 3.4504513811,
				"y": 2.9743763536,
				"z": -0.5718929579,
				"element": "H" 
			},
			{
				"x": 2.7284178861,
				"y": -0.2918439149,
				"z": 0.3774867363,
				"element": "H" 
			},
			{
				"x": -1.0808798574,
				"y": 1.5922107126,
				"z": -2.1152155156,
				"element": "H" 
			}
		],
		 "valence_orbital": [ 
			{
				"type": "occ",
				"energy": -0.32407,
				"method": "rhf"
			},
			{
				"type": "occ",
				"energy": -0.31297,
				"method": "rhf"
			},
			{
				"type": "occ",
				"energy": -0.30936,
				"method": "rhf"
			},
			{
				"type": "occ",
				"energy": -0.29697,
				"method": "rhf"
			},
			{
				"type": "occ",
				"energy": -0.29428,
				"method": "rhf"
			},
			{
				"type": "unocc",
				"energy": -0.11384,
				"method": "rhf"
			},
			{
				"type": "unocc",
				"energy": -0.10264,
				"method": "rhf"
			},
			{
				"type": "unocc",
				"energy": -0.04353,
				"method": "rhf"
			},
			{
				"type": "unocc",
				"energy": -0.02458,
				"method": "rhf"
			},
			{
				"type": "unocc",
				"energy": -0.00491,
				"method": "rhf"
			}
		],
		"cosmo_sigma_profile": { 
			"-0.025": 0.0,
			"-0.024": 0.0,
			"-0.023": 0.0,
			"-0.022": 0.0,
			"-0.021": 0.0,
			"-0.02": 0.0,
			"-0.019": 0.0,
			"-0.018": 0.0,
			"-0.017": 0.0,
			"-0.016": 0.0,
			"-0.015": 0.0,
			"-0.014": 0.0,
			"-0.013": 0.0,
			"-0.012": 0.0,
			"-0.011": 0.0,
			"-0.01": 0.147460014022,
			"-0.009": 3.27023373698,
			"-0.008": 5.27370834154,
			"-0.007": 6.9646869013,
			"-0.006": 10.1081586866,
			"-0.005": 14.3897808514,
			"-0.004": 17.919259363,
			"-0.003": 24.3016902824,
			"-0.002": 22.4483524016,
			"-0.001": 13.7122930691,
			"0.0": 8.3866515925,
			"0.001": 9.14341111665,
			"0.002": 12.485556535,
			"0.003": 7.98989287023,
			"0.004": 6.17363286962,
			"0.005": 7.51576422795,
			"0.006": 11.0752864015,
			"0.007": 17.5081757335,
			"0.008": 10.0198645709,
			"0.009": 6.34132678821,
			"0.01": 0.985444038075,
			"0.011": 0.0,
			"0.012": 0.0,
			"0.013": 0.0,
			"0.014": 0.0,
			"0.015": 0.0,
			"0.016": 0.0,
			"0.017": 0.0,
			"0.018": 0.0,
			"0.019": 0.0,
			"0.02": 0.0,
			"0.021": 0.0,
			"0.022": 0.0,
			"0.023": 0.0,
			"0.024": 0.0,
			"0.025": 0.0
		}
	}
}
