{
	 "smiles": "OC(=O)CC(CC1=CC=CC=C1)CC1=CC=CC=C1", 
	 "Tm": 356.15, 
	 "num_atms": 37, 
	 "gaussian": { 
		 "optdone": 1, 
		 "sigma_profile": "yes", 
		 "theory": "DFT", 
		 "functional": "B3LYP", 
		 "basiset": "6-31G**", 
		 "properties": { 
			 "R2extent": 6293.4785, 
			 "electric_dipole_moment_norm": 3.84805949798, 
			 "electric_quadrupole_moment_norm": 13.3158046122, 
			 "total_energy": -809.128852838, 
			 "HOMO_LUMO_gap": 0.23258, 
			 "cosmo_polarized_energy": -16.12, 
			 "cosmo_cavitation_energy": 39.71, 
			 "cosmo_dispersion_energy": -26.86, 
			 "cosmo_repulsion_energy": 2.09, 
			 "cosmo_total_nonelectrostatic_energy": 14.94, 
			 "SMD_solvation_energy": 7.12 
		},
		"coords": [
			{
				"x": 1.8774858876,
				"y": 0.8718314326,
				"z": 2.4039619965,
				"element": "O" 
			},
			{
				"x": 1.5148301612,
				"y": 1.0587284595,
				"z": 1.1045880427,
				"element": "C" 
			},
			{
				"x": 1.8047040881,
				"y": 2.0893240239,
				"z": 0.547387367,
				"element": "O" 
			},
			{
				"x": 0.7682423311,
				"y": -0.1068356526,
				"z": 0.4714621555,
				"element": "C" 
			},
			{
				"x": 0.2625015126,
				"y": 0.169215077,
				"z": -0.9518809081,
				"element": "C" 
			},
			{
				"x": -0.8517183078,
				"y": 1.2546974189,
				"z": -0.9988375296,
				"element": "C" 
			},
			{
				"x": -2.0990456416,
				"y": 0.9633273491,
				"z": -0.1889258442,
				"element": "C" 
			},
			{
				"x": -3.1671681248,
				"y": 0.2292603283,
				"z": -0.7276857283,
				"element": "C" 
			},
			{
				"x": -4.3076405283,
				"y": -0.0462778511,
				"z": 0.0282698345,
				"element": "C" 
			},
			{
				"x": -4.4058250532,
				"y": 0.4124695246,
				"z": 1.3432182716,
				"element": "C" 
			},
			{
				"x": -3.3583238835,
				"y": 1.1547812782,
				"z": 1.8909696224,
				"element": "C" 
			},
			{
				"x": -2.220090752,
				"y": 1.4284196307,
				"z": 1.130181408,
				"element": "C" 
			},
			{
				"x": -0.1765845088,
				"y": -1.1422784824,
				"z": -1.6495500968,
				"element": "C" 
			},
			{
				"x": 0.9332631489,
				"y": -2.158185257,
				"z": -1.8300650708,
				"element": "C" 
			},
			{
				"x": 0.9564194148,
				"y": -3.3483694074,
				"z": -1.0902441507,
				"element": "C" 
			},
			{
				"x": 1.9858034941,
				"y": -4.2787280211,
				"z": -1.2533074255,
				"element": "C" 
			},
			{
				"x": 3.0133260753,
				"y": -4.032494722,
				"z": -2.1640222476,
				"element": "C" 
			},
			{
				"x": 3.0023788377,
				"y": -2.8517887763,
				"z": -2.9110212163,
				"element": "C" 
			},
			{
				"x": 1.9724105037,
				"y": -1.926626996,
				"z": -2.7446893542,
				"element": "C" 
			},
			{
				"x": 1.5828632934,
				"y": 0.0014211774,
				"z": 2.7080591755,
				"element": "H" 
			},
			{
				"x": -0.0661739331,
				"y": -0.388991588,
				"z": 1.1278898812,
				"element": "H" 
			},
			{
				"x": 1.4546717271,
				"y": -0.9641868745,
				"z": 0.4592431129,
				"element": "H" 
			},
			{
				"x": 1.1075650785,
				"y": 0.5848132535,
				"z": -1.5138748024,
				"element": "H" 
			},
			{
				"x": -0.4067602644,
				"y": 2.1934835588,
				"z": -0.6580896834,
				"element": "H" 
			},
			{
				"x": -1.1275889848,
				"y": 1.3989755691,
				"z": -2.0506347266,
				"element": "H" 
			},
			{
				"x": -3.1095161605,
				"y": -0.1191619173,
				"z": -1.7558309739,
				"element": "H" 
			},
			{
				"x": -5.1230553664,
				"y": -0.6128113269,
				"z": -0.4130979467,
				"element": "H" 
			},
			{
				"x": -5.2947011234,
				"y": 0.2027987384,
				"z": 1.931278995,
				"element": "H" 
			},
			{
				"x": -3.4301260724,
				"y": 1.5307217943,
				"z": 2.9079299405,
				"element": "H" 
			},
			{
				"x": -1.419613281,
				"y": 2.0273120692,
				"z": 1.5583997812,
				"element": "H" 
			},
			{
				"x": -0.5835529996,
				"y": -0.8769262112,
				"z": -2.6340163561,
				"element": "H" 
			},
			{
				"x": -1.0010177545,
				"y": -1.596468439,
				"z": -1.0881423901,
				"element": "H" 
			},
			{
				"x": 0.1539142392,
				"y": -3.5517789387,
				"z": -0.3848178949,
				"element": "H" 
			},
			{
				"x": 1.9810444442,
				"y": -5.1962975821,
				"z": -0.6713684015,
				"element": "H" 
			},
			{
				"x": 3.8139236144,
				"y": -4.7547737262,
				"z": -2.2948123514,
				"element": "H" 
			},
			{
				"x": 3.7951195472,
				"y": -2.6536207201,
				"z": -3.6270416727,
				"element": "H" 
			},
			{
				"x": 1.9700353411,
				"y": -1.0140781936,
				"z": -3.3363828128,
				"element": "H" 
			}
		],
		 "valence_orbital": [ 
			{
				"type": "occ",
				"energy": -0.27036,
				"method": "rhf"
			},
			{
				"type": "occ",
				"energy": -0.25274,
				"method": "rhf"
			},
			{
				"type": "occ",
				"energy": -0.251,
				"method": "rhf"
			},
			{
				"type": "occ",
				"energy": -0.24725,
				"method": "rhf"
			},
			{
				"type": "occ",
				"energy": -0.24023,
				"method": "rhf"
			},
			{
				"type": "unocc",
				"energy": -0.00765,
				"method": "rhf"
			},
			{
				"type": "unocc",
				"energy": -0.00596,
				"method": "rhf"
			},
			{
				"type": "unocc",
				"energy": -0.00383,
				"method": "rhf"
			},
			{
				"type": "unocc",
				"energy": -0.00075,
				"method": "rhf"
			},
			{
				"type": "unocc",
				"energy": 0.0131,
				"method": "rhf"
			}
		],
		"cosmo_sigma_profile": { 
			"-0.025": 0.0,
			"-0.024": 0.0,
			"-0.023": 0.0,
			"-0.022": 0.0,
			"-0.021": 0.0,
			"-0.02": 0.0,
			"-0.019": 0.267370027296,
			"-0.018": 1.18151636056,
			"-0.017": 1.01176364253,
			"-0.016": 1.1323849691,
			"-0.015": 0.836587541983,
			"-0.014": 1.46110970455,
			"-0.013": 0.753304824324,
			"-0.012": 0.869702492835,
			"-0.011": 1.09117064371,
			"-0.01": 1.28818164485,
			"-0.009": 1.38564541294,
			"-0.008": 1.07385888714,
			"-0.007": 1.33988392179,
			"-0.006": 5.32781013816,
			"-0.005": 21.3800622615,
			"-0.004": 34.38960491,
			"-0.003": 37.2168756552,
			"-0.002": 26.5505591329,
			"-0.001": 25.0357262534,
			"0.0": 20.0721499288,
			"0.001": 18.2380482945,
			"0.002": 15.9221966011,
			"0.003": 16.0820865372,
			"0.004": 16.889318081,
			"0.005": 17.7437471424,
			"0.006": 17.5563289072,
			"0.007": 5.7932494639,
			"0.008": 2.60143094795,
			"0.009": 2.64114914479,
			"0.01": 4.41828367239,
			"0.011": 5.21425696035,
			"0.012": 4.82196584165,
			"0.013": 2.1236440091,
			"0.014": 0.191193919781,
			"0.015": 0.0,
			"0.016": 0.0,
			"0.017": 0.0,
			"0.018": 0.0,
			"0.019": 0.0,
			"0.02": 0.0,
			"0.021": 0.0,
			"0.022": 0.0,
			"0.023": 0.0,
			"0.024": 0.0,
			"0.025": 0.0
		}
	}
}
