{
	 "smiles": "CC(=O)NC1=C(Cl)C=CC=C1Cl", 
	 "Tm": 454.15, 
	 "num_atms": 19, 
	 "gaussian": { 
		 "optdone": 1, 
		 "sigma_profile": "yes", 
		 "theory": "DFT", 
		 "functional": "B3LYP", 
		 "basiset": "6-31G**", 
		 "properties": { 
			 "R2extent": 2949.3933, 
			 "electric_dipole_moment_norm": 4.87135954021, 
			 "electric_quadrupole_moment_norm": 7.29344427551, 
			 "total_energy": -1359.44058581, 
			 "HOMO_LUMO_gap": 0.20721, 
			 "cosmo_polarized_energy": -11.03, 
			 "cosmo_cavitation_energy": 26.76, 
			 "cosmo_dispersion_energy": -19.12, 
			 "cosmo_repulsion_energy": 1.53, 
			 "cosmo_total_nonelectrostatic_energy": 9.17, 
			 "SMD_solvation_energy": 5.28 
		},
		"coords": [
			{
				"x": -0.505259796,
				"y": -1.7328060428,
				"z": 1.9311880362,
				"element": "C" 
			},
			{
				"x": 0.8913808886,
				"y": -1.9725763192,
				"z": 1.3936101669,
				"element": "C" 
			},
			{
				"x": 1.7752643981,
				"y": -2.5036093615,
				"z": 2.0426224384,
				"element": "O" 
			},
			{
				"x": 1.1498330336,
				"y": -1.5560443609,
				"z": 0.089208747,
				"element": "N" 
			},
			{
				"x": 0.3121943257,
				"y": -0.8078021937,
				"z": -0.764104485,
				"element": "C" 
			},
			{
				"x": -0.7566862571,
				"y": -1.3955899609,
				"z": -1.4695739111,
				"element": "C" 
			},
			{
				"x": -1.0637606554,
				"y": -3.1129466868,
				"z": -1.3165179982,
				"element": "Cl" 
			},
			{
				"x": -1.5754173595,
				"y": -0.6518667941,
				"z": -2.3186982351,
				"element": "C" 
			},
			{
				"x": -1.3184806646,
				"y": 0.7041580515,
				"z": -2.5070278856,
				"element": "C" 
			},
			{
				"x": -0.251885236,
				"y": 1.3177908243,
				"z": -1.8531539389,
				"element": "C" 
			},
			{
				"x": 0.5429224454,
				"y": 0.564368048,
				"z": -0.9923046176,
				"element": "C" 
			},
			{
				"x": 1.8761514507,
				"y": 1.3512629355,
				"z": -0.1716327873,
				"element": "Cl" 
			},
			{
				"x": -0.4883424342,
				"y": -1.9338587237,
				"z": 3.0019664067,
				"element": "H" 
			},
			{
				"x": -0.8385380572,
				"y": -0.7062718674,
				"z": 1.7522403961,
				"element": "H" 
			},
			{
				"x": -1.222126623,
				"y": -2.406854687,
				"z": 1.452999873,
				"element": "H" 
			},
			{
				"x": 2.1359181922,
				"y": -1.5971241809,
				"z": -0.140907801,
				"element": "H" 
			},
			{
				"x": -2.3914921496,
				"y": -1.1425766951,
				"z": -2.8362609101,
				"element": "H" 
			},
			{
				"x": -1.9486309264,
				"y": 1.2847481781,
				"z": -3.173179179,
				"element": "H" 
			},
			{
				"x": -0.0367445754,
				"y": 2.3701998366,
				"z": -1.9974743153,
				"element": "H" 
			}
		],
		 "valence_orbital": [ 
			{
				"type": "occ",
				"energy": -0.32673,
				"method": "rhf"
			},
			{
				"type": "occ",
				"energy": -0.29076,
				"method": "rhf"
			},
			{
				"type": "occ",
				"energy": -0.26362,
				"method": "rhf"
			},
			{
				"type": "occ",
				"energy": -0.26043,
				"method": "rhf"
			},
			{
				"type": "occ",
				"energy": -0.24808,
				"method": "rhf"
			},
			{
				"type": "unocc",
				"energy": -0.04087,
				"method": "rhf"
			},
			{
				"type": "unocc",
				"energy": -0.03705,
				"method": "rhf"
			},
			{
				"type": "unocc",
				"energy": -0.00424,
				"method": "rhf"
			},
			{
				"type": "unocc",
				"energy": 0.02339,
				"method": "rhf"
			},
			{
				"type": "unocc",
				"energy": 0.04139,
				"method": "rhf"
			}
		],
		"cosmo_sigma_profile": { 
			"-0.025": 0.0,
			"-0.024": 0.0,
			"-0.023": 0.0,
			"-0.022": 0.0,
			"-0.021": 0.0,
			"-0.02": 0.0,
			"-0.019": 0.0,
			"-0.018": 0.0,
			"-0.017": 0.0,
			"-0.016": 0.0,
			"-0.015": 0.0416347069173,
			"-0.014": 0.571139233605,
			"-0.013": 0.910215359906,
			"-0.012": 0.977926309094,
			"-0.011": 0.721544992475,
			"-0.01": 0.99770090727,
			"-0.009": 0.857762468273,
			"-0.008": 4.39894802265,
			"-0.007": 8.42571724183,
			"-0.006": 7.90008479643,
			"-0.005": 10.7542499882,
			"-0.004": 11.4125095895,
			"-0.003": 15.3693021918,
			"-0.002": 19.0227414836,
			"-0.001": 19.4425289603,
			"0.0": 21.173145584,
			"0.001": 21.8574035338,
			"0.002": 20.7788332714,
			"0.003": 15.8418408807,
			"0.004": 13.8915415771,
			"0.005": 3.18070380893,
			"0.006": 1.1031452676,
			"0.007": 1.87186972473,
			"0.008": 1.32164783959,
			"0.009": 0.89467446884,
			"0.01": 1.5934571882,
			"0.011": 1.9613255509,
			"0.012": 2.86165611839,
			"0.013": 5.61810817778,
			"0.014": 2.32724946644,
			"0.015": 0.111290522465,
			"0.016": 0.0,
			"0.017": 0.0,
			"0.018": 0.0,
			"0.019": 0.0,
			"0.02": 0.0,
			"0.021": 0.0,
			"0.022": 0.0,
			"0.023": 0.0,
			"0.024": 0.0,
			"0.025": 0.0
		}
	}
}
