{
	 "smiles": "CC1=CC=CC=C1C1=CC=CC=C1P(C(C)(C)C)C(C)(C)C", 
	 "Tm": 364.65, 
	 "num_atms": 51, 
	 "gaussian": { 
		 "optdone": 1, 
		 "sigma_profile": "yes", 
		 "theory": "DFT", 
		 "functional": "B3LYP", 
		 "basiset": "6-31G**", 
		 "properties": { 
			 "R2extent": 7218.6379, 
			 "electric_dipole_moment_norm": 1.21255916557, 
			 "electric_quadrupole_moment_norm": 2.5084284921, 
			 "total_energy": -1159.07700917, 
			 "HOMO_LUMO_gap": 0.18341, 
			 "cosmo_polarized_energy": -8.09, 
			 "cosmo_cavitation_energy": 48.42, 
			 "cosmo_dispersion_energy": -31.46, 
			 "cosmo_repulsion_energy": 2.35, 
			 "cosmo_total_nonelectrostatic_energy": 19.31, 
			 "SMD_solvation_energy": 8.16 
		},
		"coords": [
			{
				"x": 2.5756391709,
				"y": -2.2452103165,
				"z": 2.6369431654,
				"element": "C" 
			},
			{
				"x": 1.8011628538,
				"y": -1.0589624332,
				"z": 3.1658989811,
				"element": "C" 
			},
			{
				"x": 1.3516420012,
				"y": -1.0621502886,
				"z": 4.4929967337,
				"element": "C" 
			},
			{
				"x": 0.6673552194,
				"y": 0.0239036859,
				"z": 5.0372030838,
				"element": "C" 
			},
			{
				"x": 0.4235292327,
				"y": 1.1472818441,
				"z": 4.248988681,
				"element": "C" 
			},
			{
				"x": 0.8564976862,
				"y": 1.1635694243,
				"z": 2.9238336567,
				"element": "C" 
			},
			{
				"x": 1.5292692268,
				"y": 0.0702482942,
				"z": 2.361744227,
				"element": "C" 
			},
			{
				"x": 2.036486467,
				"y": 0.1512964174,
				"z": 0.9492219281,
				"element": "C" 
			},
			{
				"x": 3.4015500518,
				"y": 0.4502682384,
				"z": 0.7899183394,
				"element": "C" 
			},
			{
				"x": 3.99078503,
				"y": 0.5392391534,
				"z": -0.467744016,
				"element": "C" 
			},
			{
				"x": 3.2115632441,
				"y": 0.3229119907,
				"z": -1.6035475577,
				"element": "C" 
			},
			{
				"x": 1.8555541621,
				"y": 0.0350481261,
				"z": -1.4620877029,
				"element": "C" 
			},
			{
				"x": 1.2307889824,
				"y": -0.0526107634,
				"z": -0.201886277,
				"element": "C" 
			},
			{
				"x": -0.5843481841,
				"y": -0.4595601103,
				"z": 0.0151414087,
				"element": "P" 
			},
			{
				"x": -1.4750675385,
				"y": 1.0234001586,
				"z": -0.8515752275,
				"element": "C" 
			},
			{
				"x": -1.2808492197,
				"y": 2.2153068615,
				"z": 0.1116403813,
				"element": "C" 
			},
			{
				"x": -2.9817026247,
				"y": 0.6973248171,
				"z": -0.9094047295,
				"element": "C" 
			},
			{
				"x": -0.9959086918,
				"y": 1.4637500693,
				"z": -2.2466956591,
				"element": "C" 
			},
			{
				"x": -0.8513624226,
				"y": -2.0832506323,
				"z": -1.0094513027,
				"element": "C" 
			},
			{
				"x": 0.2882587373,
				"y": -3.0458110054,
				"z": -0.6169767647,
				"element": "C" 
			},
			{
				"x": -2.1733022695,
				"y": -2.6918671316,
				"z": -0.4847112063,
				"element": "C" 
			},
			{
				"x": -0.9256536264,
				"y": -1.9981476461,
				"z": -2.5442098137,
				"element": "C" 
			},
			{
				"x": 2.5029348201,
				"y": -3.0937071294,
				"z": 3.3230891219,
				"element": "H" 
			},
			{
				"x": 2.2137580394,
				"y": -2.5660779783,
				"z": 1.656554698,
				"element": "H" 
			},
			{
				"x": 3.6394045999,
				"y": -2.0089544341,
				"z": 2.5147398305,
				"element": "H" 
			},
			{
				"x": 1.54827175,
				"y": -1.9356652,
				"z": 5.1100787565,
				"element": "H" 
			},
			{
				"x": 0.3321292001,
				"y": -0.007419115,
				"z": 6.0701479053,
				"element": "H" 
			},
			{
				"x": -0.098847564,
				"y": 2.0065718696,
				"z": 4.6598603405,
				"element": "H" 
			},
			{
				"x": 0.6748012795,
				"y": 2.0398320248,
				"z": 2.3104213277,
				"element": "H" 
			},
			{
				"x": 4.0022211651,
				"y": 0.6176862416,
				"z": 1.6797843442,
				"element": "H" 
			},
			{
				"x": 5.0476408635,
				"y": 0.7739300521,
				"z": -0.5590299162,
				"element": "H" 
			},
			{
				"x": 3.6530754392,
				"y": 0.3805380475,
				"z": -2.5946802076,
				"element": "H" 
			},
			{
				"x": 1.2692769083,
				"y": -0.1255830873,
				"z": -2.3580861423,
				"element": "H" 
			},
			{
				"x": -0.2283414475,
				"y": 2.5085857813,
				"z": 0.1783411914,
				"element": "H" 
			},
			{
				"x": -1.8414278185,
				"y": 3.0831813434,
				"z": -0.2590679917,
				"element": "H" 
			},
			{
				"x": -1.6379497685,
				"y": 1.9857535147,
				"z": 1.1198735385,
				"element": "H" 
			},
			{
				"x": -3.3609727863,
				"y": 0.3546625768,
				"z": 0.0589555171,
				"element": "H" 
			},
			{
				"x": -3.5417841946,
				"y": 1.5996182161,
				"z": -1.1864490089,
				"element": "H" 
			},
			{
				"x": -3.2117716242,
				"y": -0.0672561119,
				"z": -1.6568560856,
				"element": "H" 
			},
			{
				"x": -1.6081846007,
				"y": 2.3098471258,
				"z": -2.5871948854,
				"element": "H" 
			},
			{
				"x": -1.0873271706,
				"y": 0.6758757445,
				"z": -2.9973256401,
				"element": "H" 
			},
			{
				"x": 0.0423132603,
				"y": 1.8037989396,
				"z": -2.229430127,
				"element": "H" 
			},
			{
				"x": 1.2586144647,
				"y": -2.714125517,
				"z": -0.9955796368,
				"element": "H" 
			},
			{
				"x": 0.0858605882,
				"y": -4.040843125,
				"z": -1.0334983777,
				"element": "H" 
			},
			{
				"x": 0.3635782565,
				"y": -3.1544671755,
				"z": 0.470094541,
				"element": "H" 
			},
			{
				"x": -2.3275007023,
				"y": -3.6810881538,
				"z": -0.935194481,
				"element": "H" 
			},
			{
				"x": -3.0438176217,
				"y": -2.0798966733,
				"z": -0.7341914659,
				"element": "H" 
			},
			{
				"x": -2.1512066407,
				"y": -2.8142523342,
				"z": 0.6021899757,
				"element": "H" 
			},
			{
				"x": -1.7625773186,
				"y": -1.3837536848,
				"z": -2.8862663879,
				"element": "H" 
			},
			{
				"x": -0.0075201472,
				"y": -1.6070893767,
				"z": -2.9898565887,
				"element": "H" 
			},
			{
				"x": -1.0773387178,
				"y": -3.0050811345,
				"z": -2.9563644744,
				"element": "H" 
			}
		],
		 "valence_orbital": [ 
			{
				"type": "occ",
				"energy": -0.24965,
				"method": "rhf"
			},
			{
				"type": "occ",
				"energy": -0.24522,
				"method": "rhf"
			},
			{
				"type": "occ",
				"energy": -0.23707,
				"method": "rhf"
			},
			{
				"type": "occ",
				"energy": -0.23114,
				"method": "rhf"
			},
			{
				"type": "occ",
				"energy": -0.20165,
				"method": "rhf"
			},
			{
				"type": "unocc",
				"energy": -0.01824,
				"method": "rhf"
			},
			{
				"type": "unocc",
				"energy": -0.00797,
				"method": "rhf"
			},
			{
				"type": "unocc",
				"energy": 0.00976,
				"method": "rhf"
			},
			{
				"type": "unocc",
				"energy": 0.01191,
				"method": "rhf"
			},
			{
				"type": "unocc",
				"energy": 0.06372,
				"method": "rhf"
			}
		],
		"cosmo_sigma_profile": { 
			"-0.025": 0.0,
			"-0.024": 0.0,
			"-0.023": 0.0,
			"-0.022": 0.0,
			"-0.021": 0.0,
			"-0.02": 0.0,
			"-0.019": 0.0,
			"-0.018": 0.0,
			"-0.017": 0.0,
			"-0.016": 0.0,
			"-0.015": 0.0,
			"-0.014": 0.0,
			"-0.013": 0.0,
			"-0.012": 0.0,
			"-0.011": 0.0,
			"-0.01": 0.0,
			"-0.009": 0.0,
			"-0.008": 0.0,
			"-0.007": 0.00625747752463,
			"-0.006": 3.52396093041,
			"-0.005": 14.7714034958,
			"-0.004": 23.6562320075,
			"-0.003": 35.7745893271,
			"-0.002": 51.0540217719,
			"-0.001": 53.9384852856,
			"0.0": 48.6869830747,
			"0.001": 55.4127437589,
			"0.002": 27.1977085539,
			"0.003": 14.4920712114,
			"0.004": 13.1317285628,
			"0.005": 13.2807076823,
			"0.006": 8.91828814888,
			"0.007": 3.82162364697,
			"0.008": 1.77914309984,
			"0.009": 1.95227832492,
			"0.01": 0.925552085602,
			"0.011": 0.581755459463,
			"0.012": 1.01437181736,
			"0.013": 0.989942975207,
			"0.014": 0.799797631095,
			"0.015": 0.555765902085,
			"0.016": 0.331355240007,
			"0.017": 0.0129524067566,
			"0.018": 0.0,
			"0.019": 0.0,
			"0.02": 0.0,
			"0.021": 0.0,
			"0.022": 0.0,
			"0.023": 0.0,
			"0.024": 0.0,
			"0.025": 0.0
		}
	}
}
