{
	 "smiles": "SC1=NC=NC2=C1C=NN2C1=CC=CC=C1", 
	 "Tm": 560.15, 
	 "num_atms": 24, 
	 "gaussian": { 
		 "optdone": 1, 
		 "sigma_profile": "yes", 
		 "theory": "DFT", 
		 "functional": "B3LYP", 
		 "basiset": "6-31G**", 
		 "properties": { 
			 "R2extent": 4760.6313, 
			 "electric_dipole_moment_norm": 1.63602728889, 
			 "electric_quadrupole_moment_norm": 13.5789781677, 
			 "total_energy": -1041.16564225, 
			 "HOMO_LUMO_gap": 0.16385, 
			 "cosmo_polarized_energy": -10.54, 
			 "cosmo_cavitation_energy": 30.25, 
			 "cosmo_dispersion_energy": -23.26, 
			 "cosmo_repulsion_energy": 1.71, 
			 "cosmo_total_nonelectrostatic_energy": 8.7, 
			 "SMD_solvation_energy": 1.72 
		},
		"coords": [
			{
				"x": 1.8905759882,
				"y": -2.5073239032,
				"z": -4.0528351882,
				"element": "S" 
			},
			{
				"x": 1.6120241065,
				"y": -1.2022635939,
				"z": -2.8872362171,
				"element": "C" 
			},
			{
				"x": 2.3586433473,
				"y": -0.1180114315,
				"z": -3.0787718948,
				"element": "N" 
			},
			{
				"x": 2.1985624432,
				"y": 0.915229483,
				"z": -2.2283676148,
				"element": "C" 
			},
			{
				"x": 1.3717199943,
				"y": 1.0051009684,
				"z": -1.1905760029,
				"element": "N" 
			},
			{
				"x": 0.6274667572,
				"y": -0.0968692921,
				"z": -1.0134597633,
				"element": "C" 
			},
			{
				"x": 0.6887075711,
				"y": -1.2554329965,
				"z": -1.8269964165,
				"element": "C" 
			},
			{
				"x": -0.2691954839,
				"y": -2.1409912567,
				"z": -1.2587059511,
				"element": "C" 
			},
			{
				"x": -0.8552541731,
				"y": -1.5944414773,
				"z": -0.2147767319,
				"element": "N" 
			},
			{
				"x": -0.3196753616,
				"y": -0.3431303949,
				"z": -0.0487067042,
				"element": "N" 
			},
			{
				"x": -0.7854867721,
				"y": 0.4745579212,
				"z": 1.0259344032,
				"element": "C" 
			},
			{
				"x": -0.2673222022,
				"y": 1.7598325934,
				"z": 1.2288315563,
				"element": "C" 
			},
			{
				"x": -0.748895656,
				"y": 2.5271566926,
				"z": 2.2899253439,
				"element": "C" 
			},
			{
				"x": -1.7335348019,
				"y": 2.0320485462,
				"z": 3.1446166545,
				"element": "C" 
			},
			{
				"x": -2.2414185745,
				"y": 0.7490698151,
				"z": 2.9309883251,
				"element": "C" 
			},
			{
				"x": -1.774827998,
				"y": -0.033809592,
				"z": 1.8779361831,
				"element": "C" 
			},
			{
				"x": 0.991940585,
				"y": -3.3715866895,
				"z": -3.5412553716,
				"element": "H" 
			},
			{
				"x": 2.8280464051,
				"y": 1.7808739912,
				"z": -2.4201572919,
				"element": "H" 
			},
			{
				"x": -0.5513329176,
				"y": -3.14006401,
				"z": -1.5634340747,
				"element": "H" 
			},
			{
				"x": 0.4963788432,
				"y": 2.1454954656,
				"z": 0.567165112,
				"element": "H" 
			},
			{
				"x": -0.3442478604,
				"y": 3.5232650041,
				"z": 2.443519158,
				"element": "H" 
			},
			{
				"x": -2.1013454163,
				"y": 2.6376013233,
				"z": 3.9673919757,
				"element": "H" 
			},
			{
				"x": -3.0084084742,
				"y": 0.3490398338,
				"z": 3.5877085449,
				"element": "H" 
			},
			{
				"x": -2.1637203493,
				"y": -1.0288470001,
				"z": 1.7062619664,
				"element": "H" 
			}
		],
		 "valence_orbital": [ 
			{
				"type": "occ",
				"energy": -0.29088,
				"method": "rhf"
			},
			{
				"type": "occ",
				"energy": -0.27076,
				"method": "rhf"
			},
			{
				"type": "occ",
				"energy": -0.25601,
				"method": "rhf"
			},
			{
				"type": "occ",
				"energy": -0.25432,
				"method": "rhf"
			},
			{
				"type": "occ",
				"energy": -0.22911,
				"method": "rhf"
			},
			{
				"type": "unocc",
				"energy": -0.06526,
				"method": "rhf"
			},
			{
				"type": "unocc",
				"energy": -0.03468,
				"method": "rhf"
			},
			{
				"type": "unocc",
				"energy": -0.00726,
				"method": "rhf"
			},
			{
				"type": "unocc",
				"energy": 0.00463,
				"method": "rhf"
			},
			{
				"type": "unocc",
				"energy": 0.0065,
				"method": "rhf"
			}
		],
		"cosmo_sigma_profile": { 
			"-0.025": 0.0,
			"-0.024": 0.0,
			"-0.023": 0.0,
			"-0.022": 0.0,
			"-0.021": 0.0,
			"-0.02": 0.0,
			"-0.019": 0.0,
			"-0.018": 0.0,
			"-0.017": 0.0,
			"-0.016": 0.0,
			"-0.015": 0.0,
			"-0.014": 0.0,
			"-0.013": 0.582508253245,
			"-0.012": 3.31625899066,
			"-0.011": 1.90606306101,
			"-0.01": 2.83884793907,
			"-0.009": 3.25212055937,
			"-0.008": 4.12009560073,
			"-0.007": 4.50123315949,
			"-0.006": 8.70860585226,
			"-0.005": 11.5454425593,
			"-0.004": 15.1519101658,
			"-0.003": 14.9744360853,
			"-0.002": 20.3123823403,
			"-0.001": 20.5842396059,
			"0.0": 17.2873358877,
			"0.001": 17.5139470576,
			"0.002": 20.9389682069,
			"0.003": 20.1361920397,
			"0.004": 20.1156266269,
			"0.005": 17.4672706277,
			"0.006": 7.30322371196,
			"0.007": 4.80377135303,
			"0.008": 3.3954813493,
			"0.009": 2.55893832724,
			"0.01": 1.74678933885,
			"0.011": 0.872910539818,
			"0.012": 0.75291664885,
			"0.013": 0.689962982673,
			"0.014": 0.402095506968,
			"0.015": 0.000495004314197,
			"0.016": 0.0,
			"0.017": 0.0,
			"0.018": 0.0,
			"0.019": 0.0,
			"0.02": 0.0,
			"0.021": 0.0,
			"0.022": 0.0,
			"0.023": 0.0,
			"0.024": 0.0,
			"0.025": 0.0
		}
	}
}
