{
	 "smiles": "CC1=C(N=C=O)C(=NO1)C1=CC=CC=C1", 
	 "Tm": 312.65, 
	 "num_atms": 23, 
	 "gaussian": { 
		 "optdone": 1, 
		 "sigma_profile": "yes", 
		 "theory": "DFT", 
		 "functional": "B3LYP", 
		 "basiset": "6-31G**", 
		 "properties": { 
			 "R2extent": 3439.0132, 
			 "electric_dipole_moment_norm": 0.724275569103, 
			 "electric_quadrupole_moment_norm": 18.0425634986, 
			 "total_energy": -683.895276339, 
			 "HOMO_LUMO_gap": 0.20025, 
			 "cosmo_polarized_energy": -8.79, 
			 "cosmo_cavitation_energy": 29.05, 
			 "cosmo_dispersion_energy": -20.61, 
			 "cosmo_repulsion_energy": 1.62, 
			 "cosmo_total_nonelectrostatic_energy": 10.06, 
			 "SMD_solvation_energy": 7.11 
		},
		"coords": [
			{
				"x": -2.9746231339,
				"y": -1.9166833408,
				"z": 1.7447561507,
				"element": "C" 
			},
			{
				"x": -1.8499502528,
				"y": -1.0721772453,
				"z": 1.2657508581,
				"element": "C" 
			},
			{
				"x": -0.8963605225,
				"y": -1.2543700436,
				"z": 0.3008776852,
				"element": "C" 
			},
			{
				"x": -0.768865413,
				"y": -2.3868340964,
				"z": -0.4795979954,
				"element": "N" 
			},
			{
				"x": -0.0196293749,
				"y": -2.9478590853,
				"z": -1.2438690498,
				"element": "C" 
			},
			{
				"x": 0.6000036749,
				"y": -3.5987667982,
				"z": -2.0064330715,
				"element": "O" 
			},
			{
				"x": -0.0967344165,
				"y": -0.058119544,
				"z": 0.3456381572,
				"element": "C" 
			},
			{
				"x": -0.5498769114,
				"y": 0.7613863726,
				"z": 1.2727630152,
				"element": "N" 
			},
			{
				"x": -1.6515702014,
				"y": 0.124570373,
				"z": 1.8516094925,
				"element": "O" 
			},
			{
				"x": 1.0917420584,
				"y": 0.3016341326,
				"z": -0.448907265,
				"element": "C" 
			},
			{
				"x": 1.1734084789,
				"y": -0.0125515168,
				"z": -1.8144079122,
				"element": "C" 
			},
			{
				"x": 2.3033320939,
				"y": 0.3402730419,
				"z": -2.552302321,
				"element": "C" 
			},
			{
				"x": 3.3589617862,
				"y": 1.0152100014,
				"z": -1.9379453681,
				"element": "C" 
			},
			{
				"x": 3.2789531138,
				"y": 1.3424072088,
				"z": -0.5817817242,
				"element": "C" 
			},
			{
				"x": 2.1551242707,
				"y": 0.9876161171,
				"z": 0.1604004802,
				"element": "C" 
			},
			{
				"x": -3.9331511504,
				"y": -1.4034887306,
				"z": 1.613681284,
				"element": "H" 
			},
			{
				"x": -2.8646740538,
				"y": -2.1497953431,
				"z": 2.8090431092,
				"element": "H" 
			},
			{
				"x": -2.9962487961,
				"y": -2.8509523428,
				"z": 1.1803269688,
				"element": "H" 
			},
			{
				"x": 0.3423618451,
				"y": -0.5038119878,
				"z": -2.3104702059,
				"element": "H" 
			},
			{
				"x": 2.3538760848,
				"y": 0.0925415874,
				"z": -3.6082852118,
				"element": "H" 
			},
			{
				"x": 4.2391340192,
				"y": 1.2873450228,
				"z": -2.513060473,
				"element": "H" 
			},
			{
				"x": 4.0965685146,
				"y": 1.8706760198,
				"z": -0.1001413186,
				"element": "H" 
			},
			{
				"x": 2.0874182861,
				"y": 1.2333501973,
				"z": 1.2148547156,
				"element": "H" 
			}
		],
		 "valence_orbital": [ 
			{
				"type": "occ",
				"energy": -0.30752,
				"method": "rhf"
			},
			{
				"type": "occ",
				"energy": -0.29604,
				"method": "rhf"
			},
			{
				"type": "occ",
				"energy": -0.26067,
				"method": "rhf"
			},
			{
				"type": "occ",
				"energy": -0.24932,
				"method": "rhf"
			},
			{
				"type": "occ",
				"energy": -0.23969,
				"method": "rhf"
			},
			{
				"type": "unocc",
				"energy": -0.03944,
				"method": "rhf"
			},
			{
				"type": "unocc",
				"energy": -0.0135,
				"method": "rhf"
			},
			{
				"type": "unocc",
				"energy": -0.0094,
				"method": "rhf"
			},
			{
				"type": "unocc",
				"energy": 0.01477,
				"method": "rhf"
			},
			{
				"type": "unocc",
				"energy": 0.03336,
				"method": "rhf"
			}
		],
		"cosmo_sigma_profile": { 
			"-0.025": 0.0,
			"-0.024": 0.0,
			"-0.023": 0.0,
			"-0.022": 0.0,
			"-0.021": 0.0,
			"-0.02": 0.0,
			"-0.019": 0.0,
			"-0.018": 0.0,
			"-0.017": 0.0,
			"-0.016": 0.0,
			"-0.015": 0.0,
			"-0.014": 0.0,
			"-0.013": 0.0,
			"-0.012": 0.0,
			"-0.011": 0.0,
			"-0.01": 0.0,
			"-0.009": 0.0,
			"-0.008": 0.825507075913,
			"-0.007": 4.76821056904,
			"-0.006": 15.4355511299,
			"-0.005": 17.4340136653,
			"-0.004": 19.328651503,
			"-0.003": 21.1174503234,
			"-0.002": 22.4751380742,
			"-0.001": 19.5994317504,
			"0.0": 18.0178732,
			"0.001": 13.8472577024,
			"0.002": 14.2268370639,
			"0.003": 14.584786218,
			"0.004": 15.2816436698,
			"0.005": 8.09606367049,
			"0.006": 5.6588958125,
			"0.007": 10.9556566952,
			"0.008": 5.83883874377,
			"0.009": 2.09380404568,
			"0.01": 1.28502611251,
			"0.011": 1.43398845417,
			"0.012": 0.967239056445,
			"0.013": 1.0146246319,
			"0.014": 0.455541112076,
			"0.015": 0.0,
			"0.016": 0.0,
			"0.017": 0.0,
			"0.018": 0.0,
			"0.019": 0.0,
			"0.02": 0.0,
			"0.021": 0.0,
			"0.022": 0.0,
			"0.023": 0.0,
			"0.024": 0.0,
			"0.025": 0.0
		}
	}
}
