{
	 "smiles": "CC(=O)N(C1=NC(C=O)=CS1)C1=CC=C(F)C=C1", 
	 "Tm": 490.15, 
	 "num_atms": 27, 
	 "gaussian": { 
		 "optdone": 1, 
		 "sigma_profile": "yes", 
		 "theory": "DFT", 
		 "functional": "B3LYP", 
		 "basiset": "6-31G**", 
		 "properties": { 
			 "R2extent": 5821.8801, 
			 "electric_dipole_moment_norm": 3.94338025557, 
			 "electric_quadrupole_moment_norm": 16.3609094277, 
			 "total_energy": -1220.65460353, 
			 "HOMO_LUMO_gap": 0.17464, 
			 "cosmo_polarized_energy": -16.81, 
			 "cosmo_cavitation_energy": 34.89, 
			 "cosmo_dispersion_energy": -24.17, 
			 "cosmo_repulsion_energy": 1.81, 
			 "cosmo_total_nonelectrostatic_energy": 12.54, 
			 "SMD_solvation_energy": 8.08 
		},
		"coords": [
			{
				"x": -0.8361936569,
				"y": -1.6758790239,
				"z": -2.2957417406,
				"element": "C" 
			},
			{
				"x": -0.6647119723,
				"y": -2.1041158566,
				"z": -0.8606545014,
				"element": "C" 
			},
			{
				"x": -0.871551982,
				"y": -3.2400765643,
				"z": -0.4823839423,
				"element": "O" 
			},
			{
				"x": -0.2374066708,
				"y": -1.1439249842,
				"z": 0.1118405037,
				"element": "N" 
			},
			{
				"x": 0.0398191889,
				"y": 0.1987395116,
				"z": -0.1202509716,
				"element": "C" 
			},
			{
				"x": -0.0662514908,
				"y": 0.8262898191,
				"z": -1.2491556936,
				"element": "N" 
			},
			{
				"x": 0.2949838435,
				"y": 2.1518144925,
				"z": -1.1173128305,
				"element": "C" 
			},
			{
				"x": 0.2574230276,
				"y": 3.0741323488,
				"z": -2.2687101929,
				"element": "C" 
			},
			{
				"x": -0.0783808737,
				"y": 2.7665062502,
				"z": -3.3937622122,
				"element": "O" 
			},
			{
				"x": 0.6826590049,
				"y": 2.5451951787,
				"z": 0.1367147264,
				"element": "C" 
			},
			{
				"x": 0.607184181,
				"y": 1.2147876585,
				"z": 1.2399840539,
				"element": "S" 
			},
			{
				"x": -0.0868678637,
				"y": -1.6386776098,
				"z": 1.4622031076,
				"element": "C" 
			},
			{
				"x": 1.1349146233,
				"y": -2.1788358429,
				"z": 1.8719061723,
				"element": "C" 
			},
			{
				"x": 1.286102814,
				"y": -2.6545491641,
				"z": 3.1727493196,
				"element": "C" 
			},
			{
				"x": 0.2005459348,
				"y": -2.5821365288,
				"z": 4.0397733247,
				"element": "C" 
			},
			{
				"x": 0.3417043182,
				"y": -3.0392825366,
				"z": 5.2979179317,
				"element": "F" 
			},
			{
				"x": -1.0259902281,
				"y": -2.0532787822,
				"z": 3.6506317084,
				"element": "C" 
			},
			{
				"x": -1.1663873868,
				"y": -1.5807077786,
				"z": 2.3474765325,
				"element": "C" 
			},
			{
				"x": 0.0904031819,
				"y": -1.269964931,
				"z": -2.7074836263,
				"element": "H" 
			},
			{
				"x": -1.1487695423,
				"y": -2.559872237,
				"z": -2.8518523417,
				"element": "H" 
			},
			{
				"x": -1.5773629547,
				"y": -0.8794603109,
				"z": -2.3906897342,
				"element": "H" 
			},
			{
				"x": 0.5722733905,
				"y": 4.1112311155,
				"z": -2.0176404682,
				"element": "H" 
			},
			{
				"x": 0.9990502056,
				"y": 3.5274540815,
				"z": 0.4597799405,
				"element": "H" 
			},
			{
				"x": 1.9603281907,
				"y": -2.2305647048,
				"z": 1.169560673,
				"element": "H" 
			},
			{
				"x": 2.2214876118,
				"y": -3.0803338523,
				"z": 3.5179769766,
				"element": "H" 
			},
			{
				"x": -1.8464086311,
				"y": -2.0225726965,
				"z": 4.3587287992,
				"element": "H" 
			},
			{
				"x": -2.1134962636,
				"y": -1.1716170519,
				"z": 2.0113944854,
				"element": "H" 
			}
		],
		 "valence_orbital": [ 
			{
				"type": "occ",
				"energy": -0.27808,
				"method": "rhf"
			},
			{
				"type": "occ",
				"energy": -0.27328,
				"method": "rhf"
			},
			{
				"type": "occ",
				"energy": -0.26219,
				"method": "rhf"
			},
			{
				"type": "occ",
				"energy": -0.25753,
				"method": "rhf"
			},
			{
				"type": "occ",
				"energy": -0.23974,
				"method": "rhf"
			},
			{
				"type": "unocc",
				"energy": -0.0651,
				"method": "rhf"
			},
			{
				"type": "unocc",
				"energy": -0.03191,
				"method": "rhf"
			},
			{
				"type": "unocc",
				"energy": -0.02674,
				"method": "rhf"
			},
			{
				"type": "unocc",
				"energy": -0.0262,
				"method": "rhf"
			},
			{
				"type": "unocc",
				"energy": 0.00036,
				"method": "rhf"
			}
		],
		"cosmo_sigma_profile": { 
			"-0.025": 0.0,
			"-0.024": 0.0,
			"-0.023": 0.0,
			"-0.022": 0.0,
			"-0.021": 0.0,
			"-0.02": 0.0,
			"-0.019": 0.0,
			"-0.018": 0.0,
			"-0.017": 0.0,
			"-0.016": 0.0,
			"-0.015": 0.0,
			"-0.014": 0.0,
			"-0.013": 0.0,
			"-0.012": 0.0,
			"-0.011": 0.987256515979,
			"-0.01": 2.78685097159,
			"-0.009": 2.86915982525,
			"-0.008": 8.33228505125,
			"-0.007": 11.5849368879,
			"-0.006": 16.4495568956,
			"-0.005": 19.7801739704,
			"-0.004": 16.9738041946,
			"-0.003": 18.479618946,
			"-0.002": 19.176639341,
			"-0.001": 22.5673881712,
			"0.0": 27.1827310459,
			"0.001": 24.2656084704,
			"0.002": 17.595037381,
			"0.003": 12.0447200574,
			"0.004": 14.4181572876,
			"0.005": 4.62693619327,
			"0.006": 4.27335745314,
			"0.007": 3.54093007921,
			"0.008": 4.14933829738,
			"0.009": 4.21780267685,
			"0.01": 5.90092931569,
			"0.011": 7.73436950056,
			"0.012": 9.04314978765,
			"0.013": 3.26968391193,
			"0.014": 0.287674409246,
			"0.015": 0.0,
			"0.016": 0.0,
			"0.017": 0.0,
			"0.018": 0.0,
			"0.019": 0.0,
			"0.02": 0.0,
			"0.021": 0.0,
			"0.022": 0.0,
			"0.023": 0.0,
			"0.024": 0.0,
			"0.025": 0.0
		}
	}
}
