{
	 "smiles": "CC(C)(C)OC(=O)NCCC1CNC2=C1C=CC=C2", 
	 "Tm": 364.15, 
	 "num_atms": 41, 
	 "gaussian": { 
		 "optdone": 1, 
		 "sigma_profile": "yes", 
		 "theory": "DFT", 
		 "functional": "B3LYP", 
		 "basiset": "6-31G**", 
		 "properties": { 
			 "R2extent": 7400.1686, 
			 "electric_dipole_moment_norm": 0.817061790809, 
			 "electric_quadrupole_moment_norm": 14.6601461289, 
			 "total_energy": -844.849208257, 
			 "HOMO_LUMO_gap": 0.19609, 
			 "cosmo_polarized_energy": -12.79, 
			 "cosmo_cavitation_energy": 41.5, 
			 "cosmo_dispersion_energy": -28.07, 
			 "cosmo_repulsion_energy": 2.17, 
			 "cosmo_total_nonelectrostatic_energy": 15.6, 
			 "SMD_solvation_energy": 5.76 
		},
		"coords": [
			{
				"x": 2.8518275923,
				"y": 1.2401447556,
				"z": 1.1412615054,
				"element": "C" 
			},
			{
				"x": 1.774414277,
				"y": 0.7941915757,
				"z": 2.1356609102,
				"element": "C" 
			},
			{
				"x": 1.5005555129,
				"y": 1.8908381301,
				"z": 3.1683121139,
				"element": "C" 
			},
			{
				"x": 2.13371074,
				"y": -0.5255061881,
				"z": 2.8271125541,
				"element": "C" 
			},
			{
				"x": 0.4765074024,
				"y": 0.666402442,
				"z": 1.4538973113,
				"element": "O" 
			},
			{
				"x": 0.2988182674,
				"y": -0.2378426878,
				"z": 0.4545286577,
				"element": "C" 
			},
			{
				"x": 1.1527673392,
				"y": -0.9822145918,
				"z": -0.0050681249,
				"element": "O" 
			},
			{
				"x": -0.9981109656,
				"y": -0.1864952569,
				"z": 0.030352493,
				"element": "N" 
			},
			{
				"x": -1.4811233959,
				"y": -0.9633856045,
				"z": -1.0997002862,
				"element": "C" 
			},
			{
				"x": -1.7837415176,
				"y": -0.1348279915,
				"z": -2.3575989119,
				"element": "C" 
			},
			{
				"x": -0.5649200635,
				"y": 0.6734921209,
				"z": -2.8963633722,
				"element": "C" 
			},
			{
				"x": -0.4772855625,
				"y": 0.6770136887,
				"z": -4.4480614108,
				"element": "C" 
			},
			{
				"x": -1.2243459253,
				"y": 1.8843159181,
				"z": -4.8417184229,
				"element": "N" 
			},
			{
				"x": -1.0811027665,
				"y": 2.8126913882,
				"z": -3.8024998496,
				"element": "C" 
			},
			{
				"x": -0.6744676644,
				"y": 2.1695271583,
				"z": -2.6181990606,
				"element": "C" 
			},
			{
				"x": -0.4944225668,
				"y": 2.9083769083,
				"z": -1.4554769459,
				"element": "C" 
			},
			{
				"x": -0.715890624,
				"y": 4.294036885,
				"z": -1.4781597978,
				"element": "C" 
			},
			{
				"x": -1.1237403661,
				"y": 4.9198482474,
				"z": -2.6578105622,
				"element": "C" 
			},
			{
				"x": -1.3128029105,
				"y": 4.1883943266,
				"z": -3.8357032024,
				"element": "C" 
			},
			{
				"x": 3.0332628127,
				"y": 0.4694422662,
				"z": 0.3920316606,
				"element": "H" 
			},
			{
				"x": 3.7854075192,
				"y": 1.4409928059,
				"z": 1.6770884324,
				"element": "H" 
			},
			{
				"x": 2.5460700083,
				"y": 2.1616580515,
				"z": 0.6356563859,
				"element": "H" 
			},
			{
				"x": 0.6990079235,
				"y": 1.5893559301,
				"z": 3.8489748343,
				"element": "H" 
			},
			{
				"x": 1.202923179,
				"y": 2.8208809591,
				"z": 2.6751790052,
				"element": "H" 
			},
			{
				"x": 2.4015042879,
				"y": 2.0849169787,
				"z": 3.7578779663,
				"element": "H" 
			},
			{
				"x": 1.326767496,
				"y": -0.8343051156,
				"z": 3.4993333936,
				"element": "H" 
			},
			{
				"x": 3.0412441122,
				"y": -0.3921654703,
				"z": 3.4249429298,
				"element": "H" 
			},
			{
				"x": 2.3065473185,
				"y": -1.3147820678,
				"z": 2.095082375,
				"element": "H" 
			},
			{
				"x": -1.5938359856,
				"y": 0.5082826538,
				"z": 0.455200443,
				"element": "H" 
			},
			{
				"x": -0.7021908758,
				"y": -1.7000561603,
				"z": -1.3106531485,
				"element": "H" 
			},
			{
				"x": -2.382184882,
				"y": -1.5137706475,
				"z": -0.7998743756,
				"element": "H" 
			},
			{
				"x": -2.6238303706,
				"y": 0.5430105492,
				"z": -2.165771696,
				"element": "H" 
			},
			{
				"x": -2.1307282181,
				"y": -0.8396027376,
				"z": -3.124053587,
				"element": "H" 
			},
			{
				"x": 0.3496050486,
				"y": 0.2427695258,
				"z": -2.4756218461,
				"element": "H" 
			},
			{
				"x": 0.5773831313,
				"y": 0.7401471763,
				"z": -4.7597577269,
				"element": "H" 
			},
			{
				"x": -0.9123305819,
				"y": -0.2201271203,
				"z": -4.8993418334,
				"element": "H" 
			},
			{
				"x": -1.046831277,
				"y": 2.2289377668,
				"z": -5.7768996356,
				"element": "H" 
			},
			{
				"x": -0.1734948416,
				"y": 2.4261773629,
				"z": -0.5368727821,
				"element": "H" 
			},
			{
				"x": -0.566099502,
				"y": 4.8803241195,
				"z": -0.5765007657,
				"element": "H" 
			},
			{
				"x": -1.2909848088,
				"y": 5.9935752537,
				"z": -2.668259165,
				"element": "H" 
			},
			{
				"x": -1.6246582962,
				"y": 4.6811366956,
				"z": -4.7526264621,
				"element": "H" 
			}
		],
		 "valence_orbital": [ 
			{
				"type": "occ",
				"energy": -0.28476,
				"method": "rhf"
			},
			{
				"type": "occ",
				"energy": -0.26147,
				"method": "rhf"
			},
			{
				"type": "occ",
				"energy": -0.24883,
				"method": "rhf"
			},
			{
				"type": "occ",
				"energy": -0.2344,
				"method": "rhf"
			},
			{
				"type": "occ",
				"energy": -0.18932,
				"method": "rhf"
			},
			{
				"type": "unocc",
				"energy": 0.00677,
				"method": "rhf"
			},
			{
				"type": "unocc",
				"energy": 0.02386,
				"method": "rhf"
			},
			{
				"type": "unocc",
				"energy": 0.05791,
				"method": "rhf"
			},
			{
				"type": "unocc",
				"energy": 0.07894,
				"method": "rhf"
			},
			{
				"type": "unocc",
				"energy": 0.09241,
				"method": "rhf"
			}
		],
		"cosmo_sigma_profile": { 
			"-0.025": 0.0,
			"-0.024": 0.0,
			"-0.023": 0.0,
			"-0.022": 0.0,
			"-0.021": 0.0,
			"-0.02": 0.0,
			"-0.019": 0.0,
			"-0.018": 0.0,
			"-0.017": 0.0,
			"-0.016": 0.0,
			"-0.015": 0.0,
			"-0.014": 0.0476398276092,
			"-0.013": 0.937062863725,
			"-0.012": 1.80113732981,
			"-0.011": 1.95770263147,
			"-0.01": 2.21340947163,
			"-0.009": 2.47109834471,
			"-0.008": 2.08927516042,
			"-0.007": 2.37135728686,
			"-0.006": 3.22042422877,
			"-0.005": 8.2558235942,
			"-0.004": 27.1928354625,
			"-0.003": 40.9936660715,
			"-0.002": 40.0247844635,
			"-0.001": 35.6957346273,
			"0.0": 35.8164935326,
			"0.001": 27.9722378205,
			"0.002": 14.3287281175,
			"0.003": 13.0582750248,
			"0.004": 11.9588668383,
			"0.005": 10.5791828308,
			"0.006": 11.0232353549,
			"0.007": 10.8903077107,
			"0.008": 6.62223894605,
			"0.009": 1.94857781817,
			"0.01": 1.69257157387,
			"0.011": 1.64384986912,
			"0.012": 2.60309050786,
			"0.013": 2.91076860758,
			"0.014": 1.83030311358,
			"0.015": 0.0146431886686,
			"0.016": 0.0,
			"0.017": 0.0,
			"0.018": 0.0,
			"0.019": 0.0,
			"0.02": 0.0,
			"0.021": 0.0,
			"0.022": 0.0,
			"0.023": 0.0,
			"0.024": 0.0,
			"0.025": 0.0
		}
	}
}
