{
	 "smiles": "COC1=CC=C(CC(=O)NN)C=C1OC", 
	 "Tm": 376.15, 
	 "num_atms": 29, 
	 "gaussian": { 
		 "optdone": 1, 
		 "sigma_profile": "yes", 
		 "theory": "DFT", 
		 "functional": "B3LYP", 
		 "basiset": "6-31G**", 
		 "properties": { 
			 "R2extent": 4694.1838, 
			 "electric_dipole_moment_norm": 3.07753679913, 
			 "electric_quadrupole_moment_norm": 9.62967170728, 
			 "total_energy": -724.627732287, 
			 "HOMO_LUMO_gap": 0.21692, 
			 "cosmo_polarized_energy": -14.55, 
			 "cosmo_cavitation_energy": 32.94, 
			 "cosmo_dispersion_energy": -22.99, 
			 "cosmo_repulsion_energy": 1.86, 
			 "cosmo_total_nonelectrostatic_energy": 11.81, 
			 "SMD_solvation_energy": 8.08 
		},
		"coords": [
			{
				"x": -4.1694149797,
				"y": 0.3700484233,
				"z": -0.7636669097,
				"element": "C" 
			},
			{
				"x": -3.3143938819,
				"y": 0.7914755285,
				"z": 0.3069413559,
				"element": "O" 
			},
			{
				"x": -2.10105913,
				"y": 0.1447967087,
				"z": 0.3690528839,
				"element": "C" 
			},
			{
				"x": -1.8350915156,
				"y": -0.6948074698,
				"z": 1.4512844626,
				"element": "C" 
			},
			{
				"x": -0.6051890539,
				"y": -1.343791713,
				"z": 1.5630738139,
				"element": "C" 
			},
			{
				"x": 0.386034186,
				"y": -1.1752645476,
				"z": 0.5863184231,
				"element": "C" 
			},
			{
				"x": 1.7102913305,
				"y": -1.899227036,
				"z": 0.6828630626,
				"element": "C" 
			},
			{
				"x": 1.8225981877,
				"y": -3.2736712199,
				"z": 0.0027950844,
				"element": "C" 
			},
			{
				"x": 2.8894684426,
				"y": -3.8733796797,
				"z": -0.0519760624,
				"element": "O" 
			},
			{
				"x": 0.6719141794,
				"y": -3.7902375563,
				"z": -0.5149834686,
				"element": "N" 
			},
			{
				"x": 0.6662649145,
				"y": -5.0015464428,
				"z": -1.2342879712,
				"element": "N" 
			},
			{
				"x": 0.1168829781,
				"y": -0.3195951904,
				"z": -0.4919277766,
				"element": "C" 
			},
			{
				"x": -1.1037554089,
				"y": 0.3461394764,
				"z": -0.6054042131,
				"element": "C" 
			},
			{
				"x": -1.3154967612,
				"y": 1.1575289772,
				"z": -1.6969764646,
				"element": "O" 
			},
			{
				"x": -1.414839434,
				"y": 2.5564164117,
				"z": -1.3988667155,
				"element": "C" 
			},
			{
				"x": -4.4290921198,
				"y": -0.690617414,
				"z": -0.6566340331,
				"element": "H" 
			},
			{
				"x": -5.07659455,
				"y": 0.9723058801,
				"z": -0.6844354129,
				"element": "H" 
			},
			{
				"x": -3.6995303984,
				"y": 0.5335734491,
				"z": -1.7382413962,
				"element": "H" 
			},
			{
				"x": -2.6097113022,
				"y": -0.8250843048,
				"z": 2.2004937271,
				"element": "H" 
			},
			{
				"x": -0.4165639009,
				"y": -1.9915190356,
				"z": 2.4150233747,
				"element": "H" 
			},
			{
				"x": 2.517424954,
				"y": -1.2953984216,
				"z": 0.2557954061,
				"element": "H" 
			},
			{
				"x": 1.9812370804,
				"y": -2.0658129657,
				"z": 1.7313874893,
				"element": "H" 
			},
			{
				"x": -0.1659059259,
				"y": -3.2331517055,
				"z": -0.5866715088,
				"element": "H" 
			},
			{
				"x": 1.490859044,
				"y": -4.9913280513,
				"z": -1.8360564909,
				"element": "H" 
			},
			{
				"x": 0.8409560708,
				"y": -5.7522435374,
				"z": -0.5659210345,
				"element": "H" 
			},
			{
				"x": 0.8612579598,
				"y": -0.1462457116,
				"z": -1.2641954551,
				"element": "H" 
			},
			{
				"x": -2.2442856046,
				"y": 2.7609324074,
				"z": -0.7151873382,
				"element": "H" 
			},
			{
				"x": -1.5878228467,
				"y": 3.0594129809,
				"z": -2.3522729335,
				"element": "H" 
			},
			{
				"x": -0.4796425142,
				"y": 2.92509176,
				"z": -0.9594238985,
				"element": "H" 
			}
		],
		 "valence_orbital": [ 
			{
				"type": "occ",
				"energy": -0.27202,
				"method": "rhf"
			},
			{
				"type": "occ",
				"energy": -0.25874,
				"method": "rhf"
			},
			{
				"type": "occ",
				"energy": -0.25442,
				"method": "rhf"
			},
			{
				"type": "occ",
				"energy": -0.24679,
				"method": "rhf"
			},
			{
				"type": "occ",
				"energy": -0.22827,
				"method": "rhf"
			},
			{
				"type": "unocc",
				"energy": -0.01135,
				"method": "rhf"
			},
			{
				"type": "unocc",
				"energy": -0.00858,
				"method": "rhf"
			},
			{
				"type": "unocc",
				"energy": 0.03233,
				"method": "rhf"
			},
			{
				"type": "unocc",
				"energy": 0.07897,
				"method": "rhf"
			},
			{
				"type": "unocc",
				"energy": 0.09334,
				"method": "rhf"
			}
		],
		"cosmo_sigma_profile": { 
			"-0.025": 0.0,
			"-0.024": 0.0,
			"-0.023": 0.0,
			"-0.022": 0.0,
			"-0.021": 0.0,
			"-0.02": 0.0,
			"-0.019": 0.0,
			"-0.018": 0.0,
			"-0.017": 0.0,
			"-0.016": 0.0,
			"-0.015": 0.0,
			"-0.014": 0.0,
			"-0.013": 0.0,
			"-0.012": 0.442687688591,
			"-0.011": 2.30312139524,
			"-0.01": 2.70118051272,
			"-0.009": 2.79142765851,
			"-0.008": 3.47521856741,
			"-0.007": 3.46670724212,
			"-0.006": 15.501392306,
			"-0.005": 19.2124391842,
			"-0.004": 22.008413059,
			"-0.003": 28.469625794,
			"-0.002": 26.0877768142,
			"-0.001": 19.5438570898,
			"0.0": 17.7360718743,
			"0.001": 14.586515133,
			"0.002": 12.5641741802,
			"0.003": 12.726917627,
			"0.004": 9.07459817649,
			"0.005": 7.2663756982,
			"0.006": 4.2099034747,
			"0.007": 3.37218904246,
			"0.008": 4.6377958962,
			"0.009": 4.28955130067,
			"0.01": 3.40298305895,
			"0.011": 3.3269259879,
			"0.012": 3.75858262715,
			"0.013": 4.0501158634,
			"0.014": 5.82478693715,
			"0.015": 1.9858956292,
			"0.016": 0.466095417266,
			"0.017": 0.327452264187,
			"0.018": 0.0,
			"0.019": 0.0,
			"0.02": 0.0,
			"0.021": 0.0,
			"0.022": 0.0,
			"0.023": 0.0,
			"0.024": 0.0,
			"0.025": 0.0
		}
	}
}
