{
	 "smiles": "NC1=NSC2=C1C=C(C=C2)[N+]([O-])=O", 
	 "Tm": 473.15, 
	 "num_atms": 18, 
	 "gaussian": { 
		 "optdone": 1, 
		 "sigma_profile": "yes", 
		 "theory": "DFT", 
		 "functional": "B3LYP", 
		 "basiset": "6-31G**", 
		 "properties": { 
			 "R2extent": 3685.5152, 
			 "electric_dipole_moment_norm": 2.54049297185, 
			 "electric_quadrupole_moment_norm": 26.2764530645, 
			 "total_energy": -982.547320571, 
			 "HOMO_LUMO_gap": 0.13531, 
			 "cosmo_polarized_energy": -14.27, 
			 "cosmo_cavitation_energy": 25.05, 
			 "cosmo_dispersion_energy": -19.28, 
			 "cosmo_repulsion_energy": 1.46, 
			 "cosmo_total_nonelectrostatic_energy": 7.23, 
			 "SMD_solvation_energy": 4.74 
		},
		"coords": [
			{
				"x": -0.085020198,
				"y": -1.0624401652,
				"z": 2.7564713853,
				"element": "N" 
			},
			{
				"x": 0.2470269617,
				"y": 0.0735788073,
				"z": 2.0466382067,
				"element": "C" 
			},
			{
				"x": 1.3569516728,
				"y": 0.7218559613,
				"z": 2.2959685304,
				"element": "N" 
			},
			{
				"x": 1.4547432737,
				"y": 2.1294922058,
				"z": 1.3438503764,
				"element": "S" 
			},
			{
				"x": -0.0554490234,
				"y": 1.8431541223,
				"z": 0.5284130197,
				"element": "C" 
			},
			{
				"x": -0.6281396975,
				"y": 0.6536572635,
				"z": 1.0366524451,
				"element": "C" 
			},
			{
				"x": -1.8672190102,
				"y": 0.2137715053,
				"z": 0.5623797995,
				"element": "C" 
			},
			{
				"x": -2.4883472547,
				"y": 0.9689254329,
				"z": -0.4218209279,
				"element": "C" 
			},
			{
				"x": -1.9253257565,
				"y": 2.1483006494,
				"z": -0.9419329041,
				"element": "C" 
			},
			{
				"x": -0.7036550036,
				"y": 2.5943904921,
				"z": -0.4652089956,
				"element": "C" 
			},
			{
				"x": -3.7877475629,
				"y": 0.5199096124,
				"z": -0.9361985137,
				"element": "N" 
			},
			{
				"x": -4.3269576549,
				"y": 1.2073708056,
				"z": -1.803371878,
				"element": "O" 
			},
			{
				"x": -4.2595826035,
				"y": -0.5184743045,
				"z": -0.4708383425,
				"element": "O" 
			},
			{
				"x": 0.6759170953,
				"y": -1.4290493252,
				"z": 3.3132991838,
				"element": "H" 
			},
			{
				"x": -0.585791621,
				"y": -1.7762730072,
				"z": 2.2453815321,
				"element": "H" 
			},
			{
				"x": -2.3569345119,
				"y": -0.6767051883,
				"z": 0.9380417096,
				"element": "H" 
			},
			{
				"x": -2.4652140752,
				"y": 2.6898377903,
				"z": -1.7083344265,
				"element": "H" 
			},
			{
				"x": -0.2634550301,
				"y": 3.5060973423,
				"z": -0.8550902004,
				"element": "H" 
			}
		],
		 "valence_orbital": [ 
			{
				"type": "occ",
				"energy": -0.30408,
				"method": "rhf"
			},
			{
				"type": "occ",
				"energy": -0.29422,
				"method": "rhf"
			},
			{
				"type": "occ",
				"energy": -0.29163,
				"method": "rhf"
			},
			{
				"type": "occ",
				"energy": -0.27952,
				"method": "rhf"
			},
			{
				"type": "occ",
				"energy": -0.22891,
				"method": "rhf"
			},
			{
				"type": "unocc",
				"energy": -0.0936,
				"method": "rhf"
			},
			{
				"type": "unocc",
				"energy": -0.0591,
				"method": "rhf"
			},
			{
				"type": "unocc",
				"energy": -0.00943,
				"method": "rhf"
			},
			{
				"type": "unocc",
				"energy": -0.00619,
				"method": "rhf"
			},
			{
				"type": "unocc",
				"energy": 0.03923,
				"method": "rhf"
			}
		],
		"cosmo_sigma_profile": { 
			"-0.025": 0.0,
			"-0.024": 0.0,
			"-0.023": 0.0,
			"-0.022": 0.0,
			"-0.021": 0.0,
			"-0.02": 0.0,
			"-0.019": 0.0,
			"-0.018": 0.0,
			"-0.017": 0.0,
			"-0.016": 0.0,
			"-0.015": 0.00667330756051,
			"-0.014": 1.71669784688,
			"-0.013": 3.40811636983,
			"-0.012": 2.74178710668,
			"-0.011": 3.09175482682,
			"-0.01": 2.78112007368,
			"-0.009": 4.4966323686,
			"-0.008": 5.99248613902,
			"-0.007": 6.44662040973,
			"-0.006": 7.4556177857,
			"-0.005": 6.72699862694,
			"-0.004": 7.97714212323,
			"-0.003": 8.4614873467,
			"-0.002": 13.7464026156,
			"-0.001": 16.6124301802,
			"0.0": 23.1397769816,
			"0.001": 15.4827992331,
			"0.002": 8.24744716075,
			"0.003": 9.56248752594,
			"0.004": 8.94152722556,
			"0.005": 6.07010516131,
			"0.006": 5.13022545274,
			"0.007": 10.6862389004,
			"0.008": 8.35346323729,
			"0.009": 6.86661966185,
			"0.01": 4.60207730424,
			"0.011": 1.83574943117,
			"0.012": 0.884984453346,
			"0.013": 1.47875469649,
			"0.014": 0.738895478528,
			"0.015": 0.320261443472,
			"0.016": 0.0,
			"0.017": 0.0,
			"0.018": 0.0,
			"0.019": 0.0,
			"0.02": 0.0,
			"0.021": 0.0,
			"0.022": 0.0,
			"0.023": 0.0,
			"0.024": 0.0,
			"0.025": 0.0
		}
	}
}
