{
	 "smiles": "COC(=O)C1=C(N)C(OC)=CC(F)=C1", 
	 "Tm": 340.15, 
	 "num_atms": 24, 
	 "gaussian": { 
		 "optdone": 1, 
		 "sigma_profile": "yes", 
		 "theory": "DFT", 
		 "functional": "B3LYP", 
		 "basiset": "6-31G**", 
		 "properties": { 
			 "R2extent": 3418.3219, 
			 "electric_dipole_moment_norm": 4.15002207705, 
			 "electric_quadrupole_moment_norm": 11.7813051785, 
			 "total_energy": -729.239747396, 
			 "HOMO_LUMO_gap": 0.15926, 
			 "cosmo_polarized_energy": -10.47, 
			 "cosmo_cavitation_energy": 28.64, 
			 "cosmo_dispersion_energy": -20.74, 
			 "cosmo_repulsion_energy": 1.61, 
			 "cosmo_total_nonelectrostatic_energy": 9.51, 
			 "SMD_solvation_energy": 7.56 
		},
		"coords": [
			{
				"x": 4.0530524133,
				"y": 0.6820395791,
				"z": -0.7213449037,
				"element": "C" 
			},
			{
				"x": 2.6220854292,
				"y": 0.6058876495,
				"z": -0.8380417446,
				"element": "O" 
			},
			{
				"x": 2.0980269259,
				"y": -0.6467713245,
				"z": -0.6982387619,
				"element": "C" 
			},
			{
				"x": 2.8092220869,
				"y": -1.6121452749,
				"z": -0.49625361,
				"element": "O" 
			},
			{
				"x": 0.6203588822,
				"y": -0.7022912575,
				"z": -0.8275905699,
				"element": "C" 
			},
			{
				"x": -0.2313548151,
				"y": 0.418118481,
				"z": -1.0106523019,
				"element": "C" 
			},
			{
				"x": 0.1727129485,
				"y": 1.7345554317,
				"z": -1.0353200825,
				"element": "N" 
			},
			{
				"x": -1.6243310757,
				"y": 0.1670117674,
				"z": -1.1409466352,
				"element": "C" 
			},
			{
				"x": -2.4470896251,
				"y": 1.2568475368,
				"z": -1.3636080799,
				"element": "O" 
			},
			{
				"x": -3.0837969812,
				"y": 1.7609833227,
				"z": -0.1834281218,
				"element": "C" 
			},
			{
				"x": -2.1500391252,
				"y": -1.1126704803,
				"z": -1.0929131124,
				"element": "C" 
			},
			{
				"x": -1.2840475387,
				"y": -2.190024432,
				"z": -0.8983948458,
				"element": "C" 
			},
			{
				"x": -1.8009412884,
				"y": -3.4392539475,
				"z": -0.8485044926,
				"element": "F" 
			},
			{
				"x": 0.0726874156,
				"y": -2.0012333798,
				"z": -0.7646995229,
				"element": "C" 
			},
			{
				"x": 4.5340397738,
				"y": 0.0786171837,
				"z": -1.4946500083,
				"element": "H" 
			},
			{
				"x": 4.3768865483,
				"y": 0.3228002423,
				"z": 0.2580030558,
				"element": "H" 
			},
			{
				"x": 4.3023644241,
				"y": 1.7359826951,
				"z": -0.8455503078,
				"element": "H" 
			},
			{
				"x": 1.1540377351,
				"y": 1.9007360119,
				"z": -1.1946532617,
				"element": "H" 
			},
			{
				"x": -0.4824075569,
				"y": 2.3568679326,
				"z": -1.4864928942,
				"element": "H" 
			},
			{
				"x": -3.7386149866,
				"y": 1.004351691,
				"z": 0.2653148131,
				"element": "H" 
			},
			{
				"x": -2.3442780313,
				"y": 2.0822191931,
				"z": 0.5599208338,
				"element": "H" 
			},
			{
				"x": -3.6843945216,
				"y": 2.617564603,
				"z": -0.4965847317,
				"element": "H" 
			},
			{
				"x": -3.2157942744,
				"y": -1.2725346552,
				"z": -1.2140792407,
				"element": "H" 
			},
			{
				"x": 0.7398152375,
				"y": -2.8420585692,
				"z": -0.6202914732,
				"element": "H" 
			}
		],
		 "valence_orbital": [ 
			{
				"type": "occ",
				"energy": -0.30173,
				"method": "rhf"
			},
			{
				"type": "occ",
				"energy": -0.28899,
				"method": "rhf"
			},
			{
				"type": "occ",
				"energy": -0.27441,
				"method": "rhf"
			},
			{
				"type": "occ",
				"energy": -0.25424,
				"method": "rhf"
			},
			{
				"type": "occ",
				"energy": -0.20274,
				"method": "rhf"
			},
			{
				"type": "unocc",
				"energy": -0.04348,
				"method": "rhf"
			},
			{
				"type": "unocc",
				"energy": 0.01351,
				"method": "rhf"
			},
			{
				"type": "unocc",
				"energy": 0.05987,
				"method": "rhf"
			},
			{
				"type": "unocc",
				"energy": 0.08383,
				"method": "rhf"
			},
			{
				"type": "unocc",
				"energy": 0.09729,
				"method": "rhf"
			}
		],
		"cosmo_sigma_profile": { 
			"-0.025": 0.0,
			"-0.024": 0.0,
			"-0.023": 0.0,
			"-0.022": 0.0,
			"-0.021": 0.0,
			"-0.02": 0.0,
			"-0.019": 0.0,
			"-0.018": 0.0,
			"-0.017": 0.0,
			"-0.016": 0.0,
			"-0.015": 0.0,
			"-0.014": 0.0,
			"-0.013": 0.0,
			"-0.012": 0.124985474443,
			"-0.011": 0.673487732231,
			"-0.01": 1.15466601346,
			"-0.009": 1.9596975262,
			"-0.008": 3.02248018914,
			"-0.007": 4.06784035932,
			"-0.006": 10.238418435,
			"-0.005": 16.3794007379,
			"-0.004": 20.7724750072,
			"-0.003": 22.5907936326,
			"-0.002": 18.1628249222,
			"-0.001": 13.9694868849,
			"0.0": 13.5544413167,
			"0.001": 18.9016215237,
			"0.002": 20.3133148522,
			"0.003": 14.5747696429,
			"0.004": 11.9957504791,
			"0.005": 10.9606651159,
			"0.006": 3.31332332687,
			"0.007": 2.45635420492,
			"0.008": 3.0452958106,
			"0.009": 3.80006639345,
			"0.01": 2.72704644649,
			"0.011": 4.38144689432,
			"0.012": 4.59818571226,
			"0.013": 0.202617844854,
			"0.014": 0.0,
			"0.015": 0.0,
			"0.016": 0.0,
			"0.017": 0.0,
			"0.018": 0.0,
			"0.019": 0.0,
			"0.02": 0.0,
			"0.021": 0.0,
			"0.022": 0.0,
			"0.023": 0.0,
			"0.024": 0.0,
			"0.025": 0.0
		}
	}
}
