{
	 "smiles": "OC1=CC=C(C2=C1C=CC=C2)C(O)(C1=CC=CC=C1)C1=CC=C(O)C2=C1C=CC=C2", 
	 "Tm": 505.65, 
	 "num_atms": 50, 
	 "gaussian": { 
		 "optdone": 1, 
		 "sigma_profile": "yes", 
		 "theory": "DFT", 
		 "functional": "B3LYP", 
		 "basiset": "6-31G**", 
		 "properties": { 
			 "R2extent": 11523.1186, 
			 "electric_dipole_moment_norm": 1.8230379837, 
			 "electric_quadrupole_moment_norm": 20.4525510162, 
			 "total_energy": -1266.59209308, 
			 "HOMO_LUMO_gap": 0.16266, 
			 "cosmo_polarized_energy": -20.4, 
			 "cosmo_cavitation_energy": 50.49, 
			 "cosmo_dispersion_energy": -34.8, 
			 "cosmo_repulsion_energy": 2.59, 
			 "cosmo_total_nonelectrostatic_energy": 18.27, 
			 "SMD_solvation_energy": 8.72 
		},
		"coords": [
			{
				"x": 2.2596232539,
				"y": -3.8666206719,
				"z": 4.0347275178,
				"element": "O" 
			},
			{
				"x": 1.6579085337,
				"y": -2.8811043225,
				"z": 3.3044848464,
				"element": "C" 
			},
			{
				"x": 2.3267505087,
				"y": -2.1270143839,
				"z": 2.3703030131,
				"element": "C" 
			},
			{
				"x": 1.6417048388,
				"y": -1.1269398769,
				"z": 1.6488704947,
				"element": "C" 
			},
			{
				"x": 0.2979941759,
				"y": -0.8592543887,
				"z": 1.8239015242,
				"element": "C" 
			},
			{
				"x": -0.4202000798,
				"y": -1.6272979287,
				"z": 2.8185346496,
				"element": "C" 
			},
			{
				"x": 0.2712204665,
				"y": -2.6515423637,
				"z": 3.5542526567,
				"element": "C" 
			},
			{
				"x": -0.4133939148,
				"y": -3.4288306366,
				"z": 4.5250634172,
				"element": "C" 
			},
			{
				"x": -1.7485659163,
				"y": -3.2197853725,
				"z": 4.7807446016,
				"element": "C" 
			},
			{
				"x": -2.4421400964,
				"y": -2.2154223497,
				"z": 4.0716600696,
				"element": "C" 
			},
			{
				"x": -1.8007964205,
				"y": -1.4449890882,
				"z": 3.1265001214,
				"element": "C" 
			},
			{
				"x": -0.3779220804,
				"y": 0.2586462147,
				"z": 0.9987749859,
				"element": "C" 
			},
			{
				"x": -1.0532711746,
				"y": 1.0744704142,
				"z": 1.9855205464,
				"element": "O" 
			},
			{
				"x": -1.4647248963,
				"y": -0.2402305614,
				"z": 0.0097540325,
				"element": "C" 
			},
			{
				"x": -2.1334269365,
				"y": 0.715253415,
				"z": -0.7731281887,
				"element": "C" 
			},
			{
				"x": -3.1612407926,
				"y": 0.3486242269,
				"z": -1.6404965712,
				"element": "C" 
			},
			{
				"x": -3.5355343783,
				"y": -0.9916276529,
				"z": -1.7545945339,
				"element": "C" 
			},
			{
				"x": -2.8688957295,
				"y": -1.9529878792,
				"z": -0.9960153613,
				"element": "C" 
			},
			{
				"x": -1.8448648533,
				"y": -1.5811128978,
				"z": -0.1211122238,
				"element": "C" 
			},
			{
				"x": 0.6485059392,
				"y": 1.1615242305,
				"z": 0.2498481221,
				"element": "C" 
			},
			{
				"x": 0.9512357804,
				"y": 2.3848844542,
				"z": 0.8155649616,
				"element": "C" 
			},
			{
				"x": 1.8247775302,
				"y": 3.3130291162,
				"z": 0.2098449075,
				"element": "C" 
			},
			{
				"x": 2.4157579674,
				"y": 3.0165391079,
				"z": -0.9959756861,
				"element": "C" 
			},
			{
				"x": 3.2575815538,
				"y": 3.8748861612,
				"z": -1.6455596585,
				"element": "O" 
			},
			{
				"x": 2.1725665327,
				"y": 1.7580308423,
				"z": -1.624938254,
				"element": "C" 
			},
			{
				"x": 1.2913740976,
				"y": 0.8126561863,
				"z": -0.9939361416,
				"element": "C" 
			},
			{
				"x": 1.1345556363,
				"y": -0.4461193934,
				"z": -1.6425514989,
				"element": "C" 
			},
			{
				"x": 1.7714594254,
				"y": -0.7370623221,
				"z": -2.8293607452,
				"element": "C" 
			},
			{
				"x": 2.6113566694,
				"y": 0.2130734936,
				"z": -3.4495849247,
				"element": "C" 
			},
			{
				"x": 2.8089059579,
				"y": 1.4368288906,
				"z": -2.852195178,
				"element": "C" 
			},
			{
				"x": 3.1895097835,
				"y": -3.9189023195,
				"z": 3.7787501828,
				"element": "H" 
			},
			{
				"x": 3.3858599132,
				"y": -2.2919119739,
				"z": 2.1842565415,
				"element": "H" 
			},
			{
				"x": 2.2136095782,
				"y": -0.5513084771,
				"z": 0.9337349419,
				"element": "H" 
			},
			{
				"x": 0.1426162428,
				"y": -4.1906580151,
				"z": 5.0592360197,
				"element": "H" 
			},
			{
				"x": -2.2648903313,
				"y": -3.8192340607,
				"z": 5.5250064876,
				"element": "H" 
			},
			{
				"x": -3.4951699798,
				"y": -2.0410802793,
				"z": 4.2752862704,
				"element": "H" 
			},
			{
				"x": -2.3472301888,
				"y": -0.6661844763,
				"z": 2.6172205862,
				"element": "H" 
			},
			{
				"x": -1.660620363,
				"y": 1.6567404212,
				"z": 1.5077924868,
				"element": "H" 
			},
			{
				"x": -1.8270943905,
				"y": 1.7580788554,
				"z": -0.7275720221,
				"element": "H" 
			},
			{
				"x": -3.659834996,
				"y": 1.1083003528,
				"z": -2.2359733396,
				"element": "H" 
			},
			{
				"x": -4.3321971695,
				"y": -1.2826363863,
				"z": -2.4330944814,
				"element": "H" 
			},
			{
				"x": -3.1443874117,
				"y": -3.0005804845,
				"z": -1.0797599892,
				"element": "H" 
			},
			{
				"x": -1.3382293215,
				"y": -2.3438900307,
				"z": 0.4581058413,
				"element": "H" 
			},
			{
				"x": 0.4961626144,
				"y": 2.6409500282,
				"z": 1.7643122074,
				"element": "H" 
			},
			{
				"x": 2.0218083639,
				"y": 4.2646903237,
				"z": 0.6993354267,
				"element": "H" 
			},
			{
				"x": 3.3488562827,
				"y": 4.679304399,
				"z": -1.1187513136,
				"element": "H" 
			},
			{
				"x": 0.5050486615,
				"y": -1.1992723769,
				"z": -1.1901852241,
				"element": "H" 
			},
			{
				"x": 1.6245959025,
				"y": -1.7102570914,
				"z": -3.2894286737,
				"element": "H" 
			},
			{
				"x": 3.1045693761,
				"y": -0.0247565264,
				"z": -4.3875696349,
				"element": "H" 
			},
			{
				"x": 3.4611158347,
				"y": 2.1762034544,
				"z": -3.3027038163,
				"element": "H" 
			}
		],
		 "valence_orbital": [ 
			{
				"type": "occ",
				"energy": -0.24266,
				"method": "rhf"
			},
			{
				"type": "occ",
				"energy": -0.23891,
				"method": "rhf"
			},
			{
				"type": "occ",
				"energy": -0.23513,
				"method": "rhf"
			},
			{
				"type": "occ",
				"energy": -0.20128,
				"method": "rhf"
			},
			{
				"type": "occ",
				"energy": -0.19365,
				"method": "rhf"
			},
			{
				"type": "unocc",
				"energy": -0.03099,
				"method": "rhf"
			},
			{
				"type": "unocc",
				"energy": -0.0261,
				"method": "rhf"
			},
			{
				"type": "unocc",
				"energy": -0.01061,
				"method": "rhf"
			},
			{
				"type": "unocc",
				"energy": -0.00683,
				"method": "rhf"
			},
			{
				"type": "unocc",
				"energy": -0.00059,
				"method": "rhf"
			}
		],
		"cosmo_sigma_profile": { 
			"-0.025": 0.0,
			"-0.024": 0.0,
			"-0.023": 0.0,
			"-0.022": 0.0,
			"-0.021": 0.0,
			"-0.02": 0.0,
			"-0.019": 0.0310987281842,
			"-0.018": 1.10616436607,
			"-0.017": 2.09840029851,
			"-0.016": 2.43975769344,
			"-0.015": 1.54586823549,
			"-0.014": 2.42377355975,
			"-0.013": 3.05315612611,
			"-0.012": 2.09496176018,
			"-0.011": 2.61213692049,
			"-0.01": 2.84736861322,
			"-0.009": 3.90877947007,
			"-0.008": 3.08494003268,
			"-0.007": 4.11360274024,
			"-0.006": 12.5692057498,
			"-0.005": 23.1963011688,
			"-0.004": 30.3457865249,
			"-0.003": 28.547225461,
			"-0.002": 25.7499694908,
			"-0.001": 25.3399973028,
			"0.0": 19.7483953397,
			"0.001": 20.6976489559,
			"0.002": 27.5252964792,
			"0.003": 41.1366818959,
			"0.004": 43.1328928651,
			"0.005": 38.8735724904,
			"0.006": 15.954968647,
			"0.007": 4.74206601369,
			"0.008": 5.31226890261,
			"0.009": 4.8330679814,
			"0.01": 2.39345086951,
			"0.011": 0.891338920972,
			"0.012": 1.09233122215,
			"0.013": 0.707520280238,
			"0.014": 0.0291975219236,
			"0.015": 0.0,
			"0.016": 0.0,
			"0.017": 0.0,
			"0.018": 0.0,
			"0.019": 0.0,
			"0.02": 0.0,
			"0.021": 0.0,
			"0.022": 0.0,
			"0.023": 0.0,
			"0.024": 0.0,
			"0.025": 0.0
		}
	}
}
