{
	 "smiles": "COC1=CC=C(C=C1)C1=NN=C2SC(NN12)C1=CC=CC=C1", 
	 "Tm": 407.15, 
	 "num_atms": 36, 
	 "gaussian": { 
		 "optdone": 1, 
		 "sigma_profile": "yes", 
		 "theory": "DFT", 
		 "functional": "B3LYP", 
		 "basiset": "6-31G**", 
		 "properties": { 
			 "R2extent": 10485.7168, 
			 "electric_dipole_moment_norm": 8.4459875065, 
			 "electric_quadrupole_moment_norm": 13.9885082589, 
			 "total_energy": -1310.47879745, 
			 "HOMO_LUMO_gap": 0.15962, 
			 "cosmo_polarized_energy": -21.67, 
			 "cosmo_cavitation_energy": 41.87, 
			 "cosmo_dispersion_energy": -30.79, 
			 "cosmo_repulsion_energy": 2.27, 
			 "cosmo_total_nonelectrostatic_energy": 13.35, 
			 "SMD_solvation_energy": 4.62 
		},
		"coords": [
			{
				"x": 6.1699227861,
				"y": 0.5135854714,
				"z": -0.2067481932,
				"element": "C" 
			},
			{
				"x": 5.4587748773,
				"y": -0.6083421136,
				"z": 0.2924660275,
				"element": "O" 
			},
			{
				"x": 4.1009746149,
				"y": -0.530169406,
				"z": 0.3737611906,
				"element": "C" 
			},
			{
				"x": 3.3414635296,
				"y": 0.58211132,
				"z": -0.0060277937,
				"element": "C" 
			},
			{
				"x": 1.9508890445,
				"y": 0.5491845738,
				"z": 0.1191569731,
				"element": "C" 
			},
			{
				"x": 1.2983554862,
				"y": -0.5839962248,
				"z": 0.6205694797,
				"element": "C" 
			},
			{
				"x": 2.0762203458,
				"y": -1.6965710624,
				"z": 1.0017238125,
				"element": "C" 
			},
			{
				"x": 3.4542372624,
				"y": -1.6705777513,
				"z": 0.8808007014,
				"element": "C" 
			},
			{
				"x": -0.1533487639,
				"y": -0.6629108506,
				"z": 0.7788160273,
				"element": "C" 
			},
			{
				"x": -0.804644049,
				"y": -1.6529336024,
				"z": 1.3678796484,
				"element": "N" 
			},
			{
				"x": -2.168760845,
				"y": -1.3873933353,
				"z": 1.3516982138,
				"element": "N" 
			},
			{
				"x": -2.307745737,
				"y": -0.2479556581,
				"z": 0.7302895818,
				"element": "C" 
			},
			{
				"x": -3.6330365834,
				"y": 0.8173184885,
				"z": 0.2709045852,
				"element": "S" 
			},
			{
				"x": -2.2975556726,
				"y": 2.1659071154,
				"z": 0.0037167125,
				"element": "C" 
			},
			{
				"x": -1.0638340128,
				"y": 1.4652077331,
				"z": -0.3739229503,
				"element": "N" 
			},
			{
				"x": -1.0882630147,
				"y": 0.2577516705,
				"z": 0.351744621,
				"element": "N" 
			},
			{
				"x": -2.6884541137,
				"y": 3.2149172422,
				"z": -1.0017731075,
				"element": "C" 
			},
			{
				"x": -3.1607826027,
				"y": 2.8670695303,
				"z": -2.2757226082,
				"element": "C" 
			},
			{
				"x": -3.4700463533,
				"y": 3.8585598703,
				"z": -3.2060289774,
				"element": "C" 
			},
			{
				"x": -3.3174483677,
				"y": 5.2061389327,
				"z": -2.8718668647,
				"element": "C" 
			},
			{
				"x": -2.8546858276,
				"y": 5.5597336404,
				"z": -1.6035065991,
				"element": "C" 
			},
			{
				"x": -2.5411362943,
				"y": 4.5682461216,
				"z": -0.673469746,
				"element": "C" 
			},
			{
				"x": 7.2248381972,
				"y": 0.2363712255,
				"z": -0.1834446347,
				"element": "H" 
			},
			{
				"x": 6.0163180945,
				"y": 1.4016714316,
				"z": 0.4196647036,
				"element": "H" 
			},
			{
				"x": 5.881566177,
				"y": 0.7490291926,
				"z": -1.2393341994,
				"element": "H" 
			},
			{
				"x": 3.8150492613,
				"y": 1.4753622142,
				"z": -0.3954692281,
				"element": "H" 
			},
			{
				"x": 1.3746238834,
				"y": 1.4220520154,
				"z": -0.1684054617,
				"element": "H" 
			},
			{
				"x": 1.5726955773,
				"y": -2.5731359284,
				"z": 1.3942784371,
				"element": "H" 
			},
			{
				"x": 4.0601789105,
				"y": -2.5225995933,
				"z": 1.1708839896,
				"element": "H" 
			},
			{
				"x": -2.1397032091,
				"y": 2.6063475243,
				"z": 0.9901723065,
				"element": "H" 
			},
			{
				"x": -1.104953248,
				"y": 1.2291711329,
				"z": -1.3691460214,
				"element": "H" 
			},
			{
				"x": -3.3087720681,
				"y": 1.8210007775,
				"z": -2.5290854156,
				"element": "H" 
			},
			{
				"x": -3.8391080714,
				"y": 3.5789390889,
				"z": -4.1882271363,
				"element": "H" 
			},
			{
				"x": -3.5641312632,
				"y": 5.9771551914,
				"z": -3.5957955182,
				"element": "H" 
			},
			{
				"x": -2.7385526882,
				"y": 6.6058395937,
				"z": -1.3366214277,
				"element": "H" 
			},
			{
				"x": -2.1771452623,
				"y": 4.8446144278,
				"z": 0.3123688716,
				"element": "H" 
			}
		],
		 "valence_orbital": [ 
			{
				"type": "occ",
				"energy": -0.26734,
				"method": "rhf"
			},
			{
				"type": "occ",
				"energy": -0.25519,
				"method": "rhf"
			},
			{
				"type": "occ",
				"energy": -0.24725,
				"method": "rhf"
			},
			{
				"type": "occ",
				"energy": -0.24204,
				"method": "rhf"
			},
			{
				"type": "occ",
				"energy": -0.20295,
				"method": "rhf"
			},
			{
				"type": "unocc",
				"energy": -0.04333,
				"method": "rhf"
			},
			{
				"type": "unocc",
				"energy": -0.02779,
				"method": "rhf"
			},
			{
				"type": "unocc",
				"energy": -0.02196,
				"method": "rhf"
			},
			{
				"type": "unocc",
				"energy": -0.00428,
				"method": "rhf"
			},
			{
				"type": "unocc",
				"energy": -0.00169,
				"method": "rhf"
			}
		],
		"cosmo_sigma_profile": { 
			"-0.025": 0.0,
			"-0.024": 0.0,
			"-0.023": 0.0,
			"-0.022": 0.0,
			"-0.021": 0.0,
			"-0.02": 0.0,
			"-0.019": 0.0,
			"-0.018": 0.0,
			"-0.017": 0.0,
			"-0.016": 0.0,
			"-0.015": 0.198805491166,
			"-0.014": 1.27395896467,
			"-0.013": 1.22452938065,
			"-0.012": 1.67290422403,
			"-0.011": 1.58789617109,
			"-0.01": 1.44118900347,
			"-0.009": 2.38607761611,
			"-0.008": 5.35589189113,
			"-0.007": 8.02564683189,
			"-0.006": 21.8942146688,
			"-0.005": 27.1363659191,
			"-0.004": 26.8124032714,
			"-0.003": 24.8031266461,
			"-0.002": 19.4709249524,
			"-0.001": 19.3292755352,
			"0.0": 19.8569263858,
			"0.001": 23.597563634,
			"0.002": 25.5122853135,
			"0.003": 27.8325294622,
			"0.004": 29.1418698902,
			"0.005": 13.7805079733,
			"0.006": 5.82149540035,
			"0.007": 4.340743048,
			"0.008": 2.59746829876,
			"0.009": 2.82633532698,
			"0.01": 3.88390598207,
			"0.011": 2.51893535208,
			"0.012": 2.88771238805,
			"0.013": 2.79944512783,
			"0.014": 3.52404035975,
			"0.015": 2.79642301679,
			"0.016": 1.54185986488,
			"0.017": 0.273921327158,
			"0.018": 0.0,
			"0.019": 0.0,
			"0.02": 0.0,
			"0.021": 0.0,
			"0.022": 0.0,
			"0.023": 0.0,
			"0.024": 0.0,
			"0.025": 0.0
		}
	}
}
