{
	 "smiles": "OC(=O)C1=C2C(ON=C2C2=CC=CO2)=NC(=C1)C1CC1", 
	 "Tm": 485.15, 
	 "num_atms": 30, 
	 "gaussian": { 
		 "optdone": 1, 
		 "sigma_profile": "yes", 
		 "theory": "DFT", 
		 "functional": "B3LYP", 
		 "basiset": "6-31G**", 
		 "properties": { 
			 "R2extent": 6033.9853, 
			 "electric_dipole_moment_norm": 4.39104267686, 
			 "electric_quadrupole_moment_norm": 14.9600141457, 
			 "total_energy": -949.827800184, 
			 "HOMO_LUMO_gap": 0.13999, 
			 "cosmo_polarized_energy": -15.84, 
			 "cosmo_cavitation_energy": 35.83, 
			 "cosmo_dispersion_energy": -25.7, 
			 "cosmo_repulsion_energy": 1.96, 
			 "cosmo_total_nonelectrostatic_energy": 12.09, 
			 "SMD_solvation_energy": 6.35 
		},
		"coords": [
			{
				"x": 1.2525211687,
				"y": 3.0709647611,
				"z": 0.3763942018,
				"element": "O" 
			},
			{
				"x": 0.4749391286,
				"y": 2.1517557481,
				"z": 0.99625723,
				"element": "C" 
			},
			{
				"x": -0.2818005463,
				"y": 2.4302763078,
				"z": 1.8990819929,
				"element": "O" 
			},
			{
				"x": 0.7120644126,
				"y": 0.7687497277,
				"z": 0.4826690124,
				"element": "C" 
			},
			{
				"x": -0.2713834051,
				"y": -0.2398729119,
				"z": 0.518309239,
				"element": "C" 
			},
			{
				"x": 0.1618770776,
				"y": -1.5352994409,
				"z": 0.1919575289,
				"element": "C" 
			},
			{
				"x": -0.8597571517,
				"y": -2.4106633111,
				"z": 0.3181088058,
				"element": "O" 
			},
			{
				"x": -2.0098143512,
				"y": -1.6955321015,
				"z": 0.6822769695,
				"element": "N" 
			},
			{
				"x": -1.6735950134,
				"y": -0.4264984651,
				"z": 0.8062467511,
				"element": "C" 
			},
			{
				"x": -2.7150658756,
				"y": 0.5241302485,
				"z": 1.1598501442,
				"element": "C" 
			},
			{
				"x": -3.8254199073,
				"y": 0.4164716833,
				"z": 1.9512944085,
				"element": "C" 
			},
			{
				"x": -4.509149574,
				"y": 1.667381705,
				"z": 1.8536828198,
				"element": "C" 
			},
			{
				"x": -3.7697173655,
				"y": 2.4379195892,
				"z": 1.0064497283,
				"element": "C" 
			},
			{
				"x": -2.6773900689,
				"y": 1.7568643793,
				"z": 0.5689889185,
				"element": "O" 
			},
			{
				"x": 1.366386621,
				"y": -1.9298514198,
				"z": -0.182385823,
				"element": "N" 
			},
			{
				"x": 2.2826727565,
				"y": -0.9532868729,
				"z": -0.2645858962,
				"element": "C" 
			},
			{
				"x": 1.9854694993,
				"y": 0.3924393765,
				"z": 0.0617903089,
				"element": "C" 
			},
			{
				"x": 3.6486186516,
				"y": -1.3302878997,
				"z": -0.6996687887,
				"element": "C" 
			},
			{
				"x": 3.8305573792,
				"y": -2.4404482308,
				"z": -1.7248248108,
				"element": "C" 
			},
			{
				"x": 4.2171835157,
				"y": -2.685365712,
				"z": -0.303009467,
				"element": "C" 
			},
			{
				"x": 1.0702493127,
				"y": 3.9169268919,
				"z": 0.8190118499,
				"element": "H" 
			},
			{
				"x": -4.1043730886,
				"y": -0.4492253946,
				"z": 2.5331089444,
				"element": "H" 
			},
			{
				"x": -5.4239414273,
				"y": 1.9542242219,
				"z": 2.351547874,
				"element": "H" 
			},
			{
				"x": -3.8762000361,
				"y": 3.4438619595,
				"z": 0.6316311045,
				"element": "H" 
			},
			{
				"x": 2.7702543186,
				"y": 1.1373200142,
				"z": 0.0110625857,
				"element": "H" 
			},
			{
				"x": 4.3497001896,
				"y": -0.5025566917,
				"z": -0.7481774419,
				"element": "H" 
			},
			{
				"x": 4.6105426136,
				"y": -2.3048943947,
				"z": -2.4676504436,
				"element": "H" 
			},
			{
				"x": 2.920457644,
				"y": -2.9098545717,
				"z": -2.0836215077,
				"element": "H" 
			},
			{
				"x": 5.2702576232,
				"y": -2.722770053,
				"z": -0.0418848047,
				"element": "H" 
			},
			{
				"x": 3.5657558987,
				"y": -3.3183791426,
				"z": 0.2904885654,
				"element": "H" 
			}
		],
		 "valence_orbital": [ 
			{
				"type": "occ",
				"energy": -0.28513,
				"method": "rhf"
			},
			{
				"type": "occ",
				"energy": -0.28164,
				"method": "rhf"
			},
			{
				"type": "occ",
				"energy": -0.27719,
				"method": "rhf"
			},
			{
				"type": "occ",
				"energy": -0.25094,
				"method": "rhf"
			},
			{
				"type": "occ",
				"energy": -0.22237,
				"method": "rhf"
			},
			{
				"type": "unocc",
				"energy": -0.08238,
				"method": "rhf"
			},
			{
				"type": "unocc",
				"energy": -0.02722,
				"method": "rhf"
			},
			{
				"type": "unocc",
				"energy": -0.01016,
				"method": "rhf"
			},
			{
				"type": "unocc",
				"energy": 0.02808,
				"method": "rhf"
			},
			{
				"type": "unocc",
				"energy": 0.04082,
				"method": "rhf"
			}
		],
		"cosmo_sigma_profile": { 
			"-0.025": 0.0,
			"-0.024": 0.0,
			"-0.023": 0.0,
			"-0.022": 0.0,
			"-0.021": 0.0,
			"-0.02": 0.0,
			"-0.019": 0.529989426082,
			"-0.018": 1.0180499003,
			"-0.017": 0.517861193935,
			"-0.016": 1.32609708886,
			"-0.015": 0.707138733213,
			"-0.014": 0.231423393239,
			"-0.013": 0.823670462757,
			"-0.012": 1.41361873644,
			"-0.011": 0.549843876763,
			"-0.01": 0.714050683659,
			"-0.009": 2.41748087056,
			"-0.008": 6.29604346268,
			"-0.007": 8.35459042792,
			"-0.006": 9.8786384269,
			"-0.005": 14.2115749821,
			"-0.004": 18.7624449624,
			"-0.003": 22.1187048901,
			"-0.002": 22.6989324152,
			"-0.001": 24.5791887803,
			"0.0": 22.4006180523,
			"0.001": 20.4901327889,
			"0.002": 19.9324410832,
			"0.003": 17.300786212,
			"0.004": 15.9588330692,
			"0.005": 11.516318675,
			"0.006": 10.2071263952,
			"0.007": 10.9383304648,
			"0.008": 6.77754984255,
			"0.009": 4.44646022851,
			"0.01": 5.05291991715,
			"0.011": 4.53233896049,
			"0.012": 0.939329367606,
			"0.013": 0.652277046743,
			"0.014": 0.0,
			"0.015": 0.0,
			"0.016": 0.0,
			"0.017": 0.0,
			"0.018": 0.0,
			"0.019": 0.0,
			"0.02": 0.0,
			"0.021": 0.0,
			"0.022": 0.0,
			"0.023": 0.0,
			"0.024": 0.0,
			"0.025": 0.0
		}
	}
}
