{
	 "smiles": "CC(C)NS(=O)(=O)C1=CC(CN)=CC=C1", 
	 "Tm": 372.15, 
	 "num_atms": 31, 
	 "gaussian": { 
		 "optdone": 1, 
		 "sigma_profile": "yes", 
		 "theory": "DFT", 
		 "functional": "B3LYP", 
		 "basiset": "6-31G**", 
		 "properties": { 
			 "R2extent": 5165.0672, 
			 "electric_dipole_moment_norm": 4.02655442531, 
			 "electric_quadrupole_moment_norm": 24.9387861611, 
			 "total_energy": -1048.7824308, 
			 "HOMO_LUMO_gap": 0.20255, 
			 "cosmo_polarized_energy": -17.25, 
			 "cosmo_cavitation_energy": 35.02, 
			 "cosmo_dispersion_energy": -24.36, 
			 "cosmo_repulsion_energy": 1.91, 
			 "cosmo_total_nonelectrostatic_energy": 12.57, 
			 "SMD_solvation_energy": 3.36 
		},
		"coords": [
			{
				"x": 0.9490899698,
				"y": 0.8627011157,
				"z": -0.919372062,
				"element": "C" 
			},
			{
				"x": -0.0854355089,
				"y": 1.6261296837,
				"z": -1.7486552816,
				"element": "C" 
			},
			{
				"x": 0.0860394056,
				"y": 3.1408823772,
				"z": -1.6112710525,
				"element": "C" 
			},
			{
				"x": -1.4624398005,
				"y": 1.2943299466,
				"z": -1.2972460777,
				"element": "N" 
			},
			{
				"x": -2.1556923567,
				"y": -0.1781381432,
				"z": -1.7736177297,
				"element": "S" 
			},
			{
				"x": -1.4013600901,
				"y": -0.7659599568,
				"z": -2.8887042089,
				"element": "O" 
			},
			{
				"x": -3.5890875093,
				"y": 0.1152648124,
				"z": -1.8938866459,
				"element": "O" 
			},
			{
				"x": -1.9148876547,
				"y": -1.2433716443,
				"z": -0.3475297181,
				"element": "C" 
			},
			{
				"x": -2.483539512,
				"y": -0.8861752673,
				"z": 0.8764834125,
				"element": "C" 
			},
			{
				"x": -2.3486764701,
				"y": -1.7313294857,
				"z": 1.9823283086,
				"element": "C" 
			},
			{
				"x": -2.9005831405,
				"y": -1.325606521,
				"z": 3.3397263146,
				"element": "C" 
			},
			{
				"x": -1.9762535771,
				"y": -0.5667487573,
				"z": 4.1957656912,
				"element": "N" 
			},
			{
				"x": -1.6495269735,
				"y": -2.9380872515,
				"z": 1.8196913394,
				"element": "C" 
			},
			{
				"x": -1.093507506,
				"y": -3.2924514086,
				"z": 0.591309192,
				"element": "C" 
			},
			{
				"x": -1.2225563291,
				"y": -2.4424881781,
				"z": -0.5094282906,
				"element": "C" 
			},
			{
				"x": 0.8368023579,
				"y": -0.2179232203,
				"z": -1.036534869,
				"element": "H" 
			},
			{
				"x": 1.9591954035,
				"y": 1.1292970744,
				"z": -1.246285784,
				"element": "H" 
			},
			{
				"x": 0.8488953177,
				"y": 1.1082515062,
				"z": 0.1427719139,
				"element": "H" 
			},
			{
				"x": 0.0337004505,
				"y": 1.3468959274,
				"z": -2.8035482939,
				"element": "H" 
			},
			{
				"x": -0.0431499385,
				"y": 3.455561843,
				"z": -0.5703755038,
				"element": "H" 
			},
			{
				"x": -0.6375381529,
				"y": 3.6841665996,
				"z": -2.2295422265,
				"element": "H" 
			},
			{
				"x": 1.0878341439,
				"y": 3.4354346626,
				"z": -1.9367798311,
				"element": "H" 
			},
			{
				"x": -2.1435726997,
				"y": 2.0032615427,
				"z": -1.5626570778,
				"element": "H" 
			},
			{
				"x": -3.0333478624,
				"y": 0.0464443404,
				"z": 0.9642447002,
				"element": "H" 
			},
			{
				"x": -3.801692195,
				"y": -0.7179514683,
				"z": 3.2020078522,
				"element": "H" 
			},
			{
				"x": -3.2068612973,
				"y": -2.2208962118,
				"z": 3.8923563563,
				"element": "H" 
			},
			{
				"x": -1.1276510841,
				"y": -1.1093682514,
				"z": 4.3444291101,
				"element": "H" 
			},
			{
				"x": -1.6822320319,
				"y": 0.278734451,
				"z": 3.7106238625,
				"element": "H" 
			},
			{
				"x": -1.5492821052,
				"y": -3.6112820702,
				"z": 2.6682603925,
				"element": "H" 
			},
			{
				"x": -0.5651306684,
				"y": -4.2352017173,
				"z": 0.4848586814,
				"element": "H" 
			},
			{
				"x": -0.807652585,
				"y": -2.6961763296,
				"z": -1.4783224743,
				"element": "H" 
			}
		],
		 "valence_orbital": [ 
			{
				"type": "occ",
				"energy": -0.29782,
				"method": "rhf"
			},
			{
				"type": "occ",
				"energy": -0.28383,
				"method": "rhf"
			},
			{
				"type": "occ",
				"energy": -0.27143,
				"method": "rhf"
			},
			{
				"type": "occ",
				"energy": -0.25944,
				"method": "rhf"
			},
			{
				"type": "occ",
				"energy": -0.24082,
				"method": "rhf"
			},
			{
				"type": "unocc",
				"energy": -0.03827,
				"method": "rhf"
			},
			{
				"type": "unocc",
				"energy": -0.02156,
				"method": "rhf"
			},
			{
				"type": "unocc",
				"energy": 0.05664,
				"method": "rhf"
			},
			{
				"type": "unocc",
				"energy": 0.07446,
				"method": "rhf"
			},
			{
				"type": "unocc",
				"energy": 0.08122,
				"method": "rhf"
			}
		],
		"cosmo_sigma_profile": { 
			"-0.025": 0.0,
			"-0.024": 0.0,
			"-0.023": 0.0,
			"-0.022": 0.0,
			"-0.021": 0.0,
			"-0.02": 0.0,
			"-0.019": 0.0,
			"-0.018": 0.0,
			"-0.017": 0.0,
			"-0.016": 0.0,
			"-0.015": 0.0,
			"-0.014": 0.0048144981072,
			"-0.013": 0.863567682851,
			"-0.012": 1.02754531151,
			"-0.011": 0.773185400758,
			"-0.01": 2.17174760503,
			"-0.009": 3.64298096215,
			"-0.008": 4.22861062279,
			"-0.007": 9.66108062047,
			"-0.006": 14.874019148,
			"-0.005": 15.2295889814,
			"-0.004": 21.8116903704,
			"-0.003": 25.4829736223,
			"-0.002": 24.9168041484,
			"-0.001": 23.9605743224,
			"0.0": 24.7103566973,
			"0.001": 16.595519537,
			"0.002": 12.144022942,
			"0.003": 16.1719254748,
			"0.004": 8.26568655694,
			"0.005": 3.88161329499,
			"0.006": 4.00597158032,
			"0.007": 4.25662769565,
			"0.008": 4.96728188858,
			"0.009": 4.68818681126,
			"0.01": 6.61114329708,
			"0.011": 9.60161015445,
			"0.012": 5.4493861397,
			"0.013": 0.493844398359,
			"0.014": 0.8086808194,
			"0.015": 0.962281015281,
			"0.016": 0.577873452094,
			"0.017": 0.50842859896,
			"0.018": 0.642349111442,
			"0.019": 0.696199534695,
			"0.02": 0.0644405830729,
			"0.021": 0.0,
			"0.022": 0.0,
			"0.023": 0.0,
			"0.024": 0.0,
			"0.025": 0.0
		}
	}
}
