{
	 "smiles": "CC1=C(C)C(=CC=C1)C(N)CC(O)=O", 
	 "Tm": 485.15, 
	 "num_atms": 29, 
	 "gaussian": { 
		 "optdone": 1, 
		 "sigma_profile": "yes", 
		 "theory": "DFT", 
		 "functional": "B3LYP", 
		 "basiset": "6-31G**", 
		 "properties": { 
			 "R2extent": 4280.9864, 
			 "electric_dipole_moment_norm": 0.815432633637, 
			 "electric_quadrupole_moment_norm": 8.5785206994, 
			 "total_energy": -633.437336862, 
			 "HOMO_LUMO_gap": 0.23018, 
			 "cosmo_polarized_energy": -10.76, 
			 "cosmo_cavitation_energy": 30.97, 
			 "cosmo_dispersion_energy": -22.3, 
			 "cosmo_repulsion_energy": 1.77, 
			 "cosmo_total_nonelectrostatic_energy": 10.44, 
			 "SMD_solvation_energy": 5.76 
		},
		"coords": [
			{
				"x": 0.2916768016,
				"y": 2.6027636397,
				"z": -0.5915220138,
				"element": "C" 
			},
			{
				"x": -0.3719079793,
				"y": 1.2824105991,
				"z": -0.2702973743,
				"element": "C" 
			},
			{
				"x": 0.2725177543,
				"y": 0.3299301046,
				"z": 0.5540002713,
				"element": "C" 
			},
			{
				"x": 1.6412828811,
				"y": 0.6638122403,
				"z": 1.1120617286,
				"element": "C" 
			},
			{
				"x": -0.373667086,
				"y": -0.9007056009,
				"z": 0.81646085,
				"element": "C" 
			},
			{
				"x": -1.6430977873,
				"y": -1.1399778359,
				"z": 0.269233906,
				"element": "C" 
			},
			{
				"x": -2.2772582456,
				"y": -0.1984644833,
				"z": -0.5345892524,
				"element": "C" 
			},
			{
				"x": -1.6356504684,
				"y": 1.0071708131,
				"z": -0.8029591474,
				"element": "C" 
			},
			{
				"x": 0.2335091681,
				"y": -2.0336417873,
				"z": 1.6462963602,
				"element": "C" 
			},
			{
				"x": 0.643491012,
				"y": -1.5880461318,
				"z": 2.9882586386,
				"element": "N" 
			},
			{
				"x": 1.4346493142,
				"y": -2.6816187424,
				"z": 0.9311151202,
				"element": "C" 
			},
			{
				"x": 1.9156265262,
				"y": -3.9476489108,
				"z": 1.6045660558,
				"element": "C" 
			},
			{
				"x": 2.9063220114,
				"y": -4.54211528,
				"z": 0.9004570159,
				"element": "O" 
			},
			{
				"x": 1.4951290992,
				"y": -4.4139676494,
				"z": 2.6450127062,
				"element": "O" 
			},
			{
				"x": 0.4417923508,
				"y": 3.2143592144,
				"z": 0.3067304899,
				"element": "H" 
			},
			{
				"x": 1.2801403733,
				"y": 2.4639722774,
				"z": -1.0446250446,
				"element": "H" 
			},
			{
				"x": -0.3164734741,
				"y": 3.1845951503,
				"z": -1.2891853008,
				"element": "H" 
			},
			{
				"x": 2.4140600885,
				"y": 0.5996386713,
				"z": 0.3334827436,
				"element": "H" 
			},
			{
				"x": 1.9053174416,
				"y": 0.0036062377,
				"z": 1.9373146382,
				"element": "H" 
			},
			{
				"x": 1.6688288681,
				"y": 1.6919805798,
				"z": 1.4882030039,
				"element": "H" 
			},
			{
				"x": -2.1378731819,
				"y": -2.0846451532,
				"z": 0.4814315643,
				"element": "H" 
			},
			{
				"x": -3.2612524242,
				"y": -0.4024995191,
				"z": -0.9470408475,
				"element": "H" 
			},
			{
				"x": -2.1181883014,
				"y": 1.7502518339,
				"z": -1.4330928349,
				"element": "H" 
			},
			{
				"x": -0.5385097655,
				"y": -2.8179645664,
				"z": 1.7042589537,
				"element": "H" 
			},
			{
				"x": 0.8474008242,
				"y": -2.4165835575,
				"z": 3.5431836928,
				"element": "H" 
			},
			{
				"x": -0.1369664858,
				"y": -1.1112875949,
				"z": 3.4330863159,
				"element": "H" 
			},
			{
				"x": 1.1734399557,
				"y": -2.9320237874,
				"z": -0.1032504231,
				"element": "H" 
			},
			{
				"x": 2.2821604264,
				"y": -1.9908656358,
				"z": 0.8766310482,
				"element": "H" 
			},
			{
				"x": 3.1583003026,
				"y": -5.3351351255,
				"z": 1.4033771354,
				"element": "H" 
			}
		],
		 "valence_orbital": [ 
			{
				"type": "occ",
				"energy": -0.31966,
				"method": "rhf"
			},
			{
				"type": "occ",
				"energy": -0.28136,
				"method": "rhf"
			},
			{
				"type": "occ",
				"energy": -0.23606,
				"method": "rhf"
			},
			{
				"type": "occ",
				"energy": -0.23186,
				"method": "rhf"
			},
			{
				"type": "occ",
				"energy": -0.22965,
				"method": "rhf"
			},
			{
				"type": "unocc",
				"energy": 0.00053,
				"method": "rhf"
			},
			{
				"type": "unocc",
				"energy": 0.00649,
				"method": "rhf"
			},
			{
				"type": "unocc",
				"energy": 0.0079,
				"method": "rhf"
			},
			{
				"type": "unocc",
				"energy": 0.0767,
				"method": "rhf"
			},
			{
				"type": "unocc",
				"energy": 0.09351,
				"method": "rhf"
			}
		],
		"cosmo_sigma_profile": { 
			"-0.025": 0.0,
			"-0.024": 0.0,
			"-0.023": 0.0,
			"-0.022": 0.0,
			"-0.021": 0.0,
			"-0.02": 0.0,
			"-0.019": 0.0105113160931,
			"-0.018": 0.673220914471,
			"-0.017": 1.22541393199,
			"-0.016": 0.64393254427,
			"-0.015": 0.749421161863,
			"-0.014": 0.778015409738,
			"-0.013": 0.235196510577,
			"-0.012": 0.74913722276,
			"-0.011": 0.954740606918,
			"-0.01": 1.31694371127,
			"-0.009": 1.6760284192,
			"-0.008": 1.69609883643,
			"-0.007": 2.47852527939,
			"-0.006": 6.31948667822,
			"-0.005": 11.551379289,
			"-0.004": 21.4040684706,
			"-0.003": 27.1666095652,
			"-0.002": 22.9885993575,
			"-0.001": 19.4627637444,
			"0.0": 20.9156136032,
			"0.001": 18.5530878437,
			"0.002": 13.2345043766,
			"0.003": 10.1092558515,
			"0.004": 11.6051648601,
			"0.005": 9.79722032062,
			"0.006": 10.1441255968,
			"0.007": 7.58016271971,
			"0.008": 3.7683985345,
			"0.009": 4.0363002661,
			"0.01": 3.66225009552,
			"0.011": 3.34556941384,
			"0.012": 2.58601608385,
			"0.013": 1.00880655784,
			"0.014": 0.26312649507,
			"0.015": 0.0838815651641,
			"0.016": 0.0,
			"0.017": 0.0,
			"0.018": 0.0,
			"0.019": 0.0,
			"0.02": 0.0,
			"0.021": 0.0,
			"0.022": 0.0,
			"0.023": 0.0,
			"0.024": 0.0,
			"0.025": 0.0
		}
	}
}
