{
	 "smiles": "OC1=CC(=CC(O)=C1)C1=CC(O)=CC(O)=C1", 
	 "Tm": 583.15, 
	 "num_atms": 26, 
	 "gaussian": { 
		 "optdone": 1, 
		 "sigma_profile": "yes", 
		 "theory": "DFT", 
		 "functional": "B3LYP", 
		 "basiset": "6-31G**", 
		 "properties": { 
			 "R2extent": 4615.9938, 
			 "electric_dipole_moment_norm": 2.62249899905, 
			 "electric_quadrupole_moment_norm": 18.4334451718, 
			 "total_energy": -764.189035969, 
			 "HOMO_LUMO_gap": 0.18857, 
			 "cosmo_polarized_energy": -23.72, 
			 "cosmo_cavitation_energy": 31.0, 
			 "cosmo_dispersion_energy": -22.9, 
			 "cosmo_repulsion_energy": 1.78, 
			 "cosmo_total_nonelectrostatic_energy": 9.88, 
			 "SMD_solvation_energy": 6.4 
		},
		"coords": [
			{
				"x": 3.4485690628,
				"y": 0.2945325745,
				"z": 2.9894298819,
				"element": "O" 
			},
			{
				"x": 2.412123876,
				"y": 0.9338032942,
				"z": 2.3703752833,
				"element": "C" 
			},
			{
				"x": 1.6203423296,
				"y": 0.1713353257,
				"z": 1.5049298077,
				"element": "C" 
			},
			{
				"x": 0.5485054168,
				"y": 0.7683337584,
				"z": 0.8320687037,
				"element": "C" 
			},
			{
				"x": 0.2785748674,
				"y": 2.13239484,
				"z": 1.034946228,
				"element": "C" 
			},
			{
				"x": 1.0763449415,
				"y": 2.8802646382,
				"z": 1.9023814231,
				"element": "C" 
			},
			{
				"x": 0.851804985,
				"y": 4.2063433838,
				"z": 2.1447765397,
				"element": "O" 
			},
			{
				"x": 2.1489574816,
				"y": 2.288720469,
				"z": 2.5758952785,
				"element": "C" 
			},
			{
				"x": -0.3002012161,
				"y": -0.0321818848,
				"z": -0.0911508491,
				"element": "C" 
			},
			{
				"x": -0.7808785447,
				"y": 0.536861711,
				"z": -1.2795269807,
				"element": "C" 
			},
			{
				"x": -1.5778719482,
				"y": -0.2185645744,
				"z": -2.140968884,
				"element": "C" 
			},
			{
				"x": -2.009008342,
				"y": 0.3885488089,
				"z": -3.2873117837,
				"element": "O" 
			},
			{
				"x": -1.9056372935,
				"y": -1.5429938094,
				"z": -1.8333902629,
				"element": "C" 
			},
			{
				"x": -1.4223223924,
				"y": -2.1053177261,
				"z": -0.6471651644,
				"element": "C" 
			},
			{
				"x": -1.7123968883,
				"y": -3.3898414485,
				"z": -0.2826294484,
				"element": "O" 
			},
			{
				"x": -0.6248973254,
				"y": -1.3595843671,
				"z": 0.2225734073,
				"element": "C" 
			},
			{
				"x": 3.9208302938,
				"y": 0.9260398993,
				"z": 3.5471702848,
				"element": "H" 
			},
			{
				"x": 1.8727637639,
				"y": -0.8704960719,
				"z": 1.34675529,
				"element": "H" 
			},
			{
				"x": -0.5715606994,
				"y": 2.5966863818,
				"z": 0.5425678746,
				"element": "H" 
			},
			{
				"x": 0.0904472933,
				"y": 4.4941626243,
				"z": 1.6246273646,
				"element": "H" 
			},
			{
				"x": 2.7539000162,
				"y": 2.8936307828,
				"z": 3.2454180615,
				"element": "H" 
			},
			{
				"x": -0.5174029805,
				"y": 1.5481748604,
				"z": -1.5660496008,
				"element": "H" 
			},
			{
				"x": -2.5287120949,
				"y": -0.2395119181,
				"z": -3.8049104205,
				"element": "H" 
			},
			{
				"x": -2.5287875623,
				"y": -2.1285045078,
				"z": -2.5081594515,
				"element": "H" 
			},
			{
				"x": -2.2723489046,
				"y": -3.7948536698,
				"z": -0.9570644203,
				"element": "H" 
			},
			{
				"x": -0.2926381358,
				"y": -1.8157833745,
				"z": 1.1475118376,
				"element": "H" 
			}
		],
		 "valence_orbital": [ 
			{
				"type": "occ",
				"energy": -0.29496,
				"method": "rhf"
			},
			{
				"type": "occ",
				"energy": -0.24711,
				"method": "rhf"
			},
			{
				"type": "occ",
				"energy": -0.21706,
				"method": "rhf"
			},
			{
				"type": "occ",
				"energy": -0.2123,
				"method": "rhf"
			},
			{
				"type": "occ",
				"energy": -0.21095,
				"method": "rhf"
			},
			{
				"type": "unocc",
				"energy": -0.02238,
				"method": "rhf"
			},
			{
				"type": "unocc",
				"energy": 0.01889,
				"method": "rhf"
			},
			{
				"type": "unocc",
				"energy": 0.02395,
				"method": "rhf"
			},
			{
				"type": "unocc",
				"energy": 0.04039,
				"method": "rhf"
			},
			{
				"type": "unocc",
				"energy": 0.06332,
				"method": "rhf"
			}
		],
		"cosmo_sigma_profile": { 
			"-0.025": 0.0,
			"-0.024": 0.0,
			"-0.023": 0.0,
			"-0.022": 0.0,
			"-0.021": 0.0,
			"-0.02": 0.0,
			"-0.019": 0.0,
			"-0.018": 1.4918313125,
			"-0.017": 4.65445057645,
			"-0.016": 3.96614542602,
			"-0.015": 4.79488226064,
			"-0.014": 4.48015101849,
			"-0.013": 2.89232431016,
			"-0.012": 3.18075123381,
			"-0.011": 3.45647556209,
			"-0.01": 4.49692983572,
			"-0.009": 5.74266099321,
			"-0.008": 4.68152141199,
			"-0.007": 3.91156055702,
			"-0.006": 5.05940120241,
			"-0.005": 10.0152170427,
			"-0.004": 9.19178628414,
			"-0.003": 7.52101754784,
			"-0.002": 7.94772637319,
			"-0.001": 8.80766886242,
			"0.0": 8.37102805295,
			"0.001": 8.66987563475,
			"0.002": 12.1058002369,
			"0.003": 16.8483820033,
			"0.004": 31.1223572295,
			"0.005": 29.5026722678,
			"0.006": 9.00858600937,
			"0.007": 5.35861234315,
			"0.008": 6.09365488261,
			"0.009": 5.62611043031,
			"0.01": 6.80357711306,
			"0.011": 7.88742122803,
			"0.012": 2.7419624444,
			"0.013": 0.0,
			"0.014": 0.0,
			"0.015": 0.0,
			"0.016": 0.0,
			"0.017": 0.0,
			"0.018": 0.0,
			"0.019": 0.0,
			"0.02": 0.0,
			"0.021": 0.0,
			"0.022": 0.0,
			"0.023": 0.0,
			"0.024": 0.0,
			"0.025": 0.0
		}
	}
}
