{
	 "smiles": "CCCCCCCCCCCCCCCCC(C)C", 
	 "Tm": 288.15, 
	 "num_atms": 59, 
	 "gaussian": { 
		 "optdone": 1, 
		 "sigma_profile": "yes", 
		 "theory": "DFT", 
		 "functional": "B3LYP", 
		 "basiset": "6-31G**", 
		 "properties": { 
			 "R2extent": 14910.3953, 
			 "electric_dipole_moment_norm": 0.0823233867136, 
			 "electric_quadrupole_moment_norm": 1.08384890091, 
			 "total_energy": -748.194170089, 
			 "HOMO_LUMO_gap": 0.37678, 
			 "cosmo_polarized_energy": -1.26, 
			 "cosmo_cavitation_energy": 56.31, 
			 "cosmo_dispersion_energy": -38.65, 
			 "cosmo_repulsion_energy": 3.14, 
			 "cosmo_total_nonelectrostatic_energy": 20.8, 
			 "SMD_solvation_energy": 7.48 
		},
		"coords": [
			{
				"x": 3.7026951979,
				"y": -1.2020828646,
				"z": -6.2049599239,
				"element": "C" 
			},
			{
				"x": 2.9465718996,
				"y": -0.3968520859,
				"z": -5.1429434978,
				"element": "C" 
			},
			{
				"x": 3.6916184267,
				"y": 0.8755457915,
				"z": -4.7146193219,
				"element": "C" 
			},
			{
				"x": 3.0061625527,
				"y": 1.6808438148,
				"z": -3.5980344772,
				"element": "C" 
			},
			{
				"x": 1.6654822595,
				"y": 2.3144457525,
				"z": -4.0014171422,
				"element": "C" 
			},
			{
				"x": 1.0524268916,
				"y": 3.2400776038,
				"z": -2.9370580458,
				"element": "C" 
			},
			{
				"x": 0.6043218282,
				"y": 2.5334468343,
				"z": -1.6496434528,
				"element": "C" 
			},
			{
				"x": -0.068657108,
				"y": 3.4769131293,
				"z": -0.6442152687,
				"element": "C" 
			},
			{
				"x": -0.5205482893,
				"y": 2.7802210803,
				"z": 0.6463504796,
				"element": "C" 
			},
			{
				"x": -1.197524039,
				"y": 3.734990985,
				"z": 1.6392796293,
				"element": "C" 
			},
			{
				"x": -1.591567687,
				"y": 3.1280361632,
				"z": 2.9981326174,
				"element": "C" 
			},
			{
				"x": -2.6677871493,
				"y": 2.0181334883,
				"z": 2.9429426816,
				"element": "C" 
			},
			{
				"x": -2.1421719433,
				"y": 0.5696420762,
				"z": 2.8917133055,
				"element": "C" 
			},
			{
				"x": -1.5495353702,
				"y": 0.0809671258,
				"z": 4.2226915754,
				"element": "C" 
			},
			{
				"x": -0.9404936269,
				"y": -1.3318790967,
				"z": 4.1797064755,
				"element": "C" 
			},
			{
				"x": -1.9576240693,
				"y": -2.4581678815,
				"z": 3.9430474605,
				"element": "C" 
			},
			{
				"x": -1.359537701,
				"y": -3.8790463588,
				"z": 3.8854353481,
				"element": "C" 
			},
			{
				"x": -2.4237387486,
				"y": -4.892360661,
				"z": 3.4372737775,
				"element": "C" 
			},
			{
				"x": -0.7355415401,
				"y": -4.3135838887,
				"z": 5.2207205217,
				"element": "C" 
			},
			{
				"x": 3.1531467676,
				"y": -2.104835838,
				"z": -6.4916187053,
				"element": "H" 
			},
			{
				"x": 4.6877136373,
				"y": -1.5141914033,
				"z": -5.8390043511,
				"element": "H" 
			},
			{
				"x": 3.8625064319,
				"y": -0.6085101913,
				"z": -7.1125396521,
				"element": "H" 
			},
			{
				"x": 1.9528434656,
				"y": -0.1364706199,
				"z": -5.5281713856,
				"element": "H" 
			},
			{
				"x": 2.774475599,
				"y": -1.0268850447,
				"z": -4.2590797768,
				"element": "H" 
			},
			{
				"x": 4.6993786916,
				"y": 0.5942106878,
				"z": -4.3790482816,
				"element": "H" 
			},
			{
				"x": 3.8358508474,
				"y": 1.522374542,
				"z": -5.5923975091,
				"element": "H" 
			},
			{
				"x": 3.6859773942,
				"y": 2.4806968829,
				"z": -3.2726522628,
				"element": "H" 
			},
			{
				"x": 2.8655993089,
				"y": 1.029505078,
				"z": -2.7250428556,
				"element": "H" 
			},
			{
				"x": 0.9393201576,
				"y": 1.5291386904,
				"z": -4.2504465407,
				"element": "H" 
			},
			{
				"x": 1.8162245628,
				"y": 2.8913517168,
				"z": -4.9245909107,
				"element": "H" 
			},
			{
				"x": 1.7752099557,
				"y": 4.0293931487,
				"z": -2.6841914587,
				"element": "H" 
			},
			{
				"x": 0.1856869096,
				"y": 3.7541520822,
				"z": -3.3746870651,
				"element": "H" 
			},
			{
				"x": 1.46520165,
				"y": 2.0525274163,
				"z": -1.166706118,
				"element": "H" 
			},
			{
				"x": -0.0914636012,
				"y": 1.7216709504,
				"z": -1.9077121747,
				"element": "H" 
			},
			{
				"x": 0.624338916,
				"y": 4.2925076343,
				"z": -0.392046251,
				"element": "H" 
			},
			{
				"x": -0.9363198424,
				"y": 3.955646087,
				"z": -1.1207765236,
				"element": "H" 
			},
			{
				"x": 0.3489433495,
				"y": 2.3096533177,
				"z": 1.1279473884,
				"element": "H" 
			},
			{
				"x": -1.2054819323,
				"y": 1.9622398552,
				"z": 0.3874083683,
				"element": "H" 
			},
			{
				"x": -0.5231733132,
				"y": 4.5832775867,
				"z": 1.822585856,
				"element": "H" 
			},
			{
				"x": -2.0949202153,
				"y": 4.1621459738,
				"z": 1.1684027005,
				"element": "H" 
			},
			{
				"x": -0.6902700283,
				"y": 2.7517932396,
				"z": 3.5008019475,
				"element": "H" 
			},
			{
				"x": -1.9589344088,
				"y": 3.9466216726,
				"z": 3.629417567,
				"element": "H" 
			},
			{
				"x": -3.3160348804,
				"y": 2.1982690588,
				"z": 2.0746857506,
				"element": "H" 
			},
			{
				"x": -3.3217661882,
				"y": 2.1064055837,
				"z": 3.8207700148,
				"element": "H" 
			},
			{
				"x": -2.9704459549,
				"y": -0.0882349972,
				"z": 2.6007258182,
				"element": "H" 
			},
			{
				"x": -1.3847646005,
				"y": 0.4710199898,
				"z": 2.1034382579,
				"element": "H" 
			},
			{
				"x": -0.7709523153,
				"y": 0.7816768179,
				"z": 4.5508417347,
				"element": "H" 
			},
			{
				"x": -2.3301292968,
				"y": 0.1158379416,
				"z": 4.9967405691,
				"element": "H" 
			},
			{
				"x": -0.1711996394,
				"y": -1.3691015146,
				"z": 3.3944379575,
				"element": "H" 
			},
			{
				"x": -0.4152217903,
				"y": -1.5078414977,
				"z": 5.1263198702,
				"element": "H" 
			},
			{
				"x": -2.4885830113,
				"y": -2.2737518895,
				"z": 3.0003833485,
				"element": "H" 
			},
			{
				"x": -2.7235412293,
				"y": -2.4262991426,
				"z": 4.7330940622,
				"element": "H" 
			},
			{
				"x": -0.5621056994,
				"y": -3.8728430067,
				"z": 3.12649286,
				"element": "H" 
			},
			{
				"x": -2.8467928181,
				"y": -4.6243442687,
				"z": 2.4628031439,
				"element": "H" 
			},
			{
				"x": -3.2503256958,
				"y": -4.9356145664,
				"z": 4.1573980988,
				"element": "H" 
			},
			{
				"x": -2.0044615305,
				"y": -5.901166359,
				"z": 3.3549782288,
				"element": "H" 
			},
			{
				"x": -0.3281815631,
				"y": -5.3281714076,
				"z": 5.1504985549,
				"element": "H" 
			},
			{
				"x": -1.4878945423,
				"y": -4.313826817,
				"z": 6.0195428033,
				"element": "H" 
			},
			{
				"x": 0.0798946684,
				"y": -3.6535183972,
				"z": 5.5313941799,
				"element": "H" 
			}
		],
		 "valence_orbital": [ 
			{
				"type": "occ",
				"energy": -0.30483,
				"method": "rhf"
			},
			{
				"type": "occ",
				"energy": -0.30207,
				"method": "rhf"
			},
			{
				"type": "occ",
				"energy": -0.29935,
				"method": "rhf"
			},
			{
				"type": "occ",
				"energy": -0.29456,
				"method": "rhf"
			},
			{
				"type": "occ",
				"energy": -0.28954,
				"method": "rhf"
			},
			{
				"type": "unocc",
				"energy": 0.08724,
				"method": "rhf"
			},
			{
				"type": "unocc",
				"energy": 0.09013,
				"method": "rhf"
			},
			{
				"type": "unocc",
				"energy": 0.09364,
				"method": "rhf"
			},
			{
				"type": "unocc",
				"energy": 0.09922,
				"method": "rhf"
			},
			{
				"type": "unocc",
				"energy": 0.10519,
				"method": "rhf"
			}
		],
		"cosmo_sigma_profile": { 
			"-0.025": 0.0,
			"-0.024": 0.0,
			"-0.023": 0.0,
			"-0.022": 0.0,
			"-0.021": 0.0,
			"-0.02": 0.0,
			"-0.019": 0.0,
			"-0.018": 0.0,
			"-0.017": 0.0,
			"-0.016": 0.0,
			"-0.015": 0.0,
			"-0.014": 0.0,
			"-0.013": 0.0,
			"-0.012": 0.0,
			"-0.011": 0.0,
			"-0.01": 0.0,
			"-0.009": 0.0,
			"-0.008": 0.0,
			"-0.007": 0.0,
			"-0.006": 0.0,
			"-0.005": 0.0,
			"-0.004": 0.0,
			"-0.003": 3.49346686479,
			"-0.002": 45.8858515368,
			"-0.001": 107.128014545,
			"0.0": 118.106633257,
			"0.001": 100.907524763,
			"0.002": 51.1716401098,
			"0.003": 2.20389002114,
			"0.004": 0.0,
			"0.005": 0.0,
			"0.006": 0.0,
			"0.007": 0.0,
			"0.008": 0.0,
			"0.009": 0.0,
			"0.01": 0.0,
			"0.011": 0.0,
			"0.012": 0.0,
			"0.013": 0.0,
			"0.014": 0.0,
			"0.015": 0.0,
			"0.016": 0.0,
			"0.017": 0.0,
			"0.018": 0.0,
			"0.019": 0.0,
			"0.02": 0.0,
			"0.021": 0.0,
			"0.022": 0.0,
			"0.023": 0.0,
			"0.024": 0.0,
			"0.025": 0.0
		}
	}
}
