{
	 "smiles": "CC(=O)OCCOC1=CC(OC(C)=O)=C2C(=O)C(OC(C)=O)=C(OC2=C1)C1=CC=C(OCCOC(C)=O)C(OCCOC(C)=O)=C1", 
	 "Tm": 369.65, 
	 "num_atms": 78, 
	 "gaussian": { 
		 "optdone": 1, 
		 "sigma_profile": "yes", 
		 "theory": "DFT", 
		 "functional": "B3LYP", 
		 "basiset": "6-31G**", 
		 "properties": { 
			 "R2extent": 39150.0547, 
			 "electric_dipole_moment_norm": 7.65121422129, 
			 "electric_quadrupole_moment_norm": 47.5740692578, 
			 "total_energy": -2328.95205669, 
			 "HOMO_LUMO_gap": 0.15775, 
			 "cosmo_polarized_energy": -40.76, 
			 "cosmo_cavitation_energy": 86.84, 
			 "cosmo_dispersion_energy": -56.61, 
			 "cosmo_repulsion_energy": 4.44, 
			 "cosmo_total_nonelectrostatic_energy": 34.68, 
			 "SMD_solvation_energy": 21.46 
		},
		"coords": [
			{
				"x": -6.2074334053,
				"y": 3.7629248248,
				"z": 3.0403698289,
				"element": "C" 
			},
			{
				"x": -6.1202612272,
				"y": 3.0735713653,
				"z": 1.7007612933,
				"element": "C" 
			},
			{
				"x": -6.1660090744,
				"y": 3.6115478359,
				"z": 0.6187277726,
				"element": "O" 
			},
			{
				"x": -5.9845843877,
				"y": 1.729617255,
				"z": 1.8565035863,
				"element": "O" 
			},
			{
				"x": -5.9104709247,
				"y": 0.9696478982,
				"z": 0.6376832192,
				"element": "C" 
			},
			{
				"x": -5.7773910803,
				"y": -0.4881762597,
				"z": 1.0668581331,
				"element": "C" 
			},
			{
				"x": -5.7606365952,
				"y": -1.3535207896,
				"z": -0.0670424852,
				"element": "O" 
			},
			{
				"x": -4.5970264332,
				"y": -1.5957489535,
				"z": -0.7274981286,
				"element": "C" 
			},
			{
				"x": -4.7063423664,
				"y": -2.5014991672,
				"z": -1.800892775,
				"element": "C" 
			},
			{
				"x": -3.5921996952,
				"y": -2.8358133277,
				"z": -2.5406163912,
				"element": "C" 
			},
			{
				"x": -3.7724416182,
				"y": -3.6706836608,
				"z": -3.6235033961,
				"element": "O" 
			},
			{
				"x": -3.2339599815,
				"y": -4.9465363515,
				"z": -3.5562272391,
				"element": "C" 
			},
			{
				"x": -3.2558003451,
				"y": -5.5772356981,
				"z": -4.9185794742,
				"element": "C" 
			},
			{
				"x": -2.8391284661,
				"y": -5.4335225778,
				"z": -2.5302421943,
				"element": "O" 
			},
			{
				"x": -2.314327826,
				"y": -2.2862861855,
				"z": -2.2589571381,
				"element": "C" 
			},
			{
				"x": -1.0936005087,
				"y": -2.5846347325,
				"z": -3.0236578767,
				"element": "C" 
			},
			{
				"x": -1.019331515,
				"y": -3.3610370305,
				"z": -3.9779965109,
				"element": "O" 
			},
			{
				"x": 0.0988943673,
				"y": -1.8735747838,
				"z": -2.5439884369,
				"element": "C" 
			},
			{
				"x": 1.291051768,
				"y": -2.246548036,
				"z": -3.1320560102,
				"element": "O" 
			},
			{
				"x": 1.4716037865,
				"y": -1.8977565138,
				"z": -4.4570479957,
				"element": "C" 
			},
			{
				"x": 2.5081764302,
				"y": -2.7860467873,
				"z": -5.0858886855,
				"element": "C" 
			},
			{
				"x": 0.8817130927,
				"y": -0.9861192834,
				"z": -4.9783006103,
				"element": "O" 
			},
			{
				"x": 0.0749622439,
				"y": -0.9943429677,
				"z": -1.5100791065,
				"element": "C" 
			},
			{
				"x": -1.0848882964,
				"y": -0.7781300617,
				"z": -0.8168956189,
				"element": "O" 
			},
			{
				"x": -2.2516044079,
				"y": -1.3905483405,
				"z": -1.1801716656,
				"element": "C" 
			},
			{
				"x": -3.3634373099,
				"y": -1.0345694723,
				"z": -0.4088880822,
				"element": "C" 
			},
			{
				"x": 1.2025350164,
				"y": -0.2167897899,
				"z": -0.970324187,
				"element": "C" 
			},
			{
				"x": 2.1508451868,
				"y": 0.3650755459,
				"z": -1.8185311923,
				"element": "C" 
			},
			{
				"x": 3.1932046871,
				"y": 1.1126585382,
				"z": -1.2738686349,
				"element": "C" 
			},
			{
				"x": 3.3139420002,
				"y": 1.2886986386,
				"z": 0.1025136286,
				"element": "C" 
			},
			{
				"x": 4.4047206281,
				"y": 1.9607711626,
				"z": 0.5911571144,
				"element": "O" 
			},
			{
				"x": 4.1735736129,
				"y": 3.1872753153,
				"z": 1.2991185957,
				"element": "C" 
			},
			{
				"x": 4.1193841347,
				"y": 4.3459741746,
				"z": 0.3114643585,
				"element": "C" 
			},
			{
				"x": 3.9241394351,
				"y": 5.5373612619,
				"z": 1.0971281711,
				"element": "O" 
			},
			{
				"x": 3.8619513805,
				"y": 6.6982963457,
				"z": 0.3977757769,
				"element": "C" 
			},
			{
				"x": 3.6597121041,
				"y": 7.8731340839,
				"z": 1.3245907514,
				"element": "C" 
			},
			{
				"x": 3.9592204983,
				"y": 6.75465118,
				"z": -0.8071332809,
				"element": "O" 
			},
			{
				"x": 2.3606603169,
				"y": 0.6979461482,
				"z": 0.9675827157,
				"element": "C" 
			},
			{
				"x": 2.5602508612,
				"y": 0.91713509,
				"z": 2.3028308942,
				"element": "O" 
			},
			{
				"x": 1.7435128171,
				"y": 0.257604982,
				"z": 3.2668297605,
				"element": "C" 
			},
			{
				"x": 2.1351014425,
				"y": -1.1920243021,
				"z": 3.4939309902,
				"element": "C" 
			},
			{
				"x": 3.4474920191,
				"y": -1.1978038917,
				"z": 4.0786761519,
				"element": "O" 
			},
			{
				"x": 3.9614084696,
				"y": -2.4258101132,
				"z": 4.3440966477,
				"element": "C" 
			},
			{
				"x": 5.3546482034,
				"y": -2.3127677733,
				"z": 4.9124659792,
				"element": "C" 
			},
			{
				"x": 3.358867873,
				"y": -3.4550509862,
				"z": 4.1363737498,
				"element": "O" 
			},
			{
				"x": 1.3095098156,
				"y": -0.0368023595,
				"z": 0.4218222867,
				"element": "C" 
			},
			{
				"x": -7.09481979,
				"y": 3.4181759679,
				"z": 3.5799040802,
				"element": "H" 
			},
			{
				"x": -5.3361493993,
				"y": 3.5136461981,
				"z": 3.6526937389,
				"element": "H" 
			},
			{
				"x": -6.2632016,
				"y": 4.8402504223,
				"z": 2.8890207063,
				"element": "H" 
			},
			{
				"x": -6.8163708962,
				"y": 1.1177515796,
				"z": 0.0427583146,
				"element": "H" 
			},
			{
				"x": -5.0591611511,
				"y": 1.305039741,
				"z": 0.0382828875,
				"element": "H" 
			},
			{
				"x": -4.8923994198,
				"y": -0.6365832889,
				"z": 1.6953664693,
				"element": "H" 
			},
			{
				"x": -6.654515177,
				"y": -0.7849237449,
				"z": 1.6467150078,
				"element": "H" 
			},
			{
				"x": -5.6693179189,
				"y": -2.935967764,
				"z": -2.0392279352,
				"element": "H" 
			},
			{
				"x": -4.2115766753,
				"y": -5.3983023665,
				"z": -5.4170740608,
				"element": "H" 
			},
			{
				"x": -2.4682402445,
				"y": -5.104300991,
				"z": -5.512355473,
				"element": "H" 
			},
			{
				"x": -3.0619004748,
				"y": -6.6458018673,
				"z": -4.8295648986,
				"element": "H" 
			},
			{
				"x": 3.369649711,
				"y": -2.9034025879,
				"z": -4.4236194809,
				"element": "H" 
			},
			{
				"x": 2.0661629806,
				"y": -3.7762724751,
				"z": -5.2339797065,
				"element": "H" 
			},
			{
				"x": 2.8135116136,
				"y": -2.3715158111,
				"z": -6.0460951314,
				"element": "H" 
			},
			{
				"x": -3.2233141198,
				"y": -0.3229521446,
				"z": 0.3934996271,
				"element": "H" 
			},
			{
				"x": 2.0503959115,
				"y": 0.2732810799,
				"z": -2.892951115,
				"element": "H" 
			},
			{
				"x": 3.9368086871,
				"y": 1.5790619959,
				"z": -1.9116911007,
				"element": "H" 
			},
			{
				"x": 5.0191710255,
				"y": 3.3083693461,
				"z": 1.9811269862,
				"element": "H" 
			},
			{
				"x": 3.258361908,
				"y": 3.1374877236,
				"z": 1.8935038698,
				"element": "H" 
			},
			{
				"x": 3.2939398027,
				"y": 4.2304295641,
				"z": -0.3981385302,
				"element": "H" 
			},
			{
				"x": 5.0480874924,
				"y": 4.422339733,
				"z": -0.2614869245,
				"element": "H" 
			},
			{
				"x": 4.4839454322,
				"y": 7.9321531861,
				"z": 2.0415778034,
				"element": "H" 
			},
			{
				"x": 3.6095424551,
				"y": 8.7907415069,
				"z": 0.7395746164,
				"element": "H" 
			},
			{
				"x": 2.7370403336,
				"y": 7.7450820521,
				"z": 1.898268584,
				"element": "H" 
			},
			{
				"x": 0.6814776076,
				"y": 0.3201213365,
				"z": 2.9985012892,
				"element": "H" 
			},
			{
				"x": 1.8917766393,
				"y": 0.8234465171,
				"z": 4.190028082,
				"element": "H" 
			},
			{
				"x": 2.1449305414,
				"y": -1.7688592684,
				"z": 2.5650351632,
				"element": "H" 
			},
			{
				"x": 1.4218329158,
				"y": -1.6698774506,
				"z": 4.1753912435,
				"element": "H" 
			},
			{
				"x": 6.022634595,
				"y": -1.8690715846,
				"z": 4.1678454366,
				"element": "H" 
			},
			{
				"x": 5.3568655698,
				"y": -1.6544858727,
				"z": 5.7857339298,
				"element": "H" 
			},
			{
				"x": 5.7146335126,
				"y": -3.3035943154,
				"z": 5.1871534077,
				"element": "H" 
			},
			{
				"x": 0.5663914052,
				"y": -0.4967778664,
				"z": 1.0601288237,
				"element": "H" 
			}
		],
		 "valence_orbital": [ 
			{
				"type": "occ",
				"energy": -0.25597,
				"method": "rhf"
			},
			{
				"type": "occ",
				"energy": -0.25007,
				"method": "rhf"
			},
			{
				"type": "occ",
				"energy": -0.2451,
				"method": "rhf"
			},
			{
				"type": "occ",
				"energy": -0.24007,
				"method": "rhf"
			},
			{
				"type": "occ",
				"energy": -0.2232,
				"method": "rhf"
			},
			{
				"type": "unocc",
				"energy": -0.06545,
				"method": "rhf"
			},
			{
				"type": "unocc",
				"energy": -0.03175,
				"method": "rhf"
			},
			{
				"type": "unocc",
				"energy": -0.01515,
				"method": "rhf"
			},
			{
				"type": "unocc",
				"energy": -0.00818,
				"method": "rhf"
			},
			{
				"type": "unocc",
				"energy": -0.00033,
				"method": "rhf"
			}
		],
		"cosmo_sigma_profile": { 
			"-0.025": 0.0,
			"-0.024": 0.0,
			"-0.023": 0.0,
			"-0.022": 0.0,
			"-0.021": 0.0,
			"-0.02": 0.0,
			"-0.019": 0.0,
			"-0.018": 0.0,
			"-0.017": 0.0,
			"-0.016": 0.0,
			"-0.015": 0.0,
			"-0.014": 0.0,
			"-0.013": 0.0,
			"-0.012": 0.0,
			"-0.011": 0.0273956092026,
			"-0.01": 1.84984653572,
			"-0.009": 4.00058435867,
			"-0.008": 5.89231917536,
			"-0.007": 22.3034862114,
			"-0.006": 50.4391705599,
			"-0.005": 59.8013705942,
			"-0.004": 65.5339133455,
			"-0.003": 65.7429645003,
			"-0.002": 64.8989007824,
			"-0.001": 51.0563477958,
			"0.0": 38.3463384191,
			"0.001": 34.1097174553,
			"0.002": 31.8395197503,
			"0.003": 26.6155470648,
			"0.004": 21.7805700586,
			"0.005": 19.5920172211,
			"0.006": 17.4636287615,
			"0.007": 19.4655931419,
			"0.008": 16.8666474157,
			"0.009": 15.650599551,
			"0.01": 16.3627583019,
			"0.011": 20.5221862573,
			"0.012": 16.3193405796,
			"0.013": 2.90541621822,
			"0.014": 0.0187641692913,
			"0.015": 0.0,
			"0.016": 0.0,
			"0.017": 0.0,
			"0.018": 0.0,
			"0.019": 0.0,
			"0.02": 0.0,
			"0.021": 0.0,
			"0.022": 0.0,
			"0.023": 0.0,
			"0.024": 0.0,
			"0.025": 0.0
		}
	}
}
