{
	 "smiles": "CN1CCC(C(CO)C1)C1=CC=C(F)C=C1", 
	 "Tm": 372.15, 
	 "num_atms": 34, 
	 "gaussian": { 
		 "optdone": 1, 
		 "sigma_profile": "yes", 
		 "theory": "DFT", 
		 "functional": "B3LYP", 
		 "basiset": "6-31G**", 
		 "properties": { 
			 "R2extent": 5087.0646, 
			 "electric_dipole_moment_norm": 1.17117174659, 
			 "electric_quadrupole_moment_norm": 15.2195547691, 
			 "total_energy": -736.01299172, 
			 "HOMO_LUMO_gap": 0.18319, 
			 "cosmo_polarized_energy": -10.13, 
			 "cosmo_cavitation_energy": 34.19, 
			 "cosmo_dispersion_energy": -24.43, 
			 "cosmo_repulsion_energy": 1.88, 
			 "cosmo_total_nonelectrostatic_energy": 11.64, 
			 "SMD_solvation_energy": 3.67 
		},
		"coords": [
			{
				"x": 0.1269606824,
				"y": 2.2850364746,
				"z": -1.6672558552,
				"element": "C" 
			},
			{
				"x": 1.2559662673,
				"y": 1.8231739811,
				"z": -0.8745421913,
				"element": "N" 
			},
			{
				"x": 1.0746843104,
				"y": 1.9154330184,
				"z": 0.5664124144,
				"element": "C" 
			},
			{
				"x": 0.1216598227,
				"y": 0.8433865673,
				"z": 1.1681546898,
				"element": "C" 
			},
			{
				"x": 0.0344503464,
				"y": -0.4091582195,
				"z": 0.2622815077,
				"element": "C" 
			},
			{
				"x": 1.3923233637,
				"y": -0.708029673,
				"z": -0.4359805514,
				"element": "C" 
			},
			{
				"x": 2.4876957048,
				"y": -1.1804545114,
				"z": 0.5234211558,
				"element": "C" 
			},
			{
				"x": 3.6048665485,
				"y": -1.5708629072,
				"z": -0.2718102452,
				"element": "O" 
			},
			{
				"x": 1.8512553386,
				"y": 0.5394927948,
				"z": -1.2666005312,
				"element": "C" 
			},
			{
				"x": -0.5897169394,
				"y": -1.6314192021,
				"z": 0.9270394214,
				"element": "C" 
			},
			{
				"x": -0.3662555817,
				"y": -1.9844947936,
				"z": 2.2664137919,
				"element": "C" 
			},
			{
				"x": -0.9393380786,
				"y": -3.1276960007,
				"z": 2.8268479501,
				"element": "C" 
			},
			{
				"x": -1.7484025704,
				"y": -3.9297498591,
				"z": 2.0327843002,
				"element": "C" 
			},
			{
				"x": -2.309463933,
				"y": -5.0354766498,
				"z": 2.5684764716,
				"element": "F" 
			},
			{
				"x": -1.9988281983,
				"y": -3.6190033572,
				"z": 0.7016850727,
				"element": "C" 
			},
			{
				"x": -1.4171179509,
				"y": -2.4715179216,
				"z": 0.1646137247,
				"element": "C" 
			},
			{
				"x": -0.804111628,
				"y": 1.6951574563,
				"z": -1.5750222708,
				"element": "H" 
			},
			{
				"x": -0.1119757941,
				"y": 3.3162451165,
				"z": -1.3824241527,
				"element": "H" 
			},
			{
				"x": 0.405603054,
				"y": 2.2933895328,
				"z": -2.7262240339,
				"element": "H" 
			},
			{
				"x": 0.7205923285,
				"y": 2.9217689208,
				"z": 0.8168076074,
				"element": "H" 
			},
			{
				"x": 2.0679342368,
				"y": 1.8148537517,
				"z": 1.0244908175,
				"element": "H" 
			},
			{
				"x": 0.4742502607,
				"y": 0.5861266641,
				"z": 2.1730584355,
				"element": "H" 
			},
			{
				"x": -0.8887140274,
				"y": 1.2470966727,
				"z": 1.2987176657,
				"element": "H" 
			},
			{
				"x": -0.6430656855,
				"y": -0.149071841,
				"z": -0.5589636028,
				"element": "H" 
			},
			{
				"x": 1.2351572588,
				"y": -1.5431856917,
				"z": -1.1294600337,
				"element": "H" 
			},
			{
				"x": 2.7670330721,
				"y": -0.3734574034,
				"z": 1.2208884485,
				"element": "H" 
			},
			{
				"x": 2.1209577825,
				"y": -2.0248709042,
				"z": 1.1237940387,
				"element": "H" 
			},
			{
				"x": 4.3255780805,
				"y": -1.8149775221,
				"z": 0.321333903,
				"element": "H" 
			},
			{
				"x": 2.9434747595,
				"y": 0.6113854725,
				"z": -1.1867790997,
				"element": "H" 
			},
			{
				"x": 1.6303855581,
				"y": 0.3767414719,
				"z": -2.3256354351,
				"element": "H" 
			},
			{
				"x": 0.26106123,
				"y": -1.3623235909,
				"z": 2.8967962892,
				"element": "H" 
			},
			{
				"x": -0.7684325045,
				"y": -3.3983032293,
				"z": 3.8633909645,
				"element": "H" 
			},
			{
				"x": -2.6409466599,
				"y": -4.2631867024,
				"z": 0.1105465819,
				"element": "H" 
			},
			{
				"x": -1.6137204546,
				"y": -2.2201479156,
				"z": -0.8748572489,
				"element": "H" 
			}
		],
		 "valence_orbital": [ 
			{
				"type": "occ",
				"energy": -0.30247,
				"method": "rhf"
			},
			{
				"type": "occ",
				"energy": -0.26751,
				"method": "rhf"
			},
			{
				"type": "occ",
				"energy": -0.25736,
				"method": "rhf"
			},
			{
				"type": "occ",
				"energy": -0.23466,
				"method": "rhf"
			},
			{
				"type": "occ",
				"energy": -0.19402,
				"method": "rhf"
			},
			{
				"type": "unocc",
				"energy": -0.01083,
				"method": "rhf"
			},
			{
				"type": "unocc",
				"energy": 0.00234,
				"method": "rhf"
			},
			{
				"type": "unocc",
				"energy": 0.06953,
				"method": "rhf"
			},
			{
				"type": "unocc",
				"energy": 0.0751,
				"method": "rhf"
			},
			{
				"type": "unocc",
				"energy": 0.08825,
				"method": "rhf"
			}
		],
		"cosmo_sigma_profile": { 
			"-0.025": 0.0,
			"-0.024": 0.0,
			"-0.023": 0.0,
			"-0.022": 0.0,
			"-0.021": 0.0,
			"-0.02": 0.0,
			"-0.019": 0.0,
			"-0.018": 0.0,
			"-0.017": 0.0,
			"-0.016": 0.166673729709,
			"-0.015": 1.09158287656,
			"-0.014": 1.10803979303,
			"-0.013": 0.621460716541,
			"-0.012": 0.748045372324,
			"-0.011": 0.874218794118,
			"-0.01": 0.79813531608,
			"-0.009": 1.15347126235,
			"-0.008": 0.748518355376,
			"-0.007": 2.61517164504,
			"-0.006": 6.97784907559,
			"-0.005": 11.1800788092,
			"-0.004": 16.9701024603,
			"-0.003": 30.5342104651,
			"-0.002": 31.4653726314,
			"-0.001": 26.7253584334,
			"0.0": 28.184085265,
			"0.001": 20.7383220144,
			"0.002": 15.6659119538,
			"0.003": 14.5813208702,
			"0.004": 19.5199139753,
			"0.005": 14.2098127656,
			"0.006": 2.52048003057,
			"0.007": 2.71313317952,
			"0.008": 2.25300038477,
			"0.009": 2.07627391471,
			"0.01": 1.98366161778,
			"0.011": 1.53374956225,
			"0.012": 2.19323341276,
			"0.013": 1.87905506283,
			"0.014": 2.05112685495,
			"0.015": 0.540516034189,
			"0.016": 0.483782175488,
			"0.017": 0.113094896772,
			"0.018": 0.0,
			"0.019": 0.0,
			"0.02": 0.0,
			"0.021": 0.0,
			"0.022": 0.0,
			"0.023": 0.0,
			"0.024": 0.0,
			"0.025": 0.0
		}
	}
}
