{
	 "smiles": "CC(N)CN1C=NC2=C(C=NN2C)C1=O", 
	 "Tm": 422.15, 
	 "num_atms": 28, 
	 "gaussian": { 
		 "optdone": 1, 
		 "sigma_profile": "yes", 
		 "theory": "DFT", 
		 "functional": "B3LYP", 
		 "basiset": "6-31G**", 
		 "properties": { 
			 "R2extent": 3862.4436, 
			 "electric_dipole_moment_norm": 4.70988997961, 
			 "electric_quadrupole_moment_norm": 11.7946597221, 
			 "total_energy": -699.777474131, 
			 "HOMO_LUMO_gap": 0.19546, 
			 "cosmo_polarized_energy": -17.42, 
			 "cosmo_cavitation_energy": 31.21, 
			 "cosmo_dispersion_energy": -22.49, 
			 "cosmo_repulsion_energy": 1.75, 
			 "cosmo_total_nonelectrostatic_energy": 10.47, 
			 "SMD_solvation_energy": 2.93 
		},
		"coords": [
			{
				"x": 0.3145051584,
				"y": -3.3956406965,
				"z": 1.2260363398,
				"element": "C" 
			},
			{
				"x": -0.3270852598,
				"y": -3.2903384204,
				"z": -0.1577577282,
				"element": "C" 
			},
			{
				"x": -0.911707373,
				"y": -4.5849781323,
				"z": -0.5220452358,
				"element": "N" 
			},
			{
				"x": -1.475984418,
				"y": -2.2625418847,
				"z": -0.1994134009,
				"element": "C" 
			},
			{
				"x": -1.0352565098,
				"y": -0.873888108,
				"z": 0.0012186714,
				"element": "N" 
			},
			{
				"x": -0.4777844426,
				"y": -0.1932688317,
				"z": -1.0497795144,
				"element": "C" 
			},
			{
				"x": -0.0325406549,
				"y": 1.0309317307,
				"z": -1.0386660481,
				"element": "N" 
			},
			{
				"x": -0.1744753501,
				"y": 1.62800299,
				"z": 0.1792461658,
				"element": "C" 
			},
			{
				"x": -0.7331481574,
				"y": 1.0657349462,
				"z": 1.3333410748,
				"element": "C" 
			},
			{
				"x": -0.6505813309,
				"y": 2.0922812124,
				"z": 2.305034962,
				"element": "C" 
			},
			{
				"x": -0.0927754867,
				"y": 3.1856265103,
				"z": 1.8000214902,
				"element": "N" 
			},
			{
				"x": 0.1953810393,
				"y": 2.8928246846,
				"z": 0.4984719592,
				"element": "N" 
			},
			{
				"x": 0.819773669,
				"y": 3.8795865003,
				"z": -0.3603684091,
				"element": "C" 
			},
			{
				"x": -1.2206398713,
				"y": -0.2878057937,
				"z": 1.3065852798,
				"element": "C" 
			},
			{
				"x": -1.730855085,
				"y": -0.9294940258,
				"z": 2.2134945172,
				"element": "O" 
			},
			{
				"x": 0.7372706224,
				"y": -2.4391844895,
				"z": 1.5426524706,
				"element": "H" 
			},
			{
				"x": -0.4258061631,
				"y": -3.7063308697,
				"z": 1.9679741136,
				"element": "H" 
			},
			{
				"x": 1.1276388492,
				"y": -4.1305869134,
				"z": 1.2126232086,
				"element": "H" 
			},
			{
				"x": 0.450422915,
				"y": -2.9526711752,
				"z": -0.8702724108,
				"element": "H" 
			},
			{
				"x": -0.2320615106,
				"y": -5.326912592,
				"z": -0.3777809302,
				"element": "H" 
			},
			{
				"x": -1.1582871987,
				"y": -4.604213557,
				"z": -1.5090002652,
				"element": "H" 
			},
			{
				"x": -1.98676318,
				"y": -2.3196821705,
				"z": -1.1671332312,
				"element": "H" 
			},
			{
				"x": -2.1980772196,
				"y": -2.4878233791,
				"z": 0.5850810165,
				"element": "H" 
			},
			{
				"x": -0.4193705046,
				"y": -0.7566261831,
				"z": -1.9785001047,
				"element": "H" 
			},
			{
				"x": -0.9725573825,
				"y": 2.0718974627,
				"z": 3.3367698353,
				"element": "H" 
			},
			{
				"x": 0.1858219582,
				"y": 4.7668844158,
				"z": -0.4343089597,
				"element": "H" 
			},
			{
				"x": 1.7929036155,
				"y": 4.1685387052,
				"z": 0.0450613825,
				"element": "H" 
			},
			{
				"x": 0.9475392716,
				"y": 3.4324780641,
				"z": -1.3466862489,
				"element": "H" 
			}
		],
		 "valence_orbital": [ 
			{
				"type": "occ",
				"energy": -0.28784,
				"method": "rhf"
			},
			{
				"type": "occ",
				"energy": -0.26265,
				"method": "rhf"
			},
			{
				"type": "occ",
				"energy": -0.25676,
				"method": "rhf"
			},
			{
				"type": "occ",
				"energy": -0.24742,
				"method": "rhf"
			},
			{
				"type": "occ",
				"energy": -0.22902,
				"method": "rhf"
			},
			{
				"type": "unocc",
				"energy": -0.03356,
				"method": "rhf"
			},
			{
				"type": "unocc",
				"energy": -0.00843,
				"method": "rhf"
			},
			{
				"type": "unocc",
				"energy": 0.04034,
				"method": "rhf"
			},
			{
				"type": "unocc",
				"energy": 0.06566,
				"method": "rhf"
			},
			{
				"type": "unocc",
				"energy": 0.09519,
				"method": "rhf"
			}
		],
		"cosmo_sigma_profile": { 
			"-0.025": 0.0,
			"-0.024": 0.0,
			"-0.023": 0.0,
			"-0.022": 0.0,
			"-0.021": 0.0,
			"-0.02": 0.0,
			"-0.019": 0.0,
			"-0.018": 0.0,
			"-0.017": 0.0,
			"-0.016": 0.0,
			"-0.015": 0.0,
			"-0.014": 0.0,
			"-0.013": 0.0,
			"-0.012": 0.0,
			"-0.011": 0.0344094205307,
			"-0.01": 3.6297734239,
			"-0.009": 6.63472461085,
			"-0.008": 7.76405973862,
			"-0.007": 9.14486001343,
			"-0.006": 13.2059514481,
			"-0.005": 12.3858579216,
			"-0.004": 17.934625594,
			"-0.003": 26.6535525883,
			"-0.002": 21.0949004691,
			"-0.001": 18.1147449151,
			"0.0": 17.5078558244,
			"0.001": 15.6599859606,
			"0.002": 11.5933623413,
			"0.003": 8.74845359877,
			"0.004": 6.00941000263,
			"0.005": 6.21455475003,
			"0.006": 4.30451989546,
			"0.007": 5.7087924801,
			"0.008": 4.4941599251,
			"0.009": 4.3660324579,
			"0.01": 4.99930148936,
			"0.011": 3.66334734217,
			"0.012": 5.97240444577,
			"0.013": 5.86782292441,
			"0.014": 1.8091678396,
			"0.015": 0.786588114126,
			"0.016": 0.758316323225,
			"0.017": 0.732155242098,
			"0.018": 0.335250865699,
			"0.019": 0.331617399559,
			"0.02": 0.00273732815441,
			"0.021": 0.0,
			"0.022": 0.0,
			"0.023": 0.0,
			"0.024": 0.0,
			"0.025": 0.0
		}
	}
}
