{
	 "smiles": "CNC(=O)C1=CC(=CC(=C1)[N+]([O-])=O)[N+]([O-])=O", 
	 "Tm": 421.15, 
	 "num_atms": 23, 
	 "gaussian": { 
		 "optdone": 1, 
		 "sigma_profile": "yes", 
		 "theory": "DFT", 
		 "functional": "B3LYP", 
		 "basiset": "6-31G**", 
		 "properties": { 
			 "R2extent": 4053.3915, 
			 "electric_dipole_moment_norm": 5.37170172106, 
			 "electric_quadrupole_moment_norm": 19.573421659, 
			 "total_energy": -849.245392953, 
			 "HOMO_LUMO_gap": 0.15456, 
			 "cosmo_polarized_energy": -18.21, 
			 "cosmo_cavitation_energy": 29.78, 
			 "cosmo_dispersion_energy": -21.12, 
			 "cosmo_repulsion_energy": 1.65, 
			 "cosmo_total_nonelectrostatic_energy": 10.31, 
			 "SMD_solvation_energy": 10.05 
		},
		"coords": [
			{
				"x": 0.4603082686,
				"y": -3.6891080494,
				"z": -0.9256622469,
				"element": "C" 
			},
			{
				"x": 0.4121841825,
				"y": -3.6748510305,
				"z": 0.5312480677,
				"element": "N" 
			},
			{
				"x": 0.1212843121,
				"y": -2.6454007101,
				"z": 1.3819097466,
				"element": "C" 
			},
			{
				"x": -0.1835741162,
				"y": -2.8424883776,
				"z": 2.5531281084,
				"element": "O" 
			},
			{
				"x": 0.2072590018,
				"y": -1.2272080687,
				"z": 0.8681486555,
				"element": "C" 
			},
			{
				"x": -0.6852759109,
				"y": -0.2994714598,
				"z": 1.4212132098,
				"element": "C" 
			},
			{
				"x": -0.6005464924,
				"y": 1.0356304045,
				"z": 1.0437557763,
				"element": "C" 
			},
			{
				"x": 0.3642155643,
				"y": 1.5031489807,
				"z": 0.1565332426,
				"element": "C" 
			},
			{
				"x": 1.2537624748,
				"y": 0.5666513216,
				"z": -0.353185109,
				"element": "C" 
			},
			{
				"x": 1.1931691065,
				"y": -0.7859175204,
				"z": -0.0191938931,
				"element": "C" 
			},
			{
				"x": 2.3036876265,
				"y": 1.0209474738,
				"z": -1.2869032452,
				"element": "N" 
			},
			{
				"x": 2.336436828,
				"y": 2.2166369843,
				"z": -1.562390129,
				"element": "O" 
			},
			{
				"x": 3.0721982469,
				"y": 0.1684833595,
				"z": -1.7281735815,
				"element": "O" 
			},
			{
				"x": -1.5626555664,
				"y": 2.0037961979,
				"z": 1.611566271,
				"element": "N" 
			},
			{
				"x": -1.4438731819,
				"y": 3.1784834193,
				"z": 1.2727147919,
				"element": "O" 
			},
			{
				"x": -2.4147276235,
				"y": 1.5665688566,
				"z": 2.3795852141,
				"element": "O" 
			},
			{
				"x": 1.4870322947,
				"y": -3.717112072,
				"z": -1.3102231141,
				"element": "H" 
			},
			{
				"x": -0.0414315093,
				"y": -2.8116556839,
				"z": -1.3366026679,
				"element": "H" 
			},
			{
				"x": -0.0647982927,
				"y": -4.574569913,
				"z": -1.2943611271,
				"element": "H" 
			},
			{
				"x": 0.3594000172,
				"y": -4.5701497773,
				"z": 1.0002760294,
				"element": "H" 
			},
			{
				"x": -1.4250355654,
				"y": -0.6198455747,
				"z": 2.1439582757,
				"element": "H" 
			},
			{
				"x": 0.4216865213,
				"y": 2.5475545831,
				"z": -0.1178473404,
				"element": "H" 
			},
			{
				"x": 1.9299938135,
				"y": -1.4568233438,
				"z": -0.4409949349,
				"element": "H" 
			}
		],
		 "valence_orbital": [ 
			{
				"type": "occ",
				"energy": -0.31475,
				"method": "rhf"
			},
			{
				"type": "occ",
				"energy": -0.3115,
				"method": "rhf"
			},
			{
				"type": "occ",
				"energy": -0.31044,
				"method": "rhf"
			},
			{
				"type": "occ",
				"energy": -0.28118,
				"method": "rhf"
			},
			{
				"type": "occ",
				"energy": -0.2716,
				"method": "rhf"
			},
			{
				"type": "unocc",
				"energy": -0.11704,
				"method": "rhf"
			},
			{
				"type": "unocc",
				"energy": -0.10799,
				"method": "rhf"
			},
			{
				"type": "unocc",
				"energy": -0.06215,
				"method": "rhf"
			},
			{
				"type": "unocc",
				"energy": -0.01383,
				"method": "rhf"
			},
			{
				"type": "unocc",
				"energy": 0.02763,
				"method": "rhf"
			}
		],
		"cosmo_sigma_profile": { 
			"-0.025": 0.0,
			"-0.024": 0.0,
			"-0.023": 0.0,
			"-0.022": 0.0,
			"-0.021": 0.0,
			"-0.02": 0.0,
			"-0.019": 0.0,
			"-0.018": 0.0,
			"-0.017": 0.0,
			"-0.016": 0.0,
			"-0.015": 0.0861811050081,
			"-0.014": 1.04744922294,
			"-0.013": 1.08968590642,
			"-0.012": 1.04257625234,
			"-0.011": 1.02795610686,
			"-0.01": 1.03749525156,
			"-0.009": 2.42229562856,
			"-0.008": 5.55878813399,
			"-0.007": 9.25212581902,
			"-0.006": 16.911464087,
			"-0.005": 21.104042698,
			"-0.004": 25.7738374556,
			"-0.003": 25.3889706814,
			"-0.002": 14.1605396231,
			"-0.001": 7.98986105857,
			"0.0": 7.71968154219,
			"0.001": 7.07169507936,
			"0.002": 6.23234400355,
			"0.003": 7.4044138835,
			"0.004": 7.09840641774,
			"0.005": 7.87198834679,
			"0.006": 14.4510276264,
			"0.007": 17.5006694831,
			"0.008": 10.0499592561,
			"0.009": 6.37091238484,
			"0.01": 2.05434747002,
			"0.011": 1.98452843918,
			"0.012": 2.42160108689,
			"0.013": 5.40977785974,
			"0.014": 1.17184211935,
			"0.015": 0.0,
			"0.016": 0.0,
			"0.017": 0.0,
			"0.018": 0.0,
			"0.019": 0.0,
			"0.02": 0.0,
			"0.021": 0.0,
			"0.022": 0.0,
			"0.023": 0.0,
			"0.024": 0.0,
			"0.025": 0.0
		}
	}
}
