{
	 "smiles": "COC1=C(OC)C(Cl)=C(C=C1)C(N)=O", 
	 "Tm": 439.15, 
	 "num_atms": 24, 
	 "gaussian": { 
		 "optdone": 1, 
		 "sigma_profile": "yes", 
		 "theory": "DFT", 
		 "functional": "B3LYP", 
		 "basiset": "6-31G**", 
		 "properties": { 
			 "R2extent": 3794.1972, 
			 "electric_dipole_moment_norm": 3.28935509333, 
			 "electric_quadrupole_moment_norm": 17.9355022508, 
			 "total_energy": -1089.57846495, 
			 "HOMO_LUMO_gap": 0.2025, 
			 "cosmo_polarized_energy": -12.46, 
			 "cosmo_cavitation_energy": 29.36, 
			 "cosmo_dispersion_energy": -21.4, 
			 "cosmo_repulsion_energy": 1.69, 
			 "cosmo_total_nonelectrostatic_energy": 9.66, 
			 "SMD_solvation_energy": 7.04 
		},
		"coords": [
			{
				"x": -0.2743635503,
				"y": 2.9519554403,
				"z": -0.7947137543,
				"element": "C" 
			},
			{
				"x": -0.4901490577,
				"y": 2.6406326596,
				"z": 0.5900979119,
				"element": "O" 
			},
			{
				"x": -0.1535510064,
				"y": 1.3674459376,
				"z": 0.970438168,
				"element": "C" 
			},
			{
				"x": -0.8939116393,
				"y": 0.2580836449,
				"z": 0.5199274406,
				"element": "C" 
			},
			{
				"x": -1.9360202656,
				"y": 0.4269564139,
				"z": -0.3521111621,
				"element": "O" 
			},
			{
				"x": -3.1296812523,
				"y": 0.9694822984,
				"z": 0.2358150427,
				"element": "C" 
			},
			{
				"x": -0.5322264457,
				"y": -1.030055461,
				"z": 0.9479583932,
				"element": "C" 
			},
			{
				"x": -1.5534648376,
				"y": -2.3363714266,
				"z": 0.3398137714,
				"element": "Cl" 
			},
			{
				"x": 0.5430435356,
				"y": -1.2405144827,
				"z": 1.8321607018,
				"element": "C" 
			},
			{
				"x": 1.2241780425,
				"y": -0.1015856754,
				"z": 2.2908840366,
				"element": "C" 
			},
			{
				"x": 0.8966931941,
				"y": 1.1786671888,
				"z": 1.867160471,
				"element": "C" 
			},
			{
				"x": 1.0794598456,
				"y": -2.5435987302,
				"z": 2.3985332277,
				"element": "C" 
			},
			{
				"x": 0.819627537,
				"y": -3.7037026378,
				"z": 1.737825469,
				"element": "N" 
			},
			{
				"x": 1.784996794,
				"y": -2.5258462974,
				"z": 3.4026937861,
				"element": "O" 
			},
			{
				"x": 0.7893589459,
				"y": 2.8637302101,
				"z": -1.0464722509,
				"element": "H" 
			},
			{
				"x": -0.5908482733,
				"y": 3.9885567096,
				"z": -0.9229387688,
				"element": "H" 
			},
			{
				"x": -0.8621505018,
				"y": 2.2995726691,
				"z": -1.4461365676,
				"element": "H" 
			},
			{
				"x": -2.9390058563,
				"y": 1.9555166809,
				"z": 0.6700289188,
				"element": "H" 
			},
			{
				"x": -3.523262122,
				"y": 0.2938297089,
				"z": 1.0034762347,
				"element": "H" 
			},
			{
				"x": -3.8534131452,
				"y": 1.0552349618,
				"z": -0.5764554756,
				"element": "H" 
			},
			{
				"x": 2.0314118043,
				"y": -0.269133222,
				"z": 2.9942043887,
				"element": "H" 
			},
			{
				"x": 1.4428937696,
				"y": 2.0475896285,
				"z": 2.2185845803,
				"element": "H" 
			},
			{
				"x": 1.1697917129,
				"y": -4.5474581588,
				"z": 2.1652445709,
				"element": "H" 
			},
			{
				"x": 0.174392772,
				"y": -3.7646880605,
				"z": 0.9678808659,
				"element": "H" 
			}
		],
		 "valence_orbital": [ 
			{
				"type": "occ",
				"energy": -0.27897,
				"method": "rhf"
			},
			{
				"type": "occ",
				"energy": -0.26341,
				"method": "rhf"
			},
			{
				"type": "occ",
				"energy": -0.25501,
				"method": "rhf"
			},
			{
				"type": "occ",
				"energy": -0.25083,
				"method": "rhf"
			},
			{
				"type": "occ",
				"energy": -0.24196,
				"method": "rhf"
			},
			{
				"type": "unocc",
				"energy": -0.03946,
				"method": "rhf"
			},
			{
				"type": "unocc",
				"energy": -0.0156,
				"method": "rhf"
			},
			{
				"type": "unocc",
				"energy": 0.01489,
				"method": "rhf"
			},
			{
				"type": "unocc",
				"energy": 0.06,
				"method": "rhf"
			},
			{
				"type": "unocc",
				"energy": 0.08364,
				"method": "rhf"
			}
		],
		"cosmo_sigma_profile": { 
			"-0.025": 0.0,
			"-0.024": 0.0,
			"-0.023": 0.0,
			"-0.022": 0.0,
			"-0.021": 0.0,
			"-0.02": 0.0,
			"-0.019": 0.0,
			"-0.018": 0.0,
			"-0.017": 0.0,
			"-0.016": 0.0,
			"-0.015": 0.0357071384164,
			"-0.014": 0.928922793117,
			"-0.013": 1.00834747454,
			"-0.012": 1.32998475877,
			"-0.011": 1.52843843129,
			"-0.01": 2.23621502884,
			"-0.009": 2.34789361973,
			"-0.008": 1.42971422988,
			"-0.007": 3.02077158724,
			"-0.006": 8.58460631702,
			"-0.005": 14.5556569476,
			"-0.004": 17.5149436985,
			"-0.003": 26.4079657436,
			"-0.002": 21.2114015587,
			"-0.001": 16.9021153717,
			"0.0": 20.6334654645,
			"0.001": 18.9838456563,
			"0.002": 16.8217711279,
			"0.003": 13.9064292399,
			"0.004": 9.34528698049,
			"0.005": 6.23963676992,
			"0.006": 4.30532043206,
			"0.007": 2.43716269205,
			"0.008": 4.10158612638,
			"0.009": 3.32351548834,
			"0.01": 3.62429876129,
			"0.011": 2.9484296274,
			"0.012": 2.01936825212,
			"0.013": 4.57866709333,
			"0.014": 3.1987918313,
			"0.015": 0.225066171701,
			"0.016": 0.0,
			"0.017": 0.0,
			"0.018": 0.0,
			"0.019": 0.0,
			"0.02": 0.0,
			"0.021": 0.0,
			"0.022": 0.0,
			"0.023": 0.0,
			"0.024": 0.0,
			"0.025": 0.0
		}
	}
}
