{
	 "smiles": "OC1(CCNCC1)C1=CC(=CC=C1)C(F)(F)F", 
	 "Tm": 366.15, 
	 "num_atms": 31, 
	 "gaussian": { 
		 "optdone": 1, 
		 "sigma_profile": "yes", 
		 "theory": "DFT", 
		 "functional": "B3LYP", 
		 "basiset": "6-31G**", 
		 "properties": { 
			 "R2extent": 4483.9272, 
			 "electric_dipole_moment_norm": 2.44755736399, 
			 "electric_quadrupole_moment_norm": 16.3230015622, 
			 "total_energy": -895.205465118, 
			 "HOMO_LUMO_gap": 0.20175, 
			 "cosmo_polarized_energy": -8.86, 
			 "cosmo_cavitation_energy": 33.24, 
			 "cosmo_dispersion_energy": -23.26, 
			 "cosmo_repulsion_energy": 1.74, 
			 "cosmo_total_nonelectrostatic_energy": 11.72, 
			 "SMD_solvation_energy": 5.35 
		},
		"coords": [
			{
				"x": 0.7528237401,
				"y": 0.8261927396,
				"z": 3.3852023249,
				"element": "O" 
			},
			{
				"x": 1.3437441063,
				"y": 0.6147583054,
				"z": 2.0942905181,
				"element": "C" 
			},
			{
				"x": 1.9376401695,
				"y": 1.9910179679,
				"z": 1.7280304427,
				"element": "C" 
			},
			{
				"x": 2.790552582,
				"y": 1.9746198347,
				"z": 0.4482860024,
				"element": "C" 
			},
			{
				"x": 3.5278952372,
				"y": 0.7058111285,
				"z": 0.3157420788,
				"element": "N" 
			},
			{
				"x": 3.822986147,
				"y": 0.0649096168,
				"z": 1.5950056262,
				"element": "C" 
			},
			{
				"x": 2.5032156755,
				"y": -0.429672148,
				"z": 2.2131562116,
				"element": "C" 
			},
			{
				"x": 0.2558653506,
				"y": 0.2031958602,
				"z": 1.0867158816,
				"element": "C" 
			},
			{
				"x": 0.5712938569,
				"y": -0.3984741956,
				"z": -0.1387512084,
				"element": "C" 
			},
			{
				"x": -0.4396244443,
				"y": -0.7429661377,
				"z": -1.0393203418,
				"element": "C" 
			},
			{
				"x": -1.780702189,
				"y": -0.4944156406,
				"z": -0.7380505301,
				"element": "C" 
			},
			{
				"x": -2.0993730859,
				"y": 0.114762359,
				"z": 0.4736476308,
				"element": "C" 
			},
			{
				"x": -1.0918348386,
				"y": 0.4647934168,
				"z": 1.373531447,
				"element": "C" 
			},
			{
				"x": -0.0655931663,
				"y": -1.3348698679,
				"z": -2.3710834774,
				"element": "C" 
			},
			{
				"x": 1.0218541693,
				"y": -2.1335191627,
				"z": -2.2839540654,
				"element": "F" 
			},
			{
				"x": 0.2298373931,
				"y": -0.3748252226,
				"z": -3.2806885083,
				"element": "F" 
			},
			{
				"x": -1.0686456382,
				"y": -2.0745306526,
				"z": -2.8975164046,
				"element": "F" 
			},
			{
				"x": 0.3752910071,
				"y": -0.0171035043,
				"z": 3.672676397,
				"element": "H" 
			},
			{
				"x": 2.5452931452,
				"y": 2.3003690008,
				"z": 2.5852271101,
				"element": "H" 
			},
			{
				"x": 1.1303759485,
				"y": 2.722898501,
				"z": 1.6322225814,
				"element": "H" 
			},
			{
				"x": 3.4601395521,
				"y": 2.8497601164,
				"z": 0.4765498096,
				"element": "H" 
			},
			{
				"x": 2.1482216483,
				"y": 2.094142076,
				"z": -0.4329156544,
				"element": "H" 
			},
			{
				"x": 4.3719785347,
				"y": 0.8400029407,
				"z": -0.2303623846,
				"element": "H" 
			},
			{
				"x": 4.3494059791,
				"y": 0.7266295212,
				"z": 2.3073834507,
				"element": "H" 
			},
			{
				"x": 4.486606054,
				"y": -0.786525307,
				"z": 1.4120328097,
				"element": "H" 
			},
			{
				"x": 2.2110236623,
				"y": -1.373185042,
				"z": 1.7427139737,
				"element": "H" 
			},
			{
				"x": 2.6569414673,
				"y": -0.623362927,
				"z": 3.2799388749,
				"element": "H" 
			},
			{
				"x": 1.6111068527,
				"y": -0.5774865813,
				"z": -0.3946413042,
				"element": "H" 
			},
			{
				"x": -2.557367115,
				"y": -0.7778763203,
				"z": -1.4397998078,
				"element": "H" 
			},
			{
				"x": -3.1375630017,
				"y": 0.3169100132,
				"z": 0.7207179196,
				"element": "H" 
			},
			{
				"x": -1.3431888001,
				"y": 0.9460393113,
				"z": 2.312312596,
				"element": "H" 
			}
		],
		 "valence_orbital": [ 
			{
				"type": "occ",
				"energy": -0.31589,
				"method": "rhf"
			},
			{
				"type": "occ",
				"energy": -0.2767,
				"method": "rhf"
			},
			{
				"type": "occ",
				"energy": -0.25848,
				"method": "rhf"
			},
			{
				"type": "occ",
				"energy": -0.25043,
				"method": "rhf"
			},
			{
				"type": "occ",
				"energy": -0.22147,
				"method": "rhf"
			},
			{
				"type": "unocc",
				"energy": -0.01972,
				"method": "rhf"
			},
			{
				"type": "unocc",
				"energy": -0.0106,
				"method": "rhf"
			},
			{
				"type": "unocc",
				"energy": 0.07459,
				"method": "rhf"
			},
			{
				"type": "unocc",
				"energy": 0.08405,
				"method": "rhf"
			},
			{
				"type": "unocc",
				"energy": 0.10627,
				"method": "rhf"
			}
		],
		"cosmo_sigma_profile": { 
			"-0.025": 0.0,
			"-0.024": 0.0,
			"-0.023": 0.0,
			"-0.022": 0.0,
			"-0.021": 0.0,
			"-0.02": 0.0,
			"-0.019": 0.0,
			"-0.018": 0.0,
			"-0.017": 0.0,
			"-0.016": 0.0,
			"-0.015": 0.747881062426,
			"-0.014": 0.858267593201,
			"-0.013": 0.460098799637,
			"-0.012": 0.702174627223,
			"-0.011": 1.00737458884,
			"-0.01": 2.62973901948,
			"-0.009": 2.437562933,
			"-0.008": 1.64681974075,
			"-0.007": 2.49470937516,
			"-0.006": 6.73799813426,
			"-0.005": 7.42343914505,
			"-0.004": 13.3263208437,
			"-0.003": 21.3894149095,
			"-0.002": 28.7571866616,
			"-0.001": 29.6038371753,
			"0.0": 24.2933441297,
			"0.001": 18.5829302162,
			"0.002": 21.3107280212,
			"0.003": 40.3318230465,
			"0.004": 18.275924668,
			"0.005": 4.04273382978,
			"0.006": 1.92531429843,
			"0.007": 2.46823983146,
			"0.008": 1.76901293174,
			"0.009": 1.95510159014,
			"0.01": 1.39273314962,
			"0.011": 0.762605533397,
			"0.012": 1.27715275642,
			"0.013": 1.36826824435,
			"0.014": 1.12295921339,
			"0.015": 0.00191101558218,
			"0.016": 0.0,
			"0.017": 0.0,
			"0.018": 0.0,
			"0.019": 0.0,
			"0.02": 0.0,
			"0.021": 0.0,
			"0.022": 0.0,
			"0.023": 0.0,
			"0.024": 0.0,
			"0.025": 0.0
		}
	}
}
