{
	 "smiles": "CC1=C(NC(N)=S)C=C(F)C=C1", 
	 "Tm": 395.15, 
	 "num_atms": 21, 
	 "gaussian": { 
		 "optdone": 1, 
		 "sigma_profile": "yes", 
		 "theory": "DFT", 
		 "functional": "B3LYP", 
		 "basiset": "6-31G**", 
		 "properties": { 
			 "R2extent": 3170.7075, 
			 "electric_dipole_moment_norm": 4.66567641398, 
			 "electric_quadrupole_moment_norm": 25.4338963635, 
			 "total_energy": -917.824596626, 
			 "HOMO_LUMO_gap": 0.17182, 
			 "cosmo_polarized_energy": -16.27, 
			 "cosmo_cavitation_energy": 26.98, 
			 "cosmo_dispersion_energy": -19.9, 
			 "cosmo_repulsion_energy": 1.53, 
			 "cosmo_total_nonelectrostatic_energy": 8.61, 
			 "SMD_solvation_energy": 4.35 
		},
		"coords": [
			{
				"x": 0.9793224405,
				"y": -0.7022919459,
				"z": -2.373842766,
				"element": "C" 
			},
			{
				"x": 0.8857932189,
				"y": 0.0221537147,
				"z": -1.0527341519,
				"element": "C" 
			},
			{
				"x": 0.573846382,
				"y": -0.6726065169,
				"z": 0.1385188209,
				"element": "C" 
			},
			{
				"x": 0.3901016404,
				"y": -2.0730731887,
				"z": 0.0691892597,
				"element": "N" 
			},
			{
				"x": -0.4846114745,
				"y": -2.8912853075,
				"z": 0.7384161995,
				"element": "C" 
			},
			{
				"x": -1.3991144466,
				"y": -2.2936403191,
				"z": 1.5460789134,
				"element": "N" 
			},
			{
				"x": -0.4040202694,
				"y": -4.558967047,
				"z": 0.5498134233,
				"element": "S" 
			},
			{
				"x": 0.5040938111,
				"y": 0.0085576998,
				"z": 1.3630465674,
				"element": "C" 
			},
			{
				"x": 0.7114357724,
				"y": 1.3818447854,
				"z": 1.3809178509,
				"element": "C" 
			},
			{
				"x": 0.6338897588,
				"y": 2.0266452256,
				"z": 2.5628504622,
				"element": "F" 
			},
			{
				"x": 1.0116573533,
				"y": 2.1007606716,
				"z": 0.2328062889,
				"element": "C" 
			},
			{
				"x": 1.1038697497,
				"y": 1.4007449076,
				"z": -0.9708160945,
				"element": "C" 
			},
			{
				"x": 1.0944677435,
				"y": 0.0076536885,
				"z": -3.1962195234,
				"element": "H" 
			},
			{
				"x": 1.8417851405,
				"y": -1.3815747517,
				"z": -2.4137607041,
				"element": "H" 
			},
			{
				"x": 0.0858772687,
				"y": -1.3055100177,
				"z": -2.5685837463,
				"element": "H" 
			},
			{
				"x": 0.9661498299,
				"y": -2.5857030838,
				"z": -0.5840728244,
				"element": "H" 
			},
			{
				"x": -2.1143525445,
				"y": -2.9001825754,
				"z": 1.9156157992,
				"element": "H" 
			},
			{
				"x": -1.6140713756,
				"y": -1.3110809054,
				"z": 1.4471091784,
				"element": "H" 
			},
			{
				"x": 0.3296070731,
				"y": -0.517219384,
				"z": 2.2937616777,
				"element": "H" 
			},
			{
				"x": 1.1693921582,
				"y": 3.1717783017,
				"z": 0.2874362972,
				"element": "H" 
			},
			{
				"x": 1.3401807696,
				"y": 1.9457960484,
				"z": -1.8804309282,
				"element": "H" 
			}
		],
		 "valence_orbital": [ 
			{
				"type": "occ",
				"energy": -0.31083,
				"method": "rhf"
			},
			{
				"type": "occ",
				"energy": -0.26234,
				"method": "rhf"
			},
			{
				"type": "occ",
				"energy": -0.24827,
				"method": "rhf"
			},
			{
				"type": "occ",
				"energy": -0.21394,
				"method": "rhf"
			},
			{
				"type": "occ",
				"energy": -0.20899,
				"method": "rhf"
			},
			{
				"type": "unocc",
				"energy": -0.03717,
				"method": "rhf"
			},
			{
				"type": "unocc",
				"energy": -0.01718,
				"method": "rhf"
			},
			{
				"type": "unocc",
				"energy": 0.01386,
				"method": "rhf"
			},
			{
				"type": "unocc",
				"energy": 0.06211,
				"method": "rhf"
			},
			{
				"type": "unocc",
				"energy": 0.07992,
				"method": "rhf"
			}
		],
		"cosmo_sigma_profile": { 
			"-0.025": 0.0,
			"-0.024": 0.0,
			"-0.023": 0.0,
			"-0.022": 0.0,
			"-0.021": 0.0,
			"-0.02": 0.0,
			"-0.019": 0.0,
			"-0.018": 0.0,
			"-0.017": 0.0,
			"-0.016": 0.0,
			"-0.015": 0.25874923491,
			"-0.014": 1.93452738016,
			"-0.013": 2.91769099849,
			"-0.012": 3.55611989962,
			"-0.011": 2.87892216372,
			"-0.01": 3.86564678088,
			"-0.009": 2.21672189957,
			"-0.008": 3.18522662462,
			"-0.007": 6.9035502343,
			"-0.006": 9.11289334486,
			"-0.005": 11.2476094165,
			"-0.004": 14.1741737142,
			"-0.003": 11.8066725776,
			"-0.002": 11.9519976534,
			"-0.001": 15.3245275393,
			"0.0": 15.2684306147,
			"0.001": 16.4149742448,
			"0.002": 12.9178326385,
			"0.003": 12.9297502088,
			"0.004": 17.9175203979,
			"0.005": 6.75775886667,
			"0.006": 4.26047612673,
			"0.007": 2.3436193402,
			"0.008": 3.53792889553,
			"0.009": 4.45054123107,
			"0.01": 5.12010816812,
			"0.011": 8.46746803983,
			"0.012": 5.18865660117,
			"0.013": 0.697401875802,
			"0.014": 0.0,
			"0.015": 0.0,
			"0.016": 0.0,
			"0.017": 0.0,
			"0.018": 0.0,
			"0.019": 0.0,
			"0.02": 0.0,
			"0.021": 0.0,
			"0.022": 0.0,
			"0.023": 0.0,
			"0.024": 0.0,
			"0.025": 0.0
		}
	}
}
