{
	 "smiles": "OC(=O)CCNS(=O)(=O)C1=CC=CS1", 
	 "Tm": 417.15, 
	 "num_atms": 23, 
	 "gaussian": { 
		 "optdone": 1, 
		 "sigma_profile": "yes", 
		 "theory": "DFT", 
		 "functional": "B3LYP", 
		 "basiset": "6-31G**", 
		 "properties": { 
			 "R2extent": 3964.1346, 
			 "electric_dipole_moment_norm": 4.8277889784, 
			 "electric_quadrupole_moment_norm": 32.6158210931, 
			 "total_energy": -1424.10815722, 
			 "HOMO_LUMO_gap": 0.19403, 
			 "cosmo_polarized_energy": -21.03, 
			 "cosmo_cavitation_energy": 29.67, 
			 "cosmo_dispersion_energy": -22.23, 
			 "cosmo_repulsion_energy": 1.65, 
			 "cosmo_total_nonelectrostatic_energy": 9.1, 
			 "SMD_solvation_energy": 4.76 
		},
		"coords": [
			{
				"x": -0.233238105,
				"y": 1.0226555724,
				"z": 2.929831477,
				"element": "O" 
			},
			{
				"x": 1.0505970149,
				"y": 0.6061662663,
				"z": 2.8742304367,
				"element": "C" 
			},
			{
				"x": 1.6274302471,
				"y": 0.2254163251,
				"z": 3.8645305237,
				"element": "O" 
			},
			{
				"x": 1.6833667896,
				"y": 0.600764367,
				"z": 1.4818009907,
				"element": "C" 
			},
			{
				"x": 1.1104174311,
				"y": -0.5389489601,
				"z": 0.582948498,
				"element": "C" 
			},
			{
				"x": 0.5293572295,
				"y": -0.1465966981,
				"z": -0.7082969713,
				"element": "N" 
			},
			{
				"x": -0.9474506324,
				"y": 0.6503280376,
				"z": -0.7537877454,
				"element": "S" 
			},
			{
				"x": -1.0659200939,
				"y": 1.6071037887,
				"z": 0.3680814534,
				"element": "O" 
			},
			{
				"x": -1.0935136361,
				"y": 1.1194143589,
				"z": -2.1287992324,
				"element": "O" 
			},
			{
				"x": -2.1011259058,
				"y": -0.6374847936,
				"z": -0.4129058283,
				"element": "C" 
			},
			{
				"x": -2.6630170872,
				"y": -0.9058214076,
				"z": 0.8128198835,
				"element": "C" 
			},
			{
				"x": -3.5432465945,
				"y": -2.0222458276,
				"z": 0.7603640847,
				"element": "C" 
			},
			{
				"x": -3.6278047882,
				"y": -2.5666346897,
				"z": -0.4950970682,
				"element": "C" 
			},
			{
				"x": -2.641657822,
				"y": -1.7380459542,
				"z": -1.6476435969,
				"element": "S" 
			},
			{
				"x": -0.531880374,
				"y": 1.353649834,
				"z": 2.0570556394,
				"element": "H" 
			},
			{
				"x": 1.5172617943,
				"y": 1.568269884,
				"z": 0.9981222826,
				"element": "H" 
			},
			{
				"x": 2.7572404841,
				"y": 0.4684032289,
				"z": 1.6215916063,
				"element": "H" 
			},
			{
				"x": 0.3403977757,
				"y": -1.1066036374,
				"z": 1.1144150808,
				"element": "H" 
			},
			{
				"x": 1.8997718007,
				"y": -1.2567118566,
				"z": 0.3467235655,
				"element": "H" 
			},
			{
				"x": 1.1604702111,
				"y": 0.3062279711,
				"z": -1.3652556106,
				"element": "H" 
			},
			{
				"x": -2.4477385276,
				"y": -0.3281926016,
				"z": 1.7036744799,
				"element": "H" 
			},
			{
				"x": -4.0922008004,
				"y": -2.3981268419,
				"z": 1.6153416253,
				"element": "H" 
			},
			{
				"x": -4.2297164108,
				"y": -3.4057863655,
				"z": -0.8176455744,
				"element": "H" 
			}
		],
		 "valence_orbital": [ 
			{
				"type": "occ",
				"energy": -0.30615,
				"method": "rhf"
			},
			{
				"type": "occ",
				"energy": -0.30037,
				"method": "rhf"
			},
			{
				"type": "occ",
				"energy": -0.28595,
				"method": "rhf"
			},
			{
				"type": "occ",
				"energy": -0.27268,
				"method": "rhf"
			},
			{
				"type": "occ",
				"energy": -0.2588,
				"method": "rhf"
			},
			{
				"type": "unocc",
				"energy": -0.06477,
				"method": "rhf"
			},
			{
				"type": "unocc",
				"energy": -0.0012,
				"method": "rhf"
			},
			{
				"type": "unocc",
				"energy": 0.01154,
				"method": "rhf"
			},
			{
				"type": "unocc",
				"energy": 0.02288,
				"method": "rhf"
			},
			{
				"type": "unocc",
				"energy": 0.03208,
				"method": "rhf"
			}
		],
		"cosmo_sigma_profile": { 
			"-0.025": 0.0,
			"-0.024": 0.0,
			"-0.023": 0.0,
			"-0.022": 0.0,
			"-0.021": 0.0,
			"-0.02": 0.0,
			"-0.019": 0.0,
			"-0.018": 0.0,
			"-0.017": 0.0,
			"-0.016": 0.28447404863,
			"-0.015": 1.40770440212,
			"-0.014": 1.58474146915,
			"-0.013": 1.63772300054,
			"-0.012": 1.09290389516,
			"-0.011": 1.78663325777,
			"-0.01": 3.30600166716,
			"-0.009": 4.71105755164,
			"-0.008": 7.12326990854,
			"-0.007": 14.1242045329,
			"-0.006": 16.6789598936,
			"-0.005": 14.8839745651,
			"-0.004": 13.3439427906,
			"-0.003": 12.3130712912,
			"-0.002": 11.7944719167,
			"-0.001": 10.4151036183,
			"0.0": 13.781347346,
			"0.001": 19.0805477533,
			"0.002": 17.0861721091,
			"0.003": 9.90008906794,
			"0.004": 4.75648435614,
			"0.005": 5.10653035279,
			"0.006": 5.06360045917,
			"0.007": 5.45639458526,
			"0.008": 5.75032523029,
			"0.009": 7.2772122974,
			"0.01": 10.9644993503,
			"0.011": 7.36358106887,
			"0.012": 6.55628055638,
			"0.013": 3.74972653067,
			"0.014": 0.579829325295,
			"0.015": 0.0,
			"0.016": 0.0,
			"0.017": 0.0,
			"0.018": 0.0,
			"0.019": 0.0,
			"0.02": 0.0,
			"0.021": 0.0,
			"0.022": 0.0,
			"0.023": 0.0,
			"0.024": 0.0,
			"0.025": 0.0
		}
	}
}
