{
	 "smiles": "FC1=CC=C(C=C1)S(=O)(=O)CCCl", 
	 "Tm": 342.15, 
	 "num_atms": 21, 
	 "gaussian": { 
		 "optdone": 1, 
		 "sigma_profile": "yes", 
		 "theory": "DFT", 
		 "functional": "B3LYP", 
		 "basiset": "6-31G**", 
		 "properties": { 
			 "R2extent": 4644.0785, 
			 "electric_dipole_moment_norm": 3.43532788683, 
			 "electric_quadrupole_moment_norm": 14.1695429683, 
			 "total_energy": -1418.27163831, 
			 "HOMO_LUMO_gap": 0.22954, 
			 "cosmo_polarized_energy": -14.38, 
			 "cosmo_cavitation_energy": 28.82, 
			 "cosmo_dispersion_energy": -21.03, 
			 "cosmo_repulsion_energy": 1.62, 
			 "cosmo_total_nonelectrostatic_energy": 9.4, 
			 "SMD_solvation_energy": 4.26 
		},
		"coords": [
			{
				"x": -1.9263215135,
				"y": 1.1130174112,
				"z": 3.5570384525,
				"element": "F" 
			},
			{
				"x": -1.1233396132,
				"y": 1.173339154,
				"z": 2.4821184151,
				"element": "C" 
			},
			{
				"x": -0.4356041054,
				"y": 2.3576437596,
				"z": 2.2262289179,
				"element": "C" 
			},
			{
				"x": 0.3975872599,
				"y": 2.4187406065,
				"z": 1.1122629364,
				"element": "C" 
			},
			{
				"x": 0.5151073715,
				"y": 1.3004277383,
				"z": 0.2810368046,
				"element": "C" 
			},
			{
				"x": -0.169611948,
				"y": 0.1136292018,
				"z": 0.5565688619,
				"element": "C" 
			},
			{
				"x": -1.0028079065,
				"y": 0.0477690443,
				"z": 1.6718066632,
				"element": "C" 
			},
			{
				"x": 1.5954699267,
				"y": 1.3824647213,
				"z": -1.1529504944,
				"element": "S" 
			},
			{
				"x": 1.8777092128,
				"y": 0.002054692,
				"z": -1.5812334449,
				"element": "O" 
			},
			{
				"x": 2.6739687309,
				"y": 2.3349883364,
				"z": -0.8526715223,
				"element": "O" 
			},
			{
				"x": 0.5739625599,
				"y": 2.1567512927,
				"z": -2.4578949797,
				"element": "C" 
			},
			{
				"x": -0.5178997566,
				"y": 1.2314354672,
				"z": -2.9670960961,
				"element": "C" 
			},
			{
				"x": -1.460371329,
				"y": 2.0467043412,
				"z": -4.284766972,
				"element": "Cl" 
			},
			{
				"x": -0.551432368,
				"y": 3.2002370601,
				"z": 2.8987299591,
				"element": "H" 
			},
			{
				"x": 0.9708005551,
				"y": 3.3148075506,
				"z": 0.8992225497,
				"element": "H" 
			},
			{
				"x": -0.0283587967,
				"y": -0.7496315049,
				"z": -0.0846802323,
				"element": "H" 
			},
			{
				"x": -1.5469054018,
				"y": -0.8554433136,
				"z": 1.9244377658,
				"element": "H" 
			},
			{
				"x": 0.1753789687,
				"y": 3.0870719955,
				"z": -2.0467165729,
				"element": "H" 
			},
			{
				"x": 1.2932219686,
				"y": 2.4008749882,
				"z": -3.2447005139,
				"element": "H" 
			},
			{
				"x": -0.0952487115,
				"y": 0.3194398238,
				"z": -3.3865332743,
				"element": "H" 
			},
			{
				"x": -1.2339051041,
				"y": 0.9758776339,
				"z": -2.1851072235,
				"element": "H" 
			}
		],
		 "valence_orbital": [ 
			{
				"type": "occ",
				"energy": -0.31221,
				"method": "rhf"
			},
			{
				"type": "occ",
				"energy": -0.30944,
				"method": "rhf"
			},
			{
				"type": "occ",
				"energy": -0.29386,
				"method": "rhf"
			},
			{
				"type": "occ",
				"energy": -0.29214,
				"method": "rhf"
			},
			{
				"type": "occ",
				"energy": -0.27946,
				"method": "rhf"
			},
			{
				"type": "unocc",
				"energy": -0.04992,
				"method": "rhf"
			},
			{
				"type": "unocc",
				"energy": -0.04308,
				"method": "rhf"
			},
			{
				"type": "unocc",
				"energy": -0.00273,
				"method": "rhf"
			},
			{
				"type": "unocc",
				"energy": 0.04865,
				"method": "rhf"
			},
			{
				"type": "unocc",
				"energy": 0.06898,
				"method": "rhf"
			}
		],
		"cosmo_sigma_profile": { 
			"-0.025": 0.0,
			"-0.024": 0.0,
			"-0.023": 0.0,
			"-0.022": 0.0,
			"-0.021": 0.0,
			"-0.02": 0.0,
			"-0.019": 0.0,
			"-0.018": 0.0,
			"-0.017": 0.0,
			"-0.016": 0.0,
			"-0.015": 0.0,
			"-0.014": 0.0,
			"-0.013": 0.0,
			"-0.012": 0.0,
			"-0.011": 0.0,
			"-0.01": 0.336408248838,
			"-0.009": 4.46452524769,
			"-0.008": 11.6865909009,
			"-0.007": 16.9625300269,
			"-0.006": 15.8916457036,
			"-0.005": 12.8327706937,
			"-0.004": 11.2018215445,
			"-0.003": 8.52990154869,
			"-0.002": 9.70672909441,
			"-0.001": 18.6028996656,
			"0.0": 17.0631857377,
			"0.001": 18.8619480656,
			"0.002": 12.1980994493,
			"0.003": 14.4008132636,
			"0.004": 12.5022074343,
			"0.005": 10.4444344978,
			"0.006": 8.47116329087,
			"0.007": 2.45633702731,
			"0.008": 3.4699570593,
			"0.009": 3.79237668171,
			"0.01": 6.01418903069,
			"0.011": 8.62853914938,
			"0.012": 4.09802501853,
			"0.013": 0.0,
			"0.014": 0.0,
			"0.015": 0.0,
			"0.016": 0.0,
			"0.017": 0.0,
			"0.018": 0.0,
			"0.019": 0.0,
			"0.02": 0.0,
			"0.021": 0.0,
			"0.022": 0.0,
			"0.023": 0.0,
			"0.024": 0.0,
			"0.025": 0.0
		}
	}
}
