{
	 "smiles": "BrC1=CC=C(OCCC2=CC=CC=C2)C=C1", 
	 "Tm": 323.15, 
	 "num_atms": 29, 
	 "gaussian": { 
		 "optdone": 1, 
		 "sigma_profile": "yes", 
		 "theory": "DFT", 
		 "functional": "B3LYP", 
		 "basiset": "6-31G**", 
		 "properties": { 
			 "R2extent": 9414.7953, 
			 "electric_dipole_moment_norm": 2.75630797626, 
			 "electric_quadrupole_moment_norm": 17.2074064504, 
			 "total_energy": -3187.9502883, 
			 "HOMO_LUMO_gap": 0.20595, 
			 "cosmo_polarized_energy": -8.13, 
			 "cosmo_cavitation_energy": 35.43, 
			 "cosmo_dispersion_energy": -25.63, 
			 "cosmo_repulsion_energy": 2.01, 
			 "cosmo_total_nonelectrostatic_energy": 11.8, 
			 "SMD_solvation_energy": 4.72 
		},
		"coords": [
			{
				"x": 5.2624728012,
				"y": -0.1433824993,
				"z": -3.5619423032,
				"element": "Br" 
			},
			{
				"x": 3.485078122,
				"y": -0.0064785043,
				"z": -2.8670689165,
				"element": "C" 
			},
			{
				"x": 2.9411567367,
				"y": 1.2453419051,
				"z": -2.6041537721,
				"element": "C" 
			},
			{
				"x": 1.6424252943,
				"y": 1.3494258763,
				"z": -2.0968205362,
				"element": "C" 
			},
			{
				"x": 0.8931855816,
				"y": 0.1916934283,
				"z": -1.8543526369,
				"element": "C" 
			},
			{
				"x": -0.3796646498,
				"y": 0.1793582501,
				"z": -1.3665570503,
				"element": "O" 
			},
			{
				"x": -1.007296078,
				"y": 1.4196859028,
				"z": -1.0503588738,
				"element": "C" 
			},
			{
				"x": -2.3977194766,
				"y": 1.1191915653,
				"z": -0.4863100573,
				"element": "C" 
			},
			{
				"x": -2.3811511719,
				"y": 0.4379307401,
				"z": 0.8663916885,
				"element": "C" 
			},
			{
				"x": -2.5199654471,
				"y": 1.186485158,
				"z": 2.0425296692,
				"element": "C" 
			},
			{
				"x": -2.482351859,
				"y": 0.5699775833,
				"z": 3.2944640647,
				"element": "C" 
			},
			{
				"x": -2.3058725655,
				"y": -0.8111300508,
				"z": 3.3877411325,
				"element": "C" 
			},
			{
				"x": -2.1679223349,
				"y": -1.5685133703,
				"z": 2.2225137178,
				"element": "C" 
			},
			{
				"x": -2.2054494361,
				"y": -0.9487575787,
				"z": 0.9733230344,
				"element": "C" 
			},
			{
				"x": 1.4553180119,
				"y": -1.065598907,
				"z": -2.1243177983,
				"element": "C" 
			},
			{
				"x": 2.7457860267,
				"y": -1.167448161,
				"z": -2.6287865811,
				"element": "C" 
			},
			{
				"x": 3.5211460749,
				"y": 2.1419656759,
				"z": -2.7916493225,
				"element": "H" 
			},
			{
				"x": 1.2344224463,
				"y": 2.3330555189,
				"z": -1.898647231,
				"element": "H" 
			},
			{
				"x": -0.4060169661,
				"y": 1.97053767,
				"z": -0.3139488332,
				"element": "H" 
			},
			{
				"x": -1.09227817,
				"y": 2.0357229955,
				"z": -1.957093462,
				"element": "H" 
			},
			{
				"x": -2.9348573747,
				"y": 0.5063347092,
				"z": -1.2190794945,
				"element": "H" 
			},
			{
				"x": -2.9329082132,
				"y": 2.0732919742,
				"z": -0.4151786039,
				"element": "H" 
			},
			{
				"x": -2.664870452,
				"y": 2.2627384243,
				"z": 1.9777487446,
				"element": "H" 
			},
			{
				"x": -2.5958643666,
				"y": 1.1677194375,
				"z": 4.1945947195,
				"element": "H" 
			},
			{
				"x": -2.2797409981,
				"y": -1.2944582546,
				"z": 4.360187482,
				"element": "H" 
			},
			{
				"x": -2.0326312251,
				"y": -2.6446676567,
				"z": 2.2863135836,
				"element": "H" 
			},
			{
				"x": -2.0924837788,
				"y": -1.5408423591,
				"z": 0.0701341892,
				"element": "H" 
			},
			{
				"x": 0.8619799159,
				"y": -1.9527914792,
				"z": -1.9296081728,
				"element": "H" 
			},
			{
				"x": 3.176573552,
				"y": -2.1405879938,
				"z": -2.8354683804,
				"element": "H" 
			}
		],
		 "valence_orbital": [ 
			{
				"type": "occ",
				"energy": -0.28165,
				"method": "rhf"
			},
			{
				"type": "occ",
				"energy": -0.26168,
				"method": "rhf"
			},
			{
				"type": "occ",
				"energy": -0.2488,
				"method": "rhf"
			},
			{
				"type": "occ",
				"energy": -0.24311,
				"method": "rhf"
			},
			{
				"type": "occ",
				"energy": -0.21826,
				"method": "rhf"
			},
			{
				"type": "unocc",
				"energy": -0.01231,
				"method": "rhf"
			},
			{
				"type": "unocc",
				"energy": -0.00227,
				"method": "rhf"
			},
			{
				"type": "unocc",
				"energy": -0.00146,
				"method": "rhf"
			},
			{
				"type": "unocc",
				"energy": 0.00325,
				"method": "rhf"
			},
			{
				"type": "unocc",
				"energy": 0.01266,
				"method": "rhf"
			}
		],
		"cosmo_sigma_profile": { 
			"-0.025": 0.0,
			"-0.024": 0.0,
			"-0.023": 0.0,
			"-0.022": 0.0,
			"-0.021": 0.0,
			"-0.02": 0.0,
			"-0.019": 0.0,
			"-0.018": 0.0,
			"-0.017": 0.0,
			"-0.016": 0.0,
			"-0.015": 0.0,
			"-0.014": 0.0,
			"-0.013": 0.0,
			"-0.012": 0.0,
			"-0.011": 0.0,
			"-0.01": 0.0,
			"-0.009": 0.0,
			"-0.008": 0.119615109092,
			"-0.007": 4.50424361479,
			"-0.006": 11.0888837333,
			"-0.005": 25.993254089,
			"-0.004": 29.1344126152,
			"-0.003": 25.9661943311,
			"-0.002": 19.9265130925,
			"-0.001": 17.9862000565,
			"0.0": 15.9247109376,
			"0.001": 18.0085794989,
			"0.002": 20.6578062889,
			"0.003": 27.9659483777,
			"0.004": 29.9580407516,
			"0.005": 20.9115428677,
			"0.006": 11.4756526123,
			"0.007": 5.20121873472,
			"0.008": 0.834320150681,
			"0.009": 0.154952324428,
			"0.01": 0.0,
			"0.011": 0.0,
			"0.012": 0.0,
			"0.013": 0.0,
			"0.014": 0.0,
			"0.015": 0.0,
			"0.016": 0.0,
			"0.017": 0.0,
			"0.018": 0.0,
			"0.019": 0.0,
			"0.02": 0.0,
			"0.021": 0.0,
			"0.022": 0.0,
			"0.023": 0.0,
			"0.024": 0.0,
			"0.025": 0.0
		}
	}
}
