{
	 "smiles": "OC(=O)C1=C(OC2=CC=C(F)C=C2)C=CC(Cl)=C1", 
	 "Tm": 376.15, 
	 "num_atms": 26, 
	 "gaussian": { 
		 "optdone": 1, 
		 "sigma_profile": "yes", 
		 "theory": "DFT", 
		 "functional": "B3LYP", 
		 "basiset": "6-31G**", 
		 "properties": { 
			 "R2extent": 7280.8933, 
			 "electric_dipole_moment_norm": 3.72105658382, 
			 "electric_quadrupole_moment_norm": 15.4067045198, 
			 "total_energy": -1285.89280766, 
			 "HOMO_LUMO_gap": 0.18002, 
			 "cosmo_polarized_energy": -16.58, 
			 "cosmo_cavitation_energy": 34.46, 
			 "cosmo_dispersion_energy": -24.19, 
			 "cosmo_repulsion_energy": 1.86, 
			 "cosmo_total_nonelectrostatic_energy": 12.13, 
			 "SMD_solvation_energy": 7.42 
		},
		"coords": [
			{
				"x": -4.3175203731,
				"y": 3.2369558413,
				"z": 0.7653415311,
				"element": "O" 
			},
			{
				"x": -3.145875964,
				"y": 2.6131112178,
				"z": 1.0719214669,
				"element": "C" 
			},
			{
				"x": -2.8688172339,
				"y": 2.3600915003,
				"z": 2.215956621,
				"element": "O" 
			},
			{
				"x": -2.2432441193,
				"y": 2.3413042501,
				"z": -0.1008403116,
				"element": "C" 
			},
			{
				"x": -1.5312126284,
				"y": 1.1314013709,
				"z": -0.2059079317,
				"element": "C" 
			},
			{
				"x": -1.8373329155,
				"y": 0.1450629574,
				"z": 0.6897323719,
				"element": "O" 
			},
			{
				"x": -0.8828198828,
				"y": -0.8031950114,
				"z": 1.0319454778,
				"element": "C" 
			},
			{
				"x": 0.3312736449,
				"y": -0.4242243152,
				"z": 1.6100415551,
				"element": "C" 
			},
			{
				"x": 1.2360920345,
				"y": -1.4058320205,
				"z": 2.010675555,
				"element": "C" 
			},
			{
				"x": 0.9004679369,
				"y": -2.7450618496,
				"z": 1.8352753077,
				"element": "C" 
			},
			{
				"x": 1.7753167673,
				"y": -3.6943212896,
				"z": 2.2262152164,
				"element": "F" 
			},
			{
				"x": -0.3103644484,
				"y": -3.1331984811,
				"z": 1.273009429,
				"element": "C" 
			},
			{
				"x": -1.2098271738,
				"y": -2.1481290811,
				"z": 0.8636084626,
				"element": "C" 
			},
			{
				"x": -0.6256117615,
				"y": 0.9431078524,
				"z": -1.2555316116,
				"element": "C" 
			},
			{
				"x": -0.4165058673,
				"y": 1.9492918998,
				"z": -2.1958077362,
				"element": "C" 
			},
			{
				"x": -1.126131103,
				"y": 3.1453629601,
				"z": -2.0952756506,
				"element": "C" 
			},
			{
				"x": -0.8650172147,
				"y": 4.4181700414,
				"z": -3.2752646729,
				"element": "Cl" 
			},
			{
				"x": -2.0381963813,
				"y": 3.3408199262,
				"z": -1.0620608013,
				"element": "C" 
			},
			{
				"x": -4.4471367933,
				"y": 3.2392559488,
				"z": -0.1938635186,
				"element": "H" 
			},
			{
				"x": 0.5536501429,
				"y": 0.6272866741,
				"z": 1.7564185855,
				"element": "H" 
			},
			{
				"x": 2.18541811,
				"y": -1.1465789701,
				"z": 2.4662441871,
				"element": "H" 
			},
			{
				"x": -0.5360182593,
				"y": -4.1877100682,
				"z": 1.1594120878,
				"element": "H" 
			},
			{
				"x": -2.1660838735,
				"y": -2.4107885767,
				"z": 0.4243224901,
				"element": "H" 
			},
			{
				"x": -0.0919819923,
				"y": 0.0032843512,
				"z": -1.339096701,
				"element": "H" 
			},
			{
				"x": 0.287057898,
				"y": 1.8010048006,
				"z": -3.0075268355,
				"element": "H" 
			},
			{
				"x": -2.5581785492,
				"y": 4.2896280711,
				"z": -0.9779445743,
				"element": "H" 
			}
		],
		 "valence_orbital": [ 
			{
				"type": "occ",
				"energy": -0.29032,
				"method": "rhf"
			},
			{
				"type": "occ",
				"energy": -0.27608,
				"method": "rhf"
			},
			{
				"type": "occ",
				"energy": -0.27428,
				"method": "rhf"
			},
			{
				"type": "occ",
				"energy": -0.25675,
				"method": "rhf"
			},
			{
				"type": "occ",
				"energy": -0.23566,
				"method": "rhf"
			},
			{
				"type": "unocc",
				"energy": -0.05564,
				"method": "rhf"
			},
			{
				"type": "unocc",
				"energy": -0.03151,
				"method": "rhf"
			},
			{
				"type": "unocc",
				"energy": -0.02442,
				"method": "rhf"
			},
			{
				"type": "unocc",
				"energy": -0.00628,
				"method": "rhf"
			},
			{
				"type": "unocc",
				"energy": 0.01345,
				"method": "rhf"
			}
		],
		"cosmo_sigma_profile": { 
			"-0.025": 0.0,
			"-0.024": 0.0,
			"-0.023": 0.0,
			"-0.022": 0.0,
			"-0.021": 0.0,
			"-0.02": 0.0,
			"-0.019": 0.365509868806,
			"-0.018": 0.876140297012,
			"-0.017": 1.31380614548,
			"-0.016": 0.753719349914,
			"-0.015": 0.878643464717,
			"-0.014": 0.817775047384,
			"-0.013": 1.00517902348,
			"-0.012": 1.14453033115,
			"-0.011": 1.50238618033,
			"-0.01": 1.12394517511,
			"-0.009": 1.84725830748,
			"-0.008": 7.77185016295,
			"-0.007": 12.1675061787,
			"-0.006": 13.2012993953,
			"-0.005": 13.4044233614,
			"-0.004": 11.9200190455,
			"-0.003": 13.3615248269,
			"-0.002": 14.4248157009,
			"-0.001": 16.2519584777,
			"0.0": 24.7280821339,
			"0.001": 30.502733206,
			"0.002": 26.7065009191,
			"0.003": 21.6756964905,
			"0.004": 21.7572747472,
			"0.005": 9.1320843242,
			"0.006": 2.88382990671,
			"0.007": 3.36750561995,
			"0.008": 3.89643752853,
			"0.009": 3.88883681054,
			"0.01": 6.05393565126,
			"0.011": 6.84219229558,
			"0.012": 3.71604914013,
			"0.013": 0.569225704193,
			"0.014": 0.0,
			"0.015": 0.0,
			"0.016": 0.0,
			"0.017": 0.0,
			"0.018": 0.0,
			"0.019": 0.0,
			"0.02": 0.0,
			"0.021": 0.0,
			"0.022": 0.0,
			"0.023": 0.0,
			"0.024": 0.0,
			"0.025": 0.0
		}
	}
}
