{
	 "smiles": "CN1N=C(C)C=C1N", 
	 "Tm": 348.15, 
	 "num_atms": 17, 
	 "gaussian": { 
		 "optdone": 1, 
		 "sigma_profile": "yes", 
		 "theory": "DFT", 
		 "functional": "B3LYP", 
		 "basiset": "6-31G**", 
		 "properties": { 
			 "R2extent": 1581.506, 
			 "electric_dipole_moment_norm": 3.06552013368, 
			 "electric_quadrupole_moment_norm": 12.7365829479, 
			 "total_energy": -360.193676618, 
			 "HOMO_LUMO_gap": 0.24526, 
			 "cosmo_polarized_energy": -11.42, 
			 "cosmo_cavitation_energy": 20.35, 
			 "cosmo_dispersion_energy": -15.21, 
			 "cosmo_repulsion_energy": 1.29, 
			 "cosmo_total_nonelectrostatic_energy": 6.44, 
			 "SMD_solvation_energy": 3.01 
		},
		"coords": [
			{
				"x": 3.2634986012,
				"y": -1.9241459673,
				"z": -0.5474981934,
				"element": "C" 
			},
			{
				"x": 2.2364341042,
				"y": -0.9428593768,
				"z": -0.277559889,
				"element": "N" 
			},
			{
				"x": 0.9489060423,
				"y": -1.3352171378,
				"z": -0.0580984306,
				"element": "N" 
			},
			{
				"x": 0.2748265212,
				"y": -0.2047895736,
				"z": 0.1487387678,
				"element": "C" 
			},
			{
				"x": -1.2007537653,
				"y": -0.244529705,
				"z": 0.4089586149,
				"element": "C" 
			},
			{
				"x": 1.1274858592,
				"y": 0.926359455,
				"z": 0.0909254041,
				"element": "C" 
			},
			{
				"x": 2.3840717886,
				"y": 0.4082351632,
				"z": -0.1790828395,
				"element": "C" 
			},
			{
				"x": 3.6274346232,
				"y": 1.014870528,
				"z": -0.4173014315,
				"element": "N" 
			},
			{
				"x": 2.7956860376,
				"y": -2.7759677699,
				"z": -1.0423109266,
				"element": "H" 
			},
			{
				"x": 3.749824628,
				"y": -2.2757887604,
				"z": 0.3714402819,
				"element": "H" 
			},
			{
				"x": 4.0163646262,
				"y": -1.4830080454,
				"z": -1.2057122716,
				"element": "H" 
			},
			{
				"x": -1.4508789554,
				"y": 0.1959737599,
				"z": 1.3810179932,
				"element": "H" 
			},
			{
				"x": -1.7583784176,
				"y": 0.3121539707,
				"z": -0.3530928692,
				"element": "H" 
			},
			{
				"x": -1.5483035433,
				"y": -1.2801937437,
				"z": 0.4011239817,
				"element": "H" 
			},
			{
				"x": 0.8692304012,
				"y": 1.966228777,
				"z": 0.2314734063,
				"element": "H" 
			},
			{
				"x": 3.5490762934,
				"y": 2.0244823674,
				"z": -0.4097794688,
				"element": "H" 
			},
			{
				"x": 4.3432751553,
				"y": 0.7359960586,
				"z": 0.2472578703,
				"element": "H" 
			}
		],
		 "valence_orbital": [ 
			{
				"type": "occ",
				"energy": -0.36176,
				"method": "rhf"
			},
			{
				"type": "occ",
				"energy": -0.30564,
				"method": "rhf"
			},
			{
				"type": "occ",
				"energy": -0.26612,
				"method": "rhf"
			},
			{
				"type": "occ",
				"energy": -0.2226,
				"method": "rhf"
			},
			{
				"type": "occ",
				"energy": -0.2028,
				"method": "rhf"
			},
			{
				"type": "unocc",
				"energy": 0.04246,
				"method": "rhf"
			},
			{
				"type": "unocc",
				"energy": 0.07166,
				"method": "rhf"
			},
			{
				"type": "unocc",
				"energy": 0.08542,
				"method": "rhf"
			},
			{
				"type": "unocc",
				"energy": 0.11917,
				"method": "rhf"
			},
			{
				"type": "unocc",
				"energy": 0.13162,
				"method": "rhf"
			}
		],
		"cosmo_sigma_profile": { 
			"-0.025": 0.0,
			"-0.024": 0.0,
			"-0.023": 0.0,
			"-0.022": 0.0,
			"-0.021": 0.0,
			"-0.02": 0.0,
			"-0.019": 0.0,
			"-0.018": 0.0,
			"-0.017": 0.0,
			"-0.016": 0.0,
			"-0.015": 0.0,
			"-0.014": 0.0,
			"-0.013": 0.67418623664,
			"-0.012": 3.04936608341,
			"-0.011": 2.59002262872,
			"-0.01": 3.1816582386,
			"-0.009": 3.15368231725,
			"-0.008": 2.1239916759,
			"-0.007": 2.52369066193,
			"-0.006": 4.0877666779,
			"-0.005": 10.0709703457,
			"-0.004": 12.2196721348,
			"-0.003": 14.9065602871,
			"-0.002": 14.9095904776,
			"-0.001": 11.5673828506,
			"0.0": 12.5436745148,
			"0.001": 9.60455380932,
			"0.002": 4.86734450518,
			"0.003": 5.17668911593,
			"0.004": 5.12685669276,
			"0.005": 6.64896733804,
			"0.006": 7.32127636588,
			"0.007": 6.97661968823,
			"0.008": 3.11047074403,
			"0.009": 1.60154467547,
			"0.01": 1.51384267545,
			"0.011": 2.52685059081,
			"0.012": 1.86320598936,
			"0.013": 1.57675186856,
			"0.014": 1.70371810427,
			"0.015": 0.918924118784,
			"0.016": 1.15128293453,
			"0.017": 0.74722658578,
			"0.018": 0.0788369816283,
			"0.019": 0.0,
			"0.02": 0.0,
			"0.021": 0.0,
			"0.022": 0.0,
			"0.023": 0.0,
			"0.024": 0.0,
			"0.025": 0.0
		}
	}
}
