{
	 "smiles": "FCCCCF", 
	 "Tm": 350.95, 
	 "num_atms": 14, 
	 "gaussian": { 
		 "optdone": 1, 
		 "sigma_profile": "yes", 
		 "theory": "DFT", 
		 "functional": "B3LYP", 
		 "basiset": "6-31G**", 
		 "properties": { 
			 "R2extent": 837.2885, 
			 "electric_dipole_moment_norm": 2.70031786833, 
			 "electric_quadrupole_moment_norm": 5.70663663816, 
			 "total_energy": -356.916983275, 
			 "HOMO_LUMO_gap": 0.39258, 
			 "cosmo_polarized_energy": -4.66, 
			 "cosmo_cavitation_energy": 17.14, 
			 "cosmo_dispersion_energy": -12.58, 
			 "cosmo_repulsion_energy": 1.08, 
			 "cosmo_total_nonelectrostatic_energy": 5.64, 
			 "SMD_solvation_energy": 3.78 
		},
		"coords": [
			{
				"x": -1.4856474402,
				"y": 0.4198682377,
				"z": 1.413286949,
				"element": "F" 
			},
			{
				"x": -1.7422334269,
				"y": 1.5650424177,
				"z": 0.6526955025,
				"element": "C" 
			},
			{
				"x": -1.4796986449,
				"y": 1.2944496955,
				"z": -0.8192383128,
				"element": "C" 
			},
			{
				"x": -0.0143889854,
				"y": 0.999018001,
				"z": -1.1735431233,
				"element": "C" 
			},
			{
				"x": 0.5243079259,
				"y": -0.3030303907,
				"z": -0.5939024632,
				"element": "C" 
			},
			{
				"x": 1.8090734497,
				"y": -0.5180026976,
				"z": -1.0917214434,
				"element": "F" 
			},
			{
				"x": -1.0985073738,
				"y": 2.3700529477,
				"z": 1.0304584105,
				"element": "H" 
			},
			{
				"x": -2.7889529724,
				"y": 1.8465748817,
				"z": 0.8187520832,
				"element": "H" 
			},
			{
				"x": -2.1223635162,
				"y": 0.4642390587,
				"z": -1.1398206799,
				"element": "H" 
			},
			{
				"x": -1.8126150908,
				"y": 2.1772445087,
				"z": -1.3799772487,
				"element": "H" 
			},
			{
				"x": 0.6261556329,
				"y": 1.8259785289,
				"z": -0.8410588803,
				"element": "H" 
			},
			{
				"x": 0.0882580161,
				"y": 0.9430129581,
				"z": -2.2635144294,
				"element": "H" 
			},
			{
				"x": -0.1057338541,
				"y": -1.1526237183,
				"z": -0.888755013,
				"element": "H" 
			},
			{
				"x": 0.5739462799,
				"y": -0.2753244292,
				"z": 0.4975386486,
				"element": "H" 
			}
		],
		 "valence_orbital": [ 
			{
				"type": "occ",
				"energy": -0.3676,
				"method": "rhf"
			},
			{
				"type": "occ",
				"energy": -0.33359,
				"method": "rhf"
			},
			{
				"type": "occ",
				"energy": -0.33307,
				"method": "rhf"
			},
			{
				"type": "occ",
				"energy": -0.31602,
				"method": "rhf"
			},
			{
				"type": "occ",
				"energy": -0.31165,
				"method": "rhf"
			},
			{
				"type": "unocc",
				"energy": 0.08093,
				"method": "rhf"
			},
			{
				"type": "unocc",
				"energy": 0.11399,
				"method": "rhf"
			},
			{
				"type": "unocc",
				"energy": 0.11686,
				"method": "rhf"
			},
			{
				"type": "unocc",
				"energy": 0.12298,
				"method": "rhf"
			},
			{
				"type": "unocc",
				"energy": 0.13864,
				"method": "rhf"
			}
		],
		"cosmo_sigma_profile": { 
			"-0.025": 0.0,
			"-0.024": 0.0,
			"-0.023": 0.0,
			"-0.022": 0.0,
			"-0.021": 0.0,
			"-0.02": 0.0,
			"-0.019": 0.0,
			"-0.018": 0.0,
			"-0.017": 0.0,
			"-0.016": 0.0,
			"-0.015": 0.0,
			"-0.014": 0.0,
			"-0.013": 0.0,
			"-0.012": 0.0,
			"-0.011": 0.0,
			"-0.01": 0.0,
			"-0.009": 0.0,
			"-0.008": 0.0,
			"-0.007": 0.0,
			"-0.006": 0.853934878184,
			"-0.005": 10.3584438056,
			"-0.004": 20.1877294862,
			"-0.003": 19.5802275562,
			"-0.002": 15.917870632,
			"-0.001": 11.2892443675,
			"0.0": 7.57729904765,
			"0.001": 4.34089444422,
			"0.002": 4.03512580979,
			"0.003": 4.43551728638,
			"0.004": 4.36272986219,
			"0.005": 4.06458752461,
			"0.006": 10.1188879909,
			"0.007": 14.6686357818,
			"0.008": 1.62189636872,
			"0.009": 0.0,
			"0.01": 0.0,
			"0.011": 0.0,
			"0.012": 0.0,
			"0.013": 0.0,
			"0.014": 0.0,
			"0.015": 0.0,
			"0.016": 0.0,
			"0.017": 0.0,
			"0.018": 0.0,
			"0.019": 0.0,
			"0.02": 0.0,
			"0.021": 0.0,
			"0.022": 0.0,
			"0.023": 0.0,
			"0.024": 0.0,
			"0.025": 0.0
		}
	}
}
