{
	 "smiles": "FC1=CC=C(C=C1)C(=O)C(F)(F)F", 
	 "Tm": 298.65, 
	 "num_atms": 17, 
	 "gaussian": { 
		 "optdone": 1, 
		 "sigma_profile": "yes", 
		 "theory": "DFT", 
		 "functional": "B3LYP", 
		 "basiset": "6-31G**", 
		 "properties": { 
			 "R2extent": 3129.3604, 
			 "electric_dipole_moment_norm": 2.47535156897, 
			 "electric_quadrupole_moment_norm": 5.05802910727, 
			 "total_energy": -781.833663646, 
			 "HOMO_LUMO_gap": 0.18651, 
			 "cosmo_polarized_energy": -5.66, 
			 "cosmo_cavitation_energy": 23.9, 
			 "cosmo_dispersion_energy": -16.95, 
			 "cosmo_repulsion_energy": 1.25, 
			 "cosmo_total_nonelectrostatic_energy": 8.2, 
			 "SMD_solvation_energy": 6.44 
		},
		"coords": [
			{
				"x": -2.3882033575,
				"y": -3.4351142895,
				"z": 2.6386536612,
				"element": "F" 
			},
			{
				"x": -1.9224001506,
				"y": -2.5481072205,
				"z": 1.7448591163,
				"element": "C" 
			},
			{
				"x": -0.9947287671,
				"y": -2.9728625085,
				"z": 0.7980967545,
				"element": "C" 
			},
			{
				"x": -0.5128848089,
				"y": -2.0527872459,
				"z": -0.1274798256,
				"element": "C" 
			},
			{
				"x": -0.9590942198,
				"y": -0.7189164869,
				"z": -0.1017277961,
				"element": "C" 
			},
			{
				"x": -1.8977829918,
				"y": -0.3247501721,
				"z": 0.8698325937,
				"element": "C" 
			},
			{
				"x": -2.3850311332,
				"y": -1.2342471899,
				"z": 1.7978977536,
				"element": "C" 
			},
			{
				"x": -0.4957061395,
				"y": 0.3208158831,
				"z": -1.050893013,
				"element": "C" 
			},
			{
				"x": -0.8799957073,
				"y": 1.4737536605,
				"z": -1.0305597484,
				"element": "O" 
			},
			{
				"x": 0.5410817639,
				"y": -0.0784194652,
				"z": -2.1372215802,
				"element": "C" 
			},
			{
				"x": 0.0504668659,
				"y": -1.0619696166,
				"z": -2.9257801542,
				"element": "F" 
			},
			{
				"x": 0.8544821769,
				"y": 0.9607075989,
				"z": -2.9081608036,
				"element": "F" 
			},
			{
				"x": 1.6756194407,
				"y": -0.5428558477,
				"z": -1.5654166666,
				"element": "F" 
			},
			{
				"x": -0.6656852609,
				"y": -4.0059317863,
				"z": 0.7978321506,
				"element": "H" 
			},
			{
				"x": 0.2087436313,
				"y": -2.3800362804,
				"z": -0.865215454,
				"element": "H" 
			},
			{
				"x": -2.2308899075,
				"y": 0.7074028126,
				"z": 0.8752263861,
				"element": "H" 
			},
			{
				"x": -3.1083914346,
				"y": -0.9505818456,
				"z": 2.5542566256,
				"element": "H" 
			}
		],
		 "valence_orbital": [ 
			{
				"type": "occ",
				"energy": -0.37367,
				"method": "rhf"
			},
			{
				"type": "occ",
				"energy": -0.36589,
				"method": "rhf"
			},
			{
				"type": "occ",
				"energy": -0.2853,
				"method": "rhf"
			},
			{
				"type": "occ",
				"energy": -0.28254,
				"method": "rhf"
			},
			{
				"type": "occ",
				"energy": -0.27082,
				"method": "rhf"
			},
			{
				"type": "unocc",
				"energy": -0.08431,
				"method": "rhf"
			},
			{
				"type": "unocc",
				"energy": -0.03285,
				"method": "rhf"
			},
			{
				"type": "unocc",
				"energy": 0.01397,
				"method": "rhf"
			},
			{
				"type": "unocc",
				"energy": 0.07698,
				"method": "rhf"
			},
			{
				"type": "unocc",
				"energy": 0.12355,
				"method": "rhf"
			}
		],
		"cosmo_sigma_profile": { 
			"-0.025": 0.0,
			"-0.024": 0.0,
			"-0.023": 0.0,
			"-0.022": 0.0,
			"-0.021": 0.0,
			"-0.02": 0.0,
			"-0.019": 0.0,
			"-0.018": 0.0,
			"-0.017": 0.0,
			"-0.016": 0.0,
			"-0.015": 0.0,
			"-0.014": 0.0,
			"-0.013": 0.0,
			"-0.012": 0.0,
			"-0.011": 0.0,
			"-0.01": 0.0,
			"-0.009": 0.375535928812,
			"-0.008": 4.60038985376,
			"-0.007": 6.59657531652,
			"-0.006": 8.26470530372,
			"-0.005": 8.36356323371,
			"-0.004": 7.58892189641,
			"-0.003": 8.769295339,
			"-0.002": 11.9310974334,
			"-0.001": 19.5578264441,
			"0.0": 21.6589661893,
			"0.001": 30.7626864342,
			"0.002": 30.7261372836,
			"0.003": 12.6451132046,
			"0.004": 6.37298297207,
			"0.005": 1.75588607377,
			"0.006": 1.64249295033,
			"0.007": 2.25392462703,
			"0.008": 2.29031468375,
			"0.009": 3.24867178572,
			"0.01": 3.48787274511,
			"0.011": 0.400384542062,
			"0.012": 0.0,
			"0.013": 0.0,
			"0.014": 0.0,
			"0.015": 0.0,
			"0.016": 0.0,
			"0.017": 0.0,
			"0.018": 0.0,
			"0.019": 0.0,
			"0.02": 0.0,
			"0.021": 0.0,
			"0.022": 0.0,
			"0.023": 0.0,
			"0.024": 0.0,
			"0.025": 0.0
		}
	}
}
