{
	 "smiles": "NC1=CC=CC(C=O)=C1", 
	 "Tm": 303.15, 
	 "num_atms": 16, 
	 "gaussian": { 
		 "optdone": 1, 
		 "sigma_profile": "yes", 
		 "theory": "DFT", 
		 "functional": "B3LYP", 
		 "basiset": "6-31G**", 
		 "properties": { 
			 "R2extent": 1478.5546, 
			 "electric_dipole_moment_norm": 3.77109615497, 
			 "electric_quadrupole_moment_norm": 12.8819362881, 
			 "total_energy": -400.933789622, 
			 "HOMO_LUMO_gap": 0.15778, 
			 "cosmo_polarized_energy": -11.46, 
			 "cosmo_cavitation_energy": 20.4, 
			 "cosmo_dispersion_energy": -15.06, 
			 "cosmo_repulsion_energy": 1.23, 
			 "cosmo_total_nonelectrostatic_energy": 6.57, 
			 "SMD_solvation_energy": 4.58 
		},
		"coords": [
			{
				"x": -0.9110975728,
				"y": -1.5343537511,
				"z": -0.9688101535,
				"element": "N" 
			},
			{
				"x": -0.2213833031,
				"y": -0.5361701772,
				"z": -0.2848714078,
				"element": "C" 
			},
			{
				"x": -0.1089551879,
				"y": 0.7598013607,
				"z": -0.830666434,
				"element": "C" 
			},
			{
				"x": 0.5297806767,
				"y": 1.7790866177,
				"z": -0.1291959282,
				"element": "C" 
			},
			{
				"x": 1.0724470066,
				"y": 1.5371636875,
				"z": 1.1329277977,
				"element": "C" 
			},
			{
				"x": 0.9660249618,
				"y": 0.2533662357,
				"z": 1.6825942956,
				"element": "C" 
			},
			{
				"x": 1.5433438404,
				"y": -0.0198841378,
				"z": 3.018448294,
				"element": "C" 
			},
			{
				"x": 1.5151423303,
				"y": -1.0987005928,
				"z": 3.5810400868,
				"element": "O" 
			},
			{
				"x": 0.3262243928,
				"y": -0.7748661234,
				"z": 0.9817380034,
				"element": "C" 
			},
			{
				"x": -0.693829378,
				"y": -2.4812512658,
				"z": -0.6914562937,
				"element": "H" 
			},
			{
				"x": -0.9563196867,
				"y": -1.4284223572,
				"z": -1.9724630593,
				"element": "H" 
			},
			{
				"x": -0.5333264601,
				"y": 0.9611771786,
				"z": -1.811464615,
				"element": "H" 
			},
			{
				"x": 0.6027467874,
				"y": 2.7667835745,
				"z": -0.5751868363,
				"element": "H" 
			},
			{
				"x": 1.5730971867,
				"y": 2.3269597559,
				"z": 1.6862598568,
				"element": "H" 
			},
			{
				"x": 2.0274473894,
				"y": 0.8597428508,
				"z": 3.4990167971,
				"element": "H" 
			},
			{
				"x": 0.2647570166,
				"y": -1.7555328563,
				"z": 1.4453895965,
				"element": "H" 
			}
		],
		 "valence_orbital": [ 
			{
				"type": "occ",
				"energy": -0.35387,
				"method": "rhf"
			},
			{
				"type": "occ",
				"energy": -0.31572,
				"method": "rhf"
			},
			{
				"type": "occ",
				"energy": -0.25726,
				"method": "rhf"
			},
			{
				"type": "occ",
				"energy": -0.2494,
				"method": "rhf"
			},
			{
				"type": "occ",
				"energy": -0.21417,
				"method": "rhf"
			},
			{
				"type": "unocc",
				"energy": -0.05639,
				"method": "rhf"
			},
			{
				"type": "unocc",
				"energy": 0.00416,
				"method": "rhf"
			},
			{
				"type": "unocc",
				"energy": 0.04861,
				"method": "rhf"
			},
			{
				"type": "unocc",
				"energy": 0.07603,
				"method": "rhf"
			},
			{
				"type": "unocc",
				"energy": 0.1,
				"method": "rhf"
			}
		],
		"cosmo_sigma_profile": { 
			"-0.025": 0.0,
			"-0.024": 0.0,
			"-0.023": 0.0,
			"-0.022": 0.0,
			"-0.021": 0.0,
			"-0.02": 0.0,
			"-0.019": 0.0,
			"-0.018": 0.0,
			"-0.017": 0.0,
			"-0.016": 0.0,
			"-0.015": 0.0,
			"-0.014": 0.0,
			"-0.013": 0.862046318095,
			"-0.012": 3.00481540504,
			"-0.011": 2.24474828027,
			"-0.01": 3.75429046842,
			"-0.009": 3.54951642177,
			"-0.008": 2.90333047647,
			"-0.007": 5.01606923367,
			"-0.006": 11.1536609695,
			"-0.005": 9.98303739605,
			"-0.004": 11.5915694851,
			"-0.003": 9.03684730763,
			"-0.002": 8.0239319005,
			"-0.001": 6.56207262471,
			"0.0": 6.78277054625,
			"0.001": 8.6787190291,
			"0.002": 10.1376672524,
			"0.003": 9.8499026434,
			"0.004": 12.9639569937,
			"0.005": 11.6092536768,
			"0.006": 2.96206283242,
			"0.007": 2.42121679205,
			"0.008": 2.48661911949,
			"0.009": 2.58472413051,
			"0.01": 3.50921708585,
			"0.011": 4.52343407023,
			"0.012": 4.21671706195,
			"0.013": 1.75435998534,
			"0.014": 0.421163940286,
			"0.015": 0.0,
			"0.016": 0.0,
			"0.017": 0.0,
			"0.018": 0.0,
			"0.019": 0.0,
			"0.02": 0.0,
			"0.021": 0.0,
			"0.022": 0.0,
			"0.023": 0.0,
			"0.024": 0.0,
			"0.025": 0.0
		}
	}
}
