{
	 "smiles": "SC1=C2C=CC=CC2=NN=C1", 
	 "Tm": 354.15, 
	 "num_atms": 17, 
	 "gaussian": { 
		 "optdone": 1, 
		 "sigma_profile": "yes", 
		 "theory": "DFT", 
		 "functional": "B3LYP", 
		 "basiset": "6-31G**", 
		 "properties": { 
			 "R2extent": 2413.446, 
			 "electric_dipole_moment_norm": 4.4244617085, 
			 "electric_quadrupole_moment_norm": 8.39269654104, 
			 "total_energy": -816.115170554, 
			 "HOMO_LUMO_gap": 0.15072, 
			 "cosmo_polarized_energy": -11.93, 
			 "cosmo_cavitation_energy": 22.77, 
			 "cosmo_dispersion_energy": -17.7, 
			 "cosmo_repulsion_energy": 1.34, 
			 "cosmo_total_nonelectrostatic_energy": 6.41, 
			 "SMD_solvation_energy": 1.48 
		},
		"coords": [
			{
				"x": 2.7879832875,
				"y": 2.9970920458,
				"z": -0.4641267734,
				"element": "S" 
			},
			{
				"x": 1.808728689,
				"y": 1.62296588,
				"z": -1.0433051585,
				"element": "C" 
			},
			{
				"x": 0.8297829754,
				"y": 0.9453153289,
				"z": -0.2679066717,
				"element": "C" 
			},
			{
				"x": 0.4655009726,
				"y": 1.2477043538,
				"z": 1.0708563427,
				"element": "C" 
			},
			{
				"x": -0.5206239554,
				"y": 0.523434675,
				"z": 1.7023450124,
				"element": "C" 
			},
			{
				"x": -1.1883961805,
				"y": -0.5359294472,
				"z": 1.0358063287,
				"element": "C" 
			},
			{
				"x": -0.8444031902,
				"y": -0.8650032371,
				"z": -0.2529800293,
				"element": "C" 
			},
			{
				"x": 0.1735431445,
				"y": -0.1400921637,
				"z": -0.9295731905,
				"element": "C" 
			},
			{
				"x": 0.4778833291,
				"y": -0.5438115605,
				"z": -2.1995693257,
				"element": "N" 
			},
			{
				"x": 1.4057456756,
				"y": 0.0805473482,
				"z": -2.8697328848,
				"element": "N" 
			},
			{
				"x": 2.0475622696,
				"y": 1.1436618924,
				"z": -2.3186724345,
				"element": "C" 
			},
			{
				"x": 1.8246359373,
				"y": 3.6015031409,
				"z": 0.2584060451,
				"element": "H" 
			},
			{
				"x": 0.9834867438,
				"y": 2.0374368699,
				"z": 1.6039667448,
				"element": "H" 
			},
			{
				"x": -0.7872872345,
				"y": 0.7598265234,
				"z": 2.728221781,
				"element": "H" 
			},
			{
				"x": -1.9647960533,
				"y": -1.0897265533,
				"z": 1.5547082072,
				"element": "H" 
			},
			{
				"x": -1.3209575998,
				"y": -1.6757796999,
				"z": -0.7938336808,
				"element": "H" 
			},
			{
				"x": 2.7781111894,
				"y": 1.6180546033,
				"z": -2.9671103125,
				"element": "H" 
			}
		],
		 "valence_orbital": [ 
			{
				"type": "occ",
				"energy": -0.31792,
				"method": "rhf"
			},
			{
				"type": "occ",
				"energy": -0.28136,
				"method": "rhf"
			},
			{
				"type": "occ",
				"energy": -0.2743,
				"method": "rhf"
			},
			{
				"type": "occ",
				"energy": -0.24229,
				"method": "rhf"
			},
			{
				"type": "occ",
				"energy": -0.23102,
				"method": "rhf"
			},
			{
				"type": "unocc",
				"energy": -0.0803,
				"method": "rhf"
			},
			{
				"type": "unocc",
				"energy": -0.03906,
				"method": "rhf"
			},
			{
				"type": "unocc",
				"energy": 0.0017,
				"method": "rhf"
			},
			{
				"type": "unocc",
				"energy": 0.01021,
				"method": "rhf"
			},
			{
				"type": "unocc",
				"energy": 0.04662,
				"method": "rhf"
			}
		],
		"cosmo_sigma_profile": { 
			"-0.025": 0.0,
			"-0.024": 0.0,
			"-0.023": 0.0,
			"-0.022": 0.0,
			"-0.021": 0.0,
			"-0.02": 0.0,
			"-0.019": 0.0,
			"-0.018": 0.0,
			"-0.017": 0.0,
			"-0.016": 0.0,
			"-0.015": 0.0,
			"-0.014": 0.0,
			"-0.013": 0.0,
			"-0.012": 0.739538846236,
			"-0.011": 2.47308264789,
			"-0.01": 2.57179520913,
			"-0.009": 1.95066970456,
			"-0.008": 3.27859004114,
			"-0.007": 9.30580422403,
			"-0.006": 11.965254763,
			"-0.005": 10.4133220896,
			"-0.004": 8.85621240429,
			"-0.003": 10.0800032916,
			"-0.002": 9.89531551696,
			"-0.001": 13.7924859677,
			"0.0": 18.7798876534,
			"0.001": 17.7025937247,
			"0.002": 17.4373422924,
			"0.003": 12.2621745967,
			"0.004": 4.58134019059,
			"0.005": 5.03062691162,
			"0.006": 4.30737359045,
			"0.007": 3.52034713912,
			"0.008": 1.79145396147,
			"0.009": 2.04770386844,
			"0.01": 1.99307750207,
			"0.011": 1.48194979551,
			"0.012": 2.15019409934,
			"0.013": 3.15702626034,
			"0.014": 2.12936145911,
			"0.015": 2.17746707817,
			"0.016": 0.566068140582,
			"0.017": 0.0,
			"0.018": 0.0,
			"0.019": 0.0,
			"0.02": 0.0,
			"0.021": 0.0,
			"0.022": 0.0,
			"0.023": 0.0,
			"0.024": 0.0,
			"0.025": 0.0
		}
	}
}
