{
	 "smiles": "CC1=CC=C(C=C1)N=C=S", 
	 "Tm": 298.35, 
	 "num_atms": 17, 
	 "gaussian": { 
		 "optdone": 1, 
		 "sigma_profile": "yes", 
		 "theory": "DFT", 
		 "functional": "B3LYP", 
		 "basiset": "6-31G**", 
		 "properties": { 
			 "R2extent": 3756.9803, 
			 "electric_dipole_moment_norm": 4.56685377366, 
			 "electric_quadrupole_moment_norm": 16.0059074829, 
			 "total_energy": -762.011523489, 
			 "HOMO_LUMO_gap": 0.1813, 
			 "cosmo_polarized_energy": -5.59, 
			 "cosmo_cavitation_energy": 24.21, 
			 "cosmo_dispersion_energy": -18.08, 
			 "cosmo_repulsion_energy": 1.44, 
			 "cosmo_total_nonelectrostatic_energy": 7.57, 
			 "SMD_solvation_energy": 4.85 
		},
		"coords": [
			{
				"x": -1.9248365928,
				"y": -1.0349585277,
				"z": 1.27956669,
				"element": "C" 
			},
			{
				"x": -1.1555397264,
				"y": -0.2439178058,
				"z": 0.249353052,
				"element": "C" 
			},
			{
				"x": 0.1862100654,
				"y": 0.1047771622,
				"z": 0.4610280959,
				"element": "C" 
			},
			{
				"x": 0.9141203032,
				"y": 0.8078962186,
				"z": -0.4935251556,
				"element": "C" 
			},
			{
				"x": 0.2976313024,
				"y": 1.1824556879,
				"z": -1.69785716,
				"element": "C" 
			},
			{
				"x": -1.0457744173,
				"y": 0.8463718261,
				"z": -1.9280349357,
				"element": "C" 
			},
			{
				"x": -1.7535535396,
				"y": 0.1428268826,
				"z": -0.9586892863,
				"element": "C" 
			},
			{
				"x": 1.0058246447,
				"y": 1.8787151722,
				"z": -2.6466338664,
				"element": "N" 
			},
			{
				"x": 1.6148274707,
				"y": 2.4881613216,
				"z": -3.4619460632,
				"element": "C" 
			},
			{
				"x": 2.4359222081,
				"y": 3.2958243978,
				"z": -4.5660431998,
				"element": "S" 
			},
			{
				"x": -2.9939094712,
				"y": -0.8056735301,
				"z": 1.2440453835,
				"element": "H" 
			},
			{
				"x": -1.5666535243,
				"y": -0.8282589871,
				"z": 2.2923824135,
				"element": "H" 
			},
			{
				"x": -1.8176250475,
				"y": -2.1139052958,
				"z": 1.1104871094,
				"element": "H" 
			},
			{
				"x": 0.6712548821,
				"y": -0.1777463877,
				"z": 1.391723043,
				"element": "H" 
			},
			{
				"x": 1.9510089416,
				"y": 1.0753416955,
				"z": -0.3202520951,
				"element": "H" 
			},
			{
				"x": -1.5172427231,
				"y": 1.1433747252,
				"z": -2.8587287382,
				"element": "H" 
			},
			{
				"x": -2.7941647761,
				"y": -0.1097845555,
				"z": -1.1446752868,
				"element": "H" 
			}
		],
		 "valence_orbital": [ 
			{
				"type": "occ",
				"energy": -0.35571,
				"method": "rhf"
			},
			{
				"type": "occ",
				"energy": -0.28389,
				"method": "rhf"
			},
			{
				"type": "occ",
				"energy": -0.26925,
				"method": "rhf"
			},
			{
				"type": "occ",
				"energy": -0.24823,
				"method": "rhf"
			},
			{
				"type": "occ",
				"energy": -0.22507,
				"method": "rhf"
			},
			{
				"type": "unocc",
				"energy": -0.04377,
				"method": "rhf"
			},
			{
				"type": "unocc",
				"energy": -0.01899,
				"method": "rhf"
			},
			{
				"type": "unocc",
				"energy": 0.00839,
				"method": "rhf"
			},
			{
				"type": "unocc",
				"energy": 0.04728,
				"method": "rhf"
			},
			{
				"type": "unocc",
				"energy": 0.07839,
				"method": "rhf"
			}
		],
		"cosmo_sigma_profile": { 
			"-0.025": 0.0,
			"-0.024": 0.0,
			"-0.023": 0.0,
			"-0.022": 0.0,
			"-0.021": 0.0,
			"-0.02": 0.0,
			"-0.019": 0.0,
			"-0.018": 0.0,
			"-0.017": 0.0,
			"-0.016": 0.0,
			"-0.015": 0.0,
			"-0.014": 0.0,
			"-0.013": 0.0,
			"-0.012": 0.0,
			"-0.011": 0.0,
			"-0.01": 0.0,
			"-0.009": 0.0,
			"-0.008": 0.300811750874,
			"-0.007": 3.8112366049,
			"-0.006": 7.88643436244,
			"-0.005": 13.062181451,
			"-0.004": 15.6791934335,
			"-0.003": 12.6018032236,
			"-0.002": 14.8464752115,
			"-0.001": 24.4757171912,
			"0.0": 22.2547746113,
			"0.001": 14.6181688625,
			"0.002": 12.913036298,
			"0.003": 15.2179411876,
			"0.004": 15.0341679237,
			"0.005": 7.95150511337,
			"0.006": 12.0620366255,
			"0.007": 5.23707585379,
			"0.008": 0.0,
			"0.009": 0.0,
			"0.01": 0.0,
			"0.011": 0.0,
			"0.012": 0.0,
			"0.013": 0.0,
			"0.014": 0.0,
			"0.015": 0.0,
			"0.016": 0.0,
			"0.017": 0.0,
			"0.018": 0.0,
			"0.019": 0.0,
			"0.02": 0.0,
			"0.021": 0.0,
			"0.022": 0.0,
			"0.023": 0.0,
			"0.024": 0.0,
			"0.025": 0.0
		}
	}
}
