{
	 "smiles": "CC(=O)C1=CC(=C(C)C=C1)[N+]([O-])=O", 
	 "Tm": 333.65, 
	 "num_atms": 22, 
	 "gaussian": { 
		 "optdone": 1, 
		 "sigma_profile": "yes", 
		 "theory": "DFT", 
		 "functional": "B3LYP", 
		 "basiset": "6-31G**", 
		 "properties": { 
			 "R2extent": 3126.5266, 
			 "electric_dipole_moment_norm": 1.67435396795, 
			 "electric_quadrupole_moment_norm": 18.4862695309, 
			 "total_energy": -628.712487818, 
			 "HOMO_LUMO_gap": 0.16796, 
			 "cosmo_polarized_energy": -10.82, 
			 "cosmo_cavitation_energy": 26.65, 
			 "cosmo_dispersion_energy": -19.29, 
			 "cosmo_repulsion_energy": 1.51, 
			 "cosmo_total_nonelectrostatic_energy": 8.86, 
			 "SMD_solvation_energy": 7.41 
		},
		"coords": [
			{
				"x": -1.4336082698,
				"y": -1.2933396171,
				"z": -2.6621907519,
				"element": "C" 
			},
			{
				"x": 0.0094290947,
				"y": -1.1221148037,
				"z": -2.2270599346,
				"element": "C" 
			},
			{
				"x": 0.8869854962,
				"y": -1.8616302327,
				"z": -2.6433222748,
				"element": "O" 
			},
			{
				"x": 0.351144229,
				"y": -0.0185400283,
				"z": -1.2666880339,
				"element": "C" 
			},
			{
				"x": -0.6002784756,
				"y": 0.8624627246,
				"z": -0.75498285,
				"element": "C" 
			},
			{
				"x": -0.2239477479,
				"y": 1.8671072335,
				"z": 0.138972842,
				"element": "C" 
			},
			{
				"x": 1.1111238335,
				"y": 2.0448556285,
				"z": 0.5577468369,
				"element": "C" 
			},
			{
				"x": 1.6012340766,
				"y": 3.1066757785,
				"z": 1.5091141047,
				"element": "C" 
			},
			{
				"x": 2.0461609006,
				"y": 1.1434601931,
				"z": 0.0172294854,
				"element": "C" 
			},
			{
				"x": 1.6871832249,
				"y": 0.1360262134,
				"z": -0.8668223194,
				"element": "C" 
			},
			{
				"x": -1.3154814416,
				"y": 2.7364323508,
				"z": 0.621510449,
				"element": "N" 
			},
			{
				"x": -2.4232715551,
				"y": 2.6056427932,
				"z": 0.099850734,
				"element": "O" 
			},
			{
				"x": -1.069506102,
				"y": 3.5414578796,
				"z": 1.5197173687,
				"element": "O" 
			},
			{
				"x": -1.804488536,
				"y": -0.3894690234,
				"z": -3.158096787,
				"element": "H" 
			},
			{
				"x": -1.4928343595,
				"y": -2.1351280564,
				"z": -3.3522751068,
				"element": "H" 
			},
			{
				"x": -2.0843117128,
				"y": -1.4821122274,
				"z": -1.8011706533,
				"element": "H" 
			},
			{
				"x": -1.6449435917,
				"y": 0.799826897,
				"z": -1.0289362722,
				"element": "H" 
			},
			{
				"x": 2.6896571429,
				"y": 3.0521352157,
				"z": 1.5900024026,
				"element": "H" 
			},
			{
				"x": 1.3183326165,
				"y": 4.1087098217,
				"z": 1.1778269433,
				"element": "H" 
			},
			{
				"x": 1.1642223175,
				"y": 2.9833847689,
				"z": 2.5032710591,
				"element": "H" 
			},
			{
				"x": 3.0864597811,
				"y": 1.2496091963,
				"z": 0.3101962897,
				"element": "H" 
			},
			{
				"x": 2.4262390784,
				"y": -0.5494527059,
				"z": -1.2680935315,
				"element": "H" 
			}
		],
		 "valence_orbital": [ 
			{
				"type": "occ",
				"energy": -0.31227,
				"method": "rhf"
			},
			{
				"type": "occ",
				"energy": -0.29557,
				"method": "rhf"
			},
			{
				"type": "occ",
				"energy": -0.28693,
				"method": "rhf"
			},
			{
				"type": "occ",
				"energy": -0.27681,
				"method": "rhf"
			},
			{
				"type": "occ",
				"energy": -0.26248,
				"method": "rhf"
			},
			{
				"type": "unocc",
				"energy": -0.09452,
				"method": "rhf"
			},
			{
				"type": "unocc",
				"energy": -0.07072,
				"method": "rhf"
			},
			{
				"type": "unocc",
				"energy": -0.01355,
				"method": "rhf"
			},
			{
				"type": "unocc",
				"energy": 0.02537,
				"method": "rhf"
			},
			{
				"type": "unocc",
				"energy": 0.08176,
				"method": "rhf"
			}
		],
		"cosmo_sigma_profile": { 
			"-0.025": 0.0,
			"-0.024": 0.0,
			"-0.023": 0.0,
			"-0.022": 0.0,
			"-0.021": 0.0,
			"-0.02": 0.0,
			"-0.019": 0.0,
			"-0.018": 0.0,
			"-0.017": 0.0,
			"-0.016": 0.0,
			"-0.015": 0.0,
			"-0.014": 0.0,
			"-0.013": 0.0,
			"-0.012": 0.0,
			"-0.011": 0.0,
			"-0.01": 0.0,
			"-0.009": 0.0,
			"-0.008": 0.871737151693,
			"-0.007": 10.4488166871,
			"-0.006": 14.1051822038,
			"-0.005": 14.4476656901,
			"-0.004": 17.390826498,
			"-0.003": 17.7103300679,
			"-0.002": 20.3901985675,
			"-0.001": 24.6184223295,
			"0.0": 18.9681672256,
			"0.001": 12.840818202,
			"0.002": 7.5977876634,
			"0.003": 4.13529972903,
			"0.004": 4.98113266514,
			"0.005": 4.02496622458,
			"0.006": 5.64628163754,
			"0.007": 7.40156052064,
			"0.008": 8.00588490117,
			"0.009": 6.19715020584,
			"0.01": 5.41672326738,
			"0.011": 3.63057062029,
			"0.012": 2.80399283639,
			"0.013": 0.822504831549,
			"0.014": 0.0,
			"0.015": 0.0,
			"0.016": 0.0,
			"0.017": 0.0,
			"0.018": 0.0,
			"0.019": 0.0,
			"0.02": 0.0,
			"0.021": 0.0,
			"0.022": 0.0,
			"0.023": 0.0,
			"0.024": 0.0,
			"0.025": 0.0
		}
	}
}
