{
	 "smiles": "OC(=O)CC(Br)C(=O)C1=CC=C(F)C=C1", 
	 "Tm": 403.15, 
	 "num_atms": 23, 
	 "gaussian": { 
		 "optdone": 1, 
		 "sigma_profile": "yes", 
		 "theory": "DFT", 
		 "functional": "B3LYP", 
		 "basiset": "6-31G**", 
		 "properties": { 
			 "R2extent": 4989.3833, 
			 "electric_dipole_moment_norm": 1.79282210495, 
			 "electric_quadrupole_moment_norm": 10.4537697899, 
			 "total_energy": -3282.80428265, 
			 "HOMO_LUMO_gap": 0.18834, 
			 "cosmo_polarized_energy": -12.72, 
			 "cosmo_cavitation_energy": 30.23, 
			 "cosmo_dispersion_energy": -21.79, 
			 "cosmo_repulsion_energy": 1.7, 
			 "cosmo_total_nonelectrostatic_energy": 10.14, 
			 "SMD_solvation_energy": 6.07 
		},
		"coords": [
			{
				"x": 2.8364911688,
				"y": -0.3373666225,
				"z": -4.1346965289,
				"element": "O" 
			},
			{
				"x": 2.2723458525,
				"y": -0.0746808072,
				"z": -2.9379786321,
				"element": "C" 
			},
			{
				"x": 1.5822690811,
				"y": -0.8740565037,
				"z": -2.3432090826,
				"element": "O" 
			},
			{
				"x": 2.656779499,
				"y": 1.299720184,
				"z": -2.4368503423,
				"element": "C" 
			},
			{
				"x": 1.7486311724,
				"y": 1.8325801919,
				"z": -1.329432206,
				"element": "C" 
			},
			{
				"x": -0.0573622058,
				"y": 2.2505200349,
				"z": -2.049630241,
				"element": "Br" 
			},
			{
				"x": 1.8592635034,
				"y": 1.0064747007,
				"z": -0.0221302133,
				"element": "C" 
			},
			{
				"x": 2.9924097094,
				"y": 1.0081484128,
				"z": 0.4382355897,
				"element": "O" 
			},
			{
				"x": 0.7389912031,
				"y": 0.3645776697,
				"z": 0.7150013656,
				"element": "C" 
			},
			{
				"x": 0.8605953323,
				"y": 0.3260436841,
				"z": 2.1165331476,
				"element": "C" 
			},
			{
				"x": -0.1149133244,
				"y": -0.2750946125,
				"z": 2.9026395444,
				"element": "C" 
			},
			{
				"x": -1.2028281104,
				"y": -0.8680988862,
				"z": 2.2676975999,
				"element": "C" 
			},
			{
				"x": -2.150660848,
				"y": -1.4585030854,
				"z": 3.0188860112,
				"element": "F" 
			},
			{
				"x": -1.3380478674,
				"y": -0.8782619973,
				"z": 0.8833331522,
				"element": "C" 
			},
			{
				"x": -0.3662342246,
				"y": -0.2534974987,
				"z": 0.1065136045,
				"element": "C" 
			},
			{
				"x": 2.5808334584,
				"y": -1.2461694016,
				"z": -4.367659887,
				"element": "H" 
			},
			{
				"x": 3.6683258448,
				"y": 1.2223156935,
				"z": -2.0179541108,
				"element": "H" 
			},
			{
				"x": 2.7033696847,
				"y": 1.9982862497,
				"z": -3.2748938499,
				"element": "H" 
			},
			{
				"x": 2.1161710892,
				"y": 2.8185991906,
				"z": -1.04372147,
				"element": "H" 
			},
			{
				"x": 1.7318574223,
				"y": 0.7795720398,
				"z": 2.5763579025,
				"element": "H" 
			},
			{
				"x": -0.0454011886,
				"y": -0.2980259688,
				"z": 3.9845635989,
				"element": "H" 
			},
			{
				"x": -2.190361294,
				"y": -1.3747032166,
				"z": 0.4328342699,
				"element": "H" 
			},
			{
				"x": -0.4430249583,
				"y": -0.2836794511,
				"z": -0.9708392225,
				"element": "H" 
			}
		],
		 "valence_orbital": [ 
			{
				"type": "occ",
				"energy": -0.29467,
				"method": "rhf"
			},
			{
				"type": "occ",
				"energy": -0.28249,
				"method": "rhf"
			},
			{
				"type": "occ",
				"energy": -0.26575,
				"method": "rhf"
			},
			{
				"type": "occ",
				"energy": -0.2638,
				"method": "rhf"
			},
			{
				"type": "occ",
				"energy": -0.24923,
				"method": "rhf"
			},
			{
				"type": "unocc",
				"energy": -0.06089,
				"method": "rhf"
			},
			{
				"type": "unocc",
				"energy": -0.01668,
				"method": "rhf"
			},
			{
				"type": "unocc",
				"energy": -0.01189,
				"method": "rhf"
			},
			{
				"type": "unocc",
				"energy": -0.0036,
				"method": "rhf"
			},
			{
				"type": "unocc",
				"energy": 0.02643,
				"method": "rhf"
			}
		],
		"cosmo_sigma_profile": { 
			"-0.025": 0.0,
			"-0.024": 0.0,
			"-0.023": 0.0,
			"-0.022": 0.0,
			"-0.021": 0.0,
			"-0.02": 0.0,
			"-0.019": 0.31503198576,
			"-0.018": 0.847892916193,
			"-0.017": 1.04517278911,
			"-0.016": 0.92224100096,
			"-0.015": 0.925702679934,
			"-0.014": 0.601273747967,
			"-0.013": 0.337133400598,
			"-0.012": 0.609089986637,
			"-0.011": 1.16084065659,
			"-0.01": 1.27785944976,
			"-0.009": 2.83916403063,
			"-0.008": 7.12306239474,
			"-0.007": 11.2432342153,
			"-0.006": 11.4030632939,
			"-0.005": 13.2433179512,
			"-0.004": 9.97667664472,
			"-0.003": 12.2680292077,
			"-0.002": 12.5992246514,
			"-0.001": 13.9464998858,
			"0.0": 17.0684881885,
			"0.001": 17.7713234161,
			"0.002": 21.8435555366,
			"0.003": 22.9862837769,
			"0.004": 21.7631654367,
			"0.005": 10.6278344811,
			"0.006": 5.52324019204,
			"0.007": 4.21586275565,
			"0.008": 5.56648411705,
			"0.009": 4.29814661163,
			"0.01": 4.34458230744,
			"0.011": 5.16482482645,
			"0.012": 0.546388214828,
			"0.013": 0.0,
			"0.014": 0.0,
			"0.015": 0.0,
			"0.016": 0.0,
			"0.017": 0.0,
			"0.018": 0.0,
			"0.019": 0.0,
			"0.02": 0.0,
			"0.021": 0.0,
			"0.022": 0.0,
			"0.023": 0.0,
			"0.024": 0.0,
			"0.025": 0.0
		}
	}
}
