{
	 "smiles": "CC(C)NCC(O)C1=CC=C(O)C(O)=C1", 
	 "Tm": 443.15, 
	 "num_atms": 32, 
	 "gaussian": { 
		 "optdone": 1, 
		 "sigma_profile": "yes", 
		 "theory": "DFT", 
		 "functional": "B3LYP", 
		 "basiset": "6-31G**", 
		 "properties": { 
			 "R2extent": 5518.391, 
			 "electric_dipole_moment_norm": 3.10398716814, 
			 "electric_quadrupole_moment_norm": 13.143229562, 
			 "total_energy": -709.828258833, 
			 "HOMO_LUMO_gap": 0.20849, 
			 "cosmo_polarized_energy": -15.62, 
			 "cosmo_cavitation_energy": 34.4, 
			 "cosmo_dispersion_energy": -24.07, 
			 "cosmo_repulsion_energy": 1.93, 
			 "cosmo_total_nonelectrostatic_energy": 12.26, 
			 "SMD_solvation_energy": 5.71 
		},
		"coords": [
			{
				"x": 3.6657850909,
				"y": -1.3073662116,
				"z": 2.4833364226,
				"element": "C" 
			},
			{
				"x": 2.6031239454,
				"y": -0.1912432394,
				"z": 2.4966999806,
				"element": "C" 
			},
			{
				"x": 2.6651620189,
				"y": 0.6117123364,
				"z": 3.8003455023,
				"element": "C" 
			},
			{
				"x": 1.2265637636,
				"y": -0.6554379703,
				"z": 2.2992423875,
				"element": "N" 
			},
			{
				"x": 0.9288500865,
				"y": -1.2675971407,
				"z": 1.0156969627,
				"element": "C" 
			},
			{
				"x": -0.5727740752,
				"y": -1.5742516478,
				"z": 0.8804330553,
				"element": "C" 
			},
			{
				"x": -0.8887009891,
				"y": -2.4316148264,
				"z": 1.981634359,
				"element": "O" 
			},
			{
				"x": -1.4653438292,
				"y": -0.3472742726,
				"z": 0.8253306604,
				"element": "C" 
			},
			{
				"x": -1.9668732769,
				"y": 0.0959950872,
				"z": -0.401940846,
				"element": "C" 
			},
			{
				"x": -2.7794840043,
				"y": 1.2320912451,
				"z": -0.472296996,
				"element": "C" 
			},
			{
				"x": -3.1034639261,
				"y": 1.9206458019,
				"z": 0.690555206,
				"element": "C" 
			},
			{
				"x": -3.9017920409,
				"y": 3.0424333692,
				"z": 0.7428971769,
				"element": "O" 
			},
			{
				"x": -2.6141786451,
				"y": 1.4798118827,
				"z": 1.93349547,
				"element": "C" 
			},
			{
				"x": -2.9359010952,
				"y": 2.1531953037,
				"z": 3.0750057173,
				"element": "O" 
			},
			{
				"x": -1.8006128147,
				"y": 0.3536325191,
				"z": 1.9937532458,
				"element": "C" 
			},
			{
				"x": 3.4941307948,
				"y": -2.0118386452,
				"z": 3.3067557867,
				"element": "H" 
			},
			{
				"x": 3.6492579059,
				"y": -1.8746098366,
				"z": 1.5474679891,
				"element": "H" 
			},
			{
				"x": 4.6735580516,
				"y": -0.8938457946,
				"z": 2.6022549357,
				"element": "H" 
			},
			{
				"x": 2.8189230587,
				"y": 0.4939635493,
				"z": 1.6637873078,
				"element": "H" 
			},
			{
				"x": 2.4461986358,
				"y": -0.0322449878,
				"z": 4.6615693562,
				"element": "H" 
			},
			{
				"x": 3.6604349259,
				"y": 1.0414151569,
				"z": 3.9541763385,
				"element": "H" 
			},
			{
				"x": 1.9284125886,
				"y": 1.4191601922,
				"z": 3.7872739002,
				"element": "H" 
			},
			{
				"x": 0.9626004809,
				"y": -1.3051805987,
				"z": 3.0363864499,
				"element": "H" 
			},
			{
				"x": 1.2132555974,
				"y": -0.5732996494,
				"z": 0.215266848,
				"element": "H" 
			},
			{
				"x": 1.4701956202,
				"y": -2.2132450172,
				"z": 0.8308041131,
				"element": "H" 
			},
			{
				"x": -0.6992146683,
				"y": -2.1218500721,
				"z": -0.0685551072,
				"element": "H" 
			},
			{
				"x": -1.851018106,
				"y": -2.487247795,
				"z": 2.0419706304,
				"element": "H" 
			},
			{
				"x": -1.7272325464,
				"y": -0.4450779178,
				"z": -1.3134330953,
				"element": "H" 
			},
			{
				"x": -3.169809965,
				"y": 1.5721914482,
				"z": -1.4294231288,
				"element": "H" 
			},
			{
				"x": -4.1771420869,
				"y": 3.2887861369,
				"z": -0.1483442235,
				"element": "H" 
			},
			{
				"x": -3.4930790885,
				"y": 2.9040592965,
				"z": 2.8216046927,
				"element": "H" 
			},
			{
				"x": -1.4142314073,
				"y": 0.0370322978,
				"z": 2.954448902,
				"element": "H" 
			}
		],
		 "valence_orbital": [ 
			{
				"type": "occ",
				"energy": -0.31282,
				"method": "rhf"
			},
			{
				"type": "occ",
				"energy": -0.2693,
				"method": "rhf"
			},
			{
				"type": "occ",
				"energy": -0.23199,
				"method": "rhf"
			},
			{
				"type": "occ",
				"energy": -0.20888,
				"method": "rhf"
			},
			{
				"type": "occ",
				"energy": -0.20123,
				"method": "rhf"
			},
			{
				"type": "unocc",
				"energy": 0.00726,
				"method": "rhf"
			},
			{
				"type": "unocc",
				"energy": 0.01653,
				"method": "rhf"
			},
			{
				"type": "unocc",
				"energy": 0.05507,
				"method": "rhf"
			},
			{
				"type": "unocc",
				"energy": 0.08488,
				"method": "rhf"
			},
			{
				"type": "unocc",
				"energy": 0.09852,
				"method": "rhf"
			}
		],
		"cosmo_sigma_profile": { 
			"-0.025": 0.0,
			"-0.024": 0.0,
			"-0.023": 0.0,
			"-0.022": 0.0,
			"-0.021": 0.0,
			"-0.02": 0.0,
			"-0.019": 0.0,
			"-0.018": 0.878698391701,
			"-0.017": 1.02763673379,
			"-0.016": 0.584701239285,
			"-0.015": 1.94455295944,
			"-0.014": 1.95877214019,
			"-0.013": 2.7704916348,
			"-0.012": 2.85504361631,
			"-0.011": 1.24979334175,
			"-0.01": 2.08957003766,
			"-0.009": 2.90316285992,
			"-0.008": 2.52704949983,
			"-0.007": 3.4564080676,
			"-0.006": 4.8528066878,
			"-0.005": 8.031207284,
			"-0.004": 11.5919006468,
			"-0.003": 22.0084665557,
			"-0.002": 29.2282800234,
			"-0.001": 27.4142900646,
			"0.0": 23.808335034,
			"0.001": 23.6769127404,
			"0.002": 17.850293327,
			"0.003": 11.925701395,
			"0.004": 12.0451402742,
			"0.005": 13.337778366,
			"0.006": 9.80044012043,
			"0.007": 5.74658998448,
			"0.008": 4.34898738543,
			"0.009": 4.22922472035,
			"0.01": 3.37645554192,
			"0.011": 3.96606659024,
			"0.012": 2.93089395476,
			"0.013": 1.88836981491,
			"0.014": 1.2196666235,
			"0.015": 0.245282947919,
			"0.016": 0.0,
			"0.017": 0.0,
			"0.018": 0.0,
			"0.019": 0.0,
			"0.02": 0.0,
			"0.021": 0.0,
			"0.022": 0.0,
			"0.023": 0.0,
			"0.024": 0.0,
			"0.025": 0.0
		}
	}
}
