{
	 "smiles": "C[C@H]1CC11C(O)C(=O)C2=C([C@H](OC(C)=O)[C@@H](O)C3C(=C)[C@H](C)CC[C@]23C)C1=O", 
	 "Tm": 469.15, 
	 "num_atms": 56, 
	 "gaussian": { 
		 "optdone": 1, 
		 "sigma_profile": "yes", 
		 "theory": "DFT", 
		 "functional": "B3LYP", 
		 "basiset": "6-31G**", 
		 "properties": { 
			 "R2extent": 10466.0616, 
			 "electric_dipole_moment_norm": 2.03307143751, 
			 "electric_quadrupole_moment_norm": 17.8131470027, 
			 "total_energy": -1306.51705464, 
			 "HOMO_LUMO_gap": 0.13777, 
			 "cosmo_polarized_energy": -16.22, 
			 "cosmo_cavitation_energy": 52.56, 
			 "cosmo_dispersion_energy": -34.66, 
			 "cosmo_repulsion_energy": 2.59, 
			 "cosmo_total_nonelectrostatic_energy": 20.49, 
			 "SMD_solvation_energy": 10.26 
		},
		"coords": [
			{
				"x": 1.3183056986,
				"y": -4.1335034932,
				"z": 3.342914946,
				"element": "C" 
			},
			{
				"x": 1.6537183976,
				"y": -2.7610665646,
				"z": 3.8824567569,
				"element": "C" 
			},
			{
				"x": 2.9673295686,
				"y": -2.0962271632,
				"z": 3.6264838228,
				"element": "C" 
			},
			{
				"x": 1.7265328575,
				"y": -1.5007917142,
				"z": 2.9927380911,
				"element": "C" 
			},
			{
				"x": 1.1410571384,
				"y": -0.2008260076,
				"z": 3.5471815051,
				"element": "C" 
			},
			{
				"x": 1.1847835546,
				"y": -0.129325689,
				"z": 4.9451318309,
				"element": "O" 
			},
			{
				"x": -0.295735766,
				"y": -0.0700949971,
				"z": 3.0494725406,
				"element": "C" 
			},
			{
				"x": -1.1735101574,
				"y": 0.1894455218,
				"z": 3.8634038803,
				"element": "O" 
			},
			{
				"x": -0.5111657536,
				"y": -0.1994640735,
				"z": 1.5739275724,
				"element": "C" 
			},
			{
				"x": 0.4677241472,
				"y": -0.820602481,
				"z": 0.8631636344,
				"element": "C" 
			},
			{
				"x": 0.4808112663,
				"y": -0.8513837432,
				"z": -0.6446464116,
				"element": "C" 
			},
			{
				"x": 1.8481807748,
				"y": -0.4770232071,
				"z": -1.0031109744,
				"element": "O" 
			},
			{
				"x": 2.3791168844,
				"y": -1.0199445933,
				"z": -2.1153826208,
				"element": "C" 
			},
			{
				"x": 3.8738561819,
				"y": -0.8503364178,
				"z": -2.1449999673,
				"element": "C" 
			},
			{
				"x": 1.7204853591,
				"y": -1.5797838665,
				"z": -2.9735243888,
				"element": "O" 
			},
			{
				"x": -0.497468718,
				"y": 0.1336863036,
				"z": -1.2785075123,
				"element": "C" 
			},
			{
				"x": -0.7000652663,
				"y": -0.1326425596,
				"z": -2.6523105751,
				"element": "O" 
			},
			{
				"x": -1.8718425669,
				"y": 0.0637266035,
				"z": -0.5814755307,
				"element": "C" 
			},
			{
				"x": -2.8701151633,
				"y": 1.0162255089,
				"z": -1.2145014024,
				"element": "C" 
			},
			{
				"x": -3.9578053071,
				"y": 0.5644852146,
				"z": -1.8446914493,
				"element": "C" 
			},
			{
				"x": -2.5998281607,
				"y": 2.5111687093,
				"z": -1.0499244521,
				"element": "C" 
			},
			{
				"x": -1.9806467272,
				"y": 3.1389101143,
				"z": -2.3138553929,
				"element": "C" 
			},
			{
				"x": -1.7497231993,
				"y": 2.7782128873,
				"z": 0.2132347692,
				"element": "C" 
			},
			{
				"x": -2.1107996588,
				"y": 1.7960866452,
				"z": 1.3317124185,
				"element": "C" 
			},
			{
				"x": -1.8291218666,
				"y": 0.2935873834,
				"z": 0.9746544304,
				"element": "C" 
			},
			{
				"x": -2.965099145,
				"y": -0.577923923,
				"z": 1.58419107,
				"element": "C" 
			},
			{
				"x": 1.5386241895,
				"y": -1.6514539972,
				"z": 1.5255295547,
				"element": "C" 
			},
			{
				"x": 2.1563007984,
				"y": -2.4742950136,
				"z": 0.8573158538,
				"element": "O" 
			},
			{
				"x": 0.2345068875,
				"y": -4.2812846801,
				"z": 3.2775390956,
				"element": "H" 
			},
			{
				"x": 1.7489506798,
				"y": -4.2956007947,
				"z": 2.3528993461,
				"element": "H" 
			},
			{
				"x": 1.7159052702,
				"y": -4.8998498584,
				"z": 4.0176791954,
				"element": "H" 
			},
			{
				"x": 1.216922714,
				"y": -2.5233940886,
				"z": 4.8494138619,
				"element": "H" 
			},
			{
				"x": 3.4174775993,
				"y": -1.5227999132,
				"z": 4.4308990783,
				"element": "H" 
			},
			{
				"x": 3.6538178173,
				"y": -2.579757096,
				"z": 2.9377367974,
				"element": "H" 
			},
			{
				"x": 1.7057738959,
				"y": 0.6447997282,
				"z": 3.1159070069,
				"element": "H" 
			},
			{
				"x": 0.2674160579,
				"y": 0.0570672405,
				"z": 5.2191570951,
				"element": "H" 
			},
			{
				"x": 0.2984049647,
				"y": -1.8630183061,
				"z": -1.0219855492,
				"element": "H" 
			},
			{
				"x": 4.312442289,
				"y": -1.5132173228,
				"z": -1.3921008974,
				"element": "H" 
			},
			{
				"x": 4.2551992402,
				"y": -1.1083706487,
				"z": -3.1322792148,
				"element": "H" 
			},
			{
				"x": 4.1483493976,
				"y": 0.1744171589,
				"z": -1.8824517765,
				"element": "H" 
			},
			{
				"x": -0.0531948342,
				"y": 1.1302120471,
				"z": -1.1459122023,
				"element": "H" 
			},
			{
				"x": 0.0502331999,
				"y": -0.657837034,
				"z": -2.9822651448,
				"element": "H" 
			},
			{
				"x": -2.2265015374,
				"y": -0.9593985049,
				"z": -0.756584532,
				"element": "H" 
			},
			{
				"x": -4.6934883043,
				"y": 1.2442173946,
				"z": -2.2682477675,
				"element": "H" 
			},
			{
				"x": -4.140624208,
				"y": -0.4972401053,
				"z": -1.9820087654,
				"element": "H" 
			},
			{
				"x": -3.5742167578,
				"y": 2.9926664264,
				"z": -0.8910003017,
				"element": "H" 
			},
			{
				"x": -2.6644250521,
				"y": 3.0517965143,
				"z": -3.1630788724,
				"element": "H" 
			},
			{
				"x": -1.7699737971,
				"y": 4.2025820641,
				"z": -2.1516127271,
				"element": "H" 
			},
			{
				"x": -1.0494153034,
				"y": 2.6398756147,
				"z": -2.5965532363,
				"element": "H" 
			},
			{
				"x": -1.9187123913,
				"y": 3.8058841089,
				"z": 0.5553591821,
				"element": "H" 
			},
			{
				"x": -0.6791418553,
				"y": 2.7162922293,
				"z": -0.0183402097,
				"element": "H" 
			},
			{
				"x": -3.183510248,
				"y": 1.8941280326,
				"z": 1.537529454,
				"element": "H" 
			},
			{
				"x": -1.6075915012,
				"y": 2.0645315769,
				"z": 2.2632261871,
				"element": "H" 
			},
			{
				"x": -2.7504725865,
				"y": -1.6454427446,
				"z": 1.4643583904,
				"element": "H" 
			},
			{
				"x": -3.8946003146,
				"y": -0.3567694829,
				"z": 1.0505724403,
				"element": "H" 
			},
			{
				"x": -3.1023306829,
				"y": -0.3662349435,
				"z": 2.6441620668,
				"element": "H" 
			}
		],
		 "valence_orbital": [ 
			{
				"type": "occ",
				"energy": -0.2777,
				"method": "rhf"
			},
			{
				"type": "occ",
				"energy": -0.2706,
				"method": "rhf"
			},
			{
				"type": "occ",
				"energy": -0.26448,
				"method": "rhf"
			},
			{
				"type": "occ",
				"energy": -0.25743,
				"method": "rhf"
			},
			{
				"type": "occ",
				"energy": -0.23959,
				"method": "rhf"
			},
			{
				"type": "unocc",
				"energy": -0.10182,
				"method": "rhf"
			},
			{
				"type": "unocc",
				"energy": -0.02709,
				"method": "rhf"
			},
			{
				"type": "unocc",
				"energy": -0.00572,
				"method": "rhf"
			},
			{
				"type": "unocc",
				"energy": 0.01814,
				"method": "rhf"
			},
			{
				"type": "unocc",
				"energy": 0.04165,
				"method": "rhf"
			}
		],
		"cosmo_sigma_profile": { 
			"-0.025": 0.0,
			"-0.024": 0.0,
			"-0.023": 0.0,
			"-0.022": 0.0,
			"-0.021": 0.0,
			"-0.02": 0.0,
			"-0.019": 0.0,
			"-0.018": 0.0,
			"-0.017": 0.0,
			"-0.016": 0.0,
			"-0.015": 0.0,
			"-0.014": 0.0,
			"-0.013": 0.0,
			"-0.012": 0.0902426067041,
			"-0.011": 0.361279112727,
			"-0.01": 0.528399088419,
			"-0.009": 0.547531796149,
			"-0.008": 2.08425888311,
			"-0.007": 8.70806950763,
			"-0.006": 11.9335881446,
			"-0.005": 17.9540347212,
			"-0.004": 30.8949963279,
			"-0.003": 44.4063368247,
			"-0.002": 54.3143503476,
			"-0.001": 50.4855301091,
			"0.0": 44.3075590666,
			"0.001": 36.4211355553,
			"0.002": 18.6524469966,
			"0.003": 14.0388781577,
			"0.004": 12.6934301084,
			"0.005": 11.5480919392,
			"0.006": 8.31963188582,
			"0.007": 6.29437252704,
			"0.008": 7.56615689936,
			"0.009": 7.42019379862,
			"0.01": 7.12676147769,
			"0.011": 6.30118444659,
			"0.012": 4.71316873858,
			"0.013": 2.21516557751,
			"0.014": 0.262645742891,
			"0.015": 0.0,
			"0.016": 0.0,
			"0.017": 0.0,
			"0.018": 0.0,
			"0.019": 0.0,
			"0.02": 0.0,
			"0.021": 0.0,
			"0.022": 0.0,
			"0.023": 0.0,
			"0.024": 0.0,
			"0.025": 0.0
		}
	}
}
