{
	 "smiles": "CCCCCCCCC1=CN=C(N=C1)C1=CC=C(OCCCCCC)C=C1", 
	 "Tm": 332.65, 
	 "num_atms": 63, 
	 "gaussian": { 
		 "optdone": 1, 
		 "sigma_profile": "yes", 
		 "theory": "DFT", 
		 "functional": "B3LYP", 
		 "basiset": "6-31G**", 
		 "properties": { 
			 "R2extent": 21706.5373, 
			 "electric_dipole_moment_norm": 1.36404860251, 
			 "electric_quadrupole_moment_norm": 23.0255377399, 
			 "total_energy": -1121.02320286, 
			 "HOMO_LUMO_gap": 0.16778, 
			 "cosmo_polarized_energy": -10.02, 
			 "cosmo_cavitation_energy": 63.6, 
			 "cosmo_dispersion_energy": -43.1, 
			 "cosmo_repulsion_energy": 3.4, 
			 "cosmo_total_nonelectrostatic_energy": 23.91, 
			 "SMD_solvation_energy": 7.04 
		},
		"coords": [
			{
				"x": 0.918421357,
				"y": -5.3645318382,
				"z": 4.5276804778,
				"element": "C" 
			},
			{
				"x": -0.5047325606,
				"y": -4.9888486114,
				"z": 4.0972469644,
				"element": "C" 
			},
			{
				"x": -0.6455586306,
				"y": -4.6225941732,
				"z": 2.6104134013,
				"element": "C" 
			},
			{
				"x": -0.3854933636,
				"y": -5.7804067317,
				"z": 1.6366033791,
				"element": "C" 
			},
			{
				"x": -0.598407279,
				"y": -5.3923565497,
				"z": 0.166949518,
				"element": "C" 
			},
			{
				"x": -0.3452026244,
				"y": -6.5580703867,
				"z": -0.8005614288,
				"element": "C" 
			},
			{
				"x": -0.6544571545,
				"y": -6.2908789116,
				"z": -2.284743321,
				"element": "C" 
			},
			{
				"x": 0.3690026166,
				"y": -5.4260787535,
				"z": -3.058656177,
				"element": "C" 
			},
			{
				"x": 0.3710939357,
				"y": -3.9469020187,
				"z": -2.753277657,
				"element": "C" 
			},
			{
				"x": 1.4736973311,
				"y": -3.2838134514,
				"z": -2.2052500664,
				"element": "C" 
			},
			{
				"x": 1.4960954239,
				"y": -1.9776187461,
				"z": -1.9420506046,
				"element": "N" 
			},
			{
				"x": 0.3843044753,
				"y": -1.2757483115,
				"z": -2.2336301005,
				"element": "C" 
			},
			{
				"x": -0.7295579002,
				"y": -1.8050793763,
				"z": -2.778727037,
				"element": "N" 
			},
			{
				"x": -0.7195783691,
				"y": -3.1127970567,
				"z": -3.0290983996,
				"element": "C" 
			},
			{
				"x": 0.3853895032,
				"y": 0.1737373857,
				"z": -1.9414811282,
				"element": "C" 
			},
			{
				"x": 1.5102834686,
				"y": 0.7916318441,
				"z": -1.379729152,
				"element": "C" 
			},
			{
				"x": 1.5226536329,
				"y": 2.1568837893,
				"z": -1.0991520334,
				"element": "C" 
			},
			{
				"x": 0.3901017905,
				"y": 2.9331954251,
				"z": -1.3825833034,
				"element": "C" 
			},
			{
				"x": 0.2902295287,
				"y": 4.2722992036,
				"z": -1.1516232999,
				"element": "O" 
			},
			{
				"x": 1.4117209414,
				"y": 4.9629664301,
				"z": -0.597327741,
				"element": "C" 
			},
			{
				"x": 1.0719861929,
				"y": 6.4427328479,
				"z": -0.4532459347,
				"element": "C" 
			},
			{
				"x": 0.0771355137,
				"y": 6.8044301789,
				"z": 0.6633322866,
				"element": "C" 
			},
			{
				"x": -1.3841152674,
				"y": 6.4061259433,
				"z": 0.4114752774,
				"element": "C" 
			},
			{
				"x": -2.329095956,
				"y": 6.8698284602,
				"z": 1.5274384612,
				"element": "C" 
			},
			{
				"x": -3.790180412,
				"y": 6.4811128241,
				"z": 1.2796874252,
				"element": "C" 
			},
			{
				"x": -0.7439513341,
				"y": 2.3245006814,
				"z": -1.9461007262,
				"element": "C" 
			},
			{
				"x": -0.7439493676,
				"y": 0.966438165,
				"z": -2.2203618065,
				"element": "C" 
			},
			{
				"x": 1.6228794128,
				"y": -4.5533638636,
				"z": 4.3089544433,
				"element": "H" 
			},
			{
				"x": 0.9653220313,
				"y": -5.5630092225,
				"z": 5.6036252886,
				"element": "H" 
			},
			{
				"x": 1.2782696631,
				"y": -6.2619567946,
				"z": 4.0139564489,
				"element": "H" 
			},
			{
				"x": -0.8447029653,
				"y": -4.1375289247,
				"z": 4.700781933,
				"element": "H" 
			},
			{
				"x": -1.1879280739,
				"y": -5.8171414216,
				"z": 4.3312582555,
				"element": "H" 
			},
			{
				"x": -1.6597129142,
				"y": -4.2379350104,
				"z": 2.436215311,
				"element": "H" 
			},
			{
				"x": 0.0362785601,
				"y": -3.7923671714,
				"z": 2.3766253987,
				"element": "H" 
			},
			{
				"x": -1.046989728,
				"y": -6.621917829,
				"z": 1.8903833741,
				"element": "H" 
			},
			{
				"x": 0.640043456,
				"y": -6.1526230266,
				"z": 1.7624511673,
				"element": "H" 
			},
			{
				"x": -1.6279192879,
				"y": -5.0303761694,
				"z": 0.0326819806,
				"element": "H" 
			},
			{
				"x": 0.0523609036,
				"y": -4.5452586893,
				"z": -0.0775770202,
				"element": "H" 
			},
			{
				"x": 0.6976434609,
				"y": -6.894317241,
				"z": -0.7056415278,
				"element": "H" 
			},
			{
				"x": -0.9608289549,
				"y": -7.4090423896,
				"z": -0.4780489926,
				"element": "H" 
			},
			{
				"x": -1.6545322885,
				"y": -5.8461975232,
				"z": -2.3774941314,
				"element": "H" 
			},
			{
				"x": -0.7078679232,
				"y": -7.2577465021,
				"z": -2.8006133354,
				"element": "H" 
			},
			{
				"x": 0.1731484744,
				"y": -5.5565292971,
				"z": -4.1314534124,
				"element": "H" 
			},
			{
				"x": 1.3763160243,
				"y": -5.8264203261,
				"z": -2.8863702974,
				"element": "H" 
			},
			{
				"x": 2.3824012099,
				"y": -3.8391920757,
				"z": -1.9681398385,
				"element": "H" 
			},
			{
				"x": -1.6262442204,
				"y": -3.521276105,
				"z": -3.4774864232,
				"element": "H" 
			},
			{
				"x": 2.3826922702,
				"y": 0.185328042,
				"z": -1.1632013582,
				"element": "H" 
			},
			{
				"x": 2.4095297022,
				"y": 2.6013924999,
				"z": -0.663978935,
				"element": "H" 
			},
			{
				"x": 2.2788309875,
				"y": 4.8385585251,
				"z": -1.2612599611,
				"element": "H" 
			},
			{
				"x": 1.6717289035,
				"y": 4.5297348887,
				"z": 0.3799207353,
				"element": "H" 
			},
			{
				"x": 0.7091628445,
				"y": 6.8118822845,
				"z": -1.4208787432,
				"element": "H" 
			},
			{
				"x": 2.0203381433,
				"y": 6.9608995053,
				"z": -0.2601004884,
				"element": "H" 
			},
			{
				"x": 0.4212861685,
				"y": 6.355749507,
				"z": 1.6067665746,
				"element": "H" 
			},
			{
				"x": 0.1219969718,
				"y": 7.8913603386,
				"z": 0.8170217407,
				"element": "H" 
			},
			{
				"x": -1.7137527554,
				"y": 6.8358361162,
				"z": -0.5453763834,
				"element": "H" 
			},
			{
				"x": -1.4579899268,
				"y": 5.3198307498,
				"z": 0.2929597187,
				"element": "H" 
			},
			{
				"x": -1.9957754229,
				"y": 6.4449637583,
				"z": 2.484505334,
				"element": "H" 
			},
			{
				"x": -2.2541369128,
				"y": 7.9605747517,
				"z": 1.6391499886,
				"element": "H" 
			},
			{
				"x": -3.9019267128,
				"y": 5.3938575077,
				"z": 1.1993171675,
				"element": "H" 
			},
			{
				"x": -4.1639107508,
				"y": 6.9197604359,
				"z": 0.3472991894,
				"element": "H" 
			},
			{
				"x": -4.4402526413,
				"y": 6.8232922443,
				"z": 2.0917886617,
				"element": "H" 
			},
			{
				"x": -1.6098585452,
				"y": 2.9427571582,
				"z": -2.1597650375,
				"element": "H" 
			},
			{
				"x": -1.6173346561,
				"y": 0.4942630077,
				"z": -2.6556040996,
				"element": "H" 
			}
		],
		 "valence_orbital": [ 
			{
				"type": "occ",
				"energy": -0.29324,
				"method": "rhf"
			},
			{
				"type": "occ",
				"energy": -0.26605,
				"method": "rhf"
			},
			{
				"type": "occ",
				"energy": -0.24524,
				"method": "rhf"
			},
			{
				"type": "occ",
				"energy": -0.23804,
				"method": "rhf"
			},
			{
				"type": "occ",
				"energy": -0.20637,
				"method": "rhf"
			},
			{
				"type": "unocc",
				"energy": -0.03859,
				"method": "rhf"
			},
			{
				"type": "unocc",
				"energy": -0.03262,
				"method": "rhf"
			},
			{
				"type": "unocc",
				"energy": 0.00789,
				"method": "rhf"
			},
			{
				"type": "unocc",
				"energy": 0.04242,
				"method": "rhf"
			},
			{
				"type": "unocc",
				"energy": 0.08638,
				"method": "rhf"
			}
		],
		"cosmo_sigma_profile": { 
			"-0.025": 0.0,
			"-0.024": 0.0,
			"-0.023": 0.0,
			"-0.022": 0.0,
			"-0.021": 0.0,
			"-0.02": 0.0,
			"-0.019": 0.0,
			"-0.018": 0.0,
			"-0.017": 0.0,
			"-0.016": 0.0,
			"-0.015": 0.0,
			"-0.014": 0.0,
			"-0.013": 0.0,
			"-0.012": 0.0,
			"-0.011": 0.0,
			"-0.01": 0.0,
			"-0.009": 0.0,
			"-0.008": 0.0,
			"-0.007": 1.97615411302,
			"-0.006": 8.89085440601,
			"-0.005": 14.4309509131,
			"-0.004": 24.6788440554,
			"-0.003": 31.7935603602,
			"-0.002": 59.7524993211,
			"-0.001": 85.0943004912,
			"0.0": 86.1201705038,
			"0.001": 68.0958822228,
			"0.002": 37.2616498115,
			"0.003": 19.788913474,
			"0.004": 18.7294345716,
			"0.005": 16.2447734863,
			"0.006": 4.28683178743,
			"0.007": 4.83740782697,
			"0.008": 3.57609821015,
			"0.009": 3.54017681756,
			"0.01": 2.39957791696,
			"0.011": 2.52890251544,
			"0.012": 0.943207929407,
			"0.013": 0.0,
			"0.014": 0.0,
			"0.015": 0.0,
			"0.016": 0.0,
			"0.017": 0.0,
			"0.018": 0.0,
			"0.019": 0.0,
			"0.02": 0.0,
			"0.021": 0.0,
			"0.022": 0.0,
			"0.023": 0.0,
			"0.024": 0.0,
			"0.025": 0.0
		}
	}
}
