{
	 "smiles": "COC(=O)C=CC", 
	 "Tm": 231.15, 
	 "num_atms": 15, 
	 "gaussian": { 
		 "optdone": 1, 
		 "sigma_profile": "yes", 
		 "theory": "DFT", 
		 "functional": "B3LYP", 
		 "basiset": "6-31G**", 
		 "properties": { 
			 "R2extent": 1291.8408, 
			 "electric_dipole_moment_norm": 2.60613111336, 
			 "electric_quadrupole_moment_norm": 9.69330319086, 
			 "total_energy": -345.793381164, 
			 "HOMO_LUMO_gap": 0.22893, 
			 "cosmo_polarized_energy": -7.08, 
			 "cosmo_cavitation_energy": 19.25, 
			 "cosmo_dispersion_energy": -14.05, 
			 "cosmo_repulsion_energy": 1.22, 
			 "cosmo_total_nonelectrostatic_energy": 6.41, 
			 "SMD_solvation_energy": 5.52 
		},
		"coords": [
			{
				"x": 1.3017206508,
				"y": -1.5336022978,
				"z": 1.4849589705,
				"element": "C" 
			},
			{
				"x": 1.1125003347,
				"y": -0.6116988114,
				"z": 0.4028959183,
				"element": "O" 
			},
			{
				"x": 0.6797599787,
				"y": -1.1688348115,
				"z": -0.7565692004,
				"element": "C" 
			},
			{
				"x": 0.4652979925,
				"y": -2.3597484071,
				"z": -0.8804014288,
				"element": "O" 
			},
			{
				"x": 0.4982993863,
				"y": -0.1845035566,
				"z": -1.8445668639,
				"element": "C" 
			},
			{
				"x": 0.7277312061,
				"y": 1.1304218244,
				"z": -1.7333635647,
				"element": "C" 
			},
			{
				"x": 0.543438341,
				"y": 2.125353901,
				"z": -2.8362084708,
				"element": "C" 
			},
			{
				"x": 2.0471165692,
				"y": -2.2896497126,
				"z": 1.2243068803,
				"element": "H" 
			},
			{
				"x": 0.3644331271,
				"y": -2.0392444853,
				"z": 1.7319066267,
				"element": "H" 
			},
			{
				"x": 1.6452711368,
				"y": -0.9333825814,
				"z": 2.3277261002,
				"element": "H" 
			},
			{
				"x": 0.1519856717,
				"y": -0.624587939,
				"z": -2.7756857085,
				"element": "H" 
			},
			{
				"x": 1.0737399725,
				"y": 1.5150790737,
				"z": -0.7759329655,
				"element": "H" 
			},
			{
				"x": 0.1948907284,
				"y": 1.6536523362,
				"z": -3.7589475971,
				"element": "H" 
			},
			{
				"x": -0.1808857345,
				"y": 2.896966783,
				"z": -2.546143803,
				"element": "H" 
			},
			{
				"x": 1.4843006389,
				"y": 2.6487786845,
				"z": -3.0482748932,
				"element": "H" 
			}
		],
		 "valence_orbital": [ 
			{
				"type": "occ",
				"energy": -0.36646,
				"method": "rhf"
			},
			{
				"type": "occ",
				"energy": -0.34994,
				"method": "rhf"
			},
			{
				"type": "occ",
				"energy": -0.29457,
				"method": "rhf"
			},
			{
				"type": "occ",
				"energy": -0.26749,
				"method": "rhf"
			},
			{
				"type": "occ",
				"energy": -0.26538,
				"method": "rhf"
			},
			{
				"type": "unocc",
				"energy": -0.03645,
				"method": "rhf"
			},
			{
				"type": "unocc",
				"energy": 0.0927,
				"method": "rhf"
			},
			{
				"type": "unocc",
				"energy": 0.10555,
				"method": "rhf"
			},
			{
				"type": "unocc",
				"energy": 0.11815,
				"method": "rhf"
			},
			{
				"type": "unocc",
				"energy": 0.12328,
				"method": "rhf"
			}
		],
		"cosmo_sigma_profile": { 
			"-0.025": 0.0,
			"-0.024": 0.0,
			"-0.023": 0.0,
			"-0.022": 0.0,
			"-0.021": 0.0,
			"-0.02": 0.0,
			"-0.019": 0.0,
			"-0.018": 0.0,
			"-0.017": 0.0,
			"-0.016": 0.0,
			"-0.015": 0.0,
			"-0.014": 0.0,
			"-0.013": 0.0,
			"-0.012": 0.0,
			"-0.011": 0.0,
			"-0.01": 0.0,
			"-0.009": 0.0,
			"-0.008": 0.0,
			"-0.007": 0.406724493934,
			"-0.006": 5.9274871077,
			"-0.005": 14.1022084281,
			"-0.004": 17.6627400178,
			"-0.003": 19.6474078782,
			"-0.002": 15.0835903421,
			"-0.001": 14.6485258039,
			"0.0": 11.7277203655,
			"0.001": 8.82878488454,
			"0.002": 8.52356788787,
			"0.003": 7.18614593655,
			"0.004": 4.77883136711,
			"0.005": 2.69983655019,
			"0.006": 3.73900507488,
			"0.007": 2.6046673414,
			"0.008": 1.16742416542,
			"0.009": 1.29361428985,
			"0.01": 1.57385058247,
			"0.011": 2.48416023183,
			"0.012": 4.40923513158,
			"0.013": 3.24189632595,
			"0.014": 0.286457103222,
			"0.015": 0.0,
			"0.016": 0.0,
			"0.017": 0.0,
			"0.018": 0.0,
			"0.019": 0.0,
			"0.02": 0.0,
			"0.021": 0.0,
			"0.022": 0.0,
			"0.023": 0.0,
			"0.024": 0.0,
			"0.025": 0.0
		}
	}
}
