{
	 "smiles": "CCOC(=O)C1=C(NC(=O)C(C)Cl)SC2=C1CCC(C)C2", 
	 "Tm": 364.65, 
	 "num_atms": 41, 
	 "gaussian": { 
		 "optdone": 1, 
		 "sigma_profile": "yes", 
		 "theory": "DFT", 
		 "functional": "B3LYP", 
		 "basiset": "6-31G**", 
		 "properties": { 
			 "R2extent": 8463.741, 
			 "electric_dipole_moment_norm": 2.32410002797, 
			 "electric_quadrupole_moment_norm": 15.7793827351, 
			 "total_energy": -1722.48867511, 
			 "HOMO_LUMO_gap": 0.1582, 
			 "cosmo_polarized_energy": -11.31, 
			 "cosmo_cavitation_energy": 44.62, 
			 "cosmo_dispersion_energy": -31.48, 
			 "cosmo_repulsion_energy": 2.43, 
			 "cosmo_total_nonelectrostatic_energy": 15.57, 
			 "SMD_solvation_energy": 7.86 
		},
		"coords": [
			{
				"x": -3.8982138959,
				"y": -2.6913602796,
				"z": 0.0279674722,
				"element": "C" 
			},
			{
				"x": -3.3970413153,
				"y": -1.6915909234,
				"z": 1.0580925976,
				"element": "C" 
			},
			{
				"x": -2.0006643569,
				"y": -1.3627921211,
				"z": 0.8391953734,
				"element": "O" 
			},
			{
				"x": -1.731824268,
				"y": -0.3664195782,
				"z": -0.0572927006,
				"element": "C" 
			},
			{
				"x": -2.6199045832,
				"y": 0.2109433557,
				"z": -0.6573045135,
				"element": "O" 
			},
			{
				"x": -0.2894207814,
				"y": -0.0972049915,
				"z": -0.218130521,
				"element": "C" 
			},
			{
				"x": 0.741644063,
				"y": -0.6335171284,
				"z": 0.557155159,
				"element": "C" 
			},
			{
				"x": 0.5641608399,
				"y": -1.5622315073,
				"z": 1.5790870199,
				"element": "N" 
			},
			{
				"x": 1.1614525536,
				"y": -1.901403816,
				"z": 2.7841510881,
				"element": "C" 
			},
			{
				"x": 0.592349849,
				"y": -2.7205834124,
				"z": 3.4928123674,
				"element": "O" 
			},
			{
				"x": 2.4583715838,
				"y": -1.2773976424,
				"z": 3.3096521507,
				"element": "C" 
			},
			{
				"x": 2.4280358294,
				"y": 0.2320914436,
				"z": 3.5218233923,
				"element": "C" 
			},
			{
				"x": 3.897017518,
				"y": -1.8002435509,
				"z": 2.3042027894,
				"element": "Cl" 
			},
			{
				"x": 2.29974742,
				"y": -0.1112676447,
				"z": -0.0320386456,
				"element": "S" 
			},
			{
				"x": 1.5629826247,
				"y": 0.8742571268,
				"z": -1.275107436,
				"element": "C" 
			},
			{
				"x": 0.2016018543,
				"y": 0.7862492257,
				"z": -1.2594575083,
				"element": "C" 
			},
			{
				"x": -0.6352261002,
				"y": 1.5466632177,
				"z": -2.2630542716,
				"element": "C" 
			},
			{
				"x": 0.1901347556,
				"y": 2.6130281648,
				"z": -3.0060828327,
				"element": "C" 
			},
			{
				"x": 1.5767494816,
				"y": 2.1124586652,
				"z": -3.4556779032,
				"element": "C" 
			},
			{
				"x": 1.4892295181,
				"y": 0.9686220545,
				"z": -4.4772992177,
				"element": "C" 
			},
			{
				"x": 2.396903287,
				"y": 1.7111020963,
				"z": -2.2078203317,
				"element": "C" 
			},
			{
				"x": -3.881508066,
				"y": -2.2529213804,
				"z": -0.9725053127,
				"element": "H" 
			},
			{
				"x": -3.2845879903,
				"y": -3.5970440326,
				"z": 0.0310272433,
				"element": "H" 
			},
			{
				"x": -4.9295291532,
				"y": -2.9757461224,
				"z": 0.2619286804,
				"element": "H" 
			},
			{
				"x": -3.4182429828,
				"y": -2.1075332246,
				"z": 2.0679173729,
				"element": "H" 
			},
			{
				"x": -3.9775665548,
				"y": -0.7674975937,
				"z": 1.0302997559,
				"element": "H" 
			},
			{
				"x": -0.3596545101,
				"y": -1.9882880615,
				"z": 1.5371526769,
				"element": "H" 
			},
			{
				"x": 2.607650059,
				"y": -1.7852602438,
				"z": 4.2607403904,
				"element": "H" 
			},
			{
				"x": 3.3508695656,
				"y": 0.5551818656,
				"z": 4.0092890907,
				"element": "H" 
			},
			{
				"x": 1.5872988533,
				"y": 0.4764316128,
				"z": 4.180812948,
				"element": "H" 
			},
			{
				"x": 2.315694197,
				"y": 0.7856621806,
				"z": 2.5895782769,
				"element": "H" 
			},
			{
				"x": -1.4887416408,
				"y": 2.0096304692,
				"z": -1.7635054784,
				"element": "H" 
			},
			{
				"x": -1.0774199702,
				"y": 0.8357719522,
				"z": -2.9735925111,
				"element": "H" 
			},
			{
				"x": -0.3780212348,
				"y": 2.9709230076,
				"z": -3.8725251097,
				"element": "H" 
			},
			{
				"x": 0.3303445802,
				"y": 3.4789553344,
				"z": -2.3457615288,
				"element": "H" 
			},
			{
				"x": 2.0995015614,
				"y": 2.9501983099,
				"z": -3.9352603738,
				"element": "H" 
			},
			{
				"x": 1.0411096757,
				"y": 0.069411083,
				"z": -4.0428382989,
				"element": "H" 
			},
			{
				"x": 0.883138378,
				"y": 1.2618093506,
				"z": -5.3414525582,
				"element": "H" 
			},
			{
				"x": 2.4843690769,
				"y": 0.6960827917,
				"z": -4.8450606128,
				"element": "H" 
			},
			{
				"x": 3.3022954312,
				"y": 1.1694438247,
				"z": -2.5094488995,
				"element": "H" 
			},
			{
				"x": 2.7413148479,
				"y": 2.6165861224,
				"z": -1.68806928,
				"element": "H" 
			}
		],
		 "valence_orbital": [ 
			{
				"type": "occ",
				"energy": -0.29598,
				"method": "rhf"
			},
			{
				"type": "occ",
				"energy": -0.27634,
				"method": "rhf"
			},
			{
				"type": "occ",
				"energy": -0.26828,
				"method": "rhf"
			},
			{
				"type": "occ",
				"energy": -0.25506,
				"method": "rhf"
			},
			{
				"type": "occ",
				"energy": -0.21172,
				"method": "rhf"
			},
			{
				"type": "unocc",
				"energy": -0.05352,
				"method": "rhf"
			},
			{
				"type": "unocc",
				"energy": -0.01363,
				"method": "rhf"
			},
			{
				"type": "unocc",
				"energy": 0.01297,
				"method": "rhf"
			},
			{
				"type": "unocc",
				"energy": 0.0155,
				"method": "rhf"
			},
			{
				"type": "unocc",
				"energy": 0.05107,
				"method": "rhf"
			}
		],
		"cosmo_sigma_profile": { 
			"-0.025": 0.0,
			"-0.024": 0.0,
			"-0.023": 0.0,
			"-0.022": 0.0,
			"-0.021": 0.0,
			"-0.02": 0.0,
			"-0.019": 0.0,
			"-0.018": 0.0,
			"-0.017": 0.0,
			"-0.016": 0.0,
			"-0.015": 0.0,
			"-0.014": 0.0,
			"-0.013": 0.0,
			"-0.012": 0.0,
			"-0.011": 0.0,
			"-0.01": 0.0,
			"-0.009": 0.0252322102527,
			"-0.008": 1.19020983118,
			"-0.007": 3.32150901917,
			"-0.006": 8.51876530865,
			"-0.005": 14.919163265,
			"-0.004": 22.6646128039,
			"-0.003": 38.5524626034,
			"-0.002": 51.5895959295,
			"-0.001": 49.8043521419,
			"0.0": 40.6202390586,
			"0.001": 32.4413391252,
			"0.002": 20.3922030595,
			"0.003": 15.4100875881,
			"0.004": 13.279543682,
			"0.005": 11.2223591897,
			"0.006": 4.01556711755,
			"0.007": 2.9308765757,
			"0.008": 2.40188545789,
			"0.009": 3.66985440433,
			"0.01": 3.13438902716,
			"0.011": 5.90033535224,
			"0.012": 6.75825886651,
			"0.013": 1.13056354661,
			"0.014": 0.0,
			"0.015": 0.0,
			"0.016": 0.0,
			"0.017": 0.0,
			"0.018": 0.0,
			"0.019": 0.0,
			"0.02": 0.0,
			"0.021": 0.0,
			"0.022": 0.0,
			"0.023": 0.0,
			"0.024": 0.0,
			"0.025": 0.0
		}
	}
}
