{
	 "smiles": "OC(=O)CCN1C=CC=CC1=O", 
	 "Tm": 420.15, 
	 "num_atms": 21, 
	 "gaussian": { 
		 "optdone": 1, 
		 "sigma_profile": "yes", 
		 "theory": "DFT", 
		 "functional": "B3LYP", 
		 "basiset": "6-31G**", 
		 "properties": { 
			 "R2extent": 2374.8255, 
			 "electric_dipole_moment_norm": 8.33706186675, 
			 "electric_quadrupole_moment_norm": 13.5774513172, 
			 "total_energy": -590.719025161, 
			 "HOMO_LUMO_gap": 0.17918, 
			 "cosmo_polarized_energy": -18.79, 
			 "cosmo_cavitation_energy": 24.56, 
			 "cosmo_dispersion_energy": -18.31, 
			 "cosmo_repulsion_energy": 1.44, 
			 "cosmo_total_nonelectrostatic_energy": 7.69, 
			 "SMD_solvation_energy": 5.98 
		},
		"coords": [
			{
				"x": 0.0865716229,
				"y": -0.9193036274,
				"z": 3.1263433417,
				"element": "O" 
			},
			{
				"x": 0.6547192173,
				"y": -1.8632552188,
				"z": 2.364563987,
				"element": "C" 
			},
			{
				"x": 1.011236859,
				"y": -2.9282410152,
				"z": 2.814228116,
				"element": "O" 
			},
			{
				"x": 0.8240724213,
				"y": -1.4978102445,
				"z": 0.884313758,
				"element": "C" 
			},
			{
				"x": -0.4997410911,
				"y": -1.0716542119,
				"z": 0.1970995738,
				"element": "C" 
			},
			{
				"x": -0.4136764849,
				"y": 0.2307636326,
				"z": -0.4849302621,
				"element": "N" 
			},
			{
				"x": -0.398510566,
				"y": 0.3088590428,
				"z": -1.8505279037,
				"element": "C" 
			},
			{
				"x": -0.3301429349,
				"y": 1.5078965101,
				"z": -2.5006299737,
				"element": "C" 
			},
			{
				"x": -0.2784182667,
				"y": 2.6939492718,
				"z": -1.7210771681,
				"element": "C" 
			},
			{
				"x": -0.291596498,
				"y": 2.6295376562,
				"z": -0.3545219672,
				"element": "C" 
			},
			{
				"x": -0.3507399206,
				"y": 1.3695779626,
				"z": 0.3400811987,
				"element": "C" 
			},
			{
				"x": -0.3494533981,
				"y": 1.2427287149,
				"z": 1.5783251958,
				"element": "O" 
			},
			{
				"x": -0.0878144175,
				"y": -0.0968445002,
				"z": 2.6020898242,
				"element": "H" 
			},
			{
				"x": 1.2620333325,
				"y": -2.3632815091,
				"z": 0.3852672276,
				"element": "H" 
			},
			{
				"x": 1.546435985,
				"y": -0.6769848152,
				"z": 0.8198619093,
				"element": "H" 
			},
			{
				"x": -0.797915333,
				"y": -1.8075442549,
				"z": -0.5512961214,
				"element": "H" 
			},
			{
				"x": -1.3069851858,
				"y": -0.9975410897,
				"z": 0.9293009607,
				"element": "H" 
			},
			{
				"x": -0.4462615957,
				"y": -0.6393892724,
				"z": -2.3740152784,
				"element": "H" 
			},
			{
				"x": -0.3206536442,
				"y": 1.5366293099,
				"z": -3.5828908625,
				"element": "H" 
			},
			{
				"x": -0.2277466207,
				"y": 3.6595296685,
				"z": -2.2163597858,
				"element": "H" 
			},
			{
				"x": -0.2530134806,
				"y": 3.5143779896,
				"z": 0.2695742299,
				"element": "H" 
			}
		],
		 "valence_orbital": [ 
			{
				"type": "occ",
				"energy": -0.31867,
				"method": "rhf"
			},
			{
				"type": "occ",
				"energy": -0.28938,
				"method": "rhf"
			},
			{
				"type": "occ",
				"energy": -0.28239,
				"method": "rhf"
			},
			{
				"type": "occ",
				"energy": -0.25121,
				"method": "rhf"
			},
			{
				"type": "occ",
				"energy": -0.24101,
				"method": "rhf"
			},
			{
				"type": "unocc",
				"energy": -0.06183,
				"method": "rhf"
			},
			{
				"type": "unocc",
				"energy": -0.01241,
				"method": "rhf"
			},
			{
				"type": "unocc",
				"energy": 0.02454,
				"method": "rhf"
			},
			{
				"type": "unocc",
				"energy": 0.05663,
				"method": "rhf"
			},
			{
				"type": "unocc",
				"energy": 0.08501,
				"method": "rhf"
			}
		],
		"cosmo_sigma_profile": { 
			"-0.025": 0.0,
			"-0.024": 0.0,
			"-0.023": 0.0,
			"-0.022": 0.0,
			"-0.021": 0.0,
			"-0.02": 0.0,
			"-0.019": 0.0,
			"-0.018": 0.0,
			"-0.017": 0.0,
			"-0.016": 0.0,
			"-0.015": 0.0,
			"-0.014": 0.0,
			"-0.013": 0.0,
			"-0.012": 0.0,
			"-0.011": 0.670001426786,
			"-0.01": 2.88317288854,
			"-0.009": 3.23440269616,
			"-0.008": 5.57241453359,
			"-0.007": 14.6336701779,
			"-0.006": 17.4786428355,
			"-0.005": 16.6530822183,
			"-0.004": 13.7133199208,
			"-0.003": 11.0911037644,
			"-0.002": 10.770365135,
			"-0.001": 9.98656018827,
			"0.0": 10.3476502053,
			"0.001": 10.1907892033,
			"0.002": 12.2484064761,
			"0.003": 9.7225244607,
			"0.004": 3.03741210579,
			"0.005": 2.35627433406,
			"0.006": 3.45535838107,
			"0.007": 2.92293686511,
			"0.008": 4.16607732538,
			"0.009": 3.5852880958,
			"0.01": 3.93040907687,
			"0.011": 6.46337162118,
			"0.012": 8.65300189708,
			"0.013": 5.72216317877,
			"0.014": 2.33177792474,
			"0.015": 0.00436987142942,
			"0.016": 0.0,
			"0.017": 0.0,
			"0.018": 0.0,
			"0.019": 0.0,
			"0.02": 0.0,
			"0.021": 0.0,
			"0.022": 0.0,
			"0.023": 0.0,
			"0.024": 0.0,
			"0.025": 0.0
		}
	}
}
