{
	 "smiles": "CC1=C(C=CC=C1)C1=NN=C(N)O1", 
	 "Tm": 434.15, 
	 "num_atms": 22, 
	 "gaussian": { 
		 "optdone": 1, 
		 "sigma_profile": "yes", 
		 "theory": "DFT", 
		 "functional": "B3LYP", 
		 "basiset": "6-31G**", 
		 "properties": { 
			 "R2extent": 3498.3236, 
			 "electric_dipole_moment_norm": 3.99903131521, 
			 "electric_quadrupole_moment_norm": 16.0152862407, 
			 "total_energy": -587.841067182, 
			 "HOMO_LUMO_gap": 0.17607, 
			 "cosmo_polarized_energy": -15.56, 
			 "cosmo_cavitation_energy": 26.29, 
			 "cosmo_dispersion_energy": -19.54, 
			 "cosmo_repulsion_energy": 1.54, 
			 "cosmo_total_nonelectrostatic_energy": 8.29, 
			 "SMD_solvation_energy": 3.06 
		},
		"coords": [
			{
				"x": -2.3423902582,
				"y": 0.9911918872,
				"z": 2.4553457751,
				"element": "C" 
			},
			{
				"x": -0.8901066795,
				"y": 1.405129358,
				"z": 2.3745494304,
				"element": "C" 
			},
			{
				"x": 0.136695788,
				"y": 0.5808820574,
				"z": 1.853338289,
				"element": "C" 
			},
			{
				"x": 1.465265813,
				"y": 1.0484561532,
				"z": 1.8260565508,
				"element": "C" 
			},
			{
				"x": 1.7910032772,
				"y": 2.3112302859,
				"z": 2.3024138915,
				"element": "C" 
			},
			{
				"x": 0.7861125949,
				"y": 3.1334255073,
				"z": 2.8151779243,
				"element": "C" 
			},
			{
				"x": -0.5290018169,
				"y": 2.6754173649,
				"z": 2.8453679514,
				"element": "C" 
			},
			{
				"x": -0.0707439169,
				"y": -0.7686995027,
				"z": 1.3278195476,
				"element": "C" 
			},
			{
				"x": 0.8338208002,
				"y": -1.6065377215,
				"z": 0.9201281634,
				"element": "N" 
			},
			{
				"x": 0.1783627519,
				"y": -2.755069008,
				"z": 0.4753812169,
				"element": "N" 
			},
			{
				"x": -1.0868638909,
				"y": -2.5252029523,
				"z": 0.6654509474,
				"element": "C" 
			},
			{
				"x": -2.147995051,
				"y": -3.3670704597,
				"z": 0.4672469005,
				"element": "N" 
			},
			{
				"x": -1.3418114877,
				"y": -1.30241232,
				"z": 1.1949109613,
				"element": "O" 
			},
			{
				"x": -2.7709867368,
				"y": 0.8096548859,
				"z": 1.4646574622,
				"element": "H" 
			},
			{
				"x": -2.9295912437,
				"y": 1.7763407994,
				"z": 2.9383975665,
				"element": "H" 
			},
			{
				"x": -2.4735089697,
				"y": 0.0678589462,
				"z": 3.0275661699,
				"element": "H" 
			},
			{
				"x": 2.2296687646,
				"y": 0.3936057455,
				"z": 1.4223548736,
				"element": "H" 
			},
			{
				"x": 2.8215363417,
				"y": 2.6518032754,
				"z": 2.2717664816,
				"element": "H" 
			},
			{
				"x": 1.0234303171,
				"y": 4.1246446323,
				"z": 3.1905622307,
				"element": "H" 
			},
			{
				"x": -1.3080605521,
				"y": 3.3171160284,
				"z": 3.2484547311,
				"element": "H" 
			},
			{
				"x": -1.909748312,
				"y": -4.1723928589,
				"z": -0.0953366821,
				"element": "H" 
			},
			{
				"x": -3.0135875333,
				"y": -2.9193721038,
				"z": 0.1985896169,
				"element": "H" 
			}
		],
		 "valence_orbital": [ 
			{
				"type": "occ",
				"energy": -0.31217,
				"method": "rhf"
			},
			{
				"type": "occ",
				"energy": -0.27466,
				"method": "rhf"
			},
			{
				"type": "occ",
				"energy": -0.26679,
				"method": "rhf"
			},
			{
				"type": "occ",
				"energy": -0.24779,
				"method": "rhf"
			},
			{
				"type": "occ",
				"energy": -0.21526,
				"method": "rhf"
			},
			{
				"type": "unocc",
				"energy": -0.03919,
				"method": "rhf"
			},
			{
				"type": "unocc",
				"energy": -0.00135,
				"method": "rhf"
			},
			{
				"type": "unocc",
				"energy": 0.03703,
				"method": "rhf"
			},
			{
				"type": "unocc",
				"energy": 0.06466,
				"method": "rhf"
			},
			{
				"type": "unocc",
				"energy": 0.07053,
				"method": "rhf"
			}
		],
		"cosmo_sigma_profile": { 
			"-0.025": 0.0,
			"-0.024": 0.0,
			"-0.023": 0.0,
			"-0.022": 0.0,
			"-0.021": 0.0,
			"-0.02": 0.0,
			"-0.019": 0.0,
			"-0.018": 0.0,
			"-0.017": 0.0,
			"-0.016": 0.0,
			"-0.015": 2.13355226658,
			"-0.014": 2.47926998249,
			"-0.013": 2.762593868,
			"-0.012": 2.68468639033,
			"-0.011": 2.61839327952,
			"-0.01": 1.53457649619,
			"-0.009": 1.34616625063,
			"-0.008": 2.10837957279,
			"-0.007": 2.02865890147,
			"-0.006": 7.03087954613,
			"-0.005": 11.3000969815,
			"-0.004": 15.8632095354,
			"-0.003": 14.8875602268,
			"-0.002": 16.9519897057,
			"-0.001": 15.5089507426,
			"0.0": 16.9235834501,
			"0.001": 14.0194154335,
			"0.002": 14.1156360152,
			"0.003": 13.8277781494,
			"0.004": 12.9698957256,
			"0.005": 8.85169394683,
			"0.006": 3.34216049763,
			"0.007": 2.60598099762,
			"0.008": 2.06011597149,
			"0.009": 2.68666808339,
			"0.01": 2.33406541202,
			"0.011": 3.11974866677,
			"0.012": 3.11968406159,
			"0.013": 3.78180853367,
			"0.014": 2.61205101464,
			"0.015": 1.56516400017,
			"0.016": 0.83705939594,
			"0.017": 0.0698701242327,
			"0.018": 0.0,
			"0.019": 0.0,
			"0.02": 0.0,
			"0.021": 0.0,
			"0.022": 0.0,
			"0.023": 0.0,
			"0.024": 0.0,
			"0.025": 0.0
		}
	}
}
