{
	 "smiles": "O=C(C1=NOC(=C1S(=O)(=O)C1=CC=CC=C1)C1=CC=CC=C1)C1=CC=CC=C1", 
	 "Tm": 461.15, 
	 "num_atms": 43, 
	 "gaussian": { 
		 "optdone": 1, 
		 "sigma_profile": "yes", 
		 "theory": "DFT", 
		 "functional": "B3LYP", 
		 "basiset": "6-31G**", 
		 "properties": { 
			 "R2extent": 11379.3283, 
			 "electric_dipole_moment_norm": 2.91395888955, 
			 "electric_quadrupole_moment_norm": 30.1858334864, 
			 "total_energy": -1601.08762213, 
			 "HOMO_LUMO_gap": 0.17799, 
			 "cosmo_polarized_energy": -16.87, 
			 "cosmo_cavitation_energy": 49.4, 
			 "cosmo_dispersion_energy": -33.95, 
			 "cosmo_repulsion_energy": 2.51, 
			 "cosmo_total_nonelectrostatic_energy": 17.95, 
			 "SMD_solvation_energy": 7.77 
		},
		"coords": [
			{
				"x": 0.4067931037,
				"y": -1.9673782205,
				"z": -2.4346732969,
				"element": "O" 
			},
			{
				"x": -0.6764300659,
				"y": -1.4131143705,
				"z": -2.3269642273,
				"element": "C" 
			},
			{
				"x": -1.0925698064,
				"y": -0.9386753482,
				"z": -0.9453527999,
				"element": "C" 
			},
			{
				"x": -2.0486547346,
				"y": -1.587332364,
				"z": -0.3262602833,
				"element": "N" 
			},
			{
				"x": -2.1012783542,
				"y": -1.040258501,
				"z": 0.9579172007,
				"element": "O" 
			},
			{
				"x": -1.1800648044,
				"y": -0.0610468634,
				"z": 1.0981280028,
				"element": "C" 
			},
			{
				"x": -0.5026398985,
				"y": 0.0584395809,
				"z": -0.1021989429,
				"element": "C" 
			},
			{
				"x": 0.8160686985,
				"y": 1.1453082393,
				"z": -0.621234071,
				"element": "S" 
			},
			{
				"x": 0.861701238,
				"y": 1.0226219398,
				"z": -2.0833101633,
				"element": "O" 
			},
			{
				"x": 0.6219311179,
				"y": 2.4638272368,
				"z": 0.0043024674,
				"element": "O" 
			},
			{
				"x": 2.3026891013,
				"y": 0.4223355657,
				"z": 0.0824613645,
				"element": "C" 
			},
			{
				"x": 2.7788814104,
				"y": -0.7904636533,
				"z": -0.4251193438,
				"element": "C" 
			},
			{
				"x": 3.9459040725,
				"y": -1.3255163812,
				"z": 0.1187830309,
				"element": "C" 
			},
			{
				"x": 4.6206301269,
				"y": -0.653423475,
				"z": 1.1422491758,
				"element": "C" 
			},
			{
				"x": 4.132302514,
				"y": 0.559106418,
				"z": 1.6327615969,
				"element": "C" 
			},
			{
				"x": 2.9625497161,
				"y": 1.1070353807,
				"z": 1.1041000953,
				"element": "C" 
			},
			{
				"x": -1.1293705514,
				"y": 0.538930501,
				"z": 2.4369003804,
				"element": "C" 
			},
			{
				"x": -0.7806093947,
				"y": 1.8836365524,
				"z": 2.6473910464,
				"element": "C" 
			},
			{
				"x": -0.7708595002,
				"y": 2.4022142541,
				"z": 3.9415477306,
				"element": "C" 
			},
			{
				"x": -1.1065758052,
				"y": 1.5980972913,
				"z": 5.0316862722,
				"element": "C" 
			},
			{
				"x": -1.4613086274,
				"y": 0.2623932184,
				"z": 4.8261367557,
				"element": "C" 
			},
			{
				"x": -1.4776647532,
				"y": -0.2660093957,
				"z": 3.5392266984,
				"element": "C" 
			},
			{
				"x": -1.6082705106,
				"y": -1.235766314,
				"z": -3.4652000814,
				"element": "C" 
			},
			{
				"x": -1.2008110227,
				"y": -1.7036771206,
				"z": -4.7266235557,
				"element": "C" 
			},
			{
				"x": -2.0332755681,
				"y": -1.5540148412,
				"z": -5.8292017589,
				"element": "C" 
			},
			{
				"x": -3.2800718142,
				"y": -0.9350365685,
				"z": -5.6841651846,
				"element": "C" 
			},
			{
				"x": -3.6909604015,
				"y": -0.4669199423,
				"z": -4.4347738617,
				"element": "C" 
			},
			{
				"x": -2.8589881003,
				"y": -0.6143418607,
				"z": -3.3260398273,
				"element": "C" 
			},
			{
				"x": 2.241277295,
				"y": -1.3043056259,
				"z": -1.2162513598,
				"element": "H" 
			},
			{
				"x": 4.3303012956,
				"y": -2.2674496752,
				"z": -0.2604503843,
				"element": "H" 
			},
			{
				"x": 5.53082353,
				"y": -1.076477921,
				"z": 1.5574329368,
				"element": "H" 
			},
			{
				"x": 4.660699291,
				"y": 1.0808420194,
				"z": 2.4248987651,
				"element": "H" 
			},
			{
				"x": 2.5669517284,
				"y": 2.0509271832,
				"z": 1.4612063679,
				"element": "H" 
			},
			{
				"x": -0.5300160937,
				"y": 2.5124104571,
				"z": 1.8027932884,
				"element": "H" 
			},
			{
				"x": -0.5060969581,
				"y": 3.4441782479,
				"z": 4.0945544305,
				"element": "H" 
			},
			{
				"x": -1.0958620382,
				"y": 2.0097059711,
				"z": 6.0367762885,
				"element": "H" 
			},
			{
				"x": -1.7245346292,
				"y": -0.3692920986,
				"z": 5.6691598152,
				"element": "H" 
			},
			{
				"x": -1.7518801277,
				"y": -1.3027806921,
				"z": 3.3788482711,
				"element": "H" 
			},
			{
				"x": -0.2282983083,
				"y": -2.176087897,
				"z": -4.8126952354,
				"element": "H" 
			},
			{
				"x": -1.7153322463,
				"y": -1.9152141243,
				"z": -6.8026460984,
				"element": "H" 
			},
			{
				"x": -3.929771331,
				"y": -0.8173027039,
				"z": -6.54682324,
				"element": "H" 
			},
			{
				"x": -4.6583253177,
				"y": 0.0133326052,
				"z": -4.3238532747,
				"element": "H" 
			},
			{
				"x": -3.1829834755,
				"y": -0.2561567045,
				"z": -2.3556249907,
				"element": "H" 
			}
		],
		 "valence_orbital": [ 
			{
				"type": "occ",
				"energy": -0.26735,
				"method": "rhf"
			},
			{
				"type": "occ",
				"energy": -0.26531,
				"method": "rhf"
			},
			{
				"type": "occ",
				"energy": -0.26408,
				"method": "rhf"
			},
			{
				"type": "occ",
				"energy": -0.26144,
				"method": "rhf"
			},
			{
				"type": "occ",
				"energy": -0.25011,
				"method": "rhf"
			},
			{
				"type": "unocc",
				"energy": -0.07212,
				"method": "rhf"
			},
			{
				"type": "unocc",
				"energy": -0.06463,
				"method": "rhf"
			},
			{
				"type": "unocc",
				"energy": -0.03813,
				"method": "rhf"
			},
			{
				"type": "unocc",
				"energy": -0.01881,
				"method": "rhf"
			},
			{
				"type": "unocc",
				"energy": -0.01457,
				"method": "rhf"
			}
		],
		"cosmo_sigma_profile": { 
			"-0.025": 0.0,
			"-0.024": 0.0,
			"-0.023": 0.0,
			"-0.022": 0.0,
			"-0.021": 0.0,
			"-0.02": 0.0,
			"-0.019": 0.0,
			"-0.018": 0.0,
			"-0.017": 0.0,
			"-0.016": 0.0,
			"-0.015": 0.0,
			"-0.014": 0.0,
			"-0.013": 0.0,
			"-0.012": 0.0,
			"-0.011": 0.0,
			"-0.01": 0.0,
			"-0.009": 0.0,
			"-0.008": 0.0879244321104,
			"-0.007": 14.8526779814,
			"-0.006": 30.7641220093,
			"-0.005": 31.2718649656,
			"-0.004": 28.4101387572,
			"-0.003": 26.6694394978,
			"-0.002": 27.6271372452,
			"-0.001": 27.0861317464,
			"0.0": 29.6380117319,
			"0.001": 32.0003301162,
			"0.002": 38.4338989516,
			"0.003": 43.935025554,
			"0.004": 16.9696850427,
			"0.005": 8.28848026631,
			"0.006": 6.43164187179,
			"0.007": 7.48470819512,
			"0.008": 7.00519288464,
			"0.009": 7.84236831979,
			"0.01": 7.27509901371,
			"0.011": 6.6204756587,
			"0.012": 1.07032642451,
			"0.013": 0.0,
			"0.014": 0.0,
			"0.015": 0.0,
			"0.016": 0.0,
			"0.017": 0.0,
			"0.018": 0.0,
			"0.019": 0.0,
			"0.02": 0.0,
			"0.021": 0.0,
			"0.022": 0.0,
			"0.023": 0.0,
			"0.024": 0.0,
			"0.025": 0.0
		}
	}
}
