{
	 "smiles": "CC1(NC(=O)NC1=O)C1=CC(=CC=C1)N1C=NN=N1", 
	 "Tm": 464.15, 
	 "num_atms": 29, 
	 "gaussian": { 
		 "optdone": 1, 
		 "sigma_profile": "yes", 
		 "theory": "DFT", 
		 "functional": "B3LYP", 
		 "basiset": "6-31G**", 
		 "properties": { 
			 "R2extent": 5732.6287, 
			 "electric_dipole_moment_norm": 5.47115732729, 
			 "electric_quadrupole_moment_norm": 35.5323849888, 
			 "total_energy": -904.134780878, 
			 "HOMO_LUMO_gap": 0.21102, 
			 "cosmo_polarized_energy": -27.5, 
			 "cosmo_cavitation_energy": 34.53, 
			 "cosmo_dispersion_energy": -24.24, 
			 "cosmo_repulsion_energy": 1.85, 
			 "cosmo_total_nonelectrostatic_energy": 12.14, 
			 "SMD_solvation_energy": 6.28 
		},
		"coords": [
			{
				"x": 2.7689054225,
				"y": -1.0588204938,
				"z": 0.4363852757,
				"element": "C" 
			},
			{
				"x": 1.6368218181,
				"y": -1.2159485075,
				"z": -0.6007168632,
				"element": "C" 
			},
			{
				"x": 2.1441258533,
				"y": -1.7110592551,
				"z": -1.8788652199,
				"element": "N" 
			},
			{
				"x": 1.7646696628,
				"y": -3.0061774963,
				"z": -2.1575606439,
				"element": "C" 
			},
			{
				"x": 2.127758774,
				"y": -3.7166320088,
				"z": -3.0689431393,
				"element": "O" 
			},
			{
				"x": 0.8435356028,
				"y": -3.3527752546,
				"z": -1.1481860669,
				"element": "N" 
			},
			{
				"x": 0.7121671752,
				"y": -2.391938646,
				"z": -0.1720380975,
				"element": "C" 
			},
			{
				"x": 0.0341333596,
				"y": -2.4475182191,
				"z": 0.8304944031,
				"element": "O" 
			},
			{
				"x": 0.8189816959,
				"y": 0.07329724,
				"z": -0.7423793828,
				"element": "C" 
			},
			{
				"x": 0.1948151588,
				"y": 0.6167390334,
				"z": 0.3870984119,
				"element": "C" 
			},
			{
				"x": -0.5330476575,
				"y": 1.8007280071,
				"z": 0.2704062109,
				"element": "C" 
			},
			{
				"x": -0.6553197029,
				"y": 2.4607295299,
				"z": -0.9553024301,
				"element": "C" 
			},
			{
				"x": -0.0549374565,
				"y": 1.8998504721,
				"z": -2.0792062102,
				"element": "C" 
			},
			{
				"x": 0.6759426799,
				"y": 0.7149234896,
				"z": -1.9775805047,
				"element": "C" 
			},
			{
				"x": -1.1594586794,
				"y": 2.3410331292,
				"z": 1.4286100085,
				"element": "N" 
			},
			{
				"x": -2.3070622975,
				"y": 3.0463667034,
				"z": 1.5632185921,
				"element": "C" 
			},
			{
				"x": -2.490397207,
				"y": 3.3334553317,
				"z": 2.8332566308,
				"element": "N" 
			},
			{
				"x": -1.4270130536,
				"y": 2.7882069534,
				"z": 3.4895905906,
				"element": "N" 
			},
			{
				"x": -0.6252791983,
				"y": 2.1930504602,
				"z": 2.671937344,
				"element": "N" 
			},
			{
				"x": 3.3404378504,
				"y": -1.9880009818,
				"z": 0.5181186887,
				"element": "H" 
			},
			{
				"x": 3.4444923968,
				"y": -0.2525784032,
				"z": 0.1347908161,
				"element": "H" 
			},
			{
				"x": 2.3605786739,
				"y": -0.8165721522,
				"z": 1.419155208,
				"element": "H" 
			},
			{
				"x": 2.9953716178,
				"y": -1.3646393784,
				"z": -2.296998195,
				"element": "H" 
			},
			{
				"x": 0.380299704,
				"y": -4.2503728178,
				"z": -1.1266445531,
				"element": "H" 
			},
			{
				"x": 0.241906991,
				"y": 0.1189916807,
				"z": 1.3469734249,
				"element": "H" 
			},
			{
				"x": -1.1921607009,
				"y": 3.4009660651,
				"z": -1.0249646208,
				"element": "H" 
			},
			{
				"x": -0.1472712694,
				"y": 2.3957882841,
				"z": -3.0403482428,
				"element": "H" 
			},
			{
				"x": 1.1308484178,
				"y": 0.2829437207,
				"z": -2.8614484714,
				"element": "H" 
			},
			{
				"x": -2.9658456315,
				"y": 3.3000635139,
				"z": 0.7476470363,
				"element": "H" 
			}
		],
		 "valence_orbital": [ 
			{
				"type": "occ",
				"energy": -0.29025,
				"method": "rhf"
			},
			{
				"type": "occ",
				"energy": -0.28767,
				"method": "rhf"
			},
			{
				"type": "occ",
				"energy": -0.28107,
				"method": "rhf"
			},
			{
				"type": "occ",
				"energy": -0.27371,
				"method": "rhf"
			},
			{
				"type": "occ",
				"energy": -0.26472,
				"method": "rhf"
			},
			{
				"type": "unocc",
				"energy": -0.0537,
				"method": "rhf"
			},
			{
				"type": "unocc",
				"energy": -0.04249,
				"method": "rhf"
			},
			{
				"type": "unocc",
				"energy": -0.01748,
				"method": "rhf"
			},
			{
				"type": "unocc",
				"energy": 0.00079,
				"method": "rhf"
			},
			{
				"type": "unocc",
				"energy": 0.01818,
				"method": "rhf"
			}
		],
		"cosmo_sigma_profile": { 
			"-0.025": 0.0,
			"-0.024": 0.0,
			"-0.023": 0.0,
			"-0.022": 0.0,
			"-0.021": 0.0,
			"-0.02": 0.0,
			"-0.019": 0.0,
			"-0.018": 0.0,
			"-0.017": 0.679941625952,
			"-0.016": 1.49347739548,
			"-0.015": 2.69600989168,
			"-0.014": 1.85832086705,
			"-0.013": 2.14238697675,
			"-0.012": 4.72547522768,
			"-0.011": 4.00985291696,
			"-0.01": 4.0204463063,
			"-0.009": 4.93323151473,
			"-0.008": 6.04081011153,
			"-0.007": 9.30903110575,
			"-0.006": 15.1508531964,
			"-0.005": 16.7106322779,
			"-0.004": 18.023819869,
			"-0.003": 20.0101536006,
			"-0.002": 17.6259971374,
			"-0.001": 16.445733148,
			"0.0": 13.1774783403,
			"0.001": 12.2923145307,
			"0.002": 16.3403214246,
			"0.003": 12.2099812108,
			"0.004": 5.9138749899,
			"0.005": 4.81929588765,
			"0.006": 5.41362501092,
			"0.007": 7.73651073139,
			"0.008": 8.27643078041,
			"0.009": 6.8531330816,
			"0.01": 8.62093107501,
			"0.011": 9.41619066996,
			"0.012": 11.1803643474,
			"0.013": 6.90361107915,
			"0.014": 1.4407503545,
			"0.015": 0.349345093553,
			"0.016": 0.0,
			"0.017": 0.0,
			"0.018": 0.0,
			"0.019": 0.0,
			"0.02": 0.0,
			"0.021": 0.0,
			"0.022": 0.0,
			"0.023": 0.0,
			"0.024": 0.0,
			"0.025": 0.0
		}
	}
}
