{
	 "smiles": "COC(=O)C1=C(C=NC=C1)C(=O)OC", 
	 "Tm": 329.15, 
	 "num_atms": 23, 
	 "gaussian": { 
		 "optdone": 1, 
		 "sigma_profile": "yes", 
		 "theory": "DFT", 
		 "functional": "B3LYP", 
		 "basiset": "6-31G**", 
		 "properties": { 
			 "R2extent": 4277.1133, 
			 "electric_dipole_moment_norm": 4.28861701368, 
			 "electric_quadrupole_moment_norm": 18.844798307, 
			 "total_energy": -704.028359549, 
			 "HOMO_LUMO_gap": 0.19221, 
			 "cosmo_polarized_energy": -12.63, 
			 "cosmo_cavitation_energy": 28.5, 
			 "cosmo_dispersion_energy": -20.09, 
			 "cosmo_repulsion_energy": 1.6, 
			 "cosmo_total_nonelectrostatic_energy": 10.01, 
			 "SMD_solvation_energy": 6.51 
		},
		"coords": [
			{
				"x": -3.0150986909,
				"y": 2.5387982235,
				"z": -0.0546908789,
				"element": "C" 
			},
			{
				"x": -1.8318030875,
				"y": 1.747934609,
				"z": 0.1554321584,
				"element": "O" 
			},
			{
				"x": -1.8976262064,
				"y": 0.8811792521,
				"z": 1.1864593015,
				"element": "C" 
			},
			{
				"x": -2.8715913601,
				"y": 0.7476189591,
				"z": 1.8958465722,
				"element": "O" 
			},
			{
				"x": -0.6018493404,
				"y": 0.1505101105,
				"z": 1.3770983386,
				"element": "C" 
			},
			{
				"x": -0.5582335505,
				"y": -1.1167074343,
				"z": 1.9828911856,
				"element": "C" 
			},
			{
				"x": 0.6983592285,
				"y": -1.6620721244,
				"z": 2.2761905352,
				"element": "C" 
			},
			{
				"x": 1.8608192075,
				"y": -1.0696669121,
				"z": 1.9884712449,
				"element": "N" 
			},
			{
				"x": 1.8043790553,
				"y": 0.1236933989,
				"z": 1.3857300335,
				"element": "C" 
			},
			{
				"x": 0.6111994813,
				"y": 0.7709303358,
				"z": 1.0656681217,
				"element": "C" 
			},
			{
				"x": -1.7583639671,
				"y": -1.9466334428,
				"z": 2.3234854263,
				"element": "C" 
			},
			{
				"x": -1.886001471,
				"y": -2.5429387519,
				"z": 3.3714280552,
				"element": "O" 
			},
			{
				"x": -2.623097097,
				"y": -2.0213416665,
				"z": 1.2951372259,
				"element": "O" 
			},
			{
				"x": -3.8348131111,
				"y": -2.7461722102,
				"z": 1.5662312008,
				"element": "C" 
			},
			{
				"x": -2.7940646683,
				"y": 3.1741772328,
				"z": -0.9117206813,
				"element": "H" 
			},
			{
				"x": -3.2341135023,
				"y": 3.1433139518,
				"z": 0.8288403629,
				"element": "H" 
			},
			{
				"x": -3.8719506776,
				"y": 1.8940272094,
				"z": -0.263454735,
				"element": "H" 
			},
			{
				"x": 0.7492653076,
				"y": -2.63211129,
				"z": 2.7646919207,
				"element": "H" 
			},
			{
				"x": 2.7590133307,
				"y": 0.5933300503,
				"z": 1.1570148738,
				"element": "H" 
			},
			{
				"x": 0.6195589446,
				"y": 1.7495549667,
				"z": 0.6006488534,
				"element": "H" 
			},
			{
				"x": -3.6097018032,
				"y": -3.7608390628,
				"z": 1.9022126035,
				"element": "H" 
			},
			{
				"x": -4.4144012648,
				"y": -2.2321315995,
				"z": 2.3369456279,
				"element": "H" 
			},
			{
				"x": -4.3828847571,
				"y": -2.7636538054,
				"z": 0.6245426532,
				"element": "H" 
			}
		],
		 "valence_orbital": [ 
			{
				"type": "occ",
				"energy": -0.30052,
				"method": "rhf"
			},
			{
				"type": "occ",
				"energy": -0.29129,
				"method": "rhf"
			},
			{
				"type": "occ",
				"energy": -0.28755,
				"method": "rhf"
			},
			{
				"type": "occ",
				"energy": -0.27043,
				"method": "rhf"
			},
			{
				"type": "occ",
				"energy": -0.26351,
				"method": "rhf"
			},
			{
				"type": "unocc",
				"energy": -0.0713,
				"method": "rhf"
			},
			{
				"type": "unocc",
				"energy": -0.03779,
				"method": "rhf"
			},
			{
				"type": "unocc",
				"energy": 0.02296,
				"method": "rhf"
			},
			{
				"type": "unocc",
				"energy": 0.03279,
				"method": "rhf"
			},
			{
				"type": "unocc",
				"energy": 0.09301,
				"method": "rhf"
			}
		],
		"cosmo_sigma_profile": { 
			"-0.025": 0.0,
			"-0.024": 0.0,
			"-0.023": 0.0,
			"-0.022": 0.0,
			"-0.021": 0.0,
			"-0.02": 0.0,
			"-0.019": 0.0,
			"-0.018": 0.0,
			"-0.017": 0.0,
			"-0.016": 0.0,
			"-0.015": 0.0,
			"-0.014": 0.0,
			"-0.013": 0.0,
			"-0.012": 0.0,
			"-0.011": 0.0,
			"-0.01": 0.0,
			"-0.009": 0.0105543023007,
			"-0.008": 2.87701226638,
			"-0.007": 9.20693037261,
			"-0.006": 17.4463507847,
			"-0.005": 19.0209595148,
			"-0.004": 23.8062861429,
			"-0.003": 18.9887178016,
			"-0.002": 15.1440695112,
			"-0.001": 19.6915396536,
			"0.0": 17.3685100854,
			"0.001": 11.7672670848,
			"0.002": 8.30508903907,
			"0.003": 8.5733330463,
			"0.004": 7.74133993498,
			"0.005": 8.15914878342,
			"0.006": 7.16809294495,
			"0.007": 4.50236494174,
			"0.008": 4.11339642177,
			"0.009": 5.00672532858,
			"0.01": 5.21909055154,
			"0.011": 8.77919664427,
			"0.012": 2.54774842987,
			"0.013": 0.565968095523,
			"0.014": 1.07174150966,
			"0.015": 0.652743126069,
			"0.016": 0.0755016850245,
			"0.017": 0.0,
			"0.018": 0.0,
			"0.019": 0.0,
			"0.02": 0.0,
			"0.021": 0.0,
			"0.022": 0.0,
			"0.023": 0.0,
			"0.024": 0.0,
			"0.025": 0.0
		}
	}
}
