{
	 "smiles": "OC(=O)C1=NN(C2=C1CCC2)C1=CC=CC=C1", 
	 "Tm": 453.15, 
	 "num_atms": 29, 
	 "gaussian": { 
		 "optdone": 1, 
		 "sigma_profile": "yes", 
		 "theory": "DFT", 
		 "functional": "B3LYP", 
		 "basiset": "6-31G**", 
		 "properties": { 
			 "R2extent": 4791.02, 
			 "electric_dipole_moment_norm": 6.74569604711, 
			 "electric_quadrupole_moment_norm": 23.4161472439, 
			 "total_energy": -762.56028925, 
			 "HOMO_LUMO_gap": 0.18947, 
			 "cosmo_polarized_energy": -13.71, 
			 "cosmo_cavitation_energy": 32.7, 
			 "cosmo_dispersion_energy": -23.96, 
			 "cosmo_repulsion_energy": 1.86, 
			 "cosmo_total_nonelectrostatic_energy": 10.61, 
			 "SMD_solvation_energy": 5.55 
		},
		"coords": [
			{
				"x": -0.26363179,
				"y": 3.9136954927,
				"z": 2.6124254668,
				"element": "O" 
			},
			{
				"x": -1.3444944804,
				"y": 3.1535328913,
				"z": 2.3261872488,
				"element": "C" 
			},
			{
				"x": -2.4564278719,
				"y": 3.4445806172,
				"z": 2.7055465704,
				"element": "O" 
			},
			{
				"x": -1.0531357177,
				"y": 1.9464250758,
				"z": 1.5159574239,
				"element": "C" 
			},
			{
				"x": 0.2029935339,
				"y": 1.7036510836,
				"z": 1.1136278725,
				"element": "N" 
			},
			{
				"x": 0.1519956272,
				"y": 0.5446453863,
				"z": 0.4088036182,
				"element": "N" 
			},
			{
				"x": -1.1334826221,
				"y": 0.0711122076,
				"z": 0.3598224152,
				"element": "C" 
			},
			{
				"x": -1.9308047277,
				"y": 0.9423771243,
				"z": 1.0591547019,
				"element": "C" 
			},
			{
				"x": -3.3630228648,
				"y": 0.4965090282,
				"z": 1.0664276069,
				"element": "C" 
			},
			{
				"x": -3.3592606601,
				"y": -0.6026297647,
				"z": -0.0485978459,
				"element": "C" 
			},
			{
				"x": -1.8807290479,
				"y": -1.0905077602,
				"z": -0.2278487939,
				"element": "C" 
			},
			{
				"x": 1.3301046118,
				"y": 0.0230500838,
				"z": -0.1926736613,
				"element": "C" 
			},
			{
				"x": 2.3814329867,
				"y": 0.8892926707,
				"z": -0.5128926976,
				"element": "C" 
			},
			{
				"x": 3.53421812,
				"y": 0.3779722042,
				"z": -1.1042277861,
				"element": "C" 
			},
			{
				"x": 3.6433073638,
				"y": -0.9856164944,
				"z": -1.3877320733,
				"element": "C" 
			},
			{
				"x": 2.5903737303,
				"y": -1.8418602088,
				"z": -1.0640869226,
				"element": "C" 
			},
			{
				"x": 1.4350106256,
				"y": -1.3459942641,
				"z": -0.4598948429,
				"element": "C" 
			},
			{
				"x": 0.5151434598,
				"y": 3.4855609735,
				"z": 2.2137887387,
				"element": "H" 
			},
			{
				"x": -3.6421304076,
				"y": 0.0829261322,
				"z": 2.0437568737,
				"element": "H" 
			},
			{
				"x": -4.0707036367,
				"y": 1.3022095526,
				"z": 0.8536485383,
				"element": "H" 
			},
			{
				"x": -4.0365065474,
				"y": -1.4307389558,
				"z": 0.1761950461,
				"element": "H" 
			},
			{
				"x": -3.6944125865,
				"y": -0.155215901,
				"z": -0.989534556,
				"element": "H" 
			},
			{
				"x": -1.6930976648,
				"y": -2.0147451908,
				"z": 0.3354663388,
				"element": "H" 
			},
			{
				"x": -1.6341075452,
				"y": -1.2965165582,
				"z": -1.2744614422,
				"element": "H" 
			},
			{
				"x": 2.281265617,
				"y": 1.9454022376,
				"z": -0.2952869523,
				"element": "H" 
			},
			{
				"x": 4.3483576632,
				"y": 1.0525425673,
				"z": -1.3518122704,
				"element": "H" 
			},
			{
				"x": 4.5422599391,
				"y": -1.377068494,
				"z": -1.8536847743,
				"element": "H" 
			},
			{
				"x": 2.6682864271,
				"y": -2.9053123559,
				"z": -1.2692123553,
				"element": "H" 
			},
			{
				"x": 0.6344984653,
				"y": -2.0215793808,
				"z": -0.1823614862,
				"element": "H" 
			}
		],
		 "valence_orbital": [ 
			{
				"type": "occ",
				"energy": -0.29538,
				"method": "rhf"
			},
			{
				"type": "occ",
				"energy": -0.26948,
				"method": "rhf"
			},
			{
				"type": "occ",
				"energy": -0.26343,
				"method": "rhf"
			},
			{
				"type": "occ",
				"energy": -0.25114,
				"method": "rhf"
			},
			{
				"type": "occ",
				"energy": -0.23701,
				"method": "rhf"
			},
			{
				"type": "unocc",
				"energy": -0.04754,
				"method": "rhf"
			},
			{
				"type": "unocc",
				"energy": -0.02032,
				"method": "rhf"
			},
			{
				"type": "unocc",
				"energy": -0.00533,
				"method": "rhf"
			},
			{
				"type": "unocc",
				"energy": 0.0326,
				"method": "rhf"
			},
			{
				"type": "unocc",
				"energy": 0.07299,
				"method": "rhf"
			}
		],
		"cosmo_sigma_profile": { 
			"-0.025": 0.0,
			"-0.024": 0.0,
			"-0.023": 0.0,
			"-0.022": 0.0,
			"-0.021": 0.0,
			"-0.02": 0.0,
			"-0.019": 0.0,
			"-0.018": 0.0,
			"-0.017": 0.0,
			"-0.016": 0.0,
			"-0.015": 0.0363984944207,
			"-0.014": 0.410248374543,
			"-0.013": 0.600708724246,
			"-0.012": 0.310559984659,
			"-0.011": 0.645733011884,
			"-0.01": 1.00057442358,
			"-0.009": 0.520402947886,
			"-0.008": 0.89767707829,
			"-0.007": 4.56093063311,
			"-0.006": 11.8408799824,
			"-0.005": 16.6426101436,
			"-0.004": 25.7060645411,
			"-0.003": 27.0691417484,
			"-0.002": 25.8581754861,
			"-0.001": 21.3438658354,
			"0.0": 20.9246421452,
			"0.001": 17.556197514,
			"0.002": 16.0323720566,
			"0.003": 14.7827097898,
			"0.004": 15.4823993078,
			"0.005": 7.4285658062,
			"0.006": 3.57572084505,
			"0.007": 3.41424017115,
			"0.008": 3.8668040605,
			"0.009": 3.21955024017,
			"0.01": 5.16977281642,
			"0.011": 4.8218549457,
			"0.012": 5.30183982023,
			"0.013": 1.78474693751,
			"0.014": 0.172938274118,
			"0.015": 0.0,
			"0.016": 0.0,
			"0.017": 0.0,
			"0.018": 0.0,
			"0.019": 0.0,
			"0.02": 0.0,
			"0.021": 0.0,
			"0.022": 0.0,
			"0.023": 0.0,
			"0.024": 0.0,
			"0.025": 0.0
		}
	}
}
