{
	 "smiles": "OC(=O)C1CCCN(C1)S(=O)(=O)C1=CC2=C(C=CC=C2)C=C1", 
	 "Tm": 411.15, 
	 "num_atms": 39, 
	 "gaussian": { 
		 "optdone": 1, 
		 "sigma_profile": "yes", 
		 "theory": "DFT", 
		 "functional": "B3LYP", 
		 "basiset": "6-31G**", 
		 "properties": { 
			 "R2extent": 7545.9739, 
			 "electric_dipole_moment_norm": 5.06576183214, 
			 "electric_quadrupole_moment_norm": 29.9155848019, 
			 "total_energy": -1373.73656244, 
			 "HOMO_LUMO_gap": 0.17039, 
			 "cosmo_polarized_energy": -20.62, 
			 "cosmo_cavitation_energy": 42.63, 
			 "cosmo_dispersion_energy": -29.54, 
			 "cosmo_repulsion_energy": 2.21, 
			 "cosmo_total_nonelectrostatic_energy": 15.29, 
			 "SMD_solvation_energy": 5.69 
		},
		"coords": [
			{
				"x": 3.2689814627,
				"y": 2.2166997922,
				"z": 2.0268909629,
				"element": "O" 
			},
			{
				"x": 2.0922353327,
				"y": 1.5480051929,
				"z": 2.144196849,
				"element": "C" 
			},
			{
				"x": 1.3529076952,
				"y": 1.6998962969,
				"z": 3.0910889425,
				"element": "O" 
			},
			{
				"x": 1.835715429,
				"y": 0.638931022,
				"z": 0.9588384597,
				"element": "C" 
			},
			{
				"x": 2.9279741099,
				"y": -0.4598123141,
				"z": 0.8005182871,
				"element": "C" 
			},
			{
				"x": 3.1315503299,
				"y": -0.8536146529,
				"z": -0.6781539626,
				"element": "C" 
			},
			{
				"x": 1.8268953761,
				"y": -0.7933696375,
				"z": -1.473813417,
				"element": "C" 
			},
			{
				"x": 1.3279972939,
				"y": 0.5991771803,
				"z": -1.4735365764,
				"element": "N" 
			},
			{
				"x": 1.719438675,
				"y": 1.4601454482,
				"z": -0.3447835942,
				"element": "C" 
			},
			{
				"x": -0.1423337065,
				"y": 0.8801670398,
				"z": -2.238668879,
				"element": "S" 
			},
			{
				"x": -0.3543924618,
				"y": 2.3295300338,
				"z": -2.2031824326,
				"element": "O" 
			},
			{
				"x": -0.0894472652,
				"y": 0.1231323384,
				"z": -3.4912084166,
				"element": "O" 
			},
			{
				"x": -1.4238408297,
				"y": 0.1244531161,
				"z": -1.2260942725,
				"element": "C" 
			},
			{
				"x": -2.0398890331,
				"y": 0.8725894135,
				"z": -0.2455016086,
				"element": "C" 
			},
			{
				"x": -3.0246450185,
				"y": 0.2808794983,
				"z": 0.5877437003,
				"element": "C" 
			},
			{
				"x": -3.36688002,
				"y": -1.0976789226,
				"z": 0.389387404,
				"element": "C" 
			},
			{
				"x": -4.3529106283,
				"y": -1.6853014357,
				"z": 1.2262784444,
				"element": "C" 
			},
			{
				"x": -4.969957584,
				"y": -0.9468738749,
				"z": 2.2108646718,
				"element": "C" 
			},
			{
				"x": -4.6321944856,
				"y": 0.4157385398,
				"z": 2.4053710439,
				"element": "C" 
			},
			{
				"x": -3.6825382842,
				"y": 1.0162736499,
				"z": 1.6110089316,
				"element": "C" 
			},
			{
				"x": -2.7177459223,
				"y": -1.8259249356,
				"z": -0.6446402837,
				"element": "C" 
			},
			{
				"x": -1.7657140157,
				"y": -1.2352232088,
				"z": -1.4428175178,
				"element": "C" 
			},
			{
				"x": 3.3393356711,
				"y": 2.7812793292,
				"z": 2.8150303174,
				"element": "H" 
			},
			{
				"x": 0.8655060737,
				"y": 0.1754975715,
				"z": 1.1558447233,
				"element": "H" 
			},
			{
				"x": 3.8762469321,
				"y": -0.1034515453,
				"z": 1.2124866714,
				"element": "H" 
			},
			{
				"x": 2.6326274344,
				"y": -1.335333986,
				"z": 1.3883455343,
				"element": "H" 
			},
			{
				"x": 3.8618492025,
				"y": -0.1883480781,
				"z": -1.1518903671,
				"element": "H" 
			},
			{
				"x": 3.5416816746,
				"y": -1.866281724,
				"z": -0.7456149775,
				"element": "H" 
			},
			{
				"x": 1.0923798099,
				"y": -1.4792330655,
				"z": -1.0219622626,
				"element": "H" 
			},
			{
				"x": 1.9789696238,
				"y": -1.1034776315,
				"z": -2.5093879428,
				"element": "H" 
			},
			{
				"x": 0.9864647315,
				"y": 2.2629862727,
				"z": -0.2526748467,
				"element": "H" 
			},
			{
				"x": 2.6807223524,
				"y": 1.9355221854,
				"z": -0.5688073575,
				"element": "H" 
			},
			{
				"x": -1.7920280758,
				"y": 1.9223205905,
				"z": -0.1250677495,
				"element": "H" 
			},
			{
				"x": -4.6134556605,
				"y": -2.7295091094,
				"z": 1.0752259645,
				"element": "H" 
			},
			{
				"x": -5.7219085386,
				"y": -1.4076357773,
				"z": 2.8447401329,
				"element": "H" 
			},
			{
				"x": -5.1272328189,
				"y": 0.9848429602,
				"z": 3.1864872975,
				"element": "H" 
			},
			{
				"x": -3.4190868051,
				"y": 2.0601354494,
				"z": 1.7572962977,
				"element": "H" 
			},
			{
				"x": -2.9944011644,
				"y": -2.8643138547,
				"z": -0.8067874168,
				"element": "H" 
			},
			{
				"x": -1.2957768922,
				"y": -1.778119167,
				"z": -2.2548507548,
				"element": "H" 
			}
		],
		 "valence_orbital": [ 
			{
				"type": "occ",
				"energy": -0.29556,
				"method": "rhf"
			},
			{
				"type": "occ",
				"energy": -0.28225,
				"method": "rhf"
			},
			{
				"type": "occ",
				"energy": -0.2636,
				"method": "rhf"
			},
			{
				"type": "occ",
				"energy": -0.2473,
				"method": "rhf"
			},
			{
				"type": "occ",
				"energy": -0.22915,
				"method": "rhf"
			},
			{
				"type": "unocc",
				"energy": -0.05876,
				"method": "rhf"
			},
			{
				"type": "unocc",
				"energy": -0.03151,
				"method": "rhf"
			},
			{
				"type": "unocc",
				"energy": -0.00307,
				"method": "rhf"
			},
			{
				"type": "unocc",
				"energy": 0.01484,
				"method": "rhf"
			},
			{
				"type": "unocc",
				"energy": 0.05735,
				"method": "rhf"
			}
		],
		"cosmo_sigma_profile": { 
			"-0.025": 0.0,
			"-0.024": 0.0,
			"-0.023": 0.0,
			"-0.022": 0.0,
			"-0.021": 0.0,
			"-0.02": 0.0,
			"-0.019": 0.0829040760325,
			"-0.018": 0.714359021356,
			"-0.017": 1.02959986054,
			"-0.016": 1.06356127223,
			"-0.015": 0.476308949653,
			"-0.014": 0.199496741452,
			"-0.013": 0.820364409301,
			"-0.012": 0.898880689365,
			"-0.011": 0.839700563405,
			"-0.01": 1.00728136999,
			"-0.009": 0.36078589281,
			"-0.008": 1.05997971467,
			"-0.007": 9.66467143444,
			"-0.006": 18.1729280037,
			"-0.005": 25.6818992783,
			"-0.004": 37.3059266083,
			"-0.003": 33.8529873404,
			"-0.002": 26.4204488226,
			"-0.001": 19.8669481936,
			"0.0": 15.6371914923,
			"0.001": 17.6494285379,
			"0.002": 25.5477604493,
			"0.003": 21.8387527833,
			"0.004": 16.2133726925,
			"0.005": 8.07090246023,
			"0.006": 6.1235440444,
			"0.007": 5.99221310435,
			"0.008": 5.7629837665,
			"0.009": 6.38679892472,
			"0.01": 7.8935490891,
			"0.011": 11.9427152475,
			"0.012": 8.32174812813,
			"0.013": 0.705586790633,
			"0.014": 0.0,
			"0.015": 0.0,
			"0.016": 0.0,
			"0.017": 0.0,
			"0.018": 0.0,
			"0.019": 0.0,
			"0.02": 0.0,
			"0.021": 0.0,
			"0.022": 0.0,
			"0.023": 0.0,
			"0.024": 0.0,
			"0.025": 0.0
		}
	}
}
