{
	 "smiles": "C1=CC=C(C=C1)C(=C=C(C1=CC=CC=C1)C1=CC=CC=C1)C1=CC=CC=C1", 
	 "Tm": 413.15, 
	 "num_atms": 47, 
	 "gaussian": { 
		 "optdone": 1, 
		 "sigma_profile": "yes", 
		 "theory": "DFT", 
		 "functional": "B3LYP", 
		 "basiset": "6-31G**", 
		 "properties": { 
			 "R2extent": 10362.6584, 
			 "electric_dipole_moment_norm": 0.00292232783924, 
			 "electric_quadrupole_moment_norm": 2.90712093316, 
			 "total_energy": -1040.89221498, 
			 "HOMO_LUMO_gap": 0.18311, 
			 "cosmo_polarized_energy": -8.63, 
			 "cosmo_cavitation_energy": 51.83, 
			 "cosmo_dispersion_energy": -33.74, 
			 "cosmo_repulsion_energy": 2.61, 
			 "cosmo_total_nonelectrostatic_energy": 20.7, 
			 "SMD_solvation_energy": 8.23 
		},
		"coords": [
			{
				"x": -0.5094965288,
				"y": -0.4542026256,
				"z": 5.1893112215,
				"element": "C" 
			},
			{
				"x": 0.5421640127,
				"y": -0.7459970314,
				"z": 4.3175536929,
				"element": "C" 
			},
			{
				"x": 0.3150768589,
				"y": -0.8241114706,
				"z": 2.9447850905,
				"element": "C" 
			},
			{
				"x": -0.9680454942,
				"y": -0.6081659277,
				"z": 2.4153541036,
				"element": "C" 
			},
			{
				"x": -2.0189097328,
				"y": -0.3181544209,
				"z": 3.301452265,
				"element": "C" 
			},
			{
				"x": -1.7897388743,
				"y": -0.2407063254,
				"z": 4.6752366854,
				"element": "C" 
			},
			{
				"x": -1.1973193938,
				"y": -0.6466064173,
				"z": 0.9366699677,
				"element": "C" 
			},
			{
				"x": -0.2644482349,
				"y": -0.2030174019,
				"z": 0.1131255487,
				"element": "C" 
			},
			{
				"x": 0.6687889296,
				"y": 0.2393381918,
				"z": -0.710689208,
				"element": "C" 
			},
			{
				"x": 0.6766410924,
				"y": 1.6768949436,
				"z": -1.1276843557,
				"element": "C" 
			},
			{
				"x": 0.2789373177,
				"y": 2.6825775779,
				"z": -0.2311575908,
				"element": "C" 
			},
			{
				"x": 0.2423493374,
				"y": 4.0178865683,
				"z": -0.6284000211,
				"element": "C" 
			},
			{
				"x": 0.606308066,
				"y": 4.3754887758,
				"z": -1.9286832303,
				"element": "C" 
			},
			{
				"x": 1.0063174812,
				"y": 3.3852474417,
				"z": -2.8277391218,
				"element": "C" 
			},
			{
				"x": 1.0431501771,
				"y": 2.0481305746,
				"z": -2.4320767534,
				"element": "C" 
			},
			{
				"x": 1.7156813476,
				"y": -0.6989450598,
				"z": -1.224908483,
				"element": "C" 
			},
			{
				"x": 1.4003701304,
				"y": -2.0405978555,
				"z": -1.496616075,
				"element": "C" 
			},
			{
				"x": 2.3812587403,
				"y": -2.9289870256,
				"z": -1.9334572262,
				"element": "C" 
			},
			{
				"x": 3.696413853,
				"y": -2.4933273957,
				"z": -2.1112622744,
				"element": "C" 
			},
			{
				"x": 4.0212634357,
				"y": -1.1614856061,
				"z": -1.8474508332,
				"element": "C" 
			},
			{
				"x": 3.0409101905,
				"y": -0.2709178268,
				"z": -1.4097383983,
				"element": "C" 
			},
			{
				"x": -2.4810016193,
				"y": -1.1871998164,
				"z": 0.3883170861,
				"element": "C" 
			},
			{
				"x": -3.0557613133,
				"y": -0.629124814,
				"z": -0.7655535305,
				"element": "C" 
			},
			{
				"x": -4.2269635233,
				"y": -1.1574535981,
				"z": -1.3053861966,
				"element": "C" 
			},
			{
				"x": -4.8493674744,
				"y": -2.2519110102,
				"z": -0.7005651826,
				"element": "C" 
			},
			{
				"x": -4.2892983871,
				"y": -2.8131179743,
				"z": 0.4484831197,
				"element": "C" 
			},
			{
				"x": -3.1169550107,
				"y": -2.2858464814,
				"z": 0.9901027375,
				"element": "C" 
			},
			{
				"x": -0.3332802208,
				"y": -0.3974824867,
				"z": 6.2596431758,
				"element": "H" 
			},
			{
				"x": 1.5408423181,
				"y": -0.9211582479,
				"z": 4.7078228699,
				"element": "H" 
			},
			{
				"x": 1.1312681469,
				"y": -1.0607830916,
				"z": 2.2687904692,
				"element": "H" 
			},
			{
				"x": -3.0161555116,
				"y": -0.145099294,
				"z": 2.9096605846,
				"element": "H" 
			},
			{
				"x": -2.6139548701,
				"y": -0.0091652066,
				"z": 5.3442090745,
				"element": "H" 
			},
			{
				"x": 0.005420751,
				"y": 2.4067133187,
				"z": 0.782865181,
				"element": "H" 
			},
			{
				"x": -0.0634153312,
				"y": 4.7814658693,
				"z": 0.0813923614,
				"element": "H" 
			},
			{
				"x": 0.5818536472,
				"y": 5.4167578922,
				"z": -2.2369686555,
				"element": "H" 
			},
			{
				"x": 1.2875860001,
				"y": 3.6521267454,
				"z": -3.8426923412,
				"element": "H" 
			},
			{
				"x": 1.349642209,
				"y": 1.2839290402,
				"z": -3.1391817432,
				"element": "H" 
			},
			{
				"x": 0.3761787735,
				"y": -2.3777759383,
				"z": -1.3682078612,
				"element": "H" 
			},
			{
				"x": 2.116213929,
				"y": -3.9615616575,
				"z": -2.1429526919,
				"element": "H" 
			},
			{
				"x": 4.4600290564,
				"y": -3.1847418431,
				"z": -2.4558177849,
				"element": "H" 
			},
			{
				"x": 5.0420553641,
				"y": -0.8132913949,
				"z": -1.9786511981,
				"element": "H" 
			},
			{
				"x": 3.3032894273,
				"y": 0.7613835905,
				"z": -1.2012403041,
				"element": "H" 
			},
			{
				"x": -2.5779426027,
				"y": 0.2278439792,
				"z": -1.2307851999,
				"element": "H" 
			},
			{
				"x": -4.6585438954,
				"y": -0.7085318504,
				"z": -2.195641415,
				"element": "H" 
			},
			{
				"x": -5.7644679765,
				"y": -2.6610470108,
				"z": -1.1189898265,
				"element": "H" 
			},
			{
				"x": -4.7632613497,
				"y": -3.6670745069,
				"z": 0.9244908776,
				"element": "H" 
			},
			{
				"x": -2.6849832481,
				"y": -2.7317958959,
				"z": 1.8803313896,
				"element": "H" 
			}
		],
		 "valence_orbital": [ 
			{
				"type": "occ",
				"energy": -0.24832,
				"method": "rhf"
			},
			{
				"type": "occ",
				"energy": -0.24647,
				"method": "rhf"
			},
			{
				"type": "occ",
				"energy": -0.24646,
				"method": "rhf"
			},
			{
				"type": "occ",
				"energy": -0.21364,
				"method": "rhf"
			},
			{
				"type": "occ",
				"energy": -0.21362,
				"method": "rhf"
			},
			{
				"type": "unocc",
				"energy": -0.03051,
				"method": "rhf"
			},
			{
				"type": "unocc",
				"energy": -0.03047,
				"method": "rhf"
			},
			{
				"type": "unocc",
				"energy": -0.00614,
				"method": "rhf"
			},
			{
				"type": "unocc",
				"energy": -0.00487,
				"method": "rhf"
			},
			{
				"type": "unocc",
				"energy": -0.0029,
				"method": "rhf"
			}
		],
		"cosmo_sigma_profile": { 
			"-0.025": 0.0,
			"-0.024": 0.0,
			"-0.023": 0.0,
			"-0.022": 0.0,
			"-0.021": 0.0,
			"-0.02": 0.0,
			"-0.019": 0.0,
			"-0.018": 0.0,
			"-0.017": 0.0,
			"-0.016": 0.0,
			"-0.015": 0.0,
			"-0.014": 0.0,
			"-0.013": 0.0,
			"-0.012": 0.0,
			"-0.011": 0.0,
			"-0.01": 0.0,
			"-0.009": 0.0,
			"-0.008": 0.0,
			"-0.007": 0.00565505229789,
			"-0.006": 13.643477284,
			"-0.005": 34.3023712962,
			"-0.004": 39.9430075828,
			"-0.003": 42.2213879577,
			"-0.002": 28.082733499,
			"-0.001": 33.7394414894,
			"0.0": 30.0250886866,
			"0.001": 36.0125916242,
			"0.002": 39.644512007,
			"0.003": 36.0563982304,
			"0.004": 30.4732655718,
			"0.005": 34.7401296493,
			"0.006": 17.8222584004,
			"0.007": 0.0,
			"0.008": 0.0,
			"0.009": 0.0,
			"0.01": 0.0,
			"0.011": 0.0,
			"0.012": 0.0,
			"0.013": 0.0,
			"0.014": 0.0,
			"0.015": 0.0,
			"0.016": 0.0,
			"0.017": 0.0,
			"0.018": 0.0,
			"0.019": 0.0,
			"0.02": 0.0,
			"0.021": 0.0,
			"0.022": 0.0,
			"0.023": 0.0,
			"0.024": 0.0,
			"0.025": 0.0
		}
	}
}
