{
	 "smiles": "CC1=C2N=C(CC#N)NC2=CC=C1", 
	 "Tm": 432.15, 
	 "num_atms": 22, 
	 "gaussian": { 
		 "optdone": 1, 
		 "sigma_profile": "yes", 
		 "theory": "DFT", 
		 "functional": "B3LYP", 
		 "basiset": "6-31G**", 
		 "properties": { 
			 "R2extent": 3419.4846, 
			 "electric_dipole_moment_norm": 1.20865621663, 
			 "electric_quadrupole_moment_norm": 13.533029411, 
			 "total_energy": -550.74614131, 
			 "HOMO_LUMO_gap": 0.20172, 
			 "cosmo_polarized_energy": -14.36, 
			 "cosmo_cavitation_energy": 27.05, 
			 "cosmo_dispersion_energy": -19.46, 
			 "cosmo_repulsion_energy": 1.54, 
			 "cosmo_total_nonelectrostatic_energy": 9.13, 
			 "SMD_solvation_energy": 3.87 
		},
		"coords": [
			{
				"x": 1.2659591628,
				"y": -2.0196683186,
				"z": 0.8291199199,
				"element": "C" 
			},
			{
				"x": 0.7574563449,
				"y": -0.8516413654,
				"z": 0.0274228812,
				"element": "C" 
			},
			{
				"x": 0.5373834938,
				"y": 0.3998400495,
				"z": 0.6338050081,
				"element": "C" 
			},
			{
				"x": 0.7201104533,
				"y": 0.770818403,
				"z": 1.9615877005,
				"element": "N" 
			},
			{
				"x": 0.3732484005,
				"y": 2.0314962632,
				"z": 2.006887254,
				"element": "C" 
			},
			{
				"x": 0.4479400071,
				"y": 2.8739512672,
				"z": 3.256464603,
				"element": "C" 
			},
			{
				"x": -0.3190173637,
				"y": 4.1176633326,
				"z": 3.1527518031,
				"element": "C" 
			},
			{
				"x": -0.9205107473,
				"y": 5.1012755828,
				"z": 3.0204502624,
				"element": "N" 
			},
			{
				"x": -0.0287993666,
				"y": 2.5349655941,
				"z": 0.7915031807,
				"element": "N" 
			},
			{
				"x": 0.0600412075,
				"y": 1.4957851775,
				"z": -0.1214067973,
				"element": "C" 
			},
			{
				"x": -0.2212969315,
				"y": 1.4076462177,
				"z": -1.4868472941,
				"element": "C" 
			},
			{
				"x": -0.0010923288,
				"y": 0.1677569006,
				"z": -2.0772849041,
				"element": "C" 
			},
			{
				"x": 0.4769388486,
				"y": -0.9324941387,
				"z": -1.3360596273,
				"element": "C" 
			},
			{
				"x": 1.3794040155,
				"y": -2.9091393987,
				"z": 0.2037342641,
				"element": "H" 
			},
			{
				"x": 0.5830604485,
				"y": -2.2597408017,
				"z": 1.651415595,
				"element": "H" 
			},
			{
				"x": 2.2352875008,
				"y": -1.7919277891,
				"z": 1.2859267492,
				"element": "H" 
			},
			{
				"x": 1.492814415,
				"y": 3.1269455758,
				"z": 3.4786992703,
				"element": "H" 
			},
			{
				"x": 0.0815189018,
				"y": 2.2830215234,
				"z": 4.1020100747,
				"element": "H" 
			},
			{
				"x": -0.3763439683,
				"y": 3.4679818701,
				"z": 0.6238828909,
				"element": "H" 
			},
			{
				"x": -0.5892489741,
				"y": 2.2539961327,
				"z": -2.058195169,
				"element": "H" 
			},
			{
				"x": -0.2017602686,
				"y": 0.041448678,
				"z": -3.1370873599,
				"element": "H" 
			},
			{
				"x": 0.632106749,
				"y": -1.879080756,
				"z": -1.8470803053,
				"element": "H" 
			}
		],
		 "valence_orbital": [ 
			{
				"type": "occ",
				"energy": -0.33292,
				"method": "rhf"
			},
			{
				"type": "occ",
				"energy": -0.30617,
				"method": "rhf"
			},
			{
				"type": "occ",
				"energy": -0.28129,
				"method": "rhf"
			},
			{
				"type": "occ",
				"energy": -0.23142,
				"method": "rhf"
			},
			{
				"type": "occ",
				"energy": -0.22288,
				"method": "rhf"
			},
			{
				"type": "unocc",
				"energy": -0.02116,
				"method": "rhf"
			},
			{
				"type": "unocc",
				"energy": 0.0149,
				"method": "rhf"
			},
			{
				"type": "unocc",
				"energy": 0.01756,
				"method": "rhf"
			},
			{
				"type": "unocc",
				"energy": 0.02282,
				"method": "rhf"
			},
			{
				"type": "unocc",
				"energy": 0.04668,
				"method": "rhf"
			}
		],
		"cosmo_sigma_profile": { 
			"-0.025": 0.0,
			"-0.024": 0.0,
			"-0.023": 0.0,
			"-0.022": 0.0,
			"-0.021": 0.0,
			"-0.02": 0.0,
			"-0.019": 0.0,
			"-0.018": 0.0,
			"-0.017": 0.0469655906032,
			"-0.016": 0.751086503917,
			"-0.015": 0.641214152733,
			"-0.014": 0.894921270952,
			"-0.013": 1.06546055182,
			"-0.012": 1.24161062718,
			"-0.011": 1.71262677735,
			"-0.01": 5.6351557476,
			"-0.009": 6.60505460225,
			"-0.008": 6.19713532725,
			"-0.007": 7.67558976372,
			"-0.006": 7.02322576278,
			"-0.005": 9.01354526168,
			"-0.004": 13.948442173,
			"-0.003": 15.3740495197,
			"-0.002": 12.5824733759,
			"-0.001": 11.102578327,
			"0.0": 16.1841969739,
			"0.001": 12.6347734225,
			"0.002": 12.7298648099,
			"0.003": 11.7101971453,
			"0.004": 10.6646431967,
			"0.005": 11.9830139814,
			"0.006": 11.0840288317,
			"0.007": 5.93990964087,
			"0.008": 4.23904314784,
			"0.009": 4.00304733601,
			"0.01": 4.03503013348,
			"0.011": 3.0950281106,
			"0.012": 3.22843807056,
			"0.013": 1.46245763037,
			"0.014": 0.950415943108,
			"0.015": 0.962552631431,
			"0.016": 0.380090855031,
			"0.017": 0.243853058859,
			"0.018": 0.0,
			"0.019": 0.0,
			"0.02": 0.0,
			"0.021": 0.0,
			"0.022": 0.0,
			"0.023": 0.0,
			"0.024": 0.0,
			"0.025": 0.0
		}
	}
}
