{
	 "smiles": "CN=C(N)C1=CC(=C(O)C(=C1)C(C)(C)C)C(C)(C)C", 
	 "Tm": 553.15, 
	 "num_atms": 45, 
	 "gaussian": { 
		 "optdone": 1, 
		 "sigma_profile": "yes", 
		 "theory": "DFT", 
		 "functional": "B3LYP", 
		 "basiset": "6-31G**", 
		 "properties": { 
			 "R2extent": 5937.6451, 
			 "electric_dipole_moment_norm": 3.33938064168, 
			 "electric_quadrupole_moment_norm": 9.88189135136, 
			 "total_energy": -810.111845765, 
			 "HOMO_LUMO_gap": 0.20143, 
			 "cosmo_polarized_energy": -11.43, 
			 "cosmo_cavitation_energy": 42.99, 
			 "cosmo_dispersion_energy": -29.07, 
			 "cosmo_repulsion_energy": 2.27, 
			 "cosmo_total_nonelectrostatic_energy": 16.18, 
			 "SMD_solvation_energy": 5.07 
		},
		"coords": [
			{
				"x": -0.9373165877,
				"y": 3.6393657077,
				"z": 0.8480353333,
				"element": "C" 
			},
			{
				"x": -0.0615218987,
				"y": 3.5466619508,
				"z": -0.3021219983,
				"element": "N" 
			},
			{
				"x": 0.4200519217,
				"y": 2.4284655838,
				"z": -0.7021383245,
				"element": "C" 
			},
			{
				"x": 1.4259045843,
				"y": 2.4609151656,
				"z": -1.6728520835,
				"element": "N" 
			},
			{
				"x": 0.0944349016,
				"y": 1.0446823872,
				"z": -0.2304956097,
				"element": "C" 
			},
			{
				"x": -1.2312288497,
				"y": 0.6185100012,
				"z": -0.1002220779,
				"element": "C" 
			},
			{
				"x": -1.5658477786,
				"y": -0.6729164688,
				"z": 0.3144931785,
				"element": "C" 
			},
			{
				"x": -0.4935397704,
				"y": -1.5500067348,
				"z": 0.6117635842,
				"element": "C" 
			},
			{
				"x": -0.8470073577,
				"y": -2.8114038241,
				"z": 1.0268339229,
				"element": "O" 
			},
			{
				"x": 0.8650313757,
				"y": -1.1653944381,
				"z": 0.4886714143,
				"element": "C" 
			},
			{
				"x": 1.1202292948,
				"y": 0.1405376895,
				"z": 0.0562797743,
				"element": "C" 
			},
			{
				"x": 2.0325526609,
				"y": -2.1316639488,
				"z": 0.8143085771,
				"element": "C" 
			},
			{
				"x": 1.9946518473,
				"y": -2.5585060379,
				"z": 2.307467734,
				"element": "C" 
			},
			{
				"x": 3.4079795888,
				"y": -1.4650697551,
				"z": 0.5967768357,
				"element": "C" 
			},
			{
				"x": 2.0024569202,
				"y": -3.3698382461,
				"z": -0.1232556332,
				"element": "C" 
			},
			{
				"x": -3.0431438452,
				"y": -1.1142943226,
				"z": 0.4390594286,
				"element": "C" 
			},
			{
				"x": -3.3328607605,
				"y": -2.305077397,
				"z": -0.5085647806,
				"element": "C" 
			},
			{
				"x": -3.36461581,
				"y": -1.507203012,
				"z": 1.9028096402,
				"element": "C" 
			},
			{
				"x": -4.0132599487,
				"y": 0.0213018576,
				"z": 0.0503456028,
				"element": "C" 
			},
			{
				"x": -1.9529731363,
				"y": 3.9130966708,
				"z": 0.530261614,
				"element": "H" 
			},
			{
				"x": -1.0088379723,
				"y": 2.7296121078,
				"z": 1.4603280686,
				"element": "H" 
			},
			{
				"x": -0.5870359515,
				"y": 4.4554100596,
				"z": 1.4924826886,
				"element": "H" 
			},
			{
				"x": 1.5418962121,
				"y": 3.3872782091,
				"z": -2.066715457,
				"element": "H" 
			},
			{
				"x": 1.3852666112,
				"y": 1.725166023,
				"z": -2.366093793,
				"element": "H" 
			},
			{
				"x": -2.0167202072,
				"y": 1.3186981809,
				"z": -0.3508840248,
				"element": "H" 
			},
			{
				"x": -0.0559216269,
				"y": -3.3252961565,
				"z": 1.2143310866,
				"element": "H" 
			},
			{
				"x": 2.1387622475,
				"y": 0.4866033389,
				"z": -0.0578857786,
				"element": "H" 
			},
			{
				"x": 2.8212200457,
				"y": -3.2433207827,
				"z": 2.5256694147,
				"element": "H" 
			},
			{
				"x": 2.1018309197,
				"y": -1.6802406656,
				"z": 2.9512100282,
				"element": "H" 
			},
			{
				"x": 1.0703952906,
				"y": -3.057320873,
				"z": 2.6160629603,
				"element": "H" 
			},
			{
				"x": 4.1985893158,
				"y": -2.1827371308,
				"z": 0.8381806237,
				"element": "H" 
			},
			{
				"x": 3.5521755165,
				"y": -1.1527366155,
				"z": -0.4418184407,
				"element": "H" 
			},
			{
				"x": 3.5465659765,
				"y": -0.5919297959,
				"z": 1.2410737922,
				"element": "H" 
			},
			{
				"x": 1.0774465821,
				"y": -3.9530358097,
				"z": -0.0777107537,
				"element": "H" 
			},
			{
				"x": 2.8272279838,
				"y": -4.0482630856,
				"z": 0.1202909504,
				"element": "H" 
			},
			{
				"x": 2.1187885491,
				"y": -3.0546984439,
				"z": -1.1647468508,
				"element": "H" 
			},
			{
				"x": -4.3863273865,
				"y": -2.5968543562,
				"z": -0.4276022351,
				"element": "H" 
			},
			{
				"x": -2.7187320639,
				"y": -3.1735489002,
				"z": -0.2702148641,
				"element": "H" 
			},
			{
				"x": -3.1432921725,
				"y": -2.0234029753,
				"z": -1.5502348798,
				"element": "H" 
			},
			{
				"x": -3.197665468,
				"y": -0.6583039376,
				"z": 2.5748516715,
				"element": "H" 
			},
			{
				"x": -2.7511337601,
				"y": -2.3411768519,
				"z": 2.2439201839,
				"element": "H" 
			},
			{
				"x": -4.4179887975,
				"y": -1.7985293467,
				"z": 1.9868023184,
				"element": "H" 
			},
			{
				"x": -3.8825656673,
				"y": 0.3398165174,
				"z": -0.9891971678,
				"element": "H" 
			},
			{
				"x": -3.9039510743,
				"y": 0.8987597362,
				"z": 0.6961723526,
				"element": "H" 
			},
			{
				"x": -5.0423704543,
				"y": -0.3365112748,
				"z": 0.1557719736,
				"element": "H" 
			}
		],
		 "valence_orbital": [ 
			{
				"type": "occ",
				"energy": -0.30422,
				"method": "rhf"
			},
			{
				"type": "occ",
				"energy": -0.2421,
				"method": "rhf"
			},
			{
				"type": "occ",
				"energy": -0.22687,
				"method": "rhf"
			},
			{
				"type": "occ",
				"energy": -0.22345,
				"method": "rhf"
			},
			{
				"type": "occ",
				"energy": -0.20957,
				"method": "rhf"
			},
			{
				"type": "unocc",
				"energy": -0.00814,
				"method": "rhf"
			},
			{
				"type": "unocc",
				"energy": -8e-05,
				"method": "rhf"
			},
			{
				"type": "unocc",
				"energy": 0.05843,
				"method": "rhf"
			},
			{
				"type": "unocc",
				"energy": 0.06005,
				"method": "rhf"
			},
			{
				"type": "unocc",
				"energy": 0.09475,
				"method": "rhf"
			}
		],
		"cosmo_sigma_profile": { 
			"-0.025": 0.0,
			"-0.024": 0.0,
			"-0.023": 0.0,
			"-0.022": 0.0,
			"-0.021": 0.0,
			"-0.02": 0.0,
			"-0.019": 0.0,
			"-0.018": 0.0,
			"-0.017": 0.0,
			"-0.016": 0.0,
			"-0.015": 0.0791684597433,
			"-0.014": 0.29512359954,
			"-0.013": 0.996321707613,
			"-0.012": 1.38277502521,
			"-0.011": 2.47832858113,
			"-0.01": 3.55512344545,
			"-0.009": 2.35156908356,
			"-0.008": 2.81963645578,
			"-0.007": 3.09297946301,
			"-0.006": 3.06697321822,
			"-0.005": 3.39216343202,
			"-0.004": 8.91497928493,
			"-0.003": 36.5279592793,
			"-0.002": 42.7595601878,
			"-0.001": 43.0447722299,
			"0.0": 47.423234188,
			"0.001": 41.8755144235,
			"0.002": 27.9697237582,
			"0.003": 14.3089093419,
			"0.004": 13.4418114016,
			"0.005": 11.8479304927,
			"0.006": 4.09383835399,
			"0.007": 3.54420258959,
			"0.008": 2.05972906688,
			"0.009": 2.44667416461,
			"0.01": 1.58390119746,
			"0.011": 1.88169018556,
			"0.012": 1.41350287419,
			"0.013": 1.01804401685,
			"0.014": 1.20977203897,
			"0.015": 0.984702043726,
			"0.016": 0.773745872636,
			"0.017": 0.63063946373,
			"0.018": 0.434866868681,
			"0.019": 0.0,
			"0.02": 0.0,
			"0.021": 0.0,
			"0.022": 0.0,
			"0.023": 0.0,
			"0.024": 0.0,
			"0.025": 0.0
		}
	}
}
