{
	 "smiles": "CC(C)(C)C1=CC=C(C=C1)C(=O)NN", 
	 "Tm": 402.15, 
	 "num_atms": 30, 
	 "gaussian": { 
		 "optdone": 1, 
		 "sigma_profile": "yes", 
		 "theory": "DFT", 
		 "functional": "B3LYP", 
		 "basiset": "6-31G**", 
		 "properties": { 
			 "R2extent": 4549.9302, 
			 "electric_dipole_moment_norm": 2.97231559899, 
			 "electric_quadrupole_moment_norm": 8.46484276109, 
			 "total_energy": -613.540173246, 
			 "HOMO_LUMO_gap": 0.20884, 
			 "cosmo_polarized_energy": -12.13, 
			 "cosmo_cavitation_energy": 32.08, 
			 "cosmo_dispersion_energy": -22.97, 
			 "cosmo_repulsion_energy": 1.8, 
			 "cosmo_total_nonelectrostatic_energy": 10.91, 
			 "SMD_solvation_energy": 6.63 
		},
		"coords": [
			{
				"x": 2.4654932434,
				"y": 1.0817143644,
				"z": 0.2254698952,
				"element": "C" 
			},
			{
				"x": 1.7457145513,
				"y": 0.089227565,
				"z": -0.7191259125,
				"element": "C" 
			},
			{
				"x": 1.6984691148,
				"y": 0.7135276213,
				"z": -2.126620256,
				"element": "C" 
			},
			{
				"x": 2.5601453861,
				"y": -1.2243030365,
				"z": -0.8001052444,
				"element": "C" 
			},
			{
				"x": 0.3424459991,
				"y": -0.2137011044,
				"z": -0.1646921956,
				"element": "C" 
			},
			{
				"x": -0.8326419425,
				"y": 0.0500428132,
				"z": -0.8824188931,
				"element": "C" 
			},
			{
				"x": -2.0911781349,
				"y": -0.2332374331,
				"z": -0.3491686626,
				"element": "C" 
			},
			{
				"x": -2.2147571143,
				"y": -0.7900558882,
				"z": 0.9283804767,
				"element": "C" 
			},
			{
				"x": -1.047546547,
				"y": -1.0768490923,
				"z": 1.6487704951,
				"element": "C" 
			},
			{
				"x": 0.2010810023,
				"y": -0.7879090621,
				"z": 1.1126351872,
				"element": "C" 
			},
			{
				"x": -3.5289928428,
				"y": -1.1225333374,
				"z": 1.5625102906,
				"element": "C" 
			},
			{
				"x": -3.6374517974,
				"y": -1.9218212764,
				"z": 2.4892610199,
				"element": "O" 
			},
			{
				"x": -4.6298906184,
				"y": -0.4699092535,
				"z": 1.0504001887,
				"element": "N" 
			},
			{
				"x": -5.8782513816,
				"y": -0.5944745297,
				"z": 1.7038457112,
				"element": "N" 
			},
			{
				"x": 3.4701944906,
				"y": 1.3034526472,
				"z": -0.1514198885,
				"element": "H" 
			},
			{
				"x": 1.9140379472,
				"y": 2.024932734,
				"z": 0.2973382817,
				"element": "H" 
			},
			{
				"x": 2.5711763895,
				"y": 0.678819555,
				"z": 1.2369388321,
				"element": "H" 
			},
			{
				"x": 2.7169582153,
				"y": 0.9136742075,
				"z": -2.4743980594,
				"element": "H" 
			},
			{
				"x": 1.1556317385,
				"y": 1.6645083525,
				"z": -2.1334883236,
				"element": "H" 
			},
			{
				"x": 1.2281291219,
				"y": 0.0444803076,
				"z": -2.8547231037,
				"element": "H" 
			},
			{
				"x": 2.6697679592,
				"y": -1.6977299141,
				"z": 0.1798750317,
				"element": "H" 
			},
			{
				"x": 2.0761800385,
				"y": -1.9451836439,
				"z": -1.4670993491,
				"element": "H" 
			},
			{
				"x": 3.5653134716,
				"y": -1.02406836,
				"z": -1.1876952557,
				"element": "H" 
			},
			{
				"x": -0.7800901261,
				"y": 0.4742428843,
				"z": -1.8782667916,
				"element": "H" 
			},
			{
				"x": -2.973828435,
				"y": -0.0464417499,
				"z": -0.9543494816,
				"element": "H" 
			},
			{
				"x": -1.1448425511,
				"y": -1.5293688449,
				"z": 2.6300331087,
				"element": "H" 
			},
			{
				"x": 1.0844302557,
				"y": -1.0168635117,
				"z": 1.7012705947,
				"element": "H" 
			},
			{
				"x": -4.4932279361,
				"y": 0.4304838277,
				"z": 0.6130120839,
				"element": "H" 
			},
			{
				"x": -5.6666885933,
				"y": -0.8444835821,
				"z": 2.6721478223,
				"element": "H" 
			},
			{
				"x": -6.3396809046,
				"y": -1.4157732594,
				"z": 1.3134823976,
				"element": "H" 
			}
		],
		 "valence_orbital": [ 
			{
				"type": "occ",
				"energy": -0.28752,
				"method": "rhf"
			},
			{
				"type": "occ",
				"energy": -0.25922,
				"method": "rhf"
			},
			{
				"type": "occ",
				"energy": -0.25717,
				"method": "rhf"
			},
			{
				"type": "occ",
				"energy": -0.24843,
				"method": "rhf"
			},
			{
				"type": "occ",
				"energy": -0.24473,
				"method": "rhf"
			},
			{
				"type": "unocc",
				"energy": -0.03589,
				"method": "rhf"
			},
			{
				"type": "unocc",
				"energy": -0.00774,
				"method": "rhf"
			},
			{
				"type": "unocc",
				"energy": 0.05596,
				"method": "rhf"
			},
			{
				"type": "unocc",
				"energy": 0.07694,
				"method": "rhf"
			},
			{
				"type": "unocc",
				"energy": 0.09381,
				"method": "rhf"
			}
		],
		"cosmo_sigma_profile": { 
			"-0.025": 0.0,
			"-0.024": 0.0,
			"-0.023": 0.0,
			"-0.022": 0.0,
			"-0.021": 0.0,
			"-0.02": 0.0,
			"-0.019": 0.0,
			"-0.018": 0.0,
			"-0.017": 0.0,
			"-0.016": 0.0,
			"-0.015": 0.00576728237782,
			"-0.014": 0.56799661377,
			"-0.013": 0.896822538163,
			"-0.012": 1.61661755128,
			"-0.011": 2.35407646367,
			"-0.01": 3.28900191214,
			"-0.009": 3.79456394581,
			"-0.008": 3.13365502102,
			"-0.007": 2.92836017457,
			"-0.006": 4.75646207857,
			"-0.005": 11.0875585522,
			"-0.004": 12.5509311769,
			"-0.003": 24.531185086,
			"-0.002": 28.0765096168,
			"-0.001": 23.4852181702,
			"0.0": 23.5996936469,
			"0.001": 30.936064203,
			"0.002": 15.0438702861,
			"0.003": 10.1589993821,
			"0.004": 13.1581182298,
			"0.005": 10.1071138952,
			"0.006": 2.51276360836,
			"0.007": 2.12812116006,
			"0.008": 2.19599835345,
			"0.009": 1.98317738909,
			"0.01": 2.13158238513,
			"0.011": 2.12344845447,
			"0.012": 2.44097599629,
			"0.013": 5.7706041688,
			"0.014": 2.15427898511,
			"0.015": 0.3070262805,
			"0.016": 0.975303108864,
			"0.017": 0.202689276295,
			"0.018": 0.0,
			"0.019": 0.0,
			"0.02": 0.0,
			"0.021": 0.0,
			"0.022": 0.0,
			"0.023": 0.0,
			"0.024": 0.0,
			"0.025": 0.0
		}
	}
}
