{
	 "smiles": "CC1=CC(C2=NC(=NO2)C2CC2)=C(N)C=C1", 
	 "Tm": 361.15, 
	 "num_atms": 29, 
	 "gaussian": { 
		 "optdone": 1, 
		 "sigma_profile": "yes", 
		 "theory": "DFT", 
		 "functional": "B3LYP", 
		 "basiset": "6-31G**", 
		 "properties": { 
			 "R2extent": 4615.768, 
			 "electric_dipole_moment_norm": 1.81388334245, 
			 "electric_quadrupole_moment_norm": 13.3834368467, 
			 "total_energy": -704.546255013, 
			 "HOMO_LUMO_gap": 0.15682, 
			 "cosmo_polarized_energy": -10.71, 
			 "cosmo_cavitation_energy": 32.77, 
			 "cosmo_dispersion_energy": -24.11, 
			 "cosmo_repulsion_energy": 1.89, 
			 "cosmo_total_nonelectrostatic_energy": 10.54, 
			 "SMD_solvation_energy": 3.48 
		},
		"coords": [
			{
				"x": 2.2175690829,
				"y": -2.0102225196,
				"z": 2.6482219666,
				"element": "C" 
			},
			{
				"x": 0.7830304011,
				"y": -1.9179711238,
				"z": 2.1850341768,
				"element": "C" 
			},
			{
				"x": 0.3928878514,
				"y": -1.0443366856,
				"z": 1.1816815624,
				"element": "C" 
			},
			{
				"x": -0.9429819571,
				"y": -0.9442311489,
				"z": 0.7342843206,
				"element": "C" 
			},
			{
				"x": -1.2048545013,
				"y": 0.0018183846,
				"z": -0.339202379,
				"element": "C" 
			},
			{
				"x": -0.3484354144,
				"y": 0.7997087061,
				"z": -0.9294513012,
				"element": "N" 
			},
			{
				"x": -1.1208140437,
				"y": 1.4498222812,
				"z": -1.8615724684,
				"element": "C" 
			},
			{
				"x": -2.3867792168,
				"y": 1.1005673125,
				"z": -1.8772806599,
				"element": "N" 
			},
			{
				"x": -2.4510743411,
				"y": 0.1249101313,
				"z": -0.8516445514,
				"element": "O" 
			},
			{
				"x": -0.5855298914,
				"y": 2.4660004776,
				"z": -2.7825754627,
				"element": "C" 
			},
			{
				"x": 0.5228299467,
				"y": 3.3864335836,
				"z": -2.3039829322,
				"element": "C" 
			},
			{
				"x": 0.8315548469,
				"y": 2.3158159725,
				"z": -3.3061067855,
				"element": "C" 
			},
			{
				"x": -1.9450712122,
				"y": -1.758227833,
				"z": 1.328807609,
				"element": "C" 
			},
			{
				"x": -3.2776015635,
				"y": -1.6890366187,
				"z": 0.9954049653,
				"element": "N" 
			},
			{
				"x": -1.5369778923,
				"y": -2.6490248899,
				"z": 2.3473627162,
				"element": "C" 
			},
			{
				"x": -0.2190738389,
				"y": -2.7250728845,
				"z": 2.7594725629,
				"element": "C" 
			},
			{
				"x": 2.8582211741,
				"y": -1.3217260977,
				"z": 2.0904799933,
				"element": "H" 
			},
			{
				"x": 2.6205557285,
				"y": -3.0212755379,
				"z": 2.5144806877,
				"element": "H" 
			},
			{
				"x": 2.3140976438,
				"y": -1.7648152082,
				"z": 3.7126590793,
				"element": "H" 
			},
			{
				"x": 1.1247015286,
				"y": -0.4033222186,
				"z": 0.7005402687,
				"element": "H" 
			},
			{
				"x": -1.3297190658,
				"y": 2.8804556879,
				"z": -3.454366286,
				"element": "H" 
			},
			{
				"x": 0.4846291819,
				"y": 4.4196164379,
				"z": -2.6346821898,
				"element": "H" 
			},
			{
				"x": 0.8723968683,
				"y": 3.2400433891,
				"z": -1.2874111558,
				"element": "H" 
			},
			{
				"x": 1.0097198394,
				"y": 2.5990799909,
				"z": -4.3387431535,
				"element": "H" 
			},
			{
				"x": 1.3885794404,
				"y": 1.4505500971,
				"z": -2.9624515155,
				"element": "H" 
			},
			{
				"x": -3.8678982385,
				"y": -2.4494440978,
				"z": 1.2925259618,
				"element": "H" 
			},
			{
				"x": -3.5485785269,
				"y": -1.2142268909,
				"z": 0.1488497421,
				"element": "H" 
			},
			{
				"x": -2.2885640788,
				"y": -3.2800243201,
				"z": 2.8153585752,
				"element": "H" 
			},
			{
				"x": 0.0455802486,
				"y": -3.4269643769,
				"z": 3.547206653,
				"element": "H" 
			}
		],
		 "valence_orbital": [ 
			{
				"type": "occ",
				"energy": -0.30117,
				"method": "rhf"
			},
			{
				"type": "occ",
				"energy": -0.28584,
				"method": "rhf"
			},
			{
				"type": "occ",
				"energy": -0.2706,
				"method": "rhf"
			},
			{
				"type": "occ",
				"energy": -0.23995,
				"method": "rhf"
			},
			{
				"type": "occ",
				"energy": -0.20169,
				"method": "rhf"
			},
			{
				"type": "unocc",
				"energy": -0.04487,
				"method": "rhf"
			},
			{
				"type": "unocc",
				"energy": 0.00979,
				"method": "rhf"
			},
			{
				"type": "unocc",
				"energy": 0.02562,
				"method": "rhf"
			},
			{
				"type": "unocc",
				"energy": 0.06394,
				"method": "rhf"
			},
			{
				"type": "unocc",
				"energy": 0.08112,
				"method": "rhf"
			}
		],
		"cosmo_sigma_profile": { 
			"-0.025": 0.0,
			"-0.024": 0.0,
			"-0.023": 0.0,
			"-0.022": 0.0,
			"-0.021": 0.0,
			"-0.02": 0.0,
			"-0.019": 0.0,
			"-0.018": 0.0,
			"-0.017": 0.0,
			"-0.016": 0.0,
			"-0.015": 0.0,
			"-0.014": 0.206358110973,
			"-0.013": 1.5846183284,
			"-0.012": 1.03878620531,
			"-0.011": 1.93407364919,
			"-0.01": 2.0972667994,
			"-0.009": 2.77685973401,
			"-0.008": 2.03745020379,
			"-0.007": 2.52312495157,
			"-0.006": 7.07394343336,
			"-0.005": 15.1119746436,
			"-0.004": 19.4723963436,
			"-0.003": 20.3105818347,
			"-0.002": 22.6314163669,
			"-0.001": 22.3607533458,
			"0.0": 24.2989067143,
			"0.001": 23.3116063828,
			"0.002": 19.9098914112,
			"0.003": 18.6109731274,
			"0.004": 15.6931069657,
			"0.005": 14.0575036894,
			"0.006": 5.28118324485,
			"0.007": 3.40196952814,
			"0.008": 3.38789912411,
			"0.009": 3.30169997391,
			"0.01": 3.06115272341,
			"0.011": 2.10655743695,
			"0.012": 1.06148021122,
			"0.013": 1.44527515019,
			"0.014": 0.739600182756,
			"0.015": 0.0,
			"0.016": 0.0,
			"0.017": 0.0,
			"0.018": 0.0,
			"0.019": 0.0,
			"0.02": 0.0,
			"0.021": 0.0,
			"0.022": 0.0,
			"0.023": 0.0,
			"0.024": 0.0,
			"0.025": 0.0
		}
	}
}
