{
	 "smiles": "N(C1=CC2=CC=CC=C2C=C1)C1=CC=C2C=CC=CC2=C1", 
	 "Tm": 445.15, 
	 "num_atms": 36, 
	 "gaussian": { 
		 "optdone": 1, 
		 "sigma_profile": "yes", 
		 "theory": "DFT", 
		 "functional": "B3LYP", 
		 "basiset": "6-31G**", 
		 "properties": { 
			 "R2extent": 9672.287, 
			 "electric_dipole_moment_norm": 0.968383957942, 
			 "electric_quadrupole_moment_norm": 10.9875505824, 
			 "total_energy": -825.948578816, 
			 "HOMO_LUMO_gap": 0.14609, 
			 "cosmo_polarized_energy": -10.49, 
			 "cosmo_cavitation_energy": 39.46, 
			 "cosmo_dispersion_energy": -28.98, 
			 "cosmo_repulsion_energy": 2.14, 
			 "cosmo_total_nonelectrostatic_energy": 12.62, 
			 "SMD_solvation_energy": 5.7 
		},
		"coords": [
			{
				"x": 0.5498399427,
				"y": -0.1134097245,
				"z": -1.8805874706,
				"element": "N" 
			},
			{
				"x": 0.802464207,
				"y": -1.4888749002,
				"z": -1.8330550061,
				"element": "C" 
			},
			{
				"x": 0.0010257821,
				"y": -2.4034876548,
				"z": -1.1680653766,
				"element": "C" 
			},
			{
				"x": 0.3210763835,
				"y": -3.7860570614,
				"z": -1.1605809695,
				"element": "C" 
			},
			{
				"x": -0.4839726931,
				"y": -4.7398918061,
				"z": -0.4784014612,
				"element": "C" 
			},
			{
				"x": -0.1610308025,
				"y": -6.0787981017,
				"z": -0.4940849624,
				"element": "C" 
			},
			{
				"x": 0.9835693229,
				"y": -6.5351303838,
				"z": -1.1922442152,
				"element": "C" 
			},
			{
				"x": 1.7818244057,
				"y": -5.6369399308,
				"z": -1.8664451846,
				"element": "C" 
			},
			{
				"x": 1.4744739338,
				"y": -4.2520395473,
				"z": -1.8716882595,
				"element": "C" 
			},
			{
				"x": 2.2660455596,
				"y": -3.2947529289,
				"z": -2.5633033492,
				"element": "C" 
			},
			{
				"x": 1.9491877048,
				"y": -1.9606851471,
				"z": -2.5409591372,
				"element": "C" 
			},
			{
				"x": -0.315186558,
				"y": 0.6489624592,
				"z": -1.0863540148,
				"element": "C" 
			},
			{
				"x": -0.4897683176,
				"y": 0.361534291,
				"z": 0.3003895941,
				"element": "C" 
			},
			{
				"x": -1.293977996,
				"y": 1.1569625987,
				"z": 1.0790758738,
				"element": "C" 
			},
			{
				"x": -1.9604878297,
				"y": 2.2933702664,
				"z": 0.5458085209,
				"element": "C" 
			},
			{
				"x": -2.7927006384,
				"y": 3.1309662179,
				"z": 1.3327754322,
				"element": "C" 
			},
			{
				"x": -3.4152625741,
				"y": 4.2285783331,
				"z": 0.7798915003,
				"element": "C" 
			},
			{
				"x": -3.2289553133,
				"y": 4.5331058333,
				"z": -0.5909600785,
				"element": "C" 
			},
			{
				"x": -2.4262916394,
				"y": 3.7405723972,
				"z": -1.380998599,
				"element": "C" 
			},
			{
				"x": -1.7690247726,
				"y": 2.6007680616,
				"z": -0.8408138938,
				"element": "C" 
			},
			{
				"x": -0.9499948477,
				"y": 1.7550383498,
				"z": -1.6294726807,
				"element": "C" 
			},
			{
				"x": 0.8892281978,
				"y": 0.3528277805,
				"z": -2.7089875761,
				"element": "H" 
			},
			{
				"x": -0.8983358726,
				"y": -2.075657137,
				"z": -0.6586371973,
				"element": "H" 
			},
			{
				"x": -1.3632236093,
				"y": -4.3932675802,
				"z": 0.0587730031,
				"element": "H" 
			},
			{
				"x": -0.7872459046,
				"y": -6.7929574542,
				"z": 0.0333561533,
				"element": "H" 
			},
			{
				"x": 1.2275728873,
				"y": -7.5933702293,
				"z": -1.1947522669,
				"element": "H" 
			},
			{
				"x": 2.6610885581,
				"y": -5.9789594364,
				"z": -2.4071217695,
				"element": "H" 
			},
			{
				"x": 3.1425487299,
				"y": -3.6336966172,
				"z": -3.1097534339,
				"element": "H" 
			},
			{
				"x": 2.5790169272,
				"y": -1.2400173614,
				"z": -3.0571226142,
				"element": "H" 
			},
			{
				"x": 0.0391049083,
				"y": -0.4762133434,
				"z": 0.73964628,
				"element": "H" 
			},
			{
				"x": -1.4132661192,
				"y": 0.928869942,
				"z": 2.1353479205,
				"element": "H" 
			},
			{
				"x": -2.9302500246,
				"y": 2.891055554,
				"z": 2.384335323,
				"element": "H" 
			},
			{
				"x": -4.0495506759,
				"y": 4.863441096,
				"z": 1.3914708426,
				"element": "H" 
			},
			{
				"x": -3.7241294136,
				"y": 5.3999846567,
				"z": -1.0194641248,
				"element": "H" 
			},
			{
				"x": -2.2858217436,
				"y": 3.9766616434,
				"z": -2.4328810984,
				"element": "H" 
			},
			{
				"x": -0.8256901047,
				"y": 1.9823068647,
				"z": -2.6862357037,
				"element": "H" 
			}
		],
		 "valence_orbital": [ 
			{
				"type": "occ",
				"energy": -0.27262,
				"method": "rhf"
			},
			{
				"type": "occ",
				"energy": -0.24197,
				"method": "rhf"
			},
			{
				"type": "occ",
				"energy": -0.22451,
				"method": "rhf"
			},
			{
				"type": "occ",
				"energy": -0.2135,
				"method": "rhf"
			},
			{
				"type": "occ",
				"energy": -0.1842,
				"method": "rhf"
			},
			{
				"type": "unocc",
				"energy": -0.03811,
				"method": "rhf"
			},
			{
				"type": "unocc",
				"energy": -0.03201,
				"method": "rhf"
			},
			{
				"type": "unocc",
				"energy": -0.00956,
				"method": "rhf"
			},
			{
				"type": "unocc",
				"energy": 0.00786,
				"method": "rhf"
			},
			{
				"type": "unocc",
				"energy": 0.0345,
				"method": "rhf"
			}
		],
		"cosmo_sigma_profile": { 
			"-0.025": 0.0,
			"-0.024": 0.0,
			"-0.023": 0.0,
			"-0.022": 0.0,
			"-0.021": 0.0,
			"-0.02": 0.0,
			"-0.019": 0.0,
			"-0.018": 0.0,
			"-0.017": 0.0,
			"-0.016": 0.0,
			"-0.015": 0.0,
			"-0.014": 0.646589649227,
			"-0.013": 1.25561085009,
			"-0.012": 1.35912596224,
			"-0.011": 1.17829414455,
			"-0.01": 1.48270445765,
			"-0.009": 1.83182315318,
			"-0.008": 1.63366371655,
			"-0.007": 2.44441377244,
			"-0.006": 13.1942508264,
			"-0.005": 29.2778917208,
			"-0.004": 27.167765849,
			"-0.003": 26.5521988401,
			"-0.002": 19.7074228478,
			"-0.001": 18.2924370237,
			"0.0": 15.5207080081,
			"0.001": 16.8509491382,
			"0.002": 18.6835682918,
			"0.003": 23.5090277138,
			"0.004": 37.8183269788,
			"0.005": 43.141375729,
			"0.006": 14.9520955128,
			"0.007": 0.296106049689,
			"0.008": 0.0,
			"0.009": 0.0,
			"0.01": 0.0,
			"0.011": 0.0,
			"0.012": 0.0,
			"0.013": 0.0,
			"0.014": 0.0,
			"0.015": 0.0,
			"0.016": 0.0,
			"0.017": 0.0,
			"0.018": 0.0,
			"0.019": 0.0,
			"0.02": 0.0,
			"0.021": 0.0,
			"0.022": 0.0,
			"0.023": 0.0,
			"0.024": 0.0,
			"0.025": 0.0
		}
	}
}
