{
	 "smiles": "CNC(SC)=NC1=CC(C)=CC=N1", 
	 "Tm": 352.65, 
	 "num_atms": 26, 
	 "gaussian": { 
		 "optdone": 1, 
		 "sigma_profile": "yes", 
		 "theory": "DFT", 
		 "functional": "B3LYP", 
		 "basiset": "6-31G**", 
		 "properties": { 
			 "R2extent": 4122.3747, 
			 "electric_dipole_moment_norm": 1.81897605537, 
			 "electric_quadrupole_moment_norm": 14.0956330986, 
			 "total_energy": -913.231344983, 
			 "HOMO_LUMO_gap": 0.18209, 
			 "cosmo_polarized_energy": -11.69, 
			 "cosmo_cavitation_energy": 30.67, 
			 "cosmo_dispersion_energy": -22.79, 
			 "cosmo_repulsion_energy": 1.79, 
			 "cosmo_total_nonelectrostatic_energy": 9.67, 
			 "SMD_solvation_energy": 3.27 
		},
		"coords": [
			{
				"x": 1.4014135154,
				"y": -3.4958410231,
				"z": -3.2266806831,
				"element": "C" 
			},
			{
				"x": 1.9554930554,
				"y": -2.7770369573,
				"z": -2.077967382,
				"element": "N" 
			},
			{
				"x": 1.4149840145,
				"y": -1.5849526782,
				"z": -1.6169969468,
				"element": "C" 
			},
			{
				"x": 1.2353196415,
				"y": -0.2554923472,
				"z": -2.8234635851,
				"element": "S" 
			},
			{
				"x": 2.6508101524,
				"y": -0.5953493705,
				"z": -3.9491348309,
				"element": "C" 
			},
			{
				"x": 1.176210017,
				"y": -1.4864339057,
				"z": -0.3557475609,
				"element": "N" 
			},
			{
				"x": 0.6772640106,
				"y": -0.3423542017,
				"z": 0.251724645,
				"element": "C" 
			},
			{
				"x": 1.0234737576,
				"y": -0.1050465336,
				"z": 1.5970903073,
				"element": "C" 
			},
			{
				"x": 0.513255368,
				"y": 1.0069485969,
				"z": 2.2583329138,
				"element": "C" 
			},
			{
				"x": 0.8704042717,
				"y": 1.3069531335,
				"z": 3.6931891393,
				"element": "C" 
			},
			{
				"x": -0.3544534688,
				"y": 1.8449711323,
				"z": 1.5364913692,
				"element": "C" 
			},
			{
				"x": -0.6537962724,
				"y": 1.5258473557,
				"z": 0.2172332787,
				"element": "C" 
			},
			{
				"x": -0.1618901563,
				"y": 0.4586879452,
				"z": -0.4258264305,
				"element": "N" 
			},
			{
				"x": 0.9574344341,
				"y": -2.7897237983,
				"z": -3.9275529376,
				"element": "H" 
			},
			{
				"x": 0.6141124381,
				"y": -4.1985131122,
				"z": -2.9226129424,
				"element": "H" 
			},
			{
				"x": 2.1895351447,
				"y": -4.0547069699,
				"z": -3.7409219051,
				"element": "H" 
			},
			{
				"x": 2.122413282,
				"y": -3.3782346874,
				"z": -1.277035056,
				"element": "H" 
			},
			{
				"x": 3.5408340048,
				"y": -0.862401706,
				"z": -3.3787300864,
				"element": "H" 
			},
			{
				"x": 2.4402365671,
				"y": -1.3722279358,
				"z": -4.6859379658,
				"element": "H" 
			},
			{
				"x": 2.8282630054,
				"y": 0.3472164079,
				"z": -4.4725000852,
				"element": "H" 
			},
			{
				"x": 1.6914424927,
				"y": -0.8008891715,
				"z": 2.0944816329,
				"element": "H" 
			},
			{
				"x": -0.0280220533,
				"y": 1.37824587,
				"z": 4.3164836926,
				"element": "H" 
			},
			{
				"x": 1.516000172,
				"y": 0.5327719554,
				"z": 4.1159609313,
				"element": "H" 
			},
			{
				"x": 1.3945960744,
				"y": 2.2661287429,
				"z": 3.7753111779,
				"element": "H" 
			},
			{
				"x": -0.7943530414,
				"y": 2.7237147619,
				"z": 1.9994746085,
				"element": "H" 
			},
			{
				"x": -1.3313804273,
				"y": 2.1547184967,
				"z": -0.3583652987,
				"element": "H" 
			}
		],
		 "valence_orbital": [ 
			{
				"type": "occ",
				"energy": -0.26089,
				"method": "rhf"
			},
			{
				"type": "occ",
				"energy": -0.25427,
				"method": "rhf"
			},
			{
				"type": "occ",
				"energy": -0.24594,
				"method": "rhf"
			},
			{
				"type": "occ",
				"energy": -0.23419,
				"method": "rhf"
			},
			{
				"type": "occ",
				"energy": -0.20502,
				"method": "rhf"
			},
			{
				"type": "unocc",
				"energy": -0.02293,
				"method": "rhf"
			},
			{
				"type": "unocc",
				"energy": -0.00149,
				"method": "rhf"
			},
			{
				"type": "unocc",
				"energy": 0.04131,
				"method": "rhf"
			},
			{
				"type": "unocc",
				"energy": 0.05085,
				"method": "rhf"
			},
			{
				"type": "unocc",
				"energy": 0.08656,
				"method": "rhf"
			}
		],
		"cosmo_sigma_profile": { 
			"-0.025": 0.0,
			"-0.024": 0.0,
			"-0.023": 0.0,
			"-0.022": 0.0,
			"-0.021": 0.0,
			"-0.02": 0.0,
			"-0.019": 0.0,
			"-0.018": 0.0,
			"-0.017": 0.0,
			"-0.016": 0.0,
			"-0.015": 0.0,
			"-0.014": 0.0,
			"-0.013": 0.157085146036,
			"-0.012": 0.855576085286,
			"-0.011": 1.01385696179,
			"-0.01": 0.925270828714,
			"-0.009": 1.15648220239,
			"-0.008": 1.03664569647,
			"-0.007": 1.23335018746,
			"-0.006": 8.2760155229,
			"-0.005": 19.7673085104,
			"-0.004": 26.6337942086,
			"-0.003": 25.1608701615,
			"-0.002": 26.8933975196,
			"-0.001": 22.1834379109,
			"0.0": 15.2003048609,
			"0.001": 9.28493878991,
			"0.002": 11.0802589262,
			"0.003": 17.7137547865,
			"0.004": 15.6172629334,
			"0.005": 6.92216678244,
			"0.006": 7.54173637348,
			"0.007": 5.84600984737,
			"0.008": 4.84272869524,
			"0.009": 5.05613990028,
			"0.01": 3.42094163458,
			"0.011": 3.05538533443,
			"0.012": 1.3170983427,
			"0.013": 1.7519940019,
			"0.014": 0.570799855561,
			"0.015": 0.0,
			"0.016": 0.0,
			"0.017": 0.0,
			"0.018": 0.0,
			"0.019": 0.0,
			"0.02": 0.0,
			"0.021": 0.0,
			"0.022": 0.0,
			"0.023": 0.0,
			"0.024": 0.0,
			"0.025": 0.0
		}
	}
}
