{
	 "smiles": "COCCNC1=NN=C(S)S1", 
	 "Tm": 394.15, 
	 "num_atms": 20, 
	 "gaussian": { 
		 "optdone": 1, 
		 "sigma_profile": "yes", 
		 "theory": "DFT", 
		 "functional": "B3LYP", 
		 "basiset": "6-31G**", 
		 "properties": { 
			 "R2extent": 2842.986, 
			 "electric_dipole_moment_norm": 5.73229004413, 
			 "electric_quadrupole_moment_norm": 11.1333706361, 
			 "total_energy": -1231.74505976, 
			 "HOMO_LUMO_gap": 0.19077, 
			 "cosmo_polarized_energy": -17.83, 
			 "cosmo_cavitation_energy": 27.03, 
			 "cosmo_dispersion_energy": -20.5, 
			 "cosmo_repulsion_energy": 1.59, 
			 "cosmo_total_nonelectrostatic_energy": 8.12, 
			 "SMD_solvation_energy": 1.68 
		},
		"coords": [
			{
				"x": 2.7157498513,
				"y": -0.8194556487,
				"z": 0.9828074291,
				"element": "C" 
			},
			{
				"x": 2.360014625,
				"y": 0.5497519325,
				"z": 1.0550845743,
				"element": "O" 
			},
			{
				"x": 1.7037472051,
				"y": 0.919977504,
				"z": 2.2483496543,
				"element": "C" 
			},
			{
				"x": 0.187398372,
				"y": 0.6673805903,
				"z": 2.2208011846,
				"element": "C" 
			},
			{
				"x": -0.5222359095,
				"y": 1.4308206885,
				"z": 1.204236228,
				"element": "N" 
			},
			{
				"x": -0.6569822999,
				"y": 1.0483628089,
				"z": -0.0977704853,
				"element": "C" 
			},
			{
				"x": -0.8434554448,
				"y": 1.9205133231,
				"z": -1.0643292253,
				"element": "N" 
			},
			{
				"x": -1.0989825677,
				"y": 1.3335161309,
				"z": -2.267063165,
				"element": "N" 
			},
			{
				"x": -1.0939481444,
				"y": 0.0376981079,
				"z": -2.2382073432,
				"element": "C" 
			},
			{
				"x": -1.2474517751,
				"y": -0.9701157166,
				"z": -3.6846073234,
				"element": "S" 
			},
			{
				"x": -0.7497390116,
				"y": -0.6299811659,
				"z": -0.6246188709,
				"element": "S" 
			},
			{
				"x": 3.373157617,
				"y": -1.1071182179,
				"z": 1.8173495369,
				"element": "H" 
			},
			{
				"x": 3.2537602414,
				"y": -0.9569102794,
				"z": 0.042648216,
				"element": "H" 
			},
			{
				"x": 1.8416308875,
				"y": -1.486426053,
				"z": 0.9789433599,
				"element": "H" 
			},
			{
				"x": 1.8838263987,
				"y": 1.994094656,
				"z": 2.3781434509,
				"element": "H" 
			},
			{
				"x": 2.1362782651,
				"y": 0.4032323979,
				"z": 3.1214693874,
				"element": "H" 
			},
			{
				"x": -0.2305169202,
				"y": 0.9283513719,
				"z": 3.2005815447,
				"element": "H" 
			},
			{
				"x": -0.0255283236,
				"y": -0.3949869024,
				"z": 2.0663682947,
				"element": "H" 
			},
			{
				"x": -0.4777487606,
				"y": 2.4403904462,
				"z": 1.287523519,
				"element": "H" 
			},
			{
				"x": -2.3777743058,
				"y": -1.6135959741,
				"z": -3.3192099667,
				"element": "H" 
			}
		],
		 "valence_orbital": [ 
			{
				"type": "occ",
				"energy": -0.2908,
				"method": "rhf"
			},
			{
				"type": "occ",
				"energy": -0.27548,
				"method": "rhf"
			},
			{
				"type": "occ",
				"energy": -0.26531,
				"method": "rhf"
			},
			{
				"type": "occ",
				"energy": -0.25458,
				"method": "rhf"
			},
			{
				"type": "occ",
				"energy": -0.22072,
				"method": "rhf"
			},
			{
				"type": "unocc",
				"energy": -0.02995,
				"method": "rhf"
			},
			{
				"type": "unocc",
				"energy": -0.00459,
				"method": "rhf"
			},
			{
				"type": "unocc",
				"energy": 0.02499,
				"method": "rhf"
			},
			{
				"type": "unocc",
				"energy": 0.04772,
				"method": "rhf"
			},
			{
				"type": "unocc",
				"energy": 0.05376,
				"method": "rhf"
			}
		],
		"cosmo_sigma_profile": { 
			"-0.025": 0.0,
			"-0.024": 0.0,
			"-0.023": 0.0,
			"-0.022": 0.0,
			"-0.021": 0.0,
			"-0.02": 0.0,
			"-0.019": 0.0,
			"-0.018": 0.0,
			"-0.017": 0.0,
			"-0.016": 0.0,
			"-0.015": 0.228387388291,
			"-0.014": 0.88584065135,
			"-0.013": 1.33848216343,
			"-0.012": 1.39026475607,
			"-0.011": 3.645871514,
			"-0.01": 3.56775303778,
			"-0.009": 3.5605709347,
			"-0.008": 3.19977143099,
			"-0.007": 5.99274470587,
			"-0.006": 10.7828909204,
			"-0.005": 15.7295948315,
			"-0.004": 17.4177960353,
			"-0.003": 16.4966119053,
			"-0.002": 16.3148829646,
			"-0.001": 14.2284914622,
			"0.0": 14.1254977175,
			"0.001": 11.4655296904,
			"0.002": 11.7474545469,
			"0.003": 10.3449542244,
			"0.004": 7.50480599828,
			"0.005": 5.99894561742,
			"0.006": 7.18409357013,
			"0.007": 5.85318267839,
			"0.008": 5.48072208051,
			"0.009": 3.65125326029,
			"0.01": 3.49188335022,
			"0.011": 4.35232657706,
			"0.012": 4.7405553278,
			"0.013": 3.93266442771,
			"0.014": 2.60329728655,
			"0.015": 1.19894721177,
			"0.016": 0.0121044299728,
			"0.017": 0.0,
			"0.018": 0.0,
			"0.019": 0.0,
			"0.02": 0.0,
			"0.021": 0.0,
			"0.022": 0.0,
			"0.023": 0.0,
			"0.024": 0.0,
			"0.025": 0.0
		}
	}
}
