{
	 "smiles": "FC(F)(F)C1=CC=CC=C1N1C=CNC1=S", 
	 "Tm": 510.15, 
	 "num_atms": 23, 
	 "gaussian": { 
		 "optdone": 1, 
		 "sigma_profile": "yes", 
		 "theory": "DFT", 
		 "functional": "B3LYP", 
		 "basiset": "6-31G**", 
		 "properties": { 
			 "R2extent": 5548.21, 
			 "electric_dipole_moment_norm": 4.55623427844, 
			 "electric_quadrupole_moment_norm": 29.5647934649, 
			 "total_energy": -1192.49794071, 
			 "HOMO_LUMO_gap": 0.14891, 
			 "cosmo_polarized_energy": -18.09, 
			 "cosmo_cavitation_energy": 30.01, 
			 "cosmo_dispersion_energy": -21.33, 
			 "cosmo_repulsion_energy": 1.56, 
			 "cosmo_total_nonelectrostatic_energy": 10.24, 
			 "SMD_solvation_energy": 5.94 
		},
		"coords": [
			{
				"x": 0.6719058073,
				"y": -1.5162300971,
				"z": -3.9727132978,
				"element": "F" 
			},
			{
				"x": -0.0416156852,
				"y": -2.4105312039,
				"z": -3.2647724461,
				"element": "C" 
			},
			{
				"x": -0.7389615783,
				"y": -3.1578541175,
				"z": -4.1453995051,
				"element": "F" 
			},
			{
				"x": 0.8507502752,
				"y": -3.2493335681,
				"z": -2.669736908,
				"element": "F" 
			},
			{
				"x": -0.9477357077,
				"y": -1.7584256178,
				"z": -2.2480872398,
				"element": "C" 
			},
			{
				"x": -2.2608441445,
				"y": -2.2233165994,
				"z": -2.1230546005,
				"element": "C" 
			},
			{
				"x": -3.1345779237,
				"y": -1.6483577167,
				"z": -1.2031921478,
				"element": "C" 
			},
			{
				"x": -2.7002686886,
				"y": -0.5968126626,
				"z": -0.3966115127,
				"element": "C" 
			},
			{
				"x": -1.3916235837,
				"y": -0.131954466,
				"z": -0.5034857566,
				"element": "C" 
			},
			{
				"x": -0.5098180585,
				"y": -0.7113667355,
				"z": -1.4177107894,
				"element": "C" 
			},
			{
				"x": 0.8278763182,
				"y": -0.2147761675,
				"z": -1.478329119,
				"element": "N" 
			},
			{
				"x": 1.9754836561,
				"y": -0.9441445806,
				"z": -1.1426299267,
				"element": "C" 
			},
			{
				"x": 3.0371506284,
				"y": -0.1241792672,
				"z": -1.3036311989,
				"element": "C" 
			},
			{
				"x": 2.5364339232,
				"y": 1.0966965441,
				"z": -1.7326447416,
				"element": "N" 
			},
			{
				"x": 1.1711339349,
				"y": 1.0794434108,
				"z": -1.8509223235,
				"element": "C" 
			},
			{
				"x": 0.1905876582,
				"y": 2.3471069065,
				"z": -2.3358198648,
				"element": "S" 
			},
			{
				"x": -2.5954713008,
				"y": -3.0298643175,
				"z": -2.7642724482,
				"element": "H" 
			},
			{
				"x": -4.1523322445,
				"y": -2.0170845316,
				"z": -1.1238179126,
				"element": "H" 
			},
			{
				"x": -3.3764371635,
				"y": -0.1371014861,
				"z": 0.3173565509,
				"element": "H" 
			},
			{
				"x": -1.0401909041,
				"y": 0.6893456097,
				"z": 0.1096559744,
				"element": "H" 
			},
			{
				"x": 1.918141215,
				"y": -1.9746078569,
				"z": -0.8379924156,
				"element": "H" 
			},
			{
				"x": 4.0893487972,
				"y": -0.2999973964,
				"z": -1.1506233749,
				"element": "H" 
			},
			{
				"x": 3.0630647693,
				"y": 1.9274459174,
				"z": -1.9522649957,
				"element": "H" 
			}
		],
		 "valence_orbital": [ 
			{
				"type": "occ",
				"energy": -0.28803,
				"method": "rhf"
			},
			{
				"type": "occ",
				"energy": -0.27726,
				"method": "rhf"
			},
			{
				"type": "occ",
				"energy": -0.27156,
				"method": "rhf"
			},
			{
				"type": "occ",
				"energy": -0.20114,
				"method": "rhf"
			},
			{
				"type": "occ",
				"energy": -0.18962,
				"method": "rhf"
			},
			{
				"type": "unocc",
				"energy": -0.04071,
				"method": "rhf"
			},
			{
				"type": "unocc",
				"energy": -0.02714,
				"method": "rhf"
			},
			{
				"type": "unocc",
				"energy": 0.01207,
				"method": "rhf"
			},
			{
				"type": "unocc",
				"energy": 0.02316,
				"method": "rhf"
			},
			{
				"type": "unocc",
				"energy": 0.06849,
				"method": "rhf"
			}
		],
		"cosmo_sigma_profile": { 
			"-0.025": 0.0,
			"-0.024": 0.0,
			"-0.023": 0.0,
			"-0.022": 0.0,
			"-0.021": 0.0,
			"-0.02": 0.0,
			"-0.019": 0.0,
			"-0.018": 0.0,
			"-0.017": 0.980918142509,
			"-0.016": 1.10941991905,
			"-0.015": 1.26606399081,
			"-0.014": 1.01123611668,
			"-0.013": 1.28925937137,
			"-0.012": 0.54823966622,
			"-0.011": 1.72395423458,
			"-0.01": 3.39679400378,
			"-0.009": 3.8742402081,
			"-0.008": 4.43169035808,
			"-0.007": 11.7325135792,
			"-0.006": 12.7524196739,
			"-0.005": 12.3440303787,
			"-0.004": 10.6642397276,
			"-0.003": 10.8734239341,
			"-0.002": 13.1207694371,
			"-0.001": 12.8347635081,
			"0.0": 15.9141825376,
			"0.001": 21.7892344902,
			"0.002": 32.5130020232,
			"0.003": 26.3916738165,
			"0.004": 4.8564871715,
			"0.005": 2.87204058991,
			"0.006": 4.09884653088,
			"0.007": 3.02160318867,
			"0.008": 4.12756464495,
			"0.009": 4.4443743282,
			"0.01": 5.09038579991,
			"0.011": 6.40446207249,
			"0.012": 7.23019707453,
			"0.013": 1.59227254765,
			"0.014": 0.0,
			"0.015": 0.0,
			"0.016": 0.0,
			"0.017": 0.0,
			"0.018": 0.0,
			"0.019": 0.0,
			"0.02": 0.0,
			"0.021": 0.0,
			"0.022": 0.0,
			"0.023": 0.0,
			"0.024": 0.0,
			"0.025": 0.0
		}
	}
}
