{
	 "smiles": "COC1=CC=C(C(OC)=C1)C(O)(C1=CC(OC)=C(OC)C(OC)=C1)C1=CC=C(OC)C=C1OC", 
	 "Tm": 382.15, 
	 "num_atms": 64, 
	 "gaussian": { 
		 "optdone": 1, 
		 "sigma_profile": "yes", 
		 "theory": "DFT", 
		 "functional": "B3LYP", 
		 "basiset": "6-31G**", 
		 "properties": { 
			 "R2extent": 16734.8074, 
			 "electric_dipole_moment_norm": 2.93867931901, 
			 "electric_quadrupole_moment_norm": 22.6074300811, 
			 "total_energy": -1610.51153729, 
			 "HOMO_LUMO_gap": 0.1996, 
			 "cosmo_polarized_energy": -23.33, 
			 "cosmo_cavitation_energy": 64.45, 
			 "cosmo_dispersion_energy": -41.5, 
			 "cosmo_repulsion_energy": 3.19, 
			 "cosmo_total_nonelectrostatic_energy": 26.14, 
			 "SMD_solvation_energy": 16.18 
		},
		"coords": [
			{
				"x": 2.3764544029,
				"y": -0.2944167385,
				"z": -5.8665936005,
				"element": "C" 
			},
			{
				"x": 2.5305853186,
				"y": -1.1537417872,
				"z": -4.7500378434,
				"element": "O" 
			},
			{
				"x": 1.807629092,
				"y": -0.8773612755,
				"z": -3.6232491471,
				"element": "C" 
			},
			{
				"x": 0.9263092613,
				"y": 0.197519208,
				"z": -3.4814587256,
				"element": "C" 
			},
			{
				"x": 0.2431326017,
				"y": 0.3641180139,
				"z": -2.2737854209,
				"element": "C" 
			},
			{
				"x": 0.3987321339,
				"y": -0.5019399077,
				"z": -1.1900665968,
				"element": "C" 
			},
			{
				"x": 1.3243717741,
				"y": -1.5587783289,
				"z": -1.3449279067,
				"element": "C" 
			},
			{
				"x": 1.6299951798,
				"y": -2.3772995844,
				"z": -0.2829292686,
				"element": "O" 
			},
			{
				"x": 1.1044110033,
				"y": -3.700647027,
				"z": -0.3484072091,
				"element": "C" 
			},
			{
				"x": 2.0045474632,
				"y": -1.7474146138,
				"z": -2.5454934966,
				"element": "C" 
			},
			{
				"x": -0.3239516908,
				"y": -0.2781594768,
				"z": 0.1477108603,
				"element": "C" 
			},
			{
				"x": -0.9202936199,
				"y": -1.5408824256,
				"z": 0.5189718898,
				"element": "O" 
			},
			{
				"x": 0.724977713,
				"y": 0.1450424378,
				"z": 1.202958486,
				"element": "C" 
			},
			{
				"x": 1.622615326,
				"y": 1.1859494347,
				"z": 0.9151045033,
				"element": "C" 
			},
			{
				"x": 2.5466283553,
				"y": 1.6014535899,
				"z": 1.8715725558,
				"element": "C" 
			},
			{
				"x": 3.4247272974,
				"y": 2.6350675273,
				"z": 1.6870428976,
				"element": "O" 
			},
			{
				"x": 3.3869918991,
				"y": 3.3327321784,
				"z": 0.4522801999,
				"element": "C" 
			},
			{
				"x": 2.6142346433,
				"y": 0.9727693579,
				"z": 3.1381648737,
				"element": "C" 
			},
			{
				"x": 3.4662494151,
				"y": 1.4373045628,
				"z": 4.1156475912,
				"element": "O" 
			},
			{
				"x": 4.8668367115,
				"y": 1.2902564994,
				"z": 3.8629968694,
				"element": "C" 
			},
			{
				"x": 1.7221599044,
				"y": -0.0749800847,
				"z": 3.4112747869,
				"element": "C" 
			},
			{
				"x": 1.6327879914,
				"y": -0.7411993839,
				"z": 4.6018237074,
				"element": "O" 
			},
			{
				"x": 2.8003997774,
				"y": -1.0048181553,
				"z": 5.3756848337,
				"element": "C" 
			},
			{
				"x": 0.7848482749,
				"y": -0.4721672028,
				"z": 2.4436182158,
				"element": "C" 
			},
			{
				"x": -1.482585935,
				"y": 0.7416215736,
				"z": 0.0655928601,
				"element": "C" 
			},
			{
				"x": -1.5529196492,
				"y": 1.8771184298,
				"z": 0.8913919568,
				"element": "C" 
			},
			{
				"x": -2.6492142583,
				"y": 2.7304775069,
				"z": 0.8993847088,
				"element": "C" 
			},
			{
				"x": -3.7384910121,
				"y": 2.4735454484,
				"z": 0.0585453172,
				"element": "C" 
			},
			{
				"x": -4.7700850353,
				"y": 3.3640781683,
				"z": 0.1182902161,
				"element": "O" 
			},
			{
				"x": -5.8971735005,
				"y": 3.1441125134,
				"z": -0.7142030346,
				"element": "C" 
			},
			{
				"x": -3.7041545232,
				"y": 1.3562141955,
				"z": -0.7794559285,
				"element": "C" 
			},
			{
				"x": -2.5946643361,
				"y": 0.5009113567,
				"z": -0.7689556365,
				"element": "C" 
			},
			{
				"x": -2.5795226646,
				"y": -0.5474145094,
				"z": -1.6595248609,
				"element": "O" 
			},
			{
				"x": -3.4686725662,
				"y": -1.626847755,
				"z": -1.3883860819,
				"element": "C" 
			},
			{
				"x": 2.6783999473,
				"y": 0.735032945,
				"z": -5.6325822864,
				"element": "H" 
			},
			{
				"x": 1.3418667172,
				"y": -0.2865011492,
				"z": -6.2338757676,
				"element": "H" 
			},
			{
				"x": 3.0300516409,
				"y": -0.6902555036,
				"z": -6.6458738613,
				"element": "H" 
			},
			{
				"x": 0.7553597643,
				"y": 0.8991961906,
				"z": -4.2887824903,
				"element": "H" 
			},
			{
				"x": -0.4440472641,
				"y": 1.1980492003,
				"z": -2.1856677968,
				"element": "H" 
			},
			{
				"x": 1.4233860591,
				"y": -4.2176539626,
				"z": -1.2631807238,
				"element": "H" 
			},
			{
				"x": 1.5029215794,
				"y": -4.2326113532,
				"z": 0.5185445038,
				"element": "H" 
			},
			{
				"x": 0.0111841499,
				"y": -3.6823771758,
				"z": -0.2954676465,
				"element": "H" 
			},
			{
				"x": 2.720307989,
				"y": -2.5568401271,
				"z": -2.6403790184,
				"element": "H" 
			},
			{
				"x": -1.4763632325,
				"y": -1.3600682331,
				"z": 1.2893132354,
				"element": "H" 
			},
			{
				"x": 1.590093941,
				"y": 1.6606888761,
				"z": -0.0568079611,
				"element": "H" 
			},
			{
				"x": 4.146340786,
				"y": 4.1131226575,
				"z": 0.5257522612,
				"element": "H" 
			},
			{
				"x": 3.6232469709,
				"y": 2.6752476867,
				"z": -0.3939079028,
				"element": "H" 
			},
			{
				"x": 2.4073467379,
				"y": 3.7967035177,
				"z": 0.2813464446,
				"element": "H" 
			},
			{
				"x": 5.3754827702,
				"y": 1.6656145354,
				"z": 4.7539645113,
				"element": "H" 
			},
			{
				"x": 5.1783421962,
				"y": 1.8701292535,
				"z": 2.9912197575,
				"element": "H" 
			},
			{
				"x": 5.1325340647,
				"y": 0.2353541229,
				"z": 3.7135552708,
				"element": "H" 
			},
			{
				"x": 3.135780494,
				"y": -0.1217974517,
				"z": 5.9232133845,
				"element": "H" 
			},
			{
				"x": 2.5140547734,
				"y": -1.7909008788,
				"z": 6.0790664318,
				"element": "H" 
			},
			{
				"x": 3.6200310517,
				"y": -1.3742465401,
				"z": 4.7468000579,
				"element": "H" 
			},
			{
				"x": 0.148174611,
				"y": -1.3117943157,
				"z": 2.6909530485,
				"element": "H" 
			},
			{
				"x": -0.7261237304,
				"y": 2.0947108571,
				"z": 1.5562290074,
				"element": "H" 
			},
			{
				"x": -2.68097923,
				"y": 3.5980666746,
				"z": 1.5496359218,
				"element": "H" 
			},
			{
				"x": -6.5939065278,
				"y": 3.9560370218,
				"z": -0.499915156,
				"element": "H" 
			},
			{
				"x": -6.3831351059,
				"y": 2.1847033575,
				"z": -0.4940283006,
				"element": "H" 
			},
			{
				"x": -5.6278032506,
				"y": 3.1721736021,
				"z": -1.7780157613,
				"element": "H" 
			},
			{
				"x": -4.5096590801,
				"y": 1.1350870283,
				"z": -1.4690255239,
				"element": "H" 
			},
			{
				"x": -4.504285225,
				"y": -1.2842541321,
				"z": -1.2640385613,
				"element": "H" 
			},
			{
				"x": -3.1490051156,
				"y": -2.1700491036,
				"z": -0.4927857932,
				"element": "H" 
			},
			{
				"x": -3.4153952308,
				"y": -2.2928913466,
				"z": -2.2521418574,
				"element": "H" 
			}
		],
		 "valence_orbital": [ 
			{
				"type": "occ",
				"energy": -0.22397,
				"method": "rhf"
			},
			{
				"type": "occ",
				"energy": -0.2131,
				"method": "rhf"
			},
			{
				"type": "occ",
				"energy": -0.21082,
				"method": "rhf"
			},
			{
				"type": "occ",
				"energy": -0.20361,
				"method": "rhf"
			},
			{
				"type": "occ",
				"energy": -0.19993,
				"method": "rhf"
			},
			{
				"type": "unocc",
				"energy": -0.00033,
				"method": "rhf"
			},
			{
				"type": "unocc",
				"energy": 0.0069,
				"method": "rhf"
			},
			{
				"type": "unocc",
				"energy": 0.00773,
				"method": "rhf"
			},
			{
				"type": "unocc",
				"energy": 0.01912,
				"method": "rhf"
			},
			{
				"type": "unocc",
				"energy": 0.02302,
				"method": "rhf"
			}
		],
		"cosmo_sigma_profile": { 
			"-0.025": 0.0,
			"-0.024": 0.0,
			"-0.023": 0.0,
			"-0.022": 0.0,
			"-0.021": 0.0,
			"-0.02": 0.0,
			"-0.019": 0.0,
			"-0.018": 0.0,
			"-0.017": 0.0,
			"-0.016": 0.0,
			"-0.015": 0.18821594502,
			"-0.014": 0.674563631373,
			"-0.013": 0.689305808451,
			"-0.012": 0.890178968418,
			"-0.011": 0.64007036573,
			"-0.01": 1.34044193303,
			"-0.009": 0.789090922382,
			"-0.008": 0.898391586236,
			"-0.007": 2.07249139709,
			"-0.006": 17.5731014175,
			"-0.005": 50.2576850214,
			"-0.004": 55.5417771474,
			"-0.003": 64.5149313756,
			"-0.002": 55.7898961525,
			"-0.001": 31.6565716723,
			"0.0": 25.2645245374,
			"0.001": 21.2074480719,
			"0.002": 24.9701096073,
			"0.003": 28.1623091884,
			"0.004": 32.1722378214,
			"0.005": 24.5133744693,
			"0.006": 15.1989783494,
			"0.007": 10.2145708433,
			"0.008": 10.759431073,
			"0.009": 9.88466372243,
			"0.01": 10.1931338295,
			"0.011": 8.82895996314,
			"0.012": 3.78900355107,
			"0.013": 0.550080087885,
			"0.014": 0.0114902072501,
			"0.015": 0.0,
			"0.016": 0.0,
			"0.017": 0.0,
			"0.018": 0.0,
			"0.019": 0.0,
			"0.02": 0.0,
			"0.021": 0.0,
			"0.022": 0.0,
			"0.023": 0.0,
			"0.024": 0.0,
			"0.025": 0.0
		}
	}
}
