{
	 "smiles": "COC1=CC=C(C=C1)N1C=CC(N)=N1", 
	 "Tm": 454.65, 
	 "num_atms": 25, 
	 "gaussian": { 
		 "optdone": 1, 
		 "sigma_profile": "yes", 
		 "theory": "DFT", 
		 "functional": "B3LYP", 
		 "basiset": "6-31G**", 
		 "properties": { 
			 "R2extent": 4823.6163, 
			 "electric_dipole_moment_norm": 0.734165580779, 
			 "electric_quadrupole_moment_norm": 14.5869993597, 
			 "total_energy": -627.137978225, 
			 "HOMO_LUMO_gap": 0.1806, 
			 "cosmo_polarized_energy": -13.2, 
			 "cosmo_cavitation_energy": 29.18, 
			 "cosmo_dispersion_energy": -21.76, 
			 "cosmo_repulsion_energy": 1.7, 
			 "cosmo_total_nonelectrostatic_energy": 9.12, 
			 "SMD_solvation_energy": 5.31 
		},
		"coords": [
			{
				"x": -3.5393456272,
				"y": 1.3117974385,
				"z": 1.0719994429,
				"element": "C" 
			},
			{
				"x": -3.2432592365,
				"y": 0.7139405597,
				"z": -0.1789677531,
				"element": "O" 
			},
			{
				"x": -2.1159911767,
				"y": -0.0526407247,
				"z": -0.2750141196,
				"element": "C" 
			},
			{
				"x": -1.8744495312,
				"y": -0.6285327401,
				"z": -1.5304413979,
				"element": "C" 
			},
			{
				"x": -0.7608220377,
				"y": -1.4316212243,
				"z": -1.7355698692,
				"element": "C" 
			},
			{
				"x": 0.1481707517,
				"y": -1.6585316191,
				"z": -0.6913924938,
				"element": "C" 
			},
			{
				"x": -0.0932237316,
				"y": -1.0901886827,
				"z": 0.5609660421,
				"element": "C" 
			},
			{
				"x": -1.2205395248,
				"y": -0.2953247402,
				"z": 0.7729327422,
				"element": "C" 
			},
			{
				"x": 1.2995739419,
				"y": -2.4566208661,
				"z": -0.892050552,
				"element": "N" 
			},
			{
				"x": 1.9240497075,
				"y": -2.7631086798,
				"z": -2.064420054,
				"element": "C" 
			},
			{
				"x": 3.0169703617,
				"y": -3.544032955,
				"z": -1.7593745402,
				"element": "C" 
			},
			{
				"x": 2.9811269692,
				"y": -3.6603261571,
				"z": -0.3430570945,
				"element": "C" 
			},
			{
				"x": 3.909779878,
				"y": -4.2994182706,
				"z": 0.4771834082,
				"element": "N" 
			},
			{
				"x": 1.944155453,
				"y": -3.0121670509,
				"z": 0.1803372323,
				"element": "N" 
			},
			{
				"x": -4.4672466182,
				"y": 1.8680031392,
				"z": 0.92925897,
				"element": "H" 
			},
			{
				"x": -3.688123255,
				"y": 0.5588647098,
				"z": 1.8571627081,
				"element": "H" 
			},
			{
				"x": -2.7491140518,
				"y": 2.0053998203,
				"z": 1.3881648298,
				"element": "H" 
			},
			{
				"x": -2.5843050587,
				"y": -0.4463602674,
				"z": -2.3304075651,
				"element": "H" 
			},
			{
				"x": -0.6125258957,
				"y": -1.8956605428,
				"z": -2.7048855308,
				"element": "H" 
			},
			{
				"x": 0.6077137705,
				"y": -1.2809933142,
				"z": 1.36414119,
				"element": "H" 
			},
			{
				"x": -1.3820506599,
				"y": 0.1315898756,
				"z": 1.7555979034,
				"element": "H" 
			},
			{
				"x": 1.5718685916,
				"y": -2.3867565718,
				"z": -3.0125217704,
				"element": "H" 
			},
			{
				"x": 3.7468672057,
				"y": -3.9485494935,
				"z": -2.4444443976,
				"element": "H" 
			},
			{
				"x": 4.2516964441,
				"y": -5.1732089327,
				"z": 0.0983310398,
				"element": "H" 
			},
			{
				"x": 3.5572233303,
				"y": -4.4236527097,
				"z": 1.4186716293,
				"element": "H" 
			}
		],
		 "valence_orbital": [ 
			{
				"type": "occ",
				"energy": -0.28085,
				"method": "rhf"
			},
			{
				"type": "occ",
				"energy": -0.25268,
				"method": "rhf"
			},
			{
				"type": "occ",
				"energy": -0.2457,
				"method": "rhf"
			},
			{
				"type": "occ",
				"energy": -0.226,
				"method": "rhf"
			},
			{
				"type": "occ",
				"energy": -0.18588,
				"method": "rhf"
			},
			{
				"type": "unocc",
				"energy": -0.00528,
				"method": "rhf"
			},
			{
				"type": "unocc",
				"energy": -0.00269,
				"method": "rhf"
			},
			{
				"type": "unocc",
				"energy": 0.05489,
				"method": "rhf"
			},
			{
				"type": "unocc",
				"energy": 0.08021,
				"method": "rhf"
			},
			{
				"type": "unocc",
				"energy": 0.0923,
				"method": "rhf"
			}
		],
		"cosmo_sigma_profile": { 
			"-0.025": 0.0,
			"-0.024": 0.0,
			"-0.023": 0.0,
			"-0.022": 0.0,
			"-0.021": 0.0,
			"-0.02": 0.0,
			"-0.019": 0.0,
			"-0.018": 0.0,
			"-0.017": 0.0,
			"-0.016": 0.0,
			"-0.015": 0.0,
			"-0.014": 0.0,
			"-0.013": 0.30479245512,
			"-0.012": 2.11000716191,
			"-0.011": 2.07905587679,
			"-0.01": 2.84601488695,
			"-0.009": 4.06684398244,
			"-0.008": 4.88789326542,
			"-0.007": 6.9196333741,
			"-0.006": 13.0575937416,
			"-0.005": 19.7258114585,
			"-0.004": 18.5473342342,
			"-0.003": 17.1362133362,
			"-0.002": 11.8962042137,
			"-0.001": 11.20016722,
			"0.0": 8.28005540145,
			"0.001": 10.3426234949,
			"0.002": 13.3246100878,
			"0.003": 16.4142418045,
			"0.004": 19.0277159151,
			"0.005": 17.7103312696,
			"0.006": 8.08573714992,
			"0.007": 5.07299796831,
			"0.008": 4.2436997474,
			"0.009": 3.80079829189,
			"0.01": 3.25240891112,
			"0.011": 3.48002880858,
			"0.012": 1.55956747347,
			"0.013": 1.20172280602,
			"0.014": 1.28913623283,
			"0.015": 0.699070014201,
			"0.016": 0.10717187595,
			"0.017": 0.0,
			"0.018": 0.0,
			"0.019": 0.0,
			"0.02": 0.0,
			"0.021": 0.0,
			"0.022": 0.0,
			"0.023": 0.0,
			"0.024": 0.0,
			"0.025": 0.0
		}
	}
}
