{
	 "smiles": "CC1=CC2=C(C=C1)N=CC=C2", 
	 "Tm": 251.15, 
	 "num_atms": 20, 
	 "gaussian": { 
		 "optdone": 1, 
		 "sigma_profile": "yes", 
		 "theory": "DFT", 
		 "functional": "B3LYP", 
		 "basiset": "6-31G**", 
		 "properties": { 
			 "R2extent": 2247.9594, 
			 "electric_dipole_moment_norm": 2.20567707065, 
			 "electric_quadrupole_moment_norm": 9.37756973421, 
			 "total_energy": -441.253277267, 
			 "HOMO_LUMO_gap": 0.17932, 
			 "cosmo_polarized_energy": -6.8, 
			 "cosmo_cavitation_energy": 23.45, 
			 "cosmo_dispersion_energy": -17.6, 
			 "cosmo_repulsion_energy": 1.39, 
			 "cosmo_total_nonelectrostatic_energy": 7.24, 
			 "SMD_solvation_energy": 2.45 
		},
		"coords": [
			{
				"x": -3.1910218355,
				"y": -0.5233473049,
				"z": 1.4329103127,
				"element": "C" 
			},
			{
				"x": -2.1728065654,
				"y": 0.20409601,
				"z": 0.5891463789,
				"element": "C" 
			},
			{
				"x": -1.5702082604,
				"y": -0.3949697596,
				"z": -0.4978965764,
				"element": "C" 
			},
			{
				"x": -0.6123293683,
				"y": 0.2946075379,
				"z": -1.2880310836,
				"element": "C" 
			},
			{
				"x": -0.2633416331,
				"y": 1.6403691467,
				"z": -0.9508213977,
				"element": "C" 
			},
			{
				"x": -0.8927827834,
				"y": 2.2432524868,
				"z": 0.1713896297,
				"element": "C" 
			},
			{
				"x": -1.8153946148,
				"y": 1.545270368,
				"z": 0.9132016234,
				"element": "C" 
			},
			{
				"x": 0.647600888,
				"y": 2.3675806567,
				"z": -1.6613665877,
				"element": "N" 
			},
			{
				"x": 1.2186272203,
				"y": 1.7871563048,
				"z": -2.698558766,
				"element": "C" 
			},
			{
				"x": 0.9465192872,
				"y": 0.461043858,
				"z": -3.1196025859,
				"element": "C" 
			},
			{
				"x": 0.0307804587,
				"y": -0.282566719,
				"z": -2.4124922177,
				"element": "C" 
			},
			{
				"x": -3.3639792532,
				"y": -1.5387961791,
				"z": 1.0666969021,
				"element": "H" 
			},
			{
				"x": -4.1532101987,
				"y": 0.0023198787,
				"z": 1.4348188318,
				"element": "H" 
			},
			{
				"x": -2.8638270545,
				"y": -0.5933655485,
				"z": 2.4770610706,
				"element": "H" 
			},
			{
				"x": -1.8262476697,
				"y": -1.4180313865,
				"z": -0.7656367598,
				"element": "H" 
			},
			{
				"x": -0.6179785739,
				"y": 3.2645237742,
				"z": 0.4148841488,
				"element": "H" 
			},
			{
				"x": -2.2885361642,
				"y": 2.0204300831,
				"z": 1.7693353854,
				"element": "H" 
			},
			{
				"x": 1.9421849811,
				"y": 2.3867981336,
				"z": -3.2503626842,
				"element": "H" 
			},
			{
				"x": 1.4587459098,
				"y": 0.053297865,
				"z": -3.9855138846,
				"element": "H" 
			},
			{
				"x": -0.2079947699,
				"y": -1.303569206,
				"z": -2.7004617398,
				"element": "H" 
			}
		],
		 "valence_orbital": [ 
			{
				"type": "occ",
				"energy": -0.32887,
				"method": "rhf"
			},
			{
				"type": "occ",
				"energy": -0.30187,
				"method": "rhf"
			},
			{
				"type": "occ",
				"energy": -0.24943,
				"method": "rhf"
			},
			{
				"type": "occ",
				"energy": -0.24335,
				"method": "rhf"
			},
			{
				"type": "occ",
				"energy": -0.22702,
				"method": "rhf"
			},
			{
				"type": "unocc",
				"energy": -0.0477,
				"method": "rhf"
			},
			{
				"type": "unocc",
				"energy": -0.01296,
				"method": "rhf"
			},
			{
				"type": "unocc",
				"energy": 0.02504,
				"method": "rhf"
			},
			{
				"type": "unocc",
				"energy": 0.08728,
				"method": "rhf"
			},
			{
				"type": "unocc",
				"energy": 0.09815,
				"method": "rhf"
			}
		],
		"cosmo_sigma_profile": { 
			"-0.025": 0.0,
			"-0.024": 0.0,
			"-0.023": 0.0,
			"-0.022": 0.0,
			"-0.021": 0.0,
			"-0.02": 0.0,
			"-0.019": 0.0,
			"-0.018": 0.0,
			"-0.017": 0.0,
			"-0.016": 0.0,
			"-0.015": 0.0,
			"-0.014": 0.0,
			"-0.013": 0.0,
			"-0.012": 0.0,
			"-0.011": 0.0,
			"-0.01": 0.0,
			"-0.009": 0.0,
			"-0.008": 0.0,
			"-0.007": 2.91938329654,
			"-0.006": 10.5300741747,
			"-0.005": 14.9217462526,
			"-0.004": 17.4083294044,
			"-0.003": 16.3225904293,
			"-0.002": 14.6363070859,
			"-0.001": 12.6416660547,
			"0.0": 15.3877394722,
			"0.001": 13.9394878069,
			"0.002": 17.2675971103,
			"0.003": 19.7676042163,
			"0.004": 14.2037219181,
			"0.005": 5.24373690218,
			"0.006": 1.92751450092,
			"0.007": 1.46187962566,
			"0.008": 1.56256802185,
			"0.009": 1.23307069739,
			"0.01": 1.0194603743,
			"0.011": 0.896705044541,
			"0.012": 0.812676097748,
			"0.013": 0.894061412775,
			"0.014": 0.992406575463,
			"0.015": 0.668338895055,
			"0.016": 0.750909650735,
			"0.017": 0.253745034648,
			"0.018": 0.0,
			"0.019": 0.0,
			"0.02": 0.0,
			"0.021": 0.0,
			"0.022": 0.0,
			"0.023": 0.0,
			"0.024": 0.0,
			"0.025": 0.0
		}
	}
}
