{
	 "smiles": "CC(=O)OC1=CNC2=CC=CC=C12", 
	 "Tm": 402.15, 
	 "num_atms": 22, 
	 "gaussian": { 
		 "optdone": 1, 
		 "sigma_profile": "yes", 
		 "theory": "DFT", 
		 "functional": "B3LYP", 
		 "basiset": "6-31G**", 
		 "properties": { 
			 "R2extent": 2926.1216, 
			 "electric_dipole_moment_norm": 0.586815720648, 
			 "electric_quadrupole_moment_norm": 16.6478357897, 
			 "total_energy": -591.696521669, 
			 "HOMO_LUMO_gap": 0.18569, 
			 "cosmo_polarized_energy": -10.83, 
			 "cosmo_cavitation_energy": 26.48, 
			 "cosmo_dispersion_energy": -19.71, 
			 "cosmo_repulsion_energy": 1.56, 
			 "cosmo_total_nonelectrostatic_energy": 8.33, 
			 "SMD_solvation_energy": 5.85 
		},
		"coords": [
			{
				"x": -0.6773641658,
				"y": -4.255136657,
				"z": -2.0717241965,
				"element": "C" 
			},
			{
				"x": -0.392347669,
				"y": -2.7765849454,
				"z": -2.1710162676,
				"element": "C" 
			},
			{
				"x": -0.4268442354,
				"y": -2.1160259443,
				"z": -3.1843947683,
				"element": "O" 
			},
			{
				"x": -0.0884171609,
				"y": -2.2781370955,
				"z": -0.9429452562,
				"element": "O" 
			},
			{
				"x": 0.209702566,
				"y": -0.939442229,
				"z": -0.7595901964,
				"element": "C" 
			},
			{
				"x": 0.2726921711,
				"y": 0.1039000618,
				"z": -1.6510663243,
				"element": "C" 
			},
			{
				"x": 0.6194287302,
				"y": 1.2455799854,
				"z": -0.9443778746,
				"element": "N" 
			},
			{
				"x": 0.7776259308,
				"y": 0.9453042942,
				"z": 0.3914613129,
				"element": "C" 
			},
			{
				"x": 1.1193166218,
				"y": 1.7594234577,
				"z": 1.4777918285,
				"element": "C" 
			},
			{
				"x": 1.2045995625,
				"y": 1.1601366148,
				"z": 2.7287203638,
				"element": "C" 
			},
			{
				"x": 0.9566553922,
				"y": -0.2187308039,
				"z": 2.9007293086,
				"element": "C" 
			},
			{
				"x": 0.6178481819,
				"y": -1.0264396509,
				"z": 1.8236615571,
				"element": "C" 
			},
			{
				"x": 0.524612857,
				"y": -0.4443885175,
				"z": 0.5485293925,
				"element": "C" 
			},
			{
				"x": -1.5340605073,
				"y": -4.4289158304,
				"z": -1.4135651387,
				"element": "H" 
			},
			{
				"x": -0.8892047062,
				"y": -4.6478587267,
				"z": -3.0655502536,
				"element": "H" 
			},
			{
				"x": 0.1796887577,
				"y": -4.7777642405,
				"z": -1.6372491592,
				"element": "H" 
			},
			{
				"x": 0.1017415719,
				"y": 0.1208672061,
				"z": -2.7124781911,
				"element": "H" 
			},
			{
				"x": 0.7260318251,
				"y": 2.1582594437,
				"z": -1.3548896778,
				"element": "H" 
			},
			{
				"x": 1.3107972945,
				"y": 2.8209689903,
				"z": 1.3481216841,
				"element": "H" 
			},
			{
				"x": 1.4674985324,
				"y": 1.7654160045,
				"z": 3.5913034455,
				"element": "H" 
			},
			{
				"x": 1.033232221,
				"y": -0.65131525,
				"z": 3.8939041675,
				"element": "H" 
			},
			{
				"x": 0.4272662285,
				"y": -2.0868161673,
				"z": 1.9567242438,
				"element": "H" 
			}
		],
		 "valence_orbital": [ 
			{
				"type": "occ",
				"energy": -0.33053,
				"method": "rhf"
			},
			{
				"type": "occ",
				"energy": -0.27485,
				"method": "rhf"
			},
			{
				"type": "occ",
				"energy": -0.26471,
				"method": "rhf"
			},
			{
				"type": "occ",
				"energy": -0.22103,
				"method": "rhf"
			},
			{
				"type": "occ",
				"energy": -0.19684,
				"method": "rhf"
			},
			{
				"type": "unocc",
				"energy": -0.01115,
				"method": "rhf"
			},
			{
				"type": "unocc",
				"energy": 0.007,
				"method": "rhf"
			},
			{
				"type": "unocc",
				"energy": 0.0286,
				"method": "rhf"
			},
			{
				"type": "unocc",
				"energy": 0.07726,
				"method": "rhf"
			},
			{
				"type": "unocc",
				"energy": 0.08798,
				"method": "rhf"
			}
		],
		"cosmo_sigma_profile": { 
			"-0.025": 0.0,
			"-0.024": 0.0,
			"-0.023": 0.0,
			"-0.022": 0.0,
			"-0.021": 0.0,
			"-0.02": 0.0,
			"-0.019": 0.0,
			"-0.018": 0.0,
			"-0.017": 0.0,
			"-0.016": 0.544085046012,
			"-0.015": 1.73409267196,
			"-0.014": 1.36208028711,
			"-0.013": 1.32848564029,
			"-0.012": 1.10508636255,
			"-0.011": 1.26268901794,
			"-0.01": 1.24922360397,
			"-0.009": 1.32080239201,
			"-0.008": 1.72111184492,
			"-0.007": 4.33212284329,
			"-0.006": 10.5462815018,
			"-0.005": 13.5038155233,
			"-0.004": 15.7370514733,
			"-0.003": 16.128613854,
			"-0.002": 18.3086717122,
			"-0.001": 10.8187732043,
			"0.0": 10.4895959645,
			"0.001": 9.31967528762,
			"0.002": 11.3099322492,
			"0.003": 15.0156963954,
			"0.004": 22.5717289517,
			"0.005": 14.9942597044,
			"0.006": 10.4250152259,
			"0.007": 6.35211637079,
			"0.008": 1.9244923158,
			"0.009": 1.7529218534,
			"0.01": 2.02707861676,
			"0.011": 2.68925858936,
			"0.012": 1.83394086306,
			"0.013": 0.293377125119,
			"0.014": 0.0,
			"0.015": 0.0,
			"0.016": 0.0,
			"0.017": 0.0,
			"0.018": 0.0,
			"0.019": 0.0,
			"0.02": 0.0,
			"0.021": 0.0,
			"0.022": 0.0,
			"0.023": 0.0,
			"0.024": 0.0,
			"0.025": 0.0
		}
	}
}
