{
	 "smiles": "[O-][N+](=O)C1=C(Cl)C=CC(=C1)S(=O)(=O)NC1=CC=C(Br)C=C1", 
	 "Tm": 397.15, 
	 "num_atms": 29, 
	 "gaussian": { 
		 "optdone": 1, 
		 "sigma_profile": "yes", 
		 "theory": "DFT", 
		 "functional": "B3LYP", 
		 "basiset": "6-31G**", 
		 "properties": { 
			 "R2extent": 11800.929, 
			 "electric_dipole_moment_norm": 4.97626791984, 
			 "electric_quadrupole_moment_norm": 24.2678897838, 
			 "total_energy": -4302.0911186, 
			 "HOMO_LUMO_gap": 0.13575, 
			 "cosmo_polarized_energy": -20.27, 
			 "cosmo_cavitation_energy": 40.85, 
			 "cosmo_dispersion_energy": -28.61, 
			 "cosmo_repulsion_energy": 2.17, 
			 "cosmo_total_nonelectrostatic_energy": 14.41, 
			 "SMD_solvation_energy": 6.9 
		},
		"coords": [
			{
				"x": 1.1430027503,
				"y": 5.2594556201,
				"z": 0.9243497552,
				"element": "O" 
			},
			{
				"x": 0.6165486808,
				"y": 4.1532989665,
				"z": 0.9199866839,
				"element": "N" 
			},
			{
				"x": -0.078352025,
				"y": 3.6872268232,
				"z": 1.8208439648,
				"element": "O" 
			},
			{
				"x": 0.857354743,
				"y": 3.2757121216,
				"z": -0.2435328892,
				"element": "C" 
			},
			{
				"x": 1.047394374,
				"y": 3.7609180807,
				"z": -1.5478037086,
				"element": "C" 
			},
			{
				"x": 0.9232006497,
				"y": 5.4387947935,
				"z": -1.9781143771,
				"element": "Cl" 
			},
			{
				"x": 1.3055794584,
				"y": 2.8473246142,
				"z": -2.5769530138,
				"element": "C" 
			},
			{
				"x": 1.3781619045,
				"y": 1.4833007464,
				"z": -2.3167023197,
				"element": "C" 
			},
			{
				"x": 1.1701691743,
				"y": 1.0205950691,
				"z": -1.0149265109,
				"element": "C" 
			},
			{
				"x": 0.905184339,
				"y": 1.9075482369,
				"z": 0.0227321983,
				"element": "C" 
			},
			{
				"x": 1.2331065247,
				"y": -0.7475010866,
				"z": -0.6825511876,
				"element": "S" 
			},
			{
				"x": 1.6536265972,
				"y": -0.9043440145,
				"z": 0.7065275302,
				"element": "O" 
			},
			{
				"x": 1.9249531499,
				"y": -1.3762933618,
				"z": -1.8059758783,
				"element": "O" 
			},
			{
				"x": -0.3545435252,
				"y": -1.3194183626,
				"z": -0.8018566252,
				"element": "N" 
			},
			{
				"x": -1.420349382,
				"y": -0.8815204031,
				"z": 0.0342332523,
				"element": "C" 
			},
			{
				"x": -1.3277814284,
				"y": -0.9870773712,
				"z": 1.4288665044,
				"element": "C" 
			},
			{
				"x": -2.3953188565,
				"y": -0.5834252369,
				"z": 2.2281944432,
				"element": "C" 
			},
			{
				"x": -3.5642999185,
				"y": -0.1063898287,
				"z": 1.6357666849,
				"element": "C" 
			},
			{
				"x": -5.0328716654,
				"y": 0.4198308044,
				"z": 2.733966847,
				"element": "Br" 
			},
			{
				"x": -3.6756174401,
				"y": -0.0152263502,
				"z": 0.2495803008,
				"element": "C" 
			},
			{
				"x": -2.5958146857,
				"y": -0.3897739605,
				"z": -0.5475651356,
				"element": "C" 
			},
			{
				"x": 1.4530337082,
				"y": 3.223574364,
				"z": -3.5827770051,
				"element": "H" 
			},
			{
				"x": 1.6090796328,
				"y": 0.780758482,
				"z": -3.1100729786,
				"element": "H" 
			},
			{
				"x": 0.7548171163,
				"y": 1.5626088387,
				"z": 1.0378770268,
				"element": "H" 
			},
			{
				"x": -0.5938380268,
				"y": -1.4735588252,
				"z": -1.7760240229,
				"element": "H" 
			},
			{
				"x": -0.4263222886,
				"y": -1.3860747641,
				"z": 1.8776624509,
				"element": "H" 
			},
			{
				"x": -2.3237535822,
				"y": -0.6581928337,
				"z": 3.3070949464,
				"element": "H" 
			},
			{
				"x": -4.5878761402,
				"y": 0.3555490539,
				"z": -0.2031815772,
				"element": "H" 
			},
			{
				"x": -2.6718738383,
				"y": -0.3027002158,
				"z": -1.6283453595,
				"element": "H" 
			}
		],
		 "valence_orbital": [ 
			{
				"type": "occ",
				"energy": -0.29869,
				"method": "rhf"
			},
			{
				"type": "occ",
				"energy": -0.29516,
				"method": "rhf"
			},
			{
				"type": "occ",
				"energy": -0.28924,
				"method": "rhf"
			},
			{
				"type": "occ",
				"energy": -0.28014,
				"method": "rhf"
			},
			{
				"type": "occ",
				"energy": -0.24285,
				"method": "rhf"
			},
			{
				"type": "unocc",
				"energy": -0.1071,
				"method": "rhf"
			},
			{
				"type": "unocc",
				"energy": -0.074,
				"method": "rhf"
			},
			{
				"type": "unocc",
				"energy": -0.04031,
				"method": "rhf"
			},
			{
				"type": "unocc",
				"energy": -0.03168,
				"method": "rhf"
			},
			{
				"type": "unocc",
				"energy": -0.03048,
				"method": "rhf"
			}
		],
		"cosmo_sigma_profile": { 
			"-0.025": 0.0,
			"-0.024": 0.0,
			"-0.023": 0.0,
			"-0.022": 0.0,
			"-0.021": 0.0,
			"-0.02": 0.0,
			"-0.019": 0.0,
			"-0.018": 0.0,
			"-0.017": 0.160711887851,
			"-0.016": 0.940994885377,
			"-0.015": 1.52961662165,
			"-0.014": 1.38378597524,
			"-0.013": 1.41868962434,
			"-0.012": 1.62023699705,
			"-0.011": 1.0536506365,
			"-0.01": 2.59879685915,
			"-0.009": 6.14267177267,
			"-0.008": 8.58019278009,
			"-0.007": 12.431892703,
			"-0.006": 13.0702517192,
			"-0.005": 13.6817566081,
			"-0.004": 16.4273404433,
			"-0.003": 24.4102931967,
			"-0.002": 26.8280273854,
			"-0.001": 22.0315325608,
			"0.0": 19.8650798825,
			"0.001": 22.1507745658,
			"0.002": 30.9632869143,
			"0.003": 25.4037288185,
			"0.004": 17.5544563082,
			"0.005": 12.6960877945,
			"0.006": 10.7948556075,
			"0.007": 14.1788449013,
			"0.008": 8.09040989552,
			"0.009": 8.38319808151,
			"0.01": 7.82834896336,
			"0.011": 2.55237997638,
			"0.012": 0.0,
			"0.013": 0.0,
			"0.014": 0.0,
			"0.015": 0.0,
			"0.016": 0.0,
			"0.017": 0.0,
			"0.018": 0.0,
			"0.019": 0.0,
			"0.02": 0.0,
			"0.021": 0.0,
			"0.022": 0.0,
			"0.023": 0.0,
			"0.024": 0.0,
			"0.0": 0.0
		}
	}
}
