{
	 "smiles": "NC1=C(C=C(Cl)C=C1)C(=O)N1CCCC1", 
	 "Tm": 413.15, 
	 "num_atms": 28, 
	 "gaussian": { 
		 "optdone": 1, 
		 "sigma_profile": "yes", 
		 "theory": "DFT", 
		 "functional": "B3LYP", 
		 "basiset": "6-31G**", 
		 "properties": { 
			 "R2extent": 4564.8338, 
			 "electric_dipole_moment_norm": 6.29561078689, 
			 "electric_quadrupole_moment_norm": 14.1753008561, 
			 "total_energy": -1071.94319142, 
			 "HOMO_LUMO_gap": 0.17882, 
			 "cosmo_polarized_energy": -15.53, 
			 "cosmo_cavitation_energy": 32.0, 
			 "cosmo_dispersion_energy": -23.27, 
			 "cosmo_repulsion_energy": 1.84, 
			 "cosmo_total_nonelectrostatic_energy": 10.57, 
			 "SMD_solvation_energy": 4.95 
		},
		"coords": [
			{
				"x": 0.5105411691,
				"y": -0.9536104139,
				"z": -2.0492824035,
				"element": "N" 
			},
			{
				"x": 0.0601181484,
				"y": 0.3038694861,
				"z": -1.679391773,
				"element": "C" 
			},
			{
				"x": 0.6931970491,
				"y": 1.0537510282,
				"z": -0.6583920869,
				"element": "C" 
			},
			{
				"x": 0.3030560991,
				"y": 2.3779545309,
				"z": -0.4214745489,
				"element": "C" 
			},
			{
				"x": -0.7515555332,
				"y": 2.9398283857,
				"z": -1.1284636573,
				"element": "C" 
			},
			{
				"x": -1.2556770193,
				"y": 4.5926066883,
				"z": -0.7907673893,
				"element": "Cl" 
			},
			{
				"x": -1.4143902643,
				"y": 2.1996388825,
				"z": -2.109436497,
				"element": "C" 
			},
			{
				"x": -1.0026874782,
				"y": 0.9019449749,
				"z": -2.3841977988,
				"element": "C" 
			},
			{
				"x": 1.8499562545,
				"y": 0.5337489013,
				"z": 0.1506319245,
				"element": "C" 
			},
			{
				"x": 2.8895692999,
				"y": 1.175091688,
				"z": 0.2726681828,
				"element": "O" 
			},
			{
				"x": 1.70024356,
				"y": -0.7029572786,
				"z": 0.7496940133,
				"element": "N" 
			},
			{
				"x": 2.8077600081,
				"y": -1.1828042186,
				"z": 1.6041044204,
				"element": "C" 
			},
			{
				"x": 2.1847959997,
				"y": -2.3355782904,
				"z": 2.4008809741,
				"element": "C" 
			},
			{
				"x": 0.7178726799,
				"y": -1.9011086475,
				"z": 2.5486251744,
				"element": "C" 
			},
			{
				"x": 0.4048469645,
				"y": -1.2790160968,
				"z": 1.1797577605,
				"element": "C" 
			},
			{
				"x": -0.1368255944,
				"y": -1.5530667803,
				"z": -2.5369223325,
				"element": "H" 
			},
			{
				"x": 1.1420252919,
				"y": -1.4229806887,
				"z": -1.4177068823,
				"element": "H" 
			},
			{
				"x": 0.8354517509,
				"y": 2.9523351108,
				"z": 0.3282107476,
				"element": "H" 
			},
			{
				"x": -2.2376416705,
				"y": 2.6406293735,
				"z": -2.6609827113,
				"element": "H" 
			},
			{
				"x": -1.4967098715,
				"y": 0.3399908852,
				"z": -3.172696528,
				"element": "H" 
			},
			{
				"x": 3.6625741534,
				"y": -1.4838169792,
				"z": 0.9919390806,
				"element": "H" 
			},
			{
				"x": 3.1469469204,
				"y": -0.3669087014,
				"z": 2.2528869907,
				"element": "H" 
			},
			{
				"x": 2.687527756,
				"y": -2.4950639259,
				"z": 3.358331317,
				"element": "H" 
			},
			{
				"x": 2.2454957018,
				"y": -3.2714715697,
				"z": 1.8327238435,
				"element": "H" 
			},
			{
				"x": 0.6278433772,
				"y": -1.1417548948,
				"z": 3.3337296899,
				"element": "H" 
			},
			{
				"x": 0.0405483138,
				"y": -2.7230628346,
				"z": 2.7962339866,
				"element": "H" 
			},
			{
				"x": 0.0669904352,
				"y": -2.0491699487,
				"z": 0.4735685321,
				"element": "H" 
			},
			{
				"x": -0.3674735016,
				"y": -0.5078186662,
				"z": 1.2200279711,
				"element": "H" 
			}
		],
		 "valence_orbital": [ 
			{
				"type": "occ",
				"energy": -0.293,
				"method": "rhf"
			},
			{
				"type": "occ",
				"energy": -0.2667,
				"method": "rhf"
			},
			{
				"type": "occ",
				"energy": -0.24778,
				"method": "rhf"
			},
			{
				"type": "occ",
				"energy": -0.241,
				"method": "rhf"
			},
			{
				"type": "occ",
				"energy": -0.20564,
				"method": "rhf"
			},
			{
				"type": "unocc",
				"energy": -0.02682,
				"method": "rhf"
			},
			{
				"type": "unocc",
				"energy": 0.00192,
				"method": "rhf"
			},
			{
				"type": "unocc",
				"energy": 0.03256,
				"method": "rhf"
			},
			{
				"type": "unocc",
				"energy": 0.04492,
				"method": "rhf"
			},
			{
				"type": "unocc",
				"energy": 0.06453,
				"method": "rhf"
			}
		],
		"cosmo_sigma_profile": { 
			"-0.025": 0.0,
			"-0.024": 0.0,
			"-0.023": 0.0,
			"-0.022": 0.0,
			"-0.021": 0.0,
			"-0.02": 0.0,
			"-0.019": 0.0,
			"-0.018": 0.0,
			"-0.017": 0.0,
			"-0.016": 0.0,
			"-0.015": 0.0,
			"-0.014": 0.0306392797811,
			"-0.013": 1.21985851948,
			"-0.012": 1.53785500657,
			"-0.011": 1.9275967908,
			"-0.01": 1.94368751635,
			"-0.009": 2.79050899211,
			"-0.008": 2.81687897223,
			"-0.007": 5.8157919334,
			"-0.006": 6.46645654346,
			"-0.005": 8.9477801453,
			"-0.004": 21.6695136762,
			"-0.003": 32.5811136046,
			"-0.002": 27.6684565734,
			"-0.001": 21.8285508942,
			"0.0": 18.2488880942,
			"0.001": 9.6262247144,
			"0.002": 13.006522085,
			"0.003": 17.1906210147,
			"0.004": 17.7940899266,
			"0.005": 14.9680719483,
			"0.006": 4.30069788216,
			"0.007": 2.20913168294,
			"0.008": 2.4700832329,
			"0.009": 2.58678173733,
			"0.01": 2.01629181082,
			"0.011": 2.10865249926,
			"0.012": 2.38288633442,
			"0.013": 3.52475409235,
			"0.014": 4.29691755113,
			"0.015": 0.813825384426,
			"0.016": 0.0,
			"0.017": 0.0,
			"0.018": 0.0,
			"0.019": 0.0,
			"0.02": 0.0,
			"0.021": 0.0,
			"0.022": 0.0,
			"0.023": 0.0,
			"0.024": 0.0,
			"0.025": 0.0
		}
	}
}
