{
	 "smiles": "NC1=CC=C(CCC2=CC=C(N)C=C2)C=C1", 
	 "Tm": 410.15, 
	 "num_atms": 32, 
	 "gaussian": { 
		 "optdone": 1, 
		 "sigma_profile": "yes", 
		 "theory": "DFT", 
		 "functional": "B3LYP", 
		 "basiset": "6-31G**", 
		 "properties": { 
			 "R2extent": 4677.0938, 
			 "electric_dipole_moment_norm": 0.92951473899, 
			 "electric_quadrupole_moment_norm": 13.8361746397, 
			 "total_energy": -652.652513402, 
			 "HOMO_LUMO_gap": 0.19615, 
			 "cosmo_polarized_energy": -14.52, 
			 "cosmo_cavitation_energy": 35.19, 
			 "cosmo_dispersion_energy": -24.41, 
			 "cosmo_repulsion_energy": 1.93, 
			 "cosmo_total_nonelectrostatic_energy": 12.72, 
			 "SMD_solvation_energy": 5.29 
		},
		"coords": [
			{
				"x": 0.8723073847,
				"y": -3.1608444464,
				"z": -3.4745324136,
				"element": "N" 
			},
			{
				"x": 0.9205363863,
				"y": -2.5091983849,
				"z": -2.2357067157,
				"element": "C" 
			},
			{
				"x": 0.7677618426,
				"y": -3.2268589373,
				"z": -1.037808032,
				"element": "C" 
			},
			{
				"x": 0.7629727698,
				"y": -2.5646409033,
				"z": 0.1871047853,
				"element": "C" 
			},
			{
				"x": 0.9071732142,
				"y": -1.172883967,
				"z": 0.2745571126,
				"element": "C" 
			},
			{
				"x": 0.8742697315,
				"y": -0.470273703,
				"z": 1.6137608493,
				"element": "C" 
			},
			{
				"x": -0.5527647261,
				"y": -0.1179039419,
				"z": 2.1217421791,
				"element": "C" 
			},
			{
				"x": -1.2618647313,
				"y": 0.9446376355,
				"z": 1.3115156377,
				"element": "C" 
			},
			{
				"x": -2.1234376445,
				"y": 0.6162896438,
				"z": 0.2562676096,
				"element": "C" 
			},
			{
				"x": -2.7582542697,
				"y": 1.597881942,
				"z": -0.5011407165,
				"element": "C" 
			},
			{
				"x": -2.5489331862,
				"y": 2.9592767399,
				"z": -0.228638325,
				"element": "C" 
			},
			{
				"x": -3.1395766382,
				"y": 3.951154267,
				"z": -1.0217216378,
				"element": "N" 
			},
			{
				"x": -1.6868508755,
				"y": 3.2994766283,
				"z": 0.8270290348,
				"element": "C" 
			},
			{
				"x": -1.0611711486,
				"y": 2.30659388,
				"z": 1.5764868892,
				"element": "C" 
			},
			{
				"x": 1.0586483379,
				"y": -0.4666634576,
				"z": -0.9262492923,
				"element": "C" 
			},
			{
				"x": 1.0675826858,
				"y": -1.1149312017,
				"z": -2.159065413,
				"element": "C" 
			},
			{
				"x": 1.1423113279,
				"y": -4.1350445002,
				"z": -3.4484170749,
				"element": "H" 
			},
			{
				"x": 1.3397135975,
				"y": -2.6707414603,
				"z": -4.2255077706,
				"element": "H" 
			},
			{
				"x": 0.655494184,
				"y": -4.3083038916,
				"z": -1.0712606506,
				"element": "H" 
			},
			{
				"x": 0.6522523573,
				"y": -3.1477441299,
				"z": 1.0992344961,
				"element": "H" 
			},
			{
				"x": 1.3528549602,
				"y": -1.1069299834,
				"z": 2.368853726,
				"element": "H" 
			},
			{
				"x": 1.4640092755,
				"y": 0.4528803959,
				"z": 1.5643572384,
				"element": "H" 
			},
			{
				"x": -0.4661779783,
				"y": 0.2180136892,
				"z": 3.1629925721,
				"element": "H" 
			},
			{
				"x": -1.1528517209,
				"y": -1.0355422367,
				"z": 2.1384692707,
				"element": "H" 
			},
			{
				"x": -2.3033348204,
				"y": -0.4294815282,
				"z": 0.0215377743,
				"element": "H" 
			},
			{
				"x": -3.4206805216,
				"y": 1.3099750407,
				"z": -1.3143825225,
				"element": "H" 
			},
			{
				"x": -3.2561491225,
				"y": 4.8440422128,
				"z": -0.5614959599,
				"element": "H" 
			},
			{
				"x": -3.9900810785,
				"y": 3.665092207,
				"z": -1.4880308076,
				"element": "H" 
			},
			{
				"x": -1.5114439038,
				"y": 4.3475363718,
				"z": 1.0595148192,
				"element": "H" 
			},
			{
				"x": -0.405889295,
				"y": 2.5999316783,
				"z": 2.3942936122,
				"element": "H" 
			},
			{
				"x": 1.1732530981,
				"y": 0.6136829083,
				"z": -0.8977069957,
				"element": "H" 
			},
			{
				"x": 1.1863205079,
				"y": -0.5376785671,
				"z": -3.0732532791,
				"element": "H" 
			}
		],
		 "valence_orbital": [ 
			{
				"type": "occ",
				"energy": -0.28528,
				"method": "rhf"
			},
			{
				"type": "occ",
				"energy": -0.23781,
				"method": "rhf"
			},
			{
				"type": "occ",
				"energy": -0.23301,
				"method": "rhf"
			},
			{
				"type": "occ",
				"energy": -0.19202,
				"method": "rhf"
			},
			{
				"type": "occ",
				"energy": -0.18724,
				"method": "rhf"
			},
			{
				"type": "unocc",
				"energy": 0.00891,
				"method": "rhf"
			},
			{
				"type": "unocc",
				"energy": 0.01625,
				"method": "rhf"
			},
			{
				"type": "unocc",
				"energy": 0.02401,
				"method": "rhf"
			},
			{
				"type": "unocc",
				"energy": 0.02961,
				"method": "rhf"
			},
			{
				"type": "unocc",
				"energy": 0.08721,
				"method": "rhf"
			}
		],
		"cosmo_sigma_profile": { 
			"-0.025": 0.0,
			"-0.024": 0.0,
			"-0.023": 0.0,
			"-0.022": 0.0,
			"-0.021": 0.0,
			"-0.02": 0.0,
			"-0.019": 0.0,
			"-0.018": 0.0,
			"-0.017": 0.0,
			"-0.016": 0.0,
			"-0.015": 0.0,
			"-0.014": 0.0,
			"-0.013": 0.0164642868293,
			"-0.012": 3.10456179295,
			"-0.011": 5.57612548597,
			"-0.01": 5.58057886406,
			"-0.009": 6.14164083342,
			"-0.008": 5.9354118268,
			"-0.007": 4.98679138125,
			"-0.006": 7.64511672688,
			"-0.005": 11.5994799965,
			"-0.004": 15.2298634332,
			"-0.003": 25.0226024669,
			"-0.002": 25.9217608552,
			"-0.001": 21.9256720066,
			"0.0": 18.3958452974,
			"0.001": 14.9941362523,
			"0.002": 13.7294053494,
			"0.003": 12.1673053414,
			"0.004": 13.1201670646,
			"0.005": 14.082945692,
			"0.006": 17.2160078368,
			"0.007": 19.5144630967,
			"0.008": 4.86694878448,
			"0.009": 1.45118337677,
			"0.01": 1.77681195058,
			"0.011": 1.46971396102,
			"0.012": 1.46140799244,
			"0.013": 1.58180812334,
			"0.014": 1.06755882816,
			"0.015": 1.25009447883,
			"0.016": 0.128702544205,
			"0.017": 0.0,
			"0.018": 0.0,
			"0.019": 0.0,
			"0.02": 0.0,
			"0.021": 0.0,
			"0.022": 0.0,
			"0.023": 0.0,
			"0.024": 0.0,
			"0.025": 0.0
		}
	}
}
