{
	 "smiles": "OC1=CC=C(C=O)C=C1O", 
	 "Tm": 427.15, 
	 "num_atms": 16, 
	 "gaussian": { 
		 "optdone": 1, 
		 "sigma_profile": "yes", 
		 "theory": "DFT", 
		 "functional": "B3LYP", 
		 "basiset": "6-31G**", 
		 "properties": { 
			 "R2extent": 1744.5539, 
			 "electric_dipole_moment_norm": 2.33112451405, 
			 "electric_quadrupole_moment_norm": 14.600002238, 
			 "total_energy": -496.018720838, 
			 "HOMO_LUMO_gap": 0.17281, 
			 "cosmo_polarized_energy": -13.15, 
			 "cosmo_cavitation_energy": 20.84, 
			 "cosmo_dispersion_energy": -15.59, 
			 "cosmo_repulsion_energy": 1.26, 
			 "cosmo_total_nonelectrostatic_energy": 6.51, 
			 "SMD_solvation_energy": 5.37 
		},
		"coords": [
			{
				"x": 0.1679263603,
				"y": -2.0127165034,
				"z": 1.7815675969,
				"element": "O" 
			},
			{
				"x": 0.3977435803,
				"y": -0.8265030349,
				"z": 1.1696007067,
				"element": "C" 
			},
			{
				"x": -0.0381540401,
				"y": 0.3605517075,
				"z": 1.7577018285,
				"element": "C" 
			},
			{
				"x": 0.2033674709,
				"y": 1.5758184645,
				"z": 1.1198378185,
				"element": "C" 
			},
			{
				"x": 0.8795407876,
				"y": 1.6133110265,
				"z": -0.1054251991,
				"element": "C" 
			},
			{
				"x": 1.1343853864,
				"y": 2.8974409874,
				"z": -0.7787324163,
				"element": "C" 
			},
			{
				"x": 1.7136895067,
				"y": 3.0205816476,
				"z": -1.8444400627,
				"element": "O" 
			},
			{
				"x": 1.3195695301,
				"y": 0.4153675992,
				"z": -0.6991197583,
				"element": "C" 
			},
			{
				"x": 1.0807589316,
				"y": -0.7898615412,
				"z": -0.0678427124,
				"element": "C" 
			},
			{
				"x": 1.4586002184,
				"y": -2.0224748903,
				"z": -0.5436299373,
				"element": "O" 
			},
			{
				"x": 0.5425427914,
				"y": -2.711465317,
				"z": 1.2225600988,
				"element": "H" 
			},
			{
				"x": -0.5598264751,
				"y": 0.306703611,
				"z": 2.7071803089,
				"element": "H" 
			},
			{
				"x": -0.1345644026,
				"y": 2.5033469949,
				"z": 1.5745883631,
				"element": "H" 
			},
			{
				"x": 0.7492341967,
				"y": 3.7880721127,
				"z": -0.2335768875,
				"element": "H" 
			},
			{
				"x": 1.8425897644,
				"y": 0.4688160553,
				"z": -1.6508138069,
				"element": "H" 
			},
			{
				"x": 1.9175963931,
				"y": -1.9237889197,
				"z": -1.3871559407,
				"element": "H" 
			}
		],
		 "valence_orbital": [ 
			{
				"type": "occ",
				"energy": -0.3585,
				"method": "rhf"
			},
			{
				"type": "occ",
				"energy": -0.33153,
				"method": "rhf"
			},
			{
				"type": "occ",
				"energy": -0.25463,
				"method": "rhf"
			},
			{
				"type": "occ",
				"energy": -0.25011,
				"method": "rhf"
			},
			{
				"type": "occ",
				"energy": -0.227,
				"method": "rhf"
			},
			{
				"type": "unocc",
				"energy": -0.05419,
				"method": "rhf"
			},
			{
				"type": "unocc",
				"energy": -0.00583,
				"method": "rhf"
			},
			{
				"type": "unocc",
				"energy": 0.04425,
				"method": "rhf"
			},
			{
				"type": "unocc",
				"energy": 0.05294,
				"method": "rhf"
			},
			{
				"type": "unocc",
				"energy": 0.09316,
				"method": "rhf"
			}
		],
		"cosmo_sigma_profile": { 
			"-0.025": 0.0,
			"-0.024": 0.0,
			"-0.023": 0.0,
			"-0.022": 0.0,
			"-0.021": 0.0,
			"-0.02": 0.0,
			"-0.019": 0.383025387811,
			"-0.018": 1.10073951247,
			"-0.017": 1.46108350454,
			"-0.016": 0.942784989389,
			"-0.015": 1.42995005283,
			"-0.014": 1.39236596886,
			"-0.013": 1.13163577269,
			"-0.012": 1.81551621869,
			"-0.011": 2.16048180847,
			"-0.01": 1.49279680228,
			"-0.009": 1.58718503981,
			"-0.008": 1.57440406907,
			"-0.007": 5.38063646243,
			"-0.006": 10.184957601,
			"-0.005": 8.55733890527,
			"-0.004": 7.60382458317,
			"-0.003": 7.58110573784,
			"-0.002": 7.34065309728,
			"-0.001": 7.2220807293,
			"0.0": 9.96884100943,
			"0.001": 11.8074634015,
			"0.002": 14.9063182091,
			"0.003": 15.4931375153,
			"0.004": 10.4335669639,
			"0.005": 4.65629265826,
			"0.006": 4.14340366751,
			"0.007": 3.55117691543,
			"0.008": 3.42218010961,
			"0.009": 3.41667340099,
			"0.01": 3.8963241457,
			"0.011": 4.25937968573,
			"0.012": 4.36948582177,
			"0.013": 1.57202813576,
			"0.014": 0.287796023761,
			"0.015": 0.0,
			"0.016": 0.0,
			"0.017": 0.0,
			"0.018": 0.0,
			"0.019": 0.0,
			"0.02": 0.0,
			"0.021": 0.0,
			"0.022": 0.0,
			"0.023": 0.0,
			"0.024": 0.0,
			"0.025": 0.0
		}
	}
}
