{
	 "smiles": "CCOC(=O)C1=C(OC2=CC=C(F)C=C2)C2=C(N=C1)N(C)N=C2C", 
	 "Tm": 384.15, 
	 "num_atms": 40, 
	 "gaussian": { 
		 "optdone": 1, 
		 "sigma_profile": "yes", 
		 "theory": "DFT", 
		 "functional": "B3LYP", 
		 "basiset": "6-31G**", 
		 "properties": { 
			 "R2extent": 8294.0661, 
			 "electric_dipole_moment_norm": 1.49444465605, 
			 "electric_quadrupole_moment_norm": 14.5290362475, 
			 "total_energy": -1147.21263968, 
			 "HOMO_LUMO_gap": 0.17196, 
			 "cosmo_polarized_energy": -12.29, 
			 "cosmo_cavitation_energy": 45.34, 
			 "cosmo_dispersion_energy": -29.68, 
			 "cosmo_repulsion_energy": 2.23, 
			 "cosmo_total_nonelectrostatic_energy": 17.9, 
			 "SMD_solvation_energy": 6.99 
		},
		"coords": [
			{
				"x": 0.9327013642,
				"y": 4.0898176725,
				"z": 0.2505230577,
				"element": "C" 
			},
			{
				"x": -0.1231211657,
				"y": 3.6963823044,
				"z": -0.7714407617,
				"element": "C" 
			},
			{
				"x": -0.1963356931,
				"y": 2.2579550502,
				"z": -0.934130904,
				"element": "O" 
			},
			{
				"x": 0.6906063783,
				"y": 1.7036994247,
				"z": -1.7836806434,
				"element": "C" 
			},
			{
				"x": 1.502692156,
				"y": 2.3481232433,
				"z": -2.4234670694,
				"element": "O" 
			},
			{
				"x": 0.5541835917,
				"y": 0.2241592846,
				"z": -1.9007075325,
				"element": "C" 
			},
			{
				"x": -0.2056584519,
				"y": -0.6214760216,
				"z": -1.0721505439,
				"element": "C" 
			},
			{
				"x": -0.9572584544,
				"y": -0.2110623144,
				"z": -0.002947313,
				"element": "O" 
			},
			{
				"x": -0.3616979134,
				"y": 0.2592665055,
				"z": 1.1551804228,
				"element": "C" 
			},
			{
				"x": 0.9760885396,
				"y": 0.0272738931,
				"z": 1.4785230403,
				"element": "C" 
			},
			{
				"x": 1.480336031,
				"y": 0.4960356494,
				"z": 2.6938242379,
				"element": "C" 
			},
			{
				"x": 0.6369700923,
				"y": 1.1768342868,
				"z": 3.5622885696,
				"element": "C" 
			},
			{
				"x": 1.124430416,
				"y": 1.6257867355,
				"z": 4.7391366561,
				"element": "F" 
			},
			{
				"x": -0.7010211185,
				"y": 1.4044604164,
				"z": 3.2523807452,
				"element": "C" 
			},
			{
				"x": -1.2016766052,
				"y": 0.9425554538,
				"z": 2.0375108627,
				"element": "C" 
			},
			{
				"x": -0.2474298259,
				"y": -1.9820204858,
				"z": -1.4028169648,
				"element": "C" 
			},
			{
				"x": 0.4879235273,
				"y": -2.4059046165,
				"z": -2.537921139,
				"element": "C" 
			},
			{
				"x": 1.2411894513,
				"y": -1.6396791949,
				"z": -3.3411557084,
				"element": "N" 
			},
			{
				"x": 1.2516522548,
				"y": -0.359146923,
				"z": -2.9990116448,
				"element": "C" 
			},
			{
				"x": 0.2931068085,
				"y": -3.7463593652,
				"z": -2.6418862463,
				"element": "N" 
			},
			{
				"x": 0.8341850889,
				"y": -4.6458038923,
				"z": -3.6399319749,
				"element": "C" 
			},
			{
				"x": -0.5225831572,
				"y": -4.2107024106,
				"z": -1.6479818321,
				"element": "N" 
			},
			{
				"x": -0.8570512392,
				"y": -3.1759582368,
				"z": -0.8927031286,
				"element": "C" 
			},
			{
				"x": -1.7527606526,
				"y": -3.3440514795,
				"z": 0.293185283,
				"element": "C" 
			},
			{
				"x": 1.9301211759,
				"y": 3.8196661103,
				"z": -0.1041208408,
				"element": "H" 
			},
			{
				"x": 0.7493656396,
				"y": 3.5970105174,
				"z": 1.2093212308,
				"element": "H" 
			},
			{
				"x": 0.9069294078,
				"y": 5.1733924905,
				"z": 0.407889589,
				"element": "H" 
			},
			{
				"x": 0.0786197305,
				"y": 4.1495713745,
				"z": -1.7445960475,
				"element": "H" 
			},
			{
				"x": -1.12557687,
				"y": 3.9764841006,
				"z": -0.4398777311,
				"element": "H" 
			},
			{
				"x": 1.6229048963,
				"y": -0.5109747127,
				"z": 0.7950312566,
				"element": "H" 
			},
			{
				"x": 2.5159071958,
				"y": 0.3312542567,
				"z": 2.9705861125,
				"element": "H" 
			},
			{
				"x": -1.3318705869,
				"y": 1.9365249882,
				"z": 3.9560878391,
				"element": "H" 
			},
			{
				"x": -2.2369901436,
				"y": 1.1049226154,
				"z": 1.758759969,
				"element": "H" 
			},
			{
				"x": 1.8398267855,
				"y": 0.3133568688,
				"z": -3.6167022847,
				"element": "H" 
			},
			{
				"x": 0.0243190004,
				"y": -5.1241483311,
				"z": -4.1974973913,
				"element": "H" 
			},
			{
				"x": 1.4506174267,
				"y": -4.0545631671,
				"z": -4.317947481,
				"element": "H" 
			},
			{
				"x": 1.4439961315,
				"y": -5.4177921781,
				"z": -3.1627764285,
				"element": "H" 
			},
			{
				"x": -2.6525237907,
				"y": -2.7275129714,
				"z": 0.1997280856,
				"element": "H" 
			},
			{
				"x": -1.249813162,
				"y": -3.0407388813,
				"z": 1.2176259588,
				"element": "H" 
			},
			{
				"x": -2.0484042593,
				"y": -4.3914380603,
				"z": 0.3817686952,
				"element": "H" 
			}
		],
		 "valence_orbital": [ 
			{
				"type": "occ",
				"energy": -0.27178,
				"method": "rhf"
			},
			{
				"type": "occ",
				"energy": -0.27064,
				"method": "rhf"
			},
			{
				"type": "occ",
				"energy": -0.25735,
				"method": "rhf"
			},
			{
				"type": "occ",
				"energy": -0.23713,
				"method": "rhf"
			},
			{
				"type": "occ",
				"energy": -0.22798,
				"method": "rhf"
			},
			{
				"type": "unocc",
				"energy": -0.05602,
				"method": "rhf"
			},
			{
				"type": "unocc",
				"energy": -0.03399,
				"method": "rhf"
			},
			{
				"type": "unocc",
				"energy": -0.01947,
				"method": "rhf"
			},
			{
				"type": "unocc",
				"energy": 0.00387,
				"method": "rhf"
			},
			{
				"type": "unocc",
				"energy": 0.037,
				"method": "rhf"
			}
		],
		"cosmo_sigma_profile": { 
			"-0.025": 0.0,
			"-0.024": 0.0,
			"-0.023": 0.0,
			"-0.022": 0.0,
			"-0.021": 0.0,
			"-0.02": 0.0,
			"-0.019": 0.0,
			"-0.018": 0.0,
			"-0.017": 0.0,
			"-0.016": 0.0,
			"-0.015": 0.0,
			"-0.014": 0.0,
			"-0.013": 0.0,
			"-0.012": 0.0,
			"-0.011": 0.0,
			"-0.01": 0.0,
			"-0.009": 0.0,
			"-0.008": 1.36646758803,
			"-0.007": 7.03083780279,
			"-0.006": 15.2352608451,
			"-0.005": 22.6040617388,
			"-0.004": 28.0492130886,
			"-0.003": 34.2115043978,
			"-0.002": 32.9783579162,
			"-0.001": 43.0110501172,
			"0.0": 39.0488710266,
			"0.001": 31.557657383,
			"0.002": 23.6716463046,
			"0.003": 18.8549845045,
			"0.004": 17.6301299389,
			"0.005": 11.9630468455,
			"0.006": 4.55210867965,
			"0.007": 5.84273461184,
			"0.008": 5.4622838469,
			"0.009": 3.52090581826,
			"0.01": 4.16724920707,
			"0.011": 4.45127638587,
			"0.012": 4.27376252721,
			"0.013": 1.84724961783,
			"0.014": 0.648079650933,
			"0.015": 0.208058559609,
			"0.016": 0.0,
			"0.017": 0.0,
			"0.018": 0.0,
			"0.019": 0.0,
			"0.02": 0.0,
			"0.021": 0.0,
			"0.022": 0.0,
			"0.023": 0.0,
			"0.024": 0.0,
			"0.025": 0.0
		}
	}
}
