{
	 "smiles": "OC(=O)CC1=C(Cl)C=CC(=C1)C(F)(F)F", 
	 "Tm": 386.15, 
	 "num_atms": 21, 
	 "gaussian": { 
		 "optdone": 1, 
		 "sigma_profile": "yes", 
		 "theory": "DFT", 
		 "functional": "B3LYP", 
		 "basiset": "6-31G**", 
		 "properties": { 
			 "R2extent": 4316.2526, 
			 "electric_dipole_moment_norm": 4.15113043519, 
			 "electric_quadrupole_moment_norm": 19.697930769, 
			 "total_energy": -1256.7491577, 
			 "HOMO_LUMO_gap": 0.22311, 
			 "cosmo_polarized_energy": -17.27, 
			 "cosmo_cavitation_energy": 29.41, 
			 "cosmo_dispersion_energy": -20.41, 
			 "cosmo_repulsion_energy": 1.56, 
			 "cosmo_total_nonelectrostatic_energy": 10.56, 
			 "SMD_solvation_energy": 7.02 
		},
		"coords": [
			{
				"x": -1.8401353853,
				"y": 3.5003736955,
				"z": 1.6725942641,
				"element": "O" 
			},
			{
				"x": -1.7109706982,
				"y": 2.434010857,
				"z": 0.8398211452,
				"element": "C" 
			},
			{
				"x": -2.5479601183,
				"y": 2.2006846227,
				"z": 0.0097341254,
				"element": "O" 
			},
			{
				"x": -0.4220962202,
				"y": 1.6230179614,
				"z": 1.0397734714,
				"element": "C" 
			},
			{
				"x": -0.3843171231,
				"y": 0.3543568407,
				"z": 0.2287026414,
				"element": "C" 
			},
			{
				"x": -1.0569198067,
				"y": -0.8101830174,
				"z": 0.6273961284,
				"element": "C" 
			},
			{
				"x": -1.9752946806,
				"y": -0.826854431,
				"z": 2.1251041172,
				"element": "Cl" 
			},
			{
				"x": -1.0161572774,
				"y": -1.9800013516,
				"z": -0.1306975914,
				"element": "C" 
			},
			{
				"x": -0.2941002687,
				"y": -2.0033873244,
				"z": -1.3199994037,
				"element": "C" 
			},
			{
				"x": 0.382967793,
				"y": -0.8572032201,
				"z": -1.7402770586,
				"element": "C" 
			},
			{
				"x": 0.3336734058,
				"y": 0.3041029072,
				"z": -0.969923742,
				"element": "C" 
			},
			{
				"x": 1.1238812223,
				"y": -0.8596998494,
				"z": -3.0505797907,
				"element": "C" 
			},
			{
				"x": 1.6388992656,
				"y": -2.0777104473,
				"z": -3.3288990839,
				"element": "F" 
			},
			{
				"x": 2.1454264036,
				"y": 0.0255228962,
				"z": -3.0508877127,
				"element": "F" 
			},
			{
				"x": 0.3153575928,
				"y": -0.5294550198,
				"z": -4.0818395054,
				"element": "F" 
			},
			{
				"x": -1.1020536394,
				"y": 3.5388631474,
				"z": 2.297295769,
				"element": "H" 
			},
			{
				"x": 0.4188595483,
				"y": 2.2682810412,
				"z": 0.7570684241,
				"element": "H" 
			},
			{
				"x": -0.3078182329,
				"y": 1.4026512189,
				"z": 2.107685029,
				"element": "H" 
			},
			{
				"x": -1.5450092551,
				"y": -2.86130611,
				"z": 0.2135229492,
				"element": "H" 
			},
			{
				"x": -0.2499070036,
				"y": -2.9110521396,
				"z": -1.911615244,
				"element": "H" 
			},
			{
				"x": 0.8692744782,
				"y": 1.1868877224,
				"z": -1.3033789319,
				"element": "H" 
			}
		],
		 "valence_orbital": [ 
			{
				"type": "occ",
				"energy": -0.32942,
				"method": "rhf"
			},
			{
				"type": "occ",
				"energy": -0.32408,
				"method": "rhf"
			},
			{
				"type": "occ",
				"energy": -0.28544,
				"method": "rhf"
			},
			{
				"type": "occ",
				"energy": -0.27644,
				"method": "rhf"
			},
			{
				"type": "occ",
				"energy": -0.26616,
				"method": "rhf"
			},
			{
				"type": "unocc",
				"energy": -0.04305,
				"method": "rhf"
			},
			{
				"type": "unocc",
				"energy": -0.03429,
				"method": "rhf"
			},
			{
				"type": "unocc",
				"energy": 0.00195,
				"method": "rhf"
			},
			{
				"type": "unocc",
				"energy": 0.0157,
				"method": "rhf"
			},
			{
				"type": "unocc",
				"energy": 0.04692,
				"method": "rhf"
			}
		],
		"cosmo_sigma_profile": { 
			"-0.025": 0.0,
			"-0.024": 0.0,
			"-0.023": 0.0,
			"-0.022": 0.0,
			"-0.021": 0.0,
			"-0.02": 0.163564252736,
			"-0.019": 1.17507189688,
			"-0.018": 1.15828385481,
			"-0.017": 1.37473200261,
			"-0.016": 0.868307321126,
			"-0.015": 0.967161364474,
			"-0.014": 1.06994096285,
			"-0.013": 1.10648363866,
			"-0.012": 1.5459675208,
			"-0.011": 1.38101421139,
			"-0.01": 1.13776976035,
			"-0.009": 5.15395299861,
			"-0.008": 7.75683699865,
			"-0.007": 7.65377747103,
			"-0.006": 8.40605936265,
			"-0.005": 7.75456582748,
			"-0.004": 8.31055495112,
			"-0.003": 9.14419108507,
			"-0.002": 10.0126010097,
			"-0.001": 12.0592634052,
			"0.0": 19.3531823575,
			"0.001": 23.0261176722,
			"0.002": 32.4893204247,
			"0.003": 32.3202268385,
			"0.004": 10.2460290235,
			"0.005": 3.66160749795,
			"0.006": 2.26654693962,
			"0.007": 3.06479828437,
			"0.008": 3.36428628447,
			"0.009": 3.85146299714,
			"0.01": 5.32868027629,
			"0.011": 5.44145151362,
			"0.012": 4.11566067205,
			"0.013": 0.808045155895,
			"0.014": 0.0,
			"0.015": 0.0,
			"0.016": 0.0,
			"0.017": 0.0,
			"0.018": 0.0,
			"0.019": 0.0,
			"0.02": 0.0,
			"0.021": 0.0,
			"0.022": 0.0,
			"0.023": 0.0,
			"0.024": 0.0,
			"0.025": 0.0
		}
	}
}
