{
	 "smiles": "NC1=NC(Cl)=NC=C1C#N", 
	 "Tm": 523.15, 
	 "num_atms": 13, 
	 "gaussian": { 
		 "optdone": 1, 
		 "sigma_profile": "yes", 
		 "theory": "DFT", 
		 "functional": "B3LYP", 
		 "basiset": "6-31G**", 
		 "properties": { 
			 "R2extent": 3027.3227, 
			 "electric_dipole_moment_norm": 0.791874604972, 
			 "electric_quadrupole_moment_norm": 13.0088086303, 
			 "total_energy": -871.500020163, 
			 "HOMO_LUMO_gap": 0.19716, 
			 "cosmo_polarized_energy": -15.49, 
			 "cosmo_cavitation_energy": 21.25, 
			 "cosmo_dispersion_energy": -15.38, 
			 "cosmo_repulsion_energy": 1.27, 
			 "cosmo_total_nonelectrostatic_energy": 7.14, 
			 "SMD_solvation_energy": 1.76 
		},
		"coords": [
			{
				"x": -0.1719967344,
				"y": 1.7648428433,
				"z": -0.5035085491,
				"element": "N" 
			},
			{
				"x": 1.0351863364,
				"y": 1.0263727067,
				"z": -0.3740864834,
				"element": "C" 
			},
			{
				"x": 2.1544101247,
				"y": 1.7281967343,
				"z": -0.197189822,
				"element": "N" 
			},
			{
				"x": 3.2848602072,
				"y": 1.0398336003,
				"z": -0.075861842,
				"element": "C" 
			},
			{
				"x": 4.730835343,
				"y": 1.9861700703,
				"z": 0.1539079321,
				"element": "Cl" 
			},
			{
				"x": 3.4552419823,
				"y": -0.2798792092,
				"z": -0.1076960722,
				"element": "N" 
			},
			{
				"x": 2.3430273024,
				"y": -0.9913185823,
				"z": -0.2840158042,
				"element": "C" 
			},
			{
				"x": 1.0850327576,
				"y": -0.3886709611,
				"z": -0.4256497454,
				"element": "C" 
			},
			{
				"x": -0.1016969717,
				"y": -1.1589668483,
				"z": -0.6144133164,
				"element": "C" 
			},
			{
				"x": -1.0798054733,
				"y": -1.7700896353,
				"z": -0.7680897946,
				"element": "N" 
			},
			{
				"x": -0.8341663151,
				"y": 1.4916890484,
				"z": 0.2203971594,
				"element": "H" 
			},
			{
				"x": -0.620451657,
				"y": 1.5580529599,
				"z": -1.3941529167,
				"element": "H" 
			},
			{
				"x": 2.4475230977,
				"y": -2.0732327271,
				"z": -0.3147407454,
				"element": "H" 
			}
		],
		 "valence_orbital": [ 
			{
				"type": "occ",
				"energy": -0.3503,
				"method": "rhf"
			},
			{
				"type": "occ",
				"energy": -0.3362,
				"method": "rhf"
			},
			{
				"type": "occ",
				"energy": -0.29734,
				"method": "rhf"
			},
			{
				"type": "occ",
				"energy": -0.29407,
				"method": "rhf"
			},
			{
				"type": "occ",
				"energy": -0.28759,
				"method": "rhf"
			},
			{
				"type": "unocc",
				"energy": -0.09043,
				"method": "rhf"
			},
			{
				"type": "unocc",
				"energy": -0.07749,
				"method": "rhf"
			},
			{
				"type": "unocc",
				"energy": 0.00197,
				"method": "rhf"
			},
			{
				"type": "unocc",
				"energy": 0.02196,
				"method": "rhf"
			},
			{
				"type": "unocc",
				"energy": 0.03298,
				"method": "rhf"
			}
		],
		"cosmo_sigma_profile": { 
			"-0.025": 0.0,
			"-0.024": 0.0,
			"-0.023": 0.0,
			"-0.022": 0.0,
			"-0.021": 0.0,
			"-0.02": 0.0,
			"-0.019": 0.0,
			"-0.018": 0.0,
			"-0.017": 0.0,
			"-0.016": 0.0,
			"-0.015": 0.0,
			"-0.014": 1.5083518392,
			"-0.013": 3.40895143469,
			"-0.012": 3.1646163673,
			"-0.011": 4.93356402255,
			"-0.01": 4.91579525069,
			"-0.009": 5.23735833781,
			"-0.008": 4.36815271988,
			"-0.007": 7.44502909928,
			"-0.006": 7.86907242433,
			"-0.005": 9.57492781625,
			"-0.004": 9.1648251407,
			"-0.003": 6.70067490969,
			"-0.002": 6.93278019403,
			"-0.001": 8.19459427846,
			"0.0": 6.60460850856,
			"0.001": 7.69852236031,
			"0.002": 9.80851401461,
			"0.003": 12.2934297483,
			"0.004": 8.52294866,
			"0.005": 5.72931442956,
			"0.006": 5.92836328833,
			"0.007": 6.26136140727,
			"0.008": 5.50670182505,
			"0.009": 4.76663556762,
			"0.01": 4.66133421083,
			"0.011": 5.29621906416,
			"0.012": 3.01605599226,
			"0.013": 1.46602685366,
			"0.014": 1.50520890918,
			"0.015": 1.09108659479,
			"0.016": 0.890823874149,
			"0.017": 0.319635457482,
			"0.018": 0.0,
			"0.019": 0.0,
			"0.02": 0.0,
			"0.021": 0.0,
			"0.022": 0.0,
			"0.023": 0.0,
			"0.024": 0.0,
			"0.025": 0.0
		}
	}
}
