{
	 "smiles": "BrCC(=O)C1=CC=C(Br)C=C1", 
	 "Tm": 383.15, 
	 "num_atms": 17, 
	 "gaussian": { 
		 "optdone": 1, 
		 "sigma_profile": "yes", 
		 "theory": "DFT", 
		 "functional": "B3LYP", 
		 "basiset": "6-31G**", 
		 "properties": { 
			 "R2extent": 6405.5238, 
			 "electric_dipole_moment_norm": 1.97996280268, 
			 "electric_quadrupole_moment_norm": 4.50423566324, 
			 "total_energy": -5526.49698535, 
			 "HOMO_LUMO_gap": 0.17444, 
			 "cosmo_polarized_energy": -8.3, 
			 "cosmo_cavitation_energy": 26.18, 
			 "cosmo_dispersion_energy": -19.86, 
			 "cosmo_repulsion_energy": 1.6, 
			 "cosmo_total_nonelectrostatic_energy": 7.92, 
			 "SMD_solvation_energy": 2.78 
		},
		"coords": [
			{
				"x": -0.4297795939,
				"y": 0.8196812066,
				"z": -2.0454613089,
				"element": "Br" 
			},
			{
				"x": -1.4938972205,
				"y": 0.1841889257,
				"z": -0.5011613465,
				"element": "C" 
			},
			{
				"x": -0.7296527312,
				"y": -0.8675833797,
				"z": 0.2975449697,
				"element": "C" 
			},
			{
				"x": -1.0970756003,
				"y": -2.0296577622,
				"z": 0.2285000985,
				"element": "O" 
			},
			{
				"x": 0.406391272,
				"y": -0.4583721138,
				"z": 1.1748413559,
				"element": "C" 
			},
			{
				"x": 0.8547322778,
				"y": 0.8665514095,
				"z": 1.2883976976,
				"element": "C" 
			},
			{
				"x": 1.9027904278,
				"y": 1.1900252677,
				"z": 2.1474117791,
				"element": "C" 
			},
			{
				"x": 2.5052924167,
				"y": 0.1786795584,
				"z": 2.8954341892,
				"element": "C" 
			},
			{
				"x": 3.9385991507,
				"y": 0.616280817,
				"z": 4.0734689903,
				"element": "Br" 
			},
			{
				"x": 2.0801771334,
				"y": -1.148209876,
				"z": 2.796915064,
				"element": "C" 
			},
			{
				"x": 1.0332904689,
				"y": -1.4578208539,
				"z": 1.9368786935,
				"element": "C" 
			},
			{
				"x": -2.3863732641,
				"y": -0.2763159824,
				"z": -0.9167759599,
				"element": "H" 
			},
			{
				"x": -1.7434061417,
				"y": 1.071357309,
				"z": 0.0804900606,
				"element": "H" 
			},
			{
				"x": 0.4077934162,
				"y": 1.6553300028,
				"z": 0.6934415602,
				"element": "H" 
			},
			{
				"x": 2.2510782002,
				"y": 2.2126999449,
				"z": 2.2329794744,
				"element": "H" 
			},
			{
				"x": 2.5624992213,
				"y": -1.9200990052,
				"z": 3.3854612337,
				"element": "H" 
			},
			{
				"x": 0.6782405667,
				"y": -2.4782354684,
				"z": 1.8405334488,
				"element": "H" 
			}
		],
		 "valence_orbital": [ 
			{
				"type": "occ",
				"energy": -0.29887,
				"method": "rhf"
			},
			{
				"type": "occ",
				"energy": -0.28995,
				"method": "rhf"
			},
			{
				"type": "occ",
				"energy": -0.27825,
				"method": "rhf"
			},
			{
				"type": "occ",
				"energy": -0.26622,
				"method": "rhf"
			},
			{
				"type": "occ",
				"energy": -0.25775,
				"method": "rhf"
			},
			{
				"type": "unocc",
				"energy": -0.08331,
				"method": "rhf"
			},
			{
				"type": "unocc",
				"energy": -0.02837,
				"method": "rhf"
			},
			{
				"type": "unocc",
				"energy": -0.0217,
				"method": "rhf"
			},
			{
				"type": "unocc",
				"energy": -0.00407,
				"method": "rhf"
			},
			{
				"type": "unocc",
				"energy": 0.03654,
				"method": "rhf"
			}
		],
		"cosmo_sigma_profile": { 
			"-0.025": 0.0,
			"-0.024": 0.0,
			"-0.023": 0.0,
			"-0.022": 0.0,
			"-0.021": 0.0,
			"-0.02": 0.0,
			"-0.019": 0.0,
			"-0.018": 0.0,
			"-0.017": 0.0,
			"-0.016": 0.0,
			"-0.015": 0.0,
			"-0.014": 0.0,
			"-0.013": 0.0,
			"-0.012": 0.0,
			"-0.011": 0.0238005537043,
			"-0.01": 1.24955184962,
			"-0.009": 3.4642518543,
			"-0.008": 6.24082445332,
			"-0.007": 10.3461412125,
			"-0.006": 10.5986215235,
			"-0.005": 10.2339068539,
			"-0.004": 10.1074694157,
			"-0.003": 10.8202734174,
			"-0.002": 11.008511848,
			"-0.001": 12.3728815954,
			"0.0": 18.2024598227,
			"0.001": 26.0844023395,
			"0.002": 25.3090046052,
			"0.003": 17.0717761179,
			"0.004": 19.8016360686,
			"0.005": 9.29018847429,
			"0.006": 2.43277167261,
			"0.007": 1.18326019963,
			"0.008": 1.79824460348,
			"0.009": 1.8994645064,
			"0.01": 3.2566133579,
			"0.011": 3.25746414704,
			"0.012": 0.765971028267,
			"0.013": 0.0,
			"0.014": 0.0,
			"0.015": 0.0,
			"0.016": 0.0,
			"0.017": 0.0,
			"0.018": 0.0,
			"0.019": 0.0,
			"0.02": 0.0,
			"0.021": 0.0,
			"0.022": 0.0,
			"0.023": 0.0,
			"0.024": 0.0,
			"0.025": 0.0
		}
	}
}
