{
	 "smiles": "OC(C1=NC(=NO1)C1=CC=CC=C1)C1=CC=CC=C1", 
	 "Tm": 371.15, 
	 "num_atms": 31, 
	 "gaussian": { 
		 "optdone": 1, 
		 "sigma_profile": "yes", 
		 "theory": "DFT", 
		 "functional": "B3LYP", 
		 "basiset": "6-31G**", 
		 "properties": { 
			 "R2extent": 6671.2816, 
			 "electric_dipole_moment_norm": 1.75473109336, 
			 "electric_quadrupole_moment_norm": 10.2105853348, 
			 "total_energy": -838.736860317, 
			 "HOMO_LUMO_gap": 0.196, 
			 "cosmo_polarized_energy": -10.12, 
			 "cosmo_cavitation_energy": 35.97, 
			 "cosmo_dispersion_energy": -26.15, 
			 "cosmo_repulsion_energy": 1.99, 
			 "cosmo_total_nonelectrostatic_energy": 11.81, 
			 "SMD_solvation_energy": 4.56 
		},
		"coords": [
			{
				"x": 1.9321145962,
				"y": -2.5049575832,
				"z": -0.6993165383,
				"element": "O" 
			},
			{
				"x": 0.8606403297,
				"y": -2.5987870429,
				"z": 0.2135844337,
				"element": "C" 
			},
			{
				"x": -0.224646792,
				"y": -1.6383538922,
				"z": -0.2068625978,
				"element": "C" 
			},
			{
				"x": -0.0505885963,
				"y": -0.5667274002,
				"z": -0.9180600794,
				"element": "N" 
			},
			{
				"x": -1.3306682085,
				"y": -0.0430529841,
				"z": -0.9911088977,
				"element": "C" 
			},
			{
				"x": -2.23634856,
				"y": -0.7576051894,
				"z": -0.3596886288,
				"element": "N" 
			},
			{
				"x": -1.4935839597,
				"y": -1.8362302252,
				"z": 0.1658398349,
				"element": "O" 
			},
			{
				"x": -1.6512013058,
				"y": 1.1968619212,
				"z": -1.7100678646,
				"element": "C" 
			},
			{
				"x": -2.9694850615,
				"y": 1.6789291251,
				"z": -1.7509860258,
				"element": "C" 
			},
			{
				"x": -3.2585183544,
				"y": 2.8552879358,
				"z": -2.4364281472,
				"element": "C" 
			},
			{
				"x": -2.2402287977,
				"y": 3.5601409942,
				"z": -3.0854029085,
				"element": "C" 
			},
			{
				"x": -0.9288250639,
				"y": 3.0830600928,
				"z": -3.0460768958,
				"element": "C" 
			},
			{
				"x": -0.6320265759,
				"y": 1.90561001,
				"z": -2.3614010359,
				"element": "C" 
			},
			{
				"x": 1.2763658196,
				"y": -2.3444675677,
				"z": 1.671251785,
				"element": "C" 
			},
			{
				"x": 2.6022960142,
				"y": -2.0278314525,
				"z": 1.9738438941,
				"element": "C" 
			},
			{
				"x": 2.987794757,
				"y": -1.8127706333,
				"z": 3.2989778802,
				"element": "C" 
			},
			{
				"x": 2.0527365978,
				"y": -1.915280932,
				"z": 4.3290120395,
				"element": "C" 
			},
			{
				"x": 0.7270729451,
				"y": -2.2383086452,
				"z": 4.0292553478,
				"element": "C" 
			},
			{
				"x": 0.3394492551,
				"y": -2.452968457,
				"z": 2.7070294506,
				"element": "C" 
			},
			{
				"x": 1.95209012,
				"y": -1.5911728683,
				"z": -1.0243606991,
				"element": "H" 
			},
			{
				"x": 0.4583695241,
				"y": -3.6174553042,
				"z": 0.1385189458,
				"element": "H" 
			},
			{
				"x": -3.7545943271,
				"y": 1.1266557186,
				"z": -1.2453202217,
				"element": "H" 
			},
			{
				"x": -4.2795347873,
				"y": 3.2240630297,
				"z": -2.4653607237,
				"element": "H" 
			},
			{
				"x": -2.4696339979,
				"y": 4.4777540356,
				"z": -3.6193728863,
				"element": "H" 
			},
			{
				"x": -0.1353137437,
				"y": 3.6279096714,
				"z": -3.5488981335,
				"element": "H" 
			},
			{
				"x": 0.3830183011,
				"y": 1.5257836753,
				"z": -2.3240554001,
				"element": "H" 
			},
			{
				"x": 3.3256455955,
				"y": -1.9678566534,
				"z": 1.1685604967,
				"element": "H" 
			},
			{
				"x": 4.0219469473,
				"y": -1.5678317949,
				"z": 3.5243482128,
				"element": "H" 
			},
			{
				"x": 2.3537182322,
				"y": -1.748419794,
				"z": 5.3592309205,
				"element": "H" 
			},
			{
				"x": -0.006965132,
				"y": -2.3237907338,
				"z": 4.8253659718,
				"element": "H" 
			},
			{
				"x": -0.694495771,
				"y": -2.7003870561,
				"z": 2.4824484706,
				"element": "H" 
			}
		],
		 "valence_orbital": [ 
			{
				"type": "occ",
				"energy": -0.2896,
				"method": "rhf"
			},
			{
				"type": "occ",
				"energy": -0.26057,
				"method": "rhf"
			},
			{
				"type": "occ",
				"energy": -0.25335,
				"method": "rhf"
			},
			{
				"type": "occ",
				"energy": -0.25063,
				"method": "rhf"
			},
			{
				"type": "occ",
				"energy": -0.24755,
				"method": "rhf"
			},
			{
				"type": "unocc",
				"energy": -0.05155,
				"method": "rhf"
			},
			{
				"type": "unocc",
				"energy": -0.01896,
				"method": "rhf"
			},
			{
				"type": "unocc",
				"energy": -0.00897,
				"method": "rhf"
			},
			{
				"type": "unocc",
				"energy": -0.0059,
				"method": "rhf"
			},
			{
				"type": "unocc",
				"energy": 0.00496,
				"method": "rhf"
			}
		],
		"cosmo_sigma_profile": { 
			"-0.025": 0.0,
			"-0.024": 0.0,
			"-0.023": 0.0,
			"-0.022": 0.0,
			"-0.021": 0.0,
			"-0.02": 0.0,
			"-0.019": 0.0,
			"-0.018": 0.0,
			"-0.017": 0.0,
			"-0.016": 0.0,
			"-0.015": 0.0,
			"-0.014": 0.00424585758194,
			"-0.013": 0.443225141794,
			"-0.012": 0.269626487981,
			"-0.011": 1.07768501874,
			"-0.01": 0.487738327203,
			"-0.009": 0.721100090303,
			"-0.008": 3.65225835984,
			"-0.007": 5.42546109671,
			"-0.006": 15.2543705426,
			"-0.005": 23.4664020571,
			"-0.004": 25.232930289,
			"-0.003": 20.1557183351,
			"-0.002": 18.4229510268,
			"-0.001": 18.4498345401,
			"0.0": 21.6241992727,
			"0.001": 22.3111597216,
			"0.002": 22.6379729773,
			"0.003": 22.2568816668,
			"0.004": 25.5164160479,
			"0.005": 16.8512529152,
			"0.006": 9.01968558674,
			"0.007": 3.02549065025,
			"0.008": 2.80731791812,
			"0.009": 2.11422329535,
			"0.01": 2.32030542476,
			"0.011": 2.81265206492,
			"0.012": 2.17410368129,
			"0.013": 0.58460161314,
			"0.014": 0.0,
			"0.015": 0.0,
			"0.016": 0.0,
			"0.017": 0.0,
			"0.018": 0.0,
			"0.019": 0.0,
			"0.02": 0.0,
			"0.021": 0.0,
			"0.022": 0.0,
			"0.023": 0.0,
			"0.024": 0.0,
			"0.025": 0.0
		}
	}
}
