{
	 "smiles": "CC1=C(NC(=O)NC(C)(C)C)C=C(C=C1)C(O)=O", 
	 "Tm": 610.15, 
	 "num_atms": 36, 
	 "gaussian": { 
		 "optdone": 1, 
		 "sigma_profile": "yes", 
		 "theory": "DFT", 
		 "functional": "B3LYP", 
		 "basiset": "6-31G**", 
		 "properties": { 
			 "R2extent": 5617.6559, 
			 "electric_dipole_moment_norm": 4.11099813184, 
			 "electric_quadrupole_moment_norm": 31.0917416907, 
			 "total_energy": -841.464016635, 
			 "HOMO_LUMO_gap": 0.1802, 
			 "cosmo_polarized_energy": -22.23, 
			 "cosmo_cavitation_energy": 38.64, 
			 "cosmo_dispersion_energy": -26.23, 
			 "cosmo_repulsion_energy": 2.02, 
			 "cosmo_total_nonelectrostatic_energy": 14.43, 
			 "SMD_solvation_energy": 8.51 
		},
		"coords": [
			{
				"x": 2.0844245605,
				"y": 2.9032669104,
				"z": -0.2710797988,
				"element": "C" 
			},
			{
				"x": 0.7279902266,
				"y": 2.4483007524,
				"z": 0.204430557,
				"element": "C" 
			},
			{
				"x": 0.2170684737,
				"y": 1.1843108734,
				"z": -0.1742105886,
				"element": "C" 
			},
			{
				"x": 0.9841433501,
				"y": 0.3773284346,
				"z": -1.0364068444,
				"element": "N" 
			},
			{
				"x": 1.097403319,
				"y": -1.0142698533,
				"z": -1.1527146045,
				"element": "C" 
			},
			{
				"x": 1.6593042498,
				"y": -1.4871606668,
				"z": -2.1349560961,
				"element": "O" 
			},
			{
				"x": 0.5640673258,
				"y": -1.7488175972,
				"z": -0.121097849,
				"element": "N" 
			},
			{
				"x": 0.7562596659,
				"y": -3.2155615018,
				"z": 0.0202946938,
				"element": "C" 
			},
			{
				"x": 0.1027839796,
				"y": -3.9377543878,
				"z": -1.1705343984,
				"element": "C" 
			},
			{
				"x": 2.2534425767,
				"y": -3.5665342784,
				"z": 0.1155317073,
				"element": "C" 
			},
			{
				"x": 0.0399877392,
				"y": -3.6097983173,
				"z": 1.3218465238,
				"element": "C" 
			},
			{
				"x": -1.0527479827,
				"y": 0.7866372055,
				"z": 0.2688943292,
				"element": "C" 
			},
			{
				"x": -1.809721445,
				"y": 1.6098928686,
				"z": 1.1118234572,
				"element": "C" 
			},
			{
				"x": -1.3106562971,
				"y": 2.8635934172,
				"z": 1.4784286435,
				"element": "C" 
			},
			{
				"x": -0.0594915733,
				"y": 3.2661863576,
				"z": 1.0217248445,
				"element": "C" 
			},
			{
				"x": -3.1726987258,
				"y": 1.2298896996,
				"z": 1.6097995127,
				"element": "C" 
			},
			{
				"x": -3.5088955359,
				"y": -0.0868531161,
				"z": 1.5452057133,
				"element": "O" 
			},
			{
				"x": -3.9598723444,
				"y": 2.0297283134,
				"z": 2.0584539265,
				"element": "O" 
			},
			{
				"x": 2.382882663,
				"y": 3.827341434,
				"z": 0.2290690162,
				"element": "H" 
			},
			{
				"x": 2.0939884645,
				"y": 3.1029336744,
				"z": -1.3513400224,
				"element": "H" 
			},
			{
				"x": 2.8505196363,
				"y": 2.1439105815,
				"z": -0.0793200505,
				"element": "H" 
			},
			{
				"x": 1.5181313395,
				"y": 0.8372091186,
				"z": -1.7604509376,
				"element": "H" 
			},
			{
				"x": 0.4332487943,
				"y": -1.2473783369,
				"z": 0.7476321635,
				"element": "H" 
			},
			{
				"x": -0.9626945579,
				"y": -3.6929929531,
				"z": -1.2298368705,
				"element": "H" 
			},
			{
				"x": 0.1995531009,
				"y": -5.0211524187,
				"z": -1.0464439269,
				"element": "H" 
			},
			{
				"x": 0.5806283782,
				"y": -3.6454335772,
				"z": -2.1061273115,
				"element": "H" 
			},
			{
				"x": 2.7143050945,
				"y": -3.0695938165,
				"z": 0.9765066632,
				"element": "H" 
			},
			{
				"x": 2.7743032716,
				"y": -3.2522389138,
				"z": -0.7905889418,
				"element": "H" 
			},
			{
				"x": 2.3839269715,
				"y": -4.6467513308,
				"z": 0.2387354095,
				"element": "H" 
			},
			{
				"x": 0.4764749497,
				"y": -3.0999492797,
				"z": 2.1895268802,
				"element": "H" 
			},
			{
				"x": -1.0272831948,
				"y": -3.3666717698,
				"z": 1.2753090128,
				"element": "H" 
			},
			{
				"x": 0.1323559309,
				"y": -4.685889164,
				"z": 1.4914243269,
				"element": "H" 
			},
			{
				"x": -1.4512721106,
				"y": -0.14960413,
				"z": -0.1083931257,
				"element": "H" 
			},
			{
				"x": -1.9142654956,
				"y": 3.5010700114,
				"z": 2.1142282322,
				"element": "H" 
			},
			{
				"x": 0.3280624395,
				"y": 4.2387129627,
				"z": 1.313003907,
				"element": "H" 
			},
			{
				"x": -2.7396572379,
				"y": -0.618107206,
				"z": 1.2987318465,
				"element": "H" 
			}
		],
		 "valence_orbital": [ 
			{
				"type": "occ",
				"energy": -0.27682,
				"method": "rhf"
			},
			{
				"type": "occ",
				"energy": -0.27145,
				"method": "rhf"
			},
			{
				"type": "occ",
				"energy": -0.26845,
				"method": "rhf"
			},
			{
				"type": "occ",
				"energy": -0.25973,
				"method": "rhf"
			},
			{
				"type": "occ",
				"energy": -0.23489,
				"method": "rhf"
			},
			{
				"type": "unocc",
				"energy": -0.05469,
				"method": "rhf"
			},
			{
				"type": "unocc",
				"energy": -0.02759,
				"method": "rhf"
			},
			{
				"type": "unocc",
				"energy": 0.03505,
				"method": "rhf"
			},
			{
				"type": "unocc",
				"energy": 0.0393,
				"method": "rhf"
			},
			{
				"type": "unocc",
				"energy": 0.06122,
				"method": "rhf"
			}
		],
		"cosmo_sigma_profile": { 
			"-0.025": 0.0,
			"-0.024": 0.0,
			"-0.023": 0.0,
			"-0.022": 0.0,
			"-0.021": 0.0,
			"-0.02": 0.0,
			"-0.019": 0.0,
			"-0.018": 0.0,
			"-0.017": 0.0,
			"-0.016": 0.0637140802264,
			"-0.015": 0.789534044935,
			"-0.014": 2.07140134696,
			"-0.013": 2.03054971487,
			"-0.012": 2.94783439786,
			"-0.011": 3.34798219711,
			"-0.01": 3.83952429272,
			"-0.009": 3.54418193092,
			"-0.008": 4.32894607049,
			"-0.007": 5.29775986271,
			"-0.006": 9.79287596059,
			"-0.005": 11.9068803345,
			"-0.004": 17.853856371,
			"-0.003": 27.0486015075,
			"-0.002": 26.4480585582,
			"-0.001": 28.5565037608,
			"0.0": 32.036402524,
			"0.001": 30.1347696016,
			"0.002": 18.9166118493,
			"0.003": 16.1526344631,
			"0.004": 6.87396288185,
			"0.005": 3.84637202943,
			"0.006": 4.66754639094,
			"0.007": 4.10784604651,
			"0.008": 3.56018932628,
			"0.009": 5.58461645399,
			"0.01": 5.68657917278,
			"0.011": 6.82891697443,
			"0.012": 6.43923432798,
			"0.013": 4.27867037276,
			"0.014": 4.00753726221,
			"0.015": 0.732105952283,
			"0.016": 0.0,
			"0.017": 0.0,
			"0.018": 0.0,
			"0.019": 0.0,
			"0.02": 0.0,
			"0.021": 0.0,
			"0.022": 0.0,
			"0.023": 0.0,
			"0.024": 0.0,
			"0.025": 0.0
		}
	}
}
