{
	 "smiles": "CC(Cl)C(=O)NCC1CCCCC1", 
	 "Tm": 357.15, 
	 "num_atms": 31, 
	 "gaussian": { 
		 "optdone": 1, 
		 "sigma_profile": "yes", 
		 "theory": "DFT", 
		 "functional": "B3LYP", 
		 "basiset": "6-31G**", 
		 "properties": { 
			 "R2extent": 4317.0516, 
			 "electric_dipole_moment_norm": 1.52902566689, 
			 "electric_quadrupole_moment_norm": 8.13916618334, 
			 "total_energy": -982.119823453, 
			 "HOMO_LUMO_gap": 0.26497, 
			 "cosmo_polarized_energy": -8.7, 
			 "cosmo_cavitation_energy": 33.01, 
			 "cosmo_dispersion_energy": -23.57, 
			 "cosmo_repulsion_energy": 1.91, 
			 "cosmo_total_nonelectrostatic_energy": 11.34, 
			 "SMD_solvation_energy": 4.47 
		},
		"coords": [
			{
				"x": 1.1055961043,
				"y": -2.688298917,
				"z": -2.5206541657,
				"element": "C" 
			},
			{
				"x": 1.4795199312,
				"y": -1.5930104671,
				"z": -1.5272212904,
				"element": "C" 
			},
			{
				"x": 2.9214752587,
				"y": -0.640207236,
				"z": -2.1620072864,
				"element": "Cl" 
			},
			{
				"x": 0.2558253785,
				"y": -0.7300808077,
				"z": -1.1689419586,
				"element": "C" 
			},
			{
				"x": -0.6932312976,
				"y": -1.3098128609,
				"z": -0.6479963798,
				"element": "O" 
			},
			{
				"x": 0.2880920907,
				"y": 0.5900597425,
				"z": -1.4606224504,
				"element": "N" 
			},
			{
				"x": -0.817755395,
				"y": 1.4910380659,
				"z": -1.1579120764,
				"element": "C" 
			},
			{
				"x": -0.5252608101,
				"y": 2.4741479625,
				"z": -0.0089058695,
				"element": "C" 
			},
			{
				"x": -0.1124035277,
				"y": 1.7322189013,
				"z": 1.2877616732,
				"element": "C" 
			},
			{
				"x": -0.3836359023,
				"y": 2.590494441,
				"z": 2.5306903002,
				"element": "C" 
			},
			{
				"x": -1.8981871106,
				"y": 2.8542364674,
				"z": 2.7122110052,
				"element": "C" 
			},
			{
				"x": -2.6502665623,
				"y": 2.8631188106,
				"z": 1.360841014,
				"element": "C" 
			},
			{
				"x": -1.7551049464,
				"y": 3.3945581362,
				"z": 0.2326056625,
				"element": "C" 
			},
			{
				"x": 1.9431215281,
				"y": -3.371137171,
				"z": -2.6778912586,
				"element": "H" 
			},
			{
				"x": 0.2569310746,
				"y": -3.2420296423,
				"z": -2.1115699234,
				"element": "H" 
			},
			{
				"x": 0.8154557162,
				"y": -2.2587383482,
				"z": -3.4834092794,
				"element": "H" 
			},
			{
				"x": 1.8356208297,
				"y": -2.0292224368,
				"z": -0.5924509442,
				"element": "H" 
			},
			{
				"x": 1.1363033434,
				"y": 0.9666247517,
				"z": -1.8600983186,
				"element": "H" 
			},
			{
				"x": -1.6714069721,
				"y": 0.8556169844,
				"z": -0.9067287955,
				"element": "H" 
			},
			{
				"x": -1.0710478044,
				"y": 2.0501102181,
				"z": -2.0675530558,
				"element": "H" 
			},
			{
				"x": 0.3156778671,
				"y": 3.1104770595,
				"z": -0.3212044711,
				"element": "H" 
			},
			{
				"x": 0.9456672146,
				"y": 1.4545385487,
				"z": 1.235050296,
				"element": "H" 
			},
			{
				"x": -0.670003392,
				"y": 0.7898999061,
				"z": 1.3653378055,
				"element": "H" 
			},
			{
				"x": 0.0267781146,
				"y": 2.1093891848,
				"z": 3.425331124,
				"element": "H" 
			},
			{
				"x": 0.1519655347,
				"y": 3.5435643618,
				"z": 2.4266723054,
				"element": "H" 
			},
			{
				"x": -2.0423272374,
				"y": 3.8125156399,
				"z": 3.2255872609,
				"element": "H" 
			},
			{
				"x": -2.3356472477,
				"y": 2.0884999238,
				"z": 3.3634960294,
				"element": "H" 
			},
			{
				"x": -2.9758428669,
				"y": 1.8455032294,
				"z": 1.110474581,
				"element": "H" 
			},
			{
				"x": -3.5643822014,
				"y": 3.462230953,
				"z": 1.438406602,
				"element": "H" 
			},
			{
				"x": -1.4127766522,
				"y": 4.4031913218,
				"z": 0.4950954449,
				"element": "H" 
			},
			{
				"x": -2.3305500601,
				"y": 3.5046032766,
				"z": -0.6953935806,
				"element": "H" 
			}
		],
		 "valence_orbital": [ 
			{
				"type": "occ",
				"energy": -0.30319,
				"method": "rhf"
			},
			{
				"type": "occ",
				"energy": -0.29907,
				"method": "rhf"
			},
			{
				"type": "occ",
				"energy": -0.29575,
				"method": "rhf"
			},
			{
				"type": "occ",
				"energy": -0.25498,
				"method": "rhf"
			},
			{
				"type": "occ",
				"energy": -0.25338,
				"method": "rhf"
			},
			{
				"type": "unocc",
				"energy": 0.01159,
				"method": "rhf"
			},
			{
				"type": "unocc",
				"energy": 0.02213,
				"method": "rhf"
			},
			{
				"type": "unocc",
				"energy": 0.07628,
				"method": "rhf"
			},
			{
				"type": "unocc",
				"energy": 0.09297,
				"method": "rhf"
			},
			{
				"type": "unocc",
				"energy": 0.10344,
				"method": "rhf"
			}
		],
		"cosmo_sigma_profile": { 
			"-0.025": 0.0,
			"-0.024": 0.0,
			"-0.023": 0.0,
			"-0.022": 0.0,
			"-0.021": 0.0,
			"-0.02": 0.0,
			"-0.019": 0.0,
			"-0.018": 0.0,
			"-0.017": 0.0,
			"-0.016": 0.0,
			"-0.015": 0.0,
			"-0.014": 0.0,
			"-0.013": 0.0522627245936,
			"-0.012": 0.465510141149,
			"-0.011": 0.876545773371,
			"-0.01": 0.866348466869,
			"-0.009": 0.923392455109,
			"-0.008": 2.53907111704,
			"-0.007": 3.62612329479,
			"-0.006": 2.83183462121,
			"-0.005": 8.0569372778,
			"-0.004": 13.6505058929,
			"-0.003": 18.4672725068,
			"-0.002": 35.7499281369,
			"-0.001": 44.9543883223,
			"0.0": 37.2012770068,
			"0.001": 28.2964558117,
			"0.002": 15.339571106,
			"0.003": 6.62048856442,
			"0.004": 5.78157412666,
			"0.005": 8.06769930829,
			"0.006": 7.85152902167,
			"0.007": 1.14618204769,
			"0.008": 0.997498777696,
			"0.009": 1.81567449397,
			"0.01": 1.52288873586,
			"0.011": 1.17416932045,
			"0.012": 1.76139734745,
			"0.013": 3.48146696644,
			"0.014": 3.21898261669,
			"0.015": 0.0180111354846,
			"0.016": 0.0,
			"0.017": 0.0,
			"0.018": 0.0,
			"0.019": 0.0,
			"0.02": 0.0,
			"0.021": 0.0,
			"0.022": 0.0,
			"0.023": 0.0,
			"0.024": 0.0,
			"0.025": 0.0
		}
	}
}
