{
	 "smiles": "OCCNC(=O)C1=C(Cl)C=C(C=C1)[N+]([O-])=O", 
	 "Tm": 447.15, 
	 "num_atms": 25, 
	 "gaussian": { 
		 "optdone": 1, 
		 "sigma_profile": "yes", 
		 "theory": "DFT", 
		 "functional": "B3LYP", 
		 "basiset": "6-31G**", 
		 "properties": { 
			 "R2extent": 4541.4114, 
			 "electric_dipole_moment_norm": 5.27854868501, 
			 "electric_quadrupole_moment_norm": 16.2542910691, 
			 "total_energy": -1218.86562697, 
			 "HOMO_LUMO_gap": 0.15794, 
			 "cosmo_polarized_energy": -20.1, 
			 "cosmo_cavitation_energy": 31.84, 
			 "cosmo_dispersion_energy": -22.31, 
			 "cosmo_repulsion_energy": 1.77, 
			 "cosmo_total_nonelectrostatic_energy": 11.3, 
			 "SMD_solvation_energy": 7.64 
		},
		"coords": [
			{
				"x": -0.5351891184,
				"y": -2.4135320413,
				"z": 2.3115956672,
				"element": "O" 
			},
			{
				"x": -1.9223833096,
				"y": -2.1207697305,
				"z": 2.2966950801,
				"element": "C" 
			},
			{
				"x": -2.276385577,
				"y": -0.9534856789,
				"z": 1.3637838732,
				"element": "C" 
			},
			{
				"x": -1.6181759867,
				"y": 0.2917868019,
				"z": 1.726241814,
				"element": "N" 
			},
			{
				"x": -0.3715060355,
				"y": 0.7086636624,
				"z": 1.359233797,
				"element": "C" 
			},
			{
				"x": 0.223146008,
				"y": 1.6050839171,
				"z": 1.9414061724,
				"element": "O" 
			},
			{
				"x": 0.2893401901,
				"y": 0.0403037698,
				"z": 0.1691755533,
				"element": "C" 
			},
			{
				"x": -0.1152361975,
				"y": 0.2354122939,
				"z": -1.1596717262,
				"element": "C" 
			},
			{
				"x": -1.5392658236,
				"y": 1.1894023803,
				"z": -1.5339648176,
				"element": "Cl" 
			},
			{
				"x": 0.6017264368,
				"y": -0.3097082261,
				"z": -2.2236472039,
				"element": "C" 
			},
			{
				"x": 1.7380637601,
				"y": -1.0575421611,
				"z": -1.9366744002,
				"element": "C" 
			},
			{
				"x": 2.1833954907,
				"y": -1.2660371652,
				"z": -0.6326691194,
				"element": "C" 
			},
			{
				"x": 1.4556387253,
				"y": -0.7033262301,
				"z": 0.4093121318,
				"element": "C" 
			},
			{
				"x": 2.4930530992,
				"y": -1.6468224811,
				"z": -3.057162472,
				"element": "N" 
			},
			{
				"x": 3.489183181,
				"y": -2.3118872052,
				"z": -2.7794991525,
				"element": "O" 
			},
			{
				"x": 2.0773328194,
				"y": -1.439317966,
				"z": -4.1955902853,
				"element": "O" 
			},
			{
				"x": -0.2998378921,
				"y": -2.8122833758,
				"z": 1.4637822681,
				"element": "H" 
			},
			{
				"x": -2.1850050178,
				"y": -1.8615556668,
				"z": 3.328001968,
				"element": "H" 
			},
			{
				"x": -2.5258698758,
				"y": -2.997942099,
				"z": 2.0152755195,
				"element": "H" 
			},
			{
				"x": -3.3607776529,
				"y": -0.7930757827,
				"z": 1.3750716059,
				"element": "H" 
			},
			{
				"x": -2.0103989883,
				"y": -1.2050590874,
				"z": 0.3330038925,
				"element": "H" 
			},
			{
				"x": -1.9516801859,
				"y": 0.7707351715,
				"z": 2.5548018882,
				"element": "H" 
			},
			{
				"x": 0.2951862653,
				"y": -0.1596729684,
				"z": -3.250394654,
				"element": "H" 
			},
			{
				"x": 3.0795310441,
				"y": -1.847533346,
				"z": -0.4580032144,
				"element": "H" 
			},
			{
				"x": 1.7794146411,
				"y": -0.8359367853,
				"z": 1.4355958144,
				"element": "H" 
			}
		],
		 "valence_orbital": [ 
			{
				"type": "occ",
				"energy": -0.30255,
				"method": "rhf"
			},
			{
				"type": "occ",
				"energy": -0.29956,
				"method": "rhf"
			},
			{
				"type": "occ",
				"energy": -0.27908,
				"method": "rhf"
			},
			{
				"type": "occ",
				"energy": -0.26498,
				"method": "rhf"
			},
			{
				"type": "occ",
				"energy": -0.26073,
				"method": "rhf"
			},
			{
				"type": "unocc",
				"energy": -0.10279,
				"method": "rhf"
			},
			{
				"type": "unocc",
				"energy": -0.04485,
				"method": "rhf"
			},
			{
				"type": "unocc",
				"energy": -0.02233,
				"method": "rhf"
			},
			{
				"type": "unocc",
				"energy": 0.00587,
				"method": "rhf"
			},
			{
				"type": "unocc",
				"energy": 0.01469,
				"method": "rhf"
			}
		],
		"cosmo_sigma_profile": { 
			"-0.025": 0.0,
			"-0.024": 0.0,
			"-0.023": 0.0,
			"-0.022": 0.0,
			"-0.021": 0.0,
			"-0.02": 0.0,
			"-0.019": 0.0,
			"-0.018": 0.0,
			"-0.017": 0.0,
			"-0.016": 0.00524537359385,
			"-0.015": 0.739556498871,
			"-0.014": 1.82853332241,
			"-0.013": 2.41958548999,
			"-0.012": 1.95250110421,
			"-0.011": 2.33812290008,
			"-0.01": 2.11818628783,
			"-0.009": 3.58544670916,
			"-0.008": 7.35703800382,
			"-0.007": 9.49207719423,
			"-0.006": 13.5852804383,
			"-0.005": 17.7465086114,
			"-0.004": 16.2914237382,
			"-0.003": 17.414047339,
			"-0.002": 18.8568660985,
			"-0.001": 18.9583016541,
			"0.0": 12.1472675329,
			"0.001": 12.1915889962,
			"0.002": 11.6289565842,
			"0.003": 14.9218587767,
			"0.004": 9.32265741061,
			"0.005": 7.03879590847,
			"0.006": 7.88104556996,
			"0.007": 12.0991505311,
			"0.008": 6.81944628843,
			"0.009": 6.03760342629,
			"0.01": 4.28384044454,
			"0.011": 2.27432338026,
			"0.012": 4.60614197986,
			"0.013": 6.80429543149,
			"0.014": 2.3998123429,
			"0.015": 0.0327029734328,
			"0.016": 0.0,
			"0.017": 0.0,
			"0.018": 0.0,
			"0.019": 0.0,
			"0.02": 0.0,
			"0.021": 0.0,
			"0.022": 0.0,
			"0.023": 0.0,
			"0.024": 0.0,
			"0.025": 0.0
		}
	}
}
