{
	 "smiles": "CSC(C(O)=O)C1=CC=CC=C1", 
	 "Tm": 349.15, 
	 "num_atms": 22, 
	 "gaussian": { 
		 "optdone": 1, 
		 "sigma_profile": "yes", 
		 "theory": "DFT", 
		 "functional": "B3LYP", 
		 "basiset": "6-31G**", 
		 "properties": { 
			 "R2extent": 2379.6454, 
			 "electric_dipole_moment_norm": 2.75358278793, 
			 "electric_quadrupole_moment_norm": 11.7871855619, 
			 "total_energy": -897.630448105, 
			 "HOMO_LUMO_gap": 0.19923, 
			 "cosmo_polarized_energy": -10.92, 
			 "cosmo_cavitation_energy": 26.97, 
			 "cosmo_dispersion_energy": -19.71, 
			 "cosmo_repulsion_energy": 1.54, 
			 "cosmo_total_nonelectrostatic_energy": 8.8, 
			 "SMD_solvation_energy": 5.74 
		},
		"coords": [
			{
				"x": -1.5096403039,
				"y": -0.2185428461,
				"z": -2.3547087085,
				"element": "C" 
			},
			{
				"x": -0.6352898219,
				"y": 1.3470155728,
				"z": -2.0167635769,
				"element": "S" 
			},
			{
				"x": -0.0813066214,
				"y": 1.1566728768,
				"z": -0.2478063643,
				"element": "C" 
			},
			{
				"x": -1.2187060244,
				"y": 1.4449315987,
				"z": 0.7214793158,
				"element": "C" 
			},
			{
				"x": -2.2667480577,
				"y": 0.5873710242,
				"z": 0.6111814546,
				"element": "O" 
			},
			{
				"x": -1.2168400828,
				"y": 2.3574284899,
				"z": 1.5155061588,
				"element": "O" 
			},
			{
				"x": 0.715986777,
				"y": -0.1074530829,
				"z": 0.0209109266,
				"element": "C" 
			},
			{
				"x": 0.1438025112,
				"y": -1.2930153772,
				"z": 0.5038560986,
				"element": "C" 
			},
			{
				"x": 0.9356055165,
				"y": -2.4242724198,
				"z": 0.7191261699,
				"element": "C" 
			},
			{
				"x": 2.3038353681,
				"y": -2.3906340378,
				"z": 0.4543923428,
				"element": "C" 
			},
			{
				"x": 2.882224774,
				"y": -1.2140624937,
				"z": -0.0289384283,
				"element": "C" 
			},
			{
				"x": 2.0949519896,
				"y": -0.0852886158,
				"z": -0.2418126943,
				"element": "C" 
			},
			{
				"x": -1.7806133546,
				"y": -0.1793389013,
				"z": -3.4124667619,
				"element": "H" 
			},
			{
				"x": -0.8559854531,
				"y": -1.0766125939,
				"z": -2.185483501,
				"element": "H" 
			},
			{
				"x": -2.4123693745,
				"y": -0.3049756527,
				"z": -1.7489731767,
				"element": "H" 
			},
			{
				"x": 0.584956537,
				"y": 2.0142972083,
				"z": -0.1330442946,
				"element": "H" 
			},
			{
				"x": -2.9230001622,
				"y": 0.8875192397,
				"z": 1.2630708578,
				"element": "H" 
			},
			{
				"x": -0.9177165409,
				"y": -1.331599086,
				"z": 0.7189124094,
				"element": "H" 
			},
			{
				"x": 0.4762879614,
				"y": -3.3331393166,
				"z": 1.0974724837,
				"element": "H" 
			},
			{
				"x": 2.9164324614,
				"y": -3.271105267,
				"z": 0.6249497093,
				"element": "H" 
			},
			{
				"x": 3.9479390254,
				"y": -1.1740480019,
				"z": -0.2350484938,
				"element": "H" 
			},
			{
				"x": 2.5500928759,
				"y": 0.8259516822,
				"z": -0.6209119267,
				"element": "H" 
			}
		],
		 "valence_orbital": [ 
			{
				"type": "occ",
				"energy": -0.31586,
				"method": "rhf"
			},
			{
				"type": "occ",
				"energy": -0.28872,
				"method": "rhf"
			},
			{
				"type": "occ",
				"energy": -0.25714,
				"method": "rhf"
			},
			{
				"type": "occ",
				"energy": -0.24944,
				"method": "rhf"
			},
			{
				"type": "occ",
				"energy": -0.22643,
				"method": "rhf"
			},
			{
				"type": "unocc",
				"energy": -0.0272,
				"method": "rhf"
			},
			{
				"type": "unocc",
				"energy": -0.00838,
				"method": "rhf"
			},
			{
				"type": "unocc",
				"energy": 0.00637,
				"method": "rhf"
			},
			{
				"type": "unocc",
				"energy": 0.04785,
				"method": "rhf"
			},
			{
				"type": "unocc",
				"energy": 0.06573,
				"method": "rhf"
			}
		],
		"cosmo_sigma_profile": { 
			"-0.025": 0.0,
			"-0.024": 0.0,
			"-0.023": 0.0,
			"-0.022": 0.0,
			"-0.021": 0.0,
			"-0.02": 0.0,
			"-0.019": 0.0490256652366,
			"-0.018": 0.982843825576,
			"-0.017": 0.931151422576,
			"-0.016": 0.86958209558,
			"-0.015": 0.700067085412,
			"-0.014": 0.691744382533,
			"-0.013": 0.623849166946,
			"-0.012": 1.14184961999,
			"-0.011": 0.594506900499,
			"-0.01": 0.557877844442,
			"-0.009": 0.670844480654,
			"-0.008": 2.54417297253,
			"-0.007": 4.0707031439,
			"-0.006": 10.9595943487,
			"-0.005": 11.7065966648,
			"-0.004": 16.6016823338,
			"-0.003": 16.2882298129,
			"-0.002": 18.1467817772,
			"-0.001": 19.1556072404,
			"0.0": 13.3694982973,
			"0.001": 12.3737363028,
			"0.002": 13.4879107046,
			"0.003": 13.0756081303,
			"0.004": 13.4727003075,
			"0.005": 15.4558907009,
			"0.006": 5.79506535076,
			"0.007": 3.79536445241,
			"0.008": 3.72716435536,
			"0.009": 3.36386942067,
			"0.01": 3.7614933891,
			"0.011": 4.84745427965,
			"0.012": 2.26383694778,
			"0.013": 0.072275115121,
			"0.014": 0.0,
			"0.015": 0.0,
			"0.016": 0.0,
			"0.017": 0.0,
			"0.018": 0.0,
			"0.019": 0.0,
			"0.02": 0.0,
			"0.021": 0.0,
			"0.022": 0.0,
			"0.023": 0.0,
			"0.024": 0.0,
			"0.025": 0.0
		}
	}
}
