{
	 "smiles": "NC1=NC2=C(CNCC2)S1", 
	 "Tm": 450.15, 
	 "num_atms": 19, 
	 "gaussian": { 
		 "optdone": 1, 
		 "sigma_profile": "yes", 
		 "theory": "DFT", 
		 "functional": "B3LYP", 
		 "basiset": "6-31G**", 
		 "properties": { 
			 "R2extent": 3071.7748, 
			 "electric_dipole_moment_norm": 2.02416592699, 
			 "electric_quadrupole_moment_norm": 15.9332347049, 
			 "total_energy": -796.494088251, 
			 "HOMO_LUMO_gap": 0.20046, 
			 "cosmo_polarized_energy": -12.28, 
			 "cosmo_cavitation_energy": 23.01, 
			 "cosmo_dispersion_energy": -18.34, 
			 "cosmo_repulsion_energy": 1.46, 
			 "cosmo_total_nonelectrostatic_energy": 6.13, 
			 "SMD_solvation_energy": -0.9 
		},
		"coords": [
			{
				"x": 3.1692082623,
				"y": -3.0277726037,
				"z": -2.9433497937,
				"element": "N" 
			},
			{
				"x": 2.5461290079,
				"y": -2.3319794861,
				"z": -1.9274758739,
				"element": "C" 
			},
			{
				"x": 2.7628623583,
				"y": -2.5362264932,
				"z": -0.6628966598,
				"element": "N" 
			},
			{
				"x": 2.0497369278,
				"y": -1.6294816532,
				"z": 0.1050845074,
				"element": "C" 
			},
			{
				"x": 1.2826070494,
				"y": -0.7282231472,
				"z": -0.5666917592,
				"element": "C" 
			},
			{
				"x": 0.4176884216,
				"y": 0.3145178931,
				"z": 0.0820704022,
				"element": "C" 
			},
			{
				"x": 0.8234324305,
				"y": 0.4407739884,
				"z": 1.4860929088,
				"element": "N" 
			},
			{
				"x": 0.9151335635,
				"y": -0.8529044719,
				"z": 2.1701457953,
				"element": "C" 
			},
			{
				"x": 2.101955548,
				"y": -1.6484836466,
				"z": 1.606984142,
				"element": "C" 
			},
			{
				"x": 1.4415293853,
				"y": -0.9911381883,
				"z": -2.2961231419,
				"element": "S" 
			},
			{
				"x": 3.6215393991,
				"y": -3.8695981077,
				"z": -2.6095757378,
				"element": "H" 
			},
			{
				"x": 2.6322727246,
				"y": -3.1679921351,
				"z": -3.7878364255,
				"element": "H" 
			},
			{
				"x": 0.5460666354,
				"y": 1.2898531472,
				"z": -0.4046537322,
				"element": "H" 
			},
			{
				"x": -0.6489884646,
				"y": 0.0366646742,
				"z": -0.0387504393,
				"element": "H" 
			},
			{
				"x": 0.163886196,
				"y": 1.0433326103,
				"z": 1.9691239467,
				"element": "H" 
			},
			{
				"x": -0.0047363612,
				"y": -1.4592898894,
				"z": 2.0630083171,
				"element": "H" 
			},
			{
				"x": 1.0590222678,
				"y": -0.6662057384,
				"z": 3.2391665036,
				"element": "H" 
			},
			{
				"x": 2.0759949152,
				"y": -2.6829844895,
				"z": 1.968316582,
				"element": "H" 
			},
			{
				"x": 3.0464597332,
				"y": -1.2091622629,
				"z": 1.9528604582,
				"element": "H" 
			}
		],
		 "valence_orbital": [ 
			{
				"type": "occ",
				"energy": -0.30164,
				"method": "rhf"
			},
			{
				"type": "occ",
				"energy": -0.26412,
				"method": "rhf"
			},
			{
				"type": "occ",
				"energy": -0.2636,
				"method": "rhf"
			},
			{
				"type": "occ",
				"energy": -0.22133,
				"method": "rhf"
			},
			{
				"type": "occ",
				"energy": -0.19633,
				"method": "rhf"
			},
			{
				"type": "unocc",
				"energy": 0.00413,
				"method": "rhf"
			},
			{
				"type": "unocc",
				"energy": 0.01633,
				"method": "rhf"
			},
			{
				"type": "unocc",
				"energy": 0.06734,
				"method": "rhf"
			},
			{
				"type": "unocc",
				"energy": 0.07696,
				"method": "rhf"
			},
			{
				"type": "unocc",
				"energy": 0.08938,
				"method": "rhf"
			}
		],
		"cosmo_sigma_profile": { 
			"-0.025": 0.0,
			"-0.024": 0.0,
			"-0.023": 0.0,
			"-0.022": 0.0,
			"-0.021": 0.0,
			"-0.02": 0.0,
			"-0.019": 0.0,
			"-0.018": 0.0,
			"-0.017": 0.0,
			"-0.016": 0.0,
			"-0.015": 0.115050888843,
			"-0.014": 1.43636020258,
			"-0.013": 2.45056528476,
			"-0.012": 2.63732048206,
			"-0.011": 2.79857621294,
			"-0.01": 3.97231112167,
			"-0.009": 3.39088264074,
			"-0.008": 2.9814760736,
			"-0.007": 2.61249869729,
			"-0.006": 3.43357678627,
			"-0.005": 6.15089234079,
			"-0.004": 11.5988030995,
			"-0.003": 15.9293466953,
			"-0.002": 18.9295732243,
			"-0.001": 17.7844188272,
			"0.0": 10.8380999187,
			"0.001": 7.31017526869,
			"0.002": 9.75411112294,
			"0.003": 10.0156773437,
			"0.004": 11.9053328853,
			"0.005": 8.8599337583,
			"0.006": 5.32417843167,
			"0.007": 3.5192286922,
			"0.008": 3.18003231183,
			"0.009": 2.19616215489,
			"0.01": 2.51255834575,
			"0.011": 2.41915643478,
			"0.012": 2.57531453316,
			"0.013": 1.54935293207,
			"0.014": 1.40740222402,
			"0.015": 1.64732301793,
			"0.016": 0.820820149555,
			"0.017": 0.538872627071,
			"0.018": 0.301852046513,
			"0.019": 0.0,
			"0.02": 0.0,
			"0.021": 0.0,
			"0.022": 0.0,
			"0.023": 0.0,
			"0.024": 0.0,
			"0.025": 0.0
		}
	}
}
