{
	 "smiles": "FC1=C(Cl)C=C(C=C1)N1N=CC(Cl)=C(Cl)C1=O", 
	 "Tm": 475.15, 
	 "num_atms": 21, 
	 "gaussian": { 
		 "optdone": 1, 
		 "sigma_profile": "yes", 
		 "theory": "DFT", 
		 "functional": "B3LYP", 
		 "basiset": "6-31G**", 
		 "properties": { 
			 "R2extent": 7854.6132, 
			 "electric_dipole_moment_norm": 4.36882775353, 
			 "electric_quadrupole_moment_norm": 5.59697351253, 
			 "total_energy": -2048.56745642, 
			 "HOMO_LUMO_gap": 0.14566, 
			 "cosmo_polarized_energy": -8.72, 
			 "cosmo_cavitation_energy": 32.23, 
			 "cosmo_dispersion_energy": -24.21, 
			 "cosmo_repulsion_energy": 1.83, 
			 "cosmo_total_nonelectrostatic_energy": 9.84, 
			 "SMD_solvation_energy": 5.51 
		},
		"coords": [
			{
				"x": -0.6698956584,
				"y": 4.2611296684,
				"z": 0.0047741605,
				"element": "F" 
			},
			{
				"x": -0.3238836266,
				"y": 2.9805908612,
				"z": 0.1915119216,
				"element": "C" 
			},
			{
				"x": 0.6350999027,
				"y": 2.3844400307,
				"z": -0.6230447233,
				"element": "C" 
			},
			{
				"x": 1.3858617089,
				"y": 3.317200797,
				"z": -1.8921849395,
				"element": "Cl" 
			},
			{
				"x": 0.9987538917,
				"y": 1.0515056441,
				"z": -0.4324658229,
				"element": "C" 
			},
			{
				"x": 0.3911722688,
				"y": 0.3069884965,
				"z": 0.5898764375,
				"element": "C" 
			},
			{
				"x": -0.5757945493,
				"y": 0.9172892923,
				"z": 1.4069948188,
				"element": "C" 
			},
			{
				"x": -0.9274131111,
				"y": 2.2457996611,
				"z": 1.2049042441,
				"element": "C" 
			},
			{
				"x": 0.7224981562,
				"y": -1.0828897504,
				"z": 0.8425828286,
				"element": "N" 
			},
			{
				"x": 0.0284751572,
				"y": -1.6216929104,
				"z": 1.8665880962,
				"element": "N" 
			},
			{
				"x": 0.2222493684,
				"y": -2.8589816939,
				"z": 2.2057789051,
				"element": "C" 
			},
			{
				"x": 1.151855567,
				"y": -3.7171449867,
				"z": 1.5457792505,
				"element": "C" 
			},
			{
				"x": 1.3062544664,
				"y": -5.3494222031,
				"z": 2.1072771759,
				"element": "Cl" 
			},
			{
				"x": 1.8680345107,
				"y": -3.2016034335,
				"z": 0.5072916901,
				"element": "C" 
			},
			{
				"x": 3.0236314705,
				"y": -4.1097668414,
				"z": -0.3847504643,
				"element": "Cl" 
			},
			{
				"x": 1.6868852594,
				"y": -1.8024021617,
				"z": 0.08106203,
				"element": "C" 
			},
			{
				"x": 2.3146251053,
				"y": -1.314382571,
				"z": -0.8449787937,
				"element": "O" 
			},
			{
				"x": 1.7428528205,
				"y": 0.6091428432,
				"z": -1.0734400711,
				"element": "H" 
			},
			{
				"x": -1.0476940796,
				"y": 0.3507071544,
				"z": 2.1957374515,
				"element": "H" 
			},
			{
				"x": -1.672187176,
				"y": 2.7268447792,
				"z": 1.8293423565,
				"element": "H" 
			},
			{
				"x": -0.3689814526,
				"y": -3.2275526758,
				"z": 3.0373634477,
				"element": "H" 
			}
		],
		 "valence_orbital": [ 
			{
				"type": "occ",
				"energy": -0.31547,
				"method": "rhf"
			},
			{
				"type": "occ",
				"energy": -0.28239,
				"method": "rhf"
			},
			{
				"type": "occ",
				"energy": -0.27639,
				"method": "rhf"
			},
			{
				"type": "occ",
				"energy": -0.26459,
				"method": "rhf"
			},
			{
				"type": "occ",
				"energy": -0.2428,
				"method": "rhf"
			},
			{
				"type": "unocc",
				"energy": -0.09714,
				"method": "rhf"
			},
			{
				"type": "unocc",
				"energy": -0.03634,
				"method": "rhf"
			},
			{
				"type": "unocc",
				"energy": -0.02577,
				"method": "rhf"
			},
			{
				"type": "unocc",
				"energy": -0.01942,
				"method": "rhf"
			},
			{
				"type": "unocc",
				"energy": -0.0085,
				"method": "rhf"
			}
		],
		"cosmo_sigma_profile": { 
			"-0.025": 0.0,
			"-0.024": 0.0,
			"-0.023": 0.0,
			"-0.022": 0.0,
			"-0.021": 0.0,
			"-0.02": 0.0,
			"-0.019": 0.0,
			"-0.018": 0.0,
			"-0.017": 0.0,
			"-0.016": 0.0,
			"-0.015": 0.0,
			"-0.014": 0.0,
			"-0.013": 0.0,
			"-0.012": 0.0,
			"-0.011": 0.134590454989,
			"-0.01": 1.77519123471,
			"-0.009": 1.9698195272,
			"-0.008": 4.47524606651,
			"-0.007": 6.34850225653,
			"-0.006": 7.27568614057,
			"-0.005": 9.43806747941,
			"-0.004": 16.7342361923,
			"-0.003": 19.568498018,
			"-0.002": 18.6032757184,
			"-0.001": 23.8898252944,
			"0.0": 30.4315363671,
			"0.001": 33.8841345118,
			"0.002": 29.9146557159,
			"0.003": 26.7665432035,
			"0.004": 19.1290399114,
			"0.005": 5.05143487925,
			"0.006": 1.5151191581,
			"0.007": 1.33057158869,
			"0.008": 2.29145384814,
			"0.009": 1.53940334987,
			"0.01": 2.58496172955,
			"0.011": 2.3119435098,
			"0.012": 1.48678967144,
			"0.013": 0.0147002245304,
			"0.014": 0.0,
			"0.015": 0.0,
			"0.016": 0.0,
			"0.017": 0.0,
			"0.018": 0.0,
			"0.019": 0.0,
			"0.02": 0.0,
			"0.021": 0.0,
			"0.022": 0.0,
			"0.023": 0.0,
			"0.024": 0.0,
			"0.025": 0.0
		}
	}
}
