{
	 "smiles": "CC(=O)NC(CCC(N)=O)C(O)=O", 
	 "Tm": 470.15, 
	 "num_atms": 25, 
	 "gaussian": { 
		 "optdone": 1, 
		 "sigma_profile": "yes", 
		 "theory": "DFT", 
		 "functional": "B3LYP", 
		 "basiset": "6-31G**", 
		 "properties": { 
			 "R2extent": 2767.4653, 
			 "electric_dipole_moment_norm": 2.73631879356, 
			 "electric_quadrupole_moment_norm": 21.7414693107, 
			 "total_energy": -684.426737809, 
			 "HOMO_LUMO_gap": 0.2392, 
			 "cosmo_polarized_energy": -24.15, 
			 "cosmo_cavitation_energy": 28.99, 
			 "cosmo_dispersion_energy": -20.03, 
			 "cosmo_repulsion_energy": 1.63, 
			 "cosmo_total_nonelectrostatic_energy": 10.59, 
			 "SMD_solvation_energy": 7.25 
		},
		"coords": [
			{
				"x": 3.2426600118,
				"y": 0.3171867508,
				"z": 0.0255215666,
				"element": "C" 
			},
			{
				"x": 2.4141518077,
				"y": -0.7369439978,
				"z": -0.6946608755,
				"element": "C" 
			},
			{
				"x": 2.9170109516,
				"y": -1.5410325819,
				"z": -1.4673375461,
				"element": "O" 
			},
			{
				"x": 1.0643499093,
				"y": -0.7601774144,
				"z": -0.4343147649,
				"element": "N" 
			},
			{
				"x": 0.309782506,
				"y": 0.0491692553,
				"z": 0.5053445055,
				"element": "C" 
			},
			{
				"x": -0.2567230731,
				"y": 1.3596549236,
				"z": -0.1155293521,
				"element": "C" 
			},
			{
				"x": -1.128541043,
				"y": 1.1575958272,
				"z": -1.358436901,
				"element": "C" 
			},
			{
				"x": -2.5681021566,
				"y": 0.7516545187,
				"z": -1.0295405713,
				"element": "C" 
			},
			{
				"x": -3.27027767,
				"y": 0.2209833364,
				"z": -2.0731727653,
				"element": "N" 
			},
			{
				"x": -3.0751739577,
				"y": 0.9475581065,
				"z": 0.0680100002,
				"element": "O" 
			},
			{
				"x": -0.8269216545,
				"y": -0.8116013268,
				"z": 1.048568315,
				"element": "C" 
			},
			{
				"x": -1.2697858531,
				"y": -0.3600047934,
				"z": 2.2314153632,
				"element": "O" 
			},
			{
				"x": -1.2875458801,
				"y": -1.7729724181,
				"z": 0.4695162327,
				"element": "O" 
			},
			{
				"x": 2.8402672891,
				"y": 1.3265594511,
				"z": -0.1037895732,
				"element": "H" 
			},
			{
				"x": 3.2851161768,
				"y": 0.1111384245,
				"z": 1.1012559433,
				"element": "H" 
			},
			{
				"x": 4.2540313035,
				"y": 0.2774364304,
				"z": -0.3777772786,
				"element": "H" 
			},
			{
				"x": 0.566186664,
				"y": -1.5467785865,
				"z": -0.835469362,
				"element": "H" 
			},
			{
				"x": 0.9391313304,
				"y": 0.3322306402,
				"z": 1.3545921063,
				"element": "H" 
			},
			{
				"x": 0.6006584317,
				"y": 1.9862798409,
				"z": -0.3806430173,
				"element": "H" 
			},
			{
				"x": -0.8352165313,
				"y": 1.8876957296,
				"z": 0.6477309966,
				"element": "H" 
			},
			{
				"x": -0.6669685934,
				"y": 0.4341580009,
				"z": -2.0406189472,
				"element": "H" 
			},
			{
				"x": -1.1880777162,
				"y": 2.1031144703,
				"z": -1.9124297238,
				"element": "H" 
			},
			{
				"x": -4.1977249077,
				"y": -0.1257873361,
				"z": -1.8771220654,
				"element": "H" 
			},
			{
				"x": -2.8082594315,
				"y": -0.1069810137,
				"z": -2.9063808391,
				"element": "H" 
			},
			{
				"x": -2.0812279135,
				"y": -0.8536362375,
				"z": 2.4384685535,
				"element": "H" 
			}
		],
		 "valence_orbital": [ 
			{
				"type": "occ",
				"energy": -0.28985,
				"method": "rhf"
			},
			{
				"type": "occ",
				"energy": -0.27637,
				"method": "rhf"
			},
			{
				"type": "occ",
				"energy": -0.25937,
				"method": "rhf"
			},
			{
				"type": "occ",
				"energy": -0.24875,
				"method": "rhf"
			},
			{
				"type": "occ",
				"energy": -0.24344,
				"method": "rhf"
			},
			{
				"type": "unocc",
				"energy": -0.00424,
				"method": "rhf"
			},
			{
				"type": "unocc",
				"energy": 0.01943,
				"method": "rhf"
			},
			{
				"type": "unocc",
				"energy": 0.02984,
				"method": "rhf"
			},
			{
				"type": "unocc",
				"energy": 0.06637,
				"method": "rhf"
			},
			{
				"type": "unocc",
				"energy": 0.07456,
				"method": "rhf"
			}
		],
		"cosmo_sigma_profile": { 
			"-0.025": 0.0,
			"-0.024": 0.0,
			"-0.023": 0.0,
			"-0.022": 0.0,
			"-0.021": 0.0,
			"-0.02": 0.0,
			"-0.019": 0.182857789507,
			"-0.018": 1.39093004644,
			"-0.017": 0.321374565843,
			"-0.016": 0.672355343957,
			"-0.015": 0.786408257371,
			"-0.014": 2.47802844917,
			"-0.013": 2.7867284066,
			"-0.012": 3.50269490588,
			"-0.011": 3.24140216447,
			"-0.01": 3.60264715355,
			"-0.009": 3.10656187033,
			"-0.008": 5.00195785003,
			"-0.007": 9.65601857925,
			"-0.006": 13.7648811872,
			"-0.005": 13.8657269635,
			"-0.004": 15.6559941612,
			"-0.003": 16.6167314966,
			"-0.002": 16.3545005738,
			"-0.001": 15.193743235,
			"0.0": 10.2640347371,
			"0.001": 6.69321313985,
			"0.002": 5.8438539881,
			"0.003": 5.94840607362,
			"0.004": 4.7349474356,
			"0.005": 6.29374909603,
			"0.006": 6.09215557831,
			"0.007": 6.68444433625,
			"0.008": 6.6535614744,
			"0.009": 5.8086881386,
			"0.01": 5.50335157362,
			"0.011": 5.65519252875,
			"0.012": 4.47329523367,
			"0.013": 6.44245343374,
			"0.014": 8.75650898606,
			"0.015": 2.28789588846,
			"0.016": 0.0614095131224,
			"0.017": 0.0,
			"0.018": 0.0,
			"0.019": 0.0,
			"0.02": 0.0,
			"0.021": 0.0,
			"0.022": 0.0,
			"0.023": 0.0,
			"0.024": 0.0,
			"0.025": 0.0
		}
	}
}
