{
	 "smiles": "CC(C)C1=NC(C=O)=C2C=CC=CN12", 
	 "Tm": 369.15, 
	 "num_atms": 26, 
	 "gaussian": { 
		 "optdone": 1, 
		 "sigma_profile": "yes", 
		 "theory": "DFT", 
		 "functional": "B3LYP", 
		 "basiset": "6-31G**", 
		 "properties": { 
			 "R2extent": 3560.3893, 
			 "electric_dipole_moment_norm": 7.21284093128, 
			 "electric_quadrupole_moment_norm": 24.9153602051, 
			 "total_energy": -611.123414526, 
			 "HOMO_LUMO_gap": 0.15045, 
			 "cosmo_polarized_energy": -19.36, 
			 "cosmo_cavitation_energy": 29.68, 
			 "cosmo_dispersion_energy": -21.06, 
			 "cosmo_repulsion_energy": 1.65, 
			 "cosmo_total_nonelectrostatic_energy": 10.27, 
			 "SMD_solvation_energy": 5.02 
		},
		"coords": [
			{
				"x": -0.4442948284,
				"y": 1.9433527502,
				"z": -0.4926667578,
				"element": "C" 
			},
			{
				"x": 0.5688787172,
				"y": 1.7207784462,
				"z": 0.6524053281,
				"element": "C" 
			},
			{
				"x": 0.2380676171,
				"y": 2.6034907247,
				"z": 1.8643395698,
				"element": "C" 
			},
			{
				"x": 0.6227271583,
				"y": 0.2708422483,
				"z": 1.053319961,
				"element": "C" 
			},
			{
				"x": 0.019927705,
				"y": -0.2736298464,
				"z": 2.0839911484,
				"element": "N" 
			},
			{
				"x": 0.2919890875,
				"y": -1.6195940225,
				"z": 2.0657939101,
				"element": "C" 
			},
			{
				"x": -0.2034147043,
				"y": -2.5644624988,
				"z": 3.0575402725,
				"element": "C" 
			},
			{
				"x": -0.9102930476,
				"y": -2.2924738018,
				"z": 4.0123020603,
				"element": "O" 
			},
			{
				"x": 1.1073487564,
				"y": -1.9249439989,
				"z": 0.9650714291,
				"element": "C" 
			},
			{
				"x": 1.7157857104,
				"y": -3.0799944913,
				"z": 0.4155392194,
				"element": "C" 
			},
			{
				"x": 2.4798851579,
				"y": -2.972238064,
				"z": -0.7186105855,
				"element": "C" 
			},
			{
				"x": 2.6642594838,
				"y": -1.7011805662,
				"z": -1.3435402562,
				"element": "C" 
			},
			{
				"x": 2.0804385039,
				"y": -0.5863280571,
				"z": -0.8200217108,
				"element": "C" 
			},
			{
				"x": 1.311381236,
				"y": -0.6945502558,
				"z": 0.319157388,
				"element": "N" 
			},
			{
				"x": -0.4369282007,
				"y": 2.9910163518,
				"z": -0.8104535024,
				"element": "H" 
			},
			{
				"x": -1.455405575,
				"y": 1.6948740676,
				"z": -0.1556194946,
				"element": "H" 
			},
			{
				"x": -0.221820485,
				"y": 1.3241480957,
				"z": -1.3681296152,
				"element": "H" 
			},
			{
				"x": 1.5654974643,
				"y": 2.007153599,
				"z": 0.2842225398,
				"element": "H" 
			},
			{
				"x": -0.7290346633,
				"y": 2.3242511103,
				"z": 2.2892423199,
				"element": "H" 
			},
			{
				"x": 0.9877316486,
				"y": 2.4920661057,
				"z": 2.6521802551,
				"element": "H" 
			},
			{
				"x": 0.2015004425,
				"y": 3.6552608564,
				"z": 1.5638756615,
				"element": "H" 
			},
			{
				"x": 0.1244110134,
				"y": -3.6150756794,
				"z": 2.8764244629,
				"element": "H" 
			},
			{
				"x": 1.5654684823,
				"y": -4.0355717873,
				"z": 0.9051054467,
				"element": "H" 
			},
			{
				"x": 2.9488767768,
				"y": -3.8514310125,
				"z": -1.1473418261,
				"element": "H" 
			},
			{
				"x": 3.2679030785,
				"y": -1.6093807538,
				"z": -2.2390574881,
				"element": "H" 
			},
			{
				"x": 2.1799134644,
				"y": 0.4036204797,
				"z": -1.2450697361,
				"element": "H" 
			}
		],
		 "valence_orbital": [ 
			{
				"type": "occ",
				"energy": -0.31736,
				"method": "rhf"
			},
			{
				"type": "occ",
				"energy": -0.27719,
				"method": "rhf"
			},
			{
				"type": "occ",
				"energy": -0.27626,
				"method": "rhf"
			},
			{
				"type": "occ",
				"energy": -0.23207,
				"method": "rhf"
			},
			{
				"type": "occ",
				"energy": -0.20883,
				"method": "rhf"
			},
			{
				"type": "unocc",
				"energy": -0.05838,
				"method": "rhf"
			},
			{
				"type": "unocc",
				"energy": -0.02764,
				"method": "rhf"
			},
			{
				"type": "unocc",
				"energy": 0.00541,
				"method": "rhf"
			},
			{
				"type": "unocc",
				"energy": 0.06772,
				"method": "rhf"
			},
			{
				"type": "unocc",
				"energy": 0.08506,
				"method": "rhf"
			}
		],
		"cosmo_sigma_profile": { 
			"-0.025": 0.0,
			"-0.024": 0.0,
			"-0.023": 0.0,
			"-0.022": 0.0,
			"-0.021": 0.0,
			"-0.02": 0.0,
			"-0.019": 0.0,
			"-0.018": 0.0,
			"-0.017": 0.0,
			"-0.016": 0.0,
			"-0.015": 0.0,
			"-0.014": 0.0,
			"-0.013": 0.0,
			"-0.012": 0.0,
			"-0.011": 0.0,
			"-0.01": 0.422151171307,
			"-0.009": 2.55342441779,
			"-0.008": 7.32410377649,
			"-0.007": 11.6650775349,
			"-0.006": 12.1195367539,
			"-0.005": 11.2386674883,
			"-0.004": 13.4187816711,
			"-0.003": 20.9331007176,
			"-0.002": 24.9026827089,
			"-0.001": 23.1253305426,
			"0.0": 24.4115408356,
			"0.001": 23.2946809271,
			"0.002": 14.2018343103,
			"0.003": 6.57619950461,
			"0.004": 2.52021141818,
			"0.005": 3.14275945552,
			"0.006": 2.36658329907,
			"0.007": 2.48540779168,
			"0.008": 2.11631523905,
			"0.009": 2.99054675218,
			"0.01": 2.1495349054,
			"0.011": 3.38502369557,
			"0.012": 4.31433053353,
			"0.013": 5.92227653686,
			"0.014": 3.92549721075,
			"0.015": 2.03287046256,
			"0.016": 1.63186713465,
			"0.017": 0.778866254365,
			"0.018": 0.0,
			"0.019": 0.0,
			"0.02": 0.0,
			"0.021": 0.0,
			"0.022": 0.0,
			"0.023": 0.0,
			"0.024": 0.0,
			"0.025": 0.0
		}
	}
}
