{
	 "smiles": "CCC", 
	 "Tm": 85.15, 
	 "num_atms": 11, 
	 "gaussian": { 
		 "optdone": 1, 
		 "sigma_profile": "yes", 
		 "theory": "DFT", 
		 "functional": "B3LYP", 
		 "basiset": "6-31G**", 
		 "properties": { 
			 "R2extent": 283.2238, 
			 "electric_dipole_moment_norm": 0.0499874984371, 
			 "electric_quadrupole_moment_norm": 0.300177247639, 
			 "total_energy": -119.153102681, 
			 "HOMO_LUMO_gap": 0.41992, 
			 "cosmo_polarized_energy": -0.36, 
			 "cosmo_cavitation_energy": 12.94, 
			 "cosmo_dispersion_energy": -9.82, 
			 "cosmo_repulsion_energy": 0.94, 
			 "cosmo_total_nonelectrostatic_energy": 4.06, 
			 "SMD_solvation_energy": 2.6 
		},
		"coords": [
			{
				"x": 0.9978725677,
				"y": -1.4762790866,
				"z": 0.8617207226,
				"element": "C" 
			},
			{
				"x": 1.0565167125,
				"y": -0.4023386549,
				"z": -0.2300864228,
				"element": "C" 
			},
			{
				"x": -0.2099963173,
				"y": 0.4585185657,
				"z": -0.2900793142,
				"element": "C" 
			},
			{
				"x": 0.155457867,
				"y": -2.1587801962,
				"z": 0.7000259182,
				"element": "H" 
			},
			{
				"x": 0.8710230763,
				"y": -1.0257789753,
				"z": 1.8529710862,
				"element": "H" 
			},
			{
				"x": 1.9130776804,
				"y": -2.0773304966,
				"z": 0.8843726756,
				"element": "H" 
			},
			{
				"x": 1.9281684793,
				"y": 0.2428748367,
				"z": -0.0603297384,
				"element": "H" 
			},
			{
				"x": 1.2181129384,
				"y": -0.881471263,
				"z": -1.2043629517,
				"element": "H" 
			},
			{
				"x": -1.0956347315,
				"y": -0.154766856,
				"z": -0.4929099806,
				"element": "H" 
			},
			{
				"x": -0.1437426856,
				"y": 1.2172846907,
				"z": -1.0770171867,
				"element": "H" 
			},
			{
				"x": -0.3800555871,
				"y": 0.9783674356,
				"z": 0.6598951919,
				"element": "H" 
			}
		],
		 "valence_orbital": [ 
			{
				"type": "occ",
				"energy": -0.39293,
				"method": "rhf"
			},
			{
				"type": "occ",
				"energy": -0.37594,
				"method": "rhf"
			},
			{
				"type": "occ",
				"energy": -0.33307,
				"method": "rhf"
			},
			{
				"type": "occ",
				"energy": -0.33209,
				"method": "rhf"
			},
			{
				"type": "occ",
				"energy": -0.32361,
				"method": "rhf"
			},
			{
				"type": "unocc",
				"energy": 0.09631,
				"method": "rhf"
			},
			{
				"type": "unocc",
				"energy": 0.14847,
				"method": "rhf"
			},
			{
				"type": "unocc",
				"energy": 0.15018,
				"method": "rhf"
			},
			{
				"type": "unocc",
				"energy": 0.15051,
				"method": "rhf"
			},
			{
				"type": "unocc",
				"energy": 0.1707,
				"method": "rhf"
			}
		],
		"cosmo_sigma_profile": { 
			"-0.025": 0.0,
			"-0.024": 0.0,
			"-0.023": 0.0,
			"-0.022": 0.0,
			"-0.021": 0.0,
			"-0.02": 0.0,
			"-0.019": 0.0,
			"-0.018": 0.0,
			"-0.017": 0.0,
			"-0.016": 0.0,
			"-0.015": 0.0,
			"-0.014": 0.0,
			"-0.013": 0.0,
			"-0.012": 0.0,
			"-0.011": 0.0,
			"-0.01": 0.0,
			"-0.009": 0.0,
			"-0.008": 0.0,
			"-0.007": 0.0,
			"-0.006": 0.0,
			"-0.005": 0.0,
			"-0.004": 0.0,
			"-0.003": 3.0233355284,
			"-0.002": 15.1532396972,
			"-0.001": 17.1011206897,
			"0.0": 23.419298354,
			"0.001": 25.7056465308,
			"0.002": 14.6914288889,
			"0.003": 0.597407576036,
			"0.004": 0.0,
			"0.005": 0.0,
			"0.006": 0.0,
			"0.007": 0.0,
			"0.008": 0.0,
			"0.009": 0.0,
			"0.01": 0.0,
			"0.011": 0.0,
			"0.012": 0.0,
			"0.013": 0.0,
			"0.014": 0.0,
			"0.015": 0.0,
			"0.016": 0.0,
			"0.017": 0.0,
			"0.018": 0.0,
			"0.019": 0.0,
			"0.02": 0.0,
			"0.021": 0.0,
			"0.022": 0.0,
			"0.023": 0.0,
			"0.024": 0.0,
			"0.025": 0.0
		}
	}
}
