{
	 "smiles": "CC1=C(C=CC=C1)N1C(S)=NN=C1C1=CN=CC=C1", 
	 "Tm": 368.15, 
	 "num_atms": 31, 
	 "gaussian": { 
		 "optdone": 1, 
		 "sigma_profile": "yes", 
		 "theory": "DFT", 
		 "functional": "B3LYP", 
		 "basiset": "6-31G**", 
		 "properties": { 
			 "R2extent": 5419.8185, 
			 "electric_dipole_moment_norm": 3.48842815893, 
			 "electric_quadrupole_moment_norm": 16.6120271087, 
			 "total_energy": -1157.8902301, 
			 "HOMO_LUMO_gap": 0.17865, 
			 "cosmo_polarized_energy": -15.67, 
			 "cosmo_cavitation_energy": 36.76, 
			 "cosmo_dispersion_energy": -25.47, 
			 "cosmo_repulsion_energy": 1.91, 
			 "cosmo_total_nonelectrostatic_energy": 13.2, 
			 "SMD_solvation_energy": 2.63 
		},
		"coords": [
			{
				"x": -1.528906513,
				"y": 1.5895919326,
				"z": 1.5871275743,
				"element": "C" 
			},
			{
				"x": -2.0748737572,
				"y": 0.6458150396,
				"z": 0.544843702,
				"element": "C" 
			},
			{
				"x": -1.5126109989,
				"y": 0.5600085436,
				"z": -0.7420637535,
				"element": "C" 
			},
			{
				"x": -2.0280272939,
				"y": -0.3026401373,
				"z": -1.7135823372,
				"element": "C" 
			},
			{
				"x": -3.1188842027,
				"y": -1.1158906339,
				"z": -1.4112673436,
				"element": "C" 
			},
			{
				"x": -3.6840289252,
				"y": -1.0586469646,
				"z": -0.1370940703,
				"element": "C" 
			},
			{
				"x": -3.1659271395,
				"y": -0.1874159871,
				"z": 0.8216567556,
				"element": "C" 
			},
			{
				"x": -0.3972806466,
				"y": 1.3970217381,
				"z": -1.0919670263,
				"element": "N" 
			},
			{
				"x": -0.4725918306,
				"y": 2.5765313949,
				"z": -1.7971385578,
				"element": "C" 
			},
			{
				"x": -1.9900684149,
				"y": 3.1862604887,
				"z": -2.4636164579,
				"element": "S" 
			},
			{
				"x": 0.7018923877,
				"y": 3.1561035412,
				"z": -1.8853817242,
				"element": "N" 
			},
			{
				"x": 1.5945747552,
				"y": 2.3492468104,
				"z": -1.2217996663,
				"element": "N" 
			},
			{
				"x": 0.9475751033,
				"y": 1.3045348083,
				"z": -0.746974719,
				"element": "C" 
			},
			{
				"x": 1.5988521002,
				"y": 0.2422309782,
				"z": 0.0287733424,
				"element": "C" 
			},
			{
				"x": 1.1017147637,
				"y": -1.0660024108,
				"z": 0.1563354326,
				"element": "C" 
			},
			{
				"x": 1.7144755433,
				"y": -2.0313773345,
				"z": 0.8505113793,
				"element": "N" 
			},
			{
				"x": 2.8736426137,
				"y": -1.7297009623,
				"z": 1.4455967106,
				"element": "C" 
			},
			{
				"x": 3.4705683685,
				"y": -0.4686309209,
				"z": 1.3687653659,
				"element": "C" 
			},
			{
				"x": 2.8245241495,
				"y": 0.5313608474,
				"z": 0.6539421383,
				"element": "C" 
			},
			{
				"x": -1.4408965071,
				"y": 2.6092666173,
				"z": 1.1986935499,
				"element": "H" 
			},
			{
				"x": -0.5311015375,
				"y": 1.2838029805,
				"z": 1.9205253061,
				"element": "H" 
			},
			{
				"x": -2.1813381275,
				"y": 1.6141705864,
				"z": 2.4630559169,
				"element": "H" 
			},
			{
				"x": -1.5648038196,
				"y": -0.3304883343,
				"z": -2.6948042621,
				"element": "H" 
			},
			{
				"x": -3.5191432803,
				"y": -1.7878050123,
				"z": -2.1637169834,
				"element": "H" 
			},
			{
				"x": -4.5319432054,
				"y": -1.6898296498,
				"z": 0.11151182,
				"element": "H" 
			},
			{
				"x": -3.6179141907,
				"y": -0.1446666457,
				"z": 1.8086896076,
				"element": "H" 
			},
			{
				"x": -1.3974698325,
				"y": 4.3009629521,
				"z": -2.9332501933,
				"element": "H" 
			},
			{
				"x": 0.1757352904,
				"y": -1.3551301604,
				"z": -0.3311488887,
				"element": "H" 
			},
			{
				"x": 3.3490791348,
				"y": -2.5327860606,
				"z": 2.0059880824,
				"element": "H" 
			},
			{
				"x": 4.4175653587,
				"y": -0.2774485802,
				"z": 1.8636363472,
				"element": "H" 
			},
			{
				"x": 3.2421106541,
				"y": 1.5279505355,
				"z": 0.5602529525,
				"element": "H" 
			}
		],
		 "valence_orbital": [ 
			{
				"type": "occ",
				"energy": -0.27088,
				"method": "rhf"
			},
			{
				"type": "occ",
				"energy": -0.26639,
				"method": "rhf"
			},
			{
				"type": "occ",
				"energy": -0.26047,
				"method": "rhf"
			},
			{
				"type": "occ",
				"energy": -0.24938,
				"method": "rhf"
			},
			{
				"type": "occ",
				"energy": -0.22315,
				"method": "rhf"
			},
			{
				"type": "unocc",
				"energy": -0.0445,
				"method": "rhf"
			},
			{
				"type": "unocc",
				"energy": -0.03117,
				"method": "rhf"
			},
			{
				"type": "unocc",
				"energy": -0.02752,
				"method": "rhf"
			},
			{
				"type": "unocc",
				"energy": -0.01923,
				"method": "rhf"
			},
			{
				"type": "unocc",
				"energy": 0.01043,
				"method": "rhf"
			}
		],
		"cosmo_sigma_profile": { 
			"-0.025": 0.0,
			"-0.024": 0.0,
			"-0.023": 0.0,
			"-0.022": 0.0,
			"-0.021": 0.0,
			"-0.02": 0.0,
			"-0.019": 0.0,
			"-0.018": 0.0,
			"-0.017": 0.0,
			"-0.016": 0.0,
			"-0.015": 0.0,
			"-0.014": 0.0,
			"-0.013": 0.164875402892,
			"-0.012": 1.33875461396,
			"-0.011": 1.54642417421,
			"-0.01": 1.10054348648,
			"-0.009": 1.3763297395,
			"-0.008": 1.60231252039,
			"-0.007": 9.1168265733,
			"-0.006": 19.7587387225,
			"-0.005": 21.1493964152,
			"-0.004": 23.9264519705,
			"-0.003": 23.4624652595,
			"-0.002": 20.8975769936,
			"-0.001": 25.6330754165,
			"0.0": 23.5893627492,
			"0.001": 27.5193553814,
			"0.002": 24.7409948602,
			"0.003": 15.5918202358,
			"0.004": 12.7404073891,
			"0.005": 5.71563228989,
			"0.006": 4.81986598564,
			"0.007": 4.19404985516,
			"0.008": 3.45588936091,
			"0.009": 2.63593651296,
			"0.01": 2.98705144242,
			"0.011": 2.78068045292,
			"0.012": 4.03718757239,
			"0.013": 4.3304152919,
			"0.014": 3.70550638921,
			"0.015": 2.57066735748,
			"0.016": 1.26378993765,
			"0.017": 0.0784005452039,
			"0.018": 0.0,
			"0.019": 0.0,
			"0.02": 0.0,
			"0.021": 0.0,
			"0.022": 0.0,
			"0.023": 0.0,
			"0.024": 0.0,
			"0.025": 0.0
		}
	}
}
