{
	 "smiles": "COC1=CC2=NC3=C(C)NCCC3=C2C=C1", 
	 "Tm": 503.15, 
	 "num_atms": 30, 
	 "gaussian": { 
		 "optdone": 1, 
		 "sigma_profile": "yes", 
		 "theory": "DFT", 
		 "functional": "B3LYP", 
		 "basiset": "6-31G**", 
		 "properties": { 
			 "R2extent": 4470.2963, 
			 "electric_dipole_moment_norm": 5.04905696145, 
			 "electric_quadrupole_moment_norm": 23.7513153718, 
			 "total_energy": -688.524110468, 
			 "HOMO_LUMO_gap": 0.10948, 
			 "cosmo_polarized_energy": -20.11, 
			 "cosmo_cavitation_energy": 32.45, 
			 "cosmo_dispersion_energy": -24.26, 
			 "cosmo_repulsion_energy": 1.88, 
			 "cosmo_total_nonelectrostatic_energy": 10.07, 
			 "SMD_solvation_energy": 3.24 
		},
		"coords": [
			{
				"x": -0.2840396483,
				"y": -4.7806620165,
				"z": 1.3942698443,
				"element": "C" 
			},
			{
				"x": -1.295226177,
				"y": -3.879184266,
				"z": 0.9791566937,
				"element": "O" 
			},
			{
				"x": -0.9373932645,
				"y": -2.5763160018,
				"z": 0.7680882413,
				"element": "C" 
			},
			{
				"x": 0.3315890008,
				"y": -2.0703207414,
				"z": 0.9284209371,
				"element": "C" 
			},
			{
				"x": 0.5414352,
				"y": -0.6826492138,
				"z": 0.6714532305,
				"element": "C" 
			},
			{
				"x": 1.6890440367,
				"y": -0.0070817683,
				"z": 0.7862495691,
				"element": "N" 
			},
			{
				"x": 1.3453518316,
				"y": 1.2795882841,
				"z": 0.409692889,
				"element": "C" 
			},
			{
				"x": 2.1992602728,
				"y": 2.3734300935,
				"z": 0.4328353129,
				"element": "C" 
			},
			{
				"x": 3.5937970838,
				"y": 2.2935851076,
				"z": 0.9715521121,
				"element": "C" 
			},
			{
				"x": 1.7426248937,
				"y": 3.5710204196,
				"z": -0.0147782875,
				"element": "N" 
			},
			{
				"x": 0.5250670085,
				"y": 3.6551358576,
				"z": -0.8332304667,
				"element": "C" 
			},
			{
				"x": -0.5964568907,
				"y": 2.778545445,
				"z": -0.2559009417,
				"element": "C" 
			},
			{
				"x": -0.0379590254,
				"y": 1.422073939,
				"z": 0.0553076998,
				"element": "C" 
			},
			{
				"x": -0.5795959472,
				"y": 0.1567992306,
				"z": 0.2340424295,
				"element": "C" 
			},
			{
				"x": -1.8759834714,
				"y": -0.4191337962,
				"z": 0.0874817616,
				"element": "C" 
			},
			{
				"x": -2.0424849291,
				"y": -1.7506120169,
				"z": 0.3480527897,
				"element": "C" 
			},
			{
				"x": 0.1535146967,
				"y": -4.4805159351,
				"z": 2.3554319397,
				"element": "H" 
			},
			{
				"x": -0.768234236,
				"y": -5.7526447249,
				"z": 1.5045809981,
				"element": "H" 
			},
			{
				"x": 0.5189795309,
				"y": -4.8561036323,
				"z": 0.6493923579,
				"element": "H" 
			},
			{
				"x": 1.1701548425,
				"y": -2.6780328373,
				"z": 1.2449577371,
				"element": "H" 
			},
			{
				"x": 3.8115022044,
				"y": 1.2573610589,
				"z": 1.2307009681,
				"element": "H" 
			},
			{
				"x": 3.6971549027,
				"y": 2.9157764969,
				"z": 1.8688555263,
				"element": "H" 
			},
			{
				"x": 4.3238469564,
				"y": 2.6500193793,
				"z": 0.2346527844,
				"element": "H" 
			},
			{
				"x": 2.4159180567,
				"y": 4.3173561821,
				"z": -0.1122871159,
				"element": "H" 
			},
			{
				"x": 0.2226802758,
				"y": 4.7045898412,
				"z": -0.8843631974,
				"element": "H" 
			},
			{
				"x": 0.7567653245,
				"y": 3.3122478539,
				"z": -1.8536883056,
				"element": "H" 
			},
			{
				"x": -0.9993109854,
				"y": 3.2490741313,
				"z": 0.654723067,
				"element": "H" 
			},
			{
				"x": -1.4187638618,
				"y": 2.741099731,
				"z": -0.9791654169,
				"element": "H" 
			},
			{
				"x": -2.7213744147,
				"y": 0.1861305239,
				"z": -0.230134263,
				"element": "H" 
			},
			{
				"x": -3.008463267,
				"y": -2.2346766249,
				"z": 0.2469491054,
				"element": "H" 
			}
		],
		 "valence_orbital": [ 
			{
				"type": "occ",
				"energy": -0.2761,
				"method": "rhf"
			},
			{
				"type": "occ",
				"energy": -0.24164,
				"method": "rhf"
			},
			{
				"type": "occ",
				"energy": -0.2321,
				"method": "rhf"
			},
			{
				"type": "occ",
				"energy": -0.19281,
				"method": "rhf"
			},
			{
				"type": "occ",
				"energy": -0.16769,
				"method": "rhf"
			},
			{
				"type": "unocc",
				"energy": -0.05821,
				"method": "rhf"
			},
			{
				"type": "unocc",
				"energy": 0.03653,
				"method": "rhf"
			},
			{
				"type": "unocc",
				"energy": 0.0603,
				"method": "rhf"
			},
			{
				"type": "unocc",
				"energy": 0.06463,
				"method": "rhf"
			},
			{
				"type": "unocc",
				"energy": 0.09663,
				"method": "rhf"
			}
		],
		"cosmo_sigma_profile": { 
			"-0.025": 0.0,
			"-0.024": 0.0,
			"-0.023": 0.0,
			"-0.022": 0.0,
			"-0.021": 0.0,
			"-0.02": 0.0,
			"-0.019": 0.0,
			"-0.018": 0.0,
			"-0.017": 0.0,
			"-0.016": 0.071690589478,
			"-0.015": 1.41692997912,
			"-0.014": 1.48354779015,
			"-0.013": 1.08947704096,
			"-0.012": 1.74781513483,
			"-0.011": 1.44969854092,
			"-0.01": 1.24178728353,
			"-0.009": 1.71747492321,
			"-0.008": 1.4097340636,
			"-0.007": 3.14599315698,
			"-0.006": 10.0754766097,
			"-0.005": 21.7246044316,
			"-0.004": 29.6055964569,
			"-0.003": 30.3257913091,
			"-0.002": 22.1017894351,
			"-0.001": 17.5927475001,
			"0.0": 10.797597639,
			"0.001": 8.66802156034,
			"0.002": 8.89913849626,
			"0.003": 8.73523565122,
			"0.004": 10.8555558328,
			"0.005": 10.1873142802,
			"0.006": 19.8814953937,
			"0.007": 10.5854446614,
			"0.008": 4.17726505061,
			"0.009": 3.47275875417,
			"0.01": 3.79905854858,
			"0.011": 2.22047870516,
			"0.012": 1.2078764873,
			"0.013": 1.50048762086,
			"0.014": 1.73833643891,
			"0.015": 1.03517916842,
			"0.016": 0.978483551017,
			"0.017": 1.12135858921,
			"0.018": 0.828730584133,
			"0.019": 0.119923539388,
			"0.02": 0.0,
			"0.021": 0.0,
			"0.022": 0.0,
			"0.023": 0.0,
			"0.024": 0.0,
			"0.025": 0.0
		}
	}
}
