{
	 "smiles": "FC(Cl)C(F)(F)F", 
	 "Tm": 74.15, 
	 "num_atms": 8, 
	 "gaussian": { 
		 "optdone": 1, 
		 "sigma_profile": "yes", 
		 "theory": "DFT", 
		 "functional": "B3LYP", 
		 "basiset": "6-31G**", 
		 "properties": { 
			 "R2extent": 1409.0638, 
			 "electric_dipole_moment_norm": 1.34445323459, 
			 "electric_quadrupole_moment_norm": 3.16045079696, 
			 "total_energy": -936.355131862, 
			 "HOMO_LUMO_gap": 0.32563, 
			 "cosmo_polarized_energy": -3.43, 
			 "cosmo_cavitation_energy": 15.79, 
			 "cosmo_dispersion_energy": -11.31, 
			 "cosmo_repulsion_energy": 0.9, 
			 "cosmo_total_nonelectrostatic_energy": 5.39, 
			 "SMD_solvation_energy": 4.18 
		},
		"coords": [
			{
				"x": 1.5859784572,
				"y": -0.8336168832,
				"z": -0.4490117295,
				"element": "F" 
			},
			{
				"x": 0.5264062375,
				"y": -1.6736656122,
				"z": -0.3227493538,
				"element": "C" 
			},
			{
				"x": 1.0721869321,
				"y": -3.2617648041,
				"z": 0.2885225617,
				"element": "Cl" 
			},
			{
				"x": -0.4825401878,
				"y": -1.0252706527,
				"z": 0.6369025681,
				"element": "C" 
			},
			{
				"x": -0.8564372294,
				"y": 0.1603590287,
				"z": 0.1247832422,
				"element": "F" 
			},
			{
				"x": -1.5725700086,
				"y": -1.7991178151,
				"z": 0.7554187505,
				"element": "F" 
			},
			{
				"x": 0.0409273993,
				"y": -0.8205411249,
				"z": 1.8487872034,
				"element": "F" 
			},
			{
				"x": 0.0572483998,
				"y": -1.8345821365,
				"z": -1.2955532426,
				"element": "H" 
			}
		],
		 "valence_orbital": [ 
			{
				"type": "occ",
				"energy": -0.42168,
				"method": "rhf"
			},
			{
				"type": "occ",
				"energy": -0.39897,
				"method": "rhf"
			},
			{
				"type": "occ",
				"energy": -0.38718,
				"method": "rhf"
			},
			{
				"type": "occ",
				"energy": -0.3413,
				"method": "rhf"
			},
			{
				"type": "occ",
				"energy": -0.33062,
				"method": "rhf"
			},
			{
				"type": "unocc",
				"energy": -0.00499,
				"method": "rhf"
			},
			{
				"type": "unocc",
				"energy": 0.06508,
				"method": "rhf"
			},
			{
				"type": "unocc",
				"energy": 0.09355,
				"method": "rhf"
			},
			{
				"type": "unocc",
				"energy": 0.17351,
				"method": "rhf"
			},
			{
				"type": "unocc",
				"energy": 0.18991,
				"method": "rhf"
			}
		],
		"cosmo_sigma_profile": { 
			"-0.025": 0.0,
			"-0.024": 0.0,
			"-0.023": 0.0,
			"-0.022": 0.0,
			"-0.021": 0.0,
			"-0.02": 0.0,
			"-0.019": 0.0,
			"-0.018": 0.0,
			"-0.017": 0.0,
			"-0.016": 0.0,
			"-0.015": 0.0,
			"-0.014": 0.0,
			"-0.013": 0.940204939859,
			"-0.012": 2.85541237951,
			"-0.011": 2.09505401874,
			"-0.01": 1.67774300021,
			"-0.009": 1.15027152432,
			"-0.008": 1.63102661727,
			"-0.007": 0.464520264924,
			"-0.006": 1.51325441157,
			"-0.005": 1.52305595919,
			"-0.004": 1.52869930028,
			"-0.003": 4.06381385045,
			"-0.002": 5.14862044725,
			"-0.001": 7.57450995923,
			"0.0": 11.6214830437,
			"0.001": 28.0983502904,
			"0.002": 37.4417840717,
			"0.003": 17.1121267417,
			"0.004": 2.42613506665,
			"0.005": 0.0,
			"0.006": 0.0,
			"0.007": 0.0,
			"0.008": 0.0,
			"0.009": 0.0,
			"0.01": 0.0,
			"0.011": 0.0,
			"0.012": 0.0,
			"0.013": 0.0,
			"0.014": 0.0,
			"0.015": 0.0,
			"0.016": 0.0,
			"0.017": 0.0,
			"0.018": 0.0,
			"0.019": 0.0,
			"0.02": 0.0,
			"0.021": 0.0,
			"0.022": 0.0,
			"0.023": 0.0,
			"0.024": 0.0,
			"0.025": 0.0
		}
	}
}
