{
	 "smiles": "ClC1=CC2=C(C=C1)C(=O)C(=O)N2", 
	 "Tm": 538.15, 
	 "num_atms": 16, 
	 "gaussian": { 
		 "optdone": 1, 
		 "sigma_profile": "yes", 
		 "theory": "DFT", 
		 "functional": "B3LYP", 
		 "basiset": "6-31G**", 
		 "properties": { 
			 "R2extent": 2765.4749, 
			 "electric_dipole_moment_norm": 4.18834072277, 
			 "electric_quadrupole_moment_norm": 17.2597461276, 
			 "total_energy": -972.652881652, 
			 "HOMO_LUMO_gap": 0.14448, 
			 "cosmo_polarized_energy": -14.94, 
			 "cosmo_cavitation_energy": 23.53, 
			 "cosmo_dispersion_energy": -17.55, 
			 "cosmo_repulsion_energy": 1.39, 
			 "cosmo_total_nonelectrostatic_energy": 7.37, 
			 "SMD_solvation_energy": 5.11 
		},
		"coords": [
			{
				"x": 3.8651785944,
				"y": -1.4399987407,
				"z": 0.3442371329,
				"element": "Cl" 
			},
			{
				"x": 2.4384516455,
				"y": -0.471503107,
				"z": 0.042815562,
				"element": "C" 
			},
			{
				"x": 1.3500157375,
				"y": -0.6092977808,
				"z": 0.9149184788,
				"element": "C" 
			},
			{
				"x": 0.2337487952,
				"y": 0.1724286817,
				"z": 0.6488793164,
				"element": "C" 
			},
			{
				"x": 0.2027683688,
				"y": 1.0599951955,
				"z": -0.4468816894,
				"element": "C" 
			},
			{
				"x": 1.2991023487,
				"y": 1.1753282003,
				"z": -1.2959103629,
				"element": "C" 
			},
			{
				"x": 2.4343208998,
				"y": 0.4013346725,
				"z": -1.0518618379,
				"element": "C" 
			},
			{
				"x": -1.1067840947,
				"y": 1.7300309927,
				"z": -0.4478480298,
				"element": "C" 
			},
			{
				"x": -1.5663469755,
				"y": 2.5616081033,
				"z": -1.1989542152,
				"element": "O" 
			},
			{
				"x": -1.8664056977,
				"y": 1.1324588988,
				"z": 0.7897107256,
				"element": "C" 
			},
			{
				"x": -2.9808922419,
				"y": 1.39304015,
				"z": 1.1779808273,
				"element": "O" 
			},
			{
				"x": -0.9739844697,
				"y": 0.2283318907,
				"z": 1.3537694591,
				"element": "N" 
			},
			{
				"x": 1.3933459181,
				"y": -1.2969409424,
				"z": 1.75148157,
				"element": "H" 
			},
			{
				"x": 1.2621622364,
				"y": 1.8623381318,
				"z": -2.1357382781,
				"element": "H" 
			},
			{
				"x": 3.3060348569,
				"y": 0.4652157939,
				"z": -1.6918831421,
				"element": "H" 
			},
			{
				"x": -1.1931159217,
				"y": -0.3142701402,
				"z": 2.1765844832,
				"element": "H" 
			}
		],
		 "valence_orbital": [ 
			{
				"type": "occ",
				"energy": -0.32822,
				"method": "rhf"
			},
			{
				"type": "occ",
				"energy": -0.31733,
				"method": "rhf"
			},
			{
				"type": "occ",
				"energy": -0.27937,
				"method": "rhf"
			},
			{
				"type": "occ",
				"energy": -0.25432,
				"method": "rhf"
			},
			{
				"type": "occ",
				"energy": -0.25013,
				"method": "rhf"
			},
			{
				"type": "unocc",
				"energy": -0.10565,
				"method": "rhf"
			},
			{
				"type": "unocc",
				"energy": -0.03543,
				"method": "rhf"
			},
			{
				"type": "unocc",
				"energy": -0.0056,
				"method": "rhf"
			},
			{
				"type": "unocc",
				"energy": 0.00914,
				"method": "rhf"
			},
			{
				"type": "unocc",
				"energy": 0.0679,
				"method": "rhf"
			}
		],
		"cosmo_sigma_profile": { 
			"-0.025": 0.0,
			"-0.024": 0.0,
			"-0.023": 0.0,
			"-0.022": 0.0,
			"-0.021": 0.0,
			"-0.02": 0.0,
			"-0.019": 0.0,
			"-0.018": 0.0,
			"-0.017": 0.806139875559,
			"-0.016": 1.77494155794,
			"-0.015": 1.48201251737,
			"-0.014": 1.19476620057,
			"-0.013": 0.883251030684,
			"-0.012": 1.43928909887,
			"-0.011": 1.43673784565,
			"-0.01": 1.26156912676,
			"-0.009": 2.62162150137,
			"-0.008": 6.02005225423,
			"-0.007": 7.79420143961,
			"-0.006": 7.33696720617,
			"-0.005": 7.45581916916,
			"-0.004": 8.0472166083,
			"-0.003": 9.04896649214,
			"-0.002": 12.887740258,
			"-0.001": 15.401803672,
			"0.0": 19.7671390846,
			"0.001": 18.4224248864,
			"0.002": 11.4126108588,
			"0.003": 10.5596420788,
			"0.004": 8.79767534746,
			"0.005": 1.94269265542,
			"0.006": 3.45829461418,
			"0.007": 2.38703962223,
			"0.008": 3.93812505913,
			"0.009": 5.3573924035,
			"0.01": 8.70565236142,
			"0.011": 8.19828360144,
			"0.012": 2.57120476341,
			"0.013": 0.0933055829781,
			"0.014": 0.0,
			"0.015": 0.0,
			"0.016": 0.0,
			"0.017": 0.0,
			"0.018": 0.0,
			"0.019": 0.0,
			"0.02": 0.0,
			"0.021": 0.0,
			"0.022": 0.0,
			"0.023": 0.0,
			"0.024": 0.0,
			"0.025": 0.0
		}
	}
}
