{
	 "smiles": "NC1=CC=C2C(NC3=CC=CC=C23)=N1", 
	 "Tm": 475.15, 
	 "num_atms": 23, 
	 "gaussian": { 
		 "optdone": 1, 
		 "sigma_profile": "yes", 
		 "theory": "DFT", 
		 "functional": "B3LYP", 
		 "basiset": "6-31G**", 
		 "properties": { 
			 "R2extent": 2961.6743, 
			 "electric_dipole_moment_norm": 1.69570949458, 
			 "electric_quadrupole_moment_norm": 12.9012916834, 
			 "total_energy": -588.884353576, 
			 "HOMO_LUMO_gap": 0.16779, 
			 "cosmo_polarized_energy": -12.64, 
			 "cosmo_cavitation_energy": 26.94, 
			 "cosmo_dispersion_energy": -20.51, 
			 "cosmo_repulsion_energy": 1.59, 
			 "cosmo_total_nonelectrostatic_energy": 8.02, 
			 "SMD_solvation_energy": 2.29 
		},
		"coords": [
			{
				"x": -3.0886415661,
				"y": 2.7599833577,
				"z": 1.212975176,
				"element": "N" 
			},
			{
				"x": -2.2888854334,
				"y": 1.8383232343,
				"z": 0.5593987653,
				"element": "C" 
			},
			{
				"x": -2.2412196545,
				"y": 1.8032117895,
				"z": -0.8580488013,
				"element": "C" 
			},
			{
				"x": -1.3947324851,
				"y": 0.9050685168,
				"z": -1.4932268245,
				"element": "C" 
			},
			{
				"x": -0.6050561437,
				"y": 0.0593550327,
				"z": -0.7070789729,
				"element": "C" 
			},
			{
				"x": -0.7471691176,
				"y": 0.1965078873,
				"z": 0.6980385235,
				"element": "C" 
			},
			{
				"x": 0.0925505438,
				"y": -0.7053994187,
				"z": 1.3179959113,
				"element": "N" 
			},
			{
				"x": 0.7846672682,
				"y": -1.4322368159,
				"z": 0.355967481,
				"element": "C" 
			},
			{
				"x": 1.732334329,
				"y": -2.4425252148,
				"z": 0.5168883083,
				"element": "C" 
			},
			{
				"x": 2.2770629601,
				"y": -3.0110414279,
				"z": -0.6346431965,
				"element": "C" 
			},
			{
				"x": 1.8853995623,
				"y": -2.5817054558,
				"z": -1.9134780751,
				"element": "C" 
			},
			{
				"x": 0.9379303939,
				"y": -1.5715375213,
				"z": -2.0690538545,
				"element": "C" 
			},
			{
				"x": 0.3741456902,
				"y": -0.98252706,
				"z": -0.9310582165,
				"element": "C" 
			},
			{
				"x": -1.5515919401,
				"y": 1.037051514,
				"z": 1.3444327633,
				"element": "N" 
			},
			{
				"x": -3.9060075121,
				"y": 3.0866088007,
				"z": 0.7196617119,
				"element": "H" 
			},
			{
				"x": -3.2421711426,
				"y": 2.5505144528,
				"z": 2.1894005892,
				"element": "H" 
			},
			{
				"x": -2.8604355181,
				"y": 2.4845404949,
				"z": -1.4327938606,
				"element": "H" 
			},
			{
				"x": -1.3523030869,
				"y": 0.8682400943,
				"z": -2.5783794053,
				"element": "H" 
			},
			{
				"x": 0.1771485554,
				"y": -0.7994224871,
				"z": 2.317399309,
				"element": "H" 
			},
			{
				"x": 2.0372550138,
				"y": -2.7764324492,
				"z": 1.5045673899,
				"element": "H" 
			},
			{
				"x": 3.0174413085,
				"y": -3.7997852953,
				"z": -0.5379524522,
				"element": "H" 
			},
			{
				"x": 2.3276783865,
				"y": -3.0437324857,
				"z": -2.7910613099,
				"element": "H" 
			},
			{
				"x": 0.6410995884,
				"y": -1.2452595433,
				"z": -3.0620509597,
				"element": "H" 
			}
		],
		 "valence_orbital": [ 
			{
				"type": "occ",
				"energy": -0.2702,
				"method": "rhf"
			},
			{
				"type": "occ",
				"energy": -0.26266,
				"method": "rhf"
			},
			{
				"type": "occ",
				"energy": -0.25178,
				"method": "rhf"
			},
			{
				"type": "occ",
				"energy": -0.20655,
				"method": "rhf"
			},
			{
				"type": "occ",
				"energy": -0.19008,
				"method": "rhf"
			},
			{
				"type": "unocc",
				"energy": -0.02229,
				"method": "rhf"
			},
			{
				"type": "unocc",
				"energy": 0.00481,
				"method": "rhf"
			},
			{
				"type": "unocc",
				"energy": 0.03442,
				"method": "rhf"
			},
			{
				"type": "unocc",
				"energy": 0.05007,
				"method": "rhf"
			},
			{
				"type": "unocc",
				"energy": 0.08904,
				"method": "rhf"
			}
		],
		"cosmo_sigma_profile": { 
			"-0.025": 0.0,
			"-0.024": 0.0,
			"-0.023": 0.0,
			"-0.022": 0.0,
			"-0.021": 0.0,
			"-0.02": 0.0,
			"-0.019": 0.0,
			"-0.018": 0.0,
			"-0.017": 0.0,
			"-0.016": 0.144053281837,
			"-0.015": 1.11735614885,
			"-0.014": 1.21160609472,
			"-0.013": 2.30776968214,
			"-0.012": 2.61531466791,
			"-0.011": 4.23522895085,
			"-0.01": 3.15971659883,
			"-0.009": 3.68685529732,
			"-0.008": 3.94431990495,
			"-0.007": 4.18595309475,
			"-0.006": 8.1868426856,
			"-0.005": 13.3314850207,
			"-0.004": 14.0714998869,
			"-0.003": 14.0986510254,
			"-0.002": 10.3005628393,
			"-0.001": 7.94229396049,
			"0.0": 9.61327391666,
			"0.001": 10.5804498986,
			"0.002": 12.9382398379,
			"0.003": 20.6024747492,
			"0.004": 20.0881747484,
			"0.005": 16.7782702333,
			"0.006": 10.7045735963,
			"0.007": 7.54628065114,
			"0.008": 3.36950469214,
			"0.009": 1.63884780559,
			"0.01": 1.85323985828,
			"0.011": 1.25375789781,
			"0.012": 2.00224601157,
			"0.013": 1.22975740888,
			"0.014": 0.522346103134,
			"0.015": 0.550108329624,
			"0.016": 0.0,
			"0.017": 0.0,
			"0.018": 0.0,
			"0.019": 0.0,
			"0.02": 0.0,
			"0.021": 0.0,
			"0.022": 0.0,
			"0.023": 0.0,
			"0.024": 0.0,
			"0.025": 0.0
		}
	}
}
