{
	 "smiles": "[O-][N+](=O)C1=CC=C(C=C1)C1=NN=C2SC(C=CC3=CC=CC=C3)=NN12", 
	 "Tm": 386.15, 
	 "num_atms": 36, 
	 "gaussian": { 
		 "optdone": 1, 
		 "sigma_profile": "yes", 
		 "theory": "DFT", 
		 "functional": "B3LYP", 
		 "basiset": "6-31G**", 
		 "properties": { 
			 "R2extent": 16282.9501, 
			 "electric_dipole_moment_norm": 10.0234393154, 
			 "electric_quadrupole_moment_norm": 15.1578984721, 
			 "total_energy": -1476.666299, 
			 "HOMO_LUMO_gap": 0.13926, 
			 "cosmo_polarized_energy": -18.57, 
			 "cosmo_cavitation_energy": 44.8, 
			 "cosmo_dispersion_energy": -33.17, 
			 "cosmo_repulsion_energy": 2.39, 
			 "cosmo_total_nonelectrostatic_energy": 14.01, 
			 "SMD_solvation_energy": 6.73 
		},
		"coords": [
			{
				"x": 3.0749358446,
				"y": 0.9183598271,
				"z": 5.5810645523,
				"element": "O" 
			},
			{
				"x": 4.0536988183,
				"y": 0.9932534159,
				"z": 4.8374046903,
				"element": "N" 
			},
			{
				"x": 5.2071074602,
				"y": 1.1976363201,
				"z": 5.2158788062,
				"element": "O" 
			},
			{
				"x": 3.8289381305,
				"y": 0.8267859106,
				"z": 3.3950108815,
				"element": "C" 
			},
			{
				"x": 2.5348590524,
				"y": 0.594198073,
				"z": 2.935392684,
				"element": "C" 
			},
			{
				"x": 2.3213793679,
				"y": 0.4366350805,
				"z": 1.5699397148,
				"element": "C" 
			},
			{
				"x": 3.4008983951,
				"y": 0.5122185857,
				"z": 0.6717839235,
				"element": "C" 
			},
			{
				"x": 4.6996061753,
				"y": 0.7484551868,
				"z": 1.1636673447,
				"element": "C" 
			},
			{
				"x": 4.9173786881,
				"y": 0.9062145187,
				"z": 2.5245640097,
				"element": "C" 
			},
			{
				"x": 3.2278936817,
				"y": 0.3537102366,
				"z": -0.7695850761,
				"element": "C" 
			},
			{
				"x": 4.2017210324,
				"y": 0.4152937539,
				"z": -1.6684295403,
				"element": "N" 
			},
			{
				"x": 3.6916411147,
				"y": 0.2228918829,
				"z": -2.9354736598,
				"element": "N" 
			},
			{
				"x": 2.4041203636,
				"y": 0.0471124612,
				"z": -2.7707018966,
				"element": "C" 
			},
			{
				"x": 0.9798472167,
				"y": -0.2532507769,
				"z": -3.7358999204,
				"element": "S" 
			},
			{
				"x": 0.040102514,
				"y": -0.2515245511,
				"z": -2.2029849743,
				"element": "C" 
			},
			{
				"x": -1.3888862494,
				"y": -0.4593097799,
				"z": -2.1554790125,
				"element": "C" 
			},
			{
				"x": -2.1731989235,
				"y": -0.6746459047,
				"z": -3.2335325609,
				"element": "C" 
			},
			{
				"x": -3.6177560568,
				"y": -0.8903658195,
				"z": -3.2470259023,
				"element": "C" 
			},
			{
				"x": -4.2535904424,
				"y": -1.0990781701,
				"z": -4.4855978338,
				"element": "C" 
			},
			{
				"x": -5.6283231546,
				"y": -1.3102628273,
				"z": -4.5606379331,
				"element": "C" 
			},
			{
				"x": -6.3967419703,
				"y": -1.316951412,
				"z": -3.3957570137,
				"element": "C" 
			},
			{
				"x": -5.7805850516,
				"y": -1.1110199267,
				"z": -2.1564590552,
				"element": "C" 
			},
			{
				"x": -4.4086513116,
				"y": -0.9001733725,
				"z": -2.0803475047,
				"element": "C" 
			},
			{
				"x": 0.7346124842,
				"y": -0.0480511036,
				"z": -1.114539715,
				"element": "N" 
			},
			{
				"x": 2.0467159052,
				"y": 0.1162274739,
				"z": -1.445925571,
				"element": "N" 
			},
			{
				"x": 1.7201018996,
				"y": 0.5402303995,
				"z": 3.6462903127,
				"element": "H" 
			},
			{
				"x": 1.3197929875,
				"y": 0.2551517666,
				"z": 1.1988451512,
				"element": "H" 
			},
			{
				"x": 5.5226259148,
				"y": 0.8044018234,
				"z": 0.4605490353,
				"element": "H" 
			},
			{
				"x": 5.9068614593,
				"y": 1.0885277806,
				"z": 2.9243634973,
				"element": "H" 
			},
			{
				"x": -1.7965040511,
				"y": -0.4275312442,
				"z": -1.1495371442,
				"element": "H" 
			},
			{
				"x": -1.7045408984,
				"y": -0.695352721,
				"z": -4.2173302173,
				"element": "H" 
			},
			{
				"x": -3.6577980717,
				"y": -1.0944325783,
				"z": -5.3947358098,
				"element": "H" 
			},
			{
				"x": -6.0985512533,
				"y": -1.4692106716,
				"z": -5.5263304775,
				"element": "H" 
			},
			{
				"x": -7.4687338591,
				"y": -1.481208477,
				"z": -3.4497605402,
				"element": "H" 
			},
			{
				"x": -6.3747844981,
				"y": -1.1153975198,
				"z": -1.2475638705,
				"element": "H" 
			},
			{
				"x": -3.949792714,
				"y": -0.7423376411,
				"z": -1.1094193742,
				"element": "H" 
			}
		],
		 "valence_orbital": [ 
			{
				"type": "occ",
				"energy": -0.27774,
				"method": "rhf"
			},
			{
				"type": "occ",
				"energy": -0.27756,
				"method": "rhf"
			},
			{
				"type": "occ",
				"energy": -0.27197,
				"method": "rhf"
			},
			{
				"type": "occ",
				"energy": -0.246,
				"method": "rhf"
			},
			{
				"type": "occ",
				"energy": -0.241,
				"method": "rhf"
			},
			{
				"type": "unocc",
				"energy": -0.10174,
				"method": "rhf"
			},
			{
				"type": "unocc",
				"energy": -0.08937,
				"method": "rhf"
			},
			{
				"type": "unocc",
				"energy": -0.03017,
				"method": "rhf"
			},
			{
				"type": "unocc",
				"energy": -0.02602,
				"method": "rhf"
			},
			{
				"type": "unocc",
				"energy": -0.02581,
				"method": "rhf"
			}
		],
		"cosmo_sigma_profile": { 
			"-0.025": 0.0,
			"-0.024": 0.0,
			"-0.023": 0.0,
			"-0.022": 0.0,
			"-0.021": 0.0,
			"-0.02": 0.0,
			"-0.019": 0.0,
			"-0.018": 0.0,
			"-0.017": 0.0,
			"-0.016": 0.0,
			"-0.015": 0.0,
			"-0.014": 0.0,
			"-0.013": 0.0,
			"-0.012": 0.0,
			"-0.011": 0.0,
			"-0.01": 0.264759776588,
			"-0.009": 3.12000140474,
			"-0.008": 6.90068038803,
			"-0.007": 11.5185542554,
			"-0.006": 21.5503027608,
			"-0.005": 23.6833156631,
			"-0.004": 27.7313543831,
			"-0.003": 25.17929682,
			"-0.002": 31.3819354669,
			"-0.001": 31.9588497211,
			"0.0": 34.6753436566,
			"0.001": 31.9877892278,
			"0.002": 21.3831527502,
			"0.003": 16.861462056,
			"0.004": 18.589430257,
			"0.005": 9.99815609237,
			"0.006": 5.74740732163,
			"0.007": 9.99727787856,
			"0.008": 8.814749715,
			"0.009": 6.46761235911,
			"0.01": 5.13402264531,
			"0.011": 3.42539693326,
			"0.012": 3.41185500114,
			"0.013": 2.54786531192,
			"0.014": 1.89912846338,
			"0.015": 1.09185939092,
			"0.016": 0.159524118195,
			"0.017": 0.0,
			"0.018": 0.0,
			"0.019": 0.0,
			"0.02": 0.0,
			"0.021": 0.0,
			"0.022": 0.0,
			"0.023": 0.0,
			"0.024": 0.0,
			"0.025": 0.0
		}
	}
}
