{
	 "smiles": "CC(C)C1=CC(Cl)=C(C)C=C1O", 
	 "Tm": 334.15, 
	 "num_atms": 25, 
	 "gaussian": { 
		 "optdone": 1, 
		 "sigma_profile": "yes", 
		 "theory": "DFT", 
		 "functional": "B3LYP", 
		 "basiset": "6-31G**", 
		 "properties": { 
			 "R2extent": 3219.9143, 
			 "electric_dipole_moment_norm": 2.41377481344, 
			 "electric_quadrupole_moment_norm": 8.60897837725, 
			 "total_energy": -924.332578889, 
			 "HOMO_LUMO_gap": 0.20984, 
			 "cosmo_polarized_energy": -7.53, 
			 "cosmo_cavitation_energy": 28.73, 
			 "cosmo_dispersion_energy": -20.89, 
			 "cosmo_repulsion_energy": 1.66, 
			 "cosmo_total_nonelectrostatic_energy": 9.5, 
			 "SMD_solvation_energy": 4.88 
		},
		"coords": [
			{
				"x": 0.7208307901,
				"y": 1.4715508934,
				"z": -1.7392635632,
				"element": "C" 
			},
			{
				"x": 0.4448558881,
				"y": 1.4613780302,
				"z": -0.2189143387,
				"element": "C" 
			},
			{
				"x": -0.3623342544,
				"y": 2.701523435,
				"z": 0.1906176352,
				"element": "C" 
			},
			{
				"x": -0.1846079726,
				"y": 0.1401670047,
				"z": 0.2119653947,
				"element": "C" 
			},
			{
				"x": -1.5536241804,
				"y": 0.0087105219,
				"z": 0.4672016501,
				"element": "C" 
			},
			{
				"x": -2.1105410559,
				"y": -1.2171593601,
				"z": 0.8211237631,
				"element": "C" 
			},
			{
				"x": -3.8496710092,
				"y": -1.2869667492,
				"z": 1.1247702776,
				"element": "Cl" 
			},
			{
				"x": -1.3331744731,
				"y": -2.3771741187,
				"z": 0.9426436802,
				"element": "C" 
			},
			{
				"x": -1.9221730151,
				"y": -3.7093910775,
				"z": 1.3280870276,
				"element": "C" 
			},
			{
				"x": 0.0346508971,
				"y": -2.2434790988,
				"z": 0.6909892955,
				"element": "C" 
			},
			{
				"x": 0.6043009961,
				"y": -1.0207910341,
				"z": 0.3306552421,
				"element": "C" 
			},
			{
				"x": 1.9546598939,
				"y": -1.0302916976,
				"z": 0.1010927443,
				"element": "O" 
			},
			{
				"x": 1.3284870212,
				"y": 0.6152246571,
				"z": -2.0487657133,
				"element": "H" 
			},
			{
				"x": 1.2435408916,
				"y": 2.3872573994,
				"z": -2.0364850842,
				"element": "H" 
			},
			{
				"x": -0.2217573975,
				"y": 1.4216161887,
				"z": -2.2939804868,
				"element": "H" 
			},
			{
				"x": 1.4150694633,
				"y": 1.5506534436,
				"z": 0.2994912512,
				"element": "H" 
			},
			{
				"x": -0.5834300917,
				"y": 2.7036418362,
				"z": 1.2620968281,
				"element": "H" 
			},
			{
				"x": -1.3109709225,
				"y": 2.7607069656,
				"z": -0.3534371463,
				"element": "H" 
			},
			{
				"x": 0.2016158444,
				"y": 3.6098366405,
				"z": -0.0432166234,
				"element": "H" 
			},
			{
				"x": -2.2050281598,
				"y": 0.8712619884,
				"z": 0.3938263592,
				"element": "H" 
			},
			{
				"x": -2.408093524,
				"y": -3.6603743222,
				"z": 2.3084735708,
				"element": "H" 
			},
			{
				"x": -1.1475353146,
				"y": -4.478983171,
				"z": 1.3665946226,
				"element": "H" 
			},
			{
				"x": -2.6880794473,
				"y": -4.0270338001,
				"z": 0.6124369047,
				"element": "H" 
			},
			{
				"x": 0.6894781434,
				"y": -3.1053830763,
				"z": 0.773473242,
				"element": "H" 
			},
			{
				"x": 2.2619309891,
				"y": -0.1308014989,
				"z": -0.0649765331,
				"element": "H" 
			}
		],
		 "valence_orbital": [ 
			{
				"type": "occ",
				"energy": -0.33498,
				"method": "rhf"
			},
			{
				"type": "occ",
				"energy": -0.3029,
				"method": "rhf"
			},
			{
				"type": "occ",
				"energy": -0.3023,
				"method": "rhf"
			},
			{
				"type": "occ",
				"energy": -0.24612,
				"method": "rhf"
			},
			{
				"type": "occ",
				"energy": -0.21418,
				"method": "rhf"
			},
			{
				"type": "unocc",
				"energy": -0.00434,
				"method": "rhf"
			},
			{
				"type": "unocc",
				"energy": 0.00564,
				"method": "rhf"
			},
			{
				"type": "unocc",
				"energy": 0.03943,
				"method": "rhf"
			},
			{
				"type": "unocc",
				"energy": 0.05632,
				"method": "rhf"
			},
			{
				"type": "unocc",
				"energy": 0.09622,
				"method": "rhf"
			}
		],
		"cosmo_sigma_profile": { 
			"-0.025": 0.0,
			"-0.024": 0.0,
			"-0.023": 0.0,
			"-0.022": 0.0,
			"-0.021": 0.0,
			"-0.02": 0.0,
			"-0.019": 0.0,
			"-0.018": 0.0,
			"-0.017": 0.0,
			"-0.016": 0.42851209043,
			"-0.015": 0.832068615601,
			"-0.014": 0.760302825486,
			"-0.013": 1.09136063747,
			"-0.012": 0.659424128073,
			"-0.011": 0.781933096424,
			"-0.01": 1.1483864922,
			"-0.009": 1.39572626975,
			"-0.008": 1.06335830114,
			"-0.007": 0.823307441439,
			"-0.006": 4.20192970045,
			"-0.005": 7.63993465478,
			"-0.004": 13.1624969902,
			"-0.003": 20.7393183473,
			"-0.002": 23.7031254881,
			"-0.001": 26.0943141886,
			"0.0": 26.4180456328,
			"0.001": 21.3757749862,
			"0.002": 12.697937246,
			"0.003": 16.559941406,
			"0.004": 20.21183109,
			"0.005": 14.3385020915,
			"0.006": 3.86446744077,
			"0.007": 1.27246651168,
			"0.008": 1.25714929539,
			"0.009": 1.55204253619,
			"0.01": 1.53258959605,
			"0.011": 1.93575171479,
			"0.012": 0.408103757259,
			"0.013": 0.0,
			"0.014": 0.0,
			"0.015": 0.0,
			"0.016": 0.0,
			"0.017": 0.0,
			"0.018": 0.0,
			"0.019": 0.0,
			"0.02": 0.0,
			"0.021": 0.0,
			"0.022": 0.0,
			"0.023": 0.0,
			"0.024": 0.0,
			"0.025": 0.0
		}
	}
}
