{
	 "smiles": "OC(=O)CNC1=CC=C(Br)C=C1", 
	 "Tm": 428.15, 
	 "num_atms": 20, 
	 "gaussian": { 
		 "optdone": 1, 
		 "sigma_profile": "yes", 
		 "theory": "DFT", 
		 "functional": "B3LYP", 
		 "basiset": "6-31G**", 
		 "properties": { 
			 "R2extent": 5451.9631, 
			 "electric_dipole_moment_norm": 3.84638900919, 
			 "electric_quadrupole_moment_norm": 11.5795099292, 
			 "total_energy": -3086.28603002, 
			 "HOMO_LUMO_gap": 0.19153, 
			 "cosmo_polarized_energy": -14.21, 
			 "cosmo_cavitation_energy": 27.13, 
			 "cosmo_dispersion_energy": -20.0, 
			 "cosmo_repulsion_energy": 1.62, 
			 "cosmo_total_nonelectrostatic_energy": 8.75, 
			 "SMD_solvation_energy": 3.66 
		},
		"coords": [
			{
				"x": -1.8449406263,
				"y": 0.9752310037,
				"z": 3.0745339594,
				"element": "O" 
			},
			{
				"x": -0.6594216804,
				"y": 1.0138813969,
				"z": 2.4242976883,
				"element": "C" 
			},
			{
				"x": 0.0390239314,
				"y": 1.9982515416,
				"z": 2.3631332477,
				"element": "O" 
			},
			{
				"x": -0.3057223427,
				"y": -0.3534232284,
				"z": 1.8362003141,
				"element": "C" 
			},
			{
				"x": 0.7283670511,
				"y": -0.3172623237,
				"z": 0.8342543693,
				"element": "N" 
			},
			{
				"x": 0.4949250322,
				"y": 0.2225391016,
				"z": -0.4367284276,
				"element": "C" 
			},
			{
				"x": 1.5986243936,
				"y": 0.5271879383,
				"z": -1.2559204242,
				"element": "C" 
			},
			{
				"x": 1.4259085122,
				"y": 1.0081648925,
				"z": -2.5479552717,
				"element": "C" 
			},
			{
				"x": 0.1366126946,
				"y": 1.190827066,
				"z": -3.0489655558,
				"element": "C" 
			},
			{
				"x": -0.1075447629,
				"y": 1.8509726959,
				"z": -4.8281673721,
				"element": "Br" 
			},
			{
				"x": -0.9700920603,
				"y": 0.899759884,
				"z": -2.2587426834,
				"element": "C" 
			},
			{
				"x": -0.7938317641,
				"y": 0.4229879476,
				"z": -0.9590816361,
				"element": "C" 
			},
			{
				"x": -1.9795868016,
				"y": 1.858337255,
				"z": 3.458867907,
				"element": "H" 
			},
			{
				"x": 0.0287792726,
				"y": -0.982442272,
				"z": 2.6702686639,
				"element": "H" 
			},
			{
				"x": -1.2097515533,
				"y": -0.8314966716,
				"z": 1.450712949,
				"element": "H" 
			},
			{
				"x": 1.6287152264,
				"y": -0.0510962151,
				"z": 1.2106426058,
				"element": "H" 
			},
			{
				"x": 2.6047782285,
				"y": 0.3784414432,
				"z": -0.8719789691,
				"element": "H" 
			},
			{
				"x": 2.2885050954,
				"y": 1.2394315327,
				"z": -3.1627456853,
				"element": "H" 
			},
			{
				"x": -1.9712737028,
				"y": 1.0495502516,
				"z": -2.6471395654,
				"element": "H" 
			},
			{
				"x": -1.6751741435,
				"y": 0.2161567603,
				"z": -0.3622861137,
				"element": "H" 
			}
		],
		 "valence_orbital": [ 
			{
				"type": "occ",
				"energy": -0.29204,
				"method": "rhf"
			},
			{
				"type": "occ",
				"energy": -0.27845,
				"method": "rhf"
			},
			{
				"type": "occ",
				"energy": -0.27383,
				"method": "rhf"
			},
			{
				"type": "occ",
				"energy": -0.25805,
				"method": "rhf"
			},
			{
				"type": "occ",
				"energy": -0.20455,
				"method": "rhf"
			},
			{
				"type": "unocc",
				"energy": -0.01302,
				"method": "rhf"
			},
			{
				"type": "unocc",
				"energy": 0.00133,
				"method": "rhf"
			},
			{
				"type": "unocc",
				"energy": 0.00518,
				"method": "rhf"
			},
			{
				"type": "unocc",
				"energy": 0.0158,
				"method": "rhf"
			},
			{
				"type": "unocc",
				"energy": 0.06658,
				"method": "rhf"
			}
		],
		"cosmo_sigma_profile": { 
			"-0.025": 0.0,
			"-0.024": 0.0,
			"-0.023": 0.0,
			"-0.022": 0.0,
			"-0.021": 0.0,
			"-0.02": 0.0,
			"-0.019": 0.13967293682,
			"-0.018": 0.900345930541,
			"-0.017": 1.04388799912,
			"-0.016": 0.893865316685,
			"-0.015": 0.600271928702,
			"-0.014": 0.639470237275,
			"-0.013": 1.22004459589,
			"-0.012": 2.2438535664,
			"-0.011": 2.46964846144,
			"-0.01": 2.19389515177,
			"-0.009": 3.09160659812,
			"-0.008": 7.17562727899,
			"-0.007": 9.529666167,
			"-0.006": 11.1001325287,
			"-0.005": 11.1629280064,
			"-0.004": 11.1254454934,
			"-0.003": 9.86680027821,
			"-0.002": 10.1938031627,
			"-0.001": 10.0297523559,
			"0.0": 9.74692686108,
			"0.001": 10.9181650443,
			"0.002": 13.4477209888,
			"0.003": 16.0466375224,
			"0.004": 21.4942568296,
			"0.005": 24.9445414089,
			"0.006": 5.2750973032,
			"0.007": 3.25938772432,
			"0.008": 4.04293758361,
			"0.009": 4.06808643126,
			"0.01": 2.55287135332,
			"0.011": 4.83851598286,
			"0.012": 2.96462069127,
			"0.013": 0.00924314588284,
			"0.014": 0.0,
			"0.015": 0.0,
			"0.016": 0.0,
			"0.017": 0.0,
			"0.018": 0.0,
			"0.019": 0.0,
			"0.02": 0.0,
			"0.021": 0.0,
			"0.022": 0.0,
			"0.023": 0.0,
			"0.024": 0.0,
			"0.025": 0.0
		}
	}
}
