{
	 "smiles": "COC1=CC=C(C=C1)C1=NC(N)=NC(=C1)C(F)(F)F", 
	 "Tm": 465.15, 
	 "num_atms": 29, 
	 "gaussian": { 
		 "optdone": 1, 
		 "sigma_profile": "yes", 
		 "theory": "DFT", 
		 "functional": "B3LYP", 
		 "basiset": "6-31G**", 
		 "properties": { 
			 "R2extent": 8074.3779, 
			 "electric_dipole_moment_norm": 4.97415375114, 
			 "electric_quadrupole_moment_norm": 12.542747325, 
			 "total_energy": -1002.31853019, 
			 "HOMO_LUMO_gap": 0.1623, 
			 "cosmo_polarized_energy": -12.33, 
			 "cosmo_cavitation_energy": 35.4, 
			 "cosmo_dispersion_energy": -25.58, 
			 "cosmo_repulsion_energy": 1.91, 
			 "cosmo_total_nonelectrostatic_energy": 11.73, 
			 "SMD_solvation_energy": 5.61 
		},
		"coords": [
			{
				"x": -4.795477845,
				"y": 0.4162734652,
				"z": 1.4374204952,
				"element": "C" 
			},
			{
				"x": -3.5378649194,
				"y": 0.7388510419,
				"z": 2.0144466402,
				"element": "O" 
			},
			{
				"x": -2.4127804546,
				"y": 0.5126512352,
				"z": 1.2851207964,
				"element": "C" 
			},
			{
				"x": -2.393522233,
				"y": -0.0203219672,
				"z": -0.0112808703,
				"element": "C" 
			},
			{
				"x": -1.1762343092,
				"y": -0.2081066481,
				"z": -0.6607208633,
				"element": "C" 
			},
			{
				"x": 0.0423707444,
				"y": 0.1278575352,
				"z": -0.0527944803,
				"element": "C" 
			},
			{
				"x": 0.0013113436,
				"y": 0.6589369594,
				"z": 1.2513053604,
				"element": "C" 
			},
			{
				"x": -1.2018099993,
				"y": 0.8486426656,
				"z": 1.9118724468,
				"element": "C" 
			},
			{
				"x": 1.3127898128,
				"y": -0.0827664116,
				"z": -0.7822757029,
				"element": "C" 
			},
			{
				"x": 1.2464225669,
				"y": -0.7562271061,
				"z": -1.9401779672,
				"element": "N" 
			},
			{
				"x": 2.3933283262,
				"y": -0.9517741818,
				"z": -2.6142126544,
				"element": "C" 
			},
			{
				"x": 2.3018162637,
				"y": -1.6017961066,
				"z": -3.8087170289,
				"element": "N" 
			},
			{
				"x": 3.622369887,
				"y": -0.5524498296,
				"z": -2.2367573299,
				"element": "N" 
			},
			{
				"x": 3.661700216,
				"y": 0.1184897804,
				"z": -1.0864467482,
				"element": "C" 
			},
			{
				"x": 2.5501838877,
				"y": 0.3977121279,
				"z": -0.3063860646,
				"element": "C" 
			},
			{
				"x": 5.0479244531,
				"y": 0.5737174729,
				"z": -0.6659518573,
				"element": "C" 
			},
			{
				"x": 5.0146751201,
				"y": 1.2515524644,
				"z": 0.5038772736,
				"element": "F" 
			},
			{
				"x": 5.8747108855,
				"y": -0.4762132501,
				"z": -0.5026045236,
				"element": "F" 
			},
			{
				"x": 5.5954505709,
				"y": 1.3851127361,
				"z": -1.5893740028,
				"element": "F" 
			},
			{
				"x": -5.5445565895,
				"y": 0.6747868256,
				"z": 2.1870206818,
				"element": "H" 
			},
			{
				"x": -4.9816136397,
				"y": 0.9967065723,
				"z": 0.5251524062,
				"element": "H" 
			},
			{
				"x": -4.870419952,
				"y": -0.6534319104,
				"z": 1.2052301934,
				"element": "H" 
			},
			{
				"x": -3.3129504355,
				"y": -0.2878631459,
				"z": -0.518259504,
				"element": "H" 
			},
			{
				"x": -1.1537157672,
				"y": -0.6211817118,
				"z": -1.6625077753,
				"element": "H" 
			},
			{
				"x": 0.918812817,
				"y": 0.9173880252,
				"z": 1.7690519866,
				"element": "H" 
			},
			{
				"x": -1.2343683991,
				"y": 1.2529099683,
				"z": 2.918050152,
				"element": "H" 
			},
			{
				"x": 3.1577914892,
				"y": -1.9247337772,
				"z": -4.2297626112,
				"element": "H" 
			},
			{
				"x": 1.441434821,
				"y": -2.0820671374,
				"z": -4.0151669232,
				"element": "H" 
			},
			{
				"x": 2.6486213384,
				"y": 0.9601443083,
				"z": 0.6097484748,
				"element": "H" 
			}
		],
		 "valence_orbital": [ 
			{
				"type": "occ",
				"energy": -0.3058,
				"method": "rhf"
			},
			{
				"type": "occ",
				"energy": -0.26105,
				"method": "rhf"
			},
			{
				"type": "occ",
				"energy": -0.25495,
				"method": "rhf"
			},
			{
				"type": "occ",
				"energy": -0.23782,
				"method": "rhf"
			},
			{
				"type": "occ",
				"energy": -0.22016,
				"method": "rhf"
			},
			{
				"type": "unocc",
				"energy": -0.05786,
				"method": "rhf"
			},
			{
				"type": "unocc",
				"energy": -0.01891,
				"method": "rhf"
			},
			{
				"type": "unocc",
				"energy": -0.00412,
				"method": "rhf"
			},
			{
				"type": "unocc",
				"energy": 0.03392,
				"method": "rhf"
			},
			{
				"type": "unocc",
				"energy": 0.08508,
				"method": "rhf"
			}
		],
		"cosmo_sigma_profile": { 
			"-0.025": 0.0,
			"-0.024": 0.0,
			"-0.023": 0.0,
			"-0.022": 0.0,
			"-0.021": 0.0,
			"-0.02": 0.0,
			"-0.019": 0.0,
			"-0.018": 0.0,
			"-0.017": 0.0,
			"-0.016": 0.0,
			"-0.015": 0.0,
			"-0.014": 1.10568910878,
			"-0.013": 2.20570776982,
			"-0.012": 2.22430932642,
			"-0.011": 1.90491106549,
			"-0.01": 2.73379934745,
			"-0.009": 2.49310374922,
			"-0.008": 2.85813766917,
			"-0.007": 5.0319607181,
			"-0.006": 14.0145710336,
			"-0.005": 15.5413800773,
			"-0.004": 18.0333293413,
			"-0.003": 16.6783636273,
			"-0.002": 14.843755459,
			"-0.001": 16.568858877,
			"0.0": 19.238087577,
			"0.001": 22.0679612347,
			"0.002": 34.0285966379,
			"0.003": 36.1285472998,
			"0.004": 21.6445702255,
			"0.005": 9.57042808489,
			"0.006": 6.60549082267,
			"0.007": 5.46538511705,
			"0.008": 5.11252141766,
			"0.009": 3.780554108,
			"0.01": 1.78324598327,
			"0.011": 1.25893870241,
			"0.012": 0.724390599462,
			"0.013": 0.12334316279,
			"0.014": 0.0,
			"0.015": 0.0,
			"0.016": 0.0,
			"0.017": 0.0,
			"0.018": 0.0,
			"0.019": 0.0,
			"0.02": 0.0,
			"0.021": 0.0,
			"0.022": 0.0,
			"0.023": 0.0,
			"0.024": 0.0,
			"0.025": 0.0
		}
	}
}
