{
	 "smiles": "CC1=CC2=C(N=C(Cl)C=C2C)C(C)=C1", 
	 "Tm": 403.15, 
	 "num_atms": 26, 
	 "gaussian": { 
		 "optdone": 1, 
		 "sigma_profile": "yes", 
		 "theory": "DFT", 
		 "functional": "B3LYP", 
		 "basiset": "6-31G**", 
		 "properties": { 
			 "R2extent": 4100.9288, 
			 "electric_dipole_moment_norm": 3.98901618447, 
			 "electric_quadrupole_moment_norm": 13.5319771685, 
			 "total_energy": -979.489711849, 
			 "HOMO_LUMO_gap": 0.17257, 
			 "cosmo_polarized_energy": -7.29, 
			 "cosmo_cavitation_energy": 30.77, 
			 "cosmo_dispersion_energy": -22.47, 
			 "cosmo_repulsion_energy": 1.77, 
			 "cosmo_total_nonelectrostatic_energy": 10.06, 
			 "SMD_solvation_energy": 3.79 
		},
		"coords": [
			{
				"x": 1.5251385099,
				"y": -2.5539072835,
				"z": 1.3282611722,
				"element": "C" 
			},
			{
				"x": 0.6664720003,
				"y": -1.6821794687,
				"z": 0.4446973584,
				"element": "C" 
			},
			{
				"x": 0.6587959753,
				"y": -0.307986065,
				"z": 0.5724659035,
				"element": "C" 
			},
			{
				"x": -0.1521500595,
				"y": 0.5029301257,
				"z": -0.2634383498,
				"element": "C" 
			},
			{
				"x": -0.9724427375,
				"y": -0.1226824813,
				"z": -1.2522619517,
				"element": "C" 
			},
			{
				"x": -1.7793187034,
				"y": 0.5934267983,
				"z": -2.092604801,
				"element": "N" 
			},
			{
				"x": -1.7814074444,
				"y": 1.8850760932,
				"z": -1.9666702493,
				"element": "C" 
			},
			{
				"x": -2.829196206,
				"y": 2.8046351082,
				"z": -3.0586428273,
				"element": "Cl" 
			},
			{
				"x": -1.017144097,
				"y": 2.6202658434,
				"z": -1.0304368266,
				"element": "C" 
			},
			{
				"x": -0.1920548924,
				"y": 1.9319859766,
				"z": -0.166801324,
				"element": "C" 
			},
			{
				"x": 0.6414149337,
				"y": 2.671579698,
				"z": 0.8478632734,
				"element": "C" 
			},
			{
				"x": -0.9666561812,
				"y": -1.5463114019,
				"z": -1.3870505793,
				"element": "C" 
			},
			{
				"x": -1.8327903194,
				"y": -2.2010941581,
				"z": -2.4304124847,
				"element": "C" 
			},
			{
				"x": -0.1571776908,
				"y": -2.281372326,
				"z": -0.5454775457,
				"element": "C" 
			},
			{
				"x": 2.2321571952,
				"y": -3.1457216574,
				"z": 0.7350049508,
				"element": "H" 
			},
			{
				"x": 2.1013739271,
				"y": -1.9584335291,
				"z": 2.0413944582,
				"element": "H" 
			},
			{
				"x": 0.91478693,
				"y": -3.2641928871,
				"z": 1.8983485052,
				"element": "H" 
			},
			{
				"x": 1.2843554938,
				"y": 0.1603636447,
				"z": 1.3259128465,
				"element": "H" 
			},
			{
				"x": -1.0878358628,
				"y": 3.7014831665,
				"z": -1.0029476653,
				"element": "H" 
			},
			{
				"x": 0.3926820327,
				"y": 2.3605982527,
				"z": 1.868750796,
				"element": "H" 
			},
			{
				"x": 0.4818774264,
				"y": 3.7497139693,
				"z": 0.7744635106,
				"element": "H" 
			},
			{
				"x": 1.7098219247,
				"y": 2.4761310062,
				"z": 0.7026078917,
				"element": "H" 
			},
			{
				"x": -1.5802628518,
				"y": -1.8422484589,
				"z": -3.4331565026,
				"element": "H" 
			},
			{
				"x": -2.8883406324,
				"y": -1.9564399635,
				"z": -2.2755593559,
				"element": "H" 
			},
			{
				"x": -1.7172975482,
				"y": -3.2879528424,
				"z": -2.4071396845,
				"element": "H" 
			},
			{
				"x": -0.1474011222,
				"y": -3.3651671596,
				"z": -0.6419705186,
				"element": "H" 
			}
		],
		 "valence_orbital": [ 
			{
				"type": "occ",
				"energy": -0.30479,
				"method": "rhf"
			},
			{
				"type": "occ",
				"energy": -0.29291,
				"method": "rhf"
			},
			{
				"type": "occ",
				"energy": -0.26643,
				"method": "rhf"
			},
			{
				"type": "occ",
				"energy": -0.24454,
				"method": "rhf"
			},
			{
				"type": "occ",
				"energy": -0.22565,
				"method": "rhf"
			},
			{
				"type": "unocc",
				"energy": -0.05308,
				"method": "rhf"
			},
			{
				"type": "unocc",
				"energy": -0.02047,
				"method": "rhf"
			},
			{
				"type": "unocc",
				"energy": 0.02272,
				"method": "rhf"
			},
			{
				"type": "unocc",
				"energy": 0.03989,
				"method": "rhf"
			},
			{
				"type": "unocc",
				"energy": 0.07815,
				"method": "rhf"
			}
		],
		"cosmo_sigma_profile": { 
			"-0.025": 0.0,
			"-0.024": 0.0,
			"-0.023": 0.0,
			"-0.022": 0.0,
			"-0.021": 0.0,
			"-0.02": 0.0,
			"-0.019": 0.0,
			"-0.018": 0.0,
			"-0.017": 0.0,
			"-0.016": 0.0,
			"-0.015": 0.0,
			"-0.014": 0.0,
			"-0.013": 0.0,
			"-0.012": 0.0,
			"-0.011": 0.0,
			"-0.01": 0.0,
			"-0.009": 0.0,
			"-0.008": 0.248567083596,
			"-0.007": 2.12675055379,
			"-0.006": 4.05855188164,
			"-0.005": 15.8955131676,
			"-0.004": 20.9692790096,
			"-0.003": 23.3717151882,
			"-0.002": 21.2538124894,
			"-0.001": 24.5568024466,
			"0.0": 31.0955421681,
			"0.001": 26.179279951,
			"0.002": 19.5997137836,
			"0.003": 16.1341041945,
			"0.004": 17.899264216,
			"0.005": 11.142915085,
			"0.006": 3.44536730339,
			"0.007": 1.97589487063,
			"0.008": 1.76806109908,
			"0.009": 1.76684400496,
			"0.01": 0.902078765679,
			"0.011": 1.08854960344,
			"0.012": 0.609299327031,
			"0.013": 0.506811811444,
			"0.014": 0.00196181181688,
			"0.015": 0.0,
			"0.016": 0.0,
			"0.017": 0.0,
			"0.018": 0.0,
			"0.019": 0.0,
			"0.02": 0.0,
			"0.021": 0.0,
			"0.022": 0.0,
			"0.023": 0.0,
			"0.024": 0.0,
			"0.025": 0.0
		}
	}
}
