{
	 "smiles": "CC1=NC2=C(C=C(Cl)C=C2C)C(Cl)=C1", 
	 "Tm": 396.15, 
	 "num_atms": 23, 
	 "gaussian": { 
		 "optdone": 1, 
		 "sigma_profile": "yes", 
		 "theory": "DFT", 
		 "functional": "B3LYP", 
		 "basiset": "6-31G**", 
		 "properties": { 
			 "R2extent": 5952.7027, 
			 "electric_dipole_moment_norm": 2.31207318872, 
			 "electric_quadrupole_moment_norm": 9.1798192199, 
			 "total_energy": -1399.75774373, 
			 "HOMO_LUMO_gap": 0.16936, 
			 "cosmo_polarized_energy": -5.36, 
			 "cosmo_cavitation_energy": 30.23, 
			 "cosmo_dispersion_energy": -22.34, 
			 "cosmo_repulsion_energy": 1.76, 
			 "cosmo_total_nonelectrostatic_energy": 9.65, 
			 "SMD_solvation_energy": 3.51 
		},
		"coords": [
			{
				"x": -1.4599010836,
				"y": -0.5176475202,
				"z": 1.3318369567,
				"element": "C" 
			},
			{
				"x": -0.1979198738,
				"y": -0.302748284,
				"z": 0.5346551982,
				"element": "C" 
			},
			{
				"x": 0.1792115428,
				"y": 0.9402200203,
				"z": 0.2986874754,
				"element": "N" 
			},
			{
				"x": 1.3150062763,
				"y": 1.1643999797,
				"z": -0.4187448673,
				"element": "C" 
			},
			{
				"x": 2.1336662303,
				"y": 0.108519425,
				"z": -0.9382382492,
				"element": "C" 
			},
			{
				"x": 3.3037457076,
				"y": 0.4118138029,
				"z": -1.6772944802,
				"element": "C" 
			},
			{
				"x": 3.6321428539,
				"y": 1.7295257527,
				"z": -1.8823372361,
				"element": "C" 
			},
			{
				"x": 5.0776601688,
				"y": 2.1341028767,
				"z": -2.7953441328,
				"element": "Cl" 
			},
			{
				"x": 2.8392655901,
				"y": 2.7857793221,
				"z": -1.3790864348,
				"element": "C" 
			},
			{
				"x": 1.6934849016,
				"y": 2.5262077535,
				"z": -0.6553407908,
				"element": "C" 
			},
			{
				"x": 0.8394264509,
				"y": 3.6414815509,
				"z": -0.1133027042,
				"element": "C" 
			},
			{
				"x": 1.6850764349,
				"y": -1.2131482181,
				"z": -0.6571574571,
				"element": "C" 
			},
			{
				"x": 2.5974108318,
				"y": -2.5954073363,
				"z": -1.2363122215,
				"element": "Cl" 
			},
			{
				"x": 0.5398240633,
				"y": -1.4256256821,
				"z": 0.0662917663,
				"element": "C" 
			},
			{
				"x": -2.1991321358,
				"y": -1.0852059831,
				"z": 0.7548031481,
				"element": "H" 
			},
			{
				"x": -1.2569455065,
				"y": -1.0881505224,
				"z": 2.2455602384,
				"element": "H" 
			},
			{
				"x": -1.8892299894,
				"y": 0.4470038051,
				"z": 1.6050943607,
				"element": "H" 
			},
			{
				"x": 3.92292855,
				"y": -0.3843521556,
				"z": -2.0702509032,
				"element": "H" 
			},
			{
				"x": 3.1443329997,
				"y": 3.8092714241,
				"z": -1.5699170846,
				"element": "H" 
			},
			{
				"x": 0.7551164679,
				"y": 3.5752161723,
				"z": 0.9757221505,
				"element": "H" 
			},
			{
				"x": 1.2574494643,
				"y": 4.6164693967,
				"z": -0.3760752642,
				"element": "H" 
			},
			{
				"x": -0.1807651332,
				"y": 3.5776708143,
				"z": -0.5039448821,
				"element": "H" 
			},
			{
				"x": 0.2001451882,
				"y": -2.4330963943,
				"z": 0.2790954138,
				"element": "H" 
			}
		],
		 "valence_orbital": [ 
			{
				"type": "occ",
				"energy": -0.3148,
				"method": "rhf"
			},
			{
				"type": "occ",
				"energy": -0.29043,
				"method": "rhf"
			},
			{
				"type": "occ",
				"energy": -0.26504,
				"method": "rhf"
			},
			{
				"type": "occ",
				"energy": -0.25624,
				"method": "rhf"
			},
			{
				"type": "occ",
				"energy": -0.23339,
				"method": "rhf"
			},
			{
				"type": "unocc",
				"energy": -0.06403,
				"method": "rhf"
			},
			{
				"type": "unocc",
				"energy": -0.0313,
				"method": "rhf"
			},
			{
				"type": "unocc",
				"energy": 0.01148,
				"method": "rhf"
			},
			{
				"type": "unocc",
				"energy": 0.01959,
				"method": "rhf"
			},
			{
				"type": "unocc",
				"energy": 0.02917,
				"method": "rhf"
			}
		],
		"cosmo_sigma_profile": { 
			"-0.025": 0.0,
			"-0.024": 0.0,
			"-0.023": 0.0,
			"-0.022": 0.0,
			"-0.021": 0.0,
			"-0.02": 0.0,
			"-0.019": 0.0,
			"-0.018": 0.0,
			"-0.017": 0.0,
			"-0.016": 0.0,
			"-0.015": 0.0,
			"-0.014": 0.0,
			"-0.013": 0.0,
			"-0.012": 0.0,
			"-0.011": 0.0,
			"-0.01": 0.0,
			"-0.009": 0.0298660781593,
			"-0.008": 1.34621494136,
			"-0.007": 3.4635818971,
			"-0.006": 6.02346670761,
			"-0.005": 12.2739983849,
			"-0.004": 15.0136154606,
			"-0.003": 16.1482069723,
			"-0.002": 18.7733297255,
			"-0.001": 28.0785979633,
			"0.0": 37.8066258192,
			"0.001": 33.2631549015,
			"0.002": 24.8458671726,
			"0.003": 16.8588750689,
			"0.004": 16.7703747576,
			"0.005": 7.29711746312,
			"0.006": 1.80080052371,
			"0.007": 1.67045369622,
			"0.008": 0.936690965547,
			"0.009": 0.999866673796,
			"0.01": 1.48995295248,
			"0.011": 0.751365891977,
			"0.012": 0.623379196479,
			"0.013": 0.0,
			"0.014": 0.0,
			"0.015": 0.0,
			"0.016": 0.0,
			"0.017": 0.0,
			"0.018": 0.0,
			"0.019": 0.0,
			"0.02": 0.0,
			"0.021": 0.0,
			"0.022": 0.0,
			"0.023": 0.0,
			"0.024": 0.0,
			"0.025": 0.0
		}
	}
}
