{
	 "smiles": "NC1=NC2=C(S1)C=CC=C2OCC(F)(F)F", 
	 "Tm": 444.15, 
	 "num_atms": 23, 
	 "gaussian": { 
		 "optdone": 1, 
		 "sigma_profile": "yes", 
		 "theory": "DFT", 
		 "functional": "B3LYP", 
		 "basiset": "6-31G**", 
		 "properties": { 
			 "R2extent": 4389.5313, 
			 "electric_dipole_moment_norm": 1.84199757329, 
			 "electric_quadrupole_moment_norm": 17.5643954843, 
			 "total_energy": -1229.61070013, 
			 "HOMO_LUMO_gap": 0.19671, 
			 "cosmo_polarized_energy": -15.29, 
			 "cosmo_cavitation_energy": 30.7, 
			 "cosmo_dispersion_energy": -21.94, 
			 "cosmo_repulsion_energy": 1.62, 
			 "cosmo_total_nonelectrostatic_energy": 10.38, 
			 "SMD_solvation_energy": 4.71 
		},
		"coords": [
			{
				"x": 2.5377220001,
				"y": 1.9710971711,
				"z": -1.1418017404,
				"element": "N" 
			},
			{
				"x": 1.538514123,
				"y": 1.3129559801,
				"z": -0.4757949722,
				"element": "C" 
			},
			{
				"x": 0.4275906827,
				"y": 0.9362368053,
				"z": -1.0236340313,
				"element": "N" 
			},
			{
				"x": -0.3458994213,
				"y": 0.2320959744,
				"z": -0.1188414395,
				"element": "C" 
			},
			{
				"x": 0.1940954564,
				"y": 0.0736224384,
				"z": 1.1810393762,
				"element": "C" 
			},
			{
				"x": 1.7776099631,
				"y": 0.8466407831,
				"z": 1.2363762705,
				"element": "S" 
			},
			{
				"x": -0.4767331429,
				"y": -0.6106010108,
				"z": 2.192889822,
				"element": "C" 
			},
			{
				"x": -1.7292492463,
				"y": -1.1479302268,
				"z": 1.8967263868,
				"element": "C" 
			},
			{
				"x": -2.2936781977,
				"y": -0.9983895924,
				"z": 0.6231380633,
				"element": "C" 
			},
			{
				"x": -1.6109889006,
				"y": -0.3198941778,
				"z": -0.3847102926,
				"element": "C" 
			},
			{
				"x": -2.1812669829,
				"y": -0.1059809952,
				"z": -1.6255088588,
				"element": "O" 
			},
			{
				"x": -2.4060696805,
				"y": -1.2373426461,
				"z": -2.4403841445,
				"element": "C" 
			},
			{
				"x": -1.191755043,
				"y": -1.5734094446,
				"z": -3.2973326841,
				"element": "C" 
			},
			{
				"x": -0.8331007037,
				"y": -0.5501490023,
				"z": -4.0883020512,
				"element": "F" 
			},
			{
				"x": -0.1268674275,
				"y": -1.9160567164,
				"z": -2.5481347639,
				"element": "F" 
			},
			{
				"x": -1.4939549521,
				"y": -2.6290027144,
				"z": -4.0924655678,
				"element": "F" 
			},
			{
				"x": 3.1472906262,
				"y": 2.5709636677,
				"z": -0.6061881209,
				"element": "H" 
			},
			{
				"x": 2.2534590839,
				"y": 2.3399997583,
				"z": -2.0395539036,
				"element": "H" 
			},
			{
				"x": -0.04281662,
				"y": -0.722873389,
				"z": 3.1808277024,
				"element": "H" 
			},
			{
				"x": -2.2803334722,
				"y": -1.6802137985,
				"z": 2.6657248951,
				"element": "H" 
			},
			{
				"x": -3.2817894268,
				"y": -1.3969698906,
				"z": 0.413925885,
				"element": "H" 
			},
			{
				"x": -3.232388925,
				"y": -0.997977781,
				"z": -3.1145640646,
				"element": "H" 
			},
			{
				"x": -2.6654897929,
				"y": -2.1290211925,
				"z": -1.8588317658,
				"element": "H" 
			}
		],
		 "valence_orbital": [ 
			{
				"type": "occ",
				"energy": -0.29757,
				"method": "rhf"
			},
			{
				"type": "occ",
				"energy": -0.28357,
				"method": "rhf"
			},
			{
				"type": "occ",
				"energy": -0.27484,
				"method": "rhf"
			},
			{
				"type": "occ",
				"energy": -0.2282,
				"method": "rhf"
			},
			{
				"type": "occ",
				"energy": -0.21237,
				"method": "rhf"
			},
			{
				"type": "unocc",
				"energy": -0.01566,
				"method": "rhf"
			},
			{
				"type": "unocc",
				"energy": -0.00383,
				"method": "rhf"
			},
			{
				"type": "unocc",
				"energy": 0.00052,
				"method": "rhf"
			},
			{
				"type": "unocc",
				"energy": 0.04468,
				"method": "rhf"
			},
			{
				"type": "unocc",
				"energy": 0.06728,
				"method": "rhf"
			}
		],
		"cosmo_sigma_profile": { 
			"-0.025": 0.0,
			"-0.024": 0.0,
			"-0.023": 0.0,
			"-0.022": 0.0,
			"-0.021": 0.0,
			"-0.02": 0.0,
			"-0.019": 0.0,
			"-0.018": 0.0,
			"-0.017": 0.0,
			"-0.016": 0.0054913284755,
			"-0.015": 1.02993810081,
			"-0.014": 2.5705809273,
			"-0.013": 2.90534302924,
			"-0.012": 2.61878640173,
			"-0.011": 2.80782559959,
			"-0.01": 2.30646600487,
			"-0.009": 3.10755781572,
			"-0.008": 5.73659756684,
			"-0.007": 10.4876995934,
			"-0.006": 12.1262943318,
			"-0.005": 12.5920264966,
			"-0.004": 9.88845683344,
			"-0.003": 9.09122971922,
			"-0.002": 8.11892579011,
			"-0.001": 10.1984278109,
			"0.0": 12.6639644096,
			"0.001": 15.5302453055,
			"0.002": 26.66434279,
			"0.003": 41.4946016826,
			"0.004": 18.3359079366,
			"0.005": 12.061167982,
			"0.006": 4.87344036202,
			"0.007": 4.41049754421,
			"0.008": 3.50970570122,
			"0.009": 4.20708751381,
			"0.01": 3.9596735995,
			"0.011": 1.6176356898,
			"0.012": 1.30003477474,
			"0.013": 1.20534162133,
			"0.014": 0.448616128283,
			"0.015": 0.0474553448328,
			"0.016": 0.0,
			"0.017": 0.0,
			"0.018": 0.0,
			"0.019": 0.0,
			"0.02": 0.0,
			"0.021": 0.0,
			"0.022": 0.0,
			"0.023": 0.0,
			"0.024": 0.0,
			"0.025": 0.0
		}
	}
}
