{
	 "smiles": "OC(=O)C1=CC2=C(C=C1)S(=O)(=O)NC2=O", 
	 "Tm": 553.15, 
	 "num_atms": 20, 
	 "gaussian": { 
		 "optdone": 1, 
		 "sigma_profile": "yes", 
		 "theory": "DFT", 
		 "functional": "B3LYP", 
		 "basiset": "6-31G**", 
		 "properties": { 
			 "R2extent": 3958.3398, 
			 "electric_dipole_moment_norm": 2.78795431275, 
			 "electric_quadrupole_moment_norm": 3.25176622315, 
			 "total_energy": -1136.87106264, 
			 "HOMO_LUMO_gap": 0.19547, 
			 "cosmo_polarized_energy": -20.35, 
			 "cosmo_cavitation_energy": 27.51, 
			 "cosmo_dispersion_energy": -20.85, 
			 "cosmo_repulsion_energy": 1.57, 
			 "cosmo_total_nonelectrostatic_energy": 8.23, 
			 "SMD_solvation_energy": 5.91 
		},
		"coords": [
			{
				"x": -3.3030399717,
				"y": -0.0016494943,
				"z": -1.3309263705,
				"element": "O" 
			},
			{
				"x": -2.7782080824,
				"y": 1.0498028619,
				"z": -0.6644491372,
				"element": "C" 
			},
			{
				"x": -3.3170733968,
				"y": 2.1355689663,
				"z": -0.612668813,
				"element": "O" 
			},
			{
				"x": -1.4762258443,
				"y": 0.7245576705,
				"z": -0.0082816501,
				"element": "C" 
			},
			{
				"x": -0.8984585771,
				"y": -0.5486254756,
				"z": -0.1009113827,
				"element": "C" 
			},
			{
				"x": 0.3156294053,
				"y": -0.767758027,
				"z": 0.5397170723,
				"element": "C" 
			},
			{
				"x": 0.929317383,
				"y": 0.2619876664,
				"z": 1.2514612752,
				"element": "C" 
			},
			{
				"x": 0.3755810822,
				"y": 1.5314531006,
				"z": 1.3568451648,
				"element": "C" 
			},
			{
				"x": -0.8432817787,
				"y": 1.7502157355,
				"z": 0.7132727199,
				"element": "C" 
			},
			{
				"x": 2.4725439091,
				"y": -0.2944240049,
				"z": 1.9709146834,
				"element": "S" 
			},
			{
				"x": 2.3916484346,
				"y": -0.3623808547,
				"z": 3.4278497598,
				"element": "O" 
			},
			{
				"x": 3.6213577307,
				"y": 0.3495950056,
				"z": 1.3390620424,
				"element": "O" 
			},
			{
				"x": 2.2367549634,
				"y": -1.8566502523,
				"z": 1.2998934949,
				"element": "N" 
			},
			{
				"x": 1.0788105249,
				"y": -2.0520713891,
				"z": 0.552537041,
				"element": "C" 
			},
			{
				"x": 0.7631379295,
				"y": -3.0924349594,
				"z": 0.0137628058,
				"element": "O" 
			},
			{
				"x": -4.1388431033,
				"y": 0.3076626581,
				"z": -1.7179480643,
				"element": "H" 
			},
			{
				"x": -1.3755059382,
				"y": -1.348962593,
				"z": -0.6540824567,
				"element": "H" 
			},
			{
				"x": 0.8660359369,
				"y": 2.3218268411,
				"z": 1.9144895618,
				"element": "H" 
			},
			{
				"x": -1.328055485,
				"y": 2.7194214621,
				"z": 0.7573062055,
				"element": "H" 
			},
			{
				"x": 2.9136748778,
				"y": -2.594434918,
				"z": 1.4502560477,
				"element": "H" 
			}
		],
		 "valence_orbital": [ 
			{
				"type": "occ",
				"energy": -0.3044,
				"method": "rhf"
			},
			{
				"type": "occ",
				"energy": -0.30265,
				"method": "rhf"
			},
			{
				"type": "occ",
				"energy": -0.29913,
				"method": "rhf"
			},
			{
				"type": "occ",
				"energy": -0.29583,
				"method": "rhf"
			},
			{
				"type": "occ",
				"energy": -0.29264,
				"method": "rhf"
			},
			{
				"type": "unocc",
				"energy": -0.09717,
				"method": "rhf"
			},
			{
				"type": "unocc",
				"energy": -0.0728,
				"method": "rhf"
			},
			{
				"type": "unocc",
				"energy": -0.00934,
				"method": "rhf"
			},
			{
				"type": "unocc",
				"energy": 0.02554,
				"method": "rhf"
			},
			{
				"type": "unocc",
				"energy": 0.02852,
				"method": "rhf"
			}
		],
		"cosmo_sigma_profile": { 
			"-0.025": 0.0,
			"-0.024": 0.0,
			"-0.023": 0.0,
			"-0.022": 0.0,
			"-0.021": 0.0,
			"-0.02": 0.0334923918014,
			"-0.019": 0.847703010445,
			"-0.018": 2.54401957821,
			"-0.017": 2.52949514278,
			"-0.016": 1.90352546553,
			"-0.015": 2.44675815949,
			"-0.014": 1.15135210803,
			"-0.013": 0.630718535896,
			"-0.012": 1.7952993794,
			"-0.011": 2.54418340625,
			"-0.01": 3.20351011248,
			"-0.009": 4.9932908904,
			"-0.008": 5.63252771562,
			"-0.007": 6.36071184389,
			"-0.006": 6.60700625497,
			"-0.005": 7.93122049584,
			"-0.004": 11.1877074082,
			"-0.003": 15.9976970431,
			"-0.002": 22.6376040728,
			"-0.001": 18.2088150817,
			"0.0": 8.9215740662,
			"0.001": 7.31303821927,
			"0.002": 7.14956344612,
			"0.003": 5.88733426927,
			"0.004": 6.53269974165,
			"0.005": 4.3012717019,
			"0.006": 6.4238608794,
			"0.007": 6.2016698793,
			"0.008": 8.0826490522,
			"0.009": 17.7602315238,
			"0.01": 13.950671371,
			"0.011": 9.24263149638,
			"0.012": 0.929659157695,
			"0.013": 0.0,
			"0.014": 0.0,
			"0.015": 0.0,
			"0.016": 0.0,
			"0.017": 0.0,
			"0.018": 0.0,
			"0.019": 0.0,
			"0.02": 0.0,
			"0.021": 0.0,
			"0.022": 0.0,
			"0.023": 0.0,
			"0.024": 0.0,
			"0.025": 0.0
		}
	}
}
