{
	 "smiles": "CCN(CC)C1=CC(O)=CC=C1", 
	 "Tm": 351.15, 
	 "num_atms": 27, 
	 "gaussian": { 
		 "optdone": 1, 
		 "sigma_profile": "yes", 
		 "theory": "DFT", 
		 "functional": "B3LYP", 
		 "basiset": "6-31G**", 
		 "properties": { 
			 "R2extent": 3135.4267, 
			 "electric_dipole_moment_norm": 3.09202736243, 
			 "electric_quadrupole_moment_norm": 12.6120963678, 
			 "total_energy": -520.077054488, 
			 "HOMO_LUMO_gap": 0.19844, 
			 "cosmo_polarized_energy": -9.96, 
			 "cosmo_cavitation_energy": 28.35, 
			 "cosmo_dispersion_energy": -20.59, 
			 "cosmo_repulsion_energy": 1.64, 
			 "cosmo_total_nonelectrostatic_energy": 9.4, 
			 "SMD_solvation_energy": 4.87 
		},
		"coords": [
			{
				"x": 0.1401276669,
				"y": -1.6807615667,
				"z": -0.9561880282,
				"element": "C" 
			},
			{
				"x": 1.0759691882,
				"y": -0.4851308274,
				"z": -1.1913663175,
				"element": "C" 
			},
			{
				"x": 1.4971429629,
				"y": 0.2217513744,
				"z": 0.0144188268,
				"element": "N" 
			},
			{
				"x": 2.7767763621,
				"y": -0.1452157213,
				"z": 0.6100390094,
				"element": "C" 
			},
			{
				"x": 2.6990710777,
				"y": -1.1723829155,
				"z": 1.7507867459,
				"element": "C" 
			},
			{
				"x": 0.6515157184,
				"y": 1.1373947164,
				"z": 0.6358176099,
				"element": "C" 
			},
			{
				"x": 1.032515125,
				"y": 1.7926427701,
				"z": 1.830092012,
				"element": "C" 
			},
			{
				"x": 0.2018254178,
				"y": 2.7425745693,
				"z": 2.4276093596,
				"element": "C" 
			},
			{
				"x": 0.5657263877,
				"y": 3.3861367722,
				"z": 3.5801519861,
				"element": "O" 
			},
			{
				"x": -1.0387059034,
				"y": 3.0711878754,
				"z": 1.8755391274,
				"element": "C" 
			},
			{
				"x": -1.4223504271,
				"y": 2.4173988575,
				"z": 0.7083467768,
				"element": "C" 
			},
			{
				"x": -0.6124096797,
				"y": 1.4665915495,
				"z": 0.0910784326,
				"element": "C" 
			},
			{
				"x": -0.7647028038,
				"y": -1.37529964,
				"z": -0.4237330775,
				"element": "H" 
			},
			{
				"x": -0.1590252987,
				"y": -2.1234055597,
				"z": -1.9130034272,
				"element": "H" 
			},
			{
				"x": 0.6326751689,
				"y": -2.4576562292,
				"z": -0.3637478784,
				"element": "H" 
			},
			{
				"x": 0.6027578163,
				"y": 0.2276089472,
				"z": -1.876784704,
				"element": "H" 
			},
			{
				"x": 1.9827427174,
				"y": -0.8297680752,
				"z": -1.6994792437,
				"element": "H" 
			},
			{
				"x": 3.4073704527,
				"y": -0.5437487865,
				"z": -0.1915723691,
				"element": "H" 
			},
			{
				"x": 3.2827936957,
				"y": 0.7625821427,
				"z": 0.9607912621,
				"element": "H" 
			},
			{
				"x": 2.0483355799,
				"y": -0.8218530775,
				"z": 2.5567351587,
				"element": "H" 
			},
			{
				"x": 2.3037138431,
				"y": -2.1280308489,
				"z": 1.3941008194,
				"element": "H" 
			},
			{
				"x": 3.6957267582,
				"y": -1.3534773804,
				"z": 2.1691123742,
				"element": "H" 
			},
			{
				"x": 1.9803470925,
				"y": 1.5685784653,
				"z": 2.3074399384,
				"element": "H" 
			},
			{
				"x": 1.4374271041,
				"y": 3.07240036,
				"z": 3.8529082306,
				"element": "H" 
			},
			{
				"x": -1.6675108436,
				"y": 3.8073297614,
				"z": 2.362652474,
				"element": "H" 
			},
			{
				"x": -2.3855014957,
				"y": 2.649634672,
				"z": 0.261521506,
				"element": "H" 
			},
			{
				"x": -0.9696536832,
				"y": 0.9865177951,
				"z": -0.8100666044,
				"element": "H" 
			}
		],
		 "valence_orbital": [ 
			{
				"type": "occ",
				"energy": -0.33043,
				"method": "rhf"
			},
			{
				"type": "occ",
				"energy": -0.32846,
				"method": "rhf"
			},
			{
				"type": "occ",
				"energy": -0.26922,
				"method": "rhf"
			},
			{
				"type": "occ",
				"energy": -0.21529,
				"method": "rhf"
			},
			{
				"type": "occ",
				"energy": -0.18075,
				"method": "rhf"
			},
			{
				"type": "unocc",
				"energy": 0.01769,
				"method": "rhf"
			},
			{
				"type": "unocc",
				"energy": 0.03312,
				"method": "rhf"
			},
			{
				"type": "unocc",
				"energy": 0.07337,
				"method": "rhf"
			},
			{
				"type": "unocc",
				"energy": 0.08146,
				"method": "rhf"
			},
			{
				"type": "unocc",
				"energy": 0.10715,
				"method": "rhf"
			}
		],
		"cosmo_sigma_profile": { 
			"-0.025": 0.0,
			"-0.024": 0.0,
			"-0.023": 0.0,
			"-0.022": 0.0,
			"-0.021": 0.0,
			"-0.02": 0.0,
			"-0.019": 0.0,
			"-0.018": 0.00912815255248,
			"-0.017": 0.671729372829,
			"-0.016": 1.25660165218,
			"-0.015": 0.714939362093,
			"-0.014": 1.38611351695,
			"-0.013": 1.03655066488,
			"-0.012": 0.694207200808,
			"-0.011": 0.761392778541,
			"-0.01": 0.790804349516,
			"-0.009": 1.27212274925,
			"-0.008": 1.14220473811,
			"-0.007": 1.00579183875,
			"-0.006": 2.1378674684,
			"-0.005": 9.44288325987,
			"-0.004": 16.1184525525,
			"-0.003": 24.1408681934,
			"-0.002": 27.3675480752,
			"-0.001": 24.6818569452,
			"0.0": 18.7907720467,
			"0.001": 18.5696234016,
			"0.002": 10.3653284999,
			"0.003": 8.50386699009,
			"0.004": 7.90455180042,
			"0.005": 10.492260154,
			"0.006": 11.1499454726,
			"0.007": 10.0042835472,
			"0.008": 5.00198129086,
			"0.009": 1.55322668561,
			"0.01": 1.60402128428,
			"0.011": 1.73411132476,
			"0.012": 1.99820955304,
			"0.013": 0.113046106916,
			"0.014": 0.0,
			"0.015": 0.0,
			"0.016": 0.0,
			"0.017": 0.0,
			"0.018": 0.0,
			"0.019": 0.0,
			"0.02": 0.0,
			"0.021": 0.0,
			"0.022": 0.0,
			"0.023": 0.0,
			"0.024": 0.0,
			"0.025": 0.0
		}
	}
}
