{
	 "smiles": "COC1=CC2=C(CCC3=C2SC(N)=N3)C=C1", 
	 "Tm": 453.15, 
	 "num_atms": 28, 
	 "gaussian": { 
		 "optdone": 1, 
		 "sigma_profile": "yes", 
		 "theory": "DFT", 
		 "functional": "B3LYP", 
		 "basiset": "6-31G**", 
		 "properties": { 
			 "R2extent": 4507.8982, 
			 "electric_dipole_moment_norm": 2.65310754211, 
			 "electric_quadrupole_moment_norm": 14.799758768, 
			 "total_energy": -1047.4276258, 
			 "HOMO_LUMO_gap": 0.15532, 
			 "cosmo_polarized_energy": -12.95, 
			 "cosmo_cavitation_energy": 32.38, 
			 "cosmo_dispersion_energy": -24.61, 
			 "cosmo_repulsion_energy": 1.87, 
			 "cosmo_total_nonelectrostatic_energy": 9.64, 
			 "SMD_solvation_energy": 3.51 
		},
		"coords": [
			{
				"x": -0.5116907369,
				"y": -4.5235828256,
				"z": 1.1923320911,
				"element": "C" 
			},
			{
				"x": -0.6590376596,
				"y": -3.5340761926,
				"z": 2.1963084267,
				"element": "O" 
			},
			{
				"x": -0.5286365294,
				"y": -2.2216307426,
				"z": 1.8364559133,
				"element": "C" 
			},
			{
				"x": -0.2467511635,
				"y": -1.7830292102,
				"z": 0.5396688826,
				"element": "C" 
			},
			{
				"x": -0.1319834399,
				"y": -0.4087635303,
				"z": 0.2695004501,
				"element": "C" 
			},
			{
				"x": -0.3008216369,
				"y": 0.5384360967,
				"z": 1.3052983914,
				"element": "C" 
			},
			{
				"x": -0.2637529396,
				"y": 2.0191337574,
				"z": 0.9737602335,
				"element": "C" 
			},
			{
				"x": 0.7483659195,
				"y": 2.3686880098,
				"z": -0.1315539199,
				"element": "C" 
			},
			{
				"x": 0.612755895,
				"y": 1.4024236785,
				"z": -1.2761204058,
				"element": "C" 
			},
			{
				"x": 0.1894143798,
				"y": 0.1181547875,
				"z": -1.0501559335,
				"element": "C" 
			},
			{
				"x": 0.208805729,
				"y": -0.7712283828,
				"z": -2.5711254487,
				"element": "S" 
			},
			{
				"x": 0.8166567607,
				"y": 0.6981726324,
				"z": -3.353432086,
				"element": "C" 
			},
			{
				"x": 1.0135626574,
				"y": 0.7409549439,
				"z": -4.7142254813,
				"element": "N" 
			},
			{
				"x": 0.9708329351,
				"y": 1.7257854114,
				"z": -2.565511857,
				"element": "N" 
			},
			{
				"x": -0.5727925288,
				"y": 0.0710796516,
				"z": 2.5926202259,
				"element": "C" 
			},
			{
				"x": -0.6872685302,
				"y": -1.2884071163,
				"z": 2.8694263821,
				"element": "C" 
			},
			{
				"x": -1.2594431778,
				"y": -4.4102271684,
				"z": 0.3963723506,
				"element": "H" 
			},
			{
				"x": -0.661500465,
				"y": -5.4833738358,
				"z": 1.6897067704,
				"element": "H" 
			},
			{
				"x": 0.4908372893,
				"y": -4.5034222322,
				"z": 0.7448498598,
				"element": "H" 
			},
			{
				"x": -0.0989558386,
				"y": -2.4937469708,
				"z": -0.2652303649,
				"element": "H" 
			},
			{
				"x": -0.0551752424,
				"y": 2.6020765137,
				"z": 1.876897001,
				"element": "H" 
			},
			{
				"x": -1.2640203819,
				"y": 2.3242070249,
				"z": 0.6298179636,
				"element": "H" 
			},
			{
				"x": 1.7755000147,
				"y": 2.3222369589,
				"z": 0.26072311,
				"element": "H" 
			},
			{
				"x": 0.5946664709,
				"y": 3.3918185868,
				"z": -0.4878188515,
				"element": "H" 
			},
			{
				"x": 1.3165350244,
				"y": -0.111988689,
				"z": -5.1621878517,
				"element": "H" 
			},
			{
				"x": 1.5180941206,
				"y": 1.5658493758,
				"z": -5.0122075311,
				"element": "H" 
			},
			{
				"x": -0.703704148,
				"y": 0.7883588633,
				"z": 3.3995430519,
				"element": "H" 
			},
			{
				"x": -0.8981927778,
				"y": -1.648499396,
				"z": 3.8706886276,
				"element": "H" 
			}
		],
		 "valence_orbital": [ 
			{
				"type": "occ",
				"energy": -0.27351,
				"method": "rhf"
			},
			{
				"type": "occ",
				"energy": -0.27038,
				"method": "rhf"
			},
			{
				"type": "occ",
				"energy": -0.25152,
				"method": "rhf"
			},
			{
				"type": "occ",
				"energy": -0.21766,
				"method": "rhf"
			},
			{
				"type": "occ",
				"energy": -0.18368,
				"method": "rhf"
			},
			{
				"type": "unocc",
				"energy": -0.02836,
				"method": "rhf"
			},
			{
				"type": "unocc",
				"energy": 0.01045,
				"method": "rhf"
			},
			{
				"type": "unocc",
				"energy": 0.01686,
				"method": "rhf"
			},
			{
				"type": "unocc",
				"energy": 0.03087,
				"method": "rhf"
			},
			{
				"type": "unocc",
				"energy": 0.06754,
				"method": "rhf"
			}
		],
		"cosmo_sigma_profile": { 
			"-0.025": 0.0,
			"-0.024": 0.0,
			"-0.023": 0.0,
			"-0.022": 0.0,
			"-0.021": 0.0,
			"-0.02": 0.0,
			"-0.019": 0.0,
			"-0.018": 0.0,
			"-0.017": 0.0,
			"-0.016": 0.0,
			"-0.015": 0.626190159427,
			"-0.014": 2.12101844316,
			"-0.013": 2.23335476518,
			"-0.012": 2.85784251461,
			"-0.011": 2.71518663779,
			"-0.01": 2.38716753993,
			"-0.009": 1.29974344667,
			"-0.008": 1.82373983015,
			"-0.007": 1.92994336297,
			"-0.006": 6.26969515337,
			"-0.005": 16.3865909156,
			"-0.004": 21.6395407783,
			"-0.003": 24.0948451119,
			"-0.002": 21.5967870654,
			"-0.001": 17.2732915762,
			"0.0": 16.792743063,
			"0.001": 13.0586943896,
			"0.002": 16.6282563178,
			"0.003": 19.6157786682,
			"0.004": 20.4845330087,
			"0.005": 16.3920346461,
			"0.006": 11.4601434202,
			"0.007": 3.61387196419,
			"0.008": 2.67368121486,
			"0.009": 3.69457204424,
			"0.01": 3.3662250729,
			"0.011": 2.23962019873,
			"0.012": 1.40717385955,
			"0.013": 0.911443423289,
			"0.014": 0.662680863482,
			"0.015": 0.742808299518,
			"0.016": 0.210721415765,
			"0.017": 0.0,
			"0.018": 0.0,
			"0.019": 0.0,
			"0.02": 0.0,
			"0.021": 0.0,
			"0.022": 0.0,
			"0.023": 0.0,
			"0.024": 0.0,
			"0.025": 0.0
		}
	}
}
