{
	 "smiles": "CC1(CC(C1)C(=N/O)C1=CC2=C(O1)C=CC(Br)=C2)C1=CC=CC=C1", 
	 "Tm": 407.15, 
	 "num_atms": 42, 
	 "gaussian": { 
		 "optdone": 1, 
		 "sigma_profile": "yes", 
		 "theory": "DFT", 
		 "functional": "B3LYP", 
		 "basiset": "6-31G**", 
		 "properties": { 
			 "R2extent": 14803.5395, 
			 "electric_dipole_moment_norm": 2.45867481786, 
			 "electric_quadrupole_moment_norm": 16.6963688498, 
			 "total_energy": -3549.49739899, 
			 "HOMO_LUMO_gap": 0.15913, 
			 "cosmo_polarized_energy": -10.49, 
			 "cosmo_cavitation_energy": 47.62, 
			 "cosmo_dispersion_energy": -32.3, 
			 "cosmo_repulsion_energy": 2.46, 
			 "cosmo_total_nonelectrostatic_energy": 17.78, 
			 "SMD_solvation_energy": 6.77 
		},
		"coords": [
			{
				"x": 1.9839671322,
				"y": -2.5343112554,
				"z": 1.2511256415,
				"element": "C" 
			},
			{
				"x": 0.9291424879,
				"y": -1.526347055,
				"z": 0.7608208247,
				"element": "C" 
			},
			{
				"x": 1.498529367,
				"y": -0.5829385723,
				"z": -0.350318051,
				"element": "C" 
			},
			{
				"x": 1.750522348,
				"y": 0.5116542018,
				"z": 0.7327909485,
				"element": "C" 
			},
			{
				"x": 0.8276534736,
				"y": -0.2842587047,
				"z": 1.7072580749,
				"element": "C" 
			},
			{
				"x": 1.4416431788,
				"y": 1.9536832576,
				"z": 0.4226389035,
				"element": "C" 
			},
			{
				"x": 2.2728537671,
				"y": 2.9364849302,
				"z": 0.5495087304,
				"element": "N" 
			},
			{
				"x": 3.5271656001,
				"y": 2.5373775141,
				"z": 1.01511896,
				"element": "O" 
			},
			{
				"x": 0.1235721291,
				"y": 2.3756645214,
				"z": -0.0665600665,
				"element": "C" 
			},
			{
				"x": -0.3783981218,
				"y": 3.6013583894,
				"z": -0.4056743608,
				"element": "C" 
			},
			{
				"x": -1.737444059,
				"y": 3.3884013003,
				"z": -0.816989458,
				"element": "C" 
			},
			{
				"x": -1.9582994016,
				"y": 2.0031490328,
				"z": -0.6900249164,
				"element": "C" 
			},
			{
				"x": -0.8276328319,
				"y": 1.3873050634,
				"z": -0.2340322998,
				"element": "O" 
			},
			{
				"x": -3.1619496587,
				"y": 1.3800019979,
				"z": -0.991744813,
				"element": "C" 
			},
			{
				"x": -4.1937642866,
				"y": 2.2003109767,
				"z": -1.4446189476,
				"element": "C" 
			},
			{
				"x": -3.9920678671,
				"y": 3.5862722273,
				"z": -1.5778264853,
				"element": "C" 
			},
			{
				"x": -5.4506576062,
				"y": 4.6589478167,
				"z": -2.2051034813,
				"element": "Br" 
			},
			{
				"x": -2.7858549116,
				"y": 4.2043009044,
				"z": -1.2746313719,
				"element": "C" 
			},
			{
				"x": -0.3687707287,
				"y": -2.2472499198,
				"z": 0.442149708,
				"element": "C" 
			},
			{
				"x": -0.605024222,
				"y": -2.7734362501,
				"z": -0.8356881483,
				"element": "C" 
			},
			{
				"x": -1.7822385347,
				"y": -3.4667634465,
				"z": -1.1219747581,
				"element": "C" 
			},
			{
				"x": -2.7480271459,
				"y": -3.6497535582,
				"z": -0.1304679917,
				"element": "C" 
			},
			{
				"x": -2.5231348919,
				"y": -3.1368442064,
				"z": 1.148454487,
				"element": "C" 
			},
			{
				"x": -1.3442467693,
				"y": -2.4442660816,
				"z": 1.4296605038,
				"element": "C" 
			},
			{
				"x": 2.9306365106,
				"y": -2.0347369782,
				"z": 1.4871118283,
				"element": "H" 
			},
			{
				"x": 1.6386473151,
				"y": -3.0504099348,
				"z": 2.1533986701,
				"element": "H" 
			},
			{
				"x": 2.1821088245,
				"y": -3.2927172485,
				"z": 0.4860934503,
				"element": "H" 
			},
			{
				"x": 0.7365825742,
				"y": -0.2921874697,
				"z": -1.0738161346,
				"element": "H" 
			},
			{
				"x": 2.3871492548,
				"y": -0.9318644185,
				"z": -0.8855680993,
				"element": "H" 
			},
			{
				"x": 2.7831216556,
				"y": 0.4704361813,
				"z": 1.0753979538,
				"element": "H" 
			},
			{
				"x": -0.1846143946,
				"y": 0.1180128663,
				"z": 1.7516081406,
				"element": "H" 
			},
			{
				"x": 1.2097266871,
				"y": -0.4075921126,
				"z": 2.7254495334,
				"element": "H" 
			},
			{
				"x": 4.0049237953,
				"y": 3.3766814787,
				"z": 1.048122903,
				"element": "H" 
			},
			{
				"x": 0.1669627261,
				"y": 4.5314937933,
				"z": -0.3617637671,
				"element": "H" 
			},
			{
				"x": -3.289155254,
				"y": 0.3088757259,
				"z": -0.8793725691,
				"element": "H" 
			},
			{
				"x": -5.157593367,
				"y": 1.7745420396,
				"z": -1.6966646575,
				"element": "H" 
			},
			{
				"x": -2.6648691002,
				"y": 5.2750872421,
				"z": -1.3888636503,
				"element": "H" 
			},
			{
				"x": 0.1371206925,
				"y": -2.6353756557,
				"z": -1.6178724396,
				"element": "H" 
			},
			{
				"x": -1.9456812143,
				"y": -3.8617142512,
				"z": -2.1210392936,
				"element": "H" 
			},
			{
				"x": -3.666174408,
				"y": -4.1862537503,
				"z": -0.3521129191,
				"element": "H" 
			},
			{
				"x": -3.2671572255,
				"y": -3.2732966774,
				"z": 1.9286108655,
				"element": "H" 
			},
			{
				"x": -1.1833735192,
				"y": -2.0474239142,
				"z": 2.4288085525,
				"element": "H" 
			}
		],
		 "valence_orbital": [ 
			{
				"type": "occ",
				"energy": -0.27114,
				"method": "rhf"
			},
			{
				"type": "occ",
				"energy": -0.24769,
				"method": "rhf"
			},
			{
				"type": "occ",
				"energy": -0.23772,
				"method": "rhf"
			},
			{
				"type": "occ",
				"energy": -0.23368,
				"method": "rhf"
			},
			{
				"type": "occ",
				"energy": -0.2141,
				"method": "rhf"
			},
			{
				"type": "unocc",
				"energy": -0.05497,
				"method": "rhf"
			},
			{
				"type": "unocc",
				"energy": -0.00303,
				"method": "rhf"
			},
			{
				"type": "unocc",
				"energy": 9e-05,
				"method": "rhf"
			},
			{
				"type": "unocc",
				"energy": 0.0015,
				"method": "rhf"
			},
			{
				"type": "unocc",
				"energy": 0.00885,
				"method": "rhf"
			}
		],
		"cosmo_sigma_profile": { 
			"-0.025": 0.0,
			"-0.024": 0.0,
			"-0.023": 0.0,
			"-0.022": 0.0,
			"-0.021": 0.0,
			"-0.02": 0.0,
			"-0.019": 0.0,
			"-0.018": 0.449845655064,
			"-0.017": 1.11398980268,
			"-0.016": 0.970733804456,
			"-0.015": 0.694080014464,
			"-0.014": 1.04604895383,
			"-0.013": 0.506799172893,
			"-0.012": 0.137273288322,
			"-0.011": 0.750099220399,
			"-0.01": 1.06366621582,
			"-0.009": 0.638543222245,
			"-0.008": 1.59580994867,
			"-0.007": 5.55958007079,
			"-0.006": 8.66262353499,
			"-0.005": 15.3112360225,
			"-0.004": 21.1669561537,
			"-0.003": 33.7979575732,
			"-0.002": 40.2011515117,
			"-0.001": 36.5936150313,
			"0.0": 36.4951781983,
			"0.001": 32.652341506,
			"0.002": 34.3567988296,
			"0.003": 36.4610660054,
			"0.004": 31.9597206967,
			"0.005": 20.2741357612,
			"0.006": 7.89957286494,
			"0.007": 5.31812218779,
			"0.008": 3.24935011744,
			"0.009": 2.70147130912,
			"0.01": 0.879388856585,
			"0.011": 0.0,
			"0.012": 0.0,
			"0.013": 0.0,
			"0.014": 0.0,
			"0.015": 0.0,
			"0.016": 0.0,
			"0.017": 0.0,
			"0.018": 0.0,
			"0.019": 0.0,
			"0.02": 0.0,
			"0.021": 0.0,
			"0.022": 0.0,
			"0.023": 0.0,
			"0.024": 0.0,
			"0.025": 0.0
		}
	}
}
