{
	 "smiles": "ClC1=CC=C(C=C1)C1NN=C2C1CCC1=C2C=CC=C1", 
	 "Tm": 455.15, 
	 "num_atms": 35, 
	 "gaussian": { 
		 "optdone": 1, 
		 "sigma_profile": "yes", 
		 "theory": "DFT", 
		 "functional": "B3LYP", 
		 "basiset": "6-31G**", 
		 "properties": { 
			 "R2extent": 9294.7698, 
			 "electric_dipole_moment_norm": 2.28719264165, 
			 "electric_quadrupole_moment_norm": 10.3670006593, 
			 "total_energy": -1226.52536967, 
			 "HOMO_LUMO_gap": 0.17332, 
			 "cosmo_polarized_energy": -11.18, 
			 "cosmo_cavitation_energy": 39.46, 
			 "cosmo_dispersion_energy": -28.34, 
			 "cosmo_repulsion_energy": 2.16, 
			 "cosmo_total_nonelectrostatic_energy": 13.28, 
			 "SMD_solvation_energy": 3.83 
		},
		"coords": [
			{
				"x": 5.8087278117,
				"y": 2.8294954868,
				"z": 0.0726292872,
				"element": "Cl" 
			},
			{
				"x": 4.221705421,
				"y": 2.2681020852,
				"z": -0.4377027162,
				"element": "C" 
			},
			{
				"x": 3.1682768714,
				"y": 3.1785289314,
				"z": -0.5313204216,
				"element": "C" 
			},
			{
				"x": 1.9135443353,
				"y": 2.7286039628,
				"z": -0.937266784,
				"element": "C" 
			},
			{
				"x": 1.6978320388,
				"y": 1.3795129987,
				"z": -1.2523764192,
				"element": "C" 
			},
			{
				"x": 2.7758836423,
				"y": 0.4911802707,
				"z": -1.1618851916,
				"element": "C" 
			},
			{
				"x": 4.0379782271,
				"y": 0.9233774281,
				"z": -0.7516952967,
				"element": "C" 
			},
			{
				"x": 0.3283643927,
				"y": 0.8771238763,
				"z": -1.6465036264,
				"element": "C" 
			},
			{
				"x": -0.4355934262,
				"y": 1.8389116146,
				"z": -2.4787164174,
				"element": "N" 
			},
			{
				"x": -1.8016939516,
				"y": 1.535820597,
				"z": -2.369336977,
				"element": "N" 
			},
			{
				"x": -1.9731673967,
				"y": 0.8918884677,
				"z": -1.2662312873,
				"element": "C" 
			},
			{
				"x": -0.6815841609,
				"y": 0.6854166531,
				"z": -0.4905289328,
				"element": "C" 
			},
			{
				"x": -0.6436662275,
				"y": -0.6136343763,
				"z": 0.3424143246,
				"element": "C" 
			},
			{
				"x": -1.809732106,
				"y": -1.5666306737,
				"z": -0.0015087053,
				"element": "C" 
			},
			{
				"x": -3.1509876081,
				"y": -0.8629883562,
				"z": -0.0595622797,
				"element": "C" 
			},
			{
				"x": -3.2359597902,
				"y": 0.3629005727,
				"z": -0.7577190647,
				"element": "C" 
			},
			{
				"x": -4.4749951597,
				"y": 0.9929322413,
				"z": -0.9344932639,
				"element": "C" 
			},
			{
				"x": -5.6289971641,
				"y": 0.4210768161,
				"z": -0.4032648437,
				"element": "C" 
			},
			{
				"x": -5.5488119226,
				"y": -0.7790722556,
				"z": 0.3088889454,
				"element": "C" 
			},
			{
				"x": -4.3169624005,
				"y": -1.4162851779,
				"z": 0.4744276363,
				"element": "C" 
			},
			{
				"x": 3.3318301747,
				"y": 4.2239294069,
				"z": -0.2933500958,
				"element": "H" 
			},
			{
				"x": 1.0904552313,
				"y": 3.4295236579,
				"z": -1.0309223671,
				"element": "H" 
			},
			{
				"x": 2.6340886943,
				"y": -0.5553021248,
				"z": -1.420270666,
				"element": "H" 
			},
			{
				"x": 4.8683825237,
				"y": 0.2292687054,
				"z": -0.6842396904,
				"element": "H" 
			},
			{
				"x": 0.4366937555,
				"y": -0.0890708575,
				"z": -2.1730144949,
				"element": "H" 
			},
			{
				"x": -0.1727066435,
				"y": 1.8523143192,
				"z": -3.4591062222,
				"element": "H" 
			},
			{
				"x": -0.572749109,
				"y": 1.5491150057,
				"z": 0.1828862523,
				"element": "H" 
			},
			{
				"x": -0.7025240811,
				"y": -0.357364018,
				"z": 1.4050342157,
				"element": "H" 
			},
			{
				"x": 0.3126588602,
				"y": -1.1316560817,
				"z": 0.2037138548,
				"element": "H" 
			},
			{
				"x": -1.6160648192,
				"y": -2.0225271102,
				"z": -0.9836685551,
				"element": "H" 
			},
			{
				"x": -1.842502582,
				"y": -2.3912485696,
				"z": 0.7182781942,
				"element": "H" 
			},
			{
				"x": -4.5155807894,
				"y": 1.9307456705,
				"z": -1.4796926726,
				"element": "H" 
			},
			{
				"x": -6.5883355253,
				"y": 0.9129038405,
				"z": -0.5356346433,
				"element": "H" 
			},
			{
				"x": -6.4462424684,
				"y": -1.2206840898,
				"z": 0.73282384,
				"element": "H" 
			},
			{
				"x": -4.2631646479,
				"y": -2.3591089174,
				"z": 1.0135150842,
				"element": "H" 
			}
		],
		 "valence_orbital": [ 
			{
				"type": "occ",
				"energy": -0.26501,
				"method": "rhf"
			},
			{
				"type": "occ",
				"energy": -0.2645,
				"method": "rhf"
			},
			{
				"type": "occ",
				"energy": -0.24563,
				"method": "rhf"
			},
			{
				"type": "occ",
				"energy": -0.24002,
				"method": "rhf"
			},
			{
				"type": "occ",
				"energy": -0.20744,
				"method": "rhf"
			},
			{
				"type": "unocc",
				"energy": -0.03412,
				"method": "rhf"
			},
			{
				"type": "unocc",
				"energy": -0.01675,
				"method": "rhf"
			},
			{
				"type": "unocc",
				"energy": -0.01556,
				"method": "rhf"
			},
			{
				"type": "unocc",
				"energy": -0.00129,
				"method": "rhf"
			},
			{
				"type": "unocc",
				"energy": 0.02943,
				"method": "rhf"
			}
		],
		"cosmo_sigma_profile": { 
			"-0.025": 0.0,
			"-0.024": 0.0,
			"-0.023": 0.0,
			"-0.022": 0.0,
			"-0.021": 0.0,
			"-0.02": 0.0,
			"-0.019": 0.0,
			"-0.018": 0.0,
			"-0.017": 0.0,
			"-0.016": 0.0,
			"-0.015": 0.0,
			"-0.014": 0.0,
			"-0.013": 0.226438326507,
			"-0.012": 1.14966407182,
			"-0.011": 1.4424697695,
			"-0.01": 1.02102980211,
			"-0.009": 0.997023880508,
			"-0.008": 1.08290155429,
			"-0.007": 3.75964761876,
			"-0.006": 11.0788778734,
			"-0.005": 22.5779510108,
			"-0.004": 30.0287532856,
			"-0.003": 29.8924514002,
			"-0.002": 25.7979754984,
			"-0.001": 25.0355873468,
			"0.0": 21.2985221951,
			"0.001": 21.431670724,
			"0.002": 22.9532171319,
			"0.003": 24.7370384841,
			"0.004": 28.9929892636,
			"0.005": 20.8882543158,
			"0.006": 7.35598139479,
			"0.007": 1.77963125507,
			"0.008": 1.56410091286,
			"0.009": 2.60633638346,
			"0.01": 2.5509403436,
			"0.011": 2.09987869067,
			"0.012": 1.1422775363,
			"0.013": 0.618303455526,
			"0.014": 0.919401036105,
			"0.015": 0.719414405254,
			"0.016": 0.132609920236,
			"0.017": 0.0,
			"0.018": 0.0,
			"0.019": 0.0,
			"0.02": 0.0,
			"0.021": 0.0,
			"0.022": 0.0,
			"0.023": 0.0,
			"0.024": 0.0,
			"0.025": 0.0
		}
	}
}
