{
	 "smiles": "COC(=O)C1=C(C=CC=C1)S(=O)(=O)NC(=O)NC1=NC(OC)=NC(C)=N1", 
	 "Tm": 435.15, 
	 "num_atms": 41, 
	 "gaussian": { 
		 "optdone": 1, 
		 "sigma_profile": "yes", 
		 "theory": "DFT", 
		 "functional": "B3LYP", 
		 "basiset": "6-31G**", 
		 "properties": { 
			 "R2extent": 10123.6651, 
			 "electric_dipole_moment_norm": 4.41122467009, 
			 "electric_quadrupole_moment_norm": 18.1654475169, 
			 "total_energy": -1665.78028907, 
			 "HOMO_LUMO_gap": 0.18872, 
			 "cosmo_polarized_energy": -24.11, 
			 "cosmo_cavitation_energy": 47.93, 
			 "cosmo_dispersion_energy": -31.96, 
			 "cosmo_repulsion_energy": 2.38, 
			 "cosmo_total_nonelectrostatic_energy": 18.34, 
			 "SMD_solvation_energy": 7.09 
		},
		"coords": [
			{
				"x": 1.1760316047,
				"y": 3.9893211202,
				"z": -2.9470851906,
				"element": "C" 
			},
			{
				"x": 0.8815163308,
				"y": 2.5904124104,
				"z": -2.729936204,
				"element": "O" 
			},
			{
				"x": 0.2971380418,
				"y": 1.9360598562,
				"z": -3.7564221333,
				"element": "C" 
			},
			{
				"x": 0.1781236891,
				"y": 2.4023358696,
				"z": -4.8663332852,
				"element": "O" 
			},
			{
				"x": -0.1131800929,
				"y": 0.5365222944,
				"z": -3.3958983894,
				"element": "C" 
			},
			{
				"x": -0.707656882,
				"y": 0.1238710156,
				"z": -2.1859531203,
				"element": "C" 
			},
			{
				"x": -1.0575907613,
				"y": -1.2121252572,
				"z": -1.9823123742,
				"element": "C" 
			},
			{
				"x": -0.7992241665,
				"y": -2.1608551364,
				"z": -2.9726729857,
				"element": "C" 
			},
			{
				"x": -0.2198942851,
				"y": -1.7664583796,
				"z": -4.1775186869,
				"element": "C" 
			},
			{
				"x": 0.1066659531,
				"y": -0.4279276259,
				"z": -4.387504876,
				"element": "C" 
			},
			{
				"x": -1.2538761243,
				"y": 1.2646665554,
				"z": -0.8917927313,
				"element": "S" 
			},
			{
				"x": -2.0797864018,
				"y": 0.5246259116,
				"z": 0.0591679261,
				"element": "O" 
			},
			{
				"x": -1.7790006948,
				"y": 2.4725062224,
				"z": -1.5319267644,
				"element": "O" 
			},
			{
				"x": 0.2566950214,
				"y": 1.6153049665,
				"z": -0.1369653389,
				"element": "N" 
			},
			{
				"x": 0.3372991688,
				"y": 2.4248661096,
				"z": 1.0158987128,
				"element": "C" 
			},
			{
				"x": 1.0093868716,
				"y": 3.4402590707,
				"z": 1.0208922026,
				"element": "O" 
			},
			{
				"x": -0.3946883463,
				"y": 2.027183583,
				"z": 2.1266691045,
				"element": "N" 
			},
			{
				"x": -0.6421462449,
				"y": 0.7631233425,
				"z": 2.6507634405,
				"element": "C" 
			},
			{
				"x": -0.0326575999,
				"y": -0.2984343957,
				"z": 2.1171975591,
				"element": "N" 
			},
			{
				"x": -0.3375361107,
				"y": -1.4444853895,
				"z": 2.7251217195,
				"element": "C" 
			},
			{
				"x": 0.220406414,
				"y": -2.5766180268,
				"z": 2.2909559462,
				"element": "O" 
			},
			{
				"x": 1.1660816962,
				"y": -2.4825267861,
				"z": 1.2174175908,
				"element": "C" 
			},
			{
				"x": -1.1579140739,
				"y": -1.5996385386,
				"z": 3.7736604341,
				"element": "N" 
			},
			{
				"x": -1.6761867932,
				"y": -0.4587991863,
				"z": 4.2347088279,
				"element": "C" 
			},
			{
				"x": -2.6003534671,
				"y": -0.5339278478,
				"z": 5.4155640649,
				"element": "C" 
			},
			{
				"x": -1.4468492199,
				"y": 0.7604840209,
				"z": 3.7165083769,
				"element": "N" 
			},
			{
				"x": 1.5128511235,
				"y": 4.3619334262,
				"z": -1.9803260341,
				"element": "H" 
			},
			{
				"x": 0.2735637916,
				"y": 4.5100380941,
				"z": -3.2704213784,
				"element": "H" 
			},
			{
				"x": 1.9552879771,
				"y": 4.0940877007,
				"z": -3.7044456021,
				"element": "H" 
			},
			{
				"x": -1.5521294292,
				"y": -1.4888821739,
				"z": -1.058335251,
				"element": "H" 
			},
			{
				"x": -1.0700178748,
				"y": -3.1986999672,
				"z": -2.8058107072,
				"element": "H" 
			},
			{
				"x": -0.0314374102,
				"y": -2.4955730966,
				"z": -4.9593354754,
				"element": "H" 
			},
			{
				"x": 0.5367435503,
				"y": -0.1022334923,
				"z": -5.3284093631,
				"element": "H" 
			},
			{
				"x": 0.849346143,
				"y": 2.0277366621,
				"z": -0.8596141271,
				"element": "H" 
			},
			{
				"x": -0.5760259732,
				"y": 2.777676072,
				"z": 2.7812685364,
				"element": "H" 
			},
			{
				"x": 0.7022945948,
				"y": -2.0729807942,
				"z": 0.3168823218,
				"element": "H" 
			},
			{
				"x": 2.010527614,
				"y": -1.84657342,
				"z": 1.4953596063,
				"element": "H" 
			},
			{
				"x": 1.5013112065,
				"y": -3.5054570557,
				"z": 1.0439298589,
				"element": "H" 
			},
			{
				"x": -2.3135290874,
				"y": 0.2072413957,
				"z": 6.1667773014,
				"element": "H" 
			},
			{
				"x": -2.5869394108,
				"y": -1.535307729,
				"z": 5.8459918389,
				"element": "H" 
			},
			{
				"x": -3.6209503422,
				"y": -0.291751401,
				"z": 5.099184649,
				"element": "H" 
			}
		],
		 "valence_orbital": [ 
			{
				"type": "occ",
				"energy": -0.28358,
				"method": "rhf"
			},
			{
				"type": "occ",
				"energy": -0.27986,
				"method": "rhf"
			},
			{
				"type": "occ",
				"energy": -0.27285,
				"method": "rhf"
			},
			{
				"type": "occ",
				"energy": -0.26731,
				"method": "rhf"
			},
			{
				"type": "occ",
				"energy": -0.2638,
				"method": "rhf"
			},
			{
				"type": "unocc",
				"energy": -0.07508,
				"method": "rhf"
			},
			{
				"type": "unocc",
				"energy": -0.0485,
				"method": "rhf"
			},
			{
				"type": "unocc",
				"energy": -0.04255,
				"method": "rhf"
			},
			{
				"type": "unocc",
				"energy": -0.02428,
				"method": "rhf"
			},
			{
				"type": "unocc",
				"energy": 0.00325,
				"method": "rhf"
			}
		],
		"cosmo_sigma_profile": { 
			"-0.025": 0.0,
			"-0.024": 0.0,
			"-0.023": 0.0,
			"-0.022": 0.0,
			"-0.021": 0.0,
			"-0.02": 0.0,
			"-0.019": 0.0,
			"-0.018": 0.0,
			"-0.017": 0.00066253423381,
			"-0.016": 0.476380978825,
			"-0.015": 1.03237962364,
			"-0.014": 0.637089585432,
			"-0.013": 0.772921540203,
			"-0.012": 0.972683914733,
			"-0.011": 0.540259192947,
			"-0.01": 0.921732274609,
			"-0.009": 1.49690342771,
			"-0.008": 7.24667784574,
			"-0.007": 14.2862251814,
			"-0.006": 23.5232005794,
			"-0.005": 27.5579641704,
			"-0.004": 35.1184353725,
			"-0.003": 34.7142969103,
			"-0.002": 31.0164195476,
			"-0.001": 30.267015567,
			"0.0": 26.5531767069,
			"0.001": 24.4027210321,
			"0.002": 13.9009271837,
			"0.003": 11.6137614833,
			"0.004": 10.7140055414,
			"0.005": 10.4900723343,
			"0.006": 10.6848580331,
			"0.007": 11.332911256,
			"0.008": 9.04382316035,
			"0.009": 11.5147292499,
			"0.01": 15.8974709173,
			"0.011": 11.3506476535,
			"0.012": 2.55521772226,
			"0.013": 1.60076011043,
			"0.014": 0.840443465596,
			"0.015": 0.495097997301,
			"0.016": 0.0,
			"0.017": 0.0,
			"0.018": 0.0,
			"0.019": 0.0,
			"0.02": 0.0,
			"0.021": 0.0,
			"0.022": 0.0,
			"0.023": 0.0,
			"0.024": 0.0,
			"0.025": 0.0
		}
	}
}
