{
	 "smiles": "O(C1=CC=CC=C1)C1=CC=CC=C1", 
	 "Tm": 300.55, 
	 "num_atms": 23, 
	 "gaussian": { 
		 "optdone": 1, 
		 "sigma_profile": "yes", 
		 "theory": "DFT", 
		 "functional": "B3LYP", 
		 "basiset": "6-31G**", 
		 "properties": { 
			 "R2extent": 2877.7036, 
			 "electric_dipole_moment_norm": 0.949160302583, 
			 "electric_quadrupole_moment_norm": 5.59379695556, 
			 "total_energy": -538.517770798, 
			 "HOMO_LUMO_gap": 0.20714, 
			 "cosmo_polarized_energy": -5.48, 
			 "cosmo_cavitation_energy": 27.05, 
			 "cosmo_dispersion_energy": -19.82, 
			 "cosmo_repulsion_energy": 1.57, 
			 "cosmo_total_nonelectrostatic_energy": 8.8, 
			 "SMD_solvation_energy": 4.84 
		},
		"coords": [
			{
				"x": 0.3585697245,
				"y": 0.8756015473,
				"z": -0.4087815624,
				"element": "O" 
			},
			{
				"x": 0.3714776798,
				"y": 0.2618477585,
				"z": 0.8287950739,
				"element": "C" 
			},
			{
				"x": 1.6200739852,
				"y": -0.125458168,
				"z": 1.3207211302,
				"element": "C" 
			},
			{
				"x": 1.7151720492,
				"y": -0.6784745666,
				"z": 2.5974149711,
				"element": "C" 
			},
			{
				"x": 0.571456905,
				"y": -0.8526577325,
				"z": 3.3798619824,
				"element": "C" 
			},
			{
				"x": -0.6712688083,
				"y": -0.4602349356,
				"z": 2.877862661,
				"element": "C" 
			},
			{
				"x": -0.7805038719,
				"y": 0.1023605178,
				"z": 1.6055823787,
				"element": "C" 
			},
			{
				"x": -0.6758030268,
				"y": 0.659211645,
				"z": -1.2985470363,
				"element": "C" 
			},
			{
				"x": -1.2648286084,
				"y": -0.5958506011,
				"z": -1.4822110509,
				"element": "C" 
			},
			{
				"x": -2.2534851567,
				"y": -0.7481745623,
				"z": -2.4550966367,
				"element": "C" 
			},
			{
				"x": -2.6481696365,
				"y": 0.3329113887,
				"z": -3.246202942,
				"element": "C" 
			},
			{
				"x": -2.0445715402,
				"y": 1.5784131445,
				"z": -3.0590075088,
				"element": "C" 
			},
			{
				"x": -1.0612005577,
				"y": 1.7474964278,
				"z": -2.0847316626,
				"element": "C" 
			},
			{
				"x": 2.4957396236,
				"y": 0.0172885457,
				"z": 0.6961475734,
				"element": "H" 
			},
			{
				"x": 2.687345995,
				"y": -0.9782325167,
				"z": 2.9781421168,
				"element": "H" 
			},
			{
				"x": 0.6476931141,
				"y": -1.2875223494,
				"z": 4.3717030974,
				"element": "H" 
			},
			{
				"x": -1.5656829788,
				"y": -0.5838062182,
				"z": 3.481972082,
				"element": "H" 
			},
			{
				"x": -1.7435251879,
				"y": 0.4173164824,
				"z": 1.2186903031,
				"element": "H" 
			},
			{
				"x": -0.949821263,
				"y": -1.4370410885,
				"z": -0.8743796493,
				"element": "H" 
			},
			{
				"x": -2.7109707038,
				"y": -1.7230074996,
				"z": -2.5986252444,
				"element": "H" 
			},
			{
				"x": -3.4166266585,
				"y": 0.2050694408,
				"z": -4.0023754222,
				"element": "H" 
			},
			{
				"x": -2.3421081087,
				"y": 2.4260167126,
				"z": -3.6697219844,
				"element": "H" 
			},
			{
				"x": -0.5806629689,
				"y": 2.7066266275,
				"z": -1.9222126699,
				"element": "H" 
			}
		],
		 "valence_orbital": [ 
			{
				"type": "occ",
				"energy": -0.32467,
				"method": "rhf"
			},
			{
				"type": "occ",
				"energy": -0.25615,
				"method": "rhf"
			},
			{
				"type": "occ",
				"energy": -0.25068,
				"method": "rhf"
			},
			{
				"type": "occ",
				"energy": -0.24786,
				"method": "rhf"
			},
			{
				"type": "occ",
				"energy": -0.21644,
				"method": "rhf"
			},
			{
				"type": "unocc",
				"energy": -0.0093,
				"method": "rhf"
			},
			{
				"type": "unocc",
				"energy": -0.00333,
				"method": "rhf"
			},
			{
				"type": "unocc",
				"energy": 0.00288,
				"method": "rhf"
			},
			{
				"type": "unocc",
				"energy": 0.01455,
				"method": "rhf"
			},
			{
				"type": "unocc",
				"energy": 0.08925,
				"method": "rhf"
			}
		],
		"cosmo_sigma_profile": { 
			"-0.025": 0.0,
			"-0.024": 0.0,
			"-0.023": 0.0,
			"-0.022": 0.0,
			"-0.021": 0.0,
			"-0.02": 0.0,
			"-0.019": 0.0,
			"-0.018": 0.0,
			"-0.017": 0.0,
			"-0.016": 0.0,
			"-0.015": 0.0,
			"-0.014": 0.0,
			"-0.013": 0.0,
			"-0.012": 0.0,
			"-0.011": 0.0,
			"-0.01": 0.0,
			"-0.009": 0.0,
			"-0.008": 0.0,
			"-0.007": 0.629794804397,
			"-0.006": 12.3012991773,
			"-0.005": 20.2873648098,
			"-0.004": 20.4156573279,
			"-0.003": 19.6787872201,
			"-0.002": 14.2120626926,
			"-0.001": 14.6754148533,
			"0.0": 13.2856401646,
			"0.001": 15.1251756273,
			"0.002": 14.978329609,
			"0.003": 20.2271189464,
			"0.004": 19.2382298653,
			"0.005": 20.508189737,
			"0.006": 7.7192837791,
			"0.007": 1.38435971936,
			"0.008": 1.1660592009,
			"0.009": 1.12729961577,
			"0.01": 0.207493511692,
			"0.011": 0.0,
			"0.012": 0.0,
			"0.013": 0.0,
			"0.014": 0.0,
			"0.015": 0.0,
			"0.016": 0.0,
			"0.017": 0.0,
			"0.018": 0.0,
			"0.019": 0.0,
			"0.02": 0.0,
			"0.021": 0.0,
			"0.022": 0.0,
			"0.023": 0.0,
			"0.024": 0.0,
			"0.025": 0.0
		}
	}
}
