{
	 "smiles": "NC(=S)NC(N)=S", 
	 "Tm": 455.15, 
	 "num_atms": 12, 
	 "gaussian": { 
		 "optdone": 1, 
		 "sigma_profile": "yes", 
		 "theory": "DFT", 
		 "functional": "B3LYP", 
		 "basiset": "6-31G**", 
		 "properties": { 
			 "R2extent": 2469.682, 
			 "electric_dipole_moment_norm": 7.80590497572, 
			 "electric_quadrupole_moment_norm": 18.9285287159, 
			 "total_energy": -1039.85865901, 
			 "HOMO_LUMO_gap": 0.1386, 
			 "cosmo_polarized_energy": -32.79, 
			 "cosmo_cavitation_energy": 19.77, 
			 "cosmo_dispersion_energy": -15.69, 
			 "cosmo_repulsion_energy": 1.26, 
			 "cosmo_total_nonelectrostatic_energy": 5.34, 
			 "SMD_solvation_energy": 2.11 
		},
		"coords": [
			{
				"x": -0.8142862832,
				"y": 1.1461616994,
				"z": 1.4789414695,
				"element": "N" 
			},
			{
				"x": 0.3891519138,
				"y": 0.5045944082,
				"z": 1.6855447119,
				"element": "C" 
			},
			{
				"x": 1.8131009217,
				"y": 1.3370769279,
				"z": 1.7854919572,
				"element": "S" 
			},
			{
				"x": 0.1742951044,
				"y": -0.8653666579,
				"z": 1.837085368,
				"element": "N" 
			},
			{
				"x": 1.0401652406,
				"y": -1.9535534604,
				"z": 1.9469530355,
				"element": "C" 
			},
			{
				"x": 0.3178433312,
				"y": -3.1285480621,
				"z": 1.9327805162,
				"element": "N" 
			},
			{
				"x": 2.6818255921,
				"y": -1.9435589617,
				"z": 2.1352833205,
				"element": "S" 
			},
			{
				"x": -1.5407886032,
				"y": 0.6750674567,
				"z": 0.953030915,
				"element": "H" 
			},
			{
				"x": -0.7190996849,
				"y": 2.1332824449,
				"z": 1.2866568511,
				"element": "H" 
			},
			{
				"x": -0.7962134762,
				"y": -1.1043566435,
				"z": 2.0069973483,
				"element": "H" 
			},
			{
				"x": 0.894181408,
				"y": -3.9581721678,
				"z": 1.9338612255,
				"element": "H" 
			},
			{
				"x": -0.5173754641,
				"y": -3.1875269837,
				"z": 1.3624732813,
				"element": "H" 
			}
		],
		 "valence_orbital": [ 
			{
				"type": "occ",
				"energy": -0.29834,
				"method": "rhf"
			},
			{
				"type": "occ",
				"energy": -0.24113,
				"method": "rhf"
			},
			{
				"type": "occ",
				"energy": -0.23813,
				"method": "rhf"
			},
			{
				"type": "occ",
				"energy": -0.2292,
				"method": "rhf"
			},
			{
				"type": "occ",
				"energy": -0.19111,
				"method": "rhf"
			},
			{
				"type": "unocc",
				"energy": -0.05251,
				"method": "rhf"
			},
			{
				"type": "unocc",
				"energy": 0.00256,
				"method": "rhf"
			},
			{
				"type": "unocc",
				"energy": 0.03126,
				"method": "rhf"
			},
			{
				"type": "unocc",
				"energy": 0.06765,
				"method": "rhf"
			},
			{
				"type": "unocc",
				"energy": 0.08697,
				"method": "rhf"
			}
		],
		"cosmo_sigma_profile": { 
			"-0.025": 0.0,
			"-0.024": 0.0,
			"-0.023": 0.0,
			"-0.022": 0.0,
			"-0.021": 0.0,
			"-0.02": 0.0298863679414,
			"-0.019": 1.52766416651,
			"-0.018": 2.05902029939,
			"-0.017": 2.09579960892,
			"-0.016": 3.16917782296,
			"-0.015": 3.94568005075,
			"-0.014": 5.21335201843,
			"-0.013": 4.58997548917,
			"-0.012": 4.81231879397,
			"-0.011": 5.03538036055,
			"-0.01": 4.03369801853,
			"-0.009": 2.41197178435,
			"-0.008": 2.70507528059,
			"-0.007": 3.37732226239,
			"-0.006": 3.35186282326,
			"-0.005": 2.12296911398,
			"-0.004": 3.77940392843,
			"-0.003": 3.7525608174,
			"-0.002": 4.02162573824,
			"-0.001": 3.98148117538,
			"0.0": 4.20593092784,
			"0.001": 3.42065737839,
			"0.002": 5.10705000081,
			"0.003": 7.83712916177,
			"0.004": 8.55191080561,
			"0.005": 7.42782064206,
			"0.006": 8.16494444196,
			"0.007": 9.28137397368,
			"0.008": 12.6327841687,
			"0.009": 10.3073237594,
			"0.01": 7.12292995044,
			"0.011": 4.46086256977,
			"0.012": 2.44100792357,
			"0.013": 1.78865271134,
			"0.014": 1.88582129124,
			"0.015": 1.05022925767,
			"0.016": 0.0476746466495,
			"0.017": 0.0,
			"0.018": 0.0,
			"0.019": 0.0,
			"0.02": 0.0,
			"0.021": 0.0,
			"0.022": 0.0,
			"0.023": 0.0,
			"0.024": 0.0,
			"0.025": 0.0
		}
	}
}
