{
	 "smiles": "CC1=CC(C)=C(SC2=C(N)C=C(Cl)C=C2)C=C1", 
	 "Tm": 360.15, 
	 "num_atms": 31, 
	 "gaussian": { 
		 "optdone": 1, 
		 "sigma_profile": "yes", 
		 "theory": "DFT", 
		 "functional": "B3LYP", 
		 "basiset": "6-31G**", 
		 "properties": { 
			 "R2extent": 6812.0463, 
			 "electric_dipole_moment_norm": 2.29921104294, 
			 "electric_quadrupole_moment_norm": 10.2599367488, 
			 "total_energy": -1455.07941812, 
			 "HOMO_LUMO_gap": 0.18367, 
			 "cosmo_polarized_energy": -9.34, 
			 "cosmo_cavitation_energy": 37.43, 
			 "cosmo_dispersion_energy": -27.04, 
			 "cosmo_repulsion_energy": 2.08, 
			 "cosmo_total_nonelectrostatic_energy": 12.48, 
			 "SMD_solvation_energy": 5.71 
		},
		"coords": [
			{
				"x": 2.0408310793,
				"y": -4.3837736422,
				"z": -0.287427692,
				"element": "C" 
			},
			{
				"x": 1.6673576291,
				"y": -2.9200360197,
				"z": -0.275666414,
				"element": "C" 
			},
			{
				"x": 2.650843437,
				"y": -1.9247806304,
				"z": -0.3106993485,
				"element": "C" 
			},
			{
				"x": 2.3466527857,
				"y": -0.5593970515,
				"z": -0.3284739855,
				"element": "C" 
			},
			{
				"x": 3.4528050439,
				"y": 0.4672616704,
				"z": -0.367898236,
				"element": "C" 
			},
			{
				"x": 0.9876635259,
				"y": -0.182759785,
				"z": -0.3102282809,
				"element": "C" 
			},
			{
				"x": 0.6204229522,
				"y": 1.5851914785,
				"z": -0.3473595777,
				"element": "S" 
			},
			{
				"x": -1.1519749306,
				"y": 1.6800434961,
				"z": -0.1492419958,
				"element": "C" 
			},
			{
				"x": -1.7433595565,
				"y": 1.6042122475,
				"z": 1.1393084999,
				"element": "C" 
			},
			{
				"x": -0.9923582552,
				"y": 1.3051499018,
				"z": 2.2556718208,
				"element": "N" 
			},
			{
				"x": -3.1355725867,
				"y": 1.7891428669,
				"z": 1.2509541284,
				"element": "C" 
			},
			{
				"x": -3.8966059386,
				"y": 2.0427134879,
				"z": 0.1178334887,
				"element": "C" 
			},
			{
				"x": -5.6309819148,
				"y": 2.27235413,
				"z": 0.3007331353,
				"element": "Cl" 
			},
			{
				"x": -3.3304369801,
				"y": 2.1228300505,
				"z": -1.1553986758,
				"element": "C" 
			},
			{
				"x": -1.9547257617,
				"y": 1.9375545696,
				"z": -1.2664439625,
				"element": "C" 
			},
			{
				"x": -0.0095566633,
				"y": -1.1599248417,
				"z": -0.2769139141,
				"element": "C" 
			},
			{
				"x": 0.3301387166,
				"y": -2.5117618263,
				"z": -0.2560522943,
				"element": "C" 
			},
			{
				"x": 2.1286561693,
				"y": -4.7652946468,
				"z": -1.3127654787,
				"element": "H" 
			},
			{
				"x": 1.2870173887,
				"y": -4.9927686112,
				"z": 0.2208874667,
				"element": "H" 
			},
			{
				"x": 3.002747768,
				"y": -4.556661803,
				"z": 0.2051650256,
				"element": "H" 
			},
			{
				"x": 3.6989776121,
				"y": -2.2177514804,
				"z": -0.3220410055,
				"element": "H" 
			},
			{
				"x": 3.4060381536,
				"y": 1.146433646,
				"z": 0.4920441213,
				"element": "H" 
			},
			{
				"x": 3.3922107413,
				"y": 1.0925501363,
				"z": -1.2670595078,
				"element": "H" 
			},
			{
				"x": 4.4332157163,
				"y": -0.0158973965,
				"z": -0.3623050176,
				"element": "H" 
			},
			{
				"x": -1.3766270313,
				"y": 1.5729329277,
				"z": 3.1492500827,
				"element": "H" 
			},
			{
				"x": 0.0053594613,
				"y": 1.4446535154,
				"z": 2.1618889552,
				"element": "H" 
			},
			{
				"x": -3.6126093907,
				"y": 1.7310494583,
				"z": 2.2237302418,
				"element": "H" 
			},
			{
				"x": -3.9449450612,
				"y": 2.3232672049,
				"z": -2.0244648084,
				"element": "H" 
			},
			{
				"x": -1.4811754778,
				"y": 1.997957164,
				"z": -2.2411027009,
				"element": "H" 
			},
			{
				"x": -1.0536492327,
				"y": -0.8673710441,
				"z": -0.263747027,
				"element": "H" 
			},
			{
				"x": -0.4615593992,
				"y": -3.2564191731,
				"z": -0.2242770436,
				"element": "H" 
			}
		],
		 "valence_orbital": [ 
			{
				"type": "occ",
				"energy": -0.28064,
				"method": "rhf"
			},
			{
				"type": "occ",
				"energy": -0.24996,
				"method": "rhf"
			},
			{
				"type": "occ",
				"energy": -0.24053,
				"method": "rhf"
			},
			{
				"type": "occ",
				"energy": -0.216,
				"method": "rhf"
			},
			{
				"type": "occ",
				"energy": -0.20799,
				"method": "rhf"
			},
			{
				"type": "unocc",
				"energy": -0.02432,
				"method": "rhf"
			},
			{
				"type": "unocc",
				"energy": -0.00203,
				"method": "rhf"
			},
			{
				"type": "unocc",
				"energy": 0.00383,
				"method": "rhf"
			},
			{
				"type": "unocc",
				"energy": 0.00554,
				"method": "rhf"
			},
			{
				"type": "unocc",
				"energy": 0.02817,
				"method": "rhf"
			}
		],
		"cosmo_sigma_profile": { 
			"-0.025": 0.0,
			"-0.024": 0.0,
			"-0.023": 0.0,
			"-0.022": 0.0,
			"-0.021": 0.0,
			"-0.02": 0.0,
			"-0.019": 0.0,
			"-0.018": 0.0,
			"-0.017": 0.0,
			"-0.016": 0.0,
			"-0.015": 0.0,
			"-0.014": 0.14729661672,
			"-0.013": 1.57370701373,
			"-0.012": 1.48712411879,
			"-0.011": 2.25087626122,
			"-0.01": 2.83971967022,
			"-0.009": 2.55477674309,
			"-0.008": 2.64017869034,
			"-0.007": 3.93683214966,
			"-0.006": 6.47667311952,
			"-0.005": 11.2823001123,
			"-0.004": 20.9089032129,
			"-0.003": 23.3880853196,
			"-0.002": 22.053932868,
			"-0.001": 25.0230070519,
			"0.0": 33.2999899725,
			"0.001": 27.3680856815,
			"0.002": 25.2339374468,
			"0.003": 25.2702343958,
			"0.004": 25.4377560233,
			"0.005": 19.6162257099,
			"0.006": 11.6427014393,
			"0.007": 3.97756387779,
			"0.008": 1.30790626106,
			"0.009": 0.314849487104,
			"0.01": 0.830103591036,
			"0.011": 0.52220859869,
			"0.012": 0.0738374445409,
			"0.013": 0.0,
			"0.014": 0.0,
			"0.015": 0.0,
			"0.016": 0.0,
			"0.017": 0.0,
			"0.018": 0.0,
			"0.019": 0.0,
			"0.02": 0.0,
			"0.021": 0.0,
			"0.022": 0.0,
			"0.023": 0.0,
			"0.024": 0.0,
			"0.025": 0.0
		}
	}
}
