{
	 "smiles": "C[Si](C)(C)C#CC1=CC(=CC=C1)C#C[Si](C)(C)C", 
	 "Tm": 331.15, 
	 "num_atms": 40, 
	 "gaussian": { 
		 "optdone": 1, 
		 "sigma_profile": "yes", 
		 "theory": "DFT", 
		 "functional": "B3LYP", 
		 "basiset": "6-31G**", 
		 "properties": { 
			 "R2extent": 12196.5884, 
			 "electric_dipole_moment_norm": 0.184337435156, 
			 "electric_quadrupole_moment_norm": 10.9973133224, 
			 "total_energy": -1201.95627949, 
			 "HOMO_LUMO_gap": 0.18135, 
			 "cosmo_polarized_energy": -6.73, 
			 "cosmo_cavitation_energy": 48.98, 
			 "cosmo_dispersion_energy": -29.05, 
			 "cosmo_repulsion_energy": 2.61, 
			 "cosmo_total_nonelectrostatic_energy": 22.55, 
			 "SMD_solvation_energy": 12.89 
		},
		"coords": [
			{
				"x": 6.2903269448,
				"y": -0.1029230084,
				"z": 0.3782804152,
				"element": "C" 
			},
			{
				"x": 4.9243385032,
				"y": 1.2022744697,
				"z": 0.3690800005,
				"element": "Si" 
			},
			{
				"x": 5.3985168505,
				"y": 2.6342739212,
				"z": -0.7688075622,
				"element": "C" 
			},
			{
				"x": 4.6144338866,
				"y": 1.8371544985,
				"z": 2.1211990053,
				"element": "C" 
			},
			{
				"x": 3.3761676146,
				"y": 0.4312550289,
				"z": -0.2621224896,
				"element": "C" 
			},
			{
				"x": 2.3478765587,
				"y": -0.0778744189,
				"z": -0.6799722725,
				"element": "C" 
			},
			{
				"x": 1.1469318834,
				"y": -0.6758628308,
				"z": -1.1702609505,
				"element": "C" 
			},
			{
				"x": -0.1045567927,
				"y": -0.136980008,
				"z": -0.8280472468,
				"element": "C" 
			},
			{
				"x": -1.291202618,
				"y": -0.7180099594,
				"z": -1.305579704,
				"element": "C" 
			},
			{
				"x": -1.2142145571,
				"y": -1.8536949928,
				"z": -2.1363663302,
				"element": "C" 
			},
			{
				"x": 0.0258680369,
				"y": -2.3892456083,
				"z": -2.4765209391,
				"element": "C" 
			},
			{
				"x": 1.2015135713,
				"y": -1.8119821455,
				"z": -2.0022426,
				"element": "C" 
			},
			{
				"x": -2.5588847368,
				"y": -0.1627591446,
				"z": -0.9521267065,
				"element": "C" 
			},
			{
				"x": -3.6437540753,
				"y": 0.3102228155,
				"z": -0.6512249608,
				"element": "C" 
			},
			{
				"x": -5.2780927068,
				"y": 1.0254712781,
				"z": -0.1961003066,
				"element": "Si" 
			},
			{
				"x": -6.1318104768,
				"y": 1.6379520175,
				"z": -1.7665520131,
				"element": "C" 
			},
			{
				"x": -4.9977417607,
				"y": 2.4620740917,
				"z": 0.9980397118,
				"element": "C" 
			},
			{
				"x": -6.3199616509,
				"y": -0.3173553991,
				"z": 0.6293940666,
				"element": "C" 
			},
			{
				"x": 7.2302259249,
				"y": 0.3224327069,
				"z": 0.7484522086,
				"element": "H" 
			},
			{
				"x": 6.028306523,
				"y": -0.9480349352,
				"z": 1.0230497255,
				"element": "H" 
			},
			{
				"x": 6.4735745268,
				"y": -0.4940064042,
				"z": -0.627796663,
				"element": "H" 
			},
			{
				"x": 4.6112769141,
				"y": 3.3944415779,
				"z": -0.7999203935,
				"element": "H" 
			},
			{
				"x": 6.3183736449,
				"y": 3.1179039612,
				"z": -0.4202779462,
				"element": "H" 
			},
			{
				"x": 5.5691709433,
				"y": 2.2882347758,
				"z": -1.7933572115,
				"element": "H" 
			},
			{
				"x": 3.8138701354,
				"y": 2.583807858,
				"z": 2.1375666019,
				"element": "H" 
			},
			{
				"x": 5.517620087,
				"y": 2.305333962,
				"z": 2.5292076971,
				"element": "H" 
			},
			{
				"x": 4.3258406108,
				"y": 1.0229994667,
				"z": 2.7938083826,
				"element": "H" 
			},
			{
				"x": -0.1551727947,
				"y": 0.7368621339,
				"z": -0.1883899799,
				"element": "H" 
			},
			{
				"x": -2.1303147917,
				"y": -2.3026962841,
				"z": -2.5053707449,
				"element": "H" 
			},
			{
				"x": 0.0765600756,
				"y": -3.26462342,
				"z": -3.1172017862,
				"element": "H" 
			},
			{
				"x": 2.1677380827,
				"y": -2.2284931874,
				"z": -2.2667036494,
				"element": "H" 
			},
			{
				"x": -6.2878875372,
				"y": 0.8211871794,
				"z": -2.4787277183,
				"element": "H" 
			},
			{
				"x": -5.5370504194,
				"y": 2.4086492066,
				"z": -2.2673655508,
				"element": "H" 
			},
			{
				"x": -7.1115500746,
				"y": 2.0697606175,
				"z": -1.5317643315,
				"element": "H" 
			},
			{
				"x": -5.9520542925,
				"y": 2.9142649077,
				"z": 1.2915499688,
				"element": "H" 
			},
			{
				"x": -4.4910664613,
				"y": 2.1283149885,
				"z": 1.9093617751,
				"element": "H" 
			},
			{
				"x": -4.3831185514,
				"y": 3.2444488013,
				"z": 0.5411331993,
				"element": "H" 
			},
			{
				"x": -5.8352784561,
				"y": -0.6958259357,
				"z": 1.5351354254,
				"element": "H" 
			},
			{
				"x": -6.4802089165,
				"y": -1.1661298559,
				"z": -0.0433457462,
				"element": "H" 
			},
			{
				"x": -7.3031096478,
				"y": 0.0750772739,
				"z": 0.9137876195,
				"element": "H" 
			}
		],
		 "valence_orbital": [ 
			{
				"type": "occ",
				"energy": -0.28529,
				"method": "rhf"
			},
			{
				"type": "occ",
				"energy": -0.26423,
				"method": "rhf"
			},
			{
				"type": "occ",
				"energy": -0.25905,
				"method": "rhf"
			},
			{
				"type": "occ",
				"energy": -0.23776,
				"method": "rhf"
			},
			{
				"type": "occ",
				"energy": -0.22507,
				"method": "rhf"
			},
			{
				"type": "unocc",
				"energy": -0.04372,
				"method": "rhf"
			},
			{
				"type": "unocc",
				"energy": -0.02833,
				"method": "rhf"
			},
			{
				"type": "unocc",
				"energy": 0.02023,
				"method": "rhf"
			},
			{
				"type": "unocc",
				"energy": 0.03,
				"method": "rhf"
			},
			{
				"type": "unocc",
				"energy": 0.04275,
				"method": "rhf"
			}
		],
		"cosmo_sigma_profile": { 
			"-0.025": 0.0,
			"-0.024": 0.0,
			"-0.023": 0.0,
			"-0.022": 0.0,
			"-0.021": 0.0,
			"-0.02": 0.0,
			"-0.019": 0.0,
			"-0.018": 0.0,
			"-0.017": 0.0,
			"-0.016": 0.0,
			"-0.015": 0.0,
			"-0.014": 0.0,
			"-0.013": 0.0,
			"-0.012": 0.0,
			"-0.011": 0.0,
			"-0.01": 0.0,
			"-0.009": 0.0,
			"-0.008": 0.0,
			"-0.007": 4.04786240584,
			"-0.006": 7.68317299659,
			"-0.005": 8.21342542328,
			"-0.004": 25.207933835,
			"-0.003": 41.0769948968,
			"-0.002": 43.4449672761,
			"-0.001": 41.8751379469,
			"0.0": 38.3694262863,
			"0.001": 54.2335839088,
			"0.002": 43.2482984602,
			"0.003": 28.9931380513,
			"0.004": 13.694942143,
			"0.005": 10.6265385119,
			"0.006": 13.7616328948,
			"0.007": 7.02048296221,
			"0.008": 0.0,
			"0.009": 0.0,
			"0.01": 0.0,
			"0.011": 0.0,
			"0.012": 0.0,
			"0.013": 0.0,
			"0.014": 0.0,
			"0.015": 0.0,
			"0.016": 0.0,
			"0.017": 0.0,
			"0.018": 0.0,
			"0.019": 0.0,
			"0.02": 0.0,
			"0.021": 0.0,
			"0.022": 0.0,
			"0.023": 0.0,
			"0.024": 0.0,
			"0.025": 0.0
		}
	}
}
