{
	 "smiles": "CC1=CC=C(C=C1)C(=O)NC(CC(O)=O)C1=CC=CC=C1", 
	 "Tm": 464.15, 
	 "num_atms": 38, 
	 "gaussian": { 
		 "optdone": 1, 
		 "sigma_profile": "yes", 
		 "theory": "DFT", 
		 "functional": "B3LYP", 
		 "basiset": "6-31G**", 
		 "properties": { 
			 "R2extent": 7192.4392, 
			 "electric_dipole_moment_norm": 2.95092978398, 
			 "electric_quadrupole_moment_norm": 18.0659442446, 
			 "total_energy": -938.516436155, 
			 "HOMO_LUMO_gap": 0.2054, 
			 "cosmo_polarized_energy": -18.74, 
			 "cosmo_cavitation_energy": 41.98, 
			 "cosmo_dispersion_energy": -28.16, 
			 "cosmo_repulsion_energy": 2.2, 
			 "cosmo_total_nonelectrostatic_energy": 16.02, 
			 "SMD_solvation_energy": 8.83 
		},
		"coords": [
			{
				"x": -0.9191278798,
				"y": -5.2323674895,
				"z": 0.3967704384,
				"element": "C" 
			},
			{
				"x": -0.2450885976,
				"y": -3.8907434591,
				"z": 0.5566515278,
				"element": "C" 
			},
			{
				"x": 1.1543908289,
				"y": -3.7917544057,
				"z": 0.6089696491,
				"element": "C" 
			},
			{
				"x": 1.7818304125,
				"y": -2.5581434718,
				"z": 0.7403012232,
				"element": "C" 
			},
			{
				"x": 1.0280319993,
				"y": -1.3764833344,
				"z": 0.7978344332,
				"element": "C" 
			},
			{
				"x": -0.3699087549,
				"y": -1.4672168264,
				"z": 0.7622072805,
				"element": "C" 
			},
			{
				"x": -0.9928535398,
				"y": -2.7106267587,
				"z": 0.647623257,
				"element": "C" 
			},
			{
				"x": 1.7747060323,
				"y": -0.090759804,
				"z": 1.0061845052,
				"element": "C" 
			},
			{
				"x": 2.8050406636,
				"y": -0.0636305956,
				"z": 1.6733427227,
				"element": "O" 
			},
			{
				"x": 1.2699195088,
				"y": 1.0756788501,
				"z": 0.4658048814,
				"element": "N" 
			},
			{
				"x": 0.4195926599,
				"y": 1.2264360138,
				"z": -0.7102148979,
				"element": "C" 
			},
			{
				"x": 1.1698750434,
				"y": 1.9758820548,
				"z": -1.8510505295,
				"element": "C" 
			},
			{
				"x": 1.401935657,
				"y": 3.4565831984,
				"z": -1.6255177254,
				"element": "C" 
			},
			{
				"x": 1.998309227,
				"y": 3.7082534788,
				"z": -0.4269396165,
				"element": "O" 
			},
			{
				"x": 1.1284901153,
				"y": 4.3386896579,
				"z": -2.4040947814,
				"element": "O" 
			},
			{
				"x": -0.9319545565,
				"y": 1.8814108703,
				"z": -0.4151489881,
				"element": "C" 
			},
			{
				"x": -1.9551541745,
				"y": 1.8077433408,
				"z": -1.3717563404,
				"element": "C" 
			},
			{
				"x": -3.1888735861,
				"y": 2.415951092,
				"z": -1.1459987937,
				"element": "C" 
			},
			{
				"x": -3.4200607044,
				"y": 3.1087512121,
				"z": 0.0449039793,
				"element": "C" 
			},
			{
				"x": -2.4113749065,
				"y": 3.1813380593,
				"z": 1.0052056783,
				"element": "C" 
			},
			{
				"x": -1.1755172147,
				"y": 2.5705753228,
				"z": 0.7775787644,
				"element": "C" 
			},
			{
				"x": -1.9690713545,
				"y": -5.1923990735,
				"z": 0.7001162765,
				"element": "H" 
			},
			{
				"x": -0.8912955579,
				"y": -5.5662056959,
				"z": -0.6481126945,
				"element": "H" 
			},
			{
				"x": -0.4216365087,
				"y": -6.0033228136,
				"z": 0.9938321568,
				"element": "H" 
			},
			{
				"x": 1.7557874141,
				"y": -4.6962189524,
				"z": 0.5573298451,
				"element": "H" 
			},
			{
				"x": 2.8620842061,
				"y": -2.4872261121,
				"z": 0.8129179057,
				"element": "H" 
			},
			{
				"x": -0.9781305878,
				"y": -0.5730057566,
				"z": 0.855939237,
				"element": "H" 
			},
			{
				"x": -2.0786549142,
				"y": -2.7635809731,
				"z": 0.6371023286,
				"element": "H" 
			},
			{
				"x": 1.8555423832,
				"y": 1.8734781535,
				"z": 0.6864941749,
				"element": "H" 
			},
			{
				"x": 0.2283636774,
				"y": 0.2224486435,
				"z": -1.0984324414,
				"element": "H" 
			},
			{
				"x": 0.6069670259,
				"y": 1.8945761369,
				"z": -2.7822944988,
				"element": "H" 
			},
			{
				"x": 2.1441800189,
				"y": 1.4948589522,
				"z": -1.9995142559,
				"element": "H" 
			},
			{
				"x": 2.1029571753,
				"y": 4.6729485139,
				"z": -0.3672533689,
				"element": "H" 
			},
			{
				"x": -1.7887323256,
				"y": 1.2647034539,
				"z": -2.2995778413,
				"element": "H" 
			},
			{
				"x": -3.9705242734,
				"y": 2.3455918265,
				"z": -1.8970039462,
				"element": "H" 
			},
			{
				"x": -4.3810376342,
				"y": 3.582319797,
				"z": 0.2233606073,
				"element": "H" 
			},
			{
				"x": -2.584378128,
				"y": 3.7110173745,
				"z": 1.9377970045,
				"element": "H" 
			},
			{
				"x": -0.3995288502,
				"y": 2.6141495196,
				"z": 1.534442843,
				"element": "H" 
			}
		],
		 "valence_orbital": [ 
			{
				"type": "occ",
				"energy": -0.25644,
				"method": "rhf"
			},
			{
				"type": "occ",
				"energy": -0.25348,
				"method": "rhf"
			},
			{
				"type": "occ",
				"energy": -0.251,
				"method": "rhf"
			},
			{
				"type": "occ",
				"energy": -0.24921,
				"method": "rhf"
			},
			{
				"type": "occ",
				"energy": -0.23469,
				"method": "rhf"
			},
			{
				"type": "unocc",
				"energy": -0.02929,
				"method": "rhf"
			},
			{
				"type": "unocc",
				"energy": -0.01248,
				"method": "rhf"
			},
			{
				"type": "unocc",
				"energy": -0.00761,
				"method": "rhf"
			},
			{
				"type": "unocc",
				"energy": -0.00582,
				"method": "rhf"
			},
			{
				"type": "unocc",
				"energy": -0.00118,
				"method": "rhf"
			}
		],
		"cosmo_sigma_profile": { 
			"-0.025": 0.0,
			"-0.024": 0.0,
			"-0.023": 0.0,
			"-0.022": 0.0,
			"-0.021": 0.0,
			"-0.02": 0.0,
			"-0.019": 0.283743795683,
			"-0.018": 0.706188193253,
			"-0.017": 1.00259730233,
			"-0.016": 0.781502573011,
			"-0.015": 1.02778083792,
			"-0.014": 0.777041608745,
			"-0.013": 0.266141755683,
			"-0.012": 0.640098439229,
			"-0.011": 0.867803502335,
			"-0.01": 0.863515370927,
			"-0.009": 0.595983683684,
			"-0.008": 1.48985021326,
			"-0.007": 7.71100237853,
			"-0.006": 16.7368087325,
			"-0.005": 24.3679040094,
			"-0.004": 31.847134727,
			"-0.003": 29.3747098764,
			"-0.002": 24.9241128104,
			"-0.001": 27.8616730909,
			"0.0": 25.3916212369,
			"0.001": 21.0529795055,
			"0.002": 19.5261363285,
			"0.003": 17.9990336884,
			"0.004": 19.3293747552,
			"0.005": 18.2942566336,
			"0.006": 6.58463917944,
			"0.007": 2.01704498183,
			"0.008": 2.85887347155,
			"0.009": 2.99509740289,
			"0.01": 4.26767077197,
			"0.011": 6.63899175573,
			"0.012": 4.8927654757,
			"0.013": 4.14557101931,
			"0.014": 4.72686707526,
			"0.015": 0.573518764969,
			"0.016": 0.0,
			"0.017": 0.0,
			"0.018": 0.0,
			"0.019": 0.0,
			"0.02": 0.0,
			"0.021": 0.0,
			"0.022": 0.0,
			"0.023": 0.0,
			"0.024": 0.0,
			"0.025": 0.0
		}
	}
}
