{
	 "smiles": "BrC1=CC(=CC=C1)C1NCCNC1=O", 
	 "Tm": 391.15, 
	 "num_atms": 25, 
	 "gaussian": { 
		 "optdone": 1, 
		 "sigma_profile": "yes", 
		 "theory": "DFT", 
		 "functional": "B3LYP", 
		 "basiset": "6-31G**", 
		 "properties": { 
			 "R2extent": 5447.8417, 
			 "electric_dipole_moment_norm": 5.69918857733, 
			 "electric_quadrupole_moment_norm": 11.2828844375, 
			 "total_energy": -3143.83032294, 
			 "HOMO_LUMO_gap": 0.21693, 
			 "cosmo_polarized_energy": -14.64, 
			 "cosmo_cavitation_energy": 29.74, 
			 "cosmo_dispersion_energy": -22.45, 
			 "cosmo_repulsion_energy": 1.78, 
			 "cosmo_total_nonelectrostatic_energy": 9.07, 
			 "SMD_solvation_energy": 2.1 
		},
		"coords": [
			{
				"x": 0.3739746958,
				"y": -4.3403786197,
				"z": -1.143578705,
				"element": "Br" 
			},
			{
				"x": 0.300251234,
				"y": -2.4964187935,
				"z": -1.65802624,
				"element": "C" 
			},
			{
				"x": -0.7308963782,
				"y": -1.6993587514,
				"z": -1.1685869447,
				"element": "C" 
			},
			{
				"x": -0.7905308137,
				"y": -0.3477632181,
				"z": -1.5379200007,
				"element": "C" 
			},
			{
				"x": 0.1819029572,
				"y": 0.1662758023,
				"z": -2.4043607515,
				"element": "C" 
			},
			{
				"x": 1.2069085254,
				"y": -0.6512142852,
				"z": -2.8824894002,
				"element": "C" 
			},
			{
				"x": 1.2795977315,
				"y": -1.9935656653,
				"z": -2.5121726632,
				"element": "C" 
			},
			{
				"x": -1.940869123,
				"y": 0.5561720171,
				"z": -1.0548894064,
				"element": "C" 
			},
			{
				"x": -1.6191233985,
				"y": 1.9777697049,
				"z": -1.2390336709,
				"element": "N" 
			},
			{
				"x": -0.8067323554,
				"y": 2.5080172655,
				"z": -0.1449750743,
				"element": "C" 
			},
			{
				"x": -1.5080478461,
				"y": 2.4030661304,
				"z": 1.2099242482,
				"element": "C" 
			},
			{
				"x": -2.0676776442,
				"y": 1.0646756936,
				"z": 1.3695935024,
				"element": "N" 
			},
			{
				"x": -2.3960488415,
				"y": 0.1898749247,
				"z": 0.3726273402,
				"element": "C" 
			},
			{
				"x": -3.014647842,
				"y": -0.8441425194,
				"z": 0.6041993608,
				"element": "O" 
			},
			{
				"x": -1.4848494216,
				"y": -2.1157287435,
				"z": -0.5121656464,
				"element": "H" 
			},
			{
				"x": 0.1189517053,
				"y": 1.2065849982,
				"z": -2.7020897246,
				"element": "H" 
			},
			{
				"x": 1.9568875788,
				"y": -0.2404897451,
				"z": -3.5526899798,
				"element": "H" 
			},
			{
				"x": 2.0722487943,
				"y": -2.6355447873,
				"z": -2.8788760965,
				"element": "H" 
			},
			{
				"x": -2.8120839327,
				"y": 0.3331002538,
				"z": -1.6824025493,
				"element": "H" 
			},
			{
				"x": -2.4799408278,
				"y": 2.5118333702,
				"z": -1.3233524676,
				"element": "H" 
			},
			{
				"x": -0.5567315954,
				"y": 3.5533921845,
				"z": -0.3521945806,
				"element": "H" 
			},
			{
				"x": 0.1319242459,
				"y": 1.9437884936,
				"z": -0.1207843377,
				"element": "H" 
			},
			{
				"x": -0.8013598363,
				"y": 2.6005149323,
				"z": 2.0251595185,
				"element": "H" 
			},
			{
				"x": -2.304609384,
				"y": 3.1608286098,
				"z": 1.2795554327,
				"element": "H" 
			},
			{
				"x": -2.4441982278,
				"y": 0.799910748,
				"z": 2.2716288366,
				"element": "H" 
			}
		],
		 "valence_orbital": [ 
			{
				"type": "occ",
				"energy": -0.2762,
				"method": "rhf"
			},
			{
				"type": "occ",
				"energy": -0.25807,
				"method": "rhf"
			},
			{
				"type": "occ",
				"energy": -0.25095,
				"method": "rhf"
			},
			{
				"type": "occ",
				"energy": -0.23366,
				"method": "rhf"
			},
			{
				"type": "occ",
				"energy": -0.22608,
				"method": "rhf"
			},
			{
				"type": "unocc",
				"energy": -0.00915,
				"method": "rhf"
			},
			{
				"type": "unocc",
				"energy": -0.00703,
				"method": "rhf"
			},
			{
				"type": "unocc",
				"energy": 0.01725,
				"method": "rhf"
			},
			{
				"type": "unocc",
				"energy": 0.02069,
				"method": "rhf"
			},
			{
				"type": "unocc",
				"energy": 0.06217,
				"method": "rhf"
			}
		],
		"cosmo_sigma_profile": { 
			"-0.025": 0.0,
			"-0.024": 0.0,
			"-0.023": 0.0,
			"-0.022": 0.0,
			"-0.021": 0.0,
			"-0.02": 0.0,
			"-0.019": 0.0,
			"-0.018": 0.0,
			"-0.017": 0.0,
			"-0.016": 0.0,
			"-0.015": 0.0,
			"-0.014": 0.296278350999,
			"-0.013": 1.14570523144,
			"-0.012": 1.22869413455,
			"-0.011": 2.96764826458,
			"-0.01": 3.07266310354,
			"-0.009": 2.76841393871,
			"-0.008": 2.93198992164,
			"-0.007": 6.59459763908,
			"-0.006": 9.3854967665,
			"-0.005": 16.2862907203,
			"-0.004": 20.7469740592,
			"-0.003": 17.0493046409,
			"-0.002": 14.4438025438,
			"-0.001": 14.9079735596,
			"0.0": 12.7687601828,
			"0.001": 14.476216159,
			"0.002": 20.020599078,
			"0.003": 20.5557392618,
			"0.004": 21.3823094759,
			"0.005": 13.7286875315,
			"0.006": 2.4191006674,
			"0.007": 2.06753740487,
			"0.008": 1.53217505971,
			"0.009": 2.18703139476,
			"0.01": 1.7275595508,
			"0.011": 2.28259908796,
			"0.012": 1.82970585069,
			"0.013": 3.0964135131,
			"0.014": 4.25054318019,
			"0.015": 0.664314789631,
			"0.016": 0.0,
			"0.017": 0.0,
			"0.018": 0.0,
			"0.019": 0.0,
			"0.02": 0.0,
			"0.021": 0.0,
			"0.022": 0.0,
			"0.023": 0.0,
			"0.024": 0.0,
			"0.025": 0.0
		}
	}
}
