{
	 "smiles": "NC1=NN=C(O1)C1=CC=NC=C1", 
	 "Tm": 513.15, 
	 "num_atms": 18, 
	 "gaussian": { 
		 "optdone": 1, 
		 "sigma_profile": "yes", 
		 "theory": "DFT", 
		 "functional": "B3LYP", 
		 "basiset": "6-31G**", 
		 "properties": { 
			 "R2extent": 2428.0826, 
			 "electric_dipole_moment_norm": 4.59080579746, 
			 "electric_quadrupole_moment_norm": 13.6300008819, 
			 "total_energy": -564.558064232, 
			 "HOMO_LUMO_gap": 0.17347, 
			 "cosmo_polarized_energy": -17.0, 
			 "cosmo_cavitation_energy": 23.5, 
			 "cosmo_dispersion_energy": -17.73, 
			 "cosmo_repulsion_energy": 1.41, 
			 "cosmo_total_nonelectrostatic_energy": 7.18, 
			 "SMD_solvation_energy": 1.27 
		},
		"coords": [
			{
				"x": 0.690613768,
				"y": -2.6281505915,
				"z": -1.8549494086,
				"element": "N" 
			},
			{
				"x": 0.5584486553,
				"y": -1.8109261565,
				"z": -0.7715001507,
				"element": "C" 
			},
			{
				"x": 0.8839814747,
				"y": -2.0500554988,
				"z": 0.468423639,
				"element": "N" 
			},
			{
				"x": 0.4636004845,
				"y": -0.930677844,
				"z": 1.1828097398,
				"element": "N" 
			},
			{
				"x": -0.0657849064,
				"y": -0.1048293728,
				"z": 0.3363026633,
				"element": "C" 
			},
			{
				"x": -0.0420957973,
				"y": -0.6088091296,
				"z": -0.9519933606,
				"element": "O" 
			},
			{
				"x": -0.6401847499,
				"y": 1.2104387313,
				"z": 0.5755460827,
				"element": "C" 
			},
			{
				"x": -0.661465316,
				"y": 1.7393079639,
				"z": 1.8749499877,
				"element": "C" 
			},
			{
				"x": -1.2181384797,
				"y": 2.9997789344,
				"z": 2.0680286019,
				"element": "C" 
			},
			{
				"x": -1.7399820684,
				"y": 3.7498722803,
				"z": 1.085751908,
				"element": "N" 
			},
			{
				"x": -1.7135974349,
				"y": 3.2333229857,
				"z": -0.1486113397,
				"element": "C" 
			},
			{
				"x": -1.1826541774,
				"y": 1.9823987456,
				"z": -0.4603405455,
				"element": "C" 
			},
			{
				"x": 1.3093147633,
				"y": -3.4115530191,
				"z": -1.7000588792,
				"element": "H" 
			},
			{
				"x": 0.797893212,
				"y": -2.1710495612,
				"z": -2.7491761179,
				"element": "H" 
			},
			{
				"x": -0.2513316851,
				"y": 1.1708486798,
				"z": 2.7020506844,
				"element": "H" 
			},
			{
				"x": -1.2468790762,
				"y": 3.4323336726,
				"z": 3.0662940048,
				"element": "H" 
			},
			{
				"x": -2.1407165883,
				"y": 3.8515021286,
				"z": -0.9363297228,
				"element": "H" 
			},
			{
				"x": -1.1919220781,
				"y": 1.6176470513,
				"z": -1.4813977865,
				"element": "H" 
			}
		],
		 "valence_orbital": [ 
			{
				"type": "occ",
				"energy": -0.30455,
				"method": "rhf"
			},
			{
				"type": "occ",
				"energy": -0.27995,
				"method": "rhf"
			},
			{
				"type": "occ",
				"energy": -0.26913,
				"method": "rhf"
			},
			{
				"type": "occ",
				"energy": -0.25893,
				"method": "rhf"
			},
			{
				"type": "occ",
				"energy": -0.23392,
				"method": "rhf"
			},
			{
				"type": "unocc",
				"energy": -0.06045,
				"method": "rhf"
			},
			{
				"type": "unocc",
				"energy": -0.01658,
				"method": "rhf"
			},
			{
				"type": "unocc",
				"energy": 0.02698,
				"method": "rhf"
			},
			{
				"type": "unocc",
				"energy": 0.05352,
				"method": "rhf"
			},
			{
				"type": "unocc",
				"energy": 0.06078,
				"method": "rhf"
			}
		],
		"cosmo_sigma_profile": { 
			"-0.025": 0.0,
			"-0.024": 0.0,
			"-0.023": 0.0,
			"-0.022": 0.0,
			"-0.021": 0.0,
			"-0.02": 0.0,
			"-0.019": 0.0,
			"-0.018": 0.0,
			"-0.017": 0.0,
			"-0.016": 0.485805755106,
			"-0.015": 2.85922742018,
			"-0.014": 2.40485788965,
			"-0.013": 3.47303964832,
			"-0.012": 2.30197456055,
			"-0.011": 1.79548597464,
			"-0.01": 1.40636967605,
			"-0.009": 2.33720591207,
			"-0.008": 2.25343263922,
			"-0.007": 7.1412605882,
			"-0.006": 9.71996474577,
			"-0.005": 9.69719326571,
			"-0.004": 9.06399428111,
			"-0.003": 11.1840633833,
			"-0.002": 12.5914816512,
			"-0.001": 11.1181848086,
			"0.0": 15.5532497379,
			"0.001": 18.1920698946,
			"0.002": 13.4404765882,
			"0.003": 6.62647713194,
			"0.004": 4.62277187044,
			"0.005": 4.41021988897,
			"0.006": 3.4045705178,
			"0.007": 4.19670612896,
			"0.008": 4.085770347,
			"0.009": 3.3931135111,
			"0.01": 3.4402766722,
			"0.011": 3.70885705895,
			"0.012": 3.82769889843,
			"0.013": 4.4807797704,
			"0.014": 2.8997644286,
			"0.015": 2.02504282687,
			"0.016": 1.10422200714,
			"0.017": 0.175485832734,
			"0.018": 0.0,
			"0.019": 0.0,
			"0.02": 0.0,
			"0.021": 0.0,
			"0.022": 0.0,
			"0.023": 0.0,
			"0.024": 0.0,
			"0.025": 0.0
		}
	}
}
