{
	 "smiles": "CC12CC(=O)C3C(CCC4=CC(=O)CCC34C)C1CCC2C(=O)CO", 
	 "Tm": 457.15, 
	 "num_atms": 53, 
	 "gaussian": { 
		 "optdone": 1, 
		 "sigma_profile": "yes", 
		 "theory": "DFT", 
		 "functional": "B3LYP", 
		 "basiset": "6-31G**", 
		 "properties": { 
			 "R2extent": 10432.6564, 
			 "electric_dipole_moment_norm": 5.34250283669, 
			 "electric_quadrupole_moment_norm": 36.3499212614, 
			 "total_energy": -1117.99649671, 
			 "HOMO_LUMO_gap": 0.18326, 
			 "cosmo_polarized_energy": -22.32, 
			 "cosmo_cavitation_energy": 47.96, 
			 "cosmo_dispersion_energy": -33.05, 
			 "cosmo_repulsion_energy": 2.43, 
			 "cosmo_total_nonelectrostatic_energy": 17.34, 
			 "SMD_solvation_energy": 8.39 
		},
		"coords": [
			{
				"x": -0.1476920002,
				"y": -1.5861317886,
				"z": -2.0695330921,
				"element": "C" 
			},
			{
				"x": 0.9344136446,
				"y": -0.8958234537,
				"z": -1.2279127511,
				"element": "C" 
			},
			{
				"x": 1.2953637031,
				"y": -1.7695032208,
				"z": -0.0050279584,
				"element": "C" 
			},
			{
				"x": 0.2183060638,
				"y": -1.82941771,
				"z": 1.0691884533,
				"element": "C" 
			},
			{
				"x": -0.0119543551,
				"y": -2.8848281962,
				"z": 1.6342139382,
				"element": "O" 
			},
			{
				"x": -0.4489551833,
				"y": -0.5080263222,
				"z": 1.4766053303,
				"element": "C" 
			},
			{
				"x": -0.6260544043,
				"y": 0.503800484,
				"z": 0.3101424728,
				"element": "C" 
			},
			{
				"x": -0.8996658398,
				"y": 1.9225123002,
				"z": 0.8743461241,
				"element": "C" 
			},
			{
				"x": -1.6313096025,
				"y": 1.8837489443,
				"z": 2.2403659758,
				"element": "C" 
			},
			{
				"x": -2.5199157192,
				"y": 0.674824142,
				"z": 2.3043057836,
				"element": "C" 
			},
			{
				"x": -3.8635931933,
				"y": 0.784795808,
				"z": 2.3348648417,
				"element": "C" 
			},
			{
				"x": -4.7838075236,
				"y": -0.3655108426,
				"z": 2.3127220711,
				"element": "C" 
			},
			{
				"x": -5.998280823,
				"y": -0.2171454773,
				"z": 2.3493255683,
				"element": "O" 
			},
			{
				"x": -4.1394180996,
				"y": -1.7420232563,
				"z": 2.2532569769,
				"element": "C" 
			},
			{
				"x": -2.7337946967,
				"y": -1.7299876849,
				"z": 1.6373428378,
				"element": "C" 
			},
			{
				"x": -1.7955717176,
				"y": -0.675950482,
				"z": 2.2846017142,
				"element": "C" 
			},
			{
				"x": -1.4565820507,
				"y": -1.0722412411,
				"z": 3.7458984044,
				"element": "C" 
			},
			{
				"x": 0.5091005032,
				"y": 0.5152037672,
				"z": -0.7348005291,
				"element": "C" 
			},
			{
				"x": 1.8406476339,
				"y": 1.195487426,
				"z": -0.3315699691,
				"element": "C" 
			},
			{
				"x": 2.9251066205,
				"y": 0.5688199819,
				"z": -1.2490292423,
				"element": "C" 
			},
			{
				"x": 2.2086607978,
				"y": -0.533190936,
				"z": -2.0729291335,
				"element": "C" 
			},
			{
				"x": 3.1101630555,
				"y": -1.7050189746,
				"z": -2.4082028652,
				"element": "C" 
			},
			{
				"x": 3.8800554932,
				"y": -2.201521542,
				"z": -1.5980868265,
				"element": "O" 
			},
			{
				"x": 3.0651743834,
				"y": -2.2814276317,
				"z": -3.8158779213,
				"element": "C" 
			},
			{
				"x": 3.906972667,
				"y": -3.3864061114,
				"z": -3.9518626029,
				"element": "O" 
			},
			{
				"x": 0.193197455,
				"y": -2.5575644837,
				"z": -2.442902882,
				"element": "H" 
			},
			{
				"x": -0.4324247088,
				"y": -0.9708130741,
				"z": -2.930422194,
				"element": "H" 
			},
			{
				"x": -1.0532141267,
				"y": -1.7749618568,
				"z": -1.4833706049,
				"element": "H" 
			},
			{
				"x": 1.5215879683,
				"y": -2.799682755,
				"z": -0.2898766213,
				"element": "H" 
			},
			{
				"x": 2.2025858851,
				"y": -1.3858630687,
				"z": 0.478995025,
				"element": "H" 
			},
			{
				"x": 0.2946753949,
				"y": -0.074867654,
				"z": 2.1673094144,
				"element": "H" 
			},
			{
				"x": -1.5337157733,
				"y": 0.1913499647,
				"z": -0.2230568633,
				"element": "H" 
			},
			{
				"x": -1.5024202978,
				"y": 2.4816589578,
				"z": 0.1502439934,
				"element": "H" 
			},
			{
				"x": 0.0380752729,
				"y": 2.4733186025,
				"z": 0.9954157098,
				"element": "H" 
			},
			{
				"x": -0.8863616155,
				"y": 1.829318024,
				"z": 3.0453308544,
				"element": "H" 
			},
			{
				"x": -2.2017736961,
				"y": 2.8028690092,
				"z": 2.4004046285,
				"element": "H" 
			},
			{
				"x": -4.339594215,
				"y": 1.7625007889,
				"z": 2.367160699,
				"element": "H" 
			},
			{
				"x": -4.8108264684,
				"y": -2.4077735545,
				"z": 1.7025904136,
				"element": "H" 
			},
			{
				"x": -4.105139206,
				"y": -2.1289589401,
				"z": 3.2807760976,
				"element": "H" 
			},
			{
				"x": -2.8270482858,
				"y": -1.5064211033,
				"z": 0.5655983036,
				"element": "H" 
			},
			{
				"x": -2.284330731,
				"y": -2.7197031454,
				"z": 1.7184385034,
				"element": "H" 
			},
			{
				"x": -0.9094719818,
				"y": -2.0170628807,
				"z": 3.75529592,
				"element": "H" 
			},
			{
				"x": -0.8354944259,
				"y": -0.3078904522,
				"z": 4.2259288105,
				"element": "H" 
			},
			{
				"x": -2.3611836095,
				"y": -1.1806837621,
				"z": 4.3497037939,
				"element": "H" 
			},
			{
				"x": 0.1219949408,
				"y": 1.0555046494,
				"z": -1.6114139541,
				"element": "H" 
			},
			{
				"x": 1.7890665694,
				"y": 2.2806707747,
				"z": -0.4513208586,
				"element": "H" 
			},
			{
				"x": 2.0758701062,
				"y": 1.0119246705,
				"z": 0.7228231129,
				"element": "H" 
			},
			{
				"x": 3.7344258505,
				"y": 0.122847459,
				"z": -0.6659611424,
				"element": "H" 
			},
			{
				"x": 3.3798387859,
				"y": 1.3098325217,
				"z": -1.9125916445,
				"element": "H" 
			},
			{
				"x": 1.8402712008,
				"y": -0.1090999572,
				"z": -3.0164747399,
				"element": "H" 
			},
			{
				"x": 3.3425550472,
				"y": -1.4677743996,
				"z": -4.5110943022,
				"element": "H" 
			},
			{
				"x": 2.0207787775,
				"y": -2.5403405842,
				"z": -4.0587592625,
				"element": "H" 
			},
			{
				"x": 4.3554065298,
				"y": -3.4695717331,
				"z": -3.0910178117,
				"element": "H" 
			}
		],
		 "valence_orbital": [ 
			{
				"type": "occ",
				"energy": -0.27703,
				"method": "rhf"
			},
			{
				"type": "occ",
				"energy": -0.27341,
				"method": "rhf"
			},
			{
				"type": "occ",
				"energy": -0.25839,
				"method": "rhf"
			},
			{
				"type": "occ",
				"energy": -0.24878,
				"method": "rhf"
			},
			{
				"type": "occ",
				"energy": -0.23008,
				"method": "rhf"
			},
			{
				"type": "unocc",
				"energy": -0.04682,
				"method": "rhf"
			},
			{
				"type": "unocc",
				"energy": -0.04169,
				"method": "rhf"
			},
			{
				"type": "unocc",
				"energy": -0.03059,
				"method": "rhf"
			},
			{
				"type": "unocc",
				"energy": 0.05043,
				"method": "rhf"
			},
			{
				"type": "unocc",
				"energy": 0.05912,
				"method": "rhf"
			}
		],
		"cosmo_sigma_profile": { 
			"-0.025": 0.0,
			"-0.024": 0.0,
			"-0.023": 0.0,
			"-0.022": 0.0,
			"-0.021": 0.0,
			"-0.02": 0.0,
			"-0.019": 0.0,
			"-0.018": 0.0,
			"-0.017": 0.0,
			"-0.016": 0.0,
			"-0.015": 0.0,
			"-0.014": 0.0,
			"-0.013": 0.0,
			"-0.012": 0.0,
			"-0.011": 0.0939821118582,
			"-0.01": 0.407527561724,
			"-0.009": 0.578791391983,
			"-0.008": 0.778944694204,
			"-0.007": 6.65746420152,
			"-0.006": 16.1555315628,
			"-0.005": 27.7968498783,
			"-0.004": 37.000507092,
			"-0.003": 49.2819439041,
			"-0.002": 46.4146511841,
			"-0.001": 38.8175485591,
			"0.0": 32.8433708952,
			"0.001": 22.3224629203,
			"0.002": 11.444944387,
			"0.003": 9.4690479224,
			"0.004": 6.73890932335,
			"0.005": 6.25585455996,
			"0.006": 5.33563573288,
			"0.007": 5.9707270447,
			"0.008": 5.18619579602,
			"0.009": 6.35490155546,
			"0.01": 5.97378180108,
			"0.011": 7.57372072156,
			"0.012": 7.24638423444,
			"0.013": 7.80316985712,
			"0.014": 5.7219827363,
			"0.015": 0.756845236613,
			"0.016": 0.0,
			"0.017": 0.0,
			"0.018": 0.0,
			"0.019": 0.0,
			"0.02": 0.0,
			"0.021": 0.0,
			"0.022": 0.0,
			"0.023": 0.0,
			"0.024": 0.0,
			"0.025": 0.0
		}
	}
}
