{
	 "smiles": "CC1=CC=C(Br)C(C)=C1", 
	 "Tm": 256.15, 
	 "num_atms": 18, 
	 "gaussian": { 
		 "optdone": 1, 
		 "sigma_profile": "yes", 
		 "theory": "DFT", 
		 "functional": "B3LYP", 
		 "basiset": "6-31G**", 
		 "properties": { 
			 "R2extent": 3654.6152, 
			 "electric_dipole_moment_norm": 2.00877545286, 
			 "electric_quadrupole_moment_norm": 6.80504977278, 
			 "total_energy": -2881.69558366, 
			 "HOMO_LUMO_gap": 0.2229, 
			 "cosmo_polarized_energy": -3.62, 
			 "cosmo_cavitation_energy": 23.29, 
			 "cosmo_dispersion_energy": -17.56, 
			 "cosmo_repulsion_energy": 1.43, 
			 "cosmo_total_nonelectrostatic_energy": 7.16, 
			 "SMD_solvation_energy": 3.04 
		},
		"coords": [
			{
				"x": 1.3753855773,
				"y": -1.4838657065,
				"z": -0.2712541773,
				"element": "C" 
			},
			{
				"x": 0.7722113109,
				"y": -0.0996603621,
				"z": -0.2266544842,
				"element": "C" 
			},
			{
				"x": 1.191186569,
				"y": 0.8414558889,
				"z": 0.7203665732,
				"element": "C" 
			},
			{
				"x": 0.6505363547,
				"y": 2.1259434048,
				"z": 0.7354072039,
				"element": "C" 
			},
			{
				"x": -0.3187079047,
				"y": 2.4750537315,
				"z": -0.2015219714,
				"element": "C" 
			},
			{
				"x": -1.036462215,
				"y": 4.2537197139,
				"z": -0.1373396036,
				"element": "Br" 
			},
			{
				"x": -0.7750489227,
				"y": 1.5672780482,
				"z": -1.1676226423,
				"element": "C" 
			},
			{
				"x": -1.8278302184,
				"y": 1.9265460343,
				"z": -2.184262023,
				"element": "C" 
			},
			{
				"x": -0.2066462357,
				"y": 0.2863321376,
				"z": -1.1494670579,
				"element": "C" 
			},
			{
				"x": 2.2463940513,
				"y": -1.5154454959,
				"z": -0.9378881822,
				"element": "H" 
			},
			{
				"x": 0.6574067984,
				"y": -2.2221237523,
				"z": -0.6408533298,
				"element": "H" 
			},
			{
				"x": 1.7126540255,
				"y": -1.8048450764,
				"z": 0.7187675092,
				"element": "H" 
			},
			{
				"x": 1.9450692051,
				"y": 0.5728767245,
				"z": 1.4558417012,
				"element": "H" 
			},
			{
				"x": 0.9750138611,
				"y": 2.8528295608,
				"z": 1.4715170294,
				"element": "H" 
			},
			{
				"x": -2.7619619993,
				"y": 2.2296710578,
				"z": -1.6993827381,
				"element": "H" 
			},
			{
				"x": -2.0394361607,
				"y": 1.0776067398,
				"z": -2.8391129301,
				"element": "H" 
			},
			{
				"x": -1.5085128244,
				"y": 2.7701736856,
				"z": -2.8055284735,
				"element": "H" 
			},
			{
				"x": -0.5485512722,
				"y": -0.4353463344,
				"z": -1.8883124037,
				"element": "H" 
			}
		],
		 "valence_orbital": [ 
			{
				"type": "occ",
				"energy": -0.34161,
				"method": "rhf"
			},
			{
				"type": "occ",
				"energy": -0.3016,
				"method": "rhf"
			},
			{
				"type": "occ",
				"energy": -0.281,
				"method": "rhf"
			},
			{
				"type": "occ",
				"energy": -0.25006,
				"method": "rhf"
			},
			{
				"type": "occ",
				"energy": -0.23047,
				"method": "rhf"
			},
			{
				"type": "unocc",
				"energy": -0.00757,
				"method": "rhf"
			},
			{
				"type": "unocc",
				"energy": -0.0055,
				"method": "rhf"
			},
			{
				"type": "unocc",
				"energy": 0.01377,
				"method": "rhf"
			},
			{
				"type": "unocc",
				"energy": 0.10614,
				"method": "rhf"
			},
			{
				"type": "unocc",
				"energy": 0.11918,
				"method": "rhf"
			}
		],
		"cosmo_sigma_profile": { 
			"-0.025": 0.0,
			"-0.024": 0.0,
			"-0.023": 0.0,
			"-0.022": 0.0,
			"-0.021": 0.0,
			"-0.02": 0.0,
			"-0.019": 0.0,
			"-0.018": 0.0,
			"-0.017": 0.0,
			"-0.016": 0.0,
			"-0.015": 0.0,
			"-0.014": 0.0,
			"-0.013": 0.0,
			"-0.012": 0.0,
			"-0.011": 0.0,
			"-0.01": 0.0,
			"-0.009": 0.0,
			"-0.008": 0.0,
			"-0.007": 0.432709943833,
			"-0.006": 3.16673207548,
			"-0.005": 9.54990708723,
			"-0.004": 18.9814382132,
			"-0.003": 16.256292348,
			"-0.002": 16.9426084314,
			"-0.001": 21.1155571485,
			"0.0": 21.8557332126,
			"0.001": 15.294305553,
			"0.002": 13.0971021372,
			"0.003": 15.4348488345,
			"0.004": 18.6455690105,
			"0.005": 15.9119145293,
			"0.006": 1.04109195444,
			"0.007": 0.0,
			"0.008": 0.0,
			"0.009": 0.0,
			"0.01": 0.0,
			"0.011": 0.0,
			"0.012": 0.0,
			"0.013": 0.0,
			"0.014": 0.0,
			"0.015": 0.0,
			"0.016": 0.0,
			"0.017": 0.0,
			"0.018": 0.0,
			"0.019": 0.0,
			"0.02": 0.0,
			"0.021": 0.0,
			"0.022": 0.0,
			"0.023": 0.0,
			"0.024": 0.0,
			"0.025": 0.0
		}
	}
}
