{
	 "smiles": "OC1CCC2=C(F)C=CC=C12", 
	 "Tm": 333.15, 
	 "num_atms": 20, 
	 "gaussian": { 
		 "optdone": 1, 
		 "sigma_profile": "yes", 
		 "theory": "DFT", 
		 "functional": "B3LYP", 
		 "basiset": "6-31G**", 
		 "properties": { 
			 "R2extent": 1832.5926, 
			 "electric_dipole_moment_norm": 2.03637737662, 
			 "electric_quadrupole_moment_norm": 8.22900792866, 
			 "total_energy": -523.437468913, 
			 "HOMO_LUMO_gap": 0.23281, 
			 "cosmo_polarized_energy": -7.95, 
			 "cosmo_cavitation_energy": 23.29, 
			 "cosmo_dispersion_energy": -17.31, 
			 "cosmo_repulsion_energy": 1.38, 
			 "cosmo_total_nonelectrostatic_energy": 7.36, 
			 "SMD_solvation_energy": 3.96 
		},
		"coords": [
			{
				"x": 1.3656562445,
				"y": -0.3224841569,
				"z": 2.7643889669,
				"element": "O" 
			},
			{
				"x": 1.7296070958,
				"y": 0.2558907073,
				"z": 1.5181068375,
				"element": "C" 
			},
			{
				"x": 1.2034104815,
				"y": 1.6969988652,
				"z": 1.2942993565,
				"element": "C" 
			},
			{
				"x": 0.9509060107,
				"y": 1.812739198,
				"z": -0.2306312372,
				"element": "C" 
			},
			{
				"x": 0.6861555838,
				"y": 0.3773755689,
				"z": -0.6219842852,
				"element": "C" 
			},
			{
				"x": 0.1098413348,
				"y": -0.1381518626,
				"z": -1.774153837,
				"element": "C" 
			},
			{
				"x": -0.3013421022,
				"y": 0.7098767296,
				"z": -2.745798371,
				"element": "F" 
			},
			{
				"x": -0.0658436359,
				"y": -1.5082607,
				"z": -1.9440193332,
				"element": "C" 
			},
			{
				"x": 0.3525256287,
				"y": -2.3789230792,
				"z": -0.9318701929,
				"element": "C" 
			},
			{
				"x": 0.945428195,
				"y": -1.888436992,
				"z": 0.2354967577,
				"element": "C" 
			},
			{
				"x": 1.1042568999,
				"y": -0.5115545304,
				"z": 0.373047064,
				"element": "C" 
			},
			{
				"x": 1.9058446733,
				"y": 0.0883017818,
				"z": 3.451175447,
				"element": "H" 
			},
			{
				"x": 2.828100361,
				"y": 0.2354215814,
				"z": 1.4049137042,
				"element": "H" 
			},
			{
				"x": 0.2536788928,
				"y": 1.77428064,
				"z": 1.8348584029,
				"element": "H" 
			},
			{
				"x": 1.878892517,
				"y": 2.4674574049,
				"z": 1.6790979452,
				"element": "H" 
			},
			{
				"x": 1.8368329823,
				"y": 2.2000600661,
				"z": -0.7518435496,
				"element": "H" 
			},
			{
				"x": 0.1226574561,
				"y": 2.483279995,
				"z": -0.4793326089,
				"element": "H" 
			},
			{
				"x": -0.5292764913,
				"y": -1.8752745164,
				"z": -2.8536635802,
				"element": "H" 
			},
			{
				"x": 0.2084572342,
				"y": -3.4477356155,
				"z": -1.0598917647,
				"element": "H" 
			},
			{
				"x": 1.2609106378,
				"y": -2.558861085,
				"z": 1.0282042781,
				"element": "H" 
			}
		],
		 "valence_orbital": [ 
			{
				"type": "occ",
				"energy": -0.33786,
				"method": "rhf"
			},
			{
				"type": "occ",
				"energy": -0.31991,
				"method": "rhf"
			},
			{
				"type": "occ",
				"energy": -0.27363,
				"method": "rhf"
			},
			{
				"type": "occ",
				"energy": -0.24007,
				"method": "rhf"
			},
			{
				"type": "occ",
				"energy": -0.23601,
				"method": "rhf"
			},
			{
				"type": "unocc",
				"energy": -0.0032,
				"method": "rhf"
			},
			{
				"type": "unocc",
				"energy": 0.00354,
				"method": "rhf"
			},
			{
				"type": "unocc",
				"energy": 0.07679,
				"method": "rhf"
			},
			{
				"type": "unocc",
				"energy": 0.09753,
				"method": "rhf"
			},
			{
				"type": "unocc",
				"energy": 0.10657,
				"method": "rhf"
			}
		],
		"cosmo_sigma_profile": { 
			"-0.025": 0.0,
			"-0.024": 0.0,
			"-0.023": 0.0,
			"-0.022": 0.0,
			"-0.021": 0.0,
			"-0.02": 0.0,
			"-0.019": 0.0,
			"-0.018": 0.0,
			"-0.017": 0.0,
			"-0.016": 0.585933142534,
			"-0.015": 1.21296619092,
			"-0.014": 0.878343585311,
			"-0.013": 0.899893596667,
			"-0.012": 0.64459861839,
			"-0.011": 1.034028316,
			"-0.01": 0.316985875893,
			"-0.009": 0.92845559878,
			"-0.008": 0.891307112466,
			"-0.007": 2.2296560032,
			"-0.006": 5.5394987251,
			"-0.005": 7.20025939963,
			"-0.004": 16.7001777352,
			"-0.003": 18.9065467864,
			"-0.002": 16.2380903717,
			"-0.001": 12.7260051865,
			"0.0": 14.9364130561,
			"0.001": 14.152386521,
			"0.002": 11.1788098661,
			"0.003": 11.4050829331,
			"0.004": 15.8030310667,
			"0.005": 15.4785178432,
			"0.006": 3.51763077504,
			"0.007": 1.3283198612,
			"0.008": 0.950456465494,
			"0.009": 1.67092957746,
			"0.01": 1.82090957464,
			"0.011": 1.13721430699,
			"0.012": 1.63093071321,
			"0.013": 1.06350048002,
			"0.014": 1.05253754662,
			"0.015": 0.0603439045009,
			"0.016": 0.0,
			"0.017": 0.0,
			"0.018": 0.0,
			"0.019": 0.0,
			"0.02": 0.0,
			"0.021": 0.0,
			"0.022": 0.0,
			"0.023": 0.0,
			"0.024": 0.0,
			"0.025": 0.0
		}
	}
}
