{
	 "smiles": "CC1=CC(=O)C2=CC=CC=C2C1=O", 
	 "Tm": 377.15, 
	 "num_atms": 21, 
	 "gaussian": { 
		 "optdone": 1, 
		 "sigma_profile": "yes", 
		 "theory": "DFT", 
		 "functional": "B3LYP", 
		 "basiset": "6-31G**", 
		 "properties": { 
			 "R2extent": 3102.4884, 
			 "electric_dipole_moment_norm": 1.04831160444, 
			 "electric_quadrupole_moment_norm": 17.7226185929, 
			 "total_energy": -574.438977474, 
			 "HOMO_LUMO_gap": 0.14735, 
			 "cosmo_polarized_energy": -9.1, 
			 "cosmo_cavitation_energy": 25.42, 
			 "cosmo_dispersion_energy": -18.72, 
			 "cosmo_repulsion_energy": 1.44, 
			 "cosmo_total_nonelectrostatic_energy": 8.15, 
			 "SMD_solvation_energy": 5.35 
		},
		"coords": [
			{
				"x": -0.832982197,
				"y": 0.451353949,
				"z": 2.2487239013,
				"element": "C" 
			},
			{
				"x": 0.0378287526,
				"y": 0.5606554442,
				"z": 1.0326683495,
				"element": "C" 
			},
			{
				"x": 1.0466718738,
				"y": -0.2910823839,
				"z": 0.7544059438,
				"element": "C" 
			},
			{
				"x": 1.9043858888,
				"y": -0.1808416261,
				"z": -0.4457718311,
				"element": "C" 
			},
			{
				"x": 2.8078210086,
				"y": -0.9870319802,
				"z": -0.6449156892,
				"element": "O" 
			},
			{
				"x": 1.624402766,
				"y": 0.9397276617,
				"z": -1.3892396071,
				"element": "C" 
			},
			{
				"x": 2.4030596427,
				"y": 1.093062839,
				"z": -2.539707056,
				"element": "C" 
			},
			{
				"x": 2.1417366516,
				"y": 2.1403605322,
				"z": -3.421784976,
				"element": "C" 
			},
			{
				"x": 1.1014776909,
				"y": 3.0386102204,
				"z": -3.1580786286,
				"element": "C" 
			},
			{
				"x": 0.321404084,
				"y": 2.8909516867,
				"z": -2.0124565049,
				"element": "C" 
			},
			{
				"x": 0.578068227,
				"y": 1.8423136253,
				"z": -1.1230210942,
				"element": "C" 
			},
			{
				"x": -0.2628571938,
				"y": 1.6936290287,
				"z": 0.0994013389,
				"element": "C" 
			},
			{
				"x": -1.1784356564,
				"y": 2.4703829979,
				"z": 0.3497463739,
				"element": "O" 
			},
			{
				"x": -0.542852777,
				"y": -0.3993673725,
				"z": 2.868926121,
				"element": "H" 
			},
			{
				"x": -1.8835619817,
				"y": 0.3441167784,
				"z": 1.9591874274,
				"element": "H" 
			},
			{
				"x": -0.7750531653,
				"y": 1.3679500885,
				"z": 2.8450035934,
				"element": "H" 
			},
			{
				"x": 1.2867226942,
				"y": -1.1215550748,
				"z": 1.4135082116,
				"element": "H" 
			},
			{
				"x": 3.2030294152,
				"y": 0.3824787466,
				"z": -2.7196553608,
				"element": "H" 
			},
			{
				"x": 2.7471232313,
				"y": 2.259065643,
				"z": -4.3156139874,
				"element": "H" 
			},
			{
				"x": 0.9006589685,
				"y": 3.8533666511,
				"z": -3.8475077846,
				"element": "H" 
			},
			{
				"x": -0.4904479241,
				"y": 3.5741525448,
				"z": -1.7862187408,
				"element": "H" 
			}
		],
		 "valence_orbital": [ 
			{
				"type": "occ",
				"energy": -0.28607,
				"method": "rhf"
			},
			{
				"type": "occ",
				"energy": -0.2705,
				"method": "rhf"
			},
			{
				"type": "occ",
				"energy": -0.2704,
				"method": "rhf"
			},
			{
				"type": "occ",
				"energy": -0.2694,
				"method": "rhf"
			},
			{
				"type": "occ",
				"energy": -0.25878,
				"method": "rhf"
			},
			{
				"type": "unocc",
				"energy": -0.11143,
				"method": "rhf"
			},
			{
				"type": "unocc",
				"energy": -0.0416,
				"method": "rhf"
			},
			{
				"type": "unocc",
				"energy": -0.01944,
				"method": "rhf"
			},
			{
				"type": "unocc",
				"energy": 0.04202,
				"method": "rhf"
			},
			{
				"type": "unocc",
				"energy": 0.08296,
				"method": "rhf"
			}
		],
		"cosmo_sigma_profile": { 
			"-0.025": 0.0,
			"-0.024": 0.0,
			"-0.023": 0.0,
			"-0.022": 0.0,
			"-0.021": 0.0,
			"-0.02": 0.0,
			"-0.019": 0.0,
			"-0.018": 0.0,
			"-0.017": 0.0,
			"-0.016": 0.0,
			"-0.015": 0.0,
			"-0.014": 0.0,
			"-0.013": 0.0,
			"-0.012": 0.0,
			"-0.011": 0.0,
			"-0.01": 0.0,
			"-0.009": 0.0,
			"-0.008": 0.571264573602,
			"-0.007": 6.84123036243,
			"-0.006": 11.279572605,
			"-0.005": 17.5964829975,
			"-0.004": 17.2261198013,
			"-0.003": 16.9700924373,
			"-0.002": 16.8584859329,
			"-0.001": 21.7097137027,
			"0.0": 16.7003494646,
			"0.001": 16.8104421528,
			"0.002": 17.5140200994,
			"0.003": 7.47462095699,
			"0.004": 3.9118696754,
			"0.005": 3.31444006893,
			"0.006": 2.96798067392,
			"0.007": 2.67300545877,
			"0.008": 3.43678401382,
			"0.009": 4.04838027862,
			"0.01": 4.8660528916,
			"0.011": 7.97077930444,
			"0.012": 3.03352970765,
			"0.013": 0.429821320237,
			"0.014": 0.0,
			"0.015": 0.0,
			"0.016": 0.0,
			"0.017": 0.0,
			"0.018": 0.0,
			"0.019": 0.0,
			"0.02": 0.0,
			"0.021": 0.0,
			"0.022": 0.0,
			"0.023": 0.0,
			"0.024": 0.0,
			"0.025": 0.0
		}
	}
}
