{
	 "smiles": "CC1=CC(CO)=NN1", 
	 "Tm": 352.15, 
	 "num_atms": 16, 
	 "gaussian": { 
		 "optdone": 1, 
		 "sigma_profile": "yes", 
		 "theory": "DFT", 
		 "functional": "B3LYP", 
		 "basiset": "6-31G**", 
		 "properties": { 
			 "R2extent": 1272.849, 
			 "electric_dipole_moment_norm": 4.73035909948, 
			 "electric_quadrupole_moment_norm": 11.1583828891, 
			 "total_energy": -380.054107183, 
			 "HOMO_LUMO_gap": 0.25425, 
			 "cosmo_polarized_energy": -11.08, 
			 "cosmo_cavitation_energy": 19.47, 
			 "cosmo_dispersion_energy": -14.94, 
			 "cosmo_repulsion_energy": 1.28, 
			 "cosmo_total_nonelectrostatic_energy": 5.81, 
			 "SMD_solvation_energy": 2.85 
		},
		"coords": [
			{
				"x": 1.8988299701,
				"y": -1.0331379155,
				"z": 0.5500776022,
				"element": "C" 
			},
			{
				"x": 0.6746195211,
				"y": -0.2856139795,
				"z": 0.1250407852,
				"element": "C" 
			},
			{
				"x": 0.3791535861,
				"y": 0.41868718,
				"z": -1.0289437975,
				"element": "C" 
			},
			{
				"x": -0.9392818431,
				"y": 0.9041427658,
				"z": -0.8449665139,
				"element": "C" 
			},
			{
				"x": -1.8063500462,
				"y": 1.7365355924,
				"z": -1.7534346276,
				"element": "C" 
			},
			{
				"x": -3.0715293004,
				"y": 2.0092745112,
				"z": -1.1886411058,
				"element": "O" 
			},
			{
				"x": -1.4300813931,
				"y": 0.5317097214,
				"z": 0.3332869292,
				"element": "N" 
			},
			{
				"x": -0.4373756078,
				"y": -0.1884011293,
				"z": 0.9062445119,
				"element": "N" 
			},
			{
				"x": 2.6600730165,
				"y": -0.9769297439,
				"z": -0.2306717703,
				"element": "H" 
			},
			{
				"x": 2.3307245753,
				"y": -0.6179632718,
				"z": 1.4681570678,
				"element": "H" 
			},
			{
				"x": 1.6854698308,
				"y": -2.0927820759,
				"z": 0.7328446158,
				"element": "H" 
			},
			{
				"x": 1.0284844012,
				"y": 0.559044618,
				"z": -1.8808536123,
				"element": "H" 
			},
			{
				"x": -1.9322977527,
				"y": 1.2123634489,
				"z": -2.7144608028,
				"element": "H" 
			},
			{
				"x": -1.2885903416,
				"y": 2.6819214338,
				"z": -1.9822841934,
				"element": "H" 
			},
			{
				"x": -3.0807611774,
				"y": 1.5804452553,
				"z": -0.3189772037,
				"element": "H" 
			},
			{
				"x": -0.5826874388,
				"y": -0.5816964109,
				"z": 1.822882115,
				"element": "H" 
			}
		],
		 "valence_orbital": [ 
			{
				"type": "occ",
				"energy": -0.31761,
				"method": "rhf"
			},
			{
				"type": "occ",
				"energy": -0.29565,
				"method": "rhf"
			},
			{
				"type": "occ",
				"energy": -0.26303,
				"method": "rhf"
			},
			{
				"type": "occ",
				"energy": -0.24275,
				"method": "rhf"
			},
			{
				"type": "occ",
				"energy": -0.23728,
				"method": "rhf"
			},
			{
				"type": "unocc",
				"energy": 0.01697,
				"method": "rhf"
			},
			{
				"type": "unocc",
				"energy": 0.068,
				"method": "rhf"
			},
			{
				"type": "unocc",
				"energy": 0.07307,
				"method": "rhf"
			},
			{
				"type": "unocc",
				"energy": 0.11046,
				"method": "rhf"
			},
			{
				"type": "unocc",
				"energy": 0.12551,
				"method": "rhf"
			}
		],
		"cosmo_sigma_profile": { 
			"-0.025": 0.0,
			"-0.024": 0.0,
			"-0.023": 0.0,
			"-0.022": 0.0,
			"-0.021": 0.0,
			"-0.02": 0.0,
			"-0.019": 0.0,
			"-0.018": 0.0,
			"-0.017": 0.0475668110064,
			"-0.016": 0.983334649313,
			"-0.015": 1.71749328616,
			"-0.014": 0.886606170222,
			"-0.013": 0.939150850762,
			"-0.012": 0.901583766085,
			"-0.011": 1.14879314358,
			"-0.01": 1.19328963817,
			"-0.009": 1.26736076359,
			"-0.008": 1.22464996861,
			"-0.007": 1.47975064843,
			"-0.006": 4.87732067049,
			"-0.005": 10.7962525887,
			"-0.004": 15.4616810132,
			"-0.003": 15.1285666704,
			"-0.002": 12.9135722778,
			"-0.001": 12.5164166023,
			"0.0": 8.67003143654,
			"0.001": 6.51304799249,
			"0.002": 5.21149539533,
			"0.003": 7.94765264779,
			"0.004": 6.59270095081,
			"0.005": 8.32753898759,
			"0.006": 6.57976970654,
			"0.007": 2.49709976557,
			"0.008": 3.09132124291,
			"0.009": 2.76516955299,
			"0.01": 2.56013060626,
			"0.011": 2.68636083281,
			"0.012": 1.05144112217,
			"0.013": 1.69072118348,
			"0.014": 2.45486011179,
			"0.015": 1.38257173411,
			"0.016": 0.0,
			"0.017": 0.0,
			"0.018": 0.0,
			"0.019": 0.0,
			"0.02": 0.0,
			"0.021": 0.0,
			"0.022": 0.0,
			"0.023": 0.0,
			"0.024": 0.0,
			"0.025": 0.0
		}
	}
}
