{
	 "smiles": "OC(=O)C1=CC(C(O)=O)=C(O)C=C1", 
	 "Tm": 583.15, 
	 "num_atms": 19, 
	 "gaussian": { 
		 "optdone": 1, 
		 "sigma_profile": "yes", 
		 "theory": "DFT", 
		 "functional": "B3LYP", 
		 "basiset": "6-31G**", 
		 "properties": { 
			 "R2extent": 2845.9274, 
			 "electric_dipole_moment_norm": 0.215255569034, 
			 "electric_quadrupole_moment_norm": 16.9228771129, 
			 "total_energy": -684.634441928, 
			 "HOMO_LUMO_gap": 0.17941, 
			 "cosmo_polarized_energy": -13.56, 
			 "cosmo_cavitation_energy": 24.43, 
			 "cosmo_dispersion_energy": -18.44, 
			 "cosmo_repulsion_energy": 1.45, 
			 "cosmo_total_nonelectrostatic_energy": 7.44, 
			 "SMD_solvation_energy": 7.0 
		},
		"coords": [
			{
				"x": -1.1884000945,
				"y": -0.1383752056,
				"z": 3.9294261545,
				"element": "O" 
			},
			{
				"x": -1.4323539962,
				"y": 0.0991150935,
				"z": 2.6144143827,
				"element": "C" 
			},
			{
				"x": -2.5625490487,
				"y": 0.1760253568,
				"z": 2.1723204973,
				"element": "O" 
			},
			{
				"x": -0.1940323608,
				"y": 0.2474912663,
				"z": 1.8153150786,
				"element": "C" 
			},
			{
				"x": -0.3184749819,
				"y": 0.4942733711,
				"z": 0.4506756449,
				"element": "C" 
			},
			{
				"x": 0.8145467151,
				"y": 0.6442575766,
				"z": -0.3592351979,
				"element": "C" 
			},
			{
				"x": 0.7117918294,
				"y": 0.9047409464,
				"z": -1.7993663573,
				"element": "C" 
			},
			{
				"x": -0.5430675323,
				"y": 0.9865777285,
				"z": -2.2724176127,
				"element": "O" 
			},
			{
				"x": 1.6829076067,
				"y": 1.0428742152,
				"z": -2.5469119362,
				"element": "O" 
			},
			{
				"x": 2.1101650903,
				"y": 0.5428789365,
				"z": 0.221399614,
				"element": "C" 
			},
			{
				"x": 3.2311784917,
				"y": 0.6753129727,
				"z": -0.492144919,
				"element": "O" 
			},
			{
				"x": 2.2263896178,
				"y": 0.2933321131,
				"z": 1.6013392935,
				"element": "C" 
			},
			{
				"x": 1.0942045414,
				"y": 0.1486004679,
				"z": 2.3821486727,
				"element": "C" 
			},
			{
				"x": -2.0611675178,
				"y": -0.2166716095,
				"z": 4.34801165,
				"element": "H" 
			},
			{
				"x": -1.3094548597,
				"y": 0.5696718007,
				"z": 0.0184709169,
				"element": "H" 
			},
			{
				"x": -0.4670808143,
				"y": 1.1593295143,
				"z": -3.2256102361,
				"element": "H" 
			},
			{
				"x": 2.9633508684,
				"y": 0.8441626481,
				"z": -1.4294537796,
				"element": "H" 
			},
			{
				"x": 3.2218861407,
				"y": 0.2195068212,
				"z": 2.0249792687,
				"element": "H" 
			},
			{
				"x": 1.1913603046,
				"y": -0.0436040138,
				"z": 3.4448388648,
				"element": "H" 
			}
		],
		 "valence_orbital": [ 
			{
				"type": "occ",
				"energy": -0.3192,
				"method": "rhf"
			},
			{
				"type": "occ",
				"energy": -0.30173,
				"method": "rhf"
			},
			{
				"type": "occ",
				"energy": -0.27891,
				"method": "rhf"
			},
			{
				"type": "occ",
				"energy": -0.27873,
				"method": "rhf"
			},
			{
				"type": "occ",
				"energy": -0.2428,
				"method": "rhf"
			},
			{
				"type": "unocc",
				"energy": -0.06339,
				"method": "rhf"
			},
			{
				"type": "unocc",
				"energy": -0.04472,
				"method": "rhf"
			},
			{
				"type": "unocc",
				"energy": 0.02325,
				"method": "rhf"
			},
			{
				"type": "unocc",
				"energy": 0.06349,
				"method": "rhf"
			},
			{
				"type": "unocc",
				"energy": 0.07629,
				"method": "rhf"
			}
		],
		"cosmo_sigma_profile": { 
			"-0.025": 0.0,
			"-0.024": 0.0,
			"-0.023": 0.0,
			"-0.022": 0.0,
			"-0.021": 0.0,
			"-0.02": 0.107798653836,
			"-0.019": 0.718003174488,
			"-0.018": 1.85530712511,
			"-0.017": 1.69183540229,
			"-0.016": 1.3300632392,
			"-0.015": 2.19445951832,
			"-0.014": 1.11893981288,
			"-0.013": 0.645382949731,
			"-0.012": 1.21942523943,
			"-0.011": 1.84770734051,
			"-0.01": 1.19086759304,
			"-0.009": 1.51013996642,
			"-0.008": 2.68074838171,
			"-0.007": 5.38051623027,
			"-0.006": 5.73472331028,
			"-0.005": 5.84529794483,
			"-0.004": 10.3945079125,
			"-0.003": 12.2489136121,
			"-0.002": 13.1317626082,
			"-0.001": 14.2121633451,
			"0.0": 18.7618170787,
			"0.001": 20.4223038279,
			"0.002": 13.5157017011,
			"0.003": 7.99455725595,
			"0.004": 6.23976305682,
			"0.005": 6.41246440777,
			"0.006": 7.86584093884,
			"0.007": 5.75848142941,
			"0.008": 4.0375627548,
			"0.009": 4.85286918364,
			"0.01": 5.64912865564,
			"0.011": 4.86209467465,
			"0.012": 4.26747969947,
			"0.013": 0.121788739229,
			"0.014": 0.0,
			"0.015": 0.0,
			"0.016": 0.0,
			"0.017": 0.0,
			"0.018": 0.0,
			"0.019": 0.0,
			"0.02": 0.0,
			"0.021": 0.0,
			"0.022": 0.0,
			"0.023": 0.0,
			"0.024": 0.0,
			"0.025": 0.0
		}
	}
}
