{
	 "smiles": "ON=C(Cl)C1=CC=C(Cl)C=C1Cl", 
	 "Tm": 367.15, 
	 "num_atms": 16, 
	 "gaussian": { 
		 "optdone": 1, 
		 "sigma_profile": "yes", 
		 "theory": "DFT", 
		 "functional": "B3LYP", 
		 "basiset": "6-31G**", 
		 "properties": { 
			 "R2extent": 5040.2105, 
			 "electric_dipole_moment_norm": 1.14474631688, 
			 "electric_quadrupole_moment_norm": 8.97854987345, 
			 "total_energy": -1779.63961677, 
			 "HOMO_LUMO_gap": 0.19158, 
			 "cosmo_polarized_energy": -8.62, 
			 "cosmo_cavitation_energy": 26.63, 
			 "cosmo_dispersion_energy": -19.8, 
			 "cosmo_repulsion_energy": 1.61, 
			 "cosmo_total_nonelectrostatic_energy": 8.45, 
			 "SMD_solvation_energy": 4.2 
		},
		"coords": [
			{
				"x": -1.8847457298,
				"y": 4.6393128632,
				"z": 1.3396039098,
				"element": "O" 
			},
			{
				"x": -1.9312652769,
				"y": 3.6423780873,
				"z": 0.3864474877,
				"element": "N" 
			},
			{
				"x": -0.8566815754,
				"y": 2.9704086547,
				"z": 0.2637427566,
				"element": "C" 
			},
			{
				"x": 0.5971575473,
				"y": 3.3181306161,
				"z": 1.2088826247,
				"element": "Cl" 
			},
			{
				"x": -0.7629434894,
				"y": 1.8641016929,
				"z": -0.7159872814,
				"element": "C" 
			},
			{
				"x": 0.3545877607,
				"y": 1.8007582532,
				"z": -1.5653904747,
				"element": "C" 
			},
			{
				"x": 0.4950334475,
				"y": 0.810135673,
				"z": -2.5293024782,
				"element": "C" 
			},
			{
				"x": -0.5033871499,
				"y": -0.1561740272,
				"z": -2.6469060079,
				"element": "C" 
			},
			{
				"x": -0.3526287372,
				"y": -1.4192434188,
				"z": -3.8508777271,
				"element": "Cl" 
			},
			{
				"x": -1.6191497836,
				"y": -0.1417362509,
				"z": -1.8149125346,
				"element": "C" 
			},
			{
				"x": -1.7449021825,
				"y": 0.8636745899,
				"z": -0.8542442002,
				"element": "C" 
			},
			{
				"x": -3.1493987563,
				"y": 0.781927367,
				"z": 0.1868034017,
				"element": "Cl" 
			},
			{
				"x": -2.7742949961,
				"y": 5.0173188417,
				"z": 1.2882554757,
				"element": "H" 
			},
			{
				"x": 1.1270018552,
				"y": 2.5550475846,
				"z": -1.4622994611,
				"element": "H" 
			},
			{
				"x": 1.3619543779,
				"y": 0.7864712891,
				"z": -3.1790604111,
				"element": "H" 
			},
			{
				"x": -2.3815373114,
				"y": -0.9058118157,
				"z": -1.9005550798,
				"element": "H" 
			}
		],
		 "valence_orbital": [ 
			{
				"type": "occ",
				"energy": -0.32128,
				"method": "rhf"
			},
			{
				"type": "occ",
				"energy": -0.29802,
				"method": "rhf"
			},
			{
				"type": "occ",
				"energy": -0.28313,
				"method": "rhf"
			},
			{
				"type": "occ",
				"energy": -0.27007,
				"method": "rhf"
			},
			{
				"type": "occ",
				"energy": -0.25004,
				"method": "rhf"
			},
			{
				"type": "unocc",
				"energy": -0.05846,
				"method": "rhf"
			},
			{
				"type": "unocc",
				"energy": -0.03495,
				"method": "rhf"
			},
			{
				"type": "unocc",
				"energy": -0.00272,
				"method": "rhf"
			},
			{
				"type": "unocc",
				"energy": 0.00037,
				"method": "rhf"
			},
			{
				"type": "unocc",
				"energy": 0.02426,
				"method": "rhf"
			}
		],
		"cosmo_sigma_profile": { 
			"-0.025": 0.0,
			"-0.024": 0.0,
			"-0.023": 0.0,
			"-0.022": 0.0,
			"-0.021": 0.0,
			"-0.02": 0.0,
			"-0.019": 0.55704234657,
			"-0.018": 1.00211157233,
			"-0.017": 1.54834052116,
			"-0.016": 0.481074876382,
			"-0.015": 0.935294675734,
			"-0.014": 0.686888735666,
			"-0.013": 0.392354264703,
			"-0.012": 0.469742658054,
			"-0.011": 0.962191605862,
			"-0.01": 1.08289100944,
			"-0.009": 1.50117212499,
			"-0.008": 4.77573714208,
			"-0.007": 6.34011800964,
			"-0.006": 6.04153497438,
			"-0.005": 5.70919201158,
			"-0.004": 6.55522428798,
			"-0.003": 8.75453182904,
			"-0.002": 12.2187745438,
			"-0.001": 16.8739107566,
			"0.0": 30.032341681,
			"0.001": 27.9582267146,
			"0.002": 19.4938676262,
			"0.003": 24.1453079667,
			"0.004": 21.9671587839,
			"0.005": 4.91274312573,
			"0.006": 3.42848621574,
			"0.007": 3.39431640719,
			"0.008": 3.40828547377,
			"0.009": 3.46687404754,
			"0.01": 1.76468960202,
			"0.011": 0.00406610249662,
			"0.012": 0.0,
			"0.013": 0.0,
			"0.014": 0.0,
			"0.015": 0.0,
			"0.016": 0.0,
			"0.017": 0.0,
			"0.018": 0.0,
			"0.019": 0.0,
			"0.02": 0.0,
			"0.021": 0.0,
			"0.022": 0.0,
			"0.023": 0.0,
			"0.024": 0.0,
			"0.025": 0.0
		}
	}
}
