{
	 "smiles": "COC1=CC(=CC(OC)=C1OC)C(C)=O", 
	 "Tm": 354.15, 
	 "num_atms": 29, 
	 "gaussian": { 
		 "optdone": 1, 
		 "sigma_profile": "yes", 
		 "theory": "DFT", 
		 "functional": "B3LYP", 
		 "basiset": "6-31G**", 
		 "properties": { 
			 "R2extent": 3903.1429, 
			 "electric_dipole_moment_norm": 2.22226716666, 
			 "electric_quadrupole_moment_norm": 24.3280599849, 
			 "total_energy": -728.459438703, 
			 "HOMO_LUMO_gap": 0.16932, 
			 "cosmo_polarized_energy": -13.95, 
			 "cosmo_cavitation_energy": 32.7, 
			 "cosmo_dispersion_energy": -23.0, 
			 "cosmo_repulsion_energy": 1.83, 
			 "cosmo_total_nonelectrostatic_energy": 11.53, 
			 "SMD_solvation_energy": 8.71 
		},
		"coords": [
			{
				"x": 3.7651675668,
				"y": -0.2400932841,
				"z": 0.7584759144,
				"element": "C" 
			},
			{
				"x": 2.4037296242,
				"y": -0.5697654772,
				"z": 0.9754925998,
				"element": "O" 
			},
			{
				"x": 1.4616832631,
				"y": 0.0672507273,
				"z": 0.2247820219,
				"element": "C" 
			},
			{
				"x": 1.7415490634,
				"y": 1.0058467193,
				"z": -0.7745556296,
				"element": "C" 
			},
			{
				"x": 0.6903826854,
				"y": 1.5882080833,
				"z": -1.4964364151,
				"element": "C" 
			},
			{
				"x": -0.6381292187,
				"y": 1.2410401711,
				"z": -1.2197189021,
				"element": "C" 
			},
			{
				"x": -0.9213544595,
				"y": 0.3131398139,
				"z": -0.218259007,
				"element": "C" 
			},
			{
				"x": -2.1758058067,
				"y": -0.0877188439,
				"z": 0.1352959143,
				"element": "O" 
			},
			{
				"x": -3.2770341306,
				"y": 0.5047966894,
				"z": -0.5396567985,
				"element": "C" 
			},
			{
				"x": 0.1277606863,
				"y": -0.2788369076,
				"z": 0.5150950504,
				"element": "C" 
			},
			{
				"x": -0.1259128306,
				"y": -1.1395375238,
				"z": 1.5449693836,
				"element": "O" 
			},
			{
				"x": -0.5323624995,
				"y": -2.4561808139,
				"z": 1.161613325,
				"element": "C" 
			},
			{
				"x": 0.9273541106,
				"y": 2.5935810405,
				"z": -2.5800584177,
				"element": "C" 
			},
			{
				"x": 2.3550190135,
				"y": 3.0057326126,
				"z": -2.9044475613,
				"element": "C" 
			},
			{
				"x": -0.0090141346,
				"y": 3.0802418694,
				"z": -3.1987324842,
				"element": "O" 
			},
			{
				"x": 4.0858682798,
				"y": -0.4810412613,
				"z": -0.2638492345,
				"element": "H" 
			},
			{
				"x": 4.3360802615,
				"y": -0.8457011059,
				"z": 1.4639693245,
				"element": "H" 
			},
			{
				"x": 3.9622625314,
				"y": 0.8219934364,
				"z": 0.9544042845,
				"element": "H" 
			},
			{
				"x": 2.7661475237,
				"y": 1.2732879788,
				"z": -0.9948613199,
				"element": "H" 
			},
			{
				"x": -1.4144817169,
				"y": 1.7192916751,
				"z": -1.8025585597,
				"element": "H" 
			},
			{
				"x": -3.2590913278,
				"y": 0.2856891513,
				"z": -1.6145538182,
				"element": "H" 
			},
			{
				"x": -3.2982116207,
				"y": 1.5920001625,
				"z": -0.3966343665,
				"element": "H" 
			},
			{
				"x": -4.1711191157,
				"y": 0.0645409818,
				"z": -0.0958703698,
				"element": "H" 
			},
			{
				"x": -0.6788667972,
				"y": -3.0107436756,
				"z": 2.0906339379,
				"element": "H" 
			},
			{
				"x": 0.2468201605,
				"y": -2.948456763,
				"z": 0.5666393306,
				"element": "H" 
			},
			{
				"x": -1.4704119595,
				"y": -2.4344552972,
				"z": 0.5978126394,
				"element": "H" 
			},
			{
				"x": 2.9529858058,
				"y": 2.1426562682,
				"z": -3.2172679516,
				"element": "H" 
			},
			{
				"x": 2.3299935568,
				"y": 3.7387500314,
				"z": -3.7111586654,
				"element": "H" 
			},
			{
				"x": 2.8465914852,
				"y": 3.4453835412,
				"z": -2.0296642254,
				"element": "H" 
			}
		],
		 "valence_orbital": [ 
			{
				"type": "occ",
				"energy": -0.30111,
				"method": "rhf"
			},
			{
				"type": "occ",
				"energy": -0.27001,
				"method": "rhf"
			},
			{
				"type": "occ",
				"energy": -0.24378,
				"method": "rhf"
			},
			{
				"type": "occ",
				"energy": -0.22322,
				"method": "rhf"
			},
			{
				"type": "occ",
				"energy": -0.21784,
				"method": "rhf"
			},
			{
				"type": "unocc",
				"energy": -0.04852,
				"method": "rhf"
			},
			{
				"type": "unocc",
				"energy": 0.01624,
				"method": "rhf"
			},
			{
				"type": "unocc",
				"energy": 0.05005,
				"method": "rhf"
			},
			{
				"type": "unocc",
				"energy": 0.07846,
				"method": "rhf"
			},
			{
				"type": "unocc",
				"energy": 0.09174,
				"method": "rhf"
			}
		],
		"cosmo_sigma_profile": { 
			"-0.025": 0.0,
			"-0.024": 0.0,
			"-0.023": 0.0,
			"-0.022": 0.0,
			"-0.021": 0.0,
			"-0.02": 0.0,
			"-0.019": 0.0,
			"-0.018": 0.0,
			"-0.017": 0.0,
			"-0.016": 0.0,
			"-0.015": 0.0,
			"-0.014": 0.0,
			"-0.013": 0.0,
			"-0.012": 0.0,
			"-0.011": 0.0,
			"-0.01": 0.0,
			"-0.009": 0.0,
			"-0.008": 0.0,
			"-0.007": 2.00596365055,
			"-0.006": 17.5943637926,
			"-0.005": 29.1290444802,
			"-0.004": 29.4315561951,
			"-0.003": 30.5900987662,
			"-0.002": 22.7727838113,
			"-0.001": 17.2430669064,
			"0.0": 13.252468642,
			"0.001": 10.7735500596,
			"0.002": 14.715344708,
			"0.003": 15.0319490226,
			"0.004": 11.2820447947,
			"0.005": 5.09861382729,
			"0.006": 4.90792903501,
			"0.007": 4.78643417192,
			"0.008": 3.73251760646,
			"0.009": 4.6192648443,
			"0.01": 5.24992166335,
			"0.011": 5.95671599527,
			"0.012": 6.75830867187,
			"0.013": 2.97284505591,
			"0.014": 0.712629587907,
			"0.015": 0.00193121737937,
			"0.016": 0.0,
			"0.017": 0.0,
			"0.018": 0.0,
			"0.019": 0.0,
			"0.02": 0.0,
			"0.021": 0.0,
			"0.022": 0.0,
			"0.023": 0.0,
			"0.024": 0.0,
			"0.025": 0.0
		}
	}
}
