{
	 "smiles": "COC1=CC=CC=C1C1=NN=C2SC(NN12)C1=CC=C(C=C1)[N+]([O-])=O", 
	 "Tm": 469.15, 
	 "num_atms": 38, 
	 "gaussian": { 
		 "optdone": 1, 
		 "sigma_profile": "yes", 
		 "theory": "DFT", 
		 "functional": "B3LYP", 
		 "basiset": "6-31G**", 
		 "properties": { 
			 "R2extent": 10231.1686, 
			 "electric_dipole_moment_norm": 7.90720530339, 
			 "electric_quadrupole_moment_norm": 30.8605742403, 
			 "total_energy": -1514.96444644, 
			 "HOMO_LUMO_gap": 0.12481, 
			 "cosmo_polarized_energy": -28.2, 
			 "cosmo_cavitation_energy": 44.3, 
			 "cosmo_dispersion_energy": -31.02, 
			 "cosmo_repulsion_energy": 2.25, 
			 "cosmo_total_nonelectrostatic_energy": 15.53, 
			 "SMD_solvation_energy": 7.44 
		},
		"coords": [
			{
				"x": 0.3829250929,
				"y": -2.9816826472,
				"z": 0.2621982781,
				"element": "C" 
			},
			{
				"x": -0.1778698986,
				"y": -1.9785972227,
				"z": -0.574438687,
				"element": "O" 
			},
			{
				"x": -1.1508456903,
				"y": -2.3332686381,
				"z": -1.4617095257,
				"element": "C" 
			},
			{
				"x": -1.5591444046,
				"y": -3.655186048,
				"z": -1.6722932206,
				"element": "C" 
			},
			{
				"x": -2.5229405601,
				"y": -3.9457858623,
				"z": -2.6394714037,
				"element": "C" 
			},
			{
				"x": -3.0852694666,
				"y": -2.9276101908,
				"z": -3.4068242519,
				"element": "C" 
			},
			{
				"x": -2.6911042999,
				"y": -1.6101578008,
				"z": -3.1856200126,
				"element": "C" 
			},
			{
				"x": -1.7382976062,
				"y": -1.2868784654,
				"z": -2.2080882689,
				"element": "C" 
			},
			{
				"x": -1.376817884,
				"y": 0.1306326265,
				"z": -2.0648077906,
				"element": "C" 
			},
			{
				"x": -1.3061148231,
				"y": 0.9722012382,
				"z": -3.0834237618,
				"element": "N" 
			},
			{
				"x": -1.0659065188,
				"y": 2.2551932007,
				"z": -2.6110343226,
				"element": "N" 
			},
			{
				"x": -1.0206683478,
				"y": 2.1568471468,
				"z": -1.3102347337,
				"element": "C" 
			},
			{
				"x": -0.8332632151,
				"y": 3.2623193593,
				"z": 0.0454457944,
				"element": "S" 
			},
			{
				"x": -0.5650012523,
				"y": 1.7033287944,
				"z": 1.1360586015,
				"element": "C" 
			},
			{
				"x": -1.2648538692,
				"y": 0.6006799093,
				"z": 0.4778917292,
				"element": "N" 
			},
			{
				"x": -1.1879485733,
				"y": 0.8575726836,
				"z": -0.9049096908,
				"element": "N" 
			},
			{
				"x": 0.9121210186,
				"y": 1.4714534355,
				"z": 1.3603280731,
				"element": "C" 
			},
			{
				"x": 1.5702095601,
				"y": 2.2485620901,
				"z": 2.3255362281,
				"element": "C" 
			},
			{
				"x": 2.9302351628,
				"y": 2.0892464375,
				"z": 2.5639303232,
				"element": "C" 
			},
			{
				"x": 3.6278970787,
				"y": 1.1391150878,
				"z": 1.8203064537,
				"element": "C" 
			},
			{
				"x": 3.0011934186,
				"y": 0.3530532134,
				"z": 0.8570289584,
				"element": "C" 
			},
			{
				"x": 1.6363429947,
				"y": 0.519035663,
				"z": 0.6309483909,
				"element": "C" 
			},
			{
				"x": 5.0667305171,
				"y": 0.9554561586,
				"z": 2.0688226382,
				"element": "N" 
			},
			{
				"x": 5.5926072663,
				"y": 1.6683834169,
				"z": 2.9228343996,
				"element": "O" 
			},
			{
				"x": 5.6542760064,
				"y": 0.0987311468,
				"z": 1.4096835143,
				"element": "O" 
			},
			{
				"x": 0.9179312913,
				"y": -3.7404089245,
				"z": -0.3217287862,
				"element": "H" 
			},
			{
				"x": 1.0874172074,
				"y": -2.4654187334,
				"z": 0.9151932015,
				"element": "H" 
			},
			{
				"x": -0.3859844623,
				"y": -3.4694082444,
				"z": 0.8732893001,
				"element": "H" 
			},
			{
				"x": -1.1181292245,
				"y": -4.4622904667,
				"z": -1.1005859982,
				"element": "H" 
			},
			{
				"x": -2.8252651806,
				"y": -4.9778684501,
				"z": -2.7914623107,
				"element": "H" 
			},
			{
				"x": -3.8284012951,
				"y": -3.1528884123,
				"z": -4.1647079177,
				"element": "H" 
			},
			{
				"x": -3.1140658284,
				"y": -0.7984074718,
				"z": -3.7671136358,
				"element": "H" 
			},
			{
				"x": -1.0615874947,
				"y": 1.9039661596,
				"z": 2.0869275783,
				"element": "H" 
			},
			{
				"x": -2.2528797602,
				"y": 0.6356567587,
				"z": 0.7337188118,
				"element": "H" 
			},
			{
				"x": 1.0150969626,
				"y": 2.9885510242,
				"z": 2.896133347,
				"element": "H" 
			},
			{
				"x": 3.4537617457,
				"y": 2.6760736792,
				"z": 3.3079448633,
				"element": "H" 
			},
			{
				"x": 3.5831960133,
				"y": -0.3724114356,
				"z": 0.3024006483,
				"element": "H" 
			},
			{
				"x": 1.1340183193,
				"y": -0.1016902161,
				"z": -0.1011668148,
				"element": "H" 
			}
		],
		 "valence_orbital": [ 
			{
				"type": "occ",
				"energy": -0.27707,
				"method": "rhf"
			},
			{
				"type": "occ",
				"energy": -0.26703,
				"method": "rhf"
			},
			{
				"type": "occ",
				"energy": -0.25681,
				"method": "rhf"
			},
			{
				"type": "occ",
				"energy": -0.24279,
				"method": "rhf"
			},
			{
				"type": "occ",
				"energy": -0.22206,
				"method": "rhf"
			},
			{
				"type": "unocc",
				"energy": -0.09725,
				"method": "rhf"
			},
			{
				"type": "unocc",
				"energy": -0.04105,
				"method": "rhf"
			},
			{
				"type": "unocc",
				"energy": -0.03681,
				"method": "rhf"
			},
			{
				"type": "unocc",
				"energy": -0.0324,
				"method": "rhf"
			},
			{
				"type": "unocc",
				"energy": -0.00365,
				"method": "rhf"
			}
		],
		"cosmo_sigma_profile": { 
			"-0.025": 0.0,
			"-0.024": 0.0,
			"-0.023": 0.0,
			"-0.022": 0.0,
			"-0.021": 0.0,
			"-0.02": 0.0,
			"-0.019": 0.0,
			"-0.018": 0.0,
			"-0.017": 0.0,
			"-0.016": 1.17689110398,
			"-0.015": 2.61135052873,
			"-0.014": 1.11594993518,
			"-0.013": 2.19093310485,
			"-0.012": 1.62013996434,
			"-0.011": 4.26688855095,
			"-0.01": 4.28117248071,
			"-0.009": 3.45848604716,
			"-0.008": 5.13390159264,
			"-0.007": 8.87189311098,
			"-0.006": 19.8764399168,
			"-0.005": 22.3664030892,
			"-0.004": 27.2268864716,
			"-0.003": 24.839894281,
			"-0.002": 21.1724868533,
			"-0.001": 21.5169712478,
			"0.0": 24.6906998363,
			"0.001": 29.3592051936,
			"0.002": 21.9692876326,
			"0.003": 17.4487328872,
			"0.004": 20.63321653,
			"0.005": 14.7387796106,
			"0.006": 8.65818767378,
			"0.007": 10.5872347365,
			"0.008": 10.5290376737,
			"0.009": 6.4438883012,
			"0.01": 5.36624226978,
			"0.011": 2.71208213481,
			"0.012": 2.44990022422,
			"0.013": 4.0436929661,
			"0.014": 2.57182279552,
			"0.015": 2.64744969116,
			"0.016": 1.6792951216,
			"0.017": 0.152825253157,
			"0.018": 0.0,
			"0.019": 0.0,
			"0.02": 0.0,
			"0.021": 0.0,
			"0.022": 0.0,
			"0.023": 0.0,
			"0.024": 0.0,
			"0.025": 0.0
		}
	}
}
