{
	 "smiles": "NC1(CC1)C1=CC(=CC=C1)C#N", 
	 "Tm": 341.15, 
	 "num_atms": 22, 
	 "gaussian": { 
		 "optdone": 1, 
		 "sigma_profile": "yes", 
		 "theory": "DFT", 
		 "functional": "B3LYP", 
		 "basiset": "6-31G**", 
		 "properties": { 
			 "R2extent": 2798.5818, 
			 "electric_dipole_moment_norm": 4.22872056301, 
			 "electric_quadrupole_moment_norm": 21.2634012228, 
			 "total_energy": -496.545560858, 
			 "HOMO_LUMO_gap": 0.19421, 
			 "cosmo_polarized_energy": -11.62, 
			 "cosmo_cavitation_energy": 26.93, 
			 "cosmo_dispersion_energy": -18.43, 
			 "cosmo_repulsion_energy": 1.49, 
			 "cosmo_total_nonelectrostatic_energy": 9.99, 
			 "SMD_solvation_energy": 4.93 
		},
		"coords": [
			{
				"x": -0.1907188216,
				"y": -1.7160748479,
				"z": -0.9016725456,
				"element": "N" 
			},
			{
				"x": -0.6413437346,
				"y": -0.3445466757,
				"z": -0.736029815,
				"element": "C" 
			},
			{
				"x": -1.4757890669,
				"y": 0.1888034932,
				"z": -1.8755244618,
				"element": "C" 
			},
			{
				"x": -0.0418257683,
				"y": 0.639557774,
				"z": -1.710778961,
				"element": "C" 
			},
			{
				"x": -0.9468007333,
				"y": 0.1036787496,
				"z": 0.6740117568,
				"element": "C" 
			},
			{
				"x": 0.0551524163,
				"y": 0.6552940744,
				"z": 1.4781946152,
				"element": "C" 
			},
			{
				"x": -0.2084860647,
				"y": 1.002717513,
				"z": 2.813215932,
				"element": "C" 
			},
			{
				"x": -1.4880509287,
				"y": 0.7997298114,
				"z": 3.3564846444,
				"element": "C" 
			},
			{
				"x": -2.4882717,
				"y": 0.2531555979,
				"z": 2.556433242,
				"element": "C" 
			},
			{
				"x": -2.2199152637,
				"y": -0.0907183628,
				"z": 1.2304737262,
				"element": "C" 
			},
			{
				"x": 0.832050963,
				"y": 1.5708435897,
				"z": 3.6218155161,
				"element": "C" 
			},
			{
				"x": 1.6769147089,
				"y": 2.0295341193,
				"z": 4.27694037,
				"element": "N" 
			},
			{
				"x": -0.8883256102,
				"y": -2.3601456468,
				"z": -0.5335874959,
				"element": "H" 
			},
			{
				"x": 0.6597491982,
				"y": -1.8714138171,
				"z": -0.3634989395,
				"element": "H" 
			},
			{
				"x": -1.6948245667,
				"y": -0.5037045126,
				"z": -2.6813130715,
				"element": "H" 
			},
			{
				"x": -2.2615416169,
				"y": 0.9028935441,
				"z": -1.6487576208,
				"element": "H" 
			},
			{
				"x": 0.6910225435,
				"y": 0.2463315395,
				"z": -2.4072292272,
				"element": "H" 
			},
			{
				"x": 0.1354136971,
				"y": 1.656283175,
				"z": -1.3739524988,
				"element": "H" 
			},
			{
				"x": 1.0460569042,
				"y": 0.8250088158,
				"z": 1.0679935404,
				"element": "H" 
			},
			{
				"x": -1.685321651,
				"y": 1.0738665341,
				"z": 4.38725864,
				"element": "H" 
			},
			{
				"x": -3.481704494,
				"y": 0.099324911,
				"z": 2.9668799955,
				"element": "H" 
			},
			{
				"x": -3.0086404105,
				"y": -0.5088193791,
				"z": 0.6103426586,
				"element": "H" 
			}
		],
		 "valence_orbital": [ 
			{
				"type": "occ",
				"energy": -0.3195,
				"method": "rhf"
			},
			{
				"type": "occ",
				"energy": -0.29166,
				"method": "rhf"
			},
			{
				"type": "occ",
				"energy": -0.27254,
				"method": "rhf"
			},
			{
				"type": "occ",
				"energy": -0.26625,
				"method": "rhf"
			},
			{
				"type": "occ",
				"energy": -0.24654,
				"method": "rhf"
			},
			{
				"type": "unocc",
				"energy": -0.05233,
				"method": "rhf"
			},
			{
				"type": "unocc",
				"energy": -0.0262,
				"method": "rhf"
			},
			{
				"type": "unocc",
				"energy": 0.03739,
				"method": "rhf"
			},
			{
				"type": "unocc",
				"energy": 0.0718,
				"method": "rhf"
			},
			{
				"type": "unocc",
				"energy": 0.07882,
				"method": "rhf"
			}
		],
		"cosmo_sigma_profile": { 
			"-0.025": 0.0,
			"-0.024": 0.0,
			"-0.023": 0.0,
			"-0.022": 0.0,
			"-0.021": 0.0,
			"-0.02": 0.0,
			"-0.019": 0.0,
			"-0.018": 0.0,
			"-0.017": 0.0,
			"-0.016": 0.0,
			"-0.015": 0.0,
			"-0.014": 0.0,
			"-0.013": 0.0,
			"-0.012": 0.0,
			"-0.011": 0.0,
			"-0.01": 1.41609335935,
			"-0.009": 2.42170238142,
			"-0.008": 4.27908398497,
			"-0.007": 7.71129875403,
			"-0.006": 11.5401147447,
			"-0.005": 14.3268035669,
			"-0.004": 15.9195421276,
			"-0.003": 16.7424494213,
			"-0.002": 19.1813991908,
			"-0.001": 16.8949543275,
			"0.0": 18.2763825205,
			"0.001": 15.4835548856,
			"0.002": 15.6432960419,
			"0.003": 14.2497031617,
			"0.004": 5.31868117508,
			"0.005": 4.93309570982,
			"0.006": 3.21472068963,
			"0.007": 3.54155340212,
			"0.008": 4.09749778836,
			"0.009": 4.3613185058,
			"0.01": 4.13742722816,
			"0.011": 3.18380702563,
			"0.012": 2.98566756618,
			"0.013": 2.29582740903,
			"0.014": 0.705572079968,
			"0.015": 0.235517407557,
			"0.016": 0.844619167432,
			"0.017": 0.382725220675,
			"0.018": 0.346742604663,
			"0.019": 0.0043788676539,
			"0.02": 0.0,
			"0.021": 0.0,
			"0.022": 0.0,
			"0.023": 0.0,
			"0.024": 0.0,
			"0.025": 0.0
		}
	}
}
