{
	 "smiles": "OC1=CC=C(C(C=O)=C1)N(=O)=O", 
	 "Tm": 440.15, 
	 "num_atms": 17, 
	 "gaussian": { 
		 "optdone": 1, 
		 "sigma_profile": "yes", 
		 "theory": "DFT", 
		 "functional": "B3LYP", 
		 "basiset": "6-31G**", 
		 "properties": { 
			 "R2extent": 3040.0431, 
			 "electric_dipole_moment_norm": 7.28389041653, 
			 "electric_quadrupole_moment_norm": 19.0644733887, 
			 "total_energy": -625.273916405, 
			 "HOMO_LUMO_gap": 0.16628, 
			 "cosmo_polarized_energy": -19.36, 
			 "cosmo_cavitation_energy": 23.05, 
			 "cosmo_dispersion_energy": -16.68, 
			 "cosmo_repulsion_energy": 1.33, 
			 "cosmo_total_nonelectrostatic_energy": 7.69, 
			 "SMD_solvation_energy": 7.69 
		},
		"coords": [
			{
				"x": 2.9802091034,
				"y": 1.5757543043,
				"z": 0.11767579,
				"element": "O" 
			},
			{
				"x": 1.6261952193,
				"y": 1.6465172675,
				"z": 0.0758192743,
				"element": "C" 
			},
			{
				"x": 0.9110007979,
				"y": 1.9978494649,
				"z": -1.0735401217,
				"element": "C" 
			},
			{
				"x": -0.4812966809,
				"y": 2.0389364532,
				"z": -1.0369631008,
				"element": "C" 
			},
			{
				"x": -1.1587181437,
				"y": 1.7297197219,
				"z": 0.1364575643,
				"element": "C" 
			},
			{
				"x": -0.4576861797,
				"y": 1.4054306103,
				"z": 1.312984346,
				"element": "C" 
			},
			{
				"x": -1.0702877699,
				"y": 1.2608598202,
				"z": 2.6717176912,
				"element": "C" 
			},
			{
				"x": -2.1144524656,
				"y": 1.7605646317,
				"z": 3.0203209046,
				"element": "O" 
			},
			{
				"x": 0.9344993394,
				"y": 1.3572101303,
				"z": 1.2605739924,
				"element": "C" 
			},
			{
				"x": -2.6252403942,
				"y": 1.6584080986,
				"z": 0.0532962127,
				"element": "N" 
			},
			{
				"x": -3.1829145625,
				"y": 2.4981743023,
				"z": -0.6539164076,
				"element": "O" 
			},
			{
				"x": -3.1821178901,
				"y": 0.7366000659,
				"z": 0.639131699,
				"element": "O" 
			},
			{
				"x": 3.3490361223,
				"y": 1.8036616387,
				"z": -0.7462057026,
				"element": "H" 
			},
			{
				"x": 1.435054681,
				"y": 2.2285730894,
				"z": -1.9975462214,
				"element": "H" 
			},
			{
				"x": -1.0537229912,
				"y": 2.2954930785,
				"z": -1.920460944,
				"element": "H" 
			},
			{
				"x": -0.4303656616,
				"y": 0.6949586483,
				"z": 3.3833636881,
				"element": "H" 
			},
			{
				"x": 1.5065074761,
				"y": 1.1217886741,
				"z": 2.1531913354,
				"element": "H" 
			}
		],
		 "valence_orbital": [ 
			{
				"type": "occ",
				"energy": -0.30485,
				"method": "rhf"
			},
			{
				"type": "occ",
				"energy": -0.2962,
				"method": "rhf"
			},
			{
				"type": "occ",
				"energy": -0.29247,
				"method": "rhf"
			},
			{
				"type": "occ",
				"energy": -0.26978,
				"method": "rhf"
			},
			{
				"type": "occ",
				"energy": -0.25878,
				"method": "rhf"
			},
			{
				"type": "unocc",
				"energy": -0.0925,
				"method": "rhf"
			},
			{
				"type": "unocc",
				"energy": -0.0628,
				"method": "rhf"
			},
			{
				"type": "unocc",
				"energy": -0.02148,
				"method": "rhf"
			},
			{
				"type": "unocc",
				"energy": 0.01682,
				"method": "rhf"
			},
			{
				"type": "unocc",
				"energy": 0.04051,
				"method": "rhf"
			}
		],
		"cosmo_sigma_profile": { 
			"-0.025": 0.0,
			"-0.024": 0.0,
			"-0.023": 0.0,
			"-0.022": 0.0,
			"-0.021": 0.0,
			"-0.02": 0.0344297112534,
			"-0.019": 1.15060840092,
			"-0.018": 1.34476404677,
			"-0.017": 1.33560085842,
			"-0.016": 1.37650024515,
			"-0.015": 0.833688226882,
			"-0.014": 0.567974443175,
			"-0.013": 0.825607755613,
			"-0.012": 1.46102349202,
			"-0.011": 1.33505583852,
			"-0.01": 1.89793135222,
			"-0.009": 5.16098784139,
			"-0.008": 7.08957875833,
			"-0.007": 9.88376878182,
			"-0.006": 7.73541585258,
			"-0.005": 6.5649212241,
			"-0.004": 6.7902691728,
			"-0.003": 6.72100118994,
			"-0.002": 8.38311700417,
			"-0.001": 14.7242119786,
			"0.0": 17.7617498479,
			"0.001": 10.6876178497,
			"0.002": 5.81981969362,
			"0.003": 4.88414319026,
			"0.004": 4.83725023815,
			"0.005": 4.91180164424,
			"0.006": 6.55116419002,
			"0.007": 10.5018923424,
			"0.008": 12.9766228004,
			"0.009": 10.1541108275,
			"0.01": 7.53585616804,
			"0.011": 2.6315363612,
			"0.012": 0.621773413895,
			"0.013": 0.0,
			"0.014": 0.0,
			"0.015": 0.0,
			"0.016": 0.0,
			"0.017": 0.0,
			"0.018": 0.0,
			"0.019": 0.0,
			"0.02": 0.0,
			"0.021": 0.0,
			"0.022": 0.0,
			"0.023": 0.0,
			"0.024": 0.0,
			"0.025": 0.0
		}
	}
}
