{
	 "smiles": "OC1=CC(O)=C(C=NC2=C(C=CC=C2)N=CC2=CC=C(O)C=C2O)C=C1", 
	 "Tm": 437.15, 
	 "num_atms": 42, 
	 "gaussian": { 
		 "optdone": 1, 
		 "sigma_profile": "yes", 
		 "theory": "DFT", 
		 "functional": "B3LYP", 
		 "basiset": "6-31G**", 
		 "properties": { 
			 "R2extent": 11170.2544, 
			 "electric_dipole_moment_norm": 5.26594051429, 
			 "electric_quadrupole_moment_norm": 22.7940058588, 
			 "total_energy": -1182.1192423, 
			 "HOMO_LUMO_gap": 0.14958, 
			 "cosmo_polarized_energy": -27.84, 
			 "cosmo_cavitation_energy": 47.01, 
			 "cosmo_dispersion_energy": -32.19, 
			 "cosmo_repulsion_energy": 2.45, 
			 "cosmo_total_nonelectrostatic_energy": 17.27, 
			 "SMD_solvation_energy": 6.95 
		},
		"coords": [
			{
				"x": 5.8804982908,
				"y": 2.7181415064,
				"z": 0.4364770203,
				"element": "O" 
			},
			{
				"x": 4.595009961,
				"y": 2.2924158183,
				"z": 0.5675354359,
				"element": "C" 
			},
			{
				"x": 3.8590670558,
				"y": 2.483810989,
				"z": 1.7402443307,
				"element": "C" 
			},
			{
				"x": 2.5414910055,
				"y": 2.0256770332,
				"z": 1.8162581228,
				"element": "C" 
			},
			{
				"x": 1.7985727403,
				"y": 2.1961405199,
				"z": 2.9480517,
				"element": "O" 
			},
			{
				"x": 1.936089323,
				"y": 1.354704821,
				"z": 0.7298304522,
				"element": "C" 
			},
			{
				"x": 0.5228983632,
				"y": 0.9520397375,
				"z": 0.8471193802,
				"element": "C" 
			},
			{
				"x": -0.158308892,
				"y": 0.0822684054,
				"z": 0.1992414683,
				"element": "N" 
			},
			{
				"x": 0.3655816418,
				"y": -0.833711455,
				"z": -0.7235987628,
				"element": "C" 
			},
			{
				"x": -0.0021592399,
				"y": -0.7470843425,
				"z": -2.0961198068,
				"element": "C" 
			},
			{
				"x": 0.4583976422,
				"y": -1.7391010303,
				"z": -2.9833801987,
				"element": "C" 
			},
			{
				"x": 1.1989439876,
				"y": -2.8300572629,
				"z": -2.5315962683,
				"element": "C" 
			},
			{
				"x": 1.5378350168,
				"y": -2.9225526631,
				"z": -1.1801205764,
				"element": "C" 
			},
			{
				"x": 1.1277530767,
				"y": -1.9310702988,
				"z": -0.2911590689,
				"element": "C" 
			},
			{
				"x": -0.6236565188,
				"y": 0.3955370501,
				"z": -2.6231271739,
				"element": "N" 
			},
			{
				"x": -1.8028541693,
				"y": 0.8344072945,
				"z": -2.374262084,
				"element": "C" 
			},
			{
				"x": -2.9697048459,
				"y": 0.3585002871,
				"z": -1.6129154512,
				"element": "C" 
			},
			{
				"x": -3.9296823516,
				"y": 1.3554556133,
				"z": -1.3195899426,
				"element": "C" 
			},
			{
				"x": -5.0962606516,
				"y": 1.1113952895,
				"z": -0.6206512347,
				"element": "C" 
			},
			{
				"x": -5.3592402091,
				"y": -0.2019880881,
				"z": -0.2018556468,
				"element": "C" 
			},
			{
				"x": -6.5171405715,
				"y": -0.423597349,
				"z": 0.4788985572,
				"element": "O" 
			},
			{
				"x": -4.4596944264,
				"y": -1.2229207137,
				"z": -0.4940057958,
				"element": "C" 
			},
			{
				"x": -3.2739507847,
				"y": -0.964223652,
				"z": -1.1936241245,
				"element": "C" 
			},
			{
				"x": -2.5312376039,
				"y": -2.059536872,
				"z": -1.4594883779,
				"element": "O" 
			},
			{
				"x": 2.7081729973,
				"y": 1.1891187806,
				"z": -0.4366533913,
				"element": "C" 
			},
			{
				"x": 4.0137685998,
				"y": 1.6453828993,
				"z": -0.5309519579,
				"element": "C" 
			},
			{
				"x": 6.1644340478,
				"y": 3.1525905683,
				"z": 1.2513143063,
				"element": "H" 
			},
			{
				"x": 4.3101269291,
				"y": 2.9842592889,
				"z": 2.5961955342,
				"element": "H" 
			},
			{
				"x": 2.3023258847,
				"y": 2.7125014278,
				"z": 3.58995337,
				"element": "H" 
			},
			{
				"x": -0.0344708582,
				"y": 1.5022583918,
				"z": 1.6078551309,
				"element": "H" 
			},
			{
				"x": 0.2088937157,
				"y": -1.6320207043,
				"z": -4.0346930369,
				"element": "H" 
			},
			{
				"x": 1.5164572886,
				"y": -3.5947393428,
				"z": -3.2338446905,
				"element": "H" 
			},
			{
				"x": 2.1189186898,
				"y": -3.764423511,
				"z": -0.8155303265,
				"element": "H" 
			},
			{
				"x": 1.3776372612,
				"y": -1.9969895436,
				"z": 0.7632987094,
				"element": "H" 
			},
			{
				"x": -2.006508689,
				"y": 1.8068235153,
				"z": -2.8378030287,
				"element": "H" 
			},
			{
				"x": -3.7238456054,
				"y": 2.3684525052,
				"z": -1.6561539744,
				"element": "H" 
			},
			{
				"x": -5.8085325248,
				"y": 1.8975800218,
				"z": -0.3985759736,
				"element": "H" 
			},
			{
				"x": -6.5763755919,
				"y": -1.3609376868,
				"z": 0.7063923797,
				"element": "H" 
			},
			{
				"x": -4.6543865332,
				"y": -2.2494027771,
				"z": -0.1955287448,
				"element": "H" 
			},
			{
				"x": -1.6516786859,
				"y": -1.8271273119,
				"z": -1.8034730339,
				"element": "H" 
			},
			{
				"x": 2.2579544616,
				"y": 0.7107224242,
				"z": -1.2973497828,
				"element": "H" 
			},
			{
				"x": 4.5937607732,
				"y": 1.5210004169,
				"z": -1.4381134436,
				"element": "H" 
			}
		],
		 "valence_orbital": [ 
			{
				"type": "occ",
				"energy": -0.23005,
				"method": "rhf"
			},
			{
				"type": "occ",
				"energy": -0.22771,
				"method": "rhf"
			},
			{
				"type": "occ",
				"energy": -0.21893,
				"method": "rhf"
			},
			{
				"type": "occ",
				"energy": -0.20805,
				"method": "rhf"
			},
			{
				"type": "occ",
				"energy": -0.19328,
				"method": "rhf"
			},
			{
				"type": "unocc",
				"energy": -0.0437,
				"method": "rhf"
			},
			{
				"type": "unocc",
				"energy": -0.03229,
				"method": "rhf"
			},
			{
				"type": "unocc",
				"energy": -0.00281,
				"method": "rhf"
			},
			{
				"type": "unocc",
				"energy": 0.00807,
				"method": "rhf"
			},
			{
				"type": "unocc",
				"energy": 0.01161,
				"method": "rhf"
			}
		],
		"cosmo_sigma_profile": { 
			"-0.025": 0.0,
			"-0.024": 0.0,
			"-0.023": 0.0,
			"-0.022": 0.0,
			"-0.021": 0.0,
			"-0.02": 0.0,
			"-0.019": 0.39035555119,
			"-0.018": 3.27226198796,
			"-0.017": 3.20156821026,
			"-0.016": 3.79609127858,
			"-0.015": 3.13794622748,
			"-0.014": 3.28883888068,
			"-0.013": 1.57192664354,
			"-0.012": 2.23028522624,
			"-0.011": 4.3899519023,
			"-0.01": 4.14259909433,
			"-0.009": 3.04583898482,
			"-0.008": 3.14118284734,
			"-0.007": 7.07285108977,
			"-0.006": 15.0220530989,
			"-0.005": 20.0552509947,
			"-0.004": 19.175273962,
			"-0.003": 21.0473210585,
			"-0.002": 17.4506802024,
			"-0.001": 18.9138548193,
			"0.0": 21.3213293123,
			"0.001": 25.2242856408,
			"0.002": 29.6022138846,
			"0.003": 38.8762753604,
			"0.004": 34.4631681189,
			"0.005": 19.6032480036,
			"0.006": 10.152866938,
			"0.007": 8.44628921543,
			"0.008": 10.1152016968,
			"0.009": 7.61806033186,
			"0.01": 6.71320433298,
			"0.011": 5.48700196317,
			"0.012": 2.21431327698,
			"0.013": 0.889647123046,
			"0.014": 0.73318194175,
			"0.015": 0.460818078898,
			"0.016": 0.0887696512015,
			"0.017": 0.0,
			"0.018": 0.0,
			"0.019": 0.0,
			"0.02": 0.0,
			"0.021": 0.0,
			"0.022": 0.0,
			"0.023": 0.0,
			"0.024": 0.0,
			"0.025": 0.0
		}
	}
}
