{
	 "smiles": "CC(C)(C)OC(=O)N1CCN(CC1)C1=NC(N)=NS1", 
	 "Tm": 470.15, 
	 "num_atms": 38, 
	 "gaussian": { 
		 "optdone": 1, 
		 "sigma_profile": "yes", 
		 "theory": "DFT", 
		 "functional": "B3LYP", 
		 "basiset": "6-31G**", 
		 "properties": { 
			 "R2extent": 10012.2322, 
			 "electric_dipole_moment_norm": 2.57639672023, 
			 "electric_quadrupole_moment_norm": 27.2934104206, 
			 "total_energy": -1253.04861378, 
			 "HOMO_LUMO_gap": 0.20583, 
			 "cosmo_polarized_energy": -18.16, 
			 "cosmo_cavitation_energy": 40.93, 
			 "cosmo_dispersion_energy": -29.87, 
			 "cosmo_repulsion_energy": 2.28, 
			 "cosmo_total_nonelectrostatic_energy": 13.33, 
			 "SMD_solvation_energy": 3.44 
		},
		"coords": [
			{
				"x": -0.1525867986,
				"y": -3.5267056248,
				"z": 2.4447319936,
				"element": "C" 
			},
			{
				"x": 1.0012841086,
				"y": -2.9967337061,
				"z": 1.5871131304,
				"element": "C" 
			},
			{
				"x": 1.2952867362,
				"y": -3.8997577866,
				"z": 0.3847473581,
				"element": "C" 
			},
			{
				"x": 2.2595052011,
				"y": -2.7935659172,
				"z": 2.4352319801,
				"element": "C" 
			},
			{
				"x": 0.7006413802,
				"y": -1.6285203067,
				"z": 1.130654457,
				"element": "O" 
			},
			{
				"x": -0.3583070496,
				"y": -1.3835038268,
				"z": 0.3215886563,
				"element": "C" 
			},
			{
				"x": -1.1642790868,
				"y": -2.2114410135,
				"z": -0.0793726011,
				"element": "O" 
			},
			{
				"x": -0.4234926885,
				"y": -0.0526917636,
				"z": -0.0045730792,
				"element": "N" 
			},
			{
				"x": 0.5174272989,
				"y": 0.9477773771,
				"z": 0.4987829868,
				"element": "C" 
			},
			{
				"x": 0.5876051206,
				"y": 2.1403226361,
				"z": -0.454070458,
				"element": "C" 
			},
			{
				"x": -0.7402655778,
				"y": 2.7138913871,
				"z": -0.6580597159,
				"element": "N" 
			},
			{
				"x": -1.9103697373,
				"y": 1.8485018274,
				"z": -0.4664694376,
				"element": "C" 
			},
			{
				"x": -1.5594653638,
				"y": 0.40399487,
				"z": -0.8098885856,
				"element": "C" 
			},
			{
				"x": -0.8944170136,
				"y": 3.9805972026,
				"z": -1.1072720357,
				"element": "C" 
			},
			{
				"x": -2.0543810147,
				"y": 4.5554375189,
				"z": -1.3326871647,
				"element": "N" 
			},
			{
				"x": -1.8250490125,
				"y": 5.8398975664,
				"z": -1.7728787667,
				"element": "C" 
			},
			{
				"x": -2.9224791289,
				"y": 6.6405629386,
				"z": -2.0080368312,
				"element": "N" 
			},
			{
				"x": -0.6026696189,
				"y": 6.3058593606,
				"z": -1.9225873713,
				"element": "N" 
			},
			{
				"x": 0.4591602534,
				"y": 5.065875448,
				"z": -1.4635986198,
				"element": "S" 
			},
			{
				"x": 0.1242149948,
				"y": -4.4951999776,
				"z": 2.8737768097,
				"element": "H" 
			},
			{
				"x": -0.3604250962,
				"y": -2.8375829729,
				"z": 3.2695319939,
				"element": "H" 
			},
			{
				"x": -1.056949542,
				"y": -3.6496305142,
				"z": 1.8487435547,
				"element": "H" 
			},
			{
				"x": 0.4065179095,
				"y": -4.0298451806,
				"z": -0.2328672568,
				"element": "H" 
			},
			{
				"x": 2.0946281792,
				"y": -3.4698068002,
				"z": -0.2273899839,
				"element": "H" 
			},
			{
				"x": 1.6291255211,
				"y": -4.8812018333,
				"z": 0.7367916291,
				"element": "H" 
			},
			{
				"x": 2.5918545351,
				"y": -3.750367588,
				"z": 2.8485283423,
				"element": "H" 
			},
			{
				"x": 2.060336107,
				"y": -2.1089151979,
				"z": 3.2648345755,
				"element": "H" 
			},
			{
				"x": 3.0713879464,
				"y": -2.377949488,
				"z": 1.8309988168,
				"element": "H" 
			},
			{
				"x": 0.2273953091,
				"y": 1.2957064781,
				"z": 1.50053206,
				"element": "H" 
			},
			{
				"x": 1.507284889,
				"y": 0.4984315201,
				"z": 0.5846105367,
				"element": "H" 
			},
			{
				"x": 1.0328492372,
				"y": 1.8308095591,
				"z": -1.4112764289,
				"element": "H" 
			},
			{
				"x": 1.2443278311,
				"y": 2.8999385054,
				"z": -0.0129988319,
				"element": "H" 
			},
			{
				"x": -2.7090409244,
				"y": 2.2100647064,
				"z": -1.1164427299,
				"element": "H" 
			},
			{
				"x": -2.2710614667,
				"y": 1.91824893,
				"z": 0.5689181547,
				"element": "H" 
			},
			{
				"x": -1.3322106284,
				"y": 0.3220454762,
				"z": -1.8818016923,
				"element": "H" 
			},
			{
				"x": -2.4095420547,
				"y": -0.2506564609,
				"z": -0.608169574,
				"element": "H" 
			},
			{
				"x": -3.7633480692,
				"y": 6.1368202732,
				"z": -2.2487872741,
				"element": "H" 
			},
			{
				"x": -2.733592686,
				"y": 7.4525923774,
				"z": -2.5774885969,
				"element": "H" 
			}
		],
		 "valence_orbital": [ 
			{
				"type": "occ",
				"energy": -0.26728,
				"method": "rhf"
			},
			{
				"type": "occ",
				"energy": -0.2648,
				"method": "rhf"
			},
			{
				"type": "occ",
				"energy": -0.2467,
				"method": "rhf"
			},
			{
				"type": "occ",
				"energy": -0.24069,
				"method": "rhf"
			},
			{
				"type": "occ",
				"energy": -0.20124,
				"method": "rhf"
			},
			{
				"type": "unocc",
				"energy": 0.00459,
				"method": "rhf"
			},
			{
				"type": "unocc",
				"energy": 0.00968,
				"method": "rhf"
			},
			{
				"type": "unocc",
				"energy": 0.0469,
				"method": "rhf"
			},
			{
				"type": "unocc",
				"energy": 0.06686,
				"method": "rhf"
			},
			{
				"type": "unocc",
				"energy": 0.07658,
				"method": "rhf"
			}
		],
		"cosmo_sigma_profile": { 
			"-0.025": 0.0,
			"-0.024": 0.0,
			"-0.023": 0.0,
			"-0.022": 0.0,
			"-0.021": 0.0,
			"-0.02": 0.0,
			"-0.019": 0.0,
			"-0.018": 0.0,
			"-0.017": 0.0,
			"-0.016": 0.0,
			"-0.015": 0.0,
			"-0.014": 0.10864293042,
			"-0.013": 1.87821215809,
			"-0.012": 2.19834876704,
			"-0.011": 1.47748950674,
			"-0.01": 2.73911871199,
			"-0.009": 1.81199454811,
			"-0.008": 2.07558010549,
			"-0.007": 3.95579535597,
			"-0.006": 12.448583678,
			"-0.005": 28.6591716142,
			"-0.004": 29.0077628815,
			"-0.003": 27.5110675219,
			"-0.002": 23.0019726737,
			"-0.001": 25.2825946689,
			"0.0": 34.603766898,
			"0.001": 31.8618009616,
			"0.002": 13.4151580347,
			"0.003": 11.5513464598,
			"0.004": 10.6218729314,
			"0.005": 11.1339032244,
			"0.006": 7.7897547741,
			"0.007": 6.07679824601,
			"0.008": 5.62846263218,
			"0.009": 5.56317677358,
			"0.01": 4.75810047729,
			"0.011": 3.76937420761,
			"0.012": 4.25070537224,
			"0.013": 4.36490440595,
			"0.014": 2.82472451475,
			"0.015": 1.30407983065,
			"0.016": 0.839457163568,
			"0.017": 0.00101255894578,
			"0.018": 0.0,
			"0.019": 0.0,
			"0.02": 0.0,
			"0.021": 0.0,
			"0.022": 0.0,
			"0.023": 0.0,
			"0.024": 0.0,
			"0.025": 0.0
		}
	}
}
