{
	 "smiles": "OC1=C(OCC2=CSC=N2)C=CC=C1", 
	 "Tm": 394.15, 
	 "num_atms": 23, 
	 "gaussian": { 
		 "optdone": 1, 
		 "sigma_profile": "yes", 
		 "theory": "DFT", 
		 "functional": "B3LYP", 
		 "basiset": "6-31G**", 
		 "properties": { 
			 "R2extent": 4412.2283, 
			 "electric_dipole_moment_norm": 1.82077693856, 
			 "electric_quadrupole_moment_norm": 9.57659136593, 
			 "total_energy": -989.838438302, 
			 "HOMO_LUMO_gap": 0.1997, 
			 "cosmo_polarized_energy": -12.32, 
			 "cosmo_cavitation_energy": 29.37, 
			 "cosmo_dispersion_energy": -22.17, 
			 "cosmo_repulsion_energy": 1.7, 
			 "cosmo_total_nonelectrostatic_energy": 8.9, 
			 "SMD_solvation_energy": 4.2 
		},
		"coords": [
			{
				"x": 0.8862691414,
				"y": 1.7409289292,
				"z": -1.4484856263,
				"element": "O" 
			},
			{
				"x": -0.4369760064,
				"y": 1.7476742924,
				"z": -1.1004581353,
				"element": "C" 
			},
			{
				"x": -0.8339711178,
				"y": 0.9294682912,
				"z": -0.0243590321,
				"element": "C" 
			},
			{
				"x": 0.0769997869,
				"y": 0.1843133789,
				"z": 0.6879839845,
				"element": "O" 
			},
			{
				"x": 0.6993305388,
				"y": -0.8935568013,
				"z": -0.0162403808,
				"element": "C" 
			},
			{
				"x": 1.5849963567,
				"y": -1.6340059054,
				"z": 0.9429333896,
				"element": "C" 
			},
			{
				"x": 1.7903793309,
				"y": -1.3227098617,
				"z": 2.2567678509,
				"element": "C" 
			},
			{
				"x": 2.8962461513,
				"y": -2.4548673348,
				"z": 2.9643568195,
				"element": "S" 
			},
			{
				"x": 2.9923384059,
				"y": -3.2636050824,
				"z": 1.4190513089,
				"element": "C" 
			},
			{
				"x": 2.2706695905,
				"y": -2.7367029506,
				"z": 0.4747912808,
				"element": "N" 
			},
			{
				"x": -2.1684393458,
				"y": 0.9256451347,
				"z": 0.3778215064,
				"element": "C" 
			},
			{
				"x": -3.1164361295,
				"y": 1.7188368209,
				"z": -0.2728772016,
				"element": "C" 
			},
			{
				"x": -2.7243715444,
				"y": 2.5167195672,
				"z": -1.3464694917,
				"element": "C" 
			},
			{
				"x": -1.3899352656,
				"y": 2.5287166391,
				"z": -1.7580850124,
				"element": "C" 
			},
			{
				"x": 1.0165644065,
				"y": 2.3392889262,
				"z": -2.1955020921,
				"element": "H" 
			},
			{
				"x": -0.064657372,
				"y": -1.5746805254,
				"z": -0.4187936096,
				"element": "H" 
			},
			{
				"x": 1.2914157998,
				"y": -0.5183681192,
				"z": -0.8588136639,
				"element": "H" 
			},
			{
				"x": 1.3603805561,
				"y": -0.5087236115,
				"z": 2.8192560426,
				"element": "H" 
			},
			{
				"x": 3.6176149275,
				"y": -4.1391315368,
				"z": 1.290073451,
				"element": "H" 
			},
			{
				"x": -2.440937662,
				"y": 0.2924383059,
				"z": 1.2163001144,
				"element": "H" 
			},
			{
				"x": -4.1510679043,
				"y": 1.7061256742,
				"z": 0.0548039463,
				"element": "H" 
			},
			{
				"x": -3.4496343168,
				"y": 3.1350695569,
				"z": -1.8665389263,
				"element": "H" 
			},
			{
				"x": -1.0787783276,
				"y": 3.156926212,
				"z": -2.5908165228,
				"element": "H" 
			}
		],
		 "valence_orbital": [ 
			{
				"type": "occ",
				"energy": -0.27526,
				"method": "rhf"
			},
			{
				"type": "occ",
				"energy": -0.27334,
				"method": "rhf"
			},
			{
				"type": "occ",
				"energy": -0.24402,
				"method": "rhf"
			},
			{
				"type": "occ",
				"energy": -0.23768,
				"method": "rhf"
			},
			{
				"type": "occ",
				"energy": -0.21959,
				"method": "rhf"
			},
			{
				"type": "unocc",
				"energy": -0.01989,
				"method": "rhf"
			},
			{
				"type": "unocc",
				"energy": -0.00087,
				"method": "rhf"
			},
			{
				"type": "unocc",
				"energy": 0.01025,
				"method": "rhf"
			},
			{
				"type": "unocc",
				"energy": 0.0231,
				"method": "rhf"
			},
			{
				"type": "unocc",
				"energy": 0.05166,
				"method": "rhf"
			}
		],
		"cosmo_sigma_profile": { 
			"-0.025": 0.0,
			"-0.024": 0.0,
			"-0.023": 0.0,
			"-0.022": 0.0,
			"-0.021": 0.0,
			"-0.02": 0.0,
			"-0.019": 0.0,
			"-0.018": 0.526161503868,
			"-0.017": 1.321879232,
			"-0.016": 1.03248496988,
			"-0.015": 0.977262116585,
			"-0.014": 1.15219344286,
			"-0.013": 0.773386341926,
			"-0.012": 0.734034542681,
			"-0.011": 1.14957851897,
			"-0.01": 1.93643256773,
			"-0.009": 3.94864705854,
			"-0.008": 4.68105217711,
			"-0.007": 4.5063137337,
			"-0.006": 8.88306363397,
			"-0.005": 13.7714100782,
			"-0.004": 14.711304544,
			"-0.003": 14.1968425501,
			"-0.002": 13.1790001816,
			"-0.001": 13.0201442779,
			"0.0": 14.7004947502,
			"0.001": 20.1712627412,
			"0.002": 22.4462274944,
			"0.003": 21.1654748751,
			"0.004": 16.7443760803,
			"0.005": 13.4788082097,
			"0.006": 9.80218035725,
			"0.007": 4.8163789678,
			"0.008": 3.55153655961,
			"0.009": 2.32531560893,
			"0.01": 3.00021582439,
			"0.011": 1.3256601149,
			"0.012": 1.30118184705,
			"0.013": 0.957338365102,
			"0.014": 0.737820607014,
			"0.015": 0.586838341389,
			"0.016": 0.00620258803358,
			"0.017": 0.0,
			"0.018": 0.0,
			"0.019": 0.0,
			"0.02": 0.0,
			"0.021": 0.0,
			"0.022": 0.0,
			"0.023": 0.0,
			"0.024": 0.0,
			"0.025": 0.0
		}
	}
}
