{
	 "smiles": "CC(C)(C)OO", 
	 "Tm": 267.65, 
	 "num_atms": 16, 
	 "gaussian": { 
		 "optdone": 1, 
		 "sigma_profile": "yes", 
		 "theory": "DFT", 
		 "functional": "B3LYP", 
		 "basiset": "6-31G**", 
		 "properties": { 
			 "R2extent": 611.2228, 
			 "electric_dipole_moment_norm": 1.77605614776, 
			 "electric_quadrupole_moment_norm": 4.92258125276, 
			 "total_energy": -308.814274595, 
			 "HOMO_LUMO_gap": 0.28612, 
			 "cosmo_polarized_energy": -6.87, 
			 "cosmo_cavitation_energy": 18.27, 
			 "cosmo_dispersion_energy": -13.22, 
			 "cosmo_repulsion_energy": 1.14, 
			 "cosmo_total_nonelectrostatic_energy": 6.19, 
			 "SMD_solvation_energy": 3.29 
		},
		"coords": [
			{
				"x": 0.2579389086,
				"y": 1.1444562738,
				"z": -1.2626736525,
				"element": "C" 
			},
			{
				"x": 0.0436851878,
				"y": 0.4155388988,
				"z": 0.0687683269,
				"element": "C" 
			},
			{
				"x": -0.7132311091,
				"y": 1.2959138286,
				"z": 1.0704360078,
				"element": "C" 
			},
			{
				"x": 1.363896118,
				"y": -0.0917786655,
				"z": 0.6580678438,
				"element": "C" 
			},
			{
				"x": -0.8784167037,
				"y": -0.6880766812,
				"z": -0.105842652,
				"element": "O" 
			},
			{
				"x": -0.2931535164,
				"y": -1.6565813799,
				"z": -1.0250618576,
				"element": "O" 
			},
			{
				"x": -0.6991261701,
				"y": 1.4829487642,
				"z": -1.6733728192,
				"element": "H" 
			},
			{
				"x": 0.8995582338,
				"y": 2.0204490892,
				"z": -1.1254929843,
				"element": "H" 
			},
			{
				"x": 0.7382451901,
				"y": 0.4832678389,
				"z": -1.9885032676,
				"element": "H" 
			},
			{
				"x": -1.6704284421,
				"y": 1.623678329,
				"z": 0.6544040325,
				"element": "H" 
			},
			{
				"x": -0.118173524,
				"y": 2.1816335969,
				"z": 1.3117171531,
				"element": "H" 
			},
			{
				"x": -0.9074429811,
				"y": 0.7452359659,
				"z": 1.9950397073,
				"element": "H" 
			},
			{
				"x": 2.047216868,
				"y": 0.7424952272,
				"z": 0.8475566532,
				"element": "H" 
			},
			{
				"x": 1.1817971563,
				"y": -0.6136776394,
				"z": 1.6020742544,
				"element": "H" 
			},
			{
				"x": 1.847710567,
				"y": -0.7867847689,
				"z": -0.0317582093,
				"element": "H" 
			},
			{
				"x": -0.876075783,
				"y": -1.5319186777,
				"z": -1.7905585364,
				"element": "H" 
			}
		],
		 "valence_orbital": [ 
			{
				"type": "occ",
				"energy": -0.36585,
				"method": "rhf"
			},
			{
				"type": "occ",
				"energy": -0.34573,
				"method": "rhf"
			},
			{
				"type": "occ",
				"energy": -0.32937,
				"method": "rhf"
			},
			{
				"type": "occ",
				"energy": -0.28716,
				"method": "rhf"
			},
			{
				"type": "occ",
				"energy": -0.25447,
				"method": "rhf"
			},
			{
				"type": "unocc",
				"energy": 0.03165,
				"method": "rhf"
			},
			{
				"type": "unocc",
				"energy": 0.07662,
				"method": "rhf"
			},
			{
				"type": "unocc",
				"energy": 0.11108,
				"method": "rhf"
			},
			{
				"type": "unocc",
				"energy": 0.12594,
				"method": "rhf"
			},
			{
				"type": "unocc",
				"energy": 0.14907,
				"method": "rhf"
			}
		],
		"cosmo_sigma_profile": { 
			"-0.025": 0.0,
			"-0.024": 0.0,
			"-0.023": 0.0,
			"-0.022": 0.0,
			"-0.021": 0.0,
			"-0.02": 0.0,
			"-0.019": 0.0,
			"-0.018": 0.0,
			"-0.017": 0.310843114669,
			"-0.016": 0.969677175788,
			"-0.015": 0.808492189086,
			"-0.014": 1.02747747229,
			"-0.013": 0.421378821255,
			"-0.012": 0.806228088114,
			"-0.011": 0.658651003862,
			"-0.01": 1.12425937206,
			"-0.009": 0.392277846243,
			"-0.008": 0.397743856191,
			"-0.007": 0.802928431551,
			"-0.006": 1.53042175883,
			"-0.005": 1.07543060694,
			"-0.004": 8.10187505362,
			"-0.003": 17.593148769,
			"-0.002": 18.1165507685,
			"-0.001": 16.9300390755,
			"0.0": 20.6173589899,
			"0.001": 16.3331665567,
			"0.002": 5.06354744492,
			"0.003": 2.55460050532,
			"0.004": 2.04236390328,
			"0.005": 2.60858731511,
			"0.006": 2.23116568273,
			"0.007": 3.08572375024,
			"0.008": 2.24748358398,
			"0.009": 2.92758923276,
			"0.01": 2.61220716891,
			"0.011": 2.86916165018,
			"0.012": 3.17291340815,
			"0.013": 1.23280697626,
			"0.014": 0.0,
			"0.015": 0.0,
			"0.016": 0.0,
			"0.017": 0.0,
			"0.018": 0.0,
			"0.019": 0.0,
			"0.02": 0.0,
			"0.021": 0.0,
			"0.022": 0.0,
			"0.023": 0.0,
			"0.024": 0.0,
			"0.025": 0.0
		}
	}
}
