{
	 "smiles": "CCOC(O)C(Cl)(Cl)Cl", 
	 "Tm": 329.65, 
	 "num_atms": 16, 
	 "gaussian": { 
		 "optdone": 1, 
		 "sigma_profile": "yes", 
		 "theory": "DFT", 
		 "functional": "B3LYP", 
		 "basiset": "6-31G**", 
		 "properties": { 
			 "R2extent": 3444.5179, 
			 "electric_dipole_moment_norm": 2.84090607025, 
			 "electric_quadrupole_moment_norm": 7.86956946345, 
			 "total_energy": -1687.63744529, 
			 "HOMO_LUMO_gap": 0.24557, 
			 "cosmo_polarized_energy": -8.58, 
			 "cosmo_cavitation_energy": 24.25, 
			 "cosmo_dispersion_energy": -17.83, 
			 "cosmo_repulsion_energy": 1.49, 
			 "cosmo_total_nonelectrostatic_energy": 7.91, 
			 "SMD_solvation_energy": 3.58 
		},
		"coords": [
			{
				"x": 0.436278873,
				"y": 0.0193822842,
				"z": 1.935217608,
				"element": "C" 
			},
			{
				"x": 0.23251763,
				"y": -0.866204242,
				"z": 0.7176869668,
				"element": "C" 
			},
			{
				"x": -0.1828431661,
				"y": -0.0098731582,
				"z": -0.3669889407,
				"element": "O" 
			},
			{
				"x": 0.0499142954,
				"y": -0.4066971855,
				"z": -1.6785099766,
				"element": "C" 
			},
			{
				"x": 1.3607245876,
				"y": -0.8187983952,
				"z": -1.928062663,
				"element": "O" 
			},
			{
				"x": -0.8785784864,
				"y": -1.5616559065,
				"z": -2.2050870973,
				"element": "C" 
			},
			{
				"x": -2.5731471391,
				"y": -1.1984630097,
				"z": -1.7391505749,
				"element": "Cl" 
			},
			{
				"x": -0.4097179029,
				"y": -3.1716372324,
				"z": -1.5636076894,
				"element": "Cl" 
			},
			{
				"x": -0.7578807806,
				"y": -1.5943859442,
				"z": -4.0054007771,
				"element": "Cl" 
			},
			{
				"x": -0.4824965951,
				"y": 0.5614117781,
				"z": 2.1768780668,
				"element": "H" 
			},
			{
				"x": 1.2293666819,
				"y": 0.7518724041,
				"z": 1.7575560105,
				"element": "H" 
			},
			{
				"x": 0.7147060499,
				"y": -0.5906970283,
				"z": 2.8003954969,
				"element": "H" 
			},
			{
				"x": 1.1543110965,
				"y": -1.3879091084,
				"z": 0.4440141594,
				"element": "H" 
			},
			{
				"x": -0.5436669534,
				"y": -1.6157031746,
				"z": 0.9076140082,
				"element": "H" 
			},
			{
				"x": -0.233485436,
				"y": 0.4673392539,
				"z": -2.2794081017,
				"element": "H" 
			},
			{
				"x": 1.9313972454,
				"y": -0.0442813353,
				"z": -1.8350464957,
				"element": "H" 
			}
		],
		 "valence_orbital": [ 
			{
				"type": "occ",
				"energy": -0.32036,
				"method": "rhf"
			},
			{
				"type": "occ",
				"energy": -0.31839,
				"method": "rhf"
			},
			{
				"type": "occ",
				"energy": -0.30891,
				"method": "rhf"
			},
			{
				"type": "occ",
				"energy": -0.30354,
				"method": "rhf"
			},
			{
				"type": "occ",
				"energy": -0.28216,
				"method": "rhf"
			},
			{
				"type": "unocc",
				"energy": -0.03659,
				"method": "rhf"
			},
			{
				"type": "unocc",
				"energy": 0.00108,
				"method": "rhf"
			},
			{
				"type": "unocc",
				"energy": 0.00349,
				"method": "rhf"
			},
			{
				"type": "unocc",
				"energy": 0.06689,
				"method": "rhf"
			},
			{
				"type": "unocc",
				"energy": 0.10787,
				"method": "rhf"
			}
		],
		"cosmo_sigma_profile": { 
			"-0.025": 0.0,
			"-0.024": 0.0,
			"-0.023": 0.0,
			"-0.022": 0.0,
			"-0.021": 0.0,
			"-0.02": 0.0,
			"-0.019": 0.0545604716509,
			"-0.018": 0.752511809132,
			"-0.017": 1.15884610976,
			"-0.016": 0.995701185272,
			"-0.015": 1.04173501711,
			"-0.014": 0.8507917116,
			"-0.013": 0.686018393557,
			"-0.012": 0.826445811349,
			"-0.011": 0.366845510829,
			"-0.01": 0.989108746946,
			"-0.009": 1.72923269821,
			"-0.008": 3.24126137294,
			"-0.007": 1.71703274481,
			"-0.006": 2.14067069477,
			"-0.005": 2.69592693469,
			"-0.004": 11.1255908941,
			"-0.003": 17.4102110318,
			"-0.002": 18.7543301161,
			"-0.001": 17.5110738466,
			"0.0": 18.0260851863,
			"0.001": 16.7750242939,
			"0.002": 16.9038737148,
			"0.003": 28.4903618789,
			"0.004": 10.7243627999,
			"0.005": 3.6820886228,
			"0.006": 4.31860640456,
			"0.007": 3.52582311887,
			"0.008": 2.46681939408,
			"0.009": 2.90777459281,
			"0.01": 3.36512061836,
			"0.011": 1.68671235442,
			"0.012": 0.0,
			"0.013": 0.0,
			"0.014": 0.0,
			"0.015": 0.0,
			"0.016": 0.0,
			"0.017": 0.0,
			"0.018": 0.0,
			"0.019": 0.0,
			"0.02": 0.0,
			"0.021": 0.0,
			"0.022": 0.0,
			"0.023": 0.0,
			"0.024": 0.0,
			"0.025": 0.0
		}
	}
}
