{
	 "smiles": "CC(C)(C)OC(=O)C1=CC(N)=CC=C1", 
	 "Tm": 355.15, 
	 "num_atms": 29, 
	 "gaussian": { 
		 "optdone": 1, 
		 "sigma_profile": "yes", 
		 "theory": "DFT", 
		 "functional": "B3LYP", 
		 "basiset": "6-31G**", 
		 "properties": { 
			 "R2extent": 3610.5302, 
			 "electric_dipole_moment_norm": 3.3283577467, 
			 "electric_quadrupole_moment_norm": 14.5631083358, 
			 "total_energy": -633.446078809, 
			 "HOMO_LUMO_gap": 0.17087, 
			 "cosmo_polarized_energy": -11.7, 
			 "cosmo_cavitation_energy": 31.77, 
			 "cosmo_dispersion_energy": -22.52, 
			 "cosmo_repulsion_energy": 1.78, 
			 "cosmo_total_nonelectrostatic_energy": 11.03, 
			 "SMD_solvation_energy": 6.37 
		},
		"coords": [
			{
				"x": -0.8623484884,
				"y": -1.9552314701,
				"z": -2.897955799,
				"element": "C" 
			},
			{
				"x": -0.1964623302,
				"y": -0.6085543331,
				"z": -2.5947107967,
				"element": "C" 
			},
			{
				"x": 1.2564041164,
				"y": -0.5552400135,
				"z": -3.0798368441,
				"element": "C" 
			},
			{
				"x": -1.0096205771,
				"y": 0.544494551,
				"z": -3.1889071805,
				"element": "C" 
			},
			{
				"x": -0.2555113959,
				"y": -0.331375002,
				"z": -1.1488952031,
				"element": "O" 
			},
			{
				"x": 0.3492218111,
				"y": -1.1335228592,
				"z": -0.2475710854,
				"element": "C" 
			},
			{
				"x": 0.9889632773,
				"y": -2.1327962514,
				"z": -0.5242879392,
				"element": "O" 
			},
			{
				"x": 0.1449974688,
				"y": -0.6529353762,
				"z": 1.1545851725,
				"element": "C" 
			},
			{
				"x": -0.5948435125,
				"y": 0.4988110473,
				"z": 1.4416482724,
				"element": "C" 
			},
			{
				"x": -0.7653758041,
				"y": 0.9235932314,
				"z": 2.7680831613,
				"element": "C" 
			},
			{
				"x": -1.5516098233,
				"y": 2.0407073285,
				"z": 3.0616197546,
				"element": "N" 
			},
			{
				"x": -0.1777599485,
				"y": 0.168314958,
				"z": 3.7984217425,
				"element": "C" 
			},
			{
				"x": 0.5583875123,
				"y": -0.9781653582,
				"z": 3.504939253,
				"element": "C" 
			},
			{
				"x": 0.7271236734,
				"y": -1.3989766347,
				"z": 2.187912547,
				"element": "C" 
			},
			{
				"x": -0.9256700697,
				"y": -2.0955371008,
				"z": -3.9820325345,
				"element": "H" 
			},
			{
				"x": -1.8789853195,
				"y": -1.9761242542,
				"z": -2.4929125568,
				"element": "H" 
			},
			{
				"x": -0.2938760252,
				"y": -2.7805117091,
				"z": -2.4690664196,
				"element": "H" 
			},
			{
				"x": 1.28051749,
				"y": -0.6387702253,
				"z": -4.1713360536,
				"element": "H" 
			},
			{
				"x": 1.7150307596,
				"y": 0.3991292441,
				"z": -2.8023133843,
				"element": "H" 
			},
			{
				"x": 1.8437962021,
				"y": -1.3675145637,
				"z": -2.6516373423,
				"element": "H" 
			},
			{
				"x": -0.5575273825,
				"y": 1.5076523338,
				"z": -2.9341429502,
				"element": "H" 
			},
			{
				"x": -2.0344427152,
				"y": 0.5318460686,
				"z": -2.8062855825,
				"element": "H" 
			},
			{
				"x": -1.0459898436,
				"y": 0.4570631409,
				"z": -4.2789177396,
				"element": "H" 
			},
			{
				"x": -1.0409056005,
				"y": 1.062584361,
				"z": 0.629446855,
				"element": "H" 
			},
			{
				"x": -1.6426087921,
				"y": 2.7086926628,
				"z": 2.3084759892,
				"element": "H" 
			},
			{
				"x": -1.3423443197,
				"y": 2.4933953675,
				"z": 3.9408129605,
				"element": "H" 
			},
			{
				"x": -0.305651788,
				"y": 0.4840227286,
				"z": 4.8312246367,
				"element": "H" 
			},
			{
				"x": 1.0051819904,
				"y": -1.5452342888,
				"z": 4.316662429,
				"element": "H" 
			},
			{
				"x": 1.2969094344,
				"y": -2.2865175832,
				"z": 1.9394766374,
				"element": "H" 
			}
		],
		 "valence_orbital": [ 
			{
				"type": "occ",
				"energy": -0.30733,
				"method": "rhf"
			},
			{
				"type": "occ",
				"energy": -0.28817,
				"method": "rhf"
			},
			{
				"type": "occ",
				"energy": -0.25801,
				"method": "rhf"
			},
			{
				"type": "occ",
				"energy": -0.25006,
				"method": "rhf"
			},
			{
				"type": "occ",
				"energy": -0.20557,
				"method": "rhf"
			},
			{
				"type": "unocc",
				"energy": -0.0347,
				"method": "rhf"
			},
			{
				"type": "unocc",
				"energy": 0.01299,
				"method": "rhf"
			},
			{
				"type": "unocc",
				"energy": 0.06755,
				"method": "rhf"
			},
			{
				"type": "unocc",
				"energy": 0.08154,
				"method": "rhf"
			},
			{
				"type": "unocc",
				"energy": 0.08757,
				"method": "rhf"
			}
		],
		"cosmo_sigma_profile": { 
			"-0.025": 0.0,
			"-0.024": 0.0,
			"-0.023": 0.0,
			"-0.022": 0.0,
			"-0.021": 0.0,
			"-0.02": 0.0,
			"-0.019": 0.0,
			"-0.018": 0.0,
			"-0.017": 0.0,
			"-0.016": 0.0,
			"-0.015": 0.0,
			"-0.014": 0.0,
			"-0.013": 0.425728727449,
			"-0.012": 2.86014442729,
			"-0.011": 2.48826317538,
			"-0.01": 3.58465168489,
			"-0.009": 3.73841757333,
			"-0.008": 2.52559579988,
			"-0.007": 3.18459651909,
			"-0.006": 4.81834155237,
			"-0.005": 7.16469866537,
			"-0.004": 19.2644571614,
			"-0.003": 21.4817230957,
			"-0.002": 20.0020254273,
			"-0.001": 23.4479015336,
			"0.0": 30.5373049664,
			"0.001": 21.216568058,
			"0.002": 13.019218584,
			"0.003": 13.6829481448,
			"0.004": 15.6695787756,
			"0.005": 16.2205747977,
			"0.006": 6.4469679165,
			"0.007": 2.69337959787,
			"0.008": 2.38648246584,
			"0.009": 2.83080106748,
			"0.01": 1.77238896413,
			"0.011": 2.73331134029,
			"0.012": 3.54409319912,
			"0.013": 1.25750005543,
			"0.014": 0.511737012311,
			"0.015": 0.10399113352,
			"0.016": 0.0,
			"0.017": 0.0,
			"0.018": 0.0,
			"0.019": 0.0,
			"0.02": 0.0,
			"0.021": 0.0,
			"0.022": 0.0,
			"0.023": 0.0,
			"0.024": 0.0,
			"0.025": 0.0
		}
	}
}
