{
	 "smiles": "OC(=O)CNC(=O)C1CCCCC1", 
	 "Tm": 428.15, 
	 "num_atms": 28, 
	 "gaussian": { 
		 "optdone": 1, 
		 "sigma_profile": "yes", 
		 "theory": "DFT", 
		 "functional": "B3LYP", 
		 "basiset": "6-31G**", 
		 "properties": { 
			 "R2extent": 3503.5583, 
			 "electric_dipole_moment_norm": 5.94930231624, 
			 "electric_quadrupole_moment_norm": 25.271190097, 
			 "total_energy": -632.469765413, 
			 "HOMO_LUMO_gap": 0.24579, 
			 "cosmo_polarized_energy": -16.46, 
			 "cosmo_cavitation_energy": 28.97, 
			 "cosmo_dispersion_energy": -21.38, 
			 "cosmo_repulsion_energy": 1.72, 
			 "cosmo_total_nonelectrostatic_energy": 9.32, 
			 "SMD_solvation_energy": 4.98 
		},
		"coords": [
			{
				"x": 1.1710899753,
				"y": 3.3030350483,
				"z": -0.5293203982,
				"element": "O" 
			},
			{
				"x": 0.2663430254,
				"y": 4.052161639,
				"z": 0.1118187709,
				"element": "C" 
			},
			{
				"x": -0.0760398067,
				"y": 5.1431572956,
				"z": -0.2792604823,
				"element": "O" 
			},
			{
				"x": -0.2894873598,
				"y": 3.4390192464,
				"z": 1.4128288234,
				"element": "C" 
			},
			{
				"x": -0.9497895063,
				"y": 2.1454189452,
				"z": 1.2390986791,
				"element": "N" 
			},
			{
				"x": -0.2599048278,
				"y": 0.9945016402,
				"z": 1.0311384562,
				"element": "C" 
			},
			{
				"x": 0.972846617,
				"y": 1.0191753391,
				"z": 0.8733989156,
				"element": "O" 
			},
			{
				"x": -1.0745461511,
				"y": -0.2907938355,
				"z": 1.0266295087,
				"element": "C" 
			},
			{
				"x": -0.8580387479,
				"y": -1.1121704472,
				"z": -0.2697230604,
				"element": "C" 
			},
			{
				"x": 0.4971943384,
				"y": -1.8348804206,
				"z": -0.3240838471,
				"element": "C" 
			},
			{
				"x": 0.728508606,
				"y": -2.6932408084,
				"z": 0.9284312343,
				"element": "C" 
			},
			{
				"x": 0.601981868,
				"y": -1.8550569484,
				"z": 2.2094161288,
				"element": "C" 
			},
			{
				"x": -0.7611953995,
				"y": -1.1506889504,
				"z": 2.2810673436,
				"element": "C" 
			},
			{
				"x": 1.3124720727,
				"y": 2.454609942,
				"z": -0.0396460656,
				"element": "H" 
			},
			{
				"x": 0.5380974719,
				"y": 3.3139891059,
				"z": 2.1215044465,
				"element": "H" 
			},
			{
				"x": -1.0083051842,
				"y": 4.1444960486,
				"z": 1.8274909532,
				"element": "H" 
			},
			{
				"x": -1.9565469475,
				"y": 2.1142724327,
				"z": 1.2894440003,
				"element": "H" 
			},
			{
				"x": -2.1350014786,
				"y": -0.009268925,
				"z": 1.0739904241,
				"element": "H" 
			},
			{
				"x": -0.9843892046,
				"y": -0.4660578704,
				"z": -1.14654249,
				"element": "H" 
			},
			{
				"x": -1.6643439582,
				"y": -1.8569257377,
				"z": -0.3139713787,
				"element": "H" 
			},
			{
				"x": 0.5339270696,
				"y": -2.4588677971,
				"z": -1.2250500888,
				"element": "H" 
			},
			{
				"x": 1.2985041287,
				"y": -1.0945643394,
				"z": -0.4101358753,
				"element": "H" 
			},
			{
				"x": -0.0080095124,
				"y": -3.510163276,
				"z": 0.9543415452,
				"element": "H" 
			},
			{
				"x": 1.7163139412,
				"y": -3.1662165992,
				"z": 0.8835287739,
				"element": "H" 
			},
			{
				"x": 0.7250840643,
				"y": -2.4899542391,
				"z": 3.0950208745,
				"element": "H" 
			},
			{
				"x": 1.4014140806,
				"y": -1.1068232786,
				"z": 2.2350936156,
				"element": "H" 
			},
			{
				"x": -1.5535645323,
				"y": -1.9074622698,
				"z": 2.3579769198,
				"element": "H" 
			},
			{
				"x": -0.8327146421,
				"y": -0.5330009405,
				"z": 3.1846142727,
				"element": "H" 
			}
		],
		 "valence_orbital": [ 
			{
				"type": "occ",
				"energy": -0.30916,
				"method": "rhf"
			},
			{
				"type": "occ",
				"energy": -0.30143,
				"method": "rhf"
			},
			{
				"type": "occ",
				"energy": -0.29725,
				"method": "rhf"
			},
			{
				"type": "occ",
				"energy": -0.27373,
				"method": "rhf"
			},
			{
				"type": "occ",
				"energy": -0.25365,
				"method": "rhf"
			},
			{
				"type": "unocc",
				"energy": -0.00786,
				"method": "rhf"
			},
			{
				"type": "unocc",
				"energy": 0.01438,
				"method": "rhf"
			},
			{
				"type": "unocc",
				"energy": 0.04627,
				"method": "rhf"
			},
			{
				"type": "unocc",
				"energy": 0.08401,
				"method": "rhf"
			},
			{
				"type": "unocc",
				"energy": 0.10351,
				"method": "rhf"
			}
		],
		"cosmo_sigma_profile": { 
			"-0.025": 0.0,
			"-0.024": 0.0,
			"-0.023": 0.0,
			"-0.022": 0.0,
			"-0.021": 0.0,
			"-0.02": 0.0,
			"-0.019": 0.0,
			"-0.018": 0.0,
			"-0.017": 0.0,
			"-0.016": 0.520966440016,
			"-0.015": 1.52568700764,
			"-0.014": 1.45608578937,
			"-0.013": 1.55010852347,
			"-0.012": 1.35838389577,
			"-0.011": 1.52482886697,
			"-0.01": 1.90814169599,
			"-0.009": 1.55527185312,
			"-0.008": 4.37922476067,
			"-0.007": 5.63231545419,
			"-0.006": 4.49920844822,
			"-0.005": 6.79807448938,
			"-0.004": 10.1719303539,
			"-0.003": 21.3859577027,
			"-0.002": 28.0380552855,
			"-0.001": 24.3759001531,
			"0.0": 28.4159682993,
			"0.001": 22.675968653,
			"0.002": 8.65652053737,
			"0.003": 3.2783662993,
			"0.004": 3.5004575301,
			"0.005": 3.87764438514,
			"0.006": 3.95878060851,
			"0.007": 2.92321388548,
			"0.008": 4.84188695277,
			"0.009": 4.0860188586,
			"0.01": 4.60125164382,
			"0.011": 7.76608540474,
			"0.012": 6.66662457889,
			"0.013": 2.97875814014,
			"0.014": 0.30332838181,
			"0.015": 0.0,
			"0.016": 0.0,
			"0.017": 0.0,
			"0.018": 0.0,
			"0.019": 0.0,
			"0.02": 0.0,
			"0.021": 0.0,
			"0.022": 0.0,
			"0.023": 0.0,
			"0.024": 0.0,
			"0.0": 0.0
		}
	}
}
