{
	 "smiles": "CCCC1=NC2=NC=NN2C(Cl)=C1", 
	 "Tm": 341.15, 
	 "num_atms": 22, 
	 "gaussian": { 
		 "optdone": 1, 
		 "sigma_profile": "yes", 
		 "theory": "DFT", 
		 "functional": "B3LYP", 
		 "basiset": "6-31G**", 
		 "properties": { 
			 "R2extent": 3553.7251, 
			 "electric_dipole_moment_norm": 3.67539021874, 
			 "electric_quadrupole_moment_norm": 3.34615769951, 
			 "total_energy": -989.456787056, 
			 "HOMO_LUMO_gap": 0.18987, 
			 "cosmo_polarized_energy": -11.95, 
			 "cosmo_cavitation_energy": 27.84, 
			 "cosmo_dispersion_energy": -20.35, 
			 "cosmo_repulsion_energy": 1.62, 
			 "cosmo_total_nonelectrostatic_energy": 9.11, 
			 "SMD_solvation_energy": 0.52 
		},
		"coords": [
			{
				"x": -0.154915485,
				"y": -0.0669334833,
				"z": -2.6820136883,
				"element": "C" 
			},
			{
				"x": -1.3298827121,
				"y": 0.4058977366,
				"z": -1.8212034733,
				"element": "C" 
			},
			{
				"x": -0.906609513,
				"y": 1.232483365,
				"z": -0.5845036171,
				"element": "C" 
			},
			{
				"x": -0.1134417557,
				"y": 0.4398235546,
				"z": 0.4267025887,
				"element": "C" 
			},
			{
				"x": 1.1983466284,
				"y": 0.6211342989,
				"z": 0.4645999335,
				"element": "N" 
			},
			{
				"x": 1.897195027,
				"y": -0.1025104029,
				"z": 1.3521861519,
				"element": "C" 
			},
			{
				"x": 3.2047991502,
				"y": -0.1171893749,
				"z": 1.5986286921,
				"element": "N" 
			},
			{
				"x": 3.3208776869,
				"y": -1.0307772015,
				"z": 2.5862640076,
				"element": "C" 
			},
			{
				"x": 2.2001580244,
				"y": -1.620302712,
				"z": 3.0128458574,
				"element": "N" 
			},
			{
				"x": 1.275931898,
				"y": -1.0268422059,
				"z": 2.220164587,
				"element": "N" 
			},
			{
				"x": -0.0691345638,
				"y": -1.2161288597,
				"z": 2.1864021666,
				"element": "C" 
			},
			{
				"x": -0.7600576768,
				"y": -2.3545694112,
				"z": 3.2801594731,
				"element": "Cl" 
			},
			{
				"x": -0.792009666,
				"y": -0.481582759,
				"z": 1.2824736886,
				"element": "C" 
			},
			{
				"x": 0.5255512797,
				"y": -0.7136802362,
				"z": -2.1198384023,
				"element": "H" 
			},
			{
				"x": -0.5115655903,
				"y": -0.6295577193,
				"z": -3.5505855749,
				"element": "H" 
			},
			{
				"x": 0.431469863,
				"y": 0.782387114,
				"z": -3.0482376734,
				"element": "H" 
			},
			{
				"x": -2.0016906799,
				"y": 1.0279760404,
				"z": -2.4247705416,
				"element": "H" 
			},
			{
				"x": -1.9250214973,
				"y": -0.4574081423,
				"z": -1.4952954987,
				"element": "H" 
			},
			{
				"x": -1.8053807377,
				"y": 1.632310937,
				"z": -0.0988927403,
				"element": "H" 
			},
			{
				"x": -0.2914945675,
				"y": 2.080447335,
				"z": -0.8989657436,
				"element": "H" 
			},
			{
				"x": 4.2720458185,
				"y": -1.2922423922,
				"z": 3.0308263399,
				"element": "H" 
			},
			{
				"x": -1.866170931,
				"y": -0.603435481,
				"z": 1.2305534672,
				"element": "H" 
			}
		],
		 "valence_orbital": [ 
			{
				"type": "occ",
				"energy": -0.3348,
				"method": "rhf"
			},
			{
				"type": "occ",
				"energy": -0.28722,
				"method": "rhf"
			},
			{
				"type": "occ",
				"energy": -0.28138,
				"method": "rhf"
			},
			{
				"type": "occ",
				"energy": -0.27546,
				"method": "rhf"
			},
			{
				"type": "occ",
				"energy": -0.25639,
				"method": "rhf"
			},
			{
				"type": "unocc",
				"energy": -0.06652,
				"method": "rhf"
			},
			{
				"type": "unocc",
				"energy": -0.03051,
				"method": "rhf"
			},
			{
				"type": "unocc",
				"energy": 0.00308,
				"method": "rhf"
			},
			{
				"type": "unocc",
				"energy": 0.04282,
				"method": "rhf"
			},
			{
				"type": "unocc",
				"energy": 0.08344,
				"method": "rhf"
			}
		],
		"cosmo_sigma_profile": { 
			"-0.025": 0.0,
			"-0.024": 0.0,
			"-0.023": 0.0,
			"-0.022": 0.0,
			"-0.021": 0.0,
			"-0.02": 0.0,
			"-0.019": 0.0,
			"-0.018": 0.0,
			"-0.017": 0.0,
			"-0.016": 0.0,
			"-0.015": 0.0,
			"-0.014": 0.0,
			"-0.013": 0.0,
			"-0.012": 0.0,
			"-0.011": 0.0,
			"-0.01": 0.959931526708,
			"-0.009": 3.72152004024,
			"-0.008": 3.31837889036,
			"-0.007": 5.20230707671,
			"-0.006": 6.88268879041,
			"-0.005": 11.7917420323,
			"-0.004": 13.8204355473,
			"-0.003": 25.3048025142,
			"-0.002": 29.2070157763,
			"-0.001": 26.0439200075,
			"0.0": 20.5292632602,
			"0.001": 18.7864248674,
			"0.002": 12.250800392,
			"0.003": 5.44402532876,
			"0.004": 5.06239972241,
			"0.005": 3.8434786565,
			"0.006": 4.03093999987,
			"0.007": 3.86397205848,
			"0.008": 3.37322133483,
			"0.009": 3.46543281303,
			"0.01": 2.98578646011,
			"0.011": 4.29108513313,
			"0.012": 3.43645271392,
			"0.013": 3.16971381961,
			"0.014": 1.72330960514,
			"0.015": 1.44795345564,
			"0.016": 0.44503941492,
			"0.017": 0.0,
			"0.018": 0.0,
			"0.019": 0.0,
			"0.02": 0.0,
			"0.021": 0.0,
			"0.022": 0.0,
			"0.023": 0.0,
			"0.024": 0.0,
			"0.025": 0.0
		}
	}
}
