{
	 "smiles": "CCCCCOC1=CC=C(C=C1)N=NC1=CC=C(CCCC)C=C1", 
	 "Tm": 314.95, 
	 "num_atms": 52, 
	 "gaussian": { 
		 "optdone": 1, 
		 "sigma_profile": "yes", 
		 "theory": "DFT", 
		 "functional": "B3LYP", 
		 "basiset": "6-31G**", 
		 "properties": { 
			 "R2extent": 15051.9897, 
			 "electric_dipole_moment_norm": 4.16618447623, 
			 "electric_quadrupole_moment_norm": 27.4886703101, 
			 "total_energy": -1001.79531042, 
			 "HOMO_LUMO_gap": 0.1323, 
			 "cosmo_polarized_energy": -11.72, 
			 "cosmo_cavitation_energy": 53.92, 
			 "cosmo_dispersion_energy": -36.74, 
			 "cosmo_repulsion_energy": 2.88, 
			 "cosmo_total_nonelectrostatic_energy": 20.06, 
			 "SMD_solvation_energy": 6.53 
		},
		"coords": [
			{
				"x": -4.1063707517,
				"y": 3.4054112024,
				"z": 4.6639019671,
				"element": "C" 
			},
			{
				"x": -2.9105883603,
				"y": 2.5647648034,
				"z": 4.2004684732,
				"element": "C" 
			},
			{
				"x": -3.0831367322,
				"y": 1.9174072754,
				"z": 2.815327207,
				"element": "C" 
			},
			{
				"x": -3.2411407499,
				"y": 2.8899069287,
				"z": 1.6330112087,
				"element": "C" 
			},
			{
				"x": -2.0258764074,
				"y": 3.7863788474,
				"z": 1.3843005546,
				"element": "C" 
			},
			{
				"x": -0.8169230865,
				"y": 3.0461240976,
				"z": 1.1753736871,
				"element": "O" 
			},
			{
				"x": -0.5432702077,
				"y": 2.5078718692,
				"z": -0.0454122337,
				"element": "C" 
			},
			{
				"x": 0.664550437,
				"y": 1.7914960879,
				"z": -0.1266797172,
				"element": "C" 
			},
			{
				"x": 1.056047726,
				"y": 1.1939193564,
				"z": -1.3139153523,
				"element": "C" 
			},
			{
				"x": 0.2551764376,
				"y": 1.3158707629,
				"z": -2.465783815,
				"element": "C" 
			},
			{
				"x": -0.9156754494,
				"y": 2.0793399645,
				"z": -2.392804744,
				"element": "C" 
			},
			{
				"x": -1.3389972767,
				"y": 2.6456923734,
				"z": -1.1919359788,
				"element": "C" 
			},
			{
				"x": 0.6237453423,
				"y": 0.877273139,
				"z": -3.7764452564,
				"element": "N" 
			},
			{
				"x": 1.2225428433,
				"y": -0.1939129631,
				"z": -4.025879935,
				"element": "N" 
			},
			{
				"x": 1.4362086726,
				"y": -1.241579653,
				"z": -3.0718181252,
				"element": "C" 
			},
			{
				"x": 2.7020146282,
				"y": -1.8417599841,
				"z": -3.0499316729,
				"element": "C" 
			},
			{
				"x": 2.9386211631,
				"y": -2.9453759638,
				"z": -2.2343587841,
				"element": "C" 
			},
			{
				"x": 1.9123906882,
				"y": -3.5152213096,
				"z": -1.4668061282,
				"element": "C" 
			},
			{
				"x": 2.1567147529,
				"y": -4.7539314007,
				"z": -0.6334094446,
				"element": "C" 
			},
			{
				"x": 1.9216092465,
				"y": -6.0617221739,
				"z": -1.4194764801,
				"element": "C" 
			},
			{
				"x": 2.2081385792,
				"y": -7.3418008546,
				"z": -0.6180318034,
				"element": "C" 
			},
			{
				"x": 1.2586156279,
				"y": -7.580712261,
				"z": 0.5621408719,
				"element": "C" 
			},
			{
				"x": 0.6380242535,
				"y": -2.9327240027,
				"z": -1.5380003336,
				"element": "C" 
			},
			{
				"x": 0.3951181328,
				"y": -1.806955998,
				"z": -2.3200455195,
				"element": "C" 
			},
			{
				"x": -4.2748181192,
				"y": 4.2750073999,
				"z": 4.0194016532,
				"element": "H" 
			},
			{
				"x": -3.9530181955,
				"y": 3.7807370227,
				"z": 5.6809161779,
				"element": "H" 
			},
			{
				"x": -5.0288632154,
				"y": 2.8130121476,
				"z": 4.6643694406,
				"element": "H" 
			},
			{
				"x": -2.0003619672,
				"y": 3.1779857864,
				"z": 4.216087962,
				"element": "H" 
			},
			{
				"x": -2.7358510891,
				"y": 1.7631972575,
				"z": 4.9290281475,
				"element": "H" 
			},
			{
				"x": -3.9640113937,
				"y": 1.2622603203,
				"z": 2.8383576204,
				"element": "H" 
			},
			{
				"x": -2.222304691,
				"y": 1.2684895529,
				"z": 2.617416306,
				"element": "H" 
			},
			{
				"x": -3.4552910168,
				"y": 2.3112849812,
				"z": 0.7271396401,
				"element": "H" 
			},
			{
				"x": -4.106857111,
				"y": 3.5471896449,
				"z": 1.7864647869,
				"element": "H" 
			},
			{
				"x": -2.2029740085,
				"y": 4.4693778987,
				"z": 0.5444320621,
				"element": "H" 
			},
			{
				"x": -1.8133303058,
				"y": 4.4017951659,
				"z": 2.2626742083,
				"element": "H" 
			},
			{
				"x": 1.2812558987,
				"y": 1.7230933638,
				"z": 0.7635405941,
				"element": "H" 
			},
			{
				"x": 1.9926318019,
				"y": 0.6505692822,
				"z": -1.355791815,
				"element": "H" 
			},
			{
				"x": -1.5001001142,
				"y": 2.2136011511,
				"z": -3.297880042,
				"element": "H" 
			},
			{
				"x": -2.2672523746,
				"y": 3.2032640355,
				"z": -1.1684288649,
				"element": "H" 
			},
			{
				"x": 3.4906284065,
				"y": -1.424378473,
				"z": -3.6687691258,
				"element": "H" 
			},
			{
				"x": 3.9336954105,
				"y": -3.3831644376,
				"z": -2.2045747855,
				"element": "H" 
			},
			{
				"x": 3.188527121,
				"y": -4.7473264342,
				"z": -0.258505376,
				"element": "H" 
			},
			{
				"x": 1.5047238136,
				"y": -4.731545557,
				"z": 0.247380642,
				"element": "H" 
			},
			{
				"x": 0.8849594844,
				"y": -6.0789525541,
				"z": -1.7825198787,
				"element": "H" 
			},
			{
				"x": 2.5556704515,
				"y": -6.0470782077,
				"z": -2.3149060129,
				"element": "H" 
			},
			{
				"x": 2.1485269205,
				"y": -8.1984811519,
				"z": -1.3012939516,
				"element": "H" 
			},
			{
				"x": 3.2449148554,
				"y": -7.3164706207,
				"z": -0.2548642022,
				"element": "H" 
			},
			{
				"x": 1.3389180562,
				"y": -6.7944986548,
				"z": 1.3200156789,
				"element": "H" 
			},
			{
				"x": 0.2150206427,
				"y": -7.6131793581,
				"z": 0.2277302638,
				"element": "H" 
			},
			{
				"x": 1.4776668278,
				"y": -8.5328292501,
				"z": 1.0564786369,
				"element": "H" 
			},
			{
				"x": -0.1779748785,
				"y": -3.3660255923,
				"z": -0.9640518983,
				"element": "H" 
			},
			{
				"x": -0.5968707194,
				"y": -1.3692948624,
				"z": -2.3576365131,
				"element": "H" 
			}
		],
		 "valence_orbital": [ 
			{
				"type": "occ",
				"energy": -0.26071,
				"method": "rhf"
			},
			{
				"type": "occ",
				"energy": -0.25112,
				"method": "rhf"
			},
			{
				"type": "occ",
				"energy": -0.24273,
				"method": "rhf"
			},
			{
				"type": "occ",
				"energy": -0.22995,
				"method": "rhf"
			},
			{
				"type": "occ",
				"energy": -0.19488,
				"method": "rhf"
			},
			{
				"type": "unocc",
				"energy": -0.06258,
				"method": "rhf"
			},
			{
				"type": "unocc",
				"energy": -0.01162,
				"method": "rhf"
			},
			{
				"type": "unocc",
				"energy": 0.0007,
				"method": "rhf"
			},
			{
				"type": "unocc",
				"energy": 0.00952,
				"method": "rhf"
			},
			{
				"type": "unocc",
				"energy": 0.03494,
				"method": "rhf"
			}
		],
		"cosmo_sigma_profile": { 
			"-0.025": 0.0,
			"-0.024": 0.0,
			"-0.023": 0.0,
			"-0.022": 0.0,
			"-0.021": 0.0,
			"-0.02": 0.0,
			"-0.019": 0.0,
			"-0.018": 0.0,
			"-0.017": 0.0,
			"-0.016": 0.0,
			"-0.015": 0.0,
			"-0.014": 0.0,
			"-0.013": 0.0,
			"-0.012": 0.0,
			"-0.011": 0.0,
			"-0.01": 0.0,
			"-0.009": 0.0,
			"-0.008": 0.263527973531,
			"-0.007": 2.74149381521,
			"-0.006": 11.0448731506,
			"-0.005": 20.1306380108,
			"-0.004": 26.7658143907,
			"-0.003": 37.4028373932,
			"-0.002": 51.2477862215,
			"-0.001": 55.5726144927,
			"0.0": 57.8210234305,
			"0.001": 50.1587281609,
			"0.002": 28.3737375757,
			"0.003": 21.2285985336,
			"0.004": 23.5575224755,
			"0.005": 12.0345865762,
			"0.006": 4.20282898572,
			"0.007": 2.38664537823,
			"0.008": 2.73868044323,
			"0.009": 3.15807414225,
			"0.01": 2.38582246235,
			"0.011": 2.02020560247,
			"0.012": 2.93146438838,
			"0.013": 2.32216575427,
			"0.014": 1.9385774292,
			"0.015": 0.498570476322,
			"0.016": 0.0,
			"0.017": 0.0,
			"0.018": 0.0,
			"0.019": 0.0,
			"0.02": 0.0,
			"0.021": 0.0,
			"0.022": 0.0,
			"0.023": 0.0,
			"0.024": 0.0,
			"0.025": 0.0
		}
	}
}
