{
	 "smiles": "C1COCC(N1)C1=CC=CC=C1", 
	 "Tm": 348.15, 
	 "num_atms": 25, 
	 "gaussian": { 
		 "optdone": 1, 
		 "sigma_profile": "yes", 
		 "theory": "DFT", 
		 "functional": "B3LYP", 
		 "basiset": "6-31G**", 
		 "properties": { 
			 "R2extent": 2419.8216, 
			 "electric_dipole_moment_norm": 1.41014514856, 
			 "electric_quadrupole_moment_norm": 6.3765863195, 
			 "total_energy": -518.851640872, 
			 "HOMO_LUMO_gap": 0.21476, 
			 "cosmo_polarized_energy": -8.73, 
			 "cosmo_cavitation_energy": 26.26, 
			 "cosmo_dispersion_energy": -19.6, 
			 "cosmo_repulsion_energy": 1.55, 
			 "cosmo_total_nonelectrostatic_energy": 8.21, 
			 "SMD_solvation_energy": 2.19 
		},
		"coords": [
			{
				"x": 1.0578701209,
				"y": 1.4528012706,
				"z": -1.540627063,
				"element": "C" 
			},
			{
				"x": 0.7104235089,
				"y": 2.2329996361,
				"z": -0.2702745723,
				"element": "C" 
			},
			{
				"x": -0.0274710201,
				"y": 1.423950506,
				"z": 0.6419227975,
				"element": "O" 
			},
			{
				"x": 0.6764433121,
				"y": 0.2357238451,
				"z": 0.9859923349,
				"element": "C" 
			},
			{
				"x": 1.0278736862,
				"y": -0.6135432901,
				"z": -0.2472022575,
				"element": "C" 
			},
			{
				"x": 1.7571743111,
				"y": 0.1927076241,
				"z": -1.2549431624,
				"element": "N" 
			},
			{
				"x": -0.1544734122,
				"y": -1.3220671161,
				"z": -0.9063305911,
				"element": "C" 
			},
			{
				"x": 0.1201327624,
				"y": -2.3199684747,
				"z": -1.853712009,
				"element": "C" 
			},
			{
				"x": -0.9094586427,
				"y": -3.0208993627,
				"z": -2.4773818945,
				"element": "C" 
			},
			{
				"x": -2.2412494478,
				"y": -2.7306956621,
				"z": -2.1674270539,
				"element": "C" 
			},
			{
				"x": -2.5272460716,
				"y": -1.7326668903,
				"z": -1.2373802779,
				"element": "C" 
			},
			{
				"x": -1.4920414184,
				"y": -1.0303983057,
				"z": -0.6122442078,
				"element": "C" 
			},
			{
				"x": 0.134722505,
				"y": 1.2133481082,
				"z": -2.0803483229,
				"element": "H" 
			},
			{
				"x": 1.6813004478,
				"y": 2.0618065229,
				"z": -2.2054176537,
				"element": "H" 
			},
			{
				"x": 1.6371378668,
				"y": 2.5904409654,
				"z": 0.2149885343,
				"element": "H" 
			},
			{
				"x": 0.0823127853,
				"y": 3.1030708522,
				"z": -0.4877784597,
				"element": "H" 
			},
			{
				"x": 0.0394990719,
				"y": -0.309362602,
				"z": 1.6891846524,
				"element": "H" 
			},
			{
				"x": 1.6140707878,
				"y": 0.4969197147,
				"z": 1.5079992272,
				"element": "H" 
			},
			{
				"x": 1.7272734489,
				"y": -1.3924818459,
				"z": 0.0858017639,
				"element": "H" 
			},
			{
				"x": 2.6816871584,
				"y": 0.4083749291,
				"z": -0.8831452204,
				"element": "H" 
			},
			{
				"x": 1.1550360164,
				"y": -2.536914955,
				"z": -2.1043327309,
				"element": "H" 
			},
			{
				"x": -0.6747970405,
				"y": -3.7942749331,
				"z": -3.203731598,
				"element": "H" 
			},
			{
				"x": -3.0468060196,
				"y": -3.2765334056,
				"z": -2.6506348259,
				"element": "H" 
			},
			{
				"x": -3.5591502208,
				"y": -1.4916641594,
				"z": -0.9968877479,
				"element": "H" 
			},
			{
				"x": -1.729664496,
				"y": -0.2368729715,
				"z": 0.0875103387,
				"element": "H" 
			}
		],
		 "valence_orbital": [ 
			{
				"type": "occ",
				"energy": -0.31474,
				"method": "rhf"
			},
			{
				"type": "occ",
				"energy": -0.27297,
				"method": "rhf"
			},
			{
				"type": "occ",
				"energy": -0.2419,
				"method": "rhf"
			},
			{
				"type": "occ",
				"energy": -0.23608,
				"method": "rhf"
			},
			{
				"type": "occ",
				"energy": -0.21244,
				"method": "rhf"
			},
			{
				"type": "unocc",
				"energy": 0.00232,
				"method": "rhf"
			},
			{
				"type": "unocc",
				"energy": 0.00793,
				"method": "rhf"
			},
			{
				"type": "unocc",
				"energy": 0.07633,
				"method": "rhf"
			},
			{
				"type": "unocc",
				"energy": 0.10532,
				"method": "rhf"
			},
			{
				"type": "unocc",
				"energy": 0.12136,
				"method": "rhf"
			}
		],
		"cosmo_sigma_profile": { 
			"-0.025": 0.0,
			"-0.024": 0.0,
			"-0.023": 0.0,
			"-0.022": 0.0,
			"-0.021": 0.0,
			"-0.02": 0.0,
			"-0.019": 0.0,
			"-0.018": 0.0,
			"-0.017": 0.0,
			"-0.016": 0.0,
			"-0.015": 0.0,
			"-0.014": 0.0,
			"-0.013": 0.0,
			"-0.012": 0.0,
			"-0.011": 0.000196622473777,
			"-0.01": 0.970504102546,
			"-0.009": 1.56791412473,
			"-0.008": 1.81936838881,
			"-0.007": 2.51538259143,
			"-0.006": 3.70085933122,
			"-0.005": 15.2696225926,
			"-0.004": 24.9415804916,
			"-0.003": 29.913372915,
			"-0.002": 20.4217955327,
			"-0.001": 15.325054277,
			"0.0": 10.5519086765,
			"0.001": 10.2908733364,
			"0.002": 9.42245828737,
			"0.003": 9.83193108387,
			"0.004": 9.23214936757,
			"0.005": 10.5183318727,
			"0.006": 11.0210075023,
			"0.007": 5.40321626976,
			"0.008": 1.75149834341,
			"0.009": 2.96518114824,
			"0.01": 1.63871802036,
			"0.011": 1.69305516208,
			"0.012": 1.62741332147,
			"0.013": 1.73360418735,
			"0.014": 0.737438139963,
			"0.015": 0.556750501394,
			"0.016": 0.646737856478,
			"0.017": 0.0932594105933,
			"0.018": 0.0,
			"0.019": 0.0,
			"0.02": 0.0,
			"0.021": 0.0,
			"0.022": 0.0,
			"0.023": 0.0,
			"0.024": 0.0,
			"0.025": 0.0
		}
	}
}
