{
	 "smiles": "NC(=O)C1CNC2=C1C=CC=C2", 
	 "Tm": 424.15, 
	 "num_atms": 22, 
	 "gaussian": { 
		 "optdone": 1, 
		 "sigma_profile": "yes", 
		 "theory": "DFT", 
		 "functional": "B3LYP", 
		 "basiset": "6-31G**", 
		 "properties": { 
			 "R2extent": 2028.7786, 
			 "electric_dipole_moment_norm": 4.11229770445, 
			 "electric_quadrupole_moment_norm": 10.8518712221, 
			 "total_energy": -533.728060029, 
			 "HOMO_LUMO_gap": 0.19903, 
			 "cosmo_polarized_energy": -14.07, 
			 "cosmo_cavitation_energy": 24.97, 
			 "cosmo_dispersion_energy": -18.46, 
			 "cosmo_repulsion_energy": 1.49, 
			 "cosmo_total_nonelectrostatic_energy": 7.99, 
			 "SMD_solvation_energy": 4.05 
		},
		"coords": [
			{
				"x": 0.9363268688,
				"y": -2.3136091806,
				"z": 1.676109619,
				"element": "N" 
			},
			{
				"x": -0.2922023541,
				"y": -1.8074977459,
				"z": 1.9984943488,
				"element": "C" 
			},
			{
				"x": -1.1579472352,
				"y": -2.4579464201,
				"z": 2.5646357608,
				"element": "O" 
			},
			{
				"x": -0.524935335,
				"y": -0.3412770346,
				"z": 1.5841452963,
				"element": "C" 
			},
			{
				"x": 0.7261795979,
				"y": 0.5685215824,
				"z": 1.688125107,
				"element": "C" 
			},
			{
				"x": 1.3635587433,
				"y": 0.4303844734,
				"z": 0.3584355763,
				"element": "N" 
			},
			{
				"x": 0.3204926494,
				"y": 0.2131342713,
				"z": -0.5676156342,
				"element": "C" 
			},
			{
				"x": -0.8265355785,
				"y": -0.2547993741,
				"z": 0.093521538,
				"element": "C" 
			},
			{
				"x": -1.9614661147,
				"y": -0.6040068516,
				"z": -0.6242143054,
				"element": "C" 
			},
			{
				"x": -1.9541334333,
				"y": -0.4569084425,
				"z": -2.018839807,
				"element": "C" 
			},
			{
				"x": -0.8134197488,
				"y": 0.0205720058,
				"z": -2.6682682385,
				"element": "C" 
			},
			{
				"x": 0.3424258138,
				"y": 0.3591887564,
				"z": -1.9530231664,
				"element": "C" 
			},
			{
				"x": 1.5556165081,
				"y": -1.8028261605,
				"z": 1.0599429288,
				"element": "H" 
			},
			{
				"x": 1.073478929,
				"y": -3.3055627827,
				"z": 1.8020994352,
				"element": "H" 
			},
			{
				"x": -1.3457884713,
				"y": 0.0162058608,
				"z": 2.208729071,
				"element": "H" 
			},
			{
				"x": 1.4112535223,
				"y": 0.2646285584,
				"z": 2.4836525567,
				"element": "H" 
			},
			{
				"x": 0.4076986264,
				"y": 1.604553099,
				"z": 1.8754246224,
				"element": "H" 
			},
			{
				"x": 2.0202647051,
				"y": 1.1637607011,
				"z": 0.1175495415,
				"element": "H" 
			},
			{
				"x": -2.8412315156,
				"y": -0.9809713105,
				"z": -0.1103768736,
				"element": "H" 
			},
			{
				"x": -2.8379279115,
				"y": -0.7135588367,
				"z": -2.5945719931,
				"element": "H" 
			},
			{
				"x": -0.8189381785,
				"y": 0.1358380666,
				"z": -3.7485747936,
				"element": "H" 
			},
			{
				"x": 1.2265299124,
				"y": 0.7269767646,
				"z": -2.4663805902,
				"element": "H" 
			}
		],
		 "valence_orbital": [ 
			{
				"type": "occ",
				"energy": -0.30025,
				"method": "rhf"
			},
			{
				"type": "occ",
				"energy": -0.26188,
				"method": "rhf"
			},
			{
				"type": "occ",
				"energy": -0.25301,
				"method": "rhf"
			},
			{
				"type": "occ",
				"energy": -0.23595,
				"method": "rhf"
			},
			{
				"type": "occ",
				"energy": -0.2051,
				"method": "rhf"
			},
			{
				"type": "unocc",
				"energy": -0.00607,
				"method": "rhf"
			},
			{
				"type": "unocc",
				"energy": 0.00906,
				"method": "rhf"
			},
			{
				"type": "unocc",
				"energy": 0.04172,
				"method": "rhf"
			},
			{
				"type": "unocc",
				"energy": 0.07627,
				"method": "rhf"
			},
			{
				"type": "unocc",
				"energy": 0.10273,
				"method": "rhf"
			}
		],
		"cosmo_sigma_profile": { 
			"-0.025": 0.0,
			"-0.024": 0.0,
			"-0.023": 0.0,
			"-0.022": 0.0,
			"-0.021": 0.0,
			"-0.02": 0.0,
			"-0.019": 0.0,
			"-0.018": 0.0,
			"-0.017": 0.0,
			"-0.016": 0.0,
			"-0.015": 0.0,
			"-0.014": 0.37723046664,
			"-0.013": 1.6189854268,
			"-0.012": 2.58500659081,
			"-0.011": 2.81692436325,
			"-0.01": 2.54935147619,
			"-0.009": 3.2737774461,
			"-0.008": 3.27054118346,
			"-0.007": 2.77378451545,
			"-0.006": 6.47225614483,
			"-0.005": 15.0578676553,
			"-0.004": 18.5638706683,
			"-0.003": 20.9962895582,
			"-0.002": 14.5292690305,
			"-0.001": 10.1408550004,
			"0.0": 8.32342677347,
			"0.001": 8.16754048203,
			"0.002": 10.9346450206,
			"0.003": 10.283551113,
			"0.004": 11.1042277297,
			"0.005": 9.7158629674,
			"0.006": 9.78305922448,
			"0.007": 6.22721284395,
			"0.008": 1.45774748751,
			"0.009": 0.994466110786,
			"0.01": 1.16022547144,
			"0.011": 1.6593528398,
			"0.012": 1.86279375383,
			"0.013": 3.43310831563,
			"0.014": 5.70807627406,
			"0.015": 1.6190216141,
			"0.016": 0.0,
			"0.017": 0.0,
			"0.018": 0.0,
			"0.019": 0.0,
			"0.02": 0.0,
			"0.021": 0.0,
			"0.022": 0.0,
			"0.023": 0.0,
			"0.024": 0.0,
			"0.025": 0.0
		}
	}
}
