{
	 "smiles": "CCOC1=C(O)C=CC(=C1)C#N", 
	 "Tm": 349.15, 
	 "num_atms": 21, 
	 "gaussian": { 
		 "optdone": 1, 
		 "sigma_profile": "yes", 
		 "theory": "DFT", 
		 "functional": "B3LYP", 
		 "basiset": "6-31G**", 
		 "properties": { 
			 "R2extent": 2340.1286, 
			 "electric_dipole_moment_norm": 5.16903852278, 
			 "electric_quadrupole_moment_norm": 17.7113584087, 
			 "total_energy": -553.558510735, 
			 "HOMO_LUMO_gap": 0.18852, 
			 "cosmo_polarized_energy": -12.02, 
			 "cosmo_cavitation_energy": 25.93, 
			 "cosmo_dispersion_energy": -18.49, 
			 "cosmo_repulsion_energy": 1.5, 
			 "cosmo_total_nonelectrostatic_energy": 8.94, 
			 "SMD_solvation_energy": 6.63 
		},
		"coords": [
			{
				"x": 2.6477732676,
				"y": 1.9765318816,
				"z": -1.2613139121,
				"element": "C" 
			},
			{
				"x": 2.6816288106,
				"y": 0.7767015161,
				"z": -0.3228070966,
				"element": "C" 
			},
			{
				"x": 1.8162351028,
				"y": -0.2840721439,
				"z": -0.755213754,
				"element": "O" 
			},
			{
				"x": 0.4681924373,
				"y": -0.210141075,
				"z": -0.5179112989,
				"element": "C" 
			},
			{
				"x": -0.2528444848,
				"y": -1.2961852402,
				"z": -1.0690407387,
				"element": "C" 
			},
			{
				"x": 0.4034053717,
				"y": -2.2567732828,
				"z": -1.7619484136,
				"element": "O" 
			},
			{
				"x": -1.6321473821,
				"y": -1.3773288243,
				"z": -0.8963731598,
				"element": "C" 
			},
			{
				"x": -2.3070524947,
				"y": -0.3897743228,
				"z": -0.1818452452,
				"element": "C" 
			},
			{
				"x": -1.5965247595,
				"y": 0.6876972454,
				"z": 0.3641760786,
				"element": "C" 
			},
			{
				"x": -0.1979599727,
				"y": 0.7769636446,
				"z": 0.1934271954,
				"element": "C" 
			},
			{
				"x": -2.2803798983,
				"y": 1.7100832051,
				"z": 1.0963202628,
				"element": "C" 
			},
			{
				"x": -2.8316074722,
				"y": 2.5443855546,
				"z": 1.692461845,
				"element": "N" 
			},
			{
				"x": 3.3638866504,
				"y": 2.7319972619,
				"z": -0.9219738525,
				"element": "H" 
			},
			{
				"x": 2.9215094448,
				"y": 1.6744230189,
				"z": -2.276107509,
				"element": "H" 
			},
			{
				"x": 1.6576208456,
				"y": 2.4382879279,
				"z": -1.2966729866,
				"element": "H" 
			},
			{
				"x": 2.4340060293,
				"y": 1.056353463,
				"z": 0.7081933134,
				"element": "H" 
			},
			{
				"x": 3.6766623562,
				"y": 0.3244892819,
				"z": -0.3107199789,
				"element": "H" 
			},
			{
				"x": 1.3436327686,
				"y": -2.0152472968,
				"z": -1.7635772255,
				"element": "H" 
			},
			{
				"x": -2.1600789273,
				"y": -2.220644392,
				"z": -1.3278993585,
				"element": "H" 
			},
			{
				"x": -3.3811637678,
				"y": -0.4496121314,
				"z": -0.0473727557,
				"element": "H" 
			},
			{
				"x": 0.3322060745,
				"y": 1.618764708,
				"z": 0.6204985904,
				"element": "H" 
			}
		],
		 "valence_orbital": [ 
			{
				"type": "occ",
				"energy": -0.34745,
				"method": "rhf"
			},
			{
				"type": "occ",
				"energy": -0.32309,
				"method": "rhf"
			},
			{
				"type": "occ",
				"energy": -0.31534,
				"method": "rhf"
			},
			{
				"type": "occ",
				"energy": -0.25852,
				"method": "rhf"
			},
			{
				"type": "occ",
				"energy": -0.22509,
				"method": "rhf"
			},
			{
				"type": "unocc",
				"energy": -0.03657,
				"method": "rhf"
			},
			{
				"type": "unocc",
				"energy": -0.01192,
				"method": "rhf"
			},
			{
				"type": "unocc",
				"energy": 0.04264,
				"method": "rhf"
			},
			{
				"type": "unocc",
				"energy": 0.06265,
				"method": "rhf"
			},
			{
				"type": "unocc",
				"energy": 0.07626,
				"method": "rhf"
			}
		],
		"cosmo_sigma_profile": { 
			"-0.025": 0.0,
			"-0.024": 0.0,
			"-0.023": 0.0,
			"-0.022": 0.0,
			"-0.021": 0.0,
			"-0.02": 0.0,
			"-0.019": 0.0,
			"-0.018": 0.0,
			"-0.017": 0.0,
			"-0.016": 0.0,
			"-0.015": 0.155641488209,
			"-0.014": 0.749621232428,
			"-0.013": 0.66160990764,
			"-0.012": 0.734252162839,
			"-0.011": 0.595060596685,
			"-0.01": 0.361514303513,
			"-0.009": 1.2536051164,
			"-0.008": 3.89886789768,
			"-0.007": 7.12889178689,
			"-0.006": 11.0243077319,
			"-0.005": 12.4989805044,
			"-0.004": 18.0369438687,
			"-0.003": 15.3707149315,
			"-0.002": 14.1147841903,
			"-0.001": 14.4360046945,
			"0.0": 21.5879100783,
			"0.001": 16.7684058628,
			"0.002": 16.0723555737,
			"0.003": 10.7013817634,
			"0.004": 5.0099564673,
			"0.005": 4.39408652895,
			"0.006": 3.80632091221,
			"0.007": 3.71476782487,
			"0.008": 5.04934332342,
			"0.009": 4.47448703501,
			"0.01": 5.89412920347,
			"0.011": 3.77706464363,
			"0.012": 2.48803961996,
			"0.013": 2.27163007726,
			"0.014": 0.498434258131,
			"0.015": 0.0,
			"0.016": 0.0,
			"0.017": 0.0,
			"0.018": 0.0,
			"0.019": 0.0,
			"0.02": 0.0,
			"0.021": 0.0,
			"0.022": 0.0,
			"0.023": 0.0,
			"0.024": 0.0,
			"0.025": 0.0
		}
	}
}
