{
	 "smiles": "O=N(=O)NC1=CC=CC=C1", 
	 "Tm": 320.45, 
	 "num_atms": 16, 
	 "gaussian": { 
		 "optdone": 1, 
		 "sigma_profile": "yes", 
		 "theory": "DFT", 
		 "functional": "B3LYP", 
		 "basiset": "6-31G**", 
		 "properties": { 
			 "R2extent": 1865.3952, 
			 "electric_dipole_moment_norm": 4.04841391288, 
			 "electric_quadrupole_moment_norm": 9.31953542297, 
			 "total_energy": -492.083443926, 
			 "HOMO_LUMO_gap": 0.18749, 
			 "cosmo_polarized_energy": -10.73, 
			 "cosmo_cavitation_energy": 20.92, 
			 "cosmo_dispersion_energy": -15.62, 
			 "cosmo_repulsion_energy": 1.27, 
			 "cosmo_total_nonelectrostatic_energy": 6.58, 
			 "SMD_solvation_energy": 6.01 
		},
		"coords": [
			{
				"x": 2.6985411263,
				"y": 0.2029324135,
				"z": 1.6042044857,
				"element": "O" 
			},
			{
				"x": 1.758535743,
				"y": -0.5289682687,
				"z": 1.300878744,
				"element": "N" 
			},
			{
				"x": 1.4807043934,
				"y": -1.6148940016,
				"z": 1.7923147161,
				"element": "O" 
			},
			{
				"x": 0.9109102595,
				"y": -0.0066990774,
				"z": 0.3279763868,
				"element": "N" 
			},
			{
				"x": 0.0320109882,
				"y": -0.7920125457,
				"z": -0.4617974634,
				"element": "C" 
			},
			{
				"x": -0.0118323969,
				"y": -0.5221780567,
				"z": -1.8360489663,
				"element": "C" 
			},
			{
				"x": -0.914457237,
				"y": -1.202921668,
				"z": -2.650533631,
				"element": "C" 
			},
			{
				"x": -1.7635624707,
				"y": -2.1663656571,
				"z": -2.1041440748,
				"element": "C" 
			},
			{
				"x": -1.7125650289,
				"y": -2.431767958,
				"z": -0.7342921976,
				"element": "C" 
			},
			{
				"x": -0.8309502449,
				"y": -1.7429145418,
				"z": 0.0973481117,
				"element": "C" 
			},
			{
				"x": 1.3814261387,
				"y": 0.7746511188,
				"z": -0.1111130096,
				"element": "H" 
			},
			{
				"x": 0.6604763203,
				"y": 0.2170498857,
				"z": -2.2642477982,
				"element": "H" 
			},
			{
				"x": -0.9431223355,
				"y": -0.9856666827,
				"z": -3.7139726636,
				"element": "H" 
			},
			{
				"x": -2.4604946541,
				"y": -2.7038065174,
				"z": -2.7396727867,
				"element": "H" 
			},
			{
				"x": -2.3741774987,
				"y": -3.1754072505,
				"z": -0.3002353281,
				"element": "H" 
			},
			{
				"x": -0.8006431028,
				"y": -1.9414311925,
				"z": 1.159535475,
				"element": "H" 
			}
		],
		 "valence_orbital": [ 
			{
				"type": "occ",
				"energy": -0.32538,
				"method": "rhf"
			},
			{
				"type": "occ",
				"energy": -0.31436,
				"method": "rhf"
			},
			{
				"type": "occ",
				"energy": -0.29761,
				"method": "rhf"
			},
			{
				"type": "occ",
				"energy": -0.26682,
				"method": "rhf"
			},
			{
				"type": "occ",
				"energy": -0.24548,
				"method": "rhf"
			},
			{
				"type": "unocc",
				"energy": -0.05799,
				"method": "rhf"
			},
			{
				"type": "unocc",
				"energy": -0.01727,
				"method": "rhf"
			},
			{
				"type": "unocc",
				"energy": -0.00915,
				"method": "rhf"
			},
			{
				"type": "unocc",
				"energy": 0.06857,
				"method": "rhf"
			},
			{
				"type": "unocc",
				"energy": 0.08601,
				"method": "rhf"
			}
		],
		"cosmo_sigma_profile": { 
			"-0.025": 0.0,
			"-0.024": 0.0,
			"-0.023": 0.0,
			"-0.022": 0.0,
			"-0.021": 0.0,
			"-0.02": 0.0,
			"-0.019": 0.0,
			"-0.018": 0.0,
			"-0.017": 0.418045237357,
			"-0.016": 1.21845288292,
			"-0.015": 1.24352757152,
			"-0.014": 1.17573954646,
			"-0.013": 1.30332399249,
			"-0.012": 0.906727544849,
			"-0.011": 0.686205989667,
			"-0.01": 1.37977536149,
			"-0.009": 1.29411739791,
			"-0.008": 2.49891299648,
			"-0.007": 3.75830209318,
			"-0.006": 9.40718287058,
			"-0.005": 12.0345661853,
			"-0.004": 12.1546495524,
			"-0.003": 10.1201161385,
			"-0.002": 9.25962055222,
			"-0.001": 8.04195199191,
			"0.0": 8.3136249965,
			"0.001": 8.90383290627,
			"0.002": 11.0406431657,
			"0.003": 11.5016497358,
			"0.004": 14.1057808689,
			"0.005": 8.30585113494,
			"0.006": 3.80309245206,
			"0.007": 6.3127217284,
			"0.008": 10.2540063328,
			"0.009": 5.60679327221,
			"0.01": 2.46604316736,
			"0.011": 0.0988142736634,
			"0.012": 0.0,
			"0.013": 0.0,
			"0.014": 0.0,
			"0.015": 0.0,
			"0.016": 0.0,
			"0.017": 0.0,
			"0.018": 0.0,
			"0.019": 0.0,
			"0.02": 0.0,
			"0.021": 0.0,
			"0.022": 0.0,
			"0.023": 0.0,
			"0.024": 0.0,
			"0.025": 0.0
		}
	}
}
