{
	 "smiles": "OCC1CCN(CC1)C1=NC=NC2=C1SC=C2", 
	 "Tm": 400.15, 
	 "num_atms": 32, 
	 "gaussian": { 
		 "optdone": 1, 
		 "sigma_profile": "yes", 
		 "theory": "DFT", 
		 "functional": "B3LYP", 
		 "basiset": "6-31G**", 
		 "properties": { 
			 "R2extent": 5856.5484, 
			 "electric_dipole_moment_norm": 3.23740491907, 
			 "electric_quadrupole_moment_norm": 19.3387814921, 
			 "total_energy": -1103.97176115, 
			 "HOMO_LUMO_gap": 0.17246, 
			 "cosmo_polarized_energy": -14.64, 
			 "cosmo_cavitation_energy": 34.49, 
			 "cosmo_dispersion_energy": -26.07, 
			 "cosmo_repulsion_energy": 1.95, 
			 "cosmo_total_nonelectrostatic_energy": 10.37, 
			 "SMD_solvation_energy": 2.16 
		},
		"coords": [
			{
				"x": 2.0470681654,
				"y": 2.2969154709,
				"z": -2.9748638462,
				"element": "O" 
			},
			{
				"x": 1.5200268501,
				"y": 2.7319613883,
				"z": -1.7298860081,
				"element": "C" 
			},
			{
				"x": 0.756968388,
				"y": 1.6332366795,
				"z": -0.98215066,
				"element": "C" 
			},
			{
				"x": -0.4622514,
				"y": 1.1114387344,
				"z": -1.7903175249,
				"element": "C" 
			},
			{
				"x": -1.6309763593,
				"y": 0.7080671574,
				"z": -0.8723069275,
				"element": "C" 
			},
			{
				"x": -1.1467468667,
				"y": 0.0826593904,
				"z": 0.36105545,
				"element": "N" 
			},
			{
				"x": -0.2949621163,
				"y": 0.9248469286,
				"z": 1.2079517972,
				"element": "C" 
			},
			{
				"x": 0.2931701587,
				"y": 2.0990759523,
				"z": 0.4052365513,
				"element": "C" 
			},
			{
				"x": -1.4617605774,
				"y": -1.215409153,
				"z": 0.662819076,
				"element": "C" 
			},
			{
				"x": -2.108829572,
				"y": -1.9220278989,
				"z": -0.2842707532,
				"element": "N" 
			},
			{
				"x": -2.4321304144,
				"y": -3.1979134446,
				"z": -0.0419431795,
				"element": "C" 
			},
			{
				"x": -2.2001258858,
				"y": -3.9103338072,
				"z": 1.0507801019,
				"element": "N" 
			},
			{
				"x": -1.5670006772,
				"y": -3.2192774485,
				"z": 2.0278091024,
				"element": "C" 
			},
			{
				"x": -1.1682912733,
				"y": -1.8693851846,
				"z": 1.894880772,
				"element": "C" 
			},
			{
				"x": -0.4299684761,
				"y": -1.3010971045,
				"z": 3.3929228505,
				"element": "S" 
			},
			{
				"x": -0.6550886526,
				"y": -2.86077635,
				"z": 4.1369949491,
				"element": "C" 
			},
			{
				"x": -1.2514910137,
				"y": -3.7656582912,
				"z": 3.3201394768,
				"element": "C" 
			},
			{
				"x": 1.3050490994,
				"y": 2.1067342569,
				"z": -3.5627464061,
				"element": "H" 
			},
			{
				"x": 0.8671859763,
				"y": 3.6133655405,
				"z": -1.8565254448,
				"element": "H" 
			},
			{
				"x": 2.3850965222,
				"y": 3.0535162678,
				"z": -1.139602619,
				"element": "H" 
			},
			{
				"x": 1.4574742017,
				"y": 0.7994863258,
				"z": -0.8395201989,
				"element": "H" 
			},
			{
				"x": -0.8293690417,
				"y": 1.8898266601,
				"z": -2.4755997074,
				"element": "H" 
			},
			{
				"x": -0.1643400938,
				"y": 0.2565996406,
				"z": -2.4055623257,
				"element": "H" 
			},
			{
				"x": -2.2964247484,
				"y": 0.0030927549,
				"z": -1.3647524416,
				"element": "H" 
			},
			{
				"x": -2.2192744482,
				"y": 1.5945067576,
				"z": -0.5998341549,
				"element": "H" 
			},
			{
				"x": -0.8491795265,
				"y": 1.3053630494,
				"z": 2.0780199575,
				"element": "H" 
			},
			{
				"x": 0.5349834771,
				"y": 0.3176084448,
				"z": 1.5822545871,
				"element": "H" 
			},
			{
				"x": -0.4457557459,
				"y": 2.9037902857,
				"z": 0.3037281033,
				"element": "H" 
			},
			{
				"x": 1.1277185073,
				"y": 2.5176723536,
				"z": 0.9789826441,
				"element": "H" 
			},
			{
				"x": -2.9504722109,
				"y": -3.7074901458,
				"z": -0.8532742789,
				"element": "H" 
			},
			{
				"x": -0.3178687588,
				"y": -3.0048934322,
				"z": 5.1548853641,
				"element": "H" 
			},
			{
				"x": -1.482133487,
				"y": -4.788501779,
				"z": 3.5900956935,
				"element": "H" 
			}
		],
		 "valence_orbital": [ 
			{
				"type": "occ",
				"energy": -0.26949,
				"method": "rhf"
			},
			{
				"type": "occ",
				"energy": -0.26426,
				"method": "rhf"
			},
			{
				"type": "occ",
				"energy": -0.2484,
				"method": "rhf"
			},
			{
				"type": "occ",
				"energy": -0.24413,
				"method": "rhf"
			},
			{
				"type": "occ",
				"energy": -0.20807,
				"method": "rhf"
			},
			{
				"type": "unocc",
				"energy": -0.03561,
				"method": "rhf"
			},
			{
				"type": "unocc",
				"energy": -0.00324,
				"method": "rhf"
			},
			{
				"type": "unocc",
				"energy": 0.02327,
				"method": "rhf"
			},
			{
				"type": "unocc",
				"energy": 0.04322,
				"method": "rhf"
			},
			{
				"type": "unocc",
				"energy": 0.06664,
				"method": "rhf"
			}
		],
		"cosmo_sigma_profile": { 
			"-0.025": 0.0,
			"-0.024": 0.0,
			"-0.023": 0.0,
			"-0.022": 0.0,
			"-0.021": 0.0,
			"-0.02": 0.0,
			"-0.019": 0.0,
			"-0.018": 0.0,
			"-0.017": 0.0,
			"-0.016": 0.0,
			"-0.015": 0.0407879050331,
			"-0.014": 0.787369275392,
			"-0.013": 0.804410604482,
			"-0.012": 1.05054751043,
			"-0.011": 1.05763470056,
			"-0.01": 1.39016983737,
			"-0.009": 3.19581034384,
			"-0.008": 2.90586603346,
			"-0.007": 4.77685560145,
			"-0.006": 6.40414730543,
			"-0.005": 11.7386603524,
			"-0.004": 30.486688964,
			"-0.003": 34.0374020058,
			"-0.002": 26.0520008318,
			"-0.001": 22.1219220557,
			"0.0": 17.6157144374,
			"0.001": 19.6228899129,
			"0.002": 20.4837446973,
			"0.003": 16.7999593456,
			"0.004": 12.3045722864,
			"0.005": 5.9350637161,
			"0.006": 3.32992463626,
			"0.007": 4.51900748593,
			"0.008": 4.22360258584,
			"0.009": 3.56258547717,
			"0.01": 3.66503937153,
			"0.011": 3.1542705242,
			"0.012": 2.13552154652,
			"0.013": 3.31615506724,
			"0.014": 3.00884073919,
			"0.015": 1.65075879793,
			"0.016": 1.14033055796,
			"0.017": 0.433572994329,
			"0.018": 0.0,
			"0.019": 0.0,
			"0.02": 0.0,
			"0.021": 0.0,
			"0.022": 0.0,
			"0.023": 0.0,
			"0.024": 0.0,
			"0.025": 0.0
		}
	}
}
