{
	 "smiles": "IC1=CC=CC=C1", 
	 "Tm": 242.05, 
	 "num_atms": 12, 
	 "gaussian": { 
		 "optdone": 1, 
		 "sigma_profile": "no", 
		 "theory": "DFT", 
		 "functional": "B3LYP", 
		 "basiset": "6-31G**", 
		 "properties": { 
			 "R2extent": 989.308, 
			 "electric_dipole_moment_norm": 1.84433307458, 
			 "electric_quadrupole_moment_norm": 5.98955426388, 
			 "total_energy": -243.036116409, 
			 "HOMO_LUMO_gap": 0.20164, 
			 "cosmo_polarized_energy": -99135.12, 
			 "cosmo_cavitation_energy": 18.91, 
			 "cosmo_dispersion_energy": -15.68, 
			 "cosmo_repulsion_energy": 1.27, 
			 "cosmo_total_nonelectrostatic_energy": 4.51, 
			 "SMD_solvation_energy": 2.42 
		},
		"coords": [
			{
				"x": 2.7784743694,
				"y": -1.2835973613,
				"z": 2.6114888837,
				"element": "I" 
			},
			{
				"x": 1.2824922568,
				"y": -0.9838081945,
				"z": 1.1345992037,
				"element": "C" 
			},
			{
				"x": 0.8989580301,
				"y": 0.3162096983,
				"z": 0.7989319148,
				"element": "C" 
			},
			{
				"x": -0.0855973569,
				"y": 0.5050966037,
				"z": -0.1733719972,
				"element": "C" 
			},
			{
				"x": -0.6791992,
				"y": -0.5906663453,
				"z": -0.8020894895,
				"element": "C" 
			},
			{
				"x": -0.285421759,
				"y": -1.884312476,
				"z": -0.4560105381,
				"element": "C" 
			},
			{
				"x": 0.6977433473,
				"y": -2.0897820767,
				"z": 0.5143349441,
				"element": "C" 
			},
			{
				"x": 1.3580857808,
				"y": 1.1696785942,
				"z": 1.2854407994,
				"element": "H" 
			},
			{
				"x": -0.3853049204,
				"y": 1.5154446233,
				"z": -0.4358729011,
				"element": "H" 
			},
			{
				"x": -1.4441259927,
				"y": -0.4373651419,
				"z": -1.5572759319,
				"element": "H" 
			},
			{
				"x": -0.7414558527,
				"y": -2.743191436,
				"z": -0.9396307329,
				"element": "H" 
			},
			{
				"x": 1.0013512973,
				"y": -3.0961064879,
				"z": 0.780855845,
				"element": "H" 
			}
		],
		 "valence_orbital": [ 
			{
				"type": "occ",
				"energy": -0.33983,
				"method": "rhf"
			},
			{
				"type": "occ",
				"energy": -0.29631,
				"method": "rhf"
			},
			{
				"type": "occ",
				"energy": -0.2674,
				"method": "rhf"
			},
			{
				"type": "occ",
				"energy": -0.26392,
				"method": "rhf"
			},
			{
				"type": "occ",
				"energy": -0.2395,
				"method": "rhf"
			},
			{
				"type": "unocc",
				"energy": -0.03786,
				"method": "rhf"
			},
			{
				"type": "unocc",
				"energy": -0.0177,
				"method": "rhf"
			},
			{
				"type": "unocc",
				"energy": -0.01445,
				"method": "rhf"
			},
			{
				"type": "unocc",
				"energy": 0.04388,
				"method": "rhf"
			},
			{
				"type": "unocc",
				"energy": 0.05175,
				"method": "rhf"
			}
		],
		"cosmo_sigma_profile": { 
			"0.0": 0.0,
			"0.0": 0.0,
			"0.0": 0.0,
			"0.0": 0.0,
			"0.0": 0.0,
			"0.0": 0.0,
			"0.0": 0.0,
			"0.0": 0.0,
			"0.0": 0.0,
			"0.0": 0.0,
			"0.0": 0.0,
			"0.0": 0.0,
			"0.0": 0.0,
			"0.0": 0.0,
			"0.0": 0.0,
			"0.0": 0.0,
			"0.0": 0.0,
			"0.0": 0.0,
			"0.0": 0.0,
			"0.0": 0.0,
			"0.0": 0.0,
			"0.0": 0.0,
			"0.0": 0.0,
			"0.0": 0.0,
			"0.0": 0.0,
			"0.0": 0.0,
			"0.0": 0.0,
			"0.0": 0.0,
			"0.0": 0.0,
			"0.0": 0.0,
			"0.0": 0.0,
			"0.0": 0.0,
			"0.0": 0.0,
			"0.0": 0.0,
			"0.0": 0.0,
			"0.0": 0.0,
			"0.0": 0.0,
			"0.0": 0.0,
			"0.0": 0.0,
			"0.0": 0.0,
			"0.0": 0.0,
			"0.0": 0.0,
			"0.0": 0.0,
			"0.0": 0.0,
			"0.0": 0.0,
			"0.0": 0.0,
			"0.0": 0.0,
			"0.0": 0.0,
			"0.0": 0.0,
			"0.0": 0.0,
			"0.0": 0.0
		}
	}
}
