{
	 "smiles": "SC1=NC=C(N1)C1=CC=C(Br)C=C1", 
	 "Tm": 484.15, 
	 "num_atms": 20, 
	 "gaussian": { 
		 "optdone": 1, 
		 "sigma_profile": "yes", 
		 "theory": "DFT", 
		 "functional": "B3LYP", 
		 "basiset": "6-31G**", 
		 "properties": { 
			 "R2extent": 6906.6689, 
			 "electric_dipole_moment_norm": 1.89175728887, 
			 "electric_quadrupole_moment_norm": 15.2367778785, 
			 "total_energy": -3426.26693197, 
			 "HOMO_LUMO_gap": 0.17161, 
			 "cosmo_polarized_energy": -13.91, 
			 "cosmo_cavitation_energy": 29.05, 
			 "cosmo_dispersion_energy": -22.37, 
			 "cosmo_repulsion_energy": 1.71, 
			 "cosmo_total_nonelectrostatic_energy": 8.39, 
			 "SMD_solvation_energy": 1.27 
		},
		"coords": [
			{
				"x": -5.6219309254,
				"y": 0.4713066659,
				"z": -2.1668966293,
				"element": "S" 
			},
			{
				"x": -3.8646729202,
				"y": 0.3159993507,
				"z": -2.3410722098,
				"element": "C" 
			},
			{
				"x": -3.1345501934,
				"y": 0.5992164876,
				"z": -3.4005140297,
				"element": "N" 
			},
			{
				"x": -1.852169221,
				"y": 0.2599012357,
				"z": -3.0543622309,
				"element": "C" 
			},
			{
				"x": -1.7919192679,
				"y": -0.2550042795,
				"z": -1.7707504533,
				"element": "C" 
			},
			{
				"x": -3.1018201345,
				"y": -0.194542385,
				"z": -1.3250418119,
				"element": "N" 
			},
			{
				"x": -0.6798790374,
				"y": -0.7511608518,
				"z": -0.9640066944,
				"element": "C" 
			},
			{
				"x": -0.7290313529,
				"y": -0.7612165808,
				"z": 0.4413126883,
				"element": "C" 
			},
			{
				"x": 0.3397422919,
				"y": -1.2354076849,
				"z": 1.1988347539,
				"element": "C" 
			},
			{
				"x": 1.4838166092,
				"y": -1.6969404153,
				"z": 0.5509863565,
				"element": "C" 
			},
			{
				"x": 2.9553031326,
				"y": -2.3446121557,
				"z": 1.581257218,
				"element": "Br" 
			},
			{
				"x": 1.565928829,
				"y": -1.6920342679,
				"z": -0.841651142,
				"element": "C" 
			},
			{
				"x": 0.4873018026,
				"y": -1.2281890559,
				"z": -1.5881822731,
				"element": "C" 
			},
			{
				"x": -5.6824275254,
				"y": 1.7901813266,
				"z": -2.4405022335,
				"element": "H" 
			},
			{
				"x": -1.0292445499,
				"y": 0.4213065012,
				"z": -3.7369710122,
				"element": "H" 
			},
			{
				"x": -3.452233778,
				"y": -0.5132770597,
				"z": -0.4343421474,
				"element": "H" 
			},
			{
				"x": -1.5987809279,
				"y": -0.3687771105,
				"z": 0.9611261392,
				"element": "H" 
			},
			{
				"x": 0.2882322582,
				"y": -1.2351742958,
				"z": 2.2816357947,
				"element": "H" 
			},
			{
				"x": 2.458152586,
				"y": -2.0589134159,
				"z": -1.3361008091,
				"element": "H" 
			},
			{
				"x": 0.5425823242,
				"y": -1.253462009,
				"z": -2.6718592741,
				"element": "H" 
			}
		],
		 "valence_orbital": [ 
			{
				"type": "occ",
				"energy": -0.28306,
				"method": "rhf"
			},
			{
				"type": "occ",
				"energy": -0.27894,
				"method": "rhf"
			},
			{
				"type": "occ",
				"energy": -0.27365,
				"method": "rhf"
			},
			{
				"type": "occ",
				"energy": -0.26085,
				"method": "rhf"
			},
			{
				"type": "occ",
				"energy": -0.21379,
				"method": "rhf"
			},
			{
				"type": "unocc",
				"energy": -0.04218,
				"method": "rhf"
			},
			{
				"type": "unocc",
				"energy": -0.02419,
				"method": "rhf"
			},
			{
				"type": "unocc",
				"energy": 0.00011,
				"method": "rhf"
			},
			{
				"type": "unocc",
				"energy": 0.00402,
				"method": "rhf"
			},
			{
				"type": "unocc",
				"energy": 0.03608,
				"method": "rhf"
			}
		],
		"cosmo_sigma_profile": { 
			"-0.025": 0.0,
			"-0.024": 0.0,
			"-0.023": 0.0,
			"-0.022": 0.0,
			"-0.021": 0.0,
			"-0.02": 0.0,
			"-0.019": 0.0,
			"-0.018": 0.0,
			"-0.017": 0.226304237884,
			"-0.016": 1.42432460878,
			"-0.015": 0.881366792435,
			"-0.014": 1.32183573717,
			"-0.013": 0.800524923962,
			"-0.012": 1.64603583356,
			"-0.011": 3.37967508272,
			"-0.01": 3.27343099936,
			"-0.009": 2.70151970551,
			"-0.008": 3.97194006881,
			"-0.007": 10.2951302561,
			"-0.006": 11.2531848648,
			"-0.005": 9.96730406002,
			"-0.004": 11.8493066701,
			"-0.003": 10.9019172644,
			"-0.002": 11.7199323097,
			"-0.001": 11.1519966673,
			"0.0": 15.5155515312,
			"0.001": 18.6703695042,
			"0.002": 25.2333566499,
			"0.003": 28.4137707945,
			"0.004": 21.3711747792,
			"0.005": 11.3052555898,
			"0.006": 3.83411885128,
			"0.007": 4.01643211885,
			"0.008": 3.54470834148,
			"0.009": 2.29733145162,
			"0.01": 0.96838756891,
			"0.011": 1.37149983342,
			"0.012": 0.724835427512,
			"0.013": 1.54225311597,
			"0.014": 1.29574105692,
			"0.015": 0.870064360042,
			"0.016": 0.858706759413,
			"0.017": 0.97420722633,
			"0.018": 0.0421629958633,
			"0.019": 0.0,
			"0.02": 0.0,
			"0.021": 0.0,
			"0.022": 0.0,
			"0.023": 0.0,
			"0.024": 0.0,
			"0.025": 0.0
		}
	}
}
