{
	 "smiles": "O[Si](O)(C1=CC=CC=C1)C1=CC=CC=C1", 
	 "Tm": 474.65, 
	 "num_atms": 27, 
	 "gaussian": { 
		 "optdone": 1, 
		 "sigma_profile": "yes", 
		 "theory": "DFT", 
		 "functional": "B3LYP", 
		 "basiset": "6-31G**", 
		 "properties": { 
			 "R2extent": 4400.2945, 
			 "electric_dipole_moment_norm": 0.153089157029, 
			 "electric_quadrupole_moment_norm": 6.42589196299, 
			 "total_energy": -904.56217502, 
			 "HOMO_LUMO_gap": 0.22914, 
			 "cosmo_polarized_energy": -11.74, 
			 "cosmo_cavitation_energy": 32.73, 
			 "cosmo_dispersion_energy": -21.32, 
			 "cosmo_repulsion_energy": 1.78, 
			 "cosmo_total_nonelectrostatic_energy": 13.19, 
			 "SMD_solvation_energy": 5.82 
		},
		"coords": [
			{
				"x": 1.267991859,
				"y": 0.1212234556,
				"z": -1.5035979697,
				"element": "O" 
			},
			{
				"x": 0.0246178876,
				"y": -0.912439171,
				"z": -1.0895642581,
				"element": "Si" 
			},
			{
				"x": 0.2724099124,
				"y": -2.4382624429,
				"z": -1.7191139174,
				"element": "O" 
			},
			{
				"x": -1.4961680733,
				"y": -0.0809569755,
				"z": -1.7891643502,
				"element": "C" 
			},
			{
				"x": -2.7798853324,
				"y": -0.5295721318,
				"z": -1.4255173289,
				"element": "C" 
			},
			{
				"x": -3.9274063976,
				"y": 0.0557838687,
				"z": -1.9613399615,
				"element": "C" 
			},
			{
				"x": -3.8119850458,
				"y": 1.1068565083,
				"z": -2.8739004867,
				"element": "C" 
			},
			{
				"x": -2.5481579786,
				"y": 1.5706655537,
				"z": -3.2441772408,
				"element": "C" 
			},
			{
				"x": -1.402347202,
				"y": 0.9823016294,
				"z": -2.7057942647,
				"element": "C" 
			},
			{
				"x": -0.0879086377,
				"y": -1.2050001594,
				"z": 0.7531211539,
				"element": "C" 
			},
			{
				"x": -0.5469493121,
				"y": -0.1838769066,
				"z": 1.6063426174,
				"element": "C" 
			},
			{
				"x": -0.6074604286,
				"y": -0.3706334964,
				"z": 2.987653623,
				"element": "C" 
			},
			{
				"x": -0.209764905,
				"y": -1.5885029919,
				"z": 3.5439396588,
				"element": "C" 
			},
			{
				"x": 0.2438213913,
				"y": -2.6164850483,
				"z": 2.7150828852,
				"element": "C" 
			},
			{
				"x": 0.3029426957,
				"y": -2.4256683272,
				"z": 1.3334206891,
				"element": "C" 
			},
			{
				"x": 2.128586411,
				"y": -0.091985301,
				"z": -1.1260836738,
				"element": "H" 
			},
			{
				"x": 0.2476262382,
				"y": -2.5000362545,
				"z": -2.6804554192,
				"element": "H" 
			},
			{
				"x": -2.884866043,
				"y": -1.3392212586,
				"z": -0.7068444355,
				"element": "H" 
			},
			{
				"x": -4.9093535227,
				"y": -0.3037392669,
				"z": -1.6659844722,
				"element": "H" 
			},
			{
				"x": -4.704370974,
				"y": 1.5652465641,
				"z": -3.2915567742,
				"element": "H" 
			},
			{
				"x": -2.4556136694,
				"y": 2.3924021716,
				"z": -3.9492610846,
				"element": "H" 
			},
			{
				"x": -0.4224133757,
				"y": 1.3549537946,
				"z": -2.9899350576,
				"element": "H" 
			},
			{
				"x": -0.8712588152,
				"y": 0.7653369001,
				"z": 1.1858062211,
				"element": "H" 
			},
			{
				"x": -0.9669519688,
				"y": 0.4295364721,
				"z": 3.6289072351,
				"element": "H" 
			},
			{
				"x": -0.2573001245,
				"y": -1.7367665507,
				"z": 4.6194254203,
				"element": "H" 
			},
			{
				"x": 0.5479808531,
				"y": -3.5671962012,
				"z": 3.1447273719,
				"element": "H" 
			},
			{
				"x": 0.6466845579,
				"y": -3.2331644341,
				"z": 0.693363819,
				"element": "H" 
			}
		],
		 "valence_orbital": [ 
			{
				"type": "occ",
				"energy": -0.28758,
				"method": "rhf"
			},
			{
				"type": "occ",
				"energy": -0.25253,
				"method": "rhf"
			},
			{
				"type": "occ",
				"energy": -0.24765,
				"method": "rhf"
			},
			{
				"type": "occ",
				"energy": -0.24687,
				"method": "rhf"
			},
			{
				"type": "occ",
				"energy": -0.24421,
				"method": "rhf"
			},
			{
				"type": "unocc",
				"energy": -0.01507,
				"method": "rhf"
			},
			{
				"type": "unocc",
				"energy": -0.0132,
				"method": "rhf"
			},
			{
				"type": "unocc",
				"energy": -0.00088,
				"method": "rhf"
			},
			{
				"type": "unocc",
				"energy": 0.00519,
				"method": "rhf"
			},
			{
				"type": "unocc",
				"energy": 0.05745,
				"method": "rhf"
			}
		],
		"cosmo_sigma_profile": { 
			"-0.025": 0.0,
			"-0.024": 0.0,
			"-0.023": 0.0,
			"-0.022": 0.0,
			"-0.021": 0.0,
			"-0.02": 0.0,
			"-0.019": 0.0,
			"-0.018": 0.0228060199447,
			"-0.017": 1.09222599997,
			"-0.016": 2.56208058359,
			"-0.015": 0.877023764649,
			"-0.014": 1.21962052359,
			"-0.013": 2.20022925669,
			"-0.012": 1.58071054445,
			"-0.011": 1.29331548816,
			"-0.01": 0.82448324005,
			"-0.009": 0.537045439564,
			"-0.008": 1.62220338346,
			"-0.007": 2.64889052235,
			"-0.006": 8.7355369131,
			"-0.005": 16.8844063679,
			"-0.004": 22.5911702833,
			"-0.003": 21.7316439455,
			"-0.002": 15.1397665067,
			"-0.001": 15.5924339724,
			"0.0": 15.2210599968,
			"0.001": 17.54695985,
			"0.002": 17.3482091261,
			"0.003": 18.3192577168,
			"0.004": 19.6901075678,
			"0.005": 20.8505752668,
			"0.006": 14.2411096406,
			"0.007": 2.60609164914,
			"0.008": 1.71769644165,
			"0.009": 2.77344190917,
			"0.01": 3.42651926711,
			"0.011": 3.26560154083,
			"0.012": 2.1908970004,
			"0.013": 0.366451519534,
			"0.014": 0.0,
			"0.015": 0.0,
			"0.016": 0.0,
			"0.017": 0.0,
			"0.018": 0.0,
			"0.019": 0.0,
			"0.02": 0.0,
			"0.021": 0.0,
			"0.022": 0.0,
			"0.023": 0.0,
			"0.024": 0.0,
			"0.025": 0.0
		}
	}
}
