{
	 "smiles": "CC1=CC=C(O)C(=C1)C(O)=O", 
	 "Tm": 425.15, 
	 "num_atms": 19, 
	 "gaussian": { 
		 "optdone": 1, 
		 "sigma_profile": "yes", 
		 "theory": "DFT", 
		 "functional": "B3LYP", 
		 "basiset": "6-31G**", 
		 "properties": { 
			 "R2extent": 1998.8384, 
			 "electric_dipole_moment_norm": 6.47654530286, 
			 "electric_quadrupole_moment_norm": 15.5772147292, 
			 "total_energy": -535.361862772, 
			 "HOMO_LUMO_gap": 0.19481, 
			 "cosmo_polarized_energy": -16.65, 
			 "cosmo_cavitation_energy": 23.02, 
			 "cosmo_dispersion_energy": -17.37, 
			 "cosmo_repulsion_energy": 1.39, 
			 "cosmo_total_nonelectrostatic_energy": 7.03, 
			 "SMD_solvation_energy": 5.51 
		},
		"coords": [
			{
				"x": -2.6226037097,
				"y": 0.3817061651,
				"z": -0.4823121007,
				"element": "C" 
			},
			{
				"x": -1.2352245935,
				"y": -0.2164645729,
				"z": -0.4867869948,
				"element": "C" 
			},
			{
				"x": -0.9865529437,
				"y": -1.4630062365,
				"z": -1.0790626654,
				"element": "C" 
			},
			{
				"x": 0.2951936925,
				"y": -2.0048617061,
				"z": -1.1064297997,
				"element": "C" 
			},
			{
				"x": 1.361484243,
				"y": -1.3075068132,
				"z": -0.5366252279,
				"element": "C" 
			},
			{
				"x": 2.6373027785,
				"y": -1.827590131,
				"z": -0.5512829058,
				"element": "O" 
			},
			{
				"x": 1.1513040764,
				"y": -0.0567253256,
				"z": 0.069934266,
				"element": "C" 
			},
			{
				"x": -0.1531357585,
				"y": 0.4582998926,
				"z": 0.0784974922,
				"element": "C" 
			},
			{
				"x": 2.2139682775,
				"y": 0.7902395239,
				"z": 0.724060939,
				"element": "C" 
			},
			{
				"x": 3.4786691483,
				"y": 0.3250457065,
				"z": 0.7324580154,
				"element": "O" 
			},
			{
				"x": 1.9526472536,
				"y": 1.8599632034,
				"z": 1.2305536214,
				"element": "O" 
			},
			{
				"x": -2.8537316936,
				"y": 0.8591203146,
				"z": -1.4425767171,
				"element": "H" 
			},
			{
				"x": -3.3876901332,
				"y": -0.3815632724,
				"z": -0.3075525737,
				"element": "H" 
			},
			{
				"x": -2.7228590128,
				"y": 1.1445028119,
				"z": 0.2943396753,
				"element": "H" 
			},
			{
				"x": -1.8054230254,
				"y": -2.0220284234,
				"z": -1.5248082054,
				"element": "H" 
			},
			{
				"x": 0.4702571701,
				"y": -2.9746901742,
				"z": -1.5677438172,
				"element": "H" 
			},
			{
				"x": 2.6488482772,
				"y": -2.685951727,
				"z": -0.9927555144,
				"element": "H" 
			},
			{
				"x": -0.2879909105,
				"y": 1.4238771222,
				"z": 0.5554722853,
				"element": "H" 
			},
			{
				"x": 3.5267368639,
				"y": -0.5413663578,
				"z": 0.2909202275,
				"element": "H" 
			}
		],
		 "valence_orbital": [ 
			{
				"type": "occ",
				"energy": -0.34226,
				"method": "rhf"
			},
			{
				"type": "occ",
				"energy": -0.29872,
				"method": "rhf"
			},
			{
				"type": "occ",
				"energy": -0.26562,
				"method": "rhf"
			},
			{
				"type": "occ",
				"energy": -0.26115,
				"method": "rhf"
			},
			{
				"type": "occ",
				"energy": -0.23981,
				"method": "rhf"
			},
			{
				"type": "unocc",
				"energy": -0.045,
				"method": "rhf"
			},
			{
				"type": "unocc",
				"energy": -0.00638,
				"method": "rhf"
			},
			{
				"type": "unocc",
				"energy": 0.03974,
				"method": "rhf"
			},
			{
				"type": "unocc",
				"energy": 0.05775,
				"method": "rhf"
			},
			{
				"type": "unocc",
				"energy": 0.085,
				"method": "rhf"
			}
		],
		"cosmo_sigma_profile": { 
			"-0.025": 0.0,
			"-0.024": 0.0,
			"-0.023": 0.0,
			"-0.022": 0.0,
			"-0.021": 0.0,
			"-0.02": 0.214888280371,
			"-0.019": 0.937063446326,
			"-0.018": 1.56359520952,
			"-0.017": 0.754075800106,
			"-0.016": 1.00864871945,
			"-0.015": 1.14326994719,
			"-0.014": 0.562476142937,
			"-0.013": 0.752144983851,
			"-0.012": 1.74165322001,
			"-0.011": 0.702569414193,
			"-0.01": 1.22354224033,
			"-0.009": 1.7138715098,
			"-0.008": 2.17664002812,
			"-0.007": 3.15082940209,
			"-0.006": 5.17100159095,
			"-0.005": 9.47432029299,
			"-0.004": 13.8151292414,
			"-0.003": 12.4924219914,
			"-0.002": 14.653377934,
			"-0.001": 14.1327701631,
			"0.0": 16.2657710523,
			"0.001": 14.3708042039,
			"0.002": 11.5363068832,
			"0.003": 12.5035829155,
			"0.004": 9.96296926449,
			"0.005": 2.29161684944,
			"0.006": 2.57171289053,
			"0.007": 2.94999709629,
			"0.008": 1.88499435425,
			"0.009": 2.22748077689,
			"0.01": 4.10324513362,
			"0.011": 4.63008678483,
			"0.012": 6.26005383322,
			"0.013": 3.43163218745,
			"0.014": 0.889307629837,
			"0.015": 0.0,
			"0.016": 0.0,
			"0.017": 0.0,
			"0.018": 0.0,
			"0.019": 0.0,
			"0.02": 0.0,
			"0.021": 0.0,
			"0.022": 0.0,
			"0.023": 0.0,
			"0.024": 0.0,
			"0.025": 0.0
		}
	}
}
