{
	 "smiles": "CCC1=CC=CC(CC)=C1N", 
	 "Tm": 276.65, 
	 "num_atms": 26, 
	 "gaussian": { 
		 "optdone": 1, 
		 "sigma_profile": "yes", 
		 "theory": "DFT", 
		 "functional": "B3LYP", 
		 "basiset": "6-31G**", 
		 "properties": { 
			 "R2extent": 2186.6326, 
			 "electric_dipole_moment_norm": 1.58987341949, 
			 "electric_quadrupole_moment_norm": 7.74046042623, 
			 "total_energy": -444.878385361, 
			 "HOMO_LUMO_gap": 0.20712, 
			 "cosmo_polarized_energy": -7.06, 
			 "cosmo_cavitation_energy": 27.18, 
			 "cosmo_dispersion_energy": -19.78, 
			 "cosmo_repulsion_energy": 1.61, 
			 "cosmo_total_nonelectrostatic_energy": 9.01, 
			 "SMD_solvation_energy": 4.57 
		},
		"coords": [
			{
				"x": -2.8501422613,
				"y": 0.5117853695,
				"z": 0.821907468,
				"element": "C" 
			},
			{
				"x": -1.8455147346,
				"y": -0.6381795878,
				"z": 1.0269735993,
				"element": "C" 
			},
			{
				"x": -0.4823192386,
				"y": -0.3719238335,
				"z": 0.4205237157,
				"element": "C" 
			},
			{
				"x": -0.1198757431,
				"y": -0.9903521741,
				"z": -0.7796166723,
				"element": "C" 
			},
			{
				"x": 1.1123490973,
				"y": -0.7482226967,
				"z": -1.3832899394,
				"element": "C" 
			},
			{
				"x": 2.0001212907,
				"y": 0.1351113813,
				"z": -0.7725618885,
				"element": "C" 
			},
			{
				"x": 1.6847017434,
				"y": 0.778566573,
				"z": 0.427714556,
				"element": "C" 
			},
			{
				"x": 2.6657074429,
				"y": 1.7571369604,
				"z": 1.0416871084,
				"element": "C" 
			},
			{
				"x": 2.2771117213,
				"y": 3.233987632,
				"z": 0.8375936445,
				"element": "C" 
			},
			{
				"x": 0.4312623501,
				"y": 0.5196226958,
				"z": 1.0311629087,
				"element": "C" 
			},
			{
				"x": 0.0717523064,
				"y": 1.1892770739,
				"z": 2.2134139973,
				"element": "N" 
			},
			{
				"x": -3.0200041191,
				"y": 0.6849830448,
				"z": -0.245259306,
				"element": "H" 
			},
			{
				"x": -2.4778553084,
				"y": 1.4453556115,
				"z": 1.2535643175,
				"element": "H" 
			},
			{
				"x": -3.8143752233,
				"y": 0.2784478851,
				"z": 1.2864642308,
				"element": "H" 
			},
			{
				"x": -1.7550464411,
				"y": -0.8530784986,
				"z": 2.1030530908,
				"element": "H" 
			},
			{
				"x": -2.2526971534,
				"y": -1.5544193938,
				"z": 0.5852682259,
				"element": "H" 
			},
			{
				"x": -0.8230519167,
				"y": -1.6792266187,
				"z": -1.2423348504,
				"element": "H" 
			},
			{
				"x": 1.377328735,
				"y": -1.2415208004,
				"z": -2.3134531956,
				"element": "H" 
			},
			{
				"x": 2.9670819675,
				"y": 0.3328499599,
				"z": -1.2297432449,
				"element": "H" 
			},
			{
				"x": 2.7871270698,
				"y": 1.5595179822,
				"z": 2.1180354168,
				"element": "H" 
			},
			{
				"x": 3.6551491676,
				"y": 1.5820009041,
				"z": 0.6049636648,
				"element": "H" 
			},
			{
				"x": 2.234555281,
				"y": 3.4739014002,
				"z": -0.2293317783,
				"element": "H" 
			},
			{
				"x": 1.2929087512,
				"y": 3.4477460885,
				"z": 1.2643690167,
				"element": "H" 
			},
			{
				"x": 3.0080563635,
				"y": 3.9010240651,
				"z": 1.3074712935,
				"element": "H" 
			},
			{
				"x": -0.6160369071,
				"y": 0.7063083972,
				"z": 2.7756130532,
				"element": "H" 
			},
			{
				"x": 0.8541057588,
				"y": 1.4873005792,
				"z": 2.7804115675,
				"element": "H" 
			}
		],
		 "valence_orbital": [ 
			{
				"type": "occ",
				"energy": -0.32327,
				"method": "rhf"
			},
			{
				"type": "occ",
				"energy": -0.3146,
				"method": "rhf"
			},
			{
				"type": "occ",
				"energy": -0.29853,
				"method": "rhf"
			},
			{
				"type": "occ",
				"energy": -0.22696,
				"method": "rhf"
			},
			{
				"type": "occ",
				"energy": -0.19404,
				"method": "rhf"
			},
			{
				"type": "unocc",
				"energy": 0.01308,
				"method": "rhf"
			},
			{
				"type": "unocc",
				"energy": 0.02379,
				"method": "rhf"
			},
			{
				"type": "unocc",
				"energy": 0.06897,
				"method": "rhf"
			},
			{
				"type": "unocc",
				"energy": 0.10204,
				"method": "rhf"
			},
			{
				"type": "unocc",
				"energy": 0.10706,
				"method": "rhf"
			}
		],
		"cosmo_sigma_profile": { 
			"-0.025": 0.0,
			"-0.024": 0.0,
			"-0.023": 0.0,
			"-0.022": 0.0,
			"-0.021": 0.0,
			"-0.02": 0.0,
			"-0.019": 0.0,
			"-0.018": 0.0,
			"-0.017": 0.0,
			"-0.016": 0.0,
			"-0.015": 0.0,
			"-0.014": 0.0,
			"-0.013": 0.0,
			"-0.012": 0.1363959521,
			"-0.011": 1.99660391167,
			"-0.01": 2.41865008233,
			"-0.009": 3.21902912655,
			"-0.008": 2.79722195554,
			"-0.007": 2.5073031121,
			"-0.006": 2.71503216813,
			"-0.005": 4.34317908498,
			"-0.004": 11.4218849903,
			"-0.003": 18.005281416,
			"-0.002": 21.5232979778,
			"-0.001": 27.2305972722,
			"0.0": 28.5594385819,
			"0.001": 24.4549649731,
			"0.002": 13.4802682277,
			"0.003": 7.5269632164,
			"0.004": 7.80526141529,
			"0.005": 7.92660609698,
			"0.006": 8.51138827714,
			"0.007": 7.24324736519,
			"0.008": 5.33286084799,
			"0.009": 1.36633910695,
			"0.01": 0.789440626072,
			"0.011": 0.498699458691,
			"0.012": 0.520405300592,
			"0.013": 0.191905711492,
			"0.014": 0.0,
			"0.015": 0.0,
			"0.016": 0.0,
			"0.017": 0.0,
			"0.018": 0.0,
			"0.019": 0.0,
			"0.02": 0.0,
			"0.021": 0.0,
			"0.022": 0.0,
			"0.023": 0.0,
			"0.024": 0.0,
			"0.025": 0.0
		}
	}
}
