{
	 "smiles": "CC(=O)CCC1=C(C2=CC=C(C)O2)C2=CC(Br)=CC=C2O1", 
	 "Tm": 352.15, 
	 "num_atms": 36, 
	 "gaussian": { 
		 "optdone": 1, 
		 "sigma_profile": "yes", 
		 "theory": "DFT", 
		 "functional": "B3LYP", 
		 "basiset": "6-31G**", 
		 "properties": { 
			 "R2extent": 11233.0028, 
			 "electric_dipole_moment_norm": 3.83613253551, 
			 "electric_quadrupole_moment_norm": 19.1938372826, 
			 "total_energy": -3453.9165518, 
			 "HOMO_LUMO_gap": 0.16394, 
			 "cosmo_polarized_energy": -12.15, 
			 "cosmo_cavitation_energy": 42.96, 
			 "cosmo_dispersion_energy": -30.02, 
			 "cosmo_repulsion_energy": 2.33, 
			 "cosmo_total_nonelectrostatic_energy": 15.27, 
			 "SMD_solvation_energy": 7.15 
		},
		"coords": [
			{
				"x": -4.5340041729,
				"y": -0.1453185953,
				"z": 0.4650934245,
				"element": "C" 
			},
			{
				"x": -3.7078833975,
				"y": 1.0554111746,
				"z": 0.0491073818,
				"element": "C" 
			},
			{
				"x": -3.905373671,
				"y": 2.1644928128,
				"z": 0.5057348987,
				"element": "O" 
			},
			{
				"x": -2.6321179383,
				"y": 0.8086705211,
				"z": -1.0118383599,
				"element": "C" 
			},
			{
				"x": -1.4522864211,
				"y": 1.7975641268,
				"z": -0.927865938,
				"element": "C" 
			},
			{
				"x": -0.4194976021,
				"y": 1.3923091356,
				"z": 0.0682281456,
				"element": "C" 
			},
			{
				"x": 0.9351361599,
				"y": 1.1756765962,
				"z": -0.0073911771,
				"element": "C" 
			},
			{
				"x": 1.8034016691,
				"y": 1.2840218479,
				"z": -1.163188268,
				"element": "C" 
			},
			{
				"x": 3.1510470706,
				"y": 1.4883064028,
				"z": -1.2990126687,
				"element": "C" 
			},
			{
				"x": 3.4264667113,
				"y": 1.5025874543,
				"z": -2.7032484226,
				"element": "C" 
			},
			{
				"x": 2.2372181692,
				"y": 1.3099834496,
				"z": -3.3416079926,
				"element": "C" 
			},
			{
				"x": 1.8365316007,
				"y": 1.2212421834,
				"z": -4.7715570208,
				"element": "C" 
			},
			{
				"x": 1.2376493587,
				"y": 1.1718396927,
				"z": -2.4128290667,
				"element": "O" 
			},
			{
				"x": 1.3536502543,
				"y": 0.8122183306,
				"z": 1.3370526635,
				"element": "C" 
			},
			{
				"x": 2.564621575,
				"y": 0.4433511111,
				"z": 1.9397728884,
				"element": "C" 
			},
			{
				"x": 2.5438138135,
				"y": 0.1468757049,
				"z": 3.2985117072,
				"element": "C" 
			},
			{
				"x": 4.1791491292,
				"y": -0.3609911821,
				"z": 4.1585386304,
				"element": "Br" 
			},
			{
				"x": 1.371753472,
				"y": 0.199410683,
				"z": 4.0696401148,
				"element": "C" 
			},
			{
				"x": 0.1602086517,
				"y": 0.5504546719,
				"z": 3.4753107433,
				"element": "C" 
			},
			{
				"x": 0.1874562624,
				"y": 0.8443708614,
				"z": 2.1189794844,
				"element": "C" 
			},
			{
				"x": -0.8873468312,
				"y": 1.1899929279,
				"z": 1.3500188025,
				"element": "O" 
			},
			{
				"x": -4.8928200687,
				"y": -0.6997971616,
				"z": -0.4095080167,
				"element": "H" 
			},
			{
				"x": -5.3769856077,
				"y": 0.1735917533,
				"z": 1.079546863,
				"element": "H" 
			},
			{
				"x": -3.903671687,
				"y": -0.833188027,
				"z": 1.0419577032,
				"element": "H" 
			},
			{
				"x": -3.1375613774,
				"y": 0.9303269205,
				"z": -1.9807710612,
				"element": "H" 
			},
			{
				"x": -2.2890767817,
				"y": -0.2310191279,
				"z": -0.9780789205,
				"element": "H" 
			},
			{
				"x": -1.8642259051,
				"y": 2.7753755887,
				"z": -0.647888257,
				"element": "H" 
			},
			{
				"x": -0.9663464214,
				"y": 1.8944061451,
				"z": -1.8983384354,
				"element": "H" 
			},
			{
				"x": 3.8579063225,
				"y": 1.6453250558,
				"z": -0.4981629249,
				"element": "H" 
			},
			{
				"x": 4.3875215644,
				"y": 1.6423249594,
				"z": -3.1773663921,
				"element": "H" 
			},
			{
				"x": 2.7154183731,
				"y": 1.3379799728,
				"z": -5.4096407222,
				"element": "H" 
			},
			{
				"x": 1.372928712,
				"y": 0.2545573257,
				"z": -5.0008920971,
				"element": "H" 
			},
			{
				"x": 1.1150966884,
				"y": 2.0029270083,
				"z": -5.0375363171,
				"element": "H" 
			},
			{
				"x": 3.4853755716,
				"y": 0.3724051775,
				"z": 1.3750777389,
				"element": "H" 
			},
			{
				"x": 1.4133629284,
				"y": -0.0374096477,
				"z": 5.1260314201,
				"element": "H" 
			},
			{
				"x": -0.7618161749,
				"y": 0.5927241461,
				"z": 4.0444194481,
				"element": "H" 
			}
		],
		 "valence_orbital": [ 
			{
				"type": "occ",
				"energy": -0.27815,
				"method": "rhf"
			},
			{
				"type": "occ",
				"energy": -0.25009,
				"method": "rhf"
			},
			{
				"type": "occ",
				"energy": -0.2464,
				"method": "rhf"
			},
			{
				"type": "occ",
				"energy": -0.23037,
				"method": "rhf"
			},
			{
				"type": "occ",
				"energy": -0.19819,
				"method": "rhf"
			},
			{
				"type": "unocc",
				"energy": -0.03425,
				"method": "rhf"
			},
			{
				"type": "unocc",
				"energy": -0.01303,
				"method": "rhf"
			},
			{
				"type": "unocc",
				"energy": -0.00356,
				"method": "rhf"
			},
			{
				"type": "unocc",
				"energy": 0.00212,
				"method": "rhf"
			},
			{
				"type": "unocc",
				"energy": 0.00979,
				"method": "rhf"
			}
		],
		"cosmo_sigma_profile": { 
			"-0.025": 0.0,
			"-0.024": 0.0,
			"-0.023": 0.0,
			"-0.022": 0.0,
			"-0.021": 0.0,
			"-0.02": 0.0,
			"-0.019": 0.0,
			"-0.018": 0.0,
			"-0.017": 0.0,
			"-0.016": 0.0,
			"-0.015": 0.0,
			"-0.014": 0.0,
			"-0.013": 0.0,
			"-0.012": 0.0,
			"-0.011": 0.0,
			"-0.01": 0.0,
			"-0.009": 0.0191881179028,
			"-0.008": 2.50541009101,
			"-0.007": 7.84731614864,
			"-0.006": 17.1590806877,
			"-0.005": 24.9644037072,
			"-0.004": 27.0221420813,
			"-0.003": 27.4852305275,
			"-0.002": 29.909220452,
			"-0.001": 30.4529495906,
			"0.0": 25.3413049884,
			"0.001": 25.1417250177,
			"0.002": 32.2313243792,
			"0.003": 33.053642087,
			"0.004": 21.4109920165,
			"0.005": 16.3565695068,
			"0.006": 6.44519200576,
			"0.007": 3.37334009933,
			"0.008": 2.40326608709,
			"0.009": 2.4560887082,
			"0.01": 1.81682237566,
			"0.011": 3.43617203446,
			"0.012": 3.97614573856,
			"0.013": 1.33358960656,
			"0.014": 0.154611416095,
			"0.015": 0.0,
			"0.016": 0.0,
			"0.017": 0.0,
			"0.018": 0.0,
			"0.019": 0.0,
			"0.02": 0.0,
			"0.021": 0.0,
			"0.022": 0.0,
			"0.023": 0.0,
			"0.024": 0.0,
			"0.025": 0.0
		}
	}
}
