{
	 "smiles": "CN1C(=O)NC2=C1C=CC=C2", 
	 "Tm": 467.15, 
	 "num_atms": 19, 
	 "gaussian": { 
		 "optdone": 1, 
		 "sigma_profile": "yes", 
		 "theory": "DFT", 
		 "functional": "B3LYP", 
		 "basiset": "6-31G**", 
		 "properties": { 
			 "R2extent": 2493.1321, 
			 "electric_dipole_moment_norm": 2.40932189008, 
			 "electric_quadrupole_moment_norm": 15.6819619012, 
			 "total_energy": -494.435557272, 
			 "HOMO_LUMO_gap": 0.19966, 
			 "cosmo_polarized_energy": -11.59, 
			 "cosmo_cavitation_energy": 22.71, 
			 "cosmo_dispersion_energy": -17.12, 
			 "cosmo_repulsion_energy": 1.36, 
			 "cosmo_total_nonelectrostatic_energy": 6.95, 
			 "SMD_solvation_energy": 4.58 
		},
		"coords": [
			{
				"x": 1.3626855406,
				"y": -1.0851877075,
				"z": -0.2823203792,
				"element": "C" 
			},
			{
				"x": 1.2726087627,
				"y": -0.0712527341,
				"z": 0.7455108554,
				"element": "N" 
			},
			{
				"x": 2.3995095105,
				"y": 0.5685500886,
				"z": 1.2723581764,
				"element": "C" 
			},
			{
				"x": 3.5659908712,
				"y": 0.3841008889,
				"z": 0.9666829834,
				"element": "O" 
			},
			{
				"x": 1.8954710396,
				"y": 1.4593070335,
				"z": 2.2186286441,
				"element": "N" 
			},
			{
				"x": 0.5090859131,
				"y": 1.3872242293,
				"z": 2.2890054588,
				"element": "C" 
			},
			{
				"x": 0.1151473786,
				"y": 0.4103615267,
				"z": 1.3484386024,
				"element": "C" 
			},
			{
				"x": -1.2243293672,
				"y": 0.0897451156,
				"z": 1.1642874737,
				"element": "C" 
			},
			{
				"x": -2.1688769987,
				"y": 0.7704002281,
				"z": 1.9451685631,
				"element": "C" 
			},
			{
				"x": -1.777679643,
				"y": 1.7371754576,
				"z": 2.8758731332,
				"element": "C" 
			},
			{
				"x": -0.4262628112,
				"y": 2.0610136616,
				"z": 3.0619716554,
				"element": "C" 
			},
			{
				"x": 0.8239744774,
				"y": -0.7781323051,
				"z": -1.1855488736,
				"element": "H" 
			},
			{
				"x": 2.420290046,
				"y": -1.2115842536,
				"z": -0.5182523273,
				"element": "H" 
			},
			{
				"x": 0.9532596849,
				"y": -2.0386438619,
				"z": 0.0692595888,
				"element": "H" 
			},
			{
				"x": 2.5035443168,
				"y": 2.0561144547,
				"z": 2.7551752633,
				"element": "H" 
			},
			{
				"x": -1.5295205978,
				"y": -0.6605070619,
				"z": 0.4421731811,
				"element": "H" 
			},
			{
				"x": -3.2225592757,
				"y": 0.5399013682,
				"z": 1.8221482352,
				"element": "H" 
			},
			{
				"x": -2.5306145826,
				"y": 2.2488133011,
				"z": 3.4672493145,
				"element": "H" 
			},
			{
				"x": -0.1233242652,
				"y": 2.8120005701,
				"z": 3.7849904512,
				"element": "H" 
			}
		],
		 "valence_orbital": [ 
			{
				"type": "occ",
				"energy": -0.31674,
				"method": "rhf"
			},
			{
				"type": "occ",
				"energy": -0.29957,
				"method": "rhf"
			},
			{
				"type": "occ",
				"energy": -0.26733,
				"method": "rhf"
			},
			{
				"type": "occ",
				"energy": -0.23609,
				"method": "rhf"
			},
			{
				"type": "occ",
				"energy": -0.20462,
				"method": "rhf"
			},
			{
				"type": "unocc",
				"energy": -0.00496,
				"method": "rhf"
			},
			{
				"type": "unocc",
				"energy": 0.0131,
				"method": "rhf"
			},
			{
				"type": "unocc",
				"energy": 0.07001,
				"method": "rhf"
			},
			{
				"type": "unocc",
				"energy": 0.08634,
				"method": "rhf"
			},
			{
				"type": "unocc",
				"energy": 0.09367,
				"method": "rhf"
			}
		],
		"cosmo_sigma_profile": { 
			"-0.025": 0.0,
			"-0.024": 0.0,
			"-0.023": 0.0,
			"-0.022": 0.0,
			"-0.021": 0.0,
			"-0.02": 0.0,
			"-0.019": 0.0,
			"-0.018": 0.0,
			"-0.017": 0.0,
			"-0.016": 0.816835727404,
			"-0.015": 1.44790035922,
			"-0.014": 1.41754684918,
			"-0.013": 1.13424392855,
			"-0.012": 0.696207639063,
			"-0.011": 0.842331089383,
			"-0.01": 0.877313696684,
			"-0.009": 0.98263442883,
			"-0.008": 1.37774855273,
			"-0.007": 2.38757752241,
			"-0.006": 8.39410986642,
			"-0.005": 15.9369975402,
			"-0.004": 16.3998549822,
			"-0.003": 15.9950079002,
			"-0.002": 12.7848741688,
			"-0.001": 12.3159504484,
			"0.0": 12.2660362876,
			"0.001": 10.2596488663,
			"0.002": 10.1438017344,
			"0.003": 8.90272160022,
			"0.004": 9.4982339819,
			"0.005": 9.29866806742,
			"0.006": 7.67670981364,
			"0.007": 2.34127641232,
			"0.008": 1.52964713177,
			"0.009": 1.24726174019,
			"0.01": 1.08702241343,
			"0.011": 1.60048234989,
			"0.012": 1.79808500387,
			"0.013": 3.94218623644,
			"0.014": 5.62004491217,
			"0.015": 0.362937365703,
			"0.016": 0.0,
			"0.017": 0.0,
			"0.018": 0.0,
			"0.019": 0.0,
			"0.02": 0.0,
			"0.021": 0.0,
			"0.022": 0.0,
			"0.023": 0.0,
			"0.024": 0.0,
			"0.025": 0.0
		}
	}
}
