{
	 "smiles": "CC(C)CN1C2=C(NC=N2)C(=O)N(C)C1=O", 
	 "Tm": 473.15, 
	 "num_atms": 30, 
	 "gaussian": { 
		 "optdone": 1, 
		 "sigma_profile": "yes", 
		 "theory": "DFT", 
		 "functional": "B3LYP", 
		 "basiset": "6-31G**", 
		 "properties": { 
			 "R2extent": 3512.533, 
			 "electric_dipole_moment_norm": 3.4403251605, 
			 "electric_quadrupole_moment_norm": 11.1791995313, 
			 "total_energy": -759.011632377, 
			 "HOMO_LUMO_gap": 0.18786, 
			 "cosmo_polarized_energy": -16.02, 
			 "cosmo_cavitation_energy": 32.11, 
			 "cosmo_dispersion_energy": -23.0, 
			 "cosmo_repulsion_energy": 1.76, 
			 "cosmo_total_nonelectrostatic_energy": 10.87, 
			 "SMD_solvation_energy": 5.82 
		},
		"coords": [
			{
				"x": 1.6835250767,
				"y": 2.0317675473,
				"z": -1.5537407113,
				"element": "C" 
			},
			{
				"x": 0.1736426239,
				"y": 2.1871582745,
				"z": -1.3228995264,
				"element": "C" 
			},
			{
				"x": -0.1130885094,
				"y": 2.9276801605,
				"z": -0.0087028357,
				"element": "C" 
			},
			{
				"x": -0.601595046,
				"y": 0.8574414103,
				"z": -1.4469141835,
				"element": "C" 
			},
			{
				"x": -0.2877870443,
				"y": -0.1661896893,
				"z": -0.431309913,
				"element": "N" 
			},
			{
				"x": -1.041822953,
				"y": -0.2961549633,
				"z": 0.7149813479,
				"element": "C" 
			},
			{
				"x": -0.7942554762,
				"y": -1.2970320804,
				"z": 1.6311105117,
				"element": "C" 
			},
			{
				"x": -1.7419933144,
				"y": -1.1174706531,
				"z": 2.6203535569,
				"element": "N" 
			},
			{
				"x": -2.488316637,
				"y": -0.0458473858,
				"z": 2.248772778,
				"element": "C" 
			},
			{
				"x": -2.096038031,
				"y": 0.4824693078,
				"z": 1.0960141265,
				"element": "N" 
			},
			{
				"x": 0.2213759762,
				"y": -2.2956403472,
				"z": 1.4814648421,
				"element": "C" 
			},
			{
				"x": 0.4692866889,
				"y": -3.1999179941,
				"z": 2.2726921337,
				"element": "O" 
			},
			{
				"x": 0.9248243699,
				"y": -2.1147838583,
				"z": 0.2657319442,
				"element": "N" 
			},
			{
				"x": 1.9849870096,
				"y": -3.073848897,
				"z": -0.0617278937,
				"element": "C" 
			},
			{
				"x": 0.6913652728,
				"y": -1.1242020981,
				"z": -0.7095699686,
				"element": "C" 
			},
			{
				"x": 1.3309236634,
				"y": -1.1149709932,
				"z": -1.7521405669,
				"element": "O" 
			},
			{
				"x": 2.1503621467,
				"y": 1.4539156216,
				"z": -0.7493099018,
				"element": "H" 
			},
			{
				"x": 1.9004418131,
				"y": 1.5162591554,
				"z": -2.4926517376,
				"element": "H" 
			},
			{
				"x": 2.1653329518,
				"y": 3.0153484208,
				"z": -1.5757666319,
				"element": "H" 
			},
			{
				"x": -0.2276146595,
				"y": 2.7998971104,
				"z": -2.144505748,
				"element": "H" 
			},
			{
				"x": 0.3520946544,
				"y": 3.9191605411,
				"z": -0.0220734782,
				"element": "H" 
			},
			{
				"x": -1.1858148538,
				"y": 3.0500557681,
				"z": 0.1647509587,
				"element": "H" 
			},
			{
				"x": 0.2989177835,
				"y": 2.383919874,
				"z": 0.8486021444,
				"element": "H" 
			},
			{
				"x": -0.3948140907,
				"y": 0.4001381561,
				"z": -2.4162235158,
				"element": "H" 
			},
			{
				"x": -1.6738763317,
				"y": 1.0507663444,
				"z": -1.3642159009,
				"element": "H" 
			},
			{
				"x": -1.8360880628,
				"y": -1.6898854546,
				"z": 3.4463710275,
				"element": "H" 
			},
			{
				"x": -3.3108086398,
				"y": 0.3221539414,
				"z": 2.8460401597,
				"element": "H" 
			},
			{
				"x": 2.0778325185,
				"y": -3.7526055427,
				"z": 0.783415409,
				"element": "H" 
			},
			{
				"x": 1.7271103614,
				"y": -3.6253873424,
				"z": -0.9685999021,
				"element": "H" 
			},
			{
				"x": 2.9232907387,
				"y": -2.5444943345,
				"z": -0.238048525,
				"element": "H" 
			}
		],
		 "valence_orbital": [ 
			{
				"type": "occ",
				"energy": -0.28729,
				"method": "rhf"
			},
			{
				"type": "occ",
				"energy": -0.28415,
				"method": "rhf"
			},
			{
				"type": "occ",
				"energy": -0.26682,
				"method": "rhf"
			},
			{
				"type": "occ",
				"energy": -0.25926,
				"method": "rhf"
			},
			{
				"type": "occ",
				"energy": -0.22219,
				"method": "rhf"
			},
			{
				"type": "unocc",
				"energy": -0.03433,
				"method": "rhf"
			},
			{
				"type": "unocc",
				"energy": 0.02145,
				"method": "rhf"
			},
			{
				"type": "unocc",
				"energy": 0.03138,
				"method": "rhf"
			},
			{
				"type": "unocc",
				"energy": 0.06828,
				"method": "rhf"
			},
			{
				"type": "unocc",
				"energy": 0.0931,
				"method": "rhf"
			}
		],
		"cosmo_sigma_profile": { 
			"-0.025": 0.0,
			"-0.024": 0.0,
			"-0.023": 0.0,
			"-0.022": 0.0,
			"-0.021": 0.0,
			"-0.02": 0.0,
			"-0.019": 0.0,
			"-0.018": 0.437143039754,
			"-0.017": 1.40673812337,
			"-0.016": 0.991257593954,
			"-0.015": 1.31120428006,
			"-0.014": 1.22840918647,
			"-0.013": 0.995037955857,
			"-0.012": 1.01263500931,
			"-0.011": 1.75874287963,
			"-0.01": 3.23772245529,
			"-0.009": 3.21595754037,
			"-0.008": 2.2560715621,
			"-0.007": 1.78691475457,
			"-0.006": 2.44988339401,
			"-0.005": 7.23827831442,
			"-0.004": 14.3415724581,
			"-0.003": 26.1587430313,
			"-0.002": 40.3476426726,
			"-0.001": 29.1089715973,
			"0.0": 23.8485143961,
			"0.001": 18.5962024336,
			"0.002": 11.7777810665,
			"0.003": 7.90797321825,
			"0.004": 5.81991410844,
			"0.005": 3.50250200995,
			"0.006": 6.23978650274,
			"0.007": 4.68623047379,
			"0.008": 4.30246710451,
			"0.009": 4.09579002206,
			"0.01": 3.67341670482,
			"0.011": 4.3326678418,
			"0.012": 6.55882930337,
			"0.013": 7.92821959569,
			"0.014": 0.458829370935,
			"0.015": 0.0,
			"0.016": 0.0,
			"0.017": 0.0,
			"0.018": 0.0,
			"0.019": 0.0,
			"0.02": 0.0,
			"0.021": 0.0,
			"0.022": 0.0,
			"0.023": 0.0,
			"0.024": 0.0,
			"0.025": 0.0
		}
	}
}
