{
	 "smiles": "[O-][N+](=O)C1=CC=CC(NN=CC2=CC=CC=C2)=C1", 
	 "Tm": 469.15, 
	 "num_atms": 29, 
	 "gaussian": { 
		 "optdone": 1, 
		 "sigma_profile": "yes", 
		 "theory": "DFT", 
		 "functional": "B3LYP", 
		 "basiset": "6-31G**", 
		 "properties": { 
			 "R2extent": 8192.0111, 
			 "electric_dipole_moment_norm": 5.29921131585, 
			 "electric_quadrupole_moment_norm": 21.6979307557, 
			 "total_energy": -816.586654932, 
			 "HOMO_LUMO_gap": 0.12141, 
			 "cosmo_polarized_energy": -13.98, 
			 "cosmo_cavitation_energy": 35.31, 
			 "cosmo_dispersion_energy": -25.65, 
			 "cosmo_repulsion_energy": 1.95, 
			 "cosmo_total_nonelectrostatic_energy": 11.62, 
			 "SMD_solvation_energy": 8.01 
		},
		"coords": [
			{
				"x": 2.4062735941,
				"y": -2.707082359,
				"z": 5.4012057454,
				"element": "O" 
			},
			{
				"x": 2.623245277,
				"y": -2.3520021251,
				"z": 4.2437132893,
				"element": "N" 
			},
			{
				"x": 3.6909422536,
				"y": -2.5137430685,
				"z": 3.651611623,
				"element": "O" 
			},
			{
				"x": 1.5286012048,
				"y": -1.6866645449,
				"z": 3.5154439465,
				"element": "C" 
			},
			{
				"x": 0.3103138753,
				"y": -1.4904121043,
				"z": 4.1611138936,
				"element": "C" 
			},
			{
				"x": -0.703504698,
				"y": -0.8571251543,
				"z": 3.4411974563,
				"element": "C" 
			},
			{
				"x": -0.5076246341,
				"y": -0.4367858681,
				"z": 2.1283084531,
				"element": "C" 
			},
			{
				"x": 0.7340349641,
				"y": -0.6477786271,
				"z": 1.4992624228,
				"element": "C" 
			},
			{
				"x": 0.9706224036,
				"y": -0.2444770125,
				"z": 0.1926162171,
				"element": "N" 
			},
			{
				"x": 0.0253373355,
				"y": 0.3698607586,
				"z": -0.5443774407,
				"element": "N" 
			},
			{
				"x": 0.3251467281,
				"y": 0.7115015147,
				"z": -1.749600534,
				"element": "C" 
			},
			{
				"x": -0.6249925188,
				"y": 1.382922214,
				"z": -2.6347320148,
				"element": "C" 
			},
			{
				"x": -1.9340463295,
				"y": 1.7011908834,
				"z": -2.2265261042,
				"element": "C" 
			},
			{
				"x": -2.8060978337,
				"y": 2.3404161562,
				"z": -3.1005400519,
				"element": "C" 
			},
			{
				"x": -2.3936942997,
				"y": 2.6749677278,
				"z": -4.3956278436,
				"element": "C" 
			},
			{
				"x": -1.0980992885,
				"y": 2.3638702951,
				"z": -4.8101879943,
				"element": "C" 
			},
			{
				"x": -0.2207564671,
				"y": 1.7229399441,
				"z": -3.9366234913,
				"element": "C" 
			},
			{
				"x": 1.7648746512,
				"y": -1.2823399913,
				"z": 2.2065857247,
				"element": "C" 
			},
			{
				"x": 0.1785003985,
				"y": -1.824441609,
				"z": 5.1813640095,
				"element": "H" 
			},
			{
				"x": -1.6667819255,
				"y": -0.687096252,
				"z": 3.9121631055,
				"element": "H" 
			},
			{
				"x": -1.2976848846,
				"y": 0.0540329679,
				"z": 1.574421836,
				"element": "H" 
			},
			{
				"x": 1.8861687694,
				"y": -0.4228765238,
				"z": -0.2121262399,
				"element": "H" 
			},
			{
				"x": 1.3230239306,
				"y": 0.5066406938,
				"z": -2.1619354212,
				"element": "H" 
			},
			{
				"x": -2.2492895492,
				"y": 1.4400007071,
				"z": -1.2220411124,
				"element": "H" 
			},
			{
				"x": -3.8138903397,
				"y": 2.5808534741,
				"z": -2.7739306655,
				"element": "H" 
			},
			{
				"x": -3.0790088196,
				"y": 3.1742315572,
				"z": -5.0742408933,
				"element": "H" 
			},
			{
				"x": -0.7696866454,
				"y": 2.6197669483,
				"z": -5.8133541622,
				"element": "H" 
			},
			{
				"x": 0.7882098783,
				"y": 1.4819272035,
				"z": -4.2628135125,
				"element": "H" 
			},
			{
				"x": 2.7366629693,
				"y": -1.4656978058,
				"z": 1.7634497591,
				"element": "H" 
			}
		],
		 "valence_orbital": [ 
			{
				"type": "occ",
				"energy": -0.28708,
				"method": "rhf"
			},
			{
				"type": "occ",
				"energy": -0.27671,
				"method": "rhf"
			},
			{
				"type": "occ",
				"energy": -0.26323,
				"method": "rhf"
			},
			{
				"type": "occ",
				"energy": -0.25914,
				"method": "rhf"
			},
			{
				"type": "occ",
				"energy": -0.20638,
				"method": "rhf"
			},
			{
				"type": "unocc",
				"energy": -0.08497,
				"method": "rhf"
			},
			{
				"type": "unocc",
				"energy": -0.05359,
				"method": "rhf"
			},
			{
				"type": "unocc",
				"energy": -0.01107,
				"method": "rhf"
			},
			{
				"type": "unocc",
				"energy": -0.00802,
				"method": "rhf"
			},
			{
				"type": "unocc",
				"energy": 0.01522,
				"method": "rhf"
			}
		],
		"cosmo_sigma_profile": { 
			"-0.025": 0.0,
			"-0.024": 0.0,
			"-0.023": 0.0,
			"-0.022": 0.0,
			"-0.021": 0.0,
			"-0.02": 0.0,
			"-0.019": 0.0,
			"-0.018": 0.0,
			"-0.017": 0.0,
			"-0.016": 0.0878418108719,
			"-0.015": 1.34068329585,
			"-0.014": 1.91330235283,
			"-0.013": 1.90984308019,
			"-0.012": 1.60377937513,
			"-0.011": 1.45671122385,
			"-0.01": 2.11747651864,
			"-0.009": 1.50446550484,
			"-0.008": 2.13685725771,
			"-0.007": 7.05407318426,
			"-0.006": 13.694679689,
			"-0.005": 20.2465120705,
			"-0.004": 18.5816991881,
			"-0.003": 15.9422302913,
			"-0.002": 15.2442716509,
			"-0.001": 17.4049641661,
			"0.0": 17.5523791274,
			"0.001": 22.7301530566,
			"0.002": 28.4981747192,
			"0.003": 24.32555389,
			"0.004": 17.5481105664,
			"0.005": 17.2940838845,
			"0.006": 8.86921897949,
			"0.007": 8.68698478283,
			"0.008": 8.33222061348,
			"0.009": 4.6064651221,
			"0.01": 2.90857720636,
			"0.011": 0.153294169559,
			"0.012": 0.0,
			"0.013": 0.0,
			"0.014": 0.0,
			"0.015": 0.0,
			"0.016": 0.0,
			"0.017": 0.0,
			"0.018": 0.0,
			"0.019": 0.0,
			"0.02": 0.0,
			"0.021": 0.0,
			"0.022": 0.0,
			"0.023": 0.0,
			"0.024": 0.0,
			"0.025": 0.0
		}
	}
}
