{
	 "smiles": "CC(=O)C1=CC=C(NS(=O)(=O)C2=CC=C(C)C=C2)C=C1", 
	 "Tm": 444.15, 
	 "num_atms": 35, 
	 "gaussian": { 
		 "optdone": 1, 
		 "sigma_profile": "yes", 
		 "theory": "DFT", 
		 "functional": "B3LYP", 
		 "basiset": "6-31G**", 
		 "properties": { 
			 "R2extent": 7474.7164, 
			 "electric_dipole_moment_norm": 6.66450227174, 
			 "electric_quadrupole_moment_norm": 22.7249495722, 
			 "total_energy": -1259.19140584, 
			 "HOMO_LUMO_gap": 0.17802, 
			 "cosmo_polarized_energy": -20.25, 
			 "cosmo_cavitation_energy": 40.65, 
			 "cosmo_dispersion_energy": -28.65, 
			 "cosmo_repulsion_energy": 2.16, 
			 "cosmo_total_nonelectrostatic_energy": 14.17, 
			 "SMD_solvation_energy": 6.79 
		},
		"coords": [
			{
				"x": 0.3909911305,
				"y": 2.869692897,
				"z": -4.690660452,
				"element": "C" 
			},
			{
				"x": -0.104194241,
				"y": 1.4562878503,
				"z": -4.4273539338,
				"element": "C" 
			},
			{
				"x": -0.1111843609,
				"y": 0.6252170374,
				"z": -5.324246918,
				"element": "O" 
			},
			{
				"x": -0.5807032842,
				"y": 1.1025047638,
				"z": -3.0549779076,
				"element": "C" 
			},
			{
				"x": -0.5748332169,
				"y": 2.0075306358,
				"z": -1.9833949961,
				"element": "C" 
			},
			{
				"x": -1.0161593342,
				"y": 1.6194554783,
				"z": -0.7230991035,
				"element": "C" 
			},
			{
				"x": -1.4988118102,
				"y": 0.3185999127,
				"z": -0.5103212233,
				"element": "C" 
			},
			{
				"x": -1.9922899589,
				"y": -0.0212101295,
				"z": 0.7679746417,
				"element": "N" 
			},
			{
				"x": -1.6993405639,
				"y": -1.4870253624,
				"z": 1.5871005777,
				"element": "S" 
			},
			{
				"x": -2.3118971499,
				"y": -1.2624447618,
				"z": 2.8960826782,
				"element": "O" 
			},
			{
				"x": -2.1097894955,
				"y": -2.5733391536,
				"z": 0.6998816131,
				"element": "O" 
			},
			{
				"x": 0.0746397918,
				"y": -1.5957494629,
				"z": 1.8053722328,
				"element": "C" 
			},
			{
				"x": 0.8578070019,
				"y": -2.2148651576,
				"z": 0.8284818732,
				"element": "C" 
			},
			{
				"x": 2.2395740491,
				"y": -2.2637484098,
				"z": 1.0012632465,
				"element": "C" 
			},
			{
				"x": 2.8506840169,
				"y": -1.7117472681,
				"z": 2.1362190413,
				"element": "C" 
			},
			{
				"x": 4.3448406277,
				"y": -1.8026850067,
				"z": 2.3297636983,
				"element": "C" 
			},
			{
				"x": 2.0375881098,
				"y": -1.1025533121,
				"z": 3.1038782296,
				"element": "C" 
			},
			{
				"x": 0.6551676474,
				"y": -1.0397585458,
				"z": 2.948138763,
				"element": "C" 
			},
			{
				"x": -1.5300010116,
				"y": -0.5915158378,
				"z": -1.5820962428,
				"element": "C" 
			},
			{
				"x": -1.0628207457,
				"y": -0.1972458218,
				"z": -2.8280024892,
				"element": "C" 
			},
			{
				"x": 0.6924709703,
				"y": 2.9434019448,
				"z": -5.7358137184,
				"element": "H" 
			},
			{
				"x": 1.2449866389,
				"y": 3.1144388483,
				"z": -4.0491980889,
				"element": "H" 
			},
			{
				"x": -0.3933394276,
				"y": 3.6068946792,
				"z": -4.4862732374,
				"element": "H" 
			},
			{
				"x": -0.2121757538,
				"y": 3.0211140266,
				"z": -2.1202709254,
				"element": "H" 
			},
			{
				"x": -0.9888562729,
				"y": 2.3254162285,
				"z": 0.1031206785,
				"element": "H" 
			},
			{
				"x": -2.0282637571,
				"y": 0.7384289998,
				"z": 1.4394615456,
				"element": "H" 
			},
			{
				"x": 0.3895718395,
				"y": -2.6617637055,
				"z": -0.0407914539,
				"element": "H" 
			},
			{
				"x": 2.8528210958,
				"y": -2.7443430488,
				"z": 0.2437902893,
				"element": "H" 
			},
			{
				"x": 4.6137589902,
				"y": -2.7242810816,
				"z": 2.860667158,
				"element": "H" 
			},
			{
				"x": 4.724169279,
				"y": -0.964246491,
				"z": 2.9208862616,
				"element": "H" 
			},
			{
				"x": 4.8727648018,
				"y": -1.8131404947,
				"z": 1.3719718009,
				"element": "H" 
			},
			{
				"x": 2.4930524131,
				"y": -0.6769283801,
				"z": 3.9940734504,
				"element": "H" 
			},
			{
				"x": 0.0275331958,
				"y": -0.5860905119,
				"z": 3.7077225074,
				"element": "H" 
			},
			{
				"x": -1.9330709981,
				"y": -1.5848728166,
				"z": -1.4279612189,
				"element": "H" 
			},
			{
				"x": -1.0779902172,
				"y": -0.8868285425,
				"z": -3.6654883777,
				"element": "H" 
			}
		],
		 "valence_orbital": [ 
			{
				"type": "occ",
				"energy": -0.27578,
				"method": "rhf"
			},
			{
				"type": "occ",
				"energy": -0.26966,
				"method": "rhf"
			},
			{
				"type": "occ",
				"energy": -0.26728,
				"method": "rhf"
			},
			{
				"type": "occ",
				"energy": -0.2478,
				"method": "rhf"
			},
			{
				"type": "occ",
				"energy": -0.23683,
				"method": "rhf"
			},
			{
				"type": "unocc",
				"energy": -0.05881,
				"method": "rhf"
			},
			{
				"type": "unocc",
				"energy": -0.04102,
				"method": "rhf"
			},
			{
				"type": "unocc",
				"energy": -0.02723,
				"method": "rhf"
			},
			{
				"type": "unocc",
				"energy": -0.01612,
				"method": "rhf"
			},
			{
				"type": "unocc",
				"energy": 0.02963,
				"method": "rhf"
			}
		],
		"cosmo_sigma_profile": { 
			"-0.025": 0.0,
			"-0.024": 0.0,
			"-0.023": 0.0,
			"-0.022": 0.0,
			"-0.021": 0.0,
			"-0.02": 0.0,
			"-0.019": 0.0,
			"-0.018": 0.0,
			"-0.017": 0.0,
			"-0.016": 0.472984245111,
			"-0.015": 1.10127179848,
			"-0.014": 1.68576438919,
			"-0.013": 1.36776599317,
			"-0.012": 0.969731937284,
			"-0.011": 1.22071311725,
			"-0.01": 1.3147235567,
			"-0.009": 1.39222792485,
			"-0.008": 1.82365907502,
			"-0.007": 7.29009340104,
			"-0.006": 21.0958817056,
			"-0.005": 25.5607049718,
			"-0.004": 24.2538894056,
			"-0.003": 22.7136111452,
			"-0.002": 24.0272408218,
			"-0.001": 27.6867154775,
			"0.0": 21.9437349001,
			"0.001": 20.1437741077,
			"0.002": 24.5504777142,
			"0.003": 29.7780986692,
			"0.004": 11.4885671021,
			"0.005": 5.31267517924,
			"0.006": 5.00977517896,
			"0.007": 5.92950254348,
			"0.008": 4.76469139633,
			"0.009": 5.63330107424,
			"0.01": 9.91303034686,
			"0.011": 9.06900581457,
			"0.012": 4.5980600388,
			"0.013": 1.93821003655,
			"0.014": 0.32883678212,
			"0.015": 0.0,
			"0.016": 0.0,
			"0.017": 0.0,
			"0.018": 0.0,
			"0.019": 0.0,
			"0.02": 0.0,
			"0.021": 0.0,
			"0.022": 0.0,
			"0.023": 0.0,
			"0.024": 0.0,
			"0.0": 0.0
		}
	}
}
