{
	 "smiles": "FC(F)(F)C1=CC(=CC=C1)C(N1C=NC=N1)(C1=CC=CC=C1)C1=CC=CC=C1", 
	 "Tm": 405.15, 
	 "num_atms": 44, 
	 "gaussian": { 
		 "optdone": 1, 
		 "sigma_profile": "yes", 
		 "theory": "DFT", 
		 "functional": "B3LYP", 
		 "basiset": "6-31G**", 
		 "properties": { 
			 "R2extent": 10877.6046, 
			 "electric_dipole_moment_norm": 3.8770630779, 
			 "electric_quadrupole_moment_norm": 16.398869472, 
			 "total_energy": -1311.73550517, 
			 "HOMO_LUMO_gap": 0.21038, 
			 "cosmo_polarized_energy": -13.14, 
			 "cosmo_cavitation_energy": 47.93, 
			 "cosmo_dispersion_energy": -31.14, 
			 "cosmo_repulsion_energy": 2.29, 
			 "cosmo_total_nonelectrostatic_energy": 19.07, 
			 "SMD_solvation_energy": 7.84 
		},
		"coords": [
			{
				"x": -0.3972989675,
				"y": 1.1219659213,
				"z": -5.5420007682,
				"element": "F" 
			},
			{
				"x": 0.9104829541,
				"y": 1.3326019359,
				"z": -5.2810121265,
				"element": "C" 
			},
			{
				"x": 1.590955228,
				"y": 0.2807041173,
				"z": -5.7922611618,
				"element": "F" 
			},
			{
				"x": 1.2960247681,
				"y": 2.4242978447,
				"z": -5.9784071502,
				"element": "F" 
			},
			{
				"x": 1.1726351093,
				"y": 1.4951983497,
				"z": -3.8066119303,
				"element": "C" 
			},
			{
				"x": 0.3294484674,
				"y": 0.8849186252,
				"z": -2.8805773953,
				"element": "C" 
			},
			{
				"x": 0.5818630652,
				"y": 0.9846944446,
				"z": -1.5024150169,
				"element": "C" 
			},
			{
				"x": 1.7120947797,
				"y": 1.6939746351,
				"z": -1.0850859339,
				"element": "C" 
			},
			{
				"x": 2.5629501742,
				"y": 2.2979710247,
				"z": -2.0167100328,
				"element": "C" 
			},
			{
				"x": 2.29862996,
				"y": 2.2067151291,
				"z": -3.3784596451,
				"element": "C" 
			},
			{
				"x": -0.3999312748,
				"y": 0.3048726406,
				"z": -0.5097370957,
				"element": "C" 
			},
			{
				"x": -1.6651906113,
				"y": 1.1032067313,
				"z": -0.5367696992,
				"element": "N" 
			},
			{
				"x": -2.0189467358,
				"y": 2.1920800741,
				"z": -1.2719613562,
				"element": "C" 
			},
			{
				"x": -3.2060698828,
				"y": 2.6416897917,
				"z": -0.9027863633,
				"element": "N" 
			},
			{
				"x": -3.549546935,
				"y": 1.7815415742,
				"z": 0.0938165608,
				"element": "C" 
			},
			{
				"x": -2.6561079118,
				"y": 0.842961792,
				"z": 0.3631789298,
				"element": "N" 
			},
			{
				"x": -0.6573126638,
				"y": -1.1509875652,
				"z": -0.9794342679,
				"element": "C" 
			},
			{
				"x": -1.9152647377,
				"y": -1.7614270861,
				"z": -0.9040325088,
				"element": "C" 
			},
			{
				"x": -2.0894729875,
				"y": -3.0852370265,
				"z": -1.3157513201,
				"element": "C" 
			},
			{
				"x": -1.013101744,
				"y": -3.8288403524,
				"z": -1.795971282,
				"element": "C" 
			},
			{
				"x": 0.2481111526,
				"y": -3.2352255265,
				"z": -1.8636944984,
				"element": "C" 
			},
			{
				"x": 0.4214349589,
				"y": -1.9106101108,
				"z": -1.464422451,
				"element": "C" 
			},
			{
				"x": 0.1301292375,
				"y": 0.3521276255,
				"z": 0.9459507308,
				"element": "C" 
			},
			{
				"x": 0.7407244821,
				"y": -0.7511279878,
				"z": 1.5512452018,
				"element": "C" 
			},
			{
				"x": 1.2495448504,
				"y": -0.6630786806,
				"z": 2.8501079587,
				"element": "C" 
			},
			{
				"x": 1.1558563875,
				"y": 0.527713195,
				"z": 3.5666609688,
				"element": "C" 
			},
			{
				"x": 0.5448004673,
				"y": 1.6348655504,
				"z": 2.9736890352,
				"element": "C" 
			},
			{
				"x": 0.0362877715,
				"y": 1.5462626544,
				"z": 1.6797131018,
				"element": "C" 
			},
			{
				"x": -0.531382164,
				"y": 0.3290380072,
				"z": -3.2345475733,
				"element": "H" 
			},
			{
				"x": 1.9383792501,
				"y": 1.77760562,
				"z": -0.029464226,
				"element": "H" 
			},
			{
				"x": 3.4347644441,
				"y": 2.8436793125,
				"z": -1.6692408499,
				"element": "H" 
			},
			{
				"x": 2.9497491948,
				"y": 2.6807720179,
				"z": -4.1049051549,
				"element": "H" 
			},
			{
				"x": -1.3997354138,
				"y": 2.6178939576,
				"z": -2.0441949671,
				"element": "H" 
			},
			{
				"x": -4.4802529779,
				"y": 1.8473138231,
				"z": 0.6411117148,
				"element": "H" 
			},
			{
				"x": -2.7588229105,
				"y": -1.2095685098,
				"z": -0.5113205532,
				"element": "H" 
			},
			{
				"x": -3.077362952,
				"y": -3.5328239761,
				"z": -1.2550206756,
				"element": "H" 
			},
			{
				"x": -1.1532859705,
				"y": -4.8575937606,
				"z": -2.1147382231,
				"element": "H" 
			},
			{
				"x": 1.0997274463,
				"y": -3.7976307147,
				"z": -2.2355468789,
				"element": "H" 
			},
			{
				"x": 1.4076529126,
				"y": -1.4638440464,
				"z": -1.5362698101,
				"element": "H" 
			},
			{
				"x": 0.8148939927,
				"y": -1.6917414122,
				"z": 1.0197725189,
				"element": "H" 
			},
			{
				"x": 1.7134348096,
				"y": -1.5362379513,
				"z": 3.2998599979,
				"element": "H" 
			},
			{
				"x": 1.5474789599,
				"y": 0.5935013218,
				"z": 4.5775428279,
				"element": "H" 
			},
			{
				"x": 0.4554888488,
				"y": 2.5688008325,
				"z": 3.521087179,
				"element": "H" 
			},
			{
				"x": -0.4444568319,
				"y": 2.4141061573,
				"z": 1.2401141893,
				"element": "H" 
			}
		],
		 "valence_orbital": [ 
			{
				"type": "occ",
				"energy": -0.26615,
				"method": "rhf"
			},
			{
				"type": "occ",
				"energy": -0.25799,
				"method": "rhf"
			},
			{
				"type": "occ",
				"energy": -0.25323,
				"method": "rhf"
			},
			{
				"type": "occ",
				"energy": -0.2515,
				"method": "rhf"
			},
			{
				"type": "occ",
				"energy": -0.24987,
				"method": "rhf"
			},
			{
				"type": "unocc",
				"energy": -0.03949,
				"method": "rhf"
			},
			{
				"type": "unocc",
				"energy": -0.03756,
				"method": "rhf"
			},
			{
				"type": "unocc",
				"energy": -0.01718,
				"method": "rhf"
			},
			{
				"type": "unocc",
				"energy": -0.01184,
				"method": "rhf"
			},
			{
				"type": "unocc",
				"energy": -0.00701,
				"method": "rhf"
			}
		],
		"cosmo_sigma_profile": { 
			"-0.025": 0.0,
			"-0.024": 0.0,
			"-0.023": 0.0,
			"-0.022": 0.0,
			"-0.021": 0.0,
			"-0.02": 0.0,
			"-0.019": 0.0,
			"-0.018": 0.0,
			"-0.017": 0.0,
			"-0.016": 0.0,
			"-0.015": 0.0,
			"-0.014": 0.0,
			"-0.013": 0.0,
			"-0.012": 0.0,
			"-0.011": 0.0,
			"-0.01": 0.0732773954984,
			"-0.009": 1.35412367593,
			"-0.008": 3.68146559375,
			"-0.007": 5.83762081729,
			"-0.006": 20.186662377,
			"-0.005": 30.6990173631,
			"-0.004": 32.1765149538,
			"-0.003": 28.7542867392,
			"-0.002": 26.9064731372,
			"-0.001": 27.2000938073,
			"0.0": 29.0957535819,
			"0.001": 32.2772759809,
			"0.002": 40.1685371195,
			"0.003": 47.0568776992,
			"0.004": 19.444149468,
			"0.005": 15.1130109327,
			"0.006": 5.89988873639,
			"0.007": 3.5542757683,
			"0.008": 1.64441892345,
			"0.009": 2.80079079288,
			"0.01": 2.66581606384,
			"0.011": 2.09610372302,
			"0.012": 1.54190466781,
			"0.013": 2.26321878647,
			"0.014": 0.978590649746,
			"0.015": 1.19659990124,
			"0.016": 0.941507716967,
			"0.017": 0.232270617539,
			"0.018": 0.0,
			"0.019": 0.0,
			"0.02": 0.0,
			"0.021": 0.0,
			"0.022": 0.0,
			"0.023": 0.0,
			"0.024": 0.0,
			"0.025": 0.0
		}
	}
}
