{
	 "smiles": "C=CCC1(C2CCC=C2)C(=O)NC(=O)NC1=O", 
	 "Tm": 413.15, 
	 "num_atms": 31, 
	 "gaussian": { 
		 "optdone": 1, 
		 "sigma_profile": "yes", 
		 "theory": "DFT", 
		 "functional": "B3LYP", 
		 "basiset": "6-31G**", 
		 "properties": { 
			 "R2extent": 5118.3054, 
			 "electric_dipole_moment_norm": 1.02811488171, 
			 "electric_quadrupole_moment_norm": 8.50419635827, 
			 "total_energy": -800.892142508, 
			 "HOMO_LUMO_gap": 0.20151, 
			 "cosmo_polarized_energy": -16.06, 
			 "cosmo_cavitation_energy": 33.19, 
			 "cosmo_dispersion_energy": -23.02, 
			 "cosmo_repulsion_energy": 1.79, 
			 "cosmo_total_nonelectrostatic_energy": 11.96, 
			 "SMD_solvation_energy": 7.57 
		},
		"coords": [
			{
				"x": 0.4745577002,
				"y": -1.8243031695,
				"z": 4.0315446476,
				"element": "C" 
			},
			{
				"x": 1.1015533592,
				"y": -1.0203174886,
				"z": 3.172584588,
				"element": "C" 
			},
			{
				"x": 2.0829254411,
				"y": -1.4948132727,
				"z": 2.1393089364,
				"element": "C" 
			},
			{
				"x": 1.725452824,
				"y": -1.3072765562,
				"z": 0.6120827072,
				"element": "C" 
			},
			{
				"x": 1.5298528262,
				"y": 0.2042038216,
				"z": 0.1959746476,
				"element": "C" 
			},
			{
				"x": 0.2333582191,
				"y": 0.9334703146,
				"z": 0.6759018798,
				"element": "C" 
			},
			{
				"x": -0.6563202429,
				"y": 1.1320154925,
				"z": -0.5799514409,
				"element": "C" 
			},
			{
				"x": 0.2843470144,
				"y": 0.8526101038,
				"z": -1.7239395949,
				"element": "C" 
			},
			{
				"x": 1.4571285601,
				"y": 0.3652874859,
				"z": -1.3133011567,
				"element": "C" 
			},
			{
				"x": 2.9996499942,
				"y": -1.7751934448,
				"z": -0.1143703281,
				"element": "C" 
			},
			{
				"x": 4.0636603327,
				"y": -1.197269706,
				"z": 0.0133469179,
				"element": "O" 
			},
			{
				"x": 2.9137827325,
				"y": -2.9020897327,
				"z": -0.9179255617,
				"element": "N" 
			},
			{
				"x": 1.7933018785,
				"y": -3.681661537,
				"z": -1.1793460814,
				"element": "C" 
			},
			{
				"x": 1.8217978778,
				"y": -4.6545458399,
				"z": -1.9048906499,
				"element": "O" 
			},
			{
				"x": 0.6463156732,
				"y": -3.2490357535,
				"z": -0.5320871666,
				"element": "N" 
			},
			{
				"x": 0.4789648769,
				"y": -2.1313679432,
				"z": 0.2831921907,
				"element": "C" 
			},
			{
				"x": -0.6270885205,
				"y": -1.8789588663,
				"z": 0.7225808983,
				"element": "O" 
			},
			{
				"x": 0.6023985526,
				"y": -2.9039321875,
				"z": 4.002667979,
				"element": "H" 
			},
			{
				"x": -0.1926126332,
				"y": -1.4340972959,
				"z": 4.7939332493,
				"element": "H" 
			},
			{
				"x": 0.9497085708,
				"y": 0.0539816408,
				"z": 3.2459665758,
				"element": "H" 
			},
			{
				"x": 2.2854454795,
				"y": -2.5604645707,
				"z": 2.3056209329,
				"element": "H" 
			},
			{
				"x": 3.0365909781,
				"y": -0.9702033395,
				"z": 2.2688089546,
				"element": "H" 
			},
			{
				"x": 2.4250590798,
				"y": 0.6994346115,
				"z": 0.5886112847,
				"element": "H" 
			},
			{
				"x": -0.2983482827,
				"y": 0.3907690624,
				"z": 1.4529476701,
				"element": "H" 
			},
			{
				"x": 0.5243590064,
				"y": 1.9091523891,
				"z": 1.0786161478,
				"element": "H" 
			},
			{
				"x": -1.079192568,
				"y": 2.1429192934,
				"z": -0.6289872846,
				"element": "H" 
			},
			{
				"x": -1.5054081878,
				"y": 0.4367137386,
				"z": -0.5912153669,
				"element": "H" 
			},
			{
				"x": 0.0184585748,
				"y": 1.0280977259,
				"z": -2.7626675287,
				"element": "H" 
			},
			{
				"x": 2.2836801675,
				"y": 0.0988747936,
				"z": -1.9654645029,
				"element": "H" 
			},
			{
				"x": 3.7681820116,
				"y": -3.1968704852,
				"z": -1.3764659261,
				"element": "H" 
			},
			{
				"x": -0.1900612959,
				"y": -3.7887292845,
				"z": -0.722477618,
				"element": "H" 
			}
		],
		 "valence_orbital": [ 
			{
				"type": "occ",
				"energy": -0.30106,
				"method": "rhf"
			},
			{
				"type": "occ",
				"energy": -0.29608,
				"method": "rhf"
			},
			{
				"type": "occ",
				"energy": -0.26672,
				"method": "rhf"
			},
			{
				"type": "occ",
				"energy": -0.25819,
				"method": "rhf"
			},
			{
				"type": "occ",
				"energy": -0.24854,
				"method": "rhf"
			},
			{
				"type": "unocc",
				"energy": -0.04703,
				"method": "rhf"
			},
			{
				"type": "unocc",
				"energy": -0.00869,
				"method": "rhf"
			},
			{
				"type": "unocc",
				"energy": 0.00937,
				"method": "rhf"
			},
			{
				"type": "unocc",
				"energy": 0.01679,
				"method": "rhf"
			},
			{
				"type": "unocc",
				"energy": 0.05939,
				"method": "rhf"
			}
		],
		"cosmo_sigma_profile": { 
			"-0.025": 0.0,
			"-0.024": 0.0,
			"-0.023": 0.0,
			"-0.022": 0.0,
			"-0.021": 0.0,
			"-0.02": 0.0,
			"-0.019": 0.0,
			"-0.018": 0.0,
			"-0.017": 0.117723028521,
			"-0.016": 1.81006045143,
			"-0.015": 2.39358640092,
			"-0.014": 1.00453081083,
			"-0.013": 1.29265710135,
			"-0.012": 1.59263319494,
			"-0.011": 2.39896802674,
			"-0.01": 2.35810131565,
			"-0.009": 1.3886648567,
			"-0.008": 3.0035873045,
			"-0.007": 3.86077953331,
			"-0.006": 6.03308389275,
			"-0.005": 15.5838539033,
			"-0.004": 21.2634468218,
			"-0.003": 28.4484264095,
			"-0.002": 25.2069206535,
			"-0.001": 22.6887408316,
			"0.0": 20.4195530252,
			"0.001": 15.806277214,
			"0.002": 12.1323781539,
			"0.003": 9.6302735721,
			"0.004": 7.76548806681,
			"0.005": 8.1299955589,
			"0.006": 6.21790040192,
			"0.007": 4.26398211608,
			"0.008": 5.31347984854,
			"0.009": 4.50420477073,
			"0.01": 5.88241907062,
			"0.011": 12.2916711803,
			"0.012": 8.58224055634,
			"0.013": 0.0827573931871,
			"0.014": 0.0,
			"0.015": 0.0,
			"0.016": 0.0,
			"0.017": 0.0,
			"0.018": 0.0,
			"0.019": 0.0,
			"0.02": 0.0,
			"0.021": 0.0,
			"0.022": 0.0,
			"0.023": 0.0,
			"0.024": 0.0,
			"0.025": 0.0
		}
	}
}
