{
	 "smiles": "ClCC1=COC(=N1)C1=CC=CS1", 
	 "Tm": 324.15, 
	 "num_atms": 18, 
	 "gaussian": { 
		 "optdone": 1, 
		 "sigma_profile": "yes", 
		 "theory": "DFT", 
		 "functional": "B3LYP", 
		 "basiset": "6-31G**", 
		 "properties": { 
			 "R2extent": 3869.4972, 
			 "electric_dipole_moment_norm": 3.42763128997, 
			 "electric_quadrupole_moment_norm": 16.7541563357, 
			 "total_energy": -1296.797373, 
			 "HOMO_LUMO_gap": 0.1675, 
			 "cosmo_polarized_energy": -10.36, 
			 "cosmo_cavitation_energy": 26.65, 
			 "cosmo_dispersion_energy": -20.26, 
			 "cosmo_repulsion_energy": 1.58, 
			 "cosmo_total_nonelectrostatic_energy": 7.98, 
			 "SMD_solvation_energy": 3.37 
		},
		"coords": [
			{
				"x": -0.9443567594,
				"y": 0.0193851535,
				"z": -4.6218838427,
				"element": "Cl" 
			},
			{
				"x": -1.833746471,
				"y": -0.2642424559,
				"z": -3.043215675,
				"element": "C" 
			},
			{
				"x": -0.9188349667,
				"y": -0.3417564697,
				"z": -1.8783887011,
				"element": "C" 
			},
			{
				"x": -0.4227589907,
				"y": -1.4441051465,
				"z": -1.252644409,
				"element": "C" 
			},
			{
				"x": 0.3740112278,
				"y": -1.0260871606,
				"z": -0.2233279503,
				"element": "O" 
			},
			{
				"x": 0.3191765217,
				"y": 0.3401090265,
				"z": -0.2802474089,
				"element": "C" 
			},
			{
				"x": -0.4343175117,
				"y": 0.792756324,
				"z": -1.2421998277,
				"element": "N" 
			},
			{
				"x": 1.0689853953,
				"y": 1.0872631388,
				"z": 0.6997304908,
				"element": "C" 
			},
			{
				"x": 1.8593607435,
				"y": 0.6049674501,
				"z": 1.7200767422,
				"element": "C" 
			},
			{
				"x": 2.4493961681,
				"y": 1.6412902844,
				"z": 2.4946226168,
				"element": "C" 
			},
			{
				"x": 2.1009264573,
				"y": 2.8915785069,
				"z": 2.054412238,
				"element": "C" 
			},
			{
				"x": 1.0452731158,
				"y": 2.8320113873,
				"z": 0.6835923393,
				"element": "S" 
			},
			{
				"x": -2.3939771329,
				"y": -1.1889050203,
				"z": -3.1788976415,
				"element": "H" 
			},
			{
				"x": -2.5198212146,
				"y": 0.5756533896,
				"z": -2.9395700516,
				"element": "H" 
			},
			{
				"x": -0.5191947138,
				"y": -2.5084267032,
				"z": -1.3939123812,
				"element": "H" 
			},
			{
				"x": 2.0047773816,
				"y": -0.453662408,
				"z": 1.8980818057,
				"element": "H" 
			},
			{
				"x": 3.1035622525,
				"y": 1.4653385442,
				"z": 3.3405417536,
				"element": "H" 
			},
			{
				"x": 2.4041384972,
				"y": 3.848932159,
				"z": 2.4555299028,
				"element": "H" 
			}
		],
		 "valence_orbital": [ 
			{
				"type": "occ",
				"energy": -0.29642,
				"method": "rhf"
			},
			{
				"type": "occ",
				"energy": -0.29189,
				"method": "rhf"
			},
			{
				"type": "occ",
				"energy": -0.28243,
				"method": "rhf"
			},
			{
				"type": "occ",
				"energy": -0.2618,
				"method": "rhf"
			},
			{
				"type": "occ",
				"energy": -0.22197,
				"method": "rhf"
			},
			{
				"type": "unocc",
				"energy": -0.05447,
				"method": "rhf"
			},
			{
				"type": "unocc",
				"energy": -0.01396,
				"method": "rhf"
			},
			{
				"type": "unocc",
				"energy": 0.02489,
				"method": "rhf"
			},
			{
				"type": "unocc",
				"energy": 0.02969,
				"method": "rhf"
			},
			{
				"type": "unocc",
				"energy": 0.06644,
				"method": "rhf"
			}
		],
		"cosmo_sigma_profile": { 
			"-0.025": 0.0,
			"-0.024": 0.0,
			"-0.023": 0.0,
			"-0.022": 0.0,
			"-0.021": 0.0,
			"-0.02": 0.0,
			"-0.019": 0.0,
			"-0.018": 0.0,
			"-0.017": 0.0,
			"-0.016": 0.0,
			"-0.015": 0.0,
			"-0.014": 0.0,
			"-0.013": 0.0,
			"-0.012": 0.0,
			"-0.011": 1.07256137837,
			"-0.01": 1.87326322308,
			"-0.009": 4.89049724769,
			"-0.008": 9.47353568652,
			"-0.007": 9.82374073639,
			"-0.006": 10.0595493532,
			"-0.005": 9.93896894375,
			"-0.004": 10.9188011394,
			"-0.003": 8.45845955206,
			"-0.002": 10.2191606356,
			"-0.001": 12.8328934522,
			"0.0": 17.9071746971,
			"0.001": 16.8533369203,
			"0.002": 21.0366186634,
			"0.003": 22.050908011,
			"0.004": 15.7922135992,
			"0.005": 9.991495357,
			"0.006": 12.930664189,
			"0.007": 7.1331818202,
			"0.008": 0.881430931118,
			"0.009": 1.30197092901,
			"0.01": 0.936654034735,
			"0.011": 0.972948680302,
			"0.012": 0.971962621975,
			"0.013": 0.588503457546,
			"0.014": 0.39124463495,
			"0.015": 0.0,
			"0.016": 0.0,
			"0.017": 0.0,
			"0.018": 0.0,
			"0.019": 0.0,
			"0.02": 0.0,
			"0.021": 0.0,
			"0.022": 0.0,
			"0.023": 0.0,
			"0.024": 0.0,
			"0.025": 0.0
		}
	}
}
