{
	 "smiles": "CCN1CCC2=C(C1)SC(N)=N2", 
	 "Tm": 348.65, 
	 "num_atms": 25, 
	 "gaussian": { 
		 "optdone": 1, 
		 "sigma_profile": "yes", 
		 "theory": "DFT", 
		 "functional": "B3LYP", 
		 "basiset": "6-31G**", 
		 "properties": { 
			 "R2extent": 3070.7043, 
			 "electric_dipole_moment_norm": 1.69894601739, 
			 "electric_quadrupole_moment_norm": 10.6372656524, 
			 "total_energy": -875.120878061, 
			 "HOMO_LUMO_gap": 0.20147, 
			 "cosmo_polarized_energy": -10.73, 
			 "cosmo_cavitation_energy": 27.98, 
			 "cosmo_dispersion_energy": -21.33, 
			 "cosmo_repulsion_energy": 1.68, 
			 "cosmo_total_nonelectrostatic_energy": 8.32, 
			 "SMD_solvation_energy": -0.22 
		},
		"coords": [
			{
				"x": 1.4192298724,
				"y": -2.6240695631,
				"z": 0.5785699892,
				"element": "C" 
			},
			{
				"x": 0.784054183,
				"y": -1.5046776708,
				"z": -0.2491509565,
				"element": "C" 
			},
			{
				"x": -0.5569386835,
				"y": -1.1426455039,
				"z": 0.231306403,
				"element": "N" 
			},
			{
				"x": -1.4018551443,
				"y": -0.529276915,
				"z": -0.8009673175,
				"element": "C" 
			},
			{
				"x": -0.9123979792,
				"y": 0.8524399159,
				"z": -1.2925919044,
				"element": "C" 
			},
			{
				"x": -0.5018389905,
				"y": 1.6914826358,
				"z": -0.1149204936,
				"element": "C" 
			},
			{
				"x": -0.3306256919,
				"y": 1.1433894711,
				"z": 1.1205289313,
				"element": "C" 
			},
			{
				"x": -0.5454904176,
				"y": -0.3171674496,
				"z": 1.4449874837,
				"element": "C" 
			},
			{
				"x": 0.1368088206,
				"y": 2.4032019385,
				"z": 2.2571497556,
				"element": "S" 
			},
			{
				"x": 0.0827390671,
				"y": 3.5570993234,
				"z": 0.9093927878,
				"element": "C" 
			},
			{
				"x": 0.3116487756,
				"y": 4.9008089418,
				"z": 1.1233468775,
				"element": "N" 
			},
			{
				"x": -0.256099539,
				"y": 3.0496130034,
				"z": -0.238159166,
				"element": "N" 
			},
			{
				"x": 1.5987363875,
				"y": -2.3204080135,
				"z": 1.6150897105,
				"element": "H" 
			},
			{
				"x": 0.7690948325,
				"y": -3.5036526635,
				"z": 0.5933990824,
				"element": "H" 
			},
			{
				"x": 2.3867620365,
				"y": -2.9093685041,
				"z": 0.1517768145,
				"element": "H" 
			},
			{
				"x": 0.6701180414,
				"y": -1.8566045151,
				"z": -1.2810766978,
				"element": "H" 
			},
			{
				"x": 1.466258588,
				"y": -0.6373601258,
				"z": -0.288969488,
				"element": "H" 
			},
			{
				"x": -2.4076852955,
				"y": -0.4199471776,
				"z": -0.3761057596,
				"element": "H" 
			},
			{
				"x": -1.48360803,
				"y": -1.2258544123,
				"z": -1.6422951727,
				"element": "H" 
			},
			{
				"x": -1.7055845487,
				"y": 1.3583711337,
				"z": -1.8562788049,
				"element": "H" 
			},
			{
				"x": -0.0667983834,
				"y": 0.7449549635,
				"z": -1.9860897225,
				"element": "H" 
			},
			{
				"x": -1.5030398301,
				"y": -0.453105886,
				"z": 1.9691082435,
				"element": "H" 
			},
			{
				"x": 0.2284368915,
				"y": -0.6895464802,
				"z": 2.1236761974,
				"element": "H" 
			},
			{
				"x": 0.9952135754,
				"y": 5.1343886045,
				"z": 1.8298363912,
				"element": "H" 
			},
			{
				"x": 0.4343614621,
				"y": 5.412034949,
				"z": 0.258336816,
				"element": "H" 
			}
		],
		 "valence_orbital": [ 
			{
				"type": "occ",
				"energy": -0.30218,
				"method": "rhf"
			},
			{
				"type": "occ",
				"energy": -0.26506,
				"method": "rhf"
			},
			{
				"type": "occ",
				"energy": -0.26313,
				"method": "rhf"
			},
			{
				"type": "occ",
				"energy": -0.20823,
				"method": "rhf"
			},
			{
				"type": "occ",
				"energy": -0.19751,
				"method": "rhf"
			},
			{
				"type": "unocc",
				"energy": 0.00396,
				"method": "rhf"
			},
			{
				"type": "unocc",
				"energy": 0.01544,
				"method": "rhf"
			},
			{
				"type": "unocc",
				"energy": 0.06662,
				"method": "rhf"
			},
			{
				"type": "unocc",
				"energy": 0.07402,
				"method": "rhf"
			},
			{
				"type": "unocc",
				"energy": 0.08984,
				"method": "rhf"
			}
		],
		"cosmo_sigma_profile": { 
			"-0.025": 0.0,
			"-0.024": 0.0,
			"-0.023": 0.0,
			"-0.022": 0.0,
			"-0.021": 0.0,
			"-0.02": 0.0,
			"-0.019": 0.0,
			"-0.018": 0.0,
			"-0.017": 0.0,
			"-0.016": 0.0,
			"-0.015": 0.185327039554,
			"-0.014": 1.5361003078,
			"-0.013": 2.41765673638,
			"-0.012": 2.19293279764,
			"-0.011": 2.11817302895,
			"-0.01": 3.05213079992,
			"-0.009": 2.11181255899,
			"-0.008": 2.00016580415,
			"-0.007": 1.71909242155,
			"-0.006": 1.90035046342,
			"-0.005": 5.02955671759,
			"-0.004": 14.0654532475,
			"-0.003": 24.4014324765,
			"-0.002": 24.4312300551,
			"-0.001": 26.0412686851,
			"0.0": 19.8036456587,
			"0.001": 16.9910792648,
			"0.002": 13.053283689,
			"0.003": 11.3823335555,
			"0.004": 11.5052347228,
			"0.005": 8.98025323371,
			"0.006": 5.1655361404,
			"0.007": 2.88371280691,
			"0.008": 2.92165343267,
			"0.009": 2.7911743851,
			"0.01": 2.87162814971,
			"0.011": 1.97453497441,
			"0.012": 2.41456556349,
			"0.013": 1.54255814994,
			"0.014": 1.50859424361,
			"0.015": 0.956238976649,
			"0.016": 0.968291290059,
			"0.017": 0.058526183351,
			"0.018": 0.0,
			"0.019": 0.0,
			"0.02": 0.0,
			"0.021": 0.0,
			"0.022": 0.0,
			"0.023": 0.0,
			"0.024": 0.0,
			"0.025": 0.0
		}
	}
}
