{
	 "smiles": "CC(N1N=C(C)C=C1C)C(=O)NC1=C(Cl)C=C(N)C=C1", 
	 "Tm": 472.15, 
	 "num_atms": 37, 
	 "gaussian": { 
		 "optdone": 1, 
		 "sigma_profile": "yes", 
		 "theory": "DFT", 
		 "functional": "B3LYP", 
		 "basiset": "6-31G**", 
		 "properties": { 
			 "R2extent": 7779.5763, 
			 "electric_dipole_moment_norm": 3.82785304577, 
			 "electric_quadrupole_moment_norm": 27.4214867859, 
			 "total_energy": -1298.16615885, 
			 "HOMO_LUMO_gap": 0.1917, 
			 "cosmo_polarized_energy": -16.71, 
			 "cosmo_cavitation_energy": 41.39, 
			 "cosmo_dispersion_energy": -28.36, 
			 "cosmo_repulsion_energy": 2.2, 
			 "cosmo_total_nonelectrostatic_energy": 15.23, 
			 "SMD_solvation_energy": 7.06 
		},
		"coords": [
			{
				"x": -0.0916770245,
				"y": 1.1859221854,
				"z": 0.8004994669,
				"element": "C" 
			},
			{
				"x": -1.2211059362,
				"y": 1.0511640833,
				"z": -0.2230512463,
				"element": "C" 
			},
			{
				"x": -1.8530714062,
				"y": -0.2678568714,
				"z": -0.1733524806,
				"element": "N" 
			},
			{
				"x": -1.0866002657,
				"y": -1.3914435933,
				"z": -0.22562074,
				"element": "N" 
			},
			{
				"x": -1.9507542903,
				"y": -2.4060212189,
				"z": -0.2473861957,
				"element": "C" 
			},
			{
				"x": -1.4618762888,
				"y": -3.8222318383,
				"z": -0.2908798912,
				"element": "C" 
			},
			{
				"x": -3.2838012319,
				"y": -1.9317132337,
				"z": -0.2220903126,
				"element": "C" 
			},
			{
				"x": -3.1911217486,
				"y": -0.5520372655,
				"z": -0.1867275756,
				"element": "C" 
			},
			{
				"x": -4.2593426958,
				"y": 0.4958044568,
				"z": -0.176422626,
				"element": "C" 
			},
			{
				"x": -0.9838352105,
				"y": 1.4488651085,
				"z": -1.7052846994,
				"element": "C" 
			},
			{
				"x": -1.9684971243,
				"y": 1.7625371934,
				"z": -2.3675633423,
				"element": "O" 
			},
			{
				"x": 0.2613271383,
				"y": 1.5237968339,
				"z": -2.2790472876,
				"element": "N" 
			},
			{
				"x": 1.5451569888,
				"y": 1.0623259695,
				"z": -1.8951781412,
				"element": "C" 
			},
			{
				"x": 2.6640315701,
				"y": 1.900806393,
				"z": -2.0253919176,
				"element": "C" 
			},
			{
				"x": 2.4540625004,
				"y": 3.5520814751,
				"z": -2.5973052119,
				"element": "Cl" 
			},
			{
				"x": 3.952286533,
				"y": 1.4648488009,
				"z": -1.7340883613,
				"element": "C" 
			},
			{
				"x": 4.1646368172,
				"y": 0.1539358143,
				"z": -1.278061794,
				"element": "C" 
			},
			{
				"x": 5.439487291,
				"y": -0.2727164949,
				"z": -0.9162911893,
				"element": "N" 
			},
			{
				"x": 3.0515139703,
				"y": -0.6953821134,
				"z": -1.1469071621,
				"element": "C" 
			},
			{
				"x": 1.7750580635,
				"y": -0.2544121736,
				"z": -1.4710545938,
				"element": "C" 
			},
			{
				"x": -0.5235675985,
				"y": 1.154083776,
				"z": 1.8053304597,
				"element": "H" 
			},
			{
				"x": 0.4186667975,
				"y": 2.1451963659,
				"z": 0.6765632599,
				"element": "H" 
			},
			{
				"x": 0.6387270863,
				"y": 0.3841868896,
				"z": 0.720870987,
				"element": "H" 
			},
			{
				"x": -2.0061621906,
				"y": 1.7576099366,
				"z": 0.055844934,
				"element": "H" 
			},
			{
				"x": -1.8099031033,
				"y": -4.3932902763,
				"z": 0.5773204376,
				"element": "H" 
			},
			{
				"x": -1.8205212382,
				"y": -4.3420036932,
				"z": -1.1865156838,
				"element": "H" 
			},
			{
				"x": -0.369483744,
				"y": -3.8412384474,
				"z": -0.2966945145,
				"element": "H" 
			},
			{
				"x": -4.1945531181,
				"y": -2.513426661,
				"z": -0.2281890448,
				"element": "H" 
			},
			{
				"x": -5.2380127007,
				"y": 0.0205824248,
				"z": -0.2725164528,
				"element": "H" 
			},
			{
				"x": -4.2620838446,
				"y": 1.0725134216,
				"z": 0.7570366577,
				"element": "H" 
			},
			{
				"x": -4.1251807889,
				"y": 1.194759914,
				"z": -1.0073320636,
				"element": "H" 
			},
			{
				"x": 0.1965466482,
				"y": 1.9440983042,
				"z": -3.2004792418,
				"element": "H" 
			},
			{
				"x": 4.785852989,
				"y": 2.1495280601,
				"z": -1.8504219674,
				"element": "H" 
			},
			{
				"x": 6.2075867003,
				"y": 0.2277341813,
				"z": -1.3408074279,
				"element": "H" 
			},
			{
				"x": 5.5815828127,
				"y": -1.2729319243,
				"z": -0.9259373795,
				"element": "H" 
			},
			{
				"x": 3.192138161,
				"y": -1.7156824909,
				"z": -0.8003708763,
				"element": "H" 
			},
			{
				"x": 0.9257894821,
				"y": -0.9225932921,
				"z": -1.361896782,
				"element": "H" 
			}
		],
		 "valence_orbital": [ 
			{
				"type": "occ",
				"energy": -0.25726,
				"method": "rhf"
			},
			{
				"type": "occ",
				"energy": -0.25078,
				"method": "rhf"
			},
			{
				"type": "occ",
				"energy": -0.22756,
				"method": "rhf"
			},
			{
				"type": "occ",
				"energy": -0.22666,
				"method": "rhf"
			},
			{
				"type": "occ",
				"energy": -0.20626,
				"method": "rhf"
			},
			{
				"type": "unocc",
				"energy": -0.01456,
				"method": "rhf"
			},
			{
				"type": "unocc",
				"energy": -0.00891,
				"method": "rhf"
			},
			{
				"type": "unocc",
				"energy": 0.02139,
				"method": "rhf"
			},
			{
				"type": "unocc",
				"energy": 0.02592,
				"method": "rhf"
			},
			{
				"type": "unocc",
				"energy": 0.03449,
				"method": "rhf"
			}
		],
		"cosmo_sigma_profile": { 
			"-0.025": 0.0,
			"-0.024": 0.0,
			"-0.023": 0.0,
			"-0.022": 0.0,
			"-0.021": 0.0,
			"-0.02": 0.0,
			"-0.019": 0.0,
			"-0.018": 0.0,
			"-0.017": 0.0,
			"-0.016": 0.0,
			"-0.015": 0.0,
			"-0.014": 0.0484563082264,
			"-0.013": 2.24391120037,
			"-0.012": 3.81980264193,
			"-0.011": 3.65047108282,
			"-0.01": 4.21690010119,
			"-0.009": 4.1854720262,
			"-0.008": 3.8004994047,
			"-0.007": 7.14735949895,
			"-0.006": 10.8348457727,
			"-0.005": 15.2883769045,
			"-0.004": 21.3565339287,
			"-0.003": 19.0024679233,
			"-0.002": 26.0964327319,
			"-0.001": 30.9604412929,
			"0.0": 31.3177716823,
			"0.001": 22.5909850319,
			"0.002": 22.3999425849,
			"0.003": 24.3778536559,
			"0.004": 24.4502646321,
			"0.005": 16.9087935235,
			"0.006": 9.17537378877,
			"0.007": 4.04850379987,
			"0.008": 4.10324990346,
			"0.009": 3.0248646248,
			"0.01": 3.15281658729,
			"0.011": 2.746379632,
			"0.012": 3.58001847513,
			"0.013": 3.89419711549,
			"0.014": 1.36737542624,
			"0.015": 0.0,
			"0.016": 0.0,
			"0.017": 0.0,
			"0.018": 0.0,
			"0.019": 0.0,
			"0.02": 0.0,
			"0.021": 0.0,
			"0.022": 0.0,
			"0.023": 0.0,
			"0.024": 0.0,
			"0.025": 0.0
		}
	}
}
