{
	 "smiles": "CC(CC(N)=NO)N(C)C(=O)OC(C)(C)C", 
	 "Tm": 376.15, 
	 "num_atms": 37, 
	 "gaussian": { 
		 "optdone": 1, 
		 "sigma_profile": "yes", 
		 "theory": "DFT", 
		 "functional": "B3LYP", 
		 "basiset": "6-31G**", 
		 "properties": { 
			 "R2extent": 5286.0051, 
			 "electric_dipole_moment_norm": 1.13951257123, 
			 "electric_quadrupole_moment_norm": 9.81313162808, 
			 "total_energy": -783.631954837, 
			 "HOMO_LUMO_gap": 0.23716, 
			 "cosmo_polarized_energy": -16.46, 
			 "cosmo_cavitation_energy": 38.04, 
			 "cosmo_dispersion_energy": -25.32, 
			 "cosmo_repulsion_energy": 2.03, 
			 "cosmo_total_nonelectrostatic_energy": 14.75, 
			 "SMD_solvation_energy": 7.85 
		},
		"coords": [
			{
				"x": 1.6572560605,
				"y": 1.8893020487,
				"z": -3.078251673,
				"element": "C" 
			},
			{
				"x": 0.3186502719,
				"y": 1.7091313413,
				"z": -2.34582269,
				"element": "C" 
			},
			{
				"x": -0.7116411727,
				"y": 0.9990457349,
				"z": -3.2549769661,
				"element": "C" 
			},
			{
				"x": -2.058726544,
				"y": 0.7680987119,
				"z": -2.6147370429,
				"element": "C" 
			},
			{
				"x": -2.707475648,
				"y": 1.8910603052,
				"z": -2.1154716968,
				"element": "N" 
			},
			{
				"x": -2.6460597782,
				"y": -0.3663596744,
				"z": -2.4487632618,
				"element": "N" 
			},
			{
				"x": -1.8308377838,
				"y": -1.4540102828,
				"z": -2.8823659334,
				"element": "O" 
			},
			{
				"x": 0.4887012566,
				"y": 1.0296111342,
				"z": -1.0531887339,
				"element": "N" 
			},
			{
				"x": 0.8336875237,
				"y": -0.39068463,
				"z": -1.0305629466,
				"element": "C" 
			},
			{
				"x": 0.5543024849,
				"y": 1.8325485216,
				"z": 0.0606389969,
				"element": "C" 
			},
			{
				"x": 0.4055606604,
				"y": 3.0488347138,
				"z": 0.0349858511,
				"element": "O" 
			},
			{
				"x": 0.7981238149,
				"y": 1.1089938217,
				"z": 1.1825266848,
				"element": "O" 
			},
			{
				"x": 0.8650589601,
				"y": 1.7587721741,
				"z": 2.4980918028,
				"element": "C" 
			},
			{
				"x": -0.4774882292,
				"y": 2.4184615,
				"z": 2.832322462,
				"element": "C" 
			},
			{
				"x": 1.1346449701,
				"y": 0.5783981226,
				"z": 3.4362360174,
				"element": "C" 
			},
			{
				"x": 2.0286729141,
				"y": 2.7559741936,
				"z": 2.537625253,
				"element": "C" 
			},
			{
				"x": 2.1108488874,
				"y": 0.9273283857,
				"z": -3.3402965035,
				"element": "H" 
			},
			{
				"x": 2.3585076113,
				"y": 2.442949487,
				"z": -2.4476452432,
				"element": "H" 
			},
			{
				"x": 1.5169450087,
				"y": 2.4535117096,
				"z": -4.006518734,
				"element": "H" 
			},
			{
				"x": -0.0653576629,
				"y": 2.6964240146,
				"z": -2.0873913679,
				"element": "H" 
			},
			{
				"x": -0.855439367,
				"y": 1.640458403,
				"z": -4.1356711758,
				"element": "H" 
			},
			{
				"x": -0.3300507901,
				"y": 0.0469208107,
				"z": -3.6251527534,
				"element": "H" 
			},
			{
				"x": -3.6592055247,
				"y": 1.7097029923,
				"z": -1.821348446,
				"element": "H" 
			},
			{
				"x": -2.6173491995,
				"y": 2.7299759896,
				"z": -2.6730389614,
				"element": "H" 
			},
			{
				"x": -2.3871841256,
				"y": -2.2077538394,
				"z": -2.6506678699,
				"element": "H" 
			},
			{
				"x": 0.1199340593,
				"y": -0.9632654795,
				"z": -1.6278392877,
				"element": "H" 
			},
			{
				"x": 1.8460911902,
				"y": -0.5675814435,
				"z": -1.4188447025,
				"element": "H" 
			},
			{
				"x": 0.7935480523,
				"y": -0.7497512913,
				"z": -0.005852533,
				"element": "H" 
			},
			{
				"x": -1.2881353669,
				"y": 1.6869937729,
				"z": 2.7543175432,
				"element": "H" 
			},
			{
				"x": -0.4563350509,
				"y": 2.794864551,
				"z": 3.86050935,
				"element": "H" 
			},
			{
				"x": -0.6830741613,
				"y": 3.2469547892,
				"z": 2.1546997088,
				"element": "H" 
			},
			{
				"x": 0.3241350099,
				"y": -0.1540964815,
				"z": 3.3779443293,
				"element": "H" 
			},
			{
				"x": 1.2111220778,
				"y": 0.9288363745,
				"z": 4.4699281566,
				"element": "H" 
			},
			{
				"x": 2.0709541746,
				"y": 0.0791096328,
				"z": 3.1697381005,
				"element": "H" 
			},
			{
				"x": 2.9630533491,
				"y": 2.2590224048,
				"z": 2.2571108,
				"element": "H" 
			},
			{
				"x": 1.8513195013,
				"y": 3.5877223393,
				"z": 1.8560988731,
				"element": "H" 
			},
			{
				"x": 2.1441425658,
				"y": 3.1462951418,
				"z": 3.554234593,
				"element": "H" 
			}
		],
		 "valence_orbital": [ 
			{
				"type": "occ",
				"energy": -0.27735,
				"method": "rhf"
			},
			{
				"type": "occ",
				"energy": -0.26485,
				"method": "rhf"
			},
			{
				"type": "occ",
				"energy": -0.24912,
				"method": "rhf"
			},
			{
				"type": "occ",
				"energy": -0.22582,
				"method": "rhf"
			},
			{
				"type": "occ",
				"energy": -0.20807,
				"method": "rhf"
			},
			{
				"type": "unocc",
				"energy": 0.02909,
				"method": "rhf"
			},
			{
				"type": "unocc",
				"energy": 0.06512,
				"method": "rhf"
			},
			{
				"type": "unocc",
				"energy": 0.07185,
				"method": "rhf"
			},
			{
				"type": "unocc",
				"energy": 0.08161,
				"method": "rhf"
			},
			{
				"type": "unocc",
				"energy": 0.09332,
				"method": "rhf"
			}
		],
		"cosmo_sigma_profile": { 
			"-0.025": 0.0,
			"-0.024": 0.0,
			"-0.023": 0.0,
			"-0.022": 0.0,
			"-0.021": 0.0,
			"-0.02": 0.0,
			"-0.019": 0.0,
			"-0.018": 0.0,
			"-0.017": 0.0649347026585,
			"-0.016": 0.708159395257,
			"-0.015": 1.11218903839,
			"-0.014": 0.94275311598,
			"-0.013": 1.28843864489,
			"-0.012": 3.21408930277,
			"-0.011": 3.4675776868,
			"-0.01": 3.40790027047,
			"-0.009": 3.498478717,
			"-0.008": 3.74173602046,
			"-0.007": 2.66276550827,
			"-0.006": 3.74454415729,
			"-0.005": 5.93496261304,
			"-0.004": 21.4369804475,
			"-0.003": 30.1244004237,
			"-0.002": 28.4218136736,
			"-0.001": 33.06451357,
			"0.0": 36.6259232065,
			"0.001": 28.6125840055,
			"0.002": 11.3075086136,
			"0.003": 9.07759825223,
			"0.004": 9.43530325849,
			"0.005": 8.02090396209,
			"0.006": 7.53734540041,
			"0.007": 6.75256303142,
			"0.008": 6.48713335395,
			"0.009": 6.05662489934,
			"0.01": 4.37113627845,
			"0.011": 4.78671520009,
			"0.012": 2.93835317241,
			"0.013": 3.43984226966,
			"0.014": 2.40843955694,
			"0.015": 0.330101160916,
			"0.016": 0.0,
			"0.017": 0.0,
			"0.018": 0.0,
			"0.019": 0.0,
			"0.02": 0.0,
			"0.021": 0.0,
			"0.022": 0.0,
			"0.023": 0.0,
			"0.024": 0.0,
			"0.025": 0.0
		}
	}
}
