{
	 "smiles": "OCC1=NN(C=C1)C1=CC=CC=C1", 
	 "Tm": 323.15, 
	 "num_atms": 23, 
	 "gaussian": { 
		 "optdone": 1, 
		 "sigma_profile": "yes", 
		 "theory": "DFT", 
		 "functional": "B3LYP", 
		 "basiset": "6-31G**", 
		 "properties": { 
			 "R2extent": 3067.1348, 
			 "electric_dipole_moment_norm": 3.6898846215, 
			 "electric_quadrupole_moment_norm": 9.06473598347, 
			 "total_energy": -571.785873654, 
			 "HOMO_LUMO_gap": 0.19766, 
			 "cosmo_polarized_energy": -9.76, 
			 "cosmo_cavitation_energy": 26.93, 
			 "cosmo_dispersion_energy": -20.08, 
			 "cosmo_repulsion_energy": 1.58, 
			 "cosmo_total_nonelectrostatic_energy": 8.44, 
			 "SMD_solvation_energy": 4.38 
		},
		"coords": [
			{
				"x": 0.6695995568,
				"y": 3.2022205755,
				"z": -0.9243453997,
				"element": "O" 
			},
			{
				"x": 1.3046125719,
				"y": 3.0593692357,
				"z": 0.3280543197,
				"element": "C" 
			},
			{
				"x": 0.9039732123,
				"y": 1.792912959,
				"z": 1.0387140025,
				"element": "C" 
			},
			{
				"x": 0.2068051288,
				"y": 0.880800462,
				"z": 0.3702314089,
				"element": "N" 
			},
			{
				"x": 0.0335103074,
				"y": -0.1539876405,
				"z": 1.233816136,
				"element": "N" 
			},
			{
				"x": 0.6142668552,
				"y": 0.1086566208,
				"z": 2.4430719618,
				"element": "C" 
			},
			{
				"x": 1.1917188853,
				"y": 1.355830068,
				"z": 2.356052317,
				"element": "C" 
			},
			{
				"x": -0.7013067776,
				"y": -1.303375404,
				"z": 0.8433033923,
				"element": "C" 
			},
			{
				"x": -0.4966185459,
				"y": -2.5257225509,
				"z": 1.4936371361,
				"element": "C" 
			},
			{
				"x": -1.2418722671,
				"y": -3.6415439484,
				"z": 1.1142344242,
				"element": "C" 
			},
			{
				"x": -2.1745255434,
				"y": -3.5522684501,
				"z": 0.0799158197,
				"element": "C" 
			},
			{
				"x": -2.359321036,
				"y": -2.332464868,
				"z": -0.5749297347,
				"element": "C" 
			},
			{
				"x": -1.6324133622,
				"y": -1.2057335027,
				"z": -0.1968214447,
				"element": "C" 
			},
			{
				"x": 0.368849219,
				"y": 2.3179067607,
				"z": -1.18196505,
				"element": "H" 
			},
			{
				"x": 2.4030289977,
				"y": 3.0698219707,
				"z": 0.2161560823,
				"element": "H" 
			},
			{
				"x": 1.0482443816,
				"y": 3.9284068663,
				"z": 0.9495709598,
				"element": "H" 
			},
			{
				"x": 0.5442233121,
				"y": -0.5843302252,
				"z": 3.267186623,
				"element": "H" 
			},
			{
				"x": 1.7303306499,
				"y": 1.8800647455,
				"z": 3.1315159711,
				"element": "H" 
			},
			{
				"x": 0.2527419456,
				"y": -2.6139687112,
				"z": 2.2730197319,
				"element": "H" 
			},
			{
				"x": -1.0787451059,
				"y": -4.5872379277,
				"z": 1.6225597383,
				"element": "H" 
			},
			{
				"x": -2.7476598062,
				"y": -4.4253826154,
				"z": -0.2162854103,
				"element": "H" 
			},
			{
				"x": -3.0809277716,
				"y": -2.2519695165,
				"z": -1.3825558387,
				"element": "H" 
			},
			{
				"x": -1.7720148075,
				"y": -0.2521049036,
				"z": -0.6906371465,
				"element": "H" 
			}
		],
		 "valence_orbital": [ 
			{
				"type": "occ",
				"energy": -0.29241,
				"method": "rhf"
			},
			{
				"type": "occ",
				"energy": -0.26261,
				"method": "rhf"
			},
			{
				"type": "occ",
				"energy": -0.25754,
				"method": "rhf"
			},
			{
				"type": "occ",
				"energy": -0.25648,
				"method": "rhf"
			},
			{
				"type": "occ",
				"energy": -0.22528,
				"method": "rhf"
			},
			{
				"type": "unocc",
				"energy": -0.02762,
				"method": "rhf"
			},
			{
				"type": "unocc",
				"energy": -0.01212,
				"method": "rhf"
			},
			{
				"type": "unocc",
				"energy": 0.03304,
				"method": "rhf"
			},
			{
				"type": "unocc",
				"energy": 0.05899,
				"method": "rhf"
			},
			{
				"type": "unocc",
				"energy": 0.08153,
				"method": "rhf"
			}
		],
		"cosmo_sigma_profile": { 
			"-0.025": 0.0,
			"-0.024": 0.0,
			"-0.023": 0.0,
			"-0.022": 0.0,
			"-0.021": 0.0,
			"-0.02": 0.0,
			"-0.019": 0.0,
			"-0.018": 0.0,
			"-0.017": 0.0,
			"-0.016": 0.0,
			"-0.015": 0.0,
			"-0.014": 0.0,
			"-0.013": 0.0,
			"-0.012": 0.0,
			"-0.011": 0.0810219436487,
			"-0.01": 1.15957377151,
			"-0.009": 2.92696509902,
			"-0.008": 3.46542139379,
			"-0.007": 4.78743500764,
			"-0.006": 11.4193260322,
			"-0.005": 17.6722019251,
			"-0.004": 20.4911929269,
			"-0.003": 17.036610147,
			"-0.002": 12.6815927553,
			"-0.001": 12.6901413636,
			"0.0": 12.8138836098,
			"0.001": 12.6611658123,
			"0.002": 16.0193890643,
			"0.003": 17.2671721701,
			"0.004": 18.750334326,
			"0.005": 14.8860262362,
			"0.006": 3.32335157611,
			"0.007": 3.03665599311,
			"0.008": 1.68183425549,
			"0.009": 1.68111500039,
			"0.01": 1.62565597097,
			"0.011": 0.808967791143,
			"0.012": 1.82783219952,
			"0.013": 1.51398672458,
			"0.014": 2.63448230224,
			"0.015": 0.543624360807,
			"0.016": 0.0,
			"0.017": 0.0,
			"0.018": 0.0,
			"0.019": 0.0,
			"0.02": 0.0,
			"0.021": 0.0,
			"0.022": 0.0,
			"0.023": 0.0,
			"0.024": 0.0,
			"0.025": 0.0
		}
	}
}
