{
	 "smiles": "COC1=C(C=C(Br)C=C1F)[N+]([O-])=O", 
	 "Tm": 328.15, 
	 "num_atms": 18, 
	 "gaussian": { 
		 "optdone": 1, 
		 "sigma_profile": "yes", 
		 "theory": "DFT", 
		 "functional": "B3LYP", 
		 "basiset": "6-31G**", 
		 "properties": { 
			 "R2extent": 4565.4516, 
			 "electric_dipole_moment_norm": 3.33328474781, 
			 "electric_quadrupole_moment_norm": 10.6498301386, 
			 "total_energy": -3221.2849802, 
			 "HOMO_LUMO_gap": 0.16363, 
			 "cosmo_polarized_energy": -8.2, 
			 "cosmo_cavitation_energy": 26.18, 
			 "cosmo_dispersion_energy": -19.29, 
			 "cosmo_repulsion_energy": 1.51, 
			 "cosmo_total_nonelectrostatic_energy": 8.4, 
			 "SMD_solvation_energy": 6.83 
		},
		"coords": [
			{
				"x": -1.6483231321,
				"y": 0.4337493107,
				"z": -2.2056757859,
				"element": "C" 
			},
			{
				"x": -0.4178740531,
				"y": -0.3090853095,
				"z": -2.1354067787,
				"element": "O" 
			},
			{
				"x": 0.3354779787,
				"y": -0.1120827689,
				"z": -1.0281535143,
				"element": "C" 
			},
			{
				"x": 1.5467607994,
				"y": 0.5976185988,
				"z": -1.0422110312,
				"element": "C" 
			},
			{
				"x": 2.3921688937,
				"y": 0.662773406,
				"z": 0.0666283418,
				"element": "C" 
			},
			{
				"x": 1.9969061965,
				"y": 0.0436646644,
				"z": 1.2453593373,
				"element": "C" 
			},
			{
				"x": 3.1134720649,
				"y": 0.1439651278,
				"z": 2.7832322316,
				"element": "Br" 
			},
			{
				"x": 0.789990644,
				"y": -0.6546283826,
				"z": 1.3210574271,
				"element": "C" 
			},
			{
				"x": -0.0065924603,
				"y": -0.7248550611,
				"z": 0.1886321659,
				"element": "C" 
			},
			{
				"x": -1.1583894352,
				"y": -1.4147668255,
				"z": 0.240244053,
				"element": "F" 
			},
			{
				"x": 1.9713886071,
				"y": 1.3237117316,
				"z": -2.2499176327,
				"element": "N" 
			},
			{
				"x": 3.181130101,
				"y": 1.4127723034,
				"z": -2.4510984486,
				"element": "O" 
			},
			{
				"x": 1.0969930514,
				"y": 1.8189618395,
				"z": -2.9556904953,
				"element": "O" 
			},
			{
				"x": -2.1360246397,
				"y": 0.1091994062,
				"z": -3.1252063206,
				"element": "H" 
			},
			{
				"x": -1.4362816371,
				"y": 1.5050322939,
				"z": -2.2590032934,
				"element": "H" 
			},
			{
				"x": -2.2904165129,
				"y": 0.2065369456,
				"z": -1.3491113568,
				"element": "H" 
			},
			{
				"x": 3.3288478041,
				"y": 1.198211177,
				"z": -0.0122159949,
				"element": "H" 
			},
			{
				"x": 0.4717657296,
				"y": -1.1491784574,
				"z": 2.2306370955,
				"element": "H" 
			}
		],
		 "valence_orbital": [ 
			{
				"type": "occ",
				"energy": -0.30848,
				"method": "rhf"
			},
			{
				"type": "occ",
				"energy": -0.3051,
				"method": "rhf"
			},
			{
				"type": "occ",
				"energy": -0.29667,
				"method": "rhf"
			},
			{
				"type": "occ",
				"energy": -0.28508,
				"method": "rhf"
			},
			{
				"type": "occ",
				"energy": -0.25973,
				"method": "rhf"
			},
			{
				"type": "unocc",
				"energy": -0.0961,
				"method": "rhf"
			},
			{
				"type": "unocc",
				"energy": -0.03838,
				"method": "rhf"
			},
			{
				"type": "unocc",
				"energy": -0.02492,
				"method": "rhf"
			},
			{
				"type": "unocc",
				"energy": -0.01567,
				"method": "rhf"
			},
			{
				"type": "unocc",
				"energy": 0.06366,
				"method": "rhf"
			}
		],
		"cosmo_sigma_profile": { 
			"-0.025": 0.0,
			"-0.024": 0.0,
			"-0.023": 0.0,
			"-0.022": 0.0,
			"-0.021": 0.0,
			"-0.02": 0.0,
			"-0.019": 0.0,
			"-0.018": 0.0,
			"-0.017": 0.0,
			"-0.016": 0.0,
			"-0.015": 0.0,
			"-0.014": 0.0,
			"-0.013": 0.0,
			"-0.012": 0.0,
			"-0.011": 0.0,
			"-0.01": 1.03616316786,
			"-0.009": 1.8546523581,
			"-0.008": 2.80903860325,
			"-0.007": 5.54550502227,
			"-0.006": 8.10606635769,
			"-0.005": 13.3719149211,
			"-0.004": 17.2016596569,
			"-0.003": 20.7015782634,
			"-0.002": 18.0976999551,
			"-0.001": 18.1929160056,
			"0.0": 16.0024532798,
			"0.001": 10.5318842518,
			"0.002": 14.7880034416,
			"0.003": 20.3818637146,
			"0.004": 11.5236686117,
			"0.005": 4.78438625337,
			"0.006": 5.4648893899,
			"0.007": 10.9930938996,
			"0.008": 6.7085317832,
			"0.009": 4.85632371706,
			"0.01": 0.940619089981,
			"0.011": 0.0,
			"0.012": 0.0,
			"0.013": 0.0,
			"0.014": 0.0,
			"0.015": 0.0,
			"0.016": 0.0,
			"0.017": 0.0,
			"0.018": 0.0,
			"0.019": 0.0,
			"0.02": 0.0,
			"0.021": 0.0,
			"0.022": 0.0,
			"0.023": 0.0,
			"0.024": 0.0,
			"0.025": 0.0
		}
	}
}
