{
	 "smiles": "[O-][N+](=O)C1=CC=CC(=C1COC(=O)OCC1=C(C=CC=C1[N+]([O-])=O)[N+]([O-])=O)[N+]([O-])=O", 
	 "Tm": 476.15, 
	 "num_atms": 40, 
	 "gaussian": { 
		 "optdone": 1, 
		 "sigma_profile": "yes", 
		 "theory": "DFT", 
		 "functional": "B3LYP", 
		 "basiset": "6-31G**", 
		 "properties": { 
			 "R2extent": 15349.6984, 
			 "electric_dipole_moment_norm": 5.36497557404, 
			 "electric_quadrupole_moment_norm": 49.4445012353, 
			 "total_energy": -1623.65815758, 
			 "HOMO_LUMO_gap": 0.18265, 
			 "cosmo_polarized_energy": -26.16, 
			 "cosmo_cavitation_energy": 49.36, 
			 "cosmo_dispersion_energy": -33.1, 
			 "cosmo_repulsion_energy": 2.48, 
			 "cosmo_total_nonelectrostatic_energy": 18.74, 
			 "SMD_solvation_energy": 18.08 
		},
		"coords": [
			{
				"x": -2.8095357382,
				"y": 1.1376362909,
				"z": -1.5003159028,
				"element": "O" 
			},
			{
				"x": -1.9391111479,
				"y": 1.970573218,
				"z": -1.2629713695,
				"element": "N" 
			},
			{
				"x": -1.8274080215,
				"y": 2.6027356448,
				"z": -0.2173184087,
				"element": "O" 
			},
			{
				"x": -0.9896059453,
				"y": 2.2980068649,
				"z": -2.3506536207,
				"element": "C" 
			},
			{
				"x": -0.6277120454,
				"y": 3.6397252745,
				"z": -2.439036228,
				"element": "C" 
			},
			{
				"x": 0.1987482347,
				"y": 4.0636896176,
				"z": -3.4755768926,
				"element": "C" 
			},
			{
				"x": 0.6541356981,
				"y": 3.1368896416,
				"z": -4.4041850194,
				"element": "C" 
			},
			{
				"x": 0.2770171538,
				"y": 1.7980123484,
				"z": -4.2858301523,
				"element": "C" 
			},
			{
				"x": -0.5376448029,
				"y": 1.3124745443,
				"z": -3.2476672594,
				"element": "C" 
			},
			{
				"x": -0.8274604837,
				"y": -0.1593421787,
				"z": -3.0302533445,
				"element": "C" 
			},
			{
				"x": -0.5339685971,
				"y": -0.4383451587,
				"z": -1.6458418936,
				"element": "O" 
			},
			{
				"x": -1.1061959299,
				"y": -1.5579618485,
				"z": -1.1680495126,
				"element": "C" 
			},
			{
				"x": -1.7966857317,
				"y": -2.3307081678,
				"z": -1.7889395945,
				"element": "O" 
			},
			{
				"x": -0.7633548278,
				"y": -1.6614442508,
				"z": 0.1271999818,
				"element": "O" 
			},
			{
				"x": -1.2578122779,
				"y": -2.8519562739,
				"z": 0.7748347118,
				"element": "C" 
			},
			{
				"x": -0.4821717644,
				"y": -2.9978088042,
				"z": 2.0676017124,
				"element": "C" 
			},
			{
				"x": 0.9223679281,
				"y": -3.0968248018,
				"z": 2.0828687709,
				"element": "C" 
			},
			{
				"x": 1.6701904507,
				"y": -3.2238308704,
				"z": 3.2508417845,
				"element": "C" 
			},
			{
				"x": 1.0184940547,
				"y": -3.3204994855,
				"z": 4.476442683,
				"element": "C" 
			},
			{
				"x": -0.3684671006,
				"y": -3.258087325,
				"z": 4.5164531341,
				"element": "C" 
			},
			{
				"x": -1.0862819639,
				"y": -3.0663586141,
				"z": 3.3342450994,
				"element": "C" 
			},
			{
				"x": -2.5514253435,
				"y": -2.9290215742,
				"z": 3.5194716042,
				"element": "N" 
			},
			{
				"x": -3.0623522382,
				"y": -3.6432703986,
				"z": 4.378378646,
				"element": "O" 
			},
			{
				"x": -3.1491312916,
				"y": -2.0943543854,
				"z": 2.845517571,
				"element": "O" 
			},
			{
				"x": 1.7137040308,
				"y": -3.0886231606,
				"z": 0.8303042227,
				"element": "N" 
			},
			{
				"x": 2.8118243608,
				"y": -2.5428100495,
				"z": 0.8772478396,
				"element": "O" 
			},
			{
				"x": 1.2507413385,
				"y": -3.6614266668,
				"z": -0.1522458457,
				"element": "O" 
			},
			{
				"x": 0.77113049,
				"y": 0.9056261991,
				"z": -5.3541435931,
				"element": "N" 
			},
			{
				"x": 1.8476935647,
				"y": 1.1905618206,
				"z": -5.8717882613,
				"element": "O" 
			},
			{
				"x": 0.0565417769,
				"y": -0.0409641348,
				"z": -5.6840610885,
				"element": "O" 
			},
			{
				"x": -1.0039960601,
				"y": 4.3292725277,
				"z": -1.6933396852,
				"element": "H" 
			},
			{
				"x": 0.4793861557,
				"y": 5.1077165275,
				"z": -3.5602287575,
				"element": "H" 
			},
			{
				"x": 1.3012205892,
				"y": 3.4218933674,
				"z": -5.2243044721,
				"element": "H" 
			},
			{
				"x": -0.1996514287,
				"y": -0.7877113611,
				"z": -3.6565237161,
				"element": "H" 
			},
			{
				"x": -1.8708049899,
				"y": -0.3949534429,
				"z": -3.2453545565,
				"element": "H" 
			},
			{
				"x": -1.0818746725,
				"y": -3.7134745185,
				"z": 0.1307796707,
				"element": "H" 
			},
			{
				"x": -2.3225675865,
				"y": -2.7425315255,
				"z": 0.9561716032,
				"element": "H" 
			},
			{
				"x": 2.7501840987,
				"y": -3.2557979813,
				"z": 3.1773209004,
				"element": "H" 
			},
			{
				"x": 1.5878650122,
				"y": -3.4420722761,
				"z": 5.3913336184,
				"element": "H" 
			},
			{
				"x": -0.9134249486,
				"y": -3.3374346324,
				"z": 5.4489156205,
				"element": "H" 
			}
		],
		 "valence_orbital": [ 
			{
				"type": "occ",
				"energy": -0.30601,
				"method": "rhf"
			},
			{
				"type": "occ",
				"energy": -0.29806,
				"method": "rhf"
			},
			{
				"type": "occ",
				"energy": -0.29576,
				"method": "rhf"
			},
			{
				"type": "occ",
				"energy": -0.29416,
				"method": "rhf"
			},
			{
				"type": "occ",
				"energy": -0.29097,
				"method": "rhf"
			},
			{
				"type": "unocc",
				"energy": -0.10832,
				"method": "rhf"
			},
			{
				"type": "unocc",
				"energy": -0.1081,
				"method": "rhf"
			},
			{
				"type": "unocc",
				"energy": -0.10495,
				"method": "rhf"
			},
			{
				"type": "unocc",
				"energy": -0.10314,
				"method": "rhf"
			},
			{
				"type": "unocc",
				"energy": -0.04746,
				"method": "rhf"
			}
		],
		"cosmo_sigma_profile": { 
			"-0.025": 0.0,
			"-0.024": 0.0,
			"-0.023": 0.0,
			"-0.022": 0.0,
			"-0.021": 0.0,
			"-0.02": 0.0,
			"-0.019": 0.0,
			"-0.018": 0.0,
			"-0.017": 0.0,
			"-0.016": 0.0,
			"-0.015": 0.0,
			"-0.014": 0.0,
			"-0.013": 0.047914732071,
			"-0.012": 0.823263768864,
			"-0.011": 1.39617674438,
			"-0.01": 2.20206290651,
			"-0.009": 15.0762557913,
			"-0.008": 22.4290538672,
			"-0.007": 19.2298430994,
			"-0.006": 16.8711048014,
			"-0.005": 16.7945982359,
			"-0.004": 19.9633571414,
			"-0.003": 29.4035268086,
			"-0.002": 29.0996486028,
			"-0.001": 32.1235386615,
			"0.0": 19.946504549,
			"0.001": 15.5885354857,
			"0.002": 15.6977571777,
			"0.003": 13.41633209,
			"0.004": 14.3042185729,
			"0.005": 16.7426904802,
			"0.006": 31.2728039349,
			"0.007": 31.1195750662,
			"0.008": 17.2828494566,
			"0.009": 10.4053906549,
			"0.01": 3.39804034523,
			"0.011": 3.14657389847,
			"0.012": 0.0,
			"0.013": 0.0,
			"0.014": 0.0,
			"0.015": 0.0,
			"0.016": 0.0,
			"0.017": 0.0,
			"0.018": 0.0,
			"0.019": 0.0,
			"0.02": 0.0,
			"0.021": 0.0,
			"0.022": 0.0,
			"0.023": 0.0,
			"0.024": 0.0,
			"0.025": 0.0
		}
	}
}
