{
	 "smiles": "NC(=O)C1=CC(F)=C(F)C(F)=C1F", 
	 "Tm": 406.15, 
	 "num_atms": 16, 
	 "gaussian": { 
		 "optdone": 1, 
		 "sigma_profile": "yes", 
		 "theory": "DFT", 
		 "functional": "B3LYP", 
		 "basiset": "6-31G**", 
		 "properties": { 
			 "R2extent": 2883.7018, 
			 "electric_dipole_moment_norm": 2.52291066429, 
			 "electric_quadrupole_moment_norm": 9.39768217115, 
			 "total_energy": -797.859408557, 
			 "HOMO_LUMO_gap": 0.20944, 
			 "cosmo_polarized_energy": -9.51, 
			 "cosmo_cavitation_energy": 23.13, 
			 "cosmo_dispersion_energy": -16.77, 
			 "cosmo_repulsion_energy": 1.24, 
			 "cosmo_total_nonelectrostatic_energy": 7.6, 
			 "SMD_solvation_energy": 6.65 
		},
		"coords": [
			{
				"x": -0.4052168069,
				"y": -1.9575464716,
				"z": 2.1068481194,
				"element": "N" 
			},
			{
				"x": 0.0756802254,
				"y": -0.8315871305,
				"z": 1.5161174997,
				"element": "C" 
			},
			{
				"x": 0.6190891211,
				"y": 0.0643927512,
				"z": 2.1506265824,
				"element": "O" 
			},
			{
				"x": -0.0824133982,
				"y": -0.7109360296,
				"z": 0.0151375681,
				"element": "C" 
			},
			{
				"x": 0.4241086754,
				"y": 0.4642525441,
				"z": -0.5603323348,
				"element": "C" 
			},
			{
				"x": 0.3354381349,
				"y": 0.6829304644,
				"z": -1.9222645506,
				"element": "C" 
			},
			{
				"x": 0.8185510207,
				"y": 1.804893322,
				"z": -2.4746108258,
				"element": "F" 
			},
			{
				"x": -0.261346212,
				"y": -0.2620145952,
				"z": -2.7598264509,
				"element": "C" 
			},
			{
				"x": -0.3487412929,
				"y": -0.0544270064,
				"z": -4.0746561167,
				"element": "F" 
			},
			{
				"x": -0.7689692203,
				"y": -1.4331503645,
				"z": -2.206343019,
				"element": "C" 
			},
			{
				"x": -1.3436197091,
				"y": -2.3490540344,
				"z": -2.9923840747,
				"element": "F" 
			},
			{
				"x": -0.6766210214,
				"y": -1.6480583866,
				"z": -0.832032497,
				"element": "C" 
			},
			{
				"x": -1.1937982912,
				"y": -2.8116500964,
				"z": -0.370099314,
				"element": "F" 
			},
			{
				"x": -0.2965034648,
				"y": -2.0306179506,
				"z": 3.1065649808,
				"element": "H" 
			},
			{
				"x": -0.8522996071,
				"y": -2.69535558,
				"z": 1.5891237562,
				"element": "H" 
			},
			{
				"x": 0.8865618464,
				"y": 1.1952285641,
				"z": 0.0927306771,
				"element": "H" 
			}
		],
		 "valence_orbital": [ 
			{
				"type": "occ",
				"energy": -0.36162,
				"method": "rhf"
			},
			{
				"type": "occ",
				"energy": -0.281,
				"method": "rhf"
			},
			{
				"type": "occ",
				"energy": -0.27254,
				"method": "rhf"
			},
			{
				"type": "occ",
				"energy": -0.27078,
				"method": "rhf"
			},
			{
				"type": "occ",
				"energy": -0.26671,
				"method": "rhf"
			},
			{
				"type": "unocc",
				"energy": -0.05727,
				"method": "rhf"
			},
			{
				"type": "unocc",
				"energy": -0.0239,
				"method": "rhf"
			},
			{
				"type": "unocc",
				"energy": 0.02145,
				"method": "rhf"
			},
			{
				"type": "unocc",
				"energy": 0.05298,
				"method": "rhf"
			},
			{
				"type": "unocc",
				"energy": 0.08307,
				"method": "rhf"
			}
		],
		"cosmo_sigma_profile": { 
			"-0.025": 0.0,
			"-0.024": 0.0,
			"-0.023": 0.0,
			"-0.022": 0.0,
			"-0.021": 0.0,
			"-0.02": 0.0,
			"-0.019": 0.0,
			"-0.018": 0.0,
			"-0.017": 0.0,
			"-0.016": 0.0,
			"-0.015": 0.30093187222,
			"-0.014": 1.05751779867,
			"-0.013": 1.56715318705,
			"-0.012": 2.1529509527,
			"-0.011": 1.5795009537,
			"-0.01": 1.86386984945,
			"-0.009": 2.06116555078,
			"-0.008": 2.25548539183,
			"-0.007": 2.51460474151,
			"-0.006": 2.94250338464,
			"-0.005": 4.26985526808,
			"-0.004": 14.7799465556,
			"-0.003": 17.8756112944,
			"-0.002": 15.5634544835,
			"-0.001": 12.8514149933,
			"0.0": 14.328619085,
			"0.001": 13.3726846959,
			"0.002": 30.7446507388,
			"0.003": 23.9095524093,
			"0.004": 2.32056107919,
			"0.005": 1.83638171073,
			"0.006": 1.16462988981,
			"0.007": 1.14095323502,
			"0.008": 1.63980860291,
			"0.009": 0.988771901561,
			"0.01": 1.67344507431,
			"0.011": 1.63216133503,
			"0.012": 2.92766566988,
			"0.013": 4.78089328555,
			"0.014": 1.14606436661,
			"0.015": 0.0,
			"0.016": 0.0,
			"0.017": 0.0,
			"0.018": 0.0,
			"0.019": 0.0,
			"0.02": 0.0,
			"0.021": 0.0,
			"0.022": 0.0,
			"0.023": 0.0,
			"0.024": 0.0,
			"0.025": 0.0
		}
	}
}
