{
	 "smiles": "CN1N=NN=C1SCC(=O)NC1=CC=C(C=C1)C(O)=O", 
	 "Tm": 464.15, 
	 "num_atms": 31, 
	 "gaussian": { 
		 "optdone": 1, 
		 "sigma_profile": "yes", 
		 "theory": "DFT", 
		 "functional": "B3LYP", 
		 "basiset": "6-31G**", 
		 "properties": { 
			 "R2extent": 9641.7569, 
			 "electric_dipole_moment_norm": 6.75163701705, 
			 "electric_quadrupole_moment_norm": 30.0221255903, 
			 "total_energy": -1323.37447395, 
			 "HOMO_LUMO_gap": 0.18509, 
			 "cosmo_polarized_energy": -32.15, 
			 "cosmo_cavitation_energy": 38.94, 
			 "cosmo_dispersion_energy": -28.3, 
			 "cosmo_repulsion_energy": 2.12, 
			 "cosmo_total_nonelectrostatic_energy": 12.76, 
			 "SMD_solvation_energy": 6.37 
		},
		"coords": [
			{
				"x": 1.4582689127,
				"y": -4.3676290089,
				"z": -3.7490210899,
				"element": "C" 
			},
			{
				"x": 1.0339933162,
				"y": -2.9792155758,
				"z": -3.7117856599,
				"element": "N" 
			},
			{
				"x": 0.9383449825,
				"y": -2.2298545434,
				"z": -4.8452969437,
				"element": "N" 
			},
			{
				"x": 0.5415186188,
				"y": -1.0603367041,
				"z": -4.480910435,
				"element": "N" 
			},
			{
				"x": 0.364060485,
				"y": -0.9927123843,
				"z": -3.1314018583,
				"element": "N" 
			},
			{
				"x": 0.6759987038,
				"y": -2.1952341978,
				"z": -2.669791464,
				"element": "C" 
			},
			{
				"x": 0.6476789297,
				"y": -2.754225214,
				"z": -1.0051065976,
				"element": "S" 
			},
			{
				"x": 0.0937325684,
				"y": -1.1673472111,
				"z": -0.2673995926,
				"element": "C" 
			},
			{
				"x": 0.0716504927,
				"y": -1.3557575125,
				"z": 1.2375742461,
				"element": "C" 
			},
			{
				"x": 0.1613990294,
				"y": -2.4641452215,
				"z": 1.7462594192,
				"element": "O" 
			},
			{
				"x": -0.0410724839,
				"y": -0.2419045976,
				"z": 2.0484757211,
				"element": "N" 
			},
			{
				"x": -0.0593776868,
				"y": 1.145306909,
				"z": 1.8060256607,
				"element": "C" 
			},
			{
				"x": -0.5602430904,
				"y": 1.7352990131,
				"z": 0.6332390798,
				"element": "C" 
			},
			{
				"x": -0.5523045773,
				"y": 3.1183983306,
				"z": 0.4923584652,
				"element": "C" 
			},
			{
				"x": -0.0553970932,
				"y": 3.9502365966,
				"z": 1.5030466391,
				"element": "C" 
			},
			{
				"x": 0.4090671375,
				"y": 3.3594612778,
				"z": 2.6869356735,
				"element": "C" 
			},
			{
				"x": 0.4104344948,
				"y": 1.9787347922,
				"z": 2.836319014,
				"element": "C" 
			},
			{
				"x": -0.1019864053,
				"y": 5.4299397003,
				"z": 1.2793174679,
				"element": "C" 
			},
			{
				"x": 0.7116479234,
				"y": 6.1944378974,
				"z": 2.0577167,
				"element": "O" 
			},
			{
				"x": -0.8176473969,
				"y": 5.9528310852,
				"z": 0.4581677777,
				"element": "O" 
			},
			{
				"x": 0.6700267996,
				"y": -5.0181108005,
				"z": -3.3599808466,
				"element": "H" 
			},
			{
				"x": 2.368004282,
				"y": -4.5044816333,
				"z": -3.157901906,
				"element": "H" 
			},
			{
				"x": 1.6572570947,
				"y": -4.6155596641,
				"z": -4.7910624691,
				"element": "H" 
			},
			{
				"x": -0.9044069298,
				"y": -0.9373517079,
				"z": -0.6490295563,
				"element": "H" 
			},
			{
				"x": 0.7607887923,
				"y": -0.3621090131,
				"z": -0.581407634,
				"element": "H" 
			},
			{
				"x": 0.0366250849,
				"y": -0.5140642566,
				"z": 3.0219714342,
				"element": "H" 
			},
			{
				"x": -0.9806783903,
				"y": 1.1338150222,
				"z": -0.1612544436,
				"element": "H" 
			},
			{
				"x": -0.9485541037,
				"y": 3.5785595514,
				"z": -0.4062476009,
				"element": "H" 
			},
			{
				"x": 0.7473176408,
				"y": 3.9690934075,
				"z": 3.5210919954,
				"element": "H" 
			},
			{
				"x": 0.7788160957,
				"y": 1.5349747016,
				"z": 3.7571768401,
				"element": "H" 
			},
			{
				"x": 1.3471367728,
				"y": 5.6383509615,
				"z": 2.5287219635,
				"element": "H" 
			}
		],
		 "valence_orbital": [ 
			{
				"type": "occ",
				"energy": -0.28825,
				"method": "rhf"
			},
			{
				"type": "occ",
				"energy": -0.28679,
				"method": "rhf"
			},
			{
				"type": "occ",
				"energy": -0.27925,
				"method": "rhf"
			},
			{
				"type": "occ",
				"energy": -0.25515,
				"method": "rhf"
			},
			{
				"type": "occ",
				"energy": -0.25012,
				"method": "rhf"
			},
			{
				"type": "unocc",
				"energy": -0.06503,
				"method": "rhf"
			},
			{
				"type": "unocc",
				"energy": -0.0395,
				"method": "rhf"
			},
			{
				"type": "unocc",
				"energy": -0.01616,
				"method": "rhf"
			},
			{
				"type": "unocc",
				"energy": -0.00945,
				"method": "rhf"
			},
			{
				"type": "unocc",
				"energy": 0.00012,
				"method": "rhf"
			}
		],
		"cosmo_sigma_profile": { 
			"-0.025": 0.0,
			"-0.024": 0.0,
			"-0.023": 0.0,
			"-0.022": 0.0,
			"-0.021": 0.0,
			"-0.02": 0.0,
			"-0.019": 0.223876896204,
			"-0.018": 0.930969455965,
			"-0.017": 1.158616549,
			"-0.016": 1.17953291263,
			"-0.015": 1.71340883334,
			"-0.014": 1.98566669871,
			"-0.013": 2.49029418359,
			"-0.012": 2.62439292251,
			"-0.011": 3.6325522698,
			"-0.01": 4.66674152632,
			"-0.009": 5.29864227344,
			"-0.008": 12.8807461948,
			"-0.007": 17.7661267544,
			"-0.006": 18.3024311145,
			"-0.005": 19.9143842072,
			"-0.004": 18.0095013912,
			"-0.003": 15.6579436167,
			"-0.002": 15.5875262797,
			"-0.001": 14.5585625594,
			"0.0": 13.1741307464,
			"0.001": 14.98949383,
			"0.002": 20.0481534514,
			"0.003": 13.122759615,
			"0.004": 8.38764776091,
			"0.005": 9.26954673691,
			"0.006": 7.7105505656,
			"0.007": 8.25725296926,
			"0.008": 9.73973556807,
			"0.009": 8.81093442142,
			"0.01": 12.4505613205,
			"0.011": 12.7481881906,
			"0.012": 11.8334805066,
			"0.013": 4.00535970052,
			"0.014": 0.721303477252,
			"0.015": 0.0,
			"0.016": 0.0,
			"0.017": 0.0,
			"0.018": 0.0,
			"0.019": 0.0,
			"0.02": 0.0,
			"0.021": 0.0,
			"0.022": 0.0,
			"0.023": 0.0,
			"0.024": 0.0,
			"0.025": 0.0
		}
	}
}
