{
	 "smiles": "CCCCCCCCCCCC[Si](OC)(OC)OC", 
	 "Tm": 233.15, 
	 "num_atms": 53, 
	 "gaussian": { 
		 "optdone": 1, 
		 "sigma_profile": "yes", 
		 "theory": "DFT", 
		 "functional": "B3LYP", 
		 "basiset": "6-31G**", 
		 "properties": { 
			 "R2extent": 13614.5763, 
			 "electric_dipole_moment_norm": 1.13086153883, 
			 "electric_quadrupole_moment_norm": 13.5341374206, 
			 "total_energy": -1107.40046859, 
			 "HOMO_LUMO_gap": 0.32842, 
			 "cosmo_polarized_energy": -9.02, 
			 "cosmo_cavitation_energy": 54.52, 
			 "cosmo_dispersion_energy": -33.96, 
			 "cosmo_repulsion_energy": 2.83, 
			 "cosmo_total_nonelectrostatic_energy": 23.39, 
			 "SMD_solvation_energy": 9.19 
		},
		"coords": [
			{
				"x": 4.9309366534,
				"y": -1.7611498124,
				"z": 5.6855382155,
				"element": "C" 
			},
			{
				"x": 3.7978209587,
				"y": -2.537227142,
				"z": 5.0033078672,
				"element": "C" 
			},
			{
				"x": 2.9963784936,
				"y": -1.7226869484,
				"z": 3.9742289004,
				"element": "C" 
			},
			{
				"x": 3.791506542,
				"y": -1.2945119985,
				"z": 2.732848942,
				"element": "C" 
			},
			{
				"x": 2.9425989054,
				"y": -0.5419471083,
				"z": 1.6992507481,
				"element": "C" 
			},
			{
				"x": 3.7465619761,
				"y": -0.0945866878,
				"z": 0.4684232273,
				"element": "C" 
			},
			{
				"x": 2.9656205641,
				"y": 0.7178735851,
				"z": -0.5879522792,
				"element": "C" 
			},
			{
				"x": 2.2694341529,
				"y": -0.0935324045,
				"z": -1.6984617378,
				"element": "C" 
			},
			{
				"x": 1.1017945034,
				"y": -1.0089856838,
				"z": -1.2860028809,
				"element": "C" 
			},
			{
				"x": -0.1064691729,
				"y": -0.3098743992,
				"z": -0.6389066095,
				"element": "C" 
			},
			{
				"x": -0.8234829214,
				"y": 0.7009677714,
				"z": -1.5460341395,
				"element": "C" 
			},
			{
				"x": -2.0802589464,
				"y": 1.3105969257,
				"z": -0.8936307906,
				"element": "C" 
			},
			{
				"x": -2.979197257,
				"y": 2.5592578391,
				"z": -1.9596222926,
				"element": "Si" 
			},
			{
				"x": -3.4572356883,
				"y": 1.9479870856,
				"z": -3.4219348444,
				"element": "O" 
			},
			{
				"x": -4.292268241,
				"y": 0.8085954113,
				"z": -3.5541079918,
				"element": "C" 
			},
			{
				"x": -2.0239559614,
				"y": 3.8318452822,
				"z": -2.4170512716,
				"element": "O" 
			},
			{
				"x": -1.3641978582,
				"y": 4.6808390291,
				"z": -1.4914012451,
				"element": "C" 
			},
			{
				"x": -4.2768066234,
				"y": 3.0642707083,
				"z": -1.0559682775,
				"element": "O" 
			},
			{
				"x": -5.2216501821,
				"y": 4.0243667569,
				"z": -1.5165697048,
				"element": "C" 
			},
			{
				"x": 5.4295591469,
				"y": -2.3757771815,
				"z": 6.4423869076,
				"element": "H" 
			},
			{
				"x": 4.5479369357,
				"y": -0.8641757405,
				"z": 6.1865177031,
				"element": "H" 
			},
			{
				"x": 5.6949912128,
				"y": -1.4392067954,
				"z": 4.9705812925,
				"element": "H" 
			},
			{
				"x": 3.1072503169,
				"y": -2.9061956825,
				"z": 5.7725610203,
				"element": "H" 
			},
			{
				"x": 4.2099799112,
				"y": -3.4304996771,
				"z": 4.5137912853,
				"element": "H" 
			},
			{
				"x": 2.5818951801,
				"y": -0.8298229503,
				"z": 4.4646984873,
				"element": "H" 
			},
			{
				"x": 2.1314429378,
				"y": -2.3176734922,
				"z": 3.6502012578,
				"element": "H" 
			},
			{
				"x": 4.2313893142,
				"y": -2.1856330147,
				"z": 2.261468279,
				"element": "H" 
			},
			{
				"x": 4.6373863847,
				"y": -0.6600706751,
				"z": 3.0293403231,
				"element": "H" 
			},
			{
				"x": 2.4975487506,
				"y": 0.3441578776,
				"z": 2.1747792967,
				"element": "H" 
			},
			{
				"x": 2.1005478658,
				"y": -1.1768264058,
				"z": 1.3977450001,
				"element": "H" 
			},
			{
				"x": 4.201102592,
				"y": -0.9731080197,
				"z": -0.0121254261,
				"element": "H" 
			},
			{
				"x": 4.5881416995,
				"y": 0.5146494711,
				"z": 0.8250335606,
				"element": "H" 
			},
			{
				"x": 3.6689491279,
				"y": 1.396537922,
				"z": -1.086889269,
				"element": "H" 
			},
			{
				"x": 2.2405834358,
				"y": 1.3704053488,
				"z": -0.0823482303,
				"element": "H" 
			},
			{
				"x": 3.0282516956,
				"y": -0.7122858482,
				"z": -2.1970501456,
				"element": "H" 
			},
			{
				"x": 1.9161164134,
				"y": 0.6097024266,
				"z": -2.4635579567,
				"element": "H" 
			},
			{
				"x": 1.4688889565,
				"y": -1.7866833888,
				"z": -0.605001091,
				"element": "H" 
			},
			{
				"x": 0.756758338,
				"y": -1.542195553,
				"z": -2.1829509146,
				"element": "H" 
			},
			{
				"x": 0.2008012314,
				"y": 0.1941862651,
				"z": 0.2871357832,
				"element": "H" 
			},
			{
				"x": -0.828906808,
				"y": -1.0788156221,
				"z": -0.3319285736,
				"element": "H" 
			},
			{
				"x": -0.1352760633,
				"y": 1.507912179,
				"z": -1.8261614475,
				"element": "H" 
			},
			{
				"x": -1.1002804832,
				"y": 0.2094129379,
				"z": -2.4887283955,
				"element": "H" 
			},
			{
				"x": -1.8130611698,
				"y": 1.7961805218,
				"z": 0.0553293215,
				"element": "H" 
			},
			{
				"x": -2.785723135,
				"y": 0.5147482169,
				"z": -0.6173167918,
				"element": "H" 
			},
			{
				"x": -5.2452854956,
				"y": 0.9334849018,
				"z": -3.0232409418,
				"element": "H" 
			},
			{
				"x": -4.5060197867,
				"y": 0.6647764317,
				"z": -4.6171938961,
				"element": "H" 
			},
			{
				"x": -3.8037029907,
				"y": -0.1001332357,
				"z": -3.1769775919,
				"element": "H" 
			},
			{
				"x": -0.5911981138,
				"y": 4.1429290766,
				"z": -0.9257667619,
				"element": "H" 
			},
			{
				"x": -2.064064435,
				"y": 5.1320114561,
				"z": -0.7756381496,
				"element": "H" 
			},
			{
				"x": -0.87885933,
				"y": 5.484631466,
				"z": -2.0525746122,
				"element": "H" 
			},
			{
				"x": -5.9833880236,
				"y": 4.1519273599,
				"z": -0.7420192131,
				"element": "H" 
			},
			{
				"x": -4.7480496982,
				"y": 4.9954709548,
				"z": -1.706300921,
				"element": "H" 
			},
			{
				"x": -5.7122358112,
				"y": 3.695580259,
				"z": -2.4409530239,
				"element": "H" 
			}
		],
		 "valence_orbital": [ 
			{
				"type": "occ",
				"energy": -0.2921,
				"method": "rhf"
			},
			{
				"type": "occ",
				"energy": -0.28481,
				"method": "rhf"
			},
			{
				"type": "occ",
				"energy": -0.28395,
				"method": "rhf"
			},
			{
				"type": "occ",
				"energy": -0.27074,
				"method": "rhf"
			},
			{
				"type": "occ",
				"energy": -0.27061,
				"method": "rhf"
			},
			{
				"type": "unocc",
				"energy": 0.05781,
				"method": "rhf"
			},
			{
				"type": "unocc",
				"energy": 0.07799,
				"method": "rhf"
			},
			{
				"type": "unocc",
				"energy": 0.08439,
				"method": "rhf"
			},
			{
				"type": "unocc",
				"energy": 0.0889,
				"method": "rhf"
			},
			{
				"type": "unocc",
				"energy": 0.09359,
				"method": "rhf"
			}
		],
		"cosmo_sigma_profile": { 
			"-0.025": 0.0,
			"-0.024": 0.0,
			"-0.023": 0.0,
			"-0.022": 0.0,
			"-0.021": 0.0,
			"-0.02": 0.0,
			"-0.019": 0.0,
			"-0.018": 0.0,
			"-0.017": 0.0,
			"-0.016": 0.0,
			"-0.015": 0.0,
			"-0.014": 0.0,
			"-0.013": 0.0,
			"-0.012": 0.0,
			"-0.011": 0.0,
			"-0.01": 0.0,
			"-0.009": 0.0,
			"-0.008": 0.0,
			"-0.007": 0.0,
			"-0.006": 0.0065717067818,
			"-0.005": 5.91630845554,
			"-0.004": 24.5102245826,
			"-0.003": 37.4582957244,
			"-0.002": 63.8549666807,
			"-0.001": 75.4324802082,
			"0.0": 78.236033617,
			"0.001": 59.9404523161,
			"0.002": 29.3217742907,
			"0.003": 5.11271232778,
			"0.004": 2.95506426309,
			"0.005": 3.06781512458,
			"0.006": 2.51943808411,
			"0.007": 2.86366337959,
			"0.008": 3.58394914323,
			"0.009": 2.34146280973,
			"0.01": 1.97467803172,
			"0.011": 2.80192573842,
			"0.012": 3.09907144127,
			"0.013": 3.96025454159,
			"0.014": 3.3178020254,
			"0.015": 0.514557316473,
			"0.016": 0.0,
			"0.017": 0.0,
			"0.018": 0.0,
			"0.019": 0.0,
			"0.02": 0.0,
			"0.021": 0.0,
			"0.022": 0.0,
			"0.023": 0.0,
			"0.024": 0.0,
			"0.025": 0.0
		}
	}
}
