{
	 "smiles": "CCCCCCCC=C", 
	 "Tm": 191.05, 
	 "num_atms": 27, 
	 "gaussian": { 
		 "optdone": 1, 
		 "sigma_profile": "yes", 
		 "theory": "DFT", 
		 "functional": "B3LYP", 
		 "basiset": "6-31G**", 
		 "properties": { 
			 "R2extent": 2611.8588, 
			 "electric_dipole_moment_norm": 0.370849996629, 
			 "electric_quadrupole_moment_norm": 2.0699897077, 
			 "total_energy": -353.804715729, 
			 "HOMO_LUMO_gap": 0.27236, 
			 "cosmo_polarized_energy": -1.69, 
			 "cosmo_cavitation_energy": 28.33, 
			 "cosmo_dispersion_energy": -19.83, 
			 "cosmo_repulsion_energy": 1.67, 
			 "cosmo_total_nonelectrostatic_energy": 10.17, 
			 "SMD_solvation_energy": 4.88 
		},
		"coords": [
			{
				"x": -3.1293526034,
				"y": -1.6460553034,
				"z": 0.4926642885,
				"element": "C" 
			},
			{
				"x": -2.4756541136,
				"y": -1.0615081309,
				"z": 1.7503567182,
				"element": "C" 
			},
			{
				"x": -2.3266035295,
				"y": 0.4703495581,
				"z": 1.7342576532,
				"element": "C" 
			},
			{
				"x": -1.4234999199,
				"y": 1.0477134181,
				"z": 0.6301505544,
				"element": "C" 
			},
			{
				"x": 0.0491162201,
				"y": 0.6222480553,
				"z": 0.7188612574,
				"element": "C" 
			},
			{
				"x": 0.9277399264,
				"y": 1.2960722571,
				"z": -0.344266177,
				"element": "C" 
			},
			{
				"x": 2.4039936359,
				"y": 0.8416789669,
				"z": -0.3457168066,
				"element": "C" 
			},
			{
				"x": 3.1626181821,
				"y": 1.1970817763,
				"z": 0.9054196887,
				"element": "C" 
			},
			{
				"x": 4.1987783169,
				"y": 2.0352262178,
				"z": 0.9572053002,
				"element": "C" 
			},
			{
				"x": -2.5238922515,
				"y": -1.4705893941,
				"z": -0.4027825936,
				"element": "H" 
			},
			{
				"x": -4.1152204934,
				"y": -1.1998496374,
				"z": 0.3163216417,
				"element": "H" 
			},
			{
				"x": -3.2671993989,
				"y": -2.7283219032,
				"z": 0.5866741742,
				"element": "H" 
			},
			{
				"x": -3.0773376321,
				"y": -1.3381710099,
				"z": 2.6256501101,
				"element": "H" 
			},
			{
				"x": -1.4952395629,
				"y": -1.5302732371,
				"z": 1.9039070912,
				"element": "H" 
			},
			{
				"x": -1.9412447294,
				"y": 0.7967500829,
				"z": 2.7100869326,
				"element": "H" 
			},
			{
				"x": -3.3256320668,
				"y": 0.9177827678,
				"z": 1.6388306883,
				"element": "H" 
			},
			{
				"x": -1.8198313089,
				"y": 0.7768162071,
				"z": -0.3577434914,
				"element": "H" 
			},
			{
				"x": -1.4761580767,
				"y": 2.1438183393,
				"z": 0.6800255187,
				"element": "H" 
			},
			{
				"x": 0.1320805681,
				"y": -0.4679159326,
				"z": 0.6108268727,
				"element": "H" 
			},
			{
				"x": 0.4282218815,
				"y": 0.8596253692,
				"z": 1.7220662248,
				"element": "H" 
			},
			{
				"x": 0.503839981,
				"y": 1.090577172,
				"z": -1.3366740622,
				"element": "H" 
			},
			{
				"x": 0.8906463641,
				"y": 2.3855746464,
				"z": -0.2125791905,
				"element": "H" 
			},
			{
				"x": 2.4318590232,
				"y": -0.2490176169,
				"z": -0.4893346964,
				"element": "H" 
			},
			{
				"x": 2.9134782295,
				"y": 1.2832808408,
				"z": -1.2107046822,
				"element": "H" 
			},
			{
				"x": 2.8229450815,
				"y": 0.7279587731,
				"z": 1.8291262741,
				"element": "H" 
			},
			{
				"x": 4.7076543588,
				"y": 2.2611281469,
				"z": 1.8899230967,
				"element": "H" 
			},
			{
				"x": 4.5798939179,
				"y": 2.5256195705,
				"z": 0.0638476141,
				"element": "H" 
			}
		],
		 "valence_orbital": [ 
			{
				"type": "occ",
				"energy": -0.31968,
				"method": "rhf"
			},
			{
				"type": "occ",
				"energy": -0.31254,
				"method": "rhf"
			},
			{
				"type": "occ",
				"energy": -0.30867,
				"method": "rhf"
			},
			{
				"type": "occ",
				"energy": -0.30415,
				"method": "rhf"
			},
			{
				"type": "occ",
				"energy": -0.24929,
				"method": "rhf"
			},
			{
				"type": "unocc",
				"energy": 0.02307,
				"method": "rhf"
			},
			{
				"type": "unocc",
				"energy": 0.08379,
				"method": "rhf"
			},
			{
				"type": "unocc",
				"energy": 0.10846,
				"method": "rhf"
			},
			{
				"type": "unocc",
				"energy": 0.11315,
				"method": "rhf"
			},
			{
				"type": "unocc",
				"energy": 0.12003,
				"method": "rhf"
			}
		],
		"cosmo_sigma_profile": { 
			"-0.025": 0.0,
			"-0.024": 0.0,
			"-0.023": 0.0,
			"-0.022": 0.0,
			"-0.021": 0.0,
			"-0.02": 0.0,
			"-0.019": 0.0,
			"-0.018": 0.0,
			"-0.017": 0.0,
			"-0.016": 0.0,
			"-0.015": 0.0,
			"-0.014": 0.0,
			"-0.013": 0.0,
			"-0.012": 0.0,
			"-0.011": 0.0,
			"-0.01": 0.0,
			"-0.009": 0.0,
			"-0.008": 0.0,
			"-0.007": 0.0,
			"-0.006": 0.0,
			"-0.005": 0.821663925182,
			"-0.004": 4.8761963457,
			"-0.003": 10.5293567177,
			"-0.002": 32.9325447045,
			"-0.001": 44.5733059557,
			"0.0": 47.6658261012,
			"0.001": 40.902305103,
			"0.002": 17.1601061769,
			"0.003": 4.91134458152,
			"0.004": 4.08929619063,
			"0.005": 3.48060133742,
			"0.006": 2.98855806629,
			"0.007": 2.40478647679,
			"0.008": 0.936175870457,
			"0.009": 0.0,
			"0.01": 0.0,
			"0.011": 0.0,
			"0.012": 0.0,
			"0.013": 0.0,
			"0.014": 0.0,
			"0.015": 0.0,
			"0.016": 0.0,
			"0.017": 0.0,
			"0.018": 0.0,
			"0.019": 0.0,
			"0.02": 0.0,
			"0.021": 0.0,
			"0.022": 0.0,
			"0.023": 0.0,
			"0.024": 0.0,
			"0.025": 0.0
		}
	}
}
