{
	 "smiles": "CC(Cl)C1=CC(=CC=C1)[N+]([O-])=O", 
	 "Tm": 307.15, 
	 "num_atms": 20, 
	 "gaussian": { 
		 "optdone": 1, 
		 "sigma_profile": "yes", 
		 "theory": "DFT", 
		 "functional": "B3LYP", 
		 "basiset": "6-31G**", 
		 "properties": { 
			 "R2extent": 3390.0937, 
			 "electric_dipole_moment_norm": 3.83174582795, 
			 "electric_quadrupole_moment_norm": 18.0688000808, 
			 "total_energy": -974.975257704, 
			 "HOMO_LUMO_gap": 0.18359, 
			 "cosmo_polarized_energy": -10.0, 
			 "cosmo_cavitation_energy": 26.37, 
			 "cosmo_dispersion_energy": -19.03, 
			 "cosmo_repulsion_energy": 1.53, 
			 "cosmo_total_nonelectrostatic_energy": 8.86, 
			 "SMD_solvation_energy": 6.49 
		},
		"coords": [
			{
				"x": 0.3869095339,
				"y": 0.6153461865,
				"z": 3.0387034743,
				"element": "C" 
			},
			{
				"x": 0.7924262469,
				"y": -0.4156017755,
				"z": 1.9887617897,
				"element": "C" 
			},
			{
				"x": -0.3296019725,
				"y": -1.8728804788,
				"z": 2.1130270756,
				"element": "Cl" 
			},
			{
				"x": 0.7982275286,
				"y": 0.1222819116,
				"z": 0.5756346788,
				"element": "C" 
			},
			{
				"x": 2.0051189537,
				"y": 0.2085392596,
				"z": -0.1201586651,
				"element": "C" 
			},
			{
				"x": 2.0142182009,
				"y": 0.752353418,
				"z": -1.4036879067,
				"element": "C" 
			},
			{
				"x": 0.8573168794,
				"y": 1.2093415193,
				"z": -2.0267229137,
				"element": "C" 
			},
			{
				"x": -0.3469015792,
				"y": 1.1139170605,
				"z": -1.3291709017,
				"element": "C" 
			},
			{
				"x": -0.3768834731,
				"y": 0.5778147174,
				"z": -0.0426642519,
				"element": "C" 
			},
			{
				"x": 3.2958738991,
				"y": 0.8413482462,
				"z": -2.1248113304,
				"element": "N" 
			},
			{
				"x": 4.304019612,
				"y": 0.4349454931,
				"z": -1.5481373321,
				"element": "O" 
			},
			{
				"x": 3.2797078067,
				"y": 1.3183868157,
				"z": -3.2583928886,
				"element": "O" 
			},
			{
				"x": 0.4141031269,
				"y": 0.178337629,
				"z": 4.0395401269,
				"element": "H" 
			},
			{
				"x": -0.6210611547,
				"y": 0.9950841489,
				"z": 2.8525387173,
				"element": "H" 
			},
			{
				"x": 1.0844816048,
				"y": 1.459321881,
				"z": 3.0043604385,
				"element": "H" 
			},
			{
				"x": 1.7774170863,
				"y": -0.8219060059,
				"z": 2.2239495769,
				"element": "H" 
			},
			{
				"x": 2.9372763624,
				"y": -0.1366350802,
				"z": 0.3113143837,
				"element": "H" 
			},
			{
				"x": 0.9141271942,
				"y": 1.6198155829,
				"z": -3.0268635985,
				"element": "H" 
			},
			{
				"x": -1.2655821078,
				"y": 1.4570774591,
				"z": -1.7940623176,
				"element": "H" 
			},
			{
				"x": -1.3232937484,
				"y": 0.4926120117,
				"z": 0.4824418445,
				"element": "H" 
			}
		],
		 "valence_orbital": [ 
			{
				"type": "occ",
				"energy": -0.30955,
				"method": "rhf"
			},
			{
				"type": "occ",
				"energy": -0.3038,
				"method": "rhf"
			},
			{
				"type": "occ",
				"energy": -0.29566,
				"method": "rhf"
			},
			{
				"type": "occ",
				"energy": -0.28748,
				"method": "rhf"
			},
			{
				"type": "occ",
				"energy": -0.27825,
				"method": "rhf"
			},
			{
				"type": "unocc",
				"energy": -0.09466,
				"method": "rhf"
			},
			{
				"type": "unocc",
				"energy": -0.04224,
				"method": "rhf"
			},
			{
				"type": "unocc",
				"energy": -0.013,
				"method": "rhf"
			},
			{
				"type": "unocc",
				"energy": 0.02554,
				"method": "rhf"
			},
			{
				"type": "unocc",
				"energy": 0.07081,
				"method": "rhf"
			}
		],
		"cosmo_sigma_profile": { 
			"-0.025": 0.0,
			"-0.024": 0.0,
			"-0.023": 0.0,
			"-0.022": 0.0,
			"-0.021": 0.0,
			"-0.02": 0.0,
			"-0.019": 0.0,
			"-0.018": 0.0,
			"-0.017": 0.0,
			"-0.016": 0.0,
			"-0.015": 0.0,
			"-0.014": 0.0,
			"-0.013": 0.0,
			"-0.012": 0.0,
			"-0.011": 0.0,
			"-0.01": 0.334159255357,
			"-0.009": 1.76463948126,
			"-0.008": 4.78745002781,
			"-0.007": 9.02726443476,
			"-0.006": 12.4651551334,
			"-0.005": 14.6561915328,
			"-0.004": 14.324304712,
			"-0.003": 14.3455098639,
			"-0.002": 14.4543066279,
			"-0.001": 18.9034006515,
			"0.0": 16.2986816613,
			"0.001": 16.3845859655,
			"0.002": 12.3634789766,
			"0.003": 7.30270773738,
			"0.004": 8.31746365627,
			"0.005": 9.02626989359,
			"0.006": 12.583687905,
			"0.007": 10.8469037903,
			"0.008": 7.25616839413,
			"0.009": 4.38903070689,
			"0.01": 2.47740987028,
			"0.011": 0.0,
			"0.012": 0.0,
			"0.013": 0.0,
			"0.014": 0.0,
			"0.015": 0.0,
			"0.016": 0.0,
			"0.017": 0.0,
			"0.018": 0.0,
			"0.019": 0.0,
			"0.02": 0.0,
			"0.021": 0.0,
			"0.022": 0.0,
			"0.023": 0.0,
			"0.024": 0.0,
			"0.025": 0.0
		}
	}
}
