{
	 "smiles": "CCOC1=C(O)C(Cl)=CC(=C1)C(O)=O", 
	 "Tm": 478.15, 
	 "num_atms": 23, 
	 "gaussian": { 
		 "optdone": 1, 
		 "sigma_profile": "yes", 
		 "theory": "DFT", 
		 "functional": "B3LYP", 
		 "basiset": "6-31G**", 
		 "properties": { 
			 "R2extent": 4283.4247, 
			 "electric_dipole_moment_norm": 3.15098388761, 
			 "electric_quadrupole_moment_norm": 18.6708478442, 
			 "total_energy": -1109.48131712, 
			 "HOMO_LUMO_gap": 0.1813, 
			 "cosmo_polarized_energy": -12.76, 
			 "cosmo_cavitation_energy": 29.29, 
			 "cosmo_dispersion_energy": -21.53, 
			 "cosmo_repulsion_energy": 1.73, 
			 "cosmo_total_nonelectrostatic_energy": 9.49, 
			 "SMD_solvation_energy": 6.76 
		},
		"coords": [
			{
				"x": 2.4400995438,
				"y": -1.2879815033,
				"z": -0.6020230477,
				"element": "C" 
			},
			{
				"x": 2.2401635281,
				"y": -0.1487337787,
				"z": 0.3893465019,
				"element": "C" 
			},
			{
				"x": 1.5342497654,
				"y": 0.9623631616,
				"z": -0.1857103035,
				"element": "O" 
			},
			{
				"x": 0.1699213628,
				"y": 0.9102903598,
				"z": -0.3129250057,
				"element": "C" 
			},
			{
				"x": -0.3570178803,
				"y": 2.0540516991,
				"z": -0.9613685209,
				"element": "C" 
			},
			{
				"x": 0.472624451,
				"y": 3.0276647283,
				"z": -1.3884082975,
				"element": "O" 
			},
			{
				"x": -1.738870032,
				"y": 2.1522229425,
				"z": -1.1441706016,
				"element": "C" 
			},
			{
				"x": -2.3899659515,
				"y": 3.5650790828,
				"z": -1.9430792791,
				"element": "Cl" 
			},
			{
				"x": -2.5927922241,
				"y": 1.1442890131,
				"z": -0.699652678,
				"element": "C" 
			},
			{
				"x": -2.0578960267,
				"y": 0.0215389984,
				"z": -0.0636696547,
				"element": "C" 
			},
			{
				"x": -0.6701089896,
				"y": -0.0972591331,
				"z": 0.1306403534,
				"element": "C" 
			},
			{
				"x": -2.9098082905,
				"y": -1.0864102127,
				"z": 0.4273534128,
				"element": "C" 
			},
			{
				"x": -4.2326176654,
				"y": -0.884899768,
				"z": 0.2029605699,
				"element": "O" 
			},
			{
				"x": -2.4952571843,
				"y": -2.0886444518,
				"z": 0.9800025843,
				"element": "O" 
			},
			{
				"x": 2.9749426489,
				"y": -0.9338040335,
				"z": -1.4878486285,
				"element": "H" 
			},
			{
				"x": 3.0323192307,
				"y": -2.0826711667,
				"z": -0.1367471397,
				"element": "H" 
			},
			{
				"x": 1.4880834406,
				"y": -1.7179977388,
				"z": -0.9234940611,
				"element": "H" 
			},
			{
				"x": 1.7219433282,
				"y": -0.482630874,
				"z": 1.295794754,
				"element": "H" 
			},
			{
				"x": 3.20184545,
				"y": 0.2724004939,
				"z": 0.6936199768,
				"element": "H" 
			},
			{
				"x": 1.3733502584,
				"y": 2.7482966785,
				"z": -1.1553091157,
				"element": "H" 
			},
			{
				"x": -3.6604852548,
				"y": 1.2359160322,
				"z": -0.8509130994,
				"element": "H" 
			},
			{
				"x": -0.299725289,
				"y": -0.9859787376,
				"z": 0.6254021335,
				"element": "H" 
			},
			{
				"x": -4.6823982197,
				"y": -1.6663017919,
				"z": 0.5632991467,
				"element": "H" 
			}
		],
		 "valence_orbital": [ 
			{
				"type": "occ",
				"energy": -0.31199,
				"method": "rhf"
			},
			{
				"type": "occ",
				"energy": -0.31106,
				"method": "rhf"
			},
			{
				"type": "occ",
				"energy": -0.278,
				"method": "rhf"
			},
			{
				"type": "occ",
				"energy": -0.24416,
				"method": "rhf"
			},
			{
				"type": "occ",
				"energy": -0.22665,
				"method": "rhf"
			},
			{
				"type": "unocc",
				"energy": -0.04535,
				"method": "rhf"
			},
			{
				"type": "unocc",
				"energy": -0.00959,
				"method": "rhf"
			},
			{
				"type": "unocc",
				"energy": 0.02902,
				"method": "rhf"
			},
			{
				"type": "unocc",
				"energy": 0.06262,
				"method": "rhf"
			},
			{
				"type": "unocc",
				"energy": 0.07491,
				"method": "rhf"
			}
		],
		"cosmo_sigma_profile": { 
			"-0.025": 0.0,
			"-0.024": 0.0,
			"-0.023": 0.0,
			"-0.022": 0.0,
			"-0.021": 0.0,
			"-0.02": 0.0,
			"-0.019": 0.0521860549113,
			"-0.018": 0.705573700352,
			"-0.017": 0.958223690944,
			"-0.016": 0.880560721,
			"-0.015": 1.27288677508,
			"-0.014": 0.831202208055,
			"-0.013": 1.50978852564,
			"-0.012": 1.86774113289,
			"-0.011": 1.40890379614,
			"-0.01": 0.894222990459,
			"-0.009": 0.979653966728,
			"-0.008": 1.59331659766,
			"-0.007": 5.11773206043,
			"-0.006": 7.95607677726,
			"-0.005": 10.6926187538,
			"-0.004": 15.9906983791,
			"-0.003": 15.6497304558,
			"-0.002": 16.2648226263,
			"-0.001": 18.5669724496,
			"0.0": 24.0297003908,
			"0.001": 24.875251985,
			"0.002": 19.5204449934,
			"0.003": 13.5151957844,
			"0.004": 11.2223178053,
			"0.005": 9.15932088777,
			"0.006": 5.34656439059,
			"0.007": 5.11187370923,
			"0.008": 3.20941951655,
			"0.009": 3.37207957598,
			"0.01": 4.31071843474,
			"0.011": 4.01301103369,
			"0.012": 4.21226371537,
			"0.013": 0.181195841016,
			"0.014": 0.0,
			"0.015": 0.0,
			"0.016": 0.0,
			"0.017": 0.0,
			"0.018": 0.0,
			"0.019": 0.0,
			"0.02": 0.0,
			"0.021": 0.0,
			"0.022": 0.0,
			"0.023": 0.0,
			"0.024": 0.0,
			"0.025": 0.0
		}
	}
}
