{
	 "smiles": "COC1=CC(C)=C(NC(=O)C2=CC=C(Br)C=C2)C=C1", 
	 "Tm": 438.15, 
	 "num_atms": 33, 
	 "gaussian": { 
		 "optdone": 1, 
		 "sigma_profile": "yes", 
		 "theory": "DFT", 
		 "functional": "B3LYP", 
		 "basiset": "6-31G**", 
		 "properties": { 
			 "R2extent": 8899.8017, 
			 "electric_dipole_moment_norm": 4.58464794504, 
			 "electric_quadrupole_moment_norm": 16.5823259331, 
			 "total_energy": -3356.64501451, 
			 "HOMO_LUMO_gap": 0.17961, 
			 "cosmo_polarized_energy": -13.06, 
			 "cosmo_cavitation_energy": 39.18, 
			 "cosmo_dispersion_energy": -27.6, 
			 "cosmo_repulsion_energy": 2.14, 
			 "cosmo_total_nonelectrostatic_energy": 13.71, 
			 "SMD_solvation_energy": 6.98 
		},
		"coords": [
			{
				"x": -4.9487540187,
				"y": 1.5843917835,
				"z": 0.8193980111,
				"element": "C" 
			},
			{
				"x": -3.7411372842,
				"y": 1.4487642546,
				"z": 1.5527379854,
				"element": "O" 
			},
			{
				"x": -2.8628235232,
				"y": 0.476816101,
				"z": 1.1760441779,
				"element": "C" 
			},
			{
				"x": -1.6940219641,
				"y": 0.385669281,
				"z": 1.945322384,
				"element": "C" 
			},
			{
				"x": -0.7097865084,
				"y": -0.5651531241,
				"z": 1.6800760234,
				"element": "C" 
			},
			{
				"x": 0.5131594236,
				"y": -0.6529918738,
				"z": 2.5597053403,
				"element": "C" 
			},
			{
				"x": -0.9009195837,
				"y": -1.4356642704,
				"z": 0.5824039019,
				"element": "C" 
			},
			{
				"x": 0.0417576597,
				"y": -2.4649834129,
				"z": 0.2647405048,
				"element": "N" 
			},
			{
				"x": 1.3754866822,
				"y": -2.3905181295,
				"z": -0.0815607179,
				"element": "C" 
			},
			{
				"x": 2.0814993537,
				"y": -3.3921973682,
				"z": -0.0050494366,
				"element": "O" 
			},
			{
				"x": 1.9476512034,
				"y": -1.0940480108,
				"z": -0.5841358187,
				"element": "C" 
			},
			{
				"x": 3.3311810602,
				"y": -0.9207203478,
				"z": -0.4276404825,
				"element": "C" 
			},
			{
				"x": 3.9696387936,
				"y": 0.2202021718,
				"z": -0.9043598301,
				"element": "C" 
			},
			{
				"x": 3.2159277989,
				"y": 1.1883877701,
				"z": -1.5685082189,
				"element": "C" 
			},
			{
				"x": 4.0798976283,
				"y": 2.7570926219,
				"z": -2.2337486724,
				"element": "Br" 
			},
			{
				"x": 1.8453775026,
				"y": 1.0282938619,
				"z": -1.7621804634,
				"element": "C" 
			},
			{
				"x": 1.214260018,
				"y": -0.112197343,
				"z": -1.2650532741,
				"element": "C" 
			},
			{
				"x": -2.071867029,
				"y": -1.3512456601,
				"z": -0.1731941682,
				"element": "C" 
			},
			{
				"x": -3.0605441437,
				"y": -0.4079596064,
				"z": 0.1105301156,
				"element": "C" 
			},
			{
				"x": -5.4925027117,
				"y": 2.4080019687,
				"z": 1.2842611366,
				"element": "H" 
			},
			{
				"x": -4.7578459905,
				"y": 1.8274328866,
				"z": -0.2337861937,
				"element": "H" 
			},
			{
				"x": -5.5592376915,
				"y": 0.6737708609,
				"z": 0.8724180674,
				"element": "H" 
			},
			{
				"x": -1.5804933728,
				"y": 1.0730699122,
				"z": 2.7779678131,
				"element": "H" 
			},
			{
				"x": 1.39463434,
				"y": -0.2274263306,
				"z": 2.0674184566,
				"element": "H" 
			},
			{
				"x": 0.3574502302,
				"y": -0.1071107453,
				"z": 3.4933991404,
				"element": "H" 
			},
			{
				"x": 0.7542273272,
				"y": -1.6922349437,
				"z": 2.803630225,
				"element": "H" 
			},
			{
				"x": -0.2110055611,
				"y": -3.4148841542,
				"z": 0.5144181859,
				"element": "H" 
			},
			{
				"x": 3.8966132554,
				"y": -1.7038170052,
				"z": 0.0656636567,
				"element": "H" 
			},
			{
				"x": 5.0369516657,
				"y": 0.3548369344,
				"z": -0.7713350741,
				"element": "H" 
			},
			{
				"x": 1.2782131638,
				"y": 1.782142463,
				"z": -2.2959695986,
				"element": "H" 
			},
			{
				"x": 0.1500360518,
				"y": -0.2331717161,
				"z": -1.4251723731,
				"element": "H" 
			},
			{
				"x": -2.2055794053,
				"y": -2.038788991,
				"z": -1.0035288626,
				"element": "H" 
			},
			{
				"x": -3.9571443705,
				"y": -0.3726598386,
				"z": -0.4961119413,
				"element": "H" 
			}
		],
		 "valence_orbital": [ 
			{
				"type": "occ",
				"energy": -0.26698,
				"method": "rhf"
			},
			{
				"type": "occ",
				"energy": -0.25557,
				"method": "rhf"
			},
			{
				"type": "occ",
				"energy": -0.25374,
				"method": "rhf"
			},
			{
				"type": "occ",
				"energy": -0.24226,
				"method": "rhf"
			},
			{
				"type": "occ",
				"energy": -0.22232,
				"method": "rhf"
			},
			{
				"type": "unocc",
				"energy": -0.04271,
				"method": "rhf"
			},
			{
				"type": "unocc",
				"energy": -0.01938,
				"method": "rhf"
			},
			{
				"type": "unocc",
				"energy": -0.0091,
				"method": "rhf"
			},
			{
				"type": "unocc",
				"energy": -0.00165,
				"method": "rhf"
			},
			{
				"type": "unocc",
				"energy": 0.00643,
				"method": "rhf"
			}
		],
		"cosmo_sigma_profile": { 
			"-0.025": 0.0,
			"-0.024": 0.0,
			"-0.023": 0.0,
			"-0.022": 0.0,
			"-0.021": 0.0,
			"-0.02": 0.0,
			"-0.019": 0.0,
			"-0.018": 0.0,
			"-0.017": 0.0,
			"-0.016": 0.0,
			"-0.015": 0.0,
			"-0.014": 0.269585064991,
			"-0.013": 1.34757931347,
			"-0.012": 0.479169349045,
			"-0.011": 0.955348884821,
			"-0.01": 0.542969980722,
			"-0.009": 1.61195719742,
			"-0.008": 1.16722201636,
			"-0.007": 4.94440327313,
			"-0.006": 15.9514015864,
			"-0.005": 23.4785319084,
			"-0.004": 25.1785740732,
			"-0.003": 26.6185501584,
			"-0.002": 24.9148811338,
			"-0.001": 25.2102502608,
			"0.0": 23.6941133618,
			"0.001": 25.8070097974,
			"0.002": 27.8869204177,
			"0.003": 24.882399469,
			"0.004": 25.76097104,
			"0.005": 9.18248004412,
			"0.006": 2.49117598647,
			"0.007": 3.14258649602,
			"0.008": 3.18976976096,
			"0.009": 1.89851728458,
			"0.01": 3.09493413368,
			"0.011": 1.56404266494,
			"0.012": 2.45115728658,
			"0.013": 4.72329146142,
			"0.014": 3.09647189135,
			"0.015": 0.031292824062,
			"0.016": 0.0,
			"0.017": 0.0,
			"0.018": 0.0,
			"0.019": 0.0,
			"0.02": 0.0,
			"0.021": 0.0,
			"0.022": 0.0,
			"0.023": 0.0,
			"0.024": 0.0,
			"0.025": 0.0
		}
	}
}
