{
	 "smiles": "CC1=CC=CC(C)=C1N(C1CCOC1=O)C(=O)CCl", 
	 "Tm": 419.15, 
	 "num_atms": 35, 
	 "gaussian": { 
		 "optdone": 1, 
		 "sigma_profile": "yes", 
		 "theory": "DFT", 
		 "functional": "B3LYP", 
		 "basiset": "6-31G**", 
		 "properties": { 
			 "R2extent": 5113.4996, 
			 "electric_dipole_moment_norm": 4.38935663965, 
			 "electric_quadrupole_moment_norm": 21.3659406474, 
			 "total_energy": -1283.7717781, 
			 "HOMO_LUMO_gap": 0.21473, 
			 "cosmo_polarized_energy": -16.13, 
			 "cosmo_cavitation_energy": 37.33, 
			 "cosmo_dispersion_energy": -25.81, 
			 "cosmo_repulsion_energy": 1.96, 
			 "cosmo_total_nonelectrostatic_energy": 13.47, 
			 "SMD_solvation_energy": 7.53 
		},
		"coords": [
			{
				"x": -0.1990434899,
				"y": 2.6087728412,
				"z": 0.6003674239,
				"element": "C" 
			},
			{
				"x": -0.4162909844,
				"y": 1.8735264527,
				"z": -0.7004883879,
				"element": "C" 
			},
			{
				"x": -1.0111703924,
				"y": 2.53238811,
				"z": -1.7842218334,
				"element": "C" 
			},
			{
				"x": -1.2243603041,
				"y": 1.8813150572,
				"z": -2.9962334276,
				"element": "C" 
			},
			{
				"x": -0.8389365656,
				"y": 0.5519675334,
				"z": -3.1474846882,
				"element": "C" 
			},
			{
				"x": -0.2357604348,
				"y": -0.147873429,
				"z": -2.0959936977,
				"element": "C" 
			},
			{
				"x": 0.1701325544,
				"y": -1.5890603223,
				"z": -2.2905482496,
				"element": "C" 
			},
			{
				"x": -0.0283727837,
				"y": 0.5273045169,
				"z": -0.8753073487,
				"element": "C" 
			},
			{
				"x": 0.5647412505,
				"y": -0.1912031561,
				"z": 0.2321068446,
				"element": "N" 
			},
			{
				"x": -0.2729931252,
				"y": -1.1018706606,
				"z": 1.0297877256,
				"element": "C" 
			},
			{
				"x": 0.1567262676,
				"y": -2.5849517449,
				"z": 1.0695880841,
				"element": "C" 
			},
			{
				"x": 0.4863857816,
				"y": -2.8532659812,
				"z": 2.5508968978,
				"element": "C" 
			},
			{
				"x": -0.0833234011,
				"y": -1.7640414335,
				"z": 3.3052913003,
				"element": "O" 
			},
			{
				"x": -0.3464671811,
				"y": -0.6996997237,
				"z": 2.525172153,
				"element": "C" 
			},
			{
				"x": -0.6744766244,
				"y": 0.3731332276,
				"z": 2.9678200217,
				"element": "O" 
			},
			{
				"x": 1.8669122391,
				"y": -0.0550085835,
				"z": 0.6417101481,
				"element": "C" 
			},
			{
				"x": 2.2859889712,
				"y": -0.6301388279,
				"z": 1.6415723432,
				"element": "O" 
			},
			{
				"x": 2.8033020067,
				"y": 0.807152913,
				"z": -0.1996157659,
				"element": "C" 
			},
			{
				"x": 3.6946405616,
				"y": -0.2290135224,
				"z": -1.3959004698,
				"element": "Cl" 
			},
			{
				"x": 0.8618977018,
				"y": 2.8381419848,
				"z": 0.7651138375,
				"element": "H" 
			},
			{
				"x": -0.7335531941,
				"y": 3.5619978689,
				"z": 0.5898332256,
				"element": "H" 
			},
			{
				"x": -0.5322920961,
				"y": 2.0241340425,
				"z": 1.4617354347,
				"element": "H" 
			},
			{
				"x": -1.3143497416,
				"y": 3.5687445739,
				"z": -1.6646880847,
				"element": "H" 
			},
			{
				"x": -1.6900806981,
				"y": 2.4099115194,
				"z": -3.8229856199,
				"element": "H" 
			},
			{
				"x": -1.0001388883,
				"y": 0.0437880277,
				"z": -4.0941121989,
				"element": "H" 
			},
			{
				"x": 1.1942735213,
				"y": -1.7683921471,
				"z": -1.952024039,
				"element": "H" 
			},
			{
				"x": 0.1102243304,
				"y": -1.86273601,
				"z": -3.3468108121,
				"element": "H" 
			},
			{
				"x": -0.4840285408,
				"y": -2.2741259787,
				"z": -1.738610815,
				"element": "H" 
			},
			{
				"x": -1.2842301155,
				"y": -0.9912505384,
				"z": 0.6336360512,
				"element": "H" 
			},
			{
				"x": -0.6662075018,
				"y": -3.2212330756,
				"z": 0.7323567062,
				"element": "H" 
			},
			{
				"x": 1.01779806,
				"y": -2.778623406,
				"z": 0.429964606,
				"element": "H" 
			},
			{
				"x": 0.0431108966,
				"y": -3.7752219586,
				"z": 2.9333292019,
				"element": "H" 
			},
			{
				"x": 1.5625804789,
				"y": -2.853911271,
				"z": 2.7323207536,
				"element": "H" 
			},
			{
				"x": 2.2996675432,
				"y": 1.5814623145,
				"z": -0.7730212964,
				"element": "H" 
			},
			{
				"x": 3.5526938979,
				"y": 1.232080787,
				"z": 0.4654439759,
				"element": "H" 
			}
		],
		 "valence_orbital": [ 
			{
				"type": "occ",
				"energy": -0.28619,
				"method": "rhf"
			},
			{
				"type": "occ",
				"energy": -0.27568,
				"method": "rhf"
			},
			{
				"type": "occ",
				"energy": -0.26158,
				"method": "rhf"
			},
			{
				"type": "occ",
				"energy": -0.25046,
				"method": "rhf"
			},
			{
				"type": "occ",
				"energy": -0.24953,
				"method": "rhf"
			},
			{
				"type": "unocc",
				"energy": -0.0348,
				"method": "rhf"
			},
			{
				"type": "unocc",
				"energy": -0.02144,
				"method": "rhf"
			},
			{
				"type": "unocc",
				"energy": -0.01101,
				"method": "rhf"
			},
			{
				"type": "unocc",
				"energy": 0.00498,
				"method": "rhf"
			},
			{
				"type": "unocc",
				"energy": 0.0479,
				"method": "rhf"
			}
		],
		"cosmo_sigma_profile": { 
			"-0.025": 0.0,
			"-0.024": 0.0,
			"-0.023": 0.0,
			"-0.022": 0.0,
			"-0.021": 0.0,
			"-0.02": 0.0,
			"-0.019": 0.0,
			"-0.018": 0.0,
			"-0.017": 0.0,
			"-0.016": 0.0,
			"-0.015": 0.0,
			"-0.014": 0.0,
			"-0.013": 0.0,
			"-0.012": 0.0,
			"-0.011": 0.0,
			"-0.01": 0.0153652627267,
			"-0.009": 2.6559017149,
			"-0.008": 5.30572549115,
			"-0.007": 9.3717710793,
			"-0.006": 19.1698069073,
			"-0.005": 28.2838462613,
			"-0.004": 27.0082354262,
			"-0.003": 20.6005727357,
			"-0.002": 18.589027316,
			"-0.001": 20.7989805836,
			"0.0": 19.7233930614,
			"0.001": 18.1888145215,
			"0.002": 16.9397469138,
			"0.003": 16.1800737337,
			"0.004": 15.7869912591,
			"0.005": 17.2964846478,
			"0.006": 8.76475094739,
			"0.007": 5.86440788293,
			"0.008": 4.6564611476,
			"0.009": 5.63094666652,
			"0.01": 5.64647477645,
			"0.011": 4.61715054065,
			"0.012": 4.02087104422,
			"0.013": 2.07201206672,
			"0.014": 0.0637005841422,
			"0.015": 0.0,
			"0.016": 0.0,
			"0.017": 0.0,
			"0.018": 0.0,
			"0.019": 0.0,
			"0.02": 0.0,
			"0.021": 0.0,
			"0.022": 0.0,
			"0.023": 0.0,
			"0.024": 0.0,
			"0.025": 0.0
		}
	}
}
