{
	 "smiles": "CN(N=C(C)C)P(=O)(N1CC1)N1CC1", 
	 "Tm": 365.65, 
	 "num_atms": 31, 
	 "gaussian": { 
		 "optdone": 1, 
		 "sigma_profile": "yes", 
		 "theory": "DFT", 
		 "functional": "B3LYP", 
		 "basiset": "6-31G**", 
		 "properties": { 
			 "R2extent": 3196.246, 
			 "electric_dipole_moment_norm": 3.20591257055, 
			 "electric_quadrupole_moment_norm": 12.002407214, 
			 "total_energy": -950.599274325, 
			 "HOMO_LUMO_gap": 0.2102, 
			 "cosmo_polarized_energy": -16.93, 
			 "cosmo_cavitation_energy": 34.02, 
			 "cosmo_dispersion_energy": -22.77, 
			 "cosmo_repulsion_energy": 1.76, 
			 "cosmo_total_nonelectrostatic_energy": 13.02, 
			 "SMD_solvation_energy": 4.01 
		},
		"coords": [
			{
				"x": 2.5595047121,
				"y": 1.4171542743,
				"z": 1.5336193539,
				"element": "C" 
			},
			{
				"x": 1.1904525379,
				"y": 1.1054302884,
				"z": 1.1087882308,
				"element": "N" 
			},
			{
				"x": 0.4536931573,
				"y": 0.5345068195,
				"z": 2.2182107605,
				"element": "N" 
			},
			{
				"x": -0.6269618827,
				"y": 1.1658828046,
				"z": 2.5155089892,
				"element": "C" 
			},
			{
				"x": -1.4186111246,
				"y": 0.6020972596,
				"z": 3.6674724651,
				"element": "C" 
			},
			{
				"x": -1.1743479815,
				"y": 2.3939337476,
				"z": 1.8374385564,
				"element": "C" 
			},
			{
				"x": 1.0381982048,
				"y": 0.3065913577,
				"z": -0.3797782204,
				"element": "P" 
			},
			{
				"x": 1.7904843475,
				"y": 0.9852017614,
				"z": -1.4736935356,
				"element": "O" 
			},
			{
				"x": -0.6414444987,
				"y": 0.2530525908,
				"z": -0.5957279142,
				"element": "N" 
			},
			{
				"x": -1.2336139351,
				"y": -0.5854336782,
				"z": -1.6446227117,
				"element": "C" 
			},
			{
				"x": -1.4803806368,
				"y": -0.8893747048,
				"z": -0.2101659559,
				"element": "C" 
			},
			{
				"x": 1.4907073692,
				"y": -1.3322846544,
				"z": -0.1242332781,
				"element": "N" 
			},
			{
				"x": 2.0679996818,
				"y": -2.0892530818,
				"z": -1.252985664,
				"element": "C" 
			},
			{
				"x": 2.9189296716,
				"y": -1.6834699205,
				"z": -0.1077666008,
				"element": "C" 
			},
			{
				"x": 2.5302836085,
				"y": 2.2525363638,
				"z": 2.240180314,
				"element": "H" 
			},
			{
				"x": 3.0430988163,
				"y": 0.5636828353,
				"z": 2.0277721715,
				"element": "H" 
			},
			{
				"x": 3.1342810831,
				"y": 1.7223031121,
				"z": 0.6571272357,
				"element": "H" 
			},
			{
				"x": -1.5124244946,
				"y": 1.3460964075,
				"z": 4.4675549199,
				"element": "H" 
			},
			{
				"x": -0.934267611,
				"y": -0.2932678951,
				"z": 4.0600373292,
				"element": "H" 
			},
			{
				"x": -2.437595789,
				"y": 0.3522463948,
				"z": 3.3473547194,
				"element": "H" 
			},
			{
				"x": -0.3966275309,
				"y": 2.9081773212,
				"z": 1.2731085499,
				"element": "H" 
			},
			{
				"x": -1.9563624179,
				"y": 2.1068237955,
				"z": 1.1258063835,
				"element": "H" 
			},
			{
				"x": -1.6243299891,
				"y": 3.0652243551,
				"z": 2.5759826001,
				"element": "H" 
			},
			{
				"x": -1.9957723011,
				"y": -0.0923386021,
				"z": -2.2430852348,
				"element": "H" 
			},
			{
				"x": -0.5870145262,
				"y": -1.2609850344,
				"z": -2.2003182801,
				"element": "H" 
			},
			{
				"x": -2.431973673,
				"y": -0.6183346114,
				"z": 0.2423333022,
				"element": "H" 
			},
			{
				"x": -0.9835026414,
				"y": -1.7551021693,
				"z": 0.2188951253,
				"element": "H" 
			},
			{
				"x": 2.2211250709,
				"y": -1.5586173011,
				"z": -2.1902038546,
				"element": "H" 
			},
			{
				"x": 1.7219207516,
				"y": -3.1168421753,
				"z": -1.3370051403,
				"element": "H" 
			},
			{
				"x": 3.1996886381,
				"y": -2.4080327042,
				"z": 0.6526026538,
				"element": "H" 
			},
			{
				"x": 3.6449633829,
				"y": -0.8950049567,
				"z": -0.29420727,
				"element": "H" 
			}
		],
		 "valence_orbital": [ 
			{
				"type": "occ",
				"energy": -0.28939,
				"method": "rhf"
			},
			{
				"type": "occ",
				"energy": -0.26895,
				"method": "rhf"
			},
			{
				"type": "occ",
				"energy": -0.25607,
				"method": "rhf"
			},
			{
				"type": "occ",
				"energy": -0.24334,
				"method": "rhf"
			},
			{
				"type": "occ",
				"energy": -0.21184,
				"method": "rhf"
			},
			{
				"type": "unocc",
				"energy": -0.00164,
				"method": "rhf"
			},
			{
				"type": "unocc",
				"energy": 0.07627,
				"method": "rhf"
			},
			{
				"type": "unocc",
				"energy": 0.08084,
				"method": "rhf"
			},
			{
				"type": "unocc",
				"energy": 0.08471,
				"method": "rhf"
			},
			{
				"type": "unocc",
				"energy": 0.09269,
				"method": "rhf"
			}
		],
		"cosmo_sigma_profile": { 
			"-0.025": 0.0,
			"-0.024": 0.0,
			"-0.023": 0.0,
			"-0.022": 0.0,
			"-0.021": 0.0,
			"-0.02": 0.0,
			"-0.019": 0.0,
			"-0.018": 0.0,
			"-0.017": 0.0,
			"-0.016": 0.0,
			"-0.015": 0.0,
			"-0.014": 0.0,
			"-0.013": 0.0,
			"-0.012": 0.0,
			"-0.011": 0.0,
			"-0.01": 0.0,
			"-0.009": 0.0,
			"-0.008": 0.0,
			"-0.007": 1.25042338512,
			"-0.006": 11.7012746246,
			"-0.005": 24.0072609743,
			"-0.004": 33.7702028822,
			"-0.003": 35.6845827539,
			"-0.002": 32.7708843221,
			"-0.001": 27.4809311278,
			"0.0": 22.6153890365,
			"0.001": 11.7332307349,
			"0.002": 6.01083828022,
			"0.003": 5.61330801458,
			"0.004": 5.44425031353,
			"0.005": 5.02824966515,
			"0.006": 5.25507728773,
			"0.007": 4.24091896726,
			"0.008": 4.2296259222,
			"0.009": 4.37902471956,
			"0.01": 3.15332144183,
			"0.011": 3.4582414919,
			"0.012": 2.93647577265,
			"0.013": 2.56252630312,
			"0.014": 3.14084564069,
			"0.015": 5.69167532475,
			"0.016": 2.92271556801,
			"0.017": 0.150706056388,
			"0.018": 0.0,
			"0.019": 0.0,
			"0.02": 0.0,
			"0.021": 0.0,
			"0.022": 0.0,
			"0.023": 0.0,
			"0.024": 0.0,
			"0.025": 0.0
		}
	}
}
