{
	 "smiles": "C1CC1N1C=NC2=C1C=CN=C2", 
	 "Tm": 327.15, 
	 "num_atms": 21, 
	 "gaussian": { 
		 "optdone": 1, 
		 "sigma_profile": "yes", 
		 "theory": "DFT", 
		 "functional": "B3LYP", 
		 "basiset": "6-31G**", 
		 "properties": { 
			 "R2extent": 2257.6951, 
			 "electric_dipole_moment_norm": 5.80055596904, 
			 "electric_quadrupole_moment_norm": 8.06810641353, 
			 "total_energy": -512.60188841, 
			 "HOMO_LUMO_gap": 0.2085, 
			 "cosmo_polarized_energy": -12.87, 
			 "cosmo_cavitation_energy": 24.76, 
			 "cosmo_dispersion_energy": -18.13, 
			 "cosmo_repulsion_energy": 1.42, 
			 "cosmo_total_nonelectrostatic_energy": 8.05, 
			 "SMD_solvation_energy": 0.68 
		},
		"coords": [
			{
				"x": -1.8339994696,
				"y": 1.5639682147,
				"z": 0.5792620539,
				"element": "C" 
			},
			{
				"x": -1.1795204988,
				"y": 2.5828352857,
				"z": -0.3175926447,
				"element": "C" 
			},
			{
				"x": -0.3764139842,
				"y": 1.9093311205,
				"z": 0.7664298709,
				"element": "C" 
			},
			{
				"x": 0.6202594672,
				"y": 0.9457477537,
				"z": 0.3914348299,
				"element": "N" 
			},
			{
				"x": 1.6297533801,
				"y": 1.1115095201,
				"z": -0.5455143258,
				"element": "C" 
			},
			{
				"x": 2.457210516,
				"y": 0.1049225396,
				"z": -0.6303202582,
				"element": "N" 
			},
			{
				"x": 1.9933177889,
				"y": -0.7986629947,
				"z": 0.3182327395,
				"element": "C" 
			},
			{
				"x": 0.8502787611,
				"y": -0.288646208,
				"z": 0.9734384151,
				"element": "C" 
			},
			{
				"x": 0.213992097,
				"y": -1.0209513499,
				"z": 1.977140702,
				"element": "C" 
			},
			{
				"x": 0.7838059363,
				"y": -2.2598125171,
				"z": 2.260911569,
				"element": "C" 
			},
			{
				"x": 1.8719317593,
				"y": -2.7758876473,
				"z": 1.6489404797,
				"element": "N" 
			},
			{
				"x": 2.4679863958,
				"y": -2.0606327172,
				"z": 0.6945054777,
				"element": "C" 
			},
			{
				"x": -2.0621739348,
				"y": 0.5935311787,
				"z": 0.1512711031,
				"element": "H" 
			},
			{
				"x": -2.5315492276,
				"y": 1.9042645257,
				"z": 1.3376262939,
				"element": "H" 
			},
			{
				"x": -1.4193518351,
				"y": 3.6324455728,
				"z": -0.183308093,
				"element": "H" 
			},
			{
				"x": -0.9827601225,
				"y": 2.2909103281,
				"z": -1.3439186692,
				"element": "H" 
			},
			{
				"x": -0.1125281271,
				"y": 2.5049298771,
				"z": 1.6380818784,
				"element": "H" 
			},
			{
				"x": 1.6815939585,
				"y": 2.0160745592,
				"z": -1.1380807961,
				"element": "H" 
			},
			{
				"x": -0.6610683195,
				"y": -0.6629686553,
				"z": 2.508629137,
				"element": "H" 
			},
			{
				"x": 0.3411024706,
				"y": -2.886216123,
				"z": 3.0328725455,
				"element": "H" 
			},
			{
				"x": 3.3444329884,
				"y": -2.4907922633,
				"z": 0.2138576916,
				"element": "H" 
			}
		],
		 "valence_orbital": [ 
			{
				"type": "occ",
				"energy": -0.30217,
				"method": "rhf"
			},
			{
				"type": "occ",
				"energy": -0.27705,
				"method": "rhf"
			},
			{
				"type": "occ",
				"energy": -0.25147,
				"method": "rhf"
			},
			{
				"type": "occ",
				"energy": -0.24384,
				"method": "rhf"
			},
			{
				"type": "occ",
				"energy": -0.23178,
				"method": "rhf"
			},
			{
				"type": "unocc",
				"energy": -0.02328,
				"method": "rhf"
			},
			{
				"type": "unocc",
				"energy": 0.00413,
				"method": "rhf"
			},
			{
				"type": "unocc",
				"energy": 0.04337,
				"method": "rhf"
			},
			{
				"type": "unocc",
				"energy": 0.08196,
				"method": "rhf"
			},
			{
				"type": "unocc",
				"energy": 0.09057,
				"method": "rhf"
			}
		],
		"cosmo_sigma_profile": { 
			"-0.025": 0.0,
			"-0.024": 0.0,
			"-0.023": 0.0,
			"-0.022": 0.0,
			"-0.021": 0.0,
			"-0.02": 0.0,
			"-0.019": 0.0,
			"-0.018": 0.0,
			"-0.017": 0.0,
			"-0.016": 0.0,
			"-0.015": 0.0,
			"-0.014": 0.0,
			"-0.013": 0.0,
			"-0.012": 0.0,
			"-0.011": 0.0,
			"-0.01": 0.292565542156,
			"-0.009": 1.86284592367,
			"-0.008": 1.28309513044,
			"-0.007": 5.69176105808,
			"-0.006": 14.7994232141,
			"-0.005": 19.0907196335,
			"-0.004": 16.8355312347,
			"-0.003": 18.5044625035,
			"-0.002": 15.3059724907,
			"-0.001": 15.4983772438,
			"0.0": 12.3482280123,
			"0.001": 10.8786250968,
			"0.002": 14.4703234686,
			"0.003": 12.6439845266,
			"0.004": 7.48443951796,
			"0.005": 4.18638193064,
			"0.006": 3.30094346846,
			"0.007": 2.4751155374,
			"0.008": 2.6805543772,
			"0.009": 3.19152736675,
			"0.01": 2.13169586455,
			"0.011": 1.6775168402,
			"0.012": 2.03288660277,
			"0.013": 2.42951027089,
			"0.014": 1.97123441187,
			"0.015": 1.88349924465,
			"0.016": 1.77092053672,
			"0.017": 1.53460140849,
			"0.018": 0.061289997662,
			"0.019": 0.0,
			"0.02": 0.0,
			"0.021": 0.0,
			"0.022": 0.0,
			"0.023": 0.0,
			"0.024": 0.0,
			"0.025": 0.0
		}
	}
}
