{
	 "smiles": "COC1=CC=C2C=C(CCC(C)=O)C=CC2=C1", 
	 "Tm": 353.15, 
	 "num_atms": 33, 
	 "gaussian": { 
		 "optdone": 1, 
		 "sigma_profile": "yes", 
		 "theory": "DFT", 
		 "functional": "B3LYP", 
		 "basiset": "6-31G**", 
		 "properties": { 
			 "R2extent": 6400.2849, 
			 "electric_dipole_moment_norm": 3.62916839235, 
			 "electric_quadrupole_moment_norm": 13.3034844398, 
			 "total_energy": -731.694806547, 
			 "HOMO_LUMO_gap": 0.16361, 
			 "cosmo_polarized_energy": -11.89, 
			 "cosmo_cavitation_energy": 36.2, 
			 "cosmo_dispersion_energy": -25.92, 
			 "cosmo_repulsion_energy": 2.01, 
			 "cosmo_total_nonelectrostatic_energy": 12.28, 
			 "SMD_solvation_energy": 6.98 
		},
		"coords": [
			{
				"x": 1.7405993164,
				"y": 2.1193199527,
				"z": -4.9141478017,
				"element": "C" 
			},
			{
				"x": 1.9549653084,
				"y": 2.3290129949,
				"z": -3.5287730824,
				"element": "O" 
			},
			{
				"x": 1.0353255243,
				"y": 1.8428128294,
				"z": -2.6405485176,
				"element": "C" 
			},
			{
				"x": -0.1300943886,
				"y": 1.1292427764,
				"z": -3.0255635855,
				"element": "C" 
			},
			{
				"x": -1.0059494496,
				"y": 0.673730471,
				"z": -2.062910008,
				"element": "C" 
			},
			{
				"x": -0.7743586602,
				"y": 0.8973789886,
				"z": -0.6828801002,
				"element": "C" 
			},
			{
				"x": -1.6630973412,
				"y": 0.4382290789,
				"z": 0.326356877,
				"element": "C" 
			},
			{
				"x": -1.4241036127,
				"y": 0.6648220582,
				"z": 1.6667599798,
				"element": "C" 
			},
			{
				"x": -2.3753729884,
				"y": 0.1428599464,
				"z": 2.7252263592,
				"element": "C" 
			},
			{
				"x": -1.9608318199,
				"y": -1.2162963372,
				"z": 3.3199429361,
				"element": "C" 
			},
			{
				"x": -0.8476482976,
				"y": -1.1465639152,
				"z": 4.3615874566,
				"element": "C" 
			},
			{
				"x": -0.1619476797,
				"y": -2.4577045752,
				"z": 4.7007938474,
				"element": "C" 
			},
			{
				"x": -0.5357461432,
				"y": -0.1051114321,
				"z": 4.9097747449,
				"element": "O" 
			},
			{
				"x": -0.2511815969,
				"y": 1.3873358149,
				"z": 2.0351643303,
				"element": "C" 
			},
			{
				"x": 0.6300635609,
				"y": 1.8475876687,
				"z": 1.0859593819,
				"element": "C" 
			},
			{
				"x": 0.4038585003,
				"y": 1.6192721502,
				"z": -0.3008755225,
				"element": "C" 
			},
			{
				"x": 1.2902821665,
				"y": 2.0799828026,
				"z": -1.3014056718,
				"element": "C" 
			},
			{
				"x": 2.5852865075,
				"y": 2.5872510859,
				"z": -5.4226792636,
				"element": "H" 
			},
			{
				"x": 1.7179334362,
				"y": 1.0513943533,
				"z": -5.1682524646,
				"element": "H" 
			},
			{
				"x": 0.810538681,
				"y": 2.5889011761,
				"z": -5.2604621924,
				"element": "H" 
			},
			{
				"x": -0.3394396783,
				"y": 0.9390211212,
				"z": -4.0715680778,
				"element": "H" 
			},
			{
				"x": -1.8972751035,
				"y": 0.1288830798,
				"z": -2.3642616731,
				"element": "H" 
			},
			{
				"x": -2.5574809721,
				"y": -0.1014181574,
				"z": 0.0190298213,
				"element": "H" 
			},
			{
				"x": -3.3733466236,
				"y": 0.0355432017,
				"z": 2.2868993225,
				"element": "H" 
			},
			{
				"x": -2.4563538458,
				"y": 0.8628438559,
				"z": 3.5459018465,
				"element": "H" 
			},
			{
				"x": -2.8189892671,
				"y": -1.6782060519,
				"z": 3.8325008573,
				"element": "H" 
			},
			{
				"x": -1.6767782299,
				"y": -1.9223711031,
				"z": 2.52964039,
				"element": "H" 
			},
			{
				"x": 0.4741269191,
				"y": -2.7607342357,
				"z": 3.859942523,
				"element": "H" 
			},
			{
				"x": -0.8908471122,
				"y": -3.2609494635,
				"z": 4.8547255949,
				"element": "H" 
			},
			{
				"x": 0.4571459711,
				"y": -2.3355181592,
				"z": 5.5906684552,
				"element": "H" 
			},
			{
				"x": -0.0626275292,
				"y": 1.5666100185,
				"z": 3.0888425357,
				"element": "H" 
			},
			{
				"x": 1.516435328,
				"y": 2.4003980315,
				"z": 1.3869365044,
				"element": "H" 
			},
			{
				"x": 2.18640912,
				"y": 2.6290399737,
				"z": -1.0287258027,
				"element": "H" 
			}
		],
		 "valence_orbital": [ 
			{
				"type": "occ",
				"energy": -0.29344,
				"method": "rhf"
			},
			{
				"type": "occ",
				"energy": -0.26725,
				"method": "rhf"
			},
			{
				"type": "occ",
				"energy": -0.24675,
				"method": "rhf"
			},
			{
				"type": "occ",
				"energy": -0.22541,
				"method": "rhf"
			},
			{
				"type": "occ",
				"energy": -0.19498,
				"method": "rhf"
			},
			{
				"type": "unocc",
				"energy": -0.03137,
				"method": "rhf"
			},
			{
				"type": "unocc",
				"energy": -0.01345,
				"method": "rhf"
			},
			{
				"type": "unocc",
				"energy": 0.00516,
				"method": "rhf"
			},
			{
				"type": "unocc",
				"energy": 0.03985,
				"method": "rhf"
			},
			{
				"type": "unocc",
				"energy": 0.08843,
				"method": "rhf"
			}
		],
		"cosmo_sigma_profile": { 
			"-0.025": 0.0,
			"-0.024": 0.0,
			"-0.023": 0.0,
			"-0.022": 0.0,
			"-0.021": 0.0,
			"-0.02": 0.0,
			"-0.019": 0.0,
			"-0.018": 0.0,
			"-0.017": 0.0,
			"-0.016": 0.0,
			"-0.015": 0.0,
			"-0.014": 0.0,
			"-0.013": 0.0,
			"-0.012": 0.0,
			"-0.011": 0.0,
			"-0.01": 0.0,
			"-0.009": 0.0,
			"-0.008": 0.0,
			"-0.007": 1.16802959942,
			"-0.006": 15.9448552357,
			"-0.005": 30.4418175588,
			"-0.004": 29.9609210606,
			"-0.003": 30.7910783165,
			"-0.002": 25.0127973003,
			"-0.001": 22.6198502067,
			"0.0": 16.517956979,
			"0.001": 12.5754811307,
			"0.002": 10.7931293655,
			"0.003": 16.0384321189,
			"0.004": 20.3565930693,
			"0.005": 26.3072308289,
			"0.006": 8.44335557718,
			"0.007": 2.83199727267,
			"0.008": 2.19528795564,
			"0.009": 3.44104101102,
			"0.01": 3.62878189169,
			"0.011": 2.89216425616,
			"0.012": 2.98419831105,
			"0.013": 1.45907424204,
			"0.014": 0.111110449217,
			"0.015": 0.0,
			"0.016": 0.0,
			"0.017": 0.0,
			"0.018": 0.0,
			"0.019": 0.0,
			"0.02": 0.0,
			"0.021": 0.0,
			"0.022": 0.0,
			"0.023": 0.0,
			"0.024": 0.0,
			"0.025": 0.0
		}
	}
}
