{
	 "smiles": "CC1=NN(C(C)=C1)C1=C(F)C=C(C=C1)C(O)=O", 
	 "Tm": 458.15, 
	 "num_atms": 28, 
	 "gaussian": { 
		 "optdone": 1, 
		 "sigma_profile": "yes", 
		 "theory": "DFT", 
		 "functional": "B3LYP", 
		 "basiset": "6-31G**", 
		 "properties": { 
			 "R2extent": 5042.6138, 
			 "electric_dipole_moment_norm": 3.54975481266, 
			 "electric_quadrupole_moment_norm": 19.1187451861, 
			 "total_energy": -823.685547748, 
			 "HOMO_LUMO_gap": 0.17293, 
			 "cosmo_polarized_energy": -18.13, 
			 "cosmo_cavitation_energy": 33.35, 
			 "cosmo_dispersion_energy": -23.58, 
			 "cosmo_repulsion_energy": 1.82, 
			 "cosmo_total_nonelectrostatic_energy": 11.59, 
			 "SMD_solvation_energy": 6.8 
		},
		"coords": [
			{
				"x": -2.881812711,
				"y": -4.3501822585,
				"z": -0.6725913483,
				"element": "C" 
			},
			{
				"x": -2.5939533298,
				"y": -2.9421263816,
				"z": -0.2498038485,
				"element": "C" 
			},
			{
				"x": -1.3828582474,
				"y": -2.4251088024,
				"z": -0.4168480556,
				"element": "N" 
			},
			{
				"x": -1.470026492,
				"y": -1.1515098598,
				"z": 0.0774385717,
				"element": "N" 
			},
			{
				"x": -2.7324395433,
				"y": -0.8579671309,
				"z": 0.54828841,
				"element": "C" 
			},
			{
				"x": -3.1335228355,
				"y": 0.4717063473,
				"z": 1.1063142528,
				"element": "C" 
			},
			{
				"x": -3.47578769,
				"y": -2.0005918988,
				"z": 0.3461317268,
				"element": "C" 
			},
			{
				"x": -0.3260052909,
				"y": -0.3250679048,
				"z": 0.0484259588,
				"element": "C" 
			},
			{
				"x": 0.3928906754,
				"y": -0.1515252391,
				"z": -1.1438240253,
				"element": "C" 
			},
			{
				"x": -0.0384615051,
				"y": -0.727149147,
				"z": -2.2728477003,
				"element": "F" 
			},
			{
				"x": 1.5346900877,
				"y": 0.6352383678,
				"z": -1.193140195,
				"element": "C" 
			},
			{
				"x": 1.9782768753,
				"y": 1.2923710472,
				"z": -0.0370577049,
				"element": "C" 
			},
			{
				"x": 1.2531051411,
				"y": 1.1533474453,
				"z": 1.1522345059,
				"element": "C" 
			},
			{
				"x": 0.1273519972,
				"y": 0.3378680658,
				"z": 1.1959367555,
				"element": "C" 
			},
			{
				"x": 3.1895978432,
				"y": 2.1764526001,
				"z": -0.0210045514,
				"element": "C" 
			},
			{
				"x": 4.1051349,
				"y": 1.9790525517,
				"z": -1.0058615325,
				"element": "O" 
			},
			{
				"x": 3.3698690799,
				"y": 3.0315180108,
				"z": 0.813230961,
				"element": "O" 
			},
			{
				"x": -1.9852618363,
				"y": -4.7979689889,
				"z": -1.1063717402,
				"element": "H" 
			},
			{
				"x": -3.2007249037,
				"y": -4.9647861363,
				"z": 0.1766286651,
				"element": "H" 
			},
			{
				"x": -3.682841284,
				"y": -4.3850131877,
				"z": -1.4194195451,
				"element": "H" 
			},
			{
				"x": -2.7097583606,
				"y": 1.2997534631,
				"z": 0.5296381298,
				"element": "H" 
			},
			{
				"x": -2.8190292653,
				"y": 0.6024937178,
				"z": 2.1482417718,
				"element": "H" 
			},
			{
				"x": -4.2217991501,
				"y": 0.5621017539,
				"z": 1.0792975165,
				"element": "H" 
			},
			{
				"x": -4.5211112468,
				"y": -2.134057848,
				"z": 0.5858997245,
				"element": "H" 
			},
			{
				"x": 2.0164902952,
				"y": 0.7587908636,
				"z": -2.1583259336,
				"element": "H" 
			},
			{
				"x": 1.5999261072,
				"y": 1.6755611929,
				"z": 2.0364400336,
				"element": "H" 
			},
			{
				"x": -0.4047500351,
				"y": 0.1902788696,
				"z": 2.1289908335,
				"element": "H" 
			},
			{
				"x": 3.9167107248,
				"y": 1.158920487,
				"z": -1.4827416366,
				"element": "H" 
			}
		],
		 "valence_orbital": [ 
			{
				"type": "occ",
				"energy": -0.28668,
				"method": "rhf"
			},
			{
				"type": "occ",
				"energy": -0.28072,
				"method": "rhf"
			},
			{
				"type": "occ",
				"energy": -0.27165,
				"method": "rhf"
			},
			{
				"type": "occ",
				"energy": -0.24239,
				"method": "rhf"
			},
			{
				"type": "occ",
				"energy": -0.23803,
				"method": "rhf"
			},
			{
				"type": "unocc",
				"energy": -0.0651,
				"method": "rhf"
			},
			{
				"type": "unocc",
				"energy": -0.0283,
				"method": "rhf"
			},
			{
				"type": "unocc",
				"energy": 0.01122,
				"method": "rhf"
			},
			{
				"type": "unocc",
				"energy": 0.04524,
				"method": "rhf"
			},
			{
				"type": "unocc",
				"energy": 0.05362,
				"method": "rhf"
			}
		],
		"cosmo_sigma_profile": { 
			"-0.025": 0.0,
			"-0.024": 0.0,
			"-0.023": 0.0,
			"-0.022": 0.0,
			"-0.021": 0.0,
			"-0.02": 0.0,
			"-0.019": 0.738720240984,
			"-0.018": 1.02979169742,
			"-0.017": 0.987057792072,
			"-0.016": 1.03273110018,
			"-0.015": 1.11015497734,
			"-0.014": 0.92521474578,
			"-0.013": 0.924841986301,
			"-0.012": 1.01693527449,
			"-0.011": 1.86017062182,
			"-0.01": 1.3890981795,
			"-0.009": 1.78000908084,
			"-0.008": 3.61236984783,
			"-0.007": 6.25662856841,
			"-0.006": 9.29906840424,
			"-0.005": 14.898436807,
			"-0.004": 17.4473867262,
			"-0.003": 21.7887101045,
			"-0.002": 24.1197657207,
			"-0.001": 26.6834087581,
			"0.0": 23.13599798,
			"0.001": 16.7945522224,
			"0.002": 12.4487662038,
			"0.003": 12.9745538106,
			"0.004": 12.2604402682,
			"0.005": 9.56586266905,
			"0.006": 5.86214737519,
			"0.007": 4.36194324821,
			"0.008": 4.95792860047,
			"0.009": 4.66272012517,
			"0.01": 7.228401261,
			"0.011": 6.77858261571,
			"0.012": 4.69016758451,
			"0.013": 2.23437140311,
			"0.014": 0.930599129982,
			"0.015": 0.604302266328,
			"0.016": 0.0923332626971,
			"0.017": 0.0,
			"0.018": 0.0,
			"0.019": 0.0,
			"0.02": 0.0,
			"0.021": 0.0,
			"0.022": 0.0,
			"0.023": 0.0,
			"0.024": 0.0,
			"0.025": 0.0
		}
	}
}
