{
	 "smiles": "OC(=O)C1=CC=CC=C1OCC1=CC=CC=C1", 
	 "Tm": 350.15, 
	 "num_atms": 29, 
	 "gaussian": { 
		 "optdone": 1, 
		 "sigma_profile": "yes", 
		 "theory": "DFT", 
		 "functional": "B3LYP", 
		 "basiset": "6-31G**", 
		 "properties": { 
			 "R2extent": 5122.9473, 
			 "electric_dipole_moment_norm": 2.53074934753, 
			 "electric_quadrupole_moment_norm": 11.6714998522, 
			 "total_energy": -766.394807798, 
			 "HOMO_LUMO_gap": 0.19773, 
			 "cosmo_polarized_energy": -12.03, 
			 "cosmo_cavitation_energy": 33.48, 
			 "cosmo_dispersion_energy": -23.4, 
			 "cosmo_repulsion_energy": 1.82, 
			 "cosmo_total_nonelectrostatic_energy": 11.9, 
			 "SMD_solvation_energy": 6.88 
		},
		"coords": [
			{
				"x": 0.3830835842,
				"y": -2.2526702038,
				"z": -1.823357546,
				"element": "O" 
			},
			{
				"x": -0.8522574549,
				"y": -2.3030709316,
				"z": -2.3764428661,
				"element": "C" 
			},
			{
				"x": -1.2450153271,
				"y": -3.3083750195,
				"z": -2.9400661022,
				"element": "O" 
			},
			{
				"x": -1.6684862531,
				"y": -1.0630701549,
				"z": -2.2368926943,
				"element": "C" 
			},
			{
				"x": -2.9710762438,
				"y": -1.1424427533,
				"z": -2.7619119693,
				"element": "C" 
			},
			{
				"x": -3.8334541457,
				"y": -0.0541509511,
				"z": -2.7340562184,
				"element": "C" 
			},
			{
				"x": -3.3968504144,
				"y": 1.1534273277,
				"z": -2.1826129793,
				"element": "C" 
			},
			{
				"x": -2.1111526628,
				"y": 1.2566983273,
				"z": -1.6587365326,
				"element": "C" 
			},
			{
				"x": -1.2396068636,
				"y": 0.1609786115,
				"z": -1.6731575356,
				"element": "C" 
			},
			{
				"x": 0.034206728,
				"y": 0.3487335449,
				"z": -1.1985656032,
				"element": "O" 
			},
			{
				"x": 0.2827405573,
				"y": -0.0472124654,
				"z": 0.1667752046,
				"element": "C" 
			},
			{
				"x": -0.2288965501,
				"y": 0.9564147932,
				"z": 1.1760811606,
				"element": "C" 
			},
			{
				"x": 0.2332754708,
				"y": 2.280633989,
				"z": 1.1510081886,
				"element": "C" 
			},
			{
				"x": -0.2234350697,
				"y": 3.2087832665,
				"z": 2.0846896584,
				"element": "C" 
			},
			{
				"x": -1.146394402,
				"y": 2.8237496589,
				"z": 3.0623584423,
				"element": "C" 
			},
			{
				"x": -1.6111869779,
				"y": 1.5093785238,
				"z": 3.0961282853,
				"element": "C" 
			},
			{
				"x": -1.1563844091,
				"y": 0.5831131097,
				"z": 2.1537353326,
				"element": "C" 
			},
			{
				"x": 0.7723738251,
				"y": -3.1241883792,
				"z": -2.008706349,
				"element": "H" 
			},
			{
				"x": -3.275378452,
				"y": -2.0871750895,
				"z": -3.1987493242,
				"element": "H" 
			},
			{
				"x": -4.8338972054,
				"y": -0.14173143,
				"z": -3.1460438545,
				"element": "H" 
			},
			{
				"x": -4.0568889343,
				"y": 2.0160185108,
				"z": -2.1602193487,
				"element": "H" 
			},
			{
				"x": -1.7515148598,
				"y": 2.185563884,
				"z": -1.2309000704,
				"element": "H" 
			},
			{
				"x": -0.1409014841,
				"y": -1.0391501452,
				"z": 0.3531084037,
				"element": "H" 
			},
			{
				"x": 1.3716467603,
				"y": -0.1339140809,
				"z": 0.222978848,
				"element": "H" 
			},
			{
				"x": 0.9485988208,
				"y": 2.5792166121,
				"z": 0.3891144165,
				"element": "H" 
			},
			{
				"x": 0.1425261843,
				"y": 4.2313301375,
				"z": 2.0554512836,
				"element": "H" 
			},
			{
				"x": -1.4997108214,
				"y": 3.5463988721,
				"z": 3.792403077,
				"element": "H" 
			},
			{
				"x": -2.3308465315,
				"y": 1.2043201473,
				"z": 3.8505314999,
				"element": "H" 
			},
			{
				"x": -1.5256168681,
				"y": -0.439307712,
				"z": 2.1785551925,
				"element": "H" 
			}
		],
		 "valence_orbital": [ 
			{
				"type": "occ",
				"energy": -0.27319,
				"method": "rhf"
			},
			{
				"type": "occ",
				"energy": -0.26036,
				"method": "rhf"
			},
			{
				"type": "occ",
				"energy": -0.25424,
				"method": "rhf"
			},
			{
				"type": "occ",
				"energy": -0.24967,
				"method": "rhf"
			},
			{
				"type": "occ",
				"energy": -0.24394,
				"method": "rhf"
			},
			{
				"type": "unocc",
				"energy": -0.04621,
				"method": "rhf"
			},
			{
				"type": "unocc",
				"energy": -0.01447,
				"method": "rhf"
			},
			{
				"type": "unocc",
				"energy": -0.0059,
				"method": "rhf"
			},
			{
				"type": "unocc",
				"energy": 0.00016,
				"method": "rhf"
			},
			{
				"type": "unocc",
				"energy": 0.05846,
				"method": "rhf"
			}
		],
		"cosmo_sigma_profile": { 
			"-0.025": 0.0,
			"-0.024": 0.0,
			"-0.023": 0.0,
			"-0.022": 0.0,
			"-0.021": 0.0,
			"-0.02": 0.0,
			"-0.019": 0.0,
			"-0.018": 0.643255154351,
			"-0.017": 0.99721042597,
			"-0.016": 0.543165701025,
			"-0.015": 0.931940110427,
			"-0.014": 0.923665768076,
			"-0.013": 0.560907589225,
			"-0.012": 0.129575481692,
			"-0.011": 0.920242587573,
			"-0.01": 0.66534473965,
			"-0.009": 0.581037121933,
			"-0.008": 0.640152793934,
			"-0.007": 2.25331317217,
			"-0.006": 13.9318216417,
			"-0.005": 23.7992009588,
			"-0.004": 23.5118676679,
			"-0.003": 22.2300330777,
			"-0.002": 17.7186180939,
			"-0.001": 17.624304227,
			"0.0": 15.5863591067,
			"0.001": 18.715105873,
			"0.002": 20.5285890178,
			"0.003": 22.0279895911,
			"0.004": 19.9519213767,
			"0.005": 13.2455940868,
			"0.006": 6.90108739146,
			"0.007": 2.05962868976,
			"0.008": 3.27261316871,
			"0.009": 2.48987061257,
			"0.01": 3.34058950544,
			"0.011": 4.9318347151,
			"0.012": 5.54444828492,
			"0.013": 0.301551493918,
			"0.014": 0.0,
			"0.015": 0.0,
			"0.016": 0.0,
			"0.017": 0.0,
			"0.018": 0.0,
			"0.019": 0.0,
			"0.02": 0.0,
			"0.021": 0.0,
			"0.022": 0.0,
			"0.023": 0.0,
			"0.024": 0.0,
			"0.025": 0.0
		}
	}
}
