{
	 "smiles": "BrCC(=O)C1=CC=C(C=C1)C(=O)CBr", 
	 "Tm": 446.15, 
	 "num_atms": 22, 
	 "gaussian": { 
		 "optdone": 1, 
		 "sigma_profile": "yes", 
		 "theory": "DFT", 
		 "functional": "B3LYP", 
		 "basiset": "6-31G**", 
		 "properties": { 
			 "R2extent": 8082.0042, 
			 "electric_dipole_moment_norm": 2.61384480603, 
			 "electric_quadrupole_moment_norm": 17.8218469335, 
			 "total_energy": -5679.13577028, 
			 "HOMO_LUMO_gap": 0.16514, 
			 "cosmo_polarized_energy": -12.81, 
			 "cosmo_cavitation_energy": 31.49, 
			 "cosmo_dispersion_energy": -23.22, 
			 "cosmo_repulsion_energy": 1.84, 
			 "cosmo_total_nonelectrostatic_energy": 10.1, 
			 "SMD_solvation_energy": 4.24 
		},
		"coords": [
			{
				"x": -2.3350241069,
				"y": -3.9653444063,
				"z": -1.4033239225,
				"element": "Br" 
			},
			{
				"x": -2.605112657,
				"y": -2.6483436865,
				"z": -2.8555651852,
				"element": "C" 
			},
			{
				"x": -2.7870050845,
				"y": -1.2447847726,
				"z": -2.2881845471,
				"element": "C" 
			},
			{
				"x": -3.8971784301,
				"y": -0.7404229287,
				"z": -2.3218020024,
				"element": "O" 
			},
			{
				"x": -1.6079152645,
				"y": -0.4976211528,
				"z": -1.7463661804,
				"element": "C" 
			},
			{
				"x": -1.8259396399,
				"y": 0.8086152034,
				"z": -1.2816017102,
				"element": "C" 
			},
			{
				"x": -0.7711305951,
				"y": 1.5702020196,
				"z": -0.7934709939,
				"element": "C" 
			},
			{
				"x": 0.5289044577,
				"y": 1.0389440841,
				"z": -0.7643143632,
				"element": "C" 
			},
			{
				"x": 0.7458961096,
				"y": -0.2694481327,
				"z": -1.2234373712,
				"element": "C" 
			},
			{
				"x": -0.3095864676,
				"y": -1.0324359585,
				"z": -1.7078894593,
				"element": "C" 
			},
			{
				"x": 1.7200173484,
				"y": 1.8111613347,
				"z": -0.2878942216,
				"element": "C" 
			},
			{
				"x": 2.8374833905,
				"y": 1.3220554501,
				"z": -0.2941595616,
				"element": "O" 
			},
			{
				"x": 1.5578207087,
				"y": 3.2558481299,
				"z": 0.172022695,
				"element": "C" 
			},
			{
				"x": 0.6958648773,
				"y": 3.3356717029,
				"z": 1.9516754714,
				"element": "Br" 
			},
			{
				"x": -1.7415129565,
				"y": -2.7395744732,
				"z": -3.5139189381,
				"element": "H" 
			},
			{
				"x": -3.5200467288,
				"y": -2.9390376942,
				"z": -3.3652725389,
				"element": "H" 
			},
			{
				"x": -2.8348172705,
				"y": 1.2049432374,
				"z": -1.3135496626,
				"element": "H" 
			},
			{
				"x": -0.9684957058,
				"y": 2.5684419988,
				"z": -0.418991269,
				"element": "H" 
			},
			{
				"x": 1.7544485739,
				"y": -0.666457182,
				"z": -1.1897156803,
				"element": "H" 
			},
			{
				"x": -0.1206796148,
				"y": -2.0484906416,
				"z": -2.0359040338,
				"element": "H" 
			},
			{
				"x": 0.9368067483,
				"y": 3.8541537231,
				"z": -0.4942476291,
				"element": "H" 
			},
			{
				"x": 2.5444023078,
				"y": 3.6963241447,
				"z": 0.2905111038,
				"element": "H" 
			}
		],
		 "valence_orbital": [ 
			{
				"type": "occ",
				"energy": -0.29035,
				"method": "rhf"
			},
			{
				"type": "occ",
				"energy": -0.27767,
				"method": "rhf"
			},
			{
				"type": "occ",
				"energy": -0.27721,
				"method": "rhf"
			},
			{
				"type": "occ",
				"energy": -0.27051,
				"method": "rhf"
			},
			{
				"type": "occ",
				"energy": -0.26919,
				"method": "rhf"
			},
			{
				"type": "unocc",
				"energy": -0.10405,
				"method": "rhf"
			},
			{
				"type": "unocc",
				"energy": -0.05993,
				"method": "rhf"
			},
			{
				"type": "unocc",
				"energy": -0.02836,
				"method": "rhf"
			},
			{
				"type": "unocc",
				"energy": -0.02121,
				"method": "rhf"
			},
			{
				"type": "unocc",
				"energy": 0.01284,
				"method": "rhf"
			}
		],
		"cosmo_sigma_profile": { 
			"-0.025": 0.0,
			"-0.024": 0.0,
			"-0.023": 0.0,
			"-0.022": 0.0,
			"-0.021": 0.0,
			"-0.02": 0.0,
			"-0.019": 0.0,
			"-0.018": 0.0,
			"-0.017": 0.0,
			"-0.016": 0.0,
			"-0.015": 0.0,
			"-0.014": 0.0,
			"-0.013": 0.0,
			"-0.012": 0.0,
			"-0.011": 0.0215436307395,
			"-0.01": 2.8468374474,
			"-0.009": 8.21333648622,
			"-0.008": 9.83096866132,
			"-0.007": 9.88974100505,
			"-0.006": 15.5934941573,
			"-0.005": 12.3820416936,
			"-0.004": 11.5557249354,
			"-0.003": 10.1661872145,
			"-0.002": 13.8963920204,
			"-0.001": 15.6463237553,
			"0.0": 20.5241282441,
			"0.001": 25.5337710431,
			"0.002": 22.9583958253,
			"0.003": 18.144149832,
			"0.004": 18.0768949808,
			"0.005": 16.658616522,
			"0.006": 2.83749891441,
			"0.007": 2.68892146721,
			"0.008": 4.37622328186,
			"0.009": 4.2870526219,
			"0.01": 6.85315203513,
			"0.011": 5.13913329096,
			"0.012": 0.662223337065,
			"0.013": 0.0,
			"0.014": 0.0,
			"0.015": 0.0,
			"0.016": 0.0,
			"0.017": 0.0,
			"0.018": 0.0,
			"0.019": 0.0,
			"0.02": 0.0,
			"0.021": 0.0,
			"0.022": 0.0,
			"0.023": 0.0,
			"0.024": 0.0,
			"0.025": 0.0
		}
	}
}
