{
	 "smiles": "N=C1NCCO1", 
	 "Tm": 343.15, 
	 "num_atms": 12, 
	 "gaussian": { 
		 "optdone": 1, 
		 "sigma_profile": "yes", 
		 "theory": "DFT", 
		 "functional": "B3LYP", 
		 "basiset": "6-31G**", 
		 "properties": { 
			 "R2extent": 932.7531, 
			 "electric_dipole_moment_norm": 3.6799495146, 
			 "electric_quadrupole_moment_norm": 8.17474418132, 
			 "total_energy": -302.648003448, 
			 "HOMO_LUMO_gap": 0.29068, 
			 "cosmo_polarized_energy": -11.32, 
			 "cosmo_cavitation_energy": 15.22, 
			 "cosmo_dispersion_energy": -11.94, 
			 "cosmo_repulsion_energy": 1.05, 
			 "cosmo_total_nonelectrostatic_energy": 4.33, 
			 "SMD_solvation_energy": 1.04 
		},
		"coords": [
			{
				"x": 2.2380708127,
				"y": 0.537185473,
				"z": -2.5747066215,
				"element": "N" 
			},
			{
				"x": 1.76799725,
				"y": 0.3109506465,
				"z": -1.4188130659,
				"element": "C" 
			},
			{
				"x": 0.6530760243,
				"y": -0.4704894611,
				"z": -1.1425020564,
				"element": "N" 
			},
			{
				"x": 0.6706956667,
				"y": -0.8562716495,
				"z": 0.2601349142,
				"element": "C" 
			},
			{
				"x": 1.4060631861,
				"y": 0.3598493103,
				"z": 0.8418307879,
				"element": "C" 
			},
			{
				"x": 2.2608184141,
				"y": 0.7959504574,
				"z": -0.229547585,
				"element": "O" 
			},
			{
				"x": 3.0267048259,
				"y": 1.1793004183,
				"z": -2.5137567008,
				"element": "H" 
			},
			{
				"x": 0.4144406176,
				"y": -1.1448402277,
				"z": -1.8554208285,
				"element": "H" 
			},
			{
				"x": -0.3374855403,
				"y": -0.9674982488,
				"z": 0.6700166297,
				"element": "H" 
			},
			{
				"x": 1.2296515538,
				"y": -1.7867011479,
				"z": 0.4446331994,
				"element": "H" 
			},
			{
				"x": 2.0257097552,
				"y": 0.1269922171,
				"z": 1.7100834206,
				"element": "H" 
			},
			{
				"x": 0.7077574338,
				"y": 1.1661722122,
				"z": 1.0958479064,
				"element": "H" 
			}
		],
		 "valence_orbital": [ 
			{
				"type": "occ",
				"energy": -0.38377,
				"method": "rhf"
			},
			{
				"type": "occ",
				"energy": -0.35826,
				"method": "rhf"
			},
			{
				"type": "occ",
				"energy": -0.27591,
				"method": "rhf"
			},
			{
				"type": "occ",
				"energy": -0.26405,
				"method": "rhf"
			},
			{
				"type": "occ",
				"energy": -0.22945,
				"method": "rhf"
			},
			{
				"type": "unocc",
				"energy": 0.06123,
				"method": "rhf"
			},
			{
				"type": "unocc",
				"energy": 0.07855,
				"method": "rhf"
			},
			{
				"type": "unocc",
				"energy": 0.10494,
				"method": "rhf"
			},
			{
				"type": "unocc",
				"energy": 0.1147,
				"method": "rhf"
			},
			{
				"type": "unocc",
				"energy": 0.13494,
				"method": "rhf"
			}
		],
		"cosmo_sigma_profile": { 
			"-0.025": 0.0,
			"-0.024": 0.0,
			"-0.023": 0.0,
			"-0.022": 0.0,
			"-0.021": 0.0,
			"-0.02": 0.0,
			"-0.019": 0.0,
			"-0.018": 0.0,
			"-0.017": 0.0,
			"-0.016": 0.0,
			"-0.015": 0.0,
			"-0.014": 0.429036040063,
			"-0.013": 1.27253587507,
			"-0.012": 1.27582473324,
			"-0.011": 0.463972811449,
			"-0.01": 1.94296902417,
			"-0.009": 1.76933121477,
			"-0.008": 1.50229962697,
			"-0.007": 3.81800382178,
			"-0.006": 9.81877817456,
			"-0.005": 15.889161765,
			"-0.004": 14.4602000824,
			"-0.003": 8.82569606615,
			"-0.002": 4.80622001608,
			"-0.001": 3.14743991016,
			"0.0": 3.92376208106,
			"0.001": 3.17876226667,
			"0.002": 4.3764569068,
			"0.003": 3.78425604696,
			"0.004": 3.15907853219,
			"0.005": 3.71427434281,
			"0.006": 3.80201172918,
			"0.007": 2.85306663704,
			"0.008": 3.4567905135,
			"0.009": 2.97731240112,
			"0.01": 3.66072501256,
			"0.011": 1.90254367288,
			"0.012": 1.45064848193,
			"0.013": 1.43489792789,
			"0.014": 1.20188562066,
			"0.015": 1.04840765778,
			"0.016": 1.14703145213,
			"0.017": 1.56157198124,
			"0.018": 1.12806015662,
			"0.019": 0.374445900104,
			"0.02": 0.0,
			"0.021": 0.0,
			"0.022": 0.0,
			"0.023": 0.0,
			"0.024": 0.0,
			"0.025": 0.0
		}
	}
}
