{
	 "smiles": "CCCCOC(=O)C1=CC=CC=C1", 
	 "Tm": 250.75, 
	 "num_atms": 27, 
	 "gaussian": { 
		 "optdone": 1, 
		 "sigma_profile": "yes", 
		 "theory": "DFT", 
		 "functional": "B3LYP", 
		 "basiset": "6-31G**", 
		 "properties": { 
			 "R2extent": 4039.2585, 
			 "electric_dipole_moment_norm": 1.97240474802, 
			 "electric_quadrupole_moment_norm": 14.6208384031, 
			 "total_energy": -578.082220853, 
			 "HOMO_LUMO_gap": 0.21374, 
			 "cosmo_polarized_energy": -7.03, 
			 "cosmo_cavitation_energy": 30.39, 
			 "cosmo_dispersion_energy": -21.44, 
			 "cosmo_repulsion_energy": 1.72, 
			 "cosmo_total_nonelectrostatic_energy": 10.67, 
			 "SMD_solvation_energy": 5.92 
		},
		"coords": [
			{
				"x": -1.8055712329,
				"y": -1.4208281685,
				"z": -1.1259839868,
				"element": "C" 
			},
			{
				"x": -2.8949591058,
				"y": -0.7103445331,
				"z": -1.9382178794,
				"element": "C" 
			},
			{
				"x": -3.18534964,
				"y": 0.743832366,
				"z": -1.5271415242,
				"element": "C" 
			},
			{
				"x": -2.1059782974,
				"y": 1.7648100796,
				"z": -1.8621012417,
				"element": "C" 
			},
			{
				"x": -0.9870324749,
				"y": 1.5887510665,
				"z": -0.9626500671,
				"element": "O" 
			},
			{
				"x": 0.0534993859,
				"y": 2.4329052536,
				"z": -1.1495874078,
				"element": "C" 
			},
			{
				"x": 0.0722054169,
				"y": 3.2811308331,
				"z": -2.0213724822,
				"element": "O" 
			},
			{
				"x": 1.1596671711,
				"y": 2.2040548378,
				"z": -0.1756547354,
				"element": "C" 
			},
			{
				"x": 1.0832646003,
				"y": 1.2374934125,
				"z": 0.8369666034,
				"element": "C" 
			},
			{
				"x": 2.1496770454,
				"y": 1.0703489345,
				"z": 1.7193141175,
				"element": "C" 
			},
			{
				"x": 3.2929528571,
				"y": 1.8637625354,
				"z": 1.5961738834,
				"element": "C" 
			},
			{
				"x": 3.3706586136,
				"y": 2.8288449157,
				"z": 0.5881943501,
				"element": "C" 
			},
			{
				"x": 2.3074886112,
				"y": 2.9996499041,
				"z": -0.2948634849,
				"element": "C" 
			},
			{
				"x": -0.8330594629,
				"y": -0.936192521,
				"z": -1.2403380574,
				"element": "H" 
			},
			{
				"x": -1.704863067,
				"y": -2.4643572109,
				"z": -1.4427657434,
				"element": "H" 
			},
			{
				"x": -2.051040554,
				"y": -1.4208263193,
				"z": -0.0575028392,
				"element": "H" 
			},
			{
				"x": -3.8296454414,
				"y": -1.2786579638,
				"z": -1.8501787982,
				"element": "H" 
			},
			{
				"x": -2.6308420067,
				"y": -0.7307611305,
				"z": -3.0046087508,
				"element": "H" 
			},
			{
				"x": -3.4041576832,
				"y": 0.7988605243,
				"z": -0.4527969815,
				"element": "H" 
			},
			{
				"x": -4.0951329298,
				"y": 1.0772587281,
				"z": -2.0432920289,
				"element": "H" 
			},
			{
				"x": -1.7509487298,
				"y": 1.6591865628,
				"z": -2.893209457,
				"element": "H" 
			},
			{
				"x": -2.478546767,
				"y": 2.7880963477,
				"z": -1.7489770872,
				"element": "H" 
			},
			{
				"x": 0.1919606004,
				"y": 0.6274616806,
				"z": 0.9275162639,
				"element": "H" 
			},
			{
				"x": 2.0892196694,
				"y": 0.3214669011,
				"z": 2.5036188806,
				"element": "H" 
			},
			{
				"x": 4.1221937202,
				"y": 1.7306037994,
				"z": 2.2853199383,
				"element": "H" 
			},
			{
				"x": 4.2590648108,
				"y": 3.4461672888,
				"z": 0.4926144555,
				"element": "H" 
			},
			{
				"x": 2.3423748907,
				"y": 3.7420818755,
				"z": -1.0849759395,
				"element": "H" 
			}
		],
		 "valence_orbital": [ 
			{
				"type": "occ",
				"energy": -0.32452,
				"method": "rhf"
			},
			{
				"type": "occ",
				"energy": -0.29459,
				"method": "rhf"
			},
			{
				"type": "occ",
				"energy": -0.26936,
				"method": "rhf"
			},
			{
				"type": "occ",
				"energy": -0.25772,
				"method": "rhf"
			},
			{
				"type": "occ",
				"energy": -0.25651,
				"method": "rhf"
			},
			{
				"type": "unocc",
				"energy": -0.04277,
				"method": "rhf"
			},
			{
				"type": "unocc",
				"energy": -0.00645,
				"method": "rhf"
			},
			{
				"type": "unocc",
				"energy": 0.06021,
				"method": "rhf"
			},
			{
				"type": "unocc",
				"energy": 0.08376,
				"method": "rhf"
			},
			{
				"type": "unocc",
				"energy": 0.09613,
				"method": "rhf"
			}
		],
		"cosmo_sigma_profile": { 
			"-0.025": 0.0,
			"-0.024": 0.0,
			"-0.023": 0.0,
			"-0.022": 0.0,
			"-0.021": 0.0,
			"-0.02": 0.0,
			"-0.019": 0.0,
			"-0.018": 0.0,
			"-0.017": 0.0,
			"-0.016": 0.0,
			"-0.015": 0.0,
			"-0.014": 0.0,
			"-0.013": 0.0,
			"-0.012": 0.0,
			"-0.011": 0.0,
			"-0.01": 0.0,
			"-0.009": 0.0,
			"-0.008": 0.0,
			"-0.007": 0.882419230318,
			"-0.006": 7.38291078811,
			"-0.005": 13.1789360053,
			"-0.004": 19.8327044794,
			"-0.003": 21.4437754856,
			"-0.002": 27.3454887477,
			"-0.001": 27.1604191429,
			"0.0": 29.7639605807,
			"0.001": 25.6604711917,
			"0.002": 17.7586031276,
			"0.003": 13.9501464733,
			"0.004": 14.7085626759,
			"0.005": 4.64857132318,
			"0.006": 1.67141900445,
			"0.007": 1.39247321653,
			"0.008": 1.66139398941,
			"0.009": 1.71246600882,
			"0.01": 1.74318565553,
			"0.011": 2.56947045997,
			"0.012": 4.66692262551,
			"0.013": 0.559408628043,
			"0.014": 0.0,
			"0.015": 0.0,
			"0.016": 0.0,
			"0.017": 0.0,
			"0.018": 0.0,
			"0.019": 0.0,
			"0.02": 0.0,
			"0.021": 0.0,
			"0.022": 0.0,
			"0.023": 0.0,
			"0.024": 0.0,
			"0.025": 0.0
		}
	}
}
