{
	 "smiles": "CC1=CC=CC(NC2=CC=CC=C2)=C1", 
	 "Tm": 303.15, 
	 "num_atms": 27, 
	 "gaussian": { 
		 "optdone": 1, 
		 "sigma_profile": "yes", 
		 "theory": "DFT", 
		 "functional": "B3LYP", 
		 "basiset": "6-31G**", 
		 "properties": { 
			 "R2extent": 4483.5237, 
			 "electric_dipole_moment_norm": 0.578230914082, 
			 "electric_quadrupole_moment_norm": 10.1237894694, 
			 "total_energy": -557.980064855, 
			 "HOMO_LUMO_gap": 0.1816, 
			 "cosmo_polarized_energy": -7.57, 
			 "cosmo_cavitation_energy": 30.21, 
			 "cosmo_dispersion_energy": -22.09, 
			 "cosmo_repulsion_energy": 1.74, 
			 "cosmo_total_nonelectrostatic_energy": 9.85, 
			 "SMD_solvation_energy": 4.95 
		},
		"coords": [
			{
				"x": 0.094600108,
				"y": -2.5087843665,
				"z": 0.5514045008,
				"element": "C" 
			},
			{
				"x": 0.8215932621,
				"y": -1.2863246371,
				"z": 0.0391936172,
				"element": "C" 
			},
			{
				"x": 2.2180477706,
				"y": -1.2030213572,
				"z": 0.1112159082,
				"element": "C" 
			},
			{
				"x": 2.8744828466,
				"y": -0.0719426988,
				"z": -0.3756636093,
				"element": "C" 
			},
			{
				"x": 2.158487175,
				"y": 0.9732002244,
				"z": -0.9503718616,
				"element": "C" 
			},
			{
				"x": 0.7561050154,
				"y": 0.9073145781,
				"z": -1.0332307438,
				"element": "C" 
			},
			{
				"x": 0.0704890633,
				"y": 2.0036302769,
				"z": -1.5689374464,
				"element": "N" 
			},
			{
				"x": -1.2004492495,
				"y": 2.069744311,
				"z": -2.1486594241,
				"element": "C" 
			},
			{
				"x": -1.8525750269,
				"y": 3.3164749493,
				"z": -2.1881846613,
				"element": "C" 
			},
			{
				"x": -3.097014864,
				"y": 3.4494554477,
				"z": -2.7970792853,
				"element": "C" 
			},
			{
				"x": -3.7304091775,
				"y": 2.3432714356,
				"z": -3.3683148013,
				"element": "C" 
			},
			{
				"x": -3.085926001,
				"y": 1.105569489,
				"z": -3.3347753762,
				"element": "C" 
			},
			{
				"x": -1.8319137058,
				"y": 0.9620782698,
				"z": -2.7426399625,
				"element": "C" 
			},
			{
				"x": 0.1013824149,
				"y": -0.2260360211,
				"z": -0.5215713402,
				"element": "C" 
			},
			{
				"x": 0.630309996,
				"y": -2.9716095,
				"z": 1.3857095518,
				"element": "H" 
			},
			{
				"x": -0.9157752123,
				"y": -2.262557228,
				"z": 0.8916028876,
				"element": "H" 
			},
			{
				"x": -0.0026893481,
				"y": -3.269029123,
				"z": -0.2340209257,
				"element": "H" 
			},
			{
				"x": 2.7869238974,
				"y": -2.0172608078,
				"z": 0.5514895259,
				"element": "H" 
			},
			{
				"x": 3.957232762,
				"y": -0.0049403097,
				"z": -0.3132442963,
				"element": "H" 
			},
			{
				"x": 2.6776001542,
				"y": 1.8447538785,
				"z": -1.3418067634,
				"element": "H" 
			},
			{
				"x": 0.5709217143,
				"y": 2.8788272521,
				"z": -1.5344928209,
				"element": "H" 
			},
			{
				"x": -1.3753661769,
				"y": 4.1797549968,
				"z": -1.729975758,
				"element": "H" 
			},
			{
				"x": -3.5780870863,
				"y": 4.4235448978,
				"z": -2.8152364022,
				"element": "H" 
			},
			{
				"x": -4.705580239,
				"y": 2.4453822371,
				"z": -3.8339537203,
				"element": "H" 
			},
			{
				"x": -3.5552599259,
				"y": 0.2369357932,
				"z": -3.7887901142,
				"element": "H" 
			},
			{
				"x": -1.3317890989,
				"y": 0.0010553254,
				"z": -2.7614793651,
				"element": "H" 
			},
			{
				"x": -0.982141068,
				"y": -0.2698873133,
				"z": -0.5359873133,
				"element": "H" 
			}
		],
		 "valence_orbital": [ 
			{
				"type": "occ",
				"energy": -0.30826,
				"method": "rhf"
			},
			{
				"type": "occ",
				"energy": -0.24723,
				"method": "rhf"
			},
			{
				"type": "occ",
				"energy": -0.24635,
				"method": "rhf"
			},
			{
				"type": "occ",
				"energy": -0.23744,
				"method": "rhf"
			},
			{
				"type": "occ",
				"energy": -0.18552,
				"method": "rhf"
			},
			{
				"type": "unocc",
				"energy": -0.00392,
				"method": "rhf"
			},
			{
				"type": "unocc",
				"energy": 0.00185,
				"method": "rhf"
			},
			{
				"type": "unocc",
				"energy": 0.00462,
				"method": "rhf"
			},
			{
				"type": "unocc",
				"energy": 0.03428,
				"method": "rhf"
			},
			{
				"type": "unocc",
				"energy": 0.08619,
				"method": "rhf"
			}
		],
		"cosmo_sigma_profile": { 
			"-0.025": 0.0,
			"-0.024": 0.0,
			"-0.023": 0.0,
			"-0.022": 0.0,
			"-0.021": 0.0,
			"-0.02": 0.0,
			"-0.019": 0.0,
			"-0.018": 0.0,
			"-0.017": 0.0,
			"-0.016": 0.0,
			"-0.015": 0.0,
			"-0.014": 0.247344195169,
			"-0.013": 0.966998518963,
			"-0.012": 1.62220603561,
			"-0.011": 1.31878549926,
			"-0.01": 1.27471334509,
			"-0.009": 1.44545816037,
			"-0.008": 1.85066654818,
			"-0.007": 2.17689111549,
			"-0.006": 3.94287630636,
			"-0.005": 12.2040260641,
			"-0.004": 22.7413348572,
			"-0.003": 25.2059383282,
			"-0.002": 21.3718268876,
			"-0.001": 18.5647155097,
			"0.0": 20.8785573127,
			"0.001": 16.2871411887,
			"0.002": 11.7790727637,
			"0.003": 14.6173370749,
			"0.004": 17.5032470074,
			"0.005": 17.4893604787,
			"0.006": 16.3082601178,
			"0.007": 10.5920934844,
			"0.008": 0.193509022483,
			"0.009": 0.0,
			"0.01": 0.0,
			"0.011": 0.0,
			"0.012": 0.0,
			"0.013": 0.0,
			"0.014": 0.0,
			"0.015": 0.0,
			"0.016": 0.0,
			"0.017": 0.0,
			"0.018": 0.0,
			"0.019": 0.0,
			"0.02": 0.0,
			"0.021": 0.0,
			"0.022": 0.0,
			"0.023": 0.0,
			"0.024": 0.0,
			"0.025": 0.0
		}
	}
}
