{
	 "smiles": "NC(=O)C(=CC1=CC=C(Cl)C=C1)C#N", 
	 "Tm": 373.15, 
	 "num_atms": 21, 
	 "gaussian": { 
		 "optdone": 1, 
		 "sigma_profile": "yes", 
		 "theory": "DFT", 
		 "functional": "B3LYP", 
		 "basiset": "6-31G**", 
		 "properties": { 
			 "R2extent": 5924.9231, 
			 "electric_dipole_moment_norm": 0.394490380111, 
			 "electric_quadrupole_moment_norm": 19.7884997956, 
			 "total_energy": -1030.18600219, 
			 "HOMO_LUMO_gap": 0.15212, 
			 "cosmo_polarized_energy": -13.43, 
			 "cosmo_cavitation_energy": 28.82, 
			 "cosmo_dispersion_energy": -20.88, 
			 "cosmo_repulsion_energy": 1.64, 
			 "cosmo_total_nonelectrostatic_energy": 9.58, 
			 "SMD_solvation_energy": 6.56 
		},
		"coords": [
			{
				"x": -0.4381243735,
				"y": 3.6638351702,
				"z": 0.4648943013,
				"element": "N" 
			},
			{
				"x": -1.0517199229,
				"y": 2.4497940794,
				"z": 0.5334036904,
				"element": "C" 
			},
			{
				"x": -2.2067320775,
				"y": 2.3410703382,
				"z": 0.9353110916,
				"element": "O" 
			},
			{
				"x": -0.2056314703,
				"y": 1.2854303953,
				"z": 0.0831482594,
				"element": "C" 
			},
			{
				"x": -0.5159734882,
				"y": -0.0475365253,
				"z": 0.027353559,
				"element": "C" 
			},
			{
				"x": -1.6637773433,
				"y": -0.8912142662,
				"z": 0.3336606336,
				"element": "C" 
			},
			{
				"x": -1.4780366746,
				"y": -2.2734855414,
				"z": 0.0938904696,
				"element": "C" 
			},
			{
				"x": -2.4815981893,
				"y": -3.2010871198,
				"z": 0.3377206154,
				"element": "C" 
			},
			{
				"x": -3.706173754,
				"y": -2.7498331,
				"z": 0.8334700716,
				"element": "C" 
			},
			{
				"x": -4.9845365774,
				"y": -3.9047205585,
				"z": 1.1472333443,
				"element": "Cl" 
			},
			{
				"x": -3.9258448485,
				"y": -1.3935652017,
				"z": 1.0821601462,
				"element": "C" 
			},
			{
				"x": -2.9152476471,
				"y": -0.4712010765,
				"z": 0.8352268783,
				"element": "C" 
			},
			{
				"x": 1.1216544285,
				"y": 1.6212310851,
				"z": -0.3514496329,
				"element": "C" 
			},
			{
				"x": 2.1873402327,
				"y": 1.9460382895,
				"z": -0.6935119749,
				"element": "N" 
			},
			{
				"x": -0.9754541284,
				"y": 4.4646951259,
				"z": 0.7583357483,
				"element": "H" 
			},
			{
				"x": 0.5077708442,
				"y": 3.7902608408,
				"z": 0.1402467825,
				"element": "H" 
			},
			{
				"x": 0.3158759455,
				"y": -0.642753317,
				"z": -0.3460862908,
				"element": "H" 
			},
			{
				"x": -0.5246795787,
				"y": -2.6240941218,
				"z": -0.292040157,
				"element": "H" 
			},
			{
				"x": -2.3229698843,
				"y": -4.2566172237,
				"z": 0.1486244413,
				"element": "H" 
			},
			{
				"x": -4.8841609777,
				"y": -1.0632263904,
				"z": 1.4672633712,
				"element": "H" 
			},
			{
				"x": -3.0754805151,
				"y": 0.5815791179,
				"z": 1.0246446515,
				"element": "H" 
			}
		],
		 "valence_orbital": [ 
			{
				"type": "occ",
				"energy": -0.30424,
				"method": "rhf"
			},
			{
				"type": "occ",
				"energy": -0.28455,
				"method": "rhf"
			},
			{
				"type": "occ",
				"energy": -0.27741,
				"method": "rhf"
			},
			{
				"type": "occ",
				"energy": -0.27206,
				"method": "rhf"
			},
			{
				"type": "occ",
				"energy": -0.24767,
				"method": "rhf"
			},
			{
				"type": "unocc",
				"energy": -0.09555,
				"method": "rhf"
			},
			{
				"type": "unocc",
				"energy": -0.02563,
				"method": "rhf"
			},
			{
				"type": "unocc",
				"energy": -0.00014,
				"method": "rhf"
			},
			{
				"type": "unocc",
				"energy": 0.01792,
				"method": "rhf"
			},
			{
				"type": "unocc",
				"energy": 0.02156,
				"method": "rhf"
			}
		],
		"cosmo_sigma_profile": { 
			"-0.025": 0.0,
			"-0.024": 0.0,
			"-0.023": 0.0,
			"-0.022": 0.0,
			"-0.021": 0.0,
			"-0.02": 0.0,
			"-0.019": 0.0,
			"-0.018": 0.0,
			"-0.017": 0.0,
			"-0.016": 0.0,
			"-0.015": 0.382411624628,
			"-0.014": 1.56462848819,
			"-0.013": 1.57223914946,
			"-0.012": 2.22526828785,
			"-0.011": 2.21261101696,
			"-0.01": 4.03046830733,
			"-0.009": 4.15633842156,
			"-0.008": 5.77103923143,
			"-0.007": 9.66277996408,
			"-0.006": 8.35552080567,
			"-0.005": 7.97275071369,
			"-0.004": 9.56158980131,
			"-0.003": 11.8777736155,
			"-0.002": 14.5065551675,
			"-0.001": 17.6491622329,
			"0.0": 21.0799385925,
			"0.001": 22.3444902464,
			"0.002": 26.6899305758,
			"0.003": 14.0859660761,
			"0.004": 14.1978523408,
			"0.005": 3.95666088018,
			"0.006": 2.82691538568,
			"0.007": 4.2321572303,
			"0.008": 4.39916178945,
			"0.009": 4.38443656557,
			"0.01": 3.68907796691,
			"0.011": 4.87974089487,
			"0.012": 4.17243730244,
			"0.013": 2.69963422351,
			"0.014": 0.275474286551,
			"0.015": 0.0,
			"0.016": 0.0,
			"0.017": 0.0,
			"0.018": 0.0,
			"0.019": 0.0,
			"0.02": 0.0,
			"0.021": 0.0,
			"0.022": 0.0,
			"0.023": 0.0,
			"0.024": 0.0,
			"0.025": 0.0
		}
	}
}
