{
	 "smiles": "CCOC1=CC=C(C=C1)C1=CC=C(OCC)C=C1", 
	 "Tm": 447.15, 
	 "num_atms": 36, 
	 "gaussian": { 
		 "optdone": 1, 
		 "sigma_profile": "yes", 
		 "theory": "DFT", 
		 "functional": "B3LYP", 
		 "basiset": "6-31G**", 
		 "properties": { 
			 "R2extent": 9815.5924, 
			 "electric_dipole_moment_norm": 0.556770141082, 
			 "electric_quadrupole_moment_norm": 20.7006229363, 
			 "total_energy": -770.999103373, 
			 "HOMO_LUMO_gap": 0.18338, 
			 "cosmo_polarized_energy": -9.26, 
			 "cosmo_cavitation_energy": 38.96, 
			 "cosmo_dispersion_energy": -28.47, 
			 "cosmo_repulsion_energy": 2.22, 
			 "cosmo_total_nonelectrostatic_energy": 12.71, 
			 "SMD_solvation_energy": 7.09 
		},
		"coords": [
			{
				"x": -0.1253194516,
				"y": -3.1689155722,
				"z": -6.4858593233,
				"element": "C" 
			},
			{
				"x": 0.482953874,
				"y": -3.18872636,
				"z": -5.0941841956,
				"element": "C" 
			},
			{
				"x": -0.059263023,
				"y": -2.0851814152,
				"z": -4.3720232489,
				"element": "O" 
			},
			{
				"x": 0.3310940311,
				"y": -1.8932732388,
				"z": -3.077913275,
				"element": "C" 
			},
			{
				"x": 1.2451141405,
				"y": -2.6994152836,
				"z": -2.3894753948,
				"element": "C" 
			},
			{
				"x": 1.5693709252,
				"y": -2.40190717,
				"z": -1.0640215095,
				"element": "C" 
			},
			{
				"x": 1.001638615,
				"y": -1.3135227949,
				"z": -0.3871012645,
				"element": "C" 
			},
			{
				"x": 0.0825503022,
				"y": -0.5192905728,
				"z": -1.1005633277,
				"element": "C" 
			},
			{
				"x": -0.2472529466,
				"y": -0.7977871928,
				"z": -2.4194495207,
				"element": "C" 
			},
			{
				"x": 1.3539644478,
				"y": -1.0098212924,
				"z": 1.0210842513,
				"element": "C" 
			},
			{
				"x": 1.5848587135,
				"y": -2.0359832871,
				"z": 1.9574705055,
				"element": "C" 
			},
			{
				"x": 1.9168442274,
				"y": -1.7552165188,
				"z": 3.2755865094,
				"element": "C" 
			},
			{
				"x": 2.0282554337,
				"y": -0.4268832754,
				"z": 3.7133826035,
				"element": "C" 
			},
			{
				"x": 2.3770479561,
				"y": -0.2675896099,
				"z": 5.0252237115,
				"element": "O" 
			},
			{
				"x": 2.4630841563,
				"y": 1.043970114,
				"z": 5.585246077,
				"element": "C" 
			},
			{
				"x": 1.0981283584,
				"y": 1.6136441001,
				"z": 5.9595071844,
				"element": "C" 
			},
			{
				"x": 1.7976818496,
				"y": 0.6104512576,
				"z": 2.8015087793,
				"element": "C" 
			},
			{
				"x": 1.4701837183,
				"y": 0.3106071584,
				"z": 1.477693395,
				"element": "C" 
			},
			{
				"x": 0.1159080057,
				"y": -2.2333382592,
				"z": -6.9981856685,
				"element": "H" 
			},
			{
				"x": -1.2137047228,
				"y": -3.260810801,
				"z": -6.43196456,
				"element": "H" 
			},
			{
				"x": 0.265077151,
				"y": -4.0011728635,
				"z": -7.0796323629,
				"element": "H" 
			},
			{
				"x": 1.5779208292,
				"y": -3.1026440388,
				"z": -5.1450467547,
				"element": "H" 
			},
			{
				"x": 0.2452396189,
				"y": -4.1291319076,
				"z": -4.5764684156,
				"element": "H" 
			},
			{
				"x": 1.7172842129,
				"y": -3.5468247128,
				"z": -2.8722731678,
				"element": "H" 
			},
			{
				"x": 2.3026729982,
				"y": -3.0218149363,
				"z": -0.5562142524,
				"element": "H" 
			},
			{
				"x": -0.3998683558,
				"y": 0.3165213204,
				"z": -0.6021863133,
				"element": "H" 
			},
			{
				"x": -0.9630424534,
				"y": -0.1876195832,
				"z": -2.9609738129,
				"element": "H" 
			},
			{
				"x": 1.4780020577,
				"y": -3.0724295103,
				"z": 1.650727827,
				"element": "H" 
			},
			{
				"x": 2.0871446657,
				"y": -2.5510113745,
				"z": 3.9936090694,
				"element": "H" 
			},
			{
				"x": 3.0781781264,
				"y": 0.9171420463,
				"z": 6.4808504034,
				"element": "H" 
			},
			{
				"x": 3.0078946141,
				"y": 1.714044937,
				"z": 4.9078186344,
				"element": "H" 
			},
			{
				"x": 0.45945552,
				"y": 1.7431377247,
				"z": 5.0816922237,
				"element": "H" 
			},
			{
				"x": 0.5872028144,
				"y": 0.9432331535,
				"z": 6.6564860181,
				"element": "H" 
			},
			{
				"x": 1.2176804799,
				"y": 2.5889971527,
				"z": 6.4433052614,
				"element": "H" 
			},
			{
				"x": 1.8782654913,
				"y": 1.6489680409,
				"z": 3.1002824981,
				"element": "H" 
			},
			{
				"x": 1.3238536187,
				"y": 1.1305945657,
				"z": 0.780461416,
				"element": "H" 
			}
		],
		 "valence_orbital": [ 
			{
				"type": "occ",
				"energy": -0.30087,
				"method": "rhf"
			},
			{
				"type": "occ",
				"energy": -0.24568,
				"method": "rhf"
			},
			{
				"type": "occ",
				"energy": -0.24541,
				"method": "rhf"
			},
			{
				"type": "occ",
				"energy": -0.23155,
				"method": "rhf"
			},
			{
				"type": "occ",
				"energy": -0.19104,
				"method": "rhf"
			},
			{
				"type": "unocc",
				"energy": -0.00766,
				"method": "rhf"
			},
			{
				"type": "unocc",
				"energy": 0.0006,
				"method": "rhf"
			},
			{
				"type": "unocc",
				"energy": 0.00556,
				"method": "rhf"
			},
			{
				"type": "unocc",
				"energy": 0.04902,
				"method": "rhf"
			},
			{
				"type": "unocc",
				"energy": 0.09294,
				"method": "rhf"
			}
		],
		"cosmo_sigma_profile": { 
			"-0.025": 0.0,
			"-0.024": 0.0,
			"-0.023": 0.0,
			"-0.022": 0.0,
			"-0.021": 0.0,
			"-0.02": 0.0,
			"-0.019": 0.0,
			"-0.018": 0.0,
			"-0.017": 0.0,
			"-0.016": 0.0,
			"-0.015": 0.0,
			"-0.014": 0.0,
			"-0.013": 0.0,
			"-0.012": 0.0,
			"-0.011": 0.0,
			"-0.01": 0.0,
			"-0.009": 0.0,
			"-0.008": 0.0,
			"-0.007": 0.881906945382,
			"-0.006": 7.77651603374,
			"-0.005": 25.2506249476,
			"-0.004": 34.5050736781,
			"-0.003": 37.8473391746,
			"-0.002": 29.1992621212,
			"-0.001": 23.3311336667,
			"0.0": 25.2743525628,
			"0.001": 18.6667053843,
			"0.002": 14.268437686,
			"0.003": 17.8820121572,
			"0.004": 21.935162782,
			"0.005": 23.3558659242,
			"0.006": 15.8488079396,
			"0.007": 2.87178512147,
			"0.008": 3.48040664108,
			"0.009": 2.4119416144,
			"0.01": 2.76599844516,
			"0.011": 0.999666377404,
			"0.012": 0.0,
			"0.013": 0.0,
			"0.014": 0.0,
			"0.015": 0.0,
			"0.016": 0.0,
			"0.017": 0.0,
			"0.018": 0.0,
			"0.019": 0.0,
			"0.02": 0.0,
			"0.021": 0.0,
			"0.022": 0.0,
			"0.023": 0.0,
			"0.024": 0.0,
			"0.025": 0.0
		}
	}
}
