{
	 "smiles": "O=CC1=C(N=C(S1)N1CCCCC1)C1=CC=CS1", 
	 "Tm": 391.15, 
	 "num_atms": 32, 
	 "gaussian": { 
		 "optdone": 1, 
		 "sigma_profile": "yes", 
		 "theory": "DFT", 
		 "functional": "B3LYP", 
		 "basiset": "6-31G**", 
		 "properties": { 
			 "R2extent": 7415.4172, 
			 "electric_dipole_moment_norm": 6.24583245853, 
			 "electric_quadrupole_moment_norm": 26.4631983424, 
			 "total_energy": -1484.90560066, 
			 "HOMO_LUMO_gap": 0.13707, 
			 "cosmo_polarized_energy": -13.35, 
			 "cosmo_cavitation_energy": 37.26, 
			 "cosmo_dispersion_energy": -28.26, 
			 "cosmo_repulsion_energy": 2.09, 
			 "cosmo_total_nonelectrostatic_energy": 11.09, 
			 "SMD_solvation_energy": 4.98 
		},
		"coords": [
			{
				"x": -3.5514961564,
				"y": -1.3125405242,
				"z": -2.2738587073,
				"element": "O" 
			},
			{
				"x": -2.5158293651,
				"y": -0.7482275005,
				"z": -2.6121534346,
				"element": "C" 
			},
			{
				"x": -1.6169991097,
				"y": -0.1052529321,
				"z": -1.6837252037,
				"element": "C" 
			},
			{
				"x": -0.4078842845,
				"y": 0.5700594628,
				"z": -1.846204982,
				"element": "C" 
			},
			{
				"x": 0.2212353983,
				"y": 0.9471720883,
				"z": -0.6888651799,
				"element": "N" 
			},
			{
				"x": -0.4776424681,
				"y": 0.5936795437,
				"z": 0.3752805176,
				"element": "C" 
			},
			{
				"x": -1.9985238359,
				"y": -0.2375399554,
				"z": 0.034300443,
				"element": "S" 
			},
			{
				"x": -0.0877495031,
				"y": 0.8529070272,
				"z": 1.643062825,
				"element": "N" 
			},
			{
				"x": -0.9087558796,
				"y": 0.4353256737,
				"z": 2.7852644285,
				"element": "C" 
			},
			{
				"x": -0.0915230459,
				"y": 0.4992922056,
				"z": 4.0770291473,
				"element": "C" 
			},
			{
				"x": 0.4527164544,
				"y": 1.9159182751,
				"z": 4.3536376108,
				"element": "C" 
			},
			{
				"x": 0.850478572,
				"y": 2.6432256414,
				"z": 3.0441600555,
				"element": "C" 
			},
			{
				"x": 1.1134289792,
				"y": 1.6650960116,
				"z": 1.8957092234,
				"element": "C" 
			},
			{
				"x": 0.2799193014,
				"y": 0.919074831,
				"z": -3.0880488757,
				"element": "C" 
			},
			{
				"x": 1.6040405867,
				"y": 1.2954997972,
				"z": -3.1779969883,
				"element": "C" 
			},
			{
				"x": 2.0181505379,
				"y": 1.6084876519,
				"z": -4.5008675716,
				"element": "C" 
			},
			{
				"x": 1.0057536053,
				"y": 1.4847800859,
				"z": -5.4145851765,
				"element": "C" 
			},
			{
				"x": -0.4727405259,
				"y": 0.9802740179,
				"z": -4.6687313573,
				"element": "S" 
			},
			{
				"x": -2.2091948911,
				"y": -0.7222717443,
				"z": -3.675774127,
				"element": "H" 
			},
			{
				"x": -1.8035301045,
				"y": 1.0725271269,
				"z": 2.8642273732,
				"element": "H" 
			},
			{
				"x": -1.2581339608,
				"y": -0.5899677736,
				"z": 2.6137047159,
				"element": "H" 
			},
			{
				"x": 0.7372816808,
				"y": -0.2135680593,
				"z": 3.9963457847,
				"element": "H" 
			},
			{
				"x": -0.7163857277,
				"y": 0.1555384804,
				"z": 4.9073144171,
				"element": "H" 
			},
			{
				"x": -0.3018088199,
				"y": 2.5077462999,
				"z": 4.8833324145,
				"element": "H" 
			},
			{
				"x": 1.3131171725,
				"y": 1.8402125536,
				"z": 5.027079282,
				"element": "H" 
			},
			{
				"x": 1.7417156789,
				"y": 3.2607313111,
				"z": 3.1969396287,
				"element": "H" 
			},
			{
				"x": 0.0496342434,
				"y": 3.323543406,
				"z": 2.7328704777,
				"element": "H" 
			},
			{
				"x": 1.9655770602,
				"y": 1.0106768611,
				"z": 2.127509881,
				"element": "H" 
			},
			{
				"x": 1.3509190359,
				"y": 2.1893603813,
				"z": 0.9698564961,
				"element": "H" 
			},
			{
				"x": 2.2412411562,
				"y": 1.3362064064,
				"z": -2.3042184502,
				"element": "H" 
			},
			{
				"x": 3.0245600903,
				"y": 1.91419093,
				"z": -4.7629053495,
				"element": "H" 
			},
			{
				"x": 1.0356281246,
				"y": 1.6592424194,
				"z": -6.4812893184,
				"element": "H" 
			}
		],
		 "valence_orbital": [ 
			{
				"type": "occ",
				"energy": -0.28114,
				"method": "rhf"
			},
			{
				"type": "occ",
				"energy": -0.25703,
				"method": "rhf"
			},
			{
				"type": "occ",
				"energy": -0.2356,
				"method": "rhf"
			},
			{
				"type": "occ",
				"energy": -0.23311,
				"method": "rhf"
			},
			{
				"type": "occ",
				"energy": -0.20161,
				"method": "rhf"
			},
			{
				"type": "unocc",
				"energy": -0.06454,
				"method": "rhf"
			},
			{
				"type": "unocc",
				"energy": -0.00321,
				"method": "rhf"
			},
			{
				"type": "unocc",
				"energy": 0.02087,
				"method": "rhf"
			},
			{
				"type": "unocc",
				"energy": 0.02803,
				"method": "rhf"
			},
			{
				"type": "unocc",
				"energy": 0.03288,
				"method": "rhf"
			}
		],
		"cosmo_sigma_profile": { 
			"-0.025": 0.0,
			"-0.024": 0.0,
			"-0.023": 0.0,
			"-0.022": 0.0,
			"-0.021": 0.0,
			"-0.02": 0.0,
			"-0.019": 0.0,
			"-0.018": 0.0,
			"-0.017": 0.0,
			"-0.016": 0.0,
			"-0.015": 0.0,
			"-0.014": 0.0,
			"-0.013": 0.0,
			"-0.012": 0.0,
			"-0.011": 0.0,
			"-0.01": 0.0392676038588,
			"-0.009": 1.52764831112,
			"-0.008": 2.2812001325,
			"-0.007": 3.61849652459,
			"-0.006": 5.64481042084,
			"-0.005": 14.413091922,
			"-0.004": 31.6877120878,
			"-0.003": 42.0616093112,
			"-0.002": 31.4010213726,
			"-0.001": 26.2701089353,
			"0.0": 24.0931934786,
			"0.001": 21.1173905993,
			"0.002": 19.5714177867,
			"0.003": 22.2375411393,
			"0.004": 18.6628914426,
			"0.005": 7.41744963227,
			"0.006": 4.11825978879,
			"0.007": 4.38861878584,
			"0.008": 3.2405908517,
			"0.009": 2.75369868786,
			"0.01": 1.74037580509,
			"0.011": 2.53485695586,
			"0.012": 4.61794442355,
			"0.013": 3.42548618665,
			"0.014": 1.13793798155,
			"0.015": 0.0116365877459,
			"0.016": 0.0,
			"0.017": 0.0,
			"0.018": 0.0,
			"0.019": 0.0,
			"0.02": 0.0,
			"0.021": 0.0,
			"0.022": 0.0,
			"0.023": 0.0,
			"0.024": 0.0,
			"0.025": 0.0
		}
	}
}
