{
	 "smiles": "OC(=O)CNC1=CC=C(O)C=C1", 
	 "Tm": 521.15, 
	 "num_atms": 21, 
	 "gaussian": { 
		 "optdone": 1, 
		 "sigma_profile": "yes", 
		 "theory": "DFT", 
		 "functional": "B3LYP", 
		 "basiset": "6-31G**", 
		 "properties": { 
			 "R2extent": 3027.8332, 
			 "electric_dipole_moment_norm": 2.70205382996, 
			 "electric_quadrupole_moment_norm": 16.9612276832, 
			 "total_energy": -590.697535563, 
			 "HOMO_LUMO_gap": 0.1856, 
			 "cosmo_polarized_energy": -19.23, 
			 "cosmo_cavitation_energy": 25.63, 
			 "cosmo_dispersion_energy": -18.87, 
			 "cosmo_repulsion_energy": 1.52, 
			 "cosmo_total_nonelectrostatic_energy": 8.29, 
			 "SMD_solvation_energy": 5.05 
		},
		"coords": [
			{
				"x": -0.2869140039,
				"y": 0.6147991219,
				"z": -4.4637707438,
				"element": "O" 
			},
			{
				"x": 0.0985713307,
				"y": 1.1654836847,
				"z": -3.2841888197,
				"element": "C" 
			},
			{
				"x": -0.3124925058,
				"y": 2.2286990854,
				"z": -2.8867838818,
				"element": "O" 
			},
			{
				"x": 1.0695599866,
				"y": 0.2317748826,
				"z": -2.5659547126,
				"element": "C" 
			},
			{
				"x": 1.7245935329,
				"y": 0.826304592,
				"z": -1.4283105478,
				"element": "N" 
			},
			{
				"x": 1.1920582789,
				"y": 0.7264902736,
				"z": -0.1339159663,
				"element": "C" 
			},
			{
				"x": -0.1868535176,
				"y": 0.6320066693,
				"z": 0.1018623191,
				"element": "C" 
			},
			{
				"x": -0.6811978419,
				"y": 0.5443558826,
				"z": 1.4050025829,
				"element": "C" 
			},
			{
				"x": 0.1847649786,
				"y": 0.563527824,
				"z": 2.4988837711,
				"element": "C" 
			},
			{
				"x": -0.2455975216,
				"y": 0.4828120643,
				"z": 3.7999080055,
				"element": "O" 
			},
			{
				"x": 1.5611693651,
				"y": 0.6724402616,
				"z": 2.2751592781,
				"element": "C" 
			},
			{
				"x": 2.0538188854,
				"y": 0.7473323871,
				"z": 0.9778610776,
				"element": "C" 
			},
			{
				"x": -0.9231537313,
				"y": 1.2350699067,
				"z": -4.8573993596,
				"element": "H" 
			},
			{
				"x": 1.8162669739,
				"y": -0.0848482219,
				"z": -3.3007823101,
				"element": "H" 
			},
			{
				"x": 0.5002137814,
				"y": -0.6742349607,
				"z": -2.2996588267,
				"element": "H" 
			},
			{
				"x": 2.7299153867,
				"y": 0.7495951713,
				"z": -1.4542717064,
				"element": "H" 
			},
			{
				"x": -0.8863082341,
				"y": 0.66621718,
				"z": -0.7251714964,
				"element": "H" 
			},
			{
				"x": -1.7558240227,
				"y": 0.4743636538,
				"z": 1.5628802473,
				"element": "H" 
			},
			{
				"x": -1.2095949737,
				"y": 0.4295583405,
				"z": 3.8058608841,
				"element": "H" 
			},
			{
				"x": 2.2330173018,
				"y": 0.6884210808,
				"z": 3.1271590652,
				"element": "H" 
			},
			{
				"x": 3.1276865507,
				"y": 0.8224311203,
				"z": 0.8203311403,
				"element": "H" 
			}
		],
		 "valence_orbital": [ 
			{
				"type": "occ",
				"energy": -0.32229,
				"method": "rhf"
			},
			{
				"type": "occ",
				"energy": -0.28396,
				"method": "rhf"
			},
			{
				"type": "occ",
				"energy": -0.26757,
				"method": "rhf"
			},
			{
				"type": "occ",
				"energy": -0.24448,
				"method": "rhf"
			},
			{
				"type": "occ",
				"energy": -0.18271,
				"method": "rhf"
			},
			{
				"type": "unocc",
				"energy": 0.00289,
				"method": "rhf"
			},
			{
				"type": "unocc",
				"energy": 0.00749,
				"method": "rhf"
			},
			{
				"type": "unocc",
				"energy": 0.03411,
				"method": "rhf"
			},
			{
				"type": "unocc",
				"energy": 0.07058,
				"method": "rhf"
			},
			{
				"type": "unocc",
				"energy": 0.0747,
				"method": "rhf"
			}
		],
		"cosmo_sigma_profile": { 
			"-0.025": 0.0,
			"-0.024": 0.0,
			"-0.023": 0.0,
			"-0.022": 0.0,
			"-0.021": 0.0,
			"-0.02": 0.0,
			"-0.019": 0.0257225902337,
			"-0.018": 0.766343355511,
			"-0.017": 1.96899755861,
			"-0.016": 1.73716156353,
			"-0.015": 1.50233749286,
			"-0.014": 2.44220898037,
			"-0.013": 2.13204550864,
			"-0.012": 3.51698810371,
			"-0.011": 2.83969099389,
			"-0.01": 3.31621461743,
			"-0.009": 3.51789825666,
			"-0.008": 6.22943610994,
			"-0.007": 6.19717866701,
			"-0.006": 10.3514941221,
			"-0.005": 9.75470509061,
			"-0.004": 12.9062986175,
			"-0.003": 10.9809467268,
			"-0.002": 8.86893509926,
			"-0.001": 9.09990415515,
			"0.0": 7.13032566379,
			"0.001": 6.38520984995,
			"0.002": 8.75118636734,
			"0.003": 7.33277569988,
			"0.004": 9.73692490637,
			"0.005": 12.7509055338,
			"0.006": 13.4763499838,
			"0.007": 9.17522048498,
			"0.008": 4.96593345408,
			"0.009": 4.69289764361,
			"0.01": 4.38036255437,
			"0.011": 6.51464533307,
			"0.012": 6.34082924483,
			"0.013": 1.71404983646,
			"0.014": 1.04283358942,
			"0.015": 0.327830559338,
			"0.016": 0.0,
			"0.017": 0.0,
			"0.018": 0.0,
			"0.019": 0.0,
			"0.02": 0.0,
			"0.021": 0.0,
			"0.022": 0.0,
			"0.023": 0.0,
			"0.024": 0.0,
			"0.025": 0.0
		}
	}
}
