{
	 "smiles": "NC(=O)C1=C(F)C=C(F)C=C1", 
	 "Tm": 434.15, 
	 "num_atms": 16, 
	 "gaussian": { 
		 "optdone": 1, 
		 "sigma_profile": "yes", 
		 "theory": "DFT", 
		 "functional": "B3LYP", 
		 "basiset": "6-31G**", 
		 "properties": { 
			 "R2extent": 1897.957, 
			 "electric_dipole_moment_norm": 3.987611537, 
			 "electric_quadrupole_moment_norm": 15.6689574382, 
			 "total_energy": -599.41309673, 
			 "HOMO_LUMO_gap": 0.2111, 
			 "cosmo_polarized_energy": -13.74, 
			 "cosmo_cavitation_energy": 21.88, 
			 "cosmo_dispersion_energy": -15.88, 
			 "cosmo_repulsion_energy": 1.25, 
			 "cosmo_total_nonelectrostatic_energy": 7.25, 
			 "SMD_solvation_energy": 5.63 
		},
		"coords": [
			{
				"x": 2.7871079005,
				"y": 1.3896335393,
				"z": 1.4479322022,
				"element": "N" 
			},
			{
				"x": 1.8401710924,
				"y": 1.4994420857,
				"z": 0.4523470142,
				"element": "C" 
			},
			{
				"x": 1.6756490983,
				"y": 2.5302182673,
				"z": -0.1802118844,
				"element": "O" 
			},
			{
				"x": 0.9932283487,
				"y": 0.2726650824,
				"z": 0.2582797973,
				"element": "C" 
			},
			{
				"x": 0.5141049103,
				"y": -0.0772450262,
				"z": -1.0123123691,
				"element": "C" 
			},
			{
				"x": 0.8714660638,
				"y": 0.6392905064,
				"z": -2.0852114377,
				"element": "F" 
			},
			{
				"x": -0.3055647775,
				"y": -1.1807075605,
				"z": -1.219735016,
				"element": "C" 
			},
			{
				"x": -0.6648053042,
				"y": -1.9435704333,
				"z": -0.1150499672,
				"element": "C" 
			},
			{
				"x": -1.4625581219,
				"y": -3.0097488855,
				"z": -0.3012395406,
				"element": "F" 
			},
			{
				"x": -0.22658122,
				"y": -1.6405515731,
				"z": 1.1699291945,
				"element": "C" 
			},
			{
				"x": 0.6020447226,
				"y": -0.5337393111,
				"z": 1.3388355224,
				"element": "C" 
			},
			{
				"x": 3.1426104546,
				"y": 0.4828370262,
				"z": 1.7099220801,
				"element": "H" 
			},
			{
				"x": 3.423460387,
				"y": 2.1707567829,
				"z": 1.5244627664,
				"element": "H" 
			},
			{
				"x": -0.649186118,
				"y": -1.4342060731,
				"z": -2.2150966445,
				"element": "H" 
			},
			{
				"x": -0.5400809095,
				"y": -2.2545565121,
				"z": 2.0061875865,
				"element": "H" 
			},
			{
				"x": 0.933233473,
				"y": -0.2653179153,
				"z": 2.3368606958,
				"element": "H" 
			}
		],
		 "valence_orbital": [ 
			{
				"type": "occ",
				"energy": -0.36014,
				"method": "rhf"
			},
			{
				"type": "occ",
				"energy": -0.27734,
				"method": "rhf"
			},
			{
				"type": "occ",
				"energy": -0.27211,
				"method": "rhf"
			},
			{
				"type": "occ",
				"energy": -0.26132,
				"method": "rhf"
			},
			{
				"type": "occ",
				"energy": -0.24989,
				"method": "rhf"
			},
			{
				"type": "unocc",
				"energy": -0.03879,
				"method": "rhf"
			},
			{
				"type": "unocc",
				"energy": -0.02067,
				"method": "rhf"
			},
			{
				"type": "unocc",
				"energy": 0.04409,
				"method": "rhf"
			},
			{
				"type": "unocc",
				"energy": 0.06997,
				"method": "rhf"
			},
			{
				"type": "unocc",
				"energy": 0.08909,
				"method": "rhf"
			}
		],
		"cosmo_sigma_profile": { 
			"-0.025": 0.0,
			"-0.024": 0.0,
			"-0.023": 0.0,
			"-0.022": 0.0,
			"-0.021": 0.0,
			"-0.02": 0.0,
			"-0.019": 0.0,
			"-0.018": 0.0,
			"-0.017": 0.0,
			"-0.016": 0.0,
			"-0.015": 0.0322282621502,
			"-0.014": 1.47014453053,
			"-0.013": 2.67739704891,
			"-0.012": 2.17399171198,
			"-0.011": 2.21333974293,
			"-0.01": 3.01215139483,
			"-0.009": 3.15385985209,
			"-0.008": 5.63943148576,
			"-0.007": 7.06844288555,
			"-0.006": 7.15519329237,
			"-0.005": 5.8181406162,
			"-0.004": 5.55653127511,
			"-0.003": 7.67472637484,
			"-0.002": 7.15837467153,
			"-0.001": 12.6592078314,
			"0.0": 19.6222050568,
			"0.001": 16.4093468213,
			"0.002": 11.208324459,
			"0.003": 14.8538442208,
			"0.004": 13.6020204305,
			"0.005": 2.83429339148,
			"0.006": 2.46632336279,
			"0.007": 2.21929307976,
			"0.008": 2.64092867611,
			"0.009": 1.12118471408,
			"0.01": 1.46344710364,
			"0.011": 2.16925299,
			"0.012": 3.28438449342,
			"0.013": 5.2717259621,
			"0.014": 2.95885730257,
			"0.015": 0.0325114334866,
			"0.016": 0.0,
			"0.017": 0.0,
			"0.018": 0.0,
			"0.019": 0.0,
			"0.02": 0.0,
			"0.021": 0.0,
			"0.022": 0.0,
			"0.023": 0.0,
			"0.024": 0.0,
			"0.025": 0.0
		}
	}
}
