{
	 "smiles": "OCCC1=CC=NC=C1", 
	 "Tm": 282.15, 
	 "num_atms": 18, 
	 "gaussian": { 
		 "optdone": 1, 
		 "sigma_profile": "yes", 
		 "theory": "DFT", 
		 "functional": "B3LYP", 
		 "basiset": "6-31G**", 
		 "properties": { 
			 "R2extent": 1851.2745, 
			 "electric_dipole_moment_norm": 3.59850713908, 
			 "electric_quadrupole_moment_norm": 12.4259024187, 
			 "total_energy": -402.130220201, 
			 "HOMO_LUMO_gap": 0.22878, 
			 "cosmo_polarized_energy": -10.08, 
			 "cosmo_cavitation_energy": 21.33, 
			 "cosmo_dispersion_energy": -15.86, 
			 "cosmo_repulsion_energy": 1.32, 
			 "cosmo_total_nonelectrostatic_energy": 6.8, 
			 "SMD_solvation_energy": 2.37 
		},
		"coords": [
			{
				"x": -2.0229159657,
				"y": 0.4137406549,
				"z": -0.0114157073,
				"element": "O" 
			},
			{
				"x": -0.7727672165,
				"y": 0.4538849186,
				"z": -0.687469753,
				"element": "C" 
			},
			{
				"x": -0.0083647026,
				"y": -0.8349689678,
				"z": -0.3676620538,
				"element": "C" 
			},
			{
				"x": 0.4876077709,
				"y": -0.9211454192,
				"z": 1.0586419802,
				"element": "C" 
			},
			{
				"x": -0.3924197829,
				"y": -1.0656570443,
				"z": 2.139734957,
				"element": "C" 
			},
			{
				"x": 0.1245812245,
				"y": -1.1262434746,
				"z": 3.4329072273,
				"element": "C" 
			},
			{
				"x": 1.4312416392,
				"y": -1.0580127486,
				"z": 3.7249748664,
				"element": "N" 
			},
			{
				"x": 2.2678072676,
				"y": -0.9211504183,
				"z": 2.6896326445,
				"element": "C" 
			},
			{
				"x": 1.8521309672,
				"y": -0.8482878923,
				"z": 1.3593540235,
				"element": "C" 
			},
			{
				"x": -2.4244367049,
				"y": 1.2896539269,
				"z": -0.0586045176,
				"element": "H" 
			},
			{
				"x": -0.1742582011,
				"y": 1.3236552271,
				"z": -0.3762159843,
				"element": "H" 
			},
			{
				"x": -0.9162848898,
				"y": 0.5207799608,
				"z": -1.7778213645,
				"element": "H" 
			},
			{
				"x": 0.8401447131,
				"y": -0.9090538053,
				"z": -1.0571198644,
				"element": "H" 
			},
			{
				"x": -0.6758451275,
				"y": -1.6771403838,
				"z": -0.5871928153,
				"element": "H" 
			},
			{
				"x": -1.4621601447,
				"y": -1.1157985357,
				"z": 1.9708178311,
				"element": "H" 
			},
			{
				"x": -0.5482233735,
				"y": -1.2375296214,
				"z": 4.2820766368,
				"element": "H" 
			},
			{
				"x": 3.3282137706,
				"y": -0.8689030314,
				"z": 2.9330134757,
				"element": "H" 
			},
			{
				"x": 2.5885487562,
				"y": -0.7403233455,
				"z": 0.5670484176,
				"element": "H" 
			}
		],
		 "valence_orbital": [ 
			{
				"type": "occ",
				"energy": -0.33887,
				"method": "rhf"
			},
			{
				"type": "occ",
				"energy": -0.27783,
				"method": "rhf"
			},
			{
				"type": "occ",
				"energy": -0.26754,
				"method": "rhf"
			},
			{
				"type": "occ",
				"energy": -0.2523,
				"method": "rhf"
			},
			{
				"type": "occ",
				"energy": -0.24425,
				"method": "rhf"
			},
			{
				"type": "unocc",
				"energy": -0.01547,
				"method": "rhf"
			},
			{
				"type": "unocc",
				"energy": -0.00217,
				"method": "rhf"
			},
			{
				"type": "unocc",
				"energy": 0.06891,
				"method": "rhf"
			},
			{
				"type": "unocc",
				"energy": 0.10767,
				"method": "rhf"
			},
			{
				"type": "unocc",
				"energy": 0.11694,
				"method": "rhf"
			}
		],
		"cosmo_sigma_profile": { 
			"-0.025": 0.0,
			"-0.024": 0.0,
			"-0.023": 0.0,
			"-0.022": 0.0,
			"-0.021": 0.0,
			"-0.02": 0.0,
			"-0.019": 0.0,
			"-0.018": 0.0,
			"-0.017": 0.00161343126265,
			"-0.016": 0.603562714364,
			"-0.015": 0.953147726381,
			"-0.014": 1.34470468837,
			"-0.013": 0.634023328962,
			"-0.012": 0.777435059311,
			"-0.011": 0.638846268293,
			"-0.01": 1.03047767289,
			"-0.009": 0.944110998019,
			"-0.008": 0.467178504407,
			"-0.007": 1.43010183784,
			"-0.006": 6.35916130192,
			"-0.005": 12.1335735072,
			"-0.004": 17.4946456018,
			"-0.003": 18.622982333,
			"-0.002": 15.89275471,
			"-0.001": 11.7392436686,
			"0.0": 8.29985048347,
			"0.001": 8.29250051584,
			"0.002": 8.91251690917,
			"0.003": 14.9111349802,
			"0.004": 8.2231618814,
			"0.005": 4.18978815306,
			"0.006": 4.04806691566,
			"0.007": 2.64909662208,
			"0.008": 3.71749713407,
			"0.009": 3.15263519069,
			"0.01": 1.68682114684,
			"0.011": 1.18857284203,
			"0.012": 2.37420400613,
			"0.013": 1.52182369625,
			"0.014": 1.53432989414,
			"0.015": 0.887629378098,
			"0.016": 0.941430145073,
			"0.017": 0.811667433035,
			"0.018": 0.0592617670357,
			"0.019": 0.0,
			"0.02": 0.0,
			"0.021": 0.0,
			"0.022": 0.0,
			"0.023": 0.0,
			"0.024": 0.0,
			"0.025": 0.0
		}
	}
}
