{
	 "smiles": "CCCCSP(SCCCC)SCCCC", 
	 "Tm": 373.15, 
	 "num_atms": 43, 
	 "gaussian": { 
		 "optdone": 1, 
		 "sigma_profile": "yes", 
		 "theory": "DFT", 
		 "functional": "B3LYP", 
		 "basiset": "6-31G**", 
		 "properties": { 
			 "R2extent": 9363.3704, 
			 "electric_dipole_moment_norm": 0.430535828939, 
			 "electric_quadrupole_moment_norm": 11.8646751696, 
			 "total_energy": -2009.54097762, 
			 "HOMO_LUMO_gap": 0.20215, 
			 "cosmo_polarized_energy": -6.95, 
			 "cosmo_cavitation_energy": 49.65, 
			 "cosmo_dispersion_energy": -34.4, 
			 "cosmo_repulsion_energy": 2.77, 
			 "cosmo_total_nonelectrostatic_energy": 18.02, 
			 "SMD_solvation_energy": 6.16 
		},
		"coords": [
			{
				"x": 5.372775932,
				"y": -2.0986428537,
				"z": 2.0281084757,
				"element": "C" 
			},
			{
				"x": 4.0196805639,
				"y": -1.651298306,
				"z": 1.4663094364,
				"element": "C" 
			},
			{
				"x": 4.1521219386,
				"y": -0.5133090026,
				"z": 0.4454205462,
				"element": "C" 
			},
			{
				"x": 2.8351213649,
				"y": -0.070683391,
				"z": -0.2025572746,
				"element": "C" 
			},
			{
				"x": 1.7136967222,
				"y": 0.7206051347,
				"z": 1.0447268132,
				"element": "S" 
			},
			{
				"x": 0.1288336605,
				"y": 1.3445176108,
				"z": -0.2888647644,
				"element": "P" 
			},
			{
				"x": -1.1112448798,
				"y": 2.2457217334,
				"z": 1.2250016076,
				"element": "S" 
			},
			{
				"x": -1.5643546285,
				"y": 3.8399983357,
				"z": 0.3856555047,
				"element": "C" 
			},
			{
				"x": -0.7436036312,
				"y": 5.0509258104,
				"z": 0.8376810669,
				"element": "C" 
			},
			{
				"x": 0.7288521481,
				"y": 5.0365346109,
				"z": 0.4132554651,
				"element": "C" 
			},
			{
				"x": 1.4807440182,
				"y": 6.2974663668,
				"z": 0.8522455378,
				"element": "C" 
			},
			{
				"x": -0.8810072526,
				"y": -0.4600380946,
				"z": -0.8684812785,
				"element": "S" 
			},
			{
				"x": -1.3186332392,
				"y": -1.3221061807,
				"z": 0.7129422728,
				"element": "C" 
			},
			{
				"x": -1.8359443076,
				"y": -2.740279929,
				"z": 0.451977766,
				"element": "C" 
			},
			{
				"x": -3.1710163401,
				"y": -2.8124291377,
				"z": -0.3008637203,
				"element": "C" 
			},
			{
				"x": -3.6753936239,
				"y": -4.2486266989,
				"z": -0.4721692263,
				"element": "C" 
			},
			{
				"x": 5.8826808782,
				"y": -1.2731950913,
				"z": 2.5377315819,
				"element": "H" 
			},
			{
				"x": 6.0364396583,
				"y": -2.4554315436,
				"z": 1.2319416352,
				"element": "H" 
			},
			{
				"x": 5.2542034859,
				"y": -2.911859567,
				"z": 2.7512100215,
				"element": "H" 
			},
			{
				"x": 3.5175358596,
				"y": -2.5038871701,
				"z": 0.9892191482,
				"element": "H" 
			},
			{
				"x": 3.3671234691,
				"y": -1.3343115983,
				"z": 2.2884908993,
				"element": "H" 
			},
			{
				"x": 4.8166594479,
				"y": -0.836775398,
				"z": -0.3679341973,
				"element": "H" 
			},
			{
				"x": 4.6393313144,
				"y": 0.3521207225,
				"z": 0.912799109,
				"element": "H" 
			},
			{
				"x": 3.0274504819,
				"y": 0.6593536573,
				"z": -0.9941477201,
				"element": "H" 
			},
			{
				"x": 2.312272432,
				"y": -0.9254272051,
				"z": -0.6425964145,
				"element": "H" 
			},
			{
				"x": -1.4940604983,
				"y": 3.6888567339,
				"z": -0.6958561302,
				"element": "H" 
			},
			{
				"x": -2.621511683,
				"y": 3.9809819396,
				"z": 0.6278371809,
				"element": "H" 
			},
			{
				"x": -0.8130075513,
				"y": 5.1458053465,
				"z": 1.9288964332,
				"element": "H" 
			},
			{
				"x": -1.2312740975,
				"y": 5.9446106842,
				"z": 0.4205049937,
				"element": "H" 
			},
			{
				"x": 1.2216145317,
				"y": 4.1533441908,
				"z": 0.8366933834,
				"element": "H" 
			},
			{
				"x": 0.7901386301,
				"y": 4.9321974391,
				"z": -0.6785152549,
				"element": "H" 
			},
			{
				"x": 2.5291552777,
				"y": 6.2637109071,
				"z": 0.5393196938,
				"element": "H" 
			},
			{
				"x": 1.0334437496,
				"y": 7.200411711,
				"z": 0.4205997769,
				"element": "H" 
			},
			{
				"x": 1.4635287124,
				"y": 6.4088021188,
				"z": 1.9423741167,
				"element": "H" 
			},
			{
				"x": -0.4155682478,
				"y": -1.3454143754,
				"z": 1.3292036984,
				"element": "H" 
			},
			{
				"x": -2.0731503383,
				"y": -0.7160046425,
				"z": 1.2232009273,
				"element": "H" 
			},
			{
				"x": -1.0724832148,
				"y": -3.3154658756,
				"z": -0.087632116,
				"element": "H" 
			},
			{
				"x": -1.9498627027,
				"y": -3.2250812553,
				"z": 1.432042189,
				"element": "H" 
			},
			{
				"x": -3.0638539891,
				"y": -2.3411455556,
				"z": -1.2854767087,
				"element": "H" 
			},
			{
				"x": -3.9202848136,
				"y": -2.2192315113,
				"z": 0.2404741062,
				"element": "H" 
			},
			{
				"x": -4.6286227922,
				"y": -4.2744804561,
				"z": -1.0097409279,
				"element": "H" 
			},
			{
				"x": -2.9590191617,
				"y": -4.855709697,
				"z": -1.0374255872,
				"element": "H" 
			},
			{
				"x": -3.8273072843,
				"y": -4.7356305174,
				"z": 0.4980979338,
				"element": "H" 
			}
		],
		 "valence_orbital": [ 
			{
				"type": "occ",
				"energy": -0.30361,
				"method": "rhf"
			},
			{
				"type": "occ",
				"energy": -0.26471,
				"method": "rhf"
			},
			{
				"type": "occ",
				"energy": -0.24552,
				"method": "rhf"
			},
			{
				"type": "occ",
				"energy": -0.23139,
				"method": "rhf"
			},
			{
				"type": "occ",
				"energy": -0.22369,
				"method": "rhf"
			},
			{
				"type": "unocc",
				"energy": -0.02154,
				"method": "rhf"
			},
			{
				"type": "unocc",
				"energy": -0.01988,
				"method": "rhf"
			},
			{
				"type": "unocc",
				"energy": -0.00059,
				"method": "rhf"
			},
			{
				"type": "unocc",
				"energy": 0.02832,
				"method": "rhf"
			},
			{
				"type": "unocc",
				"energy": 0.06073,
				"method": "rhf"
			}
		],
		"cosmo_sigma_profile": { 
			"-0.025": 0.0,
			"-0.024": 0.0,
			"-0.023": 0.0,
			"-0.022": 0.0,
			"-0.021": 0.0,
			"-0.02": 0.0,
			"-0.019": 0.0,
			"-0.018": 0.0,
			"-0.017": 0.0,
			"-0.016": 0.0,
			"-0.015": 0.0,
			"-0.014": 0.0,
			"-0.013": 0.0,
			"-0.012": 0.0,
			"-0.011": 0.0,
			"-0.01": 0.0,
			"-0.009": 0.0,
			"-0.008": 0.0,
			"-0.007": 0.0,
			"-0.006": 1.64275658378,
			"-0.005": 6.49602329969,
			"-0.004": 12.7277288055,
			"-0.003": 45.7843886263,
			"-0.002": 67.531620933,
			"-0.001": 58.5450121359,
			"0.0": 57.5314500113,
			"0.001": 51.858250938,
			"0.002": 26.5693708614,
			"0.003": 10.488765514,
			"0.004": 9.54123144244,
			"0.005": 12.1872318612,
			"0.006": 11.7922727205,
			"0.007": 8.43047931853,
			"0.008": 5.17532654624,
			"0.009": 1.71096729458,
			"0.01": 0.158085409822,
			"0.011": 0.0,
			"0.012": 0.0,
			"0.013": 0.0,
			"0.014": 0.0,
			"0.015": 0.0,
			"0.016": 0.0,
			"0.017": 0.0,
			"0.018": 0.0,
			"0.019": 0.0,
			"0.02": 0.0,
			"0.021": 0.0,
			"0.022": 0.0,
			"0.023": 0.0,
			"0.024": 0.0,
			"0.025": 0.0
		}
	}
}
