{
	 "smiles": "COC1=C(C=CC=C1)C(O)=C1/C(=O)CN(C(C)C)C1=O", 
	 "Tm": 372.65, 
	 "num_atms": 37, 
	 "gaussian": { 
		 "optdone": 1, 
		 "sigma_profile": "yes", 
		 "theory": "DFT", 
		 "functional": "B3LYP", 
		 "basiset": "6-31G**", 
		 "properties": { 
			 "R2extent": 6492.666, 
			 "electric_dipole_moment_norm": 2.38210663909, 
			 "electric_quadrupole_moment_norm": 17.2808716785, 
			 "total_energy": -937.50610432, 
			 "HOMO_LUMO_gap": 0.16002, 
			 "cosmo_polarized_energy": -14.08, 
			 "cosmo_cavitation_energy": 39.49, 
			 "cosmo_dispersion_energy": -27.69, 
			 "cosmo_repulsion_energy": 2.12, 
			 "cosmo_total_nonelectrostatic_energy": 13.92, 
			 "SMD_solvation_energy": 8.35 
		},
		"coords": [
			{
				"x": 3.4788762358,
				"y": 1.1018905401,
				"z": -0.1140757937,
				"element": "C" 
			},
			{
				"x": 2.3508966172,
				"y": 0.4982509633,
				"z": 0.5061118803,
				"element": "O" 
			},
			{
				"x": 1.5455236308,
				"y": 1.2672395557,
				"z": 1.2759374102,
				"element": "C" 
			},
			{
				"x": 0.2830774851,
				"y": 0.7270213956,
				"z": 1.6136632644,
				"element": "C" 
			},
			{
				"x": -0.5245795636,
				"y": 1.4047326837,
				"z": 2.5396547864,
				"element": "C" 
			},
			{
				"x": -0.1398961641,
				"y": 2.6333352955,
				"z": 3.06745679,
				"element": "C" 
			},
			{
				"x": 1.0821602577,
				"y": 3.1858179531,
				"z": 2.6813176436,
				"element": "C" 
			},
			{
				"x": 1.9251381054,
				"y": 2.5101516901,
				"z": 1.7998226067,
				"element": "C" 
			},
			{
				"x": -0.226196482,
				"y": -0.53216627,
				"z": 1.0425955074,
				"element": "C" 
			},
			{
				"x": -0.8039262477,
				"y": -1.3335354483,
				"z": 1.9258230762,
				"element": "O" 
			},
			{
				"x": -0.2278348855,
				"y": -0.8919106067,
				"z": -0.297095846,
				"element": "C" 
			},
			{
				"x": 0.1712281685,
				"y": -0.1832385666,
				"z": -1.5028219789,
				"element": "C" 
			},
			{
				"x": 0.6545389928,
				"y": 0.9261881565,
				"z": -1.6687263337,
				"element": "O" 
			},
			{
				"x": -0.1683364991,
				"y": -1.1293287541,
				"z": -2.6793636166,
				"element": "C" 
			},
			{
				"x": -0.7717679867,
				"y": -2.2969370087,
				"z": -2.0496779646,
				"element": "N" 
			},
			{
				"x": -1.3101693554,
				"y": -3.4568880294,
				"z": -2.7659614229,
				"element": "C" 
			},
			{
				"x": -2.500489792,
				"y": -3.065289518,
				"z": -3.653193652,
				"element": "C" 
			},
			{
				"x": -0.2117660817,
				"y": -4.1793200825,
				"z": -3.5578698693,
				"element": "C" 
			},
			{
				"x": -0.8353522328,
				"y": -2.1645602359,
				"z": -0.6947549427,
				"element": "C" 
			},
			{
				"x": -1.3476990052,
				"y": -2.997512217,
				"z": 0.0874161931,
				"element": "O" 
			},
			{
				"x": 3.1798592451,
				"y": 1.9726831567,
				"z": -0.7063357856,
				"element": "H" 
			},
			{
				"x": 4.2388453371,
				"y": 1.3905821324,
				"z": 0.6229768272,
				"element": "H" 
			},
			{
				"x": 3.8967127716,
				"y": 0.3416404187,
				"z": -0.7751496808,
				"element": "H" 
			},
			{
				"x": -1.4746440043,
				"y": 0.9599075844,
				"z": 2.8158781419,
				"element": "H" 
			},
			{
				"x": -0.7871937636,
				"y": 3.1561645858,
				"z": 3.7638897184,
				"element": "H" 
			},
			{
				"x": 1.3942633181,
				"y": 4.1480004438,
				"z": 3.0776874671,
				"element": "H" 
			},
			{
				"x": 2.8823362035,
				"y": 2.9431234116,
				"z": 1.5365307022,
				"element": "H" 
			},
			{
				"x": -1.1463087093,
				"y": -2.1405560035,
				"z": 1.4101124634,
				"element": "H" 
			},
			{
				"x": -0.8544589966,
				"y": -0.6265505099,
				"z": -3.3712289251,
				"element": "H" 
			},
			{
				"x": 0.7467624714,
				"y": -1.3773259022,
				"z": -3.2311280426,
				"element": "H" 
			},
			{
				"x": -1.6675973538,
				"y": -4.1195059594,
				"z": -1.9725116586,
				"element": "H" 
			},
			{
				"x": -2.196474882,
				"y": -2.3941988756,
				"z": -4.4642758768,
				"element": "H" 
			},
			{
				"x": -2.9379567946,
				"y": -3.9579809562,
				"z": -4.1111421868,
				"element": "H" 
			},
			{
				"x": -3.277285799,
				"y": -2.5670254337,
				"z": -3.0660466121,
				"element": "H" 
			},
			{
				"x": 0.1841842737,
				"y": -3.5510592144,
				"z": -4.3636777807,
				"element": "H" 
			},
			{
				"x": 0.6175858145,
				"y": -4.4647346332,
				"z": -2.9042524832,
				"element": "H" 
			},
			{
				"x": -0.6143543294,
				"y": -5.0878057416,
				"z": -4.016584026,
				"element": "H" 
			}
		],
		 "valence_orbital": [ 
			{
				"type": "occ",
				"energy": -0.26511,
				"method": "rhf"
			},
			{
				"type": "occ",
				"energy": -0.2538,
				"method": "rhf"
			},
			{
				"type": "occ",
				"energy": -0.23693,
				"method": "rhf"
			},
			{
				"type": "occ",
				"energy": -0.23212,
				"method": "rhf"
			},
			{
				"type": "occ",
				"energy": -0.22002,
				"method": "rhf"
			},
			{
				"type": "unocc",
				"energy": -0.06,
				"method": "rhf"
			},
			{
				"type": "unocc",
				"energy": -0.00125,
				"method": "rhf"
			},
			{
				"type": "unocc",
				"energy": 0.00744,
				"method": "rhf"
			},
			{
				"type": "unocc",
				"energy": 0.01769,
				"method": "rhf"
			},
			{
				"type": "unocc",
				"energy": 0.07767,
				"method": "rhf"
			}
		],
		"cosmo_sigma_profile": { 
			"-0.025": 0.0,
			"-0.024": 0.0,
			"-0.023": 0.0,
			"-0.022": 0.0,
			"-0.021": 0.0,
			"-0.02": 0.0,
			"-0.019": 0.0,
			"-0.018": 0.0,
			"-0.017": 0.0,
			"-0.016": 0.0,
			"-0.015": 0.0,
			"-0.014": 0.0,
			"-0.013": 0.0,
			"-0.012": 0.0,
			"-0.011": 0.0,
			"-0.01": 0.0,
			"-0.009": 0.0,
			"-0.008": 0.00702094571069,
			"-0.007": 4.1588809172,
			"-0.006": 16.3828468308,
			"-0.005": 24.9560362223,
			"-0.004": 32.6229473332,
			"-0.003": 34.6665195179,
			"-0.002": 29.8272347999,
			"-0.001": 28.5366755291,
			"0.0": 27.2877430472,
			"0.001": 18.4011519905,
			"0.002": 14.0592553404,
			"0.003": 13.6805684272,
			"0.004": 16.3109939405,
			"0.005": 11.7664564559,
			"0.006": 6.80170539731,
			"0.007": 5.54806119622,
			"0.008": 5.70866814205,
			"0.009": 5.08493027941,
			"0.01": 4.24823699936,
			"0.011": 3.65510961361,
			"0.012": 5.0511398136,
			"0.013": 3.05951813477,
			"0.014": 0.661991312904,
			"0.015": 0.0,
			"0.016": 0.0,
			"0.017": 0.0,
			"0.018": 0.0,
			"0.019": 0.0,
			"0.02": 0.0,
			"0.021": 0.0,
			"0.022": 0.0,
			"0.023": 0.0,
			"0.024": 0.0,
			"0.025": 0.0
		}
	}
}
