{
	 "smiles": "CCOP(=S)(OCC)SCN1N=NC2=CC=CC=C2C1=O", 
	 "Tm": 326.15, 
	 "num_atms": 37, 
	 "gaussian": { 
		 "optdone": 1, 
		 "sigma_profile": "yes", 
		 "theory": "DFT", 
		 "functional": "B3LYP", 
		 "basiset": "6-31G**", 
		 "properties": { 
			 "R2extent": 9184.0047, 
			 "electric_dipole_moment_norm": 6.13431001254, 
			 "electric_quadrupole_moment_norm": 21.7555493282, 
			 "total_energy": -1994.60119304, 
			 "HOMO_LUMO_gap": 0.15122, 
			 "cosmo_polarized_energy": -16.7, 
			 "cosmo_cavitation_energy": 45.42, 
			 "cosmo_dispersion_energy": -31.45, 
			 "cosmo_repulsion_energy": 2.32, 
			 "cosmo_total_nonelectrostatic_energy": 16.29, 
			 "SMD_solvation_energy": 5.61 
		},
		"coords": [
			{
				"x": -4.5087161398,
				"y": 0.1597788619,
				"z": 2.4621161834,
				"element": "C" 
			},
			{
				"x": -3.1823020509,
				"y": 0.2922058532,
				"z": 1.738989976,
				"element": "C" 
			},
			{
				"x": -2.5007733661,
				"y": -0.9878765874,
				"z": 1.8464714403,
				"element": "O" 
			},
			{
				"x": -0.999324007,
				"y": -1.2398656377,
				"z": 1.3002564887,
				"element": "P" 
			},
			{
				"x": -0.1613884516,
				"y": -2.8262310566,
				"z": 2.0357722338,
				"element": "S" 
			},
			{
				"x": -0.26157964,
				"y": 0.1772209894,
				"z": 1.565404215,
				"element": "O" 
			},
			{
				"x": 0.933595844,
				"y": 0.3025821454,
				"z": 2.3890109265,
				"element": "C" 
			},
			{
				"x": 1.4399017857,
				"y": 1.7221946451,
				"z": 2.2290445897,
				"element": "C" 
			},
			{
				"x": -1.4063968102,
				"y": -1.2558709545,
				"z": -0.7976196408,
				"element": "S" 
			},
			{
				"x": 0.1270036325,
				"y": -2.0112713758,
				"z": -1.5037377984,
				"element": "C" 
			},
			{
				"x": 0.9430652037,
				"y": -1.0798785052,
				"z": -2.2614526294,
				"element": "N" 
			},
			{
				"x": 0.6017178629,
				"y": -1.0077705913,
				"z": -3.5924871715,
				"element": "N" 
			},
			{
				"x": 1.2145206521,
				"y": -0.2167720369,
				"z": -4.364703909,
				"element": "N" 
			},
			{
				"x": 2.24092153,
				"y": 0.5925229978,
				"z": -3.8770716105,
				"element": "C" 
			},
			{
				"x": 2.8893868083,
				"y": 1.4489278908,
				"z": -4.7850772207,
				"element": "C" 
			},
			{
				"x": 3.9183518973,
				"y": 2.2633325046,
				"z": -4.3380200503,
				"element": "C" 
			},
			{
				"x": 4.3168264853,
				"y": 2.2376264955,
				"z": -2.9880259384,
				"element": "C" 
			},
			{
				"x": 3.6819718257,
				"y": 1.3974850424,
				"z": -2.0842907135,
				"element": "C" 
			},
			{
				"x": 2.638535603,
				"y": 0.5716910532,
				"z": -2.5270708424,
				"element": "C" 
			},
			{
				"x": 1.9340770327,
				"y": -0.3254197272,
				"z": -1.6142431708,
				"element": "C" 
			},
			{
				"x": 2.1498213661,
				"y": -0.4500561885,
				"z": -0.4149047414,
				"element": "O" 
			},
			{
				"x": -5.1216575722,
				"y": -0.6235500326,
				"z": 2.0084639199,
				"element": "H" 
			},
			{
				"x": -4.3516088384,
				"y": -0.0895210879,
				"z": 3.5150033067,
				"element": "H" 
			},
			{
				"x": -5.0557880194,
				"y": 1.1064818704,
				"z": 2.4055979943,
				"element": "H" 
			},
			{
				"x": -3.3304371098,
				"y": 0.5325910408,
				"z": 0.6800153976,
				"element": "H" 
			},
			{
				"x": -2.5503158748,
				"y": 1.0658881776,
				"z": 2.1831323625,
				"element": "H" 
			},
			{
				"x": 1.6715407255,
				"y": -0.4233928862,
				"z": 2.0460984992,
				"element": "H" 
			},
			{
				"x": 0.6668787151,
				"y": 0.0791841337,
				"z": 3.4268220649,
				"element": "H" 
			},
			{
				"x": 0.6841541622,
				"y": 2.4516318598,
				"z": 2.5353102145,
				"element": "H" 
			},
			{
				"x": 2.3287766529,
				"y": 1.864565124,
				"z": 2.8524789571,
				"element": "H" 
			},
			{
				"x": 1.7119859022,
				"y": 1.9091371436,
				"z": 1.1875101489,
				"element": "H" 
			},
			{
				"x": 0.714644866,
				"y": -2.4442287321,
				"z": -0.6934148917,
				"element": "H" 
			},
			{
				"x": -0.2057995512,
				"y": -2.7825963876,
				"z": -2.195634477,
				"element": "H" 
			},
			{
				"x": 2.5636084845,
				"y": 1.4469506338,
				"z": -5.8196714418,
				"element": "H" 
			},
			{
				"x": 4.4231716263,
				"y": 2.9262623397,
				"z": -5.0341591968,
				"element": "H" 
			},
			{
				"x": 5.126290263,
				"y": 2.8795594447,
				"z": -2.6542974686,
				"element": "H" 
			},
			{
				"x": 3.9711385047,
				"y": 1.3568815404,
				"z": -1.039816006,
				"element": "H" 
			}
		],
		 "valence_orbital": [ 
			{
				"type": "occ",
				"energy": -0.26685,
				"method": "rhf"
			},
			{
				"type": "occ",
				"energy": -0.26314,
				"method": "rhf"
			},
			{
				"type": "occ",
				"energy": -0.25784,
				"method": "rhf"
			},
			{
				"type": "occ",
				"energy": -0.24164,
				"method": "rhf"
			},
			{
				"type": "occ",
				"energy": -0.23265,
				"method": "rhf"
			},
			{
				"type": "unocc",
				"energy": -0.08143,
				"method": "rhf"
			},
			{
				"type": "unocc",
				"energy": -0.06459,
				"method": "rhf"
			},
			{
				"type": "unocc",
				"energy": -0.013,
				"method": "rhf"
			},
			{
				"type": "unocc",
				"energy": 0.00084,
				"method": "rhf"
			},
			{
				"type": "unocc",
				"energy": 0.0167,
				"method": "rhf"
			}
		],
		"cosmo_sigma_profile": { 
			"-0.025": 0.0,
			"-0.024": 0.0,
			"-0.023": 0.0,
			"-0.022": 0.0,
			"-0.021": 0.0,
			"-0.02": 0.0,
			"-0.019": 0.0,
			"-0.018": 0.0,
			"-0.017": 0.0,
			"-0.016": 0.0,
			"-0.015": 0.0,
			"-0.014": 0.0,
			"-0.013": 0.0,
			"-0.012": 0.0,
			"-0.011": 0.0,
			"-0.01": 0.156440204809,
			"-0.009": 1.58313538805,
			"-0.008": 4.38453325782,
			"-0.007": 12.0551416364,
			"-0.006": 16.5532480054,
			"-0.005": 25.6273671283,
			"-0.004": 31.7674440232,
			"-0.003": 29.7211673718,
			"-0.002": 29.7655082657,
			"-0.001": 29.5622412379,
			"0.0": 35.3366365389,
			"0.001": 26.6855218718,
			"0.002": 21.8966936596,
			"0.003": 15.344881624,
			"0.004": 15.0235146028,
			"0.005": 12.8540853889,
			"0.006": 14.5406420741,
			"0.007": 12.5844309564,
			"0.008": 10.809714694,
			"0.009": 9.73683900987,
			"0.01": 4.51292224574,
			"0.011": 1.67874615148,
			"0.012": 0.998358415374,
			"0.013": 0.547887928386,
			"0.014": 0.0153248812567,
			"0.015": 0.0,
			"0.016": 0.0,
			"0.017": 0.0,
			"0.018": 0.0,
			"0.019": 0.0,
			"0.02": 0.0,
			"0.021": 0.0,
			"0.022": 0.0,
			"0.023": 0.0,
			"0.024": 0.0,
			"0.025": 0.0
		}
	}
}
