{
	 "smiles": "CC1(NC(=O)NC1=O)C1=CSC=C1", 
	 "Tm": 425.15, 
	 "num_atms": 21, 
	 "gaussian": { 
		 "optdone": 1, 
		 "sigma_profile": "yes", 
		 "theory": "DFT", 
		 "functional": "B3LYP", 
		 "basiset": "6-31G**", 
		 "properties": { 
			 "R2extent": 2822.9907, 
			 "electric_dipole_moment_norm": 2.51484716434, 
			 "electric_quadrupole_moment_norm": 11.4087124988, 
			 "total_energy": -967.835219742, 
			 "HOMO_LUMO_gap": 0.22191, 
			 "cosmo_polarized_energy": -16.48, 
			 "cosmo_cavitation_energy": 26.81, 
			 "cosmo_dispersion_energy": -19.83, 
			 "cosmo_repulsion_energy": 1.53, 
			 "cosmo_total_nonelectrostatic_energy": 8.5, 
			 "SMD_solvation_energy": 5.99 
		},
		"coords": [
			{
				"x": -0.6049272318,
				"y": -1.513218937,
				"z": 1.4045310489,
				"element": "C" 
			},
			{
				"x": -0.3598216509,
				"y": -0.3945531791,
				"z": 0.3741202682,
				"element": "C" 
			},
			{
				"x": 0.7128480103,
				"y": -0.7408131194,
				"z": -0.5632978873,
				"element": "N" 
			},
			{
				"x": 0.3311428545,
				"y": -0.7249057381,
				"z": -1.8799282735,
				"element": "C" 
			},
			{
				"x": 1.0109998938,
				"y": -0.8849120144,
				"z": -2.8711193556,
				"element": "O" 
			},
			{
				"x": -1.0629391449,
				"y": -0.4971107153,
				"z": -1.857739066,
				"element": "N" 
			},
			{
				"x": -1.5670361405,
				"y": -0.3056829694,
				"z": -0.5941452687,
				"element": "C" 
			},
			{
				"x": -2.727131147,
				"y": -0.1167331983,
				"z": -0.2878584066,
				"element": "O" 
			},
			{
				"x": -0.1173554178,
				"y": 0.9439258225,
				"z": 1.0685238399,
				"element": "C" 
			},
			{
				"x": -1.0878022848,
				"y": 1.8752163111,
				"z": 1.3340170742,
				"element": "C" 
			},
			{
				"x": -0.4576676246,
				"y": 3.2392200124,
				"z": 2.193381594,
				"element": "S" 
			},
			{
				"x": 1.1345487622,
				"y": 2.5568188996,
				"z": 2.2066520417,
				"element": "C" 
			},
			{
				"x": 1.1631316493,
				"y": 1.3430746188,
				"z": 1.5803748458,
				"element": "C" 
			},
			{
				"x": -1.5063886905,
				"y": -1.2868837063,
				"z": 1.9783707161,
				"element": "H" 
			},
			{
				"x": -0.7309528418,
				"y": -2.4770737781,
				"z": 0.9028579624,
				"element": "H" 
			},
			{
				"x": 0.2406106225,
				"y": -1.5833294686,
				"z": 2.0949994777,
				"element": "H" 
			},
			{
				"x": 1.6937770179,
				"y": -0.7298686994,
				"z": -0.3332078508,
				"element": "H" 
			},
			{
				"x": -1.6207378281,
				"y": -0.4857761863,
				"z": -2.6995759536,
				"element": "H" 
			},
			{
				"x": -2.1353874337,
				"y": 1.8213349585,
				"z": 1.0760262838,
				"element": "H" 
			},
			{
				"x": 1.9538317786,
				"y": 3.0890353013,
				"z": 2.6692870717,
				"element": "H" 
			},
			{
				"x": 2.0701568472,
				"y": 0.7553357856,
				"z": 1.4877298376,
				"element": "H" 
			}
		],
		 "valence_orbital": [ 
			{
				"type": "occ",
				"energy": -0.293,
				"method": "rhf"
			},
			{
				"type": "occ",
				"energy": -0.27537,
				"method": "rhf"
			},
			{
				"type": "occ",
				"energy": -0.26735,
				"method": "rhf"
			},
			{
				"type": "occ",
				"energy": -0.25724,
				"method": "rhf"
			},
			{
				"type": "occ",
				"energy": -0.24402,
				"method": "rhf"
			},
			{
				"type": "unocc",
				"energy": -0.02211,
				"method": "rhf"
			},
			{
				"type": "unocc",
				"energy": -0.01404,
				"method": "rhf"
			},
			{
				"type": "unocc",
				"energy": 0.02386,
				"method": "rhf"
			},
			{
				"type": "unocc",
				"energy": 0.04699,
				"method": "rhf"
			},
			{
				"type": "unocc",
				"energy": 0.05562,
				"method": "rhf"
			}
		],
		"cosmo_sigma_profile": { 
			"-0.025": 0.0,
			"-0.024": 0.0,
			"-0.023": 0.0,
			"-0.022": 0.0,
			"-0.021": 0.0,
			"-0.02": 0.0,
			"-0.019": 0.0,
			"-0.018": 0.0,
			"-0.017": 0.658980247392,
			"-0.016": 2.43537616793,
			"-0.015": 2.40732703524,
			"-0.014": 2.33133483325,
			"-0.013": 1.7994208237,
			"-0.012": 1.00466901901,
			"-0.011": 2.47205962053,
			"-0.01": 2.20444261815,
			"-0.009": 2.25343133618,
			"-0.008": 5.65052421191,
			"-0.007": 5.62341096088,
			"-0.006": 6.96077448049,
			"-0.005": 10.9549517185,
			"-0.004": 11.6505547015,
			"-0.003": 12.7980143198,
			"-0.002": 15.7620174525,
			"-0.001": 17.704315188,
			"0.0": 14.0857635586,
			"0.001": 12.3810363037,
			"0.002": 13.2277553049,
			"0.003": 13.7033706711,
			"0.004": 17.0961784706,
			"0.005": 6.74651161319,
			"0.006": 3.36784671819,
			"0.007": 2.51362327501,
			"0.008": 2.03403505854,
			"0.009": 2.72462448996,
			"0.01": 3.38478808478,
			"0.011": 4.93979851755,
			"0.012": 8.33326518362,
			"0.013": 6.04673884129,
			"0.014": 0.544317490932,
			"0.015": 0.0,
			"0.016": 0.0,
			"0.017": 0.0,
			"0.018": 0.0,
			"0.019": 0.0,
			"0.02": 0.0,
			"0.021": 0.0,
			"0.022": 0.0,
			"0.023": 0.0,
			"0.024": 0.0,
			"0.025": 0.0
		}
	}
}
