{
	 "smiles": "CC1=NC2=C(C=CC(=C2)C(O)=O)N1C1=CC=CC=C1", 
	 "Tm": 484.15, 
	 "num_atms": 31, 
	 "gaussian": { 
		 "optdone": 1, 
		 "sigma_profile": "yes", 
		 "theory": "DFT", 
		 "functional": "B3LYP", 
		 "basiset": "6-31G**", 
		 "properties": { 
			 "R2extent": 6333.2718, 
			 "electric_dipole_moment_norm": 6.35364804896, 
			 "electric_quadrupole_moment_norm": 10.6679847338, 
			 "total_energy": -838.820159727, 
			 "HOMO_LUMO_gap": 0.1925, 
			 "cosmo_polarized_energy": -16.13, 
			 "cosmo_cavitation_energy": 35.89, 
			 "cosmo_dispersion_energy": -25.46, 
			 "cosmo_repulsion_energy": 1.94, 
			 "cosmo_total_nonelectrostatic_energy": 12.37, 
			 "SMD_solvation_energy": 5.31 
		},
		"coords": [
			{
				"x": 1.3526324348,
				"y": 2.7934000959,
				"z": 1.6552213319,
				"element": "C" 
			},
			{
				"x": 1.0213628725,
				"y": 1.78498382,
				"z": 0.6043466271,
				"element": "C" 
			},
			{
				"x": 1.8738682186,
				"y": 1.3163535083,
				"z": -0.271066574,
				"element": "N" 
			},
			{
				"x": 1.1470673427,
				"y": 0.4408097356,
				"z": -1.0658924618,
				"element": "C" 
			},
			{
				"x": -0.2027777486,
				"y": 0.3970241047,
				"z": -0.6411673645,
				"element": "C" 
			},
			{
				"x": -1.1598479396,
				"y": -0.4120945143,
				"z": -1.2594132286,
				"element": "C" 
			},
			{
				"x": -0.7326570565,
				"y": -1.181532022,
				"z": -2.3348218728,
				"element": "C" 
			},
			{
				"x": 0.6110610355,
				"y": -1.1476120669,
				"z": -2.7781910428,
				"element": "C" 
			},
			{
				"x": 1.5605140528,
				"y": -0.3376784455,
				"z": -2.1457826397,
				"element": "C" 
			},
			{
				"x": 1.0685356755,
				"y": -1.9679886274,
				"z": -3.9259181077,
				"element": "C" 
			},
			{
				"x": 0.0782634839,
				"y": -2.7209549387,
				"z": -4.4772950078,
				"element": "O" 
			},
			{
				"x": 2.2038419012,
				"y": -1.9944892268,
				"z": -4.3620331266,
				"element": "O" 
			},
			{
				"x": -0.2675012254,
				"y": 1.2641520593,
				"z": 0.4415729533,
				"element": "N" 
			},
			{
				"x": -1.4365935064,
				"y": 1.5825960818,
				"z": 1.1962838508,
				"element": "C" 
			},
			{
				"x": -2.5178476997,
				"y": 2.2094654883,
				"z": 0.5661972135,
				"element": "C" 
			},
			{
				"x": -3.664571254,
				"y": 2.5131029345,
				"z": 1.3000357795,
				"element": "C" 
			},
			{
				"x": -3.7309045036,
				"y": 2.2052333724,
				"z": 2.6606081102,
				"element": "C" 
			},
			{
				"x": -2.6495636393,
				"y": 1.581446571,
				"z": 3.2860910673,
				"element": "C" 
			},
			{
				"x": -1.5052681077,
				"y": 1.2601865727,
				"z": 2.5556876914,
				"element": "C" 
			},
			{
				"x": 0.6586407385,
				"y": 3.6400237821,
				"z": 1.6322768329,
				"element": "H" 
			},
			{
				"x": 1.3133075028,
				"y": 2.3659347735,
				"z": 2.6628461242,
				"element": "H" 
			},
			{
				"x": 2.3650664524,
				"y": 3.1537740562,
				"z": 1.4712732706,
				"element": "H" 
			},
			{
				"x": -2.1892358494,
				"y": -0.4422215626,
				"z": -0.9182678449,
				"element": "H" 
			},
			{
				"x": -1.4365525689,
				"y": -1.8250159993,
				"z": -2.8490145314,
				"element": "H" 
			},
			{
				"x": 2.5864141394,
				"y": -0.3270573489,
				"z": -2.4954615734,
				"element": "H" 
			},
			{
				"x": 0.5002222261,
				"y": -3.2040776061,
				"z": -5.2062132164,
				"element": "H" 
			},
			{
				"x": -2.4490942017,
				"y": 2.4587229684,
				"z": -0.4879032926,
				"element": "H" 
			},
			{
				"x": -4.5025597575,
				"y": 2.9988056093,
				"z": 0.8091583868,
				"element": "H" 
			},
			{
				"x": -4.6226701202,
				"y": 2.4481010875,
				"z": 3.2304282269,
				"element": "H" 
			},
			{
				"x": -2.6994677417,
				"y": 1.3325084274,
				"z": 4.3418345545,
				"element": "H" 
			},
			{
				"x": -0.6716851565,
				"y": 0.7496973096,
				"z": 3.0271798642,
				"element": "H" 
			}
		],
		 "valence_orbital": [ 
			{
				"type": "occ",
				"energy": -0.2741,
				"method": "rhf"
			},
			{
				"type": "occ",
				"energy": -0.26541,
				"method": "rhf"
			},
			{
				"type": "occ",
				"energy": -0.26347,
				"method": "rhf"
			},
			{
				"type": "occ",
				"energy": -0.23037,
				"method": "rhf"
			},
			{
				"type": "occ",
				"energy": -0.22678,
				"method": "rhf"
			},
			{
				"type": "unocc",
				"energy": -0.03428,
				"method": "rhf"
			},
			{
				"type": "unocc",
				"energy": -0.029,
				"method": "rhf"
			},
			{
				"type": "unocc",
				"energy": -0.02541,
				"method": "rhf"
			},
			{
				"type": "unocc",
				"energy": -0.01027,
				"method": "rhf"
			},
			{
				"type": "unocc",
				"energy": 0.04906,
				"method": "rhf"
			}
		],
		"cosmo_sigma_profile": { 
			"-0.025": 0.0,
			"-0.024": 0.0,
			"-0.023": 0.0,
			"-0.022": 0.0,
			"-0.021": 0.0,
			"-0.02": 0.0,
			"-0.019": 0.0,
			"-0.018": 0.527056105372,
			"-0.017": 0.849543119246,
			"-0.016": 0.91231392754,
			"-0.015": 0.819713324979,
			"-0.014": 0.607750897028,
			"-0.013": 0.738531723601,
			"-0.012": 0.489974870353,
			"-0.011": 0.733979168189,
			"-0.01": 0.366889659402,
			"-0.009": 0.594558898336,
			"-0.008": 0.603426626198,
			"-0.007": 7.50020253436,
			"-0.006": 18.2926955364,
			"-0.005": 22.2199693546,
			"-0.004": 22.0819959704,
			"-0.003": 21.0212840626,
			"-0.002": 22.4380753826,
			"-0.001": 22.0525539141,
			"0.0": 19.0051020615,
			"0.001": 17.6202466998,
			"0.002": 22.2750838221,
			"0.003": 25.6428840118,
			"0.004": 19.3281449753,
			"0.005": 7.13379345568,
			"0.006": 4.42868093711,
			"0.007": 4.92138167372,
			"0.008": 3.63347520401,
			"0.009": 2.59522970441,
			"0.01": 3.58018981031,
			"0.011": 3.15061409182,
			"0.012": 6.27928519547,
			"0.013": 1.75551784138,
			"0.014": 1.08914717936,
			"0.015": 0.876969617482,
			"0.016": 0.877428514096,
			"0.017": 0.614296763992,
			"0.018": 0.000661622288691,
			"0.019": 0.0,
			"0.02": 0.0,
			"0.021": 0.0,
			"0.022": 0.0,
			"0.023": 0.0,
			"0.024": 0.0,
			"0.025": 0.0
		}
	}
}
