{
	 "smiles": "OC1=C(Br)C=C(C=C1Br)C1(OS(=O)(=O)C2=C1C(Br)=C(Br)C(Br)=C2Br)C1=CC(Br)=C(O)C(Br)=C1", 
	 "Tm": 477.15, 
	 "num_atms": 39, 
	 "gaussian": { 
		 "optdone": 1, 
		 "sigma_profile": "yes", 
		 "theory": "DFT", 
		 "functional": "B3LYP", 
		 "basiset": "6-31G**", 
		 "properties": { 
			 "R2extent": 36687.906, 
			 "electric_dipole_moment_norm": 3.08431391074, 
			 "electric_quadrupole_moment_norm": 21.3013393753, 
			 "total_energy": -22073.0514606, 
			 "HOMO_LUMO_gap": 0.16517, 
			 "cosmo_polarized_energy": -19.74, 
			 "cosmo_cavitation_energy": 62.54, 
			 "cosmo_dispersion_energy": -43.53, 
			 "cosmo_repulsion_energy": 3.32, 
			 "cosmo_total_nonelectrostatic_energy": 22.33, 
			 "SMD_solvation_energy": 1.84 
		},
		"coords": [
			{
				"x": -3.8256663532,
				"y": 2.036697242,
				"z": -2.3244011996,
				"element": "O" 
			},
			{
				"x": -2.9130218401,
				"y": 1.2155399043,
				"z": -1.7772384804,
				"element": "C" 
			},
			{
				"x": -1.8660450478,
				"y": 1.7550933861,
				"z": -1.0155360696,
				"element": "C" 
			},
			{
				"x": -1.7714427428,
				"y": 3.6373375323,
				"z": -0.7724833693,
				"element": "Br" 
			},
			{
				"x": -0.9001717241,
				"y": 0.9406636981,
				"z": -0.4313345505,
				"element": "C" 
			},
			{
				"x": -0.9391005772,
				"y": -0.4456942356,
				"z": -0.595336137,
				"element": "C" 
			},
			{
				"x": -1.9832686861,
				"y": -1.0050759578,
				"z": -1.3453899022,
				"element": "C" 
			},
			{
				"x": -2.9403802348,
				"y": -0.1841413212,
				"z": -1.9197322794,
				"element": "C" 
			},
			{
				"x": -4.3662764011,
				"y": -0.9505646411,
				"z": -2.941756153,
				"element": "Br" 
			},
			{
				"x": 0.0589855766,
				"y": -1.4029095298,
				"z": 0.0600124088,
				"element": "C" 
			},
			{
				"x": -0.7300921223,
				"y": -2.3752911427,
				"z": 0.8386654802,
				"element": "O" 
			},
			{
				"x": -0.8506520458,
				"y": -2.0493515189,
				"z": 2.4499414566,
				"element": "S" 
			},
			{
				"x": -2.0341573678,
				"y": -1.2487033318,
				"z": 2.7256726251,
				"element": "O" 
			},
			{
				"x": -0.6167317839,
				"y": -3.3080723076,
				"z": 3.1393333431,
				"element": "O" 
			},
			{
				"x": 0.6065649539,
				"y": -1.006615879,
				"z": 2.4124859805,
				"element": "C" 
			},
			{
				"x": 0.9771720835,
				"y": -0.7254074722,
				"z": 1.1025634242,
				"element": "C" 
			},
			{
				"x": 2.0892130919,
				"y": 0.0997691077,
				"z": 0.8926834305,
				"element": "C" 
			},
			{
				"x": 2.6275482444,
				"y": 0.5604252881,
				"z": -0.865608547,
				"element": "Br" 
			},
			{
				"x": 2.8026500318,
				"y": 0.603554503,
				"z": 1.9993417817,
				"element": "C" 
			},
			{
				"x": 4.3217951541,
				"y": 1.6942275663,
				"z": 1.7199098721,
				"element": "Br" 
			},
			{
				"x": 2.3952966018,
				"y": 0.3054170072,
				"z": 3.3162973021,
				"element": "C" 
			},
			{
				"x": 3.3465410983,
				"y": 0.9849884424,
				"z": 4.800388544,
				"element": "Br" 
			},
			{
				"x": 1.2696576889,
				"y": -0.5043943003,
				"z": 3.5264839282,
				"element": "C" 
			},
			{
				"x": 0.6375464584,
				"y": -0.926196015,
				"z": 5.2541314858,
				"element": "Br" 
			},
			{
				"x": 0.8402695789,
				"y": -2.2872774726,
				"z": -0.9208867767,
				"element": "C" 
			},
			{
				"x": 0.9017300502,
				"y": -2.017482033,
				"z": -2.2902156186,
				"element": "C" 
			},
			{
				"x": 1.6245745266,
				"y": -2.8425442443,
				"z": -3.1450495891,
				"element": "C" 
			},
			{
				"x": 1.6885203327,
				"y": -2.4393206418,
				"z": -5.0019408646,
				"element": "Br" 
			},
			{
				"x": 2.3124095985,
				"y": -3.9683466067,
				"z": -2.6658267059,
				"element": "C" 
			},
			{
				"x": 2.9989232985,
				"y": -4.7405647441,
				"z": -3.525833445,
				"element": "O" 
			},
			{
				"x": 2.233561976,
				"y": -4.2215923548,
				"z": -1.2844845869,
				"element": "C" 
			},
			{
				"x": 3.1516357695,
				"y": -5.7583208577,
				"z": -0.6045645145,
				"element": "Br" 
			},
			{
				"x": 1.5148601735,
				"y": -3.4081032654,
				"z": -0.4218449122,
				"element": "C" 
			},
			{
				"x": -4.4809957805,
				"y": 1.500514987,
				"z": -2.8016915578,
				"element": "H" 
			},
			{
				"x": -0.1244939251,
				"y": 1.4135986321,
				"z": 0.1550911898,
				"element": "H" 
			},
			{
				"x": -2.0568497071,
				"y": -2.078825651,
				"z": -1.4660559573,
				"element": "H" 
			},
			{
				"x": 0.3945884087,
				"y": -1.1566110968,
				"z": -2.7047591254,
				"element": "H" 
			},
			{
				"x": 3.4053731375,
				"y": -5.471880167,
				"z": -3.030994694,
				"element": "H" 
			},
			{
				"x": 1.4623285053,
				"y": -3.6616405084,
				"z": 0.6299627834,
				"element": "H" 
			}
		],
		 "valence_orbital": [ 
			{
				"type": "occ",
				"energy": -0.27426,
				"method": "rhf"
			},
			{
				"type": "occ",
				"energy": -0.26319,
				"method": "rhf"
			},
			{
				"type": "occ",
				"energy": -0.26008,
				"method": "rhf"
			},
			{
				"type": "occ",
				"energy": -0.24728,
				"method": "rhf"
			},
			{
				"type": "occ",
				"energy": -0.24659,
				"method": "rhf"
			},
			{
				"type": "unocc",
				"energy": -0.08142,
				"method": "rhf"
			},
			{
				"type": "unocc",
				"energy": -0.07788,
				"method": "rhf"
			},
			{
				"type": "unocc",
				"energy": -0.07455,
				"method": "rhf"
			},
			{
				"type": "unocc",
				"energy": -0.04822,
				"method": "rhf"
			},
			{
				"type": "unocc",
				"energy": -0.04075,
				"method": "rhf"
			}
		],
		"cosmo_sigma_profile": { 
			"-0.025": 0.0,
			"-0.024": 0.0,
			"-0.023": 0.0,
			"-0.022": 0.0,
			"-0.021": 0.0,
			"-0.02": 0.0,
			"-0.019": 0.0,
			"-0.018": 0.0,
			"-0.017": 0.0,
			"-0.016": 0.411348055087,
			"-0.015": 1.11029832762,
			"-0.014": 0.834538834733,
			"-0.013": 1.6402012051,
			"-0.012": 1.41948856284,
			"-0.011": 2.34706735261,
			"-0.01": 1.89502839812,
			"-0.009": 3.75138306851,
			"-0.008": 6.03113623504,
			"-0.007": 11.2013564556,
			"-0.006": 17.314393348,
			"-0.005": 25.4403179226,
			"-0.004": 31.4316233881,
			"-0.003": 38.0345232973,
			"-0.002": 36.7042181122,
			"-0.001": 42.2726408028,
			"0.0": 54.9126378259,
			"0.001": 55.7326848226,
			"0.002": 64.0285605038,
			"0.003": 46.6596673412,
			"0.004": 27.1360069043,
			"0.005": 11.8923515386,
			"0.006": 9.10540543742,
			"0.007": 6.53157549285,
			"0.008": 13.5656787973,
			"0.009": 15.5538917617,
			"0.01": 2.86160601104,
			"0.011": 0.0,
			"0.012": 0.0,
			"0.013": 0.0,
			"0.014": 0.0,
			"0.015": 0.0,
			"0.016": 0.0,
			"0.017": 0.0,
			"0.018": 0.0,
			"0.019": 0.0,
			"0.02": 0.0,
			"0.021": 0.0,
			"0.022": 0.0,
			"0.023": 0.0,
			"0.024": 0.0,
			"0.025": 0.0
		}
	}
}
