{
	 "smiles": "OCC1=CC2=C(NC1=O)C=CC=C2", 
	 "Tm": 513.15, 
	 "num_atms": 22, 
	 "gaussian": { 
		 "optdone": 1, 
		 "sigma_profile": "yes", 
		 "theory": "DFT", 
		 "functional": "B3LYP", 
		 "basiset": "6-31G**", 
		 "properties": { 
			 "R2extent": 2829.8762, 
			 "electric_dipole_moment_norm": 3.86536351977, 
			 "electric_quadrupole_moment_norm": 12.5878728382, 
			 "total_energy": -591.705017819, 
			 "HOMO_LUMO_gap": 0.16769, 
			 "cosmo_polarized_energy": -15.31, 
			 "cosmo_cavitation_energy": 25.98, 
			 "cosmo_dispersion_energy": -19.43, 
			 "cosmo_repulsion_energy": 1.52, 
			 "cosmo_total_nonelectrostatic_energy": 8.07, 
			 "SMD_solvation_energy": 4.81 
		},
		"coords": [
			{
				"x": 1.3471596837,
				"y": 3.4676459792,
				"z": -1.4474060073,
				"element": "O" 
			},
			{
				"x": 0.8174125056,
				"y": 3.4716809806,
				"z": -0.1309277327,
				"element": "C" 
			},
			{
				"x": 0.1976442948,
				"y": 2.1545122644,
				"z": 0.2744854292,
				"element": "C" 
			},
			{
				"x": -0.0412841107,
				"y": 1.142696691,
				"z": -0.5978738827,
				"element": "C" 
			},
			{
				"x": -0.635997721,
				"y": -0.1029128291,
				"z": -0.1866894874,
				"element": "C" 
			},
			{
				"x": -0.9809260211,
				"y": -0.2579446473,
				"z": 1.1787166653,
				"element": "C" 
			},
			{
				"x": -0.725938198,
				"y": 0.7946436759,
				"z": 2.0377535534,
				"element": "N" 
			},
			{
				"x": -0.1574936209,
				"y": 2.0190613419,
				"z": 1.6926681697,
				"element": "C" 
			},
			{
				"x": 0.0180411662,
				"y": 2.8929456628,
				"z": 2.5401023051,
				"element": "O" 
			},
			{
				"x": -1.5649559766,
				"y": -1.4519538945,
				"z": 1.6321492468,
				"element": "C" 
			},
			{
				"x": -1.8044530451,
				"y": -2.4835022452,
				"z": 0.7344546149,
				"element": "C" 
			},
			{
				"x": -1.4696894798,
				"y": -2.3459890857,
				"z": -0.6226154522,
				"element": "C" 
			},
			{
				"x": -0.892762058,
				"y": -1.1675288586,
				"z": -1.0718468578,
				"element": "C" 
			},
			{
				"x": 2.1361463621,
				"y": 2.9098762887,
				"z": -1.442041039,
				"element": "H" 
			},
			{
				"x": 1.5648993233,
				"y": 3.7611756634,
				"z": 0.6210355821,
				"element": "H" 
			},
			{
				"x": 0.0525960428,
				"y": 4.2568845287,
				"z": -0.1104534974,
				"element": "H" 
			},
			{
				"x": 0.2205245568,
				"y": 1.2807937339,
				"z": -1.6440323943,
				"element": "H" 
			},
			{
				"x": -0.9677740188,
				"y": 0.7097354601,
				"z": 3.0176511617,
				"element": "H" 
			},
			{
				"x": -1.8252517715,
				"y": -1.5591116203,
				"z": 2.6818153137,
				"element": "H" 
			},
			{
				"x": -2.2562642404,
				"y": -3.4048585846,
				"z": 1.0897335932,
				"element": "H" 
			},
			{
				"x": -1.6626849856,
				"y": -3.1588738717,
				"z": -1.3152490021,
				"element": "H" 
			},
			{
				"x": -0.6304486878,
				"y": -1.0478766336,
				"z": -2.1196302823,
				"element": "H" 
			}
		],
		 "valence_orbital": [ 
			{
				"type": "occ",
				"energy": -0.30838,
				"method": "rhf"
			},
			{
				"type": "occ",
				"energy": -0.28265,
				"method": "rhf"
			},
			{
				"type": "occ",
				"energy": -0.25306,
				"method": "rhf"
			},
			{
				"type": "occ",
				"energy": -0.2442,
				"method": "rhf"
			},
			{
				"type": "occ",
				"energy": -0.22057,
				"method": "rhf"
			},
			{
				"type": "unocc",
				"energy": -0.05288,
				"method": "rhf"
			},
			{
				"type": "unocc",
				"energy": -0.00848,
				"method": "rhf"
			},
			{
				"type": "unocc",
				"energy": 0.01135,
				"method": "rhf"
			},
			{
				"type": "unocc",
				"energy": 0.07442,
				"method": "rhf"
			},
			{
				"type": "unocc",
				"energy": 0.08127,
				"method": "rhf"
			}
		],
		"cosmo_sigma_profile": { 
			"-0.025": 0.0,
			"-0.024": 0.0,
			"-0.023": 0.0,
			"-0.022": 0.0,
			"-0.021": 0.0,
			"-0.02": 0.0,
			"-0.019": 0.0,
			"-0.018": 0.0,
			"-0.017": 0.0,
			"-0.016": 0.67362918229,
			"-0.015": 1.78714245267,
			"-0.014": 2.64933952784,
			"-0.013": 1.86997447621,
			"-0.012": 1.90878780365,
			"-0.011": 1.88254686088,
			"-0.01": 2.27267843688,
			"-0.009": 1.81367050616,
			"-0.008": 2.68165516384,
			"-0.007": 5.45611980057,
			"-0.006": 11.0237605235,
			"-0.005": 13.4974769855,
			"-0.004": 14.6579280801,
			"-0.003": 11.5053830903,
			"-0.002": 11.5979247491,
			"-0.001": 15.0104642897,
			"0.0": 13.4666328191,
			"0.001": 15.0989937063,
			"0.002": 15.5564851134,
			"0.003": 12.3203792644,
			"0.004": 11.9766772937,
			"0.005": 8.14565886283,
			"0.006": 2.35553456501,
			"0.007": 2.29851308047,
			"0.008": 2.38983074797,
			"0.009": 2.23921618888,
			"0.01": 2.25073223207,
			"0.011": 2.62815011281,
			"0.012": 3.21349244141,
			"0.013": 4.86716933239,
			"0.014": 7.1658610802,
			"0.015": 0.629597514794,
			"0.016": 0.0,
			"0.017": 0.0,
			"0.018": 0.0,
			"0.019": 0.0,
			"0.02": 0.0,
			"0.021": 0.0,
			"0.022": 0.0,
			"0.023": 0.0,
			"0.024": 0.0,
			"0.025": 0.0
		}
	}
}
