{
	 "smiles": "OCCCNC(C1=CC=CC=C1)C1=CC=CC=C1", 
	 "Tm": 336.15, 
	 "num_atms": 37, 
	 "gaussian": { 
		 "optdone": 1, 
		 "sigma_profile": "yes", 
		 "theory": "DFT", 
		 "functional": "B3LYP", 
		 "basiset": "6-31G**", 
		 "properties": { 
			 "R2extent": 5187.7544, 
			 "electric_dipole_moment_norm": 2.92071447423, 
			 "electric_quadrupole_moment_norm": 10.4034713336, 
			 "total_energy": -751.117964555, 
			 "HOMO_LUMO_gap": 0.22117, 
			 "cosmo_polarized_energy": -10.6, 
			 "cosmo_cavitation_energy": 38.67, 
			 "cosmo_dispersion_energy": -26.25, 
			 "cosmo_repulsion_energy": 2.04, 
			 "cosmo_total_nonelectrostatic_energy": 14.46, 
			 "SMD_solvation_energy": 6.12 
		},
		"coords": [
			{
				"x": 2.8076780541,
				"y": -2.3131460652,
				"z": -1.6868786797,
				"element": "O" 
			},
			{
				"x": 2.2985959604,
				"y": -2.8399208175,
				"z": -0.4717225742,
				"element": "C" 
			},
			{
				"x": 2.4723862111,
				"y": -1.8740039254,
				"z": 0.7140103665,
				"element": "C" 
			},
			{
				"x": 2.1479058846,
				"y": -0.415229739,
				"z": 0.3495840169,
				"element": "C" 
			},
			{
				"x": 0.9454111243,
				"y": -0.2894468361,
				"z": -0.4941411382,
				"element": "N" 
			},
			{
				"x": -0.3433665469,
				"y": -0.5058836374,
				"z": 0.1940730035,
				"element": "C" 
			},
			{
				"x": -1.4896668124,
				"y": -0.6248761427,
				"z": -0.8176879468,
				"element": "C" 
			},
			{
				"x": -1.2467560022,
				"y": -0.8842865845,
				"z": -2.172092542,
				"element": "C" 
			},
			{
				"x": -2.3045349552,
				"y": -1.038197159,
				"z": -3.0716004835,
				"element": "C" 
			},
			{
				"x": -3.623962599,
				"y": -0.945051412,
				"z": -2.6304001838,
				"element": "C" 
			},
			{
				"x": -3.8780280813,
				"y": -0.6970724809,
				"z": -1.2796301133,
				"element": "C" 
			},
			{
				"x": -2.8215110628,
				"y": -0.5360545239,
				"z": -0.3842746612,
				"element": "C" 
			},
			{
				"x": -0.6128374511,
				"y": 0.5382865358,
				"z": 1.2801953525,
				"element": "C" 
			},
			{
				"x": -0.5512296458,
				"y": 0.1962715172,
				"z": 2.635657506,
				"element": "C" 
			},
			{
				"x": -0.7428012543,
				"y": 1.1602474874,
				"z": 3.6299375355,
				"element": "C" 
			},
			{
				"x": -0.9969847917,
				"y": 2.4849272162,
				"z": 3.2775498445,
				"element": "C" 
			},
			{
				"x": -1.0628318074,
				"y": 2.8395912814,
				"z": 1.9266106251,
				"element": "C" 
			},
			{
				"x": -0.8742370697,
				"y": 1.8745670407,
				"z": 0.9393120001,
				"element": "C" 
			},
			{
				"x": 2.2067453886,
				"y": -1.5821805791,
				"z": -1.9000128238,
				"element": "H" 
			},
			{
				"x": 2.8417555912,
				"y": -3.7711202651,
				"z": -0.278238405,
				"element": "H" 
			},
			{
				"x": 1.235827524,
				"y": -3.1048412039,
				"z": -0.5792978959,
				"element": "H" 
			},
			{
				"x": 1.8507874915,
				"y": -2.2219169467,
				"z": 1.5496842667,
				"element": "H" 
			},
			{
				"x": 3.508728206,
				"y": -1.8960504692,
				"z": 1.07170086,
				"element": "H" 
			},
			{
				"x": 2.9770706836,
				"y": -0.0217395876,
				"z": -0.2463671385,
				"element": "H" 
			},
			{
				"x": 2.0934784933,
				"y": 0.1905919915,
				"z": 1.2672182398,
				"element": "H" 
			},
			{
				"x": 0.9314129441,
				"y": 0.6412904622,
				"z": -0.906520215,
				"element": "H" 
			},
			{
				"x": -0.2583417219,
				"y": -1.4781831228,
				"z": 0.6967901575,
				"element": "H" 
			},
			{
				"x": -0.2232029075,
				"y": -0.9736154284,
				"z": -2.5168167362,
				"element": "H" 
			},
			{
				"x": -2.0924836104,
				"y": -1.2348843519,
				"z": -4.118993084,
				"element": "H" 
			},
			{
				"x": -4.4465152359,
				"y": -1.0656976367,
				"z": -3.3296093839,
				"element": "H" 
			},
			{
				"x": -4.9012922116,
				"y": -0.6247203903,
				"z": -0.921508982,
				"element": "H" 
			},
			{
				"x": -3.0325544206,
				"y": -0.3351058132,
				"z": 0.6617898451,
				"element": "H" 
			},
			{
				"x": -0.3549622315,
				"y": -0.8357441015,
				"z": 2.9175043797,
				"element": "H" 
			},
			{
				"x": -0.6922555848,
				"y": 0.8736951346,
				"z": 4.6766585176,
				"element": "H" 
			},
			{
				"x": -1.1464242425,
				"y": 3.2367442095,
				"z": 4.0470997593,
				"element": "H" 
			},
			{
				"x": -1.2677445676,
				"y": 3.8684481487,
				"z": 1.6439877092,
				"element": "H" 
			},
			{
				"x": -0.9475587428,
				"y": 2.1562081947,
				"z": -0.1085709988,
				"element": "H" 
			}
		],
		 "valence_orbital": [ 
			{
				"type": "occ",
				"energy": -0.25531,
				"method": "rhf"
			},
			{
				"type": "occ",
				"energy": -0.2499,
				"method": "rhf"
			},
			{
				"type": "occ",
				"energy": -0.24655,
				"method": "rhf"
			},
			{
				"type": "occ",
				"energy": -0.23895,
				"method": "rhf"
			},
			{
				"type": "occ",
				"energy": -0.23276,
				"method": "rhf"
			},
			{
				"type": "unocc",
				"energy": -0.01159,
				"method": "rhf"
			},
			{
				"type": "unocc",
				"energy": -0.00819,
				"method": "rhf"
			},
			{
				"type": "unocc",
				"energy": -0.00194,
				"method": "rhf"
			},
			{
				"type": "unocc",
				"energy": 0.00534,
				"method": "rhf"
			},
			{
				"type": "unocc",
				"energy": 0.07247,
				"method": "rhf"
			}
		],
		"cosmo_sigma_profile": { 
			"-0.025": 0.0,
			"-0.024": 0.0,
			"-0.023": 0.0,
			"-0.022": 0.0,
			"-0.021": 0.0,
			"-0.02": 0.0,
			"-0.019": 0.0,
			"-0.018": 0.0,
			"-0.017": 0.0,
			"-0.016": 0.0,
			"-0.015": 0.0,
			"-0.014": 0.0,
			"-0.013": 0.0,
			"-0.012": 0.0,
			"-0.011": 0.0,
			"-0.01": 0.564346573369,
			"-0.009": 1.31762574019,
			"-0.008": 2.20718205901,
			"-0.007": 2.68782238363,
			"-0.006": 7.41060238522,
			"-0.005": 23.0468287638,
			"-0.004": 29.577164018,
			"-0.003": 34.085735255,
			"-0.002": 29.0553129571,
			"-0.001": 32.4127477307,
			"0.0": 25.2493440658,
			"0.001": 19.5797206355,
			"0.002": 16.9223783354,
			"0.003": 16.6612000819,
			"0.004": 15.961418006,
			"0.005": 16.1422113402,
			"0.006": 15.3007450811,
			"0.007": 4.27167239669,
			"0.008": 1.00538874518,
			"0.009": 1.04663414836,
			"0.01": 1.42975738817,
			"0.011": 1.34993511809,
			"0.012": 1.21464028146,
			"0.013": 1.24652206887,
			"0.014": 2.13474785248,
			"0.015": 2.36684220731,
			"0.016": 0.423911263602,
			"0.017": 0.0,
			"0.018": 0.0,
			"0.019": 0.0,
			"0.02": 0.0,
			"0.021": 0.0,
			"0.022": 0.0,
			"0.023": 0.0,
			"0.024": 0.0,
			"0.025": 0.0
		}
	}
}
