{
	 "smiles": "COC1=C(C=C(N)C=C1)N1C=NN=N1", 
	 "Tm": 413.15, 
	 "num_atms": 23, 
	 "gaussian": { 
		 "optdone": 1, 
		 "sigma_profile": "yes", 
		 "theory": "DFT", 
		 "functional": "B3LYP", 
		 "basiset": "6-31G**", 
		 "properties": { 
			 "R2extent": 3614.8321, 
			 "electric_dipole_moment_norm": 7.55477010967, 
			 "electric_quadrupole_moment_norm": 25.6539643702, 
			 "total_energy": -659.18245248, 
			 "HOMO_LUMO_gap": 0.16598, 
			 "cosmo_polarized_energy": -18.02, 
			 "cosmo_cavitation_energy": 27.55, 
			 "cosmo_dispersion_energy": -20.35, 
			 "cosmo_repulsion_energy": 1.58, 
			 "cosmo_total_nonelectrostatic_energy": 8.78, 
			 "SMD_solvation_energy": 4.15 
		},
		"coords": [
			{
				"x": 1.3022642511,
				"y": 1.4970241151,
				"z": -0.9774663627,
				"element": "C" 
			},
			{
				"x": 1.1792133955,
				"y": 0.5460117008,
				"z": 0.0707643876,
				"element": "O" 
			},
			{
				"x": -0.062570759,
				"y": 0.0304191905,
				"z": 0.3336481275,
				"element": "C" 
			},
			{
				"x": -0.1462434242,
				"y": -1.000183739,
				"z": 1.290985255,
				"element": "C" 
			},
			{
				"x": -1.3724529426,
				"y": -1.5786914562,
				"z": 1.6131107621,
				"element": "C" 
			},
			{
				"x": -2.553976582,
				"y": -1.1590068261,
				"z": 0.9858605804,
				"element": "C" 
			},
			{
				"x": -3.7853713209,
				"y": -1.7065419607,
				"z": 1.3540554975,
				"element": "N" 
			},
			{
				"x": -2.469189776,
				"y": -0.1316868554,
				"z": 0.0353658003,
				"element": "C" 
			},
			{
				"x": -1.2438118637,
				"y": 0.4519811848,
				"z": -0.2813999166,
				"element": "C" 
			},
			{
				"x": 1.02202889,
				"y": -1.496591366,
				"z": 1.9359730296,
				"element": "N" 
			},
			{
				"x": 2.2126346962,
				"y": -0.9198824259,
				"z": 2.2311964647,
				"element": "C" 
			},
			{
				"x": 2.9605429618,
				"y": -1.782948001,
				"z": 2.8842765771,
				"element": "N" 
			},
			{
				"x": 2.2097206111,
				"y": -2.9150448124,
				"z": 2.9908863414,
				"element": "N" 
			},
			{
				"x": 1.0557928558,
				"y": -2.7667012058,
				"z": 2.4351637002,
				"element": "N" 
			},
			{
				"x": 0.7510242374,
				"y": 2.4188291296,
				"z": -0.7529640107,
				"element": "H" 
			},
			{
				"x": 0.950396326,
				"y": 1.0879825445,
				"z": -1.9325210042,
				"element": "H" 
			},
			{
				"x": 2.3664460355,
				"y": 1.7243660437,
				"z": -1.0522462722,
				"element": "H" 
			},
			{
				"x": -1.3891602019,
				"y": -2.3691329872,
				"z": 2.3544716605,
				"element": "H" 
			},
			{
				"x": -3.7376710898,
				"y": -2.6347428887,
				"z": 1.7516879093,
				"element": "H" 
			},
			{
				"x": -4.5088996343,
				"y": -1.639546847,
				"z": 0.6514809535,
				"element": "H" 
			},
			{
				"x": -3.3699027517,
				"y": 0.2226104682,
				"z": -0.4583719338,
				"element": "H" 
			},
			{
				"x": -1.2168418546,
				"y": 1.2415546382,
				"z": -1.022408627,
				"element": "H" 
			},
			{
				"x": 2.4755279404,
				"y": 0.0863223563,
				"z": 1.9566510803,
				"element": "H" 
			}
		],
		 "valence_orbital": [ 
			{
				"type": "occ",
				"energy": -0.292,
				"method": "rhf"
			},
			{
				"type": "occ",
				"energy": -0.28747,
				"method": "rhf"
			},
			{
				"type": "occ",
				"energy": -0.27558,
				"method": "rhf"
			},
			{
				"type": "occ",
				"energy": -0.25397,
				"method": "rhf"
			},
			{
				"type": "occ",
				"energy": -0.20587,
				"method": "rhf"
			},
			{
				"type": "unocc",
				"energy": -0.03989,
				"method": "rhf"
			},
			{
				"type": "unocc",
				"energy": 0.00222,
				"method": "rhf"
			},
			{
				"type": "unocc",
				"energy": 0.01892,
				"method": "rhf"
			},
			{
				"type": "unocc",
				"energy": 0.0372,
				"method": "rhf"
			},
			{
				"type": "unocc",
				"energy": 0.06847,
				"method": "rhf"
			}
		],
		"cosmo_sigma_profile": { 
			"-0.025": 0.0,
			"-0.024": 0.0,
			"-0.023": 0.0,
			"-0.022": 0.0,
			"-0.021": 0.0,
			"-0.02": 0.0,
			"-0.019": 0.0,
			"-0.018": 0.0,
			"-0.017": 0.0,
			"-0.016": 0.0,
			"-0.015": 0.0,
			"-0.014": 0.0,
			"-0.013": 0.674468687187,
			"-0.012": 2.91050801149,
			"-0.011": 3.42429471295,
			"-0.01": 4.46097756732,
			"-0.009": 4.46574311106,
			"-0.008": 3.67010651826,
			"-0.007": 7.44599189106,
			"-0.006": 13.5324904026,
			"-0.005": 15.4610116666,
			"-0.004": 17.1986107985,
			"-0.003": 15.7823266036,
			"-0.002": 12.8474350807,
			"-0.001": 11.8379565527,
			"0.0": 8.9988703843,
			"0.001": 11.2743947894,
			"0.002": 11.6747712757,
			"0.003": 13.4529296937,
			"0.004": 12.8311282762,
			"0.005": 7.73367678029,
			"0.006": 4.8313134918,
			"0.007": 5.69628500723,
			"0.008": 5.35464549464,
			"0.009": 5.05559406776,
			"0.01": 5.72178548435,
			"0.011": 4.33578883451,
			"0.012": 3.45060838286,
			"0.013": 3.09914261031,
			"0.014": 2.34132672968,
			"0.015": 1.00461404552,
			"0.016": 0.0239111806436,
			"0.017": 0.0,
			"0.018": 0.0,
			"0.019": 0.0,
			"0.02": 0.0,
			"0.021": 0.0,
			"0.022": 0.0,
			"0.023": 0.0,
			"0.024": 0.0,
			"0.025": 0.0
		}
	}
}
