{
	 "smiles": "COC1=CC(=CC(OC)=C1OC)C(=O)NC1=CC2=NN(N=C2C=C1)C1CCCC1", 
	 "Tm": 402.15, 
	 "num_atms": 53, 
	 "gaussian": { 
		 "optdone": 1, 
		 "sigma_profile": "yes", 
		 "theory": "DFT", 
		 "functional": "B3LYP", 
		 "basiset": "6-31G**", 
		 "properties": { 
			 "R2extent": 16225.3565, 
			 "electric_dipole_moment_norm": 4.86657412355, 
			 "electric_quadrupole_moment_norm": 23.6509904182, 
			 "total_energy": -1334.5396063, 
			 "HOMO_LUMO_gap": 0.16372, 
			 "cosmo_polarized_energy": -18.69, 
			 "cosmo_cavitation_energy": 55.63, 
			 "cosmo_dispersion_energy": -37.64, 
			 "cosmo_repulsion_energy": 2.9, 
			 "cosmo_total_nonelectrostatic_energy": 20.89, 
			 "SMD_solvation_energy": 9.17 
		},
		"coords": [
			{
				"x": 3.1513753948,
				"y": -5.4437690813,
				"z": 2.6997227427,
				"element": "C" 
			},
			{
				"x": 1.9303426426,
				"y": -4.7101463878,
				"z": 2.5420819607,
				"element": "O" 
			},
			{
				"x": 2.1069906146,
				"y": -3.3657569426,
				"z": 2.2873479469,
				"element": "C" 
			},
			{
				"x": 1.8933526613,
				"y": -2.4517470816,
				"z": 3.3114634447,
				"element": "C" 
			},
			{
				"x": 2.059273814,
				"y": -1.0821986068,
				"z": 3.0704358142,
				"element": "C" 
			},
			{
				"x": 2.4708328211,
				"y": -0.6492067593,
				"z": 1.8087347898,
				"element": "C" 
			},
			{
				"x": 2.6932641151,
				"y": -1.5607565147,
				"z": 0.7697632301,
				"element": "C" 
			},
			{
				"x": 3.1544267425,
				"y": -1.0187970769,
				"z": -0.3956246942,
				"element": "O" 
			},
			{
				"x": 2.7344355993,
				"y": -1.546255461,
				"z": -1.6534134101,
				"element": "C" 
			},
			{
				"x": 2.4971210794,
				"y": -2.9383391627,
				"z": 1.0002883707,
				"element": "C" 
			},
			{
				"x": 2.7695877894,
				"y": -3.8496281472,
				"z": 0.006476547,
				"element": "O" 
			},
			{
				"x": 1.6545957026,
				"y": -4.6310845277,
				"z": -0.4496050234,
				"element": "C" 
			},
			{
				"x": 1.8964939238,
				"y": -0.1539124827,
				"z": 4.2353557423,
				"element": "C" 
			},
			{
				"x": 2.1872409908,
				"y": -0.5074350668,
				"z": 5.3727567146,
				"element": "O" 
			},
			{
				"x": 1.4831953004,
				"y": 1.1525400998,
				"z": 4.0137861884,
				"element": "N" 
			},
			{
				"x": 0.6559840117,
				"y": 1.7074253351,
				"z": 3.0045944959,
				"element": "C" 
			},
			{
				"x": -0.3258558369,
				"y": 0.9754161742,
				"z": 2.3613559429,
				"element": "C" 
			},
			{
				"x": -1.0850719968,
				"y": 1.646970932,
				"z": 1.378726799,
				"element": "C" 
			},
			{
				"x": -2.0900505863,
				"y": 1.1930938245,
				"z": 0.5924396048,
				"element": "N" 
			},
			{
				"x": -2.4288859972,
				"y": 2.2734943874,
				"z": -0.1070989131,
				"element": "N" 
			},
			{
				"x": -1.763050437,
				"y": 3.396646062,
				"z": 0.1308528514,
				"element": "N" 
			},
			{
				"x": -0.8830084233,
				"y": 3.027384068,
				"z": 1.0904132449,
				"element": "C" 
			},
			{
				"x": 0.1065868471,
				"y": 3.7682876854,
				"z": 1.7748248653,
				"element": "C" 
			},
			{
				"x": 0.8612895057,
				"y": 3.0955843424,
				"z": 2.7076666696,
				"element": "C" 
			},
			{
				"x": -3.5239833856,
				"y": 2.2241092172,
				"z": -1.0841362332,
				"element": "C" 
			},
			{
				"x": -3.0481882131,
				"y": 2.6359700133,
				"z": -2.5077888359,
				"element": "C" 
			},
			{
				"x": -4.1224100799,
				"y": 3.6088005752,
				"z": -3.0304136145,
				"element": "C" 
			},
			{
				"x": -4.5938191936,
				"y": 4.3351329579,
				"z": -1.7605611147,
				"element": "C" 
			},
			{
				"x": -4.679639862,
				"y": 3.2029367677,
				"z": -0.7228391065,
				"element": "C" 
			},
			{
				"x": 3.7585881228,
				"y": -5.4056383748,
				"z": 1.7891011701,
				"element": "H" 
			},
			{
				"x": 2.863892332,
				"y": -6.4765275668,
				"z": 2.9074226132,
				"element": "H" 
			},
			{
				"x": 3.7328207912,
				"y": -5.0520562075,
				"z": 3.543131457,
				"element": "H" 
			},
			{
				"x": 1.6177599152,
				"y": -2.8052260163,
				"z": 4.2980440447,
				"element": "H" 
			},
			{
				"x": 2.6335411309,
				"y": 0.4000565216,
				"z": 1.5941395419,
				"element": "H" 
			},
			{
				"x": 1.654367582,
				"y": -1.7385855566,
				"z": -1.6629094572,
				"element": "H" 
			},
			{
				"x": 2.9607168736,
				"y": -0.7687056119,
				"z": -2.3867973216,
				"element": "H" 
			},
			{
				"x": 3.2684746482,
				"y": -2.46354399,
				"z": -1.9089855114,
				"element": "H" 
			},
			{
				"x": 1.2014293322,
				"y": -5.1904378833,
				"z": 0.3718012424,
				"element": "H" 
			},
			{
				"x": 0.8986228277,
				"y": -3.9891776061,
				"z": -0.9190468876,
				"element": "H" 
			},
			{
				"x": 2.0550439661,
				"y": -5.3208605447,
				"z": -1.1952283403,
				"element": "H" 
			},
			{
				"x": 1.5757420814,
				"y": 1.7030311437,
				"z": 4.8600214526,
				"element": "H" 
			},
			{
				"x": -0.5118422408,
				"y": -0.0647966735,
				"z": 2.597452013,
				"element": "H" 
			},
			{
				"x": 0.2683736176,
				"y": 4.8197103168,
				"z": 1.5633784367,
				"element": "H" 
			},
			{
				"x": 1.6510392328,
				"y": 3.6153954016,
				"z": 3.2425792218,
				"element": "H" 
			},
			{
				"x": -3.8536252502,
				"y": 1.1860422788,
				"z": -1.0444514238,
				"element": "H" 
			},
			{
				"x": -2.8952337282,
				"y": 1.7665729304,
				"z": -3.1532471428,
				"element": "H" 
			},
			{
				"x": -2.0908392413,
				"y": 3.15620032,
				"z": -2.4153058166,
				"element": "H" 
			},
			{
				"x": -3.7336469775,
				"y": 4.2838840088,
				"z": -3.7987856929,
				"element": "H" 
			},
			{
				"x": -4.9580023633,
				"y": 3.0535613202,
				"z": -3.475731925,
				"element": "H" 
			},
			{
				"x": -3.8400515194,
				"y": 5.0668271069,
				"z": -1.4489462881,
				"element": "H" 
			},
			{
				"x": -5.5432692518,
				"y": 4.8637246708,
				"z": -1.8894603273,
				"element": "H" 
			},
			{
				"x": -5.6307141935,
				"y": 2.6688348632,
				"z": -0.8282961608,
				"element": "H" 
			},
			{
				"x": -4.6088132323,
				"y": 3.5474560056,
				"z": 0.3113140819,
				"element": "H" 
			}
		],
		 "valence_orbital": [ 
			{
				"type": "occ",
				"energy": -0.25329,
				"method": "rhf"
			},
			{
				"type": "occ",
				"energy": -0.24136,
				"method": "rhf"
			},
			{
				"type": "occ",
				"energy": -0.23549,
				"method": "rhf"
			},
			{
				"type": "occ",
				"energy": -0.22023,
				"method": "rhf"
			},
			{
				"type": "occ",
				"energy": -0.21431,
				"method": "rhf"
			},
			{
				"type": "unocc",
				"energy": -0.05059,
				"method": "rhf"
			},
			{
				"type": "unocc",
				"energy": -0.03044,
				"method": "rhf"
			},
			{
				"type": "unocc",
				"energy": 0.00321,
				"method": "rhf"
			},
			{
				"type": "unocc",
				"energy": 0.01921,
				"method": "rhf"
			},
			{
				"type": "unocc",
				"energy": 0.0295,
				"method": "rhf"
			}
		],
		"cosmo_sigma_profile": { 
			"-0.025": 0.0,
			"-0.024": 0.0,
			"-0.023": 0.0,
			"-0.022": 0.0,
			"-0.021": 0.0,
			"-0.02": 0.0,
			"-0.019": 0.0,
			"-0.018": 0.0,
			"-0.017": 0.0,
			"-0.016": 0.0,
			"-0.015": 0.0322907320186,
			"-0.014": 1.06950622428,
			"-0.013": 0.927076969956,
			"-0.012": 1.16636931528,
			"-0.011": 1.16801071898,
			"-0.01": 0.823274550395,
			"-0.009": 1.06890844519,
			"-0.008": 1.85916911266,
			"-0.007": 4.72775670457,
			"-0.006": 13.6241367108,
			"-0.005": 24.1915829428,
			"-0.004": 36.4548006635,
			"-0.003": 52.3857080325,
			"-0.002": 49.6955545804,
			"-0.001": 46.1033955763,
			"0.0": 38.5853505994,
			"0.001": 33.5351959222,
			"0.002": 29.4164840607,
			"0.003": 26.4443087675,
			"0.004": 15.0539150756,
			"0.005": 9.61519689656,
			"0.006": 7.57794350268,
			"0.007": 6.67623003824,
			"0.008": 6.86058714467,
			"0.009": 7.19117728897,
			"0.01": 5.36278100873,
			"0.011": 5.93144575418,
			"0.012": 4.76076311179,
			"0.013": 5.91229470114,
			"0.014": 1.8362137132,
			"0.015": 0.0,
			"0.016": 0.0,
			"0.017": 0.0,
			"0.018": 0.0,
			"0.019": 0.0,
			"0.02": 0.0,
			"0.021": 0.0,
			"0.022": 0.0,
			"0.023": 0.0,
			"0.024": 0.0,
			"0.025": 0.0
		}
	}
}
