{
	 "smiles": "CN(C)C1=CC=C(C=C1)C1CC(=O)CC(=O)C1", 
	 "Tm": 475.15, 
	 "num_atms": 34, 
	 "gaussian": { 
		 "optdone": 1, 
		 "sigma_profile": "yes", 
		 "theory": "DFT", 
		 "functional": "B3LYP", 
		 "basiset": "6-31G**", 
		 "properties": { 
			 "R2extent": 5630.643, 
			 "electric_dipole_moment_norm": 4.89672024318, 
			 "electric_quadrupole_moment_norm": 24.2096855161, 
			 "total_energy": -748.921971479, 
			 "HOMO_LUMO_gap": 0.16614, 
			 "cosmo_polarized_energy": -14.78, 
			 "cosmo_cavitation_energy": 35.31, 
			 "cosmo_dispersion_energy": -25.33, 
			 "cosmo_repulsion_energy": 1.95, 
			 "cosmo_total_nonelectrostatic_energy": 11.94, 
			 "SMD_solvation_energy": 6.33 
		},
		"coords": [
			{
				"x": -3.5283502512,
				"y": 1.343178225,
				"z": 1.922444052,
				"element": "C" 
			},
			{
				"x": -2.2183441781,
				"y": 0.8794630528,
				"z": 2.3473039716,
				"element": "N" 
			},
			{
				"x": -2.0485712653,
				"y": 0.4758585878,
				"z": 3.7327464254,
				"element": "C" 
			},
			{
				"x": -1.3143741165,
				"y": 0.427754634,
				"z": 1.3938359201,
				"element": "C" 
			},
			{
				"x": -0.1207384264,
				"y": -0.2309547142,
				"z": 1.7571686774,
				"element": "C" 
			},
			{
				"x": 0.7937332025,
				"y": -0.6541593426,
				"z": 0.7933726519,
				"element": "C" 
			},
			{
				"x": 0.572391059,
				"y": -0.4670366492,
				"z": -0.5764258968,
				"element": "C" 
			},
			{
				"x": -0.6169300031,
				"y": 0.1876203216,
				"z": -0.9324148726,
				"element": "C" 
			},
			{
				"x": -1.5403409686,
				"y": 0.6205381835,
				"z": 0.0106505706,
				"element": "C" 
			},
			{
				"x": 1.5511878147,
				"y": -0.9003393162,
				"z": -1.6683309129,
				"element": "C" 
			},
			{
				"x": 2.8686079245,
				"y": -1.5020388583,
				"z": -1.1471448423,
				"element": "C" 
			},
			{
				"x": 2.7346990684,
				"y": -2.8935532283,
				"z": -0.5332735158,
				"element": "C" 
			},
			{
				"x": 3.594855454,
				"y": -3.3622958741,
				"z": 0.1851797101,
				"element": "O" 
			},
			{
				"x": 1.466694209,
				"y": -3.676310009,
				"z": -0.864178938,
				"element": "C" 
			},
			{
				"x": 0.796646846,
				"y": -3.3297562529,
				"z": -2.1876726672,
				"element": "C" 
			},
			{
				"x": 0.1879292517,
				"y": -4.1651334599,
				"z": -2.8255077324,
				"element": "O" 
			},
			{
				"x": 0.9275332714,
				"y": -1.8904166224,
				"z": -2.6825971558,
				"element": "C" 
			},
			{
				"x": -3.443299592,
				"y": 2.2050351474,
				"z": 1.2506977138,
				"element": "H" 
			},
			{
				"x": -4.0935000508,
				"y": 1.6673928998,
				"z": 2.7976651482,
				"element": "H" 
			},
			{
				"x": -4.1128756849,
				"y": 0.5663805352,
				"z": 1.4046653688,
				"element": "H" 
			},
			{
				"x": -2.8302451279,
				"y": 0.9375036425,
				"z": 4.3380779286,
				"element": "H" 
			},
			{
				"x": -2.1041414698,
				"y": -0.615268433,
				"z": 3.8731032478,
				"element": "H" 
			},
			{
				"x": -1.0845550909,
				"y": 0.8174097489,
				"z": 4.1266012532,
				"element": "H" 
			},
			{
				"x": 0.108585782,
				"y": -0.4173287595,
				"z": 2.7989889072,
				"element": "H" 
			},
			{
				"x": 1.6988317633,
				"y": -1.1406309381,
				"z": 1.1448488734,
				"element": "H" 
			},
			{
				"x": -0.8338078395,
				"y": 0.3724505344,
				"z": -1.9823782187,
				"element": "H" 
			},
			{
				"x": -2.4403331029,
				"y": 1.1142212673,
				"z": -0.3346996986,
				"element": "H" 
			},
			{
				"x": 1.8143600247,
				"y": 0.001598667,
				"z": -2.2366047992,
				"element": "H" 
			},
			{
				"x": 3.3772922207,
				"y": -0.8543756417,
				"z": -0.4277782597,
				"element": "H" 
			},
			{
				"x": 3.5603729632,
				"y": -1.6150377967,
				"z": -1.9945335695,
				"element": "H" 
			},
			{
				"x": 1.6460465314,
				"y": -4.7509047716,
				"z": -0.791592622,
				"element": "H" 
			},
			{
				"x": 0.7405986959,
				"y": -3.4114032751,
				"z": -0.0794955465,
				"element": "H" 
			},
			{
				"x": -0.059104813,
				"y": -1.5668181791,
				"z": -3.0257596765,
				"element": "H" 
			},
			{
				"x": 1.5582458986,
				"y": -1.9369433252,
				"z": -3.5819614959,
				"element": "H" 
			}
		],
		 "valence_orbital": [ 
			{
				"type": "occ",
				"energy": -0.28421,
				"method": "rhf"
			},
			{
				"type": "occ",
				"energy": -0.25571,
				"method": "rhf"
			},
			{
				"type": "occ",
				"energy": -0.2499,
				"method": "rhf"
			},
			{
				"type": "occ",
				"energy": -0.2389,
				"method": "rhf"
			},
			{
				"type": "occ",
				"energy": -0.19353,
				"method": "rhf"
			},
			{
				"type": "unocc",
				"energy": -0.02739,
				"method": "rhf"
			},
			{
				"type": "unocc",
				"energy": -0.01419,
				"method": "rhf"
			},
			{
				"type": "unocc",
				"energy": -0.00164,
				"method": "rhf"
			},
			{
				"type": "unocc",
				"energy": 0.01165,
				"method": "rhf"
			},
			{
				"type": "unocc",
				"energy": 0.07668,
				"method": "rhf"
			}
		],
		"cosmo_sigma_profile": { 
			"-0.025": 0.0,
			"-0.024": 0.0,
			"-0.023": 0.0,
			"-0.022": 0.0,
			"-0.021": 0.0,
			"-0.02": 0.0,
			"-0.019": 0.0,
			"-0.018": 0.0,
			"-0.017": 0.0,
			"-0.016": 0.0,
			"-0.015": 0.0,
			"-0.014": 0.0,
			"-0.013": 0.0,
			"-0.012": 0.0,
			"-0.011": 0.0,
			"-0.01": 0.335166452982,
			"-0.009": 0.922574153486,
			"-0.008": 2.14957279714,
			"-0.007": 6.78055017297,
			"-0.006": 15.4726859232,
			"-0.005": 26.1088647366,
			"-0.004": 30.2979756159,
			"-0.003": 32.9674667453,
			"-0.002": 30.1640475227,
			"-0.001": 23.2822340456,
			"0.0": 12.6072419424,
			"0.001": 10.1314486974,
			"0.002": 9.08287359085,
			"0.003": 8.01059035159,
			"0.004": 8.75577634891,
			"0.005": 9.36366148296,
			"0.006": 10.5223884488,
			"0.007": 9.58200517389,
			"0.008": 3.90513505425,
			"0.009": 3.69767990601,
			"0.01": 4.02410871517,
			"0.011": 7.86918115012,
			"0.012": 8.40259994735,
			"0.013": 3.33621493162,
			"0.014": 0.00054541782116,
			"0.015": 0.0,
			"0.016": 0.0,
			"0.017": 0.0,
			"0.018": 0.0,
			"0.019": 0.0,
			"0.02": 0.0,
			"0.021": 0.0,
			"0.022": 0.0,
			"0.023": 0.0,
			"0.024": 0.0,
			"0.025": 0.0
		}
	}
}
