{
	 "smiles": "FC1=CC(C2=NNN=N2)=C(Br)C=C1", 
	 "Tm": 467.15, 
	 "num_atms": 17, 
	 "gaussian": { 
		 "optdone": 1, 
		 "sigma_profile": "yes", 
		 "theory": "DFT", 
		 "functional": "B3LYP", 
		 "basiset": "6-31G**", 
		 "properties": { 
			 "R2extent": 3637.5588, 
			 "electric_dipole_moment_norm": 2.20150647058, 
			 "electric_quadrupole_moment_norm": 21.1793577008, 
			 "total_energy": -3159.34027991, 
			 "HOMO_LUMO_gap": 0.18929, 
			 "cosmo_polarized_energy": -13.17, 
			 "cosmo_cavitation_energy": 25.17, 
			 "cosmo_dispersion_energy": -19.04, 
			 "cosmo_repulsion_energy": 1.48, 
			 "cosmo_total_nonelectrostatic_energy": 7.6, 
			 "SMD_solvation_energy": 1.63 
		},
		"coords": [
			{
				"x": -2.7346213196,
				"y": 1.9238061328,
				"z": 2.5540034435,
				"element": "F" 
			},
			{
				"x": -2.028582978,
				"y": 1.8139897966,
				"z": 1.4123079141,
				"element": "C" 
			},
			{
				"x": -1.5578216059,
				"y": 0.5683749879,
				"z": 1.0324090772,
				"element": "C" 
			},
			{
				"x": -0.8129371261,
				"y": 0.4230347151,
				"z": -0.1512130097,
				"element": "C" 
			},
			{
				"x": -0.3457418585,
				"y": -0.933337209,
				"z": -0.4817048749,
				"element": "C" 
			},
			{
				"x": -1.0281968494,
				"y": -2.0248278658,
				"z": -0.1196588725,
				"element": "N" 
			},
			{
				"x": -0.2274303955,
				"y": -2.9839515952,
				"z": -0.5598299774,
				"element": "N" 
			},
			{
				"x": 0.8820429357,
				"y": -2.5559105405,
				"z": -1.1576516881,
				"element": "N" 
			},
			{
				"x": 0.8218475815,
				"y": -1.2524241625,
				"z": -1.1124833298,
				"element": "N" 
			},
			{
				"x": -0.5754635524,
				"y": 1.5693773318,
				"z": -0.9321210344,
				"element": "C" 
			},
			{
				"x": 0.3459650575,
				"y": 1.5111312285,
				"z": -2.6000306015,
				"element": "Br" 
			},
			{
				"x": -1.0555063539,
				"y": 2.8169179437,
				"z": -0.5253491757,
				"element": "C" 
			},
			{
				"x": -1.7838236516,
				"y": 2.952155102,
				"z": 0.6530387424,
				"element": "C" 
			},
			{
				"x": -1.7605875917,
				"y": -0.2957539947,
				"z": 1.6535769041,
				"element": "H" 
			},
			{
				"x": -0.4458137299,
				"y": -3.9667012035,
				"z": -0.4640331388,
				"element": "H" 
			},
			{
				"x": -0.8609610045,
				"y": 3.6842440061,
				"z": -1.1449595504,
				"element": "H" 
			},
			{
				"x": -2.1594675578,
				"y": 3.9155753267,
				"z": 0.9791991719,
				"element": "H" 
			}
		],
		 "valence_orbital": [ 
			{
				"type": "occ",
				"energy": -0.31296,
				"method": "rhf"
			},
			{
				"type": "occ",
				"energy": -0.30482,
				"method": "rhf"
			},
			{
				"type": "occ",
				"energy": -0.27791,
				"method": "rhf"
			},
			{
				"type": "occ",
				"energy": -0.2668,
				"method": "rhf"
			},
			{
				"type": "occ",
				"energy": -0.24215,
				"method": "rhf"
			},
			{
				"type": "unocc",
				"energy": -0.05286,
				"method": "rhf"
			},
			{
				"type": "unocc",
				"energy": -0.03199,
				"method": "rhf"
			},
			{
				"type": "unocc",
				"energy": -0.0204,
				"method": "rhf"
			},
			{
				"type": "unocc",
				"energy": 0.00431,
				"method": "rhf"
			},
			{
				"type": "unocc",
				"energy": 0.04513,
				"method": "rhf"
			}
		],
		"cosmo_sigma_profile": { 
			"-0.025": 0.0,
			"-0.024": 0.0,
			"-0.023": 0.0,
			"-0.022": 0.0,
			"-0.021": 0.0180377746702,
			"-0.02": 1.2561791232,
			"-0.019": 1.78677849379,
			"-0.018": 1.00006859858,
			"-0.017": 0.697581524553,
			"-0.016": 1.4236136043,
			"-0.015": 1.4954672673,
			"-0.014": 0.38311814902,
			"-0.013": 0.312732191976,
			"-0.012": 1.14592870308,
			"-0.011": 0.927488276135,
			"-0.01": 0.911905151245,
			"-0.009": 1.05882617109,
			"-0.008": 4.59842639176,
			"-0.007": 5.4285458187,
			"-0.006": 5.66953751706,
			"-0.005": 6.82669195231,
			"-0.004": 8.39916825556,
			"-0.003": 11.4417708086,
			"-0.002": 11.2332584927,
			"-0.001": 15.3512998616,
			"0.0": 20.6004855438,
			"0.001": 24.0463162807,
			"0.002": 15.0228654592,
			"0.003": 14.6517284374,
			"0.004": 19.8412194716,
			"0.005": 5.44842177724,
			"0.006": 3.60561087885,
			"0.007": 3.8127545826,
			"0.008": 5.2616277164,
			"0.009": 4.42311589576,
			"0.01": 3.01833292391,
			"0.011": 2.90534476229,
			"0.012": 1.65737175959,
			"0.013": 0.924979187253,
			"0.014": 0.349611859262,
			"0.015": 0.0,
			"0.016": 0.0,
			"0.017": 0.0,
			"0.018": 0.0,
			"0.019": 0.0,
			"0.02": 0.0,
			"0.021": 0.0,
			"0.022": 0.0,
			"0.023": 0.0,
			"0.024": 0.0,
			"0.025": 0.0
		}
	}
}
