{
	 "smiles": "CS(=O)(=O)C1=C(Cl)C=CC=C1N", 
	 "Tm": 371.15, 
	 "num_atms": 20, 
	 "gaussian": { 
		 "optdone": 1, 
		 "sigma_profile": "yes", 
		 "theory": "DFT", 
		 "functional": "B3LYP", 
		 "basiset": "6-31G**", 
		 "properties": { 
			 "R2extent": 3000.7582, 
			 "electric_dipole_moment_norm": 4.57645966441, 
			 "electric_quadrupole_moment_norm": 13.3214569275, 
			 "total_energy": -1335.07843358, 
			 "HOMO_LUMO_gap": 0.17898, 
			 "cosmo_polarized_energy": -15.11, 
			 "cosmo_cavitation_energy": 25.86, 
			 "cosmo_dispersion_energy": -20.04, 
			 "cosmo_repulsion_energy": 1.53, 
			 "cosmo_total_nonelectrostatic_energy": 7.34, 
			 "SMD_solvation_energy": 3.95 
		},
		"coords": [
			{
				"x": -0.2554508447,
				"y": 0.3601924805,
				"z": -3.3589509427,
				"element": "C" 
			},
			{
				"x": -0.6039250484,
				"y": -0.6716136037,
				"z": -1.9188339638,
				"element": "S" 
			},
			{
				"x": 0.5949999284,
				"y": -1.5219234932,
				"z": -1.7377785985,
				"element": "O" 
			},
			{
				"x": -1.9014973253,
				"y": -1.3268705867,
				"z": -2.1030741212,
				"element": "O" 
			},
			{
				"x": -0.6888816894,
				"y": 0.4891237973,
				"z": -0.5274726284,
				"element": "C" 
			},
			{
				"x": -1.7758515182,
				"y": 1.3861592776,
				"z": -0.4086994497,
				"element": "C" 
			},
			{
				"x": -3.0275268443,
				"y": 1.5075692726,
				"z": -1.6399153027,
				"element": "Cl" 
			},
			{
				"x": -1.9150282409,
				"y": 2.2447157431,
				"z": 0.6722597906,
				"element": "C" 
			},
			{
				"x": -0.9472361687,
				"y": 2.2138700697,
				"z": 1.680815228,
				"element": "C" 
			},
			{
				"x": 0.1334524644,
				"y": 1.3603699193,
				"z": 1.5980834366,
				"element": "C" 
			},
			{
				"x": 0.3051556026,
				"y": 0.4804229696,
				"z": 0.5010907789,
				"element": "C" 
			},
			{
				"x": 1.4285783356,
				"y": -0.2970696385,
				"z": 0.4737752896,
				"element": "N" 
			},
			{
				"x": 0.6945743171,
				"y": 0.8710926009,
				"z": -3.1965682888,
				"element": "H" 
			},
			{
				"x": -1.0699782772,
				"y": 1.0661543548,
				"z": -3.5141571456,
				"element": "H" 
			},
			{
				"x": -0.1779474798,
				"y": -0.3295793387,
				"z": -4.2022120228,
				"element": "H" 
			},
			{
				"x": -2.7615133055,
				"y": 2.918103743,
				"z": 0.7203048863,
				"element": "H" 
			},
			{
				"x": -1.0464959025,
				"y": 2.8734495221,
				"z": 2.5378358473,
				"element": "H" 
			},
			{
				"x": 0.8855648969,
				"y": 1.3518481065,
				"z": 2.3820761717,
				"element": "H" 
			},
			{
				"x": 1.4725950296,
				"y": -1.0538070107,
				"z": -0.1975827921,
				"element": "H" 
			},
			{
				"x": 1.9452120703,
				"y": -0.3879081855,
				"z": 1.3334038271,
				"element": "H" 
			}
		],
		 "valence_orbital": [ 
			{
				"type": "occ",
				"energy": -0.31376,
				"method": "rhf"
			},
			{
				"type": "occ",
				"energy": -0.29272,
				"method": "rhf"
			},
			{
				"type": "occ",
				"energy": -0.29046,
				"method": "rhf"
			},
			{
				"type": "occ",
				"energy": -0.26741,
				"method": "rhf"
			},
			{
				"type": "occ",
				"energy": -0.21981,
				"method": "rhf"
			},
			{
				"type": "unocc",
				"energy": -0.04083,
				"method": "rhf"
			},
			{
				"type": "unocc",
				"energy": -0.00756,
				"method": "rhf"
			},
			{
				"type": "unocc",
				"energy": 0.01033,
				"method": "rhf"
			},
			{
				"type": "unocc",
				"energy": 0.0672,
				"method": "rhf"
			},
			{
				"type": "unocc",
				"energy": 0.0767,
				"method": "rhf"
			}
		],
		"cosmo_sigma_profile": { 
			"-0.025": 0.0,
			"-0.024": 0.0,
			"-0.023": 0.0,
			"-0.022": 0.0,
			"-0.021": 0.0,
			"-0.02": 0.0,
			"-0.019": 0.0,
			"-0.018": 0.0,
			"-0.017": 0.0,
			"-0.016": 0.0,
			"-0.015": 0.0,
			"-0.014": 0.708624069613,
			"-0.013": 1.44066802725,
			"-0.012": 1.88302185212,
			"-0.011": 0.995347007516,
			"-0.01": 1.51542670447,
			"-0.009": 4.06857113958,
			"-0.008": 6.82833036413,
			"-0.007": 11.0731126388,
			"-0.006": 11.8295739143,
			"-0.005": 12.782110539,
			"-0.004": 13.9542603745,
			"-0.003": 11.5902654304,
			"-0.002": 9.74151910059,
			"-0.001": 10.1484767816,
			"0.0": 11.4308462911,
			"0.001": 12.9457421803,
			"0.002": 18.400945364,
			"0.003": 17.5713582591,
			"0.004": 11.4227115992,
			"0.005": 3.09033672282,
			"0.006": 4.02595580912,
			"0.007": 2.93208476901,
			"0.008": 3.54729527892,
			"0.009": 5.06201909678,
			"0.01": 4.89937704618,
			"0.011": 9.35111296516,
			"0.012": 5.35305861586,
			"0.013": 0.0129758645894,
			"0.014": 0.0,
			"0.015": 0.0,
			"0.016": 0.0,
			"0.017": 0.0,
			"0.018": 0.0,
			"0.019": 0.0,
			"0.02": 0.0,
			"0.021": 0.0,
			"0.022": 0.0,
			"0.023": 0.0,
			"0.024": 0.0,
			"0.025": 0.0
		}
	}
}
