{
	 "smiles": "CC1=CC=C(C=C1)S(=O)(=O)OC1CCC2(C)C(CCC3C4CCC(=O)C4(C)CCC23)C1", 
	 "Tm": 438.15, 
	 "num_atms": 67, 
	 "gaussian": { 
		 "optdone": 1, 
		 "sigma_profile": "yes", 
		 "theory": "DFT", 
		 "functional": "B3LYP", 
		 "basiset": "6-31G**", 
		 "properties": { 
			 "R2extent": 22386.0013, 
			 "electric_dipole_moment_norm": 4.18600799928, 
			 "electric_quadrupole_moment_norm": 52.1926934617, 
			 "total_energy": -1711.49886989, 
			 "HOMO_LUMO_gap": 0.19157, 
			 "cosmo_polarized_energy": -19.14, 
			 "cosmo_cavitation_energy": 61.47, 
			 "cosmo_dispersion_energy": -42.12, 
			 "cosmo_repulsion_energy": 3.06, 
			 "cosmo_total_nonelectrostatic_energy": 22.41, 
			 "SMD_solvation_energy": 8.3 
		},
		"coords": [
			{
				"x": -3.1396732066,
				"y": 6.2007695183,
				"z": 5.1041303662,
				"element": "C" 
			},
			{
				"x": -1.9582809976,
				"y": 5.8120698309,
				"z": 4.2485937041,
				"element": "C" 
			},
			{
				"x": -0.8417878022,
				"y": 5.1796346595,
				"z": 4.8213671109,
				"element": "C" 
			},
			{
				"x": 0.2649608436,
				"y": 4.8363147782,
				"z": 4.0526359113,
				"element": "C" 
			},
			{
				"x": 0.2562235433,
				"y": 5.1238498028,
				"z": 2.6840751226,
				"element": "C" 
			},
			{
				"x": -0.8349452971,
				"y": 5.7548542892,
				"z": 2.0883725278,
				"element": "C" 
			},
			{
				"x": -1.9358963622,
				"y": 6.0925720674,
				"z": 2.8770195535,
				"element": "C" 
			},
			{
				"x": 1.6749068257,
				"y": 4.6823770713,
				"z": 1.6901224751,
				"element": "S" 
			},
			{
				"x": 2.8878287941,
				"y": 4.916412456,
				"z": 2.4612238142,
				"element": "O" 
			},
			{
				"x": 1.4888564237,
				"y": 5.2487527215,
				"z": 0.3529560105,
				"element": "O" 
			},
			{
				"x": 1.559521802,
				"y": 3.052427094,
				"z": 1.6122069401,
				"element": "O" 
			},
			{
				"x": 0.6705440945,
				"y": 2.4483884413,
				"z": 0.6099796781,
				"element": "C" 
			},
			{
				"x": 1.4701945256,
				"y": 2.1243381046,
				"z": -0.6458206202,
				"element": "C" 
			},
			{
				"x": 0.6385984095,
				"y": 1.3474432378,
				"z": -1.6966527415,
				"element": "C" 
			},
			{
				"x": -0.5233360132,
				"y": 0.4575992082,
				"z": -1.1315624721,
				"element": "C" 
			},
			{
				"x": -1.8139257759,
				"y": 1.309663099,
				"z": -1.1076946018,
				"element": "C" 
			},
			{
				"x": -0.1730982467,
				"y": -0.0001058352,
				"z": 0.3122802801,
				"element": "C" 
			},
			{
				"x": 1.0121346208,
				"y": -0.9843245603,
				"z": 0.3229821568,
				"element": "C" 
			},
			{
				"x": 0.7192978253,
				"y": -2.2049786788,
				"z": -0.5451817349,
				"element": "C" 
			},
			{
				"x": 0.3901682408,
				"y": -1.85197099,
				"z": -2.0093000221,
				"element": "C" 
			},
			{
				"x": -0.0578339817,
				"y": -3.1325025905,
				"z": -2.7453011543,
				"element": "C" 
			},
			{
				"x": 0.9919860366,
				"y": -4.1451892376,
				"z": -3.2455729231,
				"element": "C" 
			},
			{
				"x": 0.1470129706,
				"y": -5.1197368515,
				"z": -4.099368371,
				"element": "C" 
			},
			{
				"x": -1.1347225491,
				"y": -4.3466055055,
				"z": -4.4686962106,
				"element": "C" 
			},
			{
				"x": -2.089444634,
				"y": -4.81026044,
				"z": -5.0539670887,
				"element": "O" 
			},
			{
				"x": -0.9936654898,
				"y": -2.9061531287,
				"z": -3.9536270823,
				"element": "C" 
			},
			{
				"x": -0.341209438,
				"y": -2.1335804978,
				"z": -5.1320441796,
				"element": "C" 
			},
			{
				"x": -2.3030181124,
				"y": -2.236600746,
				"z": -3.4724058827,
				"element": "C" 
			},
			{
				"x": -2.1078917105,
				"y": -1.4442505545,
				"z": -2.1489630728,
				"element": "C" 
			},
			{
				"x": -0.7220613536,
				"y": -0.7520034317,
				"z": -2.1201690072,
				"element": "C" 
			},
			{
				"x": 0.0613175632,
				"y": 1.2004022812,
				"z": 1.2735195503,
				"element": "C" 
			},
			{
				"x": -3.4187430512,
				"y": 5.3936839299,
				"z": 5.7891409092,
				"element": "H" 
			},
			{
				"x": -2.906053829,
				"y": 7.0787156403,
				"z": 5.7184978344,
				"element": "H" 
			},
			{
				"x": -4.0129348565,
				"y": 6.4472728616,
				"z": 4.4945358985,
				"element": "H" 
			},
			{
				"x": -0.8404581281,
				"y": 4.9585334731,
				"z": 5.8855408912,
				"element": "H" 
			},
			{
				"x": 1.1304386373,
				"y": 4.3618014912,
				"z": 4.5025793603,
				"element": "H" 
			},
			{
				"x": -0.8098814387,
				"y": 5.9866788107,
				"z": 1.0293891204,
				"element": "H" 
			},
			{
				"x": -2.7880106999,
				"y": 6.5863867587,
				"z": 2.4178669191,
				"element": "H" 
			},
			{
				"x": -0.1058360199,
				"y": 3.1816938886,
				"z": 0.3751306487,
				"element": "H" 
			},
			{
				"x": 2.3426086633,
				"y": 1.5402163168,
				"z": -0.3349479985,
				"element": "H" 
			},
			{
				"x": 1.8538506095,
				"y": 3.0538062294,
				"z": -1.0744001973,
				"element": "H" 
			},
			{
				"x": 0.2003897452,
				"y": 2.0543399539,
				"z": -2.4112786593,
				"element": "H" 
			},
			{
				"x": 1.3322303854,
				"y": 0.733592139,
				"z": -2.2797330618,
				"element": "H" 
			},
			{
				"x": -1.655963681,
				"y": 2.2783004422,
				"z": -0.627398505,
				"element": "H" 
			},
			{
				"x": -2.1602918779,
				"y": 1.5155918381,
				"z": -2.1269417401,
				"element": "H" 
			},
			{
				"x": -2.6262098646,
				"y": 0.8106296431,
				"z": -0.5703696341,
				"element": "H" 
			},
			{
				"x": -1.0385068915,
				"y": -0.5564516894,
				"z": 0.7006661371,
				"element": "H" 
			},
			{
				"x": 1.9301426948,
				"y": -0.493806927,
				"z": -0.0206830807,
				"element": "H" 
			},
			{
				"x": 1.2064823275,
				"y": -1.3007843774,
				"z": 1.3555396411,
				"element": "H" 
			},
			{
				"x": 1.5648067964,
				"y": -2.9034257755,
				"z": -0.5196641413,
				"element": "H" 
			},
			{
				"x": -0.1340061843,
				"y": -2.7453010211,
				"z": -0.1098745834,
				"element": "H" 
			},
			{
				"x": 1.3069657872,
				"y": -1.4685396032,
				"z": -2.4789295199,
				"element": "H" 
			},
			{
				"x": -0.6775553288,
				"y": -3.6917279122,
				"z": -2.0254424199,
				"element": "H" 
			},
			{
				"x": 1.7553193512,
				"y": -3.6469017589,
				"z": -3.8537906812,
				"element": "H" 
			},
			{
				"x": 1.5132555162,
				"y": -4.6513068792,
				"z": -2.4278640729,
				"element": "H" 
			},
			{
				"x": -0.1542512476,
				"y": -6.0091935038,
				"z": -3.5339299958,
				"element": "H" 
			},
			{
				"x": 0.6467546335,
				"y": -5.4825296314,
				"z": -5.0033223719,
				"element": "H" 
			},
			{
				"x": -0.0653711362,
				"y": -1.1143516945,
				"z": -4.8514968281,
				"element": "H" 
			},
			{
				"x": -1.0532641706,
				"y": -2.0757544799,
				"z": -5.9612868712,
				"element": "H" 
			},
			{
				"x": 0.5611943517,
				"y": -2.62633478,
				"z": -5.508001359,
				"element": "H" 
			},
			{
				"x": -3.0824415179,
				"y": -2.9962131296,
				"z": -3.3452574383,
				"element": "H" 
			},
			{
				"x": -2.6714500091,
				"y": -1.5542795032,
				"z": -4.2467906323,
				"element": "H" 
			},
			{
				"x": -2.9196669631,
				"y": -0.7188275199,
				"z": -2.0676374897,
				"element": "H" 
			},
			{
				"x": -2.2162887095,
				"y": -2.1134741522,
				"z": -1.2859993522,
				"element": "H" 
			},
			{
				"x": -0.6200361781,
				"y": -0.286605111,
				"z": -3.109279207,
				"element": "H" 
			},
			{
				"x": 0.7457898433,
				"y": 0.8859034936,
				"z": 2.0684582481,
				"element": "H" 
			},
			{
				"x": -0.8730691078,
				"y": 1.4835569264,
				"z": 1.7688361967,
				"element": "H" 
			}
		],
		 "valence_orbital": [ 
			{
				"type": "occ",
				"energy": -0.28427,
				"method": "rhf"
			},
			{
				"type": "occ",
				"energy": -0.28277,
				"method": "rhf"
			},
			{
				"type": "occ",
				"energy": -0.27224,
				"method": "rhf"
			},
			{
				"type": "occ",
				"energy": -0.26227,
				"method": "rhf"
			},
			{
				"type": "occ",
				"energy": -0.2312,
				"method": "rhf"
			},
			{
				"type": "unocc",
				"energy": -0.03963,
				"method": "rhf"
			},
			{
				"type": "unocc",
				"energy": -0.02341,
				"method": "rhf"
			},
			{
				"type": "unocc",
				"energy": -0.01218,
				"method": "rhf"
			},
			{
				"type": "unocc",
				"energy": 0.04914,
				"method": "rhf"
			},
			{
				"type": "unocc",
				"energy": 0.06037,
				"method": "rhf"
			}
		],
		"cosmo_sigma_profile": { 
			"-0.025": 0.0,
			"-0.024": 0.0,
			"-0.023": 0.0,
			"-0.022": 0.0,
			"-0.021": 0.0,
			"-0.02": 0.0,
			"-0.019": 0.0,
			"-0.018": 0.0,
			"-0.017": 0.0,
			"-0.016": 0.0,
			"-0.015": 0.0,
			"-0.014": 0.0,
			"-0.013": 0.0,
			"-0.012": 0.0,
			"-0.011": 0.0,
			"-0.01": 0.0,
			"-0.009": 0.0,
			"-0.008": 0.268520356818,
			"-0.007": 3.79009977297,
			"-0.006": 10.6677013471,
			"-0.005": 21.4600743838,
			"-0.004": 30.4972710938,
			"-0.003": 49.765795792,
			"-0.002": 81.8426953289,
			"-0.001": 75.8471854489,
			"0.0": 57.6140613254,
			"0.001": 38.5539802232,
			"0.002": 23.0934838249,
			"0.003": 16.5435443459,
			"0.004": 6.98142913838,
			"0.005": 5.38411337223,
			"0.006": 5.95450312766,
			"0.007": 4.66493117172,
			"0.008": 6.28936600626,
			"0.009": 8.44337897038,
			"0.01": 12.3971561812,
			"0.011": 8.7041792551,
			"0.012": 4.94508162234,
			"0.013": 3.17435099469,
			"0.014": 0.407816419434,
			"0.015": 0.0,
			"0.016": 0.0,
			"0.017": 0.0,
			"0.018": 0.0,
			"0.019": 0.0,
			"0.02": 0.0,
			"0.021": 0.0,
			"0.022": 0.0,
			"0.023": 0.0,
			"0.024": 0.0,
			"0.025": 0.0
		}
	}
}
