{
	 "smiles": "COC1=CC(NC2=NC3=C(S2)C=CC=C3)=CC=C1", 
	 "Tm": 391.15, 
	 "num_atms": 30, 
	 "gaussian": { 
		 "optdone": 1, 
		 "sigma_profile": "yes", 
		 "theory": "DFT", 
		 "functional": "B3LYP", 
		 "basiset": "6-31G**", 
		 "properties": { 
			 "R2extent": 6458.7136, 
			 "electric_dipole_moment_norm": 1.00576974005, 
			 "electric_quadrupole_moment_norm": 11.2064561972, 
			 "total_energy": -1123.63717672, 
			 "HOMO_LUMO_gap": 0.17168, 
			 "cosmo_polarized_energy": -11.2, 
			 "cosmo_cavitation_energy": 35.6, 
			 "cosmo_dispersion_energy": -26.55, 
			 "cosmo_repulsion_energy": 1.98, 
			 "cosmo_total_nonelectrostatic_energy": 11.03, 
			 "SMD_solvation_energy": 4.52 
		},
		"coords": [
			{
				"x": -3.0489106162,
				"y": 3.0767531649,
				"z": 0.6169286983,
				"element": "C" 
			},
			{
				"x": -2.9002760072,
				"y": 3.2343770068,
				"z": -0.7862431235,
				"element": "O" 
			},
			{
				"x": -1.968860687,
				"y": 2.478566392,
				"z": -1.4325019258,
				"element": "C" 
			},
			{
				"x": -1.1197894505,
				"y": 1.5712286962,
				"z": -0.7885096707,
				"element": "C" 
			},
			{
				"x": -0.196809779,
				"y": 0.8315010426,
				"z": -1.5461620073,
				"element": "C" 
			},
			{
				"x": 0.6886026339,
				"y": -0.087253801,
				"z": -0.955083934,
				"element": "N" 
			},
			{
				"x": 0.5769182172,
				"y": -0.8608147139,
				"z": 0.1685759346,
				"element": "C" 
			},
			{
				"x": 1.5736173463,
				"y": -1.5880954779,
				"z": 0.5804003867,
				"element": "N" 
			},
			{
				"x": 1.2150271152,
				"y": -2.3442111975,
				"z": 1.6823150465,
				"element": "C" 
			},
			{
				"x": -0.1156756778,
				"y": -2.1791300056,
				"z": 2.1359893996,
				"element": "C" 
			},
			{
				"x": -0.9442615208,
				"y": -1.018887643,
				"z": 1.0999044201,
				"element": "S" 
			},
			{
				"x": -0.6076564327,
				"y": -2.864797986,
				"z": 3.2448873589,
				"element": "C" 
			},
			{
				"x": 0.2506413379,
				"y": -3.7423325312,
				"z": 3.9086511188,
				"element": "C" 
			},
			{
				"x": 1.571111173,
				"y": -3.9216591151,
				"z": 3.4691049972,
				"element": "C" 
			},
			{
				"x": 2.0602808158,
				"y": -3.2312891996,
				"z": 2.363844966,
				"element": "C" 
			},
			{
				"x": -0.1043740868,
				"y": 1.0301318783,
				"z": -2.9299307047,
				"element": "C" 
			},
			{
				"x": -0.9444754306,
				"y": 1.9558438652,
				"z": -3.5488136419,
				"element": "C" 
			},
			{
				"x": -1.8828131837,
				"y": 2.6753708802,
				"z": -2.8183863344,
				"element": "C" 
			},
			{
				"x": -2.1360091345,
				"y": 3.3612328794,
				"z": 1.155740876,
				"element": "H" 
			},
			{
				"x": -3.3157018286,
				"y": 2.0460074945,
				"z": 0.882402692,
				"element": "H" 
			},
			{
				"x": -3.8596469599,
				"y": 3.7454862324,
				"z": 0.9097147598,
				"element": "H" 
			},
			{
				"x": -1.1423035561,
				"y": 1.46478994,
				"z": 0.2867061405,
				"element": "H" 
			},
			{
				"x": 1.5407141047,
				"y": -0.2856512209,
				"z": -1.4629880274,
				"element": "H" 
			},
			{
				"x": -1.6296419976,
				"y": -2.7262835021,
				"z": 3.5836656132,
				"element": "H" 
			},
			{
				"x": -0.1105270382,
				"y": -4.2904710392,
				"z": 4.7734833326,
				"element": "H" 
			},
			{
				"x": 2.2220980896,
				"y": -4.6098370707,
				"z": 4.0003038045,
				"element": "H" 
			},
			{
				"x": 3.080021191,
				"y": -3.3626192597,
				"z": 2.0171598503,
				"element": "H" 
			},
			{
				"x": 0.6074418117,
				"y": 0.4530898993,
				"z": -3.5128420067,
				"element": "H" 
			},
			{
				"x": -0.8714234826,
				"y": 2.1068383954,
				"z": -4.6218099597,
				"element": "H" 
			},
			{
				"x": -2.5498169668,
				"y": 3.3896159961,
				"z": -3.2879080594,
				"element": "H" 
			}
		],
		 "valence_orbital": [ 
			{
				"type": "occ",
				"energy": -0.27667,
				"method": "rhf"
			},
			{
				"type": "occ",
				"energy": -0.25163,
				"method": "rhf"
			},
			{
				"type": "occ",
				"energy": -0.23114,
				"method": "rhf"
			},
			{
				"type": "occ",
				"energy": -0.2285,
				"method": "rhf"
			},
			{
				"type": "occ",
				"energy": -0.19858,
				"method": "rhf"
			},
			{
				"type": "unocc",
				"energy": -0.0269,
				"method": "rhf"
			},
			{
				"type": "unocc",
				"energy": -0.00255,
				"method": "rhf"
			},
			{
				"type": "unocc",
				"energy": -0.00086,
				"method": "rhf"
			},
			{
				"type": "unocc",
				"energy": 0.0097,
				"method": "rhf"
			},
			{
				"type": "unocc",
				"energy": 0.01892,
				"method": "rhf"
			}
		],
		"cosmo_sigma_profile": { 
			"-0.025": 0.0,
			"-0.024": 0.0,
			"-0.023": 0.0,
			"-0.022": 0.0,
			"-0.021": 0.0,
			"-0.02": 0.0,
			"-0.019": 0.0,
			"-0.018": 0.0,
			"-0.017": 0.0,
			"-0.016": 0.0,
			"-0.015": 0.590386392441,
			"-0.014": 1.01805273491,
			"-0.013": 1.05816222067,
			"-0.012": 1.21693828502,
			"-0.011": 1.32160710647,
			"-0.01": 0.784838839101,
			"-0.009": 0.738918542495,
			"-0.008": 1.22513940406,
			"-0.007": 4.11197319089,
			"-0.006": 14.8804949033,
			"-0.005": 23.4095598435,
			"-0.004": 25.6079868657,
			"-0.003": 24.3837420078,
			"-0.002": 15.6474453733,
			"-0.001": 14.4575611084,
			"0.0": 20.3524786531,
			"0.001": 19.4357532743,
			"0.002": 21.8852099076,
			"0.003": 24.2642605259,
			"0.004": 26.2916621396,
			"0.005": 22.1038816784,
			"0.006": 8.01854710556,
			"0.007": 3.20813365431,
			"0.008": 2.03662921569,
			"0.009": 2.52408269946,
			"0.01": 3.12241700227,
			"0.011": 0.992674969421,
			"0.012": 0.760543031472,
			"0.013": 0.98322676607,
			"0.014": 0.814411020181,
			"0.015": 0.337170641572,
			"0.016": 0.0,
			"0.017": 0.0,
			"0.018": 0.0,
			"0.019": 0.0,
			"0.02": 0.0,
			"0.021": 0.0,
			"0.022": 0.0,
			"0.023": 0.0,
			"0.024": 0.0,
			"0.025": 0.0
		}
	}
}
