{
	 "smiles": "NC1=CC2=C(SC=C2)C=C1", 
	 "Tm": 346.65, 
	 "num_atms": 17, 
	 "gaussian": { 
		 "optdone": 1, 
		 "sigma_profile": "yes", 
		 "theory": "DFT", 
		 "functional": "B3LYP", 
		 "basiset": "6-31G**", 
		 "properties": { 
			 "R2extent": 1767.1473, 
			 "electric_dipole_moment_norm": 2.18181569799, 
			 "electric_quadrupole_moment_norm": 10.3008593928, 
			 "total_energy": -762.00982846, 
			 "HOMO_LUMO_gap": 0.17376, 
			 "cosmo_polarized_energy": -9.27, 
			 "cosmo_cavitation_energy": 22.2, 
			 "cosmo_dispersion_energy": -17.41, 
			 "cosmo_repulsion_energy": 1.34, 
			 "cosmo_total_nonelectrostatic_energy": 6.13, 
			 "SMD_solvation_energy": 3.44 
		},
		"coords": [
			{
				"x": -0.1696699929,
				"y": 1.9465235887,
				"z": -2.9758945972,
				"element": "N" 
			},
			{
				"x": -0.1849449921,
				"y": 0.9567046778,
				"z": -1.9851827899,
				"element": "C" 
			},
			{
				"x": 0.7998859534,
				"y": 0.9143296405,
				"z": -0.9962670476,
				"element": "C" 
			},
			{
				"x": 0.8026542756,
				"y": -0.1229573699,
				"z": -0.0481429617,
				"element": "C" 
			},
			{
				"x": -0.2028134743,
				"y": -1.1185180052,
				"z": -0.102892779,
				"element": "C" 
			},
			{
				"x": -0.0000490186,
				"y": -2.3030057129,
				"z": 1.1819942884,
				"element": "S" 
			},
			{
				"x": 1.4146525952,
				"y": -1.4574349555,
				"z": 1.7691234137,
				"element": "C" 
			},
			{
				"x": 1.7174364341,
				"y": -0.3496933036,
				"z": 1.0432586541,
				"element": "C" 
			},
			{
				"x": -1.1928723685,
				"y": -1.0819327215,
				"z": -1.0890604695,
				"element": "C" 
			},
			{
				"x": -1.1780154858,
				"y": -0.0523503095,
				"z": -2.0189643984,
				"element": "C" 
			},
			{
				"x": -1.0730475804,
				"y": 2.1524071855,
				"z": -3.3806260985,
				"element": "H" 
			},
			{
				"x": 0.3183372888,
				"y": 2.7935497733,
				"z": -2.7176048963,
				"element": "H" 
			},
			{
				"x": 1.5694829887,
				"y": 1.681818071,
				"z": -0.9616215792,
				"element": "H" 
			},
			{
				"x": 1.9401570961,
				"y": -1.8458420627,
				"z": 2.6312457317,
				"element": "H" 
			},
			{
				"x": 2.5609255299,
				"y": 0.2957758686,
				"z": 1.2621946048,
				"element": "H" 
			},
			{
				"x": -1.9660070242,
				"y": -1.8430572867,
				"z": -1.133767988,
				"element": "H" 
			},
			{
				"x": -1.9384122251,
				"y": -0.019217078,
				"z": -2.7950910873,
				"element": "H" 
			}
		],
		 "valence_orbital": [ 
			{
				"type": "occ",
				"energy": -0.32929,
				"method": "rhf"
			},
			{
				"type": "occ",
				"energy": -0.28876,
				"method": "rhf"
			},
			{
				"type": "occ",
				"energy": -0.26854,
				"method": "rhf"
			},
			{
				"type": "occ",
				"energy": -0.21434,
				"method": "rhf"
			},
			{
				"type": "occ",
				"energy": -0.19327,
				"method": "rhf"
			},
			{
				"type": "unocc",
				"energy": -0.01951,
				"method": "rhf"
			},
			{
				"type": "unocc",
				"energy": 0.01676,
				"method": "rhf"
			},
			{
				"type": "unocc",
				"energy": 0.02944,
				"method": "rhf"
			},
			{
				"type": "unocc",
				"energy": 0.0578,
				"method": "rhf"
			},
			{
				"type": "unocc",
				"energy": 0.08264,
				"method": "rhf"
			}
		],
		"cosmo_sigma_profile": { 
			"-0.025": 0.0,
			"-0.024": 0.0,
			"-0.023": 0.0,
			"-0.022": 0.0,
			"-0.021": 0.0,
			"-0.02": 0.0,
			"-0.019": 0.0,
			"-0.018": 0.0,
			"-0.017": 0.0,
			"-0.016": 0.0,
			"-0.015": 0.0,
			"-0.014": 0.0,
			"-0.013": 0.0343055352795,
			"-0.012": 2.07137850869,
			"-0.011": 2.53138866793,
			"-0.01": 3.18162735439,
			"-0.009": 3.79469968563,
			"-0.008": 4.6385130626,
			"-0.007": 6.4738748503,
			"-0.006": 10.6034695375,
			"-0.005": 11.2479333185,
			"-0.004": 10.6372118821,
			"-0.003": 9.10305046111,
			"-0.002": 8.18368292401,
			"-0.001": 6.86999457141,
			"0.0": 8.72413895473,
			"0.001": 8.08102751818,
			"0.002": 9.92526833877,
			"0.003": 11.449190744,
			"0.004": 17.9359888321,
			"0.005": 21.1105319028,
			"0.006": 15.495788733,
			"0.007": 2.06348527727,
			"0.008": 0.973067336613,
			"0.009": 0.597470777018,
			"0.01": 0.739835845597,
			"0.011": 0.903034196659,
			"0.012": 0.368239973409,
			"0.013": 0.781989834379,
			"0.014": 0.838804190003,
			"0.015": 0.420446998353,
			"0.016": 0.0361433196472,
			"0.017": 0.0,
			"0.018": 0.0,
			"0.019": 0.0,
			"0.02": 0.0,
			"0.021": 0.0,
			"0.022": 0.0,
			"0.023": 0.0,
			"0.024": 0.0,
			"0.025": 0.0
		}
	}
}
