{
	 "smiles": "CCN(CC)C(=O)C1=CC(N)=CC=C1", 
	 "Tm": 355.15, 
	 "num_atms": 30, 
	 "gaussian": { 
		 "optdone": 1, 
		 "sigma_profile": "yes", 
		 "theory": "DFT", 
		 "functional": "B3LYP", 
		 "basiset": "6-31G**", 
		 "properties": { 
			 "R2extent": 3553.8377, 
			 "electric_dipole_moment_norm": 5.05144891788, 
			 "electric_quadrupole_moment_norm": 13.2443220672, 
			 "total_energy": -613.562272598, 
			 "HOMO_LUMO_gap": 0.19053, 
			 "cosmo_polarized_energy": -15.89, 
			 "cosmo_cavitation_energy": 32.68, 
			 "cosmo_dispersion_energy": -22.49, 
			 "cosmo_repulsion_energy": 1.81, 
			 "cosmo_total_nonelectrostatic_energy": 12.01, 
			 "SMD_solvation_energy": 5.99 
		},
		"coords": [
			{
				"x": 1.0131222551,
				"y": 1.9314938744,
				"z": -0.9254697174,
				"element": "C" 
			},
			{
				"x": 0.7743680839,
				"y": 0.4451999705,
				"z": -1.2180544855,
				"element": "C" 
			},
			{
				"x": -0.6001683935,
				"y": 0.010973723,
				"z": -0.9478895923,
				"element": "N" 
			},
			{
				"x": -1.6310364322,
				"y": 0.384394111,
				"z": -1.9293180136,
				"element": "C" 
			},
			{
				"x": -2.1556616491,
				"y": -0.8233135926,
				"z": -2.7093085083,
				"element": "C" 
			},
			{
				"x": -1.0502013684,
				"y": -0.4307075179,
				"z": 0.2763061085,
				"element": "C" 
			},
			{
				"x": -2.250880877,
				"y": -0.4792614748,
				"z": 0.5407623933,
				"element": "O" 
			},
			{
				"x": -0.0434281818,
				"y": -0.8936068613,
				"z": 1.3008176871,
				"element": "C" 
			},
			{
				"x": 0.8567699287,
				"y": -1.9279986011,
				"z": 1.0254406629,
				"element": "C" 
			},
			{
				"x": 1.7170863498,
				"y": -2.4183832184,
				"z": 2.0224041454,
				"element": "C" 
			},
			{
				"x": 2.5594128511,
				"y": -3.5010402365,
				"z": 1.7643859027,
				"element": "N" 
			},
			{
				"x": 1.6678946337,
				"y": -1.8349559716,
				"z": 3.3003529457,
				"element": "C" 
			},
			{
				"x": 0.7632679899,
				"y": -0.8110604101,
				"z": 3.5715489993,
				"element": "C" 
			},
			{
				"x": -0.1051252086,
				"y": -0.3421894878,
				"z": 2.5862948301,
				"element": "C" 
			},
			{
				"x": 0.337672852,
				"y": 2.5717323006,
				"z": -1.5017443949,
				"element": "H" 
			},
			{
				"x": 2.0410756244,
				"y": 2.2095885139,
				"z": -1.1823372066,
				"element": "H" 
			},
			{
				"x": 0.8569520272,
				"y": 2.1417920562,
				"z": 0.1370087413,
				"element": "H" 
			},
			{
				"x": 1.4596807412,
				"y": -0.155980279,
				"z": -0.6213754983,
				"element": "H" 
			},
			{
				"x": 0.9926631653,
				"y": 0.2258828682,
				"z": -2.269986992,
				"element": "H" 
			},
			{
				"x": -1.1914556225,
				"y": 1.1178008358,
				"z": -2.612073433,
				"element": "H" 
			},
			{
				"x": -2.4556538232,
				"y": 0.8673088257,
				"z": -1.3985861296,
				"element": "H" 
			},
			{
				"x": -2.6217369368,
				"y": -1.5362608779,
				"z": -2.0248711537,
				"element": "H" 
			},
			{
				"x": -2.9077900091,
				"y": -0.5081167792,
				"z": -3.440654772,
				"element": "H" 
			},
			{
				"x": -1.3480081586,
				"y": -1.3309816064,
				"z": -3.2473928397,
				"element": "H" 
			},
			{
				"x": 0.8732457974,
				"y": -2.3804478815,
				"z": 0.0365699278,
				"element": "H" 
			},
			{
				"x": 3.3625428304,
				"y": -3.5786334895,
				"z": 2.3726326049,
				"element": "H" 
			},
			{
				"x": 2.8033413771,
				"y": -3.6401370893,
				"z": 0.7937735093,
				"element": "H" 
			},
			{
				"x": 2.3302788473,
				"y": -2.2004724824,
				"z": 4.0813364136,
				"element": "H" 
			},
			{
				"x": 0.7329532589,
				"y": -0.3793129504,
				"z": 4.5681198027,
				"element": "H" 
			},
			{
				"x": -0.8334819528,
				"y": 0.4314937285,
				"z": 2.8029080624,
				"element": "H" 
			}
		],
		 "valence_orbital": [ 
			{
				"type": "occ",
				"energy": -0.307,
				"method": "rhf"
			},
			{
				"type": "occ",
				"energy": -0.25302,
				"method": "rhf"
			},
			{
				"type": "occ",
				"energy": -0.23318,
				"method": "rhf"
			},
			{
				"type": "occ",
				"energy": -0.23042,
				"method": "rhf"
			},
			{
				"type": "occ",
				"energy": -0.20347,
				"method": "rhf"
			},
			{
				"type": "unocc",
				"energy": -0.01294,
				"method": "rhf"
			},
			{
				"type": "unocc",
				"energy": 0.01301,
				"method": "rhf"
			},
			{
				"type": "unocc",
				"energy": 0.04957,
				"method": "rhf"
			},
			{
				"type": "unocc",
				"energy": 0.07778,
				"method": "rhf"
			},
			{
				"type": "unocc",
				"energy": 0.08796,
				"method": "rhf"
			}
		],
		"cosmo_sigma_profile": { 
			"-0.025": 0.0,
			"-0.024": 0.0,
			"-0.023": 0.0,
			"-0.022": 0.0,
			"-0.021": 0.0,
			"-0.02": 0.0,
			"-0.019": 0.0,
			"-0.018": 0.0,
			"-0.017": 0.0,
			"-0.016": 0.0,
			"-0.015": 0.0,
			"-0.014": 0.0,
			"-0.013": 0.425157575287,
			"-0.012": 2.56614613561,
			"-0.011": 2.98012618626,
			"-0.01": 2.59944559112,
			"-0.009": 3.71437050023,
			"-0.008": 2.564002686,
			"-0.007": 3.60082245828,
			"-0.006": 5.49497965399,
			"-0.005": 12.0435529582,
			"-0.004": 17.2997496891,
			"-0.003": 27.9894854122,
			"-0.002": 30.0071241861,
			"-0.001": 26.6290169821,
			"0.0": 23.776461417,
			"0.001": 21.2456190377,
			"0.002": 10.3831796407,
			"0.003": 8.47452807947,
			"0.004": 7.68247533875,
			"0.005": 10.4014093555,
			"0.006": 9.48510070161,
			"0.007": 4.09721407369,
			"0.008": 2.7997923939,
			"0.009": 2.51856981665,
			"0.01": 2.25611948779,
			"0.011": 2.58170195914,
			"0.012": 2.81951425331,
			"0.013": 2.62417139487,
			"0.014": 5.00884903972,
			"0.015": 2.1327187444,
			"0.016": 0.187257874286,
			"0.017": 0.0,
			"0.018": 0.0,
			"0.019": 0.0,
			"0.02": 0.0,
			"0.021": 0.0,
			"0.022": 0.0,
			"0.023": 0.0,
			"0.024": 0.0,
			"0.025": 0.0
		}
	}
}
