{
	 "smiles": "CCOC(=O)C(=CN(O)C1=CC=CC=C1)C1=CC=CC=C1", 
	 "Tm": 348.15, 
	 "num_atms": 38, 
	 "gaussian": { 
		 "optdone": 1, 
		 "sigma_profile": "yes", 
		 "theory": "DFT", 
		 "functional": "B3LYP", 
		 "basiset": "6-31G**", 
		 "properties": { 
			 "R2extent": 6876.252, 
			 "electric_dipole_moment_norm": 2.98019739615, 
			 "electric_quadrupole_moment_norm": 11.2909347828, 
			 "total_energy": -938.410146147, 
			 "HOMO_LUMO_gap": 0.14831, 
			 "cosmo_polarized_energy": -15.19, 
			 "cosmo_cavitation_energy": 41.81, 
			 "cosmo_dispersion_energy": -28.28, 
			 "cosmo_repulsion_energy": 2.2, 
			 "cosmo_total_nonelectrostatic_energy": 15.73, 
			 "SMD_solvation_energy": 8.83 
		},
		"coords": [
			{
				"x": -0.3209954398,
				"y": -1.775034616,
				"z": -4.227870197,
				"element": "C" 
			},
			{
				"x": -1.0983532607,
				"y": -1.8110320803,
				"z": -2.9202400954,
				"element": "C" 
			},
			{
				"x": -0.3527725439,
				"y": -1.1933031305,
				"z": -1.8467112686,
				"element": "O" 
			},
			{
				"x": -0.4830226951,
				"y": 0.1482382499,
				"z": -1.7109372093,
				"element": "C" 
			},
			{
				"x": -1.1358163427,
				"y": 0.8304776741,
				"z": -2.4818822126,
				"element": "O" 
			},
			{
				"x": 0.2870501586,
				"y": 0.6829793878,
				"z": -0.5582317134,
				"element": "C" 
			},
			{
				"x": 0.8091370579,
				"y": -0.0733118947,
				"z": 0.4545201844,
				"element": "C" 
			},
			{
				"x": 0.6313372075,
				"y": -1.4020899647,
				"z": 0.7764125987,
				"element": "N" 
			},
			{
				"x": 1.6706889618,
				"y": -1.8690973061,
				"z": 1.6194139754,
				"element": "O" 
			},
			{
				"x": -0.5690729009,
				"y": -2.1384541281,
				"z": 0.9193056272,
				"element": "C" 
			},
			{
				"x": -1.8235195797,
				"y": -1.5209727987,
				"z": 0.8077461933,
				"element": "C" 
			},
			{
				"x": -2.9841326495,
				"y": -2.2765414073,
				"z": 0.9570612036,
				"element": "C" 
			},
			{
				"x": -2.917999769,
				"y": -3.6451083864,
				"z": 1.2269223139,
				"element": "C" 
			},
			{
				"x": -1.6675598989,
				"y": -4.2527237317,
				"z": 1.3504862028,
				"element": "C" 
			},
			{
				"x": -0.4978418171,
				"y": -3.5115173868,
				"z": 1.1964465622,
				"element": "C" 
			},
			{
				"x": 0.5497937673,
				"y": 2.146226366,
				"z": -0.5251815829,
				"element": "C" 
			},
			{
				"x": 0.83804776,
				"y": 2.8711162394,
				"z": -1.69729934,
				"element": "C" 
			},
			{
				"x": 1.1478887895,
				"y": 4.2272282366,
				"z": -1.6395081403,
				"element": "C" 
			},
			{
				"x": 1.1764483749,
				"y": 4.898490163,
				"z": -0.4141016038,
				"element": "C" 
			},
			{
				"x": 0.8786679129,
				"y": 4.198973567,
				"z": 0.7546785908,
				"element": "C" 
			},
			{
				"x": 0.5593730221,
				"y": 2.8419193531,
				"z": 0.6972741655,
				"element": "C" 
			},
			{
				"x": -0.8703186406,
				"y": -2.3208182894,
				"z": -5.0025065935,
				"element": "H" 
			},
			{
				"x": 0.6615797135,
				"y": -2.2421836623,
				"z": -4.1109557716,
				"element": "H" 
			},
			{
				"x": -0.1861054519,
				"y": -0.744391242,
				"z": -4.5643218653,
				"element": "H" 
			},
			{
				"x": -1.263931672,
				"y": -2.8355749963,
				"z": -2.578798054,
				"element": "H" 
			},
			{
				"x": -2.0597077427,
				"y": -1.3023425155,
				"z": -3.0219195581,
				"element": "H" 
			},
			{
				"x": 1.5120516179,
				"y": 0.4047934757,
				"z": 1.1330990548,
				"element": "H" 
			},
			{
				"x": 2.3434778114,
				"y": -2.1947605929,
				"z": 1.0011318966,
				"element": "H" 
			},
			{
				"x": -1.8913702741,
				"y": -0.4571802935,
				"z": 0.6140049091,
				"element": "H" 
			},
			{
				"x": -3.9482222804,
				"y": -1.7837060683,
				"z": 0.8700879146,
				"element": "H" 
			},
			{
				"x": -3.8268984853,
				"y": -4.2272255537,
				"z": 1.3430477124,
				"element": "H" 
			},
			{
				"x": -1.595956657,
				"y": -5.3145612988,
				"z": 1.5682873663,
				"element": "H" 
			},
			{
				"x": 0.4696663464,
				"y": -3.9846608176,
				"z": 1.308458351,
				"element": "H" 
			},
			{
				"x": 0.8146764869,
				"y": 2.3671139647,
				"z": -2.6560015976,
				"element": "H" 
			},
			{
				"x": 1.3716960951,
				"y": 4.7631438482,
				"z": -2.5577629567,
				"element": "H" 
			},
			{
				"x": 1.4156734225,
				"y": 5.9572985685,
				"z": -0.3743480451,
				"element": "H" 
			},
			{
				"x": 0.8758213042,
				"y": 4.7107982237,
				"z": 1.7130533681,
				"element": "H" 
			},
			{
				"x": 0.286422291,
				"y": 2.3190948434,
				"z": 1.6093396144,
				"element": "H" 
			}
		],
		 "valence_orbital": [ 
			{
				"type": "occ",
				"energy": -0.26513,
				"method": "rhf"
			},
			{
				"type": "occ",
				"energy": -0.25286,
				"method": "rhf"
			},
			{
				"type": "occ",
				"energy": -0.24234,
				"method": "rhf"
			},
			{
				"type": "occ",
				"energy": -0.23998,
				"method": "rhf"
			},
			{
				"type": "occ",
				"energy": -0.19673,
				"method": "rhf"
			},
			{
				"type": "unocc",
				"energy": -0.04842,
				"method": "rhf"
			},
			{
				"type": "unocc",
				"energy": -0.00365,
				"method": "rhf"
			},
			{
				"type": "unocc",
				"energy": 0.0031,
				"method": "rhf"
			},
			{
				"type": "unocc",
				"energy": 0.00678,
				"method": "rhf"
			},
			{
				"type": "unocc",
				"energy": 0.01156,
				"method": "rhf"
			}
		],
		"cosmo_sigma_profile": { 
			"-0.025": 0.0,
			"-0.024": 0.0,
			"-0.023": 0.0,
			"-0.022": 0.0,
			"-0.021": 0.0,
			"-0.02": 0.0,
			"-0.019": 0.0,
			"-0.018": 0.605324892898,
			"-0.017": 1.4569024893,
			"-0.016": 0.887465039127,
			"-0.015": 0.731391899694,
			"-0.014": 0.855303995168,
			"-0.013": 0.901335724369,
			"-0.012": 1.33801243974,
			"-0.011": 0.759038509415,
			"-0.01": 0.707187528232,
			"-0.009": 0.990861376456,
			"-0.008": 0.841614845494,
			"-0.007": 1.58539239749,
			"-0.006": 11.6275542198,
			"-0.005": 24.978882845,
			"-0.004": 30.817518153,
			"-0.003": 35.3828938789,
			"-0.002": 24.7134663447,
			"-0.001": 26.147657203,
			"0.0": 24.8436361095,
			"0.001": 20.5660918067,
			"0.002": 18.8482013267,
			"0.003": 18.8286045355,
			"0.004": 22.5541926236,
			"0.005": 21.6720782031,
			"0.006": 14.3419156569,
			"0.007": 5.49090989497,
			"0.008": 4.68480085875,
			"0.009": 3.50504253777,
			"0.01": 3.50734290556,
			"0.011": 2.36641970161,
			"0.012": 3.55440417315,
			"0.013": 2.45246504591,
			"0.014": 0.0617894933702,
			"0.015": 0.0,
			"0.016": 0.0,
			"0.017": 0.0,
			"0.018": 0.0,
			"0.019": 0.0,
			"0.02": 0.0,
			"0.021": 0.0,
			"0.022": 0.0,
			"0.023": 0.0,
			"0.024": 0.0,
			"0.025": 0.0
		}
	}
}
