{
	 "smiles": "NC1=CC(Cl)=C(OCC2=NC=CC=C2)C=C1", 
	 "Tm": 365.15, 
	 "num_atms": 27, 
	 "gaussian": { 
		 "optdone": 1, 
		 "sigma_profile": "yes", 
		 "theory": "DFT", 
		 "functional": "B3LYP", 
		 "basiset": "6-31G**", 
		 "properties": { 
			 "R2extent": 5876.2964, 
			 "electric_dipole_moment_norm": 1.82556870317, 
			 "electric_quadrupole_moment_norm": 22.2306728895, 
			 "total_energy": -1108.81182004, 
			 "HOMO_LUMO_gap": 0.17109, 
			 "cosmo_polarized_energy": -13.37, 
			 "cosmo_cavitation_energy": 33.38, 
			 "cosmo_dispersion_energy": -24.42, 
			 "cosmo_repulsion_energy": 1.9, 
			 "cosmo_total_nonelectrostatic_energy": 10.86, 
			 "SMD_solvation_energy": 4.09 
		},
		"coords": [
			{
				"x": 1.8742353648,
				"y": 3.8625737626,
				"z": 1.8173081135,
				"element": "N" 
			},
			{
				"x": 1.2826837125,
				"y": 2.6864005356,
				"z": 1.3380756902,
				"element": "C" 
			},
			{
				"x": 1.3486210749,
				"y": 1.4989436908,
				"z": 2.085756248,
				"element": "C" 
			},
			{
				"x": 0.7104624078,
				"y": 0.3480183042,
				"z": 1.6408660158,
				"element": "C" 
			},
			{
				"x": 0.8249870135,
				"y": -1.1132264171,
				"z": 2.6057338454,
				"element": "Cl" 
			},
			{
				"x": -0.0187875023,
				"y": 0.3270744688,
				"z": 0.4392990051,
				"element": "C" 
			},
			{
				"x": -0.6086050477,
				"y": -0.8504974032,
				"z": 0.0842226725,
				"element": "O" 
			},
			{
				"x": -1.353934473,
				"y": -0.8957815001,
				"z": -1.1209326007,
				"element": "C" 
			},
			{
				"x": -1.9205903537,
				"y": -2.2857671532,
				"z": -1.3095159289,
				"element": "C" 
			},
			{
				"x": -2.6338974891,
				"y": -2.4361631485,
				"z": -2.435329128,
				"element": "N" 
			},
			{
				"x": -3.1709311921,
				"y": -3.6367041321,
				"z": -2.6751415396,
				"element": "C" 
			},
			{
				"x": -3.0274543576,
				"y": -4.731333785,
				"z": -1.820814678,
				"element": "C" 
			},
			{
				"x": -2.2834788831,
				"y": -4.561130192,
				"z": -0.6545285717,
				"element": "C" 
			},
			{
				"x": -1.7159294608,
				"y": -3.3153548449,
				"z": -0.3874927498,
				"element": "C" 
			},
			{
				"x": -0.0810944566,
				"y": 1.5124260676,
				"z": -0.3006714154,
				"element": "C" 
			},
			{
				"x": 0.5581150141,
				"y": 2.6716199859,
				"z": 0.139569978,
				"element": "C" 
			},
			{
				"x": 2.656996756,
				"y": 3.7159902234,
				"z": 2.4406071429,
				"element": "H" 
			},
			{
				"x": 2.1025987177,
				"y": 4.5373219509,
				"z": 1.0995047283,
				"element": "H" 
			},
			{
				"x": 1.894971877,
				"y": 1.4696313995,
				"z": 3.0230400708,
				"element": "H" 
			},
			{
				"x": -2.179039607,
				"y": -0.1692710108,
				"z": -1.0980765687,
				"element": "H" 
			},
			{
				"x": -0.7200182867,
				"y": -0.6446007543,
				"z": -1.9834949138,
				"element": "H" 
			},
			{
				"x": -3.7443509662,
				"y": -3.7281968324,
				"z": -3.5962897671,
				"element": "H" 
			},
			{
				"x": -3.4860343186,
				"y": -5.6838883154,
				"z": -2.0666286462,
				"element": "H" 
			},
			{
				"x": -2.1454733058,
				"y": -5.3854216065,
				"z": 0.0396207561,
				"element": "H" 
			},
			{
				"x": -1.1297470122,
				"y": -3.1333209538,
				"z": 0.5049123259,
				"element": "H" 
			},
			{
				"x": -0.630164372,
				"y": 1.5409983055,
				"z": -1.2342381437,
				"element": "H" 
			},
			{
				"x": 0.4856591462,
				"y": 3.5766593543,
				"z": -0.4575619405,
				"element": "H" 
			}
		],
		 "valence_orbital": [ 
			{
				"type": "occ",
				"energy": -0.27892,
				"method": "rhf"
			},
			{
				"type": "occ",
				"energy": -0.25536,
				"method": "rhf"
			},
			{
				"type": "occ",
				"energy": -0.25391,
				"method": "rhf"
			},
			{
				"type": "occ",
				"energy": -0.24428,
				"method": "rhf"
			},
			{
				"type": "occ",
				"energy": -0.19456,
				"method": "rhf"
			},
			{
				"type": "unocc",
				"energy": -0.02347,
				"method": "rhf"
			},
			{
				"type": "unocc",
				"energy": -0.01051,
				"method": "rhf"
			},
			{
				"type": "unocc",
				"energy": -0.00434,
				"method": "rhf"
			},
			{
				"type": "unocc",
				"energy": 0.02035,
				"method": "rhf"
			},
			{
				"type": "unocc",
				"energy": 0.03527,
				"method": "rhf"
			}
		],
		"cosmo_sigma_profile": { 
			"-0.025": 0.0,
			"-0.024": 0.0,
			"-0.023": 0.0,
			"-0.022": 0.0,
			"-0.021": 0.0,
			"-0.02": 0.0,
			"-0.019": 0.0,
			"-0.018": 0.0,
			"-0.017": 0.0,
			"-0.016": 0.0,
			"-0.015": 0.0,
			"-0.014": 0.0,
			"-0.013": 0.321590303783,
			"-0.012": 2.75498407125,
			"-0.011": 3.07207051917,
			"-0.01": 3.38540216806,
			"-0.009": 3.12517830562,
			"-0.008": 3.02099905223,
			"-0.007": 11.1592061127,
			"-0.006": 17.7038398627,
			"-0.005": 17.4317053305,
			"-0.004": 16.0820854759,
			"-0.003": 12.0183227498,
			"-0.002": 13.2176983679,
			"-0.001": 12.1773888336,
			"0.0": 14.5083540295,
			"0.001": 17.1624615405,
			"0.002": 26.7521170962,
			"0.003": 28.6724714776,
			"0.004": 21.879906994,
			"0.005": 20.0849777857,
			"0.006": 7.42439754368,
			"0.007": 3.93995193419,
			"0.008": 2.69411347129,
			"0.009": 1.31682074179,
			"0.01": 1.04289405566,
			"0.011": 2.47345092395,
			"0.012": 1.08764251805,
			"0.013": 1.33080789803,
			"0.014": 1.51247965199,
			"0.015": 1.22301502666,
			"0.016": 0.352898059312,
			"0.017": 0.0162267006844,
			"0.018": 0.0,
			"0.019": 0.0,
			"0.02": 0.0,
			"0.021": 0.0,
			"0.022": 0.0,
			"0.023": 0.0,
			"0.024": 0.0,
			"0.025": 0.0
		}
	}
}
