{
	 "smiles": "COCCN1CCCNCC1", 
	 "Tm": 340.15, 
	 "num_atms": 29, 
	 "gaussian": { 
		 "optdone": 1, 
		 "sigma_profile": "yes", 
		 "theory": "DFT", 
		 "functional": "B3LYP", 
		 "basiset": "6-31G**", 
		 "properties": { 
			 "R2extent": 2323.0218, 
			 "electric_dipole_moment_norm": 2.04098700388, 
			 "electric_quadrupole_moment_norm": 6.77596516815, 
			 "total_energy": -500.384101724, 
			 "HOMO_LUMO_gap": 0.27622, 
			 "cosmo_polarized_energy": -7.08, 
			 "cosmo_cavitation_energy": 28.46, 
			 "cosmo_dispersion_energy": -20.6, 
			 "cosmo_repulsion_energy": 1.66, 
			 "cosmo_total_nonelectrostatic_energy": 9.52, 
			 "SMD_solvation_energy": 2.96 
		},
		"coords": [
			{
				"x": -1.8541295577,
				"y": -0.0951738805,
				"z": 2.3873159715,
				"element": "C" 
			},
			{
				"x": -0.8560940404,
				"y": 0.8678202481,
				"z": 2.6781505697,
				"element": "O" 
			},
			{
				"x": -0.4978073762,
				"y": 1.7032580661,
				"z": 1.5918744482,
				"element": "C" 
			},
			{
				"x": 0.5660538365,
				"y": 1.1001939736,
				"z": 0.6675180587,
				"element": "C" 
			},
			{
				"x": 0.0822236049,
				"y": 0.0397903286,
				"z": -0.227258417,
				"element": "N" 
			},
			{
				"x": -0.6376523534,
				"y": 0.5975660672,
				"z": -1.3848164957,
				"element": "C" 
			},
			{
				"x": -1.5992335599,
				"y": -0.4126147536,
				"z": -2.0307818756,
				"element": "C" 
			},
			{
				"x": -0.9823702747,
				"y": -1.3531571368,
				"z": -3.0846092233,
				"element": "C" 
			},
			{
				"x": 0.4269282092,
				"y": -1.6453894925,
				"z": -2.8295846841,
				"element": "N" 
			},
			{
				"x": 0.7662356993,
				"y": -2.0540465264,
				"z": -1.4662950621,
				"element": "C" 
			},
			{
				"x": 1.1774908969,
				"y": -0.8614855283,
				"z": -0.5953324754,
				"element": "C" 
			},
			{
				"x": -1.5197216258,
				"y": -0.8232822172,
				"z": 1.6401923536,
				"element": "H" 
			},
			{
				"x": -2.7768750418,
				"y": 0.3828961284,
				"z": 2.0189764185,
				"element": "H" 
			},
			{
				"x": -2.081147597,
				"y": -0.60723263,
				"z": 3.3268265796,
				"element": "H" 
			},
			{
				"x": -1.3939949925,
				"y": 2.0086537335,
				"z": 1.0278928764,
				"element": "H" 
			},
			{
				"x": -0.0743562165,
				"y": 2.6104293957,
				"z": 2.0403962347,
				"element": "H" 
			},
			{
				"x": 1.3366216494,
				"y": 0.6746428715,
				"z": 1.3186990861,
				"element": "H" 
			},
			{
				"x": 1.0511358919,
				"y": 1.921115624,
				"z": 0.1017217392,
				"element": "H" 
			},
			{
				"x": -1.2348778781,
				"y": 1.4366409152,
				"z": -1.0162540626,
				"element": "H" 
			},
			{
				"x": 0.0598082322,
				"y": 1.0095519142,
				"z": -2.1363783681,
				"element": "H" 
			},
			{
				"x": -2.4237695981,
				"y": 0.1295148633,
				"z": -2.5090264683,
				"element": "H" 
			},
			{
				"x": -2.0452908924,
				"y": -0.9940049538,
				"z": -1.2170963093,
				"element": "H" 
			},
			{
				"x": -1.6113728822,
				"y": -2.2619365257,
				"z": -3.1361841198,
				"element": "H" 
			},
			{
				"x": -1.0364590334,
				"y": -0.8817009762,
				"z": -4.0743393569,
				"element": "H" 
			},
			{
				"x": 0.7523699225,
				"y": -2.3361011425,
				"z": -3.4969196429,
				"element": "H" 
			},
			{
				"x": 1.6357253316,
				"y": -2.7189918699,
				"z": -1.5208691513,
				"element": "H" 
			},
			{
				"x": -0.0369965431,
				"y": -2.6223967906,
				"z": -0.9663692028,
				"element": "H" 
			},
			{
				"x": 1.6058483467,
				"y": -1.2491400973,
				"z": 0.3374279038,
				"element": "H" 
			},
			{
				"x": 1.9835078421,
				"y": -0.3272196077,
				"z": -1.1342773251,
				"element": "H" 
			}
		],
		 "valence_orbital": [ 
			{
				"type": "occ",
				"energy": -0.32213,
				"method": "rhf"
			},
			{
				"type": "occ",
				"energy": -0.29841,
				"method": "rhf"
			},
			{
				"type": "occ",
				"energy": -0.2463,
				"method": "rhf"
			},
			{
				"type": "occ",
				"energy": -0.21386,
				"method": "rhf"
			},
			{
				"type": "occ",
				"energy": -0.20304,
				"method": "rhf"
			},
			{
				"type": "unocc",
				"energy": 0.07318,
				"method": "rhf"
			},
			{
				"type": "unocc",
				"energy": 0.10015,
				"method": "rhf"
			},
			{
				"type": "unocc",
				"energy": 0.10211,
				"method": "rhf"
			},
			{
				"type": "unocc",
				"energy": 0.11559,
				"method": "rhf"
			},
			{
				"type": "unocc",
				"energy": 0.12927,
				"method": "rhf"
			}
		],
		"cosmo_sigma_profile": { 
			"-0.025": 0.0,
			"-0.024": 0.0,
			"-0.023": 0.0,
			"-0.022": 0.0,
			"-0.021": 0.0,
			"-0.02": 0.0,
			"-0.019": 0.0,
			"-0.018": 0.0,
			"-0.017": 0.0,
			"-0.016": 0.0,
			"-0.015": 0.0,
			"-0.014": 0.0,
			"-0.013": 0.0,
			"-0.012": 0.0,
			"-0.011": 0.0,
			"-0.01": 0.680510148612,
			"-0.009": 1.45631223202,
			"-0.008": 1.26354464345,
			"-0.007": 0.889203813216,
			"-0.006": 1.56736165289,
			"-0.005": 3.86208047929,
			"-0.004": 13.2572301377,
			"-0.003": 24.6841566251,
			"-0.002": 35.2313280224,
			"-0.001": 42.8650514146,
			"0.0": 35.4865002804,
			"0.001": 13.2810092282,
			"0.002": 6.92639947433,
			"0.003": 5.37432590273,
			"0.004": 4.50640600731,
			"0.005": 4.32749660346,
			"0.006": 3.73585498102,
			"0.007": 3.13810649718,
			"0.008": 2.51965097484,
			"0.009": 2.16050630729,
			"0.01": 2.44311246082,
			"0.011": 1.47733526066,
			"0.012": 2.09574045777,
			"0.013": 1.84586341771,
			"0.014": 1.93563035487,
			"0.015": 0.630429331531,
			"0.016": 0.536324682547,
			"0.017": 0.195022109974,
			"0.018": 0.0,
			"0.019": 0.0,
			"0.02": 0.0,
			"0.021": 0.0,
			"0.022": 0.0,
			"0.023": 0.0,
			"0.024": 0.0,
			"0.025": 0.0
		}
	}
}
