{
	 "smiles": "CCC1CN2CCC1CC2[C@H](O)C1=C2C=C(OC)C=CC2=NC=C1", 
	 "Tm": 445.15, 
	 "num_atms": 50, 
	 "gaussian": { 
		 "optdone": 1, 
		 "sigma_profile": "yes", 
		 "theory": "DFT", 
		 "functional": "B3LYP", 
		 "basiset": "6-31G**", 
		 "properties": { 
			 "R2extent": 9355.398, 
			 "electric_dipole_moment_norm": 4.53865466961, 
			 "electric_quadrupole_moment_norm": 22.8454715627, 
			 "total_energy": -1037.73756976, 
			 "HOMO_LUMO_gap": 0.16232, 
			 "cosmo_polarized_energy": -13.54, 
			 "cosmo_cavitation_energy": 47.52, 
			 "cosmo_dispersion_energy": -32.9, 
			 "cosmo_repulsion_energy": 2.48, 
			 "cosmo_total_nonelectrostatic_energy": 17.11, 
			 "SMD_solvation_energy": 4.99 
		},
		"coords": [
			{
				"x": -3.2711311276,
				"y": 2.0752211995,
				"z": 1.0734541704,
				"element": "C" 
			},
			{
				"x": -2.9395754121,
				"y": 0.9716047072,
				"z": 0.0628534122,
				"element": "C" 
			},
			{
				"x": -2.7428062004,
				"y": -0.4233663272,
				"z": 0.6803062313,
				"element": "C" 
			},
			{
				"x": -2.6343286815,
				"y": -1.532351308,
				"z": -0.4128488923,
				"element": "C" 
			},
			{
				"x": -1.6304211305,
				"y": -2.5625591936,
				"z": -0.0672849742,
				"element": "N" 
			},
			{
				"x": -1.9067661473,
				"y": -3.052221628,
				"z": 1.298976174,
				"element": "C" 
			},
			{
				"x": -1.6534931288,
				"y": -1.9262694978,
				"z": 2.3492209533,
				"element": "C" 
			},
			{
				"x": -1.4984854892,
				"y": -0.5904713028,
				"z": 1.5887893981,
				"element": "C" 
			},
			{
				"x": -0.2219971607,
				"y": -0.6573198792,
				"z": 0.7190586641,
				"element": "C" 
			},
			{
				"x": -0.2583754141,
				"y": -1.9864951181,
				"z": -0.0797734833,
				"element": "C" 
			},
			{
				"x": 0.2530228843,
				"y": -1.9439307669,
				"z": -1.5460214353,
				"element": "C" 
			},
			{
				"x": -0.027844392,
				"y": -3.1988782312,
				"z": -2.1403751978,
				"element": "O" 
			},
			{
				"x": 1.749615387,
				"y": -1.6860564611,
				"z": -1.6050635019,
				"element": "C" 
			},
			{
				"x": 2.3185286543,
				"y": -0.3886299516,
				"z": -1.8263708513,
				"element": "C" 
			},
			{
				"x": 1.5673346686,
				"y": 0.7835393656,
				"z": -2.0878098946,
				"element": "C" 
			},
			{
				"x": 2.1874433758,
				"y": 2.0040604856,
				"z": -2.2933984027,
				"element": "C" 
			},
			{
				"x": 1.3588317793,
				"y": 3.0627640335,
				"z": -2.5400873116,
				"element": "O" 
			},
			{
				"x": 1.9346241256,
				"y": 4.3360812245,
				"z": -2.7849607081,
				"element": "C" 
			},
			{
				"x": 3.6013866245,
				"y": 2.1052926185,
				"z": -2.244513378,
				"element": "C" 
			},
			{
				"x": 4.3542394668,
				"y": 0.978229757,
				"z": -2.0035093585,
				"element": "C" 
			},
			{
				"x": 3.7524453894,
				"y": -0.2883199304,
				"z": -1.7961905158,
				"element": "C" 
			},
			{
				"x": 4.5791462653,
				"y": -1.3531967968,
				"z": -1.5843275439,
				"element": "N" 
			},
			{
				"x": 4.0125669175,
				"y": -2.5300714644,
				"z": -1.4160755412,
				"element": "C" 
			},
			{
				"x": 2.6146409854,
				"y": -2.7440926757,
				"z": -1.4214849157,
				"element": "C" 
			},
			{
				"x": -2.458552144,
				"y": 2.2311873358,
				"z": 1.7904583505,
				"element": "H" 
			},
			{
				"x": -4.1741333416,
				"y": 1.8301662813,
				"z": 1.644499147,
				"element": "H" 
			},
			{
				"x": -3.4474848669,
				"y": 3.0298038573,
				"z": 0.5673640619,
				"element": "H" 
			},
			{
				"x": -2.0469982231,
				"y": 1.255117672,
				"z": -0.5106606007,
				"element": "H" 
			},
			{
				"x": -3.7544026852,
				"y": 0.9066032169,
				"z": -0.6715120488,
				"element": "H" 
			},
			{
				"x": -3.6278356069,
				"y": -0.6273004158,
				"z": 1.3006466199,
				"element": "H" 
			},
			{
				"x": -3.5970446741,
				"y": -2.0324443504,
				"z": -0.5654910044,
				"element": "H" 
			},
			{
				"x": -2.354828907,
				"y": -1.0933249588,
				"z": -1.376588684,
				"element": "H" 
			},
			{
				"x": -1.2747464336,
				"y": -3.9256766321,
				"z": 1.4894593826,
				"element": "H" 
			},
			{
				"x": -2.9470076794,
				"y": -3.3941904964,
				"z": 1.3254897371,
				"element": "H" 
			},
			{
				"x": -2.4833942463,
				"y": -1.8651870561,
				"z": 3.0623165615,
				"element": "H" 
			},
			{
				"x": -0.7475067134,
				"y": -2.132342046,
				"z": 2.9312811133,
				"element": "H" 
			},
			{
				"x": -1.4246280372,
				"y": 0.2377350822,
				"z": 2.3006726744,
				"element": "H" 
			},
			{
				"x": -0.171706903,
				"y": 0.2099164259,
				"z": 0.0532456816,
				"element": "H" 
			},
			{
				"x": 0.6745230911,
				"y": -0.6138704042,
				"z": 1.3462329171,
				"element": "H" 
			},
			{
				"x": 0.3707278402,
				"y": -2.7303754239,
				"z": 0.423220436,
				"element": "H" 
			},
			{
				"x": -0.2754264001,
				"y": -1.1461487532,
				"z": -2.0898269953,
				"element": "H" 
			},
			{
				"x": -0.8431245109,
				"y": -3.4886327661,
				"z": -1.6863439021,
				"element": "H" 
			},
			{
				"x": 0.4863240359,
				"y": 0.7583318352,
				"z": -2.1504881695,
				"element": "H" 
			},
			{
				"x": 2.5072413724,
				"y": 4.6986620939,
				"z": -1.9214836302,
				"element": "H" 
			},
			{
				"x": 1.0981712789,
				"y": 5.0130131045,
				"z": -2.9662995608,
				"element": "H" 
			},
			{
				"x": 2.5855658761,
				"y": 4.3265830288,
				"z": -3.6685845149,
				"element": "H" 
			},
			{
				"x": 4.0942227877,
				"y": 3.0572581402,
				"z": -2.402363225,
				"element": "H" 
			},
			{
				"x": 5.4378638078,
				"y": 1.0238582031,
				"z": -1.9701130094,
				"element": "H" 
			},
			{
				"x": 4.6832048249,
				"y": -3.3751329365,
				"z": -1.262123294,
				"element": "H" 
			},
			{
				"x": 2.2136742181,
				"y": -3.743972896,
				"z": -1.298671141,
				"element": "H" 
			}
		],
		 "valence_orbital": [ 
			{
				"type": "occ",
				"energy": -0.25692,
				"method": "rhf"
			},
			{
				"type": "occ",
				"energy": -0.24368,
				"method": "rhf"
			},
			{
				"type": "occ",
				"energy": -0.23651,
				"method": "rhf"
			},
			{
				"type": "occ",
				"energy": -0.22456,
				"method": "rhf"
			},
			{
				"type": "occ",
				"energy": -0.20703,
				"method": "rhf"
			},
			{
				"type": "unocc",
				"energy": -0.04471,
				"method": "rhf"
			},
			{
				"type": "unocc",
				"energy": -0.0013,
				"method": "rhf"
			},
			{
				"type": "unocc",
				"energy": 0.02412,
				"method": "rhf"
			},
			{
				"type": "unocc",
				"energy": 0.06331,
				"method": "rhf"
			},
			{
				"type": "unocc",
				"energy": 0.07504,
				"method": "rhf"
			}
		],
		"cosmo_sigma_profile": { 
			"-0.025": 0.0,
			"-0.024": 0.0,
			"-0.023": 0.0,
			"-0.022": 0.0,
			"-0.021": 0.0,
			"-0.02": 0.0,
			"-0.019": 0.0,
			"-0.018": 0.0,
			"-0.017": 0.0,
			"-0.016": 0.0,
			"-0.015": 0.0,
			"-0.014": 0.0,
			"-0.013": 0.0,
			"-0.012": 0.0,
			"-0.011": 0.0,
			"-0.01": 0.0,
			"-0.009": 0.00645786350636,
			"-0.008": 0.397500666733,
			"-0.007": 4.2702347126,
			"-0.006": 13.5764252353,
			"-0.005": 18.8609076141,
			"-0.004": 25.9183110499,
			"-0.003": 40.5334196203,
			"-0.002": 49.9813332591,
			"-0.001": 42.9295307389,
			"0.0": 37.7512518994,
			"0.001": 31.2352624128,
			"0.002": 26.5624199909,
			"0.003": 23.999666927,
			"0.004": 14.6890414324,
			"0.005": 6.75051956656,
			"0.006": 5.08592975406,
			"0.007": 5.06333837969,
			"0.008": 4.91201532222,
			"0.009": 4.69427803878,
			"0.01": 3.49241206273,
			"0.011": 1.79693376561,
			"0.012": 2.69706330414,
			"0.013": 1.55323639354,
			"0.014": 2.18101830045,
			"0.015": 1.83087870173,
			"0.016": 0.732145398376,
			"0.017": 0.135484415137,
			"0.018": 0.0,
			"0.019": 0.0,
			"0.02": 0.0,
			"0.021": 0.0,
			"0.022": 0.0,
			"0.023": 0.0,
			"0.024": 0.0,
			"0.025": 0.0
		}
	}
}
