{
	 "smiles": "OC(=O)C1=CSC=C1C(O)=O", 
	 "Tm": 502.15, 
	 "num_atms": 15, 
	 "gaussian": { 
		 "optdone": 1, 
		 "sigma_profile": "yes", 
		 "theory": "DFT", 
		 "functional": "B3LYP", 
		 "basiset": "6-31G**", 
		 "properties": { 
			 "R2extent": 2386.3725, 
			 "electric_dipole_moment_norm": 6.96756606786, 
			 "electric_quadrupole_moment_norm": 11.0755612874, 
			 "total_energy": -930.13573949, 
			 "HOMO_LUMO_gap": 0.18682, 
			 "cosmo_polarized_energy": -20.61, 
			 "cosmo_cavitation_energy": 21.59, 
			 "cosmo_dispersion_energy": -17.0, 
			 "cosmo_repulsion_energy": 1.29, 
			 "cosmo_total_nonelectrostatic_energy": 5.88, 
			 "SMD_solvation_energy": 6.14 
		},
		"coords": [
			{
				"x": -1.5191663978,
				"y": -1.3803751018,
				"z": 0.5181215465,
				"element": "O" 
			},
			{
				"x": -1.3029135342,
				"y": -0.6628269308,
				"z": -0.5800376246,
				"element": "C" 
			},
			{
				"x": -1.4813442218,
				"y": -1.1227957952,
				"z": -1.6889116932,
				"element": "O" 
			},
			{
				"x": -0.8486634455,
				"y": 0.7772786384,
				"z": -0.4350842283,
				"element": "C" 
			},
			{
				"x": -0.882867618,
				"y": 1.5447171717,
				"z": -1.5709399818,
				"element": "C" 
			},
			{
				"x": -0.3676485833,
				"y": 3.166882943,
				"z": -1.3081923105,
				"element": "S" 
			},
			{
				"x": -0.0601509721,
				"y": 2.843582043,
				"z": 0.3532620835,
				"element": "C" 
			},
			{
				"x": -0.3500320984,
				"y": 1.5389194271,
				"z": 0.6951382993,
				"element": "C" 
			},
			{
				"x": -0.1866854422,
				"y": 1.0494053901,
				"z": 2.0880758294,
				"element": "C" 
			},
			{
				"x": 0.6607562824,
				"y": 1.7278357902,
				"z": 2.8851407707,
				"element": "O" 
			},
			{
				"x": -0.7864009676,
				"y": 0.0949968889,
				"z": 2.5543200611,
				"element": "O" 
			},
			{
				"x": -1.3586256662,
				"y": -0.8619050289,
				"z": 1.3460360342,
				"element": "H" 
			},
			{
				"x": -1.1920042933,
				"y": 1.1982329,
				"z": -2.546651929,
				"element": "H" 
			},
			{
				"x": 0.258944368,
				"y": 3.6480858813,
				"z": 1.0031956507,
				"element": "H" 
			},
			{
				"x": 1.2059025902,
				"y": 2.332965783,
				"z": 2.3630274919,
				"element": "H" 
			}
		],
		 "valence_orbital": [ 
			{
				"type": "occ",
				"energy": -0.31585,
				"method": "rhf"
			},
			{
				"type": "occ",
				"energy": -0.30557,
				"method": "rhf"
			},
			{
				"type": "occ",
				"energy": -0.29473,
				"method": "rhf"
			},
			{
				"type": "occ",
				"energy": -0.27886,
				"method": "rhf"
			},
			{
				"type": "occ",
				"energy": -0.26689,
				"method": "rhf"
			},
			{
				"type": "unocc",
				"energy": -0.08007,
				"method": "rhf"
			},
			{
				"type": "unocc",
				"energy": -0.05187,
				"method": "rhf"
			},
			{
				"type": "unocc",
				"energy": -0.00658,
				"method": "rhf"
			},
			{
				"type": "unocc",
				"energy": 0.02641,
				"method": "rhf"
			},
			{
				"type": "unocc",
				"energy": 0.03184,
				"method": "rhf"
			}
		],
		"cosmo_sigma_profile": { 
			"-0.025": 0.0,
			"-0.024": 0.0,
			"-0.023": 0.0,
			"-0.022": 0.0,
			"-0.021": 0.0,
			"-0.02": 0.666094592711,
			"-0.019": 1.26212623874,
			"-0.018": 0.958263885257,
			"-0.017": 1.37562843397,
			"-0.016": 0.607066454767,
			"-0.015": 1.03502858976,
			"-0.014": 1.67847396599,
			"-0.013": 1.59290544384,
			"-0.012": 1.66059704771,
			"-0.011": 2.33070340049,
			"-0.01": 2.7829190063,
			"-0.009": 3.81587798288,
			"-0.008": 4.92480701176,
			"-0.007": 5.20937024931,
			"-0.006": 4.78567159919,
			"-0.005": 7.7607049857,
			"-0.004": 6.38597243538,
			"-0.003": 10.2863355476,
			"-0.002": 10.9768478892,
			"-0.001": 15.774371985,
			"0.0": 18.9813865602,
			"0.001": 10.2476042974,
			"0.002": 5.00675855229,
			"0.003": 4.32095278363,
			"0.004": 3.54604678747,
			"0.005": 4.29267590139,
			"0.006": 5.23278869785,
			"0.007": 4.79644878862,
			"0.008": 5.49578855686,
			"0.009": 7.38747135939,
			"0.01": 5.54873598476,
			"0.011": 6.56365227827,
			"0.012": 5.78961768931,
			"0.013": 2.60500094559,
			"0.014": 0.903384288493,
			"0.015": 0.0,
			"0.016": 0.0,
			"0.017": 0.0,
			"0.018": 0.0,
			"0.019": 0.0,
			"0.02": 0.0,
			"0.021": 0.0,
			"0.022": 0.0,
			"0.023": 0.0,
			"0.024": 0.0,
			"0.025": 0.0
		}
	}
}
