{
	 "smiles": "OC(=O)C1=C(OC2=CC=C(Cl)C=C2)N=CC=C1", 
	 "Tm": 431.15, 
	 "num_atms": 25, 
	 "gaussian": { 
		 "optdone": 1, 
		 "sigma_profile": "yes", 
		 "theory": "DFT", 
		 "functional": "B3LYP", 
		 "basiset": "6-31G**", 
		 "properties": { 
			 "R2extent": 6080.4753, 
			 "electric_dipole_moment_norm": 1.4459686684, 
			 "electric_quadrupole_moment_norm": 18.8039590712, 
			 "total_energy": -1202.71778835, 
			 "HOMO_LUMO_gap": 0.17372, 
			 "cosmo_polarized_energy": -13.04, 
			 "cosmo_cavitation_energy": 32.85, 
			 "cosmo_dispersion_energy": -23.76, 
			 "cosmo_repulsion_energy": 1.86, 
			 "cosmo_total_nonelectrostatic_energy": 10.96, 
			 "SMD_solvation_energy": 6.08 
		},
		"coords": [
			{
				"x": 2.3670181074,
				"y": -2.7614398147,
				"z": -1.0359319665,
				"element": "O" 
			},
			{
				"x": 1.5038582476,
				"y": -3.4039679185,
				"z": -0.2242566669,
				"element": "C" 
			},
			{
				"x": 1.6595720265,
				"y": -4.5712406949,
				"z": 0.0863262862,
				"element": "O" 
			},
			{
				"x": 0.3573563803,
				"y": -2.5845401263,
				"z": 0.2613122222,
				"element": "C" 
			},
			{
				"x": 0.084583273,
				"y": -1.2253432814,
				"z": -0.0360003894,
				"element": "C" 
			},
			{
				"x": 0.9258985193,
				"y": -0.5677111756,
				"z": -0.872674796,
				"element": "O" 
			},
			{
				"x": 0.7715096826,
				"y": 0.7950297348,
				"z": -1.1115767083,
				"element": "C" 
			},
			{
				"x": 0.9776935441,
				"y": 1.7371104054,
				"z": -0.1043873151,
				"element": "C" 
			},
			{
				"x": 0.9214025916,
				"y": 3.0943164016,
				"z": -0.4132580068,
				"element": "C" 
			},
			{
				"x": 0.6662747352,
				"y": 3.489458878,
				"z": -1.7275411902,
				"element": "C" 
			},
			{
				"x": 0.599115902,
				"y": 5.2032434379,
				"z": -2.115754176,
				"element": "Cl" 
			},
			{
				"x": 0.4684201623,
				"y": 2.5490942159,
				"z": -2.7367953538,
				"element": "C" 
			},
			{
				"x": 0.5209813449,
				"y": 1.1906634209,
				"z": -2.4222186341,
				"element": "C" 
			},
			{
				"x": -0.962596029,
				"y": -0.5679733942,
				"z": 0.4483288845,
				"element": "N" 
			},
			{
				"x": -1.806979381,
				"y": -1.2171825323,
				"z": 1.2570008363,
				"element": "C" 
			},
			{
				"x": -1.6495227239,
				"y": -2.5523931629,
				"z": 1.6203158411,
				"element": "C" 
			},
			{
				"x": -0.5489575635,
				"y": -3.2318457092,
				"z": 1.1085410184,
				"element": "C" 
			},
			{
				"x": 3.0462354598,
				"y": -3.4211941467,
				"z": -1.2570398304,
				"element": "H" 
			},
			{
				"x": 1.1775202615,
				"y": 1.4121567283,
				"z": 0.9101804049,
				"element": "H" 
			},
			{
				"x": 1.0774964179,
				"y": 3.8403679112,
				"z": 0.3577846691,
				"element": "H" 
			},
			{
				"x": 0.2756515192,
				"y": 2.8723086684,
				"z": -3.7535132587,
				"element": "H" 
			},
			{
				"x": 0.3755509963,
				"y": 0.4354211784,
				"z": -3.1869482035,
				"element": "H" 
			},
			{
				"x": -2.6491167723,
				"y": -0.6344907379,
				"z": 1.6257787737,
				"element": "H" 
			},
			{
				"x": -2.3610521016,
				"y": -3.0386099198,
				"z": 2.2781437822,
				"element": "H" 
			},
			{
				"x": -0.3568146003,
				"y": -4.2725383664,
				"z": 1.346483777,
				"element": "H" 
			}
		],
		 "valence_orbital": [ 
			{
				"type": "occ",
				"energy": -0.29369,
				"method": "rhf"
			},
			{
				"type": "occ",
				"energy": -0.276,
				"method": "rhf"
			},
			{
				"type": "occ",
				"energy": -0.26611,
				"method": "rhf"
			},
			{
				"type": "occ",
				"energy": -0.25947,
				"method": "rhf"
			},
			{
				"type": "occ",
				"energy": -0.23624,
				"method": "rhf"
			},
			{
				"type": "unocc",
				"energy": -0.06252,
				"method": "rhf"
			},
			{
				"type": "unocc",
				"energy": -0.0259,
				"method": "rhf"
			},
			{
				"type": "unocc",
				"energy": -0.01696,
				"method": "rhf"
			},
			{
				"type": "unocc",
				"energy": -0.00714,
				"method": "rhf"
			},
			{
				"type": "unocc",
				"energy": 0.02849,
				"method": "rhf"
			}
		],
		"cosmo_sigma_profile": { 
			"-0.025": 0.0,
			"-0.024": 0.0,
			"-0.023": 0.0,
			"-0.022": 0.0,
			"-0.021": 0.0,
			"-0.02": 0.0,
			"-0.019": 0.0,
			"-0.018": 0.998137829132,
			"-0.017": 0.889566869785,
			"-0.016": 0.330979265052,
			"-0.015": 0.920598583568,
			"-0.014": 0.985529730594,
			"-0.013": 0.79231487413,
			"-0.012": 0.920885558521,
			"-0.011": 0.708973911094,
			"-0.01": 0.55694069339,
			"-0.009": 0.424679069496,
			"-0.008": 4.30669875487,
			"-0.007": 14.8375116767,
			"-0.006": 14.7796394739,
			"-0.005": 13.4638533287,
			"-0.004": 10.508098363,
			"-0.003": 13.2886795269,
			"-0.002": 19.3458552834,
			"-0.001": 21.0748563145,
			"0.0": 20.9441330798,
			"0.001": 24.019638531,
			"0.002": 26.1319606271,
			"0.003": 18.4967668645,
			"0.004": 15.6815441901,
			"0.005": 10.8692311915,
			"0.006": 4.2449535554,
			"0.007": 4.10974006983,
			"0.008": 3.80421773777,
			"0.009": 3.72312173809,
			"0.01": 4.12331947759,
			"0.011": 6.5489078981,
			"0.012": 4.763676269,
			"0.013": 0.408565808441,
			"0.014": 0.0,
			"0.015": 0.0,
			"0.016": 0.0,
			"0.017": 0.0,
			"0.018": 0.0,
			"0.019": 0.0,
			"0.02": 0.0,
			"0.021": 0.0,
			"0.022": 0.0,
			"0.023": 0.0,
			"0.024": 0.0,
			"0.025": 0.0
		}
	}
}
