{
	 "smiles": "C[C@H](O[S@+]([O-])C(C)(C)C)C(O)(C1=CC=CC=C1)C1=CC=CC=C1", 
	 "Tm": 409.15, 
	 "num_atms": 47, 
	 "gaussian": { 
		 "optdone": 1, 
		 "sigma_profile": "yes", 
		 "theory": "DFT", 
		 "functional": "B3LYP", 
		 "basiset": "6-31G**", 
		 "properties": { 
			 "R2extent": 8820.5216, 
			 "electric_dipole_moment_norm": 2.18067771805, 
			 "electric_quadrupole_moment_norm": 21.386573269, 
			 "total_energy": -1362.30406062, 
			 "HOMO_LUMO_gap": 0.22492, 
			 "cosmo_polarized_energy": -13.86, 
			 "cosmo_cavitation_energy": 48.2, 
			 "cosmo_dispersion_energy": -31.78, 
			 "cosmo_repulsion_energy": 2.37, 
			 "cosmo_total_nonelectrostatic_energy": 18.8, 
			 "SMD_solvation_energy": 7.52 
		},
		"coords": [
			{
				"x": 1.1690507756,
				"y": -2.3200105086,
				"z": 0.3012701919,
				"element": "C" 
			},
			{
				"x": 0.3789353928,
				"y": -1.179472417,
				"z": 0.9389114545,
				"element": "C" 
			},
			{
				"x": -1.0204019625,
				"y": -1.5592606211,
				"z": 1.1008149897,
				"element": "O" 
			},
			{
				"x": -1.3975998862,
				"y": -2.2101376393,
				"z": 2.6277426371,
				"element": "S" 
			},
			{
				"x": -0.9389157389,
				"y": -3.6309993983,
				"z": 2.6997386544,
				"element": "O" 
			},
			{
				"x": -3.2473115048,
				"y": -2.27421624,
				"z": 2.2771089418,
				"element": "C" 
			},
			{
				"x": -3.4934785799,
				"y": -3.2143008125,
				"z": 1.0955103069,
				"element": "C" 
			},
			{
				"x": -3.7438185933,
				"y": -0.8484260827,
				"z": 2.0182051319,
				"element": "C" 
			},
			{
				"x": -3.8441042679,
				"y": -2.8458261568,
				"z": 3.5735798565,
				"element": "C" 
			},
			{
				"x": 0.3879267418,
				"y": 0.2188536759,
				"z": 0.2438068643,
				"element": "C" 
			},
			{
				"x": -0.3138042751,
				"y": 1.1076572358,
				"z": 1.1269805429,
				"element": "O" 
			},
			{
				"x": 1.8403328915,
				"y": 0.7115866243,
				"z": 0.2023686207,
				"element": "C" 
			},
			{
				"x": 2.3660811733,
				"y": 1.4248759039,
				"z": 1.2874380949,
				"element": "C" 
			},
			{
				"x": 3.7007029171,
				"y": 1.8347673883,
				"z": 1.28727948,
				"element": "C" 
			},
			{
				"x": 4.5303297781,
				"y": 1.5337123813,
				"z": 0.2066344537,
				"element": "C" 
			},
			{
				"x": 4.0142933819,
				"y": 0.822640445,
				"z": -0.8784287447,
				"element": "C" 
			},
			{
				"x": 2.6792551762,
				"y": 0.4177954447,
				"z": -0.8815717617,
				"element": "C" 
			},
			{
				"x": -0.2854322735,
				"y": 0.3041591203,
				"z": -1.1383910373,
				"element": "C" 
			},
			{
				"x": -0.9695362016,
				"y": -0.7462274684,
				"z": -1.7634444429,
				"element": "C" 
			},
			{
				"x": -1.598419889,
				"y": -0.5553161652,
				"z": -2.9989560441,
				"element": "C" 
			},
			{
				"x": -1.5641992688,
				"y": 0.6883777667,
				"z": -3.6246294901,
				"element": "C" 
			},
			{
				"x": -0.9006913791,
				"y": 1.7497695845,
				"z": -3.0020674313,
				"element": "C" 
			},
			{
				"x": -0.273112909,
				"y": 1.557965929,
				"z": -1.774653028,
				"element": "C" 
			},
			{
				"x": 0.8547412657,
				"y": -2.5252828646,
				"z": -0.7237662247,
				"element": "H" 
			},
			{
				"x": 2.2344870402,
				"y": -2.0790038972,
				"z": 0.289297522,
				"element": "H" 
			},
			{
				"x": 1.0221842833,
				"y": -3.2244253745,
				"z": 0.8962048343,
				"element": "H" 
			},
			{
				"x": 0.7933840394,
				"y": -0.9814539811,
				"z": 1.9361949659,
				"element": "H" 
			},
			{
				"x": -4.5690740757,
				"y": -3.3959194531,
				"z": 0.990948302,
				"element": "H" 
			},
			{
				"x": -2.9947402729,
				"y": -4.1731181482,
				"z": 1.2620471782,
				"element": "H" 
			},
			{
				"x": -3.1226773627,
				"y": -2.7846175142,
				"z": 0.1624558028,
				"element": "H" 
			},
			{
				"x": -4.8385816518,
				"y": -0.8473762595,
				"z": 1.9716490929,
				"element": "H" 
			},
			{
				"x": -3.3671342389,
				"y": -0.4608593555,
				"z": 1.0687270013,
				"element": "H" 
			},
			{
				"x": -3.4518182075,
				"y": -0.1639024831,
				"z": 2.8235653208,
				"element": "H" 
			},
			{
				"x": -3.6410924837,
				"y": -2.1995185944,
				"z": 4.4350662267,
				"element": "H" 
			},
			{
				"x": -4.9308932056,
				"y": -2.9268136204,
				"z": 3.4662909347,
				"element": "H" 
			},
			{
				"x": -3.4439792432,
				"y": -3.8407708069,
				"z": 3.7855669362,
				"element": "H" 
			},
			{
				"x": -1.2022345355,
				"y": 0.7353482652,
				"z": 1.2178949543,
				"element": "H" 
			},
			{
				"x": 1.7182898842,
				"y": 1.6677788138,
				"z": 2.1215358618,
				"element": "H" 
			},
			{
				"x": 4.0902244233,
				"y": 2.3932530375,
				"z": 2.1339728242,
				"element": "H" 
			},
			{
				"x": 5.5684570569,
				"y": 1.8536460004,
				"z": 0.2069175168,
				"element": "H" 
			},
			{
				"x": 4.6487329666,
				"y": 0.5871604135,
				"z": -1.7282884055,
				"element": "H" 
			},
			{
				"x": 2.2840481949,
				"y": -0.1213154449,
				"z": -1.7367484464,
				"element": "H" 
			},
			{
				"x": -1.039208271,
				"y": -1.714813645,
				"z": -1.2861828309,
				"element": "H" 
			},
			{
				"x": -2.119472496,
				"y": -1.386796028,
				"z": -3.4655606286,
				"element": "H" 
			},
			{
				"x": -2.0524452541,
				"y": 0.834001441,
				"z": -4.5840700123,
				"element": "H" 
			},
			{
				"x": -0.8733710953,
				"y": 2.7281645122,
				"z": -3.4736877401,
				"element": "H" 
			},
			{
				"x": 0.2330917407,
				"y": 2.3874669971,
				"z": -1.2913792275,
				"element": "H" 
			}
		],
		 "valence_orbital": [ 
			{
				"type": "occ",
				"energy": -0.25016,
				"method": "rhf"
			},
			{
				"type": "occ",
				"energy": -0.24751,
				"method": "rhf"
			},
			{
				"type": "occ",
				"energy": -0.24484,
				"method": "rhf"
			},
			{
				"type": "occ",
				"energy": -0.23814,
				"method": "rhf"
			},
			{
				"type": "occ",
				"energy": -0.23724,
				"method": "rhf"
			},
			{
				"type": "unocc",
				"energy": -0.01232,
				"method": "rhf"
			},
			{
				"type": "unocc",
				"energy": -0.00652,
				"method": "rhf"
			},
			{
				"type": "unocc",
				"energy": -0.0039,
				"method": "rhf"
			},
			{
				"type": "unocc",
				"energy": 0.00327,
				"method": "rhf"
			},
			{
				"type": "unocc",
				"energy": 0.00747,
				"method": "rhf"
			}
		],
		"cosmo_sigma_profile": { 
			"-0.025": 0.0,
			"-0.024": 0.0,
			"-0.023": 0.0,
			"-0.022": 0.0,
			"-0.021": 0.0,
			"-0.02": 0.0,
			"-0.019": 0.0,
			"-0.018": 0.0,
			"-0.017": 0.0,
			"-0.016": 0.0,
			"-0.015": 0.0,
			"-0.014": 0.0,
			"-0.013": 0.0,
			"-0.012": 0.0,
			"-0.011": 0.0,
			"-0.01": 0.150772697107,
			"-0.009": 1.77958863431,
			"-0.008": 1.96787942781,
			"-0.007": 1.22962770565,
			"-0.006": 8.69197506368,
			"-0.005": 27.8972799348,
			"-0.004": 38.6236583701,
			"-0.003": 37.6878026734,
			"-0.002": 39.9628860087,
			"-0.001": 42.312085113,
			"0.0": 41.239345554,
			"0.001": 24.0320493454,
			"0.002": 18.7507416437,
			"0.003": 19.5180493872,
			"0.004": 19.0597473537,
			"0.005": 20.2389760738,
			"0.006": 13.7032190681,
			"0.007": 3.9227890417,
			"0.008": 3.01429274789,
			"0.009": 2.42738394377,
			"0.01": 2.5594484097,
			"0.011": 3.12947585806,
			"0.012": 4.32327434765,
			"0.013": 3.30050271451,
			"0.014": 0.874167270299,
			"0.015": 0.0,
			"0.016": 0.0,
			"0.017": 0.0,
			"0.018": 0.0,
			"0.019": 0.0,
			"0.02": 0.0,
			"0.021": 0.0,
			"0.022": 0.0,
			"0.023": 0.0,
			"0.024": 0.0,
			"0.025": 0.0
		}
	}
}
