{
	 "smiles": "OC1OC(CC2=CC=CC=C12)C1CCCCC1", 
	 "Tm": 361.75, 
	 "num_atms": 37, 
	 "gaussian": { 
		 "optdone": 1, 
		 "sigma_profile": "yes", 
		 "theory": "DFT", 
		 "functional": "B3LYP", 
		 "basiset": "6-31G**", 
		 "properties": { 
			 "R2extent": 4781.004, 
			 "electric_dipole_moment_norm": 2.1272707209, 
			 "electric_quadrupole_moment_norm": 4.26447349622, 
			 "total_energy": -734.111299195, 
			 "HOMO_LUMO_gap": 0.233, 
			 "cosmo_polarized_energy": -8.82, 
			 "cosmo_cavitation_energy": 35.68, 
			 "cosmo_dispersion_energy": -25.87, 
			 "cosmo_repulsion_energy": 1.99, 
			 "cosmo_total_nonelectrostatic_energy": 11.81, 
			 "SMD_solvation_energy": 4.69 
		},
		"coords": [
			{
				"x": -3.1355543814,
				"y": 0.5899634331,
				"z": -0.6238523487,
				"element": "O" 
			},
			{
				"x": -2.0978423284,
				"y": 0.5961847642,
				"z": 0.3107369902,
				"element": "C" 
			},
			{
				"x": -0.8721743586,
				"y": 0.7528152492,
				"z": -0.3889934689,
				"element": "O" 
			},
			{
				"x": 0.275898563,
				"y": 0.7062122241,
				"z": 0.4669883238,
				"element": "C" 
			},
			{
				"x": 0.4376448188,
				"y": -0.7252450081,
				"z": 0.9940265252,
				"element": "C" 
			},
			{
				"x": -0.8702611091,
				"y": -1.2635895635,
				"z": 1.5372956739,
				"element": "C" 
			},
			{
				"x": -0.896970916,
				"y": -2.3887166388,
				"z": 2.3717696132,
				"element": "C" 
			},
			{
				"x": -2.1018469671,
				"y": -2.8958534942,
				"z": 2.8545102131,
				"element": "C" 
			},
			{
				"x": -3.3066413549,
				"y": -2.2793329888,
				"z": 2.5065284981,
				"element": "C" 
			},
			{
				"x": -3.2925692478,
				"y": -1.1580596781,
				"z": 1.6799601526,
				"element": "C" 
			},
			{
				"x": -2.0834006226,
				"y": -0.6483188655,
				"z": 1.1906783147,
				"element": "C" 
			},
			{
				"x": 1.5161271843,
				"y": 1.2586519542,
				"z": -0.2625847307,
				"element": "C" 
			},
			{
				"x": 1.8897604885,
				"y": 0.5442273995,
				"z": -1.5849897279,
				"element": "C" 
			},
			{
				"x": 1.0488619812,
				"y": 0.9786711335,
				"z": -2.7981055071,
				"element": "C" 
			},
			{
				"x": 1.0597542279,
				"y": 2.5044031059,
				"z": -2.9731961954,
				"element": "C" 
			},
			{
				"x": 0.5980273828,
				"y": 3.2130286072,
				"z": -1.6913803571,
				"element": "C" 
			},
			{
				"x": 1.4524447758,
				"y": 2.7893637788,
				"z": -0.4849614798,
				"element": "C" 
			},
			{
				"x": -3.0418611053,
				"y": -0.2188799926,
				"z": -1.1480865027,
				"element": "H" 
			},
			{
				"x": -2.2773358538,
				"y": 1.4919006094,
				"z": 0.9275794995,
				"element": "H" 
			},
			{
				"x": 0.0892064429,
				"y": 1.3664034349,
				"z": 1.332957146,
				"element": "H" 
			},
			{
				"x": 1.2101499305,
				"y": -0.7534217472,
				"z": 1.7722880562,
				"element": "H" 
			},
			{
				"x": 0.7862922038,
				"y": -1.3759133744,
				"z": 0.1820016573,
				"element": "H" 
			},
			{
				"x": 0.0399907496,
				"y": -2.8699188054,
				"z": 2.6430318599,
				"element": "H" 
			},
			{
				"x": -2.101675448,
				"y": -3.7681395372,
				"z": 3.5021063971,
				"element": "H" 
			},
			{
				"x": -4.2494421653,
				"y": -2.6705675551,
				"z": 2.8778663855,
				"element": "H" 
			},
			{
				"x": -4.2206702782,
				"y": -0.6709670794,
				"z": 1.3955559557,
				"element": "H" 
			},
			{
				"x": 2.3364502192,
				"y": 1.0739938426,
				"z": 0.4470995728,
				"element": "H" 
			},
			{
				"x": 1.8417272447,
				"y": -0.5442987341,
				"z": -1.4644704438,
				"element": "H" 
			},
			{
				"x": 2.9442067247,
				"y": 0.7752989731,
				"z": -1.7922002848,
				"element": "H" 
			},
			{
				"x": 1.439747829,
				"y": 0.4921399069,
				"z": -3.7007710943,
				"element": "H" 
			},
			{
				"x": 0.0177422006,
				"y": 0.6368292744,
				"z": -2.666580025,
				"element": "H" 
			},
			{
				"x": 0.4226524626,
				"y": 2.7933806307,
				"z": -3.8178340998,
				"element": "H" 
			},
			{
				"x": 2.0790949388,
				"y": 2.8346572969,
				"z": -3.22404302,
				"element": "H" 
			},
			{
				"x": 0.6597519177,
				"y": 4.301317484,
				"z": -1.816874529,
				"element": "H" 
			},
			{
				"x": -0.4518502324,
				"y": 2.9674679318,
				"z": -1.5018893733,
				"element": "H" 
			},
			{
				"x": 2.4794560523,
				"y": 3.1481808345,
				"z": -0.6424833317,
				"element": "H" 
			},
			{
				"x": 1.0937080303,
				"y": 3.2811311936,
				"z": 0.4286156851,
				"element": "H" 
			}
		],
		 "valence_orbital": [ 
			{
				"type": "occ",
				"energy": -0.28995,
				"method": "rhf"
			},
			{
				"type": "occ",
				"energy": -0.28539,
				"method": "rhf"
			},
			{
				"type": "occ",
				"energy": -0.25348,
				"method": "rhf"
			},
			{
				"type": "occ",
				"energy": -0.2484,
				"method": "rhf"
			},
			{
				"type": "occ",
				"energy": -0.24158,
				"method": "rhf"
			},
			{
				"type": "unocc",
				"energy": -0.00858,
				"method": "rhf"
			},
			{
				"type": "unocc",
				"energy": -0.00403,
				"method": "rhf"
			},
			{
				"type": "unocc",
				"energy": 0.07711,
				"method": "rhf"
			},
			{
				"type": "unocc",
				"energy": 0.09272,
				"method": "rhf"
			},
			{
				"type": "unocc",
				"energy": 0.10035,
				"method": "rhf"
			}
		],
		"cosmo_sigma_profile": { 
			"-0.025": 0.0,
			"-0.024": 0.0,
			"-0.023": 0.0,
			"-0.022": 0.0,
			"-0.021": 0.0,
			"-0.02": 0.0,
			"-0.019": 0.0,
			"-0.018": 0.0,
			"-0.017": 0.0,
			"-0.016": 0.49299416783,
			"-0.015": 0.929062388684,
			"-0.014": 1.09704611367,
			"-0.013": 0.930803316181,
			"-0.012": 1.12473442453,
			"-0.011": 0.712540967357,
			"-0.01": 0.741733302593,
			"-0.009": 0.530230103375,
			"-0.008": 1.05545465086,
			"-0.007": 1.53421707253,
			"-0.006": 3.06968053707,
			"-0.005": 11.1058996102,
			"-0.004": 18.8823099759,
			"-0.003": 23.4360162867,
			"-0.002": 26.2271975778,
			"-0.001": 32.4649940352,
			"0.0": 35.3814613731,
			"0.001": 34.3721643597,
			"0.002": 26.7429753034,
			"0.003": 11.5792791343,
			"0.004": 10.5504472348,
			"0.005": 10.6266217198,
			"0.006": 9.36231624735,
			"0.007": 2.09836298685,
			"0.008": 1.81953153755,
			"0.009": 2.64468045966,
			"0.01": 1.91185876014,
			"0.011": 1.6867347645,
			"0.012": 1.67136602365,
			"0.013": 2.15401633542,
			"0.014": 0.261594334872,
			"0.015": 0.087201875447,
			"0.016": 0.0,
			"0.017": 0.0,
			"0.018": 0.0,
			"0.019": 0.0,
			"0.02": 0.0,
			"0.021": 0.0,
			"0.022": 0.0,
			"0.023": 0.0,
			"0.024": 0.0,
			"0.025": 0.0
		}
	}
}
