{
	 "smiles": "CN1C=C(Br)C(=N1)[N+]([O-])=O", 
	 "Tm": 431.15, 
	 "num_atms": 14, 
	 "gaussian": { 
		 "optdone": 1, 
		 "sigma_profile": "yes", 
		 "theory": "DFT", 
		 "functional": "B3LYP", 
		 "basiset": "6-31G**", 
		 "properties": { 
			 "R2extent": 3482.679, 
			 "electric_dipole_moment_norm": 6.94504869025, 
			 "electric_quadrupole_moment_norm": 12.2354956753, 
			 "total_energy": -3040.79849519, 
			 "HOMO_LUMO_gap": 0.17875, 
			 "cosmo_polarized_energy": -14.72, 
			 "cosmo_cavitation_energy": 21.88, 
			 "cosmo_dispersion_energy": -16.58, 
			 "cosmo_repulsion_energy": 1.36, 
			 "cosmo_total_nonelectrostatic_energy": 6.67, 
			 "SMD_solvation_energy": 4.8 
		},
		"coords": [
			{
				"x": 1.8343347597,
				"y": 0.6119506137,
				"z": -1.1254221266,
				"element": "C" 
			},
			{
				"x": 0.6314953121,
				"y": -0.1881380119,
				"z": -0.9431870156,
				"element": "N" 
			},
			{
				"x": 0.4609367006,
				"y": -1.2621797542,
				"z": -0.1241760684,
				"element": "C" 
			},
			{
				"x": -0.8448360899,
				"y": -1.6835008042,
				"z": -0.2905908191,
				"element": "C" 
			},
			{
				"x": -1.6210840432,
				"y": -3.1354431995,
				"z": 0.6008142277,
				"element": "Br" 
			},
			{
				"x": -1.3709789431,
				"y": -0.7794081282,
				"z": -1.2429150426,
				"element": "C" 
			},
			{
				"x": -0.4701255065,
				"y": 0.1212369998,
				"z": -1.6312225999,
				"element": "N" 
			},
			{
				"x": -2.7056373508,
				"y": -0.7297077775,
				"z": -1.8090754716,
				"element": "N" 
			},
			{
				"x": -3.4990038677,
				"y": -1.5853979991,
				"z": -1.4149450262,
				"element": "O" 
			},
			{
				"x": -2.9465245616,
				"y": 0.1506116959,
				"z": -2.628451239,
				"element": "O" 
			},
			{
				"x": 1.6338571002,
				"y": 1.6477732981,
				"z": -0.843797195,
				"element": "H" 
			},
			{
				"x": 2.1448187307,
				"y": 0.5754483312,
				"z": -2.1716033243,
				"element": "H" 
			},
			{
				"x": 2.624365692,
				"y": 0.2054833402,
				"z": -0.493175956,
				"element": "H" 
			},
			{
				"x": 1.2487820675,
				"y": -1.6489286042,
				"z": 0.5038476564,
				"element": "H" 
			}
		],
		 "valence_orbital": [ 
			{
				"type": "occ",
				"energy": -0.30378,
				"method": "rhf"
			},
			{
				"type": "occ",
				"energy": -0.29491,
				"method": "rhf"
			},
			{
				"type": "occ",
				"energy": -0.2936,
				"method": "rhf"
			},
			{
				"type": "occ",
				"energy": -0.28004,
				"method": "rhf"
			},
			{
				"type": "occ",
				"energy": -0.26031,
				"method": "rhf"
			},
			{
				"type": "unocc",
				"energy": -0.08156,
				"method": "rhf"
			},
			{
				"type": "unocc",
				"energy": -0.0128,
				"method": "rhf"
			},
			{
				"type": "unocc",
				"energy": -0.00289,
				"method": "rhf"
			},
			{
				"type": "unocc",
				"energy": 0.05576,
				"method": "rhf"
			},
			{
				"type": "unocc",
				"energy": 0.07307,
				"method": "rhf"
			}
		],
		"cosmo_sigma_profile": { 
			"-0.025": 0.0,
			"-0.024": 0.0,
			"-0.023": 0.0,
			"-0.022": 0.0,
			"-0.021": 0.0,
			"-0.02": 0.0,
			"-0.019": 0.0,
			"-0.018": 0.0,
			"-0.017": 0.0,
			"-0.016": 0.0,
			"-0.015": 0.0,
			"-0.014": 0.0,
			"-0.013": 0.0,
			"-0.012": 0.826640312099,
			"-0.011": 3.23271881509,
			"-0.01": 2.22391760966,
			"-0.009": 2.80220222933,
			"-0.008": 4.85450545223,
			"-0.007": 9.05621436501,
			"-0.006": 10.09600269,
			"-0.005": 14.0170752493,
			"-0.004": 13.2765930955,
			"-0.003": 8.31891718652,
			"-0.002": 11.081584999,
			"-0.001": 10.5934544522,
			"0.0": 10.0967866689,
			"0.001": 8.35601068501,
			"0.002": 8.114997573,
			"0.003": 11.2677283764,
			"0.004": 7.09397803979,
			"0.005": 4.62143325032,
			"0.006": 4.82725586869,
			"0.007": 8.65782567951,
			"0.008": 11.7063428226,
			"0.009": 5.94004604232,
			"0.01": 3.77507484465,
			"0.011": 1.38150955491,
			"0.012": 1.24090590254,
			"0.013": 1.29078398556,
			"0.014": 0.37471488784,
			"0.015": 0.0,
			"0.016": 0.0,
			"0.017": 0.0,
			"0.018": 0.0,
			"0.019": 0.0,
			"0.02": 0.0,
			"0.021": 0.0,
			"0.022": 0.0,
			"0.023": 0.0,
			"0.024": 0.0,
			"0.025": 0.0
		}
	}
}
