{
	 "smiles": "CCOC(=O)C1=C(N)N(N=C1SC)C(=O)C1=CC=C(OC)C=C1", 
	 "Tm": 433.15, 
	 "num_atms": 40, 
	 "gaussian": { 
		 "optdone": 1, 
		 "sigma_profile": "yes", 
		 "theory": "DFT", 
		 "functional": "B3LYP", 
		 "basiset": "6-31G**", 
		 "properties": { 
			 "R2extent": 11701.4666, 
			 "electric_dipole_moment_norm": 5.02338736213, 
			 "electric_quadrupole_moment_norm": 32.1594877725, 
			 "total_energy": -1445.17802342, 
			 "HOMO_LUMO_gap": 0.14864, 
			 "cosmo_polarized_energy": -20.61, 
			 "cosmo_cavitation_energy": 45.91, 
			 "cosmo_dispersion_energy": -32.8, 
			 "cosmo_repulsion_energy": 2.49, 
			 "cosmo_total_nonelectrostatic_energy": 15.6, 
			 "SMD_solvation_energy": 9.74 
		},
		"coords": [
			{
				"x": -5.2665578658,
				"y": -0.3865104208,
				"z": -4.4907999505,
				"element": "C" 
			},
			{
				"x": -3.9523077751,
				"y": 0.3494131447,
				"z": -4.7048797744,
				"element": "C" 
			},
			{
				"x": -2.8975169192,
				"y": -0.2090361004,
				"z": -3.8880209497,
				"element": "O" 
			},
			{
				"x": -2.7943909847,
				"y": 0.2476522045,
				"z": -2.6217639445,
				"element": "C" 
			},
			{
				"x": -3.5355123156,
				"y": 1.1149057069,
				"z": -2.1557187201,
				"element": "O" 
			},
			{
				"x": -1.7286098747,
				"y": -0.3859048338,
				"z": -1.8767939948,
				"element": "C" 
			},
			{
				"x": -1.4438823512,
				"y": -0.0559833656,
				"z": -0.5472612721,
				"element": "C" 
			},
			{
				"x": -2.0543906663,
				"y": 0.8960099458,
				"z": 0.19528126,
				"element": "N" 
			},
			{
				"x": -0.4107804474,
				"y": -0.8791095568,
				"z": -0.1464857466,
				"element": "N" 
			},
			{
				"x": -0.0510951679,
				"y": -1.7692608997,
				"z": -1.1634296806,
				"element": "N" 
			},
			{
				"x": -0.815918827,
				"y": -1.4536690531,
				"z": -2.1840101817,
				"element": "C" 
			},
			{
				"x": -0.6797007253,
				"y": -2.2901561677,
				"z": -3.7282678664,
				"element": "S" 
			},
			{
				"x": 0.6338609222,
				"y": -3.4889086948,
				"z": -3.3097895239,
				"element": "C" 
			},
			{
				"x": 0.0989055714,
				"y": -1.1412161751,
				"z": 1.1649010541,
				"element": "C" 
			},
			{
				"x": 0.4018535175,
				"y": -2.2717700673,
				"z": 1.4837869778,
				"element": "O" 
			},
			{
				"x": 0.2710765585,
				"y": 0.0238944091,
				"z": 2.0734752695,
				"element": "C" 
			},
			{
				"x": 0.6012676976,
				"y": 1.3158292973,
				"z": 1.6194432599,
				"element": "C" 
			},
			{
				"x": 0.8604692574,
				"y": 2.3346186928,
				"z": 2.52259785,
				"element": "C" 
			},
			{
				"x": 0.7900044969,
				"y": 2.0896661527,
				"z": 3.9051116029,
				"element": "C" 
			},
			{
				"x": 1.0510482716,
				"y": 3.1547340428,
				"z": 4.7031052442,
				"element": "O" 
			},
			{
				"x": 1.0220714408,
				"y": 2.9749415764,
				"z": 6.1141075855,
				"element": "C" 
			},
			{
				"x": 0.4699661877,
				"y": 0.8042896963,
				"z": 4.3708063337,
				"element": "C" 
			},
			{
				"x": 0.2293498937,
				"y": -0.2148519499,
				"z": 3.454635693,
				"element": "C" 
			},
			{
				"x": -6.0261726801,
				"y": 0.0019202766,
				"z": -5.1777030306,
				"element": "H" 
			},
			{
				"x": -5.6235750407,
				"y": -0.2437228135,
				"z": -3.4679472708,
				"element": "H" 
			},
			{
				"x": -5.1470357435,
				"y": -1.4574048488,
				"z": -4.6787259267,
				"element": "H" 
			},
			{
				"x": -3.589668684,
				"y": 0.2321868455,
				"z": -5.7286127803,
				"element": "H" 
			},
			{
				"x": -4.0521606862,
				"y": 1.4123714597,
				"z": -4.4733731453,
				"element": "H" 
			},
			{
				"x": -1.9663900143,
				"y": 0.9034477886,
				"z": 1.1977328126,
				"element": "H" 
			},
			{
				"x": -2.8773780047,
				"y": 1.2887413406,
				"z": -0.2536048066,
				"element": "H" 
			},
			{
				"x": 1.5547594745,
				"y": -2.972500385,
				"z": -3.0370182715,
				"element": "H" 
			},
			{
				"x": 0.3211123161,
				"y": -4.1288196225,
				"z": -2.4840668342,
				"element": "H" 
			},
			{
				"x": 0.7892013422,
				"y": -4.0847408495,
				"z": -4.2115401465,
				"element": "H" 
			},
			{
				"x": 0.6713667944,
				"y": 1.5149877694,
				"z": 0.5556727087,
				"element": "H" 
			},
			{
				"x": 1.1290740017,
				"y": 3.3305320133,
				"z": 2.1871513939,
				"element": "H" 
			},
			{
				"x": 0.0282189059,
				"y": 2.665360957,
				"z": 6.4598407494,
				"element": "H" 
			},
			{
				"x": 1.2658533149,
				"y": 3.9471769523,
				"z": 6.5436248296,
				"element": "H" 
			},
			{
				"x": 1.7654182773,
				"y": 2.2375849393,
				"z": 6.4403861912,
				"element": "H" 
			},
			{
				"x": 0.4173280485,
				"y": 0.5917315812,
				"z": 5.4316045594,
				"element": "H" 
			},
			{
				"x": 0.0107384828,
				"y": -1.2198309885,
				"z": 3.8004484424,
				"element": "H" 
			}
		],
		 "valence_orbital": [ 
			{
				"type": "occ",
				"energy": -0.27309,
				"method": "rhf"
			},
			{
				"type": "occ",
				"energy": -0.2648,
				"method": "rhf"
			},
			{
				"type": "occ",
				"energy": -0.2411,
				"method": "rhf"
			},
			{
				"type": "occ",
				"energy": -0.22216,
				"method": "rhf"
			},
			{
				"type": "occ",
				"energy": -0.20672,
				"method": "rhf"
			},
			{
				"type": "unocc",
				"energy": -0.05808,
				"method": "rhf"
			},
			{
				"type": "unocc",
				"energy": -0.02128,
				"method": "rhf"
			},
			{
				"type": "unocc",
				"energy": -0.00713,
				"method": "rhf"
			},
			{
				"type": "unocc",
				"energy": 0.01591,
				"method": "rhf"
			},
			{
				"type": "unocc",
				"energy": 0.04824,
				"method": "rhf"
			}
		],
		"cosmo_sigma_profile": { 
			"-0.025": 0.0,
			"-0.024": 0.0,
			"-0.023": 0.0,
			"-0.022": 0.0,
			"-0.021": 0.0,
			"-0.02": 0.0,
			"-0.019": 0.0,
			"-0.018": 0.0,
			"-0.017": 0.0,
			"-0.016": 0.0,
			"-0.015": 0.0,
			"-0.014": 0.124479851188,
			"-0.013": 0.865086432458,
			"-0.012": 0.966555018163,
			"-0.011": 2.22848562143,
			"-0.01": 2.50447725696,
			"-0.009": 1.761989069,
			"-0.008": 2.72267977884,
			"-0.007": 9.14951616332,
			"-0.006": 21.9806534242,
			"-0.005": 26.0411278164,
			"-0.004": 31.2887945158,
			"-0.003": 33.1488520487,
			"-0.002": 26.6659666653,
			"-0.001": 29.9860451143,
			"0.0": 27.3916538378,
			"0.001": 24.0287382165,
			"0.002": 25.0794335871,
			"0.003": 21.9848499649,
			"0.004": 12.392141686,
			"0.005": 9.28607358634,
			"0.006": 11.0182743501,
			"0.007": 10.8272828048,
			"0.008": 8.8889784416,
			"0.009": 6.00207522727,
			"0.01": 4.66728149093,
			"0.011": 6.99270406455,
			"0.012": 4.00622539616,
			"0.013": 1.87848683779,
			"0.014": 1.56576366458,
			"0.015": 0.940741952888,
			"0.016": 0.732470359829,
			"0.017": 0.00245097991663,
			"0.018": 0.0,
			"0.019": 0.0,
			"0.02": 0.0,
			"0.021": 0.0,
			"0.022": 0.0,
			"0.023": 0.0,
			"0.024": 0.0,
			"0.025": 0.0
		}
	}
}
