{
	 "smiles": "CC1(C)S[C@@H]2[C@H](NC(=O)COC3=CC=CC=C3)C(=O)N2[C@H]1C(O)=O", 
	 "Tm": 397.15, 
	 "num_atms": 42, 
	 "gaussian": { 
		 "optdone": 1, 
		 "sigma_profile": "yes", 
		 "theory": "DFT", 
		 "functional": "B3LYP", 
		 "basiset": "6-31G**", 
		 "properties": { 
			 "R2extent": 12057.4969, 
			 "electric_dipole_moment_norm": 3.026683178, 
			 "electric_quadrupole_moment_norm": 24.5077056707, 
			 "total_energy": -1504.35951277, 
			 "HOMO_LUMO_gap": 0.20892, 
			 "cosmo_polarized_energy": -22.37, 
			 "cosmo_cavitation_energy": 47.54, 
			 "cosmo_dispersion_energy": -32.46, 
			 "cosmo_repulsion_energy": 2.45, 
			 "cosmo_total_nonelectrostatic_energy": 17.53, 
			 "SMD_solvation_energy": 8.62 
		},
		"coords": [
			{
				"x": -2.3752781106,
				"y": 0.9900946141,
				"z": -3.9069974414,
				"element": "C" 
			},
			{
				"x": -1.1662599327,
				"y": 0.4019060043,
				"z": -3.1582510913,
				"element": "C" 
			},
			{
				"x": 0.140014975,
				"y": 0.7831462222,
				"z": -3.8617750445,
				"element": "C" 
			},
			{
				"x": -1.1510161168,
				"y": 1.0554434142,
				"z": -1.3982615376,
				"element": "S" 
			},
			{
				"x": -2.3210861871,
				"y": -0.2681784633,
				"z": -0.8906134401,
				"element": "C" 
			},
			{
				"x": -1.9398521391,
				"y": -1.0958565275,
				"z": 0.3823176125,
				"element": "C" 
			},
			{
				"x": -1.0894176973,
				"y": -0.5372982979,
				"z": 1.3813153752,
				"element": "N" 
			},
			{
				"x": -1.4703391365,
				"y": -0.4735747144,
				"z": 2.6910556409,
				"element": "C" 
			},
			{
				"x": -2.5577338302,
				"y": -0.8375127604,
				"z": 3.1148274399,
				"element": "O" 
			},
			{
				"x": -0.4305160611,
				"y": 0.0984447475,
				"z": 3.6507059873,
				"element": "C" 
			},
			{
				"x": 0.7417982103,
				"y": 0.4752994481,
				"z": 2.9478608745,
				"element": "O" 
			},
			{
				"x": 1.7956871272,
				"y": 1.0064380164,
				"z": 3.6508449264,
				"element": "C" 
			},
			{
				"x": 2.9200816437,
				"y": 1.350506306,
				"z": 2.8892057785,
				"element": "C" 
			},
			{
				"x": 4.0367010226,
				"y": 1.8962372654,
				"z": 3.5132439917,
				"element": "C" 
			},
			{
				"x": 4.046553907,
				"y": 2.1048993446,
				"z": 4.8966351643,
				"element": "C" 
			},
			{
				"x": 2.9242333846,
				"y": 1.7599238346,
				"z": 5.6457811757,
				"element": "C" 
			},
			{
				"x": 1.7926594415,
				"y": 1.209915774,
				"z": 5.0340782686,
				"element": "C" 
			},
			{
				"x": -1.3077004213,
				"y": -2.0756259305,
				"z": -0.6433336417,
				"element": "C" 
			},
			{
				"x": -0.5016986257,
				"y": -2.9691760746,
				"z": -0.6216845447,
				"element": "O" 
			},
			{
				"x": -1.9429811338,
				"y": -1.4292022647,
				"z": -1.7151841715,
				"element": "N" 
			},
			{
				"x": -1.2730222649,
				"y": -1.1665217849,
				"z": -2.9801106239,
				"element": "C" 
			},
			{
				"x": -1.9124083442,
				"y": -1.8127103422,
				"z": -4.2048272901,
				"element": "C" 
			},
			{
				"x": -3.1713544451,
				"y": -2.2414359539,
				"z": -4.001378138,
				"element": "O" 
			},
			{
				"x": -1.3386652345,
				"y": -1.9056554867,
				"z": -5.2691756401,
				"element": "O" 
			},
			{
				"x": -2.3759641511,
				"y": 0.6565737754,
				"z": -4.9504281155,
				"element": "H" 
			},
			{
				"x": -3.3247416671,
				"y": 0.6936623148,
				"z": -3.452479376,
				"element": "H" 
			},
			{
				"x": -2.3207227566,
				"y": 2.0810307444,
				"z": -3.9007097734,
				"element": "H" 
			},
			{
				"x": 0.1626344074,
				"y": 0.3209779129,
				"z": -4.8535165971,
				"element": "H" 
			},
			{
				"x": 0.2135829089,
				"y": 1.867619723,
				"z": -3.98609231,
				"element": "H" 
			},
			{
				"x": 1.0114172627,
				"y": 0.4382216486,
				"z": -3.2984124829,
				"element": "H" 
			},
			{
				"x": -3.360305048,
				"y": 0.0530222997,
				"z": -0.9829656049,
				"element": "H" 
			},
			{
				"x": -2.8211550025,
				"y": -1.5022646566,
				"z": 0.8855357372,
				"element": "H" 
			},
			{
				"x": -0.1578470846,
				"y": -0.224760038,
				"z": 1.1424985458,
				"element": "H" 
			},
			{
				"x": -0.2174860005,
				"y": -0.6708013924,
				"z": 4.4044098776,
				"element": "H" 
			},
			{
				"x": -0.886267352,
				"y": 0.9561501784,
				"z": 4.1620276568,
				"element": "H" 
			},
			{
				"x": 2.8962672508,
				"y": 1.1821065587,
				"z": 1.8173942464,
				"element": "H" 
			},
			{
				"x": 4.9046614218,
				"y": 2.1598942748,
				"z": 2.9158050234,
				"element": "H" 
			},
			{
				"x": 4.9196289689,
				"y": 2.5307464324,
				"z": 5.3808936829,
				"element": "H" 
			},
			{
				"x": 2.9175725259,
				"y": 1.9159562326,
				"z": 6.7207437695,
				"element": "H" 
			},
			{
				"x": 0.9315140403,
				"y": 0.9492892781,
				"z": 5.6378856038,
				"element": "H" 
			},
			{
				"x": -0.2630128895,
				"y": -1.5878736833,
				"z": -2.9238348703,
				"element": "H" 
			},
			{
				"x": -3.4661768657,
				"y": -2.6204579939,
				"z": -4.8475346437,
				"element": "H" 
			}
		],
		 "valence_orbital": [ 
			{
				"type": "occ",
				"energy": -0.26589,
				"method": "rhf"
			},
			{
				"type": "occ",
				"energy": -0.25936,
				"method": "rhf"
			},
			{
				"type": "occ",
				"energy": -0.25746,
				"method": "rhf"
			},
			{
				"type": "occ",
				"energy": -0.24669,
				"method": "rhf"
			},
			{
				"type": "occ",
				"energy": -0.22993,
				"method": "rhf"
			},
			{
				"type": "unocc",
				"energy": -0.02101,
				"method": "rhf"
			},
			{
				"type": "unocc",
				"energy": -0.00957,
				"method": "rhf"
			},
			{
				"type": "unocc",
				"energy": -0.00804,
				"method": "rhf"
			},
			{
				"type": "unocc",
				"energy": 0.00387,
				"method": "rhf"
			},
			{
				"type": "unocc",
				"energy": 0.00732,
				"method": "rhf"
			}
		],
		"cosmo_sigma_profile": { 
			"-0.025": 0.0,
			"-0.024": 0.0,
			"-0.023": 0.0,
			"-0.022": 0.0,
			"-0.021": 0.0,
			"-0.02": 0.0,
			"-0.019": 0.596644341759,
			"-0.018": 0.957761526348,
			"-0.017": 0.870262984119,
			"-0.016": 0.97400318268,
			"-0.015": 0.350185113554,
			"-0.014": 0.305188978408,
			"-0.013": 1.21164680491,
			"-0.012": 0.813034058949,
			"-0.011": 0.851080854958,
			"-0.01": 0.916601183465,
			"-0.009": 2.08057840451,
			"-0.008": 7.9770552521,
			"-0.007": 17.5370108372,
			"-0.006": 18.4183457312,
			"-0.005": 25.2646605727,
			"-0.004": 29.7061894486,
			"-0.003": 31.9195164786,
			"-0.002": 27.480679907,
			"-0.001": 32.5094269696,
			"0.0": 24.2127522942,
			"0.001": 17.1092891125,
			"0.002": 16.5868337404,
			"0.003": 20.0424539558,
			"0.004": 18.7530104359,
			"0.005": 17.1163492982,
			"0.006": 12.9647236037,
			"0.007": 6.6135260735,
			"0.008": 5.23265526581,
			"0.009": 7.06945496968,
			"0.01": 7.96501439173,
			"0.011": 12.3662376571,
			"0.012": 6.56825112281,
			"0.013": 4.13595160621,
			"0.014": 0.547306289623,
			"0.015": 0.0,
			"0.016": 0.0,
			"0.017": 0.0,
			"0.018": 0.0,
			"0.019": 0.0,
			"0.02": 0.0,
			"0.021": 0.0,
			"0.022": 0.0,
			"0.023": 0.0,
			"0.024": 0.0,
			"0.025": 0.0
		}
	}
}
