{
	 "smiles": "COC(=O)C1=CC(OCC(F)(F)F)=C(N)C=C1", 
	 "Tm": 391.15, 
	 "num_atms": 27, 
	 "gaussian": { 
		 "optdone": 1, 
		 "sigma_profile": "yes", 
		 "theory": "DFT", 
		 "functional": "B3LYP", 
		 "basiset": "6-31G**", 
		 "properties": { 
			 "R2extent": 6151.0367, 
			 "electric_dipole_moment_norm": 1.37760741505, 
			 "electric_quadrupole_moment_norm": 23.4754124153, 
			 "total_energy": -967.045445503, 
			 "HOMO_LUMO_gap": 0.18247, 
			 "cosmo_polarized_energy": -13.22, 
			 "cosmo_cavitation_energy": 33.19, 
			 "cosmo_dispersion_energy": -23.48, 
			 "cosmo_repulsion_energy": 1.77, 
			 "cosmo_total_nonelectrostatic_energy": 11.49, 
			 "SMD_solvation_energy": 8.35 
		},
		"coords": [
			{
				"x": -3.3473537848,
				"y": 1.7331878803,
				"z": 2.824461983,
				"element": "C" 
			},
			{
				"x": -2.2687979432,
				"y": 1.0530277222,
				"z": 2.1683803243,
				"element": "O" 
			},
			{
				"x": -2.0194349243,
				"y": -0.2019297739,
				"z": 2.6215686722,
				"element": "C" 
			},
			{
				"x": -2.6581959962,
				"y": -0.7154447871,
				"z": 3.5219084379,
				"element": "O" 
			},
			{
				"x": -0.8997155074,
				"y": -0.8519894145,
				"z": 1.9026928973,
				"element": "C" 
			},
			{
				"x": -0.1936046751,
				"y": -0.2179814928,
				"z": 0.8676636041,
				"element": "C" 
			},
			{
				"x": 0.8432955397,
				"y": -0.8778010998,
				"z": 0.2314533375,
				"element": "C" 
			},
			{
				"x": 1.5158077188,
				"y": -0.28203159,
				"z": -0.8311017065,
				"element": "O" 
			},
			{
				"x": 2.7249334348,
				"y": 0.3731163468,
				"z": -0.478241046,
				"element": "C" 
			},
			{
				"x": 3.6127011986,
				"y": 0.3935192012,
				"z": -1.7084349689,
				"element": "C" 
			},
			{
				"x": 4.7794681302,
				"y": 1.0041379051,
				"z": -1.4168757673,
				"element": "F" 
			},
			{
				"x": 3.8991660162,
				"y": -0.8621507994,
				"z": -2.1286695882,
				"element": "F" 
			},
			{
				"x": 3.0438440021,
				"y": 1.0444882416,
				"z": -2.7351003581,
				"element": "F" 
			},
			{
				"x": 1.2133165282,
				"y": -2.194725463,
				"z": 0.5906543252,
				"element": "C" 
			},
			{
				"x": 2.2754407747,
				"y": -2.7992334874,
				"z": -0.0513875577,
				"element": "N" 
			},
			{
				"x": 0.4988368292,
				"y": -2.8182424977,
				"z": 1.6302316969,
				"element": "C" 
			},
			{
				"x": -0.5363413418,
				"y": -2.1548896805,
				"z": 2.2738831032,
				"element": "C" 
			},
			{
				"x": -3.4134660212,
				"y": 2.7110911904,
				"z": 2.3469571901,
				"element": "H" 
			},
			{
				"x": -3.143969383,
				"y": 1.8413585751,
				"z": 3.893066097,
				"element": "H" 
			},
			{
				"x": -4.2838067387,
				"y": 1.1828871691,
				"z": 2.7014666956,
				"element": "H" 
			},
			{
				"x": -0.459657122,
				"y": 0.7829847111,
				"z": 0.5487524552,
				"element": "H" 
			},
			{
				"x": 3.2612167359,
				"y": -0.1565885962,
				"z": 0.3165096931,
				"element": "H" 
			},
			{
				"x": 2.5449029709,
				"y": 1.4077310841,
				"z": -0.1608954003,
				"element": "H" 
			},
			{
				"x": 2.5145457259,
				"y": -2.4197938926,
				"z": -0.9575403167,
				"element": "H" 
			},
			{
				"x": 2.3332247959,
				"y": -3.8046055854,
				"z": 0.0123526028,
				"element": "H" 
			},
			{
				"x": 0.7663968785,
				"y": -3.8297851946,
				"z": 1.9242092035,
				"element": "H" 
			},
			{
				"x": -1.0896538421,
				"y": -2.636236672,
				"z": 3.0730343907,
				"element": "H" 
			}
		],
		 "valence_orbital": [ 
			{
				"type": "occ",
				"energy": -0.30045,
				"method": "rhf"
			},
			{
				"type": "occ",
				"energy": -0.2949,
				"method": "rhf"
			},
			{
				"type": "occ",
				"energy": -0.26591,
				"method": "rhf"
			},
			{
				"type": "occ",
				"energy": -0.25613,
				"method": "rhf"
			},
			{
				"type": "occ",
				"energy": -0.21608,
				"method": "rhf"
			},
			{
				"type": "unocc",
				"energy": -0.03361,
				"method": "rhf"
			},
			{
				"type": "unocc",
				"energy": -0.00716,
				"method": "rhf"
			},
			{
				"type": "unocc",
				"energy": 0.0612,
				"method": "rhf"
			},
			{
				"type": "unocc",
				"energy": 0.0731,
				"method": "rhf"
			},
			{
				"type": "unocc",
				"energy": 0.08804,
				"method": "rhf"
			}
		],
		"cosmo_sigma_profile": { 
			"-0.025": 0.0,
			"-0.024": 0.0,
			"-0.023": 0.0,
			"-0.022": 0.0,
			"-0.021": 0.0,
			"-0.02": 0.0,
			"-0.019": 0.0,
			"-0.018": 0.0,
			"-0.017": 0.0,
			"-0.016": 0.0,
			"-0.015": 0.0,
			"-0.014": 0.621513096896,
			"-0.013": 1.47487168131,
			"-0.012": 1.15132048971,
			"-0.011": 1.60798622609,
			"-0.01": 2.20638830492,
			"-0.009": 3.06963325061,
			"-0.008": 6.87621850273,
			"-0.007": 7.34498725772,
			"-0.006": 12.1056884389,
			"-0.005": 16.6289367616,
			"-0.004": 15.2037101297,
			"-0.003": 17.0205334406,
			"-0.002": 14.1030617526,
			"-0.001": 14.5327838637,
			"0.0": 14.9459876079,
			"0.001": 18.0716215162,
			"0.002": 36.9342619641,
			"0.003": 32.1291944904,
			"0.004": 14.2134347953,
			"0.005": 6.79418331818,
			"0.006": 6.51069883126,
			"0.007": 3.81867103098,
			"0.008": 2.53656398648,
			"0.009": 2.92861576433,
			"0.01": 2.61694682723,
			"0.011": 2.13923191206,
			"0.012": 4.57629059832,
			"0.013": 2.15151151403,
			"0.014": 0.0,
			"0.015": 0.0,
			"0.016": 0.0,
			"0.017": 0.0,
			"0.018": 0.0,
			"0.019": 0.0,
			"0.02": 0.0,
			"0.021": 0.0,
			"0.022": 0.0,
			"0.023": 0.0,
			"0.024": 0.0,
			"0.025": 0.0
		}
	}
}
