{
	 "smiles": "NC1=CC=CN=C1N", 
	 "Tm": 388.15, 
	 "num_atms": 15, 
	 "gaussian": { 
		 "optdone": 1, 
		 "sigma_profile": "yes", 
		 "theory": "DFT", 
		 "functional": "B3LYP", 
		 "basiset": "6-31G**", 
		 "properties": { 
			 "R2extent": 1228.5791, 
			 "electric_dipole_moment_norm": 2.43419569673, 
			 "electric_quadrupole_moment_norm": 5.79662389931, 
			 "total_energy": -359.012005557, 
			 "HOMO_LUMO_gap": 0.1934, 
			 "cosmo_polarized_energy": -11.37, 
			 "cosmo_cavitation_energy": 18.49, 
			 "cosmo_dispersion_energy": -14.25, 
			 "cosmo_repulsion_energy": 1.19, 
			 "cosmo_total_nonelectrostatic_energy": 5.44, 
			 "SMD_solvation_energy": 1.89 
		},
		"coords": [
			{
				"x": 0.7112355854,
				"y": 1.7423546988,
				"z": 1.0348671804,
				"element": "N" 
			},
			{
				"x": -0.0213476212,
				"y": 1.1910803196,
				"z": -0.0311546238,
				"element": "C" 
			},
			{
				"x": 0.5508298259,
				"y": 0.6379979125,
				"z": -1.1711637771,
				"element": "C" 
			},
			{
				"x": -0.2759281772,
				"y": 0.1408911642,
				"z": -2.186575258,
				"element": "C" 
			},
			{
				"x": -1.6516903914,
				"y": 0.2071977383,
				"z": -2.009959428,
				"element": "C" 
			},
			{
				"x": -2.2281121235,
				"y": 0.7566221339,
				"z": -0.9271022461,
				"element": "N" 
			},
			{
				"x": -1.4395175808,
				"y": 1.2424395361,
				"z": 0.027413052,
				"element": "C" 
			},
			{
				"x": -2.0390082463,
				"y": 1.7819612145,
				"z": 1.1704797243,
				"element": "N" 
			},
			{
				"x": 1.6992536274,
				"y": 1.5211172304,
				"z": 0.9994818464,
				"element": "H" 
			},
			{
				"x": 0.3253054138,
				"y": 1.4843843796,
				"z": 1.9384411502,
				"element": "H" 
			},
			{
				"x": 1.6336317227,
				"y": 0.5842768365,
				"z": -1.260570418,
				"element": "H" 
			},
			{
				"x": 0.1478041767,
				"y": -0.2970503911,
				"z": -3.084330618,
				"element": "H" 
			},
			{
				"x": -2.3311795787,
				"y": -0.1808916998,
				"z": -2.7657315954,
				"element": "H" 
			},
			{
				"x": -1.6042166471,
				"y": 2.6442510695,
				"z": 1.4828137222,
				"element": "H" 
			},
			{
				"x": -3.0387599857,
				"y": 1.885767857,
				"z": 1.041391289,
				"element": "H" 
			}
		],
		 "valence_orbital": [ 
			{
				"type": "occ",
				"energy": -0.32376,
				"method": "rhf"
			},
			{
				"type": "occ",
				"energy": -0.30714,
				"method": "rhf"
			},
			{
				"type": "occ",
				"energy": -0.24863,
				"method": "rhf"
			},
			{
				"type": "occ",
				"energy": -0.24592,
				"method": "rhf"
			},
			{
				"type": "occ",
				"energy": -0.19437,
				"method": "rhf"
			},
			{
				"type": "unocc",
				"energy": -0.00097,
				"method": "rhf"
			},
			{
				"type": "unocc",
				"energy": 0.02048,
				"method": "rhf"
			},
			{
				"type": "unocc",
				"energy": 0.07535,
				"method": "rhf"
			},
			{
				"type": "unocc",
				"energy": 0.10483,
				"method": "rhf"
			},
			{
				"type": "unocc",
				"energy": 0.12121,
				"method": "rhf"
			}
		],
		"cosmo_sigma_profile": { 
			"-0.025": 0.0,
			"-0.024": 0.0,
			"-0.023": 0.0,
			"-0.022": 0.0,
			"-0.021": 0.0,
			"-0.02": 0.0,
			"-0.019": 0.0,
			"-0.018": 0.0,
			"-0.017": 0.0,
			"-0.016": 0.0,
			"-0.015": 0.0,
			"-0.014": 0.0,
			"-0.013": 0.273116141084,
			"-0.012": 2.02346596545,
			"-0.011": 3.88849585907,
			"-0.01": 4.38440836944,
			"-0.009": 6.55347758777,
			"-0.008": 3.99553385291,
			"-0.007": 4.8873307335,
			"-0.006": 6.9321045954,
			"-0.005": 8.34358970979,
			"-0.004": 8.6817504473,
			"-0.003": 7.60589775525,
			"-0.002": 6.65399771926,
			"-0.001": 6.07683769013,
			"0.0": 6.67163457823,
			"0.001": 5.87615110824,
			"0.002": 6.84133780447,
			"0.003": 8.73323484166,
			"0.004": 9.71876714806,
			"0.005": 11.6236856768,
			"0.006": 6.09644938829,
			"0.007": 2.7050564686,
			"0.008": 3.14050692629,
			"0.009": 2.74850150557,
			"0.01": 1.58427766278,
			"0.011": 2.78172914647,
			"0.012": 2.36291383595,
			"0.013": 1.90304740478,
			"0.014": 1.54587405711,
			"0.015": 0.887293706366,
			"0.016": 0.768327949751,
			"0.017": 0.101346897269,
			"0.018": 0.0,
			"0.019": 0.0,
			"0.02": 0.0,
			"0.021": 0.0,
			"0.022": 0.0,
			"0.023": 0.0,
			"0.024": 0.0,
			"0.025": 0.0
		}
	}
}
