{
	 "smiles": "OCC(I)CC(F)(F)C(F)(F)C(F)(F)C(F)(F)C(F)(F)C(F)(F)F", 
	 "Tm": 318.65, 
	 "num_atms": 30, 
	 "gaussian": { 
		 "optdone": 1, 
		 "sigma_profile": "no", 
		 "theory": "DFT", 
		 "functional": "B3LYP", 
		 "basiset": "6-31G**", 
		 "properties": { 
			 "R2extent": 10610.6821, 
			 "electric_dipole_moment_norm": 1.18077931469, 
			 "electric_quadrupole_moment_norm": 5.10361958712, 
			 "total_energy": -1731.06326376, 
			 "HOMO_LUMO_gap": 0.20885, 
			 "cosmo_polarized_energy": -82892.13, 
			 "cosmo_cavitation_energy": 40.54, 
			 "cosmo_dispersion_energy": -27.89, 
			 "cosmo_repulsion_energy": 1.88, 
			 "cosmo_total_nonelectrostatic_energy": 14.53, 
			 "SMD_solvation_energy": 9.72 
		},
		"coords": [
			{
				"x": 0.4698286146,
				"y": 1.1216762958,
				"z": 3.3862071312,
				"element": "O" 
			},
			{
				"x": 0.8135406242,
				"y": -0.0315528082,
				"z": 2.6570645032,
				"element": "C" 
			},
			{
				"x": 1.3043000955,
				"y": 0.2683689439,
				"z": 1.2378770644,
				"element": "C" 
			},
			{
				"x": 3.1313167763,
				"y": 1.5252580817,
				"z": 1.3561073302,
				"element": "I" 
			},
			{
				"x": 1.6493258807,
				"y": -0.9561491152,
				"z": 0.3824825564,
				"element": "C" 
			},
			{
				"x": 0.5023316637,
				"y": -1.9059024788,
				"z": 0.0390790449,
				"element": "C" 
			},
			{
				"x": -0.0126505597,
				"y": -2.4736544328,
				"z": 1.1729707294,
				"element": "F" 
			},
			{
				"x": 1.003155166,
				"y": -2.9193923514,
				"z": -0.720841092,
				"element": "F" 
			},
			{
				"x": -0.7268641726,
				"y": -1.3274086982,
				"z": -0.7193381107,
				"element": "C" 
			},
			{
				"x": -1.5540457399,
				"y": -2.3557176932,
				"z": -1.0180642803,
				"element": "F" 
			},
			{
				"x": -1.3748085362,
				"y": -0.4730843221,
				"z": 0.1155051208,
				"element": "F" 
			},
			{
				"x": -0.4016760515,
				"y": -0.5612885158,
				"z": -2.0327912616,
				"element": "C" 
			},
			{
				"x": 0.1173757447,
				"y": 0.6508207818,
				"z": -1.6945941762,
				"element": "F" 
			},
			{
				"x": 0.5318044297,
				"y": -1.2465477784,
				"z": -2.7304726862,
				"element": "F" 
			},
			{
				"x": -1.6364508461,
				"y": -0.3381807666,
				"z": -2.9567666787,
				"element": "C" 
			},
			{
				"x": -1.8998012179,
				"y": -1.5020171417,
				"z": -3.5931529608,
				"element": "F" 
			},
			{
				"x": -2.701085141,
				"y": 0.0058405893,
				"z": -2.1978770601,
				"element": "F" 
			},
			{
				"x": -1.421289996,
				"y": 0.7767176618,
				"z": -4.0197507484,
				"element": "C" 
			},
			{
				"x": -0.1886845018,
				"y": 0.6426255843,
				"z": -4.5636195379,
				"element": "F" 
			},
			{
				"x": -1.5121618668,
				"y": 1.9767137168,
				"z": -3.4081405786,
				"element": "F" 
			},
			{
				"x": -2.4528582188,
				"y": 0.75379564,
				"z": -5.1792043212,
				"element": "C" 
			},
			{
				"x": -2.2372871511,
				"y": -0.2953126719,
				"z": -5.9784166078,
				"element": "F" 
			},
			{
				"x": -2.3242044705,
				"y": 1.8765736211,
				"z": -5.8948378903,
				"element": "F" 
			},
			{
				"x": -3.6990360148,
				"y": 0.6890479195,
				"z": -4.6915966618,
				"element": "F" 
			},
			{
				"x": 1.279952558,
				"y": 1.6282029334,
				"z": 3.543952929,
				"element": "H" 
			},
			{
				"x": 1.5501587085,
				"y": -0.6606793943,
				"z": 3.1800591718,
				"element": "H" 
			},
			{
				"x": -0.1082637563,
				"y": -0.6127431813,
				"z": 2.5619864045,
				"element": "H" 
			},
			{
				"x": 0.6053735277,
				"y": 0.9329321128,
				"z": 0.7349244299,
				"element": "H" 
			},
			{
				"x": 2.3910160938,
				"y": -1.5795109785,
				"z": 0.8926797016,
				"element": "H" 
			},
			{
				"x": 2.0942883576,
				"y": -0.6407315537,
				"z": -0.5631314648,
				"element": "H" 
			}
		],
		 "valence_orbital": [ 
			{
				"type": "occ",
				"energy": -0.34399,
				"method": "rhf"
			},
			{
				"type": "occ",
				"energy": -0.32985,
				"method": "rhf"
			},
			{
				"type": "occ",
				"energy": -0.28935,
				"method": "rhf"
			},
			{
				"type": "occ",
				"energy": -0.27904,
				"method": "rhf"
			},
			{
				"type": "occ",
				"energy": -0.27314,
				"method": "rhf"
			},
			{
				"type": "unocc",
				"energy": -0.06429,
				"method": "rhf"
			},
			{
				"type": "unocc",
				"energy": 0.00331,
				"method": "rhf"
			},
			{
				"type": "unocc",
				"energy": 0.01425,
				"method": "rhf"
			},
			{
				"type": "unocc",
				"energy": 0.0301,
				"method": "rhf"
			},
			{
				"type": "unocc",
				"energy": 0.03334,
				"method": "rhf"
			}
		],
		"cosmo_sigma_profile": { 
			"0.0": 0.0,
			"0.0": 0.0,
			"0.0": 0.0,
			"0.0": 0.0,
			"0.0": 0.0,
			"0.0": 0.0,
			"0.0": 0.0,
			"0.0": 0.0,
			"0.0": 0.0,
			"0.0": 0.0,
			"0.0": 0.0,
			"0.0": 0.0,
			"0.0": 0.0,
			"0.0": 0.0,
			"0.0": 0.0,
			"0.0": 0.0,
			"0.0": 0.0,
			"0.0": 0.0,
			"0.0": 0.0,
			"0.0": 0.0,
			"0.0": 0.0,
			"0.0": 0.0,
			"0.0": 0.0,
			"0.0": 0.0,
			"0.0": 0.0,
			"0.0": 0.0,
			"0.0": 0.0,
			"0.0": 0.0,
			"0.0": 0.0,
			"0.0": 0.0,
			"0.0": 0.0,
			"0.0": 0.0,
			"0.0": 0.0,
			"0.0": 0.0,
			"0.0": 0.0,
			"0.0": 0.0,
			"0.0": 0.0,
			"0.0": 0.0,
			"0.0": 0.0,
			"0.0": 0.0,
			"0.0": 0.0,
			"0.0": 0.0,
			"0.0": 0.0,
			"0.0": 0.0,
			"0.0": 0.0,
			"0.0": 0.0,
			"0.0": 0.0,
			"0.0": 0.0,
			"0.0": 0.0,
			"0.0": 0.0,
			"0.0": 0.0
		}
	}
}
