{
	 "smiles": "CCCCCCCCOC(=O)CCC", 
	 "Tm": 217.55, 
	 "num_atms": 38, 
	 "gaussian": { 
		 "optdone": 1, 
		 "sigma_profile": "yes", 
		 "theory": "DFT", 
		 "functional": "B3LYP", 
		 "basiset": "6-31G**", 
		 "properties": { 
			 "R2extent": 4418.5189, 
			 "electric_dipole_moment_norm": 1.70314899231, 
			 "electric_quadrupole_moment_norm": 10.1294641438, 
			 "total_energy": -622.231938008, 
			 "HOMO_LUMO_gap": 0.28218, 
			 "cosmo_polarized_energy": -6.08, 
			 "cosmo_cavitation_energy": 38.81, 
			 "cosmo_dispersion_energy": -25.56, 
			 "cosmo_repulsion_energy": 2.09, 
			 "cosmo_total_nonelectrostatic_energy": 15.34, 
			 "SMD_solvation_energy": 6.56 
		},
		"coords": [
			{
				"x": -3.5654859647,
				"y": 0.7443760259,
				"z": 0.0199292594,
				"element": "C" 
			},
			{
				"x": -2.9256255247,
				"y": 0.1999360312,
				"z": -1.2645071652,
				"element": "C" 
			},
			{
				"x": -3.0305304496,
				"y": -1.3278031197,
				"z": -1.4622299422,
				"element": "C" 
			},
			{
				"x": -1.9143418389,
				"y": -2.1812344858,
				"z": -0.8312314077,
				"element": "C" 
			},
			{
				"x": -1.8512391887,
				"y": -2.1836103528,
				"z": 0.7033414587,
				"element": "C" 
			},
			{
				"x": -0.9207841904,
				"y": -3.2611442358,
				"z": 1.2899105395,
				"element": "C" 
			},
			{
				"x": 0.5712390476,
				"y": -3.1753734783,
				"z": 0.9180271254,
				"element": "C" 
			},
			{
				"x": 1.3324333396,
				"y": -1.9792537639,
				"z": 1.4739427145,
				"element": "C" 
			},
			{
				"x": 0.9519760827,
				"y": -0.7900633473,
				"z": 0.7392675758,
				"element": "O" 
			},
			{
				"x": 1.5893451106,
				"y": 0.3502298332,
				"z": 1.0915935558,
				"element": "C" 
			},
			{
				"x": 2.4339299839,
				"y": 0.4000419186,
				"z": 1.961098029,
				"element": "O" 
			},
			{
				"x": 1.0850150644,
				"y": 1.5306819138,
				"z": 0.2813088648,
				"element": "C" 
			},
			{
				"x": 1.986352121,
				"y": 2.7661492226,
				"z": 0.3809328221,
				"element": "C" 
			},
			{
				"x": 3.3372088725,
				"y": 2.5941505203,
				"z": -0.3213989211,
				"element": "C" 
			},
			{
				"x": -3.4877600617,
				"y": 1.8364245997,
				"z": 0.0643331409,
				"element": "H" 
			},
			{
				"x": -4.6306553216,
				"y": 0.4888869294,
				"z": 0.0625109568,
				"element": "H" 
			},
			{
				"x": -3.09668037,
				"y": 0.3424020097,
				"z": 0.9222894887,
				"element": "H" 
			},
			{
				"x": -3.4086738196,
				"y": 0.6942415404,
				"z": -2.1170618543,
				"element": "H" 
			},
			{
				"x": -1.8688194296,
				"y": 0.4976125213,
				"z": -1.3075327525,
				"element": "H" 
			},
			{
				"x": -3.0258135356,
				"y": -1.5354934209,
				"z": -2.5399783392,
				"element": "H" 
			},
			{
				"x": -4.0083615065,
				"y": -1.6739144498,
				"z": -1.0970189571,
				"element": "H" 
			},
			{
				"x": -2.0466160264,
				"y": -3.2171547633,
				"z": -1.1762503799,
				"element": "H" 
			},
			{
				"x": -0.9491550878,
				"y": -1.8471373839,
				"z": -1.2329955248,
				"element": "H" 
			},
			{
				"x": -2.8599973605,
				"y": -2.35703068,
				"z": 1.1029067217,
				"element": "H" 
			},
			{
				"x": -1.5382937116,
				"y": -1.1988997368,
				"z": 1.0636206381,
				"element": "H" 
			},
			{
				"x": -1.2887913647,
				"y": -4.2475980978,
				"z": 0.9762434958,
				"element": "H" 
			},
			{
				"x": -1.0047816877,
				"y": -3.2435694312,
				"z": 2.3854022218,
				"element": "H" 
			},
			{
				"x": 0.7061886781,
				"y": -3.2050262647,
				"z": -0.1695540836,
				"element": "H" 
			},
			{
				"x": 1.0717579013,
				"y": -4.0706151278,
				"z": 1.3095880704,
				"element": "H" 
			},
			{
				"x": 2.4138677733,
				"y": -2.1132908943,
				"z": 1.3712865629,
				"element": "H" 
			},
			{
				"x": 1.1224804772,
				"y": -1.8203389071,
				"z": 2.537787809,
				"element": "H" 
			},
			{
				"x": 0.9560308685,
				"y": 1.2076636722,
				"z": -0.7583392022,
				"element": "H" 
			},
			{
				"x": 0.0757539716,
				"y": 1.7575356532,
				"z": 0.6505610562,
				"element": "H" 
			},
			{
				"x": 1.4503108784,
				"y": 3.6191159451,
				"z": -0.0519237251,
				"element": "H" 
			},
			{
				"x": 2.1499210239,
				"y": 2.9957182843,
				"z": 1.4391398973,
				"element": "H" 
			},
			{
				"x": 3.9399710666,
				"y": 3.5043028644,
				"z": -0.2401452484,
				"element": "H" 
			},
			{
				"x": 3.2058246374,
				"y": 2.3768789211,
				"z": -1.388092681,
				"element": "H" 
			},
			{
				"x": 3.9073995417,
				"y": 1.7753035347,
				"z": 0.1264381801,
				"element": "H" 
			}
		],
		 "valence_orbital": [ 
			{
				"type": "occ",
				"energy": -0.31411,
				"method": "rhf"
			},
			{
				"type": "occ",
				"energy": -0.30497,
				"method": "rhf"
			},
			{
				"type": "occ",
				"energy": -0.30108,
				"method": "rhf"
			},
			{
				"type": "occ",
				"energy": -0.29292,
				"method": "rhf"
			},
			{
				"type": "occ",
				"energy": -0.26703,
				"method": "rhf"
			},
			{
				"type": "unocc",
				"energy": 0.01515,
				"method": "rhf"
			},
			{
				"type": "unocc",
				"energy": 0.07229,
				"method": "rhf"
			},
			{
				"type": "unocc",
				"energy": 0.08992,
				"method": "rhf"
			},
			{
				"type": "unocc",
				"energy": 0.10064,
				"method": "rhf"
			},
			{
				"type": "unocc",
				"energy": 0.10822,
				"method": "rhf"
			}
		],
		"cosmo_sigma_profile": { 
			"-0.025": 0.0,
			"-0.024": 0.0,
			"-0.023": 0.0,
			"-0.022": 0.0,
			"-0.021": 0.0,
			"-0.02": 0.0,
			"-0.019": 0.0,
			"-0.018": 0.0,
			"-0.017": 0.0,
			"-0.016": 0.0,
			"-0.015": 0.0,
			"-0.014": 0.0,
			"-0.013": 0.0,
			"-0.012": 0.0,
			"-0.011": 0.0,
			"-0.01": 0.0,
			"-0.009": 0.0,
			"-0.008": 0.0,
			"-0.007": 0.0,
			"-0.006": 0.543732326935,
			"-0.005": 5.09667487739,
			"-0.004": 12.6120112132,
			"-0.003": 24.6488585066,
			"-0.002": 43.6372275316,
			"-0.001": 58.2784323855,
			"0.0": 58.2935945702,
			"0.001": 46.6742192514,
			"0.002": 18.9074042275,
			"0.003": 5.4424748705,
			"0.004": 3.37403954787,
			"0.005": 3.62395839813,
			"0.006": 2.44595969445,
			"0.007": 2.09038022567,
			"0.008": 1.58619266644,
			"0.009": 1.9609690768,
			"0.01": 1.42386678442,
			"0.011": 2.29135280951,
			"0.012": 4.27544746801,
			"0.013": 1.34984207081,
			"0.014": 0.0,
			"0.015": 0.0,
			"0.016": 0.0,
			"0.017": 0.0,
			"0.018": 0.0,
			"0.019": 0.0,
			"0.02": 0.0,
			"0.021": 0.0,
			"0.022": 0.0,
			"0.023": 0.0,
			"0.024": 0.0,
			"0.025": 0.0
		}
	}
}
