{
	 "smiles": "CC1=CC(O)=CC=C1N", 
	 "Tm": 450.65, 
	 "num_atms": 18, 
	 "gaussian": { 
		 "optdone": 1, 
		 "sigma_profile": "yes", 
		 "theory": "DFT", 
		 "functional": "B3LYP", 
		 "basiset": "6-31G**", 
		 "properties": { 
			 "R2extent": 1437.6472, 
			 "electric_dipole_moment_norm": 2.03790402375, 
			 "electric_quadrupole_moment_norm": 11.9054368303, 
			 "total_energy": -402.146301224, 
			 "HOMO_LUMO_gap": 0.19004, 
			 "cosmo_polarized_energy": -11.93, 
			 "cosmo_cavitation_energy": 21.19, 
			 "cosmo_dispersion_energy": -15.97, 
			 "cosmo_repulsion_energy": 1.31, 
			 "cosmo_total_nonelectrostatic_energy": 6.53, 
			 "SMD_solvation_energy": 3.88 
		},
		"coords": [
			{
				"x": 1.4925334329,
				"y": -1.733660721,
				"z": -1.0696354197,
				"element": "C" 
			},
			{
				"x": 0.6769158978,
				"y": -0.4750008226,
				"z": -0.9070979267,
				"element": "C" 
			},
			{
				"x": -0.6922726038,
				"y": -0.5397291381,
				"z": -0.6476271354,
				"element": "C" 
			},
			{
				"x": -1.4652340431,
				"y": 0.6171059972,
				"z": -0.5140057338,
				"element": "C" 
			},
			{
				"x": -2.8064674289,
				"y": 0.4590770776,
				"z": -0.2616254222,
				"element": "O" 
			},
			{
				"x": -0.8542278832,
				"y": 1.8643622647,
				"z": -0.6401210119,
				"element": "C" 
			},
			{
				"x": 0.5165918928,
				"y": 1.943311382,
				"z": -0.8897922064,
				"element": "C" 
			},
			{
				"x": 1.2972847044,
				"y": 0.7900674744,
				"z": -1.0270048454,
				"element": "C" 
			},
			{
				"x": 2.6660992502,
				"y": 0.8786370008,
				"z": -1.3492756963,
				"element": "N" 
			},
			{
				"x": 2.0279518519,
				"y": -1.7387970801,
				"z": -2.0268433829,
				"element": "H" 
			},
			{
				"x": 2.2500518833,
				"y": -1.8382674943,
				"z": -0.2793199824,
				"element": "H" 
			},
			{
				"x": 0.8590229224,
				"y": -2.6229691399,
				"z": -1.0285501343,
				"element": "H" 
			},
			{
				"x": -1.1830504215,
				"y": -1.5036933108,
				"z": -0.550809104,
				"element": "H" 
			},
			{
				"x": -3.215463452,
				"y": 1.3316160025,
				"z": -0.2030665349,
				"element": "H" 
			},
			{
				"x": -1.4388709383,
				"y": 2.7765647349,
				"z": -0.5386569693,
				"element": "H" 
			},
			{
				"x": 0.9858074345,
				"y": 2.9200916488,
				"z": -0.9834249022,
				"element": "H" 
			},
			{
				"x": 3.0642772318,
				"y": 1.789667092,
				"z": -1.1598292886,
				"element": "H" 
			},
			{
				"x": 3.2378502688,
				"y": 0.1547170319,
				"z": -0.9325143036,
				"element": "H" 
			}
		],
		 "valence_orbital": [ 
			{
				"type": "occ",
				"energy": -0.34029,
				"method": "rhf"
			},
			{
				"type": "occ",
				"energy": -0.32754,
				"method": "rhf"
			},
			{
				"type": "occ",
				"energy": -0.2756,
				"method": "rhf"
			},
			{
				"type": "occ",
				"energy": -0.23586,
				"method": "rhf"
			},
			{
				"type": "occ",
				"energy": -0.18117,
				"method": "rhf"
			},
			{
				"type": "unocc",
				"energy": 0.00887,
				"method": "rhf"
			},
			{
				"type": "unocc",
				"energy": 0.03577,
				"method": "rhf"
			},
			{
				"type": "unocc",
				"energy": 0.07824,
				"method": "rhf"
			},
			{
				"type": "unocc",
				"energy": 0.08265,
				"method": "rhf"
			},
			{
				"type": "unocc",
				"energy": 0.10662,
				"method": "rhf"
			}
		],
		"cosmo_sigma_profile": { 
			"-0.025": 0.0,
			"-0.024": 0.0,
			"-0.023": 0.0,
			"-0.022": 0.0,
			"-0.021": 0.0,
			"-0.02": 0.0,
			"-0.019": 0.0,
			"-0.018": 0.0,
			"-0.017": 0.537133082975,
			"-0.016": 0.966180263003,
			"-0.015": 1.44082152704,
			"-0.014": 0.822155331319,
			"-0.013": 0.842885824187,
			"-0.012": 1.11076626194,
			"-0.011": 3.16617986532,
			"-0.01": 4.13380868064,
			"-0.009": 3.87180738753,
			"-0.008": 4.50513307931,
			"-0.007": 3.92430460303,
			"-0.006": 5.03178304741,
			"-0.005": 7.08940833722,
			"-0.004": 11.0982722414,
			"-0.003": 11.4882790902,
			"-0.002": 9.92832769085,
			"-0.001": 10.1531766831,
			"0.0": 10.6391741954,
			"0.001": 8.90344914413,
			"0.002": 5.55708552616,
			"0.003": 7.43563480632,
			"0.004": 8.03917073353,
			"0.005": 8.51790152917,
			"0.006": 11.9016314843,
			"0.007": 10.2181171874,
			"0.008": 2.97971825372,
			"0.009": 1.91416654281,
			"0.01": 2.6664678882,
			"0.011": 2.3157905413,
			"0.012": 2.77215960286,
			"0.013": 1.18408908625,
			"0.014": 0.708990830952,
			"0.015": 0.535548102276,
			"0.016": 0.398163123775,
			"0.017": 0.0129954609801,
			"0.018": 0.0,
			"0.019": 0.0,
			"0.02": 0.0,
			"0.021": 0.0,
			"0.022": 0.0,
			"0.023": 0.0,
			"0.024": 0.0,
			"0.025": 0.0
		}
	}
}
