{
	 "smiles": "CC1CCC(=O)C1=O", 
	 "Tm": 381.15, 
	 "num_atms": 16, 
	 "gaussian": { 
		 "optdone": 1, 
		 "sigma_profile": "yes", 
		 "theory": "DFT", 
		 "functional": "B3LYP", 
		 "basiset": "6-31G**", 
		 "properties": { 
			 "R2extent": 1286.7518, 
			 "electric_dipole_moment_norm": 4.61580910134, 
			 "electric_quadrupole_moment_norm": 8.78819488006, 
			 "total_energy": -383.889152147, 
			 "HOMO_LUMO_gap": 0.14138, 
			 "cosmo_polarized_energy": -11.22, 
			 "cosmo_cavitation_energy": 19.43, 
			 "cosmo_dispersion_energy": -14.16, 
			 "cosmo_repulsion_energy": 1.2, 
			 "cosmo_total_nonelectrostatic_energy": 6.48, 
			 "SMD_solvation_energy": 4.63 
		},
		"coords": [
			{
				"x": 0.2278156507,
				"y": 2.0947270205,
				"z": 0.4725453219,
				"element": "C" 
			},
			{
				"x": 0.6860485908,
				"y": 0.7416823371,
				"z": -0.1090027713,
				"element": "C" 
			},
			{
				"x": 2.2291779049,
				"y": 0.5829444271,
				"z": -0.1638623205,
				"element": "C" 
			},
			{
				"x": 2.6490968802,
				"y": -0.0476462023,
				"z": 1.1849241809,
				"element": "C" 
			},
			{
				"x": 1.4630891424,
				"y": -0.9018228965,
				"z": 1.6025821464,
				"element": "C" 
			},
			{
				"x": 1.4329332802,
				"y": -1.8099222181,
				"z": 2.3991990918,
				"element": "O" 
			},
			{
				"x": 0.225498282,
				"y": -0.3925958243,
				"z": 0.8018975982,
				"element": "C" 
			},
			{
				"x": -0.8940553409,
				"y": -0.8309050117,
				"z": 0.9296367189,
				"element": "O" 
			},
			{
				"x": -0.8607165515,
				"y": 2.1179507359,
				"z": 0.5736613124,
				"element": "H" 
			},
			{
				"x": 0.6622692291,
				"y": 2.2794490434,
				"z": 1.4613801569,
				"element": "H" 
			},
			{
				"x": 0.5350228695,
				"y": 2.9130515831,
				"z": -0.1858667037,
				"element": "H" 
			},
			{
				"x": 0.2264091289,
				"y": 0.6132269942,
				"z": -1.0944450778,
				"element": "H" 
			},
			{
				"x": 2.5002519005,
				"y": -0.0940818093,
				"z": -0.9811517301,
				"element": "H" 
			},
			{
				"x": 2.7328209648,
				"y": 1.5346559553,
				"z": -0.3542119917,
				"element": "H" 
			},
			{
				"x": 3.5708374693,
				"y": -0.6334039112,
				"z": 1.1467268034,
				"element": "H" 
			},
			{
				"x": 2.7905005991,
				"y": 0.722789777,
				"z": 1.9556872643,
				"element": "H" 
			}
		],
		 "valence_orbital": [ 
			{
				"type": "occ",
				"energy": -0.35869,
				"method": "rhf"
			},
			{
				"type": "occ",
				"energy": -0.35504,
				"method": "rhf"
			},
			{
				"type": "occ",
				"energy": -0.34602,
				"method": "rhf"
			},
			{
				"type": "occ",
				"energy": -0.30305,
				"method": "rhf"
			},
			{
				"type": "occ",
				"energy": -0.23154,
				"method": "rhf"
			},
			{
				"type": "unocc",
				"energy": -0.09016,
				"method": "rhf"
			},
			{
				"type": "unocc",
				"energy": 0.03841,
				"method": "rhf"
			},
			{
				"type": "unocc",
				"energy": 0.07593,
				"method": "rhf"
			},
			{
				"type": "unocc",
				"energy": 0.1004,
				"method": "rhf"
			},
			{
				"type": "unocc",
				"energy": 0.12283,
				"method": "rhf"
			}
		],
		"cosmo_sigma_profile": { 
			"-0.025": 0.0,
			"-0.024": 0.0,
			"-0.023": 0.0,
			"-0.022": 0.0,
			"-0.021": 0.0,
			"-0.02": 0.0,
			"-0.019": 0.0,
			"-0.018": 0.0,
			"-0.017": 0.0,
			"-0.016": 0.0,
			"-0.015": 0.0,
			"-0.014": 0.0,
			"-0.013": 0.0,
			"-0.012": 0.0,
			"-0.011": 0.0,
			"-0.01": 0.201781540956,
			"-0.009": 1.54107952068,
			"-0.008": 2.52528867999,
			"-0.007": 4.91076370617,
			"-0.006": 8.96026917478,
			"-0.005": 13.027785508,
			"-0.004": 17.9697203256,
			"-0.003": 17.2762224135,
			"-0.002": 16.241996465,
			"-0.001": 14.1167398907,
			"0.0": 8.66441682528,
			"0.001": 3.71889609864,
			"0.002": 1.73927499749,
			"0.003": 2.91805595596,
			"0.004": 1.84498342335,
			"0.005": 2.96050763626,
			"0.006": 2.61679871004,
			"0.007": 2.77735347969,
			"0.008": 3.93540167687,
			"0.009": 5.53064948949,
			"0.01": 8.49059055394,
			"0.011": 7.40754388212,
			"0.012": 3.1611540396,
			"0.013": 0.115211973905,
			"0.014": 0.0,
			"0.015": 0.0,
			"0.016": 0.0,
			"0.017": 0.0,
			"0.018": 0.0,
			"0.019": 0.0,
			"0.02": 0.0,
			"0.021": 0.0,
			"0.022": 0.0,
			"0.023": 0.0,
			"0.024": 0.0,
			"0.025": 0.0
		}
	}
}
