{
	 "smiles": "CC1=NC(S)=C(C(N)=O)C(C)=C1", 
	 "Tm": 441.15, 
	 "num_atms": 22, 
	 "gaussian": { 
		 "optdone": 1, 
		 "sigma_profile": "yes", 
		 "theory": "DFT", 
		 "functional": "B3LYP", 
		 "basiset": "6-31G**", 
		 "properties": { 
			 "R2extent": 3216.7566, 
			 "electric_dipole_moment_norm": 5.54037464437, 
			 "electric_quadrupole_moment_norm": 16.7402321666, 
			 "total_energy": -893.816087872, 
			 "HOMO_LUMO_gap": 0.18062, 
			 "cosmo_polarized_energy": -16.33, 
			 "cosmo_cavitation_energy": 27.04, 
			 "cosmo_dispersion_energy": -20.31, 
			 "cosmo_repulsion_energy": 1.6, 
			 "cosmo_total_nonelectrostatic_energy": 8.33, 
			 "SMD_solvation_energy": 3.46 
		},
		"coords": [
			{
				"x": -0.6844859211,
				"y": -3.8417094469,
				"z": 0.671542157,
				"element": "C" 
			},
			{
				"x": -0.8642452298,
				"y": -2.3477870953,
				"z": 0.5915395515,
				"element": "C" 
			},
			{
				"x": -2.1234359171,
				"y": -1.9079437351,
				"z": 0.4606699065,
				"element": "N" 
			},
			{
				"x": -2.3502842426,
				"y": -0.5966976704,
				"z": 0.3770916638,
				"element": "C" 
			},
			{
				"x": -4.0915671467,
				"y": -0.227787835,
				"z": 0.2553763153,
				"element": "S" 
			},
			{
				"x": -1.3113826936,
				"y": 0.3714234157,
				"z": 0.3515153963,
				"element": "C" 
			},
			{
				"x": -1.6230149305,
				"y": 1.8308455299,
				"z": 0.1476964203,
				"element": "C" 
			},
			{
				"x": -0.8753816996,
				"y": 2.4635004671,
				"z": -0.8052290336,
				"element": "N" 
			},
			{
				"x": -2.4900120638,
				"y": 2.4339607954,
				"z": 0.7764384507,
				"element": "O" 
			},
			{
				"x": 0.0073980546,
				"y": -0.088966927,
				"z": 0.5436471417,
				"element": "C" 
			},
			{
				"x": 1.2068789546,
				"y": 0.8307109618,
				"z": 0.6425936407,
				"element": "C" 
			},
			{
				"x": 0.2136383196,
				"y": -1.4663667311,
				"z": 0.6722980144,
				"element": "C" 
			},
			{
				"x": -1.2663485712,
				"y": -4.2486134959,
				"z": 1.5045254383,
				"element": "H" 
			},
			{
				"x": 0.3644006256,
				"y": -4.1183342519,
				"z": 0.8041062746,
				"element": "H" 
			},
			{
				"x": -1.0606212694,
				"y": -4.3160676316,
				"z": -0.2409254959,
				"element": "H" 
			},
			{
				"x": -3.978629072,
				"y": 1.0872767805,
				"z": 0.5368587852,
				"element": "H" 
			},
			{
				"x": -1.1296245026,
				"y": 3.4154083271,
				"z": -1.0270829803,
				"element": "H" 
			},
			{
				"x": -0.3235099047,
				"y": 1.9454510554,
				"z": -1.4698927381,
				"element": "H" 
			},
			{
				"x": 1.6422023582,
				"y": 1.0385144006,
				"z": -0.3424377116,
				"element": "H" 
			},
			{
				"x": 1.9884008336,
				"y": 0.3562803918,
				"z": 1.2419886941,
				"element": "H" 
			},
			{
				"x": 0.958741347,
				"y": 1.7921563694,
				"z": 1.0955290631,
				"element": "H" 
			},
			{
				"x": 1.2169826714,
				"y": -1.8484536745,
				"z": 0.8351510458,
				"element": "H" 
			}
		],
		 "valence_orbital": [ 
			{
				"type": "occ",
				"energy": -0.2813,
				"method": "rhf"
			},
			{
				"type": "occ",
				"energy": -0.27717,
				"method": "rhf"
			},
			{
				"type": "occ",
				"energy": -0.26484,
				"method": "rhf"
			},
			{
				"type": "occ",
				"energy": -0.25401,
				"method": "rhf"
			},
			{
				"type": "occ",
				"energy": -0.22196,
				"method": "rhf"
			},
			{
				"type": "unocc",
				"energy": -0.04134,
				"method": "rhf"
			},
			{
				"type": "unocc",
				"energy": -0.02133,
				"method": "rhf"
			},
			{
				"type": "unocc",
				"energy": 0.02618,
				"method": "rhf"
			},
			{
				"type": "unocc",
				"energy": 0.04673,
				"method": "rhf"
			},
			{
				"type": "unocc",
				"energy": 0.0648,
				"method": "rhf"
			}
		],
		"cosmo_sigma_profile": { 
			"-0.025": 0.0,
			"-0.024": 0.0,
			"-0.023": 0.0,
			"-0.022": 0.0,
			"-0.021": 0.0,
			"-0.02": 0.0,
			"-0.019": 0.0,
			"-0.018": 0.0,
			"-0.017": 0.0,
			"-0.016": 0.0,
			"-0.015": 0.362310936525,
			"-0.014": 2.40551778459,
			"-0.013": 2.12734799903,
			"-0.012": 2.60416832723,
			"-0.011": 2.78094200862,
			"-0.01": 2.21548426902,
			"-0.009": 2.49517521896,
			"-0.008": 2.25117372793,
			"-0.007": 3.26235574077,
			"-0.006": 7.95525260739,
			"-0.005": 12.5335405552,
			"-0.004": 13.390809154,
			"-0.003": 14.7717487068,
			"-0.002": 17.5532764495,
			"-0.001": 22.2824882928,
			"0.0": 18.2728600531,
			"0.001": 13.7389152986,
			"0.002": 13.9499630144,
			"0.003": 9.73626185289,
			"0.004": 8.47424535111,
			"0.005": 7.40655282942,
			"0.006": 5.73463742135,
			"0.007": 6.54399521036,
			"0.008": 5.17886075989,
			"0.009": 3.52634870873,
			"0.01": 2.8481964971,
			"0.011": 2.70368233954,
			"0.012": 3.99904391307,
			"0.013": 4.24943230175,
			"0.014": 1.03260878481,
			"0.015": 0.37375274156,
			"0.016": 0.0,
			"0.017": 0.0,
			"0.018": 0.0,
			"0.019": 0.0,
			"0.02": 0.0,
			"0.021": 0.0,
			"0.022": 0.0,
			"0.023": 0.0,
			"0.024": 0.0,
			"0.025": 0.0
		}
	}
}
