{
	 "smiles": "N#CC(=N/OCC1OCCO1)C1=CC=CC=C1", 
	 "Tm": 350.85, 
	 "num_atms": 29, 
	 "gaussian": { 
		 "optdone": 1, 
		 "sigma_profile": "yes", 
		 "theory": "DFT", 
		 "functional": "B3LYP", 
		 "basiset": "6-31G**", 
		 "properties": { 
			 "R2extent": 7520.8042, 
			 "electric_dipole_moment_norm": 3.86342292404, 
			 "electric_quadrupole_moment_norm": 27.2427427288, 
			 "total_energy": -799.570520661, 
			 "HOMO_LUMO_gap": 0.16276, 
			 "cosmo_polarized_energy": -12.55, 
			 "cosmo_cavitation_energy": 34.89, 
			 "cosmo_dispersion_energy": -24.85, 
			 "cosmo_repulsion_energy": 1.97, 
			 "cosmo_total_nonelectrostatic_energy": 12.01, 
			 "SMD_solvation_energy": 6.93 
		},
		"coords": [
			{
				"x": -0.3799924073,
				"y": -3.097536992,
				"z": 1.5767153703,
				"element": "N" 
			},
			{
				"x": -0.5648974806,
				"y": -2.0138304955,
				"z": 1.9538821434,
				"element": "C" 
			},
			{
				"x": -0.7895327121,
				"y": -0.6847130097,
				"z": 2.4719430128,
				"element": "C" 
			},
			{
				"x": -1.144522126,
				"y": 0.2908755816,
				"z": 1.6974326898,
				"element": "N" 
			},
			{
				"x": -1.2593787707,
				"y": -0.0888460791,
				"z": 0.3848443411,
				"element": "O" 
			},
			{
				"x": -1.688557493,
				"y": 1.0227392061,
				"z": -0.4108187872,
				"element": "C" 
			},
			{
				"x": -1.7111538092,
				"y": 0.5481300923,
				"z": -1.8586083719,
				"element": "C" 
			},
			{
				"x": -0.4110314305,
				"y": 0.3911516293,
				"z": -2.4043608793,
				"element": "O" 
			},
			{
				"x": -0.2035062342,
				"y": 1.4567299073,
				"z": -3.331229351,
				"element": "C" 
			},
			{
				"x": -1.6233341083,
				"y": 1.7575855085,
				"z": -3.8002025934,
				"element": "C" 
			},
			{
				"x": -2.3827696149,
				"y": 1.5476966821,
				"z": -2.6095182496,
				"element": "O" 
			},
			{
				"x": -0.6110453435,
				"y": -0.444354185,
				"z": 3.9211242538,
				"element": "C" 
			},
			{
				"x": -0.8183945178,
				"y": 0.8380910097,
				"z": 4.4596362545,
				"element": "C" 
			},
			{
				"x": -0.650938874,
				"y": 1.0590230064,
				"z": 5.8220147727,
				"element": "C" 
			},
			{
				"x": -0.2750087973,
				"y": 0.0101521434,
				"z": 6.6682305658,
				"element": "C" 
			},
			{
				"x": -0.067624257,
				"y": -1.2634993668,
				"z": 6.1396066446,
				"element": "C" 
			},
			{
				"x": -0.2339839862,
				"y": -1.4928465708,
				"z": 4.7737850385,
				"element": "C" 
			},
			{
				"x": -0.9949435207,
				"y": 1.8617537469,
				"z": -0.2975089256,
				"element": "H" 
			},
			{
				"x": -2.6938740992,
				"y": 1.335936491,
				"z": -0.1084675461,
				"element": "H" 
			},
			{
				"x": -2.219629262,
				"y": -0.4246886157,
				"z": -1.9319394305,
				"element": "H" 
			},
			{
				"x": 0.4650683323,
				"y": 1.1019717366,
				"z": -4.1195671778,
				"element": "H" 
			},
			{
				"x": 0.2485276766,
				"y": 2.3309145986,
				"z": -2.8403953414,
				"element": "H" 
			},
			{
				"x": -1.7814240107,
				"y": 2.786868574,
				"z": -4.1311660825,
				"element": "H" 
			},
			{
				"x": -1.9386501378,
				"y": 1.0650895659,
				"z": -4.5935946549,
				"element": "H" 
			},
			{
				"x": -1.1091751092,
				"y": 1.648011741,
				"z": 3.8003163177,
				"element": "H" 
			},
			{
				"x": -0.8136506976,
				"y": 2.0532865564,
				"z": 6.2276257415,
				"element": "H" 
			},
			{
				"x": -0.145193871,
				"y": 0.1877172355,
				"z": 7.7317354044,
				"element": "H" 
			},
			{
				"x": 0.2244975662,
				"y": -2.0837746187,
				"z": 6.7883281736,
				"element": "H" 
			},
			{
				"x": -0.0709809044,
				"y": -2.4867350792,
				"z": 4.3689566665,
				"element": "H" 
			}
		],
		 "valence_orbital": [ 
			{
				"type": "occ",
				"energy": -0.29383,
				"method": "rhf"
			},
			{
				"type": "occ",
				"energy": -0.28386,
				"method": "rhf"
			},
			{
				"type": "occ",
				"energy": -0.26409,
				"method": "rhf"
			},
			{
				"type": "occ",
				"energy": -0.26225,
				"method": "rhf"
			},
			{
				"type": "occ",
				"energy": -0.23796,
				"method": "rhf"
			},
			{
				"type": "unocc",
				"energy": -0.0752,
				"method": "rhf"
			},
			{
				"type": "unocc",
				"energy": -0.01224,
				"method": "rhf"
			},
			{
				"type": "unocc",
				"energy": 0.00188,
				"method": "rhf"
			},
			{
				"type": "unocc",
				"energy": 0.02618,
				"method": "rhf"
			},
			{
				"type": "unocc",
				"energy": 0.07682,
				"method": "rhf"
			}
		],
		"cosmo_sigma_profile": { 
			"-0.025": 0.0,
			"-0.024": 0.0,
			"-0.023": 0.0,
			"-0.022": 0.0,
			"-0.021": 0.0,
			"-0.02": 0.0,
			"-0.019": 0.0,
			"-0.018": 0.0,
			"-0.017": 0.0,
			"-0.016": 0.0,
			"-0.015": 0.0,
			"-0.014": 0.0,
			"-0.013": 0.0,
			"-0.012": 0.0,
			"-0.011": 0.0,
			"-0.01": 0.0,
			"-0.009": 0.0,
			"-0.008": 0.0,
			"-0.007": 3.54321087226,
			"-0.006": 21.9500557322,
			"-0.005": 30.9230826276,
			"-0.004": 30.7682849514,
			"-0.003": 24.2767595979,
			"-0.002": 18.4422844846,
			"-0.001": 15.8951878568,
			"0.0": 16.2156359905,
			"0.001": 15.9022793903,
			"0.002": 16.9317791818,
			"0.003": 16.5971072338,
			"0.004": 18.0169847258,
			"0.005": 9.09594860151,
			"0.006": 9.65887047308,
			"0.007": 6.03221405772,
			"0.008": 6.01713066969,
			"0.009": 5.11631108304,
			"0.01": 4.8398251134,
			"0.011": 5.55942707735,
			"0.012": 2.98936546204,
			"0.013": 0.174786354369,
			"0.014": 0.0,
			"0.015": 0.0,
			"0.016": 0.0,
			"0.017": 0.0,
			"0.018": 0.0,
			"0.019": 0.0,
			"0.02": 0.0,
			"0.021": 0.0,
			"0.022": 0.0,
			"0.023": 0.0,
			"0.024": 0.0,
			"0.025": 0.0
		}
	}
}
