{
	 "smiles": "OCCNC1=NN=C(C=C1)C1=CC=CC=C1", 
	 "Tm": 436.15, 
	 "num_atms": 29, 
	 "gaussian": { 
		 "optdone": 1, 
		 "sigma_profile": "yes", 
		 "theory": "DFT", 
		 "functional": "B3LYP", 
		 "basiset": "6-31G**", 
		 "properties": { 
			 "R2extent": 6036.0027, 
			 "electric_dipole_moment_norm": 2.54857464085, 
			 "electric_quadrupole_moment_norm": 16.1444031608, 
			 "total_energy": -704.552773078, 
			 "HOMO_LUMO_gap": 0.16734, 
			 "cosmo_polarized_energy": -16.23, 
			 "cosmo_cavitation_energy": 32.54, 
			 "cosmo_dispersion_energy": -24.24, 
			 "cosmo_repulsion_energy": 1.88, 
			 "cosmo_total_nonelectrostatic_energy": 10.19, 
			 "SMD_solvation_energy": 3.22 
		},
		"coords": [
			{
				"x": -0.065817747,
				"y": 2.8614925844,
				"z": -3.5101188103,
				"element": "O" 
			},
			{
				"x": -1.4839704521,
				"y": 2.8887182697,
				"z": -3.5455150473,
				"element": "C" 
			},
			{
				"x": -2.0990165079,
				"y": 2.0664874972,
				"z": -2.4090914896,
				"element": "C" 
			},
			{
				"x": -1.6499522598,
				"y": 2.525977764,
				"z": -1.0951025438,
				"element": "N" 
			},
			{
				"x": -0.7621833342,
				"y": 1.8166811961,
				"z": -0.3069683598,
				"element": "C" 
			},
			{
				"x": -0.918088887,
				"y": 1.9994010827,
				"z": 1.0178581125,
				"element": "N" 
			},
			{
				"x": -0.1150800765,
				"y": 1.3914579527,
				"z": 1.8761009246,
				"element": "N" 
			},
			{
				"x": 0.8588046308,
				"y": 0.5680434001,
				"z": 1.455164664,
				"element": "C" 
			},
			{
				"x": 1.0827265567,
				"y": 0.3696787351,
				"z": 0.0765388336,
				"element": "C" 
			},
			{
				"x": 0.2664320713,
				"y": 1.0061485261,
				"z": -0.8318898957,
				"element": "C" 
			},
			{
				"x": 1.6818427715,
				"y": -0.0779504918,
				"z": 2.5080452842,
				"element": "C" 
			},
			{
				"x": 1.7112900815,
				"y": 0.4613815372,
				"z": 3.8058710312,
				"element": "C" 
			},
			{
				"x": 2.4822476803,
				"y": -0.1302419089,
				"z": 4.8030465018,
				"element": "C" 
			},
			{
				"x": 3.2384010166,
				"y": -1.2727405018,
				"z": 4.5282868108,
				"element": "C" 
			},
			{
				"x": 3.2101009257,
				"y": -1.8225948576,
				"z": 3.2460475027,
				"element": "C" 
			},
			{
				"x": 2.4375389999,
				"y": -1.2325239487,
				"z": 2.2461004553,
				"element": "C" 
			},
			{
				"x": 0.196380999,
				"y": 3.3176128703,
				"z": -2.698010253,
				"element": "H" 
			},
			{
				"x": -1.7825397626,
				"y": 2.464816805,
				"z": -4.5103269044,
				"element": "H" 
			},
			{
				"x": -1.8634164524,
				"y": 3.921409499,
				"z": -3.5019464255,
				"element": "H" 
			},
			{
				"x": -3.192766207,
				"y": 2.1338708719,
				"z": -2.4579495285,
				"element": "H" 
			},
			{
				"x": -1.8344580126,
				"y": 1.0107529957,
				"z": -2.5391103092,
				"element": "H" 
			},
			{
				"x": -2.3387958626,
				"y": 2.9968120733,
				"z": -0.5213118237,
				"element": "H" 
			},
			{
				"x": 1.9085791679,
				"y": -0.242675355,
				"z": -0.2692385233,
				"element": "H" 
			},
			{
				"x": 0.4312103933,
				"y": 0.9392160012,
				"z": -1.9015729819,
				"element": "H" 
			},
			{
				"x": 1.1194920391,
				"y": 1.3458892096,
				"z": 4.0118526884,
				"element": "H" 
			},
			{
				"x": 2.4960047451,
				"y": 0.3040550769,
				"z": 5.7988325638,
				"element": "H" 
			},
			{
				"x": 3.8403605612,
				"y": -1.7320710703,
				"z": 5.3070993478,
				"element": "H" 
			},
			{
				"x": 3.783565751,
				"y": -2.7180261578,
				"z": 3.0234504137,
				"element": "H" 
			},
			{
				"x": 2.4086071706,
				"y": -1.6931796562,
				"z": 1.2631577614,
				"element": "H" 
			}
		],
		 "valence_orbital": [ 
			{
				"type": "occ",
				"energy": -0.28365,
				"method": "rhf"
			},
			{
				"type": "occ",
				"energy": -0.25545,
				"method": "rhf"
			},
			{
				"type": "occ",
				"energy": -0.24683,
				"method": "rhf"
			},
			{
				"type": "occ",
				"energy": -0.22375,
				"method": "rhf"
			},
			{
				"type": "occ",
				"energy": -0.21106,
				"method": "rhf"
			},
			{
				"type": "unocc",
				"energy": -0.04372,
				"method": "rhf"
			},
			{
				"type": "unocc",
				"energy": -0.03215,
				"method": "rhf"
			},
			{
				"type": "unocc",
				"energy": 0.00421,
				"method": "rhf"
			},
			{
				"type": "unocc",
				"energy": 0.0348,
				"method": "rhf"
			},
			{
				"type": "unocc",
				"energy": 0.07291,
				"method": "rhf"
			}
		],
		"cosmo_sigma_profile": { 
			"-0.025": 0.0,
			"-0.024": 0.0,
			"-0.023": 0.0,
			"-0.022": 0.0,
			"-0.021": 0.0,
			"-0.02": 0.0,
			"-0.019": 0.0,
			"-0.018": 0.0,
			"-0.017": 0.0,
			"-0.016": 0.0,
			"-0.015": 0.0,
			"-0.014": 0.267361243696,
			"-0.013": 1.20126860022,
			"-0.012": 1.40095461535,
			"-0.011": 2.22395683554,
			"-0.01": 1.74456474562,
			"-0.009": 2.31619888941,
			"-0.008": 4.21402349039,
			"-0.007": 5.20822374573,
			"-0.006": 12.4933767844,
			"-0.005": 21.8105868273,
			"-0.004": 26.215558915,
			"-0.003": 22.7412674808,
			"-0.002": 16.9909205581,
			"-0.001": 14.376192988,
			"0.0": 17.2124854711,
			"0.001": 17.350690625,
			"0.002": 14.7958239996,
			"0.003": 13.3705812264,
			"0.004": 12.6046489902,
			"0.005": 14.6197163728,
			"0.006": 7.41639880863,
			"0.007": 3.32971696606,
			"0.008": 2.78521219074,
			"0.009": 3.07376768034,
			"0.01": 3.54502119975,
			"0.011": 2.2452496847,
			"0.012": 3.52132662067,
			"0.013": 3.02650826105,
			"0.014": 4.08596412857,
			"0.015": 2.348000871,
			"0.016": 0.590256016786,
			"0.017": 0.0,
			"0.018": 0.0,
			"0.019": 0.0,
			"0.02": 0.0,
			"0.021": 0.0,
			"0.022": 0.0,
			"0.023": 0.0,
			"0.024": 0.0,
			"0.025": 0.0
		}
	}
}
