{
	 "smiles": "C[C@H](CO)NC(=O)OC(C)(C)C", 
	 "Tm": 333.15, 
	 "num_atms": 29, 
	 "gaussian": { 
		 "optdone": 1, 
		 "sigma_profile": "yes", 
		 "theory": "DFT", 
		 "functional": "B3LYP", 
		 "basiset": "6-31G**", 
		 "properties": { 
			 "R2extent": 3485.901, 
			 "electric_dipole_moment_norm": 2.67684611623, 
			 "electric_quadrupole_moment_norm": 7.41621756423, 
			 "total_energy": -595.557481487, 
			 "HOMO_LUMO_gap": 0.29831, 
			 "cosmo_polarized_energy": -11.45, 
			 "cosmo_cavitation_energy": 30.69, 
			 "cosmo_dispersion_energy": -21.51, 
			 "cosmo_repulsion_energy": 1.76, 
			 "cosmo_total_nonelectrostatic_energy": 10.94, 
			 "SMD_solvation_energy": 6.31 
		},
		"coords": [
			{
				"x": 0.6107278382,
				"y": -3.1196331564,
				"z": -0.5264879688,
				"element": "C" 
			},
			{
				"x": 0.4208547111,
				"y": -1.6038073952,
				"z": -0.5805145014,
				"element": "C" 
			},
			{
				"x": 1.7593341408,
				"y": -0.8515547792,
				"z": -0.4796411559,
				"element": "C" 
			},
			{
				"x": 2.4365478901,
				"y": -1.1244415023,
				"z": 0.7376035379,
				"element": "O" 
			},
			{
				"x": -0.4598271592,
				"y": -1.1874745279,
				"z": 0.5213237232,
				"element": "N" 
			},
			{
				"x": -1.2338318509,
				"y": -0.0597347652,
				"z": 0.4179581976,
				"element": "C" 
			},
			{
				"x": -1.1036401474,
				"y": 0.779034015,
				"z": -0.4598182359,
				"element": "O" 
			},
			{
				"x": -2.1267609487,
				"y": -0.0308692046,
				"z": 1.4376720337,
				"element": "O" 
			},
			{
				"x": -3.0528039383,
				"y": 1.101635236,
				"z": 1.6001523256,
				"element": "C" 
			},
			{
				"x": -2.2644269649,
				"y": 2.3959916154,
				"z": 1.8268794344,
				"element": "C" 
			},
			{
				"x": -3.8345453366,
				"y": 0.7136918127,
				"z": 2.8579409074,
				"element": "C" 
			},
			{
				"x": -3.9847882044,
				"y": 1.1946185459,
				"z": 0.387171934,
				"element": "C" 
			},
			{
				"x": -0.3496816164,
				"y": -3.6439952722,
				"z": -0.5626042943,
				"element": "H" 
			},
			{
				"x": 1.2113627758,
				"y": -3.4544703628,
				"z": -1.3768569206,
				"element": "H" 
			},
			{
				"x": 1.1426657395,
				"y": -3.4028992775,
				"z": 0.3868631791,
				"element": "H" 
			},
			{
				"x": -0.0566825321,
				"y": -1.3146341358,
				"z": -1.5248728733,
				"element": "H" 
			},
			{
				"x": 2.4248463699,
				"y": -1.1762223401,
				"z": -1.2867017227,
				"element": "H" 
			},
			{
				"x": 1.5688243401,
				"y": 0.2227918026,
				"z": -0.6061405485,
				"element": "H" 
			},
			{
				"x": 1.844232295,
				"y": -0.8294586115,
				"z": 1.4436126708,
				"element": "H" 
			},
			{
				"x": -0.7806713132,
				"y": -1.8874869589,
				"z": 1.1748090284,
				"element": "H" 
			},
			{
				"x": -1.6880701113,
				"y": 2.6627999388,
				"z": 0.9406937012,
				"element": "H" 
			},
			{
				"x": -2.9566540015,
				"y": 3.212315466,
				"z": 2.0573016937,
				"element": "H" 
			},
			{
				"x": -1.5814507405,
				"y": 2.2815360327,
				"z": 2.6747555882,
				"element": "H" 
			},
			{
				"x": -4.5730298859,
				"y": 1.4854615011,
				"z": 3.0943282702,
				"element": "H" 
			},
			{
				"x": -4.3599022804,
				"y": -0.2342987488,
				"z": 2.709404441,
				"element": "H" 
			},
			{
				"x": -3.1614413678,
				"y": 0.6046593197,
				"z": 3.7133566393,
				"element": "H" 
			},
			{
				"x": -3.4275030901,
				"y": 1.448969479,
				"z": -0.5146413605,
				"element": "H" 
			},
			{
				"x": -4.7429658943,
				"y": 1.9644467363,
				"z": 0.5641024471,
				"element": "H" 
			},
			{
				"x": -4.4997187167,
				"y": 0.2414295376,
				"z": 0.2300498293,
				"element": "H" 
			}
		],
		 "valence_orbital": [ 
			{
				"type": "occ",
				"energy": -0.32118,
				"method": "rhf"
			},
			{
				"type": "occ",
				"energy": -0.28941,
				"method": "rhf"
			},
			{
				"type": "occ",
				"energy": -0.27576,
				"method": "rhf"
			},
			{
				"type": "occ",
				"energy": -0.26459,
				"method": "rhf"
			},
			{
				"type": "occ",
				"energy": -0.24972,
				"method": "rhf"
			},
			{
				"type": "unocc",
				"energy": 0.04859,
				"method": "rhf"
			},
			{
				"type": "unocc",
				"energy": 0.0742,
				"method": "rhf"
			},
			{
				"type": "unocc",
				"energy": 0.09002,
				"method": "rhf"
			},
			{
				"type": "unocc",
				"energy": 0.10081,
				"method": "rhf"
			},
			{
				"type": "unocc",
				"energy": 0.11201,
				"method": "rhf"
			}
		],
		"cosmo_sigma_profile": { 
			"-0.025": 0.0,
			"-0.024": 0.0,
			"-0.023": 0.0,
			"-0.022": 0.0,
			"-0.021": 0.0,
			"-0.02": 0.0,
			"-0.019": 0.0,
			"-0.018": 0.0,
			"-0.017": 0.0,
			"-0.016": 0.0,
			"-0.015": 0.0,
			"-0.014": 0.121809268475,
			"-0.013": 0.945187377973,
			"-0.012": 2.17813844458,
			"-0.011": 0.990448969018,
			"-0.01": 1.47612889427,
			"-0.009": 1.86969267059,
			"-0.008": 2.27476326632,
			"-0.007": 1.9720965106,
			"-0.006": 2.39565143692,
			"-0.005": 5.01801804519,
			"-0.004": 23.4101385262,
			"-0.003": 26.7097312869,
			"-0.002": 27.0171258815,
			"-0.001": 28.4154836047,
			"0.0": 33.2781951298,
			"0.001": 24.1895430392,
			"0.002": 7.48976733422,
			"0.003": 5.39350144042,
			"0.004": 5.41286098415,
			"0.005": 5.31213044073,
			"0.006": 4.47251334457,
			"0.007": 4.65097981148,
			"0.008": 3.67818853129,
			"0.009": 2.29772617808,
			"0.01": 2.6087594935,
			"0.011": 3.02399298747,
			"0.012": 3.03895057021,
			"0.013": 3.95753570432,
			"0.014": 2.94698897512,
			"0.015": 0.7185272032,
			"0.016": 0.0,
			"0.017": 0.0,
			"0.018": 0.0,
			"0.019": 0.0,
			"0.02": 0.0,
			"0.021": 0.0,
			"0.022": 0.0,
			"0.023": 0.0,
			"0.024": 0.0,
			"0.025": 0.0
		}
	}
}
