{
	 "smiles": "OC1=CC(=CC=C1)C1=NC(Cl)=CC=N1", 
	 "Tm": 409.15, 
	 "num_atms": 21, 
	 "gaussian": { 
		 "optdone": 1, 
		 "sigma_profile": "yes", 
		 "theory": "DFT", 
		 "functional": "B3LYP", 
		 "basiset": "6-31G**", 
		 "properties": { 
			 "R2extent": 4417.8757, 
			 "electric_dipole_moment_norm": 2.52595813702, 
			 "electric_quadrupole_moment_norm": 10.9029069647, 
			 "total_energy": -1030.20317545, 
			 "HOMO_LUMO_gap": 0.1608, 
			 "cosmo_polarized_energy": -11.05, 
			 "cosmo_cavitation_energy": 27.91, 
			 "cosmo_dispersion_energy": -20.97, 
			 "cosmo_repulsion_energy": 1.64, 
			 "cosmo_total_nonelectrostatic_energy": 8.58, 
			 "SMD_solvation_energy": 2.79 
		},
		"coords": [
			{
				"x": -0.3183016459,
				"y": 1.8058149788,
				"z": 3.2299715442,
				"element": "O" 
			},
			{
				"x": -0.5506476597,
				"y": 0.7288531866,
				"z": 2.4221002428,
				"element": "C" 
			},
			{
				"x": 0.2618401929,
				"y": 0.4206415238,
				"z": 1.3315981769,
				"element": "C" 
			},
			{
				"x": -0.0250188044,
				"y": -0.6990903455,
				"z": 0.5359126998,
				"element": "C" 
			},
			{
				"x": -1.1301115118,
				"y": -1.506960837,
				"z": 0.8398518237,
				"element": "C" 
			},
			{
				"x": -1.9343300925,
				"y": -1.1871138121,
				"z": 1.9334421542,
				"element": "C" 
			},
			{
				"x": -1.6551924434,
				"y": -0.0770527612,
				"z": 2.7273869949,
				"element": "C" 
			},
			{
				"x": 0.8449711925,
				"y": -1.0170125091,
				"z": -0.6202433188,
				"element": "C" 
			},
			{
				"x": 0.5281382761,
				"y": -2.1041551977,
				"z": -1.3554782677,
				"element": "N" 
			},
			{
				"x": 1.3050098813,
				"y": -2.379919036,
				"z": -2.3801884963,
				"element": "C" 
			},
			{
				"x": 0.8938825439,
				"y": -3.7953116615,
				"z": -3.3387062723,
				"element": "Cl" 
			},
			{
				"x": 2.4184310679,
				"y": -1.6179169946,
				"z": -2.7363954412,
				"element": "C" 
			},
			{
				"x": 2.6578321743,
				"y": -0.5195617658,
				"z": -1.9146022015,
				"element": "C" 
			},
			{
				"x": 1.8910216504,
				"y": -0.2095593504,
				"z": -0.8667888883,
				"element": "N" 
			},
			{
				"x": 0.4655264583,
				"y": 2.2733032033,
				"z": 2.9129795668,
				"element": "H" 
			},
			{
				"x": 1.1214023016,
				"y": 1.0355428948,
				"z": 1.0821970027,
				"element": "H" 
			},
			{
				"x": -1.3428534539,
				"y": -2.3688740438,
				"z": 0.2194593963,
				"element": "H" 
			},
			{
				"x": -2.7911700195,
				"y": -1.8104106616,
				"z": 2.1720571289,
				"element": "H" 
			},
			{
				"x": -2.2734542783,
				"y": 0.1818404848,
				"z": 3.5805991009,
				"element": "H" 
			},
			{
				"x": 3.0446119054,
				"y": -1.8629539824,
				"z": -3.584213592,
				"element": "H" 
			},
			{
				"x": 3.503612265,
				"y": 0.1375966867,
				"z": -2.1098393538,
				"element": "H" 
			}
		],
		 "valence_orbital": [ 
			{
				"type": "occ",
				"energy": -0.31404,
				"method": "rhf"
			},
			{
				"type": "occ",
				"energy": -0.29171,
				"method": "rhf"
			},
			{
				"type": "occ",
				"energy": -0.26667,
				"method": "rhf"
			},
			{
				"type": "occ",
				"energy": -0.24729,
				"method": "rhf"
			},
			{
				"type": "occ",
				"energy": -0.22425,
				"method": "rhf"
			},
			{
				"type": "unocc",
				"energy": -0.06345,
				"method": "rhf"
			},
			{
				"type": "unocc",
				"energy": -0.05028,
				"method": "rhf"
			},
			{
				"type": "unocc",
				"energy": 0.00701,
				"method": "rhf"
			},
			{
				"type": "unocc",
				"energy": 0.02371,
				"method": "rhf"
			},
			{
				"type": "unocc",
				"energy": 0.02593,
				"method": "rhf"
			}
		],
		"cosmo_sigma_profile": { 
			"-0.025": 0.0,
			"-0.024": 0.0,
			"-0.023": 0.0,
			"-0.022": 0.0,
			"-0.021": 0.0,
			"-0.02": 0.0,
			"-0.019": 0.0,
			"-0.018": 0.314433766673,
			"-0.017": 1.17774965398,
			"-0.016": 1.37091296441,
			"-0.015": 0.662547834405,
			"-0.014": 1.088812377,
			"-0.013": 1.13325717695,
			"-0.012": 1.07558398742,
			"-0.011": 1.02333886562,
			"-0.01": 0.925880261866,
			"-0.009": 3.40217219608,
			"-0.008": 6.20232598224,
			"-0.007": 4.87902325397,
			"-0.006": 7.65686960548,
			"-0.005": 9.12668343705,
			"-0.004": 9.94844573206,
			"-0.003": 13.1828128931,
			"-0.002": 16.6214924505,
			"-0.001": 18.7508930163,
			"0.0": 15.7304099641,
			"0.001": 12.5206412252,
			"0.002": 17.4390036619,
			"0.003": 26.0204710032,
			"0.004": 23.6073810988,
			"0.005": 10.8418821272,
			"0.006": 5.37884533796,
			"0.007": 4.01592041318,
			"0.008": 4.15054004055,
			"0.009": 4.23798572559,
			"0.01": 2.45639405689,
			"0.011": 2.13950566768,
			"0.012": 0.324176601694,
			"0.013": 0.0,
			"0.014": 0.0,
			"0.015": 0.0,
			"0.016": 0.0,
			"0.017": 0.0,
			"0.018": 0.0,
			"0.019": 0.0,
			"0.02": 0.0,
			"0.021": 0.0,
			"0.022": 0.0,
			"0.023": 0.0,
			"0.024": 0.0,
			"0.025": 0.0
		}
	}
}
