{
	 "smiles": "CC1=CN2C(=O)C=C(Cl)N=C2C=C1", 
	 "Tm": 471.15, 
	 "num_atms": 20, 
	 "gaussian": { 
		 "optdone": 1, 
		 "sigma_profile": "yes", 
		 "theory": "DFT", 
		 "functional": "B3LYP", 
		 "basiset": "6-31G**", 
		 "properties": { 
			 "R2extent": 3138.9636, 
			 "electric_dipole_moment_norm": 5.29586114338, 
			 "electric_quadrupole_moment_norm": 7.3964873271, 
			 "total_energy": -992.108319257, 
			 "HOMO_LUMO_gap": 0.15488, 
			 "cosmo_polarized_energy": -11.46, 
			 "cosmo_cavitation_energy": 26.22, 
			 "cosmo_dispersion_energy": -19.78, 
			 "cosmo_repulsion_energy": 1.55, 
			 "cosmo_total_nonelectrostatic_energy": 7.98, 
			 "SMD_solvation_energy": 3.8 
		},
		"coords": [
			{
				"x": 0.8253457718,
				"y": 2.2627282991,
				"z": 2.7481426211,
				"element": "C" 
			},
			{
				"x": 0.4792435369,
				"y": 1.5190292887,
				"z": 1.4843450769,
				"element": "C" 
			},
			{
				"x": 0.506410004,
				"y": 0.1535859296,
				"z": 1.4309962343,
				"element": "C" 
			},
			{
				"x": 0.192785273,
				"y": -0.538976932,
				"z": 0.2831913788,
				"element": "N" 
			},
			{
				"x": 0.261023356,
				"y": -2.0070860372,
				"z": 0.3588318854,
				"element": "C" 
			},
			{
				"x": 0.5860659912,
				"y": -2.5255636612,
				"z": 1.4173051333,
				"element": "O" 
			},
			{
				"x": -0.0794097444,
				"y": -2.6364060353,
				"z": -0.8735158762,
				"element": "C" 
			},
			{
				"x": -0.4220924106,
				"y": -1.867096572,
				"z": -1.964005401,
				"element": "C" 
			},
			{
				"x": -0.83490776,
				"y": -2.686546823,
				"z": -3.4645829582,
				"element": "Cl" 
			},
			{
				"x": -0.4770721795,
				"y": -0.5370397453,
				"z": -2.0096285518,
				"element": "N" 
			},
			{
				"x": -0.1699929662,
				"y": 0.1117615772,
				"z": -0.8888705367,
				"element": "C" 
			},
			{
				"x": -0.2031198969,
				"y": 1.5358107613,
				"z": -0.8493441026,
				"element": "C" 
			},
			{
				"x": 0.1097694654,
				"y": 2.2161781747,
				"z": 0.294666597,
				"element": "C" 
			},
			{
				"x": 1.6774884618,
				"y": 2.9334138503,
				"z": 2.5899396128,
				"element": "H" 
			},
			{
				"x": -0.0149642656,
				"y": 2.8805126835,
				"z": 3.0846128016,
				"element": "H" 
			},
			{
				"x": 1.0832643435,
				"y": 1.5751958829,
				"z": 3.557032289,
				"element": "H" 
			},
			{
				"x": 0.7688617667,
				"y": -0.4918288417,
				"z": 2.259981194,
				"element": "H" 
			},
			{
				"x": -0.0566877251,
				"y": -3.7164219512,
				"z": -0.911317639,
				"element": "H" 
			},
			{
				"x": -0.4871083046,
				"y": 2.0351645035,
				"z": -1.7677134423,
				"element": "H" 
			},
			{
				"x": 0.0781972825,
				"y": 3.302385648,
				"z": 0.3032336838,
				"element": "H" 
			}
		],
		 "valence_orbital": [ 
			{
				"type": "occ",
				"energy": -0.3167,
				"method": "rhf"
			},
			{
				"type": "occ",
				"energy": -0.29267,
				"method": "rhf"
			},
			{
				"type": "occ",
				"energy": -0.27307,
				"method": "rhf"
			},
			{
				"type": "occ",
				"energy": -0.27017,
				"method": "rhf"
			},
			{
				"type": "occ",
				"energy": -0.22585,
				"method": "rhf"
			},
			{
				"type": "unocc",
				"energy": -0.07097,
				"method": "rhf"
			},
			{
				"type": "unocc",
				"energy": -0.05183,
				"method": "rhf"
			},
			{
				"type": "unocc",
				"energy": 0.00639,
				"method": "rhf"
			},
			{
				"type": "unocc",
				"energy": 0.03343,
				"method": "rhf"
			},
			{
				"type": "unocc",
				"energy": 0.06925,
				"method": "rhf"
			}
		],
		"cosmo_sigma_profile": { 
			"-0.025": 0.0,
			"-0.024": 0.0,
			"-0.023": 0.0,
			"-0.022": 0.0,
			"-0.021": 0.0,
			"-0.02": 0.0,
			"-0.019": 0.0,
			"-0.018": 0.0,
			"-0.017": 0.0,
			"-0.016": 0.0,
			"-0.015": 0.0,
			"-0.014": 0.0,
			"-0.013": 0.0,
			"-0.012": 0.0,
			"-0.011": 0.0,
			"-0.01": 0.0,
			"-0.009": 0.536730088949,
			"-0.008": 5.52942411637,
			"-0.007": 7.19401560664,
			"-0.006": 8.05522787377,
			"-0.005": 16.6748384749,
			"-0.004": 16.147771276,
			"-0.003": 15.8133333135,
			"-0.002": 19.962462864,
			"-0.001": 23.1495716917,
			"0.0": 21.6302010803,
			"0.001": 16.2730577332,
			"0.002": 9.30240015112,
			"0.003": 8.42869154732,
			"0.004": 11.9035278569,
			"0.005": 5.45021800262,
			"0.006": 3.52150506099,
			"0.007": 3.03591279848,
			"0.008": 2.90387834077,
			"0.009": 2.11664805628,
			"0.01": 2.74509701622,
			"0.011": 3.23715745696,
			"0.012": 4.92258215133,
			"0.013": 3.88730074168,
			"0.014": 0.845837386204,
			"0.015": 0.0,
			"0.016": 0.0,
			"0.017": 0.0,
			"0.018": 0.0,
			"0.019": 0.0,
			"0.02": 0.0,
			"0.021": 0.0,
			"0.022": 0.0,
			"0.023": 0.0,
			"0.024": 0.0,
			"0.025": 0.0
		}
	}
}
