{
	 "smiles": "ClC1=CC(Cl)=NC=N1", 
	 "Tm": 339.15, 
	 "num_atms": 10, 
	 "gaussian": { 
		 "optdone": 1, 
		 "sigma_profile": "yes", 
		 "theory": "DFT", 
		 "functional": "B3LYP", 
		 "basiset": "6-31G**", 
		 "properties": { 
			 "R2extent": 1579.8058, 
			 "electric_dipole_moment_norm": 0.792424412799, 
			 "electric_quadrupole_moment_norm": 6.15044646022, 
			 "total_energy": -1183.5077633, 
			 "HOMO_LUMO_gap": 0.22671, 
			 "cosmo_polarized_energy": -5.84, 
			 "cosmo_cavitation_energy": 18.59, 
			 "cosmo_dispersion_energy": -14.4, 
			 "cosmo_repulsion_energy": 1.2, 
			 "cosmo_total_nonelectrostatic_energy": 5.4, 
			 "SMD_solvation_energy": 0.01 
		},
		"coords": [
			{
				"x": 1.5238532483,
				"y": 1.8902096449,
				"z": 0.1416813109,
				"element": "Cl" 
			},
			{
				"x": 0.540211444,
				"y": 0.6585210938,
				"z": -0.6131273225,
				"element": "C" 
			},
			{
				"x": 0.1219782216,
				"y": -0.4325070154,
				"z": 0.1481981152,
				"element": "C" 
			},
			{
				"x": -0.6570921497,
				"y": -1.3574605595,
				"z": -0.5463360137,
				"element": "C" 
			},
			{
				"x": -1.2447152192,
				"y": -2.7714192721,
				"z": 0.2961393903,
				"element": "Cl" 
			},
			{
				"x": -0.9855699301,
				"y": -1.2314715621,
				"z": -1.8237602664,
				"element": "N" 
			},
			{
				"x": -0.5178500037,
				"y": -0.1380358493,
				"z": -2.4334865269,
				"element": "C" 
			},
			{
				"x": 0.2351968043,
				"y": 0.8240868169,
				"z": -1.8918472407,
				"element": "N" 
			},
			{
				"x": 0.3805581543,
				"y": -0.5515160834,
				"z": 1.1914848877,
				"element": "H" 
			},
			{
				"x": -0.7777705697,
				"y": -0.0184072136,
				"z": -3.4821463338,
				"element": "H" 
			}
		],
		 "valence_orbital": [ 
			{
				"type": "occ",
				"energy": -0.33494,
				"method": "rhf"
			},
			{
				"type": "occ",
				"energy": -0.33456,
				"method": "rhf"
			},
			{
				"type": "occ",
				"energy": -0.31134,
				"method": "rhf"
			},
			{
				"type": "occ",
				"energy": -0.29694,
				"method": "rhf"
			},
			{
				"type": "occ",
				"energy": -0.29137,
				"method": "rhf"
			},
			{
				"type": "unocc",
				"energy": -0.06466,
				"method": "rhf"
			},
			{
				"type": "unocc",
				"energy": -0.06046,
				"method": "rhf"
			},
			{
				"type": "unocc",
				"energy": -0.00396,
				"method": "rhf"
			},
			{
				"type": "unocc",
				"energy": 0.03806,
				"method": "rhf"
			},
			{
				"type": "unocc",
				"energy": 0.09706,
				"method": "rhf"
			}
		],
		"cosmo_sigma_profile": { 
			"-0.025": 0.0,
			"-0.024": 0.0,
			"-0.023": 0.0,
			"-0.022": 0.0,
			"-0.021": 0.0,
			"-0.02": 0.0,
			"-0.019": 0.0,
			"-0.018": 0.0,
			"-0.017": 0.0,
			"-0.016": 0.0,
			"-0.015": 0.0,
			"-0.014": 0.0,
			"-0.013": 0.0,
			"-0.012": 0.0,
			"-0.011": 0.347523013368,
			"-0.01": 1.92387735561,
			"-0.009": 3.31219186337,
			"-0.008": 2.55454008531,
			"-0.007": 4.01644153987,
			"-0.006": 4.28625404424,
			"-0.005": 5.48975197378,
			"-0.004": 10.4340955065,
			"-0.003": 17.5021434732,
			"-0.002": 13.2517012501,
			"-0.001": 10.3873098989,
			"0.0": 10.3400119023,
			"0.001": 11.405665838,
			"0.002": 14.7227339589,
			"0.003": 19.4814829917,
			"0.004": 6.52592264249,
			"0.005": 4.09022854636,
			"0.006": 3.14936743112,
			"0.007": 2.29673869002,
			"0.008": 1.95439857103,
			"0.009": 1.7635266954,
			"0.01": 2.26152498572,
			"0.011": 1.73010477946,
			"0.012": 1.49933110995,
			"0.013": 0.81925807139,
			"0.014": 0.0,
			"0.015": 0.0,
			"0.016": 0.0,
			"0.017": 0.0,
			"0.018": 0.0,
			"0.019": 0.0,
			"0.02": 0.0,
			"0.021": 0.0,
			"0.022": 0.0,
			"0.023": 0.0,
			"0.024": 0.0,
			"0.025": 0.0
		}
	}
}
