{
	 "smiles": "COC(=O)C1=CC(CN2N=C(C)C(Br)=C2C)=CC=C1", 
	 "Tm": 379.15, 
	 "num_atms": 34, 
	 "gaussian": { 
		 "optdone": 1, 
		 "sigma_profile": "yes", 
		 "theory": "DFT", 
		 "functional": "B3LYP", 
		 "basiset": "6-31G**", 
		 "properties": { 
			 "R2extent": 9894.3405, 
			 "electric_dipole_moment_norm": 1.93556559693, 
			 "electric_quadrupole_moment_norm": 21.6609631051, 
			 "total_energy": -3373.89367822, 
			 "HOMO_LUMO_gap": 0.17712, 
			 "cosmo_polarized_energy": -12.67, 
			 "cosmo_cavitation_energy": 40.83, 
			 "cosmo_dispersion_energy": -27.92, 
			 "cosmo_repulsion_energy": 2.2, 
			 "cosmo_total_nonelectrostatic_energy": 15.1, 
			 "SMD_solvation_energy": 6.55 
		},
		"coords": [
			{
				"x": 0.9512399278,
				"y": 3.188658504,
				"z": 2.6422822572,
				"element": "C" 
			},
			{
				"x": 0.5480749213,
				"y": 2.0796087843,
				"z": 1.8246111145,
				"element": "O" 
			},
			{
				"x": -0.1506568925,
				"y": 1.1159472367,
				"z": 2.4636260259,
				"element": "C" 
			},
			{
				"x": -0.4284590277,
				"y": 1.1687759933,
				"z": 3.6462788275,
				"element": "O" 
			},
			{
				"x": -0.536460226,
				"y": -0.0060005636,
				"z": 1.55820521,
				"element": "C" 
			},
			{
				"x": -0.1912770769,
				"y": -0.0237242742,
				"z": 0.2025140696,
				"element": "C" 
			},
			{
				"x": -0.5740847301,
				"y": -1.0987882951,
				"z": -0.6073174004,
				"element": "C" 
			},
			{
				"x": -0.2295336787,
				"y": -1.1056854572,
				"z": -2.0882239638,
				"element": "C" 
			},
			{
				"x": 1.1577044817,
				"y": -0.7698864724,
				"z": -2.3742313076,
				"element": "N" 
			},
			{
				"x": 1.4679995972,
				"y": 0.5094944482,
				"z": -2.7141387115,
				"element": "N" 
			},
			{
				"x": 2.7952825179,
				"y": 0.5393463035,
				"z": -2.8347890202,
				"element": "C" 
			},
			{
				"x": 3.5167098865,
				"y": 1.7908069946,
				"z": -3.2187932051,
				"element": "C" 
			},
			{
				"x": 3.3269681331,
				"y": -0.741638434,
				"z": -2.5578146573,
				"element": "C" 
			},
			{
				"x": 5.1479591972,
				"y": -1.238966252,
				"z": -2.6027869645,
				"element": "Br" 
			},
			{
				"x": 2.2574874815,
				"y": -1.5694924019,
				"z": -2.2572537731,
				"element": "C" 
			},
			{
				"x": 2.2045071716,
				"y": -3.0139935008,
				"z": -1.8864520608,
				"element": "C" 
			},
			{
				"x": -1.3033952229,
				"y": -2.1516616012,
				"z": -0.0444400726,
				"element": "C" 
			},
			{
				"x": -1.6537756511,
				"y": -2.1341689695,
				"z": 1.3087400483,
				"element": "C" 
			},
			{
				"x": -1.2709233687,
				"y": -1.0648658425,
				"z": 2.1114438812,
				"element": "C" 
			},
			{
				"x": 0.0784742116,
				"y": 3.6900418689,
				"z": 3.0681624675,
				"element": "H" 
			},
			{
				"x": 1.5953095264,
				"y": 2.8510021836,
				"z": 3.4581459551,
				"element": "H" 
			},
			{
				"x": 1.4940350649,
				"y": 3.8610097009,
				"z": 1.9781835945,
				"element": "H" 
			},
			{
				"x": 0.3762924085,
				"y": 0.7962778882,
				"z": -0.2233913182,
				"element": "H" 
			},
			{
				"x": -0.4542167491,
				"y": -2.085195842,
				"z": -2.5218054227,
				"element": "H" 
			},
			{
				"x": -0.8228780396,
				"y": -0.3610347154,
				"z": -2.6262089667,
				"element": "H" 
			},
			{
				"x": 4.0707962947,
				"y": 1.6590961595,
				"z": -4.1545692853,
				"element": "H" 
			},
			{
				"x": 2.7991348821,
				"y": 2.6034584082,
				"z": -3.3487888473,
				"element": "H" 
			},
			{
				"x": 4.2427108756,
				"y": 2.081430972,
				"z": -2.4517892058,
				"element": "H" 
			},
			{
				"x": 3.2198673197,
				"y": -3.4116702165,
				"z": -1.8352261797,
				"element": "H" 
			},
			{
				"x": 1.7268334167,
				"y": -3.1640622057,
				"z": -0.9122049699,
				"element": "H" 
			},
			{
				"x": 1.6490443028,
				"y": -3.603638298,
				"z": -2.625655565,
				"element": "H" 
			},
			{
				"x": -1.6019454869,
				"y": -2.9916492897,
				"z": -0.6675971976,
				"element": "H" 
			},
			{
				"x": -2.2191679948,
				"y": -2.958712314,
				"z": 1.7325446389,
				"element": "H" 
			},
			{
				"x": -1.5248574739,
				"y": -1.0264205002,
				"z": 3.1651400046,
				"element": "H" 
			}
		],
		 "valence_orbital": [ 
			{
				"type": "occ",
				"energy": -0.27433,
				"method": "rhf"
			},
			{
				"type": "occ",
				"energy": -0.26511,
				"method": "rhf"
			},
			{
				"type": "occ",
				"energy": -0.26121,
				"method": "rhf"
			},
			{
				"type": "occ",
				"energy": -0.24125,
				"method": "rhf"
			},
			{
				"type": "occ",
				"energy": -0.2259,
				"method": "rhf"
			},
			{
				"type": "unocc",
				"energy": -0.04878,
				"method": "rhf"
			},
			{
				"type": "unocc",
				"energy": -0.01883,
				"method": "rhf"
			},
			{
				"type": "unocc",
				"energy": 0.01436,
				"method": "rhf"
			},
			{
				"type": "unocc",
				"energy": 0.02393,
				"method": "rhf"
			},
			{
				"type": "unocc",
				"energy": 0.05177,
				"method": "rhf"
			}
		],
		"cosmo_sigma_profile": { 
			"-0.025": 0.0,
			"-0.024": 0.0,
			"-0.023": 0.0,
			"-0.022": 0.0,
			"-0.021": 0.0,
			"-0.02": 0.0,
			"-0.019": 0.0,
			"-0.018": 0.0,
			"-0.017": 0.0,
			"-0.016": 0.0,
			"-0.015": 0.0,
			"-0.014": 0.0,
			"-0.013": 0.0,
			"-0.012": 0.0,
			"-0.011": 0.0,
			"-0.01": 0.0,
			"-0.009": 0.00541783622101,
			"-0.008": 1.46886972793,
			"-0.007": 8.06698444527,
			"-0.006": 15.5971342108,
			"-0.005": 21.6253769517,
			"-0.004": 28.6173485223,
			"-0.003": 28.2551237539,
			"-0.002": 29.2020543806,
			"-0.001": 28.940548936,
			"0.0": 28.8368279963,
			"0.001": 23.8964728331,
			"0.002": 25.3236121457,
			"0.003": 29.3539846782,
			"0.004": 20.5455044534,
			"0.005": 11.8255323259,
			"0.006": 4.37588542961,
			"0.007": 2.82859214578,
			"0.008": 2.76463710418,
			"0.009": 2.33577182607,
			"0.01": 3.99746698347,
			"0.011": 3.2321789194,
			"0.012": 4.36009129193,
			"0.013": 1.30904708243,
			"0.014": 0.849481436345,
			"0.015": 0.426772564123,
			"0.016": 0.00101941925033,
			"0.017": 0.0,
			"0.018": 0.0,
			"0.019": 0.0,
			"0.02": 0.0,
			"0.021": 0.0,
			"0.022": 0.0,
			"0.023": 0.0,
			"0.024": 0.0,
			"0.025": 0.0
		}
	}
}
