{
	 "smiles": "[O-][N+](=O)C1=CC=C(C=C/C2=CC=C(C=C2[N+]([O-])=O)[N+]([O-])=O)C=C1", 
	 "Tm": 513.15, 
	 "num_atms": 32, 
	 "gaussian": { 
		 "optdone": 1, 
		 "sigma_profile": "yes", 
		 "theory": "DFT", 
		 "functional": "B3LYP", 
		 "basiset": "6-31G**", 
		 "properties": { 
			 "R2extent": 9768.6046, 
			 "electric_dipole_moment_norm": 5.02766111527, 
			 "electric_quadrupole_moment_norm": 24.4011890237, 
			 "total_energy": -1154.18675767, 
			 "HOMO_LUMO_gap": 0.13725, 
			 "cosmo_polarized_energy": -19.14, 
			 "cosmo_cavitation_energy": 39.88, 
			 "cosmo_dispersion_energy": -27.62, 
			 "cosmo_repulsion_energy": 2.09, 
			 "cosmo_total_nonelectrostatic_energy": 14.35, 
			 "SMD_solvation_energy": 13.31 
		},
		"coords": [
			{
				"x": -1.5358275639,
				"y": -4.1473185087,
				"z": -2.4104165344,
				"element": "O" 
			},
			{
				"x": -0.820976748,
				"y": -3.4187381125,
				"z": -3.0975596461,
				"element": "N" 
			},
			{
				"x": -0.599050977,
				"y": -3.5793239728,
				"z": -4.2972638202,
				"element": "O" 
			},
			{
				"x": -0.1866151581,
				"y": -2.2682977199,
				"z": -2.4363478285,
				"element": "C" 
			},
			{
				"x": -0.407202163,
				"y": -2.0631466036,
				"z": -1.0749074491,
				"element": "C" 
			},
			{
				"x": 0.1921433679,
				"y": -0.9734238441,
				"z": -0.455013905,
				"element": "C" 
			},
			{
				"x": 1.0056801486,
				"y": -0.0824721279,
				"z": -1.1826265848,
				"element": "C" 
			},
			{
				"x": 1.6817889672,
				"y": 1.0684301744,
				"z": -0.5612335719,
				"element": "C" 
			},
			{
				"x": 1.2854815462,
				"y": 1.8505708574,
				"z": 0.4623369769,
				"element": "C" 
			},
			{
				"x": -0.0451069207,
				"y": 1.8956429259,
				"z": 1.1007368025,
				"element": "C" 
			},
			{
				"x": -1.1944574007,
				"y": 1.943448457,
				"z": 0.2837647268,
				"element": "C" 
			},
			{
				"x": -2.4713148861,
				"y": 2.0820077109,
				"z": 0.8090181303,
				"element": "C" 
			},
			{
				"x": -2.6199708967,
				"y": 2.1920278116,
				"z": 2.1913681307,
				"element": "C" 
			},
			{
				"x": -1.5288986011,
				"y": 2.1654157577,
				"z": 3.0452600074,
				"element": "C" 
			},
			{
				"x": -0.2593875021,
				"y": 2.0161597402,
				"z": 2.4923167774,
				"element": "C" 
			},
			{
				"x": 0.861905667,
				"y": 1.9572673719,
				"z": 3.4531982214,
				"element": "N" 
			},
			{
				"x": 1.9684420631,
				"y": 1.6263105119,
				"z": 3.0280175393,
				"element": "O" 
			},
			{
				"x": 0.6183561741,
				"y": 2.233893506,
				"z": 4.6247890857,
				"element": "O" 
			},
			{
				"x": -3.9689746281,
				"y": 2.3468328893,
				"z": 2.7628226028,
				"element": "N" 
			},
			{
				"x": -4.0598911549,
				"y": 2.438899296,
				"z": 3.9843608032,
				"element": "O" 
			},
			{
				"x": -4.9124473339,
				"y": 2.3729426095,
				"z": 1.974938651,
				"element": "O" 
			},
			{
				"x": 1.228361908,
				"y": -0.3414623337,
				"z": -2.5494679154,
				"element": "C" 
			},
			{
				"x": 0.6296756863,
				"y": -1.4228643625,
				"z": -3.1851392617,
				"element": "C" 
			},
			{
				"x": -1.0286488599,
				"y": -2.7598832982,
				"z": -0.5263704407,
				"element": "H" 
			},
			{
				"x": 0.051867379,
				"y": -0.8246260278,
				"z": 0.6095131144,
				"element": "H" 
			},
			{
				"x": 2.6590838138,
				"y": 1.2962439341,
				"z": -0.983306886,
				"element": "H" 
			},
			{
				"x": 2.0038830037,
				"y": 2.5730189477,
				"z": 0.8356836872,
				"element": "H" 
			},
			{
				"x": -1.0626450542,
				"y": 1.8882251489,
				"z": -0.7903548304,
				"element": "H" 
			},
			{
				"x": -3.3472010593,
				"y": 2.1195675885,
				"z": 0.1732808844,
				"element": "H" 
			},
			{
				"x": -1.6553094495,
				"y": 2.2537768387,
				"z": 4.1154624941,
				"element": "H" 
			},
			{
				"x": 1.8731280208,
				"y": 0.3217646794,
				"z": -3.1187865733,
				"element": "H" 
			},
			{
				"x": 0.7846286114,
				"y": -1.6256898453,
				"z": -4.2373733879,
				"element": "H" 
			}
		],
		 "valence_orbital": [ 
			{
				"type": "occ",
				"energy": -0.31202,
				"method": "rhf"
			},
			{
				"type": "occ",
				"energy": -0.30898,
				"method": "rhf"
			},
			{
				"type": "occ",
				"energy": -0.29928,
				"method": "rhf"
			},
			{
				"type": "occ",
				"energy": -0.29174,
				"method": "rhf"
			},
			{
				"type": "occ",
				"energy": -0.2619,
				"method": "rhf"
			},
			{
				"type": "unocc",
				"energy": -0.12465,
				"method": "rhf"
			},
			{
				"type": "unocc",
				"energy": -0.10894,
				"method": "rhf"
			},
			{
				"type": "unocc",
				"energy": -0.10051,
				"method": "rhf"
			},
			{
				"type": "unocc",
				"energy": -0.05466,
				"method": "rhf"
			},
			{
				"type": "unocc",
				"energy": -0.04229,
				"method": "rhf"
			}
		],
		"cosmo_sigma_profile": { 
			"-0.025": 0.0,
			"-0.024": 0.0,
			"-0.023": 0.0,
			"-0.022": 0.0,
			"-0.021": 0.0,
			"-0.02": 0.0,
			"-0.019": 0.0,
			"-0.018": 0.0,
			"-0.017": 0.0,
			"-0.016": 0.0,
			"-0.015": 0.0,
			"-0.014": 0.0,
			"-0.013": 0.0,
			"-0.012": 0.0,
			"-0.011": 0.0,
			"-0.01": 0.183237722925,
			"-0.009": 2.2217991043,
			"-0.008": 9.51314513806,
			"-0.007": 20.1370187814,
			"-0.006": 21.5895240837,
			"-0.005": 19.2766288054,
			"-0.004": 21.7783452949,
			"-0.003": 25.242614809,
			"-0.002": 24.8846850219,
			"-0.001": 24.2569597597,
			"0.0": 21.244189921,
			"0.001": 19.8426309189,
			"0.002": 12.6150880144,
			"0.003": 7.37018961848,
			"0.004": 8.6801732197,
			"0.005": 9.96626652124,
			"0.006": 13.7951896533,
			"0.007": 25.4293111226,
			"0.008": 17.846369677,
			"0.009": 11.6349312786,
			"0.01": 3.91167118007,
			"0.011": 0.150360167259,
			"0.012": 0.0,
			"0.013": 0.0,
			"0.014": 0.0,
			"0.015": 0.0,
			"0.016": 0.0,
			"0.017": 0.0,
			"0.018": 0.0,
			"0.019": 0.0,
			"0.02": 0.0,
			"0.021": 0.0,
			"0.022": 0.0,
			"0.023": 0.0,
			"0.024": 0.0,
			"0.025": 0.0
		}
	}
}
