{
	 "smiles": "COC1=C(C)C=C(N)C=C1C", 
	 "Tm": 337.15, 
	 "num_atms": 24, 
	 "gaussian": { 
		 "optdone": 1, 
		 "sigma_profile": "yes", 
		 "theory": "DFT", 
		 "functional": "B3LYP", 
		 "basiset": "6-31G**", 
		 "properties": { 
			 "R2extent": 2004.8437, 
			 "electric_dipole_moment_norm": 2.52379725612, 
			 "electric_quadrupole_moment_norm": 7.88857150947, 
			 "total_energy": -480.766830406, 
			 "HOMO_LUMO_gap": 0.20003, 
			 "cosmo_polarized_energy": -9.44, 
			 "cosmo_cavitation_energy": 26.45, 
			 "cosmo_dispersion_energy": -19.12, 
			 "cosmo_repulsion_energy": 1.54, 
			 "cosmo_total_nonelectrostatic_energy": 8.87, 
			 "SMD_solvation_energy": 5.2 
		},
		"coords": [
			{
				"x": 2.1540091409,
				"y": 0.9608288841,
				"z": 0.6184072742,
				"element": "C" 
			},
			{
				"x": 0.8110994252,
				"y": 1.4318706754,
				"z": 0.6622118775,
				"element": "O" 
			},
			{
				"x": -0.1193550519,
				"y": 0.5834857904,
				"z": 0.0714740045,
				"element": "C" 
			},
			{
				"x": -0.4438566934,
				"y": 0.7542217039,
				"z": -1.2836861281,
				"element": "C" 
			},
			{
				"x": 0.2381558469,
				"y": 1.8207499697,
				"z": -2.1068885187,
				"element": "C" 
			},
			{
				"x": -1.4177123895,
				"y": -0.0720496982,
				"z": -1.8498947598,
				"element": "C" 
			},
			{
				"x": -2.0718377566,
				"y": -1.0556175876,
				"z": -1.0937600252,
				"element": "C" 
			},
			{
				"x": -3.0886397972,
				"y": -1.8355282755,
				"z": -1.6616028163,
				"element": "N" 
			},
			{
				"x": -1.739945613,
				"y": -1.1897610841,
				"z": 0.2622724985,
				"element": "C" 
			},
			{
				"x": -0.7706791199,
				"y": -0.3793795711,
				"z": 0.8585784152,
				"element": "C" 
			},
			{
				"x": -0.4379341221,
				"y": -0.5241556915,
				"z": 2.3243813418,
				"element": "C" 
			},
			{
				"x": 2.5061765718,
				"y": 0.8304675501,
				"z": -0.4133956199,
				"element": "H" 
			},
			{
				"x": 2.267831227,
				"y": 0.0056827483,
				"z": 1.1479137518,
				"element": "H" 
			},
			{
				"x": 2.7698211665,
				"y": 1.7170513529,
				"z": 1.1119095417,
				"element": "H" 
			},
			{
				"x": -0.3532970592,
				"y": 2.0694824626,
				"z": -2.9924482158,
				"element": "H" 
			},
			{
				"x": 0.3896343685,
				"y": 2.7292200545,
				"z": -1.5182387801,
				"element": "H" 
			},
			{
				"x": 1.226675872,
				"y": 1.4953782384,
				"z": -2.4552624334,
				"element": "H" 
			},
			{
				"x": -1.6839076131,
				"y": 0.0615379315,
				"z": -2.8965218975,
				"element": "H" 
			},
			{
				"x": -3.2418286619,
				"y": -2.7232075817,
				"z": -1.2022517602,
				"element": "H" 
			},
			{
				"x": -3.0188612152,
				"y": -1.9497288363,
				"z": -2.6638684612,
				"element": "H" 
			},
			{
				"x": -2.2582305251,
				"y": -1.9304800399,
				"z": 0.8679552138,
				"element": "H" 
			},
			{
				"x": -1.2479356009,
				"y": -1.0250470671,
				"z": 2.8619019724,
				"element": "H" 
			},
			{
				"x": -0.2632269355,
				"y": 0.4529693572,
				"z": 2.7820276425,
				"element": "H" 
			},
			{
				"x": 0.4720445357,
				"y": -1.1180912858,
				"z": 2.4779858822,
				"element": "H" 
			}
		],
		 "valence_orbital": [ 
			{
				"type": "occ",
				"energy": -0.32999,
				"method": "rhf"
			},
			{
				"type": "occ",
				"energy": -0.27927,
				"method": "rhf"
			},
			{
				"type": "occ",
				"energy": -0.2589,
				"method": "rhf"
			},
			{
				"type": "occ",
				"energy": -0.22765,
				"method": "rhf"
			},
			{
				"type": "occ",
				"energy": -0.1883,
				"method": "rhf"
			},
			{
				"type": "unocc",
				"energy": 0.01173,
				"method": "rhf"
			},
			{
				"type": "unocc",
				"energy": 0.02662,
				"method": "rhf"
			},
			{
				"type": "unocc",
				"energy": 0.08561,
				"method": "rhf"
			},
			{
				"type": "unocc",
				"energy": 0.0917,
				"method": "rhf"
			},
			{
				"type": "unocc",
				"energy": 0.11912,
				"method": "rhf"
			}
		],
		"cosmo_sigma_profile": { 
			"-0.025": 0.0,
			"-0.024": 0.0,
			"-0.023": 0.0,
			"-0.022": 0.0,
			"-0.021": 0.0,
			"-0.02": 0.0,
			"-0.019": 0.0,
			"-0.018": 0.0,
			"-0.017": 0.0,
			"-0.016": 0.0,
			"-0.015": 0.0,
			"-0.014": 0.0,
			"-0.013": 0.0210548288467,
			"-0.012": 1.37714976339,
			"-0.011": 2.54821328537,
			"-0.01": 2.59436774212,
			"-0.009": 2.80755512863,
			"-0.008": 3.13409407761,
			"-0.007": 2.97507825355,
			"-0.006": 3.26820260273,
			"-0.005": 6.3230213611,
			"-0.004": 19.3594192675,
			"-0.003": 21.1086196189,
			"-0.002": 22.5790075527,
			"-0.001": 17.4823265251,
			"0.0": 19.6357565544,
			"0.001": 16.4719066456,
			"0.002": 9.67491990954,
			"0.003": 7.71583792207,
			"0.004": 7.67379374593,
			"0.005": 8.08262364602,
			"0.006": 9.71690234815,
			"0.007": 10.1980802211,
			"0.008": 2.63298392021,
			"0.009": 2.12233335742,
			"0.01": 1.71544585612,
			"0.011": 0.959161967509,
			"0.012": 2.16325947735,
			"0.013": 1.39201236932,
			"0.014": 0.759990443373,
			"0.015": 0.507208627083,
			"0.016": 0.200683956411,
			"0.017": 0.0,
			"0.018": 0.0,
			"0.019": 0.0,
			"0.02": 0.0,
			"0.021": 0.0,
			"0.022": 0.0,
			"0.023": 0.0,
			"0.024": 0.0,
			"0.025": 0.0
		}
	}
}
