{
	 "smiles": "NC(=O)C1=CC(Cl)=NC=C1", 
	 "Tm": 475.15, 
	 "num_atms": 15, 
	 "gaussian": { 
		 "optdone": 1, 
		 "sigma_profile": "yes", 
		 "theory": "DFT", 
		 "functional": "B3LYP", 
		 "basiset": "6-31G**", 
		 "properties": { 
			 "R2extent": 2899.1906, 
			 "electric_dipole_moment_norm": 5.09677940763, 
			 "electric_quadrupole_moment_norm": 12.2212562186, 
			 "total_energy": -876.581908007, 
			 "HOMO_LUMO_gap": 0.19799, 
			 "cosmo_polarized_energy": -15.45, 
			 "cosmo_cavitation_energy": 21.79, 
			 "cosmo_dispersion_energy": -16.42, 
			 "cosmo_repulsion_energy": 1.34, 
			 "cosmo_total_nonelectrostatic_energy": 6.71, 
			 "SMD_solvation_energy": 2.99 
		},
		"coords": [
			{
				"x": 1.5463499053,
				"y": -0.8756401385,
				"z": -0.6430531737,
				"element": "N" 
			},
			{
				"x": 0.3655030077,
				"y": -0.275072394,
				"z": -0.9904232494,
				"element": "C" 
			},
			{
				"x": -0.3950597824,
				"y": -0.7485783363,
				"z": -1.8221949075,
				"element": "O" 
			},
			{
				"x": 0.0366062902,
				"y": 1.0074274674,
				"z": -0.2650153031,
				"element": "C" 
			},
			{
				"x": -0.9250478705,
				"y": 1.8390469978,
				"z": -0.839638112,
				"element": "C" 
			},
			{
				"x": -1.2329055997,
				"y": 3.0263555119,
				"z": -0.1744770096,
				"element": "C" 
			},
			{
				"x": -2.4258639238,
				"y": 4.1046863593,
				"z": -0.8886665232,
				"element": "Cl" 
			},
			{
				"x": -0.6916467539,
				"y": 3.416244902,
				"z": 0.9676243525,
				"element": "N" 
			},
			{
				"x": 0.2157864808,
				"y": 2.6005124631,
				"z": 1.5214481263,
				"element": "C" 
			},
			{
				"x": 0.6156157494,
				"y": 1.3944155904,
				"z": 0.9505691541,
				"element": "C" 
			},
			{
				"x": 2.2827781729,
				"y": -0.3567211508,
				"z": -0.1915697957,
				"element": "H" 
			},
			{
				"x": 1.8145999932,
				"y": -1.6762116299,
				"z": -1.197079224,
				"element": "H" 
			},
			{
				"x": -1.4059733374,
				"y": 1.5539432003,
				"z": -1.7667965541,
				"element": "H" 
			},
			{
				"x": 0.6362724495,
				"y": 2.9308871526,
				"z": 2.4685423952,
				"element": "H" 
			},
			{
				"x": 1.3334852187,
				"y": 0.7664040047,
				"z": 1.4674298241,
				"element": "H" 
			}
		],
		 "valence_orbital": [ 
			{
				"type": "occ",
				"energy": -0.3056,
				"method": "rhf"
			},
			{
				"type": "occ",
				"energy": -0.2908,
				"method": "rhf"
			},
			{
				"type": "occ",
				"energy": -0.28525,
				"method": "rhf"
			},
			{
				"type": "occ",
				"energy": -0.27093,
				"method": "rhf"
			},
			{
				"type": "occ",
				"energy": -0.26645,
				"method": "rhf"
			},
			{
				"type": "unocc",
				"energy": -0.06846,
				"method": "rhf"
			},
			{
				"type": "unocc",
				"energy": -0.03433,
				"method": "rhf"
			},
			{
				"type": "unocc",
				"energy": 0.03025,
				"method": "rhf"
			},
			{
				"type": "unocc",
				"energy": 0.03825,
				"method": "rhf"
			},
			{
				"type": "unocc",
				"energy": 0.06206,
				"method": "rhf"
			}
		],
		"cosmo_sigma_profile": { 
			"-0.025": 0.0,
			"-0.024": 0.0,
			"-0.023": 0.0,
			"-0.022": 0.0,
			"-0.021": 0.0,
			"-0.02": 0.0,
			"-0.019": 0.0,
			"-0.018": 0.0,
			"-0.017": 0.0,
			"-0.016": 0.0,
			"-0.015": 1.5733513736,
			"-0.014": 2.27334922379,
			"-0.013": 2.61958949333,
			"-0.012": 2.73836666068,
			"-0.011": 2.85956766269,
			"-0.01": 2.40839722152,
			"-0.009": 3.36922004681,
			"-0.008": 4.80412915423,
			"-0.007": 6.08516406195,
			"-0.006": 5.57104217787,
			"-0.005": 5.12162992787,
			"-0.004": 6.13127600628,
			"-0.003": 7.0991921053,
			"-0.002": 11.3243883638,
			"-0.001": 18.5730835356,
			"0.0": 17.6407541393,
			"0.001": 10.5273271476,
			"0.002": 7.92142192522,
			"0.003": 9.79529267654,
			"0.004": 12.4334576692,
			"0.005": 7.01581268744,
			"0.006": 4.19614125052,
			"0.007": 3.86695377277,
			"0.008": 2.19275223632,
			"0.009": 2.42639623298,
			"0.01": 2.60539749174,
			"0.011": 2.62592231553,
			"0.012": 4.56890990073,
			"0.013": 5.53215388329,
			"0.014": 1.31277800236,
			"0.015": 0.0219361641008,
			"0.016": 0.0,
			"0.017": 0.0,
			"0.018": 0.0,
			"0.019": 0.0,
			"0.02": 0.0,
			"0.021": 0.0,
			"0.022": 0.0,
			"0.023": 0.0,
			"0.024": 0.0,
			"0.025": 0.0
		}
	}
}
