{
	 "smiles": "COC(=O)C1=C(OC)C(OC)=CC=C1", 
	 "Tm": 320.65, 
	 "num_atms": 26, 
	 "gaussian": { 
		 "optdone": 1, 
		 "sigma_profile": "yes", 
		 "theory": "DFT", 
		 "functional": "B3LYP", 
		 "basiset": "6-31G**", 
		 "properties": { 
			 "R2extent": 3232.8438, 
			 "electric_dipole_moment_norm": 1.31513648341, 
			 "electric_quadrupole_moment_norm": 7.7225173072, 
			 "total_energy": -689.163095766, 
			 "HOMO_LUMO_gap": 0.19599, 
			 "cosmo_polarized_energy": -9.23, 
			 "cosmo_cavitation_energy": 29.78, 
			 "cosmo_dispersion_energy": -21.3, 
			 "cosmo_repulsion_energy": 1.69, 
			 "cosmo_total_nonelectrostatic_energy": 10.17, 
			 "SMD_solvation_energy": 8.15 
		},
		"coords": [
			{
				"x": -3.2776437717,
				"y": 1.7872149324,
				"z": -0.960923565,
				"element": "C" 
			},
			{
				"x": -1.8505454895,
				"y": 1.7586233586,
				"z": -0.8098938155,
				"element": "O" 
			},
			{
				"x": -1.2793546128,
				"y": 0.5405446945,
				"z": -0.9834899355,
				"element": "C" 
			},
			{
				"x": -1.9286007142,
				"y": -0.4572890141,
				"z": -1.2244942948,
				"element": "O" 
			},
			{
				"x": 0.2072247513,
				"y": 0.6150038471,
				"z": -0.8715874841,
				"element": "C" 
			},
			{
				"x": 0.9521770142,
				"y": -0.5164245248,
				"z": -0.483552737,
				"element": "C" 
			},
			{
				"x": 0.3419783356,
				"y": -1.6705728683,
				"z": -0.0723875332,
				"element": "O" 
			},
			{
				"x": 0.2391124937,
				"y": -2.6945377572,
				"z": -1.073296544,
				"element": "C" 
			},
			{
				"x": 2.3583431963,
				"y": -0.4356674921,
				"z": -0.4399081118,
				"element": "C" 
			},
			{
				"x": 3.1140825707,
				"y": -1.5351786362,
				"z": -0.108651235,
				"element": "O" 
			},
			{
				"x": 3.06696727,
				"y": -1.9163548929,
				"z": 1.2718502314,
				"element": "C" 
			},
			{
				"x": 3.005948822,
				"y": 0.7495979009,
				"z": -0.7869558329,
				"element": "C" 
			},
			{
				"x": 2.2656347455,
				"y": 1.8704635932,
				"z": -1.1663090572,
				"element": "C" 
			},
			{
				"x": 0.8764084107,
				"y": 1.8079074389,
				"z": -1.1928207855,
				"element": "C" 
			},
			{
				"x": -3.5682704576,
				"y": 1.4577333637,
				"z": -1.9619372659,
				"element": "H" 
			},
			{
				"x": -3.7554123718,
				"y": 1.1350484135,
				"z": -0.2255882496,
				"element": "H" 
			},
			{
				"x": -3.5693964566,
				"y": 2.8249710779,
				"z": -0.7989757085,
				"element": "H" 
			},
			{
				"x": 1.2285617442,
				"y": -2.9584315258,
				"z": -1.461954071,
				"element": "H" 
			},
			{
				"x": -0.4223951178,
				"y": -2.3663581775,
				"z": -1.8794659016,
				"element": "H" 
			},
			{
				"x": -0.2006861208,
				"y": -3.5598215882,
				"z": -0.5738181755,
				"element": "H" 
			},
			{
				"x": 3.7062168263,
				"y": -2.7965608127,
				"z": 1.3659225042,
				"element": "H" 
			},
			{
				"x": 2.0474819694,
				"y": -2.1641235402,
				"z": 1.5801118011,
				"element": "H" 
			},
			{
				"x": 3.4609564691,
				"y": -1.114498249,
				"z": 1.9094677807,
				"element": "H" 
			},
			{
				"x": 4.0908045464,
				"y": 0.7699909139,
				"z": -0.7534904083,
				"element": "H" 
			},
			{
				"x": 2.7741512238,
				"y": 2.7917559584,
				"z": -1.4329723601,
				"element": "H" 
			},
			{
				"x": 0.2911547238,
				"y": 2.6740635862,
				"z": -1.4777792455,
				"element": "H" 
			}
		],
		 "valence_orbital": [ 
			{
				"type": "occ",
				"energy": -0.28792,
				"method": "rhf"
			},
			{
				"type": "occ",
				"energy": -0.27583,
				"method": "rhf"
			},
			{
				"type": "occ",
				"energy": -0.25644,
				"method": "rhf"
			},
			{
				"type": "occ",
				"energy": -0.25145,
				"method": "rhf"
			},
			{
				"type": "occ",
				"energy": -0.23466,
				"method": "rhf"
			},
			{
				"type": "unocc",
				"energy": -0.03867,
				"method": "rhf"
			},
			{
				"type": "unocc",
				"energy": -0.00214,
				"method": "rhf"
			},
			{
				"type": "unocc",
				"energy": 0.05259,
				"method": "rhf"
			},
			{
				"type": "unocc",
				"energy": 0.08555,
				"method": "rhf"
			},
			{
				"type": "unocc",
				"energy": 0.10857,
				"method": "rhf"
			}
		],
		"cosmo_sigma_profile": { 
			"-0.025": 0.0,
			"-0.024": 0.0,
			"-0.023": 0.0,
			"-0.022": 0.0,
			"-0.021": 0.0,
			"-0.02": 0.0,
			"-0.019": 0.0,
			"-0.018": 0.0,
			"-0.017": 0.0,
			"-0.016": 0.0,
			"-0.015": 0.0,
			"-0.014": 0.0,
			"-0.013": 0.0,
			"-0.012": 0.0,
			"-0.011": 0.0,
			"-0.01": 0.0,
			"-0.009": 0.0,
			"-0.008": 0.00983760194177,
			"-0.007": 2.29833433002,
			"-0.006": 10.5049637747,
			"-0.005": 18.4697866037,
			"-0.004": 23.3241944328,
			"-0.003": 30.0990590711,
			"-0.002": 26.5360120415,
			"-0.001": 17.2733976704,
			"0.0": 15.9702203667,
			"0.001": 14.5762357241,
			"0.002": 16.0761520823,
			"0.003": 15.0505950111,
			"0.004": 11.8394584783,
			"0.005": 5.77720317862,
			"0.006": 3.65327524974,
			"0.007": 4.43624240562,
			"0.008": 3.84213064488,
			"0.009": 3.6786468351,
			"0.01": 4.17939781974,
			"0.011": 4.83772546653,
			"0.012": 3.87925855587,
			"0.013": 0.132092180189,
			"0.014": 0.0,
			"0.015": 0.0,
			"0.016": 0.0,
			"0.017": 0.0,
			"0.018": 0.0,
			"0.019": 0.0,
			"0.02": 0.0,
			"0.021": 0.0,
			"0.022": 0.0,
			"0.023": 0.0,
			"0.024": 0.0,
			"0.025": 0.0
		}
	}
}
