{
	 "smiles": "C1=CC2=C(C=C1)C1C3=CC=CC=C3C2C2=C1C=CC=C2", 
	 "Tm": 527.15, 
	 "num_atms": 34, 
	 "gaussian": { 
		 "optdone": 1, 
		 "sigma_profile": "yes", 
		 "theory": "DFT", 
		 "functional": "B3LYP", 
		 "basiset": "6-31G**", 
		 "properties": { 
			 "R2extent": 4634.3983, 
			 "electric_dipole_moment_norm": 0.000331662479036, 
			 "electric_quadrupole_moment_norm": 7.26863440338, 
			 "total_energy": -770.577867072, 
			 "HOMO_LUMO_gap": 0.20724, 
			 "cosmo_polarized_energy": -8.05, 
			 "cosmo_cavitation_energy": 36.15, 
			 "cosmo_dispersion_energy": -25.77, 
			 "cosmo_repulsion_energy": 1.96, 
			 "cosmo_total_nonelectrostatic_energy": 12.34, 
			 "SMD_solvation_energy": 5.21 
		},
		"coords": [
			{
				"x": -1.3580568124,
				"y": 3.6006529421,
				"z": 0.8916667498,
				"element": "C" 
			},
			{
				"x": -1.8077005793,
				"y": 2.600373414,
				"z": 0.0187135592,
				"element": "C" 
			},
			{
				"x": -1.0924957228,
				"y": 1.4134822238,
				"z": -0.0838637394,
				"element": "C" 
			},
			{
				"x": 0.0712623424,
				"y": 1.2175901428,
				"z": 0.6806976085,
				"element": "C" 
			},
			{
				"x": 0.517221844,
				"y": 2.2090011755,
				"z": 1.546137684,
				"element": "C" 
			},
			{
				"x": -0.2040692617,
				"y": 3.4063943157,
				"z": 1.6498182971,
				"element": "C" 
			},
			{
				"x": 0.7219282917,
				"y": -0.145784424,
				"z": 0.4350846497,
				"element": "C" 
			},
			{
				"x": 0.9803786068,
				"y": -0.220814419,
				"z": -1.071595784,
				"element": "C" 
			},
			{
				"x": 2.1994780858,
				"y": -0.4530567012,
				"z": -1.6965935674,
				"element": "C" 
			},
			{
				"x": 2.2581687007,
				"y": -0.4902333319,
				"z": -3.0965741978,
				"element": "C" 
			},
			{
				"x": 1.1041448655,
				"y": -0.2960322163,
				"z": -3.8546804637,
				"element": "C" 
			},
			{
				"x": -0.1255184011,
				"y": -0.0617739195,
				"z": -3.2239494183,
				"element": "C" 
			},
			{
				"x": -0.1834199931,
				"y": -0.0249559056,
				"z": -1.8361308177,
				"element": "C" 
			},
			{
				"x": -1.4264994445,
				"y": 0.2158038712,
				"z": -0.976307972,
				"element": "C" 
			},
			{
				"x": -1.5266040674,
				"y": -0.9897648325,
				"z": -0.038720781,
				"element": "C" 
			},
			{
				"x": -0.3628142509,
				"y": -1.1856444384,
				"z": 0.7258038063,
				"element": "C" 
			},
			{
				"x": -0.2860623137,
				"y": -2.2383523129,
				"z": 1.6295031157,
				"element": "C" 
			},
			{
				"x": -1.3798640162,
				"y": -3.1032943805,
				"z": 1.7718202164,
				"element": "C" 
			},
			{
				"x": -2.5338824893,
				"y": -2.9090628936,
				"z": 1.0137112905,
				"element": "C" 
			},
			{
				"x": -2.6110310842,
				"y": -1.8470482139,
				"z": 0.1021467886,
				"element": "C" 
			},
			{
				"x": -1.9125481452,
				"y": 4.5308740465,
				"z": 0.9765696214,
				"element": "H" 
			},
			{
				"x": -2.7074687939,
				"y": 2.7521788131,
				"z": -0.5722651547,
				"element": "H" 
			},
			{
				"x": 1.4169249483,
				"y": 2.0578461568,
				"z": 2.1373813056,
				"element": "H" 
			},
			{
				"x": 0.139130984,
				"y": 4.1854941928,
				"z": 2.3245014064,
				"element": "H" 
			},
			{
				"x": 1.6261986954,
				"y": -0.2979469804,
				"z": 1.0291608123,
				"element": "H" 
			},
			{
				"x": 3.099412735,
				"y": -0.6045610756,
				"z": -1.1057955296,
				"element": "H" 
			},
			{
				"x": 3.2080567828,
				"y": -0.6713352516,
				"z": -3.5914440306,
				"element": "H" 
			},
			{
				"x": 1.1563216956,
				"y": -0.3260630189,
				"z": -4.9392804077,
				"element": "H" 
			},
			{
				"x": -1.0251014928,
				"y": 0.0895550089,
				"z": -3.8153302221,
				"element": "H" 
			},
			{
				"x": -2.3307677014,
				"y": 0.3679976074,
				"z": -1.5703740931,
				"element": "H" 
			},
			{
				"x": 0.6135580102,
				"y": -2.3900835218,
				"z": 2.2207226675,
				"element": "H" 
			},
			{
				"x": -1.3263595791,
				"y": -3.9282263909,
				"z": 2.4765226881,
				"element": "H" 
			},
			{
				"x": -3.3781052828,
				"y": -3.5828978939,
				"z": 1.1286660619,
				"element": "H" 
			},
			{
				"x": -3.5109171565,
				"y": -1.6959117881,
				"z": -0.4888221496,
				"element": "H" 
			}
		],
		 "valence_orbital": [ 
			{
				"type": "occ",
				"energy": -0.24606,
				"method": "rhf"
			},
			{
				"type": "occ",
				"energy": -0.24479,
				"method": "rhf"
			},
			{
				"type": "occ",
				"energy": -0.24478,
				"method": "rhf"
			},
			{
				"type": "occ",
				"energy": -0.2418,
				"method": "rhf"
			},
			{
				"type": "occ",
				"energy": -0.21407,
				"method": "rhf"
			},
			{
				"type": "unocc",
				"energy": -0.00683,
				"method": "rhf"
			},
			{
				"type": "unocc",
				"energy": -0.00682,
				"method": "rhf"
			},
			{
				"type": "unocc",
				"energy": -0.00406,
				"method": "rhf"
			},
			{
				"type": "unocc",
				"energy": -0.00406,
				"method": "rhf"
			},
			{
				"type": "unocc",
				"energy": 0.02896,
				"method": "rhf"
			}
		],
		"cosmo_sigma_profile": { 
			"-0.025": 0.0,
			"-0.024": 0.0,
			"-0.023": 0.0,
			"-0.022": 0.0,
			"-0.021": 0.0,
			"-0.02": 0.0,
			"-0.019": 0.0,
			"-0.018": 0.0,
			"-0.017": 0.0,
			"-0.016": 0.0,
			"-0.015": 0.0,
			"-0.014": 0.0,
			"-0.013": 0.0,
			"-0.012": 0.0,
			"-0.011": 0.0,
			"-0.01": 0.0,
			"-0.009": 0.0,
			"-0.008": 0.0,
			"-0.007": 0.0,
			"-0.006": 8.30442332751,
			"-0.005": 38.5524226131,
			"-0.004": 29.9135812921,
			"-0.003": 29.1007351033,
			"-0.002": 19.2144017959,
			"-0.001": 18.0757323543,
			"0.0": 15.5743614224,
			"0.001": 15.4725796498,
			"0.002": 18.5223082825,
			"0.003": 18.4124052892,
			"0.004": 25.3918918454,
			"0.005": 26.7001032903,
			"0.006": 23.3882026325,
			"0.007": 3.10853792265,
			"0.008": 0.0,
			"0.009": 0.0,
			"0.01": 0.0,
			"0.011": 0.0,
			"0.012": 0.0,
			"0.013": 0.0,
			"0.014": 0.0,
			"0.015": 0.0,
			"0.016": 0.0,
			"0.017": 0.0,
			"0.018": 0.0,
			"0.019": 0.0,
			"0.02": 0.0,
			"0.021": 0.0,
			"0.022": 0.0,
			"0.023": 0.0,
			"0.024": 0.0,
			"0.025": 0.0
		}
	}
}
