{
	 "smiles": "CN1C2=C(C=CC=C2)C(Br)=C1C(O)=O", 
	 "Tm": 478.15, 
	 "num_atms": 22, 
	 "gaussian": { 
		 "optdone": 1, 
		 "sigma_profile": "yes", 
		 "theory": "DFT", 
		 "functional": "B3LYP", 
		 "basiset": "6-31G**", 
		 "properties": { 
			 "R2extent": 4623.7993, 
			 "electric_dipole_moment_norm": 1.63658435163, 
			 "electric_quadrupole_moment_norm": 8.80018615826, 
			 "total_energy": -3162.50441357, 
			 "HOMO_LUMO_gap": 0.15532, 
			 "cosmo_polarized_energy": -10.09, 
			 "cosmo_cavitation_energy": 28.07, 
			 "cosmo_dispersion_energy": -21.25, 
			 "cosmo_repulsion_energy": 1.64, 
			 "cosmo_total_nonelectrostatic_energy": 8.46, 
			 "SMD_solvation_energy": 4.74 
		},
		"coords": [
			{
				"x": -0.9234709027,
				"y": -1.790252506,
				"z": 1.6397291332,
				"element": "C" 
			},
			{
				"x": 0.1627036415,
				"y": -1.1774287873,
				"z": 0.8809988082,
				"element": "N" 
			},
			{
				"x": 0.9237094155,
				"y": -0.1185570802,
				"z": 1.3201144911,
				"element": "C" 
			},
			{
				"x": 1.8791571291,
				"y": 0.2023357969,
				"z": 0.3159501864,
				"element": "C" 
			},
			{
				"x": 2.7890411844,
				"y": 1.2576682581,
				"z": 0.5159731473,
				"element": "C" 
			},
			{
				"x": 2.7309473778,
				"y": 1.9671406928,
				"z": 1.7013733923,
				"element": "C" 
			},
			{
				"x": 1.7771977356,
				"y": 1.6408855115,
				"z": 2.6945942189,
				"element": "C" 
			},
			{
				"x": 0.8701624854,
				"y": 0.6074030445,
				"z": 2.5237609127,
				"element": "C" 
			},
			{
				"x": 1.6587829335,
				"y": -0.712140105,
				"z": -0.7487131778,
				"element": "C" 
			},
			{
				"x": 2.679517364,
				"y": -0.697807069,
				"z": -2.3287220208,
				"element": "Br" 
			},
			{
				"x": 0.6083094817,
				"y": -1.5498397643,
				"z": -0.3924395989,
				"element": "C" 
			},
			{
				"x": -0.0288493403,
				"y": -2.6608616481,
				"z": -1.1063698081,
				"element": "C" 
			},
			{
				"x": 0.514098436,
				"y": -2.8953549227,
				"z": -2.320349457,
				"element": "O" 
			},
			{
				"x": -0.9578102266,
				"y": -3.3263092261,
				"z": -0.6769238636,
				"element": "O" 
			},
			{
				"x": -1.0115886425,
				"y": -1.2639651532,
				"z": 2.5896155209,
				"element": "H" 
			},
			{
				"x": -1.8673043103,
				"y": -1.7186827574,
				"z": 1.0972955596,
				"element": "H" 
			},
			{
				"x": -0.7210757086,
				"y": -2.8456063332,
				"z": 1.8279898195,
				"element": "H" 
			},
			{
				"x": 3.5152298409,
				"y": 1.4970568808,
				"z": -0.2542293271,
				"element": "H" 
			},
			{
				"x": 3.422617597,
				"y": 2.7850683495,
				"z": 1.8776793548,
				"element": "H" 
			},
			{
				"x": 1.7547852026,
				"y": 2.2154764174,
				"z": 3.6159172472,
				"element": "H" 
			},
			{
				"x": 0.1484718544,
				"y": 0.3764623036,
				"z": 3.2998093334,
				"element": "H" 
			},
			{
				"x": 0.0125674514,
				"y": -3.6425919028,
				"z": -2.6869538722,
				"element": "H" 
			}
		],
		 "valence_orbital": [ 
			{
				"type": "occ",
				"energy": -0.28416,
				"method": "rhf"
			},
			{
				"type": "occ",
				"energy": -0.28038,
				"method": "rhf"
			},
			{
				"type": "occ",
				"energy": -0.26984,
				"method": "rhf"
			},
			{
				"type": "occ",
				"energy": -0.23545,
				"method": "rhf"
			},
			{
				"type": "occ",
				"energy": -0.21171,
				"method": "rhf"
			},
			{
				"type": "unocc",
				"energy": -0.05639,
				"method": "rhf"
			},
			{
				"type": "unocc",
				"energy": 0.01025,
				"method": "rhf"
			},
			{
				"type": "unocc",
				"energy": 0.01694,
				"method": "rhf"
			},
			{
				"type": "unocc",
				"energy": 0.0217,
				"method": "rhf"
			},
			{
				"type": "unocc",
				"energy": 0.07832,
				"method": "rhf"
			}
		],
		"cosmo_sigma_profile": { 
			"-0.025": 0.0,
			"-0.024": 0.0,
			"-0.023": 0.0,
			"-0.022": 0.0,
			"-0.021": 0.0,
			"-0.02": 0.0,
			"-0.019": 0.063617849668,
			"-0.018": 0.726834800793,
			"-0.017": 1.12180898234,
			"-0.016": 0.790394653681,
			"-0.015": 0.4528380642,
			"-0.014": 1.06438010872,
			"-0.013": 0.578863121007,
			"-0.012": 0.67727816359,
			"-0.011": 0.743625583512,
			"-0.01": 0.690837447939,
			"-0.009": 1.32683379105,
			"-0.008": 2.86860470837,
			"-0.007": 3.24961540991,
			"-0.006": 7.55413691748,
			"-0.005": 14.0600238365,
			"-0.004": 16.0297043739,
			"-0.003": 20.2628292022,
			"-0.002": 17.5070126122,
			"-0.001": 13.0933593887,
			"0.0": 12.7170362789,
			"0.001": 18.4620501886,
			"0.002": 20.2072329354,
			"0.003": 19.5538488789,
			"0.004": 19.4944013123,
			"0.005": 13.6643030643,
			"0.006": 4.39793884912,
			"0.007": 2.7178668585,
			"0.008": 4.60317299371,
			"0.009": 2.38821217164,
			"0.01": 1.93242927064,
			"0.011": 2.83143090406,
			"0.012": 2.31077236227,
			"0.013": 0.0208539090333,
			"0.014": 0.0,
			"0.015": 0.0,
			"0.016": 0.0,
			"0.017": 0.0,
			"0.018": 0.0,
			"0.019": 0.0,
			"0.02": 0.0,
			"0.021": 0.0,
			"0.022": 0.0,
			"0.023": 0.0,
			"0.024": 0.0,
			"0.025": 0.0
		}
	}
}
