{
	 "smiles": "OC(=O)C1=CC2=C(N1)C(=CC=C2)[N+]([O-])=O", 
	 "Tm": 538.15, 
	 "num_atms": 21, 
	 "gaussian": { 
		 "optdone": 1, 
		 "sigma_profile": "yes", 
		 "theory": "DFT", 
		 "functional": "B3LYP", 
		 "basiset": "6-31G**", 
		 "properties": { 
			 "R2extent": 3319.349, 
			 "electric_dipole_moment_norm": 3.75366555116, 
			 "electric_quadrupole_moment_norm": 19.9969877614, 
			 "total_energy": -756.886054895, 
			 "HOMO_LUMO_gap": 0.14251, 
			 "cosmo_polarized_energy": -18.89, 
			 "cosmo_cavitation_energy": 26.91, 
			 "cosmo_dispersion_energy": -19.89, 
			 "cosmo_repulsion_energy": 1.53, 
			 "cosmo_total_nonelectrostatic_energy": 8.55, 
			 "SMD_solvation_energy": 7.54 
		},
		"coords": [
			{
				"x": -0.431632566,
				"y": 0.688405165,
				"z": 3.3200300791,
				"element": "O" 
			},
			{
				"x": -0.6301844146,
				"y": -0.568104413,
				"z": 2.8288048164,
				"element": "C" 
			},
			{
				"x": -0.9137134181,
				"y": -1.4814488435,
				"z": 3.5647737957,
				"element": "O" 
			},
			{
				"x": -0.4692377105,
				"y": -0.7297404601,
				"z": 1.3674259304,
				"element": "C" 
			},
			{
				"x": -0.9721282864,
				"y": -1.7396962721,
				"z": 0.5832888346,
				"element": "C" 
			},
			{
				"x": -0.5915868179,
				"y": -1.4586323745,
				"z": -0.7677112173,
				"element": "C" 
			},
			{
				"x": 0.1661854683,
				"y": -0.2499502673,
				"z": -0.7319989959,
				"element": "C" 
			},
			{
				"x": 0.2068363265,
				"y": 0.1862849085,
				"z": 0.5608482359,
				"element": "N" 
			},
			{
				"x": 0.7200579497,
				"y": 0.2769546303,
				"z": -1.9115893719,
				"element": "C" 
			},
			{
				"x": 0.5022363521,
				"y": -0.3799498638,
				"z": -3.1190929898,
				"element": "C" 
			},
			{
				"x": -0.2570920574,
				"y": -1.5589079717,
				"z": -3.1577889073,
				"element": "C" 
			},
			{
				"x": -0.8023119159,
				"y": -2.1026922892,
				"z": -1.9975301841,
				"element": "C" 
			},
			{
				"x": 1.5139485822,
				"y": 1.4903783408,
				"z": -1.8766484224,
				"element": "N" 
			},
			{
				"x": 1.7001758446,
				"y": 2.0147363708,
				"z": -0.7648375266,
				"element": "O" 
			},
			{
				"x": 1.9593259708,
				"y": 1.9377613405,
				"z": -2.9295028448,
				"element": "O" 
			},
			{
				"x": -0.4670463554,
				"y": 1.3457669587,
				"z": 2.6101809623,
				"element": "H" 
			},
			{
				"x": -1.5626389767,
				"y": -2.5673065061,
				"z": 0.947073597,
				"element": "H" 
			},
			{
				"x": 0.8338156681,
				"y": 0.92979388,
				"z": 0.8372438022,
				"element": "H" 
			},
			{
				"x": 0.9332576722,
				"y": 0.0422688559,
				"z": -4.018520898,
				"element": "H" 
			},
			{
				"x": -0.4135135529,
				"y": -2.052425183,
				"z": -4.1110197467,
				"element": "H" 
			},
			{
				"x": -1.3809537625,
				"y": -3.020496006,
				"z": -2.0409289488,
				"element": "H" 
			}
		],
		 "valence_orbital": [ 
			{
				"type": "occ",
				"energy": -0.31912,
				"method": "rhf"
			},
			{
				"type": "occ",
				"energy": -0.30701,
				"method": "rhf"
			},
			{
				"type": "occ",
				"energy": -0.28997,
				"method": "rhf"
			},
			{
				"type": "occ",
				"energy": -0.26533,
				"method": "rhf"
			},
			{
				"type": "occ",
				"energy": -0.24939,
				"method": "rhf"
			},
			{
				"type": "unocc",
				"energy": -0.10688,
				"method": "rhf"
			},
			{
				"type": "unocc",
				"energy": -0.05793,
				"method": "rhf"
			},
			{
				"type": "unocc",
				"energy": -0.01383,
				"method": "rhf"
			},
			{
				"type": "unocc",
				"energy": 0.00904,
				"method": "rhf"
			},
			{
				"type": "unocc",
				"energy": 0.03882,
				"method": "rhf"
			}
		],
		"cosmo_sigma_profile": { 
			"-0.025": 0.0,
			"-0.024": 0.0,
			"-0.023": 0.0,
			"-0.022": 0.0,
			"-0.021": 0.0,
			"-0.02": 0.946449384618,
			"-0.019": 1.24102825796,
			"-0.018": 1.12039979678,
			"-0.017": 1.64843765004,
			"-0.016": 0.838254960427,
			"-0.015": 1.44793567093,
			"-0.014": 1.39955110197,
			"-0.013": 1.23497059715,
			"-0.012": 1.4945751285,
			"-0.011": 0.567780285156,
			"-0.01": 0.827732347788,
			"-0.009": 1.69749151299,
			"-0.008": 5.1485493495,
			"-0.007": 9.9780771605,
			"-0.006": 11.7108504876,
			"-0.005": 11.2823018325,
			"-0.004": 10.1538620062,
			"-0.003": 10.0346069771,
			"-0.002": 12.7202811141,
			"-0.001": 14.644648811,
			"0.0": 17.2231581742,
			"0.001": 16.2482218438,
			"0.002": 15.9095171604,
			"0.003": 8.59705622722,
			"0.004": 4.25506851732,
			"0.005": 5.60867191404,
			"0.006": 5.31650644368,
			"0.007": 8.00577582486,
			"0.008": 8.86200986767,
			"0.009": 8.06724817196,
			"0.01": 7.94733754348,
			"0.011": 6.27013688602,
			"0.012": 3.87610162193,
			"0.013": 0.629988181521,
			"0.014": 0.0,
			"0.015": 0.0,
			"0.016": 0.0,
			"0.017": 0.0,
			"0.018": 0.0,
			"0.019": 0.0,
			"0.02": 0.0,
			"0.021": 0.0,
			"0.022": 0.0,
			"0.023": 0.0,
			"0.024": 0.0,
			"0.025": 0.0
		}
	}
}
