{
	 "smiles": "ClCC(=O)NNC(=O)C1CCC1", 
	 "Tm": 473.15, 
	 "num_atms": 23, 
	 "gaussian": { 
		 "optdone": 1, 
		 "sigma_profile": "yes", 
		 "theory": "DFT", 
		 "functional": "B3LYP", 
		 "basiset": "6-31G**", 
		 "properties": { 
			 "R2extent": 4170.1802, 
			 "electric_dipole_moment_norm": 1.78452186874, 
			 "electric_quadrupole_moment_norm": 9.15903536242, 
			 "total_energy": -993.491475821, 
			 "HOMO_LUMO_gap": 0.22786, 
			 "cosmo_polarized_energy": -13.25, 
			 "cosmo_cavitation_energy": 28.59, 
			 "cosmo_dispersion_energy": -21.15, 
			 "cosmo_repulsion_energy": 1.75, 
			 "cosmo_total_nonelectrostatic_energy": 9.19, 
			 "SMD_solvation_energy": 5.55 
		},
		"coords": [
			{
				"x": -2.7260746769,
				"y": -3.8114012741,
				"z": 1.7288165257,
				"element": "Cl" 
			},
			{
				"x": -2.6999791462,
				"y": -2.3525810535,
				"z": 2.8001165832,
				"element": "C" 
			},
			{
				"x": -1.8496920972,
				"y": -1.1844928815,
				"z": 2.3206017441,
				"element": "C" 
			},
			{
				"x": -1.7891356157,
				"y": -0.1628258059,
				"z": 3.0039376485,
				"element": "O" 
			},
			{
				"x": -1.1901917766,
				"y": -1.3171596683,
				"z": 1.1540553802,
				"element": "N" 
			},
			{
				"x": -0.4163877709,
				"y": -0.2579450906,
				"z": 0.7158605431,
				"element": "N" 
			},
			{
				"x": 0.2546230812,
				"y": -0.387551132,
				"z": -0.4632066528,
				"element": "C" 
			},
			{
				"x": 0.1696751873,
				"y": -1.426019878,
				"z": -1.118771754,
				"element": "O" 
			},
			{
				"x": 1.0800471107,
				"y": 0.8042423483,
				"z": -0.882852214,
				"element": "C" 
			},
			{
				"x": 2.5607973534,
				"y": 0.5164607355,
				"z": -1.2790361091,
				"element": "C" 
			},
			{
				"x": 2.3928366568,
				"y": 1.4729836005,
				"z": -2.4875510314,
				"element": "C" 
			},
			{
				"x": 0.8570217001,
				"y": 1.3244369291,
				"z": -2.3362121922,
				"element": "C" 
			},
			{
				"x": -2.3304199389,
				"y": -2.6684162304,
				"z": 3.7763425569,
				"element": "H" 
			},
			{
				"x": -3.7284768049,
				"y": -2.006735323,
				"z": 2.9093808494,
				"element": "H" 
			},
			{
				"x": -1.1850436366,
				"y": -2.1194496956,
				"z": 0.5344119439,
				"element": "H" 
			},
			{
				"x": -0.4265213032,
				"y": 0.5375355333,
				"z": 1.3406374171,
				"element": "H" 
			},
			{
				"x": 1.0110882602,
				"y": 1.6165716738,
				"z": -0.1509598193,
				"element": "H" 
			},
			{
				"x": 3.3291828735,
				"y": 0.7473058129,
				"z": -0.5361823913,
				"element": "H" 
			},
			{
				"x": 2.6633118524,
				"y": -0.5243455627,
				"z": -1.5967606597,
				"element": "H" 
			},
			{
				"x": 2.7296130661,
				"y": 2.4880358492,
				"z": -2.2545679847,
				"element": "H" 
			},
			{
				"x": 2.8379190349,
				"y": 1.1677357172,
				"z": -3.4381490494,
				"element": "H" 
			},
			{
				"x": 0.4638448653,
				"y": 0.5187395666,
				"z": -2.961517855,
				"element": "H" 
			},
			{
				"x": 0.2342617252,
				"y": 2.2150758293,
				"z": -2.4564934791,
				"element": "H" 
			}
		],
		 "valence_orbital": [ 
			{
				"type": "occ",
				"energy": -0.31368,
				"method": "rhf"
			},
			{
				"type": "occ",
				"energy": -0.31004,
				"method": "rhf"
			},
			{
				"type": "occ",
				"energy": -0.27914,
				"method": "rhf"
			},
			{
				"type": "occ",
				"energy": -0.26508,
				"method": "rhf"
			},
			{
				"type": "occ",
				"energy": -0.23587,
				"method": "rhf"
			},
			{
				"type": "unocc",
				"energy": -0.00801,
				"method": "rhf"
			},
			{
				"type": "unocc",
				"energy": 0.0083,
				"method": "rhf"
			},
			{
				"type": "unocc",
				"energy": 0.03095,
				"method": "rhf"
			},
			{
				"type": "unocc",
				"energy": 0.0702,
				"method": "rhf"
			},
			{
				"type": "unocc",
				"energy": 0.0912,
				"method": "rhf"
			}
		],
		"cosmo_sigma_profile": { 
			"-0.025": 0.0,
			"-0.024": 0.0,
			"-0.023": 0.0,
			"-0.022": 0.0,
			"-0.021": 0.0,
			"-0.02": 0.0,
			"-0.019": 0.0,
			"-0.018": 0.0,
			"-0.017": 0.0,
			"-0.016": 0.0,
			"-0.015": 0.145571456693,
			"-0.014": 0.881065929142,
			"-0.013": 1.05824555572,
			"-0.012": 1.133201507,
			"-0.011": 1.31323688474,
			"-0.01": 1.63599868182,
			"-0.009": 5.25005457031,
			"-0.008": 5.13452639336,
			"-0.007": 6.45967265652,
			"-0.006": 6.73510697928,
			"-0.005": 7.21646648871,
			"-0.004": 11.7101242902,
			"-0.003": 19.919962915,
			"-0.002": 24.4826456706,
			"-0.001": 27.1988572792,
			"0.0": 24.1431726562,
			"0.001": 19.0176170033,
			"0.002": 8.25216776859,
			"0.003": 6.70922134882,
			"0.004": 7.70148766988,
			"0.005": 9.84902789564,
			"0.006": 3.9675872824,
			"0.007": 2.3364869574,
			"0.008": 1.80226380117,
			"0.009": 3.01089352911,
			"0.01": 2.82336736213,
			"0.011": 3.81385031382,
			"0.012": 5.93577563433,
			"0.013": 5.94806751203,
			"0.014": 1.8330736797,
			"0.015": 0.0146789511436,
			"0.016": 0.0,
			"0.017": 0.0,
			"0.018": 0.0,
			"0.019": 0.0,
			"0.02": 0.0,
			"0.021": 0.0,
			"0.022": 0.0,
			"0.023": 0.0,
			"0.024": 0.0,
			"0.025": 0.0
		}
	}
}
