{
	 "smiles": "CC1=NN=C(S)N1C1=CC(N)=CC=C1", 
	 "Tm": 493.15, 
	 "num_atms": 24, 
	 "gaussian": { 
		 "optdone": 1, 
		 "sigma_profile": "yes", 
		 "theory": "DFT", 
		 "functional": "B3LYP", 
		 "basiset": "6-31G**", 
		 "properties": { 
			 "R2extent": 3625.2732, 
			 "electric_dipole_moment_norm": 6.7911119362, 
			 "electric_quadrupole_moment_norm": 16.0961928247, 
			 "total_energy": -966.158520202, 
			 "HOMO_LUMO_gap": 0.19367, 
			 "cosmo_polarized_energy": -19.74, 
			 "cosmo_cavitation_energy": 30.2, 
			 "cosmo_dispersion_energy": -21.6, 
			 "cosmo_repulsion_energy": 1.69, 
			 "cosmo_total_nonelectrostatic_energy": 10.28, 
			 "SMD_solvation_energy": 3.02 
		},
		"coords": [
			{
				"x": -3.2421157526,
				"y": 0.5752301384,
				"z": 0.6696145044,
				"element": "C" 
			},
			{
				"x": -2.2979175144,
				"y": 0.4392442647,
				"z": 1.8151434057,
				"element": "C" 
			},
			{
				"x": -2.5495782212,
				"y": 0.7667217942,
				"z": 3.058307063,
				"element": "N" 
			},
			{
				"x": -1.4332313178,
				"y": 0.4630324433,
				"z": 3.820213905,
				"element": "N" 
			},
			{
				"x": -0.5418463571,
				"y": -0.0445839532,
				"z": 3.005578095,
				"element": "C" 
			},
			{
				"x": 1.0798589734,
				"y": -0.5993438679,
				"z": 3.4392926171,
				"element": "S" 
			},
			{
				"x": -1.0190400683,
				"y": -0.0884503446,
				"z": 1.7143112854,
				"element": "N" 
			},
			{
				"x": -0.3517664077,
				"y": -0.5727292657,
				"z": 0.5424971129,
				"element": "C" 
			},
			{
				"x": 0.1079821723,
				"y": 0.3470707139,
				"z": -0.4002885952,
				"element": "C" 
			},
			{
				"x": 0.7525526296,
				"y": -0.1017587424,
				"z": -1.5655576705,
				"element": "C" 
			},
			{
				"x": 1.2634147379,
				"y": 0.8054940209,
				"z": -2.4857806858,
				"element": "N" 
			},
			{
				"x": 0.925245458,
				"y": -1.4872413884,
				"z": -1.7468445743,
				"element": "C" 
			},
			{
				"x": 0.4669497571,
				"y": -2.3890082419,
				"z": -0.7917752021,
				"element": "C" 
			},
			{
				"x": -0.1821055291,
				"y": -1.9477136924,
				"z": 0.3630688082,
				"element": "C" 
			},
			{
				"x": -4.1829298221,
				"y": 0.9730585506,
				"z": 1.0526521102,
				"element": "H" 
			},
			{
				"x": -3.4347812213,
				"y": -0.3908601737,
				"z": 0.1905016103,
				"element": "H" 
			},
			{
				"x": -2.8604909212,
				"y": 1.2542593597,
				"z": -0.1001457229,
				"element": "H" 
			},
			{
				"x": 0.9241580946,
				"y": -0.2233038726,
				"z": 4.7231639486,
				"element": "H" 
			},
			{
				"x": -0.0194335131,
				"y": 1.4098708476,
				"z": -0.2167386614,
				"element": "H" 
			},
			{
				"x": 0.8535286728,
				"y": 1.7282553133,
				"z": -2.4793508283,
				"element": "H" 
			},
			{
				"x": 1.4193296579,
				"y": 0.4522929761,
				"z": -3.4187684262,
				"element": "H" 
			},
			{
				"x": 1.4289513413,
				"y": -1.8491907309,
				"z": -2.6393522514,
				"element": "H" 
			},
			{
				"x": 0.610682338,
				"y": -3.4532275323,
				"z": -0.9527391168,
				"element": "H" 
			},
			{
				"x": -0.5530171872,
				"y": -2.6436186168,
				"z": 1.1068972691,
				"element": "H" 
			}
		],
		 "valence_orbital": [ 
			{
				"type": "occ",
				"energy": -0.28874,
				"method": "rhf"
			},
			{
				"type": "occ",
				"energy": -0.26942,
				"method": "rhf"
			},
			{
				"type": "occ",
				"energy": -0.24329,
				"method": "rhf"
			},
			{
				"type": "occ",
				"energy": -0.22224,
				"method": "rhf"
			},
			{
				"type": "occ",
				"energy": -0.2191,
				"method": "rhf"
			},
			{
				"type": "unocc",
				"energy": -0.02543,
				"method": "rhf"
			},
			{
				"type": "unocc",
				"energy": -0.00507,
				"method": "rhf"
			},
			{
				"type": "unocc",
				"energy": 0.02015,
				"method": "rhf"
			},
			{
				"type": "unocc",
				"energy": 0.02782,
				"method": "rhf"
			},
			{
				"type": "unocc",
				"energy": 0.05498,
				"method": "rhf"
			}
		],
		"cosmo_sigma_profile": { 
			"-0.025": 0.0,
			"-0.024": 0.0,
			"-0.023": 0.0,
			"-0.022": 0.0,
			"-0.021": 0.0,
			"-0.02": 0.0,
			"-0.019": 0.0,
			"-0.018": 0.0,
			"-0.017": 0.0,
			"-0.016": 0.0,
			"-0.015": 0.0,
			"-0.014": 0.0200188176094,
			"-0.013": 1.56760197477,
			"-0.012": 3.99032321303,
			"-0.011": 4.67310387371,
			"-0.01": 3.90884102219,
			"-0.009": 4.99440103669,
			"-0.008": 4.11282016623,
			"-0.007": 6.17272789172,
			"-0.006": 13.1489539345,
			"-0.005": 16.547714831,
			"-0.004": 16.473352154,
			"-0.003": 16.5156035501,
			"-0.002": 17.7549853331,
			"-0.001": 14.7692801575,
			"0.0": 13.0021602896,
			"0.001": 11.0763981056,
			"0.002": 15.7578932524,
			"0.003": 15.3890114944,
			"0.004": 14.4877079111,
			"0.005": 11.1180792144,
			"0.006": 5.72782832422,
			"0.007": 4.31629765959,
			"0.008": 2.72945786105,
			"0.009": 2.37478930951,
			"0.01": 2.91832656972,
			"0.011": 3.16294015323,
			"0.012": 2.78306593725,
			"0.013": 3.49956192527,
			"0.014": 3.52131807571,
			"0.015": 3.12505529526,
			"0.016": 2.33376195464,
			"0.017": 0.961255493953,
			"0.018": 0.0329511088204,
			"0.019": 0.0,
			"0.02": 0.0,
			"0.021": 0.0,
			"0.022": 0.0,
			"0.023": 0.0,
			"0.024": 0.0,
			"0.025": 0.0
		}
	}
}
