{
	 "smiles": "NC(CCC1=CC=CC=C1)C(O)=O", 
	 "Tm": 573.15, 
	 "num_atms": 26, 
	 "gaussian": { 
		 "optdone": 1, 
		 "sigma_profile": "yes", 
		 "theory": "DFT", 
		 "functional": "B3LYP", 
		 "basiset": "6-31G**", 
		 "properties": { 
			 "R2extent": 3250.0286, 
			 "electric_dipole_moment_norm": 5.28164850781, 
			 "electric_quadrupole_moment_norm": 23.2570815132, 
			 "total_energy": -594.119106154, 
			 "HOMO_LUMO_gap": 0.23518, 
			 "cosmo_polarized_energy": -16.2, 
			 "cosmo_cavitation_energy": 29.27, 
			 "cosmo_dispersion_energy": -20.55, 
			 "cosmo_repulsion_energy": 1.65, 
			 "cosmo_total_nonelectrostatic_energy": 10.37, 
			 "SMD_solvation_energy": 5.41 
		},
		"coords": [
			{
				"x": 2.6105358094,
				"y": -0.387072174,
				"z": -0.5989596945,
				"element": "N" 
			},
			{
				"x": 1.5281723291,
				"y": -1.3609363071,
				"z": -0.8395713487,
				"element": "C" 
			},
			{
				"x": 0.949303573,
				"y": -2.0447497627,
				"z": 0.4063187812,
				"element": "C" 
			},
			{
				"x": 0.2889328789,
				"y": -1.0772595288,
				"z": 1.4094560728,
				"element": "C" 
			},
			{
				"x": -0.8487110451,
				"y": -0.2606463617,
				"z": 0.8284454015,
				"element": "C" 
			},
			{
				"x": -0.7480014061,
				"y": 1.1313563591,
				"z": 0.702674668,
				"element": "C" 
			},
			{
				"x": -1.7900849513,
				"y": 1.8842461316,
				"z": 0.1555677633,
				"element": "C" 
			},
			{
				"x": -2.9554814103,
				"y": 1.2519423168,
				"z": -0.276792247,
				"element": "C" 
			},
			{
				"x": -3.0717104365,
				"y": -0.1352817866,
				"z": -0.1553499568,
				"element": "C" 
			},
			{
				"x": -2.0289720565,
				"y": -0.8820904162,
				"z": 0.39157593,
				"element": "C" 
			},
			{
				"x": 2.0165283174,
				"y": -2.4089082265,
				"z": -1.8655741883,
				"element": "C" 
			},
			{
				"x": 3.1148573009,
				"y": -2.0305860483,
				"z": -2.5343628641,
				"element": "O" 
			},
			{
				"x": 1.4433759016,
				"y": -3.4551582863,
				"z": -2.0661314928,
				"element": "O" 
			},
			{
				"x": 2.2409715303,
				"y": 0.5394574646,
				"z": -0.4120129171,
				"element": "H" 
			},
			{
				"x": 3.1727427867,
				"y": -0.6594615983,
				"z": 0.2045019049,
				"element": "H" 
			},
			{
				"x": 0.7185834923,
				"y": -0.8184845375,
				"z": -1.344252092,
				"element": "H" 
			},
			{
				"x": 1.7490727896,
				"y": -2.5998005568,
				"z": 0.915859249,
				"element": "H" 
			},
			{
				"x": 0.2316580686,
				"y": -2.7952313406,
				"z": 0.0632469967,
				"element": "H" 
			},
			{
				"x": 1.0468411666,
				"y": -0.3972984444,
				"z": 1.8174075474,
				"element": "H" 
			},
			{
				"x": -0.0761871822,
				"y": -1.667918943,
				"z": 2.2588916953,
				"element": "H" 
			},
			{
				"x": 0.1512202208,
				"y": 1.6349388735,
				"z": 1.052215828,
				"element": "H" 
			},
			{
				"x": -1.6907355321,
				"y": 2.962856773,
				"z": 0.0712735629,
				"element": "H" 
			},
			{
				"x": -3.7683409365,
				"y": 1.833390911,
				"z": -0.7018784263,
				"element": "H" 
			},
			{
				"x": -3.9775361995,
				"y": -0.6360056834,
				"z": -0.4853455467,
				"element": "H" 
			},
			{
				"x": -2.1329284566,
				"y": -1.9604293912,
				"z": 0.4841580287,
				"element": "H" 
			},
			{
				"x": 3.3606934475,
				"y": -1.1632694361,
				"z": -2.1307626553,
				"element": "H" 
			}
		],
		 "valence_orbital": [ 
			{
				"type": "occ",
				"energy": -0.29647,
				"method": "rhf"
			},
			{
				"type": "occ",
				"energy": -0.29313,
				"method": "rhf"
			},
			{
				"type": "occ",
				"energy": -0.25751,
				"method": "rhf"
			},
			{
				"type": "occ",
				"energy": -0.25028,
				"method": "rhf"
			},
			{
				"type": "occ",
				"energy": -0.24712,
				"method": "rhf"
			},
			{
				"type": "unocc",
				"energy": -0.01194,
				"method": "rhf"
			},
			{
				"type": "unocc",
				"energy": -0.00852,
				"method": "rhf"
			},
			{
				"type": "unocc",
				"energy": 0.02199,
				"method": "rhf"
			},
			{
				"type": "unocc",
				"energy": 0.05322,
				"method": "rhf"
			},
			{
				"type": "unocc",
				"energy": 0.09078,
				"method": "rhf"
			}
		],
		"cosmo_sigma_profile": { 
			"-0.025": 0.0,
			"-0.024": 0.0,
			"-0.023": 0.0,
			"-0.022": 0.0,
			"-0.021": 0.0,
			"-0.02": 0.0,
			"-0.019": 0.0,
			"-0.018": 0.0,
			"-0.017": 0.0,
			"-0.016": 0.0,
			"-0.015": 0.0,
			"-0.014": 0.0,
			"-0.013": 0.0,
			"-0.012": 0.120882325886,
			"-0.011": 1.58929328488,
			"-0.01": 2.98730971142,
			"-0.009": 3.89880727216,
			"-0.008": 4.63058107225,
			"-0.007": 6.55730589261,
			"-0.006": 10.9509466293,
			"-0.005": 18.5118504507,
			"-0.004": 21.1274502156,
			"-0.003": 21.8541321282,
			"-0.002": 17.8791521018,
			"-0.001": 16.2124881517,
			"0.0": 13.5132517788,
			"0.001": 10.0335186762,
			"0.002": 9.18393669493,
			"0.003": 9.8700036683,
			"0.004": 10.9568729786,
			"0.005": 10.0200861037,
			"0.006": 10.063753851,
			"0.007": 4.0372420496,
			"0.008": 3.26792096817,
			"0.009": 2.76636125697,
			"0.01": 3.82049219979,
			"0.011": 5.46797580448,
			"0.012": 5.48727462837,
			"0.013": 4.23074545676,
			"0.014": 1.06710960987,
			"0.015": 0.0,
			"0.016": 0.0,
			"0.017": 0.0,
			"0.018": 0.0,
			"0.019": 0.0,
			"0.02": 0.0,
			"0.021": 0.0,
			"0.022": 0.0,
			"0.023": 0.0,
			"0.024": 0.0,
			"0.025": 0.0
		}
	}
}
