{
	 "smiles": "CSC1=C(C=C(C=C1)C(O)=O)[N+]([O-])=O", 
	 "Tm": 499.15, 
	 "num_atms": 21, 
	 "gaussian": { 
		 "optdone": 1, 
		 "sigma_profile": "yes", 
		 "theory": "DFT", 
		 "functional": "B3LYP", 
		 "basiset": "6-31G**", 
		 "properties": { 
			 "R2extent": 3747.2121, 
			 "electric_dipole_moment_norm": 6.25447284589, 
			 "electric_quadrupole_moment_norm": 10.3008553645, 
			 "total_energy": -1062.79693064, 
			 "HOMO_LUMO_gap": 0.14477, 
			 "cosmo_polarized_energy": -19.42, 
			 "cosmo_cavitation_energy": 28.07, 
			 "cosmo_dispersion_energy": -20.69, 
			 "cosmo_repulsion_energy": 1.58, 
			 "cosmo_total_nonelectrostatic_energy": 8.96, 
			 "SMD_solvation_energy": 8.24 
		},
		"coords": [
			{
				"x": 3.71120342,
				"y": 0.3578965179,
				"z": 2.4510378296,
				"element": "C" 
			},
			{
				"x": 2.5465837121,
				"y": -1.0201543797,
				"z": 2.1217340357,
				"element": "S" 
			},
			{
				"x": 1.4207118589,
				"y": -0.284477841,
				"z": 0.9343513494,
				"element": "C" 
			},
			{
				"x": 0.2905424758,
				"y": 0.4988399952,
				"z": 1.2488878337,
				"element": "C" 
			},
			{
				"x": -0.6063470516,
				"y": 0.9258220413,
				"z": 0.276048418,
				"element": "C" 
			},
			{
				"x": -0.3802500826,
				"y": 0.6203686942,
				"z": -1.0681776814,
				"element": "C" 
			},
			{
				"x": 0.7196066763,
				"y": -0.1776871345,
				"z": -1.4041187276,
				"element": "C" 
			},
			{
				"x": 1.5912213513,
				"y": -0.6286979502,
				"z": -0.4152027565,
				"element": "C" 
			},
			{
				"x": -1.3790714358,
				"y": 1.1301973219,
				"z": -2.069713268,
				"element": "C" 
			},
			{
				"x": -0.9801384217,
				"y": 1.1719599163,
				"z": -3.3662709748,
				"element": "O" 
			},
			{
				"x": -2.4891624237,
				"y": 1.4884477041,
				"z": -1.7606693183,
				"element": "O" 
			},
			{
				"x": -0.0331167753,
				"y": 0.9020756213,
				"z": 2.6318940715,
				"element": "N" 
			},
			{
				"x": 0.8942251357,
				"y": 1.1994019076,
				"z": 3.3800890973,
				"element": "O" 
			},
			{
				"x": -1.2234644964,
				"y": 0.9348663625,
				"z": 2.9332990423,
				"element": "O" 
			},
			{
				"x": 4.2221331868,
				"y": 0.6596443971,
				"z": 1.5348058436,
				"element": "H" 
			},
			{
				"x": 3.1827914712,
				"y": 1.1948545605,
				"z": 2.9042603066,
				"element": "H" 
			},
			{
				"x": 4.4435937564,
				"y": -0.0439100223,
				"z": 3.1550072891,
				"element": "H" 
			},
			{
				"x": -1.4841264956,
				"y": 1.4950321555,
				"z": 0.557008902,
				"element": "H" 
			},
			{
				"x": 0.8911084321,
				"y": -0.4921720801,
				"z": -2.4305057237,
				"element": "H" 
			},
			{
				"x": 2.4259534122,
				"y": -1.2688344612,
				"z": -0.6787073754,
				"element": "H" 
			},
			{
				"x": -0.0281977063,
				"y": 1.0184266737,
				"z": -3.4391581931,
				"element": "H" 
			}
		],
		 "valence_orbital": [ 
			{
				"type": "occ",
				"energy": -0.31835,
				"method": "rhf"
			},
			{
				"type": "occ",
				"energy": -0.29824,
				"method": "rhf"
			},
			{
				"type": "occ",
				"energy": -0.29176,
				"method": "rhf"
			},
			{
				"type": "occ",
				"energy": -0.2875,
				"method": "rhf"
			},
			{
				"type": "occ",
				"energy": -0.2464,
				"method": "rhf"
			},
			{
				"type": "unocc",
				"energy": -0.10163,
				"method": "rhf"
			},
			{
				"type": "unocc",
				"energy": -0.07735,
				"method": "rhf"
			},
			{
				"type": "unocc",
				"energy": -0.03607,
				"method": "rhf"
			},
			{
				"type": "unocc",
				"energy": 0.01126,
				"method": "rhf"
			},
			{
				"type": "unocc",
				"energy": 0.02539,
				"method": "rhf"
			}
		],
		"cosmo_sigma_profile": { 
			"-0.025": 0.0,
			"-0.024": 0.0,
			"-0.023": 0.0,
			"-0.022": 0.0,
			"-0.021": 0.0,
			"-0.02": 0.281411366286,
			"-0.019": 1.02451991607,
			"-0.018": 1.23071744416,
			"-0.017": 0.945230326529,
			"-0.016": 0.980356153532,
			"-0.015": 1.11351751548,
			"-0.014": 0.975280680354,
			"-0.013": 0.888149371252,
			"-0.012": 1.46570499069,
			"-0.011": 1.71549547523,
			"-0.01": 1.58566480657,
			"-0.009": 1.8920325702,
			"-0.008": 5.4450627418,
			"-0.007": 7.89898631528,
			"-0.006": 9.58918496146,
			"-0.005": 9.70550382826,
			"-0.004": 13.155508536,
			"-0.003": 16.5834922791,
			"-0.002": 23.3453063663,
			"-0.001": 21.1610760614,
			"0.0": 13.5591484328,
			"0.001": 7.24113102441,
			"0.002": 8.76697826874,
			"0.003": 6.29537104498,
			"0.004": 8.74039677168,
			"0.005": 7.9328409901,
			"0.006": 9.0276863234,
			"0.007": 12.3957373836,
			"0.008": 10.5054046087,
			"0.009": 8.15985477469,
			"0.01": 5.74312977767,
			"0.011": 5.25062699615,
			"0.012": 2.16539374916,
			"0.013": 0.218257320881,
			"0.014": 0.0,
			"0.015": 0.0,
			"0.016": 0.0,
			"0.017": 0.0,
			"0.018": 0.0,
			"0.019": 0.0,
			"0.02": 0.0,
			"0.021": 0.0,
			"0.022": 0.0,
			"0.023": 0.0,
			"0.024": 0.0,
			"0.025": 0.0
		}
	}
}
