{
	 "smiles": "O=CC1=CC=C(OCC2=CC=NC=C2)C=C1", 
	 "Tm": 386.15, 
	 "num_atms": 27, 
	 "gaussian": { 
		 "optdone": 1, 
		 "sigma_profile": "yes", 
		 "theory": "DFT", 
		 "functional": "B3LYP", 
		 "basiset": "6-31G**", 
		 "properties": { 
			 "R2extent": 5344.5199, 
			 "electric_dipole_moment_norm": 4.11447926596, 
			 "electric_quadrupole_moment_norm": 17.1674607543, 
			 "total_energy": -707.18853212, 
			 "HOMO_LUMO_gap": 0.18353, 
			 "cosmo_polarized_energy": -14.2, 
			 "cosmo_cavitation_energy": 32.05, 
			 "cosmo_dispersion_energy": -22.72, 
			 "cosmo_repulsion_energy": 1.76, 
			 "cosmo_total_nonelectrostatic_energy": 11.09, 
			 "SMD_solvation_energy": 5.3 
		},
		"coords": [
			{
				"x": -3.6707887918,
				"y": -1.0720242291,
				"z": 0.5037100609,
				"element": "O" 
			},
			{
				"x": -3.0233351278,
				"y": -0.9909275322,
				"z": -0.5247564027,
				"element": "C" 
			},
			{
				"x": -1.5650295521,
				"y": -0.7824073991,
				"z": -0.5883990123,
				"element": "C" 
			},
			{
				"x": -0.8126535144,
				"y": -0.6544333041,
				"z": 0.5874226089,
				"element": "C" 
			},
			{
				"x": 0.5626467559,
				"y": -0.4575884177,
				"z": 0.5387560115,
				"element": "C" 
			},
			{
				"x": 1.2042534533,
				"y": -0.3922701297,
				"z": -0.7094379576,
				"element": "C" 
			},
			{
				"x": 2.5463747963,
				"y": -0.2155313873,
				"z": -0.8835549984,
				"element": "O" 
			},
			{
				"x": 3.4110491298,
				"y": -0.2304419388,
				"z": 0.2494896803,
				"element": "C" 
			},
			{
				"x": 3.4409636103,
				"y": 1.0726146728,
				"z": 1.022945105,
				"element": "C" 
			},
			{
				"x": 3.8295658672,
				"y": 1.0922740025,
				"z": 2.3658361965,
				"element": "C" 
			},
			{
				"x": 3.9011090971,
				"y": 2.3170124824,
				"z": 3.0303235365,
				"element": "C" 
			},
			{
				"x": 3.6110905648,
				"y": 3.4921301654,
				"z": 2.4587250651,
				"element": "N" 
			},
			{
				"x": 3.235864491,
				"y": 3.4619840411,
				"z": 1.1736990453,
				"element": "C" 
			},
			{
				"x": 3.1385635163,
				"y": 2.2940779144,
				"z": 0.4164693746,
				"element": "C" 
			},
			{
				"x": 0.4604025107,
				"y": -0.5131710757,
				"z": -1.8944755701,
				"element": "C" 
			},
			{
				"x": -0.9112310533,
				"y": -0.7058607857,
				"z": -1.8287029364,
				"element": "C" 
			},
			{
				"x": -3.5204218518,
				"y": -1.074199949,
				"z": -1.5179580933,
				"element": "H" 
			},
			{
				"x": -1.3316528925,
				"y": -0.7063437209,
				"z": 1.5394702959,
				"element": "H" 
			},
			{
				"x": 1.1203046878,
				"y": -0.3358995237,
				"z": 1.4592465418,
				"element": "H" 
			},
			{
				"x": 3.1645920503,
				"y": -1.0695458541,
				"z": 0.9122241365,
				"element": "H" 
			},
			{
				"x": 4.4026711397,
				"y": -0.4271959877,
				"z": -0.1721115655,
				"element": "H" 
			},
			{
				"x": 4.0719977562,
				"y": 0.1726572798,
				"z": 2.8925044773,
				"element": "H" 
			},
			{
				"x": 4.2009948437,
				"y": 2.3528058418,
				"z": 4.0763005979,
				"element": "H" 
			},
			{
				"x": 2.9999608918,
				"y": 4.4238346528,
				"z": 0.7216412722,
				"element": "H" 
			},
			{
				"x": 2.8273453407,
				"y": 2.3323644679,
				"z": -0.6218926549,
				"element": "H" 
			},
			{
				"x": 0.984380084,
				"y": -0.4588480083,
				"z": -2.8427873587,
				"element": "H" 
			},
			{
				"x": -1.4877178032,
				"y": -0.8029662777,
				"z": -2.7458874561,
				"element": "H" 
			}
		],
		 "valence_orbital": [ 
			{
				"type": "occ",
				"energy": -0.27199,
				"method": "rhf"
			},
			{
				"type": "occ",
				"energy": -0.26914,
				"method": "rhf"
			},
			{
				"type": "occ",
				"energy": -0.26119,
				"method": "rhf"
			},
			{
				"type": "occ",
				"energy": -0.25035,
				"method": "rhf"
			},
			{
				"type": "occ",
				"energy": -0.23973,
				"method": "rhf"
			},
			{
				"type": "unocc",
				"energy": -0.0562,
				"method": "rhf"
			},
			{
				"type": "unocc",
				"energy": -0.03589,
				"method": "rhf"
			},
			{
				"type": "unocc",
				"energy": -0.02254,
				"method": "rhf"
			},
			{
				"type": "unocc",
				"energy": -0.01576,
				"method": "rhf"
			},
			{
				"type": "unocc",
				"energy": 0.04613,
				"method": "rhf"
			}
		],
		"cosmo_sigma_profile": { 
			"-0.025": 0.0,
			"-0.024": 0.0,
			"-0.023": 0.0,
			"-0.022": 0.0,
			"-0.021": 0.0,
			"-0.02": 0.0,
			"-0.019": 0.0,
			"-0.018": 0.0,
			"-0.017": 0.0,
			"-0.016": 0.0,
			"-0.015": 0.0,
			"-0.014": 0.0,
			"-0.013": 0.0,
			"-0.012": 0.0,
			"-0.011": 0.0,
			"-0.01": 0.0,
			"-0.009": 0.0283170290749,
			"-0.008": 3.79710894582,
			"-0.007": 14.6965434211,
			"-0.006": 23.5309509622,
			"-0.005": 21.9063014344,
			"-0.004": 16.8544293765,
			"-0.003": 14.7418225868,
			"-0.002": 15.4010463022,
			"-0.001": 14.3069292239,
			"0.0": 15.7475251006,
			"0.001": 19.0396357404,
			"0.002": 27.7046229649,
			"0.003": 21.7183747578,
			"0.004": 8.72329907861,
			"0.005": 5.06270500668,
			"0.006": 3.75627915691,
			"0.007": 3.98314137914,
			"0.008": 3.36248055077,
			"0.009": 4.12448250678,
			"0.01": 3.00679598677,
			"0.011": 5.00442751393,
			"0.012": 4.81415168254,
			"0.013": 2.7248526143,
			"0.014": 1.12640698416,
			"0.015": 0.660319218385,
			"0.016": 0.938954977144,
			"0.017": 0.387178924263,
			"0.018": 0.0,
			"0.019": 0.0,
			"0.02": 0.0,
			"0.021": 0.0,
			"0.022": 0.0,
			"0.023": 0.0,
			"0.024": 0.0,
			"0.025": 0.0
		}
	}
}
