{
	 "smiles": "OC(=O)CC1=CC(OC2=CC=CC=C2)=CC=C1", 
	 "Tm": 362.15, 
	 "num_atms": 29, 
	 "gaussian": { 
		 "optdone": 1, 
		 "sigma_profile": "yes", 
		 "theory": "DFT", 
		 "functional": "B3LYP", 
		 "basiset": "6-31G**", 
		 "properties": { 
			 "R2extent": 5218.674, 
			 "electric_dipole_moment_norm": 4.38351910227, 
			 "electric_quadrupole_moment_norm": 26.9732403812, 
			 "total_energy": -766.396083986, 
			 "HOMO_LUMO_gap": 0.20704, 
			 "cosmo_polarized_energy": -14.63, 
			 "cosmo_cavitation_energy": 33.93, 
			 "cosmo_dispersion_energy": -23.88, 
			 "cosmo_repulsion_energy": 1.88, 
			 "cosmo_total_nonelectrostatic_energy": 11.93, 
			 "SMD_solvation_energy": 7.05 
		},
		"coords": [
			{
				"x": 1.8868131261,
				"y": 0.5041871021,
				"z": -4.0679933306,
				"element": "O" 
			},
			{
				"x": 2.1832659766,
				"y": 1.573612732,
				"z": -3.2957428235,
				"element": "C" 
			},
			{
				"x": 3.22527984,
				"y": 2.1654175811,
				"z": -3.4265760107,
				"element": "O" 
			},
			{
				"x": 1.1037459571,
				"y": 2.0170937009,
				"z": -2.2916335683,
				"element": "C" 
			},
			{
				"x": 0.1258449786,
				"y": 0.9453880694,
				"z": -1.8642041435,
				"element": "C" 
			},
			{
				"x": 0.3964386732,
				"y": 0.1597349788,
				"z": -0.7345603478,
				"element": "C" 
			},
			{
				"x": -0.4846115727,
				"y": -0.8592444875,
				"z": -0.3641384632,
				"element": "C" 
			},
			{
				"x": -0.2750692455,
				"y": -1.6953843849,
				"z": 0.7053491214,
				"element": "O" 
			},
			{
				"x": 0.6042990982,
				"y": -1.3392207355,
				"z": 1.7193550198,
				"element": "C" 
			},
			{
				"x": 1.6739416603,
				"y": -2.193771788,
				"z": 1.9822948353,
				"element": "C" 
			},
			{
				"x": 2.5259703749,
				"y": -1.9122070362,
				"z": 3.0518128587,
				"element": "C" 
			},
			{
				"x": 2.3128584962,
				"y": -0.7831156744,
				"z": 3.8447415334,
				"element": "C" 
			},
			{
				"x": 1.2363523263,
				"y": 0.0643672056,
				"z": 3.57025803,
				"element": "C" 
			},
			{
				"x": 0.3729832256,
				"y": -0.2105671489,
				"z": 2.5094997334,
				"element": "C" 
			},
			{
				"x": -1.6341993085,
				"y": -1.1159539354,
				"z": -1.1222053815,
				"element": "C" 
			},
			{
				"x": -1.8978891868,
				"y": -0.3405284767,
				"z": -2.2456144781,
				"element": "C" 
			},
			{
				"x": -1.0289014742,
				"y": 0.6903346839,
				"z": -2.6189452555,
				"element": "C" 
			},
			{
				"x": 1.0332213912,
				"y": 0.1298467748,
				"z": -3.7928418486,
				"element": "H" 
			},
			{
				"x": 1.6378209732,
				"y": 2.4412035964,
				"z": -1.4384354224,
				"element": "H" 
			},
			{
				"x": 0.5705709704,
				"y": 2.8475098022,
				"z": -2.7711986047,
				"element": "H" 
			},
			{
				"x": 1.2907770829,
				"y": 0.3426119188,
				"z": -0.1488447724,
				"element": "H" 
			},
			{
				"x": 1.8198509103,
				"y": -3.0659700953,
				"z": 1.353734866,
				"element": "H" 
			},
			{
				"x": 3.3592150336,
				"y": -2.5764269601,
				"z": 3.2611826429,
				"element": "H" 
			},
			{
				"x": 2.9790834857,
				"y": -0.5656615607,
				"z": 4.6738749869,
				"element": "H" 
			},
			{
				"x": 1.060909107,
				"y": 0.9398033934,
				"z": 4.1886571579,
				"element": "H" 
			},
			{
				"x": -0.4739846504,
				"y": 0.4330069022,
				"z": 2.2948181575,
				"element": "H" 
			},
			{
				"x": -2.2978261501,
				"y": -1.915883041,
				"z": -0.8119965546,
				"element": "H" 
			},
			{
				"x": -2.793836605,
				"y": -0.5304055931,
				"z": -2.8292207958,
				"element": "H" 
			},
			{
				"x": -1.2601244943,
				"y": 1.310422476,
				"z": -3.4813271415,
				"element": "H" 
			}
		],
		 "valence_orbital": [ 
			{
				"type": "occ",
				"energy": -0.27946,
				"method": "rhf"
			},
			{
				"type": "occ",
				"energy": -0.2664,
				"method": "rhf"
			},
			{
				"type": "occ",
				"energy": -0.2607,
				"method": "rhf"
			},
			{
				"type": "occ",
				"energy": -0.25142,
				"method": "rhf"
			},
			{
				"type": "occ",
				"energy": -0.23414,
				"method": "rhf"
			},
			{
				"type": "unocc",
				"energy": -0.0271,
				"method": "rhf"
			},
			{
				"type": "unocc",
				"energy": -0.01947,
				"method": "rhf"
			},
			{
				"type": "unocc",
				"energy": -0.01165,
				"method": "rhf"
			},
			{
				"type": "unocc",
				"energy": -0.00464,
				"method": "rhf"
			},
			{
				"type": "unocc",
				"energy": 0.01925,
				"method": "rhf"
			}
		],
		"cosmo_sigma_profile": { 
			"-0.025": 0.0,
			"-0.024": 0.0,
			"-0.023": 0.0,
			"-0.022": 0.0,
			"-0.021": 0.0,
			"-0.02": 0.0,
			"-0.019": 0.0,
			"-0.018": 0.0,
			"-0.017": 0.0,
			"-0.016": 0.0,
			"-0.015": 0.0,
			"-0.014": 0.0,
			"-0.013": 0.240883549437,
			"-0.012": 0.921353137422,
			"-0.011": 0.741060847995,
			"-0.01": 1.04248942034,
			"-0.009": 1.87719661476,
			"-0.008": 3.69676276636,
			"-0.007": 11.1406859583,
			"-0.006": 21.0110701616,
			"-0.005": 22.1795783827,
			"-0.004": 21.8089408652,
			"-0.003": 18.1862457104,
			"-0.002": 17.1696081453,
			"-0.001": 15.0400659649,
			"0.0": 15.7412735702,
			"0.001": 15.7420920905,
			"0.002": 18.7015961828,
			"0.003": 20.5145706021,
			"0.004": 18.8322415121,
			"0.005": 12.7346358973,
			"0.006": 3.83201345939,
			"0.007": 3.27604150966,
			"0.008": 4.30911676033,
			"0.009": 4.47139949166,
			"0.01": 4.29115640151,
			"0.011": 4.84714674532,
			"0.012": 6.07772112006,
			"0.013": 2.85350769463,
			"0.014": 0.106307351868,
			"0.015": 0.0,
			"0.016": 0.0,
			"0.017": 0.0,
			"0.018": 0.0,
			"0.019": 0.0,
			"0.02": 0.0,
			"0.021": 0.0,
			"0.022": 0.0,
			"0.023": 0.0,
			"0.024": 0.0,
			"0.025": 0.0
		}
	}
}
