{
	 "smiles": "[O-][N+](=O)C1=CC2=C(SCCN2)C=C1", 
	 "Tm": 416.15, 
	 "num_atms": 21, 
	 "gaussian": { 
		 "optdone": 1, 
		 "sigma_profile": "yes", 
		 "theory": "DFT", 
		 "functional": "B3LYP", 
		 "basiset": "6-31G**", 
		 "properties": { 
			 "R2extent": 3159.9154, 
			 "electric_dipole_moment_norm": 6.32430325728, 
			 "electric_quadrupole_moment_norm": 14.0825588286, 
			 "total_energy": -967.713586169, 
			 "HOMO_LUMO_gap": 0.13089, 
			 "cosmo_polarized_energy": -13.08, 
			 "cosmo_cavitation_energy": 26.27, 
			 "cosmo_dispersion_energy": -20.42, 
			 "cosmo_repulsion_energy": 1.55, 
			 "cosmo_total_nonelectrostatic_energy": 7.4, 
			 "SMD_solvation_energy": 5.13 
		},
		"coords": [
			{
				"x": -0.8218798804,
				"y": 1.2717592743,
				"z": -3.5882062983,
				"element": "O" 
			},
			{
				"x": 0.0035597014,
				"y": 0.3663362706,
				"z": -3.4492628656,
				"element": "N" 
			},
			{
				"x": 0.6442301217,
				"y": -0.1397066285,
				"z": -4.3716774184,
				"element": "O" 
			},
			{
				"x": 0.2386105625,
				"y": -0.1442065293,
				"z": -2.0955912849,
				"element": "C" 
			},
			{
				"x": -0.4784294813,
				"y": 0.4111893576,
				"z": -1.0426174422,
				"element": "C" 
			},
			{
				"x": -0.285512175,
				"y": -0.0529296154,
				"z": 0.2658594521,
				"element": "C" 
			},
			{
				"x": 0.6596669188,
				"y": -1.0890921982,
				"z": 0.478988407,
				"element": "C" 
			},
			{
				"x": 0.9911237822,
				"y": -1.7861108032,
				"z": 2.0808872054,
				"element": "S" 
			},
			{
				"x": 0.160372514,
				"y": -0.5641470076,
				"z": 3.1640169667,
				"element": "C" 
			},
			{
				"x": -1.1827003606,
				"y": -0.1314543433,
				"z": 2.5823516862,
				"element": "C" 
			},
			{
				"x": -0.9834945137,
				"y": 0.5451451375,
				"z": 1.3106246986,
				"element": "N" 
			},
			{
				"x": 1.3654233699,
				"y": -1.6236929457,
				"z": -0.6083919213,
				"element": "C" 
			},
			{
				"x": 1.1643825573,
				"y": -1.1684475504,
				"z": -1.9049171763,
				"element": "C" 
			},
			{
				"x": -1.1877585356,
				"y": 1.2040994869,
				"z": -1.250748057,
				"element": "H" 
			},
			{
				"x": 0.809856227,
				"y": 0.302156011,
				"z": 3.3096812283,
				"element": "H" 
			},
			{
				"x": 0.022977851,
				"y": -1.0697795787,
				"z": 4.122879468,
				"element": "H" 
			},
			{
				"x": -1.6558161873,
				"y": 0.5823960399,
				"z": 3.2653459249,
				"element": "H" 
			},
			{
				"x": -1.8449439906,
				"y": -1.0068582691,
				"z": 2.5012819375,
				"element": "H" 
			},
			{
				"x": -1.7584410519,
				"y": 1.119019893,
				"z": 1.0104313933,
				"element": "H" 
			},
			{
				"x": 2.0897709425,
				"y": -2.4119210638,
				"z": -0.4252189384,
				"element": "H" 
			},
			{
				"x": 1.7044016284,
				"y": -1.5773549375,
				"z": -2.7482169656,
				"element": "H" 
			}
		],
		 "valence_orbital": [ 
			{
				"type": "occ",
				"energy": -0.29928,
				"method": "rhf"
			},
			{
				"type": "occ",
				"energy": -0.29834,
				"method": "rhf"
			},
			{
				"type": "occ",
				"energy": -0.28092,
				"method": "rhf"
			},
			{
				"type": "occ",
				"energy": -0.24259,
				"method": "rhf"
			},
			{
				"type": "occ",
				"energy": -0.21085,
				"method": "rhf"
			},
			{
				"type": "unocc",
				"energy": -0.07996,
				"method": "rhf"
			},
			{
				"type": "unocc",
				"energy": -0.01419,
				"method": "rhf"
			},
			{
				"type": "unocc",
				"energy": 0.00738,
				"method": "rhf"
			},
			{
				"type": "unocc",
				"energy": 0.02254,
				"method": "rhf"
			},
			{
				"type": "unocc",
				"energy": 0.05809,
				"method": "rhf"
			}
		],
		"cosmo_sigma_profile": { 
			"-0.025": 0.0,
			"-0.024": 0.0,
			"-0.023": 0.0,
			"-0.022": 0.0,
			"-0.021": 0.0,
			"-0.02": 0.0,
			"-0.019": 0.0,
			"-0.018": 0.0,
			"-0.017": 0.0,
			"-0.016": 0.0,
			"-0.015": 0.0,
			"-0.014": 0.596950686788,
			"-0.013": 1.8226326949,
			"-0.012": 1.7359636476,
			"-0.011": 1.57880934436,
			"-0.01": 1.24870076375,
			"-0.009": 2.13209212715,
			"-0.008": 1.88734557919,
			"-0.007": 7.84990761877,
			"-0.006": 13.6917661854,
			"-0.005": 13.8248519175,
			"-0.004": 15.4933127472,
			"-0.003": 15.4771242939,
			"-0.002": 11.2867654411,
			"-0.001": 11.3244003057,
			"0.0": 11.7402257709,
			"0.001": 12.9368426631,
			"0.002": 17.6103941406,
			"0.003": 15.9664736063,
			"0.004": 8.88030775478,
			"0.005": 6.2871187764,
			"0.006": 6.71190617223,
			"0.007": 8.03997769782,
			"0.008": 12.179857395,
			"0.009": 5.7495923004,
			"0.01": 4.00245582892,
			"0.011": 1.22956093017,
			"0.012": 0.0,
			"0.013": 0.0,
			"0.014": 0.0,
			"0.015": 0.0,
			"0.016": 0.0,
			"0.017": 0.0,
			"0.018": 0.0,
			"0.019": 0.0,
			"0.02": 0.0,
			"0.021": 0.0,
			"0.022": 0.0,
			"0.023": 0.0,
			"0.024": 0.0,
			"0.025": 0.0
		}
	}
}
