{
	 "smiles": "SC1=NC2=C(SC=C2)C(=O)N1", 
	 "Tm": 638.15, 
	 "num_atms": 15, 
	 "gaussian": { 
		 "optdone": 1, 
		 "sigma_profile": "yes", 
		 "theory": "DFT", 
		 "functional": "B3LYP", 
		 "basiset": "6-31G**", 
		 "properties": { 
			 "R2extent": 3166.5357, 
			 "electric_dipole_moment_norm": 2.98332066832, 
			 "electric_quadrupole_moment_norm": 14.1093675223, 
			 "total_energy": -1212.15709194, 
			 "HOMO_LUMO_gap": 0.17679, 
			 "cosmo_polarized_energy": -12.96, 
			 "cosmo_cavitation_energy": 23.23, 
			 "cosmo_dispersion_energy": -18.68, 
			 "cosmo_repulsion_energy": 1.39, 
			 "cosmo_total_nonelectrostatic_energy": 5.95, 
			 "SMD_solvation_energy": 2.59 
		},
		"coords": [
			{
				"x": 0.5512385344,
				"y": 2.1206333267,
				"z": 0.3401668922,
				"element": "S" 
			},
			{
				"x": 0.140677263,
				"y": 0.6317333144,
				"z": -0.5507237172,
				"element": "C" 
			},
			{
				"x": -0.4797295516,
				"y": 0.6899514672,
				"z": -1.687582029,
				"element": "N" 
			},
			{
				"x": -0.7440708921,
				"y": -0.5254084171,
				"z": -2.2844860011,
				"element": "C" 
			},
			{
				"x": -0.3797851086,
				"y": -1.7502637791,
				"z": -1.7249844563,
				"element": "C" 
			},
			{
				"x": -0.8518873562,
				"y": -3.0927864875,
				"z": -2.7159110711,
				"element": "S" 
			},
			{
				"x": -1.5400994093,
				"y": -2.0019494957,
				"z": -3.8836180493,
				"element": "C" 
			},
			{
				"x": -1.4169307448,
				"y": -0.6866871342,
				"z": -3.5376752639,
				"element": "C" 
			},
			{
				"x": 0.3096811289,
				"y": -1.8351282012,
				"z": -0.4634362504,
				"element": "C" 
			},
			{
				"x": 0.688874744,
				"y": -2.8237899394,
				"z": 0.1448296966,
				"element": "O" 
			},
			{
				"x": 0.5304703568,
				"y": -0.5323507835,
				"z": 0.0612016639,
				"element": "N" 
			},
			{
				"x": 0.005748799,
				"y": 2.9234346501,
				"z": -0.5911762029,
				"element": "H" 
			},
			{
				"x": -2.0034097949,
				"y": -2.4073105397,
				"z": -4.7731140537,
				"element": "H" 
			},
			{
				"x": -1.7793371892,
				"y": 0.144627592,
				"z": -4.1293072046,
				"element": "H" 
			},
			{
				"x": 1.0136592207,
				"y": -0.516505573,
				"z": 0.9521160468,
				"element": "H" 
			}
		],
		 "valence_orbital": [ 
			{
				"type": "occ",
				"energy": -0.29202,
				"method": "rhf"
			},
			{
				"type": "occ",
				"energy": -0.28688,
				"method": "rhf"
			},
			{
				"type": "occ",
				"energy": -0.27236,
				"method": "rhf"
			},
			{
				"type": "occ",
				"energy": -0.25902,
				"method": "rhf"
			},
			{
				"type": "occ",
				"energy": -0.23092,
				"method": "rhf"
			},
			{
				"type": "unocc",
				"energy": -0.05413,
				"method": "rhf"
			},
			{
				"type": "unocc",
				"energy": -0.01785,
				"method": "rhf"
			},
			{
				"type": "unocc",
				"energy": -0.0144,
				"method": "rhf"
			},
			{
				"type": "unocc",
				"energy": 0.02006,
				"method": "rhf"
			},
			{
				"type": "unocc",
				"energy": 0.03416,
				"method": "rhf"
			}
		],
		"cosmo_sigma_profile": { 
			"-0.025": 0.0,
			"-0.024": 0.0,
			"-0.023": 0.0,
			"-0.022": 0.0,
			"-0.021": 0.0,
			"-0.02": 0.0,
			"-0.019": 0.0,
			"-0.018": 0.14165569734,
			"-0.017": 0.789380672161,
			"-0.016": 0.943635810098,
			"-0.015": 1.00308361287,
			"-0.014": 1.42428934127,
			"-0.013": 0.755738434569,
			"-0.012": 2.38551947733,
			"-0.011": 2.20509115208,
			"-0.01": 2.90271240194,
			"-0.009": 4.32993454182,
			"-0.008": 5.52134808847,
			"-0.007": 5.76687449374,
			"-0.006": 4.6978998959,
			"-0.005": 6.66448512033,
			"-0.004": 8.27027994159,
			"-0.003": 10.5609292703,
			"-0.002": 10.1412606855,
			"-0.001": 10.1246163473,
			"0.0": 15.3557756859,
			"0.001": 22.5565499214,
			"0.002": 20.9681940812,
			"0.003": 14.7050749159,
			"0.004": 7.37649674112,
			"0.005": 5.66264359166,
			"0.006": 4.72658541362,
			"0.007": 1.98152741774,
			"0.008": 2.47450747138,
			"0.009": 2.85575404566,
			"0.01": 2.35988218939,
			"0.011": 2.22344182841,
			"0.012": 5.43528748276,
			"0.013": 4.87706236412,
			"0.014": 0.183203292133,
			"0.015": 0.0,
			"0.016": 0.0,
			"0.017": 0.0,
			"0.018": 0.0,
			"0.019": 0.0,
			"0.02": 0.0,
			"0.021": 0.0,
			"0.022": 0.0,
			"0.023": 0.0,
			"0.024": 0.0,
			"0.025": 0.0
		}
	}
}
