{
	 "smiles": "CN(C)CC1=CC(N)=C(C)C=C1", 
	 "Tm": 340.15, 
	 "num_atms": 28, 
	 "gaussian": { 
		 "optdone": 1, 
		 "sigma_profile": "yes", 
		 "theory": "DFT", 
		 "functional": "B3LYP", 
		 "basiset": "6-31G**", 
		 "properties": { 
			 "R2extent": 2921.156, 
			 "electric_dipole_moment_norm": 2.07276645573, 
			 "electric_quadrupole_moment_norm": 8.20817999011, 
			 "total_energy": -500.21050042, 
			 "HOMO_LUMO_gap": 0.20361, 
			 "cosmo_polarized_energy": -8.97, 
			 "cosmo_cavitation_energy": 29.47, 
			 "cosmo_dispersion_energy": -21.02, 
			 "cosmo_repulsion_energy": 1.68, 
			 "cosmo_total_nonelectrostatic_energy": 10.13, 
			 "SMD_solvation_energy": 2.38 
		},
		"coords": [
			{
				"x": -2.533502883,
				"y": -0.499172553,
				"z": -1.212633101,
				"element": "C" 
			},
			{
				"x": -2.3576119586,
				"y": 0.785065583,
				"z": -0.5505197618,
				"element": "N" 
			},
			{
				"x": -1.3783322019,
				"y": 1.622302465,
				"z": -1.2271301314,
				"element": "C" 
			},
			{
				"x": -2.155564606,
				"y": 0.6846713167,
				"z": 0.9018879474,
				"element": "C" 
			},
			{
				"x": -0.8826342259,
				"y": -0.0051685325,
				"z": 1.3775323072,
				"element": "C" 
			},
			{
				"x": 0.2885977704,
				"y": 0.7296241805,
				"z": 1.5866422234,
				"element": "C" 
			},
			{
				"x": 1.4845787375,
				"y": 0.1164121726,
				"z": 1.9889732949,
				"element": "C" 
			},
			{
				"x": 2.6534853147,
				"y": 0.8742750228,
				"z": 2.1318104239,
				"element": "N" 
			},
			{
				"x": 1.515535467,
				"y": -1.2815822937,
				"z": 2.1957185102,
				"element": "C" 
			},
			{
				"x": 2.7944520844,
				"y": -1.961359511,
				"z": 2.6170020264,
				"element": "C" 
			},
			{
				"x": 0.336744117,
				"y": -2.0035806029,
				"z": 1.9975205048,
				"element": "C" 
			},
			{
				"x": -0.8491907085,
				"y": -1.3879060102,
				"z": 1.596237686,
				"element": "C" 
			},
			{
				"x": -3.3339124955,
				"y": -1.0615349287,
				"z": -0.7189479577,
				"element": "H" 
			},
			{
				"x": -1.6288754388,
				"y": -1.1328892748,
				"z": -1.2210971379,
				"element": "H" 
			},
			{
				"x": -2.8347632028,
				"y": -0.3292283067,
				"z": -2.2523752818,
				"element": "H" 
			},
			{
				"x": -1.6904111142,
				"y": 1.7721664171,
				"z": -2.2667705102,
				"element": "H" 
			},
			{
				"x": -1.3378535892,
				"y": 2.6054149583,
				"z": -0.7445202601,
				"element": "H" 
			},
			{
				"x": -0.3549823372,
				"y": 1.2065261177,
				"z": -1.2375672135,
				"element": "H" 
			},
			{
				"x": -2.1844359687,
				"y": 1.7060245041,
				"z": 1.3018556597,
				"element": "H" 
			},
			{
				"x": -3.0242953586,
				"y": 0.1545814888,
				"z": 1.3113545909,
				"element": "H" 
			},
			{
				"x": 0.2754893876,
				"y": 1.8089131448,
				"z": 1.4427690779,
				"element": "H" 
			},
			{
				"x": 2.4969656055,
				"y": 1.8675154603,
				"z": 2.2385478957,
				"element": "H" 
			},
			{
				"x": 3.3109397614,
				"y": 0.528874927,
				"z": 2.8175873881,
				"element": "H" 
			},
			{
				"x": 2.6615969433,
				"y": -3.0445210663,
				"z": 2.6777549793,
				"element": "H" 
			},
			{
				"x": 3.6088249408,
				"y": -1.759967903,
				"z": 1.9097346459,
				"element": "H" 
			},
			{
				"x": 3.1385721187,
				"y": -1.6229488998,
				"z": 3.6054522888,
				"element": "H" 
			},
			{
				"x": 0.3515046119,
				"y": -3.0780673874,
				"z": 2.1665518167,
				"element": "H" 
			},
			{
				"x": -1.7500207711,
				"y": -1.9808404886,
				"z": 1.4637280884,
				"element": "H" 
			}
		],
		 "valence_orbital": [ 
			{
				"type": "occ",
				"energy": -0.3291,
				"method": "rhf"
			},
			{
				"type": "occ",
				"energy": -0.29766,
				"method": "rhf"
			},
			{
				"type": "occ",
				"energy": -0.23159,
				"method": "rhf"
			},
			{
				"type": "occ",
				"energy": -0.19951,
				"method": "rhf"
			},
			{
				"type": "occ",
				"energy": -0.19458,
				"method": "rhf"
			},
			{
				"type": "unocc",
				"energy": 0.00903,
				"method": "rhf"
			},
			{
				"type": "unocc",
				"energy": 0.02128,
				"method": "rhf"
			},
			{
				"type": "unocc",
				"energy": 0.07781,
				"method": "rhf"
			},
			{
				"type": "unocc",
				"energy": 0.09088,
				"method": "rhf"
			},
			{
				"type": "unocc",
				"energy": 0.11309,
				"method": "rhf"
			}
		],
		"cosmo_sigma_profile": { 
			"-0.025": 0.0,
			"-0.024": 0.0,
			"-0.023": 0.0,
			"-0.022": 0.0,
			"-0.021": 0.0,
			"-0.02": 0.0,
			"-0.019": 0.0,
			"-0.018": 0.0,
			"-0.017": 0.0,
			"-0.016": 0.0,
			"-0.015": 0.0,
			"-0.014": 0.0,
			"-0.013": 0.0089080174462,
			"-0.012": 0.977047850817,
			"-0.011": 2.23208098709,
			"-0.01": 2.36193183028,
			"-0.009": 3.05910004361,
			"-0.008": 3.26081859138,
			"-0.007": 2.41540893513,
			"-0.006": 2.98201246929,
			"-0.005": 4.59247216644,
			"-0.004": 16.9647029412,
			"-0.003": 29.3085270766,
			"-0.002": 22.0765753548,
			"-0.001": 22.902590031,
			"0.0": 31.3000220602,
			"0.001": 20.0815244713,
			"0.002": 10.3229856626,
			"0.003": 9.27050007862,
			"0.004": 7.83144831126,
			"0.005": 7.29456018521,
			"0.006": 8.73704130124,
			"0.007": 7.77916386491,
			"0.008": 4.32151545151,
			"0.009": 1.55443917385,
			"0.01": 1.38627817559,
			"0.011": 1.5508583301,
			"0.012": 0.81023717597,
			"0.013": 1.16405083329,
			"0.014": 1.42416645414,
			"0.015": 0.93351768697,
			"0.016": 0.459726452823,
			"0.017": 0.14746404136,
			"0.018": 0.0,
			"0.019": 0.0,
			"0.02": 0.0,
			"0.021": 0.0,
			"0.022": 0.0,
			"0.023": 0.0,
			"0.024": 0.0,
			"0.025": 0.0
		}
	}
}
