{
	 "smiles": "COC1(CCC2(C)C3CCC4(C)CCC[C@@]4(O)C3CC[C@@]2(C)C1)OC", 
	 "Tm": 419.15, 
	 "num_atms": 63, 
	 "gaussian": { 
		 "optdone": 1, 
		 "sigma_profile": "yes", 
		 "theory": "DFT", 
		 "functional": "B3LYP", 
		 "basiset": "6-31G**", 
		 "properties": { 
			 "R2extent": 9941.134, 
			 "electric_dipole_moment_norm": 1.22594203778, 
			 "electric_quadrupole_moment_norm": 8.09857889077, 
			 "total_energy": -1086.89527837, 
			 "HOMO_LUMO_gap": 0.31014, 
			 "cosmo_polarized_energy": -9.35, 
			 "cosmo_cavitation_energy": 49.88, 
			 "cosmo_dispersion_energy": -35.42, 
			 "cosmo_repulsion_energy": 2.55, 
			 "cosmo_total_nonelectrostatic_energy": 17.01, 
			 "SMD_solvation_energy": 7.97 
		},
		"coords": [
			{
				"x": -4.4276346839,
				"y": -1.9214513925,
				"z": 3.0318676429,
				"element": "C" 
			},
			{
				"x": -4.3286348258,
				"y": -0.8186057548,
				"z": 2.1400410767,
				"element": "O" 
			},
			{
				"x": -3.0889755934,
				"y": -0.1168134565,
				"z": 2.1186361985,
				"element": "C" 
			},
			{
				"x": -3.2796861833,
				"y": 1.004486514,
				"z": 1.0790309313,
				"element": "C" 
			},
			{
				"x": -1.9446286853,
				"y": 1.358415382,
				"z": 0.4197237184,
				"element": "C" 
			},
			{
				"x": -1.383227361,
				"y": 0.2139104981,
				"z": -0.4760453202,
				"element": "C" 
			},
			{
				"x": -2.1628103534,
				"y": 0.2947598276,
				"z": -1.8161140737,
				"element": "C" 
			},
			{
				"x": 0.1286173797,
				"y": 0.4957993035,
				"z": -0.8211188162,
				"element": "C" 
			},
			{
				"x": 1.0677189521,
				"y": 0.8609639714,
				"z": 0.3626299395,
				"element": "C" 
			},
			{
				"x": 2.5258863145,
				"y": 1.1350998977,
				"z": -0.073272038,
				"element": "C" 
			},
			{
				"x": 3.1132525931,
				"y": -0.0378043811,
				"z": -0.8740497323,
				"element": "C" 
			},
			{
				"x": 3.3192156165,
				"y": -1.257030668,
				"z": 0.0534914284,
				"element": "C" 
			},
			{
				"x": 4.4543723038,
				"y": 0.2192986639,
				"z": -1.6064614773,
				"element": "C" 
			},
			{
				"x": 4.4556845324,
				"y": -0.7885047289,
				"z": -2.7986729007,
				"element": "C" 
			},
			{
				"x": 2.9888401788,
				"y": -1.2975545054,
				"z": -2.9468788005,
				"element": "C" 
			},
			{
				"x": 2.1767142796,
				"y": -0.3156666008,
				"z": -2.0860403124,
				"element": "C" 
			},
			{
				"x": 2.1615229926,
				"y": 0.9447945568,
				"z": -2.8093419055,
				"element": "O" 
			},
			{
				"x": 0.7041551538,
				"y": -0.6342268123,
				"z": -1.7365202718,
				"element": "C" 
			},
			{
				"x": 0.3797455668,
				"y": -2.0648624326,
				"z": -1.2139446998,
				"element": "C" 
			},
			{
				"x": -0.3217794505,
				"y": -2.0857862521,
				"z": 0.1498768491,
				"element": "C" 
			},
			{
				"x": -1.5990172795,
				"y": -1.2050973268,
				"z": 0.2515162976,
				"element": "C" 
			},
			{
				"x": -2.7694252072,
				"y": -2.0313210033,
				"z": -0.3393382918,
				"element": "C" 
			},
			{
				"x": -1.8660121823,
				"y": -0.9878771847,
				"z": 1.7635656563,
				"element": "C" 
			},
			{
				"x": -2.776593384,
				"y": 0.3798377267,
				"z": 3.4218297668,
				"element": "O" 
			},
			{
				"x": -3.7386372407,
				"y": 1.2281963561,
				"z": 4.0342968903,
				"element": "C" 
			},
			{
				"x": -3.9830683012,
				"y": -2.8323619809,
				"z": 2.6099490476,
				"element": "H" 
			},
			{
				"x": -5.4947691611,
				"y": -2.0992607642,
				"z": 3.1889386548,
				"element": "H" 
			},
			{
				"x": -3.952222953,
				"y": -1.7072252142,
				"z": 3.9951901643,
				"element": "H" 
			},
			{
				"x": -4.011620471,
				"y": 0.6665639035,
				"z": 0.3411111342,
				"element": "H" 
			},
			{
				"x": -3.7171817223,
				"y": 1.8849773366,
				"z": 1.5578965843,
				"element": "H" 
			},
			{
				"x": -2.0511400684,
				"y": 2.2646988009,
				"z": -0.1889273218,
				"element": "H" 
			},
			{
				"x": -1.2430282756,
				"y": 1.6118738758,
				"z": 1.2185890931,
				"element": "H" 
			},
			{
				"x": -1.9273667068,
				"y": -0.5193832469,
				"z": -2.5050255553,
				"element": "H" 
			},
			{
				"x": -3.2441335606,
				"y": 0.2763971584,
				"z": -1.6607675042,
				"element": "H" 
			},
			{
				"x": -1.9238021983,
				"y": 1.2357474734,
				"z": -2.3238473376,
				"element": "H" 
			},
			{
				"x": 0.1201719984,
				"y": 1.3958953237,
				"z": -1.4473642068,
				"element": "H" 
			},
			{
				"x": 1.0585271058,
				"y": 0.0895550436,
				"z": 1.1384389661,
				"element": "H" 
			},
			{
				"x": 0.6953132181,
				"y": 1.7690556519,
				"z": 0.846260873,
				"element": "H" 
			},
			{
				"x": 2.5536188868,
				"y": 2.0367778237,
				"z": -0.6922237619,
				"element": "H" 
			},
			{
				"x": 3.137497085,
				"y": 1.3349883752,
				"z": 0.8161984337,
				"element": "H" 
			},
			{
				"x": 3.7373769474,
				"y": -2.1186135785,
				"z": -0.4751235559,
				"element": "H" 
			},
			{
				"x": 4.0366839952,
				"y": -0.981151049,
				"z": 0.8346060932,
				"element": "H" 
			},
			{
				"x": 2.4090158942,
				"y": -1.5864719434,
				"z": 0.5551972424,
				"element": "H" 
			},
			{
				"x": 5.3148262361,
				"y": 0.0777640978,
				"z": -0.9437369952,
				"element": "H" 
			},
			{
				"x": 4.4859915705,
				"y": 1.2446421584,
				"z": -1.9806961902,
				"element": "H" 
			},
			{
				"x": 5.1380384806,
				"y": -1.6246903772,
				"z": -2.6168558493,
				"element": "H" 
			},
			{
				"x": 4.7961192173,
				"y": -0.2997001697,
				"z": -3.7151365241,
				"element": "H" 
			},
			{
				"x": 2.8883551747,
				"y": -2.3271794065,
				"z": -2.5908659464,
				"element": "H" 
			},
			{
				"x": 2.641477458,
				"y": -1.2907521008,
				"z": -3.9870008038,
				"element": "H" 
			},
			{
				"x": 1.660809636,
				"y": 0.7940202262,
				"z": -3.6219526259,
				"element": "H" 
			},
			{
				"x": 0.1809424227,
				"y": -0.5384729048,
				"z": -2.696902797,
				"element": "H" 
			},
			{
				"x": 1.2838540844,
				"y": -2.6767435225,
				"z": -1.148877614,
				"element": "H" 
			},
			{
				"x": -0.2572065003,
				"y": -2.5721962009,
				"z": -1.9484350399,
				"element": "H" 
			},
			{
				"x": -0.5915725185,
				"y": -3.1207682811,
				"z": 0.3961667461,
				"element": "H" 
			},
			{
				"x": 0.3871268316,
				"y": -1.7806593825,
				"z": 0.9252757515,
				"element": "H" 
			},
			{
				"x": -2.8851647692,
				"y": -2.9520092599,
				"z": 0.24379558,
				"element": "H" 
			},
			{
				"x": -3.7268736274,
				"y": -1.5100974223,
				"z": -0.3017154685,
				"element": "H" 
			},
			{
				"x": -2.5824738464,
				"y": -2.3295218546,
				"z": -1.3746312289,
				"element": "H" 
			},
			{
				"x": -1.9510747079,
				"y": -1.9592865072,
				"z": 2.2618361766,
				"element": "H" 
			},
			{
				"x": -1.00090542,
				"y": -0.4967899067,
				"z": 2.2171387414,
				"element": "H" 
			},
			{
				"x": -4.7612228421,
				"y": 0.8767519477,
				"z": 3.8586127775,
				"element": "H" 
			},
			{
				"x": -3.6561279352,
				"y": 2.2666886499,
				"z": 3.6861952303,
				"element": "H" 
			},
			{
				"x": -3.5310540909,
				"y": 1.208877029,
				"z": 5.1074812811,
				"element": "H" 
			}
		],
		 "valence_orbital": [ 
			{
				"type": "occ",
				"energy": -0.2734,
				"method": "rhf"
			},
			{
				"type": "occ",
				"energy": -0.26442,
				"method": "rhf"
			},
			{
				"type": "occ",
				"energy": -0.26283,
				"method": "rhf"
			},
			{
				"type": "occ",
				"energy": -0.25392,
				"method": "rhf"
			},
			{
				"type": "occ",
				"energy": -0.24989,
				"method": "rhf"
			},
			{
				"type": "unocc",
				"energy": 0.06025,
				"method": "rhf"
			},
			{
				"type": "unocc",
				"energy": 0.07868,
				"method": "rhf"
			},
			{
				"type": "unocc",
				"energy": 0.08435,
				"method": "rhf"
			},
			{
				"type": "unocc",
				"energy": 0.09703,
				"method": "rhf"
			},
			{
				"type": "unocc",
				"energy": 0.10405,
				"method": "rhf"
			}
		],
		"cosmo_sigma_profile": { 
			"-0.025": 0.0,
			"-0.024": 0.0,
			"-0.023": 0.0,
			"-0.022": 0.0,
			"-0.021": 0.0,
			"-0.02": 0.0,
			"-0.019": 0.0,
			"-0.018": 0.0,
			"-0.017": 0.0,
			"-0.016": 0.0,
			"-0.015": 0.0,
			"-0.014": 0.367275524021,
			"-0.013": 0.81026587823,
			"-0.012": 0.811893342204,
			"-0.011": 1.43053733622,
			"-0.01": 0.622285893879,
			"-0.009": 1.04143257691,
			"-0.008": 1.09240298786,
			"-0.007": 0.877410837801,
			"-0.006": 1.63766397338,
			"-0.005": 3.44006374923,
			"-0.004": 14.3356740295,
			"-0.003": 35.3290021105,
			"-0.002": 61.573161375,
			"-0.001": 61.1198668055,
			"0.0": 60.3853023652,
			"0.001": 53.6825304324,
			"0.002": 33.8329954794,
			"0.003": 10.1728707988,
			"0.004": 6.43419647091,
			"0.005": 4.43437217027,
			"0.006": 4.07538951523,
			"0.007": 4.38989194454,
			"0.008": 4.01129126647,
			"0.009": 3.0354216809,
			"0.01": 3.57409903527,
			"0.011": 2.8741930781,
			"0.012": 3.11353045416,
			"0.013": 2.07703803872,
			"0.014": 0.0810153743665,
			"0.015": 0.0,
			"0.016": 0.0,
			"0.017": 0.0,
			"0.018": 0.0,
			"0.019": 0.0,
			"0.02": 0.0,
			"0.021": 0.0,
			"0.022": 0.0,
			"0.023": 0.0,
			"0.024": 0.0,
			"0.025": 0.0
		}
	}
}
