{
	 "smiles": "[O-][N+](=O)C=CC1=CC(=CC=C1)[N+]([O-])=O", 
	 "Tm": 399.15, 
	 "num_atms": 20, 
	 "gaussian": { 
		 "optdone": 1, 
		 "sigma_profile": "yes", 
		 "theory": "DFT", 
		 "functional": "B3LYP", 
		 "basiset": "6-31G**", 
		 "properties": { 
			 "R2extent": 4041.0979, 
			 "electric_dipole_moment_norm": 4.8730078032, 
			 "electric_quadrupole_moment_norm": 25.1408669381, 
			 "total_energy": -718.644744354, 
			 "HOMO_LUMO_gap": 0.16454, 
			 "cosmo_polarized_energy": -15.09, 
			 "cosmo_cavitation_energy": 27.03, 
			 "cosmo_dispersion_energy": -19.42, 
			 "cosmo_repulsion_energy": 1.52, 
			 "cosmo_total_nonelectrostatic_energy": 9.12, 
			 "SMD_solvation_energy": 9.69 
		},
		"coords": [
			{
				"x": -1.7445116947,
				"y": 3.2961841864,
				"z": -1.6216662993,
				"element": "O" 
			},
			{
				"x": -2.2022171279,
				"y": 2.424777746,
				"z": -0.8798993254,
				"element": "N" 
			},
			{
				"x": -3.3920619234,
				"y": 2.2902512665,
				"z": -0.5902075632,
				"element": "O" 
			},
			{
				"x": -1.2267684472,
				"y": 1.4997402661,
				"z": -0.3211655818,
				"element": "C" 
			},
			{
				"x": -1.6223474017,
				"y": 0.517176015,
				"z": 0.4971292498,
				"element": "C" 
			},
			{
				"x": -0.7714511727,
				"y": -0.4863629988,
				"z": 1.1359688561,
				"element": "C" 
			},
			{
				"x": 0.6210374313,
				"y": -0.53414378,
				"z": 0.9520684126,
				"element": "C" 
			},
			{
				"x": 1.3544297461,
				"y": -1.5200173015,
				"z": 1.5959368345,
				"element": "C" 
			},
			{
				"x": 0.7661140437,
				"y": -2.4752292991,
				"z": 2.4256888662,
				"element": "C" 
			},
			{
				"x": -0.6137437158,
				"y": -2.4284182175,
				"z": 2.6083583268,
				"element": "C" 
			},
			{
				"x": -1.3724239181,
				"y": -1.4467723149,
				"z": 1.9716916601,
				"element": "C" 
			},
			{
				"x": 2.8166336507,
				"y": -1.5578025508,
				"z": 1.3932855949,
				"element": "N" 
			},
			{
				"x": 3.4451276148,
				"y": -2.4404669674,
				"z": 1.973120005,
				"element": "O" 
			},
			{
				"x": 3.310684123,
				"y": -0.7049477146,
				"z": 0.6586114792,
				"element": "O" 
			},
			{
				"x": -0.223261987,
				"y": 1.7261797004,
				"z": -0.6526996438,
				"element": "H" 
			},
			{
				"x": -2.6884162286,
				"y": 0.4659856508,
				"z": 0.703994069,
				"element": "H" 
			},
			{
				"x": 1.1450667199,
				"y": 0.1740210541,
				"z": 0.3229229437,
				"element": "H" 
			},
			{
				"x": 1.3872874067,
				"y": -3.222353243,
				"z": 2.9031700231,
				"element": "H" 
			},
			{
				"x": -1.0984771435,
				"y": -3.1584563351,
				"z": 3.2480930559,
				"element": "H" 
			},
			{
				"x": -2.4480999757,
				"y": -1.4177451625,
				"z": 2.1197990363,
				"element": "H" 
			}
		],
		 "valence_orbital": [ 
			{
				"type": "occ",
				"energy": -0.3126,
				"method": "rhf"
			},
			{
				"type": "occ",
				"energy": -0.3083,
				"method": "rhf"
			},
			{
				"type": "occ",
				"energy": -0.30463,
				"method": "rhf"
			},
			{
				"type": "occ",
				"energy": -0.2959,
				"method": "rhf"
			},
			{
				"type": "occ",
				"energy": -0.27853,
				"method": "rhf"
			},
			{
				"type": "unocc",
				"energy": -0.11399,
				"method": "rhf"
			},
			{
				"type": "unocc",
				"energy": -0.10554,
				"method": "rhf"
			},
			{
				"type": "unocc",
				"energy": -0.04606,
				"method": "rhf"
			},
			{
				"type": "unocc",
				"energy": -0.02025,
				"method": "rhf"
			},
			{
				"type": "unocc",
				"energy": 0.03084,
				"method": "rhf"
			}
		],
		"cosmo_sigma_profile": { 
			"-0.025": 0.0,
			"-0.024": 0.0,
			"-0.023": 0.0,
			"-0.022": 0.0,
			"-0.021": 0.0,
			"-0.02": 0.0,
			"-0.019": 0.0,
			"-0.018": 0.0,
			"-0.017": 0.0,
			"-0.016": 0.0,
			"-0.015": 0.0,
			"-0.014": 0.0,
			"-0.013": 0.014171827692,
			"-0.012": 0.956675178882,
			"-0.011": 2.06565805225,
			"-0.01": 3.06769974079,
			"-0.009": 3.9298696575,
			"-0.008": 8.23499971347,
			"-0.007": 10.8749155743,
			"-0.006": 10.3073453822,
			"-0.005": 11.0260573704,
			"-0.004": 11.6018460909,
			"-0.003": 14.5027489757,
			"-0.002": 17.8434190028,
			"-0.001": 22.4802147717,
			"0.0": 17.1119971237,
			"0.001": 9.93380295765,
			"0.002": 5.16867001572,
			"0.003": 4.12863586058,
			"0.004": 4.89203384548,
			"0.005": 5.57728172114,
			"0.006": 7.66933051864,
			"0.007": 15.0661994931,
			"0.008": 16.5141215181,
			"0.009": 9.43360213938,
			"0.01": 4.8549218025,
			"0.011": 0.624421954487,
			"0.012": 0.0,
			"0.013": 0.0,
			"0.014": 0.0,
			"0.015": 0.0,
			"0.016": 0.0,
			"0.017": 0.0,
			"0.018": 0.0,
			"0.019": 0.0,
			"0.02": 0.0,
			"0.021": 0.0,
			"0.022": 0.0,
			"0.023": 0.0,
			"0.024": 0.0,
			"0.025": 0.0
		}
	}
}
