{
	 "smiles": "OC(=O)C1=CC(=CC=C1)N1C=CN=C1", 
	 "Tm": 469.15, 
	 "num_atms": 22, 
	 "gaussian": { 
		 "optdone": 1, 
		 "sigma_profile": "yes", 
		 "theory": "DFT", 
		 "functional": "B3LYP", 
		 "basiset": "6-31G**", 
		 "properties": { 
			 "R2extent": 3418.3739, 
			 "electric_dipole_moment_norm": 2.01233662442, 
			 "electric_quadrupole_moment_norm": 25.824829843, 
			 "total_energy": -645.84058004, 
			 "HOMO_LUMO_gap": 0.17044, 
			 "cosmo_polarized_energy": -15.47, 
			 "cosmo_cavitation_energy": 26.96, 
			 "cosmo_dispersion_energy": -19.97, 
			 "cosmo_repulsion_energy": 1.52, 
			 "cosmo_total_nonelectrostatic_energy": 8.51, 
			 "SMD_solvation_energy": 5.06 
		},
		"coords": [
			{
				"x": 2.0244216906,
				"y": 0.6535691583,
				"z": -1.6270297465,
				"element": "O" 
			},
			{
				"x": 0.8091398179,
				"y": 0.8073066345,
				"z": -2.2087420464,
				"element": "C" 
			},
			{
				"x": 0.6769027289,
				"y": 1.2891340529,
				"z": -3.3154060299,
				"element": "O" 
			},
			{
				"x": -0.3129921071,
				"y": 0.3299732482,
				"z": -1.3531502686,
				"element": "C" 
			},
			{
				"x": -0.082852173,
				"y": -0.2143025316,
				"z": -0.0858436444,
				"element": "C" 
			},
			{
				"x": -1.157851882,
				"y": -0.6546578653,
				"z": 0.6956038898,
				"element": "C" 
			},
			{
				"x": -2.4602337629,
				"y": -0.5406122925,
				"z": 0.1873491628,
				"element": "C" 
			},
			{
				"x": -2.6797058797,
				"y": 0.003632958,
				"z": -1.0777417422,
				"element": "C" 
			},
			{
				"x": -1.6139747609,
				"y": 0.4421229681,
				"z": -1.8566100986,
				"element": "C" 
			},
			{
				"x": -0.9317803266,
				"y": -1.2082532867,
				"z": 1.9834327798,
				"element": "N" 
			},
			{
				"x": -1.8871616541,
				"y": -1.6868553113,
				"z": 2.8746290134,
				"element": "C" 
			},
			{
				"x": -1.1952066621,
				"y": -2.1159122681,
				"z": 3.9730605459,
				"element": "C" 
			},
			{
				"x": 0.1601074476,
				"y": -1.9242417438,
				"z": 3.8041245233,
				"element": "N" 
			},
			{
				"x": 0.2838909002,
				"y": -1.3853303705,
				"z": 2.6162726238,
				"element": "C" 
			},
			{
				"x": 2.671039487,
				"y": 0.9943448813,
				"z": -2.2666795627,
				"element": "H" 
			},
			{
				"x": 0.9359015875,
				"y": -0.2846555649,
				"z": 0.2692950845,
				"element": "H" 
			},
			{
				"x": -3.3090646895,
				"y": -0.8738635961,
				"z": 0.7717594575,
				"element": "H" 
			},
			{
				"x": -3.6959576504,
				"y": 0.082352032,
				"z": -1.4512059792,
				"element": "H" 
			},
			{
				"x": -1.7619378482,
				"y": 0.8681248111,
				"z": -2.8422337952,
				"element": "H" 
			},
			{
				"x": -2.9415104616,
				"y": -1.6808796106,
				"z": 2.6573816053,
				"element": "H" 
			},
			{
				"x": -1.5957054057,
				"y": -2.5525565871,
				"z": 4.8773957443,
				"element": "H" 
			},
			{
				"x": 1.2207316039,
				"y": -1.102639716,
				"z": 2.1617384832,
				"element": "H" 
			}
		],
		 "valence_orbital": [ 
			{
				"type": "occ",
				"energy": -0.28729,
				"method": "rhf"
			},
			{
				"type": "occ",
				"energy": -0.279,
				"method": "rhf"
			},
			{
				"type": "occ",
				"energy": -0.27201,
				"method": "rhf"
			},
			{
				"type": "occ",
				"energy": -0.24965,
				"method": "rhf"
			},
			{
				"type": "occ",
				"energy": -0.23241,
				"method": "rhf"
			},
			{
				"type": "unocc",
				"energy": -0.06197,
				"method": "rhf"
			},
			{
				"type": "unocc",
				"energy": -0.03534,
				"method": "rhf"
			},
			{
				"type": "unocc",
				"energy": 0.02207,
				"method": "rhf"
			},
			{
				"type": "unocc",
				"energy": 0.06045,
				"method": "rhf"
			},
			{
				"type": "unocc",
				"energy": 0.06507,
				"method": "rhf"
			}
		],
		"cosmo_sigma_profile": { 
			"-0.025": 0.0,
			"-0.024": 0.0,
			"-0.023": 0.0,
			"-0.022": 0.0,
			"-0.021": 0.0,
			"-0.02": 0.0,
			"-0.019": 0.0576370785716,
			"-0.018": 1.02024456272,
			"-0.017": 0.839971530787,
			"-0.016": 0.779876062426,
			"-0.015": 0.936060785436,
			"-0.014": 0.747362356866,
			"-0.013": 0.271385658833,
			"-0.012": 1.23360997204,
			"-0.011": 3.4584014848,
			"-0.01": 3.62759452418,
			"-0.009": 3.99079474292,
			"-0.008": 4.03524481041,
			"-0.007": 8.96018048687,
			"-0.006": 10.3659918847,
			"-0.005": 9.52944768736,
			"-0.004": 9.78644648912,
			"-0.003": 12.1595288125,
			"-0.002": 13.0050163296,
			"-0.001": 13.6361273424,
			"0.0": 18.0220710339,
			"0.001": 17.5596802937,
			"0.002": 19.5610385029,
			"0.003": 13.850867171,
			"0.004": 7.24197933043,
			"0.005": 8.41139716371,
			"0.006": 4.89447152945,
			"0.007": 4.15362868458,
			"0.008": 3.36844600688,
			"0.009": 2.90809235091,
			"0.01": 3.38056590012,
			"0.011": 6.15978960143,
			"0.012": 3.93918156571,
			"0.013": 1.2805349557,
			"0.014": 0.843369562524,
			"0.015": 1.13614327784,
			"0.016": 1.20820488875,
			"0.017": 0.9388351787,
			"0.018": 0.256553826198,
			"0.019": 0.0,
			"0.02": 0.0,
			"0.021": 0.0,
			"0.022": 0.0,
			"0.023": 0.0,
			"0.024": 0.0,
			"0.025": 0.0
		}
	}
}
