{
	 "smiles": "CCC(C)(O)C#CC(C)(O)CC", 
	 "Tm": 326.65, 
	 "num_atms": 30, 
	 "gaussian": { 
		 "optdone": 1, 
		 "sigma_profile": "yes", 
		 "theory": "DFT", 
		 "functional": "B3LYP", 
		 "basiset": "6-31G**", 
		 "properties": { 
			 "R2extent": 3207.6703, 
			 "electric_dipole_moment_norm": 1.05114411001, 
			 "electric_quadrupole_moment_norm": 14.0044888743, 
			 "total_energy": -542.298367772, 
			 "HOMO_LUMO_gap": 0.2842, 
			 "cosmo_polarized_energy": -13.8, 
			 "cosmo_cavitation_energy": 32.4, 
			 "cosmo_dispersion_energy": -21.55, 
			 "cosmo_repulsion_energy": 1.8, 
			 "cosmo_total_nonelectrostatic_energy": 12.65, 
			 "SMD_solvation_energy": 6.09 
		},
		"coords": [
			{
				"x": 2.3569022411,
				"y": 1.5632584122,
				"z": -1.9152174133,
				"element": "C" 
			},
			{
				"x": 3.0377111145,
				"y": 0.6722273408,
				"z": -0.8728784139,
				"element": "C" 
			},
			{
				"x": 2.179025022,
				"y": -0.489099704,
				"z": -0.3070691652,
				"element": "C" 
			},
			{
				"x": 1.7949325585,
				"y": -1.5121257302,
				"z": -1.393824233,
				"element": "C" 
			},
			{
				"x": 2.923656161,
				"y": -1.1528614175,
				"z": 0.7295528678,
				"element": "O" 
			},
			{
				"x": 0.9676421601,
				"y": 0.0459142249,
				"z": 0.3363330154,
				"element": "C" 
			},
			{
				"x": -0.0323189441,
				"y": 0.5198675149,
				"z": 0.8229295586,
				"element": "C" 
			},
			{
				"x": -1.2547206212,
				"y": 1.0534972036,
				"z": 1.4469143029,
				"element": "C" 
			},
			{
				"x": -2.4864285417,
				"y": 0.2946154769,
				"z": 0.9156359698,
				"element": "C" 
			},
			{
				"x": -1.3362501798,
				"y": 2.4359590553,
				"z": 1.0556559219,
				"element": "O" 
			},
			{
				"x": -1.1668875246,
				"y": 0.9371700153,
				"z": 2.990900796,
				"element": "C" 
			},
			{
				"x": 0.0077477293,
				"y": 1.696260171,
				"z": 3.6096806787,
				"element": "C" 
			},
			{
				"x": 1.441909975,
				"y": 2.0059717185,
				"z": -1.5109131987,
				"element": "H" 
			},
			{
				"x": 2.0945402257,
				"y": 1.00742216,
				"z": -2.8212837675,
				"element": "H" 
			},
			{
				"x": 3.0239153641,
				"y": 2.3785846951,
				"z": -2.2125131226,
				"element": "H" 
			},
			{
				"x": 3.9449382662,
				"y": 0.2228704949,
				"z": -1.3030072803,
				"element": "H" 
			},
			{
				"x": 3.3569461134,
				"y": 1.2741633088,
				"z": -0.0157494869,
				"element": "H" 
			},
			{
				"x": 1.1578092488,
				"y": -1.0678090316,
				"z": -2.1627857498,
				"element": "H" 
			},
			{
				"x": 2.6993200639,
				"y": -1.8988162152,
				"z": -1.8795804429,
				"element": "H" 
			},
			{
				"x": 1.2597444085,
				"y": -2.347956804,
				"z": -0.9372659186,
				"element": "H" 
			},
			{
				"x": 3.7355278054,
				"y": -1.4824786274,
				"z": 0.3191745886,
				"element": "H" 
			},
			{
				"x": -2.5595619723,
				"y": 0.4145491847,
				"z": -0.1678545357,
				"element": "H" 
			},
			{
				"x": -3.399307048,
				"y": 0.6930508189,
				"z": 1.3751070667,
				"element": "H" 
			},
			{
				"x": -2.4259455886,
				"y": -0.7722293651,
				"z": 1.1488722357,
				"element": "H" 
			},
			{
				"x": -2.1465162058,
				"y": 2.7881560072,
				"z": 1.4505024046,
				"element": "H" 
			},
			{
				"x": -1.1180264435,
				"y": -0.1251018184,
				"z": 3.2576030967,
				"element": "H" 
			},
			{
				"x": -2.1166880543,
				"y": 1.3153500701,
				"z": 3.3970465421,
				"element": "H" 
			},
			{
				"x": -0.0243396661,
				"y": 1.6364679788,
				"z": 4.7020939723,
				"element": "H" 
			},
			{
				"x": 0.9610945425,
				"y": 1.2793770844,
				"z": 3.272668339,
				"element": "H" 
			},
			{
				"x": -0.0191722099,
				"y": 2.7500457773,
				"z": 3.3190713718,
				"element": "H" 
			}
		],
		 "valence_orbital": [ 
			{
				"type": "occ",
				"energy": -0.32113,
				"method": "rhf"
			},
			{
				"type": "occ",
				"energy": -0.27479,
				"method": "rhf"
			},
			{
				"type": "occ",
				"energy": -0.27104,
				"method": "rhf"
			},
			{
				"type": "occ",
				"energy": -0.2555,
				"method": "rhf"
			},
			{
				"type": "occ",
				"energy": -0.24521,
				"method": "rhf"
			},
			{
				"type": "unocc",
				"energy": 0.03899,
				"method": "rhf"
			},
			{
				"type": "unocc",
				"energy": 0.05418,
				"method": "rhf"
			},
			{
				"type": "unocc",
				"energy": 0.07349,
				"method": "rhf"
			},
			{
				"type": "unocc",
				"energy": 0.07768,
				"method": "rhf"
			},
			{
				"type": "unocc",
				"energy": 0.11456,
				"method": "rhf"
			}
		],
		"cosmo_sigma_profile": { 
			"-0.025": 0.0,
			"-0.024": 0.0,
			"-0.023": 0.0,
			"-0.022": 0.0,
			"-0.021": 0.0,
			"-0.02": 0.0,
			"-0.019": 0.0,
			"-0.018": 0.0,
			"-0.017": 0.0,
			"-0.016": 0.0312889544967,
			"-0.015": 1.56588079883,
			"-0.014": 1.84592252377,
			"-0.013": 1.68721618619,
			"-0.012": 2.17593985743,
			"-0.011": 2.21333367459,
			"-0.01": 1.85944694932,
			"-0.009": 2.17428289719,
			"-0.008": 2.26386189246,
			"-0.007": 2.64088493454,
			"-0.006": 3.25221983355,
			"-0.005": 4.57127495604,
			"-0.004": 13.3662419192,
			"-0.003": 23.6700459771,
			"-0.002": 25.6344871646,
			"-0.001": 33.7572916723,
			"0.0": 35.8500773001,
			"0.001": 26.8720661395,
			"0.002": 11.6258883054,
			"0.003": 8.06010033571,
			"0.004": 6.26693874592,
			"0.005": 7.70968718388,
			"0.006": 5.35512936433,
			"0.007": 3.41722980156,
			"0.008": 2.80900176128,
			"0.009": 3.09207174229,
			"0.01": 3.65832729146,
			"0.011": 2.80152032217,
			"0.012": 2.69505677391,
			"0.013": 3.59767813546,
			"0.014": 3.89921041402,
			"0.015": 0.209718337566,
			"0.016": 0.0,
			"0.017": 0.0,
			"0.018": 0.0,
			"0.019": 0.0,
			"0.02": 0.0,
			"0.021": 0.0,
			"0.022": 0.0,
			"0.023": 0.0,
			"0.024": 0.0,
			"0.025": 0.0
		}
	}
}
