{
	 "smiles": "CC1=CC=C(C=C1)S(=O)(=O)NC(=O)NN1CC2CCCC2C1", 
	 "Tm": 454.15, 
	 "num_atms": 43, 
	 "gaussian": { 
		 "optdone": 1, 
		 "sigma_profile": "yes", 
		 "theory": "DFT", 
		 "functional": "B3LYP", 
		 "basiset": "6-31G**", 
		 "properties": { 
			 "R2extent": 7645.7327, 
			 "electric_dipole_moment_norm": 5.56193068727, 
			 "electric_quadrupole_moment_norm": 19.8402504422, 
			 "total_energy": -1372.289553, 
			 "HOMO_LUMO_gap": 0.19668, 
			 "cosmo_polarized_energy": -18.99, 
			 "cosmo_cavitation_energy": 44.63, 
			 "cosmo_dispersion_energy": -30.4, 
			 "cosmo_repulsion_energy": 2.29, 
			 "cosmo_total_nonelectrostatic_energy": 16.53, 
			 "SMD_solvation_energy": 6.86 
		},
		"coords": [
			{
				"x": 4.7658212706,
				"y": -2.8406700223,
				"z": 0.7532279069,
				"element": "C" 
			},
			{
				"x": 3.27867028,
				"y": -2.6195296085,
				"z": 0.8856032456,
				"element": "C" 
			},
			{
				"x": 2.3744455639,
				"y": -3.6454310051,
				"z": 0.5653018278,
				"element": "C" 
			},
			{
				"x": 1.0006839359,
				"y": -3.4522920369,
				"z": 0.6652924056,
				"element": "C" 
			},
			{
				"x": 0.5174984176,
				"y": -2.2074399036,
				"z": 1.0796000736,
				"element": "C" 
			},
			{
				"x": 1.3909642282,
				"y": -1.1732486821,
				"z": 1.412190794,
				"element": "C" 
			},
			{
				"x": 2.7660530703,
				"y": -1.3883053409,
				"z": 1.3128660141,
				"element": "C" 
			},
			{
				"x": -1.2427430053,
				"y": -1.9637513521,
				"z": 1.3052224676,
				"element": "S" 
			},
			{
				"x": -1.7596081106,
				"y": -2.953398762,
				"z": 2.2554299101,
				"element": "O" 
			},
			{
				"x": -1.4811115766,
				"y": -0.5410108427,
				"z": 1.5304237674,
				"element": "O" 
			},
			{
				"x": -1.943815562,
				"y": -2.5100288158,
				"z": -0.1702107344,
				"element": "N" 
			},
			{
				"x": -1.4417702637,
				"y": -2.5346269745,
				"z": -1.4939615032,
				"element": "C" 
			},
			{
				"x": -1.5491706875,
				"y": -3.5546596886,
				"z": -2.1580400484,
				"element": "O" 
			},
			{
				"x": -0.8575589141,
				"y": -1.3974523058,
				"z": -1.9909095773,
				"element": "N" 
			},
			{
				"x": -1.1498610572,
				"y": -0.1283756196,
				"z": -1.4891363499,
				"element": "N" 
			},
			{
				"x": -0.0219036003,
				"y": 0.8060172536,
				"z": -1.6063517625,
				"element": "C" 
			},
			{
				"x": -0.6612585561,
				"y": 2.1730597953,
				"z": -1.3134408223,
				"element": "C" 
			},
			{
				"x": -0.630754869,
				"y": 2.6166323216,
				"z": 0.1692830667,
				"element": "C" 
			},
			{
				"x": -2.0141428481,
				"y": 3.240006204,
				"z": 0.4161400744,
				"element": "C" 
			},
			{
				"x": -2.9494689788,
				"y": 2.2931192726,
				"z": -0.3517066195,
				"element": "C" 
			},
			{
				"x": -2.1882281307,
				"y": 1.9808886591,
				"z": -1.66144985,
				"element": "C" 
			},
			{
				"x": -2.2924422754,
				"y": 0.5294356233,
				"z": -2.1480790626,
				"element": "C" 
			},
			{
				"x": 5.0735804762,
				"y": -2.8138570544,
				"z": -0.2991824118,
				"element": "H" 
			},
			{
				"x": 5.0602093408,
				"y": -3.8173493003,
				"z": 1.1501213062,
				"element": "H" 
			},
			{
				"x": 5.3342974151,
				"y": -2.0721228197,
				"z": 1.2834135092,
				"element": "H" 
			},
			{
				"x": 2.7528141615,
				"y": -4.6098663422,
				"z": 0.2373494021,
				"element": "H" 
			},
			{
				"x": 0.3161631442,
				"y": -4.2563399581,
				"z": 0.4155019021,
				"element": "H" 
			},
			{
				"x": 0.9940753704,
				"y": -0.2219767301,
				"z": 1.7476262823,
				"element": "H" 
			},
			{
				"x": 3.4500396987,
				"y": -0.5855501454,
				"z": 1.574538844,
				"element": "H" 
			},
			{
				"x": -2.3794400404,
				"y": -3.4073468756,
				"z": 0.0249975609,
				"element": "H" 
			},
			{
				"x": -0.6797151995,
				"y": -1.4810189928,
				"z": -2.9941007079,
				"element": "H" 
			},
			{
				"x": 0.4005040302,
				"y": 0.7822798875,
				"z": -2.6289900113,
				"element": "H" 
			},
			{
				"x": 0.7725649431,
				"y": 0.5281620042,
				"z": -0.9085478001,
				"element": "H" 
			},
			{
				"x": -0.2102412476,
				"y": 2.9422423651,
				"z": -1.9477349646,
				"element": "H" 
			},
			{
				"x": 0.1993395791,
				"y": 3.2978650064,
				"z": 0.384633398,
				"element": "H" 
			},
			{
				"x": -0.5233153898,
				"y": 1.7358265217,
				"z": 0.8111206649,
				"element": "H" 
			},
			{
				"x": -2.2634579589,
				"y": 3.3194357822,
				"z": 1.47892893,
				"element": "H" 
			},
			{
				"x": -2.060038614,
				"y": 4.2515071553,
				"z": -0.0097539076,
				"element": "H" 
			},
			{
				"x": -3.9427806468,
				"y": 2.715300586,
				"z": -0.5363704378,
				"element": "H" 
			},
			{
				"x": -3.0770168799,
				"y": 1.3707715645,
				"z": 0.2260534151,
				"element": "H" 
			},
			{
				"x": -2.4984301628,
				"y": 2.6695318433,
				"z": -2.453241596,
				"element": "H" 
			},
			{
				"x": -2.1943021724,
				"y": 0.4688234047,
				"z": -3.2485837114,
				"element": "H" 
			},
			{
				"x": -3.2248481782,
				"y": 0.0340439287,
				"z": -1.8611748901,
				"element": "H" 
			}
		],
		 "valence_orbital": [ 
			{
				"type": "occ",
				"energy": -0.27737,
				"method": "rhf"
			},
			{
				"type": "occ",
				"energy": -0.2738,
				"method": "rhf"
			},
			{
				"type": "occ",
				"energy": -0.26828,
				"method": "rhf"
			},
			{
				"type": "occ",
				"energy": -0.2594,
				"method": "rhf"
			},
			{
				"type": "occ",
				"energy": -0.2393,
				"method": "rhf"
			},
			{
				"type": "unocc",
				"energy": -0.04262,
				"method": "rhf"
			},
			{
				"type": "unocc",
				"energy": -0.02582,
				"method": "rhf"
			},
			{
				"type": "unocc",
				"energy": 0.01026,
				"method": "rhf"
			},
			{
				"type": "unocc",
				"energy": 0.05489,
				"method": "rhf"
			},
			{
				"type": "unocc",
				"energy": 0.07161,
				"method": "rhf"
			}
		],
		"cosmo_sigma_profile": { 
			"-0.025": 0.0,
			"-0.024": 0.0,
			"-0.023": 0.0,
			"-0.022": 0.0,
			"-0.021": 0.0,
			"-0.02": 0.0,
			"-0.019": 0.0,
			"-0.018": 0.0,
			"-0.017": 0.0,
			"-0.016": 0.0,
			"-0.015": 0.140191778897,
			"-0.014": 0.67488447405,
			"-0.013": 1.39775406083,
			"-0.012": 1.44625550911,
			"-0.011": 2.23423487347,
			"-0.01": 2.88329273752,
			"-0.009": 2.60599127687,
			"-0.008": 3.62257049105,
			"-0.007": 5.60834395453,
			"-0.006": 11.1730208814,
			"-0.005": 15.7154696187,
			"-0.004": 18.9597421021,
			"-0.003": 32.6015378347,
			"-0.002": 45.4709789068,
			"-0.001": 45.2847466013,
			"0.0": 33.7998534475,
			"0.001": 27.9451120358,
			"0.002": 20.4280032979,
			"0.003": 16.6869914559,
			"0.004": 6.91840710866,
			"0.005": 5.73569428595,
			"0.006": 5.77571872363,
			"0.007": 5.26284614148,
			"0.008": 5.04884043696,
			"0.009": 5.56599543083,
			"0.01": 8.67041377773,
			"0.011": 8.60544724635,
			"0.012": 5.94079928287,
			"0.013": 3.88679260213,
			"0.014": 0.0437054710302,
			"0.015": 0.0,
			"0.016": 0.0,
			"0.017": 0.0,
			"0.018": 0.0,
			"0.019": 0.0,
			"0.02": 0.0,
			"0.021": 0.0,
			"0.022": 0.0,
			"0.023": 0.0,
			"0.024": 0.0,
			"0.025": 0.0
		}
	}
}
