{
	 "smiles": "ClC1=CC2=C(C=C1)N=C(Cl)C(Cl)=N2", 
	 "Tm": 419.15, 
	 "num_atms": 16, 
	 "gaussian": { 
		 "optdone": 1, 
		 "sigma_profile": "yes", 
		 "theory": "DFT", 
		 "functional": "B3LYP", 
		 "basiset": "6-31G**", 
		 "properties": { 
			 "R2extent": 4934.7254, 
			 "electric_dipole_moment_norm": 1.91242458675, 
			 "electric_quadrupole_moment_norm": 4.20482583111, 
			 "total_energy": -1796.7348079, 
			 "HOMO_LUMO_gap": 0.16511, 
			 "cosmo_polarized_energy": -5.83, 
			 "cosmo_cavitation_energy": 26.66, 
			 "cosmo_dispersion_energy": -20.47, 
			 "cosmo_repulsion_energy": 1.61, 
			 "cosmo_total_nonelectrostatic_energy": 7.8, 
			 "SMD_solvation_energy": 0.68 
		},
		"coords": [
			{
				"x": 1.9882475805,
				"y": -0.0636202559,
				"z": 3.8589087493,
				"element": "Cl" 
			},
			{
				"x": 1.2029517813,
				"y": -0.3934419445,
				"z": 2.3282699407,
				"element": "C" 
			},
			{
				"x": -0.1661755613,
				"y": -0.5358515891,
				"z": 2.2794859014,
				"element": "C" 
			},
			{
				"x": -0.775482226,
				"y": -0.8018785179,
				"z": 1.0303311109,
				"element": "C" 
			},
			{
				"x": 0.0231580003,
				"y": -0.917461072,
				"z": -0.1446482172,
				"element": "C" 
			},
			{
				"x": 1.4277885212,
				"y": -0.764312526,
				"z": -0.0516102134,
				"element": "C" 
			},
			{
				"x": 2.0111113582,
				"y": -0.5056629144,
				"z": 1.1683890924,
				"element": "C" 
			},
			{
				"x": -0.5594429535,
				"y": -1.1734353123,
				"z": -1.34958781,
				"element": "N" 
			},
			{
				"x": -1.8507049184,
				"y": -1.3071008566,
				"z": -1.3920055955,
				"element": "C" 
			},
			{
				"x": -2.5857482809,
				"y": -1.6349516727,
				"z": -2.9417548333,
				"element": "Cl" 
			},
			{
				"x": -2.6584856271,
				"y": -1.1903434818,
				"z": -0.2038813565,
				"element": "C" 
			},
			{
				"x": -4.3930095813,
				"y": -1.3741628083,
				"z": -0.2851984682,
				"element": "Cl" 
			},
			{
				"x": -2.1299210893,
				"y": -0.9469023319,
				"z": 0.956986414,
				"element": "N" 
			},
			{
				"x": -0.7880227791,
				"y": -0.4510430764,
				"z": 3.1625334412,
				"element": "H" 
			},
			{
				"x": 2.0185125277,
				"y": -0.8557829285,
				"z": -0.9566739484,
				"element": "H" 
			},
			{
				"x": 3.0847232478,
				"y": -0.3854487116,
				"z": 1.2585557925,
				"element": "H" 
			}
		],
		 "valence_orbital": [ 
			{
				"type": "occ",
				"energy": -0.32301,
				"method": "rhf"
			},
			{
				"type": "occ",
				"energy": -0.31157,
				"method": "rhf"
			},
			{
				"type": "occ",
				"energy": -0.28717,
				"method": "rhf"
			},
			{
				"type": "occ",
				"energy": -0.27344,
				"method": "rhf"
			},
			{
				"type": "occ",
				"energy": -0.26237,
				"method": "rhf"
			},
			{
				"type": "unocc",
				"energy": -0.09726,
				"method": "rhf"
			},
			{
				"type": "unocc",
				"energy": -0.05518,
				"method": "rhf"
			},
			{
				"type": "unocc",
				"energy": -0.01992,
				"method": "rhf"
			},
			{
				"type": "unocc",
				"energy": 0.00125,
				"method": "rhf"
			},
			{
				"type": "unocc",
				"energy": 0.0155,
				"method": "rhf"
			}
		],
		"cosmo_sigma_profile": { 
			"-0.025": 0.0,
			"-0.024": 0.0,
			"-0.023": 0.0,
			"-0.022": 0.0,
			"-0.021": 0.0,
			"-0.02": 0.0,
			"-0.019": 0.0,
			"-0.018": 0.0,
			"-0.017": 0.0,
			"-0.016": 0.0,
			"-0.015": 0.0,
			"-0.014": 0.0,
			"-0.013": 0.0,
			"-0.012": 0.0,
			"-0.011": 0.0,
			"-0.01": 0.0,
			"-0.009": 1.17211242218,
			"-0.008": 4.84990115096,
			"-0.007": 6.71712279563,
			"-0.006": 8.48440252158,
			"-0.005": 7.2926449686,
			"-0.004": 11.4783805193,
			"-0.003": 13.0055714958,
			"-0.002": 17.6711224535,
			"-0.001": 24.5319139713,
			"0.0": 27.030887196,
			"0.001": 20.7625694593,
			"0.002": 19.413369412,
			"0.003": 28.2567890976,
			"0.004": 16.7224910348,
			"0.005": 4.15283152589,
			"0.006": 2.78563686232,
			"0.007": 2.3408248516,
			"0.008": 1.83252885019,
			"0.009": 1.8711027008,
			"0.01": 1.35232457854,
			"0.011": 1.32451891716,
			"0.012": 0.200579464853,
			"0.013": 0.0,
			"0.014": 0.0,
			"0.015": 0.0,
			"0.016": 0.0,
			"0.017": 0.0,
			"0.018": 0.0,
			"0.019": 0.0,
			"0.02": 0.0,
			"0.021": 0.0,
			"0.022": 0.0,
			"0.023": 0.0,
			"0.024": 0.0,
			"0.025": 0.0
		}
	}
}
