{
	 "smiles": "COC(=O)C1=CC=C(N)N=C1", 
	 "Tm": 433.15, 
	 "num_atms": 19, 
	 "gaussian": { 
		 "optdone": 1, 
		 "sigma_profile": "yes", 
		 "theory": "DFT", 
		 "functional": "B3LYP", 
		 "basiset": "6-31G**", 
		 "properties": { 
			 "R2extent": 2446.6213, 
			 "electric_dipole_moment_norm": 2.36115424316, 
			 "electric_quadrupole_moment_norm": 16.9092109641, 
			 "total_energy": -531.535577451, 
			 "HOMO_LUMO_gap": 0.18882, 
			 "cosmo_polarized_energy": -12.87, 
			 "cosmo_cavitation_energy": 23.76, 
			 "cosmo_dispersion_energy": -17.74, 
			 "cosmo_repulsion_energy": 1.44, 
			 "cosmo_total_nonelectrostatic_energy": 7.46, 
			 "SMD_solvation_energy": 4.37 
		},
		"coords": [
			{
				"x": -2.6185484766,
				"y": 2.5476082796,
				"z": -0.2259094591,
				"element": "C" 
			},
			{
				"x": -2.1649731619,
				"y": 1.2877509837,
				"z": 0.2881608686,
				"element": "O" 
			},
			{
				"x": -1.0211670326,
				"y": 0.8167802362,
				"z": -0.2676453127,
				"element": "C" 
			},
			{
				"x": -0.4153214531,
				"y": 1.4127175298,
				"z": -1.1398206923,
				"element": "O" 
			},
			{
				"x": -0.6076656181,
				"y": -0.4825782905,
				"z": 0.3029056865,
				"element": "C" 
			},
			{
				"x": 0.5624602453,
				"y": -1.09729606,
				"z": -0.1775541144,
				"element": "C" 
			},
			{
				"x": 0.9614410692,
				"y": -2.3102909861,
				"z": 0.3453678936,
				"element": "C" 
			},
			{
				"x": 0.1692611902,
				"y": -2.8959163778,
				"z": 1.3608378673,
				"element": "C" 
			},
			{
				"x": 0.4852219082,
				"y": -4.1179748123,
				"z": 1.897006489,
				"element": "N" 
			},
			{
				"x": -0.949943159,
				"y": -2.3175008587,
				"z": 1.8348640295,
				"element": "N" 
			},
			{
				"x": -1.3173216003,
				"y": -1.147877034,
				"z": 1.3098003691,
				"element": "C" 
			},
			{
				"x": -3.5343479269,
				"y": 2.7757952477,
				"z": 0.3197261786,
				"element": "H" 
			},
			{
				"x": -2.8185960883,
				"y": 2.4785307299,
				"z": -1.2983215587,
				"element": "H" 
			},
			{
				"x": -1.8692939748,
				"y": 3.3259510279,
				"z": -0.0594431283,
				"element": "H" 
			},
			{
				"x": 1.1317595436,
				"y": -0.6010958628,
				"z": -0.9568820923,
				"element": "H" 
			},
			{
				"x": 1.8563359331,
				"y": -2.8111249635,
				"z": -0.0115888499,
				"element": "H" 
			},
			{
				"x": 1.4285490815,
				"y": -4.4613584039,
				"z": 1.812386062,
				"element": "H" 
			},
			{
				"x": -0.0163771989,
				"y": -4.3672005621,
				"z": 2.7365743385,
				"element": "H" 
			},
			{
				"x": -2.2253732803,
				"y": -0.7072198231,
				"z": 1.7125354248,
				"element": "H" 
			}
		],
		 "valence_orbital": [ 
			{
				"type": "occ",
				"energy": -0.2959,
				"method": "rhf"
			},
			{
				"type": "occ",
				"energy": -0.2838,
				"method": "rhf"
			},
			{
				"type": "occ",
				"energy": -0.27373,
				"method": "rhf"
			},
			{
				"type": "occ",
				"energy": -0.25666,
				"method": "rhf"
			},
			{
				"type": "occ",
				"energy": -0.22169,
				"method": "rhf"
			},
			{
				"type": "unocc",
				"energy": -0.03287,
				"method": "rhf"
			},
			{
				"type": "unocc",
				"energy": -0.0186,
				"method": "rhf"
			},
			{
				"type": "unocc",
				"energy": 0.06277,
				"method": "rhf"
			},
			{
				"type": "unocc",
				"energy": 0.08068,
				"method": "rhf"
			},
			{
				"type": "unocc",
				"energy": 0.10873,
				"method": "rhf"
			}
		],
		"cosmo_sigma_profile": { 
			"-0.025": 0.0,
			"-0.024": 0.0,
			"-0.023": 0.0,
			"-0.022": 0.0,
			"-0.021": 0.0,
			"-0.02": 0.0,
			"-0.019": 0.0,
			"-0.018": 0.0,
			"-0.017": 0.0,
			"-0.016": 0.0,
			"-0.015": 0.149748359615,
			"-0.014": 1.1198597529,
			"-0.013": 2.6233373423,
			"-0.012": 2.6542386722,
			"-0.011": 1.9890258045,
			"-0.01": 2.0535339203,
			"-0.009": 3.21698159337,
			"-0.008": 2.51452065747,
			"-0.007": 4.31048225299,
			"-0.006": 8.66923398616,
			"-0.005": 11.2898271017,
			"-0.004": 13.3388029482,
			"-0.003": 12.9834544461,
			"-0.002": 11.1662136684,
			"-0.001": 9.89858272363,
			"0.0": 13.353072447,
			"0.001": 16.2492912744,
			"0.002": 16.042376344,
			"0.003": 11.2456802869,
			"0.004": 7.32946816748,
			"0.005": 5.12097745796,
			"0.006": 6.12359908049,
			"0.007": 3.83981685018,
			"0.008": 3.02959449988,
			"0.009": 3.38953525978,
			"0.01": 3.38980452217,
			"0.011": 2.82219612205,
			"0.012": 5.39457847395,
			"0.013": 2.27366443979,
			"0.014": 1.00076518247,
			"0.015": 0.570691598855,
			"0.016": 0.0866453529955,
			"0.017": 0.0,
			"0.018": 0.0,
			"0.019": 0.0,
			"0.02": 0.0,
			"0.021": 0.0,
			"0.022": 0.0,
			"0.023": 0.0,
			"0.024": 0.0,
			"0.025": 0.0
		}
	}
}
