{
	 "smiles": "ClC1=NC=NC(Cl)=C1Br", 
	 "Tm": 352.15, 
	 "num_atms": 10, 
	 "gaussian": { 
		 "optdone": 1, 
		 "sigma_profile": "yes", 
		 "theory": "DFT", 
		 "functional": "B3LYP", 
		 "basiset": "6-31G**", 
		 "properties": { 
			 "R2extent": 3550.4123, 
			 "electric_dipole_moment_norm": 0.19098756504, 
			 "electric_quadrupole_moment_norm": 5.01331180259, 
			 "total_energy": -3754.29849406, 
			 "HOMO_LUMO_gap": 0.20869, 
			 "cosmo_polarized_energy": -4.92, 
			 "cosmo_cavitation_energy": 20.76, 
			 "cosmo_dispersion_energy": -16.39, 
			 "cosmo_repulsion_energy": 1.34, 
			 "cosmo_total_nonelectrostatic_energy": 5.71, 
			 "SMD_solvation_energy": -0.55 
		},
		"coords": [
			{
				"x": -2.5380766243,
				"y": 0.7976960323,
				"z": -3.5087489121,
				"element": "Cl" 
			},
			{
				"x": -2.0642467321,
				"y": 0.8418335558,
				"z": -1.8359695535,
				"element": "C" 
			},
			{
				"x": -2.323188585,
				"y": 1.9633458668,
				"z": -1.1805866496,
				"element": "N" 
			},
			{
				"x": -1.9619957978,
				"y": 2.0024234076,
				"z": 0.1022104791,
				"element": "C" 
			},
			{
				"x": -1.3672771548,
				"y": 1.0247290798,
				"z": 0.7862935263,
				"element": "N" 
			},
			{
				"x": -1.112100993,
				"y": -0.093105517,
				"z": 0.1231842164,
				"element": "C" 
			},
			{
				"x": -0.3363548858,
				"y": -1.3642309199,
				"z": 1.0215647008,
				"element": "Cl" 
			},
			{
				"x": -1.4414088682,
				"y": -0.2652389402,
				"z": -1.2329431587,
				"element": "C" 
			},
			{
				"x": -1.0763440683,
				"y": -1.8570039314,
				"z": -2.1700436702,
				"element": "Br" 
			},
			{
				"x": -2.1729062907,
				"y": 2.9209513662,
				"z": 0.6430390217,
				"element": "H" 
			}
		],
		 "valence_orbital": [ 
			{
				"type": "occ",
				"energy": -0.34126,
				"method": "rhf"
			},
			{
				"type": "occ",
				"energy": -0.31595,
				"method": "rhf"
			},
			{
				"type": "occ",
				"energy": -0.31509,
				"method": "rhf"
			},
			{
				"type": "occ",
				"energy": -0.28574,
				"method": "rhf"
			},
			{
				"type": "occ",
				"energy": -0.28068,
				"method": "rhf"
			},
			{
				"type": "unocc",
				"energy": -0.07199,
				"method": "rhf"
			},
			{
				"type": "unocc",
				"energy": -0.0665,
				"method": "rhf"
			},
			{
				"type": "unocc",
				"energy": -0.03833,
				"method": "rhf"
			},
			{
				"type": "unocc",
				"energy": 0.02506,
				"method": "rhf"
			},
			{
				"type": "unocc",
				"energy": 0.03673,
				"method": "rhf"
			}
		],
		"cosmo_sigma_profile": { 
			"-0.025": 0.0,
			"-0.024": 0.0,
			"-0.023": 0.0,
			"-0.022": 0.0,
			"-0.021": 0.0,
			"-0.02": 0.0,
			"-0.019": 0.0,
			"-0.018": 0.0,
			"-0.017": 0.0,
			"-0.016": 0.0,
			"-0.015": 0.0,
			"-0.014": 0.0,
			"-0.013": 0.0,
			"-0.012": 0.0,
			"-0.011": 0.0,
			"-0.01": 1.12339075874,
			"-0.009": 2.0552319158,
			"-0.008": 1.89922160176,
			"-0.007": 4.1389732293,
			"-0.006": 5.00115956353,
			"-0.005": 10.2839098533,
			"-0.004": 13.4149238809,
			"-0.003": 13.9542544472,
			"-0.002": 11.0649515096,
			"-0.001": 13.0354987345,
			"0.0": 14.6766405526,
			"0.001": 15.8997487802,
			"0.002": 26.0394596505,
			"0.003": 20.4068709159,
			"0.004": 6.44445248016,
			"0.005": 3.72646231354,
			"0.006": 2.26328446651,
			"0.007": 2.15498270755,
			"0.008": 2.43845416027,
			"0.009": 1.33964072913,
			"0.01": 2.14085613659,
			"0.011": 1.54143614182,
			"0.012": 1.16263990354,
			"0.013": 0.0418554750629,
			"0.014": 0.0,
			"0.015": 0.0,
			"0.016": 0.0,
			"0.017": 0.0,
			"0.018": 0.0,
			"0.019": 0.0,
			"0.02": 0.0,
			"0.021": 0.0,
			"0.022": 0.0,
			"0.023": 0.0,
			"0.024": 0.0,
			"0.025": 0.0
		}
	}
}
