{
	 "smiles": "ClC1=CC(Cl)=C(Cl)S1", 
	 "Tm": 257.15, 
	 "num_atms": 9, 
	 "gaussian": { 
		 "optdone": 1, 
		 "sigma_profile": "yes", 
		 "theory": "DFT", 
		 "functional": "B3LYP", 
		 "basiset": "6-31G**", 
		 "properties": { 
			 "R2extent": 2199.7724, 
			 "electric_dipole_moment_norm": 0.758694477375, 
			 "electric_quadrupole_moment_norm": 3.49553319824, 
			 "total_energy": -1931.75674039, 
			 "HOMO_LUMO_gap": 0.19554, 
			 "cosmo_polarized_energy": -2.35, 
			 "cosmo_cavitation_energy": 20.74, 
			 "cosmo_dispersion_energy": -16.44, 
			 "cosmo_repulsion_energy": 1.33, 
			 "cosmo_total_nonelectrostatic_energy": 5.63, 
			 "SMD_solvation_energy": 2.57 
		},
		"coords": [
			{
				"x": -1.3059935398,
				"y": 2.4066265561,
				"z": 0.7855144716,
				"element": "Cl" 
			},
			{
				"x": -0.5565905204,
				"y": 0.8547455696,
				"z": 0.6653984253,
				"element": "C" 
			},
			{
				"x": -0.7236971345,
				"y": -0.2023551488,
				"z": 1.5091604946,
				"element": "C" 
			},
			{
				"x": 0.0556450737,
				"y": -1.3317536061,
				"z": 1.102138503,
				"element": "C" 
			},
			{
				"x": 0.0492630909,
				"y": -2.8267468394,
				"z": 1.9813652502,
				"element": "Cl" 
			},
			{
				"x": 0.7898658502,
				"y": -1.1074971858,
				"z": -0.031434444,
				"element": "C" 
			},
			{
				"x": 1.8465303792,
				"y": -2.1979947834,
				"z": -0.8400031676,
				"element": "Cl" 
			},
			{
				"x": 0.5475326418,
				"y": 0.5122774218,
				"z": -0.6435452372,
				"element": "S" 
			},
			{
				"x": -1.3643558412,
				"y": -0.1963019841,
				"z": 2.3808057041,
				"element": "H" 
			}
		],
		 "valence_orbital": [ 
			{
				"type": "occ",
				"energy": -0.33608,
				"method": "rhf"
			},
			{
				"type": "occ",
				"energy": -0.33064,
				"method": "rhf"
			},
			{
				"type": "occ",
				"energy": -0.32714,
				"method": "rhf"
			},
			{
				"type": "occ",
				"energy": -0.27462,
				"method": "rhf"
			},
			{
				"type": "occ",
				"energy": -0.24123,
				"method": "rhf"
			},
			{
				"type": "unocc",
				"energy": -0.04569,
				"method": "rhf"
			},
			{
				"type": "unocc",
				"energy": -0.0249,
				"method": "rhf"
			},
			{
				"type": "unocc",
				"energy": -0.0109,
				"method": "rhf"
			},
			{
				"type": "unocc",
				"energy": 0.02959,
				"method": "rhf"
			},
			{
				"type": "unocc",
				"energy": 0.03208,
				"method": "rhf"
			}
		],
		"cosmo_sigma_profile": { 
			"-0.025": 0.0,
			"-0.024": 0.0,
			"-0.023": 0.0,
			"-0.022": 0.0,
			"-0.021": 0.0,
			"-0.02": 0.0,
			"-0.019": 0.0,
			"-0.018": 0.0,
			"-0.017": 0.0,
			"-0.016": 0.0,
			"-0.015": 0.0,
			"-0.014": 0.0,
			"-0.013": 0.0,
			"-0.012": 0.0,
			"-0.011": 0.0,
			"-0.01": 0.407252006991,
			"-0.009": 1.67509943669,
			"-0.008": 1.72505705436,
			"-0.007": 1.54958105733,
			"-0.006": 1.17135116797,
			"-0.005": 2.91265672054,
			"-0.004": 7.83046636992,
			"-0.003": 11.7795291426,
			"-0.002": 13.6442954664,
			"-0.001": 21.9114142943,
			"0.0": 29.7971752185,
			"0.001": 26.433984474,
			"0.002": 24.6823965233,
			"0.003": 24.2326708368,
			"0.004": 7.21150081744,
			"0.005": 0.0,
			"0.006": 0.0,
			"0.007": 0.0,
			"0.008": 0.0,
			"0.009": 0.0,
			"0.01": 0.0,
			"0.011": 0.0,
			"0.012": 0.0,
			"0.013": 0.0,
			"0.014": 0.0,
			"0.015": 0.0,
			"0.016": 0.0,
			"0.017": 0.0,
			"0.018": 0.0,
			"0.019": 0.0,
			"0.02": 0.0,
			"0.021": 0.0,
			"0.022": 0.0,
			"0.023": 0.0,
			"0.024": 0.0,
			"0.025": 0.0
		}
	}
}
