{
	 "smiles": "[O-][N+](=O)C1=CC=C(OS(=O)(=O)C(F)(F)F)C=C1", 
	 "Tm": 325.15, 
	 "num_atms": 21, 
	 "gaussian": { 
		 "optdone": 1, 
		 "sigma_profile": "yes", 
		 "theory": "DFT", 
		 "functional": "B3LYP", 
		 "basiset": "6-31G**", 
		 "properties": { 
			 "R2extent": 6641.6713, 
			 "electric_dipole_moment_norm": 3.56559524764, 
			 "electric_quadrupole_moment_norm": 12.2788693286, 
			 "total_energy": -1397.5316592, 
			 "HOMO_LUMO_gap": 0.19222, 
			 "cosmo_polarized_energy": -10.48, 
			 "cosmo_cavitation_energy": 30.97, 
			 "cosmo_dispersion_energy": -21.82, 
			 "cosmo_repulsion_energy": 1.58, 
			 "cosmo_total_nonelectrostatic_energy": 10.73, 
			 "SMD_solvation_energy": 7.96 
		},
		"coords": [
			{
				"x": 2.32232328,
				"y": -3.2352288326,
				"z": 2.3943067013,
				"element": "O" 
			},
			{
				"x": 3.0049873031,
				"y": -2.4858149924,
				"z": 1.6985305187,
				"element": "N" 
			},
			{
				"x": 4.2341231178,
				"y": -2.4613218582,
				"z": 1.6835887098,
				"element": "O" 
			},
			{
				"x": 2.2949879045,
				"y": -1.5449343617,
				"z": 0.8133794068,
				"element": "C" 
			},
			{
				"x": 3.0423122028,
				"y": -0.6851298168,
				"z": 0.0102560659,
				"element": "C" 
			},
			{
				"x": 2.3724457446,
				"y": 0.1993688442,
				"z": -0.830502148,
				"element": "C" 
			},
			{
				"x": 0.9775847911,
				"y": 0.1938364047,
				"z": -0.8361851276,
				"element": "C" 
			},
			{
				"x": 0.2910872978,
				"y": 1.0326681023,
				"z": -1.7295846743,
				"element": "O" 
			},
			{
				"x": 0.0826727077,
				"y": 2.6096694644,
				"z": -1.2609607837,
				"element": "S" 
			},
			{
				"x": 1.3418932432,
				"y": 3.3297123397,
				"z": -1.3649706715,
				"element": "O" 
			},
			{
				"x": -0.7397789417,
				"y": 2.6643456569,
				"z": -0.0634187093,
				"element": "O" 
			},
			{
				"x": -0.9750145059,
				"y": 3.0377388791,
				"z": -2.7441577415,
				"element": "C" 
			},
			{
				"x": -1.2952794083,
				"y": 4.3244705547,
				"z": -2.6353054228,
				"element": "F" 
			},
			{
				"x": -0.286240264,
				"y": 2.8331759902,
				"z": -3.8605837052,
				"element": "F" 
			},
			{
				"x": -2.0748721267,
				"y": 2.2936954438,
				"z": -2.7401176562,
				"element": "F" 
			},
			{
				"x": 0.2311975239,
				"y": -0.6619147971,
				"z": -0.0275936102,
				"element": "C" 
			},
			{
				"x": 0.9010632662,
				"y": -1.5493525835,
				"z": 0.8095906848,
				"element": "C" 
			},
			{
				"x": 4.1234462683,
				"y": -0.7216338247,
				"z": 0.051150259,
				"element": "H" 
			},
			{
				"x": 2.9123080792,
				"y": 0.8830329685,
				"z": -1.4749325992,
				"element": "H" 
			},
			{
				"x": -0.8513505917,
				"y": -0.6265803618,
				"z": -0.0628555476,
				"element": "H" 
			},
			{
				"x": 0.3677031084,
				"y": -2.2358032197,
				"z": 1.4546660508,
				"element": "H" 
			}
		],
		 "valence_orbital": [ 
			{
				"type": "occ",
				"energy": -0.3217,
				"method": "rhf"
			},
			{
				"type": "occ",
				"energy": -0.31912,
				"method": "rhf"
			},
			{
				"type": "occ",
				"energy": -0.30294,
				"method": "rhf"
			},
			{
				"type": "occ",
				"energy": -0.29856,
				"method": "rhf"
			},
			{
				"type": "occ",
				"energy": -0.29591,
				"method": "rhf"
			},
			{
				"type": "unocc",
				"energy": -0.10369,
				"method": "rhf"
			},
			{
				"type": "unocc",
				"energy": -0.04853,
				"method": "rhf"
			},
			{
				"type": "unocc",
				"energy": -0.02864,
				"method": "rhf"
			},
			{
				"type": "unocc",
				"energy": 0.00269,
				"method": "rhf"
			},
			{
				"type": "unocc",
				"energy": 0.00724,
				"method": "rhf"
			}
		],
		"cosmo_sigma_profile": { 
			"-0.025": 0.0,
			"-0.024": 0.0,
			"-0.023": 0.0,
			"-0.022": 0.0,
			"-0.021": 0.0,
			"-0.02": 0.0,
			"-0.019": 0.0,
			"-0.018": 0.0,
			"-0.017": 0.0,
			"-0.016": 0.0,
			"-0.015": 0.0,
			"-0.014": 0.0,
			"-0.013": 0.0,
			"-0.012": 0.0,
			"-0.011": 0.0,
			"-0.01": 0.204985362373,
			"-0.009": 3.2759943798,
			"-0.008": 6.92679206982,
			"-0.007": 9.35256848908,
			"-0.006": 7.53539961134,
			"-0.005": 9.70371548519,
			"-0.004": 13.1245144371,
			"-0.003": 16.0808325451,
			"-0.002": 26.716941099,
			"-0.001": 31.4094336288,
			"0.0": 43.0779519906,
			"0.001": 11.7630411716,
			"0.002": 7.17171468945,
			"0.003": 6.8473561608,
			"0.004": 6.8354567715,
			"0.005": 5.34368381894,
			"0.006": 8.00712140305,
			"0.007": 20.4112345984,
			"0.008": 11.2248948206,
			"0.009": 3.98159071965,
			"0.01": 1.28158118092,
			"0.011": 0.0,
			"0.012": 0.0,
			"0.013": 0.0,
			"0.014": 0.0,
			"0.015": 0.0,
			"0.016": 0.0,
			"0.017": 0.0,
			"0.018": 0.0,
			"0.019": 0.0,
			"0.02": 0.0,
			"0.021": 0.0,
			"0.022": 0.0,
			"0.023": 0.0,
			"0.024": 0.0,
			"0.025": 0.0
		}
	}
}
