{
	 "smiles": "CN1CCN(CC1)C1=C(Cl)C(=O)C2=CC=CC=C2C1=O", 
	 "Tm": 393.5, 
	 "num_atms": 35, 
	 "gaussian": { 
		 "optdone": 1, 
		 "sigma_profile": "yes", 
		 "theory": "DFT", 
		 "functional": "B3LYP", 
		 "basiset": "6-31G**", 
		 "properties": { 
			 "R2extent": 7532.6275, 
			 "electric_dipole_moment_norm": 2.92915141637, 
			 "electric_quadrupole_moment_norm": 16.1755076347, 
			 "total_energy": -1300.73931913, 
			 "HOMO_LUMO_gap": 0.09493, 
			 "cosmo_polarized_energy": -13.05, 
			 "cosmo_cavitation_energy": 37.78, 
			 "cosmo_dispersion_energy": -27.43, 
			 "cosmo_repulsion_energy": 2.02, 
			 "cosmo_total_nonelectrostatic_energy": 12.38, 
			 "SMD_solvation_energy": 3.9 
		},
		"coords": [
			{
				"x": -0.8594888313,
				"y": 2.7376064843,
				"z": -0.4679660208,
				"element": "C" 
			},
			{
				"x": -0.29821421,
				"y": 3.2303101998,
				"z": 0.7871647647,
				"element": "N" 
			},
			{
				"x": 1.1497812101,
				"y": 3.1269848114,
				"z": 0.8661243782,
				"element": "C" 
			},
			{
				"x": 1.6924113227,
				"y": 1.6700026358,
				"z": 0.932041998,
				"element": "C" 
			},
			{
				"x": 0.7077977614,
				"y": 0.8090527595,
				"z": 1.6194968618,
				"element": "N" 
			},
			{
				"x": -0.062273426,
				"y": 1.5405459682,
				"z": 2.6319505976,
				"element": "C" 
			},
			{
				"x": -0.9126324248,
				"y": 2.669839177,
				"z": 1.9980423492,
				"element": "C" 
			},
			{
				"x": 0.6267440293,
				"y": -0.5489600127,
				"z": 1.439219175,
				"element": "C" 
			},
			{
				"x": -0.5258484608,
				"y": -1.3051198001,
				"z": 1.5337378966,
				"element": "C" 
			},
			{
				"x": -2.1159827657,
				"y": -0.5812490214,
				"z": 1.6639948474,
				"element": "Cl" 
			},
			{
				"x": -0.5698576276,
				"y": -2.7773210524,
				"z": 1.4819803492,
				"element": "C" 
			},
			{
				"x": -1.6173825632,
				"y": -3.4045455166,
				"z": 1.6016900932,
				"element": "O" 
			},
			{
				"x": 0.7165384957,
				"y": -3.489924958,
				"z": 1.2340581854,
				"element": "C" 
			},
			{
				"x": 0.7242551011,
				"y": -4.8849658623,
				"z": 1.1550039487,
				"element": "C" 
			},
			{
				"x": 1.916963258,
				"y": -5.5585832845,
				"z": 0.89666345,
				"element": "C" 
			},
			{
				"x": 3.1054558012,
				"y": -4.8422772772,
				"z": 0.7144341172,
				"element": "C" 
			},
			{
				"x": 3.1011738293,
				"y": -3.4516662428,
				"z": 0.7919876804,
				"element": "C" 
			},
			{
				"x": 1.9052851359,
				"y": -2.7715700439,
				"z": 1.0540579653,
				"element": "C" 
			},
			{
				"x": 1.9268006972,
				"y": -1.2895369174,
				"z": 1.1600547299,
				"element": "C" 
			},
			{
				"x": 2.9824170083,
				"y": -0.6786429253,
				"z": 1.0513910893,
				"element": "O" 
			},
			{
				"x": -1.9321279148,
				"y": 2.9527486574,
				"z": -0.4931691288,
				"element": "H" 
			},
			{
				"x": -0.395276258,
				"y": 3.278102763,
				"z": -1.3004570055,
				"element": "H" 
			},
			{
				"x": -0.7304851865,
				"y": 1.6571779164,
				"z": -0.6452263672,
				"element": "H" 
			},
			{
				"x": 1.6032407965,
				"y": 3.6269225776,
				"z": 0.0033811514,
				"element": "H" 
			},
			{
				"x": 1.4786347551,
				"y": 3.6816496046,
				"z": 1.753788068,
				"element": "H" 
			},
			{
				"x": 2.6612238708,
				"y": 1.6596074758,
				"z": 1.4428270285,
				"element": "H" 
			},
			{
				"x": 1.8561914692,
				"y": 1.2734311713,
				"z": -0.0709709763,
				"element": "H" 
			},
			{
				"x": -0.678885552,
				"y": 0.855170979,
				"z": 3.208658607,
				"element": "H" 
			},
			{
				"x": 0.6684499752,
				"y": 1.9754660118,
				"z": 3.3297132514,
				"element": "H" 
			},
			{
				"x": -1.0438333863,
				"y": 3.461670219,
				"z": 2.750277922,
				"element": "H" 
			},
			{
				"x": -1.9048980759,
				"y": 2.2906475099,
				"z": 1.7451146828,
				"element": "H" 
			},
			{
				"x": -0.2125793594,
				"y": -5.4133296865,
				"z": 1.2940204131,
				"element": "H" 
			},
			{
				"x": 1.9227218406,
				"y": -6.6429552409,
				"z": 0.8354806533,
				"element": "H" 
			},
			{
				"x": 4.0331942459,
				"y": -5.3702041788,
				"z": 0.5148286551,
				"element": "H" 
			},
			{
				"x": 4.0089854391,
				"y": -2.873384901,
				"z": 0.6594045887,
				"element": "H" 
			}
		],
		 "valence_orbital": [ 
			{
				"type": "occ",
				"energy": -0.27294,
				"method": "rhf"
			},
			{
				"type": "occ",
				"energy": -0.26763,
				"method": "rhf"
			},
			{
				"type": "occ",
				"energy": -0.25758,
				"method": "rhf"
			},
			{
				"type": "occ",
				"energy": -0.22319,
				"method": "rhf"
			},
			{
				"type": "occ",
				"energy": -0.20244,
				"method": "rhf"
			},
			{
				"type": "unocc",
				"energy": -0.10751,
				"method": "rhf"
			},
			{
				"type": "unocc",
				"energy": -0.04009,
				"method": "rhf"
			},
			{
				"type": "unocc",
				"energy": -0.01845,
				"method": "rhf"
			},
			{
				"type": "unocc",
				"energy": 0.03147,
				"method": "rhf"
			},
			{
				"type": "unocc",
				"energy": 0.04197,
				"method": "rhf"
			}
		],
		"cosmo_sigma_profile": { 
			"-0.025": 0.0,
			"-0.024": 0.0,
			"-0.023": 0.0,
			"-0.022": 0.0,
			"-0.021": 0.0,
			"-0.02": 0.0,
			"-0.019": 0.0,
			"-0.018": 0.0,
			"-0.017": 0.0,
			"-0.016": 0.0,
			"-0.015": 0.0,
			"-0.014": 0.0,
			"-0.013": 0.0,
			"-0.012": 0.0,
			"-0.011": 0.0,
			"-0.01": 0.0,
			"-0.009": 0.0,
			"-0.008": 0.292945946313,
			"-0.007": 4.16802739055,
			"-0.006": 10.7501365202,
			"-0.005": 22.7757764173,
			"-0.004": 32.4355242043,
			"-0.003": 35.2497847803,
			"-0.002": 30.1255634545,
			"-0.001": 26.5120958624,
			"0.0": 26.2363491537,
			"0.001": 23.8867855028,
			"0.002": 23.6172916476,
			"0.003": 12.7123572823,
			"0.004": 7.81598070187,
			"0.005": 8.43672633473,
			"0.006": 4.6597316458,
			"0.007": 3.93555458602,
			"0.008": 5.04668745976,
			"0.009": 4.06819859366,
			"0.01": 4.89922869305,
			"0.011": 4.83350515574,
			"0.012": 5.19499067587,
			"0.013": 2.15401013258,
			"0.014": 0.667911240582,
			"0.015": 0.686123589429,
			"0.016": 0.477030892612,
			"0.017": 0.0,
			"0.018": 0.0,
			"0.019": 0.0,
			"0.02": 0.0,
			"0.021": 0.0,
			"0.022": 0.0,
			"0.023": 0.0,
			"0.024": 0.0,
			"0.025": 0.0
		}
	}
}
