{
	 "smiles": "CC1=NN(C(=O)C1C=C1/C(C)=NN(C1=O)C1=CC=CC=C1)C1=CC=CC=C1", 
	 "Tm": 453.15, 
	 "num_atms": 45, 
	 "gaussian": { 
		 "optdone": 1, 
		 "sigma_profile": "yes", 
		 "theory": "DFT", 
		 "functional": "B3LYP", 
		 "basiset": "6-31G**", 
		 "properties": { 
			 "R2extent": 15412.7882, 
			 "electric_dipole_moment_norm": 4.06548048083, 
			 "electric_quadrupole_moment_norm": 8.34085798285, 
			 "total_energy": -1180.49751232, 
			 "HOMO_LUMO_gap": 0.11848, 
			 "cosmo_polarized_energy": -17.78, 
			 "cosmo_cavitation_energy": 49.58, 
			 "cosmo_dispersion_energy": -35.22, 
			 "cosmo_repulsion_energy": 2.62, 
			 "cosmo_total_nonelectrostatic_energy": 16.99, 
			 "SMD_solvation_energy": 8.13 
		},
		"coords": [
			{
				"x": -0.9598616916,
				"y": 3.1627583634,
				"z": 1.4753612886,
				"element": "C" 
			},
			{
				"x": -0.9728577268,
				"y": 1.6709234513,
				"z": 1.51601084,
				"element": "C" 
			},
			{
				"x": -1.8999008302,
				"y": 1.015084247,
				"z": 2.1189771757,
				"element": "N" 
			},
			{
				"x": -1.6481553217,
				"y": -0.3576285711,
				"z": 1.9889897359,
				"element": "N" 
			},
			{
				"x": -0.49621375,
				"y": -0.6236185452,
				"z": 1.2684165793,
				"element": "C" 
			},
			{
				"x": -0.002344023,
				"y": -1.7036447942,
				"z": 1.0014390124,
				"element": "O" 
			},
			{
				"x": 0.0648317401,
				"y": 0.7714208272,
				"z": 0.8880194141,
				"element": "C" 
			},
			{
				"x": 0.2395889012,
				"y": 0.9418302542,
				"z": -0.59205613,
				"element": "C" 
			},
			{
				"x": 1.3129054825,
				"y": 0.6133547521,
				"z": -1.3302780094,
				"element": "C" 
			},
			{
				"x": 2.6181075796,
				"y": 0.0157292043,
				"z": -1.0438556487,
				"element": "C" 
			},
			{
				"x": 3.1612521639,
				"y": -0.4578624052,
				"z": 0.2660584329,
				"element": "C" 
			},
			{
				"x": 3.3133532446,
				"y": -0.1092038039,
				"z": -2.1325280015,
				"element": "N" 
			},
			{
				"x": 2.5743612418,
				"y": 0.3842680964,
				"z": -3.2103761356,
				"element": "N" 
			},
			{
				"x": 1.323006826,
				"y": 0.8443055096,
				"z": -2.8134783749,
				"element": "C" 
			},
			{
				"x": 0.4388226284,
				"y": 1.3327799803,
				"z": -3.5027217421,
				"element": "O" 
			},
			{
				"x": 3.1464949418,
				"y": 0.3490746101,
				"z": -4.5081592631,
				"element": "C" 
			},
			{
				"x": 4.4379734425,
				"y": -0.1725341558,
				"z": -4.6742151071,
				"element": "C" 
			},
			{
				"x": 5.0085906906,
				"y": -0.2098335737,
				"z": -5.9445017258,
				"element": "C" 
			},
			{
				"x": 4.3100226681,
				"y": 0.266204237,
				"z": -7.0553519417,
				"element": "C" 
			},
			{
				"x": 3.0258902889,
				"y": 0.7829467509,
				"z": -6.8802185902,
				"element": "C" 
			},
			{
				"x": 2.4346959788,
				"y": 0.8302419543,
				"z": -5.6180441068,
				"element": "C" 
			},
			{
				"x": -2.5496862443,
				"y": -1.2760477026,
				"z": 2.5965653279,
				"element": "C" 
			},
			{
				"x": -3.6386648265,
				"y": -0.7792428095,
				"z": 3.3273498177,
				"element": "C" 
			},
			{
				"x": -4.5297558241,
				"y": -1.6678751807,
				"z": 3.9248665091,
				"element": "C" 
			},
			{
				"x": -4.3503584016,
				"y": -3.0468330028,
				"z": 3.8049593766,
				"element": "C" 
			},
			{
				"x": -3.2639121887,
				"y": -3.5308930296,
				"z": 3.075996304,
				"element": "C" 
			},
			{
				"x": -2.3593488858,
				"y": -2.660249151,
				"z": 2.4686793775,
				"element": "C" 
			},
			{
				"x": -1.8303354465,
				"y": 3.5585958685,
				"z": 2.0016339507,
				"element": "H" 
			},
			{
				"x": -0.0503037359,
				"y": 3.5578564233,
				"z": 1.9435107537,
				"element": "H" 
			},
			{
				"x": -0.9715705023,
				"y": 3.5278601292,
				"z": 0.4417862274,
				"element": "H" 
			},
			{
				"x": 1.027544796,
				"y": 0.875668341,
				"z": 1.4031631427,
				"element": "H" 
			},
			{
				"x": -0.6066164541,
				"y": 1.3459916158,
				"z": -1.1479226081,
				"element": "H" 
			},
			{
				"x": 2.4773937249,
				"y": -1.1791785818,
				"z": 0.7250252432,
				"element": "H" 
			},
			{
				"x": 4.1319960135,
				"y": -0.930853531,
				"z": 0.1048242774,
				"element": "H" 
			},
			{
				"x": 3.3004373869,
				"y": 0.3748895873,
				"z": 0.966870904,
				"element": "H" 
			},
			{
				"x": 4.9761322615,
				"y": -0.5416254318,
				"z": -3.8110081602,
				"element": "H" 
			},
			{
				"x": 6.0091734483,
				"y": -0.6163287651,
				"z": -6.0621525677,
				"element": "H" 
			},
			{
				"x": 4.7600907084,
				"y": 0.234201978,
				"z": -8.0430064001,
				"element": "H" 
			},
			{
				"x": 2.4684447724,
				"y": 1.156819518,
				"z": -7.7344207425,
				"element": "H" 
			},
			{
				"x": 1.4392198962,
				"y": 1.2303719796,
				"z": -5.4853125899,
				"element": "H" 
			},
			{
				"x": -3.7761090077,
				"y": 0.2901133374,
				"z": 3.4176674669,
				"element": "H" 
			},
			{
				"x": -5.3705458505,
				"y": -1.2734963967,
				"z": 4.4882355657,
				"element": "H" 
			},
			{
				"x": -5.0481968103,
				"y": -3.7343521561,
				"z": 4.2730793928,
				"element": "H" 
			},
			{
				"x": -3.1107753392,
				"y": -4.6012215851,
				"z": 2.9726229021,
				"element": "H" 
			},
			{
				"x": -1.518717966,
				"y": -3.0403678434,
				"z": 1.9056988271,
				"element": "H" 
			}
		],
		 "valence_orbital": [ 
			{
				"type": "occ",
				"energy": -0.26054,
				"method": "rhf"
			},
			{
				"type": "occ",
				"energy": -0.25416,
				"method": "rhf"
			},
			{
				"type": "occ",
				"energy": -0.24421,
				"method": "rhf"
			},
			{
				"type": "occ",
				"energy": -0.22436,
				"method": "rhf"
			},
			{
				"type": "occ",
				"energy": -0.20999,
				"method": "rhf"
			},
			{
				"type": "unocc",
				"energy": -0.09151,
				"method": "rhf"
			},
			{
				"type": "unocc",
				"energy": -0.04752,
				"method": "rhf"
			},
			{
				"type": "unocc",
				"energy": -0.01887,
				"method": "rhf"
			},
			{
				"type": "unocc",
				"energy": -0.00776,
				"method": "rhf"
			},
			{
				"type": "unocc",
				"energy": -0.00317,
				"method": "rhf"
			}
		],
		"cosmo_sigma_profile": { 
			"-0.025": 0.0,
			"-0.024": 0.0,
			"-0.023": 0.0,
			"-0.022": 0.0,
			"-0.021": 0.0,
			"-0.02": 0.0,
			"-0.019": 0.0,
			"-0.018": 0.0,
			"-0.017": 0.0,
			"-0.016": 0.0,
			"-0.015": 0.0,
			"-0.014": 0.0,
			"-0.013": 0.0,
			"-0.012": 0.0,
			"-0.011": 0.0330921177866,
			"-0.01": 3.21654883465,
			"-0.009": 6.09239552423,
			"-0.008": 6.39542451021,
			"-0.007": 6.59327269076,
			"-0.006": 17.4252385145,
			"-0.005": 27.3756945174,
			"-0.004": 32.8720592505,
			"-0.003": 32.8238802617,
			"-0.002": 32.426090123,
			"-0.001": 31.4812380353,
			"0.0": 23.737795588,
			"0.001": 24.9488945789,
			"0.002": 28.324055221,
			"0.003": 27.2685865099,
			"0.004": 27.8404647471,
			"0.005": 27.4446485484,
			"0.006": 13.4550796009,
			"0.007": 5.27397799581,
			"0.008": 5.72271676837,
			"0.009": 5.85491290761,
			"0.01": 4.34895075267,
			"0.011": 3.94776681442,
			"0.012": 3.18813960591,
			"0.013": 0.151012874916,
			"0.014": 0.0,
			"0.015": 0.0,
			"0.016": 0.0,
			"0.017": 0.0,
			"0.018": 0.0,
			"0.019": 0.0,
			"0.02": 0.0,
			"0.021": 0.0,
			"0.022": 0.0,
			"0.023": 0.0,
			"0.024": 0.0,
			"0.025": 0.0
		}
	}
}
