{
	 "smiles": "CN1CC[C@]23CCCCC2[C@H]1CC1=CC=C(O)C=C31", 
	 "Tm": 471.15, 
	 "num_atms": 42, 
	 "gaussian": { 
		 "optdone": 1, 
		 "sigma_profile": "yes", 
		 "theory": "DFT", 
		 "functional": "B3LYP", 
		 "basiset": "6-31G**", 
		 "properties": { 
			 "R2extent": 4508.4383, 
			 "electric_dipole_moment_norm": 0.984103480331, 
			 "electric_quadrupole_moment_norm": 8.76707982569, 
			 "total_energy": -791.641058207, 
			 "HOMO_LUMO_gap": 0.19947, 
			 "cosmo_polarized_energy": -9.43, 
			 "cosmo_cavitation_energy": 37.58, 
			 "cosmo_dispersion_energy": -27.3, 
			 "cosmo_repulsion_energy": 2.06, 
			 "cosmo_total_nonelectrostatic_energy": 12.34, 
			 "SMD_solvation_energy": 4.25 
		},
		"coords": [
			{
				"x": -1.8185094418,
				"y": -3.452498094,
				"z": 0.4269806913,
				"element": "C" 
			},
			{
				"x": -1.5713418867,
				"y": -2.0241084095,
				"z": 0.3691252063,
				"element": "N" 
			},
			{
				"x": -2.7961506874,
				"y": -1.2326365068,
				"z": 0.4127761359,
				"element": "C" 
			},
			{
				"x": -2.4908180684,
				"y": 0.2694514422,
				"z": 0.5944667083,
				"element": "C" 
			},
			{
				"x": -1.1791797397,
				"y": 0.7085545796,
				"z": -0.1406246386,
				"element": "C" 
			},
			{
				"x": -1.3432310021,
				"y": 2.1112808158,
				"z": -0.7693976433,
				"element": "C" 
			},
			{
				"x": -0.0760281402,
				"y": 2.6000039156,
				"z": -1.5127763614,
				"element": "C" 
			},
			{
				"x": 0.7979495126,
				"y": 1.4400434246,
				"z": -2.0432079589,
				"element": "C" 
			},
			{
				"x": -0.0391002726,
				"y": 0.2128217018,
				"z": -2.4368937478,
				"element": "C" 
			},
			{
				"x": -0.9860119736,
				"y": -0.2929308237,
				"z": -1.3084308295,
				"element": "C" 
			},
			{
				"x": -0.6085263409,
				"y": -1.6518611976,
				"z": -0.6958950835,
				"element": "C" 
			},
			{
				"x": 0.7928841258,
				"y": -1.574007181,
				"z": -0.0760155785,
				"element": "C" 
			},
			{
				"x": 0.9004022916,
				"y": -0.4186107419,
				"z": 0.8977105599,
				"element": "C" 
			},
			{
				"x": 1.9189126021,
				"y": -0.4129509653,
				"z": 1.8567840636,
				"element": "C" 
			},
			{
				"x": 2.0675724084,
				"y": 0.6267141968,
				"z": 2.7711417433,
				"element": "C" 
			},
			{
				"x": 1.1640906239,
				"y": 1.6914436318,
				"z": 2.7359147919,
				"element": "C" 
			},
			{
				"x": 1.230524805,
				"y": 2.7509515412,
				"z": 3.6024643564,
				"element": "O" 
			},
			{
				"x": 0.1402695639,
				"y": 1.7004838894,
				"z": 1.7878851185,
				"element": "C" 
			},
			{
				"x": -0.0050436064,
				"y": 0.6624010603,
				"z": 0.8584486457,
				"element": "C" 
			},
			{
				"x": -0.869737412,
				"y": -3.9968858336,
				"z": 0.4766912715,
				"element": "H" 
			},
			{
				"x": -2.3814167882,
				"y": -3.8400090408,
				"z": -0.4459939093,
				"element": "H" 
			},
			{
				"x": -2.3885147907,
				"y": -3.6984773137,
				"z": 1.3296203267,
				"element": "H" 
			},
			{
				"x": -3.4316571626,
				"y": -1.3890777188,
				"z": -0.4822512362,
				"element": "H" 
			},
			{
				"x": -3.3906257755,
				"y": -1.5880735409,
				"z": 1.2623407644,
				"element": "H" 
			},
			{
				"x": -2.4061820951,
				"y": 0.5073364814,
				"z": 1.6584336747,
				"element": "H" 
			},
			{
				"x": -3.3393458527,
				"y": 0.8448609603,
				"z": 0.2034795901,
				"element": "H" 
			},
			{
				"x": -2.1796923917,
				"y": 2.0398619626,
				"z": -1.4773160735,
				"element": "H" 
			},
			{
				"x": -1.6545212393,
				"y": 2.8490109296,
				"z": -0.0216000273,
				"element": "H" 
			},
			{
				"x": -0.385850194,
				"y": 3.2455932458,
				"z": -2.3435361876,
				"element": "H" 
			},
			{
				"x": 0.5301146382,
				"y": 3.2244702767,
				"z": -0.8482056452,
				"element": "H" 
			},
			{
				"x": 1.5226700041,
				"y": 1.1530389269,
				"z": -1.2757436412,
				"element": "H" 
			},
			{
				"x": 1.3832451256,
				"y": 1.7779774432,
				"z": -2.9063787215,
				"element": "H" 
			},
			{
				"x": 0.6200304593,
				"y": -0.5959760867,
				"z": -2.7747744088,
				"element": "H" 
			},
			{
				"x": -0.6517148522,
				"y": 0.4762170743,
				"z": -3.3080877372,
				"element": "H" 
			},
			{
				"x": -1.9724327662,
				"y": -0.409903636,
				"z": -1.7713375723,
				"element": "H" 
			},
			{
				"x": -0.6140925539,
				"y": -2.4101226712,
				"z": -1.4983223267,
				"element": "H" 
			},
			{
				"x": 1.5465274328,
				"y": -1.4777125971,
				"z": -0.8709944424,
				"element": "H" 
			},
			{
				"x": 1.0199096443,
				"y": -2.5136235478,
				"z": 0.4413880584,
				"element": "H" 
			},
			{
				"x": 2.6132658954,
				"y": -1.2496280816,
				"z": 1.8919334657,
				"element": "H" 
			},
			{
				"x": 2.8688384602,
				"y": 0.6055244118,
				"z": 3.5071796926,
				"element": "H" 
			},
			{
				"x": 1.9760714751,
				"y": 2.6170044734,
				"z": 4.2014952464,
				"element": "H" 
			},
			{
				"x": -0.5450540342,
				"y": 2.541447603,
				"z": 1.7992236591,
				"element": "H" 
			}
		],
		 "valence_orbital": [ 
			{
				"type": "occ",
				"energy": -0.28582,
				"method": "rhf"
			},
			{
				"type": "occ",
				"energy": -0.27431,
				"method": "rhf"
			},
			{
				"type": "occ",
				"energy": -0.23303,
				"method": "rhf"
			},
			{
				"type": "occ",
				"energy": -0.20544,
				"method": "rhf"
			},
			{
				"type": "occ",
				"energy": -0.19479,
				"method": "rhf"
			},
			{
				"type": "unocc",
				"energy": 0.00468,
				"method": "rhf"
			},
			{
				"type": "unocc",
				"energy": 0.02384,
				"method": "rhf"
			},
			{
				"type": "unocc",
				"energy": 0.07586,
				"method": "rhf"
			},
			{
				"type": "unocc",
				"energy": 0.07785,
				"method": "rhf"
			},
			{
				"type": "unocc",
				"energy": 0.09691,
				"method": "rhf"
			}
		],
		"cosmo_sigma_profile": { 
			"-0.025": 0.0,
			"-0.024": 0.0,
			"-0.023": 0.0,
			"-0.022": 0.0,
			"-0.021": 0.0,
			"-0.02": 0.0,
			"-0.019": 0.0,
			"-0.018": 0.00114594787928,
			"-0.017": 1.08372819395,
			"-0.016": 0.650177582006,
			"-0.015": 1.13656155038,
			"-0.014": 1.0294428979,
			"-0.013": 1.40685707377,
			"-0.012": 0.647001355103,
			"-0.011": 0.361349395718,
			"-0.01": 1.04399615377,
			"-0.009": 1.39097997849,
			"-0.008": 1.37391322623,
			"-0.007": 1.25066237957,
			"-0.006": 1.29748986168,
			"-0.005": 4.07789291925,
			"-0.004": 8.45531130177,
			"-0.003": 21.9971712526,
			"-0.002": 43.1016337648,
			"-0.001": 51.3903271187,
			"0.0": 51.6833896695,
			"0.001": 31.517327678,
			"0.002": 12.8418673211,
			"0.003": 7.66763089951,
			"0.004": 8.27036259218,
			"0.005": 8.66557907233,
			"0.006": 7.87412987611,
			"0.007": 5.1679806597,
			"0.008": 2.84836922149,
			"0.009": 2.95820507353,
			"0.01": 2.29354852152,
			"0.011": 2.17866090833,
			"0.012": 2.86016443044,
			"0.013": 0.938978220397,
			"0.014": 0.331766467253,
			"0.015": 0.505902531541,
			"0.016": 0.0408037363498,
			"0.017": 0.0,
			"0.018": 0.0,
			"0.019": 0.0,
			"0.02": 0.0,
			"0.021": 0.0,
			"0.022": 0.0,
			"0.023": 0.0,
			"0.024": 0.0,
			"0.025": 0.0
		}
	}
}
