{
	 "smiles": "OCC1=CN2C=C(Cl)C=C(Cl)C2=N1", 
	 "Tm": 451.15, 
	 "num_atms": 19, 
	 "gaussian": { 
		 "optdone": 1, 
		 "sigma_profile": "yes", 
		 "theory": "DFT", 
		 "functional": "B3LYP", 
		 "basiset": "6-31G**", 
		 "properties": { 
			 "R2extent": 3940.8924, 
			 "electric_dipole_moment_norm": 3.73566452723, 
			 "electric_quadrupole_moment_norm": 13.1381389786, 
			 "total_energy": -1413.55395345, 
			 "HOMO_LUMO_gap": 0.17195, 
			 "cosmo_polarized_energy": -12.02, 
			 "cosmo_cavitation_energy": 27.23, 
			 "cosmo_dispersion_energy": -20.58, 
			 "cosmo_repulsion_energy": 1.64, 
			 "cosmo_total_nonelectrostatic_energy": 8.3, 
			 "SMD_solvation_energy": 3.4 
		},
		"coords": [
			{
				"x": -2.4524347278,
				"y": 3.4989186969,
				"z": 2.3835620695,
				"element": "O" 
			},
			{
				"x": -1.1097285442,
				"y": 3.06365938,
				"z": 2.4354839308,
				"element": "C" 
			},
			{
				"x": -0.8274124901,
				"y": 2.0210851349,
				"z": 1.3873701251,
				"element": "C" 
			},
			{
				"x": 0.3222970572,
				"y": 1.7808024917,
				"z": 0.6602726748,
				"element": "C" 
			},
			{
				"x": 0.039302101,
				"y": 0.6856593425,
				"z": -0.1319514333,
				"element": "N" 
			},
			{
				"x": 0.812409352,
				"y": 0.0193110346,
				"z": -1.0504961069,
				"element": "C" 
			},
			{
				"x": 0.262817336,
				"y": -1.0461286517,
				"z": -1.7079684932,
				"element": "C" 
			},
			{
				"x": 1.2272175123,
				"y": -1.9130129734,
				"z": -2.8813289621,
				"element": "Cl" 
			},
			{
				"x": -1.0716330292,
				"y": -1.4679804546,
				"z": -1.4621760348,
				"element": "C" 
			},
			{
				"x": -1.8287581902,
				"y": -0.7859523096,
				"z": -0.5402536492,
				"element": "C" 
			},
			{
				"x": -3.4660056214,
				"y": -1.2563839043,
				"z": -0.2009195349,
				"element": "Cl" 
			},
			{
				"x": -1.2893607742,
				"y": 0.3233666392,
				"z": 0.1606529309,
				"element": "C" 
			},
			{
				"x": -1.8106901207,
				"y": 1.1256648035,
				"z": 1.0787426513,
				"element": "N" 
			},
			{
				"x": -2.9751080978,
				"y": 2.7183626426,
				"z": 2.1422922117,
				"element": "H" 
			},
			{
				"x": -0.8656865833,
				"y": 2.6431611836,
				"z": 3.4272091055,
				"element": "H" 
			},
			{
				"x": -0.4634877998,
				"y": 3.936673079,
				"z": 2.2911989564,
				"element": "H" 
			},
			{
				"x": 1.2807916118,
				"y": 2.2745281397,
				"z": 0.6272243357,
				"element": "H" 
			},
			{
				"x": 1.8223949262,
				"y": 0.372624101,
				"z": -1.207672087,
				"element": "H" 
			},
			{
				"x": -1.4806239179,
				"y": -2.3153583757,
				"z": -1.9973426904,
				"element": "H" 
			}
		],
		 "valence_orbital": [ 
			{
				"type": "occ",
				"energy": -0.3066,
				"method": "rhf"
			},
			{
				"type": "occ",
				"energy": -0.2981,
				"method": "rhf"
			},
			{
				"type": "occ",
				"energy": -0.26492,
				"method": "rhf"
			},
			{
				"type": "occ",
				"energy": -0.25067,
				"method": "rhf"
			},
			{
				"type": "occ",
				"energy": -0.23216,
				"method": "rhf"
			},
			{
				"type": "unocc",
				"energy": -0.06021,
				"method": "rhf"
			},
			{
				"type": "unocc",
				"energy": -0.02232,
				"method": "rhf"
			},
			{
				"type": "unocc",
				"energy": -0.00559,
				"method": "rhf"
			},
			{
				"type": "unocc",
				"energy": 0.03482,
				"method": "rhf"
			},
			{
				"type": "unocc",
				"energy": 0.04349,
				"method": "rhf"
			}
		],
		"cosmo_sigma_profile": { 
			"-0.025": 0.0,
			"-0.024": 0.0,
			"-0.023": 0.0,
			"-0.022": 0.0,
			"-0.021": 0.0,
			"-0.02": 0.0,
			"-0.019": 0.0,
			"-0.018": 0.0,
			"-0.017": 0.0,
			"-0.016": 0.0,
			"-0.015": 0.0,
			"-0.014": 0.0,
			"-0.013": 0.0,
			"-0.012": 0.654634325324,
			"-0.011": 2.97566156079,
			"-0.01": 3.6965901622,
			"-0.009": 5.72687016503,
			"-0.008": 4.50905065377,
			"-0.007": 4.87700867727,
			"-0.006": 6.97142607049,
			"-0.005": 7.91646321131,
			"-0.004": 11.3692753056,
			"-0.003": 16.0744887543,
			"-0.002": 18.0414448707,
			"-0.001": 19.485013676,
			"0.0": 23.7557465944,
			"0.001": 17.4809579494,
			"0.002": 15.9032119432,
			"0.003": 20.1006751035,
			"0.004": 15.7052190412,
			"0.005": 4.07470577632,
			"0.006": 3.06514658523,
			"0.007": 3.39885534231,
			"0.008": 2.40703170156,
			"0.009": 3.24613545023,
			"0.01": 2.31809131649,
			"0.011": 2.98318930326,
			"0.012": 1.95020840023,
			"0.013": 1.74206109615,
			"0.014": 2.64617742158,
			"0.015": 0.315987851261,
			"0.016": 0.0,
			"0.017": 0.0,
			"0.018": 0.0,
			"0.019": 0.0,
			"0.02": 0.0,
			"0.021": 0.0,
			"0.022": 0.0,
			"0.023": 0.0,
			"0.024": 0.0,
			"0.025": 0.0
		}
	}
}
