{
	 "smiles": "COC1=CN=C(NS(=O)(=O)C2=CC=C(N)C=C2)N=C1", 
	 "Tm": 488.15, 
	 "num_atms": 31, 
	 "gaussian": { 
		 "optdone": 1, 
		 "sigma_profile": "yes", 
		 "theory": "DFT", 
		 "functional": "B3LYP", 
		 "basiset": "6-31G**", 
		 "properties": { 
			 "R2extent": 6902.7301, 
			 "electric_dipole_moment_norm": 7.91181543389, 
			 "electric_quadrupole_moment_norm": 21.6608668033, 
			 "total_energy": -1269.18573837, 
			 "HOMO_LUMO_gap": 0.17185, 
			 "cosmo_polarized_energy": -23.8, 
			 "cosmo_cavitation_energy": 37.36, 
			 "cosmo_dispersion_energy": -27.39, 
			 "cosmo_repulsion_energy": 2.07, 
			 "cosmo_total_nonelectrostatic_energy": 12.05, 
			 "SMD_solvation_energy": 4.51 
		},
		"coords": [
			{
				"x": -1.0865728109,
				"y": -5.2548742143,
				"z": -2.1457300433,
				"element": "C" 
			},
			{
				"x": 0.0681046861,
				"y": -4.6369465276,
				"z": -2.69824234,
				"element": "O" 
			},
			{
				"x": 0.3871784346,
				"y": -3.3902798103,
				"z": -2.2567459245,
				"element": "C" 
			},
			{
				"x": -0.3195535334,
				"y": -2.6298793899,
				"z": -1.323277723,
				"element": "C" 
			},
			{
				"x": 0.077187469,
				"y": -1.4035163402,
				"z": -0.958762637,
				"element": "N" 
			},
			{
				"x": 1.1985246509,
				"y": -0.9498204277,
				"z": -1.5160356992,
				"element": "C" 
			},
			{
				"x": 1.6344619859,
				"y": 0.333077562,
				"z": -1.1833391232,
				"element": "N" 
			},
			{
				"x": 1.3906863318,
				"y": 1.0970280261,
				"z": 0.331673396,
				"element": "S" 
			},
			{
				"x": 2.3932182785,
				"y": 2.1661933954,
				"z": 0.289767728,
				"element": "O" 
			},
			{
				"x": 1.3809969375,
				"y": 0.0969013997,
				"z": 1.3971679189,
				"element": "O" 
			},
			{
				"x": -0.2247720949,
				"y": 1.8234610053,
				"z": 0.2172917448,
				"element": "C" 
			},
			{
				"x": -0.3602078187,
				"y": 3.1073479397,
				"z": -0.3202088313,
				"element": "C" 
			},
			{
				"x": -1.6162657143,
				"y": 3.6923556159,
				"z": -0.3944669519,
				"element": "C" 
			},
			{
				"x": -2.7558809804,
				"y": 3.0047802546,
				"z": 0.0699074322,
				"element": "C" 
			},
			{
				"x": -4.0012464535,
				"y": 3.6086307204,
				"z": 0.0424307624,
				"element": "N" 
			},
			{
				"x": -2.5963401629,
				"y": 1.7145232805,
				"z": 0.6141271127,
				"element": "C" 
			},
			{
				"x": -1.3411334297,
				"y": 1.1270829413,
				"z": 0.6892130273,
				"element": "C" 
			},
			{
				"x": 1.9582309259,
				"y": -1.5893063187,
				"z": -2.4232739739,
				"element": "N" 
			},
			{
				"x": 1.5413358162,
				"y": -2.7956458575,
				"z": -2.7893085255,
				"element": "C" 
			},
			{
				"x": -0.9962981413,
				"y": -5.3774125832,
				"z": -1.0587630611,
				"element": "H" 
			},
			{
				"x": -1.1561883008,
				"y": -6.237223722,
				"z": -2.614167967,
				"element": "H" 
			},
			{
				"x": -1.9961740099,
				"y": -4.6825091072,
				"z": -2.3695445047,
				"element": "H" 
			},
			{
				"x": -1.2283937649,
				"y": -2.996839919,
				"z": -0.8545972713,
				"element": "H" 
			},
			{
				"x": 2.5379644555,
				"y": 0.5838424099,
				"z": -1.5712924625,
				"element": "H" 
			},
			{
				"x": 0.5184801882,
				"y": 3.6433258056,
				"z": -0.6618418363,
				"element": "H" 
			},
			{
				"x": -1.7238772238,
				"y": 4.6937707875,
				"z": -0.8026561961,
				"element": "H" 
			},
			{
				"x": -4.1218918653,
				"y": 4.3751083959,
				"z": -0.6029797151,
				"element": "H" 
			},
			{
				"x": -4.8040873268,
				"y": 2.9998139494,
				"z": 0.1000658538,
				"element": "H" 
			},
			{
				"x": -3.4665942904,
				"y": 1.1798992921,
				"z": 0.9857664251,
				"element": "H" 
			},
			{
				"x": -1.2149125956,
				"y": 0.1340468383,
				"z": 1.1027550042,
				"element": "H" 
			},
			{
				"x": 2.1327203574,
				"y": -3.3354354021,
				"z": -3.5264316182,
				"element": "H" 
			}
		],
		 "valence_orbital": [ 
			{
				"type": "occ",
				"energy": -0.28927,
				"method": "rhf"
			},
			{
				"type": "occ",
				"energy": -0.26268,
				"method": "rhf"
			},
			{
				"type": "occ",
				"energy": -0.2531,
				"method": "rhf"
			},
			{
				"type": "occ",
				"energy": -0.22844,
				"method": "rhf"
			},
			{
				"type": "occ",
				"energy": -0.21589,
				"method": "rhf"
			},
			{
				"type": "unocc",
				"energy": -0.04404,
				"method": "rhf"
			},
			{
				"type": "unocc",
				"energy": -0.01755,
				"method": "rhf"
			},
			{
				"type": "unocc",
				"energy": -0.0097,
				"method": "rhf"
			},
			{
				"type": "unocc",
				"energy": -0.00576,
				"method": "rhf"
			},
			{
				"type": "unocc",
				"energy": 0.06101,
				"method": "rhf"
			}
		],
		"cosmo_sigma_profile": { 
			"-0.025": 0.0,
			"-0.024": 0.0,
			"-0.023": 0.0,
			"-0.022": 0.0,
			"-0.021": 0.0,
			"-0.02": 0.0,
			"-0.019": 0.0,
			"-0.018": 0.0,
			"-0.017": 0.0,
			"-0.016": 0.0,
			"-0.015": 0.112817198814,
			"-0.014": 1.08686769614,
			"-0.013": 3.62875792557,
			"-0.012": 3.73399850585,
			"-0.011": 3.9995051213,
			"-0.01": 3.78250063831,
			"-0.009": 3.8152908256,
			"-0.008": 8.09147085974,
			"-0.007": 11.5738702939,
			"-0.006": 18.7823836124,
			"-0.005": 18.3194785513,
			"-0.004": 18.2768961139,
			"-0.003": 15.9767844206,
			"-0.002": 15.2283154757,
			"-0.001": 19.4624008694,
			"0.0": 15.2547731742,
			"0.001": 15.7258812183,
			"0.002": 15.5460595057,
			"0.003": 17.7239169211,
			"0.004": 20.1134220393,
			"0.005": 10.9029271719,
			"0.006": 9.59611261031,
			"0.007": 7.41855247621,
			"0.008": 7.25545593403,
			"0.009": 7.78050834901,
			"0.01": 10.3220956803,
			"0.011": 11.3064112676,
			"0.012": 3.01694071943,
			"0.013": 0.620021617945,
			"0.014": 0.0417677021898,
			"0.015": 0.0,
			"0.016": 0.0,
			"0.017": 0.0,
			"0.018": 0.0,
			"0.019": 0.0,
			"0.02": 0.0,
			"0.021": 0.0,
			"0.022": 0.0,
			"0.023": 0.0,
			"0.024": 0.0,
			"0.025": 0.0
		}
	}
}
