{
	 "smiles": "CCCCCCCCC(Br)C(O)=O", 
	 "Tm": 277.15, 
	 "num_atms": 32, 
	 "gaussian": { 
		 "optdone": 1, 
		 "sigma_profile": "yes", 
		 "theory": "DFT", 
		 "functional": "B3LYP", 
		 "basiset": "6-31G**", 
		 "properties": { 
			 "R2extent": 5550.3891, 
			 "electric_dipole_moment_norm": 2.84883212212, 
			 "electric_quadrupole_moment_norm": 15.1544457619, 
			 "total_energy": -3114.40095692, 
			 "HOMO_LUMO_gap": 0.25154, 
			 "cosmo_polarized_energy": -10.59, 
			 "cosmo_cavitation_energy": 35.72, 
			 "cosmo_dispersion_energy": -23.96, 
			 "cosmo_repulsion_energy": 1.93, 
			 "cosmo_total_nonelectrostatic_energy": 13.69, 
			 "SMD_solvation_energy": 5.21 
		},
		"coords": [
			{
				"x": -2.8354734132,
				"y": -0.1828820947,
				"z": -0.766720389,
				"element": "C" 
			},
			{
				"x": -1.6807701406,
				"y": -0.9786276697,
				"z": -0.1493565892,
				"element": "C" 
			},
			{
				"x": -1.1396316196,
				"y": -2.0690421103,
				"z": -1.084653641,
				"element": "C" 
			},
			{
				"x": -0.0312462038,
				"y": -2.947064945,
				"z": -0.4786852138,
				"element": "C" 
			},
			{
				"x": 1.3075937029,
				"y": -2.2614558281,
				"z": -0.1409331278,
				"element": "C" 
			},
			{
				"x": 2.1062105857,
				"y": -1.7342811976,
				"z": -1.3563994238,
				"element": "C" 
			},
			{
				"x": 1.8712990379,
				"y": -0.2601021532,
				"z": -1.739041599,
				"element": "C" 
			},
			{
				"x": 2.5013987811,
				"y": 0.7195133012,
				"z": -0.7404582225,
				"element": "C" 
			},
			{
				"x": 2.2849342556,
				"y": 2.212872945,
				"z": -1.0377122026,
				"element": "C" 
			},
			{
				"x": 0.3786974665,
				"y": 2.717393712,
				"z": -0.9100247392,
				"element": "Br" 
			},
			{
				"x": 2.8344108583,
				"y": 2.6042640575,
				"z": -2.4042282181,
				"element": "C" 
			},
			{
				"x": 4.1553589827,
				"y": 2.8904226238,
				"z": -2.2853673075,
				"element": "O" 
			},
			{
				"x": 2.2469544198,
				"y": 2.6196642295,
				"z": -3.4574398463,
				"element": "O" 
			},
			{
				"x": -3.2149429227,
				"y": 0.5744446033,
				"z": -0.0728954695,
				"element": "H" 
			},
			{
				"x": -2.5148305015,
				"y": 0.3344653316,
				"z": -1.6779212398,
				"element": "H" 
			},
			{
				"x": -3.6721332868,
				"y": -0.8386727141,
				"z": -1.0346439403,
				"element": "H" 
			},
			{
				"x": -0.8785725257,
				"y": -0.2825953735,
				"z": 0.1250766421,
				"element": "H" 
			},
			{
				"x": -2.0150454756,
				"y": -1.4455498757,
				"z": 0.7877657341,
				"element": "H" 
			},
			{
				"x": -0.7904998547,
				"y": -1.6105468031,
				"z": -2.0195744092,
				"element": "H" 
			},
			{
				"x": -1.9730095849,
				"y": -2.7245388238,
				"z": -1.3733530086,
				"element": "H" 
			},
			{
				"x": -0.4201925255,
				"y": -3.4109777977,
				"z": 0.4385378706,
				"element": "H" 
			},
			{
				"x": 0.1760363647,
				"y": -3.7764799708,
				"z": -1.1689929231,
				"element": "H" 
			},
			{
				"x": 1.9240162145,
				"y": -3.0001035443,
				"z": 0.3861819523,
				"element": "H" 
			},
			{
				"x": 1.1410208047,
				"y": -1.4541329906,
				"z": 0.5835701688,
				"element": "H" 
			},
			{
				"x": 1.8797905907,
				"y": -2.3631270828,
				"z": -2.2271827912,
				"element": "H" 
			},
			{
				"x": 3.1799822184,
				"y": -1.8698813144,
				"z": -1.1682219108,
				"element": "H" 
			},
			{
				"x": 2.2930849583,
				"y": -0.0789461792,
				"z": -2.7347011598,
				"element": "H" 
			},
			{
				"x": 0.8010016505,
				"y": -0.0495749922,
				"z": -1.8213527608,
				"element": "H" 
			},
			{
				"x": 2.1301933846,
				"y": 0.5318193553,
				"z": 0.2721673085,
				"element": "H" 
			},
			{
				"x": 3.5895155714,
				"y": 0.5656025542,
				"z": -0.7093641952,
				"element": "H" 
			},
			{
				"x": 2.7813531102,
				"y": 2.8144985372,
				"z": -0.2770924102,
				"element": "H" 
			},
			{
				"x": 4.4752950962,
				"y": 3.0764222102,
				"z": -3.1846829383,
				"element": "H" 
			}
		],
		 "valence_orbital": [ 
			{
				"type": "occ",
				"energy": -0.3065,
				"method": "rhf"
			},
			{
				"type": "occ",
				"energy": -0.30499,
				"method": "rhf"
			},
			{
				"type": "occ",
				"energy": -0.28703,
				"method": "rhf"
			},
			{
				"type": "occ",
				"energy": -0.27821,
				"method": "rhf"
			},
			{
				"type": "occ",
				"energy": -0.27566,
				"method": "rhf"
			},
			{
				"type": "unocc",
				"energy": -0.02412,
				"method": "rhf"
			},
			{
				"type": "unocc",
				"energy": 0.01356,
				"method": "rhf"
			},
			{
				"type": "unocc",
				"energy": 0.06985,
				"method": "rhf"
			},
			{
				"type": "unocc",
				"energy": 0.08011,
				"method": "rhf"
			},
			{
				"type": "unocc",
				"energy": 0.09608,
				"method": "rhf"
			}
		],
		"cosmo_sigma_profile": { 
			"-0.025": 0.0,
			"-0.024": 0.0,
			"-0.023": 0.0,
			"-0.022": 0.0,
			"-0.021": 0.0,
			"-0.02": 0.0,
			"-0.019": 0.336679042054,
			"-0.018": 1.0844190862,
			"-0.017": 0.729864935414,
			"-0.016": 1.08321852403,
			"-0.015": 0.991188622132,
			"-0.014": 0.732798999938,
			"-0.013": 0.126163303109,
			"-0.012": 0.67757625694,
			"-0.011": 1.15555454163,
			"-0.01": 0.281445590724,
			"-0.009": 1.44736355381,
			"-0.008": 3.07669188178,
			"-0.007": 3.33539189113,
			"-0.006": 2.22875880108,
			"-0.005": 5.74752101213,
			"-0.004": 10.6616315489,
			"-0.003": 14.3609138222,
			"-0.002": 33.6322607612,
			"-0.001": 41.0207015374,
			"0.0": 42.8162368527,
			"0.001": 39.8017107378,
			"0.002": 24.1079053487,
			"0.003": 9.68527208733,
			"0.004": 6.07108845641,
			"0.005": 9.4599083615,
			"0.006": 5.02729277541,
			"0.007": 3.40885808689,
			"0.008": 3.02593387548,
			"0.009": 2.90888077078,
			"0.01": 3.17674491312,
			"0.011": 5.12780664492,
			"0.012": 1.86701104362,
			"0.013": 0.104351023521,
			"0.014": 0.0,
			"0.015": 0.0,
			"0.016": 0.0,
			"0.017": 0.0,
			"0.018": 0.0,
			"0.019": 0.0,
			"0.02": 0.0,
			"0.021": 0.0,
			"0.022": 0.0,
			"0.023": 0.0,
			"0.024": 0.0,
			"0.025": 0.0
		}
	}
}
