{
	 "smiles": "CCCN1N=C(C=CC1=O)C(O)=O", 
	 "Tm": 406.15, 
	 "num_atms": 23, 
	 "gaussian": { 
		 "optdone": 1, 
		 "sigma_profile": "yes", 
		 "theory": "DFT", 
		 "functional": "B3LYP", 
		 "basiset": "6-31G**", 
		 "properties": { 
			 "R2extent": 3056.9427, 
			 "electric_dipole_moment_norm": 2.95490212021, 
			 "electric_quadrupole_moment_norm": 20.9604753176, 
			 "total_energy": -646.053971144, 
			 "HOMO_LUMO_gap": 0.16767, 
			 "cosmo_polarized_energy": -14.38, 
			 "cosmo_cavitation_energy": 27.62, 
			 "cosmo_dispersion_energy": -19.86, 
			 "cosmo_repulsion_energy": 1.6, 
			 "cosmo_total_nonelectrostatic_energy": 9.35, 
			 "SMD_solvation_energy": 6.02 
		},
		"coords": [
			{
				"x": -2.0298394303,
				"y": 0.3305740895,
				"z": 3.207851792,
				"element": "C" 
			},
			{
				"x": -1.0334785012,
				"y": 0.3550921132,
				"z": 2.0450300274,
				"element": "C" 
			},
			{
				"x": -1.7423521617,
				"y": 0.246148801,
				"z": 0.6901034036,
				"element": "C" 
			},
			{
				"x": -0.7994985485,
				"y": 0.2602757106,
				"z": -0.4393012934,
				"element": "N" 
			},
			{
				"x": -0.3911423177,
				"y": -0.9259608253,
				"z": -0.8830164875,
				"element": "N" 
			},
			{
				"x": 0.4691432669,
				"y": -0.9725637986,
				"z": -1.8731152015,
				"element": "C" 
			},
			{
				"x": 0.9903351328,
				"y": 0.2004536538,
				"z": -2.4982330311,
				"element": "C" 
			},
			{
				"x": 0.5808520544,
				"y": 1.4118910584,
				"z": -2.0428849826,
				"element": "C" 
			},
			{
				"x": -0.3562593998,
				"y": 1.5194405468,
				"z": -0.9352949541,
				"element": "C" 
			},
			{
				"x": -0.7659783605,
				"y": 2.5576731166,
				"z": -0.4311278055,
				"element": "O" 
			},
			{
				"x": 0.8842043003,
				"y": -2.3395476747,
				"z": -2.3310500648,
				"element": "C" 
			},
			{
				"x": 0.3188588677,
				"y": -3.3610713044,
				"z": -1.6636869721,
				"element": "O" 
			},
			{
				"x": 1.6710848334,
				"y": -2.5046433595,
				"z": -3.234942674,
				"element": "O" 
			},
			{
				"x": -1.5096970255,
				"y": 0.4076308881,
				"z": 4.1669923712,
				"element": "H" 
			},
			{
				"x": -2.611499238,
				"y": -0.5981566843,
				"z": 3.2187873886,
				"element": "H" 
			},
			{
				"x": -2.7348874038,
				"y": 1.1664275534,
				"z": 3.1443198528,
				"element": "H" 
			},
			{
				"x": -0.3197585641,
				"y": -0.4724308184,
				"z": 2.139576199,
				"element": "H" 
			},
			{
				"x": -0.4578126194,
				"y": 1.2862899621,
				"z": 2.0622420747,
				"element": "H" 
			},
			{
				"x": -2.4180179523,
				"y": 1.0918051003,
				"z": 0.546240828,
				"element": "H" 
			},
			{
				"x": -2.3055689935,
				"y": -0.6865944504,
				"z": 0.6118548652,
				"element": "H" 
			},
			{
				"x": 1.6938021253,
				"y": 0.0815042023,
				"z": -3.3148474682,
				"element": "H" 
			},
			{
				"x": 0.9309161382,
				"y": 2.3475456889,
				"z": -2.4641485972,
				"element": "H" 
			},
			{
				"x": -0.2736062026,
				"y": -2.9821835695,
				"z": -0.9883492705,
				"element": "H" 
			}
		],
		 "valence_orbital": [ 
			{
				"type": "occ",
				"energy": -0.33044,
				"method": "rhf"
			},
			{
				"type": "occ",
				"energy": -0.31705,
				"method": "rhf"
			},
			{
				"type": "occ",
				"energy": -0.28701,
				"method": "rhf"
			},
			{
				"type": "occ",
				"energy": -0.26918,
				"method": "rhf"
			},
			{
				"type": "occ",
				"energy": -0.2559,
				"method": "rhf"
			},
			{
				"type": "unocc",
				"energy": -0.08823,
				"method": "rhf"
			},
			{
				"type": "unocc",
				"energy": -0.04857,
				"method": "rhf"
			},
			{
				"type": "unocc",
				"energy": 0.04545,
				"method": "rhf"
			},
			{
				"type": "unocc",
				"energy": 0.08167,
				"method": "rhf"
			},
			{
				"type": "unocc",
				"energy": 0.08637,
				"method": "rhf"
			}
		],
		"cosmo_sigma_profile": { 
			"-0.025": 0.0,
			"-0.024": 0.0,
			"-0.023": 0.0,
			"-0.022": 0.0,
			"-0.021": 0.0,
			"-0.02": 0.0,
			"-0.019": 0.0,
			"-0.018": 0.0,
			"-0.017": 0.0,
			"-0.016": 0.0,
			"-0.015": 0.126107848144,
			"-0.014": 0.539645228494,
			"-0.013": 0.886147540478,
			"-0.012": 1.02599622248,
			"-0.011": 0.170542301408,
			"-0.01": 0.485196667508,
			"-0.009": 2.51566697449,
			"-0.008": 4.00411468288,
			"-0.007": 5.40463176414,
			"-0.006": 7.20427858122,
			"-0.005": 12.6531270535,
			"-0.004": 18.6561422509,
			"-0.003": 29.8766184328,
			"-0.002": 25.0271683872,
			"-0.001": 23.3295516097,
			"0.0": 19.5133931866,
			"0.001": 10.5440424282,
			"0.002": 3.5861786207,
			"0.003": 3.93298296145,
			"0.004": 3.93363532456,
			"0.005": 3.8678063126,
			"0.006": 3.87482163375,
			"0.007": 3.12874694585,
			"0.008": 4.54178568058,
			"0.009": 6.21716074925,
			"0.01": 6.01643267065,
			"0.011": 6.4852150881,
			"0.012": 6.34721506217,
			"0.013": 4.37730364023,
			"0.014": 0.829254331983,
			"0.015": 0.0,
			"0.016": 0.0,
			"0.017": 0.0,
			"0.018": 0.0,
			"0.019": 0.0,
			"0.02": 0.0,
			"0.021": 0.0,
			"0.022": 0.0,
			"0.023": 0.0,
			"0.024": 0.0,
			"0.025": 0.0
		}
	}
}
