{
	 "smiles": "CCCCOC1=C(OCC)C=C(C=O)C=C1", 
	 "Tm": 312.15, 
	 "num_atms": 34, 
	 "gaussian": { 
		 "optdone": 1, 
		 "sigma_profile": "yes", 
		 "theory": "DFT", 
		 "functional": "B3LYP", 
		 "basiset": "6-31G**", 
		 "properties": { 
			 "R2extent": 5150.3894, 
			 "electric_dipole_moment_norm": 3.05058439975, 
			 "electric_quadrupole_moment_norm": 16.5092241726, 
			 "total_energy": -731.88822151, 
			 "HOMO_LUMO_gap": 0.16881, 
			 "cosmo_polarized_energy": -10.08, 
			 "cosmo_cavitation_energy": 37.24, 
			 "cosmo_dispersion_energy": -25.32, 
			 "cosmo_repulsion_energy": 2.03, 
			 "cosmo_total_nonelectrostatic_energy": 13.96, 
			 "SMD_solvation_energy": 7.75 
		},
		"coords": [
			{
				"x": -2.5220505697,
				"y": 3.1939059861,
				"z": 3.0896030647,
				"element": "C" 
			},
			{
				"x": -1.676202234,
				"y": 3.9796213441,
				"z": 2.0792309809,
				"element": "C" 
			},
			{
				"x": -0.4341850932,
				"y": 3.2329220379,
				"z": 1.5665623501,
				"element": "C" 
			},
			{
				"x": -0.7625020106,
				"y": 1.9977075524,
				"z": 0.7390721274,
				"element": "C" 
			},
			{
				"x": 0.4867997356,
				"y": 1.4688259475,
				"z": 0.2496840739,
				"element": "O" 
			},
			{
				"x": 0.4371213523,
				"y": 0.3430750915,
				"z": -0.521038916,
				"element": "C" 
			},
			{
				"x": 0.0119317583,
				"y": -0.9088844565,
				"z": 0.0044482244,
				"element": "C" 
			},
			{
				"x": -0.3658656944,
				"y": -0.9011576407,
				"z": 1.3148427744,
				"element": "O" 
			},
			{
				"x": -0.7676935445,
				"y": -2.1247745627,
				"z": 1.9447695217,
				"element": "C" 
			},
			{
				"x": -2.2213453545,
				"y": -2.4838218628,
				"z": 1.6577028555,
				"element": "C" 
			},
			{
				"x": 0.0379535742,
				"y": -2.0295098097,
				"z": -0.8190087864,
				"element": "C" 
			},
			{
				"x": 0.4994379985,
				"y": -1.9319328948,
				"z": -2.1435092878,
				"element": "C" 
			},
			{
				"x": 0.5210682228,
				"y": -3.1361054779,
				"z": -2.9953879557,
				"element": "C" 
			},
			{
				"x": 0.1549840582,
				"y": -4.2440668826,
				"z": -2.6441371572,
				"element": "O" 
			},
			{
				"x": 0.9372350345,
				"y": -0.7056224007,
				"z": -2.6492165915,
				"element": "C" 
			},
			{
				"x": 0.8975255031,
				"y": 0.4249722189,
				"z": -1.835164982,
				"element": "C" 
			},
			{
				"x": -2.9578594403,
				"y": 2.2914245938,
				"z": 2.6483849041,
				"element": "H" 
			},
			{
				"x": -3.349085009,
				"y": 3.8040937347,
				"z": 3.4669189337,
				"element": "H" 
			},
			{
				"x": -1.9188389345,
				"y": 2.8827292531,
				"z": 3.9502450346,
				"element": "H" 
			},
			{
				"x": -2.3029458373,
				"y": 4.2737072385,
				"z": 1.2261363887,
				"element": "H" 
			},
			{
				"x": -1.3445113832,
				"y": 4.9157729416,
				"z": 2.5442975431,
				"element": "H" 
			},
			{
				"x": 0.1974859838,
				"y": 2.930059129,
				"z": 2.41110677,
				"element": "H" 
			},
			{
				"x": 0.1709895454,
				"y": 3.9054992769,
				"z": 0.9473028793,
				"element": "H" 
			},
			{
				"x": -1.3977290119,
				"y": 2.2627351365,
				"z": -0.1191977364,
				"element": "H" 
			},
			{
				"x": -1.278419008,
				"y": 1.2378597777,
				"z": 1.3312395804,
				"element": "H" 
			},
			{
				"x": -0.6257799782,
				"y": -1.9357782002,
				"z": 3.0123596312,
				"element": "H" 
			},
			{
				"x": -0.0860535382,
				"y": -2.934667094,
				"z": 1.658930822,
				"element": "H" 
			},
			{
				"x": -2.8837968932,
				"y": -1.673646505,
				"z": 1.9762231928,
				"element": "H" 
			},
			{
				"x": -2.3930908521,
				"y": -2.6694612308,
				"z": 0.5943225731,
				"element": "H" 
			},
			{
				"x": -2.4963182083,
				"y": -3.3889103066,
				"z": 2.2093559084,
				"element": "H" 
			},
			{
				"x": -0.2806630778,
				"y": -3.0061864641,
				"z": -0.4753066383,
				"element": "H" 
			},
			{
				"x": 0.9090238573,
				"y": -2.9649173853,
				"z": -4.0244965366,
				"element": "H" 
			},
			{
				"x": 1.2957683517,
				"y": -0.6353018441,
				"z": -3.6728042455,
				"element": "H" 
			},
			{
				"x": 1.2281106973,
				"y": 1.3949337582,
				"z": -2.1918713011,
				"element": "H" 
			}
		],
		 "valence_orbital": [ 
			{
				"type": "occ",
				"energy": -0.31782,
				"method": "rhf"
			},
			{
				"type": "occ",
				"energy": -0.28076,
				"method": "rhf"
			},
			{
				"type": "occ",
				"energy": -0.24917,
				"method": "rhf"
			},
			{
				"type": "occ",
				"energy": -0.24782,
				"method": "rhf"
			},
			{
				"type": "occ",
				"energy": -0.22368,
				"method": "rhf"
			},
			{
				"type": "unocc",
				"energy": -0.05487,
				"method": "rhf"
			},
			{
				"type": "unocc",
				"energy": -0.00019,
				"method": "rhf"
			},
			{
				"type": "unocc",
				"energy": 0.04917,
				"method": "rhf"
			},
			{
				"type": "unocc",
				"energy": 0.07899,
				"method": "rhf"
			},
			{
				"type": "unocc",
				"energy": 0.08973,
				"method": "rhf"
			}
		],
		"cosmo_sigma_profile": { 
			"-0.025": 0.0,
			"-0.024": 0.0,
			"-0.023": 0.0,
			"-0.022": 0.0,
			"-0.021": 0.0,
			"-0.02": 0.0,
			"-0.019": 0.0,
			"-0.018": 0.0,
			"-0.017": 0.0,
			"-0.016": 0.0,
			"-0.015": 0.0,
			"-0.014": 0.0,
			"-0.013": 0.0,
			"-0.012": 0.0,
			"-0.011": 0.0,
			"-0.01": 0.0,
			"-0.009": 0.0,
			"-0.008": 0.122054370909,
			"-0.007": 4.60470757276,
			"-0.006": 10.8469312653,
			"-0.005": 13.1568307484,
			"-0.004": 20.5018086411,
			"-0.003": 32.3316287972,
			"-0.002": 36.0613534123,
			"-0.001": 35.0845295366,
			"0.0": 34.9029437916,
			"0.001": 27.9542677676,
			"0.002": 19.2780670021,
			"0.003": 14.7635032601,
			"0.004": 7.73545145614,
			"0.005": 4.93195066146,
			"0.006": 3.60712669011,
			"0.007": 3.71160561628,
			"0.008": 3.58198775,
			"0.009": 3.81134237807,
			"0.01": 5.34877151805,
			"0.011": 4.75081655506,
			"0.012": 4.04320188206,
			"0.013": 1.28227073447,
			"0.014": 0.0751378161526,
			"0.015": 0.0,
			"0.016": 0.0,
			"0.017": 0.0,
			"0.018": 0.0,
			"0.019": 0.0,
			"0.02": 0.0,
			"0.021": 0.0,
			"0.022": 0.0,
			"0.023": 0.0,
			"0.024": 0.0,
			"0.025": 0.0
		}
	}
}
