{
	 "smiles": "NC1=C(C=CC=C1)N1CCCC1=O", 
	 "Tm": 373.15, 
	 "num_atms": 25, 
	 "gaussian": { 
		 "optdone": 1, 
		 "sigma_profile": "yes", 
		 "theory": "DFT", 
		 "functional": "B3LYP", 
		 "basiset": "6-31G**", 
		 "properties": { 
			 "R2extent": 2587.9778, 
			 "electric_dipole_moment_norm": 2.51177072202, 
			 "electric_quadrupole_moment_norm": 11.2264989979, 
			 "total_energy": -573.047761496, 
			 "HOMO_LUMO_gap": 0.19282, 
			 "cosmo_polarized_energy": -12.06, 
			 "cosmo_cavitation_energy": 27.11, 
			 "cosmo_dispersion_energy": -20.22, 
			 "cosmo_repulsion_energy": 1.61, 
			 "cosmo_total_nonelectrostatic_energy": 8.49, 
			 "SMD_solvation_energy": 4.46 
		},
		"coords": [
			{
				"x": -0.8016778016,
				"y": 2.0866474153,
				"z": 1.271330693,
				"element": "N" 
			},
			{
				"x": 0.5141470211,
				"y": 1.6560004436,
				"z": 1.4255024016,
				"element": "C" 
			},
			{
				"x": 0.9439243974,
				"y": 0.4078733698,
				"z": 0.9108807045,
				"element": "C" 
			},
			{
				"x": 2.2635806537,
				"y": -0.0124796396,
				"z": 1.1154754251,
				"element": "C" 
			},
			{
				"x": 3.167232426,
				"y": 0.7533446313,
				"z": 1.8460919408,
				"element": "C" 
			},
			{
				"x": 2.7444464917,
				"y": 1.9750931121,
				"z": 2.3752220679,
				"element": "C" 
			},
			{
				"x": 1.4461034944,
				"y": 2.4192016648,
				"z": 2.1552260363,
				"element": "C" 
			},
			{
				"x": 0.048188441,
				"y": -0.4785360498,
				"z": 0.2341793096,
				"element": "N" 
			},
			{
				"x": -0.162941289,
				"y": -1.8559487814,
				"z": 0.7098573506,
				"element": "C" 
			},
			{
				"x": -0.9027706884,
				"y": -2.5327041744,
				"z": -0.4590299011,
				"element": "C" 
			},
			{
				"x": -1.6341745563,
				"y": -1.3687882429,
				"z": -1.1407117009,
				"element": "C" 
			},
			{
				"x": -0.7962466802,
				"y": -0.1408398527,
				"z": -0.7936551255,
				"element": "C" 
			},
			{
				"x": -0.8868166885,
				"y": 0.9661527982,
				"z": -1.3182723016,
				"element": "O" 
			},
			{
				"x": -1.142858216,
				"y": 1.9570966519,
				"z": 0.3193126925,
				"element": "H" 
			},
			{
				"x": -0.9395587467,
				"y": 3.0391276171,
				"z": 1.5854774678,
				"element": "H" 
			},
			{
				"x": 2.5804306518,
				"y": -0.9586670955,
				"z": 0.6863315163,
				"element": "H" 
			},
			{
				"x": 4.1845384329,
				"y": 0.4053181996,
				"z": 1.9930213619,
				"element": "H" 
			},
			{
				"x": 3.4312003405,
				"y": 2.5912565386,
				"z": 2.9486274401,
				"element": "H" 
			},
			{
				"x": 1.1262064435,
				"y": 3.3789246121,
				"z": 2.5547141824,
				"element": "H" 
			},
			{
				"x": 0.7882180304,
				"y": -2.3390334623,
				"z": 0.9438974649,
				"element": "H" 
			},
			{
				"x": -0.7652416078,
				"y": -1.8427919163,
				"z": 1.6286970896,
				"element": "H" 
			},
			{
				"x": -0.1754051884,
				"y": -2.9733331717,
				"z": -1.148408755,
				"element": "H" 
			},
			{
				"x": -1.5662618177,
				"y": -3.3307768752,
				"z": -0.1178008604,
				"element": "H" 
			},
			{
				"x": -1.7357095644,
				"y": -1.4635950351,
				"z": -2.2238457207,
				"element": "H" 
			},
			{
				"x": -2.6402539794,
				"y": -1.2145427576,
				"z": -0.7306207797,
				"element": "H" 
			}
		],
		 "valence_orbital": [ 
			{
				"type": "occ",
				"energy": -0.30001,
				"method": "rhf"
			},
			{
				"type": "occ",
				"energy": -0.27311,
				"method": "rhf"
			},
			{
				"type": "occ",
				"energy": -0.24869,
				"method": "rhf"
			},
			{
				"type": "occ",
				"energy": -0.22902,
				"method": "rhf"
			},
			{
				"type": "occ",
				"energy": -0.19834,
				"method": "rhf"
			},
			{
				"type": "unocc",
				"energy": -0.00552,
				"method": "rhf"
			},
			{
				"type": "unocc",
				"energy": 0.01768,
				"method": "rhf"
			},
			{
				"type": "unocc",
				"energy": 0.0321,
				"method": "rhf"
			},
			{
				"type": "unocc",
				"energy": 0.07995,
				"method": "rhf"
			},
			{
				"type": "unocc",
				"energy": 0.09802,
				"method": "rhf"
			}
		],
		"cosmo_sigma_profile": { 
			"-0.025": 0.0,
			"-0.024": 0.0,
			"-0.023": 0.0,
			"-0.022": 0.0,
			"-0.021": 0.0,
			"-0.02": 0.0,
			"-0.019": 0.0,
			"-0.018": 0.0,
			"-0.017": 0.0,
			"-0.016": 0.0,
			"-0.015": 0.0,
			"-0.014": 0.0,
			"-0.013": 0.0,
			"-0.012": 0.738067664292,
			"-0.011": 1.22905150901,
			"-0.01": 1.69776643557,
			"-0.009": 1.70335042435,
			"-0.008": 1.37831267774,
			"-0.007": 3.72859099375,
			"-0.006": 8.65897074514,
			"-0.005": 17.7904346708,
			"-0.004": 27.6461107584,
			"-0.003": 25.3079786777,
			"-0.002": 18.8146613133,
			"-0.001": 15.3800721281,
			"0.0": 10.1402360399,
			"0.001": 7.36019425057,
			"0.002": 8.31367277932,
			"0.003": 8.19679394638,
			"0.004": 9.4827331868,
			"0.005": 11.1617178088,
			"0.006": 10.9551374228,
			"0.007": 4.73678156984,
			"0.008": 2.70491755512,
			"0.009": 1.8442253163,
			"0.01": 2.05323313148,
			"0.011": 2.7409889188,
			"0.012": 2.68896798385,
			"0.013": 4.25153006956,
			"0.014": 2.62661918385,
			"0.015": 0.953740868009,
			"0.016": 0.100212031498,
			"0.017": 0.0,
			"0.018": 0.0,
			"0.019": 0.0,
			"0.02": 0.0,
			"0.021": 0.0,
			"0.022": 0.0,
			"0.023": 0.0,
			"0.024": 0.0,
			"0.025": 0.0
		}
	}
}
