{
	 "smiles": "COC(=O)C1CC2=C(NC3=CC=CC=C23)C(C)(C)N1", 
	 "Tm": 476.15, 
	 "num_atms": 37, 
	 "gaussian": { 
		 "optdone": 1, 
		 "sigma_profile": "yes", 
		 "theory": "DFT", 
		 "functional": "B3LYP", 
		 "basiset": "6-31G**", 
		 "properties": { 
			 "R2extent": 6097.3182, 
			 "electric_dipole_moment_norm": 1.12989209219, 
			 "electric_quadrupole_moment_norm": 14.8553047862, 
			 "total_energy": -842.41040171, 
			 "HOMO_LUMO_gap": 0.18971, 
			 "cosmo_polarized_energy": -15.46, 
			 "cosmo_cavitation_energy": 38.1, 
			 "cosmo_dispersion_energy": -26.66, 
			 "cosmo_repulsion_energy": 2.05, 
			 "cosmo_total_nonelectrostatic_energy": 13.49, 
			 "SMD_solvation_energy": 5.69 
		},
		"coords": [
			{
				"x": -3.9061105511,
				"y": -1.6125664918,
				"z": 1.2393460821,
				"element": "C" 
			},
			{
				"x": -2.5470312874,
				"y": -2.0305448799,
				"z": 1.4434907425,
				"element": "O" 
			},
			{
				"x": -1.6510049933,
				"y": -1.5447401134,
				"z": 0.5504196137,
				"element": "C" 
			},
			{
				"x": -1.9660952612,
				"y": -0.8274946365,
				"z": -0.3716839157,
				"element": "O" 
			},
			{
				"x": -0.249295496,
				"y": -2.0583212344,
				"z": 0.896168732,
				"element": "C" 
			},
			{
				"x": 0.1865657549,
				"y": -1.5458577744,
				"z": 2.2985376869,
				"element": "C" 
			},
			{
				"x": 0.6408281482,
				"y": -0.1269357472,
				"z": 2.1540634326,
				"element": "C" 
			},
			{
				"x": 1.1274236387,
				"y": 0.3534120333,
				"z": 0.9637827258,
				"element": "C" 
			},
			{
				"x": 1.4346283549,
				"y": 1.6980778587,
				"z": 1.1038491395,
				"element": "N" 
			},
			{
				"x": 1.138706104,
				"y": 2.1029039102,
				"z": 2.3921608479,
				"element": "C" 
			},
			{
				"x": 1.265544116,
				"y": 3.3548361696,
				"z": 3.0004061379,
				"element": "C" 
			},
			{
				"x": 0.8827913951,
				"y": 3.4649835846,
				"z": 4.333908627,
				"element": "C" 
			},
			{
				"x": 0.3854412828,
				"y": 2.3540673111,
				"z": 5.0442056821,
				"element": "C" 
			},
			{
				"x": 0.2601797763,
				"y": 1.1103165326,
				"z": 4.4355816426,
				"element": "C" 
			},
			{
				"x": 0.6372835184,
				"y": 0.9670557204,
				"z": 3.0896223605,
				"element": "C" 
			},
			{
				"x": 1.3383683374,
				"y": -0.4390975254,
				"z": -0.3027717778,
				"element": "C" 
			},
			{
				"x": 0.7459538889,
				"y": 0.2874484337,
				"z": -1.5309957086,
				"element": "C" 
			},
			{
				"x": 2.852388686,
				"y": -0.6547131011,
				"z": -0.5302819268,
				"element": "C" 
			},
			{
				"x": 0.7141680625,
				"y": -1.7881970481,
				"z": -0.1705751978,
				"element": "N" 
			},
			{
				"x": -4.2649947033,
				"y": -1.935016775,
				"z": 0.2586459355,
				"element": "H" 
			},
			{
				"x": -3.988070567,
				"y": -0.524666376,
				"z": 1.3034338064,
				"element": "H" 
			},
			{
				"x": -4.4831989886,
				"y": -2.0870853122,
				"z": 2.0330757928,
				"element": "H" 
			},
			{
				"x": -0.3537857567,
				"y": -3.1487278277,
				"z": 0.9466941208,
				"element": "H" 
			},
			{
				"x": 0.9904133338,
				"y": -2.19735538,
				"z": 2.6708712817,
				"element": "H" 
			},
			{
				"x": -0.6422212942,
				"y": -1.6372330816,
				"z": 3.0075048073,
				"element": "H" 
			},
			{
				"x": 1.7532117916,
				"y": 2.3017997541,
				"z": 0.3641024235,
				"element": "H" 
			},
			{
				"x": 1.6486001686,
				"y": 4.212345583,
				"z": 2.4537619263,
				"element": "H" 
			},
			{
				"x": 0.9694146549,
				"y": 4.4245347876,
				"z": 4.8353756006,
				"element": "H" 
			},
			{
				"x": 0.0970721573,
				"y": 2.4749814999,
				"z": 6.084465299,
				"element": "H" 
			},
			{
				"x": -0.1229790546,
				"y": 0.2601513085,
				"z": 4.9936955815,
				"element": "H" 
			},
			{
				"x": -0.3292100667,
				"y": 0.4166715244,
				"z": -1.414282933,
				"element": "H" 
			},
			{
				"x": 0.9240070671,
				"y": -0.3157935905,
				"z": -2.4258426179,
				"element": "H" 
			},
			{
				"x": 1.2184451292,
				"y": 1.2659879771,
				"z": -1.6838740264,
				"element": "H" 
			},
			{
				"x": 3.0119759552,
				"y": -1.2908051263,
				"z": -1.4085711483,
				"element": "H" 
			},
			{
				"x": 3.3631260097,
				"y": 0.2960786482,
				"z": -0.7083820722,
				"element": "H" 
			},
			{
				"x": 3.3165743252,
				"y": -1.1284526731,
				"z": 0.3410140258,
				"element": "H" 
			},
			{
				"x": 1.4504863633,
				"y": -2.4810479426,
				"z": -0.0998227297,
				"element": "H" 
			}
		],
		 "valence_orbital": [ 
			{
				"type": "occ",
				"energy": -0.26865,
				"method": "rhf"
			},
			{
				"type": "occ",
				"energy": -0.26048,
				"method": "rhf"
			},
			{
				"type": "occ",
				"energy": -0.22549,
				"method": "rhf"
			},
			{
				"type": "occ",
				"energy": -0.21055,
				"method": "rhf"
			},
			{
				"type": "occ",
				"energy": -0.19146,
				"method": "rhf"
			},
			{
				"type": "unocc",
				"energy": -0.00175,
				"method": "rhf"
			},
			{
				"type": "unocc",
				"energy": 0.01343,
				"method": "rhf"
			},
			{
				"type": "unocc",
				"energy": 0.0339,
				"method": "rhf"
			},
			{
				"type": "unocc",
				"energy": 0.06492,
				"method": "rhf"
			},
			{
				"type": "unocc",
				"energy": 0.07234,
				"method": "rhf"
			}
		],
		"cosmo_sigma_profile": { 
			"-0.025": 0.0,
			"-0.024": 0.0,
			"-0.023": 0.0,
			"-0.022": 0.0,
			"-0.021": 0.0,
			"-0.02": 0.0,
			"-0.019": 0.0,
			"-0.018": 0.0,
			"-0.017": 0.0,
			"-0.016": 0.0,
			"-0.015": 0.269515736595,
			"-0.014": 1.05917070244,
			"-0.013": 1.30514037293,
			"-0.012": 0.833688130824,
			"-0.011": 1.29290357392,
			"-0.01": 3.2943229721,
			"-0.009": 3.20682828743,
			"-0.008": 3.34367205459,
			"-0.007": 5.03531818709,
			"-0.006": 10.490859808,
			"-0.005": 17.1855446547,
			"-0.004": 26.0799268697,
			"-0.003": 30.8009086592,
			"-0.002": 25.9001323573,
			"-0.001": 22.8318220325,
			"0.0": 22.4187545437,
			"0.001": 21.4903264233,
			"0.002": 14.737405951,
			"0.003": 11.8805168938,
			"0.004": 12.6143698493,
			"0.005": 17.2865740461,
			"0.006": 13.6135470755,
			"0.007": 12.3820664818,
			"0.008": 6.18646437804,
			"0.009": 2.70335125549,
			"0.01": 2.4539112487,
			"0.011": 3.25356258665,
			"0.012": 2.65925455838,
			"0.013": 0.597204032281,
			"0.014": 0.620018054558,
			"0.015": 1.32199631279,
			"0.016": 0.555614307135,
			"0.017": 0.00431947907195,
			"0.018": 0.0,
			"0.019": 0.0,
			"0.02": 0.0,
			"0.021": 0.0,
			"0.022": 0.0,
			"0.023": 0.0,
			"0.024": 0.0,
			"0.025": 0.0
		}
	}
}
