{
	 "smiles": "CC(C)(C)OC(=O)N[C@H](CC(O)=O)CC1=CC=CC=C1", 
	 "Tm": 377.15, 
	 "num_atms": 41, 
	 "gaussian": { 
		 "optdone": 1, 
		 "sigma_profile": "yes", 
		 "theory": "DFT", 
		 "functional": "B3LYP", 
		 "basiset": "6-31G**", 
		 "properties": { 
			 "R2extent": 6161.6486, 
			 "electric_dipole_moment_norm": 5.57392466221, 
			 "electric_quadrupole_moment_norm": 21.2410496711, 
			 "total_energy": -939.956496861, 
			 "HOMO_LUMO_gap": 0.23042, 
			 "cosmo_polarized_energy": -22.09, 
			 "cosmo_cavitation_energy": 43.54, 
			 "cosmo_dispersion_energy": -27.65, 
			 "cosmo_repulsion_energy": 2.15, 
			 "cosmo_total_nonelectrostatic_energy": 18.04, 
			 "SMD_solvation_energy": 8.86 
		},
		"coords": [
			{
				"x": -1.547596372,
				"y": -1.3354726944,
				"z": -3.8241567873,
				"element": "C" 
			},
			{
				"x": -0.5042166403,
				"y": -1.6693456688,
				"z": -2.7526021377,
				"element": "C" 
			},
			{
				"x": 0.9235865906,
				"y": -1.3583358104,
				"z": -3.2147062176,
				"element": "C" 
			},
			{
				"x": -0.621539893,
				"y": -3.1308105845,
				"z": -2.3109217678,
				"element": "C" 
			},
			{
				"x": -0.8090601459,
				"y": -0.9386821849,
				"z": -1.5136650519,
				"element": "O" 
			},
			{
				"x": -0.7596757293,
				"y": 0.4153838926,
				"z": -1.4748672007,
				"element": "C" 
			},
			{
				"x": -0.5320331238,
				"y": 1.1534368906,
				"z": -2.4201485662,
				"element": "O" 
			},
			{
				"x": -1.0279590638,
				"y": 0.884808589,
				"z": -0.2161546501,
				"element": "N" 
			},
			{
				"x": -1.2090523905,
				"y": 0.10912626,
				"z": 0.9995074942,
				"element": "C" 
			},
			{
				"x": -2.5106167056,
				"y": 0.5325917799,
				"z": 1.7121183053,
				"element": "C" 
			},
			{
				"x": -2.5660900644,
				"y": 2.0025647593,
				"z": 2.1129018542,
				"element": "C" 
			},
			{
				"x": -3.6123315578,
				"y": 2.3525766596,
				"z": 2.9017939219,
				"element": "O" 
			},
			{
				"x": -1.7743295887,
				"y": 2.8470222305,
				"z": 1.7635329456,
				"element": "O" 
			},
			{
				"x": 0.0189534545,
				"y": 0.1864611022,
				"z": 1.9480607401,
				"element": "C" 
			},
			{
				"x": 1.2711928421,
				"y": -0.4233322303,
				"z": 1.35901814,
				"element": "C" 
			},
			{
				"x": 1.5228237339,
				"y": -1.7971439857,
				"z": 1.484422768,
				"element": "C" 
			},
			{
				"x": 2.6614292981,
				"y": -2.3733766104,
				"z": 0.9207879812,
				"element": "C" 
			},
			{
				"x": 3.5723724784,
				"y": -1.5797999482,
				"z": 0.219035894,
				"element": "C" 
			},
			{
				"x": 3.3356957717,
				"y": -0.2100785332,
				"z": 0.0898880556,
				"element": "C" 
			},
			{
				"x": 2.1950949852,
				"y": 0.361710122,
				"z": 0.6571298606,
				"element": "C" 
			},
			{
				"x": -1.3810521374,
				"y": -1.9591432566,
				"z": -4.7087058635,
				"element": "H" 
			},
			{
				"x": -2.5561812682,
				"y": -1.5396209471,
				"z": -3.4500016979,
				"element": "H" 
			},
			{
				"x": -1.4826680359,
				"y": -0.2862156652,
				"z": -4.1129451118,
				"element": "H" 
			},
			{
				"x": 1.0144827,
				"y": -0.3168387551,
				"z": -3.5231394433,
				"element": "H" 
			},
			{
				"x": 1.6348413112,
				"y": -1.5519903371,
				"z": -2.4060899997,
				"element": "H" 
			},
			{
				"x": 1.1813773114,
				"y": -2.0032813796,
				"z": -4.0614721627,
				"element": "H" 
			},
			{
				"x": 0.0935669359,
				"y": -3.3468951409,
				"z": -1.5118938835,
				"element": "H" 
			},
			{
				"x": -1.6295906274,
				"y": -3.3440631159,
				"z": -1.9420765127,
				"element": "H" 
			},
			{
				"x": -0.4145501432,
				"y": -3.7968428338,
				"z": -3.1539486515,
				"element": "H" 
			},
			{
				"x": -0.9685578744,
				"y": 1.8892177522,
				"z": -0.1159856742,
				"element": "H" 
			},
			{
				"x": -1.3353792397,
				"y": -0.9296412031,
				"z": 0.6903263172,
				"element": "H" 
			},
			{
				"x": -2.6637068294,
				"y": -0.0863699136,
				"z": 2.6063174461,
				"element": "H" 
			},
			{
				"x": -3.3621226855,
				"y": 0.3431182943,
				"z": 1.0451331132,
				"element": "H" 
			},
			{
				"x": -4.160386677,
				"y": 1.5797348688,
				"z": 3.0997505429,
				"element": "H" 
			},
			{
				"x": 0.1915456779,
				"y": 1.2352108811,
				"z": 2.2076605877,
				"element": "H" 
			},
			{
				"x": -0.2387619167,
				"y": -0.3377045528,
				"z": 2.8775681943,
				"element": "H" 
			},
			{
				"x": 0.8217187458,
				"y": -2.4207344096,
				"z": 2.0352316746,
				"element": "H" 
			},
			{
				"x": 2.8418878459,
				"y": -3.4386974516,
				"z": 1.0356324148,
				"element": "H" 
			},
			{
				"x": 4.4627081886,
				"y": -2.0245010638,
				"z": -0.2163002643,
				"element": "H" 
			},
			{
				"x": 4.0404379766,
				"y": 0.4162668746,
				"z": -0.4496181513,
				"element": "H" 
			},
			{
				"x": 2.0197428621,
				"y": 1.42908732,
				"z": 0.5544815444,
				"element": "H" 
			}
		],
		 "valence_orbital": [ 
			{
				"type": "occ",
				"energy": -0.28038,
				"method": "rhf"
			},
			{
				"type": "occ",
				"energy": -0.25379,
				"method": "rhf"
			},
			{
				"type": "occ",
				"energy": -0.24993,
				"method": "rhf"
			},
			{
				"type": "occ",
				"energy": -0.24645,
				"method": "rhf"
			},
			{
				"type": "occ",
				"energy": -0.23726,
				"method": "rhf"
			},
			{
				"type": "unocc",
				"energy": -0.00684,
				"method": "rhf"
			},
			{
				"type": "unocc",
				"energy": -0.00224,
				"method": "rhf"
			},
			{
				"type": "unocc",
				"energy": 5e-05,
				"method": "rhf"
			},
			{
				"type": "unocc",
				"energy": 0.04289,
				"method": "rhf"
			},
			{
				"type": "unocc",
				"energy": 0.06517,
				"method": "rhf"
			}
		],
		"cosmo_sigma_profile": { 
			"-0.025": 0.0,
			"-0.024": 0.0,
			"-0.023": 0.0,
			"-0.022": 0.0,
			"-0.021": 0.0,
			"-0.02": 0.0561614728756,
			"-0.019": 0.793080893749,
			"-0.018": 1.517379863,
			"-0.017": 0.984603260965,
			"-0.016": 1.05764218405,
			"-0.015": 1.20256211745,
			"-0.014": 0.884765364199,
			"-0.013": 1.13164673154,
			"-0.012": 1.38586731543,
			"-0.011": 1.17958795296,
			"-0.01": 1.46732555654,
			"-0.009": 1.90895108635,
			"-0.008": 2.77350906194,
			"-0.007": 5.22471361789,
			"-0.006": 8.72571232477,
			"-0.005": 21.5046802767,
			"-0.004": 29.3162644018,
			"-0.003": 28.6595766894,
			"-0.002": 24.7813072489,
			"-0.001": 27.2911156,
			"0.0": 33.3630023835,
			"0.001": 31.383107233,
			"0.002": 24.3974989969,
			"0.003": 19.308233987,
			"0.004": 12.1517086383,
			"0.005": 12.5695652973,
			"0.006": 9.72820954723,
			"0.007": 5.68617598955,
			"0.008": 3.94699263062,
			"0.009": 4.37596711515,
			"0.01": 6.0649494257,
			"0.011": 5.27162339519,
			"0.012": 3.72327780514,
			"0.013": 3.46325980159,
			"0.014": 3.46918650097,
			"0.015": 0.356416377366,
			"0.016": 0.0,
			"0.017": 0.0,
			"0.018": 0.0,
			"0.019": 0.0,
			"0.02": 0.0,
			"0.021": 0.0,
			"0.022": 0.0,
			"0.023": 0.0,
			"0.024": 0.0,
			"0.025": 0.0
		}
	}
}
