{
	 "smiles": "CC1=CC(C(=O)CCl)=C(C)N1CC1=CC=CC=C1", 
	 "Tm": 339.15, 
	 "num_atms": 34, 
	 "gaussian": { 
		 "optdone": 1, 
		 "sigma_profile": "yes", 
		 "theory": "DFT", 
		 "functional": "B3LYP", 
		 "basiset": "6-31G**", 
		 "properties": { 
			 "R2extent": 6619.8814, 
			 "electric_dipole_moment_norm": 5.83782823574, 
			 "electric_quadrupole_moment_norm": 12.4387903198, 
			 "total_energy": -1171.41187094, 
			 "HOMO_LUMO_gap": 0.16989, 
			 "cosmo_polarized_energy": -14.2, 
			 "cosmo_cavitation_energy": 38.28, 
			 "cosmo_dispersion_energy": -26.44, 
			 "cosmo_repulsion_energy": 2.05, 
			 "cosmo_total_nonelectrostatic_energy": 13.89, 
			 "SMD_solvation_energy": 6.54 
		},
		"coords": [
			{
				"x": -0.826609249,
				"y": 0.7449643356,
				"z": 4.1496720364,
				"element": "C" 
			},
			{
				"x": -0.6843978261,
				"y": -0.0072168629,
				"z": 2.8649633144,
				"element": "C" 
			},
			{
				"x": -1.1072041045,
				"y": -1.2609908085,
				"z": 2.5238224236,
				"element": "C" 
			},
			{
				"x": -0.7032536903,
				"y": -1.5247986202,
				"z": 1.1729009186,
				"element": "C" 
			},
			{
				"x": -1.0311491139,
				"y": -2.8049645409,
				"z": 0.5399046081,
				"element": "C" 
			},
			{
				"x": -1.7416190356,
				"y": -3.6281099499,
				"z": 1.1076175797,
				"element": "O" 
			},
			{
				"x": -0.5312098698,
				"y": -3.1794537619,
				"z": -0.8600956609,
				"element": "C" 
			},
			{
				"x": 1.2684813985,
				"y": -3.4403333016,
				"z": -0.9096862382,
				"element": "Cl" 
			},
			{
				"x": -0.033580191,
				"y": -0.3835207983,
				"z": 0.7139579741,
				"element": "C" 
			},
			{
				"x": 0.6030936752,
				"y": -0.0184814956,
				"z": -0.5916155416,
				"element": "C" 
			},
			{
				"x": -0.0254075857,
				"y": 0.5231389443,
				"z": 1.7512156574,
				"element": "N" 
			},
			{
				"x": 0.5123541608,
				"y": 1.8734849776,
				"z": 1.6754237153,
				"element": "C" 
			},
			{
				"x": -0.4350093642,
				"y": 2.9119935463,
				"z": 1.085198358,
				"element": "C" 
			},
			{
				"x": 0.0789308353,
				"y": 4.1616490289,
				"z": 0.7125865105,
				"element": "C" 
			},
			{
				"x": -0.7593885453,
				"y": 5.1512276928,
				"z": 0.2017910576,
				"element": "C" 
			},
			{
				"x": -2.1261157424,
				"y": 4.9021301336,
				"z": 0.051748835,
				"element": "C" 
			},
			{
				"x": -2.6433961165,
				"y": 3.6593379744,
				"z": 0.4158430766,
				"element": "C" 
			},
			{
				"x": -1.8033848119,
				"y": 2.6680324984,
				"z": 0.9306775352,
				"element": "C" 
			},
			{
				"x": 0.1405423232,
				"y": 0.9462396068,
				"z": 4.6285456487,
				"element": "H" 
			},
			{
				"x": -1.4176964109,
				"y": 0.1487097442,
				"z": 4.8483273483,
				"element": "H" 
			},
			{
				"x": -1.3363094427,
				"y": 1.7073546887,
				"z": 4.0194027922,
				"element": "H" 
			},
			{
				"x": -1.6436501672,
				"y": -1.9572345582,
				"z": 3.1508132945,
				"element": "H" 
			},
			{
				"x": -0.9937341526,
				"y": -4.1271556261,
				"z": -1.1288165479,
				"element": "H" 
			},
			{
				"x": -0.7661460742,
				"y": -2.4203697578,
				"z": -1.6086422995,
				"element": "H" 
			},
			{
				"x": 1.6930822195,
				"y": 0.0676301761,
				"z": -0.4979239631,
				"element": "H" 
			},
			{
				"x": 0.4170349174,
				"y": -0.7689333568,
				"z": -1.3554435174,
				"element": "H" 
			},
			{
				"x": 0.224463327,
				"y": 0.9405330551,
				"z": -0.9624928038,
				"element": "H" 
			},
			{
				"x": 0.7969601963,
				"y": 2.171334938,
				"z": 2.689538823,
				"element": "H" 
			},
			{
				"x": 1.4402957311,
				"y": 1.8500273713,
				"z": 1.0960061257,
				"element": "H" 
			},
			{
				"x": 1.1429324174,
				"y": 4.3607844043,
				"z": 0.8223575444,
				"element": "H" 
			},
			{
				"x": -0.3458024674,
				"y": 6.114132972,
				"z": -0.0841640334,
				"element": "H" 
			},
			{
				"x": -2.7801689967,
				"y": 5.6708310367,
				"z": -0.3492218543,
				"element": "H" 
			},
			{
				"x": -3.7039677077,
				"y": 3.4554596939,
				"z": 0.299282542,
				"element": "H" 
			},
			{
				"x": -2.212970536,
				"y": 1.7016666197,
				"z": 1.2082047407,
				"element": "H" 
			}
		],
		 "valence_orbital": [ 
			{
				"type": "occ",
				"energy": -0.26145,
				"method": "rhf"
			},
			{
				"type": "occ",
				"energy": -0.25598,
				"method": "rhf"
			},
			{
				"type": "occ",
				"energy": -0.24288,
				"method": "rhf"
			},
			{
				"type": "occ",
				"energy": -0.23955,
				"method": "rhf"
			},
			{
				"type": "occ",
				"energy": -0.21014,
				"method": "rhf"
			},
			{
				"type": "unocc",
				"energy": -0.04025,
				"method": "rhf"
			},
			{
				"type": "unocc",
				"energy": -0.01612,
				"method": "rhf"
			},
			{
				"type": "unocc",
				"energy": -0.0116,
				"method": "rhf"
			},
			{
				"type": "unocc",
				"energy": 0.02442,
				"method": "rhf"
			},
			{
				"type": "unocc",
				"energy": 0.04575,
				"method": "rhf"
			}
		],
		"cosmo_sigma_profile": { 
			"-0.025": 0.0,
			"-0.024": 0.0,
			"-0.023": 0.0,
			"-0.022": 0.0,
			"-0.021": 0.0,
			"-0.02": 0.0,
			"-0.019": 0.0,
			"-0.018": 0.0,
			"-0.017": 0.0,
			"-0.016": 0.0,
			"-0.015": 0.0,
			"-0.014": 0.0,
			"-0.013": 0.0,
			"-0.012": 0.0,
			"-0.011": 0.0,
			"-0.01": 0.113380544853,
			"-0.009": 1.95569835928,
			"-0.008": 2.97089251497,
			"-0.007": 7.51192114016,
			"-0.006": 17.1656413896,
			"-0.005": 24.2075959456,
			"-0.004": 27.7418230927,
			"-0.003": 26.1064673831,
			"-0.002": 24.611383078,
			"-0.001": 26.7616902756,
			"0.0": 19.0303434309,
			"0.001": 16.31582624,
			"0.002": 17.6458046613,
			"0.003": 17.1306952525,
			"0.004": 19.1419574825,
			"0.005": 22.1612093505,
			"0.006": 17.3761015058,
			"0.007": 2.93173940934,
			"0.008": 1.63658019235,
			"0.009": 1.98545860115,
			"0.01": 1.95213563305,
			"0.011": 2.10372470022,
			"0.012": 4.50115107613,
			"0.013": 2.91952447719,
			"0.014": 0.123872300145,
			"0.015": 0.0,
			"0.016": 0.0,
			"0.017": 0.0,
			"0.018": 0.0,
			"0.019": 0.0,
			"0.02": 0.0,
			"0.021": 0.0,
			"0.022": 0.0,
			"0.023": 0.0,
			"0.024": 0.0,
			"0.025": 0.0
		}
	}
}
