{
	 "smiles": "CC1=CC=CC(NC(=O)C2=CC=CC=C2C(O)=O)=C1", 
	 "Tm": 423.15, 
	 "num_atms": 32, 
	 "gaussian": { 
		 "optdone": 1, 
		 "sigma_profile": "yes", 
		 "theory": "DFT", 
		 "functional": "B3LYP", 
		 "basiset": "6-31G**", 
		 "properties": { 
			 "R2extent": 5743.5698, 
			 "electric_dipole_moment_norm": 7.59819880235, 
			 "electric_quadrupole_moment_norm": 31.4131064817, 
			 "total_energy": -859.890237582, 
			 "HOMO_LUMO_gap": 0.18185, 
			 "cosmo_polarized_energy": -17.46, 
			 "cosmo_cavitation_energy": 36.27, 
			 "cosmo_dispersion_energy": -25.01, 
			 "cosmo_repulsion_energy": 1.94, 
			 "cosmo_total_nonelectrostatic_energy": 13.2, 
			 "SMD_solvation_energy": 7.78 
		},
		"coords": [
			{
				"x": 1.4145902036,
				"y": 2.2174533144,
				"z": 1.30589856,
				"element": "C" 
			},
			{
				"x": 1.4462555935,
				"y": 1.3997474688,
				"z": 0.0358788753,
				"element": "C" 
			},
			{
				"x": 2.6489429573,
				"y": 1.1918297242,
				"z": -0.6545292555,
				"element": "C" 
			},
			{
				"x": 2.6679038223,
				"y": 0.4747728424,
				"z": -1.8498824047,
				"element": "C" 
			},
			{
				"x": 1.491449154,
				"y": -0.0651060389,
				"z": -2.3679980989,
				"element": "C" 
			},
			{
				"x": 0.2866783415,
				"y": 0.1305890148,
				"z": -1.6845981533,
				"element": "C" 
			},
			{
				"x": -0.9076003441,
				"y": -0.3905660749,
				"z": -2.2609298243,
				"element": "N" 
			},
			{
				"x": -2.0291110841,
				"y": -0.9179956825,
				"z": -1.6863565561,
				"element": "C" 
			},
			{
				"x": -3.0484679034,
				"y": -1.0499203478,
				"z": -2.3805669948,
				"element": "O" 
			},
			{
				"x": -1.9654577571,
				"y": -1.4205270029,
				"z": -0.2731911386,
				"element": "C" 
			},
			{
				"x": -0.8691898657,
				"y": -2.2329430999,
				"z": 0.0617239659,
				"element": "C" 
			},
			{
				"x": -0.7654860699,
				"y": -2.8249057566,
				"z": 1.3164993748,
				"element": "C" 
			},
			{
				"x": -1.7499162509,
				"y": -2.5819862707,
				"z": 2.2743927391,
				"element": "C" 
			},
			{
				"x": -2.832039153,
				"y": -1.7659071157,
				"z": 1.96008319,
				"element": "C" 
			},
			{
				"x": -2.9827040937,
				"y": -1.1975875023,
				"z": 0.6862783644,
				"element": "C" 
			},
			{
				"x": -4.2344811731,
				"y": -0.340842048,
				"z": 0.5392329235,
				"element": "C" 
			},
			{
				"x": -4.7967370782,
				"y": -0.2177194467,
				"z": -0.6619077107,
				"element": "O" 
			},
			{
				"x": -4.7249115032,
				"y": 0.1832241653,
				"z": 1.5191284362,
				"element": "O" 
			},
			{
				"x": 0.2659477607,
				"y": 0.8715807869,
				"z": -0.4974402677,
				"element": "C" 
			},
			{
				"x": 0.5388101461,
				"y": 1.9792773059,
				"z": 1.9154682374,
				"element": "H" 
			},
			{
				"x": 2.3091170198,
				"y": 2.0449217528,
				"z": 1.9120694358,
				"element": "H" 
			},
			{
				"x": 1.3767758155,
				"y": 3.2905226812,
				"z": 1.081641636,
				"element": "H" 
			},
			{
				"x": 3.5732896414,
				"y": 1.5996917409,
				"z": -0.2543421622,
				"element": "H" 
			},
			{
				"x": 3.6050318806,
				"y": 0.3234646425,
				"z": -2.377424071,
				"element": "H" 
			},
			{
				"x": 1.5030763385,
				"y": -0.6419852553,
				"z": -3.288328983,
				"element": "H" 
			},
			{
				"x": -1.0368887286,
				"y": -0.2325275265,
				"z": -3.2543190432,
				"element": "H" 
			},
			{
				"x": -0.0952842849,
				"y": -2.4064619134,
				"z": -0.678014177,
				"element": "H" 
			},
			{
				"x": 0.082363889,
				"y": -3.4638238919,
				"z": 1.5441212086,
				"element": "H" 
			},
			{
				"x": -1.6753263731,
				"y": -3.024495847,
				"z": 3.2632402208,
				"element": "H" 
			},
			{
				"x": -3.5956153539,
				"y": -1.5444074138,
				"z": 2.6967860165,
				"element": "H" 
			},
			{
				"x": -4.2840091971,
				"y": -0.6944460827,
				"z": -1.3631857145,
				"element": "H" 
			},
			{
				"x": -0.6767063499,
				"y": 1.0429788771,
				"z": 0.0116713711,
				"element": "H" 
			}
		],
		 "valence_orbital": [ 
			{
				"type": "occ",
				"energy": -0.27422,
				"method": "rhf"
			},
			{
				"type": "occ",
				"energy": -0.27142,
				"method": "rhf"
			},
			{
				"type": "occ",
				"energy": -0.26023,
				"method": "rhf"
			},
			{
				"type": "occ",
				"energy": -0.2534,
				"method": "rhf"
			},
			{
				"type": "occ",
				"energy": -0.2441,
				"method": "rhf"
			},
			{
				"type": "unocc",
				"energy": -0.06225,
				"method": "rhf"
			},
			{
				"type": "unocc",
				"energy": -0.03505,
				"method": "rhf"
			},
			{
				"type": "unocc",
				"energy": -0.02183,
				"method": "rhf"
			},
			{
				"type": "unocc",
				"energy": -0.01821,
				"method": "rhf"
			},
			{
				"type": "unocc",
				"energy": 0.0224,
				"method": "rhf"
			}
		],
		"cosmo_sigma_profile": { 
			"-0.025": 0.0,
			"-0.024": 0.0,
			"-0.023": 0.0,
			"-0.022": 0.0,
			"-0.021": 0.0,
			"-0.02": 0.0,
			"-0.019": 0.0,
			"-0.018": 0.0,
			"-0.017": 0.0,
			"-0.016": 0.0957447615402,
			"-0.015": 0.828949841974,
			"-0.014": 0.986953201105,
			"-0.013": 0.819682250642,
			"-0.012": 1.09892352042,
			"-0.011": 1.12725005144,
			"-0.01": 1.13563334852,
			"-0.009": 0.988939023504,
			"-0.008": 2.45818456008,
			"-0.007": 8.80086901679,
			"-0.006": 16.5503195816,
			"-0.005": 20.421658053,
			"-0.004": 25.6854040692,
			"-0.003": 20.8311248368,
			"-0.002": 22.7485136531,
			"-0.001": 23.5178855398,
			"0.0": 22.3265305634,
			"0.001": 20.3802650234,
			"0.002": 20.2842027367,
			"0.003": 17.40798954,
			"0.004": 12.5397012021,
			"0.005": 10.4313293004,
			"0.006": 3.5856912096,
			"0.007": 3.76589655034,
			"0.008": 3.53396432455,
			"0.009": 4.48827414529,
			"0.01": 5.58481629822,
			"0.011": 6.23686855727,
			"0.012": 7.26000967476,
			"0.013": 3.18806881178,
			"0.014": 0.915100653753,
			"0.015": 0.0,
			"0.016": 0.0,
			"0.017": 0.0,
			"0.018": 0.0,
			"0.019": 0.0,
			"0.02": 0.0,
			"0.021": 0.0,
			"0.022": 0.0,
			"0.023": 0.0,
			"0.024": 0.0,
			"0.025": 0.0
		}
	}
}
