{
	 "smiles": "OC1=CC(OCC2=CC=CC=C2)=CC=C1C=O", 
	 "Tm": 352.15, 
	 "num_atms": 29, 
	 "gaussian": { 
		 "optdone": 1, 
		 "sigma_profile": "yes", 
		 "theory": "DFT", 
		 "functional": "B3LYP", 
		 "basiset": "6-31G**", 
		 "properties": { 
			 "R2extent": 5423.5498, 
			 "electric_dipole_moment_norm": 3.31514135596, 
			 "electric_quadrupole_moment_norm": 19.7597258093, 
			 "total_energy": -766.390387528, 
			 "HOMO_LUMO_gap": 0.16886, 
			 "cosmo_polarized_energy": -10.62, 
			 "cosmo_cavitation_energy": 33.3, 
			 "cosmo_dispersion_energy": -23.93, 
			 "cosmo_repulsion_energy": 1.85, 
			 "cosmo_total_nonelectrostatic_energy": 11.22, 
			 "SMD_solvation_energy": 7.0 
		},
		"coords": [
			{
				"x": 0.4915703949,
				"y": -1.610374441,
				"z": -3.4985538721,
				"element": "O" 
			},
			{
				"x": 0.7774555131,
				"y": -0.4154508174,
				"z": -2.9694503441,
				"element": "C" 
			},
			{
				"x": 0.7348741532,
				"y": -0.2724191674,
				"z": -1.5757766634,
				"element": "C" 
			},
			{
				"x": 1.0313735252,
				"y": 0.9654817555,
				"z": -1.00543657,
				"element": "C" 
			},
			{
				"x": 1.0403850711,
				"y": 1.2122337266,
				"z": 0.3300083089,
				"element": "O" 
			},
			{
				"x": 0.8164518525,
				"y": 0.1415425517,
				"z": 1.2548368298,
				"element": "C" 
			},
			{
				"x": -0.6396754659,
				"y": -0.2503683209,
				"z": 1.4040691858,
				"element": "C" 
			},
			{
				"x": -1.6516221773,
				"y": 0.7140642919,
				"z": 1.3272946149,
				"element": "C" 
			},
			{
				"x": -2.9848659816,
				"y": 0.3522535895,
				"z": 1.5184644591,
				"element": "C" 
			},
			{
				"x": -3.3208654362,
				"y": -0.9746501406,
				"z": 1.7973759694,
				"element": "C" 
			},
			{
				"x": -2.3164934179,
				"y": -1.9400158944,
				"z": 1.8785039425,
				"element": "C" 
			},
			{
				"x": -0.9828863117,
				"y": -1.5790124448,
				"z": 1.6780909121,
				"element": "C" 
			},
			{
				"x": 1.3639958466,
				"y": 2.0807290846,
				"z": -1.8113808321,
				"element": "C" 
			},
			{
				"x": 1.4008290446,
				"y": 1.9330082435,
				"z": -3.1799478996,
				"element": "C" 
			},
			{
				"x": 1.1142519759,
				"y": 0.6942485758,
				"z": -3.793829708,
				"element": "C" 
			},
			{
				"x": 1.15301153,
				"y": 0.5395528928,
				"z": -5.2291082547,
				"element": "C" 
			},
			{
				"x": 0.9086374925,
				"y": -0.5184361966,
				"z": -5.8256801171,
				"element": "O" 
			},
			{
				"x": 0.5708572683,
				"y": -1.5106486698,
				"z": -4.4836195064,
				"element": "H" 
			},
			{
				"x": 0.4439231608,
				"y": -1.1306714633,
				"z": -0.9853928381,
				"element": "H" 
			},
			{
				"x": 1.4294689142,
				"y": -0.7268420217,
				"z": 0.9842795521,
				"element": "H" 
			},
			{
				"x": 1.2022941387,
				"y": 0.5356253905,
				"z": 2.2008200106,
				"element": "H" 
			},
			{
				"x": -1.389537027,
				"y": 1.7444261505,
				"z": 1.107121512,
				"element": "H" 
			},
			{
				"x": -3.7629262805,
				"y": 1.1072448362,
				"z": 1.4503213052,
				"element": "H" 
			},
			{
				"x": -4.3596744272,
				"y": -1.2547020456,
				"z": 1.9457910815,
				"element": "H" 
			},
			{
				"x": -2.5698193386,
				"y": -2.9753559542,
				"z": 2.0874311069,
				"element": "H" 
			},
			{
				"x": -0.2046405694,
				"y": -2.3371081525,
				"z": 1.7330690856,
				"element": "H" 
			},
			{
				"x": 1.5886060981,
				"y": 3.0232894474,
				"z": -1.325803763,
				"element": "H" 
			},
			{
				"x": 1.658145005,
				"y": 2.7805438321,
				"z": -3.8109814515,
				"element": "H" 
			},
			{
				"x": 1.4219754486,
				"y": 1.4425113616,
				"z": -5.8117160563,
				"element": "H" 
			}
		],
		 "valence_orbital": [ 
			{
				"type": "occ",
				"energy": -0.2628,
				"method": "rhf"
			},
			{
				"type": "occ",
				"energy": -0.25746,
				"method": "rhf"
			},
			{
				"type": "occ",
				"energy": -0.25365,
				"method": "rhf"
			},
			{
				"type": "occ",
				"energy": -0.24444,
				"method": "rhf"
			},
			{
				"type": "occ",
				"energy": -0.22575,
				"method": "rhf"
			},
			{
				"type": "unocc",
				"energy": -0.05689,
				"method": "rhf"
			},
			{
				"type": "unocc",
				"energy": -0.01362,
				"method": "rhf"
			},
			{
				"type": "unocc",
				"energy": -0.01012,
				"method": "rhf"
			},
			{
				"type": "unocc",
				"energy": 0.00132,
				"method": "rhf"
			},
			{
				"type": "unocc",
				"energy": 0.04695,
				"method": "rhf"
			}
		],
		"cosmo_sigma_profile": { 
			"-0.025": 0.0,
			"-0.024": 0.0,
			"-0.023": 0.0,
			"-0.022": 0.0,
			"-0.021": 0.0,
			"-0.02": 0.0,
			"-0.019": 0.0,
			"-0.018": 0.0,
			"-0.017": 0.0,
			"-0.016": 0.0,
			"-0.015": 0.0,
			"-0.014": 0.0,
			"-0.013": 0.0,
			"-0.012": 0.0,
			"-0.011": 0.0,
			"-0.01": 0.0,
			"-0.009": 0.170559429145,
			"-0.008": 2.7732326404,
			"-0.007": 10.7874913782,
			"-0.006": 16.7509843934,
			"-0.005": 21.7430286949,
			"-0.004": 21.7311669164,
			"-0.003": 20.4211071351,
			"-0.002": 16.8698132652,
			"-0.001": 18.9918177503,
			"0.0": 14.4290132814,
			"0.001": 19.144198761,
			"0.002": 23.3878544043,
			"0.003": 20.586758245,
			"0.004": 16.8214954528,
			"0.005": 12.9381330248,
			"0.006": 8.07296702023,
			"0.007": 3.35104665357,
			"0.008": 4.0409360822,
			"0.009": 4.41518547158,
			"0.01": 3.05364725367,
			"0.011": 3.38824858918,
			"0.012": 2.00794481469,
			"0.013": 0.855871469465,
			"0.014": 0.00787588802696,
			"0.015": 0.0,
			"0.016": 0.0,
			"0.017": 0.0,
			"0.018": 0.0,
			"0.019": 0.0,
			"0.02": 0.0,
			"0.021": 0.0,
			"0.022": 0.0,
			"0.023": 0.0,
			"0.024": 0.0,
			"0.025": 0.0
		}
	}
}
