{
	 "smiles": "CCCCCCCCCCCCCCCCCCCCCCC(O)=O", 
	 "Tm": 352.65, 
	 "num_atms": 71, 
	 "gaussian": { 
		 "optdone": 1, 
		 "sigma_profile": "yes", 
		 "theory": "DFT", 
		 "functional": "B3LYP", 
		 "basiset": "6-31G**", 
		 "properties": { 
			 "R2extent": 13843.676, 
			 "electric_dipole_moment_norm": 1.74497497117, 
			 "electric_quadrupole_moment_norm": 7.72602082122, 
			 "total_energy": -1054.6982959, 
			 "HOMO_LUMO_gap": 0.27949, 
			 "cosmo_polarized_energy": -8.76, 
			 "cosmo_cavitation_energy": 67.9, 
			 "cosmo_dispersion_energy": -40.31, 
			 "cosmo_repulsion_energy": 3.18, 
			 "cosmo_total_nonelectrostatic_energy": 30.77, 
			 "SMD_solvation_energy": 9.39 
		},
		"coords": [
			{
				"x": -3.6362578186,
				"y": 3.6443312445,
				"z": -3.6098789088,
				"element": "C" 
			},
			{
				"x": -4.4822169081,
				"y": 3.0652378,
				"z": -2.4692922613,
				"element": "C" 
			},
			{
				"x": -4.1047097407,
				"y": 1.632533437,
				"z": -2.0545341553,
				"element": "C" 
			},
			{
				"x": -2.7140838174,
				"y": 1.5004420837,
				"z": -1.4160027037,
				"element": "C" 
			},
			{
				"x": -2.3243538394,
				"y": 0.061572164,
				"z": -1.0284902389,
				"element": "C" 
			},
			{
				"x": -3.1827250511,
				"y": -0.60788327,
				"z": 0.0625611015,
				"element": "C" 
			},
			{
				"x": -3.1225613312,
				"y": 0.0528792738,
				"z": 1.4517558966,
				"element": "C" 
			},
			{
				"x": -1.7881005245,
				"y": -0.1310782838,
				"z": 2.1913428934,
				"element": "C" 
			},
			{
				"x": -1.7577200981,
				"y": 0.600090063,
				"z": 3.541488702,
				"element": "C" 
			},
			{
				"x": -0.5544774832,
				"y": 0.3071924067,
				"z": 4.4556786695,
				"element": "C" 
			},
			{
				"x": 0.8397885985,
				"y": 0.6778319448,
				"z": 3.9002770803,
				"element": "C" 
			},
			{
				"x": 1.5621063449,
				"y": -0.463971519,
				"z": 3.1650985839,
				"element": "C" 
			},
			{
				"x": 3.0059102871,
				"y": -0.1449734065,
				"z": 2.7411450954,
				"element": "C" 
			},
			{
				"x": 3.1364911853,
				"y": 0.9090629896,
				"z": 1.6306216629,
				"element": "C" 
			},
			{
				"x": 4.5903144374,
				"y": 1.1681782183,
				"z": 1.1857958387,
				"element": "C" 
			},
			{
				"x": 5.2921743454,
				"y": 0.0239493254,
				"z": 0.417046981,
				"element": "C" 
			},
			{
				"x": 5.196935712,
				"y": 0.0939306347,
				"z": -1.1200675621,
				"element": "C" 
			},
			{
				"x": 3.7966296105,
				"y": -0.0209915851,
				"z": -1.7456972872,
				"element": "C" 
			},
			{
				"x": 3.0860980592,
				"y": -1.3598552397,
				"z": -1.500976019,
				"element": "C" 
			},
			{
				"x": 1.718540742,
				"y": -1.43533524,
				"z": -2.1941442971,
				"element": "C" 
			},
			{
				"x": 0.9411686784,
				"y": -2.7419705243,
				"z": -1.9698054993,
				"element": "C" 
			},
			{
				"x": 0.5334923307,
				"y": -2.963709485,
				"z": -0.4973494599,
				"element": "C" 
			},
			{
				"x": -0.4102155507,
				"y": -4.1294117208,
				"z": -0.3223658672,
				"element": "C" 
			},
			{
				"x": 0.1755805838,
				"y": -5.3094631927,
				"z": -0.6483132839,
				"element": "O" 
			},
			{
				"x": -1.562739452,
				"y": -4.0654080524,
				"z": 0.0507419207,
				"element": "O" 
			},
			{
				"x": -3.9872358587,
				"y": 4.6423338943,
				"z": -3.8930402839,
				"element": "H" 
			},
			{
				"x": -3.6899915223,
				"y": 3.0086277998,
				"z": -4.501645634,
				"element": "H" 
			},
			{
				"x": -2.5810784483,
				"y": 3.735868492,
				"z": -3.3328053664,
				"element": "H" 
			},
			{
				"x": -4.4132811375,
				"y": 3.7242052484,
				"z": -1.5925939146,
				"element": "H" 
			},
			{
				"x": -5.5373881862,
				"y": 3.075684451,
				"z": -2.7715189511,
				"element": "H" 
			},
			{
				"x": -4.1617035401,
				"y": 0.9750105064,
				"z": -2.9347101726,
				"element": "H" 
			},
			{
				"x": -4.8635389379,
				"y": 1.2645587047,
				"z": -1.353011894,
				"element": "H" 
			},
			{
				"x": -2.6605740111,
				"y": 2.1546032735,
				"z": -0.5347140719,
				"element": "H" 
			},
			{
				"x": -1.9566080454,
				"y": 1.8796862556,
				"z": -2.1134868796,
				"element": "H" 
			},
			{
				"x": -1.2721608428,
				"y": 0.0617464157,
				"z": -0.7133545043,
				"element": "H" 
			},
			{
				"x": -2.3636191318,
				"y": -0.5653942913,
				"z": -1.9301721578,
				"element": "H" 
			},
			{
				"x": -4.2278441151,
				"y": -0.6344765326,
				"z": -0.2705734236,
				"element": "H" 
			},
			{
				"x": -2.8710340873,
				"y": -1.6563982349,
				"z": 0.1529668966,
				"element": "H" 
			},
			{
				"x": -3.9221884343,
				"y": -0.3700915073,
				"z": 2.0747435566,
				"element": "H" 
			},
			{
				"x": -3.3483221711,
				"y": 1.1252808618,
				"z": 1.3700167804,
				"element": "H" 
			},
			{
				"x": -0.9622838054,
				"y": 0.2280618804,
				"z": 1.5641686657,
				"element": "H" 
			},
			{
				"x": -1.6138054632,
				"y": -1.205437983,
				"z": 2.3452586707,
				"element": "H" 
			},
			{
				"x": -1.8100480528,
				"y": 1.6832740671,
				"z": 3.3586427787,
				"element": "H" 
			},
			{
				"x": -2.6725160734,
				"y": 0.3475189099,
				"z": 4.0959491739,
				"element": "H" 
			},
			{
				"x": -0.7163244286,
				"y": 0.8577338387,
				"z": 5.3910437914,
				"element": "H" 
			},
			{
				"x": -0.5600249058,
				"y": -0.7564371467,
				"z": 4.7335271892,
				"element": "H" 
			},
			{
				"x": 1.4809827653,
				"y": 0.9918301314,
				"z": 4.7352840591,
				"element": "H" 
			},
			{
				"x": 0.7492278826,
				"y": 1.5568691036,
				"z": 3.2481576184,
				"element": "H" 
			},
			{
				"x": 0.9856742569,
				"y": -0.7716234033,
				"z": 2.2833449075,
				"element": "H" 
			},
			{
				"x": 1.5804419891,
				"y": -1.3380501085,
				"z": 3.8303307352,
				"element": "H" 
			},
			{
				"x": 3.5761633562,
				"y": 0.1888819694,
				"z": 3.6205391594,
				"element": "H" 
			},
			{
				"x": 3.4823957662,
				"y": -1.0781012594,
				"z": 2.4134346841,
				"element": "H" 
			},
			{
				"x": 2.7111408757,
				"y": 1.8576838699,
				"z": 1.9815300148,
				"element": "H" 
			},
			{
				"x": 2.5239185533,
				"y": 0.6048078569,
				"z": 0.7720845142,
				"element": "H" 
			},
			{
				"x": 4.6218035828,
				"y": 2.0780636755,
				"z": 0.5710657793,
				"element": "H" 
			},
			{
				"x": 5.1751244179,
				"y": 1.4012772416,
				"z": 2.085713419,
				"element": "H" 
			},
			{
				"x": 6.3595483564,
				"y": 0.038085087,
				"z": 0.6703105134,
				"element": "H" 
			},
			{
				"x": 4.9266073922,
				"y": -0.947886352,
				"z": 0.7710805234,
				"element": "H" 
			},
			{
				"x": 5.6444038074,
				"y": 1.0421218759,
				"z": -1.4484631131,
				"element": "H" 
			},
			{
				"x": 5.8321921282,
				"y": -0.6984405697,
				"z": -1.5402538652,
				"element": "H" 
			},
			{
				"x": 3.891699925,
				"y": 0.1326569134,
				"z": -2.8295191481,
				"element": "H" 
			},
			{
				"x": 3.1595321544,
				"y": 0.7982084874,
				"z": -1.3867006128,
				"element": "H" 
			},
			{
				"x": 3.7223874973,
				"y": -2.1825545272,
				"z": -1.8583779134,
				"element": "H" 
			},
			{
				"x": 2.9644025759,
				"y": -1.5169106125,
				"z": -0.4223871317,
				"element": "H" 
			},
			{
				"x": 1.8599081852,
				"y": -1.2978179169,
				"z": -3.274400784,
				"element": "H" 
			},
			{
				"x": 1.0975076381,
				"y": -0.5910523579,
				"z": -1.8625336307,
				"element": "H" 
			},
			{
				"x": 0.033897639,
				"y": -2.720027631,
				"z": -2.586006392,
				"element": "H" 
			},
			{
				"x": 1.5316117925,
				"y": -3.5995374275,
				"z": -2.3128336727,
				"element": "H" 
			},
			{
				"x": 1.4229782739,
				"y": -3.151121003,
				"z": 0.1141280621,
				"element": "H" 
			},
			{
				"x": 0.0264089022,
				"y": -2.0801733549,
				"z": -0.102344749,
				"element": "H" 
			},
			{
				"x": -0.5061578146,
				"y": -5.9909286578,
				"z": -0.5226101085,
				"element": "H" 
			}
		],
		 "valence_orbital": [ 
			{
				"type": "occ",
				"energy": -0.2989,
				"method": "rhf"
			},
			{
				"type": "occ",
				"energy": -0.29704,
				"method": "rhf"
			},
			{
				"type": "occ",
				"energy": -0.29328,
				"method": "rhf"
			},
			{
				"type": "occ",
				"energy": -0.28727,
				"method": "rhf"
			},
			{
				"type": "occ",
				"energy": -0.27072,
				"method": "rhf"
			},
			{
				"type": "unocc",
				"energy": 0.00877,
				"method": "rhf"
			},
			{
				"type": "unocc",
				"energy": 0.05239,
				"method": "rhf"
			},
			{
				"type": "unocc",
				"energy": 0.07719,
				"method": "rhf"
			},
			{
				"type": "unocc",
				"energy": 0.0809,
				"method": "rhf"
			},
			{
				"type": "unocc",
				"energy": 0.08877,
				"method": "rhf"
			}
		],
		"cosmo_sigma_profile": { 
			"-0.025": 0.0,
			"-0.024": 0.0,
			"-0.023": 0.0,
			"-0.022": 0.0,
			"-0.021": 0.0,
			"-0.02": 0.0,
			"-0.019": 0.0,
			"-0.018": 0.552284606143,
			"-0.017": 0.767872441797,
			"-0.016": 1.14029654068,
			"-0.015": 0.891467158012,
			"-0.014": 0.663924474579,
			"-0.013": 0.143358587791,
			"-0.012": 0.367373921336,
			"-0.011": 1.02714384854,
			"-0.01": 0.987705562963,
			"-0.009": 0.68082763709,
			"-0.008": 0.630830715412,
			"-0.007": 0.746778675218,
			"-0.006": 1.36945387492,
			"-0.005": 2.88902208657,
			"-0.004": 4.38520153764,
			"-0.003": 12.1834097804,
			"-0.002": 66.3885762833,
			"-0.001": 121.621574441,
			"0.0": 122.600887296,
			"0.001": 98.3864099892,
			"0.002": 44.3865791752,
			"0.003": 5.7853560132,
			"0.004": 4.49403643979,
			"0.005": 3.76263695822,
			"0.006": 3.3569958576,
			"0.007": 3.96844926909,
			"0.008": 3.12267742358,
			"0.009": 3.06664865007,
			"0.01": 3.1797939179,
			"0.011": 2.72034062041,
			"0.012": 2.4942869088,
			"0.013": 0.284635676622,
			"0.014": 0.0,
			"0.015": 0.0,
			"0.016": 0.0,
			"0.017": 0.0,
			"0.018": 0.0,
			"0.019": 0.0,
			"0.02": 0.0,
			"0.021": 0.0,
			"0.022": 0.0,
			"0.023": 0.0,
			"0.024": 0.0,
			"0.025": 0.0
		}
	}
}
