{
	 "smiles": "CC(C)CC1=CC=C(C=C1)C(=O)C(C)Cl", 
	 "Tm": 326.15, 
	 "num_atms": 32, 
	 "gaussian": { 
		 "optdone": 1, 
		 "sigma_profile": "yes", 
		 "theory": "DFT", 
		 "functional": "B3LYP", 
		 "basiset": "6-31G**", 
		 "properties": { 
			 "R2extent": 6400.5432, 
			 "electric_dipole_moment_norm": 3.52303543411, 
			 "electric_quadrupole_moment_norm": 16.4681118808, 
			 "total_energy": -1041.07056346, 
			 "HOMO_LUMO_gap": 0.18439, 
			 "cosmo_polarized_energy": -8.51, 
			 "cosmo_cavitation_energy": 35.62, 
			 "cosmo_dispersion_energy": -24.96, 
			 "cosmo_repulsion_energy": 1.97, 
			 "cosmo_total_nonelectrostatic_energy": 12.62, 
			 "SMD_solvation_energy": 5.99 
		},
		"coords": [
			{
				"x": 1.1178041283,
				"y": 0.1603984194,
				"z": 3.9560383321,
				"element": "C" 
			},
			{
				"x": 2.1696574579,
				"y": 0.6242107299,
				"z": 2.9389207271,
				"element": "C" 
			},
			{
				"x": 1.6729717094,
				"y": 1.8389850965,
				"z": 2.1429084184,
				"element": "C" 
			},
			{
				"x": 2.661094454,
				"y": -0.5316287885,
				"z": 2.018869605,
				"element": "C" 
			},
			{
				"x": 1.6123685433,
				"y": -1.1542071361,
				"z": 1.1230208551,
				"element": "C" 
			},
			{
				"x": 0.8479308864,
				"y": -2.251429425,
				"z": 1.5553201926,
				"element": "C" 
			},
			{
				"x": -0.1231281857,
				"y": -2.8169364816,
				"z": 0.7386954709,
				"element": "C" 
			},
			{
				"x": -0.3642592836,
				"y": -2.3060305415,
				"z": -0.5476645591,
				"element": "C" 
			},
			{
				"x": 0.4032239113,
				"y": -1.2179509341,
				"z": -0.9923917632,
				"element": "C" 
			},
			{
				"x": 1.3751991961,
				"y": -0.6571845402,
				"z": -0.1676600313,
				"element": "C" 
			},
			{
				"x": -1.4378459542,
				"y": -2.950313795,
				"z": -1.3584237108,
				"element": "C" 
			},
			{
				"x": -2.0776914224,
				"y": -3.898334025,
				"z": -0.931568081,
				"element": "O" 
			},
			{
				"x": -1.7808473949,
				"y": -2.3889842615,
				"z": -2.7538311597,
				"element": "C" 
			},
			{
				"x": -3.1257585906,
				"y": -2.8713931921,
				"z": -3.2646719992,
				"element": "C" 
			},
			{
				"x": -0.4444902071,
				"y": -2.9109347245,
				"z": -3.9051068506,
				"element": "Cl" 
			},
			{
				"x": 0.8593956291,
				"y": 0.9739367715,
				"z": 4.6422492961,
				"element": "H" 
			},
			{
				"x": 0.1954568683,
				"y": -0.1603001092,
				"z": 3.4601901088,
				"element": "H" 
			},
			{
				"x": 1.483801358,
				"y": -0.6787192191,
				"z": 4.5584338906,
				"element": "H" 
			},
			{
				"x": 3.0586380179,
				"y": 0.9398317815,
				"z": 3.5031834539,
				"element": "H" 
			},
			{
				"x": 2.4370956655,
				"y": 2.2033456496,
				"z": 1.4468915652,
				"element": "H" 
			},
			{
				"x": 0.7774082345,
				"y": 1.5966445739,
				"z": 1.5608983536,
				"element": "H" 
			},
			{
				"x": 1.4170802888,
				"y": 2.6636351805,
				"z": 2.8166690373,
				"element": "H" 
			},
			{
				"x": 3.4783117456,
				"y": -0.1467118721,
				"z": 1.396823674,
				"element": "H" 
			},
			{
				"x": 3.093369216,
				"y": -1.3126427876,
				"z": 2.6561149264,
				"element": "H" 
			},
			{
				"x": 1.0259541448,
				"y": -2.6682584498,
				"z": 2.5429345541,
				"element": "H" 
			},
			{
				"x": -0.7123550667,
				"y": -3.6641117015,
				"z": 1.0732050386,
				"element": "H" 
			},
			{
				"x": 0.2689162368,
				"y": -0.817335531,
				"z": -1.9912100153,
				"element": "H" 
			},
			{
				"x": 1.9692571246,
				"y": 0.1747660048,
				"z": -0.5356264828,
				"element": "H" 
			},
			{
				"x": -1.728508612,
				"y": -1.2984933828,
				"z": -2.7496489508,
				"element": "H" 
			},
			{
				"x": -3.3085561418,
				"y": -2.4949816599,
				"z": -4.2733627801,
				"element": "H" 
			},
			{
				"x": -3.9159890101,
				"y": -2.5033329694,
				"z": -2.6018618833,
				"element": "H" 
			},
			{
				"x": -3.1684049475,
				"y": -3.9612386801,
				"z": -3.2650392323,
				"element": "H" 
			}
		],
		 "valence_orbital": [ 
			{
				"type": "occ",
				"energy": -0.30966,
				"method": "rhf"
			},
			{
				"type": "occ",
				"energy": -0.30065,
				"method": "rhf"
			},
			{
				"type": "occ",
				"energy": -0.26112,
				"method": "rhf"
			},
			{
				"type": "occ",
				"energy": -0.25682,
				"method": "rhf"
			},
			{
				"type": "occ",
				"energy": -0.25239,
				"method": "rhf"
			},
			{
				"type": "unocc",
				"energy": -0.068,
				"method": "rhf"
			},
			{
				"type": "unocc",
				"energy": -0.01194,
				"method": "rhf"
			},
			{
				"type": "unocc",
				"energy": 0.00352,
				"method": "rhf"
			},
			{
				"type": "unocc",
				"energy": 0.05253,
				"method": "rhf"
			},
			{
				"type": "unocc",
				"energy": 0.07761,
				"method": "rhf"
			}
		],
		"cosmo_sigma_profile": { 
			"-0.025": 0.0,
			"-0.024": 0.0,
			"-0.023": 0.0,
			"-0.022": 0.0,
			"-0.021": 0.0,
			"-0.02": 0.0,
			"-0.019": 0.0,
			"-0.018": 0.0,
			"-0.017": 0.0,
			"-0.016": 0.0,
			"-0.015": 0.0,
			"-0.014": 0.0,
			"-0.013": 0.0,
			"-0.012": 0.0,
			"-0.011": 0.0,
			"-0.01": 0.0112443568245,
			"-0.009": 1.60496834466,
			"-0.008": 3.01203870848,
			"-0.007": 4.02090344789,
			"-0.006": 5.68420346631,
			"-0.005": 12.4741049348,
			"-0.004": 18.5389714185,
			"-0.003": 23.612635853,
			"-0.002": 31.1222649184,
			"-0.001": 32.285667461,
			"0.0": 34.0629977785,
			"0.001": 29.5762785632,
			"0.002": 22.9237574165,
			"0.003": 15.6029214926,
			"0.004": 17.5666679507,
			"0.005": 9.8365081044,
			"0.006": 6.83131659208,
			"0.007": 1.76856609537,
			"0.008": 1.90530054517,
			"0.009": 1.6739925328,
			"0.01": 2.72380949645,
			"0.011": 3.74992467588,
			"0.012": 0.837541095419,
			"0.013": 0.0,
			"0.014": 0.0,
			"0.015": 0.0,
			"0.016": 0.0,
			"0.017": 0.0,
			"0.018": 0.0,
			"0.019": 0.0,
			"0.02": 0.0,
			"0.021": 0.0,
			"0.022": 0.0,
			"0.023": 0.0,
			"0.024": 0.0,
			"0.025": 0.0
		}
	}
}
