{
	 "smiles": "COC(=O)C1=CC2=C(C=CC=C2)C=C1C(=O)OC", 
	 "Tm": 322.15, 
	 "num_atms": 30, 
	 "gaussian": { 
		 "optdone": 1, 
		 "sigma_profile": "yes", 
		 "theory": "DFT", 
		 "functional": "B3LYP", 
		 "basiset": "6-31G**", 
		 "properties": { 
			 "R2extent": 5707.7157, 
			 "electric_dipole_moment_norm": 2.63771440645, 
			 "electric_quadrupole_moment_norm": 15.391074482, 
			 "total_energy": -841.64043756, 
			 "HOMO_LUMO_gap": 0.17256, 
			 "cosmo_polarized_energy": -14.24, 
			 "cosmo_cavitation_energy": 35.08, 
			 "cosmo_dispersion_energy": -24.96, 
			 "cosmo_repulsion_energy": 1.93, 
			 "cosmo_total_nonelectrostatic_energy": 12.05, 
			 "SMD_solvation_energy": 8.54 
		},
		"coords": [
			{
				"x": -1.5956492886,
				"y": 1.8018863663,
				"z": -3.2020189838,
				"element": "C" 
			},
			{
				"x": -1.4029420358,
				"y": 1.7149657096,
				"z": -1.7805934054,
				"element": "O" 
			},
			{
				"x": -1.2345683167,
				"y": 0.4604838327,
				"z": -1.3054053384,
				"element": "C" 
			},
			{
				"x": -1.2447680525,
				"y": -0.5297242785,
				"z": -2.0046432701,
				"element": "O" 
			},
			{
				"x": -1.1135065203,
				"y": 0.4415244689,
				"z": 0.1863326424,
				"element": "C" 
			},
			{
				"x": -1.9213294086,
				"y": 1.2647768232,
				"z": 0.9416599941,
				"element": "C" 
			},
			{
				"x": -1.9782694348,
				"y": 1.1577771347,
				"z": 2.3566254655,
				"element": "C" 
			},
			{
				"x": -1.1794598815,
				"y": 0.1623577699,
				"z": 3.0034128123,
				"element": "C" 
			},
			{
				"x": -1.2394180243,
				"y": 0.0419219672,
				"z": 4.4166874214,
				"element": "C" 
			},
			{
				"x": -2.0557941105,
				"y": 0.8687628059,
				"z": 5.1568174298,
				"element": "C" 
			},
			{
				"x": -2.8469831234,
				"y": 1.8536366439,
				"z": 4.516542607,
				"element": "C" 
			},
			{
				"x": -2.809689361,
				"y": 1.9944975841,
				"z": 3.1466163004,
				"element": "C" 
			},
			{
				"x": -0.3419493178,
				"y": -0.6634231966,
				"z": 2.2074968484,
				"element": "C" 
			},
			{
				"x": -0.2893552894,
				"y": -0.5315710439,
				"z": 0.8361163688,
				"element": "C" 
			},
			{
				"x": 0.7474235528,
				"y": -1.286457098,
				"z": 0.0643928795,
				"element": "C" 
			},
			{
				"x": 1.4061649697,
				"y": -0.817175153,
				"z": -0.8385874066,
				"element": "O" 
			},
			{
				"x": 0.9150061851,
				"y": -2.5406360722,
				"z": 0.5406478473,
				"element": "O" 
			},
			{
				"x": 1.945988505,
				"y": -3.3013778723,
				"z": -0.110122398,
				"element": "C" 
			},
			{
				"x": -2.4923333619,
				"y": 1.2548036449,
				"z": -3.5047907341,
				"element": "H" 
			},
			{
				"x": -1.7023460837,
				"y": 2.8645936386,
				"z": -3.4194527206,
				"element": "H" 
			},
			{
				"x": -0.7342147643,
				"y": 1.3852598634,
				"z": -3.729241245,
				"element": "H" 
			},
			{
				"x": -2.5475198909,
				"y": 1.9972764482,
				"z": 0.442555914,
				"element": "H" 
			},
			{
				"x": -0.6304298377,
				"y": -0.7140635133,
				"z": 4.9051533222,
				"element": "H" 
			},
			{
				"x": -2.0959009848,
				"y": 0.7680899875,
				"z": 6.2374128555,
				"element": "H" 
			},
			{
				"x": -3.4851760606,
				"y": 2.4993580604,
				"z": 5.1125142488,
				"element": "H" 
			},
			{
				"x": -3.4163365823,
				"y": 2.7485936135,
				"z": 2.6523483042,
				"element": "H" 
			},
			{
				"x": 0.2890710204,
				"y": -1.3998598361,
				"z": 2.6945830627,
				"element": "H" 
			},
			{
				"x": 1.9436268753,
				"y": -4.2762676403,
				"z": 0.3773124023,
				"element": "H" 
			},
			{
				"x": 1.7289458773,
				"y": -3.402981208,
				"z": -1.1760434445,
				"element": "H" 
			},
			{
				"x": 2.9178127461,
				"y": -2.8146294505,
				"z": 0.0066702204,
				"element": "H" 
			}
		],
		 "valence_orbital": [ 
			{
				"type": "occ",
				"energy": -0.29253,
				"method": "rhf"
			},
			{
				"type": "occ",
				"energy": -0.27154,
				"method": "rhf"
			},
			{
				"type": "occ",
				"energy": -0.27051,
				"method": "rhf"
			},
			{
				"type": "occ",
				"energy": -0.25036,
				"method": "rhf"
			},
			{
				"type": "occ",
				"energy": -0.22878,
				"method": "rhf"
			},
			{
				"type": "unocc",
				"energy": -0.05622,
				"method": "rhf"
			},
			{
				"type": "unocc",
				"energy": -0.04709,
				"method": "rhf"
			},
			{
				"type": "unocc",
				"energy": 0.01408,
				"method": "rhf"
			},
			{
				"type": "unocc",
				"energy": 0.02952,
				"method": "rhf"
			},
			{
				"type": "unocc",
				"energy": 0.03849,
				"method": "rhf"
			}
		],
		"cosmo_sigma_profile": { 
			"-0.025": 0.0,
			"-0.024": 0.0,
			"-0.023": 0.0,
			"-0.022": 0.0,
			"-0.021": 0.0,
			"-0.02": 0.0,
			"-0.019": 0.0,
			"-0.018": 0.0,
			"-0.017": 0.0,
			"-0.016": 0.0,
			"-0.015": 0.0,
			"-0.014": 0.0,
			"-0.013": 0.0,
			"-0.012": 0.0,
			"-0.011": 0.0,
			"-0.01": 0.0,
			"-0.009": 0.0,
			"-0.008": 0.644669238665,
			"-0.007": 9.48171340043,
			"-0.006": 22.083922772,
			"-0.005": 24.1704736892,
			"-0.004": 28.1343834771,
			"-0.003": 25.3951705592,
			"-0.002": 17.231362695,
			"-0.001": 13.5514842878,
			"0.0": 13.5833197669,
			"0.001": 22.7499619146,
			"0.002": 28.4179346126,
			"0.003": 19.4636105082,
			"0.004": 12.7893221147,
			"0.005": 6.38167547108,
			"0.006": 4.59838897492,
			"0.007": 4.74094987964,
			"0.008": 4.1837432004,
			"0.009": 4.1137831217,
			"0.01": 3.03657376784,
			"0.011": 8.16873166692,
			"0.012": 7.45899061239,
			"0.013": 0.0653324636377,
			"0.014": 0.0,
			"0.015": 0.0,
			"0.016": 0.0,
			"0.017": 0.0,
			"0.018": 0.0,
			"0.019": 0.0,
			"0.02": 0.0,
			"0.021": 0.0,
			"0.022": 0.0,
			"0.023": 0.0,
			"0.024": 0.0,
			"0.025": 0.0
		}
	}
}
