{
	 "smiles": "ClC1=CC=C(C=CC(=O)C2=CC=CC=C2)C(Cl)=C1", 
	 "Tm": 345.5, 
	 "num_atms": 28, 
	 "gaussian": { 
		 "optdone": 1, 
		 "sigma_profile": "yes", 
		 "theory": "DFT", 
		 "functional": "B3LYP", 
		 "basiset": "6-31G**", 
		 "properties": { 
			 "R2extent": 9119.0306, 
			 "electric_dipole_moment_norm": 2.24354424962, 
			 "electric_quadrupole_moment_norm": 13.6363081936, 
			 "total_energy": -1573.21686219, 
			 "HOMO_LUMO_gap": 0.15834, 
			 "cosmo_polarized_energy": -10.45, 
			 "cosmo_cavitation_energy": 36.92, 
			 "cosmo_dispersion_energy": -26.35, 
			 "cosmo_repulsion_energy": 2.04, 
			 "cosmo_total_nonelectrostatic_energy": 12.6, 
			 "SMD_solvation_energy": 6.17 
		},
		"coords": [
			{
				"x": 4.8376440573,
				"y": -2.8075188624,
				"z": -4.6645091143,
				"element": "Cl" 
			},
			{
				"x": 3.6884230746,
				"y": -2.245589133,
				"z": -3.4688941952,
				"element": "C" 
			},
			{
				"x": 2.4569276859,
				"y": -2.8895462596,
				"z": -3.3345891403,
				"element": "C" 
			},
			{
				"x": 1.5579223764,
				"y": -2.4270504626,
				"z": -2.3837436323,
				"element": "C" 
			},
			{
				"x": 1.8416228471,
				"y": -1.3333421662,
				"z": -1.5406201277,
				"element": "C" 
			},
			{
				"x": 0.8765456226,
				"y": -0.8530709029,
				"z": -0.5464581953,
				"element": "C" 
			},
			{
				"x": -0.1939250698,
				"y": -1.5363897513,
				"z": -0.0941521916,
				"element": "C" 
			},
			{
				"x": -1.1113506679,
				"y": -1.092405697,
				"z": 0.9872995696,
				"element": "C" 
			},
			{
				"x": -1.6921711455,
				"y": -1.9515281381,
				"z": 1.6454952682,
				"element": "O" 
			},
			{
				"x": -1.3157988115,
				"y": 0.3612098957,
				"z": 1.2956891307,
				"element": "C" 
			},
			{
				"x": -1.2361565987,
				"y": 1.3718416339,
				"z": 0.3248953116,
				"element": "C" 
			},
			{
				"x": -1.4942979587,
				"y": 2.6997693693,
				"z": 0.6682544933,
				"element": "C" 
			},
			{
				"x": -1.8248919573,
				"y": 3.0312252876,
				"z": 1.9828842418,
				"element": "C" 
			},
			{
				"x": -1.9168864858,
				"y": 2.0286590252,
				"z": 2.9536834267,
				"element": "C" 
			},
			{
				"x": -1.6767974109,
				"y": 0.7020838036,
				"z": 2.6094084993,
				"element": "C" 
			},
			{
				"x": 3.0954615091,
				"y": -0.7120654962,
				"z": -1.7213400062,
				"element": "C" 
			},
			{
				"x": 3.5728907826,
				"y": 0.6622079629,
				"z": -0.7338261198,
				"element": "Cl" 
			},
			{
				"x": 4.0172861383,
				"y": -1.1549874949,
				"z": -2.668672478,
				"element": "C" 
			},
			{
				"x": 2.2082415994,
				"y": -3.7310307525,
				"z": -3.9708104858,
				"element": "H" 
			},
			{
				"x": 0.593447931,
				"y": -2.9159000454,
				"z": -2.2978556144,
				"element": "H" 
			},
			{
				"x": 1.0789182202,
				"y": 0.1285342275,
				"z": -0.1315664143,
				"element": "H" 
			},
			{
				"x": -0.3837626626,
				"y": -2.5611080177,
				"z": -0.403714348,
				"element": "H" 
			},
			{
				"x": -1.0032096883,
				"y": 1.1184191912,
				"z": -0.7037073556,
				"element": "H" 
			},
			{
				"x": -1.4414471475,
				"y": 3.4733699181,
				"z": -0.092210159,
				"element": "H" 
			},
			{
				"x": -2.0181390822,
				"y": 4.0662926662,
				"z": 2.2500227481,
				"element": "H" 
			},
			{
				"x": -2.1815907337,
				"y": 2.2839607758,
				"z": 3.9756723938,
				"element": "H" 
			},
			{
				"x": -1.7634463021,
				"y": -0.0928753464,
				"z": 3.3426120834,
				"element": "H" 
			},
			{
				"x": 4.973139878,
				"y": -0.6575652307,
				"z": -2.7754475887,
				"element": "H" 
			}
		],
		 "valence_orbital": [ 
			{
				"type": "occ",
				"energy": -0.27265,
				"method": "rhf"
			},
			{
				"type": "occ",
				"energy": -0.2627,
				"method": "rhf"
			},
			{
				"type": "occ",
				"energy": -0.26104,
				"method": "rhf"
			},
			{
				"type": "occ",
				"energy": -0.24981,
				"method": "rhf"
			},
			{
				"type": "occ",
				"energy": -0.24312,
				"method": "rhf"
			},
			{
				"type": "unocc",
				"energy": -0.08478,
				"method": "rhf"
			},
			{
				"type": "unocc",
				"energy": -0.0372,
				"method": "rhf"
			},
			{
				"type": "unocc",
				"energy": -0.03401,
				"method": "rhf"
			},
			{
				"type": "unocc",
				"energy": -0.01124,
				"method": "rhf"
			},
			{
				"type": "unocc",
				"energy": -0.00174,
				"method": "rhf"
			}
		],
		"cosmo_sigma_profile": { 
			"-0.025": 0.0,
			"-0.024": 0.0,
			"-0.023": 0.0,
			"-0.022": 0.0,
			"-0.021": 0.0,
			"-0.02": 0.0,
			"-0.019": 0.0,
			"-0.018": 0.0,
			"-0.017": 0.0,
			"-0.016": 0.0,
			"-0.015": 0.0,
			"-0.014": 0.0,
			"-0.013": 0.0,
			"-0.012": 0.0,
			"-0.011": 0.0,
			"-0.01": 0.034636144748,
			"-0.009": 2.21590600651,
			"-0.008": 4.88812901321,
			"-0.007": 8.05741632953,
			"-0.006": 13.4924709587,
			"-0.005": 16.3731279177,
			"-0.004": 19.633832819,
			"-0.003": 18.7263950278,
			"-0.002": 22.5088354152,
			"-0.001": 26.0432410995,
			"0.0": 32.4421133522,
			"0.001": 37.8094065827,
			"0.002": 24.0008359548,
			"0.003": 26.2897096179,
			"0.004": 26.6670653744,
			"0.005": 4.70842594871,
			"0.006": 1.93222070335,
			"0.007": 1.68221505615,
			"0.008": 1.53338071111,
			"0.009": 1.36235255233,
			"0.01": 2.33315826915,
			"0.011": 2.38725564771,
			"0.012": 4.4870205459,
			"0.013": 2.41750023413,
			"0.014": 0.190043161657,
			"0.015": 0.0,
			"0.016": 0.0,
			"0.017": 0.0,
			"0.018": 0.0,
			"0.019": 0.0,
			"0.02": 0.0,
			"0.021": 0.0,
			"0.022": 0.0,
			"0.023": 0.0,
			"0.024": 0.0,
			"0.025": 0.0
		}
	}
}
