{
	 "smiles": "CN(C)S(=O)(=O)C1=CC(=CC=C1)N=C=S", 
	 "Tm": 321.15, 
	 "num_atms": 25, 
	 "gaussian": { 
		 "optdone": 1, 
		 "sigma_profile": "yes", 
		 "theory": "DFT", 
		 "functional": "B3LYP", 
		 "basiset": "6-31G**", 
		 "properties": { 
			 "R2extent": 5651.4233, 
			 "electric_dipole_moment_norm": 5.25326334482, 
			 "electric_quadrupole_moment_norm": 19.880826477, 
			 "total_energy": -1405.22756936, 
			 "HOMO_LUMO_gap": 0.17835, 
			 "cosmo_polarized_energy": -15.12, 
			 "cosmo_cavitation_energy": 33.24, 
			 "cosmo_dispersion_energy": -24.2, 
			 "cosmo_repulsion_energy": 1.82, 
			 "cosmo_total_nonelectrostatic_energy": 10.86, 
			 "SMD_solvation_energy": 4.83 
		},
		"coords": [
			{
				"x": 1.1718499548,
				"y": 0.7567433556,
				"z": -2.4391533542,
				"element": "C" 
			},
			{
				"x": 0.0231071349,
				"y": -0.0611753686,
				"z": -2.8350642744,
				"element": "N" 
			},
			{
				"x": -1.254535441,
				"y": 0.6502665318,
				"z": -2.9146982778,
				"element": "C" 
			},
			{
				"x": -0.0254058922,
				"y": -1.6357058311,
				"z": -2.2344973139,
				"element": "S" 
			},
			{
				"x": -1.1842153227,
				"y": -2.2798842958,
				"z": -2.8536005872,
				"element": "O" 
			},
			{
				"x": 1.3312810391,
				"y": -2.169029554,
				"z": -2.3608036047,
				"element": "O" 
			},
			{
				"x": -0.3790805704,
				"y": -1.502346275,
				"z": -0.4693770359,
				"element": "C" 
			},
			{
				"x": 0.6847743247,
				"y": -1.388296036,
				"z": 0.4233118298,
				"element": "C" 
			},
			{
				"x": 0.4058194989,
				"y": -1.2439189054,
				"z": 1.7919431333,
				"element": "C" 
			},
			{
				"x": -0.9253616361,
				"y": -1.2186286426,
				"z": 2.2442845027,
				"element": "C" 
			},
			{
				"x": -1.9683325652,
				"y": -1.3448156939,
				"z": 1.3307099919,
				"element": "C" 
			},
			{
				"x": -1.7070819064,
				"y": -1.4875656745,
				"z": -0.0334654316,
				"element": "C" 
			},
			{
				"x": 1.435342613,
				"y": -1.1335083926,
				"z": 2.6891102899,
				"element": "N" 
			},
			{
				"x": 2.3299983236,
				"y": -1.0264796547,
				"z": 3.4633905999,
				"element": "C" 
			},
			{
				"x": 3.5262153985,
				"y": -0.8822366458,
				"z": 4.5020875935,
				"element": "S" 
			},
			{
				"x": 1.2598619249,
				"y": 1.5820738494,
				"z": -3.1514113656,
				"element": "H" 
			},
			{
				"x": 2.0793301305,
				"y": 0.1561912058,
				"z": -2.4925170497,
				"element": "H" 
			},
			{
				"x": 1.0654647059,
				"y": 1.1792026139,
				"z": -1.4280819754,
				"element": "H" 
			},
			{
				"x": -1.5731440318,
				"y": 1.0632254594,
				"z": -1.9451136709,
				"element": "H" 
			},
			{
				"x": -1.1368559631,
				"y": 1.4770260377,
				"z": -3.6210221736,
				"element": "H" 
			},
			{
				"x": -2.0207269894,
				"y": -0.0238384669,
				"z": -3.2963154169,
				"element": "H" 
			},
			{
				"x": 1.7090896752,
				"y": -1.4404691355,
				"z": 0.0739156134,
				"element": "H" 
			},
			{
				"x": -1.1210907844,
				"y": -1.1105129402,
				"z": 3.3055016141,
				"element": "H" 
			},
			{
				"x": -2.9938895322,
				"y": -1.3400553873,
				"z": 1.6863168143,
				"element": "H" 
			},
			{
				"x": -2.5106140892,
				"y": -1.6165621537,
				"z": -0.749350451,
				"element": "H" 
			}
		],
		 "valence_orbital": [ 
			{
				"type": "occ",
				"energy": -0.30641,
				"method": "rhf"
			},
			{
				"type": "occ",
				"energy": -0.2938,
				"method": "rhf"
			},
			{
				"type": "occ",
				"energy": -0.26565,
				"method": "rhf"
			},
			{
				"type": "occ",
				"energy": -0.26143,
				"method": "rhf"
			},
			{
				"type": "occ",
				"energy": -0.24498,
				"method": "rhf"
			},
			{
				"type": "unocc",
				"energy": -0.06663,
				"method": "rhf"
			},
			{
				"type": "unocc",
				"energy": -0.05112,
				"method": "rhf"
			},
			{
				"type": "unocc",
				"energy": -0.00689,
				"method": "rhf"
			},
			{
				"type": "unocc",
				"energy": 0.02375,
				"method": "rhf"
			},
			{
				"type": "unocc",
				"energy": 0.04745,
				"method": "rhf"
			}
		],
		"cosmo_sigma_profile": { 
			"-0.025": 0.0,
			"-0.024": 0.0,
			"-0.023": 0.0,
			"-0.022": 0.0,
			"-0.021": 0.0,
			"-0.02": 0.0,
			"-0.019": 0.0,
			"-0.018": 0.0,
			"-0.017": 0.0,
			"-0.016": 0.0,
			"-0.015": 0.0,
			"-0.014": 0.0,
			"-0.013": 0.0,
			"-0.012": 0.0,
			"-0.011": 0.0,
			"-0.01": 0.0,
			"-0.009": 0.668545545667,
			"-0.008": 5.3947706507,
			"-0.007": 9.26371469915,
			"-0.006": 13.7383635994,
			"-0.005": 16.6730550472,
			"-0.004": 24.6827807134,
			"-0.003": 27.8407285537,
			"-0.002": 26.9151254645,
			"-0.001": 20.1773364487,
			"0.0": 19.285598508,
			"0.001": 16.5708030389,
			"0.002": 12.9693870187,
			"0.003": 8.3366717533,
			"0.004": 10.2892418963,
			"0.005": 15.0951680659,
			"0.006": 12.4053056277,
			"0.007": 4.77029677506,
			"0.008": 4.10897097335,
			"0.009": 3.88628135305,
			"0.01": 6.70197772365,
			"0.011": 7.85569178823,
			"0.012": 1.96862891831,
			"0.013": 0.0,
			"0.014": 0.0,
			"0.015": 0.0,
			"0.016": 0.0,
			"0.017": 0.0,
			"0.018": 0.0,
			"0.019": 0.0,
			"0.02": 0.0,
			"0.021": 0.0,
			"0.022": 0.0,
			"0.023": 0.0,
			"0.024": 0.0,
			"0.0": 0.0
		}
	}
}
