{
	 "smiles": "CCCCCCOC1=CC=C(O)C=C1", 
	 "Tm": 319.15, 
	 "num_atms": 32, 
	 "gaussian": { 
		 "optdone": 1, 
		 "sigma_profile": "yes", 
		 "theory": "DFT", 
		 "functional": "B3LYP", 
		 "basiset": "6-31G**", 
		 "properties": { 
			 "R2extent": 4745.5822, 
			 "electric_dipole_moment_norm": 2.42073027205, 
			 "electric_quadrupole_moment_norm": 9.57379175301, 
			 "total_energy": -618.574056211, 
			 "HOMO_LUMO_gap": 0.19455, 
			 "cosmo_polarized_energy": -9.98, 
			 "cosmo_cavitation_energy": 34.24, 
			 "cosmo_dispersion_energy": -24.22, 
			 "cosmo_repulsion_energy": 1.97, 
			 "cosmo_total_nonelectrostatic_energy": 11.99, 
			 "SMD_solvation_energy": 5.87 
		},
		"coords": [
			{
				"x": 3.8304700427,
				"y": 0.0489182009,
				"z": 3.5265904584,
				"element": "C" 
			},
			{
				"x": 2.6288304253,
				"y": 0.0674515388,
				"z": 2.5760086747,
				"element": "C" 
			},
			{
				"x": 1.5581062259,
				"y": -0.968656432,
				"z": 2.9475339658,
				"element": "C" 
			},
			{
				"x": 0.2966683918,
				"y": -0.939382813,
				"z": 2.0696473412,
				"element": "C" 
			},
			{
				"x": 0.5254558473,
				"y": -1.3611680122,
				"z": 0.6114305581,
				"element": "C" 
			},
			{
				"x": -0.7611919628,
				"y": -1.3703636169,
				"z": -0.2179292956,
				"element": "C" 
			},
			{
				"x": -1.3898205786,
				"y": -0.0905187349,
				"z": -0.2959028704,
				"element": "O" 
			},
			{
				"x": -0.9280220589,
				"y": 0.8413687131,
				"z": -1.1903649836,
				"element": "C" 
			},
			{
				"x": -1.5834528722,
				"y": 2.0826105095,
				"z": -1.1572751577,
				"element": "C" 
			},
			{
				"x": -1.2237711311,
				"y": 3.1012356618,
				"z": -2.0285473196,
				"element": "C" 
			},
			{
				"x": -0.1935935586,
				"y": 2.9013177021,
				"z": -2.9569033195,
				"element": "C" 
			},
			{
				"x": 0.1195211258,
				"y": 3.9445242464,
				"z": -3.7905274789,
				"element": "O" 
			},
			{
				"x": 0.46245408,
				"y": 1.6721849238,
				"z": -2.9926752993,
				"element": "C" 
			},
			{
				"x": 0.1017681406,
				"y": 0.642892782,
				"z": -2.1143510935,
				"element": "C" 
			},
			{
				"x": 4.323078365,
				"y": -0.9303755043,
				"z": 3.5240912504,
				"element": "H" 
			},
			{
				"x": 3.523440683,
				"y": 0.259562418,
				"z": 4.5575221858,
				"element": "H" 
			},
			{
				"x": 4.5779871971,
				"y": 0.7970722708,
				"z": 3.2430053696,
				"element": "H" 
			},
			{
				"x": 2.9792749636,
				"y": -0.1056342083,
				"z": 1.5506547461,
				"element": "H" 
			},
			{
				"x": 2.175354144,
				"y": 1.0680593942,
				"z": 2.5765430945,
				"element": "H" 
			},
			{
				"x": 2.0016732488,
				"y": -1.9748489327,
				"z": 2.9173004943,
				"element": "H" 
			},
			{
				"x": 1.2603308263,
				"y": -0.8034101436,
				"z": 3.991962042,
				"element": "H" 
			},
			{
				"x": -0.4579199969,
				"y": -1.6049801109,
				"z": 2.5111996262,
				"element": "H" 
			},
			{
				"x": -0.1400921464,
				"y": 0.0666490266,
				"z": 2.0851998352,
				"element": "H" 
			},
			{
				"x": 1.2595858725,
				"y": -0.7022352603,
				"z": 0.1350222532,
				"element": "H" 
			},
			{
				"x": 0.9493916851,
				"y": -2.3751445109,
				"z": 0.579762789,
				"element": "H" 
			},
			{
				"x": -1.5088919654,
				"y": -2.0114827731,
				"z": 0.2609826713,
				"element": "H" 
			},
			{
				"x": -0.5838813708,
				"y": -1.7705411108,
				"z": -1.2249621831,
				"element": "H" 
			},
			{
				"x": -2.3821167977,
				"y": 2.2238464417,
				"z": -0.4362665656,
				"element": "H" 
			},
			{
				"x": -1.7310860116,
				"y": 4.060163974,
				"z": -2.0055755028,
				"element": "H" 
			},
			{
				"x": 0.8339681762,
				"y": 3.6709123098,
				"z": -4.3795466735,
				"element": "H" 
			},
			{
				"x": 1.2671140914,
				"y": 1.5046008813,
				"z": -3.7060188804,
				"element": "H" 
			},
			{
				"x": 0.6366669189,
				"y": -0.2976288308,
				"z": -2.1676107324,
				"element": "H" 
			}
		],
		 "valence_orbital": [ 
			{
				"type": "occ",
				"energy": -0.31284,
				"method": "rhf"
			},
			{
				"type": "occ",
				"energy": -0.30725,
				"method": "rhf"
			},
			{
				"type": "occ",
				"energy": -0.28698,
				"method": "rhf"
			},
			{
				"type": "occ",
				"energy": -0.24819,
				"method": "rhf"
			},
			{
				"type": "occ",
				"energy": -0.19481,
				"method": "rhf"
			},
			{
				"type": "unocc",
				"energy": -0.00026,
				"method": "rhf"
			},
			{
				"type": "unocc",
				"energy": 0.0306,
				"method": "rhf"
			},
			{
				"type": "unocc",
				"energy": 0.0745,
				"method": "rhf"
			},
			{
				"type": "unocc",
				"energy": 0.09005,
				"method": "rhf"
			},
			{
				"type": "unocc",
				"energy": 0.09576,
				"method": "rhf"
			}
		],
		"cosmo_sigma_profile": { 
			"-0.025": 0.0,
			"-0.024": 0.0,
			"-0.023": 0.0,
			"-0.022": 0.0,
			"-0.021": 0.0,
			"-0.02": 0.0,
			"-0.019": 0.0,
			"-0.018": 0.0717803522533,
			"-0.017": 0.88067778627,
			"-0.016": 1.18408538346,
			"-0.015": 1.13255057947,
			"-0.014": 0.727780593903,
			"-0.013": 1.0868208263,
			"-0.012": 0.94057536775,
			"-0.011": 0.816371560087,
			"-0.01": 1.17537196939,
			"-0.009": 1.1227674162,
			"-0.008": 0.976517838063,
			"-0.007": 2.10876498356,
			"-0.006": 6.29541168084,
			"-0.005": 9.68444004221,
			"-0.004": 12.1320820051,
			"-0.003": 20.6611722583,
			"-0.002": 29.9379913807,
			"-0.001": 31.7556651805,
			"0.0": 34.6270240912,
			"0.001": 29.3222565646,
			"0.002": 16.7574981484,
			"0.003": 9.8308372373,
			"0.004": 13.2622411407,
			"0.005": 14.1191462537,
			"0.006": 11.0645193748,
			"0.007": 3.46772759924,
			"0.008": 2.10924908648,
			"0.009": 2.4761139932,
			"0.01": 2.63101254582,
			"0.011": 3.10092207169,
			"0.012": 1.69027372371,
			"0.013": 0.0703984058842,
			"0.014": 0.0,
			"0.015": 0.0,
			"0.016": 0.0,
			"0.017": 0.0,
			"0.018": 0.0,
			"0.019": 0.0,
			"0.02": 0.0,
			"0.021": 0.0,
			"0.022": 0.0,
			"0.023": 0.0,
			"0.024": 0.0,
			"0.025": 0.0
		}
	}
}
