{
	 "smiles": "[O-][N+](=NC1=CC=CC(OC(=O)C2=CC=CC=C2)=C1)C1=CC(OC(=O)C2=CC=CC=C2)=CC=C1", 
	 "Tm": 448.15, 
	 "num_atms": 51, 
	 "gaussian": { 
		 "optdone": 1, 
		 "sigma_profile": "yes", 
		 "theory": "DFT", 
		 "functional": "B3LYP", 
		 "basiset": "6-31G**", 
		 "properties": { 
			 "R2extent": 22923.774, 
			 "electric_dipole_moment_norm": 3.1062357718, 
			 "electric_quadrupole_moment_norm": 31.0662714586, 
			 "total_energy": -1487.17545567, 
			 "HOMO_LUMO_gap": 0.14387, 
			 "cosmo_polarized_energy": -16.82, 
			 "cosmo_cavitation_energy": 59.05, 
			 "cosmo_dispersion_energy": -41.6, 
			 "cosmo_repulsion_energy": 3.07, 
			 "cosmo_total_nonelectrostatic_energy": 20.52, 
			 "SMD_solvation_energy": 11.93 
		},
		"coords": [
			{
				"x": -1.571487256,
				"y": 2.18862382,
				"z": -3.9570233888,
				"element": "O" 
			},
			{
				"x": -0.9988084174,
				"y": 1.980431981,
				"z": -2.8559605881,
				"element": "N" 
			},
			{
				"x": -1.2763682002,
				"y": 1.0936288837,
				"z": -1.9763971875,
				"element": "N" 
			},
			{
				"x": -2.3266678408,
				"y": 0.1867106096,
				"z": -2.1585487766,
				"element": "C" 
			},
			{
				"x": -3.2133843103,
				"y": 0.0688751018,
				"z": -3.2523940851,
				"element": "C" 
			},
			{
				"x": -4.1949047429,
				"y": -0.9209777168,
				"z": -3.2290235583,
				"element": "C" 
			},
			{
				"x": -4.3237774803,
				"y": -1.7924225488,
				"z": -2.149058829,
				"element": "C" 
			},
			{
				"x": -3.4445279611,
				"y": -1.6675657004,
				"z": -1.0723614111,
				"element": "C" 
			},
			{
				"x": -3.5715151331,
				"y": -2.6195402292,
				"z": -0.0611964365,
				"element": "O" 
			},
			{
				"x": -3.5762229951,
				"y": -2.2460253299,
				"z": 1.2584763855,
				"element": "C" 
			},
			{
				"x": -3.4776701932,
				"y": -1.100066892,
				"z": 1.6356830236,
				"element": "O" 
			},
			{
				"x": -3.7223022815,
				"y": -3.4256580654,
				"z": 2.1546633842,
				"element": "C" 
			},
			{
				"x": -3.8137123259,
				"y": -4.7384955883,
				"z": 1.6701997092,
				"element": "C" 
			},
			{
				"x": -3.9469816944,
				"y": -5.7996424081,
				"z": 2.5640670748,
				"element": "C" 
			},
			{
				"x": -3.9907458467,
				"y": -5.557422452,
				"z": 3.9392969607,
				"element": "C" 
			},
			{
				"x": -3.9002283672,
				"y": -4.2497077034,
				"z": 4.4242937516,
				"element": "C" 
			},
			{
				"x": -3.7656416229,
				"y": -3.1863786507,
				"z": 3.5357578114,
				"element": "C" 
			},
			{
				"x": -2.4524579868,
				"y": -0.6989444254,
				"z": -1.0659124674,
				"element": "C" 
			},
			{
				"x": 0.1285461745,
				"y": 2.8580674454,
				"z": -2.5209579388,
				"element": "C" 
			},
			{
				"x": 0.8243625369,
				"y": 2.6870032141,
				"z": -1.3240186201,
				"element": "C" 
			},
			{
				"x": 1.8837922554,
				"y": 3.5511748546,
				"z": -1.0616825587,
				"element": "C" 
			},
			{
				"x": 2.5899303463,
				"y": 3.5134056668,
				"z": 0.136321566,
				"element": "O" 
			},
			{
				"x": 3.087571048,
				"y": 2.3243337414,
				"z": 0.6163646111,
				"element": "C" 
			},
			{
				"x": 2.9631944092,
				"y": 1.2669807433,
				"z": 0.0418896199,
				"element": "O" 
			},
			{
				"x": 3.792682301,
				"y": 2.5154571221,
				"z": 1.911474022,
				"element": "C" 
			},
			{
				"x": 3.8896696584,
				"y": 3.7631954671,
				"z": 2.5445213515,
				"element": "C" 
			},
			{
				"x": 4.562851297,
				"y": 3.8728717974,
				"z": 3.7599152788,
				"element": "C" 
			},
			{
				"x": 5.1407301265,
				"y": 2.7440521056,
				"z": 4.346224236,
				"element": "C" 
			},
			{
				"x": 5.0454429918,
				"y": 1.4997127588,
				"z": 3.716827681,
				"element": "C" 
			},
			{
				"x": 4.3730428551,
				"y": 1.3841091367,
				"z": 2.5033924849,
				"element": "C" 
			},
			{
				"x": 2.239005443,
				"y": 4.562118838,
				"z": -1.9556792373,
				"element": "C" 
			},
			{
				"x": 1.5201343294,
				"y": 4.7097494981,
				"z": -3.1409227684,
				"element": "C" 
			},
			{
				"x": 0.4587360526,
				"y": 3.8560500374,
				"z": -3.4365416699,
				"element": "C" 
			},
			{
				"x": -3.1260233789,
				"y": 0.7381648502,
				"z": -4.0923002427,
				"element": "H" 
			},
			{
				"x": -4.8740147691,
				"y": -1.0124501726,
				"z": -4.0713965648,
				"element": "H" 
			},
			{
				"x": -5.0859201269,
				"y": -2.5641041058,
				"z": -2.126932165,
				"element": "H" 
			},
			{
				"x": -3.779057651,
				"y": -4.9187914786,
				"z": 0.6022312441,
				"element": "H" 
			},
			{
				"x": -4.0167066858,
				"y": -6.8160902139,
				"z": 2.1881703123,
				"element": "H" 
			},
			{
				"x": -4.0951906062,
				"y": -6.3872206496,
				"z": 4.6326287779,
				"element": "H" 
			},
			{
				"x": -3.9341512253,
				"y": -4.0614527124,
				"z": 5.4932428987,
				"element": "H" 
			},
			{
				"x": -3.6923054715,
				"y": -2.1628707041,
				"z": 3.8873502178,
				"element": "H" 
			},
			{
				"x": -1.7705674513,
				"y": -0.5979880731,
				"z": -0.2328621804,
				"element": "H" 
			},
			{
				"x": 0.5457822293,
				"y": 1.9014849904,
				"z": -0.6385832906,
				"element": "H" 
			},
			{
				"x": 3.4387922271,
				"y": 4.6345273496,
				"z": 2.0843610177,
				"element": "H" 
			},
			{
				"x": 4.6366651717,
				"y": 4.8388546455,
				"z": 4.2504426058,
				"element": "H" 
			},
			{
				"x": 5.6647640033,
				"y": 2.8339394561,
				"z": 5.2935320299,
				"element": "H" 
			},
			{
				"x": 5.4941870495,
				"y": 0.6224743601,
				"z": 4.1730706771,
				"element": "H" 
			},
			{
				"x": 4.2840740669,
				"y": 0.4293220364,
				"z": 1.9964577698,
				"element": "H" 
			},
			{
				"x": 3.0679723276,
				"y": 5.2169929471,
				"z": -1.7095888355,
				"element": "H" 
			},
			{
				"x": 1.789873625,
				"y": 5.4945192582,
				"z": -3.8403367524,
				"element": "H" 
			},
			{
				"x": -0.1144605038,
				"y": 3.944583104,
				"z": -4.3494769503,
				"element": "H" 
			}
		],
		 "valence_orbital": [ 
			{
				"type": "occ",
				"energy": -0.26315,
				"method": "rhf"
			},
			{
				"type": "occ",
				"energy": -0.26054,
				"method": "rhf"
			},
			{
				"type": "occ",
				"energy": -0.25259,
				"method": "rhf"
			},
			{
				"type": "occ",
				"energy": -0.24368,
				"method": "rhf"
			},
			{
				"type": "occ",
				"energy": -0.22389,
				"method": "rhf"
			},
			{
				"type": "unocc",
				"energy": -0.08002,
				"method": "rhf"
			},
			{
				"type": "unocc",
				"energy": -0.05607,
				"method": "rhf"
			},
			{
				"type": "unocc",
				"energy": -0.05113,
				"method": "rhf"
			},
			{
				"type": "unocc",
				"energy": -0.01385,
				"method": "rhf"
			},
			{
				"type": "unocc",
				"energy": -0.01231,
				"method": "rhf"
			}
		],
		"cosmo_sigma_profile": { 
			"-0.025": 0.0,
			"-0.024": 0.0,
			"-0.023": 0.0,
			"-0.022": 0.0,
			"-0.021": 0.0,
			"-0.02": 0.0,
			"-0.019": 0.0,
			"-0.018": 0.0,
			"-0.017": 0.0,
			"-0.016": 0.0,
			"-0.015": 0.0,
			"-0.014": 0.0,
			"-0.013": 0.0,
			"-0.012": 0.0,
			"-0.011": 0.0,
			"-0.01": 0.0,
			"-0.009": 0.0,
			"-0.008": 1.52394589306,
			"-0.007": 12.1419999885,
			"-0.006": 32.4537745527,
			"-0.005": 35.5585623601,
			"-0.004": 32.7663978745,
			"-0.003": 30.0058412461,
			"-0.002": 31.8459616518,
			"-0.001": 31.8529710927,
			"0.0": 39.3149205123,
			"0.001": 52.4947939171,
			"0.002": 57.128567558,
			"0.003": 46.5391650448,
			"0.004": 28.9069081503,
			"0.005": 6.0358562434,
			"0.006": 5.36326784159,
			"0.007": 4.81880379816,
			"0.008": 5.91421575085,
			"0.009": 7.34950730085,
			"0.01": 6.42903021026,
			"0.011": 7.74142588526,
			"0.012": 0.80263981768,
			"0.013": 0.0,
			"0.014": 0.0,
			"0.015": 0.0,
			"0.016": 0.0,
			"0.017": 0.0,
			"0.018": 0.0,
			"0.019": 0.0,
			"0.02": 0.0,
			"0.021": 0.0,
			"0.022": 0.0,
			"0.023": 0.0,
			"0.024": 0.0,
			"0.025": 0.0
		}
	}
}
