{
	 "smiles": "COC1=C(OC(C)=O)C2=C(C=C(C=C2)C#N)C(OC(C)=O)=C1OC", 
	 "Tm": 397.15, 
	 "num_atms": 39, 
	 "gaussian": { 
		 "optdone": 1, 
		 "sigma_profile": "yes", 
		 "theory": "DFT", 
		 "functional": "B3LYP", 
		 "basiset": "6-31G**", 
		 "properties": { 
			 "R2extent": 8077.9161, 
			 "electric_dipole_moment_norm": 6.13793648224, 
			 "electric_quadrupole_moment_norm": 33.79892847, 
			 "total_energy": -1162.91872762, 
			 "HOMO_LUMO_gap": 0.15794, 
			 "cosmo_polarized_energy": -19.06, 
			 "cosmo_cavitation_energy": 45.24, 
			 "cosmo_dispersion_energy": -29.44, 
			 "cosmo_repulsion_energy": 2.27, 
			 "cosmo_total_nonelectrostatic_energy": 18.07, 
			 "SMD_solvation_energy": 12.7 
		},
		"coords": [
			{
				"x": 1.5579901364,
				"y": 3.7464936996,
				"z": 0.3031578989,
				"element": "C" 
			},
			{
				"x": 2.022113713,
				"y": 2.42027985,
				"z": -0.0017317221,
				"element": "O" 
			},
			{
				"x": 1.03281309,
				"y": 1.4825775203,
				"z": -0.1197149308,
				"element": "C" 
			},
			{
				"x": 0.7402374265,
				"y": 0.9621915263,
				"z": -1.3655166656,
				"element": "C" 
			},
			{
				"x": 1.4039259376,
				"y": 1.4459677912,
				"z": -2.4847942275,
				"element": "O" 
			},
			{
				"x": 2.7421284326,
				"y": 1.1207203342,
				"z": -2.6321188894,
				"element": "C" 
			},
			{
				"x": 3.3133783334,
				"y": 1.8597218313,
				"z": -3.8138807283,
				"element": "C" 
			},
			{
				"x": 3.3231082648,
				"y": 0.3572993242,
				"z": -1.9089287807,
				"element": "O" 
			},
			{
				"x": -0.2901770934,
				"y": 0.0059300475,
				"z": -1.5465315037,
				"element": "C" 
			},
			{
				"x": -1.0438001839,
				"y": -0.4111760627,
				"z": -0.4016196098,
				"element": "C" 
			},
			{
				"x": -2.0964219232,
				"y": -1.3412004345,
				"z": -0.5726178456,
				"element": "C" 
			},
			{
				"x": -2.3917311407,
				"y": -1.8457489605,
				"z": -1.8289671109,
				"element": "C" 
			},
			{
				"x": -1.6412478586,
				"y": -1.4315190806,
				"z": -2.9667229828,
				"element": "C" 
			},
			{
				"x": -0.6194330945,
				"y": -0.5263884649,
				"z": -2.8217123938,
				"element": "C" 
			},
			{
				"x": -3.4617954377,
				"y": -2.7866707953,
				"z": -1.9880580833,
				"element": "C" 
			},
			{
				"x": -4.329886151,
				"y": -3.5492580105,
				"z": -2.1249883837,
				"element": "N" 
			},
			{
				"x": -0.7028008135,
				"y": 0.1116820458,
				"z": 0.8751271987,
				"element": "C" 
			},
			{
				"x": -1.4905791922,
				"y": -0.2583803482,
				"z": 1.9571034353,
				"element": "O" 
			},
			{
				"x": -0.9308077593,
				"y": -1.0022510323,
				"z": 2.97300684,
				"element": "C" 
			},
			{
				"x": -1.9335052425,
				"y": -1.179065345,
				"z": 4.0827620441,
				"element": "C" 
			},
			{
				"x": 0.1920635955,
				"y": -1.4365512407,
				"z": 2.9449144661,
				"element": "O" 
			},
			{
				"x": 0.3211009998,
				"y": 1.0269680776,
				"z": 1.0327669028,
				"element": "C" 
			},
			{
				"x": 0.5890119085,
				"y": 1.538091636,
				"z": 2.26956611,
				"element": "O" 
			},
			{
				"x": 1.8986407565,
				"y": 1.2304381604,
				"z": 2.8014666842,
				"element": "C" 
			},
			{
				"x": 1.0140097384,
				"y": 3.7656960386,
				"z": 1.2518277165,
				"element": "H" 
			},
			{
				"x": 2.4517822676,
				"y": 4.3683267732,
				"z": 0.3757480421,
				"element": "H" 
			},
			{
				"x": 0.9148087673,
				"y": 4.1220765387,
				"z": -0.5010686969,
				"element": "H" 
			},
			{
				"x": 2.6854959337,
				"y": 1.7169770149,
				"z": -4.6974146728,
				"element": "H" 
			},
			{
				"x": 4.325088351,
				"y": 1.5048351739,
				"z": -4.0065415042,
				"element": "H" 
			},
			{
				"x": 3.3343028216,
				"y": 2.9321349158,
				"z": -3.596410212,
				"element": "H" 
			},
			{
				"x": -2.6739363091,
				"y": -1.6521714432,
				"z": 0.2890772237,
				"element": "H" 
			},
			{
				"x": -1.8887663229,
				"y": -1.8368234134,
				"z": -3.9416601206,
				"element": "H" 
			},
			{
				"x": -0.0509723731,
				"y": -0.1986565942,
				"z": -3.6841650078,
				"element": "H" 
			},
			{
				"x": -2.8706205731,
				"y": -1.5838239217,
				"z": 3.6909307074,
				"element": "H" 
			},
			{
				"x": -2.1588037428,
				"y": -0.2052835002,
				"z": 4.5282896696,
				"element": "H" 
			},
			{
				"x": -1.5216338259,
				"y": -1.8462002829,
				"z": 4.8389130442,
				"element": "H" 
			},
			{
				"x": 2.0123313552,
				"y": 0.1485891621,
				"z": 2.8987430235,
				"element": "H" 
			},
			{
				"x": 2.6850013329,
				"y": 1.6434085179,
				"z": 2.1658125814,
				"element": "H" 
			},
			{
				"x": 1.9287858752,
				"y": 1.6980629512,
				"z": 3.7869504838,
				"element": "H" 
			}
		],
		 "valence_orbital": [ 
			{
				"type": "occ",
				"energy": -0.28765,
				"method": "rhf"
			},
			{
				"type": "occ",
				"energy": -0.28414,
				"method": "rhf"
			},
			{
				"type": "occ",
				"energy": -0.2813,
				"method": "rhf"
			},
			{
				"type": "occ",
				"energy": -0.24864,
				"method": "rhf"
			},
			{
				"type": "occ",
				"energy": -0.22559,
				"method": "rhf"
			},
			{
				"type": "unocc",
				"energy": -0.06765,
				"method": "rhf"
			},
			{
				"type": "unocc",
				"energy": -0.04053,
				"method": "rhf"
			},
			{
				"type": "unocc",
				"energy": -0.00616,
				"method": "rhf"
			},
			{
				"type": "unocc",
				"energy": -0.002,
				"method": "rhf"
			},
			{
				"type": "unocc",
				"energy": 0.01642,
				"method": "rhf"
			}
		],
		"cosmo_sigma_profile": { 
			"-0.025": 0.0,
			"-0.024": 0.0,
			"-0.023": 0.0,
			"-0.022": 0.0,
			"-0.021": 0.0,
			"-0.02": 0.0,
			"-0.019": 0.0,
			"-0.018": 0.0,
			"-0.017": 0.0,
			"-0.016": 0.0,
			"-0.015": 0.0,
			"-0.014": 0.0,
			"-0.013": 0.0,
			"-0.012": 0.0,
			"-0.011": 0.0,
			"-0.01": 0.0,
			"-0.009": 0.07208604725,
			"-0.008": 3.16927390889,
			"-0.007": 11.4306341923,
			"-0.006": 24.2382749699,
			"-0.005": 27.9632567909,
			"-0.004": 31.4606958325,
			"-0.003": 38.906017778,
			"-0.002": 36.5413732702,
			"-0.001": 26.5514190942,
			"0.0": 28.5929160017,
			"0.001": 24.368314191,
			"0.002": 16.052663352,
			"0.003": 12.0973035509,
			"0.004": 9.50061300515,
			"0.005": 9.3016703529,
			"0.006": 8.58740671934,
			"0.007": 8.90460657067,
			"0.008": 8.81456827699,
			"0.009": 8.84641716556,
			"0.01": 11.3732850363,
			"0.011": 9.9949565638,
			"0.012": 4.25907034844,
			"0.013": 1.3622968622,
			"0.014": 0.0281822508577,
			"0.015": 0.0,
			"0.016": 0.0,
			"0.017": 0.0,
			"0.018": 0.0,
			"0.019": 0.0,
			"0.02": 0.0,
			"0.021": 0.0,
			"0.022": 0.0,
			"0.023": 0.0,
			"0.024": 0.0,
			"0.025": 0.0
		}
	}
}
