{
	 "smiles": "O=C1NC=CC2=C1C=CS2", 
	 "Tm": 433.15, 
	 "num_atms": 15, 
	 "gaussian": { 
		 "optdone": 1, 
		 "sigma_profile": "yes", 
		 "theory": "DFT", 
		 "functional": "B3LYP", 
		 "basiset": "6-31G**", 
		 "properties": { 
			 "R2extent": 1641.5758, 
			 "electric_dipole_moment_norm": 3.15660057815, 
			 "electric_quadrupole_moment_norm": 14.6688345699, 
			 "total_energy": -797.928455214, 
			 "HOMO_LUMO_gap": 0.1684, 
			 "cosmo_polarized_energy": -13.0, 
			 "cosmo_cavitation_energy": 20.85, 
			 "cosmo_dispersion_energy": -16.43, 
			 "cosmo_repulsion_energy": 1.26, 
			 "cosmo_total_nonelectrostatic_energy": 5.68, 
			 "SMD_solvation_energy": 4.35 
		},
		"coords": [
			{
				"x": 2.2788202779,
				"y": -0.0341561661,
				"z": 0.3280620378,
				"element": "O" 
			},
			{
				"x": 1.1630397945,
				"y": -0.3546943261,
				"z": 0.7248785562,
				"element": "C" 
			},
			{
				"x": 1.0103453812,
				"y": -1.3562706792,
				"z": 1.7027450465,
				"element": "N" 
			},
			{
				"x": -0.1783053025,
				"y": -1.8009750028,
				"z": 2.226580438,
				"element": "C" 
			},
			{
				"x": -1.3687126028,
				"y": -1.2793111688,
				"z": 1.819392147,
				"element": "C" 
			},
			{
				"x": -1.3139977164,
				"y": -0.2554117499,
				"z": 0.8288869302,
				"element": "C" 
			},
			{
				"x": -0.1103615613,
				"y": 0.2026123801,
				"z": 0.2910111981,
				"element": "C" 
			},
			{
				"x": -0.2833086575,
				"y": 1.2319075795,
				"z": -0.6858757434,
				"element": "C" 
			},
			{
				"x": -1.593763278,
				"y": 1.5453863767,
				"z": -0.8823610458,
				"element": "C" 
			},
			{
				"x": -2.664218658,
				"y": 0.5921482146,
				"z": 0.1211076172,
				"element": "S" 
			},
			{
				"x": 1.8840596947,
				"y": -1.7571322985,
				"z": 2.0190904928,
				"element": "H" 
			},
			{
				"x": -0.1035701036,
				"y": -2.5825620069,
				"z": 2.9737417669,
				"element": "H" 
			},
			{
				"x": -2.3018958025,
				"y": -1.6347221557,
				"z": 2.236737295,
				"element": "H" 
			},
			{
				"x": 0.5462299254,
				"y": 1.6986938607,
				"z": -1.2019920876,
				"element": "H" 
			},
			{
				"x": -2.0145613912,
				"y": 2.2794871425,
				"z": -1.555304649,
				"element": "H" 
			}
		],
		 "valence_orbital": [ 
			{
				"type": "occ",
				"energy": -0.3446,
				"method": "rhf"
			},
			{
				"type": "occ",
				"energy": -0.27723,
				"method": "rhf"
			},
			{
				"type": "occ",
				"energy": -0.25804,
				"method": "rhf"
			},
			{
				"type": "occ",
				"energy": -0.2521,
				"method": "rhf"
			},
			{
				"type": "occ",
				"energy": -0.20834,
				"method": "rhf"
			},
			{
				"type": "unocc",
				"energy": -0.03994,
				"method": "rhf"
			},
			{
				"type": "unocc",
				"energy": 0.00223,
				"method": "rhf"
			},
			{
				"type": "unocc",
				"energy": 0.0161,
				"method": "rhf"
			},
			{
				"type": "unocc",
				"energy": 0.03504,
				"method": "rhf"
			},
			{
				"type": "unocc",
				"energy": 0.07106,
				"method": "rhf"
			}
		],
		"cosmo_sigma_profile": { 
			"-0.025": 0.0,
			"-0.024": 0.0,
			"-0.023": 0.0,
			"-0.022": 0.0,
			"-0.021": 0.0,
			"-0.02": 0.0,
			"-0.019": 0.0,
			"-0.018": 0.0,
			"-0.017": 0.0,
			"-0.016": 0.724568680681,
			"-0.015": 1.43321928756,
			"-0.014": 1.66046482421,
			"-0.013": 0.86931030202,
			"-0.012": 1.0171277206,
			"-0.011": 0.922469252652,
			"-0.01": 1.93585106643,
			"-0.009": 3.91235850091,
			"-0.008": 6.79878399074,
			"-0.007": 7.31589525913,
			"-0.006": 7.95505820797,
			"-0.005": 7.15708604121,
			"-0.004": 6.90377859042,
			"-0.003": 6.68473883289,
			"-0.002": 7.27634118984,
			"-0.001": 7.48784015433,
			"0.0": 13.9221626058,
			"0.001": 14.2218852813,
			"0.002": 20.0724909883,
			"0.003": 17.5232184664,
			"0.004": 10.4755735981,
			"0.005": 4.06860860364,
			"0.006": 1.33906438448,
			"0.007": 1.08253744463,
			"0.008": 1.21496044978,
			"0.009": 1.15167162738,
			"0.01": 1.33782702256,
			"0.011": 1.74767550615,
			"0.012": 1.12898050994,
			"0.013": 3.27114028875,
			"0.014": 6.36382587578,
			"0.015": 1.25025187052,
			"0.016": 0.0,
			"0.017": 0.0,
			"0.018": 0.0,
			"0.019": 0.0,
			"0.02": 0.0,
			"0.021": 0.0,
			"0.022": 0.0,
			"0.023": 0.0,
			"0.024": 0.0,
			"0.025": 0.0
		}
	}
}
