{
	 "smiles": "COC1OC(=O)C2=CC=CC=C12", 
	 "Tm": 317.15, 
	 "num_atms": 20, 
	 "gaussian": { 
		 "optdone": 1, 
		 "sigma_profile": "yes", 
		 "theory": "DFT", 
		 "functional": "B3LYP", 
		 "basiset": "6-31G**", 
		 "properties": { 
			 "R2extent": 2222.2814, 
			 "electric_dipole_moment_norm": 4.73479929247, 
			 "electric_quadrupole_moment_norm": 12.8227873627, 
			 "total_energy": -573.447146993, 
			 "HOMO_LUMO_gap": 0.21454, 
			 "cosmo_polarized_energy": -11.18, 
			 "cosmo_cavitation_energy": 24.17, 
			 "cosmo_dispersion_energy": -17.63, 
			 "cosmo_repulsion_energy": 1.41, 
			 "cosmo_total_nonelectrostatic_energy": 7.95, 
			 "SMD_solvation_energy": 5.67 
		},
		"coords": [
			{
				"x": -0.8338321226,
				"y": 0.5000803001,
				"z": 2.1614761161,
				"element": "C" 
			},
			{
				"x": -0.0097347653,
				"y": 1.6172270426,
				"z": 1.8244376177,
				"element": "O" 
			},
			{
				"x": 1.1503753486,
				"y": 1.3277050808,
				"z": 1.1194497905,
				"element": "C" 
			},
			{
				"x": 2.0321799994,
				"y": 0.4551605677,
				"z": 1.8713571408,
				"element": "O" 
			},
			{
				"x": 2.416241661,
				"y": -0.6424828036,
				"z": 1.1314168211,
				"element": "C" 
			},
			{
				"x": 3.1628413126,
				"y": -1.4867860038,
				"z": 1.5563266896,
				"element": "O" 
			},
			{
				"x": 1.7513669569,
				"y": -0.5423797329,
				"z": -0.19086863,
				"element": "C" 
			},
			{
				"x": 1.8124976217,
				"y": -1.4061073414,
				"z": -1.2818967544,
				"element": "C" 
			},
			{
				"x": 1.0596122796,
				"y": -1.072725643,
				"z": -2.4088949434,
				"element": "C" 
			},
			{
				"x": 0.2719550395,
				"y": 0.0888417746,
				"z": -2.4266703255,
				"element": "C" 
			},
			{
				"x": 0.2205112032,
				"y": 0.948058151,
				"z": -1.3236325241,
				"element": "C" 
			},
			{
				"x": 0.977419458,
				"y": 0.6108562207,
				"z": -0.2063526247,
				"element": "C" 
			},
			{
				"x": -0.2984932588,
				"y": -0.2057219379,
				"z": 2.8047095707,
				"element": "H" 
			},
			{
				"x": -1.1960967245,
				"y": -0.0228543128,
				"z": 1.2678605656,
				"element": "H" 
			},
			{
				"x": -1.6848153244,
				"y": 0.9111500116,
				"z": 2.7064765475,
				"element": "H" 
			},
			{
				"x": 1.6637218584,
				"y": 2.2888858596,
				"z": 1.0112814185,
				"element": "H" 
			},
			{
				"x": 2.4260956934,
				"y": -2.3005860842,
				"z": -1.2449017659,
				"element": "H" 
			},
			{
				"x": 1.0799948569,
				"y": -1.7166176854,
				"z": -3.2829793366,
				"element": "H" 
			},
			{
				"x": -0.3079811127,
				"y": 0.323688127,
				"z": -3.3145596046,
				"element": "H" 
			},
			{
				"x": -0.393359981,
				"y": 1.8437084092,
				"z": -1.3412357688,
				"element": "H" 
			}
		],
		 "valence_orbital": [ 
			{
				"type": "occ",
				"energy": -0.30945,
				"method": "rhf"
			},
			{
				"type": "occ",
				"energy": -0.2856,
				"method": "rhf"
			},
			{
				"type": "occ",
				"energy": -0.27655,
				"method": "rhf"
			},
			{
				"type": "occ",
				"energy": -0.27586,
				"method": "rhf"
			},
			{
				"type": "occ",
				"energy": -0.2704,
				"method": "rhf"
			},
			{
				"type": "unocc",
				"energy": -0.05586,
				"method": "rhf"
			},
			{
				"type": "unocc",
				"energy": -0.03104,
				"method": "rhf"
			},
			{
				"type": "unocc",
				"energy": 0.04867,
				"method": "rhf"
			},
			{
				"type": "unocc",
				"energy": 0.08585,
				"method": "rhf"
			},
			{
				"type": "unocc",
				"energy": 0.11141,
				"method": "rhf"
			}
		],
		"cosmo_sigma_profile": { 
			"-0.025": 0.0,
			"-0.024": 0.0,
			"-0.023": 0.0,
			"-0.022": 0.0,
			"-0.021": 0.0,
			"-0.02": 0.0,
			"-0.019": 0.0,
			"-0.018": 0.0,
			"-0.017": 0.0,
			"-0.016": 0.0,
			"-0.015": 0.0,
			"-0.014": 0.0,
			"-0.013": 0.0,
			"-0.012": 0.0,
			"-0.011": 0.0,
			"-0.01": 0.0,
			"-0.009": 0.354337455357,
			"-0.008": 3.31632752006,
			"-0.007": 9.08474540487,
			"-0.006": 13.7505797188,
			"-0.005": 16.474547658,
			"-0.004": 17.3721183731,
			"-0.003": 18.3068392035,
			"-0.002": 13.4153949873,
			"-0.001": 12.5647538274,
			"0.0": 11.6103760345,
			"0.001": 11.9226258349,
			"0.002": 13.19622842,
			"0.003": 10.6315591097,
			"0.004": 3.9784241921,
			"0.005": 3.37415912665,
			"0.006": 3.20100509668,
			"0.007": 3.94225939056,
			"0.008": 4.39843956109,
			"0.009": 5.0906847946,
			"0.01": 5.89408497296,
			"0.011": 6.86402343553,
			"0.012": 4.08005792804,
			"0.013": 0.456348293208,
			"0.014": 0.0,
			"0.015": 0.0,
			"0.016": 0.0,
			"0.017": 0.0,
			"0.018": 0.0,
			"0.019": 0.0,
			"0.02": 0.0,
			"0.021": 0.0,
			"0.022": 0.0,
			"0.023": 0.0,
			"0.024": 0.0,
			"0.025": 0.0
		}
	}
}
