{
	 "smiles": "CC(=O)C1=C(O)C=C(F)C(Br)=C1", 
	 "Tm": 351.15, 
	 "num_atms": 18, 
	 "gaussian": { 
		 "optdone": 1, 
		 "sigma_profile": "yes", 
		 "theory": "DFT", 
		 "functional": "B3LYP", 
		 "basiset": "6-31G**", 
		 "properties": { 
			 "R2extent": 5708.495, 
			 "electric_dipole_moment_norm": 4.71429650531, 
			 "electric_quadrupole_moment_norm": 5.09395318196, 
			 "total_energy": -3130.14646806, 
			 "HOMO_LUMO_gap": 0.18039, 
			 "cosmo_polarized_energy": -12.62, 
			 "cosmo_cavitation_energy": 25.35, 
			 "cosmo_dispersion_energy": -18.99, 
			 "cosmo_repulsion_energy": 1.49, 
			 "cosmo_total_nonelectrostatic_energy": 7.85, 
			 "SMD_solvation_energy": 4.81 
		},
		"coords": [
			{
				"x": -0.0821602545,
				"y": 0.2009798808,
				"z": -2.6059360582,
				"element": "C" 
			},
			{
				"x": -0.4350101782,
				"y": -1.1390242629,
				"z": -1.9957281377,
				"element": "C" 
			},
			{
				"x": -0.8100264074,
				"y": -2.0578939867,
				"z": -2.7099992731,
				"element": "O" 
			},
			{
				"x": -0.3314330667,
				"y": -1.3632126458,
				"z": -0.5090116967,
				"element": "C" 
			},
			{
				"x": 0.0829397549,
				"y": -0.4154788437,
				"z": 0.4524366793,
				"element": "C" 
			},
			{
				"x": 0.4345810938,
				"y": 0.8378165042,
				"z": 0.0534208653,
				"element": "O" 
			},
			{
				"x": 0.1319043563,
				"y": -0.763071189,
				"z": 1.8079079769,
				"element": "C" 
			},
			{
				"x": -0.2273197357,
				"y": -2.0407651236,
				"z": 2.2085778597,
				"element": "C" 
			},
			{
				"x": -0.1703445293,
				"y": -2.343149349,
				"z": 3.510546626,
				"element": "F" 
			},
			{
				"x": -0.6411025988,
				"y": -2.9989885455,
				"z": 1.2807426931,
				"element": "C" 
			},
			{
				"x": -1.1254213178,
				"y": -4.7390051082,
				"z": 1.8679077751,
				"element": "Br" 
			},
			{
				"x": -0.6861347044,
				"y": -2.6459157419,
				"z": -0.0578557612,
				"element": "C" 
			},
			{
				"x": -0.7047572161,
				"y": 0.9979106911,
				"z": -2.1886913325,
				"element": "H" 
			},
			{
				"x": 0.9540837133,
				"y": 0.4724093895,
				"z": -2.3839322666,
				"element": "H" 
			},
			{
				"x": -0.2312813753,
				"y": 0.1308390645,
				"z": -3.6839909376,
				"element": "H" 
			},
			{
				"x": 0.6898104523,
				"y": 1.3601077304,
				"z": 0.8252479195,
				"element": "H" 
			},
			{
				"x": 0.4478203644,
				"y": -0.0496905588,
				"z": 2.5636122,
				"element": "H" 
			},
			{
				"x": -1.0017483508,
				"y": -3.3612679053,
				"z": -0.8084551312,
				"element": "H" 
			}
		],
		 "valence_orbital": [ 
			{
				"type": "occ",
				"energy": -0.30642,
				"method": "rhf"
			},
			{
				"type": "occ",
				"energy": -0.29318,
				"method": "rhf"
			},
			{
				"type": "occ",
				"energy": -0.27072,
				"method": "rhf"
			},
			{
				"type": "occ",
				"energy": -0.25293,
				"method": "rhf"
			},
			{
				"type": "occ",
				"energy": -0.23949,
				"method": "rhf"
			},
			{
				"type": "unocc",
				"energy": -0.0591,
				"method": "rhf"
			},
			{
				"type": "unocc",
				"energy": -0.02062,
				"method": "rhf"
			},
			{
				"type": "unocc",
				"energy": -0.00297,
				"method": "rhf"
			},
			{
				"type": "unocc",
				"energy": 0.0307,
				"method": "rhf"
			},
			{
				"type": "unocc",
				"energy": 0.04516,
				"method": "rhf"
			}
		],
		"cosmo_sigma_profile": { 
			"-0.025": 0.0,
			"-0.024": 0.0,
			"-0.023": 0.0,
			"-0.022": 0.0,
			"-0.021": 0.0,
			"-0.02": 0.0552162083889,
			"-0.019": 1.07281945939,
			"-0.018": 1.32847979421,
			"-0.017": 1.25156509374,
			"-0.016": 0.961167556015,
			"-0.015": 1.17185274378,
			"-0.014": 1.07066137604,
			"-0.013": 0.722412870685,
			"-0.012": 0.721587514743,
			"-0.011": 1.59457882915,
			"-0.01": 1.27322502905,
			"-0.009": 1.63365694528,
			"-0.008": 1.8030077298,
			"-0.007": 1.37695668512,
			"-0.006": 3.04183147732,
			"-0.005": 7.90232038188,
			"-0.004": 9.88268344728,
			"-0.003": 10.7866702459,
			"-0.002": 13.4224486969,
			"-0.001": 22.795148352,
			"0.0": 25.3549417248,
			"0.001": 21.5780773532,
			"0.002": 13.7955583128,
			"0.003": 19.8864901174,
			"0.004": 17.2387602235,
			"0.005": 7.87845569908,
			"0.006": 2.50729479329,
			"0.007": 1.1211266221,
			"0.008": 1.21380670895,
			"0.009": 1.74731766962,
			"0.01": 2.18060659818,
			"0.011": 2.99920745841,
			"0.012": 3.31750833391,
			"0.013": 1.48066051631,
			"0.014": 0.116545339772,
			"0.015": 0.0,
			"0.016": 0.0,
			"0.017": 0.0,
			"0.018": 0.0,
			"0.019": 0.0,
			"0.02": 0.0,
			"0.021": 0.0,
			"0.022": 0.0,
			"0.023": 0.0,
			"0.024": 0.0,
			"0.025": 0.0
		}
	}
}
