{
	 "smiles": "CC(C)COC(=O)C1=CC=C(C=C1)C(=O)OCC(C)C", 
	 "Tm": 328.15, 
	 "num_atms": 42, 
	 "gaussian": { 
		 "optdone": 1, 
		 "sigma_profile": "yes", 
		 "theory": "DFT", 
		 "functional": "B3LYP", 
		 "basiset": "6-31G**", 
		 "properties": { 
			 "R2extent": 11005.535, 
			 "electric_dipole_moment_norm": 3.85564762264, 
			 "electric_quadrupole_moment_norm": 13.0996622605, 
			 "total_energy": -923.915431762, 
			 "HOMO_LUMO_gap": 0.19615, 
			 "cosmo_polarized_energy": -10.31, 
			 "cosmo_cavitation_energy": 45.64, 
			 "cosmo_dispersion_energy": -31.25, 
			 "cosmo_repulsion_energy": 2.43, 
			 "cosmo_total_nonelectrostatic_energy": 16.82, 
			 "SMD_solvation_energy": 9.65 
		},
		"coords": [
			{
				"x": 4.5934976494,
				"y": -1.0158738277,
				"z": -1.4165808027,
				"element": "C" 
			},
			{
				"x": 4.0906039578,
				"y": -1.1917533182,
				"z": -2.8560062141,
				"element": "C" 
			},
			{
				"x": 5.2086446479,
				"y": -1.6843664872,
				"z": -3.786783913,
				"element": "C" 
			},
			{
				"x": 2.9093215059,
				"y": -2.1554964898,
				"z": -2.927682083,
				"element": "C" 
			},
			{
				"x": 1.8140460924,
				"y": -1.5932179134,
				"z": -2.1701439453,
				"element": "O" 
			},
			{
				"x": 0.7116898783,
				"y": -2.366166296,
				"z": -2.0643490444,
				"element": "C" 
			},
			{
				"x": 0.620999868,
				"y": -3.4734738809,
				"z": -2.5581565845,
				"element": "O" 
			},
			{
				"x": -0.374971629,
				"y": -1.7090839396,
				"z": -1.2774103547,
				"element": "C" 
			},
			{
				"x": -1.5613557815,
				"y": -2.4286114401,
				"z": -1.0763144248,
				"element": "C" 
			},
			{
				"x": -2.6043834535,
				"y": -1.8645302783,
				"z": -0.3521605713,
				"element": "C" 
			},
			{
				"x": -2.4746173178,
				"y": -0.5733592328,
				"z": 0.1788125293,
				"element": "C" 
			},
			{
				"x": -1.2894861551,
				"y": 0.1476478459,
				"z": -0.0230109124,
				"element": "C" 
			},
			{
				"x": -0.2440983817,
				"y": -0.417740859,
				"z": -0.7478742836,
				"element": "C" 
			},
			{
				"x": -3.6296629702,
				"y": -0.019615747,
				"z": 0.947716801,
				"element": "C" 
			},
			{
				"x": -4.6700531895,
				"y": -0.6192680013,
				"z": 1.1385338994,
				"element": "O" 
			},
			{
				"x": -3.3955557323,
				"y": 1.226451982,
				"z": 1.4122306727,
				"element": "O" 
			},
			{
				"x": -4.4723928748,
				"y": 1.8291979322,
				"z": 2.1680552938,
				"element": "C" 
			},
			{
				"x": -4.0364980033,
				"y": 3.2227927756,
				"z": 2.616330186,
				"element": "C" 
			},
			{
				"x": -2.8299947904,
				"y": 3.1665313287,
				"z": 3.5653611669,
				"element": "C" 
			},
			{
				"x": -3.7805901353,
				"y": 4.1537185177,
				"z": 1.4216389778,
				"element": "C" 
			},
			{
				"x": 4.9764837846,
				"y": -1.9640494241,
				"z": -1.0196724082,
				"element": "H" 
			},
			{
				"x": 5.4071833829,
				"y": -0.2845373472,
				"z": -1.3743416689,
				"element": "H" 
			},
			{
				"x": 3.7930399261,
				"y": -0.6736832595,
				"z": -0.755189905,
				"element": "H" 
			},
			{
				"x": 3.7384866352,
				"y": -0.2178283428,
				"z": -3.2233949123,
				"element": "H" 
			},
			{
				"x": 5.5789631031,
				"y": -2.6676182595,
				"z": -3.4728653754,
				"element": "H" 
			},
			{
				"x": 4.8647971957,
				"y": -1.7708393301,
				"z": -4.8231545382,
				"element": "H" 
			},
			{
				"x": 6.0565975207,
				"y": -0.9926764409,
				"z": -3.7720688199,
				"element": "H" 
			},
			{
				"x": 3.1623284586,
				"y": -3.1368159397,
				"z": -2.5107018862,
				"element": "H" 
			},
			{
				"x": 2.576124238,
				"y": -2.3108516006,
				"z": -3.9594459545,
				"element": "H" 
			},
			{
				"x": -1.6412735126,
				"y": -3.4252538858,
				"z": -1.496400226,
				"element": "H" 
			},
			{
				"x": -3.5301816339,
				"y": -2.4038016975,
				"z": -0.184227295,
				"element": "H" 
			},
			{
				"x": -1.1934491911,
				"y": 1.1456721576,
				"z": 0.3879260755,
				"element": "H" 
			},
			{
				"x": 0.6734586216,
				"y": 0.1358327769,
				"z": -0.9088482141,
				"element": "H" 
			},
			{
				"x": -5.363529455,
				"y": 1.8696765245,
				"z": 1.5329226334,
				"element": "H" 
			},
			{
				"x": -4.7022713537,
				"y": 1.1837738804,
				"z": 3.0222540604,
				"element": "H" 
			},
			{
				"x": -4.8941252986,
				"y": 3.6194997188,
				"z": 3.1793181448,
				"element": "H" 
			},
			{
				"x": -3.0379913565,
				"y": 2.5380124419,
				"z": 4.4382076829,
				"element": "H" 
			},
			{
				"x": -1.9521058946,
				"y": 2.7546584574,
				"z": 3.0579728746,
				"element": "H" 
			},
			{
				"x": -2.5721669995,
				"y": 4.1673349911,
				"z": 3.9263114556,
				"element": "H" 
			},
			{
				"x": -3.531807747,
				"y": 5.16391161,
				"z": 1.7621946239,
				"element": "H" 
			},
			{
				"x": -2.9477644601,
				"y": 3.7886561225,
				"z": 0.8126288155,
				"element": "H" 
			},
			{
				"x": -4.6622391493,
				"y": 4.2248441757,
				"z": 0.7752684439,
				"element": "H" 
			}
		],
		 "valence_orbital": [ 
			{
				"type": "occ",
				"energy": -0.30151,
				"method": "rhf"
			},
			{
				"type": "occ",
				"energy": -0.27649,
				"method": "rhf"
			},
			{
				"type": "occ",
				"energy": -0.27473,
				"method": "rhf"
			},
			{
				"type": "occ",
				"energy": -0.26492,
				"method": "rhf"
			},
			{
				"type": "occ",
				"energy": -0.26432,
				"method": "rhf"
			},
			{
				"type": "unocc",
				"energy": -0.06817,
				"method": "rhf"
			},
			{
				"type": "unocc",
				"energy": -0.01278,
				"method": "rhf"
			},
			{
				"type": "unocc",
				"energy": 0.01305,
				"method": "rhf"
			},
			{
				"type": "unocc",
				"energy": 0.07297,
				"method": "rhf"
			},
			{
				"type": "unocc",
				"energy": 0.08065,
				"method": "rhf"
			}
		],
		"cosmo_sigma_profile": { 
			"-0.025": 0.0,
			"-0.024": 0.0,
			"-0.023": 0.0,
			"-0.022": 0.0,
			"-0.021": 0.0,
			"-0.02": 0.0,
			"-0.019": 0.0,
			"-0.018": 0.0,
			"-0.017": 0.0,
			"-0.016": 0.0,
			"-0.015": 0.0,
			"-0.014": 0.0,
			"-0.013": 0.0,
			"-0.012": 0.0,
			"-0.011": 0.0,
			"-0.01": 0.0,
			"-0.009": 0.0,
			"-0.008": 0.0,
			"-0.007": 1.08236812843,
			"-0.006": 4.95877385049,
			"-0.005": 13.8420763617,
			"-0.004": 24.2770497045,
			"-0.003": 46.355047894,
			"-0.002": 45.5786841745,
			"-0.001": 41.8584278434,
			"0.0": 44.7145602296,
			"0.001": 51.0223654496,
			"0.002": 34.3392088854,
			"0.003": 11.0090664349,
			"0.004": 5.37780744641,
			"0.005": 4.36839056504,
			"0.006": 3.08497537039,
			"0.007": 2.67341558226,
			"0.008": 1.90741042023,
			"0.009": 3.37371427373,
			"0.01": 4.11419459294,
			"0.011": 6.62362638867,
			"0.012": 7.10375068483,
			"0.013": 0.178296677951,
			"0.014": 0.0,
			"0.015": 0.0,
			"0.016": 0.0,
			"0.017": 0.0,
			"0.018": 0.0,
			"0.019": 0.0,
			"0.02": 0.0,
			"0.021": 0.0,
			"0.022": 0.0,
			"0.023": 0.0,
			"0.024": 0.0,
			"0.025": 0.0
		}
	}
}
