{
	 "smiles": "NC1=CC=C(CN2C=CC=N2)C=C1", 
	 "Tm": 341.15, 
	 "num_atms": 24, 
	 "gaussian": { 
		 "optdone": 1, 
		 "sigma_profile": "yes", 
		 "theory": "DFT", 
		 "functional": "B3LYP", 
		 "basiset": "6-31G**", 
		 "properties": { 
			 "R2extent": 3090.7357, 
			 "electric_dipole_moment_norm": 3.36038642272, 
			 "electric_quadrupole_moment_norm": 7.89157549733, 
			 "total_energy": -551.927244325, 
			 "HOMO_LUMO_gap": 0.20271, 
			 "cosmo_polarized_energy": -13.13, 
			 "cosmo_cavitation_energy": 28.07, 
			 "cosmo_dispersion_energy": -20.23, 
			 "cosmo_repulsion_energy": 1.6, 
			 "cosmo_total_nonelectrostatic_energy": 9.44, 
			 "SMD_solvation_energy": 4.32 
		},
		"coords": [
			{
				"x": 0.4382512923,
				"y": -3.9182130412,
				"z": -2.6785132288,
				"element": "N" 
			},
			{
				"x": 0.4468049093,
				"y": -3.0214260573,
				"z": -1.6089936457,
				"element": "C" 
			},
			{
				"x": 1.3612647662,
				"y": -3.1653307648,
				"z": -0.5534584035,
				"element": "C" 
			},
			{
				"x": 1.3246051288,
				"y": -2.2961867292,
				"z": 0.5353525329,
				"element": "C" 
			},
			{
				"x": 0.3824061363,
				"y": -1.2667284276,
				"z": 0.6128116829,
				"element": "C" 
			},
			{
				"x": 0.3349746362,
				"y": -0.3373608531,
				"z": 1.8087054491,
				"element": "C" 
			},
			{
				"x": 0.4675647318,
				"y": 1.0773058343,
				"z": 1.4655653078,
				"element": "N" 
			},
			{
				"x": 1.6063029832,
				"y": 1.772136473,
				"z": 1.2040596185,
				"element": "C" 
			},
			{
				"x": 1.2220965947,
				"y": 3.0462350648,
				"z": 0.8289974793,
				"element": "C" 
			},
			{
				"x": -0.1877752045,
				"y": 3.0164656643,
				"z": 0.8862838102,
				"element": "C" 
			},
			{
				"x": -0.6441536771,
				"y": 1.8223351739,
				"z": 1.2682813502,
				"element": "N" 
			},
			{
				"x": -0.5307532715,
				"y": -1.1258000052,
				"z": -0.442012248,
				"element": "C" 
			},
			{
				"x": -0.5007375398,
				"y": -1.9829328527,
				"z": -1.5351021447,
				"element": "C" 
			},
			{
				"x": 1.3141570128,
				"y": -4.3922047395,
				"z": -2.8504663466,
				"element": "H" 
			},
			{
				"x": 0.0266835178,
				"y": -3.5658816093,
				"z": -3.5317127881,
				"element": "H" 
			},
			{
				"x": 2.1015301683,
				"y": -3.961017757,
				"z": -0.5885946457,
				"element": "H" 
			},
			{
				"x": 2.0464956915,
				"y": -2.4268140683,
				"z": 1.338830205,
				"element": "H" 
			},
			{
				"x": -0.6190608414,
				"y": -0.4172039954,
				"z": 2.3371474749,
				"element": "H" 
			},
			{
				"x": 1.1303466296,
				"y": -0.5917103586,
				"z": 2.5162544557,
				"element": "H" 
			},
			{
				"x": 2.580409116,
				"y": 1.3155913773,
				"z": 1.3039840019,
				"element": "H" 
			},
			{
				"x": 1.8647682387,
				"y": 3.8729590074,
				"z": 0.5653742217,
				"element": "H" 
			},
			{
				"x": -0.8887327646,
				"y": 3.8133932927,
				"z": 0.6756341158,
				"element": "H" 
			},
			{
				"x": -1.2627468579,
				"y": -0.3236531449,
				"z": -0.405111625,
				"element": "H" 
			},
			{
				"x": -1.2191013966,
				"y": -1.8573574835,
				"z": -2.3418166298,
				"element": "H" 
			}
		],
		 "valence_orbital": [ 
			{
				"type": "occ",
				"energy": -0.27776,
				"method": "rhf"
			},
			{
				"type": "occ",
				"energy": -0.24713,
				"method": "rhf"
			},
			{
				"type": "occ",
				"energy": -0.2397,
				"method": "rhf"
			},
			{
				"type": "occ",
				"energy": -0.2351,
				"method": "rhf"
			},
			{
				"type": "occ",
				"energy": -0.20134,
				"method": "rhf"
			},
			{
				"type": "unocc",
				"energy": 0.00137,
				"method": "rhf"
			},
			{
				"type": "unocc",
				"energy": 0.01113,
				"method": "rhf"
			},
			{
				"type": "unocc",
				"energy": 0.02981,
				"method": "rhf"
			},
			{
				"type": "unocc",
				"energy": 0.07873,
				"method": "rhf"
			},
			{
				"type": "unocc",
				"energy": 0.08041,
				"method": "rhf"
			}
		],
		"cosmo_sigma_profile": { 
			"-0.025": 0.0,
			"-0.024": 0.0,
			"-0.023": 0.0,
			"-0.022": 0.0,
			"-0.021": 0.0,
			"-0.02": 0.0,
			"-0.019": 0.0,
			"-0.018": 0.0,
			"-0.017": 0.0,
			"-0.016": 0.0,
			"-0.015": 0.0,
			"-0.014": 0.0,
			"-0.013": 0.163600991686,
			"-0.012": 2.71025303155,
			"-0.011": 1.96131717114,
			"-0.01": 3.5238413629,
			"-0.009": 3.55770482278,
			"-0.008": 5.3841048634,
			"-0.007": 7.44853929186,
			"-0.006": 15.2844315171,
			"-0.005": 13.3265335635,
			"-0.004": 15.560215987,
			"-0.003": 16.2559512452,
			"-0.002": 12.8569791793,
			"-0.001": 11.7335859622,
			"0.0": 10.2218856176,
			"0.001": 10.6977019958,
			"0.002": 11.3241952561,
			"0.003": 11.9626921451,
			"0.004": 14.2648523141,
			"0.005": 16.1919036293,
			"0.006": 17.2191975936,
			"0.007": 7.80151919734,
			"0.008": 2.25076232422,
			"0.009": 2.5894496698,
			"0.01": 1.46379422755,
			"0.011": 1.66965554704,
			"0.012": 1.84240518975,
			"0.013": 1.29163757346,
			"0.014": 1.54943232586,
			"0.015": 0.976001185144,
			"0.016": 0.454605199772,
			"0.017": 0.0344042999502,
			"0.018": 0.0,
			"0.019": 0.0,
			"0.02": 0.0,
			"0.021": 0.0,
			"0.022": 0.0,
			"0.023": 0.0,
			"0.024": 0.0,
			"0.025": 0.0
		}
	}
}
