{
	 "smiles": "[O-][N+](=O)C1=CC2=C(C=C1)N=C(Cl)C=C2C#N", 
	 "Tm": 447.15, 
	 "num_atms": 20, 
	 "gaussian": { 
		 "optdone": 1, 
		 "sigma_profile": "yes", 
		 "theory": "DFT", 
		 "functional": "B3LYP", 
		 "basiset": "6-31G**", 
		 "properties": { 
			 "R2extent": 4712.9732, 
			 "electric_dipole_moment_norm": 3.61433274201, 
			 "electric_quadrupole_moment_norm": 16.2848335497, 
			 "total_energy": -1158.25178612, 
			 "HOMO_LUMO_gap": 0.15726, 
			 "cosmo_polarized_energy": -12.96, 
			 "cosmo_cavitation_energy": 29.19, 
			 "cosmo_dispersion_energy": -20.93, 
			 "cosmo_repulsion_energy": 1.61, 
			 "cosmo_total_nonelectrostatic_energy": 9.87, 
			 "SMD_solvation_energy": 6.64 
		},
		"coords": [
			{
				"x": -3.9579303598,
				"y": -0.9522749098,
				"z": -1.4530653585,
				"element": "O" 
			},
			{
				"x": -3.1809985808,
				"y": -1.7030206598,
				"z": -0.8680793661,
				"element": "N" 
			},
			{
				"x": -3.4562414981,
				"y": -2.8299702526,
				"z": -0.4605271736,
				"element": "O" 
			},
			{
				"x": -1.8071975616,
				"y": -1.2175342434,
				"z": -0.6334377323,
				"element": "C" 
			},
			{
				"x": -1.4676760101,
				"y": 0.0398451882,
				"z": -1.0777938763,
				"element": "C" 
			},
			{
				"x": -0.15273288,
				"y": 0.5043814192,
				"z": -0.8530106845,
				"element": "C" 
			},
			{
				"x": 0.7883068552,
				"y": -0.3333505631,
				"z": -0.1752606138,
				"element": "C" 
			},
			{
				"x": 0.383703093,
				"y": -1.6220551951,
				"z": 0.2615917055,
				"element": "C" 
			},
			{
				"x": -0.8984334127,
				"y": -2.0642764115,
				"z": 0.0376489712,
				"element": "C" 
			},
			{
				"x": 2.0724682771,
				"y": 0.0569483917,
				"z": 0.0724000264,
				"element": "N" 
			},
			{
				"x": 2.4424218259,
				"y": 1.2385628068,
				"z": -0.3283890803,
				"element": "C" 
			},
			{
				"x": 4.095010197,
				"y": 1.7246456717,
				"z": -0.0025310761,
				"element": "Cl" 
			},
			{
				"x": 1.6146836193,
				"y": 2.1685646254,
				"z": -1.0098499065,
				"element": "C" 
			},
			{
				"x": 0.3123948514,
				"y": 1.794355771,
				"z": -1.2705926252,
				"element": "C" 
			},
			{
				"x": -0.5681551202,
				"y": 2.6946444268,
				"z": -1.9562391209,
				"element": "C" 
			},
			{
				"x": -1.288497581,
				"y": 3.4186529387,
				"z": -2.5116240097,
				"element": "N" 
			},
			{
				"x": -2.2029902214,
				"y": 0.6509457598,
				"z": -1.5880717056,
				"element": "H" 
			},
			{
				"x": 1.1173086366,
				"y": -2.2354156561,
				"z": 0.7723855642,
				"element": "H" 
			},
			{
				"x": -1.2338303725,
				"y": -3.0418569805,
				"z": 0.3597303757,
				"element": "H" 
			},
			{
				"x": 1.9985862425,
				"y": 3.1348078727,
				"z": -1.3109843136,
				"element": "H" 
			}
		],
		 "valence_orbital": [ 
			{
				"type": "occ",
				"energy": -0.32396,
				"method": "rhf"
			},
			{
				"type": "occ",
				"energy": -0.31448,
				"method": "rhf"
			},
			{
				"type": "occ",
				"energy": -0.30658,
				"method": "rhf"
			},
			{
				"type": "occ",
				"energy": -0.29553,
				"method": "rhf"
			},
			{
				"type": "occ",
				"energy": -0.28194,
				"method": "rhf"
			},
			{
				"type": "unocc",
				"energy": -0.12468,
				"method": "rhf"
			},
			{
				"type": "unocc",
				"energy": -0.09858,
				"method": "rhf"
			},
			{
				"type": "unocc",
				"energy": -0.05291,
				"method": "rhf"
			},
			{
				"type": "unocc",
				"energy": -0.03452,
				"method": "rhf"
			},
			{
				"type": "unocc",
				"energy": -0.00699,
				"method": "rhf"
			}
		],
		"cosmo_sigma_profile": { 
			"-0.025": 0.0,
			"-0.024": 0.0,
			"-0.023": 0.0,
			"-0.022": 0.0,
			"-0.021": 0.0,
			"-0.02": 0.0,
			"-0.019": 0.0,
			"-0.018": 0.0,
			"-0.017": 0.0,
			"-0.016": 0.0,
			"-0.015": 0.0,
			"-0.014": 0.0,
			"-0.013": 0.0,
			"-0.012": 0.0,
			"-0.011": 1.19275478419,
			"-0.01": 2.27157919891,
			"-0.009": 2.30639889281,
			"-0.008": 5.3731276562,
			"-0.007": 8.42880597542,
			"-0.006": 12.565307584,
			"-0.005": 15.7264466268,
			"-0.004": 21.4784229047,
			"-0.003": 24.0263107728,
			"-0.002": 18.1920420475,
			"-0.001": 15.1931960219,
			"0.0": 14.3702079103,
			"0.001": 10.5583917896,
			"0.002": 11.0880867043,
			"0.003": 14.6248015605,
			"0.004": 8.77688726026,
			"0.005": 7.80483021212,
			"0.006": 9.15354030487,
			"0.007": 13.041241403,
			"0.008": 9.46053021051,
			"0.009": 7.16353325363,
			"0.01": 3.91309256445,
			"0.011": 2.85013395007,
			"0.012": 0.860731987092,
			"0.013": 0.0,
			"0.014": 0.0,
			"0.015": 0.0,
			"0.016": 0.0,
			"0.017": 0.0,
			"0.018": 0.0,
			"0.019": 0.0,
			"0.02": 0.0,
			"0.021": 0.0,
			"0.022": 0.0,
			"0.023": 0.0,
			"0.024": 0.0,
			"0.025": 0.0
		}
	}
}
