{
	 "smiles": "CC1=C(O)C(=CC=C1)C(=O)N1CCSCC1", 
	 "Tm": 362.15, 
	 "num_atms": 31, 
	 "gaussian": { 
		 "optdone": 1, 
		 "sigma_profile": "yes", 
		 "theory": "DFT", 
		 "functional": "B3LYP", 
		 "basiset": "6-31G**", 
		 "properties": { 
			 "R2extent": 4717.5202, 
			 "electric_dipole_moment_norm": 4.53284367037, 
			 "electric_quadrupole_moment_norm": 12.4221635285, 
			 "total_energy": -1069.71378181, 
			 "HOMO_LUMO_gap": 0.20043, 
			 "cosmo_polarized_energy": -17.18, 
			 "cosmo_cavitation_energy": 34.05, 
			 "cosmo_dispersion_energy": -25.03, 
			 "cosmo_repulsion_energy": 1.91, 
			 "cosmo_total_nonelectrostatic_energy": 10.93, 
			 "SMD_solvation_energy": 5.11 
		},
		"coords": [
			{
				"x": -3.0195674258,
				"y": 1.6955034994,
				"z": 2.3303554748,
				"element": "C" 
			},
			{
				"x": -2.6338257677,
				"y": 0.8195821908,
				"z": 1.1608139126,
				"element": "C" 
			},
			{
				"x": -1.3305275515,
				"y": 0.8806121062,
				"z": 0.6302099755,
				"element": "C" 
			},
			{
				"x": -0.3908096035,
				"y": 1.7331457191,
				"z": 1.1479566522,
				"element": "O" 
			},
			{
				"x": -0.9502718024,
				"y": 0.0782333847,
				"z": -0.458347548,
				"element": "C" 
			},
			{
				"x": -1.9078722126,
				"y": -0.7615323287,
				"z": -1.0416471321,
				"element": "C" 
			},
			{
				"x": -3.1961506941,
				"y": -0.8470157113,
				"z": -0.523795181,
				"element": "C" 
			},
			{
				"x": -3.5480216467,
				"y": -0.0577156254,
				"z": 0.5722811111,
				"element": "C" 
			},
			{
				"x": 0.3916847134,
				"y": 0.1772935431,
				"z": -1.1415858002,
				"element": "C" 
			},
			{
				"x": 0.441774908,
				"y": 0.3979589353,
				"z": -2.3515290015,
				"element": "O" 
			},
			{
				"x": 1.5345286831,
				"y": -0.0079488119,
				"z": -0.4055252593,
				"element": "N" 
			},
			{
				"x": 1.5651777424,
				"y": -0.5066484261,
				"z": 0.9705095073,
				"element": "C" 
			},
			{
				"x": 2.6219608439,
				"y": -1.5964778955,
				"z": 1.1550656153,
				"element": "C" 
			},
			{
				"x": 4.3375016808,
				"y": -0.9480996373,
				"z": 0.9531560917,
				"element": "S" 
			},
			{
				"x": 3.9591919403,
				"y": 0.4622399442,
				"z": -0.1735423263,
				"element": "C" 
			},
			{
				"x": 2.8046536821,
				"y": 0.1679202055,
				"z": -1.1248319767,
				"element": "C" 
			},
			{
				"x": -2.3934133398,
				"y": 1.5088920957,
				"z": 3.2137867165,
				"element": "H" 
			},
			{
				"x": -2.9439237992,
				"y": 2.7654208869,
				"z": 2.0905226269,
				"element": "H" 
			},
			{
				"x": -4.0542378278,
				"y": 1.5105599626,
				"z": 2.6277639952,
				"element": "H" 
			},
			{
				"x": -0.7908509469,
				"y": 2.2634523513,
				"z": 1.8481958649,
				"element": "H" 
			},
			{
				"x": -1.6197397662,
				"y": -1.3393409571,
				"z": -1.9137613082,
				"element": "H" 
			},
			{
				"x": -3.9252852448,
				"y": -1.5127658335,
				"z": -0.974398489,
				"element": "H" 
			},
			{
				"x": -4.5549817524,
				"y": -0.1121751286,
				"z": 0.9784159036,
				"element": "H" 
			},
			{
				"x": 1.7439810555,
				"y": 0.3100270125,
				"z": 1.6795371887,
				"element": "H" 
			},
			{
				"x": 0.5824303389,
				"y": -0.9245822029,
				"z": 1.1996497588,
				"element": "H" 
			},
			{
				"x": 2.4512409949,
				"y": -2.4152244895,
				"z": 0.4500111437,
				"element": "H" 
			},
			{
				"x": 2.5596641364,
				"y": -1.9998267536,
				"z": 2.1692309363,
				"element": "H" 
			},
			{
				"x": 3.7537361915,
				"y": 1.3611571064,
				"z": 0.4149452001,
				"element": "H" 
			},
			{
				"x": 4.8697793092,
				"y": 0.6387880675,
				"z": -0.7512526602,
				"element": "H" 
			},
			{
				"x": 3.0325357277,
				"y": -0.7212395367,
				"z": -1.7278505974,
				"element": "H" 
			},
			{
				"x": 2.6703374334,
				"y": 0.9957063268,
				"z": -1.8260403953,
				"element": "H" 
			}
		],
		 "valence_orbital": [ 
			{
				"type": "occ",
				"energy": -0.26065,
				"method": "rhf"
			},
			{
				"type": "occ",
				"energy": -0.23721,
				"method": "rhf"
			},
			{
				"type": "occ",
				"energy": -0.23277,
				"method": "rhf"
			},
			{
				"type": "occ",
				"energy": -0.2254,
				"method": "rhf"
			},
			{
				"type": "occ",
				"energy": -0.21991,
				"method": "rhf"
			},
			{
				"type": "unocc",
				"energy": -0.01948,
				"method": "rhf"
			},
			{
				"type": "unocc",
				"energy": 0.00268,
				"method": "rhf"
			},
			{
				"type": "unocc",
				"energy": 0.03628,
				"method": "rhf"
			},
			{
				"type": "unocc",
				"energy": 0.04558,
				"method": "rhf"
			},
			{
				"type": "unocc",
				"energy": 0.05548,
				"method": "rhf"
			}
		],
		"cosmo_sigma_profile": { 
			"-0.025": 0.0,
			"-0.024": 0.0,
			"-0.023": 0.0,
			"-0.022": 0.0,
			"-0.021": 0.0,
			"-0.02": 0.0,
			"-0.019": 0.0,
			"-0.018": 0.0,
			"-0.017": 0.0,
			"-0.016": 0.744584948174,
			"-0.015": 0.679019761188,
			"-0.014": 0.638167175114,
			"-0.013": 1.11434025046,
			"-0.012": 1.16543324923,
			"-0.011": 0.917675604911,
			"-0.01": 1.2877890164,
			"-0.009": 1.56507436653,
			"-0.008": 1.10809373964,
			"-0.007": 2.51510806283,
			"-0.006": 11.9948558201,
			"-0.005": 26.0726098205,
			"-0.004": 31.4682327265,
			"-0.003": 27.6401859249,
			"-0.002": 22.0580580671,
			"-0.001": 19.4433439278,
			"0.0": 14.9828589386,
			"0.001": 12.1805231601,
			"0.002": 11.3773247031,
			"0.003": 12.8877860831,
			"0.004": 11.5628824505,
			"0.005": 13.4399727098,
			"0.006": 9.18337210206,
			"0.007": 5.17993660486,
			"0.008": 4.59148956105,
			"0.009": 5.38752613487,
			"0.01": 4.35171020515,
			"0.011": 3.05861181395,
			"0.012": 2.50812260285,
			"0.013": 2.52628845894,
			"0.014": 4.84831689693,
			"0.015": 1.54276596731,
			"0.016": 0.0840291144711,
			"0.017": 0.0,
			"0.018": 0.0,
			"0.019": 0.0,
			"0.02": 0.0,
			"0.021": 0.0,
			"0.022": 0.0,
			"0.023": 0.0,
			"0.024": 0.0,
			"0.025": 0.0
		}
	}
}
