{
	 "smiles": "CNC1=NC2=C(C=CC=C2)C(=C1)C#N", 
	 "Tm": 440.15, 
	 "num_atms": 23, 
	 "gaussian": { 
		 "optdone": 1, 
		 "sigma_profile": "yes", 
		 "theory": "DFT", 
		 "functional": "B3LYP", 
		 "basiset": "6-31G**", 
		 "properties": { 
			 "R2extent": 3298.5981, 
			 "electric_dipole_moment_norm": 3.85060214642, 
			 "electric_quadrupole_moment_norm": 21.7273619117, 
			 "total_energy": -588.847850177, 
			 "HOMO_LUMO_gap": 0.14301, 
			 "cosmo_polarized_energy": -12.66, 
			 "cosmo_cavitation_energy": 28.1, 
			 "cosmo_dispersion_energy": -20.23, 
			 "cosmo_repulsion_energy": 1.58, 
			 "cosmo_total_nonelectrostatic_energy": 9.45, 
			 "SMD_solvation_energy": 4.3 
		},
		"coords": [
			{
				"x": 0.9473748395,
				"y": 4.1163956921,
				"z": 0.0803660593,
				"element": "C" 
			},
			{
				"x": 1.8657713947,
				"y": 2.9938558588,
				"z": 0.0095852548,
				"element": "N" 
			},
			{
				"x": 1.4528968664,
				"y": 1.7462546752,
				"z": -0.3789121789,
				"element": "C" 
			},
			{
				"x": 0.1564559218,
				"y": 1.5370600302,
				"z": -0.5430603269,
				"element": "N" 
			},
			{
				"x": -0.2677077259,
				"y": 0.2881532013,
				"z": -0.8906192332,
				"element": "C" 
			},
			{
				"x": 0.621320405,
				"y": -0.8114760951,
				"z": -1.103948753,
				"element": "C" 
			},
			{
				"x": 0.1062483727,
				"y": -2.0769729103,
				"z": -1.4703087339,
				"element": "C" 
			},
			{
				"x": -1.2530320076,
				"y": -2.2557863215,
				"z": -1.6221451762,
				"element": "C" 
			},
			{
				"x": -2.1386093945,
				"y": -1.1731294824,
				"z": -1.412813573,
				"element": "C" 
			},
			{
				"x": -1.6600784161,
				"y": 0.0695113567,
				"z": -1.0559830169,
				"element": "C" 
			},
			{
				"x": 2.0191902069,
				"y": -0.5386116538,
				"z": -0.9250894245,
				"element": "C" 
			},
			{
				"x": 2.4365589962,
				"y": 0.7201390101,
				"z": -0.5641499285,
				"element": "C" 
			},
			{
				"x": 2.9896022732,
				"y": -1.5784892999,
				"z": -1.1190676257,
				"element": "C" 
			},
			{
				"x": 3.7717497166,
				"y": -2.4244000617,
				"z": -1.2784587292,
				"element": "N" 
			},
			{
				"x": 0.104750407,
				"y": 3.8665418697,
				"z": 0.7288544651,
				"element": "H" 
			},
			{
				"x": 1.4777059669,
				"y": 4.9743862656,
				"z": 0.4991443598,
				"element": "H" 
			},
			{
				"x": 0.5407300427,
				"y": 4.3887103602,
				"z": -0.9025617918,
				"element": "H" 
			},
			{
				"x": 2.8486963242,
				"y": 3.1975914142,
				"z": -0.0775635036,
				"element": "H" 
			},
			{
				"x": 0.7941965659,
				"y": -2.9023996641,
				"z": -1.6288738833,
				"element": "H" 
			},
			{
				"x": -1.6448117056,
				"y": -3.22850062,
				"z": -1.9027878804,
				"element": "H" 
			},
			{
				"x": -3.2072877643,
				"y": -1.3249675174,
				"z": -1.5351021373,
				"element": "H" 
			},
			{
				"x": -2.3233705855,
				"y": 0.9121665415,
				"z": -0.8914111349,
				"element": "H" 
			},
			{
				"x": 3.4907492999,
				"y": 0.9321673505,
				"z": -0.4179931076,
				"element": "H" 
			}
		],
		 "valence_orbital": [ 
			{
				"type": "occ",
				"energy": -0.30002,
				"method": "rhf"
			},
			{
				"type": "occ",
				"energy": -0.29035,
				"method": "rhf"
			},
			{
				"type": "occ",
				"energy": -0.26673,
				"method": "rhf"
			},
			{
				"type": "occ",
				"energy": -0.24403,
				"method": "rhf"
			},
			{
				"type": "occ",
				"energy": -0.21528,
				"method": "rhf"
			},
			{
				"type": "unocc",
				"energy": -0.07227,
				"method": "rhf"
			},
			{
				"type": "unocc",
				"energy": -0.01403,
				"method": "rhf"
			},
			{
				"type": "unocc",
				"energy": -0.0008,
				"method": "rhf"
			},
			{
				"type": "unocc",
				"energy": 0.03026,
				"method": "rhf"
			},
			{
				"type": "unocc",
				"energy": 0.06571,
				"method": "rhf"
			}
		],
		"cosmo_sigma_profile": { 
			"-0.025": 0.0,
			"-0.024": 0.0,
			"-0.023": 0.0,
			"-0.022": 0.0,
			"-0.021": 0.0,
			"-0.02": 0.0,
			"-0.019": 0.0,
			"-0.018": 0.0,
			"-0.017": 0.0,
			"-0.016": 0.0,
			"-0.015": 0.414681703023,
			"-0.014": 1.5798558998,
			"-0.013": 1.81670172659,
			"-0.012": 1.61121523456,
			"-0.011": 1.25446975298,
			"-0.01": 1.99208687167,
			"-0.009": 3.26214562524,
			"-0.008": 2.21559480187,
			"-0.007": 3.27504679781,
			"-0.006": 9.31762756072,
			"-0.005": 11.4399863252,
			"-0.004": 16.2088009954,
			"-0.003": 15.1543714945,
			"-0.002": 22.4708175734,
			"-0.001": 20.0904939108,
			"0.0": 18.6263555476,
			"0.001": 11.7469298471,
			"0.002": 13.2866559392,
			"0.003": 15.3181376639,
			"0.004": 14.9864584561,
			"0.005": 9.29260301341,
			"0.006": 5.31644228061,
			"0.007": 4.76987323423,
			"0.008": 4.70887048949,
			"0.009": 4.49436702738,
			"0.01": 4.33903577316,
			"0.011": 3.44803781475,
			"0.012": 3.03289017261,
			"0.013": 0.76938064812,
			"0.014": 0.00577522769539,
			"0.015": 0.0,
			"0.016": 0.0,
			"0.017": 0.0,
			"0.018": 0.0,
			"0.019": 0.0,
			"0.02": 0.0,
			"0.021": 0.0,
			"0.022": 0.0,
			"0.023": 0.0,
			"0.024": 0.0,
			"0.025": 0.0
		}
	}
}
