{
	 "smiles": "CCCCC1(CC)C(=O)NC(=O)NC1=O", 
	 "Tm": 400.15, 
	 "num_atms": 31, 
	 "gaussian": { 
		 "optdone": 1, 
		 "sigma_profile": "yes", 
		 "theory": "DFT", 
		 "functional": "B3LYP", 
		 "basiset": "6-31G**", 
		 "properties": { 
			 "R2extent": 4219.4731, 
			 "electric_dipole_moment_norm": 1.19514438458, 
			 "electric_quadrupole_moment_norm": 9.91689045972, 
			 "total_energy": -725.946270108, 
			 "HOMO_LUMO_gap": 0.2195, 
			 "cosmo_polarized_energy": -14.79, 
			 "cosmo_cavitation_energy": 32.41, 
			 "cosmo_dispersion_energy": -22.66, 
			 "cosmo_repulsion_energy": 1.79, 
			 "cosmo_total_nonelectrostatic_energy": 11.54, 
			 "SMD_solvation_energy": 7.4 
		},
		"coords": [
			{
				"x": 1.2855204181,
				"y": -1.5009454761,
				"z": -4.2103547024,
				"element": "C" 
			},
			{
				"x": 0.0313270131,
				"y": -1.0217023323,
				"z": -3.4737785435,
				"element": "C" 
			},
			{
				"x": 0.2991735617,
				"y": 0.2021080118,
				"z": -2.5838495781,
				"element": "C" 
			},
			{
				"x": -0.9454860474,
				"y": 0.7130288221,
				"z": -1.8247844014,
				"element": "C" 
			},
			{
				"x": -1.1751739146,
				"y": 0.2085409838,
				"z": -0.3415332985,
				"element": "C" 
			},
			{
				"x": -0.3916108107,
				"y": 1.056713727,
				"z": 0.7065744018,
				"element": "C" 
			},
			{
				"x": 1.1037326666,
				"y": 1.2946350294,
				"z": 0.4771853371,
				"element": "C" 
			},
			{
				"x": -2.6733199514,
				"y": 0.4669809475,
				"z": -0.1019539255,
				"element": "C" 
			},
			{
				"x": -3.1267297316,
				"y": 1.5736461568,
				"z": 0.1182819814,
				"element": "O" 
			},
			{
				"x": -3.5309460883,
				"y": -0.6194847207,
				"z": -0.2387928672,
				"element": "N" 
			},
			{
				"x": -3.1925943562,
				"y": -1.9617806976,
				"z": -0.3491375044,
				"element": "C" 
			},
			{
				"x": -4.0174006259,
				"y": -2.8497130539,
				"z": -0.417625,
				"element": "O" 
			},
			{
				"x": -1.8233782742,
				"y": -2.1969814477,
				"z": -0.3561360833,
				"element": "N" 
			},
			{
				"x": -0.7936357568,
				"y": -1.2670317943,
				"z": -0.2292255134,
				"element": "C" 
			},
			{
				"x": 0.3502309721,
				"y": -1.6574141618,
				"z": -0.0802471777,
				"element": "O" 
			},
			{
				"x": 1.0667955385,
				"y": -2.3593582983,
				"z": -4.8535034613,
				"element": "H" 
			},
			{
				"x": 2.0652612217,
				"y": -1.8037006522,
				"z": -3.5029530858,
				"element": "H" 
			},
			{
				"x": 1.7008506504,
				"y": -0.7082856008,
				"z": -4.8433436825,
				"element": "H" 
			},
			{
				"x": -0.751714567,
				"y": -0.7704339586,
				"z": -4.2024908148,
				"element": "H" 
			},
			{
				"x": -0.3681821254,
				"y": -1.8457311627,
				"z": -2.8702978319,
				"element": "H" 
			},
			{
				"x": 1.1094550156,
				"y": -0.0310570523,
				"z": -1.8891751856,
				"element": "H" 
			},
			{
				"x": 0.6627738408,
				"y": 1.0188601196,
				"z": -3.2206933022,
				"element": "H" 
			},
			{
				"x": -0.9376514116,
				"y": 1.8047104768,
				"z": -1.7525011535,
				"element": "H" 
			},
			{
				"x": -1.8345950697,
				"y": 0.4605541004,
				"z": -2.4161327483,
				"element": "H" 
			},
			{
				"x": -0.9104427809,
				"y": 2.0179809986,
				"z": 0.7521250042,
				"element": "H" 
			},
			{
				"x": -0.5313602287,
				"y": 0.5853374114,
				"z": 1.6875363698,
				"element": "H" 
			},
			{
				"x": 1.2942475153,
				"y": 1.8437963652,
				"z": -0.4497120852,
				"element": "H" 
			},
			{
				"x": 1.4938649045,
				"y": 1.9053929429,
				"z": 1.2981584569,
				"element": "H" 
			},
			{
				"x": 1.6640535077,
				"y": 0.3591482266,
				"z": 0.4503099123,
				"element": "H" 
			},
			{
				"x": -4.5224559829,
				"y": -0.4248418689,
				"z": -0.1617690676,
				"element": "H" 
			},
			{
				"x": -1.5510091027,
				"y": -3.1730720416,
				"z": -0.338780449,
				"element": "H" 
			}
		],
		 "valence_orbital": [ 
			{
				"type": "occ",
				"energy": -0.31344,
				"method": "rhf"
			},
			{
				"type": "occ",
				"energy": -0.30383,
				"method": "rhf"
			},
			{
				"type": "occ",
				"energy": -0.30167,
				"method": "rhf"
			},
			{
				"type": "occ",
				"energy": -0.28877,
				"method": "rhf"
			},
			{
				"type": "occ",
				"energy": -0.26688,
				"method": "rhf"
			},
			{
				"type": "unocc",
				"energy": -0.04738,
				"method": "rhf"
			},
			{
				"type": "unocc",
				"energy": -0.0069,
				"method": "rhf"
			},
			{
				"type": "unocc",
				"energy": 0.05258,
				"method": "rhf"
			},
			{
				"type": "unocc",
				"energy": 0.0692,
				"method": "rhf"
			},
			{
				"type": "unocc",
				"energy": 0.08512,
				"method": "rhf"
			}
		],
		"cosmo_sigma_profile": { 
			"-0.025": 0.0,
			"-0.024": 0.0,
			"-0.023": 0.0,
			"-0.022": 0.0,
			"-0.021": 0.0,
			"-0.02": 0.0,
			"-0.019": 0.0,
			"-0.018": 0.0,
			"-0.017": 0.289145442377,
			"-0.016": 2.16572474617,
			"-0.015": 0.87534381342,
			"-0.014": 1.86157923251,
			"-0.013": 2.00295894016,
			"-0.012": 1.05131860039,
			"-0.011": 1.72284563294,
			"-0.01": 1.49276727889,
			"-0.009": 2.87041461161,
			"-0.008": 3.9170838659,
			"-0.007": 3.96005740597,
			"-0.006": 4.46646564763,
			"-0.005": 8.92806784874,
			"-0.004": 11.3172150505,
			"-0.003": 25.2828874126,
			"-0.002": 30.2934570846,
			"-0.001": 31.1460913397,
			"0.0": 25.816654446,
			"0.001": 24.9861791756,
			"0.002": 11.2451700806,
			"0.003": 4.76492940015,
			"0.004": 4.73316311266,
			"0.005": 4.43687204705,
			"0.006": 3.82054444161,
			"0.007": 3.99017160755,
			"0.008": 4.21580633243,
			"0.009": 4.32155028749,
			"0.01": 6.42863154485,
			"0.011": 11.6357648535,
			"0.012": 8.36049426849,
			"0.013": 0.147672712007,
			"0.014": 0.0,
			"0.015": 0.0,
			"0.016": 0.0,
			"0.017": 0.0,
			"0.018": 0.0,
			"0.019": 0.0,
			"0.02": 0.0,
			"0.021": 0.0,
			"0.022": 0.0,
			"0.023": 0.0,
			"0.024": 0.0,
			"0.025": 0.0
		}
	}
}
