{
	 "smiles": "COC1=C(OC)C=C(C=C1)C(=O)C(F)(F)F", 
	 "Tm": 351.15, 
	 "num_atms": 25, 
	 "gaussian": { 
		 "optdone": 1, 
		 "sigma_profile": "yes", 
		 "theory": "DFT", 
		 "functional": "B3LYP", 
		 "basiset": "6-31G**", 
		 "properties": { 
			 "R2extent": 7118.3202, 
			 "electric_dipole_moment_norm": 5.95831178271, 
			 "electric_quadrupole_moment_norm": 15.9817146073, 
			 "total_energy": -911.644234573, 
			 "HOMO_LUMO_gap": 0.16535, 
			 "cosmo_polarized_energy": -10.35, 
			 "cosmo_cavitation_energy": 30.94, 
			 "cosmo_dispersion_energy": -21.84, 
			 "cosmo_repulsion_energy": 1.65, 
			 "cosmo_total_nonelectrostatic_energy": 10.75, 
			 "SMD_solvation_energy": 8.72 
		},
		"coords": [
			{
				"x": -0.2791977017,
				"y": -0.5249314323,
				"z": 2.4594796965,
				"element": "C" 
			},
			{
				"x": 0.2480838681,
				"y": -0.4954404915,
				"z": 1.1374790445,
				"element": "O" 
			},
			{
				"x": -0.6064422325,
				"y": -0.3201327429,
				"z": 0.100692947,
				"element": "C" 
			},
			{
				"x": -0.0236126968,
				"y": -0.3437397316,
				"z": -1.1942689218,
				"element": "C" 
			},
			{
				"x": 1.3142720236,
				"y": -0.5849517352,
				"z": -1.3639034714,
				"element": "O" 
			},
			{
				"x": 2.1974602074,
				"y": 0.4658929847,
				"z": -0.9592477447,
				"element": "C" 
			},
			{
				"x": -0.8328681785,
				"y": -0.1944791517,
				"z": -2.3059303467,
				"element": "C" 
			},
			{
				"x": -2.2253598562,
				"y": -0.0172638784,
				"z": -2.1801431073,
				"element": "C" 
			},
			{
				"x": -2.7909317721,
				"y": 0.016389884,
				"z": -0.8976117605,
				"element": "C" 
			},
			{
				"x": -1.9881770913,
				"y": -0.1332891047,
				"z": 0.231103511,
				"element": "C" 
			},
			{
				"x": -3.0026041643,
				"y": 0.1300349508,
				"z": -3.4270758,
				"element": "C" 
			},
			{
				"x": -2.5143109908,
				"y": 0.1073371174,
				"z": -4.541607742,
				"element": "O" 
			},
			{
				"x": -4.5404074285,
				"y": 0.3285096049,
				"z": -3.3192987811,
				"element": "C" 
			},
			{
				"x": -5.1181663341,
				"y": -0.7174284306,
				"z": -2.6840388975,
				"element": "F" 
			},
			{
				"x": -5.0969746203,
				"y": 0.4432125177,
				"z": -4.524442417,
				"element": "F" 
			},
			{
				"x": -4.8327715109,
				"y": 1.4442210519,
				"z": -2.610496166,
				"element": "F" 
			},
			{
				"x": 0.5743623337,
				"y": -0.6963710802,
				"z": 3.1159411141,
				"element": "H" 
			},
			{
				"x": -0.7558864289,
				"y": 0.4268159462,
				"z": 2.7233033514,
				"element": "H" 
			},
			{
				"x": -1.0017392245,
				"y": -1.3402525074,
				"z": 2.5820645425,
				"element": "H" 
			},
			{
				"x": 2.1269550836,
				"y": 0.6595662424,
				"z": 0.1152664297,
				"element": "H" 
			},
			{
				"x": 1.9862065362,
				"y": 1.3885829888,
				"z": -1.5145313664,
				"element": "H" 
			},
			{
				"x": 3.2050269814,
				"y": 0.1232187345,
				"z": -1.2017718318,
				"element": "H" 
			},
			{
				"x": -0.3858761893,
				"y": -0.2256674919,
				"z": -3.2932569184,
				"element": "H" 
			},
			{
				"x": -3.8562044758,
				"y": 0.1550370106,
				"z": -0.7639739708,
				"element": "H" 
			},
			{
				"x": -2.4467361374,
				"y": -0.1116712555,
				"z": 1.2121686068,
				"element": "H" 
			}
		],
		 "valence_orbital": [ 
			{
				"type": "occ",
				"energy": -0.33395,
				"method": "rhf"
			},
			{
				"type": "occ",
				"energy": -0.28629,
				"method": "rhf"
			},
			{
				"type": "occ",
				"energy": -0.27007,
				"method": "rhf"
			},
			{
				"type": "occ",
				"energy": -0.26007,
				"method": "rhf"
			},
			{
				"type": "occ",
				"energy": -0.23661,
				"method": "rhf"
			},
			{
				"type": "unocc",
				"energy": -0.07126,
				"method": "rhf"
			},
			{
				"type": "unocc",
				"energy": -0.01437,
				"method": "rhf"
			},
			{
				"type": "unocc",
				"energy": 0.02709,
				"method": "rhf"
			},
			{
				"type": "unocc",
				"energy": 0.07535,
				"method": "rhf"
			},
			{
				"type": "unocc",
				"energy": 0.08419,
				"method": "rhf"
			}
		],
		"cosmo_sigma_profile": { 
			"-0.025": 0.0,
			"-0.024": 0.0,
			"-0.023": 0.0,
			"-0.022": 0.0,
			"-0.021": 0.0,
			"-0.02": 0.0,
			"-0.019": 0.0,
			"-0.018": 0.0,
			"-0.017": 0.0,
			"-0.016": 0.0,
			"-0.015": 0.0,
			"-0.014": 0.0,
			"-0.013": 0.0,
			"-0.012": 0.0,
			"-0.011": 0.0,
			"-0.01": 0.0,
			"-0.009": 0.0,
			"-0.008": 1.30917109861,
			"-0.007": 6.74226108156,
			"-0.006": 13.4939536193,
			"-0.005": 17.3561995857,
			"-0.004": 19.7935106111,
			"-0.003": 20.5530706692,
			"-0.002": 18.9775696561,
			"-0.001": 15.3702368964,
			"0.0": 18.2012155864,
			"0.001": 26.3569223199,
			"0.002": 40.4933240332,
			"0.003": 13.4050231353,
			"0.004": 4.5200875999,
			"0.005": 4.09036034551,
			"0.006": 3.42517259106,
			"0.007": 3.55567227473,
			"0.008": 4.69590269401,
			"0.009": 4.45991716898,
			"0.01": 6.59175668381,
			"0.011": 3.75652256956,
			"0.012": 0.272514390615,
			"0.013": 0.0,
			"0.014": 0.0,
			"0.015": 0.0,
			"0.016": 0.0,
			"0.017": 0.0,
			"0.018": 0.0,
			"0.019": 0.0,
			"0.02": 0.0,
			"0.021": 0.0,
			"0.022": 0.0,
			"0.023": 0.0,
			"0.024": 0.0,
			"0.025": 0.0
		}
	}
}
