{
	 "smiles": "NNC1=NC=C(C=C1)S(=O)(=O)NCC1=CC=CO1", 
	 "Tm": 418.15, 
	 "num_atms": 30, 
	 "gaussian": { 
		 "optdone": 1, 
		 "sigma_profile": "yes", 
		 "theory": "DFT", 
		 "functional": "B3LYP", 
		 "basiset": "6-31G**", 
		 "properties": { 
			 "R2extent": 5218.2949, 
			 "electric_dipole_moment_norm": 8.23190501585, 
			 "electric_quadrupole_moment_norm": 24.9423322434, 
			 "total_energy": -1231.02563409, 
			 "HOMO_LUMO_gap": 0.19413, 
			 "cosmo_polarized_energy": -23.98, 
			 "cosmo_cavitation_energy": 36.11, 
			 "cosmo_dispersion_energy": -25.58, 
			 "cosmo_repulsion_energy": 1.97, 
			 "cosmo_total_nonelectrostatic_energy": 12.49, 
			 "SMD_solvation_energy": 4.81 
		},
		"coords": [
			{
				"x": -1.3388582708,
				"y": 4.6823273182,
				"z": 2.0853875142,
				"element": "N" 
			},
			{
				"x": -1.3886025218,
				"y": 3.3568384329,
				"z": 2.5219077181,
				"element": "N" 
			},
			{
				"x": -0.564923329,
				"y": 2.4037370674,
				"z": 1.9729544322,
				"element": "C" 
			},
			{
				"x": -0.8746956324,
				"y": 1.1399960855,
				"z": 2.3186218808,
				"element": "N" 
			},
			{
				"x": -0.1007281338,
				"y": 0.1581696353,
				"z": 1.8563914,
				"element": "C" 
			},
			{
				"x": 1.0005009624,
				"y": 0.3820282011,
				"z": 1.0274148087,
				"element": "C" 
			},
			{
				"x": 1.3197134049,
				"y": 1.701940618,
				"z": 0.6755789646,
				"element": "C" 
			},
			{
				"x": 0.5313771934,
				"y": 2.7352831842,
				"z": 1.1472522932,
				"element": "C" 
			},
			{
				"x": 1.992725739,
				"y": -0.9751172891,
				"z": 0.4348128259,
				"element": "S" 
			},
			{
				"x": 1.7825629924,
				"y": -2.104615654,
				"z": 1.3446639765,
				"element": "O" 
			},
			{
				"x": 3.3166974823,
				"y": -0.4221371794,
				"z": 0.1410083379,
				"element": "O" 
			},
			{
				"x": 1.41197406,
				"y": -1.4890332082,
				"z": -1.0538290471,
				"element": "N" 
			},
			{
				"x": 0.266498134,
				"y": -2.3976356819,
				"z": -1.1981218047,
				"element": "C" 
			},
			{
				"x": -1.0403754084,
				"y": -1.7532410911,
				"z": -1.524368069,
				"element": "C" 
			},
			{
				"x": -1.7566615866,
				"y": -1.6330986828,
				"z": -2.6807211502,
				"element": "C" 
			},
			{
				"x": -2.9359255359,
				"y": -0.8831716515,
				"z": -2.3584777749,
				"element": "C" 
			},
			{
				"x": -2.8494684909,
				"y": -0.6014195027,
				"z": -1.0298289598,
				"element": "C" 
			},
			{
				"x": -1.7053825845,
				"y": -1.1248980683,
				"z": -0.5059630107,
				"element": "O" 
			},
			{
				"x": -2.1599921159,
				"y": 4.9183384834,
				"z": 1.5316949403,
				"element": "H" 
			},
			{
				"x": -1.2875494118,
				"y": 5.3068233163,
				"z": 2.8847683143,
				"element": "H" 
			},
			{
				"x": -2.2070947781,
				"y": 2.9902175285,
				"z": 2.9953111754,
				"element": "H" 
			},
			{
				"x": -0.3569141587,
				"y": -0.8518335695,
				"z": 2.1623542457,
				"element": "H" 
			},
			{
				"x": 2.1913090767,
				"y": 1.9019968057,
				"z": 0.0607564383,
				"element": "H" 
			},
			{
				"x": 0.7359143076,
				"y": 3.772332702,
				"z": 0.9153664135,
				"element": "H" 
			},
			{
				"x": 1.5523497742,
				"y": -0.8049461499,
				"z": -1.7889925373,
				"element": "H" 
			},
			{
				"x": 0.5047885448,
				"y": -3.1090057188,
				"z": -1.996122606,
				"element": "H" 
			},
			{
				"x": 0.2043548696,
				"y": -2.9691319641,
				"z": -0.2679426348,
				"element": "H" 
			},
			{
				"x": -1.4806356441,
				"y": -2.0349417787,
				"z": -3.6456191528,
				"element": "H" 
			},
			{
				"x": -3.7360037959,
				"y": -0.598852688,
				"z": -3.0266230233,
				"element": "H" 
			},
			{
				"x": -3.482455143,
				"y": -0.0715495004,
				"z": -0.335235909,
				"element": "H" 
			}
		],
		 "valence_orbital": [ 
			{
				"type": "occ",
				"energy": -0.28328,
				"method": "rhf"
			},
			{
				"type": "occ",
				"energy": -0.27458,
				"method": "rhf"
			},
			{
				"type": "occ",
				"energy": -0.26328,
				"method": "rhf"
			},
			{
				"type": "occ",
				"energy": -0.23066,
				"method": "rhf"
			},
			{
				"type": "occ",
				"energy": -0.21892,
				"method": "rhf"
			},
			{
				"type": "unocc",
				"energy": -0.02479,
				"method": "rhf"
			},
			{
				"type": "unocc",
				"energy": -0.01545,
				"method": "rhf"
			},
			{
				"type": "unocc",
				"energy": 0.00185,
				"method": "rhf"
			},
			{
				"type": "unocc",
				"energy": 0.05928,
				"method": "rhf"
			},
			{
				"type": "unocc",
				"energy": 0.0625,
				"method": "rhf"
			}
		],
		"cosmo_sigma_profile": { 
			"-0.025": 0.0,
			"-0.024": 0.0,
			"-0.023": 0.0,
			"-0.022": 0.0,
			"-0.021": 0.0,
			"-0.02": 0.0,
			"-0.019": 0.0,
			"-0.018": 0.0,
			"-0.017": 0.0,
			"-0.016": 0.0,
			"-0.015": 0.583293181118,
			"-0.014": 1.18772998829,
			"-0.013": 1.73635473268,
			"-0.012": 4.99416191514,
			"-0.011": 6.2899989316,
			"-0.01": 5.89502273602,
			"-0.009": 5.90015334512,
			"-0.008": 6.80815001889,
			"-0.007": 11.3281494346,
			"-0.006": 16.6788596402,
			"-0.005": 15.2045541925,
			"-0.004": 14.093217035,
			"-0.003": 14.1623334617,
			"-0.002": 12.5709498457,
			"-0.001": 12.4794343333,
			"0.0": 14.206912054,
			"0.001": 19.6673939414,
			"0.002": 22.1919562312,
			"0.003": 19.7063344411,
			"0.004": 15.5020899782,
			"0.005": 13.9722773263,
			"0.006": 9.16928770689,
			"0.007": 6.12432931021,
			"0.008": 5.90106479359,
			"0.009": 5.43078782798,
			"0.01": 7.16521254378,
			"0.011": 9.43692886379,
			"0.012": 7.00133039369,
			"0.013": 1.50084994044,
			"0.014": 0.632109979107,
			"0.015": 0.119887683411,
			"0.016": 0.0,
			"0.017": 0.0,
			"0.018": 0.0,
			"0.019": 0.0,
			"0.02": 0.0,
			"0.021": 0.0,
			"0.022": 0.0,
			"0.023": 0.0,
			"0.024": 0.0,
			"0.025": 0.0
		}
	}
}
