{
	 "smiles": "COC1=CC=NC(OC)=N1", 
	 "Tm": 290.15, 
	 "num_atms": 18, 
	 "gaussian": { 
		 "optdone": 1, 
		 "sigma_profile": "yes", 
		 "theory": "DFT", 
		 "functional": "B3LYP", 
		 "basiset": "6-31G**", 
		 "properties": { 
			 "R2extent": 1694.0295, 
			 "electric_dipole_moment_norm": 2.99717292294, 
			 "electric_quadrupole_moment_norm": 7.86546146644, 
			 "total_energy": -493.401209839, 
			 "HOMO_LUMO_gap": 0.21681, 
			 "cosmo_polarized_energy": -9.01, 
			 "cosmo_cavitation_energy": 22.27, 
			 "cosmo_dispersion_energy": -16.49, 
			 "cosmo_repulsion_energy": 1.34, 
			 "cosmo_total_nonelectrostatic_energy": 7.13, 
			 "SMD_solvation_energy": 3.87 
		},
		"coords": [
			{
				"x": -1.0834184468,
				"y": 1.4560885941,
				"z": -2.0223444199,
				"element": "C" 
			},
			{
				"x": 0.323773057,
				"y": 1.2500955947,
				"z": -2.1913473789,
				"element": "O" 
			},
			{
				"x": 0.9204229319,
				"y": 0.3460694154,
				"z": -1.3971802829,
				"element": "C" 
			},
			{
				"x": 2.2985184387,
				"y": 0.1394413711,
				"z": -1.5575096368,
				"element": "C" 
			},
			{
				"x": 2.858841389,
				"y": -0.8051032063,
				"z": -0.7104129428,
				"element": "C" 
			},
			{
				"x": 2.1644777581,
				"y": -1.4911643755,
				"z": 0.2081486187,
				"element": "N" 
			},
			{
				"x": 0.8638495976,
				"y": -1.2006862343,
				"z": 0.258349628,
				"element": "C" 
			},
			{
				"x": 0.1802995919,
				"y": -1.8951910503,
				"z": 1.1824700794,
				"element": "O" 
			},
			{
				"x": -1.2206728332,
				"y": -1.644064749,
				"z": 1.3016809579,
				"element": "C" 
			},
			{
				"x": 0.1964718277,
				"y": -0.3159189323,
				"z": -0.4960495957,
				"element": "N" 
			},
			{
				"x": -1.6409153815,
				"y": 0.5342695984,
				"z": -2.2096765993,
				"element": "H" 
			},
			{
				"x": -1.3526457537,
				"y": 2.2172959352,
				"z": -2.7551732689,
				"element": "H" 
			},
			{
				"x": -1.3110468986,
				"y": 1.8047005976,
				"z": -1.0112516114,
				"element": "H" 
			},
			{
				"x": 2.8692437005,
				"y": 0.6874108276,
				"z": -2.2955803755,
				"element": "H" 
			},
			{
				"x": 3.9227532662,
				"y": -1.0288914683,
				"z": -0.7660892849,
				"element": "H" 
			},
			{
				"x": -1.5646636293,
				"y": -2.3057893092,
				"z": 2.0975057537,
				"element": "H" 
			},
			{
				"x": -1.4157062568,
				"y": -0.6008905989,
				"z": 1.567463358,
				"element": "H" 
			},
			{
				"x": -1.7453823585,
				"y": -1.87097201,
				"z": 0.3688970012,
				"element": "H" 
			}
		],
		 "valence_orbital": [ 
			{
				"type": "occ",
				"energy": -0.32071,
				"method": "rhf"
			},
			{
				"type": "occ",
				"energy": -0.31636,
				"method": "rhf"
			},
			{
				"type": "occ",
				"energy": -0.28646,
				"method": "rhf"
			},
			{
				"type": "occ",
				"energy": -0.25419,
				"method": "rhf"
			},
			{
				"type": "occ",
				"energy": -0.23618,
				"method": "rhf"
			},
			{
				"type": "unocc",
				"energy": -0.01937,
				"method": "rhf"
			},
			{
				"type": "unocc",
				"energy": 0.00027,
				"method": "rhf"
			},
			{
				"type": "unocc",
				"energy": 0.09928,
				"method": "rhf"
			},
			{
				"type": "unocc",
				"energy": 0.1108,
				"method": "rhf"
			},
			{
				"type": "unocc",
				"energy": 0.12635,
				"method": "rhf"
			}
		],
		"cosmo_sigma_profile": { 
			"-0.025": 0.0,
			"-0.024": 0.0,
			"-0.023": 0.0,
			"-0.022": 0.0,
			"-0.021": 0.0,
			"-0.02": 0.0,
			"-0.019": 0.0,
			"-0.018": 0.0,
			"-0.017": 0.0,
			"-0.016": 0.0,
			"-0.015": 0.0,
			"-0.014": 0.0,
			"-0.013": 0.0,
			"-0.012": 0.0,
			"-0.011": 0.0,
			"-0.01": 0.0,
			"-0.009": 0.0,
			"-0.008": 0.978228168719,
			"-0.007": 4.62961764251,
			"-0.006": 9.71895818329,
			"-0.005": 15.1659316271,
			"-0.004": 18.5460164509,
			"-0.003": 19.1045682893,
			"-0.002": 15.1438154157,
			"-0.001": 15.0086764917,
			"0.0": 10.936659874,
			"0.001": 13.8274804627,
			"0.002": 11.1696844902,
			"0.003": 5.71357677159,
			"0.004": 6.78508293026,
			"0.005": 5.14092045318,
			"0.006": 3.72460843857,
			"0.007": 4.06164236601,
			"0.008": 3.52872551378,
			"0.009": 2.41315163943,
			"0.01": 2.34914794101,
			"0.011": 2.10017101685,
			"0.012": 2.39700260339,
			"0.013": 1.22929610521,
			"0.014": 1.60991420328,
			"0.015": 0.865298769733,
			"0.016": 1.23307750704,
			"0.017": 0.0675059375054,
			"0.018": 0.0,
			"0.019": 0.0,
			"0.02": 0.0,
			"0.021": 0.0,
			"0.022": 0.0,
			"0.023": 0.0,
			"0.024": 0.0,
			"0.025": 0.0
		}
	}
}
