{
	 "smiles": "CC1=NOC2=C1C(=CC(C)=N2)C(O)=O", 
	 "Tm": 507.15, 
	 "num_atms": 22, 
	 "gaussian": { 
		 "optdone": 1, 
		 "sigma_profile": "yes", 
		 "theory": "DFT", 
		 "functional": "B3LYP", 
		 "basiset": "6-31G**", 
		 "properties": { 
			 "R2extent": 2906.6486, 
			 "electric_dipole_moment_norm": 4.38851107325, 
			 "electric_quadrupole_moment_norm": 22.1011991218, 
			 "total_energy": -682.925728059, 
			 "HOMO_LUMO_gap": 0.18099, 
			 "cosmo_polarized_energy": -17.94, 
			 "cosmo_cavitation_energy": 26.77, 
			 "cosmo_dispersion_energy": -19.81, 
			 "cosmo_repulsion_energy": 1.54, 
			 "cosmo_total_nonelectrostatic_energy": 8.5, 
			 "SMD_solvation_energy": 4.13 
		},
		"coords": [
			{
				"x": -0.3331331325,
				"y": -0.5058291147,
				"z": -2.7608169664,
				"element": "C" 
			},
			{
				"x": -0.4297469279,
				"y": 0.6315290162,
				"z": -1.7949662512,
				"element": "C" 
			},
			{
				"x": -0.3371803534,
				"y": 1.8596089553,
				"z": -2.2432770022,
				"element": "N" 
			},
			{
				"x": -0.447140593,
				"y": 2.7418895305,
				"z": -1.1466831593,
				"element": "O" 
			},
			{
				"x": -0.60858709,
				"y": 2.0012634747,
				"z": -0.0327256172,
				"element": "C" 
			},
			{
				"x": -0.6124864659,
				"y": 0.634937627,
				"z": -0.3629608074,
				"element": "C" 
			},
			{
				"x": -0.7466926044,
				"y": -0.2664704776,
				"z": 0.706374135,
				"element": "C" 
			},
			{
				"x": -0.8822953914,
				"y": 0.2904374688,
				"z": 1.9812464959,
				"element": "C" 
			},
			{
				"x": -0.8817184484,
				"y": 1.6908513355,
				"z": 2.1745023017,
				"element": "C" 
			},
			{
				"x": -1.0585209815,
				"y": 2.2874847255,
				"z": 3.5462612783,
				"element": "C" 
			},
			{
				"x": -0.7355021465,
				"y": 2.5565685097,
				"z": 1.1616544217,
				"element": "N" 
			},
			{
				"x": -0.8067287645,
				"y": -1.7533550222,
				"z": 0.4978640274,
				"element": "C" 
			},
			{
				"x": -0.2775837083,
				"y": -2.51171097,
				"z": 1.4896587772,
				"element": "O" 
			},
			{
				"x": -1.3080224837,
				"y": -2.2723738337,
				"z": -0.4697905207,
				"element": "O" 
			},
			{
				"x": -0.2038581122,
				"y": -0.112301612,
				"z": -3.770779996,
				"element": "H" 
			},
			{
				"x": -1.2279566994,
				"y": -1.1292890981,
				"z": -2.7112838386,
				"element": "H" 
			},
			{
				"x": 0.5176028759,
				"y": -1.1502515294,
				"z": -2.5182053489,
				"element": "H" 
			},
			{
				"x": -1.0387905834,
				"y": -0.3501718724,
				"z": 2.8437996442,
				"element": "H" 
			},
			{
				"x": -2.0001880699,
				"y": 2.8445565844,
				"z": 3.5959186119,
				"element": "H" 
			},
			{
				"x": -1.0668105361,
				"y": 1.5234007809,
				"z": 4.3270681412,
				"element": "H" 
			},
			{
				"x": -0.2545610709,
				"y": 2.9998684788,
				"z": 3.7531418518,
				"element": "H" 
			},
			{
				"x": 0.1957012875,
				"y": -1.9513429572,
				"z": 2.1214998215,
				"element": "H" 
			}
		],
		 "valence_orbital": [ 
			{
				"type": "occ",
				"energy": -0.31943,
				"method": "rhf"
			},
			{
				"type": "occ",
				"energy": -0.30227,
				"method": "rhf"
			},
			{
				"type": "occ",
				"energy": -0.28604,
				"method": "rhf"
			},
			{
				"type": "occ",
				"energy": -0.27848,
				"method": "rhf"
			},
			{
				"type": "occ",
				"energy": -0.27032,
				"method": "rhf"
			},
			{
				"type": "unocc",
				"energy": -0.08933,
				"method": "rhf"
			},
			{
				"type": "unocc",
				"energy": -0.03178,
				"method": "rhf"
			},
			{
				"type": "unocc",
				"energy": 0.01285,
				"method": "rhf"
			},
			{
				"type": "unocc",
				"energy": 0.02444,
				"method": "rhf"
			},
			{
				"type": "unocc",
				"energy": 0.05365,
				"method": "rhf"
			}
		],
		"cosmo_sigma_profile": { 
			"-0.025": 0.0,
			"-0.024": 0.0,
			"-0.023": 0.0,
			"-0.022": 0.0,
			"-0.021": 0.0,
			"-0.02": 0.0280493599845,
			"-0.019": 0.586276723819,
			"-0.018": 0.90960703587,
			"-0.017": 1.20468426384,
			"-0.016": 0.909293878329,
			"-0.015": 0.7474016134,
			"-0.014": 1.30808465592,
			"-0.013": 1.32857663755,
			"-0.012": 1.36186354047,
			"-0.011": 0.894254699272,
			"-0.01": 1.66991217857,
			"-0.009": 2.1545672411,
			"-0.008": 3.19944910524,
			"-0.007": 4.0843166755,
			"-0.006": 8.37034868255,
			"-0.005": 12.1178133811,
			"-0.004": 14.0394898295,
			"-0.003": 19.893578232,
			"-0.002": 26.3059371678,
			"-0.001": 23.6140484506,
			"0.0": 10.050074719,
			"0.001": 5.99221848897,
			"0.002": 5.52375191615,
			"0.003": 6.66126972001,
			"0.004": 5.39316764716,
			"0.005": 5.96174798039,
			"0.006": 7.38488132617,
			"0.007": 9.45317366345,
			"0.008": 8.93650108533,
			"0.009": 6.66123268372,
			"0.01": 6.71908921815,
			"0.011": 4.81471950588,
			"0.012": 3.50149063588,
			"0.013": 1.92474748195,
			"0.014": 0.515401396308,
			"0.015": 0.0,
			"0.016": 0.0,
			"0.017": 0.0,
			"0.018": 0.0,
			"0.019": 0.0,
			"0.02": 0.0,
			"0.021": 0.0,
			"0.022": 0.0,
			"0.023": 0.0,
			"0.024": 0.0,
			"0.025": 0.0
		}
	}
}
