{
	 "smiles": "CC1=C(CO)C=CC=C1Br", 
	 "Tm": 363.15, 
	 "num_atms": 19, 
	 "gaussian": { 
		 "optdone": 1, 
		 "sigma_profile": "yes", 
		 "theory": "DFT", 
		 "functional": "B3LYP", 
		 "basiset": "6-31G**", 
		 "properties": { 
			 "R2extent": 4020.1024, 
			 "electric_dipole_moment_norm": 2.09277372642, 
			 "electric_quadrupole_moment_norm": 4.31522000598, 
			 "total_energy": -2956.89916066, 
			 "HOMO_LUMO_gap": 0.22158, 
			 "cosmo_polarized_energy": -7.3, 
			 "cosmo_cavitation_energy": 24.05, 
			 "cosmo_dispersion_energy": -18.19, 
			 "cosmo_repulsion_energy": 1.47, 
			 "cosmo_total_nonelectrostatic_energy": 7.33, 
			 "SMD_solvation_energy": 3.16 
		},
		"coords": [
			{
				"x": 1.8494897595,
				"y": 1.4403631435,
				"z": 2.2185200978,
				"element": "C" 
			},
			{
				"x": 1.5133673786,
				"y": 1.0522872274,
				"z": 0.7985531446,
				"element": "C" 
			},
			{
				"x": 0.1709495015,
				"y": 0.9916941538,
				"z": 0.3512512519,
				"element": "C" 
			},
			{
				"x": -0.9836506791,
				"y": 1.3112711566,
				"z": 1.2837087265,
				"element": "C" 
			},
			{
				"x": -1.1172421343,
				"y": 0.4002901268,
				"z": 2.3739317677,
				"element": "O" 
			},
			{
				"x": -0.117185204,
				"y": 0.6322372456,
				"z": -0.9694455583,
				"element": "C" 
			},
			{
				"x": 0.8990426527,
				"y": 0.3347611774,
				"z": -1.8761011184,
				"element": "C" 
			},
			{
				"x": 2.2253503351,
				"y": 0.3996975935,
				"z": -1.4617251082,
				"element": "C" 
			},
			{
				"x": 2.5092977989,
				"y": 0.7574420891,
				"z": -0.1433716408,
				"element": "C" 
			},
			{
				"x": 4.3655167922,
				"y": 0.8513843843,
				"z": 0.3460125115,
				"element": "Br" 
			},
			{
				"x": 2.1463839659,
				"y": 2.4952939307,
				"z": 2.2745969008,
				"element": "H" 
			},
			{
				"x": 1.000636229,
				"y": 1.2753810616,
				"z": 2.8809485113,
				"element": "H" 
			},
			{
				"x": 2.6950626438,
				"y": 0.8569114136,
				"z": 2.5901672834,
				"element": "H" 
			},
			{
				"x": -0.848886186,
				"y": 2.2941545749,
				"z": 1.7468802932,
				"element": "H" 
			},
			{
				"x": -1.9124958902,
				"y": 1.3569439218,
				"z": 0.6960217337,
				"element": "H" 
			},
			{
				"x": -1.1116384758,
				"y": -0.4936822437,
				"z": 2.0067959359,
				"element": "H" 
			},
			{
				"x": -1.1551303991,
				"y": 0.5905265944,
				"z": -1.2899576799,
				"element": "H" 
			},
			{
				"x": 0.6631606228,
				"y": 0.0560255776,
				"z": -2.8986254016,
				"element": "H" 
			},
			{
				"x": 3.0359712883,
				"y": 0.177816871,
				"z": -2.1461616512,
				"element": "H" 
			}
		],
		 "valence_orbital": [ 
			{
				"type": "occ",
				"energy": -0.31065,
				"method": "rhf"
			},
			{
				"type": "occ",
				"energy": -0.28382,
				"method": "rhf"
			},
			{
				"type": "occ",
				"energy": -0.27782,
				"method": "rhf"
			},
			{
				"type": "occ",
				"energy": -0.2515,
				"method": "rhf"
			},
			{
				"type": "occ",
				"energy": -0.24116,
				"method": "rhf"
			},
			{
				"type": "unocc",
				"energy": -0.01958,
				"method": "rhf"
			},
			{
				"type": "unocc",
				"energy": -0.01299,
				"method": "rhf"
			},
			{
				"type": "unocc",
				"energy": 0.00949,
				"method": "rhf"
			},
			{
				"type": "unocc",
				"energy": 0.08391,
				"method": "rhf"
			},
			{
				"type": "unocc",
				"energy": 0.10135,
				"method": "rhf"
			}
		],
		"cosmo_sigma_profile": { 
			"-0.025": 0.0,
			"-0.024": 0.0,
			"-0.023": 0.0,
			"-0.022": 0.0,
			"-0.021": 0.0,
			"-0.02": 0.0,
			"-0.019": 0.0,
			"-0.018": 0.0,
			"-0.017": 0.0,
			"-0.016": 0.19414669559,
			"-0.015": 0.728502021087,
			"-0.014": 0.905299150796,
			"-0.013": 1.02916764693,
			"-0.012": 0.590448570383,
			"-0.011": 1.01352701326,
			"-0.01": 0.66712903174,
			"-0.009": 0.43771015686,
			"-0.008": 1.14935274735,
			"-0.007": 2.49783037143,
			"-0.006": 7.97829398396,
			"-0.005": 10.8913378317,
			"-0.004": 14.4411809089,
			"-0.003": 13.8075114896,
			"-0.002": 16.7498797354,
			"-0.001": 15.0563168213,
			"0.0": 15.7054459207,
			"0.001": 14.8243935514,
			"0.002": 15.3684884156,
			"0.003": 18.6464479713,
			"0.004": 18.3251301949,
			"0.005": 11.4952460071,
			"0.006": 1.78985918905,
			"0.007": 1.02860705978,
			"0.008": 1.00973645583,
			"0.009": 1.04232163524,
			"0.01": 1.25825192495,
			"0.011": 0.920298943746,
			"0.012": 1.45852237584,
			"0.013": 1.14014799842,
			"0.014": 1.50266108674,
			"0.015": 0.0699845940502,
			"0.016": 0.0,
			"0.017": 0.0,
			"0.018": 0.0,
			"0.019": 0.0,
			"0.02": 0.0,
			"0.021": 0.0,
			"0.022": 0.0,
			"0.023": 0.0,
			"0.024": 0.0,
			"0.025": 0.0
		}
	}
}
