{
	 "smiles": "NCCC1=CC(OCCCC2=CC=CC=C2)=CC=C1", 
	 "Tm": 318.15, 
	 "num_atms": 40, 
	 "gaussian": { 
		 "optdone": 1, 
		 "sigma_profile": "yes", 
		 "theory": "DFT", 
		 "functional": "B3LYP", 
		 "basiset": "6-31G**", 
		 "properties": { 
			 "R2extent": 7393.9096, 
			 "electric_dipole_moment_norm": 3.10028868656, 
			 "electric_quadrupole_moment_norm": 12.5641734778, 
			 "total_energy": -790.439872632, 
			 "HOMO_LUMO_gap": 0.21069, 
			 "cosmo_polarized_energy": -11.73, 
			 "cosmo_cavitation_energy": 42.37, 
			 "cosmo_dispersion_energy": -28.7, 
			 "cosmo_repulsion_energy": 2.27, 
			 "cosmo_total_nonelectrostatic_energy": 15.94, 
			 "SMD_solvation_energy": 6.09 
		},
		"coords": [
			{
				"x": -3.578006157,
				"y": -3.0509955086,
				"z": -0.5908164927,
				"element": "N" 
			},
			{
				"x": -2.6643850691,
				"y": -4.2015230919,
				"z": -0.6133697919,
				"element": "C" 
			},
			{
				"x": -1.7624729988,
				"y": -4.2354103504,
				"z": 0.6358888054,
				"element": "C" 
			},
			{
				"x": -0.6173370583,
				"y": -3.2400854245,
				"z": 0.6494268228,
				"element": "C" 
			},
			{
				"x": -0.8588270884,
				"y": -1.8615755262,
				"z": 0.5158533,
				"element": "C" 
			},
			{
				"x": 0.2076238221,
				"y": -0.9577446974,
				"z": 0.5311730488,
				"element": "C" 
			},
			{
				"x": 0.0694439398,
				"y": 0.3959176224,
				"z": 0.3956090805,
				"element": "O" 
			},
			{
				"x": -1.2384154311,
				"y": 0.9423254666,
				"z": 0.2820340862,
				"element": "C" 
			},
			{
				"x": -1.1327660956,
				"y": 2.458474681,
				"z": 0.1687586349,
				"element": "C" 
			},
			{
				"x": -0.6174313591,
				"y": 3.1884253493,
				"z": 1.4304810492,
				"element": "C" 
			},
			{
				"x": 0.8757660379,
				"y": 3.1001231025,
				"z": 1.6798831476,
				"element": "C" 
			},
			{
				"x": 1.7701466447,
				"y": 3.8335296835,
				"z": 0.8876302493,
				"element": "C" 
			},
			{
				"x": 3.1462608898,
				"y": 3.7664763674,
				"z": 1.1060353376,
				"element": "C" 
			},
			{
				"x": 3.6544254191,
				"y": 2.9657013655,
				"z": 2.1310073377,
				"element": "C" 
			},
			{
				"x": 2.7746029174,
				"y": 2.2365967368,
				"z": 2.9327370011,
				"element": "C" 
			},
			{
				"x": 1.3988658181,
				"y": 2.3060088632,
				"z": 2.7072264946,
				"element": "C" 
			},
			{
				"x": 1.5243758998,
				"y": -1.4161711397,
				"z": 0.6916351923,
				"element": "C" 
			},
			{
				"x": 1.7588134175,
				"y": -2.778533237,
				"z": 0.8244506572,
				"element": "C" 
			},
			{
				"x": 0.6976024509,
				"y": -3.6902582415,
				"z": 0.8018470801,
				"element": "C" 
			},
			{
				"x": -4.2862918935,
				"y": -3.1940646817,
				"z": 0.1263833758,
				"element": "H" 
			},
			{
				"x": -4.0762325524,
				"y": -2.9841350408,
				"z": -1.4748323613,
				"element": "H" 
			},
			{
				"x": -2.0359701148,
				"y": -4.1160040159,
				"z": -1.5070794401,
				"element": "H" 
			},
			{
				"x": -3.1893602674,
				"y": -5.1701832724,
				"z": -0.6862469829,
				"element": "H" 
			},
			{
				"x": -1.3485726639,
				"y": -5.2458882092,
				"z": 0.7291181472,
				"element": "H" 
			},
			{
				"x": -2.3999744494,
				"y": -4.0891466613,
				"z": 1.5206980456,
				"element": "H" 
			},
			{
				"x": -1.8797099622,
				"y": -1.5319068099,
				"z": 0.3712564734,
				"element": "H" 
			},
			{
				"x": -1.7418774183,
				"y": 0.5333958692,
				"z": -0.6059518586,
				"element": "H" 
			},
			{
				"x": -1.8419172551,
				"y": 0.6644366992,
				"z": 1.1598773566,
				"element": "H" 
			},
			{
				"x": -2.1400198758,
				"y": 2.8294207917,
				"z": -0.0607497132,
				"element": "H" 
			},
			{
				"x": -0.501188821,
				"y": 2.707733251,
				"z": -0.6919358311,
				"element": "H" 
			},
			{
				"x": -1.1593036805,
				"y": 2.8095141802,
				"z": 2.3061383274,
				"element": "H" 
			},
			{
				"x": -0.8924088678,
				"y": 4.2467273109,
				"z": 1.3363980179,
				"element": "H" 
			},
			{
				"x": 1.3838463581,
				"y": 4.467231661,
				"z": 0.0919918685,
				"element": "H" 
			},
			{
				"x": 3.8213265409,
				"y": 4.3438138626,
				"z": 0.4800439023,
				"element": "H" 
			},
			{
				"x": 4.7254084059,
				"y": 2.9145549588,
				"z": 2.3058441673,
				"element": "H" 
			},
			{
				"x": 3.1582180794,
				"y": 1.6130643081,
				"z": 3.7357220401,
				"element": "H" 
			},
			{
				"x": 0.7216852791,
				"y": 1.7298377379,
				"z": 3.3325130279,
				"element": "H" 
			},
			{
				"x": 2.3297467572,
				"y": -0.6894538931,
				"z": 0.7121906292,
				"element": "H" 
			},
			{
				"x": 2.7772460439,
				"y": -3.1373332196,
				"z": 0.9470643201,
				"element": "H" 
			},
			{
				"x": 0.8950643578,
				"y": -4.7539968476,
				"z": 0.905965447,
				"element": "H" 
			}
		],
		 "valence_orbital": [ 
			{
				"type": "occ",
				"energy": -0.23794,
				"method": "rhf"
			},
			{
				"type": "occ",
				"energy": -0.23755,
				"method": "rhf"
			},
			{
				"type": "occ",
				"energy": -0.22883,
				"method": "rhf"
			},
			{
				"type": "occ",
				"energy": -0.22765,
				"method": "rhf"
			},
			{
				"type": "occ",
				"energy": -0.2022,
				"method": "rhf"
			},
			{
				"type": "unocc",
				"energy": 0.00849,
				"method": "rhf"
			},
			{
				"type": "unocc",
				"energy": 0.01115,
				"method": "rhf"
			},
			{
				"type": "unocc",
				"energy": 0.0141,
				"method": "rhf"
			},
			{
				"type": "unocc",
				"energy": 0.02873,
				"method": "rhf"
			},
			{
				"type": "unocc",
				"energy": 0.07998,
				"method": "rhf"
			}
		],
		"cosmo_sigma_profile": { 
			"-0.025": 0.0,
			"-0.024": 0.0,
			"-0.023": 0.0,
			"-0.022": 0.0,
			"-0.021": 0.0,
			"-0.02": 0.0,
			"-0.019": 0.0,
			"-0.018": 0.0,
			"-0.017": 0.0,
			"-0.016": 0.0,
			"-0.015": 0.0,
			"-0.014": 0.0,
			"-0.013": 0.0,
			"-0.012": 0.0,
			"-0.011": 0.0,
			"-0.01": 0.762499295348,
			"-0.009": 2.73272342519,
			"-0.008": 3.19034652164,
			"-0.007": 3.05900070028,
			"-0.006": 4.25694271874,
			"-0.005": 14.7893379052,
			"-0.004": 33.4855519527,
			"-0.003": 47.4755758608,
			"-0.002": 39.6161857712,
			"-0.001": 31.3542028492,
			"0.0": 25.6903107126,
			"0.001": 15.3627095323,
			"0.002": 16.189740615,
			"0.003": 17.3618054276,
			"0.004": 17.7882607072,
			"0.005": 18.3572927179,
			"0.006": 18.0180551731,
			"0.007": 11.7973636777,
			"0.008": 3.5846635837,
			"0.009": 2.17986046541,
			"0.01": 2.65222663366,
			"0.011": 1.90403011114,
			"0.012": 0.984471598895,
			"0.013": 0.257223353525,
			"0.014": 0.0,
			"0.015": 0.0,
			"0.016": 0.0,
			"0.017": 0.0,
			"0.018": 0.0,
			"0.019": 0.0,
			"0.02": 0.0,
			"0.021": 0.0,
			"0.022": 0.0,
			"0.023": 0.0,
			"0.024": 0.0,
			"0.025": 0.0
		}
	}
}
