{
	 "smiles": "COC(=O)C1=CC=C(CS(Cl)(=O)=O)C=C1", 
	 "Tm": 389.15, 
	 "num_atms": 24, 
	 "gaussian": { 
		 "optdone": 1, 
		 "sigma_profile": "yes", 
		 "theory": "DFT", 
		 "functional": "B3LYP", 
		 "basiset": "6-31G**", 
		 "properties": { 
			 "R2extent": 6005.7589, 
			 "electric_dipole_moment_norm": 4.20847194359, 
			 "electric_quadrupole_moment_norm": 19.640487355, 
			 "total_energy": -1507.60637062, 
			 "HOMO_LUMO_gap": 0.18338, 
			 "cosmo_polarized_energy": -15.24, 
			 "cosmo_cavitation_energy": 32.42, 
			 "cosmo_dispersion_energy": -23.64, 
			 "cosmo_repulsion_energy": 1.81, 
			 "cosmo_total_nonelectrostatic_energy": 10.59, 
			 "SMD_solvation_energy": 5.66 
		},
		"coords": [
			{
				"x": 2.4292750973,
				"y": -0.3466781959,
				"z": -4.2382710248,
				"element": "C" 
			},
			{
				"x": 1.419537344,
				"y": -0.5477585579,
				"z": -3.2355550143,
				"element": "O" 
			},
			{
				"x": 1.0615186286,
				"y": 0.5584395515,
				"z": -2.5490162611,
				"element": "C" 
			},
			{
				"x": 1.5423253813,
				"y": 1.6559837925,
				"z": -2.7511324123,
				"element": "O" 
			},
			{
				"x": 0.0146930875,
				"y": 0.2769440407,
				"z": -1.5219551434,
				"element": "C" 
			},
			{
				"x": -0.5220439547,
				"y": -1.002908702,
				"z": -1.3256120035,
				"element": "C" 
			},
			{
				"x": -1.5007403511,
				"y": -1.205709746,
				"z": -0.3579478538,
				"element": "C" 
			},
			{
				"x": -1.9542189113,
				"y": -0.1358105576,
				"z": 0.42791991,
				"element": "C" 
			},
			{
				"x": -3.0184877353,
				"y": -0.3480134725,
				"z": 1.459791364,
				"element": "C" 
			},
			{
				"x": -2.4623220546,
				"y": -1.2086264875,
				"z": 2.9930037932,
				"element": "S" 
			},
			{
				"x": -1.0957909852,
				"y": 0.2219195875,
				"z": 3.785899067,
				"element": "Cl" 
			},
			{
				"x": -1.6921454571,
				"y": -2.3969499194,
				"z": 2.6472681066,
				"element": "O" 
			},
			{
				"x": -3.5965509974,
				"y": -1.2698267947,
				"z": 3.9073980312,
				"element": "O" 
			},
			{
				"x": -1.4085791695,
				"y": 1.1407972089,
				"z": 0.2318472841,
				"element": "C" 
			},
			{
				"x": -0.4338181017,
				"y": 1.3471484113,
				"z": -0.7385484367,
				"element": "C" 
			},
			{
				"x": 3.3488357466,
				"y": 0.0320185918,
				"z": -3.7855364855,
				"element": "H" 
			},
			{
				"x": 2.5967053415,
				"y": -1.3256499748,
				"z": -4.6866203242,
				"element": "H" 
			},
			{
				"x": 2.0861210565,
				"y": 0.3681041979,
				"z": -4.990225378,
				"element": "H" 
			},
			{
				"x": -0.1717356396,
				"y": -1.829879991,
				"z": -1.9317171099,
				"element": "H" 
			},
			{
				"x": -1.9081268496,
				"y": -2.1997207688,
				"z": -0.2022182534,
				"element": "H" 
			},
			{
				"x": -3.4708352913,
				"y": 0.5786254227,
				"z": 1.8174275638,
				"element": "H" 
			},
			{
				"x": -3.8124853061,
				"y": -1.0217012168,
				"z": 1.1200692289,
				"element": "H" 
			},
			{
				"x": -1.7511056264,
				"y": 1.9730172434,
				"z": 0.8398364503,
				"element": "H" 
			},
			{
				"x": -0.0060252524,
				"y": 2.3295363366,
				"z": -0.9055050982,
				"element": "H" 
			}
		],
		 "valence_orbital": [ 
			{
				"type": "occ",
				"energy": -0.31752,
				"method": "rhf"
			},
			{
				"type": "occ",
				"energy": -0.31226,
				"method": "rhf"
			},
			{
				"type": "occ",
				"energy": -0.28513,
				"method": "rhf"
			},
			{
				"type": "occ",
				"energy": -0.27703,
				"method": "rhf"
			},
			{
				"type": "occ",
				"energy": -0.27439,
				"method": "rhf"
			},
			{
				"type": "unocc",
				"energy": -0.09101,
				"method": "rhf"
			},
			{
				"type": "unocc",
				"energy": -0.06124,
				"method": "rhf"
			},
			{
				"type": "unocc",
				"energy": -0.02724,
				"method": "rhf"
			},
			{
				"type": "unocc",
				"energy": 0.02449,
				"method": "rhf"
			},
			{
				"type": "unocc",
				"energy": 0.04862,
				"method": "rhf"
			}
		],
		"cosmo_sigma_profile": { 
			"-0.025": 0.0,
			"-0.024": 0.0,
			"-0.023": 0.0,
			"-0.022": 0.0,
			"-0.021": 0.0,
			"-0.02": 0.0,
			"-0.019": 0.0,
			"-0.018": 0.0,
			"-0.017": 0.0,
			"-0.016": 0.0,
			"-0.015": 0.0,
			"-0.014": 0.0,
			"-0.013": 0.382644628916,
			"-0.012": 1.24115883009,
			"-0.011": 3.11190471007,
			"-0.01": 5.06635423596,
			"-0.009": 4.61991535641,
			"-0.008": 4.88219495556,
			"-0.007": 9.00998245634,
			"-0.006": 13.8262545917,
			"-0.005": 15.0712812338,
			"-0.004": 15.7651267355,
			"-0.003": 16.3274958008,
			"-0.002": 14.2824104489,
			"-0.001": 14.2993378046,
			"0.0": 16.9288491774,
			"0.001": 20.4268474653,
			"0.002": 24.9892259798,
			"0.003": 21.3977250559,
			"0.004": 11.7707379373,
			"0.005": 7.6280720343,
			"0.006": 4.67811678827,
			"0.007": 6.72342325506,
			"0.008": 12.2040467116,
			"0.009": 7.83195960921,
			"0.01": 2.4107522234,
			"0.011": 3.35007547346,
			"0.012": 3.17670309042,
			"0.013": 0.0407639398106,
			"0.014": 0.0,
			"0.015": 0.0,
			"0.016": 0.0,
			"0.017": 0.0,
			"0.018": 0.0,
			"0.019": 0.0,
			"0.02": 0.0,
			"0.021": 0.0,
			"0.022": 0.0,
			"0.023": 0.0,
			"0.024": 0.0,
			"0.025": 0.0
		}
	}
}
