{
	 "smiles": "CC1OC(CCC1OC1OC(C)C(C(O)C1O)N(C)C)N1C=CC(NC(=O)C2=CC=C(NC(=O)C(C)(N)CO)C=C2)=NC1=O", 
	 "Tm": 440.15, 
	 "num_atms": 86, 
	 "gaussian": { 
		 "optdone": 1, 
		 "sigma_profile": "yes", 
		 "theory": "DFT", 
		 "functional": "B3LYP", 
		 "basiset": "6-31G**", 
		 "properties": { 
			 "R2extent": 29810.1719, 
			 "electric_dipole_moment_norm": 13.1132396051, 
			 "electric_quadrupole_moment_norm": 43.903125695, 
			 "total_energy": -2135.92702299, 
			 "HOMO_LUMO_gap": 0.17545, 
			 "cosmo_polarized_energy": -41.57, 
			 "cosmo_cavitation_energy": 82.42, 
			 "cosmo_dispersion_energy": -50.27, 
			 "cosmo_repulsion_energy": 3.69, 
			 "cosmo_total_nonelectrostatic_energy": 35.84, 
			 "SMD_solvation_energy": 11.69 
		},
		"coords": [
			{
				"x": -0.3870408403,
				"y": -3.6738516472,
				"z": -1.5775555858,
				"element": "C" 
			},
			{
				"x": 1.1109493221,
				"y": -3.4066863543,
				"z": -1.5812213773,
				"element": "C" 
			},
			{
				"x": 1.5046200607,
				"y": -3.2972182906,
				"z": -0.215034705,
				"element": "O" 
			},
			{
				"x": 2.9008393229,
				"y": -3.1196203418,
				"z": 0.0205339182,
				"element": "C" 
			},
			{
				"x": 3.5057516948,
				"y": -1.9733860047,
				"z": -0.8084885291,
				"element": "C" 
			},
			{
				"x": 3.0582418813,
				"y": -2.0141962828,
				"z": -2.2746302839,
				"element": "C" 
			},
			{
				"x": 1.5314379418,
				"y": -2.1428806396,
				"z": -2.3479247171,
				"element": "C" 
			},
			{
				"x": 0.8667300575,
				"y": -1.0374812602,
				"z": -1.7097911054,
				"element": "O" 
			},
			{
				"x": 0.6370115591,
				"y": 0.1111675265,
				"z": -2.463621572,
				"element": "C" 
			},
			{
				"x": 1.8267851518,
				"y": 0.877865169,
				"z": -2.5839241058,
				"element": "O" 
			},
			{
				"x": 1.7253980252,
				"y": 1.9229863161,
				"z": -3.5778702584,
				"element": "C" 
			},
			{
				"x": 2.8412501957,
				"y": 2.9121778184,
				"z": -3.2710234348,
				"element": "C" 
			},
			{
				"x": 0.299212556,
				"y": 2.5765225293,
				"z": -3.6053013642,
				"element": "C" 
			},
			{
				"x": -0.2750392561,
				"y": 2.4271665128,
				"z": -2.1707969756,
				"element": "C" 
			},
			{
				"x": -1.4478109271,
				"y": 3.1699366005,
				"z": -1.8950183072,
				"element": "O" 
			},
			{
				"x": -0.3771718875,
				"y": 0.9597621218,
				"z": -1.6956108602,
				"element": "C" 
			},
			{
				"x": -1.7206537854,
				"y": 0.4905250017,
				"z": -1.8766280134,
				"element": "O" 
			},
			{
				"x": -0.4780443894,
				"y": 1.9990237636,
				"z": -4.7238394705,
				"element": "N" 
			},
			{
				"x": -1.9328330858,
				"y": 2.1499982527,
				"z": -4.6562760022,
				"element": "C" 
			},
			{
				"x": -0.0047092418,
				"y": 2.5440940563,
				"z": -5.9979799656,
				"element": "C" 
			},
			{
				"x": 3.0022425086,
				"y": -2.8384652054,
				"z": 1.452286438,
				"element": "N" 
			},
			{
				"x": 2.2708007282,
				"y": -1.8138008335,
				"z": 1.9595273602,
				"element": "C" 
			},
			{
				"x": 2.2861613721,
				"y": -1.5122871927,
				"z": 3.2838951692,
				"element": "C" 
			},
			{
				"x": 3.07911564,
				"y": -2.3690542088,
				"z": 4.1108921801,
				"element": "C" 
			},
			{
				"x": 3.178745183,
				"y": -2.1993057442,
				"z": 5.4920829662,
				"element": "N" 
			},
			{
				"x": 2.5984100426,
				"y": -1.280975142,
				"z": 6.3805865141,
				"element": "C" 
			},
			{
				"x": 3.1682480971,
				"y": -1.0172112119,
				"z": 7.4263124395,
				"element": "O" 
			},
			{
				"x": 1.2793808387,
				"y": -0.6985434572,
				"z": 5.9898233544,
				"element": "C" 
			},
			{
				"x": 1.1438831691,
				"y": 0.6903759977,
				"z": 5.8774642671,
				"element": "C" 
			},
			{
				"x": -0.0074170445,
				"y": 1.2555879349,
				"z": 5.3338162466,
				"element": "C" 
			},
			{
				"x": -1.06844433,
				"y": 0.4232880537,
				"z": 4.9358122497,
				"element": "C" 
			},
			{
				"x": -2.2115310474,
				"y": 0.9116962361,
				"z": 4.2879045545,
				"element": "N" 
			},
			{
				"x": -2.3007879614,
				"y": 2.027520038,
				"z": 3.4985849512,
				"element": "C" 
			},
			{
				"x": -1.4490039362,
				"y": 2.9037061749,
				"z": 3.410827183,
				"element": "O" 
			},
			{
				"x": -3.6285844395,
				"y": 2.1231898778,
				"z": 2.6911447484,
				"element": "C" 
			},
			{
				"x": -4.3900535953,
				"y": 3.3514524067,
				"z": 3.2085848349,
				"element": "C" 
			},
			{
				"x": -4.4318490027,
				"y": 0.9004938779,
				"z": 2.8783949456,
				"element": "N" 
			},
			{
				"x": -3.2539011418,
				"y": 2.3084679849,
				"z": 1.2064952492,
				"element": "C" 
			},
			{
				"x": -2.7561381978,
				"y": 1.0597045715,
				"z": 0.7438878991,
				"element": "O" 
			},
			{
				"x": -0.9800574253,
				"y": -0.961471633,
				"z": 5.1633656653,
				"element": "C" 
			},
			{
				"x": 0.1905399313,
				"y": -1.5179792423,
				"z": 5.6615853778,
				"element": "C" 
			},
			{
				"x": 3.8067122661,
				"y": -3.3610730557,
				"z": 3.6393046129,
				"element": "N" 
			},
			{
				"x": 3.8358613054,
				"y": -3.6482275703,
				"z": 2.2935438471,
				"element": "C" 
			},
			{
				"x": 4.515220446,
				"y": -4.5314163417,
				"z": 1.7909205154,
				"element": "O" 
			},
			{
				"x": -0.6030570014,
				"y": -4.5913804719,
				"z": -1.0249735539,
				"element": "H" 
			},
			{
				"x": -0.7627498478,
				"y": -3.7845357181,
				"z": -2.5997914413,
				"element": "H" 
			},
			{
				"x": -0.9119666723,
				"y": -2.8488876992,
				"z": -1.0894432983,
				"element": "H" 
			},
			{
				"x": 1.6324423658,
				"y": -4.2574252487,
				"z": -2.0532889252,
				"element": "H" 
			},
			{
				"x": 3.4435848543,
				"y": -4.0564305522,
				"z": -0.144432549,
				"element": "H" 
			},
			{
				"x": 3.1930003049,
				"y": -1.0152077594,
				"z": -0.3843182779,
				"element": "H" 
			},
			{
				"x": 4.5960444742,
				"y": -2.0267026434,
				"z": -0.7255824042,
				"element": "H" 
			},
			{
				"x": 3.4963017438,
				"y": -2.8773191512,
				"z": -2.793487376,
				"element": "H" 
			},
			{
				"x": 3.3896146923,
				"y": -1.1119066595,
				"z": -2.792810107,
				"element": "H" 
			},
			{
				"x": 1.1956003531,
				"y": -2.2159840517,
				"z": -3.393050608,
				"element": "H" 
			},
			{
				"x": 0.2479785202,
				"y": -0.1382561073,
				"z": -3.4650648805,
				"element": "H" 
			},
			{
				"x": 1.9036155445,
				"y": 1.458598052,
				"z": -4.5556922208,
				"element": "H" 
			},
			{
				"x": 2.9213999807,
				"y": 3.6572044538,
				"z": -4.068531347,
				"element": "H" 
			},
			{
				"x": 3.7967555898,
				"y": 2.3873198783,
				"z": -3.1881598369,
				"element": "H" 
			},
			{
				"x": 2.6610326134,
				"y": 3.4361978466,
				"z": -2.3271170237,
				"element": "H" 
			},
			{
				"x": 0.4147838134,
				"y": 3.6653798529,
				"z": -3.7551495859,
				"element": "H" 
			},
			{
				"x": 0.4914675519,
				"y": 2.8850486449,
				"z": -1.5391202354,
				"element": "H" 
			},
			{
				"x": -2.1972477802,
				"y": 2.682616331,
				"z": -2.2582061191,
				"element": "H" 
			},
			{
				"x": -0.1243344321,
				"y": 0.9125056747,
				"z": -0.6292215504,
				"element": "H" 
			},
			{
				"x": -1.723021305,
				"y": -0.4524354397,
				"z": -1.6571770797,
				"element": "H" 
			},
			{
				"x": -2.3598633407,
				"y": 1.7620307956,
				"z": -5.5861944468,
				"element": "H" 
			},
			{
				"x": -2.3402867616,
				"y": 1.5417234628,
				"z": -3.8465836393,
				"element": "H" 
			},
			{
				"x": -2.2673029672,
				"y": 3.1968038247,
				"z": -4.5484605978,
				"element": "H" 
			},
			{
				"x": 1.0711828396,
				"y": 2.3944373912,
				"z": -6.1178581832,
				"element": "H" 
			},
			{
				"x": -0.2052202243,
				"y": 3.6274869363,
				"z": -6.0980349722,
				"element": "H" 
			},
			{
				"x": -0.5021447847,
				"y": 2.027523072,
				"z": -6.8242392222,
				"element": "H" 
			},
			{
				"x": 1.6669373554,
				"y": -1.2654263614,
				"z": 1.2462511751,
				"element": "H" 
			},
			{
				"x": 1.7224665273,
				"y": -0.6745442765,
				"z": 3.6546544416,
				"element": "H" 
			},
			{
				"x": 3.9594685883,
				"y": -2.7113882744,
				"z": 5.8911857745,
				"element": "H" 
			},
			{
				"x": 1.9723418112,
				"y": 1.3294344361,
				"z": 6.1675616895,
				"element": "H" 
			},
			{
				"x": -0.0827345759,
				"y": 2.3222429782,
				"z": 5.1754266589,
				"element": "H" 
			},
			{
				"x": -3.0237692547,
				"y": 0.3048570463,
				"z": 4.1842822103,
				"element": "H" 
			},
			{
				"x": -5.2854100265,
				"y": 3.5343520309,
				"z": 2.6037339753,
				"element": "H" 
			},
			{
				"x": -3.7503599168,
				"y": 4.2354665961,
				"z": 3.1685087844,
				"element": "H" 
			},
			{
				"x": -4.6997235122,
				"y": 3.197729584,
				"z": 4.2472036722,
				"element": "H" 
			},
			{
				"x": -5.4237792502,
				"y": 1.1178747497,
				"z": 2.8618349299,
				"element": "H" 
			},
			{
				"x": -4.2349579317,
				"y": 0.2743876205,
				"z": 2.0988884258,
				"element": "H" 
			},
			{
				"x": -4.1601698121,
				"y": 2.605496531,
				"z": 0.6532256308,
				"element": "H" 
			},
			{
				"x": -2.5077955398,
				"y": 3.1052840496,
				"z": 1.1105099523,
				"element": "H" 
			},
			{
				"x": -2.5477588832,
				"y": 1.1147838069,
				"z": -0.2032651255,
				"element": "H" 
			},
			{
				"x": -1.8121753948,
				"y": -1.6041587349,
				"z": 4.8883962715,
				"element": "H" 
			},
			{
				"x": 0.2735319291,
				"y": -2.5958736597,
				"z": 5.7629501606,
				"element": "H" 
			}
		],
		 "valence_orbital": [ 
			{
				"type": "occ",
				"energy": -0.24459,
				"method": "rhf"
			},
			{
				"type": "occ",
				"energy": -0.23679,
				"method": "rhf"
			},
			{
				"type": "occ",
				"energy": -0.23141,
				"method": "rhf"
			},
			{
				"type": "occ",
				"energy": -0.22415,
				"method": "rhf"
			},
			{
				"type": "occ",
				"energy": -0.22125,
				"method": "rhf"
			},
			{
				"type": "unocc",
				"energy": -0.0458,
				"method": "rhf"
			},
			{
				"type": "unocc",
				"energy": -0.02673,
				"method": "rhf"
			},
			{
				"type": "unocc",
				"energy": -0.00991,
				"method": "rhf"
			},
			{
				"type": "unocc",
				"energy": 0.01283,
				"method": "rhf"
			},
			{
				"type": "unocc",
				"energy": 0.02562,
				"method": "rhf"
			}
		],
		"cosmo_sigma_profile": { 
			"-0.025": 0.0,
			"-0.024": 0.0,
			"-0.023": 0.0,
			"-0.022": 0.0,
			"-0.021": 0.0,
			"-0.02": 0.0,
			"-0.019": 0.0,
			"-0.018": 0.0,
			"-0.017": 0.0,
			"-0.016": 0.0,
			"-0.015": 0.0113115501439,
			"-0.014": 0.673819448507,
			"-0.013": 1.11846660538,
			"-0.012": 1.68983914875,
			"-0.011": 2.90451246981,
			"-0.01": 5.41371218777,
			"-0.009": 4.76859229284,
			"-0.008": 7.74883884467,
			"-0.007": 15.3602051809,
			"-0.006": 24.7258655837,
			"-0.005": 45.0056084665,
			"-0.004": 56.7003099123,
			"-0.003": 60.9417055383,
			"-0.002": 69.152591189,
			"-0.001": 62.7878625664,
			"0.0": 54.1253794976,
			"0.001": 37.6343306437,
			"0.002": 32.0999464417,
			"0.003": 24.8900415623,
			"0.004": 19.8412726532,
			"0.005": 16.3623910433,
			"0.006": 12.3966369594,
			"0.007": 14.1256656254,
			"0.008": 11.6048125675,
			"0.009": 10.0458575135,
			"0.01": 9.91316571238,
			"0.011": 10.7498677476,
			"0.012": 10.849294512,
			"0.013": 10.6479581363,
			"0.014": 5.89177192172,
			"0.015": 3.04420778971,
			"0.016": 1.17488250073,
			"0.017": 0.0,
			"0.018": 0.0,
			"0.019": 0.0,
			"0.02": 0.0,
			"0.021": 0.0,
			"0.022": 0.0,
			"0.023": 0.0,
			"0.024": 0.0,
			"0.025": 0.0
		}
	}
}
