{
	 "smiles": "NNS(=O)(=O)CC1=CC=C(F)C=C1", 
	 "Tm": 418.15, 
	 "num_atms": 22, 
	 "gaussian": { 
		 "optdone": 1, 
		 "sigma_profile": "yes", 
		 "theory": "DFT", 
		 "functional": "B3LYP", 
		 "basiset": "6-31G**", 
		 "properties": { 
			 "R2extent": 3845.2407, 
			 "electric_dipole_moment_norm": 3.84822711128, 
			 "electric_quadrupole_moment_norm": 22.4075209809, 
			 "total_energy": -1030.03620403, 
			 "HOMO_LUMO_gap": 0.21866, 
			 "cosmo_polarized_energy": -17.4, 
			 "cosmo_cavitation_energy": 27.65, 
			 "cosmo_dispersion_energy": -20.25, 
			 "cosmo_repulsion_energy": 1.54, 
			 "cosmo_total_nonelectrostatic_energy": 8.93, 
			 "SMD_solvation_energy": 4.79 
		},
		"coords": [
			{
				"x": 2.5374509829,
				"y": -3.4621979961,
				"z": -0.231819332,
				"element": "N" 
			},
			{
				"x": 1.1109280985,
				"y": -3.6113777354,
				"z": -0.5685039222,
				"element": "N" 
			},
			{
				"x": 0.729518184,
				"y": -2.6700724313,
				"z": -1.9405193425,
				"element": "S" 
			},
			{
				"x": -0.721236438,
				"y": -2.7691409837,
				"z": -2.0928948391,
				"element": "O" 
			},
			{
				"x": 1.660838267,
				"y": -3.1010496147,
				"z": -2.9872823958,
				"element": "O" 
			},
			{
				"x": 1.168000202,
				"y": -0.9359678309,
				"z": -1.5118076772,
				"element": "C" 
			},
			{
				"x": 0.416951285,
				"y": -0.4089241852,
				"z": -0.3232805074,
				"element": "C" 
			},
			{
				"x": 1.0006352067,
				"y": -0.4465829471,
				"z": 0.9524629188,
				"element": "C" 
			},
			{
				"x": 0.3123900952,
				"y": 0.0280675044,
				"z": 2.0690070592,
				"element": "C" 
			},
			{
				"x": -0.9694953587,
				"y": 0.537109444,
				"z": 1.8939532839,
				"element": "C" 
			},
			{
				"x": -1.6397805787,
				"y": 1.0018560963,
				"z": 2.966400493,
				"element": "F" 
			},
			{
				"x": -1.581599535,
				"y": 0.5808244365,
				"z": 0.6452324281,
				"element": "C" 
			},
			{
				"x": -0.8824338154,
				"y": 0.1022020608,
				"z": -0.4603371188,
				"element": "C" 
			},
			{
				"x": 2.6966233413,
				"y": -4.2086184137,
				"z": 0.4467329617,
				"element": "H" 
			},
			{
				"x": 3.0098868354,
				"y": -3.7923031525,
				"z": -1.0767747806,
				"element": "H" 
			},
			{
				"x": 0.5735491931,
				"y": -3.2256747748,
				"z": 0.2110660263,
				"element": "H" 
			},
			{
				"x": 0.954138797,
				"y": -0.3863866684,
				"z": -2.4325979556,
				"element": "H" 
			},
			{
				"x": 2.247193417,
				"y": -0.9518709868,
				"z": -1.3498898249,
				"element": "H" 
			},
			{
				"x": 2.0017753331,
				"y": -0.8529861804,
				"z": 1.068132401,
				"element": "H" 
			},
			{
				"x": 0.7532986891,
				"y": 0.0131221976,
				"z": 3.0597765869,
				"element": "H" 
			},
			{
				"x": -2.585030898,
				"y": 0.9817869599,
				"z": 0.5540360922,
				"element": "H" 
			},
			{
				"x": -1.3526013037,
				"y": 0.1172852016,
				"z": -1.4385925551,
				"element": "H" 
			}
		],
		 "valence_orbital": [ 
			{
				"type": "occ",
				"energy": -0.31061,
				"method": "rhf"
			},
			{
				"type": "occ",
				"energy": -0.30811,
				"method": "rhf"
			},
			{
				"type": "occ",
				"energy": -0.27451,
				"method": "rhf"
			},
			{
				"type": "occ",
				"energy": -0.25586,
				"method": "rhf"
			},
			{
				"type": "occ",
				"energy": -0.24521,
				"method": "rhf"
			},
			{
				"type": "unocc",
				"energy": -0.02655,
				"method": "rhf"
			},
			{
				"type": "unocc",
				"energy": -0.02523,
				"method": "rhf"
			},
			{
				"type": "unocc",
				"energy": 0.05621,
				"method": "rhf"
			},
			{
				"type": "unocc",
				"energy": 0.05939,
				"method": "rhf"
			},
			{
				"type": "unocc",
				"energy": 0.06879,
				"method": "rhf"
			}
		],
		"cosmo_sigma_profile": { 
			"-0.025": 0.0,
			"-0.024": 0.0,
			"-0.023": 0.0,
			"-0.022": 0.0,
			"-0.021": 0.0,
			"-0.02": 0.0,
			"-0.019": 0.0,
			"-0.018": 0.0,
			"-0.017": 0.0,
			"-0.016": 0.0,
			"-0.015": 0.0,
			"-0.014": 0.343410866274,
			"-0.013": 2.44022969226,
			"-0.012": 3.53806659336,
			"-0.011": 4.2109171496,
			"-0.01": 3.27547867823,
			"-0.009": 5.45706030829,
			"-0.008": 6.77115586971,
			"-0.007": 10.3602697832,
			"-0.006": 11.1652586179,
			"-0.005": 13.1105284025,
			"-0.004": 10.2699972044,
			"-0.003": 10.3990474584,
			"-0.002": 8.88812430912,
			"-0.001": 10.0311906296,
			"0.0": 12.7188554596,
			"0.001": 14.8437876971,
			"0.002": 13.4457168172,
			"0.003": 14.45841611,
			"0.004": 15.2171492774,
			"0.005": 6.81847350947,
			"0.006": 4.35090656391,
			"0.007": 5.8288889949,
			"0.008": 4.27980068456,
			"0.009": 4.27351911325,
			"0.01": 9.82461754638,
			"0.011": 10.3998813632,
			"0.012": 2.75542937662,
			"0.013": 0.145300412498,
			"0.014": 0.0,
			"0.015": 0.0,
			"0.016": 0.0,
			"0.017": 0.0,
			"0.018": 0.0,
			"0.019": 0.0,
			"0.02": 0.0,
			"0.021": 0.0,
			"0.022": 0.0,
			"0.023": 0.0,
			"0.024": 0.0,
			"0.025": 0.0
		}
	}
}
