{
	 "smiles": "CC1=CC=C(C=C1)C1OCCCC1C(O)=O", 
	 "Tm": 400.15, 
	 "num_atms": 32, 
	 "gaussian": { 
		 "optdone": 1, 
		 "sigma_profile": "yes", 
		 "theory": "DFT", 
		 "functional": "B3LYP", 
		 "basiset": "6-31G**", 
		 "properties": { 
			 "R2extent": 4189.9441, 
			 "electric_dipole_moment_norm": 1.50381640169, 
			 "electric_quadrupole_moment_norm": 14.0186507924, 
			 "total_energy": -730.715343484, 
			 "HOMO_LUMO_gap": 0.23072, 
			 "cosmo_polarized_energy": -13.24, 
			 "cosmo_cavitation_energy": 33.65, 
			 "cosmo_dispersion_energy": -23.85, 
			 "cosmo_repulsion_energy": 1.88, 
			 "cosmo_total_nonelectrostatic_energy": 11.68, 
			 "SMD_solvation_energy": 6.33 
		},
		"coords": [
			{
				"x": -2.9123151745,
				"y": -1.8655833918,
				"z": 2.9407962179,
				"element": "C" 
			},
			{
				"x": -1.7944445675,
				"y": -1.0345999779,
				"z": 2.3558456795,
				"element": "C" 
			},
			{
				"x": -2.0244307369,
				"y": -0.1587826305,
				"z": 1.2879604338,
				"element": "C" 
			},
			{
				"x": -0.9893454695,
				"y": 0.5882403977,
				"z": 0.7245974126,
				"element": "C" 
			},
			{
				"x": 0.3123005863,
				"y": 0.4818458073,
				"z": 1.2246530033,
				"element": "C" 
			},
			{
				"x": 0.5485377881,
				"y": -0.3829503121,
				"z": 2.2998503015,
				"element": "C" 
			},
			{
				"x": -0.4880208168,
				"y": -1.1305136793,
				"z": 2.854454174,
				"element": "C" 
			},
			{
				"x": 1.4597711724,
				"y": 1.2620594435,
				"z": 0.6144131878,
				"element": "C" 
			},
			{
				"x": 0.9417338669,
				"y": 2.4025514841,
				"z": -0.0480864794,
				"element": "O" 
			},
			{
				"x": 1.9541949909,
				"y": 3.2715188499,
				"z": -0.5423494509,
				"element": "C" 
			},
			{
				"x": 2.8361587724,
				"y": 2.5783391534,
				"z": -1.5802033509,
				"element": "C" 
			},
			{
				"x": 3.4328932222,
				"y": 1.2952787759,
				"z": -0.9863278735,
				"element": "C" 
			},
			{
				"x": 2.3572989127,
				"y": 0.3957857471,
				"z": -0.3232561834,
				"element": "C" 
			},
			{
				"x": 1.5832788449,
				"y": -0.4323490563,
				"z": -1.3348101111,
				"element": "C" 
			},
			{
				"x": 0.797577022,
				"y": 0.3040368161,
				"z": -2.1602082099,
				"element": "O" 
			},
			{
				"x": 1.6627295672,
				"y": -1.637566629,
				"z": -1.4359379148,
				"element": "O" 
			},
			{
				"x": -3.8873984551,
				"y": -1.3970877485,
				"z": 2.77716762,
				"element": "H" 
			},
			{
				"x": -2.9480192374,
				"y": -2.8618535554,
				"z": 2.4820270948,
				"element": "H" 
			},
			{
				"x": -2.783083241,
				"y": -2.0108961973,
				"z": 4.0179860128,
				"element": "H" 
			},
			{
				"x": -3.0318544959,
				"y": -0.0558969305,
				"z": 0.8911295939,
				"element": "H" 
			},
			{
				"x": -1.1841141758,
				"y": 1.268447695,
				"z": -0.0963527558,
				"element": "H" 
			},
			{
				"x": 1.5504066712,
				"y": -0.4676484436,
				"z": 2.7156063379,
				"element": "H" 
			},
			{
				"x": -0.2816987617,
				"y": -1.7922137709,
				"z": 3.6923543232,
				"element": "H" 
			},
			{
				"x": 2.130078859,
				"y": 1.5956147559,
				"z": 1.4284149767,
				"element": "H" 
			},
			{
				"x": 2.5723468502,
				"y": 3.6354565251,
				"z": 0.2976783804,
				"element": "H" 
			},
			{
				"x": 1.4293741094,
				"y": 4.1302573196,
				"z": -0.9705029278,
				"element": "H" 
			},
			{
				"x": 2.2321660044,
				"y": 2.3420775809,
				"z": -2.4608659473,
				"element": "H" 
			},
			{
				"x": 3.6374261698,
				"y": 3.2571540771,
				"z": -1.8961731291,
				"element": "H" 
			},
			{
				"x": 4.156812526,
				"y": 1.5642932493,
				"z": -0.2052924618,
				"element": "H" 
			},
			{
				"x": 3.9875196523,
				"y": 0.7282175497,
				"z": -1.7419088352,
				"element": "H" 
			},
			{
				"x": 2.8577592788,
				"y": -0.3508920762,
				"z": 0.2996842791,
				"element": "H" 
			},
			{
				"x": 0.3647602651,
				"y": -0.3395408286,
				"z": -2.7473433985,
				"element": "H" 
			}
		],
		 "valence_orbital": [ 
			{
				"type": "occ",
				"energy": -0.30254,
				"method": "rhf"
			},
			{
				"type": "occ",
				"energy": -0.26845,
				"method": "rhf"
			},
			{
				"type": "occ",
				"energy": -0.25425,
				"method": "rhf"
			},
			{
				"type": "occ",
				"energy": -0.24187,
				"method": "rhf"
			},
			{
				"type": "occ",
				"energy": -0.2285,
				"method": "rhf"
			},
			{
				"type": "unocc",
				"energy": 0.00222,
				"method": "rhf"
			},
			{
				"type": "unocc",
				"energy": 0.00516,
				"method": "rhf"
			},
			{
				"type": "unocc",
				"energy": 0.01411,
				"method": "rhf"
			},
			{
				"type": "unocc",
				"energy": 0.07272,
				"method": "rhf"
			},
			{
				"type": "unocc",
				"energy": 0.09008,
				"method": "rhf"
			}
		],
		"cosmo_sigma_profile": { 
			"-0.025": 0.0,
			"-0.024": 0.0,
			"-0.023": 0.0,
			"-0.022": 0.0,
			"-0.021": 0.0,
			"-0.02": 0.0,
			"-0.019": 0.0,
			"-0.018": 0.32998904294,
			"-0.017": 1.0925358325,
			"-0.016": 0.82407234677,
			"-0.015": 0.85974908999,
			"-0.014": 0.509939072445,
			"-0.013": 0.584774746397,
			"-0.012": 0.478146637328,
			"-0.011": 1.03382319742,
			"-0.01": 0.625849076439,
			"-0.009": 0.841439579416,
			"-0.008": 0.566939437003,
			"-0.007": 0.518317777835,
			"-0.006": 4.40723095475,
			"-0.005": 17.2776305374,
			"-0.004": 30.4266722803,
			"-0.003": 32.102081602,
			"-0.002": 28.8693491663,
			"-0.001": 23.4286770617,
			"0.0": 21.3112636877,
			"0.001": 14.2022003749,
			"0.002": 9.95339194807,
			"0.003": 10.7595416584,
			"0.004": 10.5052049497,
			"0.005": 12.7998218141,
			"0.006": 11.0890006152,
			"0.007": 3.83489374347,
			"0.008": 4.19638618636,
			"0.009": 3.25604296468,
			"0.01": 4.27410153555,
			"0.011": 4.45964770954,
			"0.012": 6.13477186325,
			"0.013": 1.78663113016,
			"0.014": 0.0252828069283,
			"0.015": 0.0,
			"0.016": 0.0,
			"0.017": 0.0,
			"0.018": 0.0,
			"0.019": 0.0,
			"0.02": 0.0,
			"0.021": 0.0,
			"0.022": 0.0,
			"0.023": 0.0,
			"0.024": 0.0,
			"0.025": 0.0
		}
	}
}
