{
	 "smiles": "CCOC1=C(OC(F)F)C=CC(=C1)C(O)=O", 
	 "Tm": 433.15, 
	 "num_atms": 26, 
	 "gaussian": { 
		 "optdone": 1, 
		 "sigma_profile": "yes", 
		 "theory": "DFT", 
		 "functional": "B3LYP", 
		 "basiset": "6-31G**", 
		 "properties": { 
			 "R2extent": 4913.799, 
			 "electric_dipole_moment_norm": 5.11963949024, 
			 "electric_quadrupole_moment_norm": 21.379777587, 
			 "total_energy": -887.656316226, 
			 "HOMO_LUMO_gap": 0.19943, 
			 "cosmo_polarized_energy": -15.89, 
			 "cosmo_cavitation_energy": 31.75, 
			 "cosmo_dispersion_energy": -22.13, 
			 "cosmo_repulsion_energy": 1.73, 
			 "cosmo_total_nonelectrostatic_energy": 11.35, 
			 "SMD_solvation_energy": 8.2 
		},
		"coords": [
			{
				"x": -2.807528856,
				"y": -1.9135881406,
				"z": -1.7080594566,
				"element": "C" 
			},
			{
				"x": -1.3053938692,
				"y": -1.7409006185,
				"z": -1.8301390865,
				"element": "C" 
			},
			{
				"x": -0.9686586789,
				"y": -0.4634212032,
				"z": -1.2471570424,
				"element": "O" 
			},
			{
				"x": 0.3530586166,
				"y": -0.1213935961,
				"z": -1.2499163461,
				"element": "C" 
			},
			{
				"x": 1.3019212213,
				"y": -0.7687310164,
				"z": -0.4413130441,
				"element": "C" 
			},
			{
				"x": 0.8944191632,
				"y": -1.8578524823,
				"z": 0.3317097001,
				"element": "O" 
			},
			{
				"x": 0.6768606819,
				"y": -1.6268309713,
				"z": 1.6690145784,
				"element": "C" 
			},
			{
				"x": 1.8284168461,
				"y": -1.2691546596,
				"z": 2.3007244657,
				"element": "F" 
			},
			{
				"x": -0.2023865888,
				"y": -0.6150417423,
				"z": 1.8599564544,
				"element": "F" 
			},
			{
				"x": 2.6394537082,
				"y": -0.3758879421,
				"z": -0.4503555547,
				"element": "C" 
			},
			{
				"x": 3.0463586592,
				"y": 0.6820172601,
				"z": -1.2571578952,
				"element": "C" 
			},
			{
				"x": 2.110579729,
				"y": 1.3640050257,
				"z": -2.044725025,
				"element": "C" 
			},
			{
				"x": 0.7739706688,
				"y": 0.9445002425,
				"z": -2.0481485377,
				"element": "C" 
			},
			{
				"x": 2.6047043986,
				"y": 2.4978869002,
				"z": -2.893330408,
				"element": "C" 
			},
			{
				"x": 1.6768837161,
				"y": 3.4039436357,
				"z": -3.3023500262,
				"element": "O" 
			},
			{
				"x": 3.7620946036,
				"y": 2.6290072623,
				"z": -3.2145354727,
				"element": "O" 
			},
			{
				"x": -3.1114492342,
				"y": -1.9020482962,
				"z": -0.657560208,
				"element": "H" 
			},
			{
				"x": -3.1119125368,
				"y": -2.8683175423,
				"z": -2.1480214802,
				"element": "H" 
			},
			{
				"x": -3.3342770458,
				"y": -1.1082238501,
				"z": -2.2276263652,
				"element": "H" 
			},
			{
				"x": -0.9895694606,
				"y": -1.7461988934,
				"z": -2.8824194269,
				"element": "H" 
			},
			{
				"x": -0.7700913159,
				"y": -2.5398777195,
				"z": -1.3066911271,
				"element": "H" 
			},
			{
				"x": 0.2909514806,
				"y": -2.5506185181,
				"z": 2.1056455008,
				"element": "H" 
			},
			{
				"x": 3.3440049091,
				"y": -0.9061294883,
				"z": 0.1795337039,
				"element": "H" 
			},
			{
				"x": 4.0825742577,
				"y": 0.998869865,
				"z": -1.2857787583,
				"element": "H" 
			},
			{
				"x": 0.0238531273,
				"y": 1.4063118927,
				"z": -2.6839679643,
				"element": "H" 
			},
			{
				"x": 0.8430617992,
				"y": 3.263574596,
				"z": -2.8325311781,
				"element": "H" 
			}
		],
		 "valence_orbital": [ 
			{
				"type": "occ",
				"energy": -0.31732,
				"method": "rhf"
			},
			{
				"type": "occ",
				"energy": -0.29706,
				"method": "rhf"
			},
			{
				"type": "occ",
				"energy": -0.27732,
				"method": "rhf"
			},
			{
				"type": "occ",
				"energy": -0.27105,
				"method": "rhf"
			},
			{
				"type": "occ",
				"energy": -0.25402,
				"method": "rhf"
			},
			{
				"type": "unocc",
				"energy": -0.05459,
				"method": "rhf"
			},
			{
				"type": "unocc",
				"energy": -0.02388,
				"method": "rhf"
			},
			{
				"type": "unocc",
				"energy": 0.04273,
				"method": "rhf"
			},
			{
				"type": "unocc",
				"energy": 0.05958,
				"method": "rhf"
			},
			{
				"type": "unocc",
				"energy": 0.08605,
				"method": "rhf"
			}
		],
		"cosmo_sigma_profile": { 
			"-0.025": 0.0,
			"-0.024": 0.0,
			"-0.023": 0.0,
			"-0.022": 0.0,
			"-0.021": 0.0,
			"-0.02": 0.0,
			"-0.019": 0.17688554255,
			"-0.018": 1.16144476645,
			"-0.017": 0.858400786633,
			"-0.016": 1.24198494382,
			"-0.015": 0.873867757934,
			"-0.014": 0.536727149082,
			"-0.013": 1.3175155171,
			"-0.012": 1.42655246096,
			"-0.011": 2.69298199543,
			"-0.01": 3.81663353768,
			"-0.009": 3.28789925379,
			"-0.008": 3.35377162781,
			"-0.007": 4.69931270071,
			"-0.006": 7.12049203391,
			"-0.005": 7.38461992744,
			"-0.004": 16.7954790216,
			"-0.003": 21.9323125814,
			"-0.002": 19.2737274204,
			"-0.001": 18.4095670953,
			"0.0": 21.112633225,
			"0.001": 21.3852085488,
			"0.002": 17.4767833773,
			"0.003": 18.3939534829,
			"0.004": 15.4338368842,
			"0.005": 6.19150140666,
			"0.006": 4.706263537,
			"0.007": 4.92331050264,
			"0.008": 4.87935959522,
			"0.009": 4.39266070311,
			"0.01": 6.23605094558,
			"0.011": 5.95441071895,
			"0.012": 4.02336039745,
			"0.013": 1.31087864152,
			"0.014": 0.0119989885358,
			"0.015": 0.0,
			"0.016": 0.0,
			"0.017": 0.0,
			"0.018": 0.0,
			"0.019": 0.0,
			"0.02": 0.0,
			"0.021": 0.0,
			"0.022": 0.0,
			"0.023": 0.0,
			"0.024": 0.0,
			"0.025": 0.0
		}
	}
}
