{
	 "smiles": "CC1=CC(C=O)=C(C)N1C1CC1", 
	 "Tm": 346.15, 
	 "num_atms": 25, 
	 "gaussian": { 
		 "optdone": 1, 
		 "sigma_profile": "yes", 
		 "theory": "DFT", 
		 "functional": "B3LYP", 
		 "basiset": "6-31G**", 
		 "properties": { 
			 "R2extent": 2973.7266, 
			 "electric_dipole_moment_norm": 6.36545224945, 
			 "electric_quadrupole_moment_norm": 29.5931461227, 
			 "total_energy": -518.83709104, 
			 "HOMO_LUMO_gap": 0.1855, 
			 "cosmo_polarized_energy": -12.57, 
			 "cosmo_cavitation_energy": 27.54, 
			 "cosmo_dispersion_energy": -19.54, 
			 "cosmo_repulsion_energy": 1.55, 
			 "cosmo_total_nonelectrostatic_energy": 9.55, 
			 "SMD_solvation_energy": 5.29 
		},
		"coords": [
			{
				"x": 0.4410216232,
				"y": 2.4663485714,
				"z": 0.2020381731,
				"element": "C" 
			},
			{
				"x": 1.3245134738,
				"y": 1.2598702444,
				"z": 0.2331955111,
				"element": "C" 
			},
			{
				"x": 2.6873329052,
				"y": 1.1831446619,
				"z": 0.3201658013,
				"element": "C" 
			},
			{
				"x": 3.0517891396,
				"y": -0.1997897186,
				"z": 0.3725336434,
				"element": "C" 
			},
			{
				"x": 4.4086604101,
				"y": -0.7123960262,
				"z": 0.4739850828,
				"element": "C" 
			},
			{
				"x": 5.4128511879,
				"y": -0.015874186,
				"z": 0.5139340773,
				"element": "O" 
			},
			{
				"x": 1.8754640114,
				"y": -0.9458086355,
				"z": 0.3182341586,
				"element": "C" 
			},
			{
				"x": 1.6742438218,
				"y": -2.4270240417,
				"z": 0.3941321967,
				"element": "C" 
			},
			{
				"x": 0.8276048705,
				"y": -0.0541578213,
				"z": 0.2075787618,
				"element": "N" 
			},
			{
				"x": -0.5679431733,
				"y": -0.4057296654,
				"z": 0.2402946776,
				"element": "C" 
			},
			{
				"x": -1.134040361,
				"y": -1.3652299857,
				"z": -0.7796713238,
				"element": "C" 
			},
			{
				"x": -1.4974705952,
				"y": 0.0922374777,
				"z": -0.8405385858,
				"element": "C" 
			},
			{
				"x": -0.3339193361,
				"y": 2.4351082441,
				"z": 0.9768081558,
				"element": "H" 
			},
			{
				"x": 1.0517814974,
				"y": 3.3548126416,
				"z": 0.3787849883,
				"element": "H" 
			},
			{
				"x": -0.0688331444,
				"y": 2.6018901957,
				"z": -0.7588407566,
				"element": "H" 
			},
			{
				"x": 3.3788178682,
				"y": 2.0126867995,
				"z": 0.3501697452,
				"element": "H" 
			},
			{
				"x": 4.5003414854,
				"y": -1.8213432168,
				"z": 0.5160517679,
				"element": "H" 
			},
			{
				"x": 2.6093289778,
				"y": -2.9163860016,
				"z": 0.6716986162,
				"element": "H" 
			},
			{
				"x": 1.3480253736,
				"y": -2.8582334105,
				"z": -0.5593872271,
				"element": "H" 
			},
			{
				"x": 0.9225653427,
				"y": -2.6968156749,
				"z": 1.1439675509,
				"element": "H" 
			},
			{
				"x": -0.9855421922,
				"y": -0.4662660367,
				"z": 1.2445857199,
				"element": "H" 
			},
			{
				"x": -1.8722188646,
				"y": -2.0836948423,
				"z": -0.4378875684,
				"element": "H" 
			},
			{
				"x": -0.4627206423,
				"y": -1.7359393763,
				"z": -1.5462208645,
				"element": "H" 
			},
			{
				"x": -1.0621866752,
				"y": 0.6733416342,
				"z": -1.6457833366,
				"element": "H" 
			},
			{
				"x": -2.4928670046,
				"y": 0.4051481687,
				"z": -0.542128965,
				"element": "H" 
			}
		],
		 "valence_orbital": [ 
			{
				"type": "occ",
				"energy": -0.3211,
				"method": "rhf"
			},
			{
				"type": "occ",
				"energy": -0.31668,
				"method": "rhf"
			},
			{
				"type": "occ",
				"energy": -0.23777,
				"method": "rhf"
			},
			{
				"type": "occ",
				"energy": -0.22737,
				"method": "rhf"
			},
			{
				"type": "occ",
				"energy": -0.20656,
				"method": "rhf"
			},
			{
				"type": "unocc",
				"energy": -0.02106,
				"method": "rhf"
			},
			{
				"type": "unocc",
				"energy": 0.03544,
				"method": "rhf"
			},
			{
				"type": "unocc",
				"energy": 0.07696,
				"method": "rhf"
			},
			{
				"type": "unocc",
				"energy": 0.08117,
				"method": "rhf"
			},
			{
				"type": "unocc",
				"energy": 0.09015,
				"method": "rhf"
			}
		],
		"cosmo_sigma_profile": { 
			"-0.025": 0.0,
			"-0.024": 0.0,
			"-0.023": 0.0,
			"-0.022": 0.0,
			"-0.021": 0.0,
			"-0.02": 0.0,
			"-0.019": 0.0,
			"-0.018": 0.0,
			"-0.017": 0.0,
			"-0.016": 0.0,
			"-0.015": 0.0,
			"-0.014": 0.0,
			"-0.013": 0.0,
			"-0.012": 0.0,
			"-0.011": 0.0,
			"-0.01": 0.0,
			"-0.009": 0.0,
			"-0.008": 0.0,
			"-0.007": 0.774003529774,
			"-0.006": 9.50455396643,
			"-0.005": 20.9331100036,
			"-0.004": 24.696145115,
			"-0.003": 23.8114472202,
			"-0.002": 22.0224877434,
			"-0.001": 26.1704816171,
			"0.0": 19.5483494041,
			"0.001": 10.2353848762,
			"0.002": 7.77641318943,
			"0.003": 7.34085428157,
			"0.004": 7.57077924165,
			"0.005": 6.23122684623,
			"0.006": 6.66775508099,
			"0.007": 4.64383221499,
			"0.008": 1.92548777358,
			"0.009": 1.56037284852,
			"0.01": 2.32705118737,
			"0.011": 1.91622059587,
			"0.012": 3.42688793049,
			"0.013": 5.14221527548,
			"0.014": 2.5331663391,
			"0.015": 0.54027390402,
			"0.016": 0.0,
			"0.017": 0.0,
			"0.018": 0.0,
			"0.019": 0.0,
			"0.02": 0.0,
			"0.021": 0.0,
			"0.022": 0.0,
			"0.023": 0.0,
			"0.024": 0.0,
			"0.025": 0.0
		}
	}
}
