{
	 "smiles": "NC1=CC=NN1CC1=CC(F)=C(Cl)C=C1", 
	 "Tm": 342.15, 
	 "num_atms": 24, 
	 "gaussian": { 
		 "optdone": 1, 
		 "sigma_profile": "yes", 
		 "theory": "DFT", 
		 "functional": "B3LYP", 
		 "basiset": "6-31G**", 
		 "properties": { 
			 "R2extent": 5732.548, 
			 "electric_dipole_moment_norm": 2.28122101297, 
			 "electric_quadrupole_moment_norm": 14.2734358099, 
			 "total_energy": -1110.74379057, 
			 "HOMO_LUMO_gap": 0.18397, 
			 "cosmo_polarized_energy": -12.74, 
			 "cosmo_cavitation_energy": 30.78, 
			 "cosmo_dispersion_energy": -21.89, 
			 "cosmo_repulsion_energy": 1.7, 
			 "cosmo_total_nonelectrostatic_energy": 10.59, 
			 "SMD_solvation_energy": 4.76 
		},
		"coords": [
			{
				"x": -0.679958512,
				"y": 1.4669056466,
				"z": 0.017761786,
				"element": "N" 
			},
			{
				"x": -1.3465016385,
				"y": 0.2498176098,
				"z": 0.1965934991,
				"element": "C" 
			},
			{
				"x": -2.5372074837,
				"y": -0.0884185713,
				"z": 0.8229549798,
				"element": "C" 
			},
			{
				"x": -2.6759707438,
				"y": -1.473662425,
				"z": 0.5850555924,
				"element": "C" 
			},
			{
				"x": -1.6658708435,
				"y": -1.9731004368,
				"z": -0.1216740814,
				"element": "N" 
			},
			{
				"x": -0.8677027456,
				"y": -0.8938972118,
				"z": -0.3731683943,
				"element": "N" 
			},
			{
				"x": 0.3653672772,
				"y": -1.0507160419,
				"z": -1.1197495589,
				"element": "C" 
			},
			{
				"x": 1.5993203877,
				"y": -1.1638521629,
				"z": -0.2380853687,
				"element": "C" 
			},
			{
				"x": 2.7494308281,
				"y": -0.4273347826,
				"z": -0.5346233566,
				"element": "C" 
			},
			{
				"x": 3.8830926916,
				"y": -0.5581753856,
				"z": 0.2615043446,
				"element": "C" 
			},
			{
				"x": 4.9774366546,
				"y": 0.1588287808,
				"z": -0.0375936944,
				"element": "F" 
			},
			{
				"x": 3.8912203671,
				"y": -1.4125597633,
				"z": 1.3634188576,
				"element": "C" 
			},
			{
				"x": 5.3268398025,
				"y": -1.5479153214,
				"z": 2.3468562103,
				"element": "Cl" 
			},
			{
				"x": 2.7415550042,
				"y": -2.1464661982,
				"z": 1.6645673573,
				"element": "C" 
			},
			{
				"x": 1.6047409239,
				"y": -2.0230017505,
				"z": 0.8696584345,
				"element": "C" 
			},
			{
				"x": -1.1707405159,
				"y": 2.2318653748,
				"z": 0.4634364752,
				"element": "H" 
			},
			{
				"x": 0.2829193646,
				"y": 1.4478657931,
				"z": 0.3406594371,
				"element": "H" 
			},
			{
				"x": -3.1947060807,
				"y": 0.5687377468,
				"z": 1.372658438,
				"element": "H" 
			},
			{
				"x": -3.4743076457,
				"y": -2.1292178291,
				"z": 0.9080773945,
				"element": "H" 
			},
			{
				"x": 0.4661595552,
				"y": -0.2016031013,
				"z": -1.8032845037,
				"element": "H" 
			},
			{
				"x": 0.2376175397,
				"y": -1.9568277918,
				"z": -1.7184432093,
				"element": "H" 
			},
			{
				"x": 2.7889345008,
				"y": 0.2499709386,
				"z": -1.38261381,
				"element": "H" 
			},
			{
				"x": 2.749492925,
				"y": -2.8110342623,
				"z": 2.5216630768,
				"element": "H" 
			},
			{
				"x": 0.7104383871,
				"y": -2.5917088546,
				"z": 1.1047700944,
				"element": "H" 
			}
		],
		 "valence_orbital": [ 
			{
				"type": "occ",
				"energy": -0.28157,
				"method": "rhf"
			},
			{
				"type": "occ",
				"energy": -0.26913,
				"method": "rhf"
			},
			{
				"type": "occ",
				"energy": -0.25376,
				"method": "rhf"
			},
			{
				"type": "occ",
				"energy": -0.2417,
				"method": "rhf"
			},
			{
				"type": "occ",
				"energy": -0.2126,
				"method": "rhf"
			},
			{
				"type": "unocc",
				"energy": -0.02863,
				"method": "rhf"
			},
			{
				"type": "unocc",
				"energy": -0.01907,
				"method": "rhf"
			},
			{
				"type": "unocc",
				"energy": 0.01856,
				"method": "rhf"
			},
			{
				"type": "unocc",
				"energy": 0.02999,
				"method": "rhf"
			},
			{
				"type": "unocc",
				"energy": 0.07002,
				"method": "rhf"
			}
		],
		"cosmo_sigma_profile": { 
			"-0.025": 0.0,
			"-0.024": 0.0,
			"-0.023": 0.0,
			"-0.022": 0.0,
			"-0.021": 0.0,
			"-0.02": 0.0,
			"-0.019": 0.0,
			"-0.018": 0.0,
			"-0.017": 0.0,
			"-0.016": 0.0,
			"-0.015": 0.0,
			"-0.014": 0.0131899322064,
			"-0.013": 1.12459489615,
			"-0.012": 1.83968720078,
			"-0.011": 2.57486283874,
			"-0.01": 2.30125305959,
			"-0.009": 2.61579852899,
			"-0.008": 5.75371623458,
			"-0.007": 9.43150207099,
			"-0.006": 14.5807538564,
			"-0.005": 13.7931832535,
			"-0.004": 12.9726732907,
			"-0.003": 11.1441767048,
			"-0.002": 11.898036157,
			"-0.001": 17.6375984604,
			"0.0": 18.6286947192,
			"0.001": 21.1485040806,
			"0.002": 19.6242425148,
			"0.003": 21.5827402663,
			"0.004": 23.4076308989,
			"0.005": 11.5499649195,
			"0.006": 6.87898789016,
			"0.007": 4.29538579908,
			"0.008": 1.97993670778,
			"0.009": 2.32616870955,
			"0.01": 1.50048375054,
			"0.011": 1.90621438174,
			"0.012": 1.61642054411,
			"0.013": 1.28383829611,
			"0.014": 1.52364438324,
			"0.015": 0.886809818279,
			"0.016": 0.693560350135,
			"0.017": 0.0995760213135,
			"0.018": 0.0,
			"0.019": 0.0,
			"0.02": 0.0,
			"0.021": 0.0,
			"0.022": 0.0,
			"0.023": 0.0,
			"0.024": 0.0,
			"0.025": 0.0
		}
	}
}
