{
	 "smiles": "O1O[C@]2(C3=CC=CC=C3)C3=C(C=CC=C3)[C@@]1(C1=CC=CC=C1)C1=C2C=CC=C1", 
	 "Tm": 517.0, 
	 "num_atms": 46, 
	 "gaussian": { 
		 "optdone": 1, 
		 "sigma_profile": "yes", 
		 "theory": "DFT", 
		 "functional": "B3LYP", 
		 "basiset": "6-31G**", 
		 "properties": { 
			 "R2extent": 9682.3063, 
			 "electric_dipole_moment_norm": 2.21153905233, 
			 "electric_quadrupole_moment_norm": 16.2418464988, 
			 "total_energy": -1151.95309422, 
			 "HOMO_LUMO_gap": 0.19864, 
			 "cosmo_polarized_energy": -11.67, 
			 "cosmo_cavitation_energy": 46.86, 
			 "cosmo_dispersion_energy": -32.94, 
			 "cosmo_repulsion_energy": 2.43, 
			 "cosmo_total_nonelectrostatic_energy": 16.35, 
			 "SMD_solvation_energy": 6.99 
		},
		"coords": [
			{
				"x": 0.6966278253,
				"y": 1.5624471535,
				"z": -1.3534007663,
				"element": "O" 
			},
			{
				"x": -0.6721355245,
				"y": 1.2360186595,
				"z": -0.9470676127,
				"element": "O" 
			},
			{
				"x": -0.7027941123,
				"y": 0.2750573035,
				"z": 0.1690416522,
				"element": "C" 
			},
			{
				"x": -2.1717019331,
				"y": 0.0392962942,
				"z": 0.4712095701,
				"element": "C" 
			},
			{
				"x": -3.1838591547,
				"y": 0.6781389874,
				"z": -0.2546036785,
				"element": "C" 
			},
			{
				"x": -4.5261881649,
				"y": 0.4391869381,
				"z": 0.0480634563,
				"element": "C" 
			},
			{
				"x": -4.8755881545,
				"y": -0.4372228602,
				"z": 1.0751389385,
				"element": "C" 
			},
			{
				"x": -3.8713091968,
				"y": -1.0781764448,
				"z": 1.8033229737,
				"element": "C" 
			},
			{
				"x": -2.5295826991,
				"y": -0.8418741584,
				"z": 1.5037672293,
				"element": "C" 
			},
			{
				"x": 0.0615955988,
				"y": -0.9460611679,
				"z": -0.3357543054,
				"element": "C" 
			},
			{
				"x": 1.3749653142,
				"y": -0.6327211193,
				"z": -0.7257082296,
				"element": "C" 
			},
			{
				"x": 2.1857414724,
				"y": -1.6080589139,
				"z": -1.3002565957,
				"element": "C" 
			},
			{
				"x": 1.6950834877,
				"y": -2.9089362947,
				"z": -1.4550842114,
				"element": "C" 
			},
			{
				"x": 0.3927551273,
				"y": -3.2197148615,
				"z": -1.0680924632,
				"element": "C" 
			},
			{
				"x": -0.435247925,
				"y": -2.2334302587,
				"z": -0.5216239887,
				"element": "C" 
			},
			{
				"x": 1.6985603707,
				"y": 0.8479281386,
				"z": -0.5436507826,
				"element": "C" 
			},
			{
				"x": 3.0503525082,
				"y": 1.2857165252,
				"z": -1.0780733736,
				"element": "C" 
			},
			{
				"x": 3.1636677298,
				"y": 2.1967621824,
				"z": -2.1347409295,
				"element": "C" 
			},
			{
				"x": 4.4224788602,
				"y": 2.579540592,
				"z": -2.6031661157,
				"element": "C" 
			},
			{
				"x": 5.5810448006,
				"y": 2.0605555042,
				"z": -2.0257325265,
				"element": "C" 
			},
			{
				"x": 5.4757361447,
				"y": 1.1514539,
				"z": -0.9711752133,
				"element": "C" 
			},
			{
				"x": 4.2200835623,
				"y": 0.7668793938,
				"z": -0.5007975199,
				"element": "C" 
			},
			{
				"x": 1.4071131573,
				"y": 1.2531359355,
				"z": 0.8989598531,
				"element": "C" 
			},
			{
				"x": 0.0936647978,
				"y": 0.93991448,
				"z": 1.2887481675,
				"element": "C" 
			},
			{
				"x": -0.3746098354,
				"y": 1.3244054618,
				"z": 2.5424080443,
				"element": "C" 
			},
			{
				"x": 0.4818735818,
				"y": 1.9941970189,
				"z": 3.4226372588,
				"element": "C" 
			},
			{
				"x": 1.7844394648,
				"y": 2.3046105113,
				"z": 3.0361629962,
				"element": "C" 
			},
			{
				"x": 2.2467277572,
				"y": 1.9491996556,
				"z": 1.7645694127,
				"element": "C" 
			},
			{
				"x": -2.9204757172,
				"y": 1.3599456892,
				"z": -1.053705783,
				"element": "H" 
			},
			{
				"x": -5.2998916037,
				"y": 0.9427492318,
				"z": -0.5244691281,
				"element": "H" 
			},
			{
				"x": -5.9206926548,
				"y": -0.6204117225,
				"z": 1.307442712,
				"element": "H" 
			},
			{
				"x": -4.129776404,
				"y": -1.7632468164,
				"z": 2.6057461099,
				"element": "H" 
			},
			{
				"x": -1.7547670455,
				"y": -1.3447226774,
				"z": 2.0750240519,
				"element": "H" 
			},
			{
				"x": 3.1891257326,
				"y": -1.3629475341,
				"z": -1.6298184224,
				"element": "H" 
			},
			{
				"x": 2.3314214715,
				"y": -3.6748191904,
				"z": -1.8891160429,
				"element": "H" 
			},
			{
				"x": 0.0117771026,
				"y": -4.2283791693,
				"z": -1.1997585516,
				"element": "H" 
			},
			{
				"x": -1.4573232251,
				"y": -2.471585129,
				"z": -0.2493525429,
				"element": "H" 
			},
			{
				"x": 2.2686149015,
				"y": 2.6042597608,
				"z": -2.588194004,
				"element": "H" 
			},
			{
				"x": 4.4935642245,
				"y": 3.2874737575,
				"z": -3.4239961847,
				"element": "H" 
			},
			{
				"x": 6.5582116198,
				"y": 2.3607445944,
				"z": -2.3928813978,
				"element": "H" 
			},
			{
				"x": 6.3702063152,
				"y": 0.7397686371,
				"z": -0.5124285115,
				"element": "H" 
			},
			{
				"x": 4.1472434365,
				"y": 0.0593224277,
				"z": 0.3199256825,
				"element": "H" 
			},
			{
				"x": -1.3964337505,
				"y": 1.1111140863,
				"z": 2.8354399602,
				"element": "H" 
			},
			{
				"x": 0.1229780841,
				"y": 2.2814237899,
				"z": 4.4068021627,
				"element": "H" 
			},
			{
				"x": 2.4431012936,
				"y": 2.8342750198,
				"z": 3.7184398039,
				"element": "H" 
			},
			{
				"x": 3.2507213579,
				"y": 2.2185866887,
				"z": 1.4564988457,
				"element": "H" 
			}
		],
		 "valence_orbital": [ 
			{
				"type": "occ",
				"energy": -0.25064,
				"method": "rhf"
			},
			{
				"type": "occ",
				"energy": -0.24993,
				"method": "rhf"
			},
			{
				"type": "occ",
				"energy": -0.24658,
				"method": "rhf"
			},
			{
				"type": "occ",
				"energy": -0.23286,
				"method": "rhf"
			},
			{
				"type": "occ",
				"energy": -0.22499,
				"method": "rhf"
			},
			{
				"type": "unocc",
				"energy": -0.02635,
				"method": "rhf"
			},
			{
				"type": "unocc",
				"energy": -0.0134,
				"method": "rhf"
			},
			{
				"type": "unocc",
				"energy": -0.01121,
				"method": "rhf"
			},
			{
				"type": "unocc",
				"energy": -0.01037,
				"method": "rhf"
			},
			{
				"type": "unocc",
				"energy": -0.00405,
				"method": "rhf"
			}
		],
		"cosmo_sigma_profile": { 
			"-0.025": 0.0,
			"-0.024": 0.0,
			"-0.023": 0.0,
			"-0.022": 0.0,
			"-0.021": 0.0,
			"-0.02": 0.0,
			"-0.019": 0.0,
			"-0.018": 0.0,
			"-0.017": 0.0,
			"-0.016": 0.0,
			"-0.015": 0.0,
			"-0.014": 0.0,
			"-0.013": 0.0,
			"-0.012": 0.0,
			"-0.011": 0.0,
			"-0.01": 0.0,
			"-0.009": 0.0,
			"-0.008": 0.0,
			"-0.007": 0.629282534962,
			"-0.006": 20.2250014246,
			"-0.005": 32.3192934469,
			"-0.004": 42.9371642602,
			"-0.003": 30.6311987071,
			"-0.002": 29.0042888963,
			"-0.001": 21.2882612061,
			"0.0": 24.4753955152,
			"0.001": 26.9721141036,
			"0.002": 30.8395508755,
			"0.003": 33.1176693615,
			"0.004": 36.3419073676,
			"0.005": 28.5111823396,
			"0.006": 4.2501902858,
			"0.007": 3.41925097912,
			"0.008": 4.28876717767,
			"0.009": 3.82738557567,
			"0.01": 3.27802490556,
			"0.011": 0.258346980063,
			"0.012": 0.0,
			"0.013": 0.0,
			"0.014": 0.0,
			"0.015": 0.0,
			"0.016": 0.0,
			"0.017": 0.0,
			"0.018": 0.0,
			"0.019": 0.0,
			"0.02": 0.0,
			"0.021": 0.0,
			"0.022": 0.0,
			"0.023": 0.0,
			"0.024": 0.0,
			"0.025": 0.0
		}
	}
}
