{
	 "smiles": "O=CC1=CSC(=N1)C1=NC=CC=N1", 
	 "Tm": 471.15, 
	 "num_atms": 18, 
	 "gaussian": { 
		 "optdone": 1, 
		 "sigma_profile": "yes", 
		 "theory": "DFT", 
		 "functional": "B3LYP", 
		 "basiset": "6-31G**", 
		 "properties": { 
			 "R2extent": 3891.3234, 
			 "electric_dipole_moment_norm": 5.36950368191, 
			 "electric_quadrupole_moment_norm": 8.18620556302, 
			 "total_energy": -945.501351504, 
			 "HOMO_LUMO_gap": 0.16947, 
			 "cosmo_polarized_energy": -13.54, 
			 "cosmo_cavitation_energy": 25.81, 
			 "cosmo_dispersion_energy": -19.56, 
			 "cosmo_repulsion_energy": 1.49, 
			 "cosmo_total_nonelectrostatic_energy": 7.74, 
			 "SMD_solvation_energy": 1.65 
		},
		"coords": [
			{
				"x": 0.1120384089,
				"y": 1.2825376268,
				"z": 3.6512345228,
				"element": "O" 
			},
			{
				"x": 0.2977093144,
				"y": 0.7761751811,
				"z": 2.5608522493,
				"element": "C" 
			},
			{
				"x": -0.6589321264,
				"y": 0.8664592654,
				"z": 1.4388333249,
				"element": "C" 
			},
			{
				"x": -1.8664900315,
				"y": 1.5290401944,
				"z": 1.490554223,
				"element": "C" 
			},
			{
				"x": -2.6823844061,
				"y": 1.4022451014,
				"z": -0.0122169381,
				"element": "S" 
			},
			{
				"x": -1.3209950637,
				"y": 0.4488643517,
				"z": -0.6221265739,
				"element": "C" 
			},
			{
				"x": -0.3650019013,
				"y": 0.2622161285,
				"z": 0.2410932594,
				"element": "N" 
			},
			{
				"x": -1.35236305,
				"y": -0.0526012687,
				"z": -2.0079240557,
				"element": "C" 
			},
			{
				"x": -2.4498490422,
				"y": 0.2684060331,
				"z": -2.7137392506,
				"element": "N" 
			},
			{
				"x": -2.4993638984,
				"y": -0.1756487643,
				"z": -3.9713497254,
				"element": "C" 
			},
			{
				"x": -1.4715317367,
				"y": -0.9328594622,
				"z": -4.5308664945,
				"element": "C" 
			},
			{
				"x": -0.3818187046,
				"y": -1.2040427441,
				"z": -3.7030330601,
				"element": "C" 
			},
			{
				"x": -0.3078029557,
				"y": -0.7716893683,
				"z": -2.4417713898,
				"element": "N" 
			},
			{
				"x": 1.2139603716,
				"y": 0.1988545638,
				"z": 2.3221425392,
				"element": "H" 
			},
			{
				"x": -2.2745796917,
				"y": 2.0628738811,
				"z": 2.3372940212,
				"element": "H" 
			},
			{
				"x": -3.3880323397,
				"y": 0.0840777349,
				"z": -4.5433965769,
				"element": "H" 
			},
			{
				"x": -1.5166117788,
				"y": -1.291221663,
				"z": -5.553039888,
				"element": "H" 
			},
			{
				"x": 0.4635486318,
				"y": -1.7887867916,
				"z": -4.0616401869,
				"element": "H" 
			}
		],
		 "valence_orbital": [ 
			{
				"type": "occ",
				"energy": -0.29861,
				"method": "rhf"
			},
			{
				"type": "occ",
				"energy": -0.29236,
				"method": "rhf"
			},
			{
				"type": "occ",
				"energy": -0.26668,
				"method": "rhf"
			},
			{
				"type": "occ",
				"energy": -0.25655,
				"method": "rhf"
			},
			{
				"type": "occ",
				"energy": -0.25147,
				"method": "rhf"
			},
			{
				"type": "unocc",
				"energy": -0.082,
				"method": "rhf"
			},
			{
				"type": "unocc",
				"energy": -0.06002,
				"method": "rhf"
			},
			{
				"type": "unocc",
				"energy": -0.05387,
				"method": "rhf"
			},
			{
				"type": "unocc",
				"energy": 0.01564,
				"method": "rhf"
			},
			{
				"type": "unocc",
				"energy": 0.01824,
				"method": "rhf"
			}
		],
		"cosmo_sigma_profile": { 
			"-0.025": 0.0,
			"-0.024": 0.0,
			"-0.023": 0.0,
			"-0.022": 0.0,
			"-0.021": 0.0,
			"-0.02": 0.0,
			"-0.019": 0.0,
			"-0.018": 0.0,
			"-0.017": 0.0,
			"-0.016": 0.0,
			"-0.015": 0.0,
			"-0.014": 0.0,
			"-0.013": 0.0,
			"-0.012": 0.0,
			"-0.011": 0.403795230852,
			"-0.01": 1.83246798781,
			"-0.009": 3.59435161043,
			"-0.008": 9.80640066341,
			"-0.007": 10.494915143,
			"-0.006": 10.2527481666,
			"-0.005": 9.02876678658,
			"-0.004": 10.4337931135,
			"-0.003": 14.6744532493,
			"-0.002": 20.2593621096,
			"-0.001": 25.6250312008,
			"0.0": 19.8128918082,
			"0.001": 13.6395846777,
			"0.002": 8.13186092393,
			"0.003": 6.04753476039,
			"0.004": 4.46294753748,
			"0.005": 5.14385858767,
			"0.006": 4.86571223973,
			"0.007": 4.40060358874,
			"0.008": 4.32006485856,
			"0.009": 4.3228986027,
			"0.01": 5.27964508774,
			"0.011": 6.33205407719,
			"0.012": 2.87905919634,
			"0.013": 1.11420654534,
			"0.014": 1.25377828146,
			"0.015": 1.3947018458,
			"0.016": 1.08317866177,
			"0.017": 0.835978974653,
			"0.018": 0.0142474146048,
			"0.019": 0.0,
			"0.02": 0.0,
			"0.021": 0.0,
			"0.022": 0.0,
			"0.023": 0.0,
			"0.024": 0.0,
			"0.025": 0.0
		}
	}
}
