{
	 "smiles": "CN(C)C1(CCCSC1)C(O)=O", 
	 "Tm": 470.15, 
	 "num_atms": 27, 
	 "gaussian": { 
		 "optdone": 1, 
		 "sigma_profile": "yes", 
		 "theory": "DFT", 
		 "functional": "B3LYP", 
		 "basiset": "6-31G**", 
		 "properties": { 
			 "R2extent": 2508.7704, 
			 "electric_dipole_moment_norm": 2.9187307978, 
			 "electric_quadrupole_moment_norm": 8.42590416454, 
			 "total_energy": -917.280981499, 
			 "HOMO_LUMO_gap": 0.2209, 
			 "cosmo_polarized_energy": -11.42, 
			 "cosmo_cavitation_energy": 27.97, 
			 "cosmo_dispersion_energy": -21.0, 
			 "cosmo_repulsion_energy": 1.6, 
			 "cosmo_total_nonelectrostatic_energy": 8.57, 
			 "SMD_solvation_energy": 3.42 
		},
		"coords": [
			{
				"x": -1.3575375526,
				"y": 0.3548636422,
				"z": 1.424956269,
				"element": "C" 
			},
			{
				"x": -0.3654057155,
				"y": -0.590582443,
				"z": 0.9032108438,
				"element": "N" 
			},
			{
				"x": -0.9152473965,
				"y": -1.9486163742,
				"z": 0.9332582424,
				"element": "C" 
			},
			{
				"x": 0.3219277001,
				"y": -0.1929442894,
				"z": -0.3633418989,
				"element": "C" 
			},
			{
				"x": 1.4455276364,
				"y": -1.2186685775,
				"z": -0.6571300145,
				"element": "C" 
			},
			{
				"x": 2.3743504979,
				"y": -0.8929938606,
				"z": -1.8376901246,
				"element": "C" 
			},
			{
				"x": 3.1043852637,
				"y": 0.4400571041,
				"z": -1.6904543076,
				"element": "C" 
			},
			{
				"x": 1.9178060048,
				"y": 1.8280842385,
				"z": -1.5766513731,
				"element": "S" 
			},
			{
				"x": 0.9288608647,
				"y": 1.2148696543,
				"z": -0.1648851689,
				"element": "C" 
			},
			{
				"x": -0.7395746162,
				"y": -0.111435812,
				"z": -1.4790149648,
				"element": "C" 
			},
			{
				"x": -0.8420024979,
				"y": -1.248197503,
				"z": -2.214255688,
				"element": "O" 
			},
			{
				"x": -1.5052428652,
				"y": 0.8171003528,
				"z": -1.6324705451,
				"element": "O" 
			},
			{
				"x": -2.244515456,
				"y": 0.4738293226,
				"z": 0.7823628967,
				"element": "H" 
			},
			{
				"x": -0.9186903261,
				"y": 1.340441142,
				"z": 1.5830214327,
				"element": "H" 
			},
			{
				"x": -1.6881516876,
				"y": -0.0108460792,
				"z": 2.4017217458,
				"element": "H" 
			},
			{
				"x": -1.7546815639,
				"y": -2.1111630317,
				"z": 0.2351229259,
				"element": "H" 
			},
			{
				"x": -1.2829183985,
				"y": -2.1428034668,
				"z": 1.9451401741,
				"element": "H" 
			},
			{
				"x": -0.147839281,
				"y": -2.6930714871,
				"z": 0.7209697586,
				"element": "H" 
			},
			{
				"x": 1.0070301899,
				"y": -2.198940416,
				"z": -0.8467047433,
				"element": "H" 
			},
			{
				"x": 2.0336958328,
				"y": -1.2994577327,
				"z": 0.2658323769,
				"element": "H" 
			},
			{
				"x": 3.1142586522,
				"y": -1.7004843312,
				"z": -1.9178875776,
				"element": "H" 
			},
			{
				"x": 1.8028367402,
				"y": -0.8930557267,
				"z": -2.7719158745,
				"element": "H" 
			},
			{
				"x": 3.7298640139,
				"y": 0.6499087075,
				"z": -2.5628537811,
				"element": "H" 
			},
			{
				"x": 3.7529444861,
				"y": 0.4405957974,
				"z": -0.8061352495,
				"element": "H" 
			},
			{
				"x": 1.5347568077,
				"y": 1.2063189389,
				"z": 0.7465842317,
				"element": "H" 
			},
			{
				"x": 0.1391221651,
				"y": 1.9575538626,
				"z": -0.0593980017,
				"element": "H" 
			},
			{
				"x": -1.5909594986,
				"y": -1.103461632,
				"z": -2.8182915842,
				"element": "H" 
			}
		],
		 "valence_orbital": [ 
			{
				"type": "occ",
				"energy": -0.31631,
				"method": "rhf"
			},
			{
				"type": "occ",
				"energy": -0.29762,
				"method": "rhf"
			},
			{
				"type": "occ",
				"energy": -0.2796,
				"method": "rhf"
			},
			{
				"type": "occ",
				"energy": -0.21966,
				"method": "rhf"
			},
			{
				"type": "occ",
				"energy": -0.21645,
				"method": "rhf"
			},
			{
				"type": "unocc",
				"energy": 0.00445,
				"method": "rhf"
			},
			{
				"type": "unocc",
				"energy": 0.04346,
				"method": "rhf"
			},
			{
				"type": "unocc",
				"energy": 0.06854,
				"method": "rhf"
			},
			{
				"type": "unocc",
				"energy": 0.08538,
				"method": "rhf"
			},
			{
				"type": "unocc",
				"energy": 0.08933,
				"method": "rhf"
			}
		],
		"cosmo_sigma_profile": { 
			"-0.025": 0.0,
			"-0.024": 0.0,
			"-0.023": 0.0,
			"-0.022": 0.0,
			"-0.021": 0.0,
			"-0.02": 0.0,
			"-0.019": 0.0,
			"-0.018": 0.458279840076,
			"-0.017": 1.06630520244,
			"-0.016": 0.593712454581,
			"-0.015": 1.04088148966,
			"-0.014": 0.724229032508,
			"-0.013": 0.77000202678,
			"-0.012": 0.209411344612,
			"-0.011": 0.682758549968,
			"-0.01": 1.02409358353,
			"-0.009": 0.873218653712,
			"-0.008": 0.342782319525,
			"-0.007": 0.863960364545,
			"-0.006": 4.02866809303,
			"-0.005": 11.6718831889,
			"-0.004": 21.1549835309,
			"-0.003": 23.2157344764,
			"-0.002": 28.8023031574,
			"-0.001": 27.45274435,
			"0.0": 19.5616802258,
			"0.001": 8.87213227814,
			"0.002": 7.61550094757,
			"0.003": 6.34120426942,
			"0.004": 7.19014636533,
			"0.005": 6.85840983457,
			"0.006": 7.54428794112,
			"0.007": 5.86425430547,
			"0.008": 5.77613421357,
			"0.009": 4.94369874573,
			"0.01": 4.49608846687,
			"0.011": 3.80551247981,
			"0.012": 4.2417875988,
			"0.013": 0.5880724704,
			"0.014": 0.100034619852,
			"0.015": 0.0,
			"0.016": 0.0,
			"0.017": 0.0,
			"0.018": 0.0,
			"0.019": 0.0,
			"0.02": 0.0,
			"0.021": 0.0,
			"0.022": 0.0,
			"0.023": 0.0,
			"0.024": 0.0,
			"0.025": 0.0
		}
	}
}
