{
	 "smiles": "CC=CC(=O)N1CCOC1=O", 
	 "Tm": 312.15, 
	 "num_atms": 20, 
	 "gaussian": { 
		 "optdone": 1, 
		 "sigma_profile": "yes", 
		 "theory": "DFT", 
		 "functional": "B3LYP", 
		 "basiset": "6-31G**", 
		 "properties": { 
			 "R2extent": 2037.0082, 
			 "electric_dipole_moment_norm": 2.66824725241, 
			 "electric_quadrupole_moment_norm": 16.7442696708, 
			 "total_energy": -552.589170457, 
			 "HOMO_LUMO_gap": 0.21527, 
			 "cosmo_polarized_energy": -13.49, 
			 "cosmo_cavitation_energy": 23.56, 
			 "cosmo_dispersion_energy": -17.28, 
			 "cosmo_repulsion_energy": 1.41, 
			 "cosmo_total_nonelectrostatic_energy": 7.69, 
			 "SMD_solvation_energy": 6.03 
		},
		"coords": [
			{
				"x": 1.5960048984,
				"y": 0.2622225278,
				"z": -2.083065095,
				"element": "C" 
			},
			{
				"x": 0.1416573356,
				"y": -0.0867959703,
				"z": -2.146040628,
				"element": "C" 
			},
			{
				"x": -0.8757312134,
				"y": 0.3860289684,
				"z": -1.4115040025,
				"element": "C" 
			},
			{
				"x": -0.8691863819,
				"y": 1.4671346032,
				"z": -0.397971504,
				"element": "C" 
			},
			{
				"x": -1.7439601001,
				"y": 2.3220689191,
				"z": -0.3842520376,
				"element": "O" 
			},
			{
				"x": 0.1542983193,
				"y": 1.5559444951,
				"z": 0.5688243776,
				"element": "N" 
			},
			{
				"x": 0.1295196937,
				"y": 2.6954828302,
				"z": 1.4893291525,
				"element": "C" 
			},
			{
				"x": 1.3687979463,
				"y": 2.3989539723,
				"z": 2.3374715903,
				"element": "C" 
			},
			{
				"x": 1.5490812377,
				"y": 0.9748613818,
				"z": 2.2278328822,
				"element": "O" 
			},
			{
				"x": 0.8948236369,
				"y": 0.4968399131,
				"z": 1.1325333821,
				"element": "C" 
			},
			{
				"x": 0.9713111532,
				"y": -0.6461691092,
				"z": 0.7680339087,
				"element": "O" 
			},
			{
				"x": 1.7927359062,
				"y": 1.1520523148,
				"z": -1.4823816244,
				"element": "H" 
			},
			{
				"x": 2.159504597,
				"y": -0.5710811324,
				"z": -1.6475354233,
				"element": "H" 
			},
			{
				"x": 1.9870126838,
				"y": 0.4311588645,
				"z": -3.0927311594,
				"element": "H" 
			},
			{
				"x": -0.1217868968,
				"y": -0.8172483246,
				"z": -2.9108323675,
				"element": "H" 
			},
			{
				"x": -1.8885769908,
				"y": 0.0762980974,
				"z": -1.6534592925,
				"element": "H" 
			},
			{
				"x": -0.7972090308,
				"y": 2.6960798658,
				"z": 2.0731037186,
				"element": "H" 
			},
			{
				"x": 0.1887993631,
				"y": 3.6398049161,
				"z": 0.9459960895,
				"element": "H" 
			},
			{
				"x": 1.2471714317,
				"y": 2.6487062176,
				"z": 3.3925711135,
				"element": "H" 
			},
			{
				"x": 2.2647324108,
				"y": 2.8951566494,
				"z": 1.9482769193,
				"element": "H" 
			}
		],
		 "valence_orbital": [ 
			{
				"type": "occ",
				"energy": -0.30812,
				"method": "rhf"
			},
			{
				"type": "occ",
				"energy": -0.29969,
				"method": "rhf"
			},
			{
				"type": "occ",
				"energy": -0.28094,
				"method": "rhf"
			},
			{
				"type": "occ",
				"energy": -0.27162,
				"method": "rhf"
			},
			{
				"type": "occ",
				"energy": -0.25798,
				"method": "rhf"
			},
			{
				"type": "unocc",
				"energy": -0.04271,
				"method": "rhf"
			},
			{
				"type": "unocc",
				"energy": 0.02378,
				"method": "rhf"
			},
			{
				"type": "unocc",
				"energy": 0.06511,
				"method": "rhf"
			},
			{
				"type": "unocc",
				"energy": 0.07367,
				"method": "rhf"
			},
			{
				"type": "unocc",
				"energy": 0.09527,
				"method": "rhf"
			}
		],
		"cosmo_sigma_profile": { 
			"-0.025": 0.0,
			"-0.024": 0.0,
			"-0.023": 0.0,
			"-0.022": 0.0,
			"-0.021": 0.0,
			"-0.02": 0.0,
			"-0.019": 0.0,
			"-0.018": 0.0,
			"-0.017": 0.0,
			"-0.016": 0.0,
			"-0.015": 0.0,
			"-0.014": 0.0,
			"-0.013": 0.0,
			"-0.012": 0.0,
			"-0.011": 0.0,
			"-0.01": 0.0,
			"-0.009": 0.0,
			"-0.008": 2.29026538518,
			"-0.007": 16.1705999234,
			"-0.006": 18.4509586805,
			"-0.005": 15.6862832655,
			"-0.004": 15.7375558694,
			"-0.003": 16.2232796566,
			"-0.002": 13.2424334028,
			"-0.001": 12.4986144186,
			"0.0": 8.66932798625,
			"0.001": 6.10426783956,
			"0.002": 4.98132114877,
			"0.003": 5.14177883616,
			"0.004": 5.80228801807,
			"0.005": 4.80344350154,
			"0.006": 4.13429926276,
			"0.007": 3.50180205276,
			"0.008": 4.50804725056,
			"0.009": 6.56809927508,
			"0.01": 4.69369109404,
			"0.011": 7.27303533046,
			"0.012": 7.95922450089,
			"0.013": 1.99561608794,
			"0.014": 0.0646813153251,
			"0.015": 0.0,
			"0.016": 0.0,
			"0.017": 0.0,
			"0.018": 0.0,
			"0.019": 0.0,
			"0.02": 0.0,
			"0.021": 0.0,
			"0.022": 0.0,
			"0.023": 0.0,
			"0.024": 0.0,
			"0.025": 0.0
		}
	}
}
