{
	 "smiles": "CNC1=C(CO)C2=NC3=C(C=CC4=C3COCN4S(C)(=O)=O)C=C2C=C1", 
	 "Tm": 478.15, 
	 "num_atms": 45, 
	 "gaussian": { 
		 "optdone": 1, 
		 "sigma_profile": "yes", 
		 "theory": "DFT", 
		 "functional": "B3LYP", 
		 "basiset": "6-31G**", 
		 "properties": { 
			 "R2extent": 13972.6707, 
			 "electric_dipole_moment_norm": 7.61602733845, 
			 "electric_quadrupole_moment_norm": 26.2182731985, 
			 "total_energy": -1560.63750246, 
			 "HOMO_LUMO_gap": 0.11872, 
			 "cosmo_polarized_energy": -21.25, 
			 "cosmo_cavitation_energy": 47.25, 
			 "cosmo_dispersion_energy": -34.62, 
			 "cosmo_repulsion_energy": 2.51, 
			 "cosmo_total_nonelectrostatic_energy": 15.15, 
			 "SMD_solvation_energy": 4.96 
		},
		"coords": [
			{
				"x": -5.9536004519,
				"y": 2.4061472417,
				"z": -0.9273238085,
				"element": "C" 
			},
			{
				"x": -4.6300488162,
				"y": 1.8929456392,
				"z": -1.2198897405,
				"element": "N" 
			},
			{
				"x": -3.5559517363,
				"y": 2.038404503,
				"z": -0.37002683,
				"element": "C" 
			},
			{
				"x": -2.3480934114,
				"y": 1.3905237865,
				"z": -0.6595832242,
				"element": "C" 
			},
			{
				"x": -2.2038551912,
				"y": 0.5925945234,
				"z": -1.9269470859,
				"element": "C" 
			},
			{
				"x": -3.255068456,
				"y": -0.3963520558,
				"z": -2.0092445003,
				"element": "O" 
			},
			{
				"x": -1.231414189,
				"y": 1.541581678,
				"z": 0.2170132734,
				"element": "C" 
			},
			{
				"x": -0.0725480781,
				"y": 0.9109592501,
				"z": -0.0726595748,
				"element": "N" 
			},
			{
				"x": 0.9802224168,
				"y": 1.0548142788,
				"z": 0.7468645222,
				"element": "C" 
			},
			{
				"x": 0.9474294572,
				"y": 1.8603664778,
				"z": 1.9404833328,
				"element": "C" 
			},
			{
				"x": 2.1176159676,
				"y": 1.9570407043,
				"z": 2.75058877,
				"element": "C" 
			},
			{
				"x": 3.2678804185,
				"y": 1.3029115329,
				"z": 2.406891072,
				"element": "C" 
			},
			{
				"x": 3.3001011996,
				"y": 0.4902256061,
				"z": 1.2295940298,
				"element": "C" 
			},
			{
				"x": 2.1891431103,
				"y": 0.3531706195,
				"z": 0.4180903028,
				"element": "C" 
			},
			{
				"x": 2.2141210829,
				"y": -0.5037201845,
				"z": -0.8264233406,
				"element": "C" 
			},
			{
				"x": 3.4211426737,
				"y": -1.2571047636,
				"z": -0.9525352122,
				"element": "O" 
			},
			{
				"x": 4.54217711,
				"y": -0.4755164253,
				"z": -0.5977621138,
				"element": "C" 
			},
			{
				"x": 4.5311352138,
				"y": -0.1232370506,
				"z": 0.8234113838,
				"element": "N" 
			},
			{
				"x": 5.2413114393,
				"y": -1.2896710045,
				"z": 1.8744403976,
				"element": "S" 
			},
			{
				"x": 4.016222427,
				"y": -2.6095821724,
				"z": 2.0061945161,
				"element": "C" 
			},
			{
				"x": 5.382813264,
				"y": -0.6667162764,
				"z": 3.1898379298,
				"element": "O" 
			},
			{
				"x": 6.4056071481,
				"y": -1.8110940168,
				"z": 1.1568964307,
				"element": "O" 
			},
			{
				"x": -0.2527765461,
				"y": 2.5156901344,
				"z": 2.2319616381,
				"element": "C" 
			},
			{
				"x": -1.357793829,
				"y": 2.3795747873,
				"z": 1.3925129249,
				"element": "C" 
			},
			{
				"x": -2.5994788554,
				"y": 3.0325196616,
				"z": 1.6406114724,
				"element": "C" 
			},
			{
				"x": -3.6603900141,
				"y": 2.8692316547,
				"z": 0.7968153878,
				"element": "C" 
			},
			{
				"x": -6.6186616794,
				"y": 2.1313906528,
				"z": -1.7490423663,
				"element": "H" 
			},
			{
				"x": -5.9493763237,
				"y": 3.4998392741,
				"z": -0.8609579248,
				"element": "H" 
			},
			{
				"x": -6.3825735842,
				"y": 2.008776476,
				"z": 0.0054710994,
				"element": "H" 
			},
			{
				"x": -4.5884459958,
				"y": 1.0383903242,
				"z": -1.7653650971,
				"element": "H" 
			},
			{
				"x": -2.274068502,
				"y": 1.2700244689,
				"z": -2.7945673106,
				"element": "H" 
			},
			{
				"x": -1.2209733863,
				"y": 0.1161333059,
				"z": -1.93671802,
				"element": "H" 
			},
			{
				"x": -3.1489911062,
				"y": -0.8586196453,
				"z": -2.8507619899,
				"element": "H" 
			},
			{
				"x": 2.0875958043,
				"y": 2.5775189186,
				"z": 3.6423664371,
				"element": "H" 
			},
			{
				"x": 4.1665690647,
				"y": 1.3834745497,
				"z": 3.0041472288,
				"element": "H" 
			},
			{
				"x": 2.061614512,
				"y": 0.1254434905,
				"z": -1.7176029181,
				"element": "H" 
			},
			{
				"x": 1.3948933608,
				"y": -1.2270628277,
				"z": -0.8072667082,
				"element": "H" 
			},
			{
				"x": 5.4392309662,
				"y": -1.0513231771,
				"z": -0.8158134482,
				"element": "H" 
			},
			{
				"x": 4.5546834867,
				"y": 0.4703457921,
				"z": -1.1567301114,
				"element": "H" 
			},
			{
				"x": 3.1231991618,
				"y": -2.2086723827,
				"z": 2.4866833637,
				"element": "H" 
			},
			{
				"x": 4.4621356029,
				"y": -3.3948450307,
				"z": 2.6188007201,
				"element": "H" 
			},
			{
				"x": 3.7909013722,
				"y": -2.9663783399,
				"z": 1.0008932883,
				"element": "H" 
			},
			{
				"x": -0.3261461328,
				"y": 3.1385415396,
				"z": 3.1215057454,
				"element": "H" 
			},
			{
				"x": -2.6926508007,
				"y": 3.6630428229,
				"z": 2.521218711,
				"element": "H" 
			},
			{
				"x": -4.5980391746,
				"y": 3.3689716586,
				"z": 1.0106273475,
				"element": "H" 
			}
		],
		 "valence_orbital": [ 
			{
				"type": "occ",
				"energy": -0.25789,
				"method": "rhf"
			},
			{
				"type": "occ",
				"energy": -0.25227,
				"method": "rhf"
			},
			{
				"type": "occ",
				"energy": -0.24785,
				"method": "rhf"
			},
			{
				"type": "occ",
				"energy": -0.21928,
				"method": "rhf"
			},
			{
				"type": "occ",
				"energy": -0.19204,
				"method": "rhf"
			},
			{
				"type": "unocc",
				"energy": -0.07332,
				"method": "rhf"
			},
			{
				"type": "unocc",
				"energy": -0.01618,
				"method": "rhf"
			},
			{
				"type": "unocc",
				"energy": -0.00344,
				"method": "rhf"
			},
			{
				"type": "unocc",
				"energy": 0.02676,
				"method": "rhf"
			},
			{
				"type": "unocc",
				"energy": 0.04767,
				"method": "rhf"
			}
		],
		"cosmo_sigma_profile": { 
			"-0.025": 0.0,
			"-0.024": 0.0,
			"-0.023": 0.0,
			"-0.022": 0.0,
			"-0.021": 0.0,
			"-0.02": 0.0,
			"-0.019": 0.0,
			"-0.018": 0.0,
			"-0.017": 0.0,
			"-0.016": 0.604596687287,
			"-0.015": 1.14276979087,
			"-0.014": 1.2307262678,
			"-0.013": 0.578874706446,
			"-0.012": 1.26500208659,
			"-0.011": 0.843025162886,
			"-0.01": 0.84906668518,
			"-0.009": 2.58204360087,
			"-0.008": 4.95871383874,
			"-0.007": 14.7834993121,
			"-0.006": 23.159904476,
			"-0.005": 27.8260489407,
			"-0.004": 30.7370548585,
			"-0.003": 28.5459652275,
			"-0.002": 28.474076849,
			"-0.001": 22.0242729259,
			"0.0": 15.6192922233,
			"0.001": 20.8251068006,
			"0.002": 30.0412813774,
			"0.003": 29.2832098883,
			"0.004": 21.8841894896,
			"0.005": 10.7319177533,
			"0.006": 10.7978268385,
			"0.007": 7.8649768747,
			"0.008": 7.3338942415,
			"0.009": 7.62249579456,
			"0.01": 9.38530230448,
			"0.011": 10.2567184265,
			"0.012": 2.16030077218,
			"0.013": 1.32312206419,
			"0.014": 0.630145829802,
			"0.015": 0.0,
			"0.016": 0.0,
			"0.017": 0.0,
			"0.018": 0.0,
			"0.019": 0.0,
			"0.02": 0.0,
			"0.021": 0.0,
			"0.022": 0.0,
			"0.023": 0.0,
			"0.024": 0.0,
			"0.025": 0.0
		}
	}
}
