{
	 "smiles": "CCC1=NC=CC(=C1)C(N)=S", 
	 "Tm": 437.15, 
	 "num_atms": 21, 
	 "gaussian": { 
		 "optdone": 1, 
		 "sigma_profile": "yes", 
		 "theory": "DFT", 
		 "functional": "B3LYP", 
		 "basiset": "6-31G**", 
		 "properties": { 
			 "R2extent": 2660.5177, 
			 "electric_dipole_moment_norm": 3.76789604687, 
			 "electric_quadrupole_moment_norm": 16.1846403948, 
			 "total_energy": -818.582708774, 
			 "HOMO_LUMO_gap": 0.14328, 
			 "cosmo_polarized_energy": -15.78, 
			 "cosmo_cavitation_energy": 26.49, 
			 "cosmo_dispersion_energy": -19.73, 
			 "cosmo_repulsion_energy": 1.57, 
			 "cosmo_total_nonelectrostatic_energy": 8.34, 
			 "SMD_solvation_energy": 2.51 
		},
		"coords": [
			{
				"x": 1.36219212,
				"y": 3.5686447223,
				"z": 1.4324635417,
				"element": "C" 
			},
			{
				"x": 1.2140039886,
				"y": 3.1906237325,
				"z": -0.0507510575,
				"element": "C" 
			},
			{
				"x": 0.1525240921,
				"y": 2.1367936707,
				"z": -0.2727803015,
				"element": "C" 
			},
			{
				"x": -1.1205322568,
				"y": 2.5188381249,
				"z": -0.0554131311,
				"element": "N" 
			},
			{
				"x": -2.0844361991,
				"y": 1.6117498878,
				"z": -0.2283773755,
				"element": "C" 
			},
			{
				"x": -1.8505990287,
				"y": 0.288632796,
				"z": -0.6032572498,
				"element": "C" 
			},
			{
				"x": -0.5276563763,
				"y": -0.1186364776,
				"z": -0.8273540374,
				"element": "C" 
			},
			{
				"x": 0.4827298931,
				"y": 0.8354468343,
				"z": -0.6642869542,
				"element": "C" 
			},
			{
				"x": -0.1988911501,
				"y": -1.5185149205,
				"z": -1.2320414876,
				"element": "C" 
			},
			{
				"x": -1.0311209911,
				"y": -2.4599851576,
				"z": -0.7343231292,
				"element": "N" 
			},
			{
				"x": 1.0663321865,
				"y": -1.9014625463,
				"z": -2.2448909841,
				"element": "S" 
			},
			{
				"x": 2.0979960994,
				"y": 4.3690898239,
				"z": 1.5578472882,
				"element": "H" 
			},
			{
				"x": 0.4043509495,
				"y": 3.9136952786,
				"z": 1.8316028457,
				"element": "H" 
			},
			{
				"x": 1.6901206231,
				"y": 2.7104972274,
				"z": 2.0286755266,
				"element": "H" 
			},
			{
				"x": 0.9325116738,
				"y": 4.0830970573,
				"z": -0.621481638,
				"element": "H" 
			},
			{
				"x": 2.1714132577,
				"y": 2.8378967111,
				"z": -0.448873317,
				"element": "H" 
			},
			{
				"x": -3.1041104666,
				"y": 1.9574349988,
				"z": -0.0651383876,
				"element": "H" 
			},
			{
				"x": -2.6865611974,
				"y": -0.3856679975,
				"z": -0.7600446995,
				"element": "H" 
			},
			{
				"x": 1.5139316645,
				"y": 0.5538611055,
				"z": -0.8462356027,
				"element": "H" 
			},
			{
				"x": -1.6769347488,
				"y": -2.2489118089,
				"z": 0.0122347471,
				"element": "H" 
			},
			{
				"x": -0.8473641335,
				"y": -3.4275230626,
				"z": -0.9570745965,
				"element": "H" 
			}
		],
		 "valence_orbital": [ 
			{
				"type": "occ",
				"energy": -0.29298,
				"method": "rhf"
			},
			{
				"type": "occ",
				"energy": -0.26283,
				"method": "rhf"
			},
			{
				"type": "occ",
				"energy": -0.261,
				"method": "rhf"
			},
			{
				"type": "occ",
				"energy": -0.23902,
				"method": "rhf"
			},
			{
				"type": "occ",
				"energy": -0.21596,
				"method": "rhf"
			},
			{
				"type": "unocc",
				"energy": -0.07268,
				"method": "rhf"
			},
			{
				"type": "unocc",
				"energy": -0.01852,
				"method": "rhf"
			},
			{
				"type": "unocc",
				"energy": 0.00485,
				"method": "rhf"
			},
			{
				"type": "unocc",
				"energy": 0.06649,
				"method": "rhf"
			},
			{
				"type": "unocc",
				"energy": 0.08531,
				"method": "rhf"
			}
		],
		"cosmo_sigma_profile": { 
			"-0.025": 0.0,
			"-0.024": 0.0,
			"-0.023": 0.0,
			"-0.022": 0.0,
			"-0.021": 0.0,
			"-0.02": 0.0,
			"-0.019": 0.0,
			"-0.018": 0.0,
			"-0.017": 0.0,
			"-0.016": 0.579468056778,
			"-0.015": 2.37493804524,
			"-0.014": 2.6391904215,
			"-0.013": 2.63648082388,
			"-0.012": 2.50671349286,
			"-0.011": 1.97889720182,
			"-0.01": 2.22275755594,
			"-0.009": 2.33208477459,
			"-0.008": 2.95662034048,
			"-0.007": 4.35786454546,
			"-0.006": 6.1221697219,
			"-0.005": 7.83896755475,
			"-0.004": 8.27532731644,
			"-0.003": 14.4248384204,
			"-0.002": 16.7306455816,
			"-0.001": 20.0200899001,
			"0.0": 18.9985192298,
			"0.001": 23.5941270033,
			"0.002": 13.3324501232,
			"0.003": 7.17979527947,
			"0.004": 6.54903946464,
			"0.005": 5.90246700619,
			"0.006": 6.25483442143,
			"0.007": 6.99029082503,
			"0.008": 8.06658882585,
			"0.009": 6.14708781976,
			"0.01": 4.0544921978,
			"0.011": 4.58604986996,
			"0.012": 1.1083383201,
			"0.013": 0.0619814759973,
			"0.014": 1.24686188091,
			"0.015": 0.524334185168,
			"0.016": 0.247809400509,
			"0.017": 0.0,
			"0.018": 0.0,
			"0.019": 0.0,
			"0.02": 0.0,
			"0.021": 0.0,
			"0.022": 0.0,
			"0.023": 0.0,
			"0.024": 0.0,
			"0.025": 0.0
		}
	}
}
