{
	 "smiles": "CC(=O)CC(O)=O", 
	 "Tm": 309.65, 
	 "num_atms": 13, 
	 "gaussian": { 
		 "optdone": 1, 
		 "sigma_profile": "yes", 
		 "theory": "DFT", 
		 "functional": "B3LYP", 
		 "basiset": "6-31G**", 
		 "properties": { 
			 "R2extent": 933.1585, 
			 "electric_dipole_moment_norm": 2.42085881662, 
			 "electric_quadrupole_moment_norm": 10.4152145321, 
			 "total_energy": -381.723887027, 
			 "HOMO_LUMO_gap": 0.22857, 
			 "cosmo_polarized_energy": -11.69, 
			 "cosmo_cavitation_energy": 17.55, 
			 "cosmo_dispersion_energy": -12.77, 
			 "cosmo_repulsion_energy": 1.11, 
			 "cosmo_total_nonelectrostatic_energy": 5.89, 
			 "SMD_solvation_energy": 5.32 
		},
		"coords": [
			{
				"x": 0.2530773496,
				"y": 1.5143489333,
				"z": 0.13883625,
				"element": "C" 
			},
			{
				"x": -0.6453017237,
				"y": 0.6834876818,
				"z": -0.7474119928,
				"element": "C" 
			},
			{
				"x": -1.8329858815,
				"y": 0.8967876195,
				"z": -0.8760808277,
				"element": "O" 
			},
			{
				"x": 0.0119989439,
				"y": -0.4692641426,
				"z": -1.5286920337,
				"element": "C" 
			},
			{
				"x": 0.451865014,
				"y": -1.6138930064,
				"z": -0.6330475337,
				"element": "C" 
			},
			{
				"x": 0.1322229622,
				"y": -2.8107336951,
				"z": -1.1699658585,
				"element": "O" 
			},
			{
				"x": 1.0300856049,
				"y": -1.504766969,
				"z": 0.4272240377,
				"element": "O" 
			},
			{
				"x": -0.3415661663,
				"y": 2.250747094,
				"z": 0.6806567705,
				"element": "H" 
			},
			{
				"x": 0.7951752095,
				"y": 0.8623095438,
				"z": 0.8302904283,
				"element": "H" 
			},
			{
				"x": 1.0044343521,
				"y": 2.0283670136,
				"z": -0.4734719675,
				"element": "H" 
			},
			{
				"x": 0.9148721304,
				"y": -0.098137534,
				"z": -2.0309602237,
				"element": "H" 
			},
			{
				"x": -0.6904939488,
				"y": -0.8286564352,
				"z": -2.2806133956,
				"element": "H" 
			},
			{
				"x": 0.4571161537,
				"y": -3.4845961038,
				"z": -0.5479636533,
				"element": "H" 
			}
		],
		 "valence_orbital": [ 
			{
				"type": "occ",
				"energy": -0.38477,
				"method": "rhf"
			},
			{
				"type": "occ",
				"energy": -0.36058,
				"method": "rhf"
			},
			{
				"type": "occ",
				"energy": -0.33281,
				"method": "rhf"
			},
			{
				"type": "occ",
				"energy": -0.28992,
				"method": "rhf"
			},
			{
				"type": "occ",
				"energy": -0.25494,
				"method": "rhf"
			},
			{
				"type": "unocc",
				"energy": -0.02637,
				"method": "rhf"
			},
			{
				"type": "unocc",
				"energy": -0.00053,
				"method": "rhf"
			},
			{
				"type": "unocc",
				"energy": 0.06876,
				"method": "rhf"
			},
			{
				"type": "unocc",
				"energy": 0.10381,
				"method": "rhf"
			},
			{
				"type": "unocc",
				"energy": 0.12919,
				"method": "rhf"
			}
		],
		"cosmo_sigma_profile": { 
			"-0.025": 0.0,
			"-0.024": 0.0,
			"-0.023": 0.0,
			"-0.022": 0.0,
			"-0.021": 0.0,
			"-0.02": 0.0,
			"-0.019": 0.109591785051,
			"-0.018": 1.0566747025,
			"-0.017": 0.895971998159,
			"-0.016": 0.773462365177,
			"-0.015": 1.10399592117,
			"-0.014": 0.247657175204,
			"-0.013": 0.963354346436,
			"-0.012": 1.04644366656,
			"-0.011": 0.530574549226,
			"-0.01": 0.397585272754,
			"-0.009": 3.01245975568,
			"-0.008": 4.9935322631,
			"-0.007": 4.8261110147,
			"-0.006": 6.35972444754,
			"-0.005": 8.6323666472,
			"-0.004": 9.03229052845,
			"-0.003": 10.5701636211,
			"-0.002": 10.7980444811,
			"-0.001": 12.4848887109,
			"0.0": 5.01963873759,
			"0.001": 4.06321420249,
			"0.002": 4.60975823575,
			"0.003": 4.19974210406,
			"0.004": 4.04004645693,
			"0.005": 3.77688385894,
			"0.006": 4.09030839107,
			"0.007": 3.61010131741,
			"0.008": 5.31417779892,
			"0.009": 4.19650934515,
			"0.01": 5.42122278512,
			"0.011": 7.38153867282,
			"0.012": 4.39899039329,
			"0.013": 0.48771716546,
			"0.014": 0.0,
			"0.015": 0.0,
			"0.016": 0.0,
			"0.017": 0.0,
			"0.018": 0.0,
			"0.019": 0.0,
			"0.02": 0.0,
			"0.021": 0.0,
			"0.022": 0.0,
			"0.023": 0.0,
			"0.024": 0.0,
			"0.025": 0.0
		}
	}
}
