{
	 "smiles": "NC(CCC(N)=O)C(O)=O", 
	 "Tm": 458.15, 
	 "num_atms": 20, 
	 "gaussian": { 
		 "optdone": 1, 
		 "sigma_profile": "yes", 
		 "theory": "DFT", 
		 "functional": "B3LYP", 
		 "basiset": "6-31G**", 
		 "properties": { 
			 "R2extent": 2421.657, 
			 "electric_dipole_moment_norm": 4.85752656812, 
			 "electric_quadrupole_moment_norm": 22.7465487356, 
			 "total_energy": -531.767877236, 
			 "HOMO_LUMO_gap": 0.22689, 
			 "cosmo_polarized_energy": -20.39, 
			 "cosmo_cavitation_energy": 22.86, 
			 "cosmo_dispersion_energy": -17.08, 
			 "cosmo_repulsion_energy": 1.43, 
			 "cosmo_total_nonelectrostatic_energy": 7.2, 
			 "SMD_solvation_energy": 5.15 
		},
		"coords": [
			{
				"x": -3.3890555742,
				"y": 2.3602881816,
				"z": 0.819238938,
				"element": "N" 
			},
			{
				"x": -2.405420411,
				"y": 1.3615632576,
				"z": 1.275170967,
				"element": "C" 
			},
			{
				"x": -0.920600011,
				"y": 1.6930846842,
				"z": 1.0748425971,
				"element": "C" 
			},
			{
				"x": -0.4950251844,
				"y": 1.8523720421,
				"z": -0.4083949629,
				"element": "C" 
			},
			{
				"x": 0.8172339783,
				"y": 1.1342298366,
				"z": -0.753017227,
				"element": "C" 
			},
			{
				"x": 0.789850448,
				"y": -0.2109156319,
				"z": -0.5356634762,
				"element": "N" 
			},
			{
				"x": 1.7922552877,
				"y": 1.7285844592,
				"z": -1.1918945034,
				"element": "O" 
			},
			{
				"x": -2.775036974,
				"y": 0.0060662016,
				"z": 0.6301667036,
				"element": "C" 
			},
			{
				"x": -4.0571361117,
				"y": -0.0821489084,
				"z": 0.2732278743,
				"element": "O" 
			},
			{
				"x": -1.988880636,
				"y": -0.9091333335,
				"z": 0.4878459451,
				"element": "O" 
			},
			{
				"x": -3.0994142803,
				"y": 2.7721796447,
				"z": -0.0656472447,
				"element": "H" 
			},
			{
				"x": -3.4813159663,
				"y": 3.1188277118,
				"z": 1.4878364285,
				"element": "H" 
			},
			{
				"x": -2.5847178061,
				"y": 1.2176171448,
				"z": 2.3496658101,
				"element": "H" 
			},
			{
				"x": -0.3443219992,
				"y": 0.8901212052,
				"z": 1.5416778974,
				"element": "H" 
			},
			{
				"x": -0.686911818,
				"y": 2.6066441699,
				"z": 1.6320143363,
				"element": "H" 
			},
			{
				"x": -0.3506174869,
				"y": 2.9001223357,
				"z": -0.6770450141,
				"element": "H" 
			},
			{
				"x": -1.2681925996,
				"y": 1.4443338306,
				"z": -1.0739388925,
				"element": "H" 
			},
			{
				"x": 1.6171161042,
				"y": -0.7413916564,
				"z": -0.7608684952,
				"element": "H" 
			},
			{
				"x": -0.0424874876,
				"y": -0.683802507,
				"z": -0.2016328118,
				"element": "H" 
			},
			{
				"x": -4.4198214718,
				"y": 0.8244573318,
				"z": 0.4272151304,
				"element": "H" 
			}
		],
		 "valence_orbital": [ 
			{
				"type": "occ",
				"energy": -0.32236,
				"method": "rhf"
			},
			{
				"type": "occ",
				"energy": -0.30715,
				"method": "rhf"
			},
			{
				"type": "occ",
				"energy": -0.27426,
				"method": "rhf"
			},
			{
				"type": "occ",
				"energy": -0.25328,
				"method": "rhf"
			},
			{
				"type": "occ",
				"energy": -0.23632,
				"method": "rhf"
			},
			{
				"type": "unocc",
				"energy": -0.00943,
				"method": "rhf"
			},
			{
				"type": "unocc",
				"energy": 0.03868,
				"method": "rhf"
			},
			{
				"type": "unocc",
				"energy": 0.05136,
				"method": "rhf"
			},
			{
				"type": "unocc",
				"energy": 0.09014,
				"method": "rhf"
			},
			{
				"type": "unocc",
				"energy": 0.10131,
				"method": "rhf"
			}
		],
		"cosmo_sigma_profile": { 
			"-0.025": 0.0,
			"-0.024": 0.0,
			"-0.023": 0.0,
			"-0.022": 0.0,
			"-0.021": 0.0,
			"-0.02": 0.0,
			"-0.019": 0.0,
			"-0.018": 0.0,
			"-0.017": 0.0,
			"-0.016": 0.0,
			"-0.015": 0.0,
			"-0.014": 0.180752218298,
			"-0.013": 1.04091015504,
			"-0.012": 2.44219025479,
			"-0.011": 4.28435799581,
			"-0.01": 5.40878343879,
			"-0.009": 6.40406695021,
			"-0.008": 8.29878698894,
			"-0.007": 8.42253889685,
			"-0.006": 8.6756975508,
			"-0.005": 10.6104053706,
			"-0.004": 13.4555239481,
			"-0.003": 11.5811671656,
			"-0.002": 10.1358461916,
			"-0.001": 8.67221821237,
			"0.0": 7.30900908431,
			"0.001": 5.12628523194,
			"0.002": 6.07732961948,
			"0.003": 5.21094966274,
			"0.004": 5.41061663739,
			"0.005": 5.53805348406,
			"0.006": 3.97557811615,
			"0.007": 3.65497735988,
			"0.008": 3.79273404511,
			"0.009": 5.06222881279,
			"0.01": 6.06076952227,
			"0.011": 4.53947022942,
			"0.012": 3.46337593633,
			"0.013": 3.92898028724,
			"0.014": 6.00731647951,
			"0.015": 3.34398508494,
			"0.016": 0.289750884563,
			"0.017": 0.0,
			"0.018": 0.0,
			"0.019": 0.0,
			"0.02": 0.0,
			"0.021": 0.0,
			"0.022": 0.0,
			"0.023": 0.0,
			"0.024": 0.0,
			"0.025": 0.0
		}
	}
}
