{
	 "smiles": "[O-][N+](=O)C1=CC=C(C=C2SC(=S)N(CN3CCOCC3)C2=O)C=C1", 
	 "Tm": 442.15, 
	 "num_atms": 39, 
	 "gaussian": { 
		 "optdone": 1, 
		 "sigma_profile": "yes", 
		 "theory": "DFT", 
		 "functional": "B3LYP", 
		 "basiset": "6-31G**", 
		 "properties": { 
			 "R2extent": 14595.896, 
			 "electric_dipole_moment_norm": 3.5168145416, 
			 "electric_quadrupole_moment_norm": 25.430771341, 
			 "total_energy": -1842.03616005, 
			 "HOMO_LUMO_gap": 0.10412, 
			 "cosmo_polarized_energy": -16.66, 
			 "cosmo_cavitation_energy": 45.91, 
			 "cosmo_dispersion_energy": -33.36, 
			 "cosmo_repulsion_energy": 2.41, 
			 "cosmo_total_nonelectrostatic_energy": 14.95, 
			 "SMD_solvation_energy": 7.2 
		},
		"coords": [
			{
				"x": 1.7253724245,
				"y": 1.4549809217,
				"z": 7.8519074262,
				"element": "O" 
			},
			{
				"x": 2.5127890436,
				"y": 1.2504980064,
				"z": 6.9288461699,
				"element": "N" 
			},
			{
				"x": 3.7359544087,
				"y": 1.3557758055,
				"z": 7.0092535735,
				"element": "O" 
			},
			{
				"x": 1.9483589965,
				"y": 0.8496768692,
				"z": 5.6307229918,
				"element": "C" 
			},
			{
				"x": 0.5661605885,
				"y": 0.7208683897,
				"z": 5.5043464958,
				"element": "C" 
			},
			{
				"x": 0.0460218156,
				"y": 0.3422659906,
				"z": 4.2748608851,
				"element": "C" 
			},
			{
				"x": 0.883748891,
				"y": 0.0886259438,
				"z": 3.1655446063,
				"element": "C" 
			},
			{
				"x": 0.2426655001,
				"y": -0.3024432425,
				"z": 1.9198422922,
				"element": "C" 
			},
			{
				"x": 0.7577804566,
				"y": -0.6105717864,
				"z": 0.706374918,
				"element": "C" 
			},
			{
				"x": 2.4211695977,
				"y": -0.6719646767,
				"z": 0.1364544346,
				"element": "S" 
			},
			{
				"x": 1.921629379,
				"y": -1.1784107137,
				"z": -1.5038089662,
				"element": "C" 
			},
			{
				"x": 3.0352220006,
				"y": -1.5071123422,
				"z": -2.6716528581,
				"element": "S" 
			},
			{
				"x": 0.5529869367,
				"y": -1.2460977831,
				"z": -1.5829581953,
				"element": "N" 
			},
			{
				"x": -0.1965204623,
				"y": -1.6811947176,
				"z": -2.8426539249,
				"element": "C" 
			},
			{
				"x": -0.7599047417,
				"y": -0.6588733444,
				"z": -3.6396035751,
				"element": "N" 
			},
			{
				"x": 0.1646647207,
				"y": 0.2696381243,
				"z": -4.2941549101,
				"element": "C" 
			},
			{
				"x": -0.6347684181,
				"y": 1.3047236409,
				"z": -5.0782628353,
				"element": "C" 
			},
			{
				"x": -1.4662955091,
				"y": 2.103725193,
				"z": -4.2405865977,
				"element": "O" 
			},
			{
				"x": -1.9658406551,
				"y": 1.4317194179,
				"z": -3.0843267474,
				"element": "C" 
			},
			{
				"x": -2.0659935129,
				"y": -0.0794547004,
				"z": -3.2812422391,
				"element": "C" 
			},
			{
				"x": -0.1631529171,
				"y": -0.9822318383,
				"z": -0.4062724684,
				"element": "C" 
			},
			{
				"x": -1.3777311751,
				"y": -1.0588288056,
				"z": -0.3244914798,
				"element": "O" 
			},
			{
				"x": 2.2781616114,
				"y": 0.2310817084,
				"z": 3.3374800366,
				"element": "C" 
			},
			{
				"x": 2.8116183364,
				"y": 0.6096973926,
				"z": 4.5625576025,
				"element": "C" 
			},
			{
				"x": -0.06891611,
				"y": 0.9167109199,
				"z": 6.3589941194,
				"element": "H" 
			},
			{
				"x": -1.0286037973,
				"y": 0.2375734441,
				"z": 4.1599563973,
				"element": "H" 
			},
			{
				"x": -0.8439367334,
				"y": -0.3649919598,
				"z": 1.9492404013,
				"element": "H" 
			},
			{
				"x": 0.5519483673,
				"y": -2.2412510801,
				"z": -3.40618561,
				"element": "H" 
			},
			{
				"x": -0.9777843239,
				"y": -2.3490539246,
				"z": -2.4778907291,
				"element": "H" 
			},
			{
				"x": 0.8266617407,
				"y": -0.2851818429,
				"z": -4.9700510658,
				"element": "H" 
			},
			{
				"x": 0.8113901696,
				"y": 0.7950965746,
				"z": -3.572199998,
				"element": "H" 
			},
			{
				"x": 0.0457616843,
				"y": 1.9906773885,
				"z": -5.592250852,
				"element": "H" 
			},
			{
				"x": -1.2389917688,
				"y": 0.7937801758,
				"z": -5.8442194626,
				"element": "H" 
			},
			{
				"x": -1.322276001,
				"y": 1.6481939028,
				"z": -2.217211567,
				"element": "H" 
			},
			{
				"x": -2.9558226712,
				"y": 1.8511498881,
				"z": -2.8733803655,
				"element": "H" 
			},
			{
				"x": -2.4334564246,
				"y": -0.5394831201,
				"z": -2.3621402589,
				"element": "H" 
			},
			{
				"x": -2.793794326,
				"y": -0.2869555807,
				"z": -4.0785949824,
				"element": "H" 
			},
			{
				"x": 2.959601173,
				"y": 0.047885033,
				"z": 2.5156537691,
				"element": "H" 
			},
			{
				"x": 3.8788217053,
				"y": 0.7222567282,
				"z": 4.706203569,
				"element": "H" 
			}
		],
		 "valence_orbital": [ 
			{
				"type": "occ",
				"energy": -0.27872,
				"method": "rhf"
			},
			{
				"type": "occ",
				"energy": -0.2544,
				"method": "rhf"
			},
			{
				"type": "occ",
				"energy": -0.24783,
				"method": "rhf"
			},
			{
				"type": "occ",
				"energy": -0.24466,
				"method": "rhf"
			},
			{
				"type": "occ",
				"energy": -0.2271,
				"method": "rhf"
			},
			{
				"type": "unocc",
				"energy": -0.12298,
				"method": "rhf"
			},
			{
				"type": "unocc",
				"energy": -0.0839,
				"method": "rhf"
			},
			{
				"type": "unocc",
				"energy": -0.04647,
				"method": "rhf"
			},
			{
				"type": "unocc",
				"energy": -0.04157,
				"method": "rhf"
			},
			{
				"type": "unocc",
				"energy": -0.01602,
				"method": "rhf"
			}
		],
		"cosmo_sigma_profile": { 
			"-0.025": 0.0,
			"-0.024": 0.0,
			"-0.023": 0.0,
			"-0.022": 0.0,
			"-0.021": 0.0,
			"-0.02": 0.0,
			"-0.019": 0.0,
			"-0.018": 0.0,
			"-0.017": 0.0,
			"-0.016": 0.0,
			"-0.015": 0.0,
			"-0.014": 0.0,
			"-0.013": 0.0,
			"-0.012": 0.0,
			"-0.011": 0.0,
			"-0.01": 0.502113122982,
			"-0.009": 2.78818575112,
			"-0.008": 6.27265670635,
			"-0.007": 11.5686580124,
			"-0.006": 13.6528755146,
			"-0.005": 21.8200811825,
			"-0.004": 33.088899859,
			"-0.003": 38.0692719412,
			"-0.002": 34.4905702426,
			"-0.001": 33.9196622719,
			"0.0": 33.9372516407,
			"0.001": 25.9055121696,
			"0.002": 15.976957376,
			"0.003": 13.6953723905,
			"0.004": 12.6947144971,
			"0.005": 12.5839768932,
			"0.006": 12.7880133237,
			"0.007": 14.9430758628,
			"0.008": 10.9686634926,
			"0.009": 8.91299473979,
			"0.01": 5.94816533182,
			"0.011": 1.86340314206,
			"0.012": 1.76492090953,
			"0.013": 1.721758325,
			"0.014": 0.966053794059,
			"0.015": 0.0,
			"0.016": 0.0,
			"0.017": 0.0,
			"0.018": 0.0,
			"0.019": 0.0,
			"0.02": 0.0,
			"0.021": 0.0,
			"0.022": 0.0,
			"0.023": 0.0,
			"0.024": 0.0,
			"0.025": 0.0
		}
	}
}
