{
	 "smiles": "CNC1=CC=C(OC2=NC=CC=C2)C=C1", 
	 "Tm": 400.15, 
	 "num_atms": 27, 
	 "gaussian": { 
		 "optdone": 1, 
		 "sigma_profile": "yes", 
		 "theory": "DFT", 
		 "functional": "B3LYP", 
		 "basiset": "6-31G**", 
		 "properties": { 
			 "R2extent": 4677.5765, 
			 "electric_dipole_moment_norm": 1.2856490462, 
			 "electric_quadrupole_moment_norm": 16.9451945778, 
			 "total_energy": -649.224190363, 
			 "HOMO_LUMO_gap": 0.16877, 
			 "cosmo_polarized_energy": -11.45, 
			 "cosmo_cavitation_energy": 31.3, 
			 "cosmo_dispersion_energy": -22.9, 
			 "cosmo_repulsion_energy": 1.8, 
			 "cosmo_total_nonelectrostatic_energy": 10.2, 
			 "SMD_solvation_energy": 3.96 
		},
		"coords": [
			{
				"x": 2.5255581378,
				"y": 0.5466152096,
				"z": 4.6010730274,
				"element": "C" 
			},
			{
				"x": 1.3142388436,
				"y": 0.8540449406,
				"z": 3.8658953761,
				"element": "N" 
			},
			{
				"x": 1.0882371652,
				"y": 0.3341062585,
				"z": 2.5924052025,
				"element": "C" 
			},
			{
				"x": 1.8211674239,
				"y": -0.7510336094,
				"z": 2.081798809,
				"element": "C" 
			},
			{
				"x": 1.5333758631,
				"y": -1.2679106879,
				"z": 0.8169264165,
				"element": "C" 
			},
			{
				"x": 0.5205506072,
				"y": -0.7121610315,
				"z": 0.0463161294,
				"element": "C" 
			},
			{
				"x": 0.2021202596,
				"y": -1.3264908638,
				"z": -1.1673347392,
				"element": "O" 
			},
			{
				"x": 0.3726314643,
				"y": -0.6612513992,
				"z": -2.3454299106,
				"element": "C" 
			},
			{
				"x": 0.9121464589,
				"y": 0.5494656186,
				"z": -2.3540202082,
				"element": "N" 
			},
			{
				"x": 1.064524766,
				"y": 1.1475588785,
				"z": -3.5467963323,
				"element": "C" 
			},
			{
				"x": 0.6917958775,
				"y": 0.5706229979,
				"z": -4.7551947765,
				"element": "C" 
			},
			{
				"x": 0.1228350695,
				"y": -0.709513584,
				"z": -4.7204043555,
				"element": "C" 
			},
			{
				"x": -0.0457411444,
				"y": -1.3456334423,
				"z": -3.5002424241,
				"element": "C" 
			},
			{
				"x": -0.2204630853,
				"y": 0.3651470325,
				"z": 0.5352195805,
				"element": "C" 
			},
			{
				"x": 0.0631754131,
				"y": 0.8808589143,
				"z": 1.792378145,
				"element": "C" 
			},
			{
				"x": 2.548840211,
				"y": -0.5129550736,
				"z": 4.879664016,
				"element": "H" 
			},
			{
				"x": 2.5321800033,
				"y": 1.1272636638,
				"z": 5.5264998813,
				"element": "H" 
			},
			{
				"x": 3.4495034371,
				"y": 0.7693794573,
				"z": 4.0430303923,
				"element": "H" 
			},
			{
				"x": 0.9877276755,
				"y": 1.802762109,
				"z": 3.9797953925,
				"element": "H" 
			},
			{
				"x": 2.6179694396,
				"y": -1.198338095,
				"z": 2.6650831556,
				"element": "H" 
			},
			{
				"x": 2.0973438732,
				"y": -2.1078209696,
				"z": 0.4239492541,
				"element": "H" 
			},
			{
				"x": 1.5107787927,
				"y": 2.1402332838,
				"z": -3.5216899833,
				"element": "H" 
			},
			{
				"x": 0.8391223985,
				"y": 1.1005865357,
				"z": -5.6900261466,
				"element": "H" 
			},
			{
				"x": -0.1855719223,
				"y": -1.202627399,
				"z": -5.6379620298,
				"element": "H" 
			},
			{
				"x": -0.4802081728,
				"y": -2.3348402232,
				"z": -3.4118430903,
				"element": "H" 
			},
			{
				"x": -1.0107724471,
				"y": 0.7960236425,
				"z": -0.0696435824,
				"element": "H" 
			},
			{
				"x": -0.5190664084,
				"y": 1.7170078361,
				"z": 2.1727528004,
				"element": "H" 
			}
		],
		 "valence_orbital": [ 
			{
				"type": "occ",
				"energy": -0.28022,
				"method": "rhf"
			},
			{
				"type": "occ",
				"energy": -0.25908,
				"method": "rhf"
			},
			{
				"type": "occ",
				"energy": -0.24136,
				"method": "rhf"
			},
			{
				"type": "occ",
				"energy": -0.23037,
				"method": "rhf"
			},
			{
				"type": "occ",
				"energy": -0.18618,
				"method": "rhf"
			},
			{
				"type": "unocc",
				"energy": -0.01741,
				"method": "rhf"
			},
			{
				"type": "unocc",
				"energy": 0.00326,
				"method": "rhf"
			},
			{
				"type": "unocc",
				"energy": 0.00981,
				"method": "rhf"
			},
			{
				"type": "unocc",
				"energy": 0.02885,
				"method": "rhf"
			},
			{
				"type": "unocc",
				"energy": 0.08464,
				"method": "rhf"
			}
		],
		"cosmo_sigma_profile": { 
			"-0.025": 0.0,
			"-0.024": 0.0,
			"-0.023": 0.0,
			"-0.022": 0.0,
			"-0.021": 0.0,
			"-0.02": 0.0,
			"-0.019": 0.0,
			"-0.018": 0.0,
			"-0.017": 0.0,
			"-0.016": 0.0,
			"-0.015": 0.0,
			"-0.014": 0.0,
			"-0.013": 0.285557805034,
			"-0.012": 1.10779294379,
			"-0.011": 1.45757481776,
			"-0.01": 1.62487631546,
			"-0.009": 1.45117715929,
			"-0.008": 1.3243773769,
			"-0.007": 6.17779914103,
			"-0.006": 14.4849334362,
			"-0.005": 19.0647776651,
			"-0.004": 19.6153439599,
			"-0.003": 19.4898755536,
			"-0.002": 19.2680182398,
			"-0.001": 18.0807810298,
			"0.0": 13.3807557824,
			"0.001": 17.2261823191,
			"0.002": 17.8627031901,
			"0.003": 19.7632488619,
			"0.004": 14.3709600297,
			"0.005": 11.6573741256,
			"0.006": 11.428987999,
			"0.007": 5.68455813603,
			"0.008": 3.58298342699,
			"0.009": 3.41602369044,
			"0.01": 2.48700269396,
			"0.011": 1.46563685088,
			"0.012": 1.47039130988,
			"0.013": 0.961014330779,
			"0.014": 1.02823813944,
			"0.015": 0.576842299686,
			"0.016": 0.0634138233648,
			"0.017": 0.0,
			"0.018": 0.0,
			"0.019": 0.0,
			"0.02": 0.0,
			"0.021": 0.0,
			"0.022": 0.0,
			"0.023": 0.0,
			"0.024": 0.0,
			"0.025": 0.0
		}
	}
}
