{
	 "smiles": "CC(C)(C)OC(=O)N=NC(=O)OC(C)(C)C", 
	 "Tm": 364.15, 
	 "num_atms": 34, 
	 "gaussian": { 
		 "optdone": 1, 
		 "sigma_profile": "yes", 
		 "theory": "DFT", 
		 "functional": "B3LYP", 
		 "basiset": "6-31G**", 
		 "properties": { 
			 "R2extent": 5989.163, 
			 "electric_dipole_moment_norm": 3.9368928878, 
			 "electric_quadrupole_moment_norm": 24.4796233353, 
			 "total_energy": -802.283791523, 
			 "HOMO_LUMO_gap": 0.15558, 
			 "cosmo_polarized_energy": -11.69, 
			 "cosmo_cavitation_energy": 37.21, 
			 "cosmo_dispersion_energy": -25.19, 
			 "cosmo_repulsion_energy": 2.01, 
			 "cosmo_total_nonelectrostatic_energy": 14.03, 
			 "SMD_solvation_energy": 8.13 
		},
		"coords": [
			{
				"x": 0.329747089,
				"y": -4.2129298607,
				"z": -4.1589961574,
				"element": "C" 
			},
			{
				"x": 0.3732411033,
				"y": -2.9928037946,
				"z": -3.2349606625,
				"element": "C" 
			},
			{
				"x": 0.2983835457,
				"y": -3.4266070045,
				"z": -1.7682466285,
				"element": "C" 
			},
			{
				"x": 1.5971754068,
				"y": -2.124522087,
				"z": -3.5358513466,
				"element": "C" 
			},
			{
				"x": -0.8626191375,
				"y": -2.2718151397,
				"z": -3.6414502749,
				"element": "O" 
			},
			{
				"x": -1.3698273003,
				"y": -1.1560321086,
				"z": -3.1210701687,
				"element": "C" 
			},
			{
				"x": -2.3418288548,
				"y": -0.6081241048,
				"z": -3.5719414734,
				"element": "O" 
			},
			{
				"x": -0.5980194337,
				"y": -0.5622324517,
				"z": -2.0327464753,
				"element": "N" 
			},
			{
				"x": -1.2774662654,
				"y": -0.3784671636,
				"z": -1.0076301081,
				"element": "N" 
			},
			{
				"x": -0.4966777253,
				"y": 0.1863410906,
				"z": 0.0799765227,
				"element": "C" 
			},
			{
				"x": 0.3511560583,
				"y": -0.4622748007,
				"z": 0.6500403945,
				"element": "O" 
			},
			{
				"x": -0.9630262839,
				"y": 1.3938463641,
				"z": 0.3481437801,
				"element": "O" 
			},
			{
				"x": -0.4452733208,
				"y": 2.189830106,
				"z": 1.4967414496,
				"element": "C" 
			},
			{
				"x": 1.046896346,
				"y": 2.4614644704,
				"z": 1.2942264168,
				"element": "C" 
			},
			{
				"x": -0.7381806702,
				"y": 1.4419697724,
				"z": 2.7990593831,
				"element": "C" 
			},
			{
				"x": -1.2640147719,
				"y": 3.4764125973,
				"z": 1.3965642094,
				"element": "C" 
			},
			{
				"x": 1.2108413484,
				"y": -4.8393100421,
				"z": -3.9922018957,
				"element": "H" 
			},
			{
				"x": -0.5650416958,
				"y": -4.8108964862,
				"z": -3.9657672762,
				"element": "H" 
			},
			{
				"x": 0.3159872435,
				"y": -3.9007637044,
				"z": -5.2065819311,
				"element": "H" 
			},
			{
				"x": 0.4163614245,
				"y": -2.5929648975,
				"z": -1.0739396378,
				"element": "H" 
			},
			{
				"x": -0.6534481922,
				"y": -3.9275741983,
				"z": -1.5668028573,
				"element": "H" 
			},
			{
				"x": 1.1033292668,
				"y": -4.1408649487,
				"z": -1.5678567479,
				"element": "H" 
			},
			{
				"x": 1.6246055135,
				"y": -1.2379629868,
				"z": -2.9005912283,
				"element": "H" 
			},
			{
				"x": 2.5068569653,
				"y": -2.7062875652,
				"z": -3.356220554,
				"element": "H" 
			},
			{
				"x": 1.5938472323,
				"y": -1.8120814131,
				"z": -4.5843287254,
				"element": "H" 
			},
			{
				"x": 1.2207504064,
				"y": 2.9382693211,
				"z": 0.3249019084,
				"element": "H" 
			},
			{
				"x": 1.3988615845,
				"y": 3.1425810336,
				"z": 2.0753203768,
				"element": "H" 
			},
			{
				"x": 1.6291955957,
				"y": 1.5406610813,
				"z": 1.3471379679,
				"element": "H" 
			},
			{
				"x": -1.805672886,
				"y": 1.2156718065,
				"z": 2.8784030789,
				"element": "H" 
			},
			{
				"x": -0.1716514556,
				"y": 0.5118116738,
				"z": 2.8591232586,
				"element": "H" 
			},
			{
				"x": -0.4611278803,
				"y": 2.0745677714,
				"z": 3.648230079,
				"element": "H" 
			},
			{
				"x": -0.9774773742,
				"y": 4.1614743086,
				"z": 2.1997967445,
				"element": "H" 
			},
			{
				"x": -2.3326328067,
				"y": 3.2630623222,
				"z": 1.4859312155,
				"element": "H" 
			},
			{
				"x": -1.0897500752,
				"y": 3.9725510387,
				"z": 0.4378873635,
				"element": "H" 
			}
		],
		 "valence_orbital": [ 
			{
				"type": "occ",
				"energy": -0.31791,
				"method": "rhf"
			},
			{
				"type": "occ",
				"energy": -0.31527,
				"method": "rhf"
			},
			{
				"type": "occ",
				"energy": -0.29988,
				"method": "rhf"
			},
			{
				"type": "occ",
				"energy": -0.28941,
				"method": "rhf"
			},
			{
				"type": "occ",
				"energy": -0.24617,
				"method": "rhf"
			},
			{
				"type": "unocc",
				"energy": -0.09059,
				"method": "rhf"
			},
			{
				"type": "unocc",
				"energy": 0.00711,
				"method": "rhf"
			},
			{
				"type": "unocc",
				"energy": 0.02405,
				"method": "rhf"
			},
			{
				"type": "unocc",
				"energy": 0.07495,
				"method": "rhf"
			},
			{
				"type": "unocc",
				"energy": 0.08087,
				"method": "rhf"
			}
		],
		"cosmo_sigma_profile": { 
			"-0.025": 0.0,
			"-0.024": 0.0,
			"-0.023": 0.0,
			"-0.022": 0.0,
			"-0.021": 0.0,
			"-0.02": 0.0,
			"-0.019": 0.0,
			"-0.018": 0.0,
			"-0.017": 0.0,
			"-0.016": 0.0,
			"-0.015": 0.0,
			"-0.014": 0.0,
			"-0.013": 0.0,
			"-0.012": 0.0,
			"-0.011": 0.0,
			"-0.01": 0.0,
			"-0.009": 0.0,
			"-0.008": 0.0,
			"-0.007": 0.0,
			"-0.006": 1.17217926022,
			"-0.005": 17.7358019469,
			"-0.004": 35.0283293079,
			"-0.003": 34.6032811276,
			"-0.002": 35.5301898183,
			"-0.001": 45.0150917202,
			"0.0": 39.4607779676,
			"0.001": 12.5827284326,
			"0.002": 7.37446049988,
			"0.003": 9.16879104172,
			"0.004": 8.12599474334,
			"0.005": 6.50516365449,
			"0.006": 5.42313644342,
			"0.007": 5.85040184896,
			"0.008": 6.13033428728,
			"0.009": 6.96712690525,
			"0.01": 8.26760241519,
			"0.011": 5.39464548974,
			"0.012": 0.75469793339,
			"0.013": 0.0,
			"0.014": 0.0,
			"0.015": 0.0,
			"0.016": 0.0,
			"0.017": 0.0,
			"0.018": 0.0,
			"0.019": 0.0,
			"0.02": 0.0,
			"0.021": 0.0,
			"0.022": 0.0,
			"0.023": 0.0,
			"0.024": 0.0,
			"0.025": 0.0
		}
	}
}
