{
	 "smiles": "[O-][N+](=O)C1=CC2=C(NC(=O)C2=O)C=C1", 
	 "Tm": 524.15, 
	 "num_atms": 18, 
	 "gaussian": { 
		 "optdone": 1, 
		 "sigma_profile": "yes", 
		 "theory": "DFT", 
		 "functional": "B3LYP", 
		 "basiset": "6-31G**", 
		 "properties": { 
			 "R2extent": 4263.3882, 
			 "electric_dipole_moment_norm": 5.45206223919, 
			 "electric_quadrupole_moment_norm": 22.8671542976, 
			 "total_energy": -717.556929323, 
			 "HOMO_LUMO_gap": 0.14719, 
			 "cosmo_polarized_energy": -19.9, 
			 "cosmo_cavitation_energy": 24.83, 
			 "cosmo_dispersion_energy": -18.22, 
			 "cosmo_repulsion_energy": 1.42, 
			 "cosmo_total_nonelectrostatic_energy": 8.03, 
			 "SMD_solvation_energy": 7.94 
		},
		"coords": [
			{
				"x": 0.4384793585,
				"y": -1.2115880089,
				"z": 4.2506816793,
				"element": "O" 
			},
			{
				"x": 0.6789601901,
				"y": -2.0192731409,
				"z": 3.3530868945,
				"element": "N" 
			},
			{
				"x": 0.7920334742,
				"y": -3.2340762373,
				"z": 3.5103721787,
				"element": "O" 
			},
			{
				"x": 0.8417903608,
				"y": -1.4959996996,
				"z": 1.9920077535,
				"element": "C" 
			},
			{
				"x": 1.1146854884,
				"y": -2.3851372896,
				"z": 0.9510014271,
				"element": "C" 
			},
			{
				"x": 1.2609842976,
				"y": -1.8483095369,
				"z": -0.3187911792,
				"element": "C" 
			},
			{
				"x": 1.1379961468,
				"y": -0.4580827259,
				"z": -0.5443512481,
				"element": "C" 
			},
			{
				"x": 1.3256855862,
				"y": -0.1676698379,
				"z": -1.8927581481,
				"element": "N" 
			},
			{
				"x": 1.5816987333,
				"y": -1.3113081274,
				"z": -2.649141638,
				"element": "C" 
			},
			{
				"x": 1.7826824194,
				"y": -1.3643675505,
				"z": -3.8377009385,
				"element": "O" 
			},
			{
				"x": 1.5472481626,
				"y": -2.4914611003,
				"z": -1.6152507609,
				"element": "C" 
			},
			{
				"x": 1.7271143853,
				"y": -3.6545059332,
				"z": -1.8925320651,
				"element": "O" 
			},
			{
				"x": 0.8652837184,
				"y": 0.4205362384,
				"z": 0.5028442521,
				"element": "C" 
			},
			{
				"x": 0.7178411253,
				"y": -0.1181501231,
				"z": 1.7809805761,
				"element": "C" 
			},
			{
				"x": 1.2063860364,
				"y": -3.4484252017,
				"z": 1.1375585731,
				"element": "H" 
			},
			{
				"x": 1.2858752302,
				"y": 0.756480642,
				"z": -2.2989231156,
				"element": "H" 
			},
			{
				"x": 0.7693490141,
				"y": 1.4886025375,
				"z": 0.3385362174,
				"element": "H" 
			},
			{
				"x": 0.5053062724,
				"y": 0.5167350951,
				"z": 2.6324795417,
				"element": "H" 
			}
		],
		 "valence_orbital": [ 
			{
				"type": "occ",
				"energy": -0.31942,
				"method": "rhf"
			},
			{
				"type": "occ",
				"energy": -0.30603,
				"method": "rhf"
			},
			{
				"type": "occ",
				"energy": -0.30214,
				"method": "rhf"
			},
			{
				"type": "occ",
				"energy": -0.26879,
				"method": "rhf"
			},
			{
				"type": "occ",
				"energy": -0.26861,
				"method": "rhf"
			},
			{
				"type": "unocc",
				"energy": -0.12142,
				"method": "rhf"
			},
			{
				"type": "unocc",
				"energy": -0.09808,
				"method": "rhf"
			},
			{
				"type": "unocc",
				"energy": -0.04087,
				"method": "rhf"
			},
			{
				"type": "unocc",
				"energy": 0.00202,
				"method": "rhf"
			},
			{
				"type": "unocc",
				"energy": 0.05556,
				"method": "rhf"
			}
		],
		"cosmo_sigma_profile": { 
			"-0.025": 0.0,
			"-0.024": 0.0,
			"-0.023": 0.0,
			"-0.022": 0.0,
			"-0.021": 0.0,
			"-0.02": 0.0,
			"-0.019": 0.0,
			"-0.018": 0.297548223951,
			"-0.017": 1.60905376057,
			"-0.016": 1.72659554399,
			"-0.015": 1.20000953661,
			"-0.014": 1.04018899519,
			"-0.013": 1.63795142059,
			"-0.012": 1.42345143616,
			"-0.011": 0.933384088668,
			"-0.01": 1.75779272591,
			"-0.009": 5.39056428008,
			"-0.008": 6.7835706197,
			"-0.007": 8.50214294305,
			"-0.006": 7.1725164478,
			"-0.005": 10.077687366,
			"-0.004": 11.0240290623,
			"-0.003": 16.7713296002,
			"-0.002": 18.2980681764,
			"-0.001": 15.0231933462,
			"0.0": 8.53889215971,
			"0.001": 5.41957856737,
			"0.002": 4.69718670697,
			"0.003": 3.6187628395,
			"0.004": 5.317268206,
			"0.005": 4.73151809629,
			"0.006": 6.83762492861,
			"0.007": 11.5138224144,
			"0.008": 11.469542032,
			"0.009": 11.7588188655,
			"0.01": 11.5712014377,
			"0.011": 4.50380783841,
			"0.012": 0.363421152161,
			"0.013": 0.0,
			"0.014": 0.0,
			"0.015": 0.0,
			"0.016": 0.0,
			"0.017": 0.0,
			"0.018": 0.0,
			"0.019": 0.0,
			"0.02": 0.0,
			"0.021": 0.0,
			"0.022": 0.0,
			"0.023": 0.0,
			"0.024": 0.0,
			"0.025": 0.0
		}
	}
}
