{
	 "smiles": "CCC(C)(C)C1=CC=C(O)C(=C1)C(C)(C)CC", 
	 "Tm": 298.15, 
	 "num_atms": 43, 
	 "gaussian": { 
		 "optdone": 1, 
		 "sigma_profile": "yes", 
		 "theory": "DFT", 
		 "functional": "B3LYP", 
		 "basiset": "6-31G**", 
		 "properties": { 
			 "R2extent": 4826.3343, 
			 "electric_dipole_moment_norm": 1.30356599373, 
			 "electric_quadrupole_moment_norm": 8.03274830366, 
			 "total_energy": -700.618335975, 
			 "HOMO_LUMO_gap": 0.20902, 
			 "cosmo_polarized_energy": -7.25, 
			 "cosmo_cavitation_energy": 40.71, 
			 "cosmo_dispersion_energy": -27.01, 
			 "cosmo_repulsion_energy": 2.1, 
			 "cosmo_total_nonelectrostatic_energy": 15.8, 
			 "SMD_solvation_energy": 7.4 
		},
		"coords": [
			{
				"x": -3.1636631418,
				"y": -1.216668124,
				"z": 1.6558824981,
				"element": "C" 
			},
			{
				"x": -1.8877705486,
				"y": -1.7260443727,
				"z": 2.3347771251,
				"element": "C" 
			},
			{
				"x": -0.6296935058,
				"y": -0.817070524,
				"z": 2.1964310371,
				"element": "C" 
			},
			{
				"x": 0.5423316891,
				"y": -1.5023216969,
				"z": 2.9409997362,
				"element": "C" 
			},
			{
				"x": -0.89463003,
				"y": 0.5322899523,
				"z": 2.8923950185,
				"element": "C" 
			},
			{
				"x": -0.2515768249,
				"y": -0.6512334957,
				"z": 0.7126452735,
				"element": "C" 
			},
			{
				"x": 0.0411201371,
				"y": -1.7775109852,
				"z": -0.071159302,
				"element": "C" 
			},
			{
				"x": 0.3936002875,
				"y": -1.6357078412,
				"z": -1.4046141185,
				"element": "C" 
			},
			{
				"x": 0.4720173643,
				"y": -0.3742817206,
				"z": -2.0127190539,
				"element": "C" 
			},
			{
				"x": 0.8283039139,
				"y": -0.2944202878,
				"z": -3.3362178453,
				"element": "O" 
			},
			{
				"x": 0.1864529554,
				"y": 0.7888651332,
				"z": -1.2723363681,
				"element": "C" 
			},
			{
				"x": -0.1686095136,
				"y": 0.5911675732,
				"z": 0.0772420609,
				"element": "C" 
			},
			{
				"x": 0.2151779998,
				"y": 2.2483344165,
				"z": -1.7953677378,
				"element": "C" 
			},
			{
				"x": -1.2002794818,
				"y": 2.8580744879,
				"z": -1.6286930689,
				"element": "C" 
			},
			{
				"x": 0.592043043,
				"y": 2.4094303021,
				"z": -3.2844803217,
				"element": "C" 
			},
			{
				"x": 1.2111207616,
				"y": 3.0934469641,
				"z": -0.942141829,
				"element": "C" 
			},
			{
				"x": 2.66961882,
				"y": 2.6238105157,
				"z": -0.9556096686,
				"element": "C" 
			},
			{
				"x": -3.0052707714,
				"y": -1.0502015348,
				"z": 0.5859283776,
				"element": "H" 
			},
			{
				"x": -3.9729601816,
				"y": -1.9462165634,
				"z": 1.765379544,
				"element": "H" 
			},
			{
				"x": -3.513451581,
				"y": -0.2757824051,
				"z": 2.0924442514,
				"element": "H" 
			},
			{
				"x": -2.0794414409,
				"y": -1.8729616629,
				"z": 3.4064596107,
				"element": "H" 
			},
			{
				"x": -1.647314316,
				"y": -2.7194867329,
				"z": 1.9363858245,
				"element": "H" 
			},
			{
				"x": 0.7627091069,
				"y": -2.4917716936,
				"z": 2.5287626605,
				"element": "H" 
			},
			{
				"x": 1.4546587554,
				"y": -0.9011443948,
				"z": 2.8696791853,
				"element": "H" 
			},
			{
				"x": 0.3015645858,
				"y": -1.6306207856,
				"z": 4.002730607,
				"element": "H" 
			},
			{
				"x": -0.0009981834,
				"y": 1.1650697191,
				"z": 2.8914944052,
				"element": "H" 
			},
			{
				"x": -1.7057587998,
				"y": 1.09634658,
				"z": 2.4234522604,
				"element": "H" 
			},
			{
				"x": -1.1737966524,
				"y": 0.3591857915,
				"z": 3.9372355531,
				"element": "H" 
			},
			{
				"x": -0.003047241,
				"y": -2.7758702264,
				"z": 0.3536471088,
				"element": "H" 
			},
			{
				"x": 0.6180504189,
				"y": -2.5198100886,
				"z": -2.0002697463,
				"element": "H" 
			},
			{
				"x": 0.9834286581,
				"y": -1.1904624809,
				"z": -3.6608938232,
				"element": "H" 
			},
			{
				"x": -0.3913122428,
				"y": 1.4762053125,
				"z": 0.6592834686,
				"element": "H" 
			},
			{
				"x": -1.9360756477,
				"y": 2.2964732237,
				"z": -2.2134707159,
				"element": "H" 
			},
			{
				"x": -1.5331567456,
				"y": 2.8599639659,
				"z": -0.5867156403,
				"element": "H" 
			},
			{
				"x": -1.2087149148,
				"y": 3.8956592848,
				"z": -1.9818331921,
				"element": "H" 
			},
			{
				"x": 0.5869607068,
				"y": 3.4781003587,
				"z": -3.5291233598,
				"element": "H" 
			},
			{
				"x": 1.5785922896,
				"y": 2.009888059,
				"z": -3.5192462788,
				"element": "H" 
			},
			{
				"x": -0.1249249695,
				"y": 1.9095072049,
				"z": -3.9387743668,
				"element": "H" 
			},
			{
				"x": 0.8598788196,
				"y": 3.1261852608,
				"z": 0.0961345947,
				"element": "H" 
			},
			{
				"x": 1.1589945054,
				"y": 4.1283826722,
				"z": -1.3062456979,
				"element": "H" 
			},
			{
				"x": 3.2830696923,
				"y": 3.2595806977,
				"z": -0.3083408221,
				"element": "H" 
			},
			{
				"x": 3.1036920032,
				"y": 2.6636590847,
				"z": -1.9593488765,
				"element": "H" 
			},
			{
				"x": 2.758260221,
				"y": 1.5945610566,
				"z": -0.593788368,
				"element": "H" 
			}
		],
		 "valence_orbital": [ 
			{
				"type": "occ",
				"energy": -0.30266,
				"method": "rhf"
			},
			{
				"type": "occ",
				"energy": -0.30117,
				"method": "rhf"
			},
			{
				"type": "occ",
				"energy": -0.29417,
				"method": "rhf"
			},
			{
				"type": "occ",
				"energy": -0.23718,
				"method": "rhf"
			},
			{
				"type": "occ",
				"energy": -0.20816,
				"method": "rhf"
			},
			{
				"type": "unocc",
				"energy": 0.00086,
				"method": "rhf"
			},
			{
				"type": "unocc",
				"energy": 0.01962,
				"method": "rhf"
			},
			{
				"type": "unocc",
				"energy": 0.07247,
				"method": "rhf"
			},
			{
				"type": "unocc",
				"energy": 0.07874,
				"method": "rhf"
			},
			{
				"type": "unocc",
				"energy": 0.09678,
				"method": "rhf"
			}
		],
		"cosmo_sigma_profile": { 
			"-0.025": 0.0,
			"-0.024": 0.0,
			"-0.023": 0.0,
			"-0.022": 0.0,
			"-0.021": 0.0,
			"-0.02": 0.0,
			"-0.019": 0.0,
			"-0.018": 0.000160171361285,
			"-0.017": 0.597926441257,
			"-0.016": 1.16466142141,
			"-0.015": 0.95080914175,
			"-0.014": 0.889419118306,
			"-0.013": 1.44682238333,
			"-0.012": 0.84050476577,
			"-0.011": 0.442861178309,
			"-0.01": 0.884934098342,
			"-0.009": 0.981781328773,
			"-0.008": 1.54176321435,
			"-0.007": 1.13745007773,
			"-0.006": 1.25160948388,
			"-0.005": 4.38229991499,
			"-0.004": 8.8192580416,
			"-0.003": 17.4803937761,
			"-0.002": 43.7393586918,
			"-0.001": 41.9590811143,
			"0.0": 43.6626802454,
			"0.001": 52.7291702832,
			"0.002": 39.54605757,
			"0.003": 14.6944715173,
			"0.004": 9.76002552292,
			"0.005": 8.587919795,
			"0.006": 7.92044012208,
			"0.007": 4.54255003627,
			"0.008": 3.11659269551,
			"0.009": 1.15651924705,
			"0.01": 0.0,
			"0.011": 0.0,
			"0.012": 0.0,
			"0.013": 0.0,
			"0.014": 0.0,
			"0.015": 0.0,
			"0.016": 0.0,
			"0.017": 0.0,
			"0.018": 0.0,
			"0.019": 0.0,
			"0.02": 0.0,
			"0.021": 0.0,
			"0.022": 0.0,
			"0.023": 0.0,
			"0.024": 0.0,
			"0.025": 0.0
		}
	}
}
