{
	 "smiles": "ClC1=NC2=CC=CC=C2C=C1C=O", 
	 "Tm": 422.15, 
	 "num_atms": 19, 
	 "gaussian": { 
		 "optdone": 1, 
		 "sigma_profile": "yes", 
		 "theory": "DFT", 
		 "functional": "B3LYP", 
		 "basiset": "6-31G**", 
		 "properties": { 
			 "R2extent": 3821.1272, 
			 "electric_dipole_moment_norm": 3.69661937045, 
			 "electric_quadrupole_moment_norm": 6.1237490445, 
			 "total_energy": -974.84463023, 
			 "HOMO_LUMO_gap": 0.16124, 
			 "cosmo_polarized_energy": -8.9, 
			 "cosmo_cavitation_energy": 25.69, 
			 "cosmo_dispersion_energy": -19.2, 
			 "cosmo_repulsion_energy": 1.49, 
			 "cosmo_total_nonelectrostatic_energy": 7.98, 
			 "SMD_solvation_energy": 3.59 
		},
		"coords": [
			{
				"x": -2.8880827206,
				"y": -2.0789431374,
				"z": -3.0829224579,
				"element": "Cl" 
			},
			{
				"x": -1.587414541,
				"y": -1.4483756962,
				"z": -2.0616810789,
				"element": "C" 
			},
			{
				"x": -0.9038802988,
				"y": -2.3358220622,
				"z": -1.4055521168,
				"element": "N" 
			},
			{
				"x": 0.1144708504,
				"y": -1.9081167682,
				"z": -0.5995464741,
				"element": "C" 
			},
			{
				"x": 0.8649780395,
				"y": -2.8701316205,
				"z": 0.1196572349,
				"element": "C" 
			},
			{
				"x": 1.8971236652,
				"y": -2.4657704202,
				"z": 0.9393499589,
				"element": "C" 
			},
			{
				"x": 2.2232765741,
				"y": -1.0930170339,
				"z": 1.0762943341,
				"element": "C" 
			},
			{
				"x": 1.5100620405,
				"y": -0.1369885892,
				"z": 0.3887667165,
				"element": "C" 
			},
			{
				"x": 0.4409311279,
				"y": -0.5207599953,
				"z": -0.4637410632,
				"element": "C" 
			},
			{
				"x": -0.3361018414,
				"y": 0.3979790718,
				"z": -1.200744516,
				"element": "C" 
			},
			{
				"x": -1.3657692875,
				"y": -0.0373958458,
				"z": -2.0153617938,
				"element": "C" 
			},
			{
				"x": -2.1558620696,
				"y": 0.9707511971,
				"z": -2.7718614042,
				"element": "C" 
			},
			{
				"x": -1.9323199069,
				"y": 2.1654619863,
				"z": -2.7028948663,
				"element": "O" 
			},
			{
				"x": 0.5999601906,
				"y": -3.9152387329,
				"z": 0.0014674128,
				"element": "H" 
			},
			{
				"x": 2.4708737047,
				"y": -3.2057090233,
				"z": 1.4895830273,
				"element": "H" 
			},
			{
				"x": 3.0405149985,
				"y": -0.7996082484,
				"z": 1.7279324353,
				"element": "H" 
			},
			{
				"x": 1.7525827308,
				"y": 0.9174656711,
				"z": 0.4873102606,
				"element": "H" 
			},
			{
				"x": -0.1457748949,
				"y": 1.4667996927,
				"z": -1.1470351273,
				"element": "H" 
			},
			{
				"x": -2.9666683617,
				"y": 0.5748195546,
				"z": -3.4083204819,
				"element": "H" 
			}
		],
		 "valence_orbital": [ 
			{
				"type": "occ",
				"energy": -0.32409,
				"method": "rhf"
			},
			{
				"type": "occ",
				"energy": -0.28838,
				"method": "rhf"
			},
			{
				"type": "occ",
				"energy": -0.26686,
				"method": "rhf"
			},
			{
				"type": "occ",
				"energy": -0.26428,
				"method": "rhf"
			},
			{
				"type": "occ",
				"energy": -0.25284,
				"method": "rhf"
			},
			{
				"type": "unocc",
				"energy": -0.0916,
				"method": "rhf"
			},
			{
				"type": "unocc",
				"energy": -0.05641,
				"method": "rhf"
			},
			{
				"type": "unocc",
				"energy": -0.00495,
				"method": "rhf"
			},
			{
				"type": "unocc",
				"energy": 0.00571,
				"method": "rhf"
			},
			{
				"type": "unocc",
				"energy": 0.02377,
				"method": "rhf"
			}
		],
		"cosmo_sigma_profile": { 
			"-0.025": 0.0,
			"-0.024": 0.0,
			"-0.023": 0.0,
			"-0.022": 0.0,
			"-0.021": 0.0,
			"-0.02": 0.0,
			"-0.019": 0.0,
			"-0.018": 0.0,
			"-0.017": 0.0,
			"-0.016": 0.0,
			"-0.015": 0.0,
			"-0.014": 0.0,
			"-0.013": 0.0,
			"-0.012": 0.0,
			"-0.011": 0.0,
			"-0.01": 0.0,
			"-0.009": 0.816306558645,
			"-0.008": 2.94606280975,
			"-0.007": 9.11963298551,
			"-0.006": 12.1128014195,
			"-0.005": 15.2688715323,
			"-0.004": 11.9129430111,
			"-0.003": 14.125187432,
			"-0.002": 18.3782605176,
			"-0.001": 18.2384544232,
			"0.0": 16.0307175564,
			"0.001": 18.0011168619,
			"0.002": 19.0479142193,
			"0.003": 15.4327254894,
			"0.004": 9.07139710211,
			"0.005": 4.68113375543,
			"0.006": 3.85178218426,
			"0.007": 2.94660181663,
			"0.008": 3.20051166815,
			"0.009": 3.1714793895,
			"0.01": 4.93154944656,
			"0.011": 4.07999398737,
			"0.012": 2.04178933792,
			"0.013": 0.715547998547,
			"0.014": 0.0567815810356,
			"0.015": 0.0,
			"0.016": 0.0,
			"0.017": 0.0,
			"0.018": 0.0,
			"0.019": 0.0,
			"0.02": 0.0,
			"0.021": 0.0,
			"0.022": 0.0,
			"0.023": 0.0,
			"0.024": 0.0,
			"0.025": 0.0
		}
	}
}
