{
	 "smiles": "COC(=O)CC1=CC=C(O)C=C1", 
	 "Tm": 330.15, 
	 "num_atms": 22, 
	 "gaussian": { 
		 "optdone": 1, 
		 "sigma_profile": "yes", 
		 "theory": "DFT", 
		 "functional": "B3LYP", 
		 "basiset": "6-31G**", 
		 "properties": { 
			 "R2extent": 2802.4201, 
			 "electric_dipole_moment_norm": 0.489692832294, 
			 "electric_quadrupole_moment_norm": 13.6350148177, 
			 "total_energy": -574.661477586, 
			 "HOMO_LUMO_gap": 0.21414, 
			 "cosmo_polarized_energy": -12.25, 
			 "cosmo_cavitation_energy": 26.57, 
			 "cosmo_dispersion_energy": -19.19, 
			 "cosmo_repulsion_energy": 1.55, 
			 "cosmo_total_nonelectrostatic_energy": 8.93, 
			 "SMD_solvation_energy": 6.34 
		},
		"coords": [
			{
				"x": -2.8191822152,
				"y": -2.4498812363,
				"z": 1.8828920838,
				"element": "C" 
			},
			{
				"x": -1.7991965931,
				"y": -2.3552853983,
				"z": 0.8741026829,
				"element": "O" 
			},
			{
				"x": -1.7394773631,
				"y": -1.172876653,
				"z": 0.2250521918,
				"element": "C" 
			},
			{
				"x": -2.4929307407,
				"y": -0.248003486,
				"z": 0.4459226238,
				"element": "O" 
			},
			{
				"x": -0.6023641667,
				"y": -1.1437608917,
				"z": -0.782779162,
				"element": "C" 
			},
			{
				"x": 0.5842891469,
				"y": -0.3458050045,
				"z": -0.2642762575,
				"element": "C" 
			},
			{
				"x": 0.4522774173,
				"y": 1.0122137506,
				"z": 0.0517372833,
				"element": "C" 
			},
			{
				"x": 1.5393703582,
				"y": 1.7475711656,
				"z": 0.5197418423,
				"element": "C" 
			},
			{
				"x": 2.785656017,
				"y": 1.131132156,
				"z": 0.6799606921,
				"element": "C" 
			},
			{
				"x": 3.8888667848,
				"y": 1.8001206109,
				"z": 1.1314437579,
				"element": "O" 
			},
			{
				"x": 2.9319929529,
				"y": -0.2246564827,
				"z": 0.371927852,
				"element": "C" 
			},
			{
				"x": 1.8364353799,
				"y": -0.9487173125,
				"z": -0.0925954403,
				"element": "C" 
			},
			{
				"x": -2.6600317826,
				"y": -1.6993177461,
				"z": 2.6611641707,
				"element": "H" 
			},
			{
				"x": -2.7325803831,
				"y": -3.4546699651,
				"z": 2.2961509251,
				"element": "H" 
			},
			{
				"x": -3.808956985,
				"y": -2.2980139298,
				"z": 1.4451670653,
				"element": "H" 
			},
			{
				"x": -1.0012758846,
				"y": -0.6828606009,
				"z": -1.6931254846,
				"element": "H" 
			},
			{
				"x": -0.2967865677,
				"y": -2.1650330179,
				"z": -1.0193021588,
				"element": "H" 
			},
			{
				"x": -0.5154640583,
				"y": 1.4925071704,
				"z": -0.0567210189,
				"element": "H" 
			},
			{
				"x": 1.4190417806,
				"y": 2.8021100282,
				"z": 0.7605251345,
				"element": "H" 
			},
			{
				"x": 3.6497802917,
				"y": 2.7190877579,
				"z": 1.3084168064,
				"element": "H" 
			},
			{
				"x": 3.9024685424,
				"y": -0.6919403275,
				"z": 0.5023294672,
				"element": "H" 
			},
			{
				"x": 1.9604680684,
				"y": -2.0027205873,
				"z": -0.3278350571,
				"element": "H" 
			}
		],
		 "valence_orbital": [ 
			{
				"type": "occ",
				"energy": -0.32676,
				"method": "rhf"
			},
			{
				"type": "occ",
				"energy": -0.30078,
				"method": "rhf"
			},
			{
				"type": "occ",
				"energy": -0.27052,
				"method": "rhf"
			},
			{
				"type": "occ",
				"energy": -0.25104,
				"method": "rhf"
			},
			{
				"type": "occ",
				"energy": -0.21686,
				"method": "rhf"
			},
			{
				"type": "unocc",
				"energy": -0.00272,
				"method": "rhf"
			},
			{
				"type": "unocc",
				"energy": 0.0007,
				"method": "rhf"
			},
			{
				"type": "unocc",
				"energy": 0.02666,
				"method": "rhf"
			},
			{
				"type": "unocc",
				"energy": 0.07113,
				"method": "rhf"
			},
			{
				"type": "unocc",
				"energy": 0.10037,
				"method": "rhf"
			}
		],
		"cosmo_sigma_profile": { 
			"-0.025": 0.0,
			"-0.024": 0.0,
			"-0.023": 0.0,
			"-0.022": 0.0,
			"-0.021": 0.0,
			"-0.02": 0.0,
			"-0.019": 0.0,
			"-0.018": 0.272106421367,
			"-0.017": 1.00589643473,
			"-0.016": 1.18528929374,
			"-0.015": 0.875802793903,
			"-0.014": 0.932686934283,
			"-0.013": 1.68700396993,
			"-0.012": 0.860674900681,
			"-0.011": 0.355574830104,
			"-0.01": 0.811525505895,
			"-0.009": 1.70832263023,
			"-0.008": 0.986122490885,
			"-0.007": 2.06444560301,
			"-0.006": 13.2454536849,
			"-0.005": 16.5249040768,
			"-0.004": 19.8875468016,
			"-0.003": 19.8357499656,
			"-0.002": 14.2384290429,
			"-0.001": 10.9695173872,
			"0.0": 9.99437398651,
			"0.001": 8.48440084284,
			"0.002": 11.0138754526,
			"0.003": 11.6805769476,
			"0.004": 14.4619480697,
			"0.005": 14.7706200833,
			"0.006": 7.08198383189,
			"0.007": 4.84212125189,
			"0.008": 3.78356849694,
			"0.009": 3.35286246586,
			"0.01": 3.64239427434,
			"0.011": 4.40306986864,
			"0.012": 5.11750259187,
			"0.013": 0.520170257239,
			"0.014": 0.0,
			"0.015": 0.0,
			"0.016": 0.0,
			"0.017": 0.0,
			"0.018": 0.0,
			"0.019": 0.0,
			"0.02": 0.0,
			"0.021": 0.0,
			"0.022": 0.0,
			"0.023": 0.0,
			"0.024": 0.0,
			"0.025": 0.0
		}
	}
}
