{
	 "smiles": "ClC(=O)C1=C2C=CC=CN2N=C1", 
	 "Tm": 390.15, 
	 "num_atms": 17, 
	 "gaussian": { 
		 "optdone": 1, 
		 "sigma_profile": "yes", 
		 "theory": "DFT", 
		 "functional": "B3LYP", 
		 "basiset": "6-31G**", 
		 "properties": { 
			 "R2extent": 2756.8679, 
			 "electric_dipole_moment_norm": 5.71463109746, 
			 "electric_quadrupole_moment_norm": 11.4757231707, 
			 "total_energy": -952.769994079, 
			 "HOMO_LUMO_gap": 0.17054, 
			 "cosmo_polarized_energy": -10.22, 
			 "cosmo_cavitation_energy": 23.69, 
			 "cosmo_dispersion_energy": -17.79, 
			 "cosmo_repulsion_energy": 1.38, 
			 "cosmo_total_nonelectrostatic_energy": 7.29, 
			 "SMD_solvation_energy": 4.17 
		},
		"coords": [
			{
				"x": -3.3411335786,
				"y": 1.6408024079,
				"z": 1.6844177226,
				"element": "Cl" 
			},
			{
				"x": -2.3944060705,
				"y": 2.139587247,
				"z": 0.1741514725,
				"element": "C" 
			},
			{
				"x": -2.8062550637,
				"y": 3.0547745203,
				"z": -0.4780548436,
				"element": "O" 
			},
			{
				"x": -1.2119057724,
				"y": 1.3546962846,
				"z": -0.084481548,
				"element": "C" 
			},
			{
				"x": -0.5994886673,
				"y": 0.2609480157,
				"z": 0.576547151,
				"element": "C" 
			},
			{
				"x": -0.8238230118,
				"y": -0.5371749892,
				"z": 1.7211686934,
				"element": "C" 
			},
			{
				"x": 0.0597510075,
				"y": -1.5505286954,
				"z": 2.0215842618,
				"element": "C" 
			},
			{
				"x": 1.1877480126,
				"y": -1.8017540297,
				"z": 1.1991684871,
				"element": "C" 
			},
			{
				"x": 1.4025350116,
				"y": -1.0272389528,
				"z": 0.091317606,
				"element": "C" 
			},
			{
				"x": 0.5214993284,
				"y": -0.0272407173,
				"z": -0.1960720517,
				"element": "N" 
			},
			{
				"x": 0.6607691685,
				"y": 0.7923774617,
				"z": -1.2816912016,
				"element": "N" 
			},
			{
				"x": -0.3772340421,
				"y": 1.6093625153,
				"z": -1.2024236969,
				"element": "C" 
			},
			{
				"x": -1.6877638854,
				"y": -0.333905054,
				"z": 2.3384933719,
				"element": "H" 
			},
			{
				"x": -0.1088007886,
				"y": -2.1655965274,
				"z": 2.8994160257,
				"element": "H" 
			},
			{
				"x": 1.8838725492,
				"y": -2.5981460078,
				"z": 1.4335171643,
				"element": "H" 
			},
			{
				"x": 2.2261726338,
				"y": -1.1295919795,
				"z": -0.6029685346,
				"element": "H" 
			},
			{
				"x": -0.5228368311,
				"y": 2.3785285007,
				"z": -1.9484900798,
				"element": "H" 
			}
		],
		 "valence_orbital": [ 
			{
				"type": "occ",
				"energy": -0.31147,
				"method": "rhf"
			},
			{
				"type": "occ",
				"energy": -0.30811,
				"method": "rhf"
			},
			{
				"type": "occ",
				"energy": -0.28672,
				"method": "rhf"
			},
			{
				"type": "occ",
				"energy": -0.2845,
				"method": "rhf"
			},
			{
				"type": "occ",
				"energy": -0.23959,
				"method": "rhf"
			},
			{
				"type": "unocc",
				"energy": -0.06905,
				"method": "rhf"
			},
			{
				"type": "unocc",
				"energy": -0.04295,
				"method": "rhf"
			},
			{
				"type": "unocc",
				"energy": -0.01677,
				"method": "rhf"
			},
			{
				"type": "unocc",
				"energy": 0.02103,
				"method": "rhf"
			},
			{
				"type": "unocc",
				"energy": 0.07193,
				"method": "rhf"
			}
		],
		"cosmo_sigma_profile": { 
			"-0.025": 0.0,
			"-0.024": 0.0,
			"-0.023": 0.0,
			"-0.022": 0.0,
			"-0.021": 0.0,
			"-0.02": 0.0,
			"-0.019": 0.0,
			"-0.018": 0.0,
			"-0.017": 0.0,
			"-0.016": 0.0,
			"-0.015": 0.0,
			"-0.014": 0.0,
			"-0.013": 0.0,
			"-0.012": 0.0,
			"-0.011": 0.0739221707495,
			"-0.01": 1.60453856848,
			"-0.009": 3.49619343571,
			"-0.008": 7.62348166621,
			"-0.007": 9.47344358942,
			"-0.006": 8.69880746049,
			"-0.005": 5.92658488664,
			"-0.004": 7.12723138659,
			"-0.003": 11.4009258828,
			"-0.002": 15.7789595105,
			"-0.001": 20.786913285,
			"0.0": 22.58712055,
			"0.001": 17.6852908127,
			"0.002": 9.52536653657,
			"0.003": 7.64699316283,
			"0.004": 7.33943514716,
			"0.005": 9.97337780435,
			"0.006": 6.08776272183,
			"0.007": 4.15430207922,
			"0.008": 3.87072247797,
			"0.009": 5.80253916593,
			"0.01": 3.70680325539,
			"0.011": 1.85969078975,
			"0.012": 0.874493813637,
			"0.013": 0.895096746956,
			"0.014": 0.299560542121,
			"0.015": 0.0,
			"0.016": 0.0,
			"0.017": 0.0,
			"0.018": 0.0,
			"0.019": 0.0,
			"0.02": 0.0,
			"0.021": 0.0,
			"0.022": 0.0,
			"0.023": 0.0,
			"0.024": 0.0,
			"0.025": 0.0
		}
	}
}
