{
	 "smiles": "IC1=CC=C(C=C)C=C1", 
	 "Tm": 317.15, 
	 "num_atms": 16, 
	 "gaussian": { 
		 "optdone": 1, 
		 "sigma_profile": "no", 
		 "theory": "DFT", 
		 "functional": "B3LYP", 
		 "basiset": "6-31G**", 
		 "properties": { 
			 "R2extent": 2106.1946, 
			 "electric_dipole_moment_norm": 1.78087372377, 
			 "electric_quadrupole_moment_norm": 6.56669521144, 
			 "total_energy": -320.43709942, 
			 "HOMO_LUMO_gap": 0.18013, 
			 "cosmo_polarized_energy": -102445.57, 
			 "cosmo_cavitation_energy": 23.26, 
			 "cosmo_dispersion_energy": -18.45, 
			 "cosmo_repulsion_energy": 1.45, 
			 "cosmo_total_nonelectrostatic_energy": 6.27, 
			 "SMD_solvation_energy": 3.74 
		},
		"coords": [
			{
				"x": 0.7896838984,
				"y": -1.47962724,
				"z": -2.6119617394,
				"element": "I" 
			},
			{
				"x": -0.4656524782,
				"y": -1.1441241401,
				"z": -0.9365453045,
				"element": "C" 
			},
			{
				"x": -1.5721218856,
				"y": -1.9659212726,
				"z": -0.7244202682,
				"element": "C" 
			},
			{
				"x": -2.3883253585,
				"y": -1.7330290548,
				"z": 0.3819776925,
				"element": "C" 
			},
			{
				"x": -2.1254867218,
				"y": -0.6925600177,
				"z": 1.2883382421,
				"element": "C" 
			},
			{
				"x": -3.0267020564,
				"y": -0.5009553102,
				"z": 2.4357782705,
				"element": "C" 
			},
			{
				"x": -2.9383424607,
				"y": 0.4295521433,
				"z": 3.394136263,
				"element": "C" 
			},
			{
				"x": -1.0015900052,
				"y": 0.1178274706,
				"z": 1.0452905511,
				"element": "C" 
			},
			{
				"x": -0.1758186238,
				"y": -0.0995021361,
				"z": -0.0533252889,
				"element": "C" 
			},
			{
				"x": -1.7991952467,
				"y": -2.7765396924,
				"z": -1.4076675409,
				"element": "H" 
			},
			{
				"x": -3.250214378,
				"y": -2.3751180353,
				"z": 0.5449734316,
				"element": "H" 
			},
			{
				"x": -3.8510556191,
				"y": -1.2115438525,
				"z": 2.4856843145,
				"element": "H" 
			},
			{
				"x": -3.6677009923,
				"y": 0.472405005,
				"z": 4.1961369901,
				"element": "H" 
			},
			{
				"x": -2.1500888138,
				"y": 1.1761338004,
				"z": 3.4215120263,
				"element": "H" 
			},
			{
				"x": -0.7626595033,
				"y": 0.9327922042,
				"z": 1.7213932009,
				"element": "H" 
			},
			{
				"x": 0.684870245,
				"y": 0.5387101283,
				"z": -0.2194008405,
				"element": "H" 
			}
		],
		 "valence_orbital": [ 
			{
				"type": "occ",
				"energy": -0.32277,
				"method": "rhf"
			},
			{
				"type": "occ",
				"energy": -0.27138,
				"method": "rhf"
			},
			{
				"type": "occ",
				"energy": -0.26827,
				"method": "rhf"
			},
			{
				"type": "occ",
				"energy": -0.26544,
				"method": "rhf"
			},
			{
				"type": "occ",
				"energy": -0.22552,
				"method": "rhf"
			},
			{
				"type": "unocc",
				"energy": -0.04539,
				"method": "rhf"
			},
			{
				"type": "unocc",
				"energy": -0.03802,
				"method": "rhf"
			},
			{
				"type": "unocc",
				"energy": -0.01458,
				"method": "rhf"
			},
			{
				"type": "unocc",
				"energy": 0.04004,
				"method": "rhf"
			},
			{
				"type": "unocc",
				"energy": 0.04323,
				"method": "rhf"
			}
		],
		"cosmo_sigma_profile": { 
			"0.0": 0.0,
			"0.0": 0.0,
			"0.0": 0.0,
			"0.0": 0.0,
			"0.0": 0.0,
			"0.0": 0.0,
			"0.0": 0.0,
			"0.0": 0.0,
			"0.0": 0.0,
			"0.0": 0.0,
			"0.0": 0.0,
			"0.0": 0.0,
			"0.0": 0.0,
			"0.0": 0.0,
			"0.0": 0.0,
			"0.0": 0.0,
			"0.0": 0.0,
			"0.0": 0.0,
			"0.0": 0.0,
			"0.0": 0.0,
			"0.0": 0.0,
			"0.0": 0.0,
			"0.0": 0.0,
			"0.0": 0.0,
			"0.0": 0.0,
			"0.0": 0.0,
			"0.0": 0.0,
			"0.0": 0.0,
			"0.0": 0.0,
			"0.0": 0.0,
			"0.0": 0.0,
			"0.0": 0.0,
			"0.0": 0.0,
			"0.0": 0.0,
			"0.0": 0.0,
			"0.0": 0.0,
			"0.0": 0.0,
			"0.0": 0.0,
			"0.0": 0.0,
			"0.0": 0.0,
			"0.0": 0.0,
			"0.0": 0.0,
			"0.0": 0.0,
			"0.0": 0.0,
			"0.0": 0.0,
			"0.0": 0.0,
			"0.0": 0.0,
			"0.0": 0.0,
			"0.0": 0.0,
			"0.0": 0.0,
			"0.0": 0.0
		}
	}
}
