{
	 "smiles": "FC(F)(F)C1=CC=C(CC#N)C=C1", 
	 "Tm": 319.95, 
	 "num_atms": 19, 
	 "gaussian": { 
		 "optdone": 1, 
		 "sigma_profile": "yes", 
		 "theory": "DFT", 
		 "functional": "B3LYP", 
		 "basiset": "6-31G**", 
		 "properties": { 
			 "R2extent": 3758.0665, 
			 "electric_dipole_moment_norm": 3.32585207729, 
			 "electric_quadrupole_moment_norm": 17.844569864, 
			 "total_energy": -700.835877238, 
			 "HOMO_LUMO_gap": 0.23451, 
			 "cosmo_polarized_energy": -11.38, 
			 "cosmo_cavitation_energy": 26.17, 
			 "cosmo_dispersion_energy": -17.79, 
			 "cosmo_repulsion_energy": 1.36, 
			 "cosmo_total_nonelectrostatic_energy": 9.73, 
			 "SMD_solvation_energy": 7.09 
		},
		"coords": [
			{
				"x": -3.0762952935,
				"y": -2.7499711507,
				"z": 1.9656275393,
				"element": "F" 
			},
			{
				"x": -3.1899350992,
				"y": -1.730746401,
				"z": 1.0866650785,
				"element": "C" 
			},
			{
				"x": -4.1910787257,
				"y": -0.9308671008,
				"z": 1.5135381033,
				"element": "F" 
			},
			{
				"x": -3.5895358726,
				"y": -2.2679195222,
				"z": -0.0895533483,
				"element": "F" 
			},
			{
				"x": -1.8962345781,
				"y": -0.9753528817,
				"z": 0.9359825393,
				"element": "C" 
			},
			{
				"x": -0.6779419332,
				"y": -1.6411146472,
				"z": 1.0900085555,
				"element": "C" 
			},
			{
				"x": 0.517514554,
				"y": -0.9533931443,
				"z": 0.8932007332,
				"element": "C" 
			},
			{
				"x": 0.5088161627,
				"y": 0.4003243854,
				"z": 0.5403156427,
				"element": "C" 
			},
			{
				"x": 1.8177302627,
				"y": 1.1513482459,
				"z": 0.33430525,
				"element": "C" 
			},
			{
				"x": 2.3182124471,
				"y": 1.7666889576,
				"z": 1.5712332057,
				"element": "C" 
			},
			{
				"x": 2.7084459243,
				"y": 2.2500073226,
				"z": 2.5514744911,
				"element": "N" 
			},
			{
				"x": -0.7162420389,
				"y": 1.0593378868,
				"z": 0.3917188283,
				"element": "C" 
			},
			{
				"x": -1.915067034,
				"y": 0.3771202736,
				"z": 0.5871476784,
				"element": "C" 
			},
			{
				"x": -0.6663229988,
				"y": -2.6891736372,
				"z": 1.3686050378,
				"element": "H" 
			},
			{
				"x": 1.463145404,
				"y": -1.4735595745,
				"z": 1.0183612106,
				"element": "H" 
			},
			{
				"x": 2.591163492,
				"y": 0.4753427307,
				"z": -0.0471789328,
				"element": "H" 
			},
			{
				"x": 1.6916462815,
				"y": 1.9427089448,
				"z": -0.4130570149,
				"element": "H" 
			},
			{
				"x": -0.7349779236,
				"y": 2.1123795397,
				"z": 0.1248708677,
				"element": "H" 
			},
			{
				"x": -2.8623430306,
				"y": 0.8933397726,
				"z": 0.4759345346,
				"element": "H" 
			}
		],
		 "valence_orbital": [ 
			{
				"type": "occ",
				"energy": -0.36251,
				"method": "rhf"
			},
			{
				"type": "occ",
				"energy": -0.33148,
				"method": "rhf"
			},
			{
				"type": "occ",
				"energy": -0.33108,
				"method": "rhf"
			},
			{
				"type": "occ",
				"energy": -0.28032,
				"method": "rhf"
			},
			{
				"type": "occ",
				"energy": -0.27887,
				"method": "rhf"
			},
			{
				"type": "unocc",
				"energy": -0.04436,
				"method": "rhf"
			},
			{
				"type": "unocc",
				"energy": -0.03272,
				"method": "rhf"
			},
			{
				"type": "unocc",
				"energy": 0.02858,
				"method": "rhf"
			},
			{
				"type": "unocc",
				"energy": 0.03379,
				"method": "rhf"
			},
			{
				"type": "unocc",
				"energy": 0.08413,
				"method": "rhf"
			}
		],
		"cosmo_sigma_profile": { 
			"-0.025": 0.0,
			"-0.024": 0.0,
			"-0.023": 0.0,
			"-0.022": 0.0,
			"-0.021": 0.0,
			"-0.02": 0.0,
			"-0.019": 0.0,
			"-0.018": 0.0,
			"-0.017": 0.0,
			"-0.016": 0.0,
			"-0.015": 0.0,
			"-0.014": 0.0,
			"-0.013": 0.0,
			"-0.012": 0.0,
			"-0.011": 0.0,
			"-0.01": 0.185120474341,
			"-0.009": 6.83129274089,
			"-0.008": 7.85369381791,
			"-0.007": 12.055676162,
			"-0.006": 12.5412034913,
			"-0.005": 11.7973058553,
			"-0.004": 7.93323272631,
			"-0.003": 8.00654573078,
			"-0.002": 8.78745108965,
			"-0.001": 10.0325130372,
			"0.0": 13.4058234763,
			"0.001": 17.3692314164,
			"0.002": 28.1193977739,
			"0.003": 36.8742851994,
			"0.004": 4.47975893395,
			"0.005": 1.66499670267,
			"0.006": 3.34092099571,
			"0.007": 2.1376478319,
			"0.008": 3.52848060275,
			"0.009": 3.50291156679,
			"0.01": 3.3619208755,
			"0.011": 2.67338545873,
			"0.012": 2.61494990116,
			"0.013": 1.73592614601,
			"0.014": 0.164743164101,
			"0.015": 0.0,
			"0.016": 0.0,
			"0.017": 0.0,
			"0.018": 0.0,
			"0.019": 0.0,
			"0.02": 0.0,
			"0.021": 0.0,
			"0.022": 0.0,
			"0.023": 0.0,
			"0.024": 0.0,
			"0.025": 0.0
		}
	}
}
