{
	 "smiles": "FC(F)(F)C1=C(NC(=O)CCl)C=CC(Cl)=C1", 
	 "Tm": 343.65, 
	 "num_atms": 22, 
	 "gaussian": { 
		 "optdone": 1, 
		 "sigma_profile": "yes", 
		 "theory": "DFT", 
		 "functional": "B3LYP", 
		 "basiset": "6-31G**", 
		 "properties": { 
			 "R2extent": 5350.2231, 
			 "electric_dipole_moment_norm": 0.992093448219, 
			 "electric_quadrupole_moment_norm": 4.98264955922, 
			 "total_energy": -1696.47992452, 
			 "HOMO_LUMO_gap": 0.19336, 
			 "cosmo_polarized_energy": -8.0, 
			 "cosmo_cavitation_energy": 31.43, 
			 "cosmo_dispersion_energy": -22.44, 
			 "cosmo_repulsion_energy": 1.69, 
			 "cosmo_total_nonelectrostatic_energy": 10.68, 
			 "SMD_solvation_energy": 6.34 
		},
		"coords": [
			{
				"x": -2.5896248101,
				"y": 1.2453736596,
				"z": -0.5351787027,
				"element": "F" 
			},
			{
				"x": -1.5773233603,
				"y": 1.6103054429,
				"z": 0.3023862527,
				"element": "C" 
			},
			{
				"x": -0.969768429,
				"y": 2.6667718078,
				"z": -0.2856039975,
				"element": "F" 
			},
			{
				"x": -2.1441146861,
				"y": 2.0490766054,
				"z": 1.4382233496,
				"element": "F" 
			},
			{
				"x": -0.6149094079,
				"y": 0.4745133381,
				"z": 0.5339938283,
				"element": "C" 
			},
			{
				"x": 0.0143101894,
				"y": -0.1817310048,
				"z": -0.5497151005,
				"element": "C" 
			},
			{
				"x": -0.3175090691,
				"y": 0.1860718977,
				"z": -1.8688761061,
				"element": "N" 
			},
			{
				"x": 0.2954446406,
				"y": -0.2118308788,
				"z": -3.0238107166,
				"element": "C" 
			},
			{
				"x": 1.252703838,
				"y": -0.9664192422,
				"z": -3.1143053061,
				"element": "O" 
			},
			{
				"x": -0.2646226673,
				"y": 0.3460617984,
				"z": -4.3371023703,
				"element": "C" 
			},
			{
				"x": -1.7075413195,
				"y": 1.435006305,
				"z": -4.2285211214,
				"element": "Cl" 
			},
			{
				"x": 0.9455753114,
				"y": -1.1944113369,
				"z": -0.2717590842,
				"element": "C" 
			},
			{
				"x": 1.2374681685,
				"y": -1.5486734588,
				"z": 1.0426211973,
				"element": "C" 
			},
			{
				"x": 0.6019381709,
				"y": -0.8999524329,
				"z": 2.0980323511,
				"element": "C" 
			},
			{
				"x": 0.9646836338,
				"y": -1.3504888614,
				"z": 3.7533094235,
				"element": "Cl" 
			},
			{
				"x": -0.3199584012,
				"y": 0.1112176827,
				"z": 1.8480595217,
				"element": "C" 
			},
			{
				"x": -1.1130771213,
				"y": 0.8008771769,
				"z": -1.9885107782,
				"element": "H" 
			},
			{
				"x": 0.5304312185,
				"y": 0.9072069325,
				"z": -4.8292354084,
				"element": "H" 
			},
			{
				"x": -0.5406632399,
				"y": -0.4983165848,
				"z": -4.9691034985,
				"element": "H" 
			},
			{
				"x": 1.4393999292,
				"y": -1.6915910077,
				"z": -1.0938522899,
				"element": "H" 
			},
			{
				"x": 1.9581721459,
				"y": -2.3339579263,
				"z": 1.2420887705,
				"element": "H" 
			},
			{
				"x": -0.8085147343,
				"y": 0.6212900876,
				"z": 2.6680597858,
				"element": "H" 
			}
		],
		 "valence_orbital": [ 
			{
				"type": "occ",
				"energy": -0.32365,
				"method": "rhf"
			},
			{
				"type": "occ",
				"energy": -0.31187,
				"method": "rhf"
			},
			{
				"type": "occ",
				"energy": -0.28657,
				"method": "rhf"
			},
			{
				"type": "occ",
				"energy": -0.2791,
				"method": "rhf"
			},
			{
				"type": "occ",
				"energy": -0.24332,
				"method": "rhf"
			},
			{
				"type": "unocc",
				"energy": -0.04996,
				"method": "rhf"
			},
			{
				"type": "unocc",
				"energy": -0.03705,
				"method": "rhf"
			},
			{
				"type": "unocc",
				"energy": 0.00322,
				"method": "rhf"
			},
			{
				"type": "unocc",
				"energy": 0.01608,
				"method": "rhf"
			},
			{
				"type": "unocc",
				"energy": 0.01983,
				"method": "rhf"
			}
		],
		"cosmo_sigma_profile": { 
			"-0.025": 0.0,
			"-0.024": 0.0,
			"-0.023": 0.0,
			"-0.022": 0.0,
			"-0.021": 0.0,
			"-0.02": 0.0,
			"-0.019": 0.0,
			"-0.018": 0.0,
			"-0.017": 0.0,
			"-0.016": 0.0,
			"-0.015": 0.0,
			"-0.014": 0.0,
			"-0.013": 0.0,
			"-0.012": 0.0,
			"-0.011": 0.0,
			"-0.01": 1.28709804345,
			"-0.009": 4.87145941678,
			"-0.008": 5.9852576661,
			"-0.007": 8.10507627831,
			"-0.006": 9.04886781662,
			"-0.005": 10.8645204911,
			"-0.004": 10.6602655864,
			"-0.003": 12.9805604416,
			"-0.002": 15.2524086302,
			"-0.001": 22.1006792934,
			"0.0": 26.6425683151,
			"0.001": 34.0815290794,
			"0.002": 39.7712238095,
			"0.003": 16.7816869157,
			"0.004": 16.4111168142,
			"0.005": 9.78576347353,
			"0.006": 1.28056044742,
			"0.007": 1.42864159866,
			"0.008": 1.99439089547,
			"0.009": 1.02486619291,
			"0.01": 2.09909441988,
			"0.011": 2.85579193815,
			"0.012": 2.19211763011,
			"0.013": 0.252494860012,
			"0.014": 0.0,
			"0.015": 0.0,
			"0.016": 0.0,
			"0.017": 0.0,
			"0.018": 0.0,
			"0.019": 0.0,
			"0.02": 0.0,
			"0.021": 0.0,
			"0.022": 0.0,
			"0.023": 0.0,
			"0.024": 0.0,
			"0.025": 0.0
		}
	}
}
