{
	 "smiles": "ClC1=CC(Cl)=C(OC(=O)C(=O)OC2=C(Cl)C=C(Cl)C=C2Cl)C(Cl)=C1", 
	 "Tm": 463.15, 
	 "num_atms": 28, 
	 "gaussian": { 
		 "optdone": 1, 
		 "sigma_profile": "yes", 
		 "theory": "DFT", 
		 "functional": "B3LYP", 
		 "basiset": "6-31G**", 
		 "properties": { 
			 "R2extent": 17527.0411, 
			 "electric_dipole_moment_norm": 0.0001, 
			 "electric_quadrupole_moment_norm": 14.3797636298, 
			 "total_energy": -3597.9200715, 
			 "HOMO_LUMO_gap": 0.17991, 
			 "cosmo_polarized_energy": -10.7, 
			 "cosmo_cavitation_energy": 47.56, 
			 "cosmo_dispersion_energy": -32.23, 
			 "cosmo_repulsion_energy": 2.49, 
			 "cosmo_total_nonelectrostatic_energy": 17.82, 
			 "SMD_solvation_energy": 8.45 
		},
		"coords": [
			{
				"x": -5.3017311083,
				"y": 6.1028783552,
				"z": 0.8716831206,
				"element": "Cl" 
			},
			{
				"x": -4.0189184965,
				"y": 4.9530525194,
				"z": 0.5652011792,
				"element": "C" 
			},
			{
				"x": -4.2440399243,
				"y": 3.9060859345,
				"z": -0.3262640042,
				"element": "C" 
			},
			{
				"x": -3.2158488993,
				"y": 2.9957742354,
				"z": -0.5640707942,
				"element": "C" 
			},
			{
				"x": -3.475151254,
				"y": 1.6814263334,
				"z": -1.678106556,
				"element": "Cl" 
			},
			{
				"x": -1.9780659836,
				"y": 3.127640571,
				"z": 0.0746429359,
				"element": "C" 
			},
			{
				"x": -0.9385785263,
				"y": 2.2662673936,
				"z": -0.2289306465,
				"element": "O" 
			},
			{
				"x": -0.8129423747,
				"y": 1.1446092824,
				"z": 0.5330699113,
				"element": "C" 
			},
			{
				"x": -1.5209167348,
				"y": 0.8300374332,
				"z": 1.4469712134,
				"element": "O" 
			},
			{
				"x": 0.3960667556,
				"y": 0.3421187283,
				"z": 0.0237969391,
				"element": "C" 
			},
			{
				"x": 1.1040253728,
				"y": 0.6566865543,
				"z": -0.8901194607,
				"element": "O" 
			},
			{
				"x": 0.5218466946,
				"y": -0.7794331922,
				"z": 0.7859358691,
				"element": "O" 
			},
			{
				"x": 1.5612530364,
				"y": -1.6408627827,
				"z": 0.4822490087,
				"element": "C" 
			},
			{
				"x": 1.3646780908,
				"y": -2.7013567873,
				"z": -0.4089256347,
				"element": "C" 
			},
			{
				"x": -0.1721303499,
				"y": -2.8802673749,
				"z": -1.2102268042,
				"element": "Cl" 
			},
			{
				"x": 2.3803391981,
				"y": -3.6220303611,
				"z": -0.6602641146,
				"element": "C" 
			},
			{
				"x": 3.6020135562,
				"y": -3.4663290599,
				"z": -0.0084840916,
				"element": "C" 
			},
			{
				"x": 4.8847874299,
				"y": -4.6161756918,
				"z": -0.3150579584,
				"element": "Cl" 
			},
			{
				"x": 3.8269537401,
				"y": -2.4198533604,
				"z": 0.883622311,
				"element": "C" 
			},
			{
				"x": 2.7988352988,
				"y": -1.5094949335,
				"z": 1.12150715,
				"element": "C" 
			},
			{
				"x": 3.0579108401,
				"y": -0.1957482472,
				"z": 2.2362633042,
				"element": "Cl" 
			},
			{
				"x": -1.7813030483,
				"y": 4.1886306484,
				"z": 0.9652230466,
				"element": "C" 
			},
			{
				"x": -0.244265839,
				"y": 4.3681345538,
				"z": 1.7658885259,
				"element": "Cl" 
			},
			{
				"x": -2.7970090129,
				"y": 5.1092743527,
				"z": 1.2164414172,
				"element": "C" 
			},
			{
				"x": -5.197289742,
				"y": 3.7949554011,
				"z": -0.8271079042,
				"element": "H" 
			},
			{
				"x": 2.2166354822,
				"y": -4.439398509,
				"z": -1.3509087464,
				"element": "H" 
			},
			{
				"x": 4.7800380906,
				"y": -2.309160042,
				"z": 1.3848788302,
				"element": "H" 
			},
			{
				"x": -2.6331922922,
				"y": 5.9270380452,
				"z": 1.9065919533,
				"element": "H" 
			}
		],
		 "valence_orbital": [ 
			{
				"type": "occ",
				"energy": -0.29889,
				"method": "rhf"
			},
			{
				"type": "occ",
				"energy": -0.27466,
				"method": "rhf"
			},
			{
				"type": "occ",
				"energy": -0.27464,
				"method": "rhf"
			},
			{
				"type": "occ",
				"energy": -0.27011,
				"method": "rhf"
			},
			{
				"type": "occ",
				"energy": -0.26779,
				"method": "rhf"
			},
			{
				"type": "unocc",
				"energy": -0.08788,
				"method": "rhf"
			},
			{
				"type": "unocc",
				"energy": -0.04901,
				"method": "rhf"
			},
			{
				"type": "unocc",
				"energy": -0.04889,
				"method": "rhf"
			},
			{
				"type": "unocc",
				"energy": -0.04629,
				"method": "rhf"
			},
			{
				"type": "unocc",
				"energy": -0.04466,
				"method": "rhf"
			}
		],
		"cosmo_sigma_profile": { 
			"-0.025": 0.0,
			"-0.024": 0.0,
			"-0.023": 0.0,
			"-0.022": 0.0,
			"-0.021": 0.0,
			"-0.02": 0.0,
			"-0.019": 0.0,
			"-0.018": 0.0,
			"-0.017": 0.0,
			"-0.016": 0.0,
			"-0.015": 0.0,
			"-0.014": 0.0,
			"-0.013": 0.0,
			"-0.012": 0.0,
			"-0.011": 0.0,
			"-0.01": 1.97246968309,
			"-0.009": 6.45730183809,
			"-0.008": 5.2547014645,
			"-0.007": 8.91107249636,
			"-0.006": 8.19276235309,
			"-0.005": 8.27476655692,
			"-0.004": 16.5690555335,
			"-0.003": 24.4590595216,
			"-0.002": 40.319307428,
			"-0.001": 60.1701656101,
			"0.0": 46.1915231064,
			"0.001": 37.047810661,
			"0.002": 40.8697270816,
			"0.003": 49.4439742979,
			"0.004": 13.7564067266,
			"0.005": 4.47754782276,
			"0.006": 4.25974829463,
			"0.007": 6.1172304035,
			"0.008": 8.7251089473,
			"0.009": 6.52258363963,
			"0.01": 0.68211629137,
			"0.011": 0.0,
			"0.012": 0.0,
			"0.013": 0.0,
			"0.014": 0.0,
			"0.015": 0.0,
			"0.016": 0.0,
			"0.017": 0.0,
			"0.018": 0.0,
			"0.019": 0.0,
			"0.02": 0.0,
			"0.021": 0.0,
			"0.022": 0.0,
			"0.023": 0.0,
			"0.024": 0.0,
			"0.025": 0.0
		}
	}
}
