{
	 "smiles": "OC(=O)C1=CC(=NN1C1=CC=CC=C1)C1=CC=CO1", 
	 "Tm": 433.15, 
	 "num_atms": 29, 
	 "gaussian": { 
		 "optdone": 1, 
		 "sigma_profile": "yes", 
		 "theory": "DFT", 
		 "functional": "B3LYP", 
		 "basiset": "6-31G**", 
		 "properties": { 
			 "R2extent": 5929.8619, 
			 "electric_dipole_moment_norm": 3.10461735162, 
			 "electric_quadrupole_moment_norm": 22.3574546883, 
			 "total_energy": -874.647066257, 
			 "HOMO_LUMO_gap": 0.15777, 
			 "cosmo_polarized_energy": -19.69, 
			 "cosmo_cavitation_energy": 35.0, 
			 "cosmo_dispersion_energy": -25.1, 
			 "cosmo_repulsion_energy": 1.91, 
			 "cosmo_total_nonelectrostatic_energy": 11.82, 
			 "SMD_solvation_energy": 7.09 
		},
		"coords": [
			{
				"x": -1.2367296608,
				"y": 0.3565324021,
				"z": -3.5652319797,
				"element": "O" 
			},
			{
				"x": -0.1713576421,
				"y": 0.2703978941,
				"z": -2.7235882923,
				"element": "C" 
			},
			{
				"x": 0.9229038324,
				"y": -0.0146373797,
				"z": -3.143882131,
				"element": "O" 
			},
			{
				"x": -0.4876117661,
				"y": 0.5997539421,
				"z": -1.3103185553,
				"element": "C" 
			},
			{
				"x": -1.451381201,
				"y": 1.4775940286,
				"z": -0.8359722776,
				"element": "C" 
			},
			{
				"x": -1.2188853596,
				"y": 1.5678746383,
				"z": 0.5561716357,
				"element": "C" 
			},
			{
				"x": -0.1914166883,
				"y": 0.7880430785,
				"z": 0.9165933295,
				"element": "N" 
			},
			{
				"x": 0.2529471301,
				"y": 0.2108884417,
				"z": -0.2192520032,
				"element": "N" 
			},
			{
				"x": 1.3416808278,
				"y": -0.7125762304,
				"z": -0.1241149748,
				"element": "C" 
			},
			{
				"x": 2.4062677714,
				"y": -0.3950094639,
				"z": 0.7230633859,
				"element": "C" 
			},
			{
				"x": 3.4619010948,
				"y": -1.2942560373,
				"z": 0.8600482042,
				"element": "C" 
			},
			{
				"x": 3.4584957603,
				"y": -2.4988916519,
				"z": 0.1540335309,
				"element": "C" 
			},
			{
				"x": 2.3860571985,
				"y": -2.8079647242,
				"z": -0.6845476995,
				"element": "C" 
			},
			{
				"x": 1.3188672798,
				"y": -1.921994261,
				"z": -0.8209409714,
				"element": "C" 
			},
			{
				"x": -1.9498337369,
				"y": 2.3664198987,
				"z": 1.52082817,
				"element": "C" 
			},
			{
				"x": -3.0397530703,
				"y": 3.1898652785,
				"z": 1.4016445593,
				"element": "C" 
			},
			{
				"x": -3.302408866,
				"y": 3.7067945609,
				"z": 2.7082621073,
				"element": "C" 
			},
			{
				"x": -2.3573532713,
				"y": 3.1621705198,
				"z": 3.5249661757,
				"element": "C" 
			},
			{
				"x": -1.5276448093,
				"y": 2.3460130661,
				"z": 2.8200916239,
				"element": "O" 
			},
			{
				"x": -2.0535672379,
				"y": 0.4508485639,
				"z": -3.0544178644,
				"element": "H" 
			},
			{
				"x": -2.1716600847,
				"y": 2.0328643833,
				"z": -1.4196184402,
				"element": "H" 
			},
			{
				"x": 2.3897462333,
				"y": 0.5428778052,
				"z": 1.2654471835,
				"element": "H" 
			},
			{
				"x": 4.2907521488,
				"y": -1.048330537,
				"z": 1.5169282794,
				"element": "H" 
			},
			{
				"x": 4.2850989834,
				"y": -3.1950300222,
				"z": 0.2593469362,
				"element": "H" 
			},
			{
				"x": 2.3715485528,
				"y": -3.7466839354,
				"z": -1.2297129014,
				"element": "H" 
			},
			{
				"x": 0.4786051508,
				"y": -2.1729307312,
				"z": -1.4573059793,
				"element": "H" 
			},
			{
				"x": -3.5887792459,
				"y": 3.4013658622,
				"z": 0.4953026428,
				"element": "H" 
			},
			{
				"x": -4.0881917225,
				"y": 4.3897430841,
				"z": 2.9966578304,
				"element": "H" 
			},
			{
				"x": -2.1458976016,
				"y": 3.2472575262,
				"z": 4.5794184756,
				"element": "H" 
			}
		],
		 "valence_orbital": [ 
			{
				"type": "occ",
				"energy": -0.28293,
				"method": "rhf"
			},
			{
				"type": "occ",
				"energy": -0.27442,
				"method": "rhf"
			},
			{
				"type": "occ",
				"energy": -0.25637,
				"method": "rhf"
			},
			{
				"type": "occ",
				"energy": -0.24997,
				"method": "rhf"
			},
			{
				"type": "occ",
				"energy": -0.21235,
				"method": "rhf"
			},
			{
				"type": "unocc",
				"energy": -0.05458,
				"method": "rhf"
			},
			{
				"type": "unocc",
				"energy": -0.0241,
				"method": "rhf"
			},
			{
				"type": "unocc",
				"energy": -0.00702,
				"method": "rhf"
			},
			{
				"type": "unocc",
				"energy": -0.00115,
				"method": "rhf"
			},
			{
				"type": "unocc",
				"energy": 0.04755,
				"method": "rhf"
			}
		],
		"cosmo_sigma_profile": { 
			"-0.025": 0.0,
			"-0.024": 0.0,
			"-0.023": 0.0,
			"-0.022": 0.0,
			"-0.021": 0.0,
			"-0.02": 0.0,
			"-0.019": 0.228140753247,
			"-0.018": 1.18323240378,
			"-0.017": 0.601920317944,
			"-0.016": 1.52031081992,
			"-0.015": 0.800418933119,
			"-0.014": 0.965204260402,
			"-0.013": 1.27296836311,
			"-0.012": 1.60647335792,
			"-0.011": 1.36608078066,
			"-0.01": 1.66210274872,
			"-0.009": 3.73618191143,
			"-0.008": 8.05802367746,
			"-0.007": 11.2531049102,
			"-0.006": 15.7119968909,
			"-0.005": 16.3035927833,
			"-0.004": 17.9795493333,
			"-0.003": 14.312627577,
			"-0.002": 14.1071021075,
			"-0.001": 15.9357195029,
			"0.0": 14.9086716376,
			"0.001": 19.6500073928,
			"0.002": 23.1662875113,
			"0.003": 18.3681081549,
			"0.004": 21.8478903127,
			"0.005": 13.5149089825,
			"0.006": 5.72493801494,
			"0.007": 5.40324808442,
			"0.008": 5.46000257541,
			"0.009": 6.55150374656,
			"0.01": 6.89263270471,
			"0.011": 7.37082055117,
			"0.012": 3.59471128741,
			"0.013": 1.02432111746,
			"0.014": 0.330312397425,
			"0.015": 0.0,
			"0.016": 0.0,
			"0.017": 0.0,
			"0.018": 0.0,
			"0.019": 0.0,
			"0.02": 0.0,
			"0.021": 0.0,
			"0.022": 0.0,
			"0.023": 0.0,
			"0.024": 0.0,
			"0.025": 0.0
		}
	}
}
