{
	 "smiles": "CNC1=C(Cl)C(=O)N(N=C1)C1=CC(=CC=C1)C(F)(F)F", 
	 "Tm": 457.15, 
	 "num_atms": 29, 
	 "gaussian": { 
		 "optdone": 1, 
		 "sigma_profile": "yes", 
		 "theory": "DFT", 
		 "functional": "B3LYP", 
		 "basiset": "6-31G**", 
		 "properties": { 
			 "R2extent": 7933.7301, 
			 "electric_dipole_moment_norm": 7.9372303444, 
			 "electric_quadrupole_moment_norm": 22.2521836915, 
			 "total_energy": -1461.86551452, 
			 "HOMO_LUMO_gap": 0.16337, 
			 "cosmo_polarized_energy": -18.1, 
			 "cosmo_cavitation_energy": 36.76, 
			 "cosmo_dispersion_energy": -26.39, 
			 "cosmo_repulsion_energy": 1.94, 
			 "cosmo_total_nonelectrostatic_energy": 12.31, 
			 "SMD_solvation_energy": 6.84 
		},
		"coords": [
			{
				"x": 1.5943299534,
				"y": 5.3568508855,
				"z": 1.5273074073,
				"element": "C" 
			},
			{
				"x": 1.1069980953,
				"y": 4.7540531273,
				"z": 0.2901823105,
				"element": "N" 
			},
			{
				"x": 0.7753018509,
				"y": 3.4503674526,
				"z": 0.0489759386,
				"element": "C" 
			},
			{
				"x": 0.5078596511,
				"y": 2.4312967856,
				"z": 0.9414894525,
				"element": "C" 
			},
			{
				"x": 0.4971101163,
				"y": 2.6352249797,
				"z": 2.6738242925,
				"element": "Cl" 
			},
			{
				"x": 0.1660503904,
				"y": 1.0839048169,
				"z": 0.5061163688,
				"element": "C" 
			},
			{
				"x": -0.0869784114,
				"y": 0.1526153276,
				"z": 1.2570963334,
				"element": "O" 
			},
			{
				"x": 0.1408704991,
				"y": 0.9156133199,
				"z": -0.9123814589,
				"element": "N" 
			},
			{
				"x": 0.3626845037,
				"y": 1.9072031306,
				"z": -1.7941586843,
				"element": "N" 
			},
			{
				"x": 0.6596863755,
				"y": 3.0845039782,
				"z": -1.3463761498,
				"element": "C" 
			},
			{
				"x": -0.2251483123,
				"y": -0.3407364384,
				"z": -1.5075346981,
				"element": "C" 
			},
			{
				"x": 0.1918703104,
				"y": -1.5534276039,
				"z": -0.9506569489,
				"element": "C" 
			},
			{
				"x": -0.1554534611,
				"y": -2.7466831816,
				"z": -1.5847657766,
				"element": "C" 
			},
			{
				"x": -0.9065185527,
				"y": -2.7455454101,
				"z": -2.7625829703,
				"element": "C" 
			},
			{
				"x": -1.3132120036,
				"y": -1.5300128496,
				"z": -3.3087420428,
				"element": "C" 
			},
			{
				"x": -0.9798117948,
				"y": -0.3294502783,
				"z": -2.6855066647,
				"element": "C" 
			},
			{
				"x": 0.2461137916,
				"y": -4.0580265427,
				"z": -0.9622930796,
				"element": "C" 
			},
			{
				"x": 1.3679852906,
				"y": -3.9450122348,
				"z": -0.2194590957,
				"element": "F" 
			},
			{
				"x": -0.7202218083,
				"y": -4.5416390574,
				"z": -0.1491541861,
				"element": "F" 
			},
			{
				"x": 0.4747638108,
				"y": -5.00525546,
				"z": -1.9016032137,
				"element": "F" 
			},
			{
				"x": 1.8936605384,
				"y": 6.3807148049,
				"z": 1.2934693825,
				"element": "H" 
			},
			{
				"x": 0.8184989775,
				"y": 5.3923033385,
				"z": 2.2932083085,
				"element": "H" 
			},
			{
				"x": 2.4615658017,
				"y": 4.8257686808,
				"z": 1.9328741356,
				"element": "H" 
			},
			{
				"x": 1.3094079692,
				"y": 5.2821952579,
				"z": -0.5444338457,
				"element": "H" 
			},
			{
				"x": 0.8386363039,
				"y": 3.839047433,
				"z": -2.1098168497,
				"element": "H" 
			},
			{
				"x": 0.7690315008,
				"y": -1.5686029628,
				"z": -0.0383690334,
				"element": "H" 
			},
			{
				"x": -1.1605321198,
				"y": -3.6828876688,
				"z": -3.244913748,
				"element": "H" 
			},
			{
				"x": -1.8959888954,
				"y": -1.5139418177,
				"z": -4.2244182381,
				"element": "H" 
			},
			{
				"x": -1.2869603712,
				"y": 0.618958187,
				"z": -3.108977246,
				"element": "H" 
			}
		],
		 "valence_orbital": [ 
			{
				"type": "occ",
				"energy": -0.28743,
				"method": "rhf"
			},
			{
				"type": "occ",
				"energy": -0.26711,
				"method": "rhf"
			},
			{
				"type": "occ",
				"energy": -0.25613,
				"method": "rhf"
			},
			{
				"type": "occ",
				"energy": -0.2367,
				"method": "rhf"
			},
			{
				"type": "occ",
				"energy": -0.22684,
				"method": "rhf"
			},
			{
				"type": "unocc",
				"energy": -0.06347,
				"method": "rhf"
			},
			{
				"type": "unocc",
				"energy": -0.02225,
				"method": "rhf"
			},
			{
				"type": "unocc",
				"energy": -0.0146,
				"method": "rhf"
			},
			{
				"type": "unocc",
				"energy": 0.00295,
				"method": "rhf"
			},
			{
				"type": "unocc",
				"energy": 0.02784,
				"method": "rhf"
			}
		],
		"cosmo_sigma_profile": { 
			"-0.025": 0.0,
			"-0.024": 0.0,
			"-0.023": 0.0,
			"-0.022": 0.0,
			"-0.021": 0.0,
			"-0.02": 0.0,
			"-0.019": 0.0,
			"-0.018": 0.0,
			"-0.017": 0.0,
			"-0.016": 0.491457632214,
			"-0.015": 2.29974965818,
			"-0.014": 1.26764202008,
			"-0.013": 1.76299253681,
			"-0.012": 1.45370796628,
			"-0.011": 1.83661106706,
			"-0.01": 1.94478763209,
			"-0.009": 1.96797830752,
			"-0.008": 2.22880766493,
			"-0.007": 7.47286436882,
			"-0.006": 9.06065488414,
			"-0.005": 13.1203645649,
			"-0.004": 16.2079540571,
			"-0.003": 21.7498507249,
			"-0.002": 25.6349810272,
			"-0.001": 21.7407825425,
			"0.0": 21.4024199597,
			"0.001": 23.8556351906,
			"0.002": 36.0985432233,
			"0.003": 43.4157689439,
			"0.004": 10.4585342224,
			"0.005": 6.43666358323,
			"0.006": 3.74959910588,
			"0.007": 3.12518163742,
			"0.008": 2.77815570399,
			"0.009": 2.59988960564,
			"0.01": 2.54190182211,
			"0.011": 1.73180536,
			"0.012": 2.95552959978,
			"0.013": 3.64343840008,
			"0.014": 2.10805698141,
			"0.015": 0.15207091689,
			"0.016": 0.0,
			"0.017": 0.0,
			"0.018": 0.0,
			"0.019": 0.0,
			"0.02": 0.0,
			"0.021": 0.0,
			"0.022": 0.0,
			"0.023": 0.0,
			"0.024": 0.0,
			"0.025": 0.0
		}
	}
}
