{
	 "smiles": "C[Si](C)(C)NC(=O)N[Si](C)(C)C", 
	 "Tm": 505.15, 
	 "num_atms": 32, 
	 "gaussian": { 
		 "optdone": 1, 
		 "sigma_profile": "yes", 
		 "theory": "DFT", 
		 "functional": "B3LYP", 
		 "basiset": "6-31G**", 
		 "properties": { 
			 "R2extent": 4140.7491, 
			 "electric_dipole_moment_norm": 3.73466959717, 
			 "electric_quadrupole_moment_norm": 11.1443159557, 
			 "total_energy": -1042.68814802, 
			 "HOMO_LUMO_gap": 0.29253, 
			 "cosmo_polarized_energy": -11.62, 
			 "cosmo_cavitation_energy": 36.88, 
			 "cosmo_dispersion_energy": -20.74, 
			 "cosmo_repulsion_energy": 1.91, 
			 "cosmo_total_nonelectrostatic_energy": 18.05, 
			 "SMD_solvation_energy": 10.36 
		},
		"coords": [
			{
				"x": -1.6451745769,
				"y": 1.7852425664,
				"z": -1.3498783025,
				"element": "C" 
			},
			{
				"x": -0.0251335606,
				"y": 0.8300009083,
				"z": -1.4102577108,
				"element": "Si" 
			},
			{
				"x": 1.4342671169,
				"y": 1.9649279781,
				"z": -1.0115464477,
				"element": "C" 
			},
			{
				"x": 0.2153162544,
				"y": 0.0012819595,
				"z": -3.0824414613,
				"element": "C" 
			},
			{
				"x": 0.0262325371,
				"y": -0.3845004362,
				"z": -0.104204596,
				"element": "N" 
			},
			{
				"x": -0.8926802716,
				"y": -1.4131051123,
				"z": -0.0295517336,
				"element": "C" 
			},
			{
				"x": -1.7867348827,
				"y": -1.5308947674,
				"z": -0.8674575178,
				"element": "O" 
			},
			{
				"x": -0.768217487,
				"y": -2.3087448468,
				"z": 1.0276941735,
				"element": "N" 
			},
			{
				"x": 0.3544148234,
				"y": -2.456508126,
				"z": 2.3898460098,
				"element": "Si" 
			},
			{
				"x": 0.2666669876,
				"y": -0.9236421258,
				"z": 3.4895985256,
				"element": "C" 
			},
			{
				"x": 2.120907069,
				"y": -2.7026263176,
				"z": 1.7685826962,
				"element": "C" 
			},
			{
				"x": -0.2306465098,
				"y": -3.9788102041,
				"z": 3.3326383958,
				"element": "C" 
			},
			{
				"x": -2.4851871597,
				"y": 1.0924864661,
				"z": -1.4487894811,
				"element": "H" 
			},
			{
				"x": -1.7562192543,
				"y": 2.3229136464,
				"z": -0.4020685728,
				"element": "H" 
			},
			{
				"x": -1.7044440694,
				"y": 2.5189963664,
				"z": -2.161917719,
				"element": "H" 
			},
			{
				"x": 2.3869125968,
				"y": 1.4232211745,
				"z": -1.0194357596,
				"element": "H" 
			},
			{
				"x": 1.5103668858,
				"y": 2.7657447716,
				"z": -1.7554496494,
				"element": "H" 
			},
			{
				"x": 1.3243807749,
				"y": 2.4421817509,
				"z": -0.031144731,
				"element": "H" 
			},
			{
				"x": 1.1881423092,
				"y": -0.4982902834,
				"z": -3.1440886351,
				"element": "H" 
			},
			{
				"x": -0.5637414663,
				"y": -0.7501656285,
				"z": -3.236547198,
				"element": "H" 
			},
			{
				"x": 0.159089223,
				"y": 0.7302319382,
				"z": -3.8990102458,
				"element": "H" 
			},
			{
				"x": 0.7415667049,
				"y": -0.3325183818,
				"z": 0.6077469529,
				"element": "H" 
			},
			{
				"x": -1.5041184901,
				"y": -3.0014809762,
				"z": 0.9522786108,
				"element": "H" 
			},
			{
				"x": 0.9661153643,
				"y": -1.0055897344,
				"z": 4.3294837466,
				"element": "H" 
			},
			{
				"x": -0.7407299358,
				"y": -0.8020897016,
				"z": 3.9012508157,
				"element": "H" 
			},
			{
				"x": 0.5096872946,
				"y": -0.0014753034,
				"z": 2.9508153942,
				"element": "H" 
			},
			{
				"x": 2.1962646156,
				"y": -3.6200899711,
				"z": 1.175568426,
				"element": "H" 
			},
			{
				"x": 2.821337833,
				"y": -2.7853656508,
				"z": 2.6075684964,
				"element": "H" 
			},
			{
				"x": 2.4660406677,
				"y": -1.8784276244,
				"z": 1.1350708581,
				"element": "H" 
			},
			{
				"x": -0.1939532354,
				"y": -4.8778321486,
				"z": 2.708069712,
				"element": "H" 
			},
			{
				"x": 0.404934961,
				"y": -4.1596320618,
				"z": 4.2063082866,
				"element": "H" 
			},
			{
				"x": -1.2579631198,
				"y": -3.858840124,
				"z": 3.6930686611,
				"element": "H" 
			}
		],
		 "valence_orbital": [ 
			{
				"type": "occ",
				"energy": -0.2989,
				"method": "rhf"
			},
			{
				"type": "occ",
				"energy": -0.29389,
				"method": "rhf"
			},
			{
				"type": "occ",
				"energy": -0.24993,
				"method": "rhf"
			},
			{
				"type": "occ",
				"energy": -0.24614,
				"method": "rhf"
			},
			{
				"type": "occ",
				"energy": -0.24554,
				"method": "rhf"
			},
			{
				"type": "unocc",
				"energy": 0.04699,
				"method": "rhf"
			},
			{
				"type": "unocc",
				"energy": 0.05088,
				"method": "rhf"
			},
			{
				"type": "unocc",
				"energy": 0.07123,
				"method": "rhf"
			},
			{
				"type": "unocc",
				"energy": 0.07908,
				"method": "rhf"
			},
			{
				"type": "unocc",
				"energy": 0.08444,
				"method": "rhf"
			}
		],
		"cosmo_sigma_profile": { 
			"-0.025": 0.0,
			"-0.024": 0.0,
			"-0.023": 0.0,
			"-0.022": 0.0,
			"-0.021": 0.0,
			"-0.02": 0.0,
			"-0.019": 0.0,
			"-0.018": 0.0,
			"-0.017": 0.0,
			"-0.016": 0.0,
			"-0.015": 0.0,
			"-0.014": 0.0,
			"-0.013": 0.0,
			"-0.012": 0.394343687449,
			"-0.011": 1.57327017791,
			"-0.01": 1.95162914681,
			"-0.009": 2.01375397057,
			"-0.008": 2.13460125591,
			"-0.007": 2.28943120585,
			"-0.006": 3.24628726227,
			"-0.005": 3.31434062515,
			"-0.004": 18.4663795232,
			"-0.003": 35.5967071516,
			"-0.002": 33.9108555725,
			"-0.001": 31.5248683525,
			"0.0": 30.809562792,
			"0.001": 41.1288334796,
			"0.002": 24.4359726597,
			"0.003": 14.169415686,
			"0.004": 8.36903414573,
			"0.005": 4.25387537604,
			"0.006": 2.24180048488,
			"0.007": 2.12138956185,
			"0.008": 1.61332315251,
			"0.009": 2.04098354901,
			"0.01": 2.03786643624,
			"0.011": 1.0451440853,
			"0.012": 1.29484936549,
			"0.013": 2.02757139999,
			"0.014": 2.43069847189,
			"0.015": 3.07947896209,
			"0.016": 0.442387655891,
			"0.017": 0.0,
			"0.018": 0.0,
			"0.019": 0.0,
			"0.02": 0.0,
			"0.021": 0.0,
			"0.022": 0.0,
			"0.023": 0.0,
			"0.024": 0.0,
			"0.025": 0.0
		}
	}
}
