{
	 "smiles": "CC(=O)OC1=CC=C(C=C1[N+]([O-])=O)[N+]([O-])=O", 
	 "Tm": 345.15, 
	 "num_atms": 22, 
	 "gaussian": { 
		 "optdone": 1, 
		 "sigma_profile": "yes", 
		 "theory": "DFT", 
		 "functional": "B3LYP", 
		 "basiset": "6-31G**", 
		 "properties": { 
			 "R2extent": 5311.8083, 
			 "electric_dipole_moment_norm": 5.48252816135, 
			 "electric_quadrupole_moment_norm": 10.6336924081, 
			 "total_energy": -869.107609831, 
			 "HOMO_LUMO_gap": 0.1811, 
			 "cosmo_polarized_energy": -14.0, 
			 "cosmo_cavitation_energy": 29.03, 
			 "cosmo_dispersion_energy": -20.56, 
			 "cosmo_repulsion_energy": 1.6, 
			 "cosmo_total_nonelectrostatic_energy": 10.06, 
			 "SMD_solvation_energy": 10.58 
		},
		"coords": [
			{
				"x": -0.4563406196,
				"y": -2.2391718652,
				"z": -1.1364352497,
				"element": "C" 
			},
			{
				"x": 0.0082532194,
				"y": -0.8400668324,
				"z": -0.8642208896,
				"element": "C" 
			},
			{
				"x": 0.6502027961,
				"y": -0.1210286093,
				"z": -1.5787512469,
				"element": "O" 
			},
			{
				"x": -0.4299439585,
				"y": -0.4381360526,
				"z": 0.3999207975,
				"element": "O" 
			},
			{
				"x": 0.0417623741,
				"y": 0.7346816325,
				"z": 0.92279411,
				"element": "C" 
			},
			{
				"x": -0.9162684729,
				"y": 1.6948758729,
				"z": 1.2638939155,
				"element": "C" 
			},
			{
				"x": -0.5469340527,
				"y": 2.902063849,
				"z": 1.8416844106,
				"element": "C" 
			},
			{
				"x": 0.8069639317,
				"y": 3.1520001018,
				"z": 2.0610589762,
				"element": "C" 
			},
			{
				"x": 1.7859551862,
				"y": 2.2259461255,
				"z": 1.7315887152,
				"element": "C" 
			},
			{
				"x": 1.4010912414,
				"y": 1.0104633206,
				"z": 1.1730511023,
				"element": "C" 
			},
			{
				"x": 2.4754603221,
				"y": 0.0340068867,
				"z": 0.9176223296,
				"element": "N" 
			},
			{
				"x": 3.6228331312,
				"y": 0.4652512683,
				"z": 0.8697481904,
				"element": "O" 
			},
			{
				"x": 2.1641841284,
				"y": -1.1508004745,
				"z": 0.8069413631,
				"element": "O" 
			},
			{
				"x": 1.2134377705,
				"y": 4.4321979319,
				"z": 2.6641249712,
				"element": "N" 
			},
			{
				"x": 0.3205684813,
				"y": 5.2299851313,
				"z": 2.9441408522,
				"element": "O" 
			},
			{
				"x": 2.4138557402,
				"y": 4.6171343948,
				"z": 2.8475993043,
				"element": "O" 
			},
			{
				"x": 0.1387985151,
				"y": -2.922819037,
				"z": -0.5225210051,
				"element": "H" 
			},
			{
				"x": -0.308507584,
				"y": -2.4709794191,
				"z": -2.1904755822,
				"element": "H" 
			},
			{
				"x": -1.504905091,
				"y": -2.3634536079,
				"z": -0.855960564,
				"element": "H" 
			},
			{
				"x": -1.9563652979,
				"y": 1.4673104641,
				"z": 1.0599653741,
				"element": "H" 
			},
			{
				"x": -1.2798074747,
				"y": 3.6514541644,
				"z": 2.1129678837,
				"element": "H" 
			},
			{
				"x": 2.8322057136,
				"y": 2.4350847543,
				"z": 1.9087622415,
				"element": "H" 
			}
		],
		 "valence_orbital": [ 
			{
				"type": "occ",
				"energy": -0.31755,
				"method": "rhf"
			},
			{
				"type": "occ",
				"energy": -0.30932,
				"method": "rhf"
			},
			{
				"type": "occ",
				"energy": -0.3081,
				"method": "rhf"
			},
			{
				"type": "occ",
				"energy": -0.30294,
				"method": "rhf"
			},
			{
				"type": "occ",
				"energy": -0.29466,
				"method": "rhf"
			},
			{
				"type": "unocc",
				"energy": -0.11356,
				"method": "rhf"
			},
			{
				"type": "unocc",
				"energy": -0.1033,
				"method": "rhf"
			},
			{
				"type": "unocc",
				"energy": -0.04206,
				"method": "rhf"
			},
			{
				"type": "unocc",
				"energy": -0.01901,
				"method": "rhf"
			},
			{
				"type": "unocc",
				"energy": -0.00904,
				"method": "rhf"
			}
		],
		"cosmo_sigma_profile": { 
			"-0.025": 0.0,
			"-0.024": 0.0,
			"-0.023": 0.0,
			"-0.022": 0.0,
			"-0.021": 0.0,
			"-0.02": 0.0,
			"-0.019": 0.0,
			"-0.018": 0.0,
			"-0.017": 0.0,
			"-0.016": 0.0,
			"-0.015": 0.0,
			"-0.014": 0.0,
			"-0.013": 0.0,
			"-0.012": 0.0,
			"-0.011": 0.0,
			"-0.01": 1.02847632148,
			"-0.009": 4.16117092807,
			"-0.008": 6.25325588935,
			"-0.007": 10.2663040065,
			"-0.006": 13.2400616775,
			"-0.005": 16.3058401106,
			"-0.004": 20.7836364306,
			"-0.003": 24.9211501807,
			"-0.002": 20.0746812732,
			"-0.001": 12.6969779002,
			"0.0": 8.30712245531,
			"0.001": 7.63176679571,
			"0.002": 7.03797461057,
			"0.003": 7.95954931782,
			"0.004": 8.30355869965,
			"0.005": 10.4607095613,
			"0.006": 14.2894738329,
			"0.007": 15.649112112,
			"0.008": 10.6515994271,
			"0.009": 7.7279892171,
			"0.01": 4.39979824594,
			"0.011": 1.21090294753,
			"0.012": 0.0,
			"0.013": 0.0,
			"0.014": 0.0,
			"0.015": 0.0,
			"0.016": 0.0,
			"0.017": 0.0,
			"0.018": 0.0,
			"0.019": 0.0,
			"0.02": 0.0,
			"0.021": 0.0,
			"0.022": 0.0,
			"0.023": 0.0,
			"0.024": 0.0,
			"0.025": 0.0
		}
	}
}
