{
	 "smiles": "CN1CCCC1", 
	 "Tm": 183.15, 
	 "num_atms": 17, 
	 "gaussian": { 
		 "optdone": 1, 
		 "sigma_profile": "yes", 
		 "theory": "DFT", 
		 "functional": "B3LYP", 
		 "basiset": "6-31G**", 
		 "properties": { 
			 "R2extent": 1031.5689, 
			 "electric_dipole_moment_norm": 0.951980561776, 
			 "electric_quadrupole_moment_norm": 4.97442143168, 
			 "total_energy": -251.899704413, 
			 "HOMO_LUMO_gap": 0.28023, 
			 "cosmo_polarized_energy": -2.96, 
			 "cosmo_cavitation_energy": 17.81, 
			 "cosmo_dispersion_energy": -13.73, 
			 "cosmo_repulsion_energy": 1.17, 
			 "cosmo_total_nonelectrostatic_energy": 5.26, 
			 "SMD_solvation_energy": -0.5 
		},
		"coords": [
			{
				"x": 0.0661390568,
				"y": -1.4351008947,
				"z": -2.6632984907,
				"element": "C" 
			},
			{
				"x": 1.132213727,
				"y": -0.4913533843,
				"z": -2.3273957941,
				"element": "N" 
			},
			{
				"x": 1.7069798798,
				"y": -0.7345668121,
				"z": -0.9959688626,
				"element": "C" 
			},
			{
				"x": 0.786404101,
				"y": -0.0208667639,
				"z": 0.0359999184,
				"element": "C" 
			},
			{
				"x": 0.0740192912,
				"y": 1.079578612,
				"z": -0.7982181506,
				"element": "C" 
			},
			{
				"x": 0.6528217147,
				"y": 0.8954134473,
				"z": -2.2309655816,
				"element": "C" 
			},
			{
				"x": -0.7845366363,
				"y": -1.4498806194,
				"z": -1.9571824933,
				"element": "H" 
			},
			{
				"x": 0.480113409,
				"y": -2.447493819,
				"z": -2.7072550385,
				"element": "H" 
			},
			{
				"x": -0.328976527,
				"y": -1.1959029859,
				"z": -3.6557272036,
				"element": "H" 
			},
			{
				"x": 2.7094392332,
				"y": -0.288283967,
				"z": -0.9683356483,
				"element": "H" 
			},
			{
				"x": 1.8206204411,
				"y": -1.8070076358,
				"z": -0.8131787687,
				"element": "H" 
			},
			{
				"x": 0.0594946274,
				"y": -0.7187570113,
				"z": 0.462794423,
				"element": "H" 
			},
			{
				"x": 1.3612354419,
				"y": 0.3908990241,
				"z": 0.8709388432,
				"element": "H" 
			},
			{
				"x": 0.2629994819,
				"y": 2.0864703165,
				"z": -0.4140851917,
				"element": "H" 
			},
			{
				"x": -1.0105662429,
				"y": 0.9338120473,
				"z": -0.7908676019,
				"element": "H" 
			},
			{
				"x": -0.0672180297,
				"y": 1.1124299135,
				"z": -3.0252689888,
				"element": "H" 
			},
			{
				"x": 1.5105170309,
				"y": 1.5656105327,
				"z": -2.3725853701,
				"element": "H" 
			}
		],
		 "valence_orbital": [ 
			{
				"type": "occ",
				"energy": -0.34222,
				"method": "rhf"
			},
			{
				"type": "occ",
				"energy": -0.3354,
				"method": "rhf"
			},
			{
				"type": "occ",
				"energy": -0.3322,
				"method": "rhf"
			},
			{
				"type": "occ",
				"energy": -0.31401,
				"method": "rhf"
			},
			{
				"type": "occ",
				"energy": -0.20556,
				"method": "rhf"
			},
			{
				"type": "unocc",
				"energy": 0.07467,
				"method": "rhf"
			},
			{
				"type": "unocc",
				"energy": 0.1055,
				"method": "rhf"
			},
			{
				"type": "unocc",
				"energy": 0.13245,
				"method": "rhf"
			},
			{
				"type": "unocc",
				"energy": 0.14036,
				"method": "rhf"
			},
			{
				"type": "unocc",
				"energy": 0.15507,
				"method": "rhf"
			}
		],
		"cosmo_sigma_profile": { 
			"-0.025": 0.0,
			"-0.024": 0.0,
			"-0.023": 0.0,
			"-0.022": 0.0,
			"-0.021": 0.0,
			"-0.02": 0.0,
			"-0.019": 0.0,
			"-0.018": 0.0,
			"-0.017": 0.0,
			"-0.016": 0.0,
			"-0.015": 0.0,
			"-0.014": 0.0,
			"-0.013": 0.0,
			"-0.012": 0.0,
			"-0.011": 0.0,
			"-0.01": 0.0,
			"-0.009": 0.0,
			"-0.008": 0.0,
			"-0.007": 0.0,
			"-0.006": 0.0,
			"-0.005": 0.0,
			"-0.004": 2.90805904939,
			"-0.003": 15.0594959112,
			"-0.002": 28.2794878646,
			"-0.001": 30.3826087202,
			"0.0": 27.023693134,
			"0.001": 14.121258737,
			"0.002": 5.76836440606,
			"0.003": 2.17379022192,
			"0.004": 1.60686516257,
			"0.005": 0.772027449789,
			"0.006": 0.692864209498,
			"0.007": 1.45606019566,
			"0.008": 0.882609644628,
			"0.009": 0.541408573141,
			"0.01": 0.992296965656,
			"0.011": 0.53330500981,
			"0.012": 0.844800736309,
			"0.013": 0.72235155891,
			"0.014": 0.122673608545,
			"0.015": 0.421153901831,
			"0.016": 0.966134020271,
			"0.017": 0.466016984294,
			"0.018": 0.372209582417,
			"0.019": 0.0896088744182,
			"0.02": 0.0,
			"0.021": 0.0,
			"0.022": 0.0,
			"0.023": 0.0,
			"0.024": 0.0,
			"0.025": 0.0
		}
	}
}
