{
	 "smiles": "COC1=C(O)C=C2CCNCC2=C1", 
	 "Tm": 495.15, 
	 "num_atms": 26, 
	 "gaussian": { 
		 "optdone": 1, 
		 "sigma_profile": "yes", 
		 "theory": "DFT", 
		 "functional": "B3LYP", 
		 "basiset": "6-31G**", 
		 "properties": { 
			 "R2extent": 2895.0861, 
			 "electric_dipole_moment_norm": 2.2876118683, 
			 "electric_quadrupole_moment_norm": 14.7773109983, 
			 "total_energy": -594.082417174, 
			 "HOMO_LUMO_gap": 0.20459, 
			 "cosmo_polarized_energy": -10.0, 
			 "cosmo_cavitation_energy": 27.81, 
			 "cosmo_dispersion_energy": -21.07, 
			 "cosmo_repulsion_energy": 1.67, 
			 "cosmo_total_nonelectrostatic_energy": 8.4, 
			 "SMD_solvation_energy": 2.42 
		},
		"coords": [
			{
				"x": 3.0189555634,
				"y": -0.0239547161,
				"z": 2.8547528469,
				"element": "C" 
			},
			{
				"x": 1.6603713376,
				"y": 0.3067377709,
				"z": 3.0908464837,
				"element": "O" 
			},
			{
				"x": 0.7920236089,
				"y": 0.2816343765,
				"z": 2.0225506915,
				"element": "C" 
			},
			{
				"x": -0.5306530212,
				"y": 0.6389438694,
				"z": 2.3582942511,
				"element": "C" 
			},
			{
				"x": -0.8454303476,
				"y": 0.970612584,
				"z": 3.6429479856,
				"element": "O" 
			},
			{
				"x": -1.5044166764,
				"y": 0.6492250151,
				"z": 1.3706039696,
				"element": "C" 
			},
			{
				"x": -1.1948104232,
				"y": 0.3113665188,
				"z": 0.0430406174,
				"element": "C" 
			},
			{
				"x": -2.2844444479,
				"y": 0.3120094717,
				"z": -1.0149882689,
				"element": "C" 
			},
			{
				"x": -1.7060536038,
				"y": 0.2960553122,
				"z": -2.4388058718,
				"element": "C" 
			},
			{
				"x": -0.6294936236,
				"y": -0.6830791533,
				"z": -2.610892449,
				"element": "N" 
			},
			{
				"x": 0.4952638159,
				"y": -0.3856470336,
				"z": -1.7232365128,
				"element": "C" 
			},
			{
				"x": 0.1183097148,
				"y": -0.0462259744,
				"z": -0.2858568776,
				"element": "C" 
			},
			{
				"x": 1.1077203832,
				"y": -0.0550181544,
				"z": 0.7130257221,
				"element": "C" 
			},
			{
				"x": 3.4800084112,
				"y": 0.6664685543,
				"z": 2.1370668094,
				"element": "H" 
			},
			{
				"x": 3.5272769787,
				"y": 0.0624942937,
				"z": 3.8164087826,
				"element": "H" 
			},
			{
				"x": 3.1219621409,
				"y": -1.0507844884,
				"z": 2.4814155719,
				"element": "H" 
			},
			{
				"x": -0.0275819089,
				"y": 0.9025295637,
				"z": 4.1588666249,
				"element": "H" 
			},
			{
				"x": -2.516311125,
				"y": 0.9300600124,
				"z": 1.649179689,
				"element": "H" 
			},
			{
				"x": -2.9257238774,
				"y": -0.5721442178,
				"z": -0.878745909,
				"element": "H" 
			},
			{
				"x": -2.94073375,
				"y": 1.1813063314,
				"z": -0.8789580096,
				"element": "H" 
			},
			{
				"x": -2.4952176201,
				"y": 0.0903509901,
				"z": -3.1705313123,
				"element": "H" 
			},
			{
				"x": -1.2933130047,
				"y": 1.283380066,
				"z": -2.6844347576,
				"element": "H" 
			},
			{
				"x": -0.992094377,
				"y": -1.6074391946,
				"z": -2.3830316846,
				"element": "H" 
			},
			{
				"x": 1.0497771148,
				"y": 0.4592716261,
				"z": -2.1599605259,
				"element": "H" 
			},
			{
				"x": 1.1844541705,
				"y": -1.238510795,
				"z": -1.7411866071,
				"element": "H" 
			},
			{
				"x": 2.1239545668,
				"y": -0.3311426286,
				"z": 0.4481287407,
				"element": "H" 
			}
		],
		 "valence_orbital": [ 
			{
				"type": "occ",
				"energy": -0.32185,
				"method": "rhf"
			},
			{
				"type": "occ",
				"energy": -0.29836,
				"method": "rhf"
			},
			{
				"type": "occ",
				"energy": -0.22844,
				"method": "rhf"
			},
			{
				"type": "occ",
				"energy": -0.21668,
				"method": "rhf"
			},
			{
				"type": "occ",
				"energy": -0.19631,
				"method": "rhf"
			},
			{
				"type": "unocc",
				"energy": 0.00828,
				"method": "rhf"
			},
			{
				"type": "unocc",
				"energy": 0.02248,
				"method": "rhf"
			},
			{
				"type": "unocc",
				"energy": 0.08157,
				"method": "rhf"
			},
			{
				"type": "unocc",
				"energy": 0.0939,
				"method": "rhf"
			},
			{
				"type": "unocc",
				"energy": 0.09584,
				"method": "rhf"
			}
		],
		"cosmo_sigma_profile": { 
			"-0.025": 0.0,
			"-0.024": 0.0,
			"-0.023": 0.0,
			"-0.022": 0.0,
			"-0.021": 0.0,
			"-0.02": 0.0,
			"-0.019": 0.0,
			"-0.018": 0.0,
			"-0.017": 0.0,
			"-0.016": 0.0,
			"-0.015": 0.0,
			"-0.014": 0.206092091308,
			"-0.013": 0.43834593908,
			"-0.012": 0.697802366434,
			"-0.011": 0.904037134851,
			"-0.01": 0.718024315549,
			"-0.009": 1.57009797524,
			"-0.008": 2.1866847475,
			"-0.007": 2.37140278489,
			"-0.006": 6.81406920121,
			"-0.005": 14.6397552631,
			"-0.004": 20.4011980346,
			"-0.003": 29.3220185078,
			"-0.002": 21.7450050298,
			"-0.001": 19.5998435993,
			"0.0": 15.2305637708,
			"0.001": 9.35519828271,
			"0.002": 9.82933464278,
			"0.003": 10.7227126734,
			"0.004": 10.3914292446,
			"0.005": 11.1120310852,
			"0.006": 10.1867841841,
			"0.007": 4.1998760161,
			"0.008": 2.15744480557,
			"0.009": 2.43559599303,
			"0.01": 2.14643026858,
			"0.011": 2.24933578679,
			"0.012": 2.47897290944,
			"0.013": 0.674935005275,
			"0.014": 0.80207826983,
			"0.015": 0.628824611755,
			"0.016": 0.580600304303,
			"0.017": 0.354253053373,
			"0.018": 0.841832905817,
			"0.019": 0.0967829748332,
			"0.02": 0.0,
			"0.021": 0.0,
			"0.022": 0.0,
			"0.023": 0.0,
			"0.024": 0.0,
			"0.025": 0.0
		}
	}
}
