{
	 "smiles": "CCOC(=O)C1=C(C)OC(N)=C1C(N)=O", 
	 "Tm": 290.15, 
	 "num_atms": 27, 
	 "gaussian": { 
		 "optdone": 1, 
		 "sigma_profile": "yes", 
		 "theory": "DFT", 
		 "functional": "B3LYP", 
		 "basiset": "6-31G**", 
		 "properties": { 
			 "R2extent": 3909.5948, 
			 "electric_dipole_moment_norm": 1.6587564559, 
			 "electric_quadrupole_moment_norm": 18.7651145262, 
			 "total_energy": -760.624485167, 
			 "HOMO_LUMO_gap": 0.163, 
			 "cosmo_polarized_energy": -14.22, 
			 "cosmo_cavitation_energy": 30.64, 
			 "cosmo_dispersion_energy": -22.54, 
			 "cosmo_repulsion_energy": 1.79, 
			 "cosmo_total_nonelectrostatic_energy": 9.89, 
			 "SMD_solvation_energy": 7.24 
		},
		"coords": [
			{
				"x": 0.8929703025,
				"y": 5.018225544,
				"z": -1.2145917407,
				"element": "C" 
			},
			{
				"x": 0.084714716,
				"y": 3.9279507992,
				"z": -1.8999970811,
				"element": "C" 
			},
			{
				"x": 0.2811124328,
				"y": 2.6422578268,
				"z": -1.2542407325,
				"element": "O" 
			},
			{
				"x": -0.5085298869,
				"y": 2.379908141,
				"z": -0.1723723918,
				"element": "C" 
			},
			{
				"x": -1.3326836582,
				"y": 3.1855138143,
				"z": 0.2237281222,
				"element": "O" 
			},
			{
				"x": -0.2311125839,
				"y": 1.0772528554,
				"z": 0.4573503049,
				"element": "C" 
			},
			{
				"x": -0.6621173401,
				"y": 0.8272542345,
				"z": 1.7364005028,
				"element": "C" 
			},
			{
				"x": -1.4355801175,
				"y": 1.5783417413,
				"z": 2.7581023633,
				"element": "C" 
			},
			{
				"x": -0.2306651045,
				"y": -0.4170096968,
				"z": 2.1342035658,
				"element": "O" 
			},
			{
				"x": 0.4638485879,
				"y": -0.966642419,
				"z": 1.1060741848,
				"element": "C" 
			},
			{
				"x": 1.008188646,
				"y": -2.1894028211,
				"z": 1.3104323347,
				"element": "N" 
			},
			{
				"x": 0.5161768153,
				"y": -0.1115949182,
				"z": 0.0201871824,
				"element": "C" 
			},
			{
				"x": 1.1168868443,
				"y": -0.6094050929,
				"z": -1.2304672778,
				"element": "C" 
			},
			{
				"x": 1.0531846547,
				"y": 0.1630324388,
				"z": -2.3484328022,
				"element": "N" 
			},
			{
				"x": 1.635315255,
				"y": -1.7405955717,
				"z": -1.2750403748,
				"element": "O" 
			},
			{
				"x": 1.954170673,
				"y": 4.7551113819,
				"z": -1.1806552226,
				"element": "H" 
			},
			{
				"x": 0.7885742505,
				"y": 5.9575741581,
				"z": -1.7676984562,
				"element": "H" 
			},
			{
				"x": 0.5331957007,
				"y": 5.1780794508,
				"z": -0.1957320671,
				"element": "H" 
			},
			{
				"x": 0.4194666542,
				"y": 3.767148101,
				"z": -2.9279371194,
				"element": "H" 
			},
			{
				"x": -0.9817646824,
				"y": 4.1610230693,
				"z": -1.896771764,
				"element": "H" 
			},
			{
				"x": -0.8906351942,
				"y": 1.6043942145,
				"z": 3.7084738116,
				"element": "H" 
			},
			{
				"x": -2.4004690508,
				"y": 1.0916039338,
				"z": 2.9475971499,
				"element": "H" 
			},
			{
				"x": -1.6258783448,
				"y": 2.5907960362,
				"z": 2.4079928662,
				"element": "H" 
			},
			{
				"x": 1.3679133846,
				"y": -2.5780026925,
				"z": 0.4384947358,
				"element": "H" 
			},
			{
				"x": 0.5425363612,
				"y": -2.7972692481,
				"z": 1.9685037413,
				"element": "H" 
			},
			{
				"x": 1.5670559967,
				"y": -0.1808520203,
				"z": -3.1450551846,
				"element": "H" 
			},
			{
				"x": 0.833024688,
				"y": 1.1457067395,
				"z": -2.270848651,
				"element": "H" 
			}
		],
		 "valence_orbital": [ 
			{
				"type": "occ",
				"energy": -0.28392,
				"method": "rhf"
			},
			{
				"type": "occ",
				"energy": -0.27591,
				"method": "rhf"
			},
			{
				"type": "occ",
				"energy": -0.25455,
				"method": "rhf"
			},
			{
				"type": "occ",
				"energy": -0.24581,
				"method": "rhf"
			},
			{
				"type": "occ",
				"energy": -0.19558,
				"method": "rhf"
			},
			{
				"type": "unocc",
				"energy": -0.03258,
				"method": "rhf"
			},
			{
				"type": "unocc",
				"energy": 0.00831,
				"method": "rhf"
			},
			{
				"type": "unocc",
				"energy": 0.06739,
				"method": "rhf"
			},
			{
				"type": "unocc",
				"energy": 0.09204,
				"method": "rhf"
			},
			{
				"type": "unocc",
				"energy": 0.09804,
				"method": "rhf"
			}
		],
		"cosmo_sigma_profile": { 
			"-0.025": 0.0,
			"-0.024": 0.0,
			"-0.023": 0.0,
			"-0.022": 0.0,
			"-0.021": 0.0,
			"-0.02": 0.0,
			"-0.019": 0.0,
			"-0.018": 0.0,
			"-0.017": 0.0,
			"-0.016": 0.0,
			"-0.015": 0.203977021095,
			"-0.014": 1.18705968513,
			"-0.013": 1.99179146671,
			"-0.012": 2.34841587809,
			"-0.011": 2.00327523273,
			"-0.01": 1.55252949061,
			"-0.009": 2.78796134202,
			"-0.008": 5.077898455,
			"-0.007": 4.06805401595,
			"-0.006": 8.30120615005,
			"-0.005": 11.9062097027,
			"-0.004": 16.4091208361,
			"-0.003": 21.2651797173,
			"-0.002": 21.9103188515,
			"-0.001": 23.6707873097,
			"0.0": 21.1574452745,
			"0.001": 14.5711355886,
			"0.002": 15.3383953452,
			"0.003": 13.0449145502,
			"0.004": 9.29932745714,
			"0.005": 8.3966643998,
			"0.006": 6.21839068737,
			"0.007": 3.92495221448,
			"0.008": 4.74799369271,
			"0.009": 4.43728156509,
			"0.01": 3.4391822302,
			"0.011": 4.59488638105,
			"0.012": 2.70024843058,
			"0.013": 2.1950100041,
			"0.014": 2.23403390987,
			"0.015": 1.6016169362,
			"0.016": 0.110575669172,
			"0.017": 0.0,
			"0.018": 0.0,
			"0.019": 0.0,
			"0.02": 0.0,
			"0.021": 0.0,
			"0.022": 0.0,
			"0.023": 0.0,
			"0.024": 0.0,
			"0.025": 0.0
		}
	}
}
