{
	 "smiles": "CS(=O)(=O)NCCN=C=S", 
	 "Tm": 437.15, 
	 "num_atms": 18, 
	 "gaussian": { 
		 "optdone": 1, 
		 "sigma_profile": "yes", 
		 "theory": "DFT", 
		 "functional": "B3LYP", 
		 "basiset": "6-31G**", 
		 "properties": { 
			 "R2extent": 3555.5232, 
			 "electric_dipole_moment_norm": 4.67876631389, 
			 "electric_quadrupole_moment_norm": 15.6679755157, 
			 "total_energy": -1213.49620052, 
			 "HOMO_LUMO_gap": 0.22245, 
			 "cosmo_polarized_energy": -17.04, 
			 "cosmo_cavitation_energy": 26.47, 
			 "cosmo_dispersion_energy": -19.97, 
			 "cosmo_repulsion_energy": 1.58, 
			 "cosmo_total_nonelectrostatic_energy": 8.08, 
			 "SMD_solvation_energy": 3.31 
		},
		"coords": [
			{
				"x": -0.6947257759,
				"y": 1.6298544707,
				"z": -2.7528150538,
				"element": "C" 
			},
			{
				"x": -0.1900552297,
				"y": 1.7904591378,
				"z": -1.0333270353,
				"element": "S" 
			},
			{
				"x": -1.3987422511,
				"y": 2.0143797833,
				"z": -0.2342534284,
				"element": "O" 
			},
			{
				"x": 0.9534514694,
				"y": 2.7043641133,
				"z": -0.9769922665,
				"element": "O" 
			},
			{
				"x": 0.4203660627,
				"y": 0.2407636524,
				"z": -0.6982734155,
				"element": "N" 
			},
			{
				"x": -0.3560704065,
				"y": -0.6156384311,
				"z": 0.2084592467,
				"element": "C" 
			},
			{
				"x": 0.2741137531,
				"y": -2.0061114634,
				"z": 0.2516469194,
				"element": "C" 
			},
			{
				"x": 1.6171791295,
				"y": -1.9501879944,
				"z": 0.7699806159,
				"element": "N" 
			},
			{
				"x": 2.5670086726,
				"y": -2.5811497523,
				"z": 1.1389595505,
				"element": "C" 
			},
			{
				"x": 3.8818274121,
				"y": -3.3086734961,
				"z": 1.6502824103,
				"element": "S" 
			},
			{
				"x": 0.1805031584,
				"y": 1.3795270304,
				"z": -3.3521911846,
				"element": "H" 
			},
			{
				"x": -1.1065759039,
				"y": 2.5947595446,
				"z": -3.054086919,
				"element": "H" 
			},
			{
				"x": -1.4570730312,
				"y": 0.8535023997,
				"z": -2.8283205379,
				"element": "H" 
			},
			{
				"x": 1.3853198861,
				"y": 0.3550118007,
				"z": -0.3921811613,
				"element": "H" 
			},
			{
				"x": -1.3738515325,
				"y": -0.7068264195,
				"z": -0.1787117731,
				"element": "H" 
			},
			{
				"x": -0.4253480691,
				"y": -0.2035929693,
				"z": 1.2221866742,
				"element": "H" 
			},
			{
				"x": -0.3338426308,
				"y": -2.6595883917,
				"z": 0.8890022496,
				"element": "H" 
			},
			{
				"x": 0.3022152867,
				"y": -2.4328530149,
				"z": -0.7577648912,
				"element": "H" 
			}
		],
		 "valence_orbital": [ 
			{
				"type": "occ",
				"energy": -0.31544,
				"method": "rhf"
			},
			{
				"type": "occ",
				"energy": -0.30728,
				"method": "rhf"
			},
			{
				"type": "occ",
				"energy": -0.28572,
				"method": "rhf"
			},
			{
				"type": "occ",
				"energy": -0.26706,
				"method": "rhf"
			},
			{
				"type": "occ",
				"energy": -0.25759,
				"method": "rhf"
			},
			{
				"type": "unocc",
				"energy": -0.03514,
				"method": "rhf"
			},
			{
				"type": "unocc",
				"energy": -0.00607,
				"method": "rhf"
			},
			{
				"type": "unocc",
				"energy": 0.05398,
				"method": "rhf"
			},
			{
				"type": "unocc",
				"energy": 0.06768,
				"method": "rhf"
			},
			{
				"type": "unocc",
				"energy": 0.08232,
				"method": "rhf"
			}
		],
		"cosmo_sigma_profile": { 
			"-0.025": 0.0,
			"-0.024": 0.0,
			"-0.023": 0.0,
			"-0.022": 0.0,
			"-0.021": 0.0,
			"-0.02": 0.0,
			"-0.019": 0.0,
			"-0.018": 0.0,
			"-0.017": 0.0,
			"-0.016": 0.0,
			"-0.015": 0.0,
			"-0.014": 0.0,
			"-0.013": 0.0875201737403,
			"-0.012": 0.545206030224,
			"-0.011": 0.777557785037,
			"-0.01": 1.33854658676,
			"-0.009": 3.56329336726,
			"-0.008": 11.4928795465,
			"-0.007": 16.4037928269,
			"-0.006": 16.7126480851,
			"-0.005": 17.538372935,
			"-0.004": 12.4960262104,
			"-0.003": 9.50035441946,
			"-0.002": 8.23126418195,
			"-0.001": 8.30909382083,
			"0.0": 10.2893803285,
			"0.001": 12.3140172428,
			"0.002": 9.41258848913,
			"0.003": 7.31573587897,
			"0.004": 9.72251390294,
			"0.005": 14.1787402758,
			"0.006": 10.5189722299,
			"0.007": 2.88670422608,
			"0.008": 4.31637279178,
			"0.009": 2.83183276099,
			"0.01": 4.70015643662,
			"0.011": 12.0602854531,
			"0.012": 5.92039872842,
			"0.013": 0.0482839679116,
			"0.014": 0.0,
			"0.015": 0.0,
			"0.016": 0.0,
			"0.017": 0.0,
			"0.018": 0.0,
			"0.019": 0.0,
			"0.02": 0.0,
			"0.021": 0.0,
			"0.022": 0.0,
			"0.023": 0.0,
			"0.024": 0.0,
			"0.025": 0.0
		}
	}
}
