{
	 "smiles": "NCCNC1=C(Cl)C(=O)NN=C1", 
	 "Tm": 469.15, 
	 "num_atms": 21, 
	 "gaussian": { 
		 "optdone": 1, 
		 "sigma_profile": "yes", 
		 "theory": "DFT", 
		 "functional": "B3LYP", 
		 "basiset": "6-31G**", 
		 "properties": { 
			 "R2extent": 3387.3824, 
			 "electric_dipole_moment_norm": 6.26816860813, 
			 "electric_quadrupole_moment_norm": 19.1294216883, 
			 "total_energy": -988.455161599, 
			 "HOMO_LUMO_gap": 0.1676, 
			 "cosmo_polarized_energy": -19.58, 
			 "cosmo_cavitation_energy": 26.87, 
			 "cosmo_dispersion_energy": -20.15, 
			 "cosmo_repulsion_energy": 1.65, 
			 "cosmo_total_nonelectrostatic_energy": 8.37, 
			 "SMD_solvation_energy": 2.37 
		},
		"coords": [
			{
				"x": -4.2932451642,
				"y": 0.4192217209,
				"z": -2.1080769261,
				"element": "N" 
			},
			{
				"x": -2.8328448223,
				"y": 0.4121517254,
				"z": -2.1159656989,
				"element": "C" 
			},
			{
				"x": -2.319858001,
				"y": -0.3890580782,
				"z": -0.9165582981,
				"element": "C" 
			},
			{
				"x": -0.8654843935,
				"y": -0.4311865464,
				"z": -0.9293216983,
				"element": "N" 
			},
			{
				"x": -0.0840933624,
				"y": -0.9981457694,
				"z": 0.0303808018,
				"element": "C" 
			},
			{
				"x": 1.2882324237,
				"y": -1.1360660623,
				"z": -0.1038035402,
				"element": "C" 
			},
			{
				"x": 2.0942846016,
				"y": -0.6023508113,
				"z": -1.5544306558,
				"element": "Cl" 
			},
			{
				"x": 2.1124979802,
				"y": -1.719021487,
				"z": 0.9309108208,
				"element": "C" 
			},
			{
				"x": 3.3245119632,
				"y": -1.8906708229,
				"z": 0.9254464028,
				"element": "O" 
			},
			{
				"x": 1.3471849196,
				"y": -2.1132974942,
				"z": 2.0485471797,
				"element": "N" 
			},
			{
				"x": 0.0301630069,
				"y": -2.0147997158,
				"z": 2.2295493152,
				"element": "N" 
			},
			{
				"x": -0.6630283285,
				"y": -1.4809751043,
				"z": 1.2644873981,
				"element": "C" 
			},
			{
				"x": -4.6463557231,
				"y": 1.109890639,
				"z": -2.7634201117,
				"element": "H" 
			},
			{
				"x": -4.6541769311,
				"y": -0.4813355793,
				"z": -2.4129928019,
				"element": "H" 
			},
			{
				"x": -2.4804119298,
				"y": 1.4455251202,
				"z": -2.0237831959,
				"element": "H" 
			},
			{
				"x": -2.3814636005,
				"y": 0.0024453566,
				"z": -3.0390615777,
				"element": "H" 
			},
			{
				"x": -2.7484548078,
				"y": -1.4037156706,
				"z": -0.9447875301,
				"element": "H" 
			},
			{
				"x": -2.6835719988,
				"y": 0.0916406849,
				"z": -0.0023519129,
				"element": "H" 
			},
			{
				"x": -0.4009395941,
				"y": -0.223687343,
				"z": -1.802850134,
				"element": "H" 
			},
			{
				"x": 1.8677556729,
				"y": -2.5319862115,
				"z": 2.8100004444,
				"element": "H" 
			},
			{
				"x": -1.730701911,
				"y": -1.4151785508,
				"z": 1.4366817189,
				"element": "H" 
			}
		],
		 "valence_orbital": [ 
			{
				"type": "occ",
				"energy": -0.31482,
				"method": "rhf"
			},
			{
				"type": "occ",
				"energy": -0.25922,
				"method": "rhf"
			},
			{
				"type": "occ",
				"energy": -0.2513,
				"method": "rhf"
			},
			{
				"type": "occ",
				"energy": -0.24893,
				"method": "rhf"
			},
			{
				"type": "occ",
				"energy": -0.2185,
				"method": "rhf"
			},
			{
				"type": "unocc",
				"energy": -0.0509,
				"method": "rhf"
			},
			{
				"type": "unocc",
				"energy": 0.01121,
				"method": "rhf"
			},
			{
				"type": "unocc",
				"energy": 0.03167,
				"method": "rhf"
			},
			{
				"type": "unocc",
				"energy": 0.05949,
				"method": "rhf"
			},
			{
				"type": "unocc",
				"energy": 0.08176,
				"method": "rhf"
			}
		],
		"cosmo_sigma_profile": { 
			"-0.025": 0.0,
			"-0.024": 0.0,
			"-0.023": 0.0,
			"-0.022": 0.0,
			"-0.021": 0.0,
			"-0.02": 0.0,
			"-0.019": 0.0,
			"-0.018": 0.0,
			"-0.017": 0.00122117015406,
			"-0.016": 0.870438254432,
			"-0.015": 1.10567096151,
			"-0.014": 1.04180602424,
			"-0.013": 0.471365204981,
			"-0.012": 0.727864535805,
			"-0.011": 2.30723346728,
			"-0.01": 4.51824034349,
			"-0.009": 5.64196577664,
			"-0.008": 6.72299061348,
			"-0.007": 8.05241250636,
			"-0.006": 8.83169323726,
			"-0.005": 11.9115959044,
			"-0.004": 15.0084723057,
			"-0.003": 14.8398139326,
			"-0.002": 15.5066540452,
			"-0.001": 17.150629297,
			"0.0": 15.1920940734,
			"0.001": 12.8776612055,
			"0.002": 9.30854119238,
			"0.003": 7.31081095451,
			"0.004": 8.9187746221,
			"0.005": 7.46543473942,
			"0.006": 3.6634749745,
			"0.007": 3.17008289674,
			"0.008": 3.60811492301,
			"0.009": 2.88157611186,
			"0.01": 3.26780940959,
			"0.011": 2.89053458863,
			"0.012": 3.92327596357,
			"0.013": 4.37687251038,
			"0.014": 6.87512091059,
			"0.015": 1.97643649086,
			"0.016": 0.38201714102,
			"0.017": 0.715042379549,
			"0.018": 0.405776840409,
			"0.019": 0.387827818457,
			"0.02": 0.0,
			"0.021": 0.0,
			"0.022": 0.0,
			"0.023": 0.0,
			"0.024": 0.0,
			"0.025": 0.0
		}
	}
}
