{
	 "smiles": "C1=CC2=NC=C(N=C2C=C1)C1=CC(=CC(=C1)C1=CN=C2C=CC=CC2=N1)C1=CN=C2C=CC=CC2=N1", 
	 "Tm": 575.15, 
	 "num_atms": 54, 
	 "gaussian": { 
		 "optdone": 1, 
		 "sigma_profile": "yes", 
		 "theory": "DFT", 
		 "functional": "B3LYP", 
		 "basiset": "6-31G**", 
		 "properties": { 
			 "R2extent": 24485.8731, 
			 "electric_dipole_moment_norm": 1.1088291257, 
			 "electric_quadrupole_moment_norm": 30.2874893075, 
			 "total_energy": -1482.57398728, 
			 "HOMO_LUMO_gap": 0.14959, 
			 "cosmo_polarized_energy": -17.91, 
			 "cosmo_cavitation_energy": 60.17, 
			 "cosmo_dispersion_energy": -43.33, 
			 "cosmo_repulsion_energy": 3.1, 
			 "cosmo_total_nonelectrostatic_energy": 19.95, 
			 "SMD_solvation_energy": 1.07 
		},
		"coords": [
			{
				"x": 5.8009280023,
				"y": 4.247216278,
				"z": 0.3394861424,
				"element": "C" 
			},
			{
				"x": 4.8609136957,
				"y": 4.0634762454,
				"z": 1.3297891056,
				"element": "C" 
			},
			{
				"x": 3.7905756511,
				"y": 3.1571022619,
				"z": 1.127305451,
				"element": "C" 
			},
			{
				"x": 2.8526099218,
				"y": 2.9855059033,
				"z": 2.1042276757,
				"element": "N" 
			},
			{
				"x": 1.8907482857,
				"y": 2.1264934739,
				"z": 1.8570402279,
				"element": "C" 
			},
			{
				"x": 1.7969241178,
				"y": 1.3805183604,
				"z": 0.6362687643,
				"element": "C" 
			},
			{
				"x": 2.6881804729,
				"y": 1.5540835517,
				"z": -0.3266102222,
				"element": "N" 
			},
			{
				"x": 3.6968625518,
				"y": 2.4388769669,
				"z": -0.1045725717,
				"element": "C" 
			},
			{
				"x": 4.6779705556,
				"y": 2.6504583097,
				"z": -1.1083252876,
				"element": "C" 
			},
			{
				"x": 5.7074625859,
				"y": 3.5376000621,
				"z": -0.8856577038,
				"element": "C" 
			},
			{
				"x": 0.6950417077,
				"y": 0.4119916691,
				"z": 0.3964403761,
				"element": "C" 
			},
			{
				"x": -0.0524869831,
				"y": -0.1261205186,
				"z": 1.4510493755,
				"element": "C" 
			},
			{
				"x": -1.0923572429,
				"y": -1.0356277147,
				"z": 1.2103516712,
				"element": "C" 
			},
			{
				"x": -1.3755958017,
				"y": -1.4081862704,
				"z": -0.1105220494,
				"element": "C" 
			},
			{
				"x": -0.6375735567,
				"y": -0.8821925559,
				"z": -1.1824663731,
				"element": "C" 
			},
			{
				"x": 0.3980662135,
				"y": 0.0207005132,
				"z": -0.9167408416,
				"element": "C" 
			},
			{
				"x": -0.922790181,
				"y": -1.272770555,
				"z": -2.5873323583,
				"element": "C" 
			},
			{
				"x": -2.2051319857,
				"y": -1.7788691888,
				"z": -2.9800758637,
				"element": "C" 
			},
			{
				"x": -2.4924819077,
				"y": -2.1404079708,
				"z": -4.2091480782,
				"element": "N" 
			},
			{
				"x": -1.4998703056,
				"y": -2.0077589013,
				"z": -5.1366844041,
				"element": "C" 
			},
			{
				"x": -1.7374479013,
				"y": -2.385830911,
				"z": -6.4816664141,
				"element": "C" 
			},
			{
				"x": -0.7413435819,
				"y": -2.2379302461,
				"z": -7.4217340434,
				"element": "C" 
			},
			{
				"x": 0.5232515619,
				"y": -1.7076248638,
				"z": -7.0568908128,
				"element": "C" 
			},
			{
				"x": 0.7810997378,
				"y": -1.3330984219,
				"z": -5.7570759041,
				"element": "C" 
			},
			{
				"x": -0.2252416494,
				"y": -1.4774351446,
				"z": -4.7664127165,
				"element": "C" 
			},
			{
				"x": 0.0400500463,
				"y": -1.117157047,
				"z": -3.4820756947,
				"element": "N" 
			},
			{
				"x": -1.8465998514,
				"y": -1.5939798423,
				"z": 2.3621451038,
				"element": "C" 
			},
			{
				"x": -3.1455556639,
				"y": -2.1785471884,
				"z": 2.2009369881,
				"element": "C" 
			},
			{
				"x": -3.8361762971,
				"y": -2.6865798964,
				"z": 3.1951378808,
				"element": "N" 
			},
			{
				"x": -3.2638078259,
				"y": -2.6332972085,
				"z": 4.4331880583,
				"element": "C" 
			},
			{
				"x": -3.9506845107,
				"y": -3.169794664,
				"z": 5.5504913969,
				"element": "C" 
			},
			{
				"x": -3.3806010955,
				"y": -3.1027398017,
				"z": 6.8028844051,
				"element": "C" 
			},
			{
				"x": -2.1099415905,
				"y": -2.4986138548,
				"z": 6.986481145,
				"element": "C" 
			},
			{
				"x": -1.4204969969,
				"y": -1.9701701775,
				"z": 5.9178775284,
				"element": "C" 
			},
			{
				"x": -1.9819092051,
				"y": -2.0281774259,
				"z": 4.615536213,
				"element": "C" 
			},
			{
				"x": -1.291797858,
				"y": -1.5154215703,
				"z": 3.5617108663,
				"element": "N" 
			},
			{
				"x": 6.6224045609,
				"y": 4.9409159408,
				"z": 0.4922623886,
				"element": "H" 
			},
			{
				"x": 4.90669316,
				"y": 4.5950121952,
				"z": 2.2748639202,
				"element": "H" 
			},
			{
				"x": 1.1320389113,
				"y": 2.0129163071,
				"z": 2.627621795,
				"element": "H" 
			},
			{
				"x": 4.5858358898,
				"y": 2.094305786,
				"z": -2.0356432516,
				"element": "H" 
			},
			{
				"x": 6.45915376,
				"y": 3.6989270743,
				"z": -1.6528185385,
				"element": "H" 
			},
			{
				"x": 0.1660825751,
				"y": 0.1182386132,
				"z": 2.4834505887,
				"element": "H" 
			},
			{
				"x": -2.1378329267,
				"y": -2.1539205065,
				"z": -0.3042039876,
				"element": "H" 
			},
			{
				"x": 0.9817412823,
				"y": 0.4192393781,
				"z": -1.7369216776,
				"element": "H" 
			},
			{
				"x": -3.009262879,
				"y": -1.8558675406,
				"z": -2.2514418449,
				"element": "H" 
			},
			{
				"x": -2.7144302209,
				"y": -2.7854160142,
				"z": -6.7338612713,
				"element": "H" 
			},
			{
				"x": -0.9204995944,
				"y": -2.5271502089,
				"z": -8.4530411005,
				"element": "H" 
			},
			{
				"x": 1.2933588591,
				"y": -1.5987626646,
				"z": -7.8149493123,
				"element": "H" 
			},
			{
				"x": 1.7405829614,
				"y": -0.9275984426,
				"z": -5.4527452196,
				"element": "H" 
			},
			{
				"x": -3.6207253665,
				"y": -2.1965697456,
				"z": 1.2227674817,
				"element": "H" 
			},
			{
				"x": -4.9221776276,
				"y": -3.6231409154,
				"z": 5.3819809997,
				"element": "H" 
			},
			{
				"x": -3.904474032,
				"y": -3.5133232315,
				"z": 7.6609264629,
				"element": "H" 
			},
			{
				"x": -1.680003659,
				"y": -2.4557486605,
				"z": 7.9828844569,
				"element": "H" 
			},
			{
				"x": -0.4463787697,
				"y": -1.5059490202,
				"z": 6.0333110742,
				"element": "H" 
			}
		],
		 "valence_orbital": [ 
			{
				"type": "occ",
				"energy": -0.24795,
				"method": "rhf"
			},
			{
				"type": "occ",
				"energy": -0.24578,
				"method": "rhf"
			},
			{
				"type": "occ",
				"energy": -0.24476,
				"method": "rhf"
			},
			{
				"type": "occ",
				"energy": -0.23357,
				"method": "rhf"
			},
			{
				"type": "occ",
				"energy": -0.23145,
				"method": "rhf"
			},
			{
				"type": "unocc",
				"energy": -0.08186,
				"method": "rhf"
			},
			{
				"type": "unocc",
				"energy": -0.07598,
				"method": "rhf"
			},
			{
				"type": "unocc",
				"energy": -0.07328,
				"method": "rhf"
			},
			{
				"type": "unocc",
				"energy": -0.0468,
				"method": "rhf"
			},
			{
				"type": "unocc",
				"energy": -0.04094,
				"method": "rhf"
			}
		],
		"cosmo_sigma_profile": { 
			"-0.025": 0.0,
			"-0.024": 0.0,
			"-0.023": 0.0,
			"-0.022": 0.0,
			"-0.021": 0.0,
			"-0.02": 0.0,
			"-0.019": 0.0,
			"-0.018": 0.0,
			"-0.017": 0.0,
			"-0.016": 0.0,
			"-0.015": 0.0,
			"-0.014": 0.0,
			"-0.013": 0.0,
			"-0.012": 0.0,
			"-0.011": 0.0628270908248,
			"-0.01": 1.89384352303,
			"-0.009": 4.22234591529,
			"-0.008": 5.46580477492,
			"-0.007": 14.2613737919,
			"-0.006": 29.1359474883,
			"-0.005": 31.6852006052,
			"-0.004": 29.6574865157,
			"-0.003": 26.7520415699,
			"-0.002": 37.2800040902,
			"-0.001": 37.1782510831,
			"0.0": 40.669961934,
			"0.001": 46.2858336881,
			"0.002": 59.9269634627,
			"0.003": 48.751307695,
			"0.004": 20.4428894735,
			"0.005": 10.3459891749,
			"0.006": 8.88296840096,
			"0.007": 8.40348394403,
			"0.008": 5.94072872985,
			"0.009": 4.50898901849,
			"0.01": 4.48251651613,
			"0.011": 4.62339347496,
			"0.012": 2.51673047637,
			"0.013": 2.30092555334,
			"0.014": 1.84762216048,
			"0.015": 1.1039682387,
			"0.016": 0.0,
			"0.017": 0.0,
			"0.018": 0.0,
			"0.019": 0.0,
			"0.02": 0.0,
			"0.021": 0.0,
			"0.022": 0.0,
			"0.023": 0.0,
			"0.024": 0.0,
			"0.025": 0.0
		}
	}
}
