{
	 "smiles": "CCC(S)CC", 
	 "Tm": 162.15, 
	 "num_atms": 18, 
	 "gaussian": { 
		 "optdone": 1, 
		 "sigma_profile": "yes", 
		 "theory": "DFT", 
		 "functional": "B3LYP", 
		 "basiset": "6-31G**", 
		 "properties": { 
			 "R2extent": 1003.3398, 
			 "electric_dipole_moment_norm": 1.91695269112, 
			 "electric_quadrupole_moment_norm": 4.43084821564, 
			 "total_energy": -595.965002346, 
			 "HOMO_LUMO_gap": 0.26343, 
			 "cosmo_polarized_energy": -4.11, 
			 "cosmo_cavitation_energy": 21.02, 
			 "cosmo_dispersion_energy": -15.6, 
			 "cosmo_repulsion_energy": 1.28, 
			 "cosmo_total_nonelectrostatic_energy": 6.71, 
			 "SMD_solvation_energy": 2.97 
		},
		"coords": [
			{
				"x": -1.0787035468,
				"y": 2.1793758322,
				"z": 0.2777701369,
				"element": "C" 
			},
			{
				"x": -0.7193223906,
				"y": 0.7919256113,
				"z": -0.2710177617,
				"element": "C" 
			},
			{
				"x": 0.7936602331,
				"y": 0.5509361722,
				"z": -0.4183628733,
				"element": "C" 
			},
			{
				"x": 1.1309996505,
				"y": -1.0473310152,
				"z": -1.3069950933,
				"element": "S" 
			},
			{
				"x": 1.6101534605,
				"y": 0.6884498182,
				"z": 0.8822382134,
				"element": "C" 
			},
			{
				"x": 1.2204100919,
				"y": -0.2594582656,
				"z": 2.0206948363,
				"element": "C" 
			},
			{
				"x": -0.7336501905,
				"y": 2.3196395478,
				"z": 1.3069644872,
				"element": "H" 
			},
			{
				"x": -0.6376925641,
				"y": 2.975181051,
				"z": -0.3334794751,
				"element": "H" 
			},
			{
				"x": -2.1639833172,
				"y": 2.3229128908,
				"z": 0.2733636924,
				"element": "H" 
			},
			{
				"x": -1.1816323759,
				"y": 0.6585090632,
				"z": -1.2545855119,
				"element": "H" 
			},
			{
				"x": -1.1523381296,
				"y": 0.0178983848,
				"z": 0.3753581213,
				"element": "H" 
			},
			{
				"x": 1.1866949513,
				"y": 1.285223628,
				"z": -1.1327353899,
				"element": "H" 
			},
			{
				"x": 0.4388247508,
				"y": -1.8538871493,
				"z": -0.4770899066,
				"element": "H" 
			},
			{
				"x": 1.5153249778,
				"y": 1.7260164935,
				"z": 1.2293593292,
				"element": "H" 
			},
			{
				"x": 2.6674686363,
				"y": 0.5439777635,
				"z": 0.63602131,
				"element": "H" 
			},
			{
				"x": 1.8598764973,
				"y": -0.0898845862,
				"z": 2.8926037183,
				"element": "H" 
			},
			{
				"x": 1.3397973324,
				"y": -1.3072791019,
				"z": 1.727264742,
				"element": "H" 
			},
			{
				"x": 0.1838119327,
				"y": -0.1136061384,
				"z": 2.3424274246,
				"element": "H" 
			}
		],
		 "valence_orbital": [ 
			{
				"type": "occ",
				"energy": -0.34326,
				"method": "rhf"
			},
			{
				"type": "occ",
				"energy": -0.33019,
				"method": "rhf"
			},
			{
				"type": "occ",
				"energy": -0.32536,
				"method": "rhf"
			},
			{
				"type": "occ",
				"energy": -0.30576,
				"method": "rhf"
			},
			{
				"type": "occ",
				"energy": -0.23219,
				"method": "rhf"
			},
			{
				"type": "unocc",
				"energy": 0.03124,
				"method": "rhf"
			},
			{
				"type": "unocc",
				"energy": 0.06673,
				"method": "rhf"
			},
			{
				"type": "unocc",
				"energy": 0.08066,
				"method": "rhf"
			},
			{
				"type": "unocc",
				"energy": 0.11377,
				"method": "rhf"
			},
			{
				"type": "unocc",
				"energy": 0.13907,
				"method": "rhf"
			}
		],
		"cosmo_sigma_profile": { 
			"-0.025": 0.0,
			"-0.024": 0.0,
			"-0.023": 0.0,
			"-0.022": 0.0,
			"-0.021": 0.0,
			"-0.02": 0.0,
			"-0.019": 0.0,
			"-0.018": 0.0,
			"-0.017": 0.0,
			"-0.016": 0.0,
			"-0.015": 0.0,
			"-0.014": 0.0,
			"-0.013": 0.0,
			"-0.012": 0.0,
			"-0.011": 0.0,
			"-0.01": 0.0,
			"-0.009": 0.0,
			"-0.008": 1.11076062826,
			"-0.007": 1.45982423646,
			"-0.006": 2.1736540743,
			"-0.005": 4.73411766197,
			"-0.004": 5.67520425632,
			"-0.003": 18.3163504583,
			"-0.002": 26.8664365531,
			"-0.001": 24.6309203144,
			"0.0": 24.1522569585,
			"0.001": 20.4963690272,
			"0.002": 7.86529631853,
			"0.003": 3.82371126922,
			"0.004": 3.63603444842,
			"0.005": 3.55694286155,
			"0.006": 3.27670899092,
			"0.007": 3.62298378214,
			"0.008": 2.80698496455,
			"0.009": 2.31547045099,
			"0.01": 1.93741175515,
			"0.011": 1.8503596422,
			"0.012": 0.21255857949,
			"0.013": 0.0,
			"0.014": 0.0,
			"0.015": 0.0,
			"0.016": 0.0,
			"0.017": 0.0,
			"0.018": 0.0,
			"0.019": 0.0,
			"0.02": 0.0,
			"0.021": 0.0,
			"0.022": 0.0,
			"0.023": 0.0,
			"0.024": 0.0,
			"0.025": 0.0
		}
	}
}
