{
	 "smiles": "OC(=O)CCCNC1=NC2=C(S1)C=CC=C2", 
	 "Tm": 384.15, 
	 "num_atms": 28, 
	 "gaussian": { 
		 "optdone": 1, 
		 "sigma_profile": "yes", 
		 "theory": "DFT", 
		 "functional": "B3LYP", 
		 "basiset": "6-31G**", 
		 "properties": { 
			 "R2extent": 4757.0886, 
			 "electric_dipole_moment_norm": 4.7590249453, 
			 "electric_quadrupole_moment_norm": 28.7317452756, 
			 "total_energy": -1084.56947066, 
			 "HOMO_LUMO_gap": 0.19525, 
			 "cosmo_polarized_energy": -17.58, 
			 "cosmo_cavitation_energy": 32.7, 
			 "cosmo_dispersion_energy": -23.82, 
			 "cosmo_repulsion_energy": 1.81, 
			 "cosmo_total_nonelectrostatic_energy": 10.69, 
			 "SMD_solvation_energy": 4.69 
		},
		"coords": [
			{
				"x": 1.3014546,
				"y": 0.3885776169,
				"z": 2.7197195106,
				"element": "O" 
			},
			{
				"x": 2.2611026714,
				"y": -0.4939926941,
				"z": 3.0603577402,
				"element": "C" 
			},
			{
				"x": 3.2280648154,
				"y": -0.1489413265,
				"z": 3.7005428643,
				"element": "O" 
			},
			{
				"x": 2.0549312088,
				"y": -1.946576382,
				"z": 2.6274177625,
				"element": "C" 
			},
			{
				"x": 3.061815987,
				"y": -2.4000463082,
				"z": 1.5532998829,
				"element": "C" 
			},
			{
				"x": 2.6809061041,
				"y": -2.0254125026,
				"z": 0.1147830401,
				"element": "C" 
			},
			{
				"x": 2.6802059712,
				"y": -0.5910424763,
				"z": -0.1879889841,
				"element": "N" 
			},
			{
				"x": 1.5467879087,
				"y": 0.1271648122,
				"z": -0.3893544641,
				"element": "C" 
			},
			{
				"x": 0.3686833476,
				"y": -0.2088752549,
				"z": 0.0662757032,
				"element": "N" 
			},
			{
				"x": -0.5984849992,
				"y": 0.7077742318,
				"z": -0.3365579099,
				"element": "C" 
			},
			{
				"x": -0.1265898653,
				"y": 1.8041464768,
				"z": -1.0958463781,
				"element": "C" 
			},
			{
				"x": 1.6109736701,
				"y": 1.6337446783,
				"z": -1.345899941,
				"element": "S" 
			},
			{
				"x": -0.977531845,
				"y": 2.8153191382,
				"z": -1.5355256574,
				"element": "C" 
			},
			{
				"x": -2.3327436959,
				"y": 2.7197164433,
				"z": -1.2155354124,
				"element": "C" 
			},
			{
				"x": -2.816678873,
				"y": 1.6373178127,
				"z": -0.4675162014,
				"element": "C" 
			},
			{
				"x": -1.9610797797,
				"y": 0.6317150175,
				"z": -0.0238369527,
				"element": "C" 
			},
			{
				"x": 0.7228622859,
				"y": 0.0109055431,
				"z": 2.0264044546,
				"element": "H" 
			},
			{
				"x": 1.0299621204,
				"y": -2.1309845925,
				"z": 2.2890888951,
				"element": "H" 
			},
			{
				"x": 2.2193879717,
				"y": -2.5414712223,
				"z": 3.5309324094,
				"element": "H" 
			},
			{
				"x": 3.1416511118,
				"y": -3.4937364952,
				"z": 1.5810801661,
				"element": "H" 
			},
			{
				"x": 4.053038619,
				"y": -2.0062548669,
				"z": 1.8057955162,
				"element": "H" 
			},
			{
				"x": 1.6799501762,
				"y": -2.4006606886,
				"z": -0.1157362822,
				"element": "H" 
			},
			{
				"x": 3.381311353,
				"y": -2.5075716714,
				"z": -0.5778587931,
				"element": "H" 
			},
			{
				"x": 3.5479977549,
				"y": -0.1804326724,
				"z": -0.4966251484,
				"element": "H" 
			},
			{
				"x": -0.6015915915,
				"y": 3.6536856772,
				"z": -2.1131410705,
				"element": "H" 
			},
			{
				"x": -3.0158728144,
				"y": 3.4937807216,
				"z": -1.5511434222,
				"element": "H" 
			},
			{
				"x": -3.874408101,
				"y": 1.5822891616,
				"z": -0.2282717773,
				"element": "H" 
			},
			{
				"x": -2.3286061122,
				"y": -0.2081381775,
				"z": 0.5570404497,
				"element": "H" 
			}
		],
		 "valence_orbital": [ 
			{
				"type": "occ",
				"energy": -0.29184,
				"method": "rhf"
			},
			{
				"type": "occ",
				"energy": -0.29035,
				"method": "rhf"
			},
			{
				"type": "occ",
				"energy": -0.25155,
				"method": "rhf"
			},
			{
				"type": "occ",
				"energy": -0.23931,
				"method": "rhf"
			},
			{
				"type": "occ",
				"energy": -0.21888,
				"method": "rhf"
			},
			{
				"type": "unocc",
				"energy": -0.02363,
				"method": "rhf"
			},
			{
				"type": "unocc",
				"energy": -0.01105,
				"method": "rhf"
			},
			{
				"type": "unocc",
				"energy": -0.00836,
				"method": "rhf"
			},
			{
				"type": "unocc",
				"energy": 0.02297,
				"method": "rhf"
			},
			{
				"type": "unocc",
				"energy": 0.02972,
				"method": "rhf"
			}
		],
		"cosmo_sigma_profile": { 
			"-0.025": 0.0,
			"-0.024": 0.0,
			"-0.023": 0.0,
			"-0.022": 0.0,
			"-0.021": 0.0,
			"-0.02": 0.0,
			"-0.019": 0.0,
			"-0.018": 0.0,
			"-0.017": 0.0,
			"-0.016": 0.335737097571,
			"-0.015": 1.59456723583,
			"-0.014": 1.41832488304,
			"-0.013": 1.45241696083,
			"-0.012": 1.13227843111,
			"-0.011": 1.01152097338,
			"-0.01": 1.87834958659,
			"-0.009": 1.74165715465,
			"-0.008": 1.71597720319,
			"-0.007": 5.1192431802,
			"-0.006": 12.1282735064,
			"-0.005": 20.302593496,
			"-0.004": 27.4791372005,
			"-0.003": 23.7401864247,
			"-0.002": 17.8583562544,
			"-0.001": 16.7196222811,
			"0.0": 13.8712582523,
			"0.001": 15.6953991581,
			"0.002": 15.7724764112,
			"0.003": 15.0169098084,
			"0.004": 16.3487078096,
			"0.005": 13.0666698988,
			"0.006": 6.36205278135,
			"0.007": 3.61569616599,
			"0.008": 2.67147266618,
			"0.009": 3.03859686527,
			"0.01": 4.00690494458,
			"0.011": 4.5081007102,
			"0.012": 5.97009168228,
			"0.013": 4.66493319053,
			"0.014": 1.68504249388,
			"0.015": 0.0351217419794,
			"0.016": 0.0,
			"0.017": 0.0,
			"0.018": 0.0,
			"0.019": 0.0,
			"0.02": 0.0,
			"0.021": 0.0,
			"0.022": 0.0,
			"0.023": 0.0,
			"0.024": 0.0,
			"0.025": 0.0
		}
	}
}
