{
	 "smiles": "CC1=CC=C(C=C1)S(=O)(=O)N1C=CC=C1", 
	 "Tm": 374.15, 
	 "num_atms": 26, 
	 "gaussian": { 
		 "optdone": 1, 
		 "sigma_profile": "yes", 
		 "theory": "DFT", 
		 "functional": "B3LYP", 
		 "basiset": "6-31G**", 
		 "properties": { 
			 "R2extent": 3890.8552, 
			 "electric_dipole_moment_norm": 5.408577973, 
			 "electric_quadrupole_moment_norm": 15.2812943408, 
			 "total_energy": -1029.10095446, 
			 "HOMO_LUMO_gap": 0.17548, 
			 "cosmo_polarized_energy": -11.36, 
			 "cosmo_cavitation_energy": 31.58, 
			 "cosmo_dispersion_energy": -22.78, 
			 "cosmo_repulsion_energy": 1.73, 
			 "cosmo_total_nonelectrostatic_energy": 10.52, 
			 "SMD_solvation_energy": 5.43 
		},
		"coords": [
			{
				"x": 0.6482507214,
				"y": -4.5385208115,
				"z": -1.674417063,
				"element": "C" 
			},
			{
				"x": 0.9237005316,
				"y": -3.09906041,
				"z": -1.3138243111,
				"element": "C" 
			},
			{
				"x": 1.5854691599,
				"y": -2.7725409415,
				"z": -0.1208453468,
				"element": "C" 
			},
			{
				"x": 1.8192827175,
				"y": -1.4464455142,
				"z": 0.2349625641,
				"element": "C" 
			},
			{
				"x": 1.3831882121,
				"y": -0.4312676275,
				"z": -0.6184276573,
				"element": "C" 
			},
			{
				"x": 0.7338988011,
				"y": -0.7240993517,
				"z": -1.8191150185,
				"element": "C" 
			},
			{
				"x": 0.5099423412,
				"y": -2.0567280061,
				"z": -2.1564508047,
				"element": "C" 
			},
			{
				"x": 1.6745788701,
				"y": 1.2754617557,
				"z": -0.1724314051,
				"element": "S" 
			},
			{
				"x": 1.6301680487,
				"y": 2.0858757624,
				"z": -1.3865020103,
				"element": "O" 
			},
			{
				"x": 2.780713396,
				"y": 1.3234764729,
				"z": 0.7798561642,
				"element": "O" 
			},
			{
				"x": 0.2833637644,
				"y": 1.7231119922,
				"z": 0.7240612511,
				"element": "N" 
			},
			{
				"x": -0.9110628335,
				"y": 2.1718445539,
				"z": 0.1684215709,
				"element": "C" 
			},
			{
				"x": -1.8277512814,
				"y": 2.2544376451,
				"z": 1.1833167286,
				"element": "C" 
			},
			{
				"x": -1.1859173844,
				"y": 1.8297759489,
				"z": 2.3913491351,
				"element": "C" 
			},
			{
				"x": 0.1077622897,
				"y": 1.4975895373,
				"z": 2.0860616036,
				"element": "C" 
			},
			{
				"x": -0.3210737929,
				"y": -4.8614175099,
				"z": -1.2747274991,
				"element": "H" 
			},
			{
				"x": 1.4093164137,
				"y": -5.2073555746,
				"z": -1.2626353946,
				"element": "H" 
			},
			{
				"x": 0.6173377662,
				"y": -4.6811613777,
				"z": -2.7583040023,
				"element": "H" 
			},
			{
				"x": 1.929550143,
				"y": -3.5676801171,
				"z": 0.5349427555,
				"element": "H" 
			},
			{
				"x": 2.350224074,
				"y": -1.1981753941,
				"z": 1.1472543252,
				"element": "H" 
			},
			{
				"x": 0.4319860868,
				"y": 0.078542546,
				"z": -2.4827548132,
				"element": "H" 
			},
			{
				"x": 0.012459737,
				"y": -2.2917405131,
				"z": -3.093452229,
				"element": "H" 
			},
			{
				"x": -0.9665148857,
				"y": 2.4176568273,
				"z": -0.8799425276,
				"element": "H" 
			},
			{
				"x": -2.8469573387,
				"y": 2.600500854,
				"z": 1.081083741,
				"element": "H" 
			},
			{
				"x": -1.6266095035,
				"y": 1.7930633317,
				"z": 3.3779773813,
				"element": "H" 
			},
			{
				"x": 0.9322939457,
				"y": 1.1611559216,
				"z": 2.6939428618,
				"element": "H" 
			}
		],
		 "valence_orbital": [ 
			{
				"type": "occ",
				"energy": -0.31671,
				"method": "rhf"
			},
			{
				"type": "occ",
				"energy": -0.27705,
				"method": "rhf"
			},
			{
				"type": "occ",
				"energy": -0.27576,
				"method": "rhf"
			},
			{
				"type": "occ",
				"energy": -0.25166,
				"method": "rhf"
			},
			{
				"type": "occ",
				"energy": -0.22282,
				"method": "rhf"
			},
			{
				"type": "unocc",
				"energy": -0.04734,
				"method": "rhf"
			},
			{
				"type": "unocc",
				"energy": -0.02649,
				"method": "rhf"
			},
			{
				"type": "unocc",
				"energy": 0.01516,
				"method": "rhf"
			},
			{
				"type": "unocc",
				"energy": 0.04826,
				"method": "rhf"
			},
			{
				"type": "unocc",
				"energy": 0.07093,
				"method": "rhf"
			}
		],
		"cosmo_sigma_profile": { 
			"-0.025": 0.0,
			"-0.024": 0.0,
			"-0.023": 0.0,
			"-0.022": 0.0,
			"-0.021": 0.0,
			"-0.02": 0.0,
			"-0.019": 0.0,
			"-0.018": 0.0,
			"-0.017": 0.0,
			"-0.016": 0.0,
			"-0.015": 0.0,
			"-0.014": 0.0,
			"-0.013": 0.0,
			"-0.012": 0.0,
			"-0.011": 0.0,
			"-0.01": 0.0,
			"-0.009": 0.0538588525937,
			"-0.008": 2.40408429021,
			"-0.007": 7.55731496446,
			"-0.006": 16.756120928,
			"-0.005": 21.7907535799,
			"-0.004": 17.9270218244,
			"-0.003": 20.0905207084,
			"-0.002": 17.7326322423,
			"-0.001": 21.6622478497,
			"0.0": 18.318381432,
			"0.001": 19.4599294252,
			"0.002": 18.5890448117,
			"0.003": 18.3044789561,
			"0.004": 9.54575102558,
			"0.005": 8.27702437502,
			"0.006": 9.89457509269,
			"0.007": 4.82975236644,
			"0.008": 3.60442245852,
			"0.009": 6.25109783818,
			"0.01": 8.13926826355,
			"0.011": 1.92030508914,
			"0.012": 0.0,
			"0.013": 0.0,
			"0.014": 0.0,
			"0.015": 0.0,
			"0.016": 0.0,
			"0.017": 0.0,
			"0.018": 0.0,
			"0.019": 0.0,
			"0.02": 0.0,
			"0.021": 0.0,
			"0.022": 0.0,
			"0.023": 0.0,
			"0.024": 0.0,
			"0.025": 0.0
		}
	}
}
