{
	 "smiles": "[O-][N+](=O)C1=C(CSC2=NC=CC=N2)C=CC=C1", 
	 "Tm": 334.15, 
	 "num_atms": 26, 
	 "gaussian": { 
		 "optdone": 1, 
		 "sigma_profile": "yes", 
		 "theory": "DFT", 
		 "functional": "B3LYP", 
		 "basiset": "6-31G**", 
		 "properties": { 
			 "R2extent": 5552.1128, 
			 "electric_dipole_moment_norm": 6.68608259073, 
			 "electric_quadrupole_moment_norm": 14.0667576986, 
			 "total_energy": -1137.37456566, 
			 "HOMO_LUMO_gap": 0.14403, 
			 "cosmo_polarized_energy": -14.01, 
			 "cosmo_cavitation_energy": 32.47, 
			 "cosmo_dispersion_energy": -23.99, 
			 "cosmo_repulsion_energy": 1.8, 
			 "cosmo_total_nonelectrostatic_energy": 10.27, 
			 "SMD_solvation_energy": 5.46 
		},
		"coords": [
			{
				"x": 0.7476380807,
				"y": -2.5465531898,
				"z": -3.1761040296,
				"element": "O" 
			},
			{
				"x": 0.2937915042,
				"y": -1.6839618035,
				"z": -3.9320055,
				"element": "N" 
			},
			{
				"x": -0.0210431501,
				"y": -1.8954627272,
				"z": -5.1023643755,
				"element": "O" 
			},
			{
				"x": 0.1021140125,
				"y": -0.3198671737,
				"z": -3.4083266159,
				"element": "C" 
			},
			{
				"x": 0.7361717813,
				"y": 0.1225500557,
				"z": -2.2301338164,
				"element": "C" 
			},
			{
				"x": 1.689655223,
				"y": -0.6891690409,
				"z": -1.3876874775,
				"element": "C" 
			},
			{
				"x": 0.837521742,
				"y": -1.8139588039,
				"z": -0.1959333531,
				"element": "S" 
			},
			{
				"x": 0.8370917223,
				"y": -0.8521781916,
				"z": 1.2972968112,
				"element": "C" 
			},
			{
				"x": 0.2690164811,
				"y": -1.5034863126,
				"z": 2.326498477,
				"element": "N" 
			},
			{
				"x": 0.2448236879,
				"y": -0.8566578647,
				"z": 3.4909627414,
				"element": "C" 
			},
			{
				"x": 0.7753272889,
				"y": 0.425628566,
				"z": 3.652240754,
				"element": "C" 
			},
			{
				"x": 1.3318723749,
				"y": 1.0018158629,
				"z": 2.5157465139,
				"element": "C" 
			},
			{
				"x": 1.3673295851,
				"y": 0.3771671581,
				"z": 1.3311731485,
				"element": "N" 
			},
			{
				"x": 0.4683289702,
				"y": 1.4433312089,
				"z": -1.8362014112,
				"element": "C" 
			},
			{
				"x": -0.384834556,
				"y": 2.2716126503,
				"z": -2.5613606109,
				"element": "C" 
			},
			{
				"x": -0.9951551066,
				"y": 1.8037043801,
				"z": -3.7269379618,
				"element": "C" 
			},
			{
				"x": -0.7434702504,
				"y": 0.5058505374,
				"z": -4.1542555288,
				"element": "C" 
			},
			{
				"x": 2.3176806652,
				"y": -1.342674985,
				"z": -1.9889793785,
				"element": "H" 
			},
			{
				"x": 2.3126455643,
				"y": -0.0212771158,
				"z": -0.7931183195,
				"element": "H" 
			},
			{
				"x": -0.2154203657,
				"y": -1.3843539754,
				"z": 4.3248570797,
				"element": "H" 
			},
			{
				"x": 0.7515485628,
				"y": 0.9418463639,
				"z": 4.6048094148,
				"element": "H" 
			},
			{
				"x": 1.7661769325,
				"y": 1.9997822658,
				"z": 2.5446663799,
				"element": "H" 
			},
			{
				"x": 0.9399692581,
				"y": 1.8048340994,
				"z": -0.9284306562,
				"element": "H" 
			},
			{
				"x": -0.5698642448,
				"y": 3.2851076486,
				"z": -2.2176972201,
				"element": "H" 
			},
			{
				"x": -1.6595305252,
				"y": 2.4425980916,
				"z": -4.2997406663,
				"element": "H" 
			},
			{
				"x": -1.1887852382,
				"y": 0.1082722955,
				"z": -5.057174399,
				"element": "H" 
			}
		],
		 "valence_orbital": [ 
			{
				"type": "occ",
				"energy": -0.29316,
				"method": "rhf"
			},
			{
				"type": "occ",
				"energy": -0.27616,
				"method": "rhf"
			},
			{
				"type": "occ",
				"energy": -0.26823,
				"method": "rhf"
			},
			{
				"type": "occ",
				"energy": -0.26183,
				"method": "rhf"
			},
			{
				"type": "occ",
				"energy": -0.23164,
				"method": "rhf"
			},
			{
				"type": "unocc",
				"energy": -0.08761,
				"method": "rhf"
			},
			{
				"type": "unocc",
				"energy": -0.05004,
				"method": "rhf"
			},
			{
				"type": "unocc",
				"energy": -0.03316,
				"method": "rhf"
			},
			{
				"type": "unocc",
				"energy": -0.02744,
				"method": "rhf"
			},
			{
				"type": "unocc",
				"energy": -0.00419,
				"method": "rhf"
			}
		],
		"cosmo_sigma_profile": { 
			"-0.025": 0.0,
			"-0.024": 0.0,
			"-0.023": 0.0,
			"-0.022": 0.0,
			"-0.021": 0.0,
			"-0.02": 0.0,
			"-0.019": 0.0,
			"-0.018": 0.0,
			"-0.017": 0.0,
			"-0.016": 0.0,
			"-0.015": 0.0,
			"-0.014": 0.0,
			"-0.013": 0.0,
			"-0.012": 0.0,
			"-0.011": 0.0,
			"-0.01": 0.0,
			"-0.009": 0.189717800597,
			"-0.008": 7.56297541676,
			"-0.007": 15.6477408505,
			"-0.006": 17.2101933608,
			"-0.005": 16.1412393115,
			"-0.004": 16.322101024,
			"-0.003": 15.8889371845,
			"-0.002": 15.4257667869,
			"-0.001": 18.4290725183,
			"0.0": 23.6340332213,
			"0.001": 23.1588273751,
			"0.002": 20.959145302,
			"0.003": 10.7463717719,
			"0.004": 8.7132346968,
			"0.005": 11.8656932659,
			"0.006": 11.705261604,
			"0.007": 10.6071367284,
			"0.008": 6.9091357082,
			"0.009": 5.63582437385,
			"0.01": 3.74951628663,
			"0.011": 0.602147910909,
			"0.012": 0.871553395819,
			"0.013": 1.06028890276,
			"0.014": 0.571713264523,
			"0.015": 0.0334783850607,
			"0.016": 0.0,
			"0.017": 0.0,
			"0.018": 0.0,
			"0.019": 0.0,
			"0.02": 0.0,
			"0.021": 0.0,
			"0.022": 0.0,
			"0.023": 0.0,
			"0.024": 0.0,
			"0.025": 0.0
		}
	}
}
