{
	 "smiles": "CC1=CN=C(S)C=C1", 
	 "Tm": 473.15, 
	 "num_atms": 15, 
	 "gaussian": { 
		 "optdone": 1, 
		 "sigma_profile": "yes", 
		 "theory": "DFT", 
		 "functional": "B3LYP", 
		 "basiset": "6-31G**", 
		 "properties": { 
			 "R2extent": 1754.6915, 
			 "electric_dipole_moment_norm": 2.43274247301, 
			 "electric_quadrupole_moment_norm": 2.89001399997, 
			 "total_energy": -685.796775608, 
			 "HOMO_LUMO_gap": 0.19609, 
			 "cosmo_polarized_energy": -6.3, 
			 "cosmo_cavitation_energy": 20.45, 
			 "cosmo_dispersion_energy": -15.83, 
			 "cosmo_repulsion_energy": 1.26, 
			 "cosmo_total_nonelectrostatic_energy": 5.88, 
			 "SMD_solvation_energy": 1.88 
		},
		"coords": [
			{
				"x": 1.454780118,
				"y": -0.7069116536,
				"z": 1.4940304565,
				"element": "C" 
			},
			{
				"x": 0.620227837,
				"y": 0.1414786778,
				"z": 0.568313318,
				"element": "C" 
			},
			{
				"x": 0.7630276065,
				"y": 1.5298374747,
				"z": 0.5175960088,
				"element": "C" 
			},
			{
				"x": 0.0546061442,
				"y": 2.3415121624,
				"z": -0.2802802645,
				"element": "N" 
			},
			{
				"x": -0.8509093231,
				"y": 1.7842211137,
				"z": -1.0828614913,
				"element": "C" 
			},
			{
				"x": -1.8014294175,
				"y": 2.8592333581,
				"z": -2.1513796912,
				"element": "S" 
			},
			{
				"x": -1.0884826386,
				"y": 0.4013361022,
				"z": -1.1250642053,
				"element": "C" 
			},
			{
				"x": -0.3411254975,
				"y": -0.4160043342,
				"z": -0.2885705822,
				"element": "C" 
			},
			{
				"x": 2.0500131697,
				"y": -1.4405411254,
				"z": 0.9382705936,
				"element": "H" 
			},
			{
				"x": 2.1455039494,
				"y": -0.0924242214,
				"z": 2.0781469431,
				"element": "H" 
			},
			{
				"x": 0.8288384527,
				"y": -1.2661756407,
				"z": 2.1988909702,
				"element": "H" 
			},
			{
				"x": 1.4930682989,
				"y": 2.0230838919,
				"z": 1.1586190452,
				"element": "H" 
			},
			{
				"x": -1.2010447372,
				"y": 3.9857828339,
				"z": -1.7238798057,
				"element": "H" 
			},
			{
				"x": -1.8356906111,
				"y": -0.0137975341,
				"z": -1.7937164237,
				"element": "H" 
			},
			{
				"x": -0.5027833514,
				"y": -1.4914311054,
				"z": -0.2990148716,
				"element": "H" 
			}
		],
		 "valence_orbital": [ 
			{
				"type": "occ",
				"energy": -0.34674,
				"method": "rhf"
			},
			{
				"type": "occ",
				"energy": -0.29485,
				"method": "rhf"
			},
			{
				"type": "occ",
				"energy": -0.28532,
				"method": "rhf"
			},
			{
				"type": "occ",
				"energy": -0.25998,
				"method": "rhf"
			},
			{
				"type": "occ",
				"energy": -0.22285,
				"method": "rhf"
			},
			{
				"type": "unocc",
				"energy": -0.02676,
				"method": "rhf"
			},
			{
				"type": "unocc",
				"energy": -0.00961,
				"method": "rhf"
			},
			{
				"type": "unocc",
				"energy": 0.0212,
				"method": "rhf"
			},
			{
				"type": "unocc",
				"energy": 0.08099,
				"method": "rhf"
			},
			{
				"type": "unocc",
				"energy": 0.10644,
				"method": "rhf"
			}
		],
		"cosmo_sigma_profile": { 
			"-0.025": 0.0,
			"-0.024": 0.0,
			"-0.023": 0.0,
			"-0.022": 0.0,
			"-0.021": 0.0,
			"-0.02": 0.0,
			"-0.019": 0.0,
			"-0.018": 0.0,
			"-0.017": 0.0,
			"-0.016": 0.0,
			"-0.015": 0.0,
			"-0.014": 0.0,
			"-0.013": 0.0,
			"-0.012": 0.0,
			"-0.011": 0.156417001716,
			"-0.01": 1.34446594124,
			"-0.009": 1.02829249732,
			"-0.008": 1.50013658779,
			"-0.007": 4.84245738693,
			"-0.006": 7.52601465735,
			"-0.005": 11.6822005671,
			"-0.004": 13.1675661882,
			"-0.003": 13.6741316511,
			"-0.002": 10.4811615857,
			"-0.001": 12.9085530864,
			"0.0": 14.173985737,
			"0.001": 10.0655362641,
			"0.002": 15.7721537998,
			"0.003": 15.148791825,
			"0.004": 8.7183148724,
			"0.005": 5.09877719087,
			"0.006": 4.33923816147,
			"0.007": 4.67792835765,
			"0.008": 3.15701417573,
			"0.009": 1.32904895254,
			"0.01": 1.42696897239,
			"0.011": 1.32650613305,
			"0.012": 0.635346220061,
			"0.013": 0.643151484852,
			"0.014": 0.659189998609,
			"0.015": 0.0941185145383,
			"0.016": 0.0,
			"0.017": 0.0,
			"0.018": 0.0,
			"0.019": 0.0,
			"0.02": 0.0,
			"0.021": 0.0,
			"0.022": 0.0,
			"0.023": 0.0,
			"0.024": 0.0,
			"0.025": 0.0
		}
	}
}
