{
	 "smiles": "COC(=O)CC(=C)C(=O)OC", 
	 "Tm": 310.15, 
	 "num_atms": 21, 
	 "gaussian": { 
		 "optdone": 1, 
		 "sigma_profile": "yes", 
		 "theory": "DFT", 
		 "functional": "B3LYP", 
		 "basiset": "6-31G**", 
		 "properties": { 
			 "R2extent": 2235.6692, 
			 "electric_dipole_moment_norm": 1.28056226323, 
			 "electric_quadrupole_moment_norm": 10.6768077317, 
			 "total_energy": -573.660518798, 
			 "HOMO_LUMO_gap": 0.22441, 
			 "cosmo_polarized_energy": -11.82, 
			 "cosmo_cavitation_energy": 26.08, 
			 "cosmo_dispersion_energy": -18.19, 
			 "cosmo_repulsion_energy": 1.5, 
			 "cosmo_total_nonelectrostatic_energy": 9.39, 
			 "SMD_solvation_energy": 8.27 
		},
		"coords": [
			{
				"x": -1.5363807661,
				"y": 1.6563887332,
				"z": -2.7170133072,
				"element": "C" 
			},
			{
				"x": -0.7167269243,
				"y": 2.0386843506,
				"z": -1.600306449,
				"element": "O" 
			},
			{
				"x": -0.7335154572,
				"y": 1.1833693828,
				"z": -0.5561318153,
				"element": "C" 
			},
			{
				"x": -1.3887680507,
				"y": 0.1660067205,
				"z": -0.5271974832,
				"element": "O" 
			},
			{
				"x": 0.1453591607,
				"y": 1.7053233057,
				"z": 0.5732325397,
				"element": "C" 
			},
			{
				"x": 0.5009514624,
				"y": 0.6296309467,
				"z": 1.5659270808,
				"element": "C" 
			},
			{
				"x": 0.0985254049,
				"y": 0.63170152,
				"z": 2.8407937663,
				"element": "C" 
			},
			{
				"x": 1.382818013,
				"y": -0.4432507571,
				"z": 1.0156232855,
				"element": "C" 
			},
			{
				"x": 1.8581657597,
				"y": -0.4046442386,
				"z": -0.1037885812,
				"element": "O" 
			},
			{
				"x": 1.6104203941,
				"y": -1.4507360819,
				"z": 1.8838862883,
				"element": "O" 
			},
			{
				"x": 2.4551424692,
				"y": -2.5018038756,
				"z": 1.3906210716,
				"element": "C" 
			},
			{
				"x": -1.2087765934,
				"y": 0.6952305976,
				"z": -3.1205681402,
				"element": "H" 
			},
			{
				"x": -2.5842827864,
				"y": 1.5739466825,
				"z": -2.4171363306,
				"element": "H" 
			},
			{
				"x": -1.4110652087,
				"y": 2.4456160089,
				"z": -3.458288603,
				"element": "H" 
			},
			{
				"x": 1.0442760061,
				"y": 2.1400085847,
				"z": 0.1265776485,
				"element": "H" 
			},
			{
				"x": -0.3969442444,
				"y": 2.5174206892,
				"z": 1.0702200055,
				"element": "H" 
			},
			{
				"x": 0.3871937252,
				"y": -0.1581155686,
				"z": 3.5242170318,
				"element": "H" 
			},
			{
				"x": -0.5334918647,
				"y": 1.4248267535,
				"z": 3.2295962564,
				"element": "H" 
			},
			{
				"x": 2.0158223846,
				"y": -2.9614617561,
				"z": 0.5018836966,
				"element": "H" 
			},
			{
				"x": 3.4443703599,
				"y": -2.1140646929,
				"z": 1.1339185921,
				"element": "H" 
			},
			{
				"x": 2.5264067561,
				"y": -3.2264773052,
				"z": 2.2016334465,
				"element": "H" 
			}
		],
		 "valence_orbital": [ 
			{
				"type": "occ",
				"energy": -0.30175,
				"method": "rhf"
			},
			{
				"type": "occ",
				"energy": -0.29657,
				"method": "rhf"
			},
			{
				"type": "occ",
				"energy": -0.27866,
				"method": "rhf"
			},
			{
				"type": "occ",
				"energy": -0.27349,
				"method": "rhf"
			},
			{
				"type": "occ",
				"energy": -0.26634,
				"method": "rhf"
			},
			{
				"type": "unocc",
				"energy": -0.04193,
				"method": "rhf"
			},
			{
				"type": "unocc",
				"energy": 0.01782,
				"method": "rhf"
			},
			{
				"type": "unocc",
				"energy": 0.07729,
				"method": "rhf"
			},
			{
				"type": "unocc",
				"energy": 0.10637,
				"method": "rhf"
			},
			{
				"type": "unocc",
				"energy": 0.11438,
				"method": "rhf"
			}
		],
		"cosmo_sigma_profile": { 
			"-0.025": 0.0,
			"-0.024": 0.0,
			"-0.023": 0.0,
			"-0.022": 0.0,
			"-0.021": 0.0,
			"-0.02": 0.0,
			"-0.019": 0.0,
			"-0.018": 0.0,
			"-0.017": 0.0,
			"-0.016": 0.0,
			"-0.015": 0.0,
			"-0.014": 0.0,
			"-0.013": 0.0,
			"-0.012": 0.0,
			"-0.011": 0.0,
			"-0.01": 0.0,
			"-0.009": 0.0,
			"-0.008": 1.7490062806,
			"-0.007": 7.57753727787,
			"-0.006": 14.2793929268,
			"-0.005": 20.3103121028,
			"-0.004": 20.5767442133,
			"-0.003": 26.4580175113,
			"-0.002": 16.0097311899,
			"-0.001": 11.2031955641,
			"0.0": 8.43302918251,
			"0.001": 9.89315590588,
			"0.002": 10.7640991665,
			"0.003": 7.6032526048,
			"0.004": 7.55145781603,
			"0.005": 5.93304943633,
			"0.006": 5.56711534394,
			"0.007": 6.02678004989,
			"0.008": 4.3463123283,
			"0.009": 5.04232337883,
			"0.01": 3.21677315487,
			"0.011": 6.39992302065,
			"0.012": 6.83871230248,
			"0.013": 0.385909836279,
			"0.014": 0.0,
			"0.015": 0.0,
			"0.016": 0.0,
			"0.017": 0.0,
			"0.018": 0.0,
			"0.019": 0.0,
			"0.02": 0.0,
			"0.021": 0.0,
			"0.022": 0.0,
			"0.023": 0.0,
			"0.024": 0.0,
			"0.025": 0.0
		}
	}
}
