{
	 "smiles": "CCC1=CC=C(C=CS(Cl)(=O)=O)C=C1", 
	 "Tm": 340.15, 
	 "num_atms": 25, 
	 "gaussian": { 
		 "optdone": 1, 
		 "sigma_profile": "yes", 
		 "theory": "DFT", 
		 "functional": "B3LYP", 
		 "basiset": "6-31G**", 
		 "properties": { 
			 "R2extent": 7779.3085, 
			 "electric_dipole_moment_norm": 7.45981315182, 
			 "electric_quadrupole_moment_norm": 24.405696846, 
			 "total_energy": -1396.45030282, 
			 "HOMO_LUMO_gap": 0.16138, 
			 "cosmo_polarized_energy": -11.37, 
			 "cosmo_cavitation_energy": 32.88, 
			 "cosmo_dispersion_energy": -24.17, 
			 "cosmo_repulsion_energy": 1.88, 
			 "cosmo_total_nonelectrostatic_energy": 10.59, 
			 "SMD_solvation_energy": 4.4 
		},
		"coords": [
			{
				"x": 0.75624772,
				"y": -2.7576267093,
				"z": 2.9606248352,
				"element": "C" 
			},
			{
				"x": -0.0414027831,
				"y": -1.441827754,
				"z": 3.0343731645,
				"element": "C" 
			},
			{
				"x": 0.2314281589,
				"y": -0.528939498,
				"z": 1.8602198478,
				"element": "C" 
			},
			{
				"x": 1.2465098536,
				"y": 0.4352004381,
				"z": 1.9139517683,
				"element": "C" 
			},
			{
				"x": 1.5202916347,
				"y": 1.2478087644,
				"z": 0.8180180791,
				"element": "C" 
			},
			{
				"x": 0.7859244641,
				"y": 1.1248318626,
				"z": -0.3749817729,
				"element": "C" 
			},
			{
				"x": 1.118886493,
				"y": 2.0060992547,
				"z": -1.4898908841,
				"element": "C" 
			},
			{
				"x": 0.520293688,
				"y": 2.0531764944,
				"z": -2.6914158632,
				"element": "C" 
			},
			{
				"x": 1.0491627859,
				"y": 3.2396827925,
				"z": -3.8815757693,
				"element": "S" 
			},
			{
				"x": 2.0129424314,
				"y": 1.9690687639,
				"z": -5.3108337972,
				"element": "Cl" 
			},
			{
				"x": -0.1168950687,
				"y": 3.7858142154,
				"z": -4.5654864968,
				"element": "O" 
			},
			{
				"x": 2.0928351528,
				"y": 4.0931850182,
				"z": -3.3245150873,
				"element": "O" 
			},
			{
				"x": -0.2360701657,
				"y": 0.1574181202,
				"z": -0.4289267957,
				"element": "C" 
			},
			{
				"x": -0.5035820672,
				"y": -0.64982595,
				"z": 0.6681867765,
				"element": "C" 
			},
			{
				"x": 0.5342130366,
				"y": -3.3939842072,
				"z": 3.8230573878,
				"element": "H" 
			},
			{
				"x": 1.8334688182,
				"y": -2.5637706042,
				"z": 2.9489021607,
				"element": "H" 
			},
			{
				"x": 0.5093017547,
				"y": -3.3172555874,
				"z": 2.0528292739,
				"element": "H" 
			},
			{
				"x": -1.1126879941,
				"y": -1.6708932257,
				"z": 3.0770236165,
				"element": "H" 
			},
			{
				"x": 0.2055092788,
				"y": -0.9207151864,
				"z": 3.966469668,
				"element": "H" 
			},
			{
				"x": 1.8256739927,
				"y": 0.5525996928,
				"z": 2.8261611354,
				"element": "H" 
			},
			{
				"x": 2.3099111825,
				"y": 1.9918009958,
				"z": 0.8819723002,
				"element": "H" 
			},
			{
				"x": 1.9394801308,
				"y": 2.700343326,
				"z": -1.3193322566,
				"element": "H" 
			},
			{
				"x": -0.3020720517,
				"y": 1.4407431875,
				"z": -3.04083319,
				"element": "H" 
			},
			{
				"x": -0.8268387046,
				"y": 0.0376565631,
				"z": -1.3319524851,
				"element": "H" 
			},
			{
				"x": -1.2996317415,
				"y": -1.3874907675,
				"z": 0.6066543839,
				"element": "H" 
			}
		],
		 "valence_orbital": [ 
			{
				"type": "occ",
				"energy": -0.32947,
				"method": "rhf"
			},
			{
				"type": "occ",
				"energy": -0.3157,
				"method": "rhf"
			},
			{
				"type": "occ",
				"energy": -0.30586,
				"method": "rhf"
			},
			{
				"type": "occ",
				"energy": -0.27639,
				"method": "rhf"
			},
			{
				"type": "occ",
				"energy": -0.25351,
				"method": "rhf"
			},
			{
				"type": "unocc",
				"energy": -0.09213,
				"method": "rhf"
			},
			{
				"type": "unocc",
				"energy": -0.05748,
				"method": "rhf"
			},
			{
				"type": "unocc",
				"energy": -0.02558,
				"method": "rhf"
			},
			{
				"type": "unocc",
				"energy": 0.01686,
				"method": "rhf"
			},
			{
				"type": "unocc",
				"energy": 0.05795,
				"method": "rhf"
			}
		],
		"cosmo_sigma_profile": { 
			"-0.025": 0.0,
			"-0.024": 0.0,
			"-0.023": 0.0,
			"-0.022": 0.0,
			"-0.021": 0.0,
			"-0.02": 0.0,
			"-0.019": 0.0,
			"-0.018": 0.0,
			"-0.017": 0.0,
			"-0.016": 0.0,
			"-0.015": 0.0,
			"-0.014": 0.0,
			"-0.013": 0.0,
			"-0.012": 0.0629040616822,
			"-0.011": 2.12144572013,
			"-0.01": 2.09089698089,
			"-0.009": 3.74918227601,
			"-0.008": 4.08790465251,
			"-0.007": 4.54388414323,
			"-0.006": 9.25621801538,
			"-0.005": 12.2115825436,
			"-0.004": 16.3445821851,
			"-0.003": 21.2619181802,
			"-0.002": 21.2543452467,
			"-0.001": 25.4861985171,
			"0.0": 25.6271641911,
			"0.001": 24.0194076984,
			"0.002": 16.2846685538,
			"0.003": 20.8694590437,
			"0.004": 23.3876405006,
			"0.005": 4.90851712875,
			"0.006": 3.12362496684,
			"0.007": 4.49657936636,
			"0.008": 9.6065326894,
			"0.009": 8.89695421654,
			"0.01": 0.787316123917,
			"0.011": 0.0,
			"0.012": 0.0,
			"0.013": 0.0,
			"0.014": 0.0,
			"0.015": 0.0,
			"0.016": 0.0,
			"0.017": 0.0,
			"0.018": 0.0,
			"0.019": 0.0,
			"0.02": 0.0,
			"0.021": 0.0,
			"0.022": 0.0,
			"0.023": 0.0,
			"0.024": 0.0,
			"0.025": 0.0
		}
	}
}
