{
	 "smiles": "COCC(C)(O)C(O)=O", 
	 "Tm": 327.15, 
	 "num_atms": 19, 
	 "gaussian": { 
		 "optdone": 1, 
		 "sigma_profile": "yes", 
		 "theory": "DFT", 
		 "functional": "B3LYP", 
		 "basiset": "6-31G**", 
		 "properties": { 
			 "R2extent": 1343.844, 
			 "electric_dipole_moment_norm": 1.21910941675, 
			 "electric_quadrupole_moment_norm": 9.62664640568, 
			 "total_energy": -497.443195539, 
			 "HOMO_LUMO_gap": 0.2544, 
			 "cosmo_polarized_energy": -12.44, 
			 "cosmo_cavitation_energy": 22.42, 
			 "cosmo_dispersion_energy": -16.07, 
			 "cosmo_repulsion_energy": 1.35, 
			 "cosmo_total_nonelectrostatic_energy": 7.7, 
			 "SMD_solvation_energy": 5.83 
		},
		"coords": [
			{
				"x": 1.5204497458,
				"y": -1.8091994429,
				"z": 1.8901364696,
				"element": "C" 
			},
			{
				"x": 1.3573188056,
				"y": -0.623385557,
				"z": 1.1421459808,
				"element": "O" 
			},
			{
				"x": 0.685370046,
				"y": -0.8349605181,
				"z": -0.0798769778,
				"element": "C" 
			},
			{
				"x": 0.3739398053,
				"y": 0.5212656963,
				"z": -0.7172452351,
				"element": "C" 
			},
			{
				"x": 1.6102486036,
				"y": 1.4260076755,
				"z": -0.7687788746,
				"element": "C" 
			},
			{
				"x": -0.0972429386,
				"y": 0.2094304842,
				"z": -2.031285564,
				"element": "O" 
			},
			{
				"x": -0.7845757703,
				"y": 1.2050321892,
				"z": 0.030806264,
				"element": "C" 
			},
			{
				"x": -1.1350751522,
				"y": 2.3620640452,
				"z": -0.5977225146,
				"element": "O" 
			},
			{
				"x": -1.3708442432,
				"y": 0.7947974706,
				"z": 1.0033920617,
				"element": "O" 
			},
			{
				"x": 0.5511268535,
				"y": -2.2590021089,
				"z": 2.1531703272,
				"element": "H" 
			},
			{
				"x": 2.1148277788,
				"y": -2.5594601703,
				"z": 1.3444931208,
				"element": "H" 
			},
			{
				"x": 2.0479290632,
				"y": -1.5420336127,
				"z": 2.8088887859,
				"element": "H" 
			},
			{
				"x": 1.3095851877,
				"y": -1.4041151943,
				"z": -0.7873917194,
				"element": "H" 
			},
			{
				"x": -0.2530200624,
				"y": -1.3865797034,
				"z": 0.0713003126,
				"element": "H" 
			},
			{
				"x": 2.3857126262,
				"y": 0.9305852134,
				"z": -1.3600881455,
				"element": "H" 
			},
			{
				"x": 1.9999210345,
				"y": 1.6099835972,
				"z": 0.2347991208,
				"element": "H" 
			},
			{
				"x": 1.3664767693,
				"y": 2.3838327455,
				"z": -1.2368165298,
				"element": "H" 
			},
			{
				"x": -0.3595029866,
				"y": 1.0423034683,
				"z": -2.4472345295,
				"element": "H" 
			},
			{
				"x": -1.9022451661,
				"y": 2.7125337224,
				"z": -0.1149923532,
				"element": "H" 
			}
		],
		 "valence_orbital": [ 
			{
				"type": "occ",
				"energy": -0.32564,
				"method": "rhf"
			},
			{
				"type": "occ",
				"energy": -0.32032,
				"method": "rhf"
			},
			{
				"type": "occ",
				"energy": -0.3004,
				"method": "rhf"
			},
			{
				"type": "occ",
				"energy": -0.26209,
				"method": "rhf"
			},
			{
				"type": "occ",
				"energy": -0.25307,
				"method": "rhf"
			},
			{
				"type": "unocc",
				"energy": 0.00133,
				"method": "rhf"
			},
			{
				"type": "unocc",
				"energy": 0.06205,
				"method": "rhf"
			},
			{
				"type": "unocc",
				"energy": 0.09302,
				"method": "rhf"
			},
			{
				"type": "unocc",
				"energy": 0.10333,
				"method": "rhf"
			},
			{
				"type": "unocc",
				"energy": 0.13257,
				"method": "rhf"
			}
		],
		"cosmo_sigma_profile": { 
			"-0.025": 0.0,
			"-0.024": 0.0,
			"-0.023": 0.0,
			"-0.022": 0.0,
			"-0.021": 0.0,
			"-0.02": 0.0,
			"-0.019": 0.11292219798,
			"-0.018": 0.841982608737,
			"-0.017": 1.1095293575,
			"-0.016": 0.978884718084,
			"-0.015": 0.589363859155,
			"-0.014": 1.24617769737,
			"-0.013": 2.35960518097,
			"-0.012": 1.0629437733,
			"-0.011": 0.790445684491,
			"-0.01": 1.58769920194,
			"-0.009": 1.50413765301,
			"-0.008": 1.28634149774,
			"-0.007": 2.54966282212,
			"-0.006": 2.06900773916,
			"-0.005": 3.81150492741,
			"-0.004": 18.4334987466,
			"-0.003": 21.8778241164,
			"-0.002": 21.0790468531,
			"-0.001": 13.7234747367,
			"0.0": 12.6877261463,
			"0.001": 7.75760130894,
			"0.002": 5.98136825359,
			"0.003": 4.76994554661,
			"0.004": 4.48393471586,
			"0.005": 5.20370048231,
			"0.006": 5.60904153647,
			"0.007": 3.74541769985,
			"0.008": 4.32719832542,
			"0.009": 4.45514341502,
			"0.01": 5.2125143307,
			"0.011": 7.36335387983,
			"0.012": 4.60929029928,
			"0.013": 1.07194502105,
			"0.014": 0.0,
			"0.015": 0.0,
			"0.016": 0.0,
			"0.017": 0.0,
			"0.018": 0.0,
			"0.019": 0.0,
			"0.02": 0.0,
			"0.021": 0.0,
			"0.022": 0.0,
			"0.023": 0.0,
			"0.024": 0.0,
			"0.025": 0.0
		}
	}
}
