{
	 "smiles": "CC(C)(C)C(=O)CN1C=C(N=N1)C(O)=O", 
	 "Tm": 472.15, 
	 "num_atms": 28, 
	 "gaussian": { 
		 "optdone": 1, 
		 "sigma_profile": "yes", 
		 "theory": "DFT", 
		 "functional": "B3LYP", 
		 "basiset": "6-31G**", 
		 "properties": { 
			 "R2extent": 5025.1729, 
			 "electric_dipole_moment_norm": 9.62015572067, 
			 "electric_quadrupole_moment_norm": 29.1476200263, 
			 "total_energy": -740.681307499, 
			 "HOMO_LUMO_gap": 0.21377, 
			 "cosmo_polarized_energy": -26.99, 
			 "cosmo_cavitation_energy": 32.34, 
			 "cosmo_dispersion_energy": -22.45, 
			 "cosmo_repulsion_energy": 1.76, 
			 "cosmo_total_nonelectrostatic_energy": 11.66, 
			 "SMD_solvation_energy": 5.86 
		},
		"coords": [
			{
				"x": 2.1394149392,
				"y": 0.5991253354,
				"z": 3.2650926364,
				"element": "C" 
			},
			{
				"x": 1.9624442072,
				"y": 0.4243604882,
				"z": 1.748104702,
				"element": "C" 
			},
			{
				"x": 2.9378682959,
				"y": -0.6512016141,
				"z": 1.2202266473,
				"element": "C" 
			},
			{
				"x": 2.2320199915,
				"y": 1.7730499915,
				"z": 1.0324277388,
				"element": "C" 
			},
			{
				"x": 0.506464359,
				"y": 0.0328138936,
				"z": 1.4534275223,
				"element": "C" 
			},
			{
				"x": -0.3830502049,
				"y": 0.1416724531,
				"z": 2.2735924193,
				"element": "O" 
			},
			{
				"x": 0.1897220481,
				"y": -0.5336460914,
				"z": 0.0546073725,
				"element": "C" 
			},
			{
				"x": -1.1983693751,
				"y": -0.3698965561,
				"z": -0.3251439564,
				"element": "N" 
			},
			{
				"x": -2.332159066,
				"y": -0.7466904108,
				"z": 0.3060273218,
				"element": "C" 
			},
			{
				"x": -3.34751731,
				"y": -0.3341962476,
				"z": -0.5401983744,
				"element": "C" 
			},
			{
				"x": -2.7804529858,
				"y": 0.264861518,
				"z": -1.6332039112,
				"element": "N" 
			},
			{
				"x": -1.4931712589,
				"y": 0.2526168097,
				"z": -1.5053435833,
				"element": "N" 
			},
			{
				"x": -4.8175237254,
				"y": -0.5024340792,
				"z": -0.4069361573,
				"element": "C" 
			},
			{
				"x": -5.2614544566,
				"y": -0.6744133826,
				"z": 0.8731810098,
				"element": "O" 
			},
			{
				"x": -5.5869550651,
				"y": -0.5190716686,
				"z": -1.3319355301,
				"element": "O" 
			},
			{
				"x": 1.9540516889,
				"y": -0.3392744486,
				"z": 3.7962900048,
				"element": "H" 
			},
			{
				"x": 3.1618955471,
				"y": 0.9213792304,
				"z": 3.4852219767,
				"element": "H" 
			},
			{
				"x": 1.4453387346,
				"y": 1.3441854427,
				"z": 3.6595687708,
				"element": "H" 
			},
			{
				"x": 3.9643995293,
				"y": -0.3606071123,
				"z": 1.4642231191,
				"element": "H" 
			},
			{
				"x": 2.8867738988,
				"y": -0.7711345924,
				"z": 0.1335399727,
				"element": "H" 
			},
			{
				"x": 2.752335787,
				"y": -1.6260844616,
				"z": 1.6840409333,
				"element": "H" 
			},
			{
				"x": 2.1271038173,
				"y": 1.6986183402,
				"z": -0.0545768169,
				"element": "H" 
			},
			{
				"x": 3.2564658416,
				"y": 2.0959470711,
				"z": 1.2438839355,
				"element": "H" 
			},
			{
				"x": 1.5514365697,
				"y": 2.552107221,
				"z": 1.3888686091,
				"element": "H" 
			},
			{
				"x": 0.4580787768,
				"y": -1.5980845001,
				"z": 0.0565402517,
				"element": "H" 
			},
			{
				"x": 0.7752840269,
				"y": -0.0517625425,
				"z": -0.729630058,
				"element": "H" 
			},
			{
				"x": -2.3186033797,
				"y": -1.2566136933,
				"z": 1.25507595,
				"element": "H" 
			},
			{
				"x": -4.5663412314,
				"y": -0.4369263938,
				"z": 1.5030274939,
				"element": "H" 
			}
		],
		 "valence_orbital": [ 
			{
				"type": "occ",
				"energy": -0.30996,
				"method": "rhf"
			},
			{
				"type": "occ",
				"energy": -0.29025,
				"method": "rhf"
			},
			{
				"type": "occ",
				"energy": -0.28173,
				"method": "rhf"
			},
			{
				"type": "occ",
				"energy": -0.27445,
				"method": "rhf"
			},
			{
				"type": "occ",
				"energy": -0.26602,
				"method": "rhf"
			},
			{
				"type": "unocc",
				"energy": -0.05225,
				"method": "rhf"
			},
			{
				"type": "unocc",
				"energy": -0.03129,
				"method": "rhf"
			},
			{
				"type": "unocc",
				"energy": -0.01726,
				"method": "rhf"
			},
			{
				"type": "unocc",
				"energy": 0.04671,
				"method": "rhf"
			},
			{
				"type": "unocc",
				"energy": 0.06255,
				"method": "rhf"
			}
		],
		"cosmo_sigma_profile": { 
			"-0.025": 0.0,
			"-0.024": 0.0,
			"-0.023": 0.0,
			"-0.022": 0.0,
			"-0.021": 0.0,
			"-0.02": 0.00566511269175,
			"-0.019": 0.581437763161,
			"-0.018": 1.59986131728,
			"-0.017": 0.856202176428,
			"-0.016": 1.29229815507,
			"-0.015": 1.26071104592,
			"-0.014": 1.14393887742,
			"-0.013": 1.27488335541,
			"-0.012": 1.46022825471,
			"-0.011": 1.3875423199,
			"-0.01": 4.13860778129,
			"-0.009": 7.41397708254,
			"-0.008": 6.66319138602,
			"-0.007": 7.58886610202,
			"-0.006": 7.30518103524,
			"-0.005": 10.2812863854,
			"-0.004": 18.7227103389,
			"-0.003": 22.2574752025,
			"-0.002": 21.979590737,
			"-0.001": 21.3579841935,
			"0.0": 21.8271758646,
			"0.001": 12.6507706838,
			"0.002": 4.72775042715,
			"0.003": 5.78845852895,
			"0.004": 5.25042700351,
			"0.005": 5.41353037957,
			"0.006": 4.96993537709,
			"0.007": 6.05182659742,
			"0.008": 6.77484820682,
			"0.009": 9.13897673156,
			"0.01": 11.2311854288,
			"0.011": 10.3967719236,
			"0.012": 7.07543643106,
			"0.013": 3.43868361805,
			"0.014": 1.20828067016,
			"0.015": 0.3175379534,
			"0.016": 0.0,
			"0.017": 0.0,
			"0.018": 0.0,
			"0.019": 0.0,
			"0.02": 0.0,
			"0.021": 0.0,
			"0.022": 0.0,
			"0.023": 0.0,
			"0.024": 0.0,
			"0.025": 0.0
		}
	}
}
