{
	 "smiles": "CC1=CC(C)=C(P(C2=C(C)C=C(C)C=C2C)C2=C(C)C=C(C)C=C2C)C(C)=C1", 
	 "Tm": 460.15, 
	 "num_atms": 61, 
	 "gaussian": { 
		 "optdone": 1, 
		 "sigma_profile": "yes", 
		 "theory": "DFT", 
		 "functional": "B3LYP", 
		 "basiset": "6-31G**", 
		 "properties": { 
			 "R2extent": 11609.0916, 
			 "electric_dipole_moment_norm": 0.634434433177, 
			 "electric_quadrupole_moment_norm": 5.50679238396, 
			 "total_energy": -1390.14781259, 
			 "HOMO_LUMO_gap": 0.16934, 
			 "cosmo_polarized_energy": -7.19, 
			 "cosmo_cavitation_energy": 58.49, 
			 "cosmo_dispersion_energy": -37.58, 
			 "cosmo_repulsion_energy": 2.8, 
			 "cosmo_total_nonelectrostatic_energy": 23.71, 
			 "SMD_solvation_energy": 10.47 
		},
		"coords": [
			{
				"x": 6.249515215,
				"y": -1.1516591595,
				"z": -1.8190357985,
				"element": "C" 
			},
			{
				"x": 4.8304088564,
				"y": -1.0092806418,
				"z": -1.3236971933,
				"element": "C" 
			},
			{
				"x": 4.2747412902,
				"y": 0.2432851034,
				"z": -1.065956567,
				"element": "C" 
			},
			{
				"x": 2.9688363293,
				"y": 0.4103021592,
				"z": -0.5841238974,
				"element": "C" 
			},
			{
				"x": 2.4919557865,
				"y": 1.8351089052,
				"z": -0.4040762081,
				"element": "C" 
			},
			{
				"x": 2.1723854049,
				"y": -0.7362748222,
				"z": -0.3287392636,
				"element": "C" 
			},
			{
				"x": 0.5039028309,
				"y": -0.7891682999,
				"z": 0.4851875044,
				"element": "P" 
			},
			{
				"x": 0.1568830516,
				"y": 0.8263576646,
				"z": 1.3329658863,
				"element": "C" 
			},
			{
				"x": -0.7512979342,
				"y": 1.8361387823,
				"z": 0.9209842302,
				"element": "C" 
			},
			{
				"x": -1.4644803227,
				"y": 1.8466940017,
				"z": -0.413637855,
				"element": "C" 
			},
			{
				"x": -0.9984730897,
				"y": 2.9230551696,
				"z": 1.7712940442,
				"element": "C" 
			},
			{
				"x": -0.3764750405,
				"y": 3.0693705141,
				"z": 3.0105374803,
				"element": "C" 
			},
			{
				"x": -0.6853589311,
				"y": 4.2416137501,
				"z": 3.9105047541,
				"element": "C" 
			},
			{
				"x": 0.5310165737,
				"y": 2.0810116993,
				"z": 3.3958571908,
				"element": "C" 
			},
			{
				"x": 0.7988351496,
				"y": 0.9657391371,
				"z": 2.597041025,
				"element": "C" 
			},
			{
				"x": 1.7964077949,
				"y": -0.0480744212,
				"z": 3.1163143461,
				"element": "C" 
			},
			{
				"x": -0.8106496798,
				"y": -1.1407955679,
				"z": -0.778635742,
				"element": "C" 
			},
			{
				"x": -2.0174613753,
				"y": -1.6606793528,
				"z": -0.2283394015,
				"element": "C" 
			},
			{
				"x": -2.2511216041,
				"y": -1.7611824934,
				"z": 1.2642808935,
				"element": "C" 
			},
			{
				"x": -3.0464459072,
				"y": -2.0800172653,
				"z": -1.0762552653,
				"element": "C" 
			},
			{
				"x": -2.9279393653,
				"y": -2.03390563,
				"z": -2.4664953162,
				"element": "C" 
			},
			{
				"x": -4.0340265454,
				"y": -2.5363864479,
				"z": -3.3629198711,
				"element": "C" 
			},
			{
				"x": -1.7430344381,
				"y": -1.5223567311,
				"z": -2.9940475666,
				"element": "C" 
			},
			{
				"x": -0.6876564466,
				"y": -1.0682922402,
				"z": -2.1906035839,
				"element": "C" 
			},
			{
				"x": 0.5111908605,
				"y": -0.4917764963,
				"z": -2.9119077302,
				"element": "C" 
			},
			{
				"x": 2.729290516,
				"y": -2.0212660083,
				"z": -0.5897214366,
				"element": "C" 
			},
			{
				"x": 1.9530926995,
				"y": -3.3021904969,
				"z": -0.3674664512,
				"element": "C" 
			},
			{
				"x": 4.0301065663,
				"y": -2.1289100614,
				"z": -1.0897133077,
				"element": "C" 
			},
			{
				"x": 6.3532819632,
				"y": -2.002911945,
				"z": -2.4992938343,
				"element": "H" 
			},
			{
				"x": 6.5819156155,
				"y": -0.2524710405,
				"z": -2.3464032005,
				"element": "H" 
			},
			{
				"x": 6.9451440951,
				"y": -1.3168621082,
				"z": -0.9863763893,
				"element": "H" 
			},
			{
				"x": 4.8700782133,
				"y": 1.1328851144,
				"z": -1.2609872152,
				"element": "H" 
			},
			{
				"x": 1.501160888,
				"y": 1.9957604338,
				"z": -0.8353797652,
				"element": "H" 
			},
			{
				"x": 3.1857129021,
				"y": 2.5247119666,
				"z": -0.8931453832,
				"element": "H" 
			},
			{
				"x": 2.4232208622,
				"y": 2.1232870339,
				"z": 0.6489308139,
				"element": "H" 
			},
			{
				"x": -1.9023707945,
				"y": 2.8324490021,
				"z": -0.594150576,
				"element": "H" 
			},
			{
				"x": -0.7898053782,
				"y": 1.6234558367,
				"z": -1.2433010701,
				"element": "H" 
			},
			{
				"x": -2.2718266446,
				"y": 1.1101738127,
				"z": -0.4623977804,
				"element": "H" 
			},
			{
				"x": -1.6936762312,
				"y": 3.6907887524,
				"z": 1.4379514666,
				"element": "H" 
			},
			{
				"x": -1.0486372489,
				"y": 5.1008261468,
				"z": 3.3387526595,
				"element": "H" 
			},
			{
				"x": -1.4618762303,
				"y": 3.9854219143,
				"z": 4.6425438237,
				"element": "H" 
			},
			{
				"x": 0.1977655116,
				"y": 4.5574410292,
				"z": 4.4748967767,
				"element": "H" 
			},
			{
				"x": 1.0435326673,
				"y": 2.172717263,
				"z": 4.3511772931,
				"element": "H" 
			},
			{
				"x": 1.3624084342,
				"y": -1.0528218792,
				"z": 3.1554973891,
				"element": "H" 
			},
			{
				"x": 2.6836648658,
				"y": -0.1170310939,
				"z": 2.4772318645,
				"element": "H" 
			},
			{
				"x": 2.1308175876,
				"y": 0.2243913596,
				"z": 4.1210603739,
				"element": "H" 
			},
			{
				"x": -3.2190336902,
				"y": -2.2266875266,
				"z": 1.4693312324,
				"element": "H" 
			},
			{
				"x": -2.2446673113,
				"y": -0.7786480511,
				"z": 1.7489459499,
				"element": "H" 
			},
			{
				"x": -1.47050531,
				"y": -2.3541777563,
				"z": 1.7525471825,
				"element": "H" 
			},
			{
				"x": -3.9641412727,
				"y": -2.4608727862,
				"z": -0.6329671294,
				"element": "H" 
			},
			{
				"x": -5.0206500678,
				"y": -2.3358502916,
				"z": -2.933307207,
				"element": "H" 
			},
			{
				"x": -3.9921875248,
				"y": -2.069013787,
				"z": -4.3513085047,
				"element": "H" 
			},
			{
				"x": -3.9611919284,
				"y": -3.6212610349,
				"z": -3.5120422306,
				"element": "H" 
			},
			{
				"x": -1.6343311892,
				"y": -1.4551458382,
				"z": -4.0745556413,
				"element": "H" 
			},
			{
				"x": 0.8299677648,
				"y": 0.4617237176,
				"z": -2.4843660248,
				"element": "H" 
			},
			{
				"x": 1.3802103092,
				"y": -1.1551553296,
				"z": -2.875621765,
				"element": "H" 
			},
			{
				"x": 0.2664219292,
				"y": -0.3215720005,
				"z": -3.9641283274,
				"element": "H" 
			},
			{
				"x": 2.5796262941,
				"y": -4.1715938697,
				"z": -0.58467981,
				"element": "H" 
			},
			{
				"x": 1.5969917666,
				"y": -3.3804709135,
				"z": 0.6652474731,
				"element": "H" 
			},
			{
				"x": 1.066236058,
				"y": -3.3623713152,
				"z": -1.0079538039,
				"element": "H" 
			},
			{
				"x": 4.4292948483,
				"y": -3.1201755662,
				"z": -1.2940435403,
				"element": "H" 
			}
		],
		 "valence_orbital": [ 
			{
				"type": "occ",
				"energy": -0.23269,
				"method": "rhf"
			},
			{
				"type": "occ",
				"energy": -0.22848,
				"method": "rhf"
			},
			{
				"type": "occ",
				"energy": -0.22845,
				"method": "rhf"
			},
			{
				"type": "occ",
				"energy": -0.22652,
				"method": "rhf"
			},
			{
				"type": "occ",
				"energy": -0.18523,
				"method": "rhf"
			},
			{
				"type": "unocc",
				"energy": -0.01589,
				"method": "rhf"
			},
			{
				"type": "unocc",
				"energy": -0.01586,
				"method": "rhf"
			},
			{
				"type": "unocc",
				"energy": 0.00973,
				"method": "rhf"
			},
			{
				"type": "unocc",
				"energy": 0.00977,
				"method": "rhf"
			},
			{
				"type": "unocc",
				"energy": 0.01134,
				"method": "rhf"
			}
		],
		"cosmo_sigma_profile": { 
			"-0.025": 0.0,
			"-0.024": 0.0,
			"-0.023": 0.0,
			"-0.022": 0.0,
			"-0.021": 0.0,
			"-0.02": 0.0,
			"-0.019": 0.0,
			"-0.018": 0.0,
			"-0.017": 0.0,
			"-0.016": 0.0,
			"-0.015": 0.0,
			"-0.014": 0.0,
			"-0.013": 0.0,
			"-0.012": 0.0,
			"-0.011": 0.0,
			"-0.01": 0.0,
			"-0.009": 0.0,
			"-0.008": 0.0,
			"-0.007": 0.017046890877,
			"-0.006": 1.70887888483,
			"-0.005": 8.45392425491,
			"-0.004": 41.6576073209,
			"-0.003": 41.4514510108,
			"-0.002": 49.973151203,
			"-0.001": 60.1518318101,
			"0.0": 75.9532609505,
			"0.001": 58.4747995499,
			"0.002": 31.5758837087,
			"0.003": 26.1659984417,
			"0.004": 23.5534045036,
			"0.005": 21.3052109729,
			"0.006": 12.7214709985,
			"0.007": 2.29420610895,
			"0.008": 0.557815520592,
			"0.009": 0.0,
			"0.01": 0.0,
			"0.011": 0.0,
			"0.012": 0.0,
			"0.013": 0.0,
			"0.014": 0.0,
			"0.015": 0.0,
			"0.016": 0.0,
			"0.017": 0.0,
			"0.018": 0.0,
			"0.019": 0.0,
			"0.02": 0.0,
			"0.021": 0.0,
			"0.022": 0.0,
			"0.023": 0.0,
			"0.024": 0.0,
			"0.025": 0.0
		}
	}
}
