{
	 "smiles": "CC1CCC(CC1)(NC(=O)OC(C)(C)C)C(O)=O", 
	 "Tm": 425.15, 
	 "num_atms": 41, 
	 "gaussian": { 
		 "optdone": 1, 
		 "sigma_profile": "yes", 
		 "theory": "DFT", 
		 "functional": "B3LYP", 
		 "basiset": "6-31G**", 
		 "properties": { 
			 "R2extent": 5449.5757, 
			 "electric_dipole_moment_norm": 2.57708732099, 
			 "electric_quadrupole_moment_norm": 18.7332918738, 
			 "total_energy": -864.963945412, 
			 "HOMO_LUMO_gap": 0.26901, 
			 "cosmo_polarized_energy": -15.88, 
			 "cosmo_cavitation_energy": 40.31, 
			 "cosmo_dispersion_energy": -26.66, 
			 "cosmo_repulsion_energy": 2.05, 
			 "cosmo_total_nonelectrostatic_energy": 15.71, 
			 "SMD_solvation_energy": 8.24 
		},
		"coords": [
			{
				"x": -1.3550589881,
				"y": 3.4614473326,
				"z": -2.6761743404,
				"element": "C" 
			},
			{
				"x": -0.8174458456,
				"y": 2.044651201,
				"z": -2.4495821838,
				"element": "C" 
			},
			{
				"x": -1.9014132259,
				"y": 0.9799608983,
				"z": -2.6901360034,
				"element": "C" 
			},
			{
				"x": -1.3849520464,
				"y": -0.4454240875,
				"z": -2.4385569121,
				"element": "C" 
			},
			{
				"x": -0.7569551297,
				"y": -0.6315505274,
				"z": -1.0279450259,
				"element": "C" 
			},
			{
				"x": 0.3149197862,
				"y": 0.4552551857,
				"z": -0.799707032,
				"element": "C" 
			},
			{
				"x": -0.2217049458,
				"y": 1.8724138296,
				"z": -1.0414401698,
				"element": "C" 
			},
			{
				"x": -1.863202556,
				"y": -0.5958965386,
				"z": -0.0459291046,
				"element": "N" 
			},
			{
				"x": -1.7251995078,
				"y": -0.6074381533,
				"z": 1.3394389927,
				"element": "C" 
			},
			{
				"x": -2.6078393368,
				"y": -0.2180912485,
				"z": 2.0824539069,
				"element": "O" 
			},
			{
				"x": -0.5482224753,
				"y": -1.1526614287,
				"z": 1.6924943774,
				"element": "O" 
			},
			{
				"x": -0.2163229948,
				"y": -1.4258094495,
				"z": 3.1091035314,
				"element": "C" 
			},
			{
				"x": 1.1711838632,
				"y": -2.0613406578,
				"z": 3.0047648027,
				"element": "C" 
			},
			{
				"x": -1.2315102627,
				"y": -2.4155135514,
				"z": 3.6878716445,
				"element": "C" 
			},
			{
				"x": -0.1667355205,
				"y": -0.1120974538,
				"z": 3.893798633,
				"element": "C" 
			},
			{
				"x": -0.1127773551,
				"y": -2.0397529311,
				"z": -1.025951893,
				"element": "C" 
			},
			{
				"x": -0.9465333983,
				"y": -3.0467113337,
				"z": -0.6956761823,
				"element": "O" 
			},
			{
				"x": 1.0215512587,
				"y": -2.2463985845,
				"z": -1.3834241231,
				"element": "O" 
			},
			{
				"x": -1.7535221308,
				"y": 3.5805121725,
				"z": -3.6897234575,
				"element": "H" 
			},
			{
				"x": -2.1628762713,
				"y": 3.6929750646,
				"z": -1.9713161866,
				"element": "H" 
			},
			{
				"x": -0.5685033239,
				"y": 4.2105791364,
				"z": -2.5358410276,
				"element": "H" 
			},
			{
				"x": -0.0101375051,
				"y": 1.8625106966,
				"z": -3.1759339933,
				"element": "H" 
			},
			{
				"x": -2.7674824579,
				"y": 1.200308366,
				"z": -2.0471040242,
				"element": "H" 
			},
			{
				"x": -2.2762943792,
				"y": 1.0438000388,
				"z": -3.7188221769,
				"element": "H" 
			},
			{
				"x": -0.6032690587,
				"y": -0.680643976,
				"z": -3.1688221822,
				"element": "H" 
			},
			{
				"x": -2.18487547,
				"y": -1.1816286218,
				"z": -2.5814420635,
				"element": "H" 
			},
			{
				"x": 1.1405438092,
				"y": 0.2390068515,
				"z": -1.4844223417,
				"element": "H" 
			},
			{
				"x": 0.7168402775,
				"y": 0.3581128258,
				"z": 0.2115351164,
				"element": "H" 
			},
			{
				"x": -0.9905302505,
				"y": 2.1162195099,
				"z": -0.2936097958,
				"element": "H" 
			},
			{
				"x": 0.5891108508,
				"y": 2.5949087954,
				"z": -0.8893920539,
				"element": "H" 
			},
			{
				"x": -2.6764629182,
				"y": -0.0558330364,
				"z": -0.3111426951,
				"element": "H" 
			},
			{
				"x": 1.8853824761,
				"y": -1.3644717494,
				"z": 2.5570570336,
				"element": "H" 
			},
			{
				"x": 1.5313347147,
				"y": -2.3335067049,
				"z": 4.0013042897,
				"element": "H" 
			},
			{
				"x": 1.1380233946,
				"y": -2.9623069941,
				"z": 2.3863367952,
				"element": "H" 
			},
			{
				"x": -0.9225948779,
				"y": -2.7058151966,
				"z": 4.6970116205,
				"element": "H" 
			},
			{
				"x": -2.2269543552,
				"y": -1.9730415767,
				"z": 3.7403519565,
				"element": "H" 
			},
			{
				"x": -1.2723092555,
				"y": -3.3198353497,
				"z": 3.0726935655,
				"element": "H" 
			},
			{
				"x": -1.1512549544,
				"y": 0.3535895169,
				"z": 3.9441319816,
				"element": "H" 
			},
			{
				"x": 0.5348642792,
				"y": 0.5859432791,
				"z": 3.426224706,
				"element": "H" 
			},
			{
				"x": 0.1830414547,
				"y": -0.3105197057,
				"z": 4.9119938775,
				"element": "H" 
			},
			{
				"x": -1.7746553675,
				"y": -2.6392058432,
				"z": -0.3829718626,
				"element": "H" 
			}
		],
		 "valence_orbital": [ 
			{
				"type": "occ",
				"energy": -0.30761,
				"method": "rhf"
			},
			{
				"type": "occ",
				"energy": -0.29868,
				"method": "rhf"
			},
			{
				"type": "occ",
				"energy": -0.28755,
				"method": "rhf"
			},
			{
				"type": "occ",
				"energy": -0.27586,
				"method": "rhf"
			},
			{
				"type": "occ",
				"energy": -0.25446,
				"method": "rhf"
			},
			{
				"type": "unocc",
				"energy": 0.01455,
				"method": "rhf"
			},
			{
				"type": "unocc",
				"energy": 0.03108,
				"method": "rhf"
			},
			{
				"type": "unocc",
				"energy": 0.05577,
				"method": "rhf"
			},
			{
				"type": "unocc",
				"energy": 0.07614,
				"method": "rhf"
			},
			{
				"type": "unocc",
				"energy": 0.08538,
				"method": "rhf"
			}
		],
		"cosmo_sigma_profile": { 
			"-0.025": 0.0,
			"-0.024": 0.0,
			"-0.023": 0.0,
			"-0.022": 0.0,
			"-0.021": 0.0,
			"-0.02": 0.0,
			"-0.019": 0.0,
			"-0.018": 0.0,
			"-0.017": 0.0,
			"-0.016": 0.0,
			"-0.015": 0.0464504957671,
			"-0.014": 0.505178922306,
			"-0.013": 1.11855453504,
			"-0.012": 1.43618395441,
			"-0.011": 1.85575027589,
			"-0.01": 2.59287411209,
			"-0.009": 2.15859507757,
			"-0.008": 2.47381702013,
			"-0.007": 2.87486718009,
			"-0.006": 4.32733980812,
			"-0.005": 6.6611956013,
			"-0.004": 19.6508123518,
			"-0.003": 37.1863319389,
			"-0.002": 48.007639491,
			"-0.001": 43.9693394508,
			"0.0": 43.1041430845,
			"0.001": 24.6372092566,
			"0.002": 9.3022967025,
			"0.003": 6.2722954558,
			"0.004": 6.01564595421,
			"0.005": 4.44175331619,
			"0.006": 4.50042685858,
			"0.007": 3.84371051481,
			"0.008": 4.1742429862,
			"0.009": 4.41721563298,
			"0.01": 6.31869151363,
			"0.011": 6.2352275877,
			"0.012": 8.47256871846,
			"0.013": 4.52242823292,
			"0.014": 0.303270444618,
			"0.015": 0.0,
			"0.016": 0.0,
			"0.017": 0.0,
			"0.018": 0.0,
			"0.019": 0.0,
			"0.02": 0.0,
			"0.021": 0.0,
			"0.022": 0.0,
			"0.023": 0.0,
			"0.024": 0.0,
			"0.025": 0.0
		}
	}
}
