{
	 "smiles": "OC(=O)CCCC(=O)C1=CC=C(F)C=C1", 
	 "Tm": 416.15, 
	 "num_atms": 26, 
	 "gaussian": { 
		 "optdone": 1, 
		 "sigma_profile": "yes", 
		 "theory": "DFT", 
		 "functional": "B3LYP", 
		 "basiset": "6-31G**", 
		 "properties": { 
			 "R2extent": 4996.8238, 
			 "electric_dipole_moment_norm": 3.15593735996, 
			 "electric_quadrupole_moment_norm": 12.967746032, 
			 "total_energy": -751.326584134, 
			 "HOMO_LUMO_gap": 0.19032, 
			 "cosmo_polarized_energy": -14.48, 
			 "cosmo_cavitation_energy": 31.37, 
			 "cosmo_dispersion_energy": -21.91, 
			 "cosmo_repulsion_energy": 1.72, 
			 "cosmo_total_nonelectrostatic_energy": 11.18, 
			 "SMD_solvation_energy": 7.29 
		},
		"coords": [
			{
				"x": 0.1227015847,
				"y": -0.6639056911,
				"z": -3.1584675969,
				"element": "O" 
			},
			{
				"x": -0.5385275484,
				"y": 0.4963268609,
				"z": -3.4107250385,
				"element": "C" 
			},
			{
				"x": -0.6018593331,
				"y": 0.9734235316,
				"z": -4.5217812084,
				"element": "O" 
			},
			{
				"x": -1.166917207,
				"y": 1.0715904037,
				"z": -2.1612115307,
				"element": "C" 
			},
			{
				"x": -0.16566706,
				"y": 1.2648942083,
				"z": -1.0078454978,
				"element": "C" 
			},
			{
				"x": -0.8288721774,
				"y": 1.8207339452,
				"z": 0.2743665341,
				"element": "C" 
			},
			{
				"x": -1.8069913724,
				"y": 0.8263539481,
				"z": 0.8891478209,
				"element": "C" 
			},
			{
				"x": -2.9875282887,
				"y": 0.8573886946,
				"z": 0.5637668674,
				"element": "O" 
			},
			{
				"x": -1.3147497863,
				"y": -0.2135730803,
				"z": 1.8480782809,
				"element": "C" 
			},
			{
				"x": 0.0278632662,
				"y": -0.3299631393,
				"z": 2.2439412769,
				"element": "C" 
			},
			{
				"x": 0.4262729134,
				"y": -1.3240920517,
				"z": 3.1352813184,
				"element": "C" 
			},
			{
				"x": -0.5351690411,
				"y": -2.1990143807,
				"z": 3.6298000529,
				"element": "C" 
			},
			{
				"x": -0.1575638356,
				"y": -3.1589818121,
				"z": 4.4930684406,
				"element": "F" 
			},
			{
				"x": -1.8761316614,
				"y": -2.1141851229,
				"z": 3.2606290583,
				"element": "C" 
			},
			{
				"x": -2.2558838812,
				"y": -1.1202832468,
				"z": 2.3679303188,
				"element": "C" 
			},
			{
				"x": 0.4785875112,
				"y": -0.9585646088,
				"z": -4.0136338721,
				"element": "H" 
			},
			{
				"x": -1.6295903789,
				"y": 2.0207413223,
				"z": -2.4412019948,
				"element": "H" 
			},
			{
				"x": -1.9713523343,
				"y": 0.3971356028,
				"z": -1.8453270916,
				"element": "H" 
			},
			{
				"x": 0.3309245651,
				"y": 0.313123289,
				"z": -0.7934751985,
				"element": "H" 
			},
			{
				"x": 0.6170680618,
				"y": 1.9652237838,
				"z": -1.3218454499,
				"element": "H" 
			},
			{
				"x": -0.0519427447,
				"y": 2.1073036671,
				"z": 0.9896513893,
				"element": "H" 
			},
			{
				"x": -1.4051648738,
				"y": 2.7183960468,
				"z": 0.0314543794,
				"element": "H" 
			},
			{
				"x": 0.7781976709,
				"y": 0.3515166046,
				"z": 1.8583380144,
				"element": "H" 
			},
			{
				"x": 1.4586197013,
				"y": -1.4291345923,
				"z": 3.4500676596,
				"element": "H" 
			},
			{
				"x": -2.5901094125,
				"y": -2.8192621979,
				"z": 3.6722982052,
				"element": "H" 
			},
			{
				"x": -3.288414338,
				"y": -1.0195919849,
				"z": 2.051594862,
				"element": "H" 
			}
		],
		 "valence_orbital": [ 
			{
				"type": "occ",
				"energy": -0.31782,
				"method": "rhf"
			},
			{
				"type": "occ",
				"energy": -0.27626,
				"method": "rhf"
			},
			{
				"type": "occ",
				"energy": -0.27249,
				"method": "rhf"
			},
			{
				"type": "occ",
				"energy": -0.25917,
				"method": "rhf"
			},
			{
				"type": "occ",
				"energy": -0.25329,
				"method": "rhf"
			},
			{
				"type": "unocc",
				"energy": -0.06297,
				"method": "rhf"
			},
			{
				"type": "unocc",
				"energy": -0.02518,
				"method": "rhf"
			},
			{
				"type": "unocc",
				"energy": 0.00828,
				"method": "rhf"
			},
			{
				"type": "unocc",
				"energy": 0.03403,
				"method": "rhf"
			},
			{
				"type": "unocc",
				"energy": 0.07165,
				"method": "rhf"
			}
		],
		"cosmo_sigma_profile": { 
			"-0.025": 0.0,
			"-0.024": 0.0,
			"-0.023": 0.0,
			"-0.022": 0.0,
			"-0.021": 0.0,
			"-0.02": 0.0,
			"-0.019": 0.0,
			"-0.018": 0.653099533777,
			"-0.017": 0.720351577462,
			"-0.016": 1.14684550205,
			"-0.015": 0.661489459161,
			"-0.014": 1.2066456389,
			"-0.013": 0.164989802489,
			"-0.012": 0.383997584957,
			"-0.011": 0.681935202368,
			"-0.01": 0.93609765043,
			"-0.009": 0.4639159883,
			"-0.008": 4.1681700311,
			"-0.007": 8.04411345396,
			"-0.006": 10.380100839,
			"-0.005": 19.3387685905,
			"-0.004": 19.9732044462,
			"-0.003": 21.6474194447,
			"-0.002": 17.4842278721,
			"-0.001": 15.2006342432,
			"0.0": 18.4047186504,
			"0.001": 16.8878353338,
			"0.002": 18.8696880693,
			"0.003": 16.634725574,
			"0.004": 12.994401922,
			"0.005": 5.77315046302,
			"0.006": 4.08273192969,
			"0.007": 3.50784842902,
			"0.008": 3.86740690262,
			"0.009": 4.01418098081,
			"0.01": 4.2837079684,
			"0.011": 5.93120107103,
			"0.012": 8.27194161409,
			"0.013": 2.22129759865,
			"0.014": 0.0842800034602,
			"0.015": 0.0,
			"0.016": 0.0,
			"0.017": 0.0,
			"0.018": 0.0,
			"0.019": 0.0,
			"0.02": 0.0,
			"0.021": 0.0,
			"0.022": 0.0,
			"0.023": 0.0,
			"0.024": 0.0,
			"0.025": 0.0
		}
	}
}
