{
	 "smiles": "FC1=CC=CC(=C1C#N)C(F)(F)F", 
	 "Tm": 300.15, 
	 "num_atms": 16, 
	 "gaussian": { 
		 "optdone": 1, 
		 "sigma_profile": "yes", 
		 "theory": "DFT", 
		 "functional": "B3LYP", 
		 "basiset": "6-31G**", 
		 "properties": { 
			 "R2extent": 2720.7887, 
			 "electric_dipole_moment_norm": 5.90647639884, 
			 "electric_quadrupole_moment_norm": 14.669080478, 
			 "total_energy": -760.746583749, 
			 "HOMO_LUMO_gap": 0.20242, 
			 "cosmo_polarized_energy": -9.36, 
			 "cosmo_cavitation_energy": 23.6, 
			 "cosmo_dispersion_energy": -16.15, 
			 "cosmo_repulsion_energy": 1.19, 
			 "cosmo_total_nonelectrostatic_energy": 8.64, 
			 "SMD_solvation_energy": 6.82 
		},
		"coords": [
			{
				"x": -2.6569449977,
				"y": 0.3475722073,
				"z": -3.0844032203,
				"element": "F" 
			},
			{
				"x": -1.6442701498,
				"y": 0.0900676834,
				"z": -2.2483356674,
				"element": "C" 
			},
			{
				"x": -0.7238811342,
				"y": -0.8964075161,
				"z": -2.5805526766,
				"element": "C" 
			},
			{
				"x": 0.3250534212,
				"y": -1.1552805859,
				"z": -1.7030553691,
				"element": "C" 
			},
			{
				"x": 0.4486246927,
				"y": -0.4356791129,
				"z": -0.51086606,
				"element": "C" 
			},
			{
				"x": -0.4780174466,
				"y": 0.550310946,
				"z": -0.1868127245,
				"element": "C" 
			},
			{
				"x": -1.5507281708,
				"y": 0.8302530215,
				"z": -1.0622217082,
				"element": "C" 
			},
			{
				"x": -2.5399410611,
				"y": 1.8292389581,
				"z": -0.794110941,
				"element": "C" 
			},
			{
				"x": -3.3580800594,
				"y": 2.6325049995,
				"z": -0.6048693516,
				"element": "N" 
			},
			{
				"x": -0.341724234,
				"y": 1.3273638368,
				"z": 1.1043098266,
				"element": "C" 
			},
			{
				"x": 0.7357260579,
				"y": 0.926647344,
				"z": 1.8100374588,
				"element": "F" 
			},
			{
				"x": -1.425378928,
				"y": 1.1654257279,
				"z": 1.8884501653,
				"element": "F" 
			},
			{
				"x": -0.2060798361,
				"y": 2.6469262396,
				"z": 0.8681975574,
				"element": "F" 
			},
			{
				"x": -0.8448901084,
				"y": -1.4383266693,
				"z": -3.5117060547,
				"element": "H" 
			},
			{
				"x": 1.0526870205,
				"y": -1.9224079112,
				"z": -1.9471805115,
				"element": "H" 
			},
			{
				"x": 1.2654449338,
				"y": -0.6389091686,
				"z": 0.1702192767,
				"element": "H" 
			}
		],
		 "valence_orbital": [ 
			{
				"type": "occ",
				"energy": -0.36814,
				"method": "rhf"
			},
			{
				"type": "occ",
				"energy": -0.36453,
				"method": "rhf"
			},
			{
				"type": "occ",
				"energy": -0.34227,
				"method": "rhf"
			},
			{
				"type": "occ",
				"energy": -0.29656,
				"method": "rhf"
			},
			{
				"type": "occ",
				"energy": -0.28135,
				"method": "rhf"
			},
			{
				"type": "unocc",
				"energy": -0.07893,
				"method": "rhf"
			},
			{
				"type": "unocc",
				"energy": -0.0441,
				"method": "rhf"
			},
			{
				"type": "unocc",
				"energy": 0.01968,
				"method": "rhf"
			},
			{
				"type": "unocc",
				"energy": 0.05722,
				"method": "rhf"
			},
			{
				"type": "unocc",
				"energy": 0.06468,
				"method": "rhf"
			}
		],
		"cosmo_sigma_profile": { 
			"-0.025": 0.0,
			"-0.024": 0.0,
			"-0.023": 0.0,
			"-0.022": 0.0,
			"-0.021": 0.0,
			"-0.02": 0.0,
			"-0.019": 0.0,
			"-0.018": 0.0,
			"-0.017": 0.0,
			"-0.016": 0.0,
			"-0.015": 0.0,
			"-0.014": 0.0,
			"-0.013": 0.0,
			"-0.012": 0.0,
			"-0.011": 0.0,
			"-0.01": 0.178020933385,
			"-0.009": 3.30277201228,
			"-0.008": 6.97796611425,
			"-0.007": 6.4461730589,
			"-0.006": 5.06787200729,
			"-0.005": 5.61043162674,
			"-0.004": 9.95209180851,
			"-0.003": 14.5319654862,
			"-0.002": 18.529293266,
			"-0.001": 14.2183688975,
			"0.0": 15.1675847774,
			"0.001": 16.0346078562,
			"0.002": 35.074143601,
			"0.003": 16.328672496,
			"0.004": 3.03005692278,
			"0.005": 2.87149291457,
			"0.006": 3.039752337,
			"0.007": 2.98780830532,
			"0.008": 3.21104742166,
			"0.009": 2.83001460959,
			"0.01": 2.77340389865,
			"0.011": 2.19026788618,
			"0.012": 1.57921003455,
			"0.013": 0.09890462117,
			"0.014": 0.0,
			"0.015": 0.0,
			"0.016": 0.0,
			"0.017": 0.0,
			"0.018": 0.0,
			"0.019": 0.0,
			"0.02": 0.0,
			"0.021": 0.0,
			"0.022": 0.0,
			"0.023": 0.0,
			"0.024": 0.0,
			"0.025": 0.0
		}
	}
}
