{
	 "smiles": "OC(=O)C1=CC(=C(NC2=CC(F)=C(F)C=C2)C=C1)[N+]([O-])=O", 
	 "Tm": 511.15, 
	 "num_atms": 29, 
	 "gaussian": { 
		 "optdone": 1, 
		 "sigma_profile": "yes", 
		 "theory": "DFT", 
		 "functional": "B3LYP", 
		 "basiset": "6-31G**", 
		 "properties": { 
			 "R2extent": 8388.0963, 
			 "electric_dipole_moment_norm": 5.83344177652, 
			 "electric_quadrupole_moment_norm": 29.6781792588, 
			 "total_energy": -1110.17552018, 
			 "HOMO_LUMO_gap": 0.12989, 
			 "cosmo_polarized_energy": -21.95, 
			 "cosmo_cavitation_energy": 36.34, 
			 "cosmo_dispersion_energy": -25.99, 
			 "cosmo_repulsion_energy": 1.91, 
			 "cosmo_total_nonelectrostatic_energy": 12.27, 
			 "SMD_solvation_energy": 10.11 
		},
		"coords": [
			{
				"x": -0.5512933137,
				"y": 5.5974031213,
				"z": -0.5500390818,
				"element": "O" 
			},
			{
				"x": -1.328632423,
				"y": 4.6100053108,
				"z": -1.0741636752,
				"element": "C" 
			},
			{
				"x": -2.3346998213,
				"y": 4.8934307116,
				"z": -1.6802681122,
				"element": "O" 
			},
			{
				"x": -0.8742959376,
				"y": 3.2027879844,
				"z": -0.8544995569,
				"element": "C" 
			},
			{
				"x": -1.4323228732,
				"y": 2.2112795467,
				"z": -1.6528443212,
				"element": "C" 
			},
			{
				"x": -1.0652248973,
				"y": 0.873156111,
				"z": -1.5088378184,
				"element": "C" 
			},
			{
				"x": -0.1281616892,
				"y": 0.458783045,
				"z": -0.5090247,
				"element": "C" 
			},
			{
				"x": 0.2357293081,
				"y": -0.8465613136,
				"z": -0.3536566436,
				"element": "N" 
			},
			{
				"x": 1.0017452148,
				"y": -1.4214410083,
				"z": 0.6863301466,
				"element": "C" 
			},
			{
				"x": 1.9758392991,
				"y": -2.369759154,
				"z": 0.3377221325,
				"element": "C" 
			},
			{
				"x": 2.6984460069,
				"y": -3.0075701022,
				"z": 1.3342308586,
				"element": "C" 
			},
			{
				"x": 3.6307810622,
				"y": -3.9163606045,
				"z": 1.0136494173,
				"element": "F" 
			},
			{
				"x": 2.480681521,
				"y": -2.7039815434,
				"z": 2.6785985523,
				"element": "C" 
			},
			{
				"x": 3.2054343632,
				"y": -3.3306029308,
				"z": 3.6180132124,
				"element": "F" 
			},
			{
				"x": 1.5175329134,
				"y": -1.7687471603,
				"z": 3.0302482568,
				"element": "C" 
			},
			{
				"x": 0.7672000135,
				"y": -1.1353617183,
				"z": 2.0389328352,
				"element": "C" 
			},
			{
				"x": 0.4180509826,
				"y": 1.4905084716,
				"z": 0.297919721,
				"element": "C" 
			},
			{
				"x": 0.0585877171,
				"y": 2.8120302878,
				"z": 0.1273074161,
				"element": "C" 
			},
			{
				"x": -1.690546753,
				"y": -0.0690307242,
				"z": -2.4284503217,
				"element": "N" 
			},
			{
				"x": -1.3047275508,
				"y": -1.2555547507,
				"z": -2.426046881,
				"element": "O" 
			},
			{
				"x": -2.5708807345,
				"y": 0.3392762945,
				"z": -3.1784605036,
				"element": "O" 
			},
			{
				"x": 0.3017880918,
				"y": 5.2454721732,
				"z": -0.2623696543,
				"element": "H" 
			},
			{
				"x": -2.1631967029,
				"y": 2.4784160946,
				"z": -2.4054129383,
				"element": "H" 
			},
			{
				"x": -0.1223363708,
				"y": -1.455993684,
				"z": -1.0859782283,
				"element": "H" 
			},
			{
				"x": 2.1809946695,
				"y": -2.6087479506,
				"z": -0.7000814404,
				"element": "H" 
			},
			{
				"x": 1.3488697869,
				"y": -1.5614317899,
				"z": 4.0813411629,
				"element": "H" 
			},
			{
				"x": -0.0153599678,
				"y": -0.4398578844,
				"z": 2.3192032267,
				"element": "H" 
			},
			{
				"x": 1.1464588422,
				"y": 1.2265717447,
				"z": 1.0536274711,
				"element": "H" 
			},
			{
				"x": 0.5017392428,
				"y": 3.5462814219,
				"z": 0.7960094675,
				"element": "H" 
			}
		],
		 "valence_orbital": [ 
			{
				"type": "occ",
				"energy": -0.30059,
				"method": "rhf"
			},
			{
				"type": "occ",
				"energy": -0.28751,
				"method": "rhf"
			},
			{
				"type": "occ",
				"energy": -0.28118,
				"method": "rhf"
			},
			{
				"type": "occ",
				"energy": -0.27575,
				"method": "rhf"
			},
			{
				"type": "occ",
				"energy": -0.23384,
				"method": "rhf"
			},
			{
				"type": "unocc",
				"energy": -0.10395,
				"method": "rhf"
			},
			{
				"type": "unocc",
				"energy": -0.06218,
				"method": "rhf"
			},
			{
				"type": "unocc",
				"energy": -0.03688,
				"method": "rhf"
			},
			{
				"type": "unocc",
				"energy": -0.02885,
				"method": "rhf"
			},
			{
				"type": "unocc",
				"energy": -0.01563,
				"method": "rhf"
			}
		],
		"cosmo_sigma_profile": { 
			"-0.025": 0.0,
			"-0.024": 0.0,
			"-0.023": 0.0,
			"-0.022": 0.0,
			"-0.021": 0.0,
			"-0.02": 0.0801432652322,
			"-0.019": 0.697509446011,
			"-0.018": 0.725570578133,
			"-0.017": 1.51296805027,
			"-0.016": 0.750297393787,
			"-0.015": 0.924751619269,
			"-0.014": 1.23229550601,
			"-0.013": 0.97978526859,
			"-0.012": 1.09339204917,
			"-0.011": 2.53448017718,
			"-0.01": 2.0561940436,
			"-0.009": 4.25296935726,
			"-0.008": 7.48568810567,
			"-0.007": 9.96066826921,
			"-0.006": 12.1835229128,
			"-0.005": 12.8901675296,
			"-0.004": 14.9015340079,
			"-0.003": 14.8092867938,
			"-0.002": 19.562451383,
			"-0.001": 27.3625971341,
			"0.0": 28.4436958194,
			"0.001": 23.5106776428,
			"0.002": 14.2695146999,
			"0.003": 21.0201421732,
			"0.004": 17.1278710234,
			"0.005": 4.96608221717,
			"0.006": 5.89557590146,
			"0.007": 7.86312493304,
			"0.008": 7.83157768838,
			"0.009": 7.52165640781,
			"0.01": 7.45146337799,
			"0.011": 5.50550240969,
			"0.012": 4.76625856811,
			"0.013": 1.36823877042,
			"0.014": 0.0217165626502,
			"0.015": 0.0,
			"0.016": 0.0,
			"0.017": 0.0,
			"0.018": 0.0,
			"0.019": 0.0,
			"0.02": 0.0,
			"0.021": 0.0,
			"0.022": 0.0,
			"0.023": 0.0,
			"0.024": 0.0,
			"0.025": 0.0
		}
	}
}
