{
	 "smiles": "OC(=O)C1=NC=C(Cl)C=C1", 
	 "Tm": 441.65, 
	 "num_atms": 14, 
	 "gaussian": { 
		 "optdone": 1, 
		 "sigma_profile": "yes", 
		 "theory": "DFT", 
		 "functional": "B3LYP", 
		 "basiset": "6-31G**", 
		 "properties": { 
			 "R2extent": 2303.4365, 
			 "electric_dipole_moment_norm": 3.92945404096, 
			 "electric_quadrupole_moment_norm": 12.9869644948, 
			 "total_energy": -896.450570157, 
			 "HOMO_LUMO_gap": 0.19773, 
			 "cosmo_polarized_energy": -10.39, 
			 "cosmo_cavitation_energy": 20.99, 
			 "cosmo_dispersion_energy": -15.96, 
			 "cosmo_repulsion_energy": 1.29, 
			 "cosmo_total_nonelectrostatic_energy": 6.33, 
			 "SMD_solvation_energy": 3.97 
		},
		"coords": [
			{
				"x": -1.9707390943,
				"y": 1.4164072279,
				"z": 0.4502639954,
				"element": "O" 
			},
			{
				"x": -0.8449801805,
				"y": 1.8649972368,
				"z": -0.1241728844,
				"element": "C" 
			},
			{
				"x": -0.619716414,
				"y": 3.0373853565,
				"z": -0.3214313527,
				"element": "O" 
			},
			{
				"x": 0.1220745677,
				"y": 0.7718625288,
				"z": -0.5051893113,
				"element": "C" 
			},
			{
				"x": -0.2655012701,
				"y": -0.4815185398,
				"z": -0.2238461007,
				"element": "N" 
			},
			{
				"x": 0.5488428713,
				"y": -1.4890172017,
				"z": -0.5380811676,
				"element": "C" 
			},
			{
				"x": 1.7879825294,
				"y": -1.2693257301,
				"z": -1.1495036629,
				"element": "C" 
			},
			{
				"x": 2.8100832328,
				"y": -2.630260376,
				"z": -1.5364503543,
				"element": "Cl" 
			},
			{
				"x": 2.1958353543,
				"y": 0.0317842972,
				"z": -1.4442394257,
				"element": "C" 
			},
			{
				"x": 1.3396093249,
				"y": 1.0782384227,
				"z": -1.1128834636,
				"element": "C" 
			},
			{
				"x": -1.8952955736,
				"y": 0.4407055339,
				"z": 0.4882173721,
				"element": "H" 
			},
			{
				"x": 0.2189089684,
				"y": -2.4970037682,
				"z": -0.3030640081,
				"element": "H" 
			},
			{
				"x": 3.1544923026,
				"y": 0.2126109108,
				"z": -1.9181228204,
				"element": "H" 
			},
			{
				"x": 1.5884033811,
				"y": 2.1143341011,
				"z": -1.3110968159,
				"element": "H" 
			}
		],
		 "valence_orbital": [ 
			{
				"type": "occ",
				"energy": -0.32367,
				"method": "rhf"
			},
			{
				"type": "occ",
				"energy": -0.31362,
				"method": "rhf"
			},
			{
				"type": "occ",
				"energy": -0.3128,
				"method": "rhf"
			},
			{
				"type": "occ",
				"energy": -0.28194,
				"method": "rhf"
			},
			{
				"type": "occ",
				"energy": -0.27552,
				"method": "rhf"
			},
			{
				"type": "unocc",
				"energy": -0.07779,
				"method": "rhf"
			},
			{
				"type": "unocc",
				"energy": -0.05753,
				"method": "rhf"
			},
			{
				"type": "unocc",
				"energy": 0.00537,
				"method": "rhf"
			},
			{
				"type": "unocc",
				"energy": 0.03612,
				"method": "rhf"
			},
			{
				"type": "unocc",
				"energy": 0.10242,
				"method": "rhf"
			}
		],
		"cosmo_sigma_profile": { 
			"-0.025": 0.0,
			"-0.024": 0.0,
			"-0.023": 0.0,
			"-0.022": 0.0,
			"-0.021": 0.0,
			"-0.02": 0.0,
			"-0.019": 0.0,
			"-0.018": 0.0,
			"-0.017": 0.0,
			"-0.016": 0.0,
			"-0.015": 0.0,
			"-0.014": 0.186365443281,
			"-0.013": 0.429886394719,
			"-0.012": 0.300020773984,
			"-0.011": 0.799989482023,
			"-0.01": 1.10934546756,
			"-0.009": 4.14611567059,
			"-0.008": 5.47567092292,
			"-0.007": 6.41257795832,
			"-0.006": 6.39055350119,
			"-0.005": 8.2166401729,
			"-0.004": 7.87553093269,
			"-0.003": 11.183113506,
			"-0.002": 20.6949914562,
			"-0.001": 19.5740182146,
			"0.0": 11.7393247896,
			"0.001": 7.69846180073,
			"0.002": 10.2789427038,
			"0.003": 13.4537230179,
			"0.004": 6.44258449687,
			"0.005": 2.7731952151,
			"0.006": 2.58406109837,
			"0.007": 2.68409845298,
			"0.008": 2.68896850083,
			"0.009": 4.53728149853,
			"0.01": 4.77045755638,
			"0.011": 5.05665110275,
			"0.012": 3.25132572628,
			"0.013": 1.04472744996,
			"0.014": 0.0,
			"0.015": 0.0,
			"0.016": 0.0,
			"0.017": 0.0,
			"0.018": 0.0,
			"0.019": 0.0,
			"0.02": 0.0,
			"0.021": 0.0,
			"0.022": 0.0,
			"0.023": 0.0,
			"0.024": 0.0,
			"0.025": 0.0
		}
	}
}
