{
	 "smiles": "FC1=CC=CC=C1Cl", 
	 "Tm": 230.15, 
	 "num_atms": 12, 
	 "gaussian": { 
		 "optdone": 1, 
		 "sigma_profile": "yes", 
		 "theory": "DFT", 
		 "functional": "B3LYP", 
		 "basiset": "6-31G**", 
		 "properties": { 
			 "R2extent": 1445.7726, 
			 "electric_dipole_moment_norm": 2.56928957107, 
			 "electric_quadrupole_moment_norm": 4.28965508637, 
			 "total_energy": -791.071801502, 
			 "HOMO_LUMO_gap": 0.22655, 
			 "cosmo_polarized_energy": -3.83, 
			 "cosmo_cavitation_energy": 18.32, 
			 "cosmo_dispersion_energy": -13.81, 
			 "cosmo_repulsion_energy": 1.13, 
			 "cosmo_total_nonelectrostatic_energy": 5.64, 
			 "SMD_solvation_energy": 3.46 
		},
		"coords": [
			{
				"x": -1.0764084024,
				"y": 0.8675032494,
				"z": 1.8217793315,
				"element": "F" 
			},
			{
				"x": -0.5830592757,
				"y": 0.6594992859,
				"z": 0.5908428324,
				"element": "C" 
			},
			{
				"x": -0.2808388147,
				"y": -0.6366239671,
				"z": 0.1890679227,
				"element": "C" 
			},
			{
				"x": 0.2318050448,
				"y": -0.854042502,
				"z": -1.0896624543,
				"element": "C" 
			},
			{
				"x": 0.4378227951,
				"y": 0.2231014643,
				"z": -1.9546068222,
				"element": "C" 
			},
			{
				"x": 0.132160472,
				"y": 1.5208895258,
				"z": -1.5443275746,
				"element": "C" 
			},
			{
				"x": -0.3810547988,
				"y": 1.7437501165,
				"z": -0.2657726173,
				"element": "C" 
			},
			{
				"x": -0.7722202473,
				"y": 3.3573594836,
				"z": 0.2733265281,
				"element": "Cl" 
			},
			{
				"x": -0.4529196743,
				"y": -1.4502177292,
				"z": 0.8854843674,
				"element": "H" 
			},
			{
				"x": 0.4689862857,
				"y": -1.8644268281,
				"z": -1.4070367691,
				"element": "H" 
			},
			{
				"x": 0.8365267282,
				"y": 0.0578773685,
				"z": -2.9502539208,
				"element": "H" 
			},
			{
				"x": 0.2869998874,
				"y": 2.3667305324,
				"z": -2.2053408238,
				"element": "H" 
			}
		],
		 "valence_orbital": [ 
			{
				"type": "occ",
				"energy": -0.36228,
				"method": "rhf"
			},
			{
				"type": "occ",
				"energy": -0.33966,
				"method": "rhf"
			},
			{
				"type": "occ",
				"energy": -0.31737,
				"method": "rhf"
			},
			{
				"type": "occ",
				"energy": -0.26423,
				"method": "rhf"
			},
			{
				"type": "occ",
				"energy": -0.24907,
				"method": "rhf"
			},
			{
				"type": "unocc",
				"energy": -0.02252,
				"method": "rhf"
			},
			{
				"type": "unocc",
				"energy": -0.01088,
				"method": "rhf"
			},
			{
				"type": "unocc",
				"energy": 0.0218,
				"method": "rhf"
			},
			{
				"type": "unocc",
				"energy": 0.09984,
				"method": "rhf"
			},
			{
				"type": "unocc",
				"energy": 0.13302,
				"method": "rhf"
			}
		],
		"cosmo_sigma_profile": { 
			"-0.025": 0.0,
			"-0.024": 0.0,
			"-0.023": 0.0,
			"-0.022": 0.0,
			"-0.021": 0.0,
			"-0.02": 0.0,
			"-0.019": 0.0,
			"-0.018": 0.0,
			"-0.017": 0.0,
			"-0.016": 0.0,
			"-0.015": 0.0,
			"-0.014": 0.0,
			"-0.013": 0.0,
			"-0.012": 0.0,
			"-0.011": 0.0,
			"-0.01": 0.0,
			"-0.009": 0.0,
			"-0.008": 1.65931769618,
			"-0.007": 6.68687232989,
			"-0.006": 7.59032579925,
			"-0.005": 9.84873553247,
			"-0.004": 6.50637381564,
			"-0.003": 6.34204099407,
			"-0.002": 7.41730809432,
			"-0.001": 9.84478505962,
			"0.0": 14.5388363977,
			"0.001": 15.927973599,
			"0.002": 16.3075859147,
			"0.003": 20.2411090735,
			"0.004": 20.9105239022,
			"0.005": 5.74742098701,
			"0.006": 0.432699087342,
			"0.007": 0.0,
			"0.008": 0.0,
			"0.009": 0.0,
			"0.01": 0.0,
			"0.011": 0.0,
			"0.012": 0.0,
			"0.013": 0.0,
			"0.014": 0.0,
			"0.015": 0.0,
			"0.016": 0.0,
			"0.017": 0.0,
			"0.018": 0.0,
			"0.019": 0.0,
			"0.02": 0.0,
			"0.021": 0.0,
			"0.022": 0.0,
			"0.023": 0.0,
			"0.024": 0.0,
			"0.025": 0.0
		}
	}
}
