{
	 "smiles": "IC1=CC=C(OCC2=CC3=C(C=C2)N=CC=C3)C=C1", 
	 "Tm": 435.15, 
	 "num_atms": 31, 
	 "gaussian": { 
		 "optdone": 1, 
		 "sigma_profile": "yes", 
		 "theory": "DFT", 
		 "functional": "B3LYP", 
		 "basiset": "6-31G**", 
		 "properties": { 
			 "R2extent": 7031.187, 
			 "electric_dipole_moment_norm": 3.5503108033, 
			 "electric_quadrupole_moment_norm": 18.8653490227, 
			 "total_energy": -758.292563464, 
			 "HOMO_LUMO_gap": 0.16112, 
			 "cosmo_polarized_energy": -11.36, 
			 "cosmo_cavitation_energy": 38.8, 
			 "cosmo_dispersion_energy": -29.15, 
			 "cosmo_repulsion_energy": 2.2, 
			 "cosmo_total_nonelectrostatic_energy": 11.86, 
			 "SMD_solvation_energy": 4.03 
		},
		"coords": [
			{
				"x": -5.8281280124,
				"y": 3.4333432602,
				"z": 1.7282009902,
				"element": "I" 
			},
			{
				"x": -4.3387127776,
				"y": 2.4859143567,
				"z": 0.5516527072,
				"element": "C" 
			},
			{
				"x": -3.5226381374,
				"y": 1.5106137151,
				"z": 1.1192757475,
				"element": "C" 
			},
			{
				"x": -2.5393495528,
				"y": 0.8830800698,
				"z": 0.3481324697,
				"element": "C" 
			},
			{
				"x": -2.3804428968,
				"y": 1.2347772499,
				"z": -0.9967468453,
				"element": "C" 
			},
			{
				"x": -1.4660869251,
				"y": 0.681434833,
				"z": -1.8505850204,
				"element": "O" 
			},
			{
				"x": -0.6805852885,
				"y": -0.4284488138,
				"z": -1.416258404,
				"element": "C" 
			},
			{
				"x": 0.4832660321,
				"y": -0.0513330687,
				"z": -0.5213293272,
				"element": "C" 
			},
			{
				"x": 0.8921582621,
				"y": -0.8940549027,
				"z": 0.4913043693,
				"element": "C" 
			},
			{
				"x": 2.0251965821,
				"y": -0.5847580341,
				"z": 1.2886837929,
				"element": "C" 
			},
			{
				"x": 2.7444381277,
				"y": 0.6270233478,
				"z": 1.0390520943,
				"element": "C" 
			},
			{
				"x": 2.299291522,
				"y": 1.4827564501,
				"z": -0.0044407569,
				"element": "C" 
			},
			{
				"x": 1.2028224268,
				"y": 1.1509840127,
				"z": -0.7643532717,
				"element": "C" 
			},
			{
				"x": 3.8403613573,
				"y": 0.9956650937,
				"z": 1.7644549658,
				"element": "N" 
			},
			{
				"x": 4.2351286017,
				"y": 0.1894693417,
				"z": 2.7297697428,
				"element": "C" 
			},
			{
				"x": 3.5948501582,
				"y": -1.0318569639,
				"z": 3.0615370891,
				"element": "C" 
			},
			{
				"x": 2.4898126989,
				"y": -1.4163201201,
				"z": 2.3396392234,
				"element": "C" 
			},
			{
				"x": -3.2036285928,
				"y": 2.2214627247,
				"z": -1.5579511605,
				"element": "C" 
			},
			{
				"x": -4.1793413781,
				"y": 2.8470905225,
				"z": -0.7900608443,
				"element": "C" 
			},
			{
				"x": -3.6366633177,
				"y": 1.2341713258,
				"z": 2.1615286658,
				"element": "H" 
			},
			{
				"x": -1.8970717727,
				"y": 0.1466518408,
				"z": 0.8144883293,
				"element": "H" 
			},
			{
				"x": -1.313926761,
				"y": -1.1833936145,
				"z": -0.9326134786,
				"element": "H" 
			},
			{
				"x": -0.3056552707,
				"y": -0.8621908979,
				"z": -2.3497025381,
				"element": "H" 
			},
			{
				"x": 0.3480455733,
				"y": -1.8155822069,
				"z": 0.6918029454,
				"element": "H" 
			},
			{
				"x": 2.8557872335,
				"y": 2.398499766,
				"z": -0.1753539197,
				"element": "H" 
			},
			{
				"x": 0.8632964698,
				"y": 1.8101384819,
				"z": -1.5571178928,
				"element": "H" 
			},
			{
				"x": 5.11229879,
				"y": 0.5046179312,
				"z": 3.294120596,
				"element": "H" 
			},
			{
				"x": 3.9811312144,
				"y": -1.6413300609,
				"z": 3.8723609937,
				"element": "H" 
			},
			{
				"x": 1.9683255055,
				"y": -2.3446674039,
				"z": 2.5597464933,
				"element": "H" 
			},
			{
				"x": -3.0668037729,
				"y": 2.4812960252,
				"z": -2.602530671,
				"element": "H" 
			},
			{
				"x": -4.811176099,
				"y": 3.606545739,
				"z": -1.2368070852,
				"element": "H" 
			}
		],
		 "valence_orbital": [ 
			{
				"type": "occ",
				"energy": -0.26381,
				"method": "rhf"
			},
			{
				"type": "occ",
				"energy": -0.25832,
				"method": "rhf"
			},
			{
				"type": "occ",
				"energy": -0.25454,
				"method": "rhf"
			},
			{
				"type": "occ",
				"energy": -0.2391,
				"method": "rhf"
			},
			{
				"type": "occ",
				"energy": -0.22065,
				"method": "rhf"
			},
			{
				"type": "unocc",
				"energy": -0.05953,
				"method": "rhf"
			},
			{
				"type": "unocc",
				"energy": -0.03412,
				"method": "rhf"
			},
			{
				"type": "unocc",
				"energy": -0.02503,
				"method": "rhf"
			},
			{
				"type": "unocc",
				"energy": -0.01383,
				"method": "rhf"
			},
			{
				"type": "unocc",
				"energy": -0.00429,
				"method": "rhf"
			}
		],
		"cosmo_sigma_profile": { 
			"-0.025": 0.0,
			"-0.024": 0.0,
			"-0.023": 0.0,
			"-0.022": 0.0,
			"-0.021": 0.0,
			"-0.02": 0.0,
			"-0.019": 0.0,
			"-0.018": 0.0,
			"-0.017": 0.0,
			"-0.016": 0.0,
			"-0.015": 0.0,
			"-0.014": 0.0,
			"-0.013": 0.0,
			"-0.012": 0.0,
			"-0.011": 0.0,
			"-0.01": 0.0,
			"-0.009": 0.0,
			"-0.008": 0.560361808606,
			"-0.007": 12.9011523616,
			"-0.006": 24.3536923756,
			"-0.005": 24.4829028604,
			"-0.004": 22.1936873366,
			"-0.003": 20.3084042174,
			"-0.002": 16.0537259919,
			"-0.001": 17.0245281896,
			"0.0": 18.9191889566,
			"0.001": 23.9033935347,
			"0.002": 38.8491421043,
			"0.003": 36.5106847002,
			"0.004": 31.3550834612,
			"0.005": 13.9419392447,
			"0.006": 2.21593239785,
			"0.007": 2.31016500008,
			"0.008": 2.79879689892,
			"0.009": 2.14232678646,
			"0.01": 1.08154740775,
			"0.011": 1.3237338996,
			"0.012": 0.552068708582,
			"0.013": 0.622660831224,
			"0.014": 1.2581219641,
			"0.015": 0.662282790247,
			"0.016": 0.590872732856,
			"0.017": 0.197698261925,
			"0.018": 0.0,
			"0.019": 0.0,
			"0.02": 0.0,
			"0.021": 0.0,
			"0.022": 0.0,
			"0.023": 0.0,
			"0.024": 0.0,
			"0.025": 0.0
		}
	}
}
