{
	 "smiles": "COC1=C2CCC(=O)C2=CC=C1", 
	 "Tm": 379.15, 
	 "num_atms": 22, 
	 "gaussian": { 
		 "optdone": 1, 
		 "sigma_profile": "yes", 
		 "theory": "DFT", 
		 "functional": "B3LYP", 
		 "basiset": "6-31G**", 
		 "properties": { 
			 "R2extent": 2274.4209, 
			 "electric_dipole_moment_norm": 4.65143994264, 
			 "electric_quadrupole_moment_norm": 5.05699536088, 
			 "total_energy": -537.535563636, 
			 "HOMO_LUMO_gap": 0.18033, 
			 "cosmo_polarized_energy": -10.02, 
			 "cosmo_cavitation_energy": 25.36, 
			 "cosmo_dispersion_energy": -18.85, 
			 "cosmo_repulsion_energy": 1.51, 
			 "cosmo_total_nonelectrostatic_energy": 8.02, 
			 "SMD_solvation_energy": 5.29 
		},
		"coords": [
			{
				"x": -0.5475478984,
				"y": -4.0339007131,
				"z": -1.3539576597,
				"element": "C" 
			},
			{
				"x": -0.5317141882,
				"y": -2.6388027806,
				"z": -1.616459505,
				"element": "O" 
			},
			{
				"x": -0.1129867779,
				"y": -1.7990914904,
				"z": -0.6252928123,
				"element": "C" 
			},
			{
				"x": -0.1156792061,
				"y": -0.4305821233,
				"z": -0.9340613314,
				"element": "C" 
			},
			{
				"x": -0.5265738352,
				"y": 0.227015363,
				"z": -2.2330743402,
				"element": "C" 
			},
			{
				"x": -0.3163450136,
				"y": 1.7384103229,
				"z": -1.9763485736,
				"element": "C" 
			},
			{
				"x": 0.2066925284,
				"y": 1.8647028925,
				"z": -0.5345345888,
				"element": "C" 
			},
			{
				"x": 0.4903998479,
				"y": 2.9023113945,
				"z": 0.0338979718,
				"element": "O" 
			},
			{
				"x": 0.2978451689,
				"y": 0.4918666754,
				"z": 0.024177143,
				"element": "C" 
			},
			{
				"x": 0.7227256486,
				"y": 0.1081574331,
				"z": 1.3015570497,
				"element": "C" 
			},
			{
				"x": 0.722099486,
				"y": -1.2486837503,
				"z": 1.5982563357,
				"element": "C" 
			},
			{
				"x": 0.3091244673,
				"y": -2.1997604682,
				"z": 0.6480140928,
				"element": "C" 
			},
			{
				"x": -1.2233880396,
				"y": -4.2813648951,
				"z": -0.5253139894,
				"element": "H" 
			},
			{
				"x": -0.9097219619,
				"y": -4.5087362044,
				"z": -2.2668883963,
				"element": "H" 
			},
			{
				"x": 0.456328291,
				"y": -4.4129129423,
				"z": -1.1232432721,
				"element": "H" 
			},
			{
				"x": -1.5661687349,
				"y": -0.0140616035,
				"z": -2.4823652362,
				"element": "H" 
			},
			{
				"x": 0.0788095216,
				"y": -0.1433791452,
				"z": -3.0681446068,
				"element": "H" 
			},
			{
				"x": 0.4103213036,
				"y": 2.1907285376,
				"z": -2.6589657558,
				"element": "H" 
			},
			{
				"x": -1.2386035554,
				"y": 2.3205065375,
				"z": -2.0722506875,
				"element": "H" 
			},
			{
				"x": 1.0373914165,
				"y": 0.8580031398,
				"z": 2.0198548199,
				"element": "H" 
			},
			{
				"x": 1.0433506387,
				"y": -1.5951303794,
				"z": 2.5763948173,
				"element": "H" 
			},
			{
				"x": 0.3225408927,
				"y": -3.2497958003,
				"z": 0.9167485253,
				"element": "H" 
			}
		],
		 "valence_orbital": [ 
			{
				"type": "occ",
				"energy": -0.33471,
				"method": "rhf"
			},
			{
				"type": "occ",
				"energy": -0.32129,
				"method": "rhf"
			},
			{
				"type": "occ",
				"energy": -0.25331,
				"method": "rhf"
			},
			{
				"type": "occ",
				"energy": -0.23594,
				"method": "rhf"
			},
			{
				"type": "occ",
				"energy": -0.22673,
				"method": "rhf"
			},
			{
				"type": "unocc",
				"energy": -0.0464,
				"method": "rhf"
			},
			{
				"type": "unocc",
				"energy": -0.00257,
				"method": "rhf"
			},
			{
				"type": "unocc",
				"energy": 0.05631,
				"method": "rhf"
			},
			{
				"type": "unocc",
				"energy": 0.0889,
				"method": "rhf"
			},
			{
				"type": "unocc",
				"energy": 0.09981,
				"method": "rhf"
			}
		],
		"cosmo_sigma_profile": { 
			"-0.025": 0.0,
			"-0.024": 0.0,
			"-0.023": 0.0,
			"-0.022": 0.0,
			"-0.021": 0.0,
			"-0.02": 0.0,
			"-0.019": 0.0,
			"-0.018": 0.0,
			"-0.017": 0.0,
			"-0.016": 0.0,
			"-0.015": 0.0,
			"-0.014": 0.0,
			"-0.013": 0.0,
			"-0.012": 0.0,
			"-0.011": 0.0,
			"-0.01": 0.0,
			"-0.009": 0.0,
			"-0.008": 0.0,
			"-0.007": 1.48253727546,
			"-0.006": 12.6649145729,
			"-0.005": 21.733206053,
			"-0.004": 25.2049077168,
			"-0.003": 21.2519926354,
			"-0.002": 15.3275920705,
			"-0.001": 13.4365782603,
			"0.0": 10.8062154543,
			"0.001": 10.3721693348,
			"0.002": 12.8791116616,
			"0.003": 11.8442919623,
			"0.004": 11.9390795751,
			"0.005": 6.35313350614,
			"0.006": 3.6086278371,
			"0.007": 2.75364084337,
			"0.008": 3.5695006825,
			"0.009": 3.10146173439,
			"0.01": 1.61337533327,
			"0.011": 2.88278663175,
			"0.012": 4.88267656238,
			"0.013": 3.22962737637,
			"0.014": 0.51757677822,
			"0.015": 0.0,
			"0.016": 0.0,
			"0.017": 0.0,
			"0.018": 0.0,
			"0.019": 0.0,
			"0.02": 0.0,
			"0.021": 0.0,
			"0.022": 0.0,
			"0.023": 0.0,
			"0.024": 0.0,
			"0.025": 0.0
		}
	}
}
