{
	 "smiles": "CC1=CC=CC=C1C=C", 
	 "Tm": 204.35, 
	 "num_atms": 19, 
	 "gaussian": { 
		 "optdone": 1, 
		 "sigma_profile": "yes", 
		 "theory": "DFT", 
		 "functional": "B3LYP", 
		 "basiset": "6-31G**", 
		 "properties": { 
			 "R2extent": 1422.2109, 
			 "electric_dipole_moment_norm": 0.362116528206, 
			 "electric_quadrupole_moment_norm": 5.62013855701, 
			 "total_energy": -348.971531995, 
			 "HOMO_LUMO_gap": 0.19293, 
			 "cosmo_polarized_energy": -3.8, 
			 "cosmo_cavitation_energy": 22.35, 
			 "cosmo_dispersion_energy": -16.1, 
			 "cosmo_repulsion_energy": 1.3, 
			 "cosmo_total_nonelectrostatic_energy": 7.54, 
			 "SMD_solvation_energy": 4.44 
		},
		"coords": [
			{
				"x": 0.2710913967,
				"y": -1.2424203515,
				"z": -1.9897887246,
				"element": "C" 
			},
			{
				"x": -0.1228967326,
				"y": -1.3630409728,
				"z": -0.5345458732,
				"element": "C" 
			},
			{
				"x": -0.8179459834,
				"y": -2.497089239,
				"z": -0.0988513367,
				"element": "C" 
			},
			{
				"x": -1.1913569356,
				"y": -2.6590850097,
				"z": 1.2351556466,
				"element": "C" 
			},
			{
				"x": -0.8721344493,
				"y": -1.6681054823,
				"z": 2.163890316,
				"element": "C" 
			},
			{
				"x": -0.1834115203,
				"y": -0.5322042657,
				"z": 1.7479698893,
				"element": "C" 
			},
			{
				"x": 0.2113378518,
				"y": -0.3613971661,
				"z": 0.4096292567,
				"element": "C" 
			},
			{
				"x": 0.9514153661,
				"y": 0.8449027902,
				"z": -0.0079893287,
				"element": "C" 
			},
			{
				"x": 1.7395234873,
				"y": 1.5978141839,
				"z": 0.7700418699,
				"element": "C" 
			},
			{
				"x": -0.2060095704,
				"y": -0.3810357696,
				"z": -2.4734400885,
				"element": "H" 
			},
			{
				"x": 1.3528828617,
				"y": -1.1179094971,
				"z": -2.1101918057,
				"element": "H" 
			},
			{
				"x": -0.0261578555,
				"y": -2.135094806,
				"z": -2.5463438076,
				"element": "H" 
			},
			{
				"x": -1.0679104347,
				"y": -3.2690161846,
				"z": -0.8226192296,
				"element": "H" 
			},
			{
				"x": -1.7334756593,
				"y": -3.5484426284,
				"z": 1.543649433,
				"element": "H" 
			},
			{
				"x": -1.1682643152,
				"y": -1.7728003193,
				"z": 3.2037604559,
				"element": "H" 
			},
			{
				"x": 0.0360131445,
				"y": 0.2535478169,
				"z": 2.4646588017,
				"element": "H" 
			},
			{
				"x": 0.8452729656,
				"y": 1.1330056623,
				"z": -1.0520231994,
				"element": "H" 
			},
			{
				"x": 1.9319198808,
				"y": 1.3548465444,
				"z": 1.8112757797,
				"element": "H" 
			},
			{
				"x": 2.2319065017,
				"y": 2.4827246944,
				"z": 0.3794619452,
				"element": "H" 
			}
		],
		 "valence_orbital": [ 
			{
				"type": "occ",
				"energy": -0.3343,
				"method": "rhf"
			},
			{
				"type": "occ",
				"energy": -0.32825,
				"method": "rhf"
			},
			{
				"type": "occ",
				"energy": -0.28964,
				"method": "rhf"
			},
			{
				"type": "occ",
				"energy": -0.24036,
				"method": "rhf"
			},
			{
				"type": "occ",
				"energy": -0.22044,
				"method": "rhf"
			},
			{
				"type": "unocc",
				"energy": -0.02751,
				"method": "rhf"
			},
			{
				"type": "unocc",
				"energy": 0.00581,
				"method": "rhf"
			},
			{
				"type": "unocc",
				"energy": 0.05588,
				"method": "rhf"
			},
			{
				"type": "unocc",
				"energy": 0.10109,
				"method": "rhf"
			},
			{
				"type": "unocc",
				"energy": 0.10565,
				"method": "rhf"
			}
		],
		"cosmo_sigma_profile": { 
			"-0.025": 0.0,
			"-0.024": 0.0,
			"-0.023": 0.0,
			"-0.022": 0.0,
			"-0.021": 0.0,
			"-0.02": 0.0,
			"-0.019": 0.0,
			"-0.018": 0.0,
			"-0.017": 0.0,
			"-0.016": 0.0,
			"-0.015": 0.0,
			"-0.014": 0.0,
			"-0.013": 0.0,
			"-0.012": 0.0,
			"-0.011": 0.0,
			"-0.01": 0.0,
			"-0.009": 0.0,
			"-0.008": 0.0,
			"-0.007": 0.0,
			"-0.006": 1.88690032388,
			"-0.005": 12.5442368576,
			"-0.004": 18.0934469587,
			"-0.003": 22.3742742728,
			"-0.002": 18.0666632753,
			"-0.001": 16.0014885177,
			"0.0": 16.3867172907,
			"0.001": 12.6301065679,
			"0.002": 9.80206053852,
			"0.003": 11.0215920421,
			"0.004": 12.0752700148,
			"0.005": 12.4212723266,
			"0.006": 11.5238229915,
			"0.007": 2.64128766382,
			"0.008": 0.000908857228575,
			"0.009": 0.0,
			"0.01": 0.0,
			"0.011": 0.0,
			"0.012": 0.0,
			"0.013": 0.0,
			"0.014": 0.0,
			"0.015": 0.0,
			"0.016": 0.0,
			"0.017": 0.0,
			"0.018": 0.0,
			"0.019": 0.0,
			"0.02": 0.0,
			"0.021": 0.0,
			"0.022": 0.0,
			"0.023": 0.0,
			"0.024": 0.0,
			"0.025": 0.0
		}
	}
}
