{
	 "smiles": "OCCN1CCCCC1C(C1=CC=CC=C1)C1=CC=CC=C1", 
	 "Tm": 379.15, 
	 "num_atms": 47, 
	 "gaussian": { 
		 "optdone": 1, 
		 "sigma_profile": "yes", 
		 "theory": "DFT", 
		 "functional": "B3LYP", 
		 "basiset": "6-31G**", 
		 "properties": { 
			 "R2extent": 7094.7555, 
			 "electric_dipole_moment_norm": 1.88499079308, 
			 "electric_quadrupole_moment_norm": 12.1915999893, 
			 "total_energy": -907.136677885, 
			 "HOMO_LUMO_gap": 0.16805, 
			 "cosmo_polarized_energy": -10.82, 
			 "cosmo_cavitation_energy": 44.63, 
			 "cosmo_dispersion_energy": -30.38, 
			 "cosmo_repulsion_energy": 2.35, 
			 "cosmo_total_nonelectrostatic_energy": 16.61, 
			 "SMD_solvation_energy": 4.89 
		},
		"coords": [
			{
				"x": 0.1173173813,
				"y": -1.6692953447,
				"z": 3.9996615051,
				"element": "O" 
			},
			{
				"x": -0.6215615222,
				"y": -1.3770481716,
				"z": 2.812707282,
				"element": "C" 
			},
			{
				"x": -0.209748788,
				"y": 0.0123816013,
				"z": 2.2935372661,
				"element": "C" 
			},
			{
				"x": 1.0393557742,
				"y": 0.1694278101,
				"z": 1.5666102349,
				"element": "N" 
			},
			{
				"x": 2.2314741307,
				"y": -0.1490483403,
				"z": 2.370303192,
				"element": "C" 
			},
			{
				"x": 3.5047260737,
				"y": -0.0605446034,
				"z": 1.5290489759,
				"element": "C" 
			},
			{
				"x": 3.4933545627,
				"y": -1.1266033271,
				"z": 0.4089461902,
				"element": "C" 
			},
			{
				"x": 2.0519677071,
				"y": -1.4149550287,
				"z": -0.0815822067,
				"element": "C" 
			},
			{
				"x": 1.1799141631,
				"y": -0.1575332503,
				"z": 0.1263298197,
				"element": "C" 
			},
			{
				"x": -0.1449712109,
				"y": -0.0606730619,
				"z": -0.70504601,
				"element": "C" 
			},
			{
				"x": 0.2043496127,
				"y": 0.229427201,
				"z": -2.1756450232,
				"element": "C" 
			},
			{
				"x": 0.1818783717,
				"y": -0.7374185495,
				"z": -3.1880947626,
				"element": "C" 
			},
			{
				"x": 0.5370228022,
				"y": -0.4120473982,
				"z": -4.5002645811,
				"element": "C" 
			},
			{
				"x": 0.9155881817,
				"y": 0.8887958929,
				"z": -4.8284455671,
				"element": "C" 
			},
			{
				"x": 0.9331962305,
				"y": 1.8667955267,
				"z": -3.8315579702,
				"element": "C" 
			},
			{
				"x": 0.580216589,
				"y": 1.5372268292,
				"z": -2.5241205974,
				"element": "C" 
			},
			{
				"x": -1.210048784,
				"y": -1.1469922498,
				"z": -0.5611958719,
				"element": "C" 
			},
			{
				"x": -0.9554236345,
				"y": -2.523840761,
				"z": -0.6779522197,
				"element": "C" 
			},
			{
				"x": -1.9883160842,
				"y": -3.4605352136,
				"z": -0.585311368,
				"element": "C" 
			},
			{
				"x": -3.3037733928,
				"y": -3.0461022181,
				"z": -0.3780106231,
				"element": "C" 
			},
			{
				"x": -3.5778177013,
				"y": -1.6821398382,
				"z": -0.2683652753,
				"element": "C" 
			},
			{
				"x": -2.5429939454,
				"y": -0.751564826,
				"z": -0.3616444941,
				"element": "C" 
			},
			{
				"x": -0.1060009501,
				"y": -2.5668938065,
				"z": 4.2753692725,
				"element": "H" 
			},
			{
				"x": -0.457523621,
				"y": -2.139711551,
				"z": 2.0404017349,
				"element": "H" 
			},
			{
				"x": -1.703498702,
				"y": -1.3555143045,
				"z": 3.0264193335,
				"element": "H" 
			},
			{
				"x": -1.0312651706,
				"y": 0.3942383009,
				"z": 1.6840057915,
				"element": "H" 
			},
			{
				"x": -0.1583291073,
				"y": 0.664072419,
				"z": 3.1785967194,
				"element": "H" 
			},
			{
				"x": 2.1727463124,
				"y": -1.1518087725,
				"z": 2.8213574495,
				"element": "H" 
			},
			{
				"x": 2.2714469916,
				"y": 0.5557944123,
				"z": 3.2126982453,
				"element": "H" 
			},
			{
				"x": 4.3787371332,
				"y": -0.1938487402,
				"z": 2.1757114525,
				"element": "H" 
			},
			{
				"x": 3.5862201216,
				"y": 0.9455793541,
				"z": 1.101006002,
				"element": "H" 
			},
			{
				"x": 4.1130179871,
				"y": -0.7859156569,
				"z": -0.4286576767,
				"element": "H" 
			},
			{
				"x": 3.9469676708,
				"y": -2.056191068,
				"z": 0.7719137987,
				"element": "H" 
			},
			{
				"x": 1.6292105162,
				"y": -2.2512114945,
				"z": 0.4844767383,
				"element": "H" 
			},
			{
				"x": 2.0669205109,
				"y": -1.7069707888,
				"z": -1.1373505413,
				"element": "H" 
			},
			{
				"x": 1.7693732591,
				"y": 0.6648059094,
				"z": -0.3042281559,
				"element": "H" 
			},
			{
				"x": -0.6107213147,
				"y": 0.863976827,
				"z": -0.3438668493,
				"element": "H" 
			},
			{
				"x": -0.1325144096,
				"y": -1.7502862806,
				"z": -2.9624875626,
				"element": "H" 
			},
			{
				"x": 0.5101295224,
				"y": -1.1812501098,
				"z": -5.2672967255,
				"element": "H" 
			},
			{
				"x": 1.1867929041,
				"y": 1.1410331382,
				"z": -5.8495782262,
				"element": "H" 
			},
			{
				"x": 1.2150588075,
				"y": 2.8880708495,
				"z": -4.0727031259,
				"element": "H" 
			},
			{
				"x": 0.5916687302,
				"y": 2.3085645251,
				"z": -1.7570559412,
				"element": "H" 
			},
			{
				"x": 0.0541308897,
				"y": -2.8780240962,
				"z": -0.8453492665,
				"element": "H" 
			},
			{
				"x": -1.7592017173,
				"y": -4.5186565975,
				"z": -0.6784602559,
				"element": "H" 
			},
			{
				"x": -4.1050952405,
				"y": -3.7757502112,
				"z": -0.3058031392,
				"element": "H" 
			},
			{
				"x": -4.5970000912,
				"y": -1.3400696747,
				"z": -0.1112785868,
				"element": "H" 
			},
			{
				"x": -2.7726775492,
				"y": 0.3083547386,
				"z": -0.2805483806,
				"element": "H" 
			}
		],
		 "valence_orbital": [ 
			{
				"type": "occ",
				"energy": -0.25019,
				"method": "rhf"
			},
			{
				"type": "occ",
				"energy": -0.24687,
				"method": "rhf"
			},
			{
				"type": "occ",
				"energy": -0.24264,
				"method": "rhf"
			},
			{
				"type": "occ",
				"energy": -0.2365,
				"method": "rhf"
			},
			{
				"type": "occ",
				"energy": -0.17818,
				"method": "rhf"
			},
			{
				"type": "unocc",
				"energy": -0.01013,
				"method": "rhf"
			},
			{
				"type": "unocc",
				"energy": -0.00491,
				"method": "rhf"
			},
			{
				"type": "unocc",
				"energy": 0.00263,
				"method": "rhf"
			},
			{
				"type": "unocc",
				"energy": 0.00583,
				"method": "rhf"
			},
			{
				"type": "unocc",
				"energy": 0.07635,
				"method": "rhf"
			}
		],
		"cosmo_sigma_profile": { 
			"-0.025": 0.0,
			"-0.024": 0.0,
			"-0.023": 0.0,
			"-0.022": 0.0,
			"-0.021": 0.0,
			"-0.02": 0.0,
			"-0.019": 0.0,
			"-0.018": 0.0,
			"-0.017": 0.0,
			"-0.016": 0.0374216085078,
			"-0.015": 0.83650172697,
			"-0.014": 1.07398278693,
			"-0.013": 0.875732290274,
			"-0.012": 1.1918424407,
			"-0.011": 0.811772929858,
			"-0.01": 0.56048211489,
			"-0.009": 0.667182621021,
			"-0.008": 1.2206987802,
			"-0.007": 0.560292122175,
			"-0.006": 6.38434114045,
			"-0.005": 20.5779090651,
			"-0.004": 25.7633574612,
			"-0.003": 30.7315302576,
			"-0.002": 40.9465475673,
			"-0.001": 42.5722570419,
			"0.0": 37.1168063765,
			"0.001": 30.7499135567,
			"0.002": 21.3475689427,
			"0.003": 17.7777913014,
			"0.004": 18.4562841246,
			"0.005": 17.7938337361,
			"0.006": 13.5130740619,
			"0.007": 5.10066532808,
			"0.008": 1.93689914447,
			"0.009": 1.35501068645,
			"0.01": 2.47799206086,
			"0.011": 1.30788144446,
			"0.012": 1.78722411839,
			"0.013": 1.80690215234,
			"0.014": 1.18386551462,
			"0.015": 0.978964291156,
			"0.016": 0.0,
			"0.017": 0.0,
			"0.018": 0.0,
			"0.019": 0.0,
			"0.02": 0.0,
			"0.021": 0.0,
			"0.022": 0.0,
			"0.023": 0.0,
			"0.024": 0.0,
			"0.025": 0.0
		}
	}
}
