{
	 "smiles": "NN1C(S)=NN=C1C1CCCCO1", 
	 "Tm": 436.15, 
	 "num_atms": 25, 
	 "gaussian": { 
		 "optdone": 1, 
		 "sigma_profile": "yes", 
		 "theory": "DFT", 
		 "functional": "B3LYP", 
		 "basiset": "6-31G**", 
		 "properties": { 
			 "R2extent": 3754.0288, 
			 "electric_dipole_moment_norm": 4.39928232783, 
			 "electric_quadrupole_moment_norm": 24.3971685404, 
			 "total_energy": -966.320180321, 
			 "HOMO_LUMO_gap": 0.23902, 
			 "cosmo_polarized_energy": -17.44, 
			 "cosmo_cavitation_energy": 28.67, 
			 "cosmo_dispersion_energy": -21.83, 
			 "cosmo_repulsion_energy": 1.7, 
			 "cosmo_total_nonelectrostatic_energy": 8.55, 
			 "SMD_solvation_energy": 2.27 
		},
		"coords": [
			{
				"x": 0.3813557691,
				"y": 1.1260135826,
				"z": -1.853364522,
				"element": "N" 
			},
			{
				"x": 1.509161221,
				"y": 0.8187699783,
				"z": -1.0724713588,
				"element": "N" 
			},
			{
				"x": 2.7903074884,
				"y": 0.5096169152,
				"z": -1.4601390684,
				"element": "C" 
			},
			{
				"x": 3.2852089263,
				"y": 0.424558951,
				"z": -3.1540999089,
				"element": "S" 
			},
			{
				"x": 3.5537470264,
				"y": 0.3585018213,
				"z": -0.3938172103,
				"element": "N" 
			},
			{
				"x": 2.7572399542,
				"y": 0.5342454985,
				"z": 0.7080693645,
				"element": "N" 
			},
			{
				"x": 1.5380341128,
				"y": 0.831184068,
				"z": 0.2897148443,
				"element": "C" 
			},
			{
				"x": 0.2964697191,
				"y": 1.0654733546,
				"z": 1.1014826303,
				"element": "C" 
			},
			{
				"x": 0.5693346004,
				"y": 1.0845237399,
				"z": 2.6180848334,
				"element": "C" 
			},
			{
				"x": -0.6765990949,
				"y": 0.5911736706,
				"z": 3.3640135359,
				"element": "C" 
			},
			{
				"x": -1.0033439522,
				"y": -0.8648726499,
				"z": 2.9642209364,
				"element": "C" 
			},
			{
				"x": -0.5826883382,
				"y": -1.120175868,
				"z": 1.5041517318,
				"element": "C" 
			},
			{
				"x": -0.6944345104,
				"y": 0.0793095953,
				"z": 0.7294245673,
				"element": "O" 
			},
			{
				"x": -0.3262975304,
				"y": 0.4257820219,
				"z": -1.6312420421,
				"element": "H" 
			},
			{
				"x": 0.6666122774,
				"y": 1.0295510302,
				"z": -2.8267046374,
				"element": "H" 
			},
			{
				"x": 3.2943996297,
				"y": -0.9222660483,
				"z": -3.2558257673,
				"element": "H" 
			},
			{
				"x": -0.1547993799,
				"y": 2.0132357059,
				"z": 0.7850169435,
				"element": "H" 
			},
			{
				"x": 1.4323879724,
				"y": 0.4520807415,
				"z": 2.8481102376,
				"element": "H" 
			},
			{
				"x": 0.8405579219,
				"y": 2.1010558635,
				"z": 2.9191424837,
				"element": "H" 
			},
			{
				"x": -0.5293574348,
				"y": 0.6688784302,
				"z": 4.4457096479,
				"element": "H" 
			},
			{
				"x": -1.5254323591,
				"y": 1.2380899234,
				"z": 3.1139609219,
				"element": "H" 
			},
			{
				"x": -2.0741129583,
				"y": -1.0544506045,
				"z": 3.093135574,
				"element": "H" 
			},
			{
				"x": -0.4730681011,
				"y": -1.5713619982,
				"z": 3.6141391869,
				"element": "H" 
			},
			{
				"x": 0.4478197741,
				"y": -1.5005162386,
				"z": 1.4546071816,
				"element": "H" 
			},
			{
				"x": -1.2303027341,
				"y": -1.8537014842,
				"z": 1.016479894,
				"element": "H" 
			}
		],
		 "valence_orbital": [ 
			{
				"type": "occ",
				"energy": -0.28404,
				"method": "rhf"
			},
			{
				"type": "occ",
				"energy": -0.26559,
				"method": "rhf"
			},
			{
				"type": "occ",
				"energy": -0.25904,
				"method": "rhf"
			},
			{
				"type": "occ",
				"energy": -0.25475,
				"method": "rhf"
			},
			{
				"type": "occ",
				"energy": -0.2492,
				"method": "rhf"
			},
			{
				"type": "unocc",
				"energy": -0.01018,
				"method": "rhf"
			},
			{
				"type": "unocc",
				"energy": 0.01809,
				"method": "rhf"
			},
			{
				"type": "unocc",
				"energy": 0.03765,
				"method": "rhf"
			},
			{
				"type": "unocc",
				"energy": 0.06281,
				"method": "rhf"
			},
			{
				"type": "unocc",
				"energy": 0.07543,
				"method": "rhf"
			}
		],
		"cosmo_sigma_profile": { 
			"-0.025": 0.0,
			"-0.024": 0.0,
			"-0.023": 0.0,
			"-0.022": 0.0,
			"-0.021": 0.0,
			"-0.02": 0.0,
			"-0.019": 0.0,
			"-0.018": 0.0,
			"-0.017": 0.0,
			"-0.016": 0.0,
			"-0.015": 0.0,
			"-0.014": 0.0,
			"-0.013": 0.512439352045,
			"-0.012": 3.88322933876,
			"-0.011": 4.66673159323,
			"-0.01": 3.09954126939,
			"-0.009": 3.4243061654,
			"-0.008": 4.07955439081,
			"-0.007": 3.72259697103,
			"-0.006": 6.85809260501,
			"-0.005": 8.99385738654,
			"-0.004": 13.0892111992,
			"-0.003": 24.5135018434,
			"-0.002": 28.8030038732,
			"-0.001": 24.5151656119,
			"0.0": 18.8988788486,
			"0.001": 11.576898551,
			"0.002": 8.02612746145,
			"0.003": 7.38384744835,
			"0.004": 5.85944537806,
			"0.005": 4.91737804655,
			"0.006": 5.33659111585,
			"0.007": 5.37576659544,
			"0.008": 4.81095826943,
			"0.009": 2.17214441347,
			"0.01": 3.383758494,
			"0.011": 3.97172537747,
			"0.012": 3.94277179933,
			"0.013": 4.33473297742,
			"0.014": 3.08865565054,
			"0.015": 2.59657883591,
			"0.016": 1.58494262564,
			"0.017": 0.266250259708,
			"0.018": 0.0,
			"0.019": 0.0,
			"0.02": 0.0,
			"0.021": 0.0,
			"0.022": 0.0,
			"0.023": 0.0,
			"0.024": 0.0,
			"0.025": 0.0
		}
	}
}
