{
	 "smiles": "OC1CNC(C1)C(O)=O", 
	 "Tm": 547.15, 
	 "num_atms": 18, 
	 "gaussian": { 
		 "optdone": 1, 
		 "sigma_profile": "yes", 
		 "theory": "DFT", 
		 "functional": "B3LYP", 
		 "basiset": "6-31G**", 
		 "properties": { 
			 "R2extent": 1122.8786, 
			 "electric_dipole_moment_norm": 5.01997266228, 
			 "electric_quadrupole_moment_norm": 9.0261054215, 
			 "total_energy": -476.365323379, 
			 "HOMO_LUMO_gap": 0.23339, 
			 "cosmo_polarized_energy": -20.1, 
			 "cosmo_cavitation_energy": 20.63, 
			 "cosmo_dispersion_energy": -15.47, 
			 "cosmo_repulsion_energy": 1.28, 
			 "cosmo_total_nonelectrostatic_energy": 6.44, 
			 "SMD_solvation_energy": 1.51 
		},
		"coords": [
			{
				"x": 0.0917345229,
				"y": 1.0095772731,
				"z": -1.8605984961,
				"element": "O" 
			},
			{
				"x": -1.0920625642,
				"y": 0.7481538578,
				"z": -1.1170540408,
				"element": "C" 
			},
			{
				"x": -1.36486873,
				"y": -0.755342879,
				"z": -1.224737986,
				"element": "C" 
			},
			{
				"x": -0.4704187557,
				"y": -1.4068082782,
				"z": -0.2547029913,
				"element": "N" 
			},
			{
				"x": -0.1541590099,
				"y": -0.4313021208,
				"z": 0.791532635,
				"element": "C" 
			},
			{
				"x": -0.8659880448,
				"y": 0.9056180472,
				"z": 0.3952351094,
				"element": "C" 
			},
			{
				"x": 1.3619301739,
				"y": -0.2675879082,
				"z": 0.9392344994,
				"element": "C" 
			},
			{
				"x": 1.7631481021,
				"y": 0.5475404002,
				"z": 1.950581194,
				"element": "O" 
			},
			{
				"x": 2.1776197333,
				"y": -0.816826958,
				"z": 0.242489767,
				"element": "O" 
			},
			{
				"x": 0.3473912766,
				"y": 1.9303956518,
				"z": -1.7217469364,
				"element": "H" 
			},
			{
				"x": -1.9340264303,
				"y": 1.3588927165,
				"z": -1.4753159548,
				"element": "H" 
			},
			{
				"x": -2.4147877255,
				"y": -0.9554439693,
				"z": -0.9709357594,
				"element": "H" 
			},
			{
				"x": -1.1836257414,
				"y": -1.1295793447,
				"z": -2.2351258031,
				"element": "H" 
			},
			{
				"x": 0.4106482041,
				"y": -1.6509245648,
				"z": -0.7033157727,
				"element": "H" 
			},
			{
				"x": -0.5287545449,
				"y": -0.7668289616,
				"z": 1.7723217106,
				"element": "H" 
			},
			{
				"x": -1.8290570793,
				"y": 0.9873725908,
				"z": 0.9104275971,
				"element": "H" 
			},
			{
				"x": -0.2826265405,
				"y": 1.8002111425,
				"z": 0.6397082409,
				"element": "H" 
			},
			{
				"x": 0.9944031535,
				"y": 0.8708833045,
				"z": 2.4424029871,
				"element": "H" 
			}
		],
		 "valence_orbital": [ 
			{
				"type": "occ",
				"energy": -0.33484,
				"method": "rhf"
			},
			{
				"type": "occ",
				"energy": -0.32019,
				"method": "rhf"
			},
			{
				"type": "occ",
				"energy": -0.2797,
				"method": "rhf"
			},
			{
				"type": "occ",
				"energy": -0.27664,
				"method": "rhf"
			},
			{
				"type": "occ",
				"energy": -0.22826,
				"method": "rhf"
			},
			{
				"type": "unocc",
				"energy": 0.00513,
				"method": "rhf"
			},
			{
				"type": "unocc",
				"energy": 0.05073,
				"method": "rhf"
			},
			{
				"type": "unocc",
				"energy": 0.06314,
				"method": "rhf"
			},
			{
				"type": "unocc",
				"energy": 0.09566,
				"method": "rhf"
			},
			{
				"type": "unocc",
				"energy": 0.10975,
				"method": "rhf"
			}
		],
		"cosmo_sigma_profile": { 
			"-0.025": 0.0,
			"-0.024": 0.0,
			"-0.023": 0.0,
			"-0.022": 0.0,
			"-0.021": 0.0,
			"-0.02": 0.0,
			"-0.019": 0.303547432585,
			"-0.018": 1.29193268289,
			"-0.017": 0.74367649665,
			"-0.016": 1.70425245813,
			"-0.015": 1.73977082712,
			"-0.014": 2.25256458093,
			"-0.013": 2.1605675815,
			"-0.012": 2.21166049756,
			"-0.011": 1.87895730529,
			"-0.01": 1.9414380249,
			"-0.009": 2.36061598242,
			"-0.008": 2.95166354111,
			"-0.007": 4.81629459874,
			"-0.006": 5.54332491939,
			"-0.005": 9.61738159916,
			"-0.004": 16.3943732691,
			"-0.003": 13.9360551614,
			"-0.002": 9.99579161817,
			"-0.001": 8.28665013901,
			"0.0": 4.18239495581,
			"0.001": 5.1355082607,
			"0.002": 3.71099234742,
			"0.003": 3.14684597556,
			"0.004": 4.82029108582,
			"0.005": 4.23770568339,
			"0.006": 3.6678924151,
			"0.007": 4.04676669271,
			"0.008": 4.51339718478,
			"0.009": 6.52020613737,
			"0.01": 7.77705705716,
			"0.011": 7.29558967519,
			"0.012": 4.84445836529,
			"0.013": 2.95852131791,
			"0.014": 1.47848516666,
			"0.015": 0.514149953509,
			"0.016": 0.161002975431,
			"0.017": 0.908496399041,
			"0.018": 0.357346558207,
			"0.019": 0.0,
			"0.02": 0.0,
			"0.021": 0.0,
			"0.022": 0.0,
			"0.023": 0.0,
			"0.024": 0.0,
			"0.025": 0.0
		}
	}
}
