{
	 "smiles": "OC(CCCC1=CC=CC=C1)C1=CC=CC=C1", 
	 "Tm": 320.15, 
	 "num_atms": 35, 
	 "gaussian": { 
		 "optdone": 1, 
		 "sigma_profile": "yes", 
		 "theory": "DFT", 
		 "functional": "B3LYP", 
		 "basiset": "6-31G**", 
		 "properties": { 
			 "R2extent": 4722.094, 
			 "electric_dipole_moment_norm": 1.68392433619, 
			 "electric_quadrupole_moment_norm": 8.98447044015, 
			 "total_energy": -695.779460319, 
			 "HOMO_LUMO_gap": 0.22406, 
			 "cosmo_polarized_energy": -9.21, 
			 "cosmo_cavitation_energy": 37.03, 
			 "cosmo_dispersion_energy": -25.04, 
			 "cosmo_repulsion_energy": 1.96, 
			 "cosmo_total_nonelectrostatic_energy": 13.95, 
			 "SMD_solvation_energy": 5.55 
		},
		"coords": [
			{
				"x": -2.2082499223,
				"y": 1.1342878222,
				"z": -2.3034276561,
				"element": "O" 
			},
			{
				"x": -1.6262688343,
				"y": -0.1134201018,
				"z": -1.9154053294,
				"element": "C" 
			},
			{
				"x": -1.7109268104,
				"y": -0.1321482647,
				"z": -0.3786983953,
				"element": "C" 
			},
			{
				"x": -1.3747169375,
				"y": -1.4743824695,
				"z": 0.2976572507,
				"element": "C" 
			},
			{
				"x": 0.1156515518,
				"y": -1.7156633569,
				"z": 0.6395478654,
				"element": "C" 
			},
			{
				"x": 0.6613485148,
				"y": -0.7776118956,
				"z": 1.6978082562,
				"element": "C" 
			},
			{
				"x": 1.5332087956,
				"y": 0.2678365149,
				"z": 1.3650365333,
				"element": "C" 
			},
			{
				"x": 2.0221288051,
				"y": 1.1358231363,
				"z": 2.3445887606,
				"element": "C" 
			},
			{
				"x": 1.647622394,
				"y": 0.9713238062,
				"z": 3.6782312549,
				"element": "C" 
			},
			{
				"x": 0.7821224244,
				"y": -0.0689780601,
				"z": 4.0255703935,
				"element": "C" 
			},
			{
				"x": 0.2966558048,
				"y": -0.9324367782,
				"z": 3.0440982972,
				"element": "C" 
			},
			{
				"x": -0.2247929202,
				"y": -0.2616734855,
				"z": -2.48674469,
				"element": "C" 
			},
			{
				"x": 0.6638655281,
				"y": 0.8238306477,
				"z": -2.4635456323,
				"element": "C" 
			},
			{
				"x": 1.9540382321,
				"y": 0.6964208279,
				"z": -2.9783039666,
				"element": "C" 
			},
			{
				"x": 2.3750506762,
				"y": -0.5179546945,
				"z": -3.5281014213,
				"element": "C" 
			},
			{
				"x": 1.4941077419,
				"y": -1.5994365507,
				"z": -3.5681649046,
				"element": "C" 
			},
			{
				"x": 0.2008575567,
				"y": -1.4675039329,
				"z": -3.0563557786,
				"element": "C" 
			},
			{
				"x": -2.1004537591,
				"y": 1.2217222809,
				"z": -3.2599584202,
				"element": "H" 
			},
			{
				"x": -2.2387495546,
				"y": -0.9491628851,
				"z": -2.2956693891,
				"element": "H" 
			},
			{
				"x": -2.7448620249,
				"y": 0.1432238898,
				"z": -0.1422368704,
				"element": "H" 
			},
			{
				"x": -1.0805847484,
				"y": 0.6695971926,
				"z": 0.0223355801,
				"element": "H" 
			},
			{
				"x": -1.9481853946,
				"y": -1.5434228753,
				"z": 1.2296517564,
				"element": "H" 
			},
			{
				"x": -1.730073004,
				"y": -2.3020027718,
				"z": -0.3314771859,
				"element": "H" 
			},
			{
				"x": 0.2133581765,
				"y": -2.7494652546,
				"z": 0.9955944548,
				"element": "H" 
			},
			{
				"x": 0.7242365129,
				"y": -1.6412600991,
				"z": -0.2659559855,
				"element": "H" 
			},
			{
				"x": 1.8330479951,
				"y": 0.398848744,
				"z": 0.3284665161,
				"element": "H" 
			},
			{
				"x": 2.6983369081,
				"y": 1.9389742229,
				"z": 2.0640703659,
				"element": "H" 
			},
			{
				"x": 2.0287183515,
				"y": 1.6437700294,
				"z": 4.4415938842,
				"element": "H" 
			},
			{
				"x": 0.4896394034,
				"y": -0.2104472898,
				"z": 5.0625746768,
				"element": "H" 
			},
			{
				"x": -0.3704239463,
				"y": -1.7443366537,
				"z": 3.3261804367,
				"element": "H" 
			},
			{
				"x": 0.3269489614,
				"y": 1.7696512248,
				"z": -2.0496406286,
				"element": "H" 
			},
			{
				"x": 2.6312162493,
				"y": 1.5459352742,
				"z": -2.9553367742,
				"element": "H" 
			},
			{
				"x": 3.3794823985,
				"y": -0.6164669261,
				"z": -3.9296962671,
				"element": "H" 
			},
			{
				"x": 1.8088667555,
				"y": -2.542939624,
				"z": -4.0053048187,
				"element": "H" 
			},
			{
				"x": -0.485821881,
				"y": -2.3098316437,
				"z": -3.1003821691,
				"element": "H" 
			}
		],
		 "valence_orbital": [ 
			{
				"type": "occ",
				"energy": -0.27431,
				"method": "rhf"
			},
			{
				"type": "occ",
				"energy": -0.25347,
				"method": "rhf"
			},
			{
				"type": "occ",
				"energy": -0.24353,
				"method": "rhf"
			},
			{
				"type": "occ",
				"energy": -0.24036,
				"method": "rhf"
			},
			{
				"type": "occ",
				"energy": -0.23273,
				"method": "rhf"
			},
			{
				"type": "unocc",
				"energy": -0.00867,
				"method": "rhf"
			},
			{
				"type": "unocc",
				"energy": -0.00597,
				"method": "rhf"
			},
			{
				"type": "unocc",
				"energy": 0.00535,
				"method": "rhf"
			},
			{
				"type": "unocc",
				"energy": 0.00901,
				"method": "rhf"
			},
			{
				"type": "unocc",
				"energy": 0.08765,
				"method": "rhf"
			}
		],
		"cosmo_sigma_profile": { 
			"-0.025": 0.0,
			"-0.024": 0.0,
			"-0.023": 0.0,
			"-0.022": 0.0,
			"-0.021": 0.0,
			"-0.02": 0.0,
			"-0.019": 0.0,
			"-0.018": 0.0,
			"-0.017": 0.0,
			"-0.016": 0.0171619984448,
			"-0.015": 0.500475249832,
			"-0.014": 0.885577782318,
			"-0.013": 0.91355878972,
			"-0.012": 0.385639442634,
			"-0.011": 0.879274220939,
			"-0.01": 1.31013190397,
			"-0.009": 0.655230507503,
			"-0.008": 0.425533790112,
			"-0.007": 0.819187618094,
			"-0.006": 4.88001089319,
			"-0.005": 17.7250934669,
			"-0.004": 22.874836774,
			"-0.003": 34.0331362847,
			"-0.002": 27.3304779977,
			"-0.001": 30.2753848386,
			"0.0": 28.5509017186,
			"0.001": 26.7270274655,
			"0.002": 17.897087343,
			"0.003": 16.3137328143,
			"0.004": 16.3404402164,
			"0.005": 15.0832307207,
			"0.006": 12.9798047927,
			"0.007": 4.86655183082,
			"0.008": 0.987101585781,
			"0.009": 1.57510894893,
			"0.01": 1.1734865109,
			"0.011": 1.04155844076,
			"0.012": 0.945007207484,
			"0.013": 1.7425990785,
			"0.014": 1.71632098435,
			"0.015": 0.165721771678,
			"0.016": 0.0,
			"0.017": 0.0,
			"0.018": 0.0,
			"0.019": 0.0,
			"0.02": 0.0,
			"0.021": 0.0,
			"0.022": 0.0,
			"0.023": 0.0,
			"0.024": 0.0,
			"0.025": 0.0
		}
	}
}
