{
	 "smiles": "NC1=C(N2CCOCC2)C(Cl)=CC=C1", 
	 "Tm": 428.15, 
	 "num_atms": 27, 
	 "gaussian": { 
		 "optdone": 1, 
		 "sigma_profile": "yes", 
		 "theory": "DFT", 
		 "functional": "B3LYP", 
		 "basiset": "6-31G**", 
		 "properties": { 
			 "R2extent": 3619.1113, 
			 "electric_dipole_moment_norm": 1.51208159171, 
			 "electric_quadrupole_moment_norm": 8.61836862811, 
			 "total_energy": -1033.78875229, 
			 "HOMO_LUMO_gap": 0.19567, 
			 "cosmo_polarized_energy": -8.95, 
			 "cosmo_cavitation_energy": 30.15, 
			 "cosmo_dispersion_energy": -21.96, 
			 "cosmo_repulsion_energy": 1.72, 
			 "cosmo_total_nonelectrostatic_energy": 9.9, 
			 "SMD_solvation_energy": 4.75 
		},
		"coords": [
			{
				"x": -0.7952438114,
				"y": -1.4613027248,
				"z": 2.0823158904,
				"element": "N" 
			},
			{
				"x": -1.5523885151,
				"y": -1.6312742484,
				"z": 0.9341684308,
				"element": "C" 
			},
			{
				"x": -0.9861717986,
				"y": -1.2416226304,
				"z": -0.3124199752,
				"element": "C" 
			},
			{
				"x": 0.3471478383,
				"y": -0.7607138017,
				"z": -0.2820892306,
				"element": "N" 
			},
			{
				"x": 0.5462665692,
				"y": 0.6660544218,
				"z": -0.0089503204,
				"element": "C" 
			},
			{
				"x": 2.0634444295,
				"y": 0.9323568732,
				"z": 0.0978158413,
				"element": "C" 
			},
			{
				"x": 2.7292071968,
				"y": -0.199138694,
				"z": 0.6352228387,
				"element": "O" 
			},
			{
				"x": 2.7111090149,
				"y": -1.3004738504,
				"z": -0.272902274,
				"element": "C" 
			},
			{
				"x": 1.400893248,
				"y": -1.3523368136,
				"z": -1.0949781595,
				"element": "C" 
			},
			{
				"x": -1.7890616563,
				"y": -1.3560582315,
				"z": -1.4567276485,
				"element": "C" 
			},
			{
				"x": -1.1641173075,
				"y": -0.8191818644,
				"z": -3.0177399659,
				"element": "Cl" 
			},
			{
				"x": -3.0843339214,
				"y": -1.8725884203,
				"z": -1.4191628325,
				"element": "C" 
			},
			{
				"x": -3.609610212,
				"y": -2.2588178442,
				"z": -0.1863596867,
				"element": "C" 
			},
			{
				"x": -2.8616917447,
				"y": -2.1353003213,
				"z": 0.9800794096,
				"element": "C" 
			},
			{
				"x": -1.0327699229,
				"y": -2.0544264079,
				"z": 2.864037014,
				"element": "H" 
			},
			{
				"x": 0.198346128,
				"y": -1.3796685011,
				"z": 1.8965283941,
				"element": "H" 
			},
			{
				"x": 0.1127307834,
				"y": 1.3109806616,
				"z": -0.7923560463,
				"element": "H" 
			},
			{
				"x": 0.0461427921,
				"y": 0.9072578277,
				"z": 0.9357982455,
				"element": "H" 
			},
			{
				"x": 2.2611789334,
				"y": 1.7696507156,
				"z": 0.7725724117,
				"element": "H" 
			},
			{
				"x": 2.4816947651,
				"y": 1.1950392346,
				"z": -0.8867442781,
				"element": "H" 
			},
			{
				"x": 2.8155164978,
				"y": -2.1956891759,
				"z": 0.348513204,
				"element": "H" 
			},
			{
				"x": 3.5775363296,
				"y": -1.2506402623,
				"z": -0.9526528071,
				"element": "H" 
			},
			{
				"x": 1.5301461707,
				"y": -0.8373092164,
				"z": -2.0589836242,
				"element": "H" 
			},
			{
				"x": 1.1427182983,
				"y": -2.3894787873,
				"z": -1.324030288,
				"element": "H" 
			},
			{
				"x": -3.6634469458,
				"y": -1.9514955153,
				"z": -2.3314385259,
				"element": "H" 
			},
			{
				"x": -4.6184202705,
				"y": -2.6583429028,
				"z": -0.1372229699,
				"element": "H" 
			},
			{
				"x": -3.283222889,
				"y": -2.4350795205,
				"z": 1.9358069527,
				"element": "H" 
			}
		],
		 "valence_orbital": [ 
			{
				"type": "occ",
				"energy": -0.29796,
				"method": "rhf"
			},
			{
				"type": "occ",
				"energy": -0.25167,
				"method": "rhf"
			},
			{
				"type": "occ",
				"energy": -0.24464,
				"method": "rhf"
			},
			{
				"type": "occ",
				"energy": -0.21433,
				"method": "rhf"
			},
			{
				"type": "occ",
				"energy": -0.20029,
				"method": "rhf"
			},
			{
				"type": "unocc",
				"energy": -0.00462,
				"method": "rhf"
			},
			{
				"type": "unocc",
				"energy": 0.01243,
				"method": "rhf"
			},
			{
				"type": "unocc",
				"energy": 0.03528,
				"method": "rhf"
			},
			{
				"type": "unocc",
				"energy": 0.07659,
				"method": "rhf"
			},
			{
				"type": "unocc",
				"energy": 0.09643,
				"method": "rhf"
			}
		],
		"cosmo_sigma_profile": { 
			"-0.025": 0.0,
			"-0.024": 0.0,
			"-0.023": 0.0,
			"-0.022": 0.0,
			"-0.021": 0.0,
			"-0.02": 0.0,
			"-0.019": 0.0,
			"-0.018": 0.0,
			"-0.017": 0.0,
			"-0.016": 0.0,
			"-0.015": 0.0,
			"-0.014": 0.0,
			"-0.013": 0.28718161513,
			"-0.012": 1.34428563933,
			"-0.011": 1.37588202977,
			"-0.01": 1.4407436619,
			"-0.009": 1.56981842101,
			"-0.008": 2.03893591494,
			"-0.007": 2.4922055534,
			"-0.006": 6.8220706871,
			"-0.005": 11.9031930065,
			"-0.004": 22.5375570172,
			"-0.003": 29.8656823179,
			"-0.002": 20.1282343198,
			"-0.001": 18.4927125688,
			"0.0": 16.3057011525,
			"0.001": 15.4908223225,
			"0.002": 14.9531885225,
			"0.003": 17.3970858483,
			"0.004": 14.764934046,
			"0.005": 17.7485018451,
			"0.006": 8.31012692989,
			"0.007": 3.17691521581,
			"0.008": 1.60755886585,
			"0.009": 1.51810568899,
			"0.01": 1.00571619277,
			"0.011": 1.92470452688,
			"0.012": 2.19706049356,
			"0.013": 1.75538757588,
			"0.014": 0.678985084799,
			"0.015": 0.0,
			"0.016": 0.0,
			"0.017": 0.0,
			"0.018": 0.0,
			"0.019": 0.0,
			"0.02": 0.0,
			"0.021": 0.0,
			"0.022": 0.0,
			"0.023": 0.0,
			"0.024": 0.0,
			"0.025": 0.0
		}
	}
}
