{
	 "smiles": "CCCCCCOC1=C(OC)C=C(C=C1)C(O)=O", 
	 "Tm": 396.15, 
	 "num_atms": 38, 
	 "gaussian": { 
		 "optdone": 1, 
		 "sigma_profile": "yes", 
		 "theory": "DFT", 
		 "functional": "B3LYP", 
		 "basiset": "6-31G**", 
		 "properties": { 
			 "R2extent": 7322.0471, 
			 "electric_dipole_moment_norm": 3.32116677389, 
			 "electric_quadrupole_moment_norm": 11.9268633324, 
			 "total_energy": -846.447750504, 
			 "HOMO_LUMO_gap": 0.18782, 
			 "cosmo_polarized_energy": -12.68, 
			 "cosmo_cavitation_energy": 40.93, 
			 "cosmo_dispersion_energy": -27.6, 
			 "cosmo_repulsion_energy": 2.18, 
			 "cosmo_total_nonelectrostatic_energy": 15.52, 
			 "SMD_solvation_energy": 8.59 
		},
		"coords": [
			{
				"x": 0.611163481,
				"y": -3.75545888,
				"z": -2.4695712984,
				"element": "C" 
			},
			{
				"x": 0.8582824031,
				"y": -2.7891103932,
				"z": -1.3069083499,
				"element": "C" 
			},
			{
				"x": 0.5658327044,
				"y": -3.416695857,
				"z": 0.0656683387,
				"element": "C" 
			},
			{
				"x": 0.7892197668,
				"y": -2.4822672425,
				"z": 1.2751412533,
				"element": "C" 
			},
			{
				"x": -0.4499479017,
				"y": -1.7122772381,
				"z": 1.7660080802,
				"element": "C" 
			},
			{
				"x": -1.1037231988,
				"y": -0.7662092775,
				"z": 0.7674474931,
				"element": "C" 
			},
			{
				"x": -0.15273551,
				"y": 0.2431794561,
				"z": 0.4105139424,
				"element": "O" 
			},
			{
				"x": -0.5521115819,
				"y": 1.2629359469,
				"z": -0.393304561,
				"element": "C" 
			},
			{
				"x": 0.3924641332,
				"y": 2.2991628246,
				"z": -0.6013239331,
				"element": "C" 
			},
			{
				"x": 1.6124090522,
				"y": 2.2761945235,
				"z": 0.0294107255,
				"element": "O" 
			},
			{
				"x": 2.5579896772,
				"y": 1.3446546262,
				"z": -0.4994248627,
				"element": "C" 
			},
			{
				"x": 0.0600549285,
				"y": 3.3873769495,
				"z": -1.3948481577,
				"element": "C" 
			},
			{
				"x": -1.2058436518,
				"y": 3.4759782538,
				"z": -1.9977349324,
				"element": "C" 
			},
			{
				"x": -2.1314707785,
				"y": 2.4482588023,
				"z": -1.7977668309,
				"element": "C" 
			},
			{
				"x": -1.8112466017,
				"y": 1.3501988363,
				"z": -1.0029615322,
				"element": "C" 
			},
			{
				"x": -1.6016379416,
				"y": 4.6218959763,
				"z": -2.847382959,
				"element": "C" 
			},
			{
				"x": -0.6244809199,
				"y": 5.5586807311,
				"z": -2.9711261942,
				"element": "O" 
			},
			{
				"x": -2.6806778365,
				"y": 4.7471339,
				"z": -3.3961048637,
				"element": "O" 
			},
			{
				"x": 0.8474825005,
				"y": -3.2922344743,
				"z": -3.4329763124,
				"element": "H" 
			},
			{
				"x": 1.227509234,
				"y": -4.6567648323,
				"z": -2.3732978991,
				"element": "H" 
			},
			{
				"x": -0.4364948587,
				"y": -4.0761722394,
				"z": -2.5036358214,
				"element": "H" 
			},
			{
				"x": 1.9052279378,
				"y": -2.4566798962,
				"z": -1.3243066442,
				"element": "H" 
			},
			{
				"x": 0.2574338612,
				"y": -1.8833305895,
				"z": -1.4504467862,
				"element": "H" 
			},
			{
				"x": 1.2096427041,
				"y": -4.2993027942,
				"z": 0.174083298,
				"element": "H" 
			},
			{
				"x": -0.4641323691,
				"y": -3.8028676466,
				"z": 0.0813995444,
				"element": "H" 
			},
			{
				"x": 1.1485545984,
				"y": -3.0755429547,
				"z": 2.1244239871,
				"element": "H" 
			},
			{
				"x": 1.5915035029,
				"y": -1.7701629297,
				"z": 1.0476293436,
				"element": "H" 
			},
			{
				"x": -1.2221600677,
				"y": -2.4289418061,
				"z": 2.0767005063,
				"element": "H" 
			},
			{
				"x": -0.1831505933,
				"y": -1.1340693704,
				"z": 2.6586561289,
				"element": "H" 
			},
			{
				"x": -1.9851371222,
				"y": -0.2917998614,
				"z": 1.2192909262,
				"element": "H" 
			},
			{
				"x": -1.43440484,
				"y": -1.3024479599,
				"z": -0.1318064775,
				"element": "H" 
			},
			{
				"x": 2.7876062694,
				"y": 1.5713904636,
				"z": -1.5489169512,
				"element": "H" 
			},
			{
				"x": 2.1954005137,
				"y": 0.3147829947,
				"z": -0.4214904892,
				"element": "H" 
			},
			{
				"x": 3.4646274216,
				"y": 1.4565534015,
				"z": 0.0988467012,
				"element": "H" 
			},
			{
				"x": 0.7944289557,
				"y": 4.1731547996,
				"z": -1.526831135,
				"element": "H" 
			},
			{
				"x": -3.1049094574,
				"y": 2.5237706651,
				"z": -2.2698212656,
				"element": "H" 
			},
			{
				"x": -2.5457757808,
				"y": 0.5678482888,
				"z": -0.8564915668,
				"element": "H" 
			},
			{
				"x": -0.999392634,
				"y": 6.2498848033,
				"z": -3.5407404453,
				"element": "H" 
			}
		],
		 "valence_orbital": [ 
			{
				"type": "occ",
				"energy": -0.30752,
				"method": "rhf"
			},
			{
				"type": "occ",
				"energy": -0.2786,
				"method": "rhf"
			},
			{
				"type": "occ",
				"energy": -0.26596,
				"method": "rhf"
			},
			{
				"type": "occ",
				"energy": -0.25044,
				"method": "rhf"
			},
			{
				"type": "occ",
				"energy": -0.22398,
				"method": "rhf"
			},
			{
				"type": "unocc",
				"energy": -0.03616,
				"method": "rhf"
			},
			{
				"type": "unocc",
				"energy": -0.00338,
				"method": "rhf"
			},
			{
				"type": "unocc",
				"energy": 0.068,
				"method": "rhf"
			},
			{
				"type": "unocc",
				"energy": 0.0705,
				"method": "rhf"
			},
			{
				"type": "unocc",
				"energy": 0.07897,
				"method": "rhf"
			}
		],
		"cosmo_sigma_profile": { 
			"-0.025": 0.0,
			"-0.024": 0.0,
			"-0.023": 0.0,
			"-0.022": 0.0,
			"-0.021": 0.0,
			"-0.02": 0.0,
			"-0.019": 0.0,
			"-0.018": 0.559983535962,
			"-0.017": 1.00610610207,
			"-0.016": 0.591622732556,
			"-0.015": 1.02254868135,
			"-0.014": 0.217533938515,
			"-0.013": 0.879782337104,
			"-0.012": 0.621776010771,
			"-0.011": 0.8877192533,
			"-0.01": 0.743428360013,
			"-0.009": 0.432940448573,
			"-0.008": 0.745438781309,
			"-0.007": 2.53947443608,
			"-0.006": 6.94816301032,
			"-0.005": 14.0219670232,
			"-0.004": 18.2456547024,
			"-0.003": 27.0676513306,
			"-0.002": 40.7130332216,
			"-0.001": 42.0373225672,
			"0.0": 37.5176371728,
			"0.001": 35.3027378214,
			"0.002": 24.6953189243,
			"0.003": 16.0992416795,
			"0.004": 8.79031081341,
			"0.005": 5.80643260552,
			"0.006": 4.48695941722,
			"0.007": 4.35477171318,
			"0.008": 4.73207254416,
			"0.009": 3.20276900801,
			"0.01": 3.57906597511,
			"0.011": 5.57281294296,
			"0.012": 6.38583001579,
			"0.013": 0.69752505272,
			"0.014": 0.0,
			"0.015": 0.0,
			"0.016": 0.0,
			"0.017": 0.0,
			"0.018": 0.0,
			"0.019": 0.0,
			"0.02": 0.0,
			"0.021": 0.0,
			"0.022": 0.0,
			"0.023": 0.0,
			"0.024": 0.0,
			"0.025": 0.0
		}
	}
}
