{
	 "smiles": "ClCC(=O)NC1=CC=C(OC2=CC=CC=C2)C=C1", 
	 "Tm": 378.15, 
	 "num_atms": 30, 
	 "gaussian": { 
		 "optdone": 1, 
		 "sigma_profile": "yes", 
		 "theory": "DFT", 
		 "functional": "B3LYP", 
		 "basiset": "6-31G**", 
		 "properties": { 
			 "R2extent": 9656.8907, 
			 "electric_dipole_moment_norm": 2.2443645203, 
			 "electric_quadrupole_moment_norm": 8.43740243084, 
			 "total_energy": -1206.12370409, 
			 "HOMO_LUMO_gap": 0.18979, 
			 "cosmo_polarized_energy": -12.51, 
			 "cosmo_cavitation_energy": 36.57, 
			 "cosmo_dispersion_energy": -26.73, 
			 "cosmo_repulsion_energy": 2.07, 
			 "cosmo_total_nonelectrostatic_energy": 11.92, 
			 "SMD_solvation_energy": 6.6 
		},
		"coords": [
			{
				"x": 0.1996696883,
				"y": 2.6585029111,
				"z": -6.4744737123,
				"element": "Cl" 
			},
			{
				"x": -0.3040959311,
				"y": 0.9310176736,
				"z": -6.7321005928,
				"element": "C" 
			},
			{
				"x": -0.581999718,
				"y": 0.0851896896,
				"z": -5.4831669745,
				"element": "C" 
			},
			{
				"x": -0.9109324063,
				"y": -1.0780936842,
				"z": -5.6770827268,
				"element": "O" 
			},
			{
				"x": -0.4417174212,
				"y": 0.6955520264,
				"z": -4.2768730481,
				"element": "N" 
			},
			{
				"x": -0.6394289072,
				"y": 0.1476685536,
				"z": -2.9878120427,
				"element": "C" 
			},
			{
				"x": -1.0410603951,
				"y": -1.1780159686,
				"z": -2.7669680064,
				"element": "C" 
			},
			{
				"x": -1.2062686975,
				"y": -1.6382965126,
				"z": -1.4622487681,
				"element": "C" 
			},
			{
				"x": -0.9847401512,
				"y": -0.7934597906,
				"z": -0.3743498572,
				"element": "C" 
			},
			{
				"x": -1.252876406,
				"y": -1.2994797616,
				"z": 0.8821272394,
				"element": "O" 
			},
			{
				"x": -0.4386276628,
				"y": -0.9938056657,
				"z": 1.9559133559,
				"element": "C" 
			},
			{
				"x": 0.9504035193,
				"y": -0.8764782219,
				"z": 1.8449257605,
				"element": "C" 
			},
			{
				"x": 1.7069083605,
				"y": -0.6349573143,
				"z": 2.9925834843,
				"element": "C" 
			},
			{
				"x": 1.0921618255,
				"y": -0.5197941393,
				"z": 4.2410334383,
				"element": "C" 
			},
			{
				"x": -0.2952551392,
				"y": -0.6489794013,
				"z": 4.3385782929,
				"element": "C" 
			},
			{
				"x": -1.0649662894,
				"y": -0.8822190524,
				"z": 3.1995639407,
				"element": "C" 
			},
			{
				"x": -0.5946249349,
				"y": 0.5319263096,
				"z": -0.5882419593,
				"element": "C" 
			},
			{
				"x": -0.4194857992,
				"y": 0.9918472757,
				"z": -1.8892743437,
				"element": "C" 
			},
			{
				"x": -1.2096790652,
				"y": 0.9495550934,
				"z": -7.3388136528,
				"element": "H" 
			},
			{
				"x": 0.4909863279,
				"y": 0.4474144854,
				"z": -7.2997939754,
				"element": "H" 
			},
			{
				"x": -0.1605193514,
				"y": 1.6672672849,
				"z": -4.3056937963,
				"element": "H" 
			},
			{
				"x": -1.2127310778,
				"y": -1.8312979515,
				"z": -3.6106817672,
				"element": "H" 
			},
			{
				"x": -1.5155762122,
				"y": -2.66120479,
				"z": -1.2749991882,
				"element": "H" 
			},
			{
				"x": 1.4285021573,
				"y": -0.9781581634,
				"z": 0.8767664761,
				"element": "H" 
			},
			{
				"x": 2.7861668103,
				"y": -0.545113512,
				"z": 2.9071366705,
				"element": "H" 
			},
			{
				"x": 1.6884653214,
				"y": -0.3339469229,
				"z": 5.1289870498,
				"element": "H" 
			},
			{
				"x": -0.7843777045,
				"y": -0.5633476344,
				"z": 5.3046600957,
				"element": "H" 
			},
			{
				"x": -2.1438197842,
				"y": -0.9843996049,
				"z": 3.2531503617,
				"element": "H" 
			},
			{
				"x": -0.4319210975,
				"y": 1.196005131,
				"z": 0.2533706325,
				"element": "H" 
			},
			{
				"x": -0.1161598588,
				"y": 2.0234016574,
				"z": -2.0524223864,
				"element": "H" 
			}
		],
		 "valence_orbital": [ 
			{
				"type": "occ",
				"energy": -0.26712,
				"method": "rhf"
			},
			{
				"type": "occ",
				"energy": -0.2621,
				"method": "rhf"
			},
			{
				"type": "occ",
				"energy": -0.25427,
				"method": "rhf"
			},
			{
				"type": "occ",
				"energy": -0.24122,
				"method": "rhf"
			},
			{
				"type": "occ",
				"energy": -0.21129,
				"method": "rhf"
			},
			{
				"type": "unocc",
				"energy": -0.0215,
				"method": "rhf"
			},
			{
				"type": "unocc",
				"energy": -0.01498,
				"method": "rhf"
			},
			{
				"type": "unocc",
				"energy": -0.00151,
				"method": "rhf"
			},
			{
				"type": "unocc",
				"energy": 0.00447,
				"method": "rhf"
			},
			{
				"type": "unocc",
				"energy": 0.00636,
				"method": "rhf"
			}
		],
		"cosmo_sigma_profile": { 
			"-0.025": 0.0,
			"-0.024": 0.0,
			"-0.023": 0.0,
			"-0.022": 0.0,
			"-0.021": 0.0,
			"-0.02": 0.0,
			"-0.019": 0.0,
			"-0.018": 0.0,
			"-0.017": 0.0,
			"-0.016": 0.0,
			"-0.015": 0.0,
			"-0.014": 0.0579342274133,
			"-0.013": 1.09378785967,
			"-0.012": 0.673939449973,
			"-0.011": 0.977537377475,
			"-0.01": 1.43626060749,
			"-0.009": 5.14993292391,
			"-0.008": 6.17531793715,
			"-0.007": 7.19058130704,
			"-0.006": 16.4502822834,
			"-0.005": 20.7929150218,
			"-0.004": 20.29392475,
			"-0.003": 18.6690589027,
			"-0.002": 16.3598306936,
			"-0.001": 16.9213918532,
			"0.0": 18.5374151688,
			"0.001": 21.9397552078,
			"0.002": 22.6317418991,
			"0.003": 26.6408898075,
			"0.004": 28.1713369012,
			"0.005": 20.7863999871,
			"0.006": 7.85659707407,
			"0.007": 1.82147422642,
			"0.008": 2.67232440688,
			"0.009": 3.40835091031,
			"0.01": 1.2724193727,
			"0.011": 2.42256425957,
			"0.012": 3.02101359285,
			"0.013": 2.07477186584,
			"0.014": 0.0943442468969,
			"0.015": 0.0,
			"0.016": 0.0,
			"0.017": 0.0,
			"0.018": 0.0,
			"0.019": 0.0,
			"0.02": 0.0,
			"0.021": 0.0,
			"0.022": 0.0,
			"0.023": 0.0,
			"0.024": 0.0,
			"0.025": 0.0
		}
	}
}
