{
	 "smiles": "CC(NC1=C(C)C=C(C=C1)C(O)=O)C1=C(C)C=CC(C)=C1", 
	 "Tm": 485.15, 
	 "num_atms": 42, 
	 "gaussian": { 
		 "optdone": 1, 
		 "sigma_profile": "yes", 
		 "theory": "DFT", 
		 "functional": "B3LYP", 
		 "basiset": "6-31G**", 
		 "properties": { 
			 "R2extent": 8276.2993, 
			 "electric_dipole_moment_norm": 7.41174701268, 
			 "electric_quadrupole_moment_norm": 28.041096445, 
			 "total_energy": -903.802244633, 
			 "HOMO_LUMO_gap": 0.17803, 
			 "cosmo_polarized_energy": -19.88, 
			 "cosmo_cavitation_energy": 43.22, 
			 "cosmo_dispersion_energy": -30.16, 
			 "cosmo_repulsion_energy": 2.32, 
			 "cosmo_total_nonelectrostatic_energy": 15.38, 
			 "SMD_solvation_energy": 7.98 
		},
		"coords": [
			{
				"x": -0.1764914704,
				"y": -2.6112807312,
				"z": -0.4528623122,
				"element": "C" 
			},
			{
				"x": -1.248315599,
				"y": -1.6379308779,
				"z": -0.9898165185,
				"element": "C" 
			},
			{
				"x": -1.8056911815,
				"y": -0.7760638656,
				"z": 0.0648653218,
				"element": "N" 
			},
			{
				"x": -1.1576852373,
				"y": -0.1373965269,
				"z": 1.1050723339,
				"element": "C" 
			},
			{
				"x": -1.9123762488,
				"y": 0.2365360775,
				"z": 2.2550910827,
				"element": "C" 
			},
			{
				"x": -3.3789659033,
				"y": -0.1070100897,
				"z": 2.3563194593,
				"element": "C" 
			},
			{
				"x": -1.2738052962,
				"y": 0.9109937772,
				"z": 3.2905461977,
				"element": "C" 
			},
			{
				"x": 0.0917875189,
				"y": 1.2351794896,
				"z": 3.2522540497,
				"element": "C" 
			},
			{
				"x": 0.8244005209,
				"y": 0.849928001,
				"z": 2.1226070281,
				"element": "C" 
			},
			{
				"x": 0.2152224071,
				"y": 0.1939728307,
				"z": 1.0642536568,
				"element": "C" 
			},
			{
				"x": 0.8098686332,
				"y": 1.9375344879,
				"z": 4.3504338907,
				"element": "C" 
			},
			{
				"x": 0.042145753,
				"y": 2.6009338895,
				"z": 5.2653115903,
				"element": "O" 
			},
			{
				"x": 2.0151351965,
				"y": 1.9505005208,
				"z": 4.4669503819,
				"element": "O" 
			},
			{
				"x": -0.8166477336,
				"y": -0.880382962,
				"z": -2.2546472289,
				"element": "C" 
			},
			{
				"x": -0.6606427094,
				"y": -1.5592357182,
				"z": -3.485534034,
				"element": "C" 
			},
			{
				"x": -0.9144568889,
				"y": -3.0417553444,
				"z": -3.6612720761,
				"element": "C" 
			},
			{
				"x": -0.2645509226,
				"y": -0.8169745277,
				"z": -4.6054798724,
				"element": "C" 
			},
			{
				"x": -0.0277222788,
				"y": 0.553476635,
				"z": -4.5378197055,
				"element": "C" 
			},
			{
				"x": -0.2078451917,
				"y": 1.2402572282,
				"z": -3.334452378,
				"element": "C" 
			},
			{
				"x": -0.0146914462,
				"y": 2.7362967919,
				"z": -3.247395862,
				"element": "C" 
			},
			{
				"x": -0.6083926113,
				"y": 0.5033022972,
				"z": -2.2138757447,
				"element": "C" 
			},
			{
				"x": 0.060549502,
				"y": -3.3660592295,
				"z": -1.2040849034,
				"element": "H" 
			},
			{
				"x": 0.753481573,
				"y": -2.1079885067,
				"z": -0.1876311913,
				"element": "H" 
			},
			{
				"x": -0.5536556357,
				"y": -3.123591815,
				"z": 0.4373795488,
				"element": "H" 
			},
			{
				"x": -2.099167411,
				"y": -2.2656856781,
				"z": -1.2828219162,
				"element": "H" 
			},
			{
				"x": -2.7956223704,
				"y": -0.8950481756,
				"z": 0.1985866929,
				"element": "H" 
			},
			{
				"x": -3.5545330264,
				"y": -1.187330528,
				"z": 2.2639929254,
				"element": "H" 
			},
			{
				"x": -3.7876127749,
				"y": 0.2066833342,
				"z": 3.3199244567,
				"element": "H" 
			},
			{
				"x": -3.9756831293,
				"y": 0.387665727,
				"z": 1.5772524243,
				"element": "H" 
			},
			{
				"x": -1.8682737927,
				"y": 1.1423606736,
				"z": 4.1730165922,
				"element": "H" 
			},
			{
				"x": 1.8815146461,
				"y": 1.090706817,
				"z": 2.0859341479,
				"element": "H" 
			},
			{
				"x": 0.7988255983,
				"y": -0.0426005676,
				"z": 0.1841501192,
				"element": "H" 
			},
			{
				"x": -0.8698998734,
				"y": 2.6551640297,
				"z": 4.9495857905,
				"element": "H" 
			},
			{
				"x": -0.0546975823,
				"y": -3.6502162134,
				"z": -3.3558113555,
				"element": "H" 
			},
			{
				"x": -1.1090367244,
				"y": -3.270766692,
				"z": -4.7127202109,
				"element": "H" 
			},
			{
				"x": -1.7769341473,
				"y": -3.3947206827,
				"z": -3.0856712652,
				"element": "H" 
			},
			{
				"x": -0.1447603545,
				"y": -1.3308123725,
				"z": -5.5565016876,
				"element": "H" 
			},
			{
				"x": 0.2836304625,
				"y": 1.0922238429,
				"z": -5.4294581185,
				"element": "H" 
			},
			{
				"x": 0.7330972498,
				"y": 3.0849391527,
				"z": -3.9662655805,
				"element": "H" 
			},
			{
				"x": 0.3080377958,
				"y": 3.0415899768,
				"z": -2.2475617232,
				"element": "H" 
			},
			{
				"x": -0.947917974,
				"y": 3.2713211829,
				"z": -3.4649571287,
				"element": "H" 
			},
			{
				"x": -0.7758213419,
				"y": 1.0295843414,
				"z": -1.2808868774,
				"element": "H" 
			}
		],
		 "valence_orbital": [ 
			{
				"type": "occ",
				"energy": -0.25694,
				"method": "rhf"
			},
			{
				"type": "occ",
				"energy": -0.25401,
				"method": "rhf"
			},
			{
				"type": "occ",
				"energy": -0.24529,
				"method": "rhf"
			},
			{
				"type": "occ",
				"energy": -0.23271,
				"method": "rhf"
			},
			{
				"type": "occ",
				"energy": -0.20638,
				"method": "rhf"
			},
			{
				"type": "unocc",
				"energy": -0.02835,
				"method": "rhf"
			},
			{
				"type": "unocc",
				"energy": -0.00882,
				"method": "rhf"
			},
			{
				"type": "unocc",
				"energy": -0.00307,
				"method": "rhf"
			},
			{
				"type": "unocc",
				"energy": 0.00066,
				"method": "rhf"
			},
			{
				"type": "unocc",
				"energy": 0.05596,
				"method": "rhf"
			}
		],
		"cosmo_sigma_profile": { 
			"-0.025": 0.0,
			"-0.024": 0.0,
			"-0.023": 0.0,
			"-0.022": 0.0,
			"-0.021": 0.0,
			"-0.02": 0.0,
			"-0.019": 0.0,
			"-0.018": 0.35064967692,
			"-0.017": 0.798590617417,
			"-0.016": 0.822739268841,
			"-0.015": 0.827826775686,
			"-0.014": 0.74069733976,
			"-0.013": 1.17828016009,
			"-0.012": 2.18806386532,
			"-0.011": 2.04893043997,
			"-0.01": 2.66623953089,
			"-0.009": 2.70061111477,
			"-0.008": 3.06022241775,
			"-0.007": 4.3266764137,
			"-0.006": 7.92268172108,
			"-0.005": 16.6047485481,
			"-0.004": 27.2440274706,
			"-0.003": 29.2163637012,
			"-0.002": 33.1182428887,
			"-0.001": 32.7774759881,
			"0.0": 38.2382155407,
			"0.001": 27.2467991272,
			"0.002": 17.0740981671,
			"0.003": 13.9706599129,
			"0.004": 17.5297083702,
			"0.005": 15.8576718943,
			"0.006": 10.3695958573,
			"0.007": 7.34910426648,
			"0.008": 2.25755604569,
			"0.009": 2.74233068912,
			"0.01": 3.60485495737,
			"0.011": 4.61134289433,
			"0.012": 5.50151016299,
			"0.013": 4.85523725761,
			"0.014": 1.47129755645,
			"0.015": 0.0120068463585,
			"0.016": 0.0,
			"0.017": 0.0,
			"0.018": 0.0,
			"0.019": 0.0,
			"0.02": 0.0,
			"0.021": 0.0,
			"0.022": 0.0,
			"0.023": 0.0,
			"0.024": 0.0,
			"0.025": 0.0
		}
	}
}
