{
	 "smiles": "OC(=O)C1(CCOCC1)C1=CC=C(OCC2=CC=CC=C2)C=C1", 
	 "Tm": 425.15, 
	 "num_atms": 43, 
	 "gaussian": { 
		 "optdone": 1, 
		 "sigma_profile": "yes", 
		 "theory": "DFT", 
		 "functional": "B3LYP", 
		 "basiset": "6-31G**", 
		 "properties": { 
			 "R2extent": 12593.477, 
			 "electric_dipole_moment_norm": 3.51648963599, 
			 "electric_quadrupole_moment_norm": 24.8190668261, 
			 "total_energy": -1036.9530312, 
			 "HOMO_LUMO_gap": 0.21089, 
			 "cosmo_polarized_energy": -21.47, 
			 "cosmo_cavitation_energy": 44.4, 
			 "cosmo_dispersion_energy": -31.92, 
			 "cosmo_repulsion_energy": 2.4, 
			 "cosmo_total_nonelectrostatic_energy": 14.89, 
			 "SMD_solvation_energy": 8.2 
		},
		"coords": [
			{
				"x": -2.1161628958,
				"y": -3.3312100955,
				"z": -4.6075250869,
				"element": "O" 
			},
			{
				"x": -1.9885709971,
				"y": -2.5630937352,
				"z": -3.4889523526,
				"element": "C" 
			},
			{
				"x": -2.74552863,
				"y": -1.6412556568,
				"z": -3.3243384367,
				"element": "O" 
			},
			{
				"x": -0.8564547016,
				"y": -2.9680483964,
				"z": -2.5009808314,
				"element": "C" 
			},
			{
				"x": -1.1261379226,
				"y": -4.4245161313,
				"z": -2.0122179691,
				"element": "C" 
			},
			{
				"x": 0.0733020571,
				"y": -5.0350792497,
				"z": -1.2753115738,
				"element": "C" 
			},
			{
				"x": 1.248922342,
				"y": -4.9995639893,
				"z": -2.0722428442,
				"element": "O" 
			},
			{
				"x": 1.6036410447,
				"y": -3.6650415761,
				"z": -2.4105141209,
				"element": "C" 
			},
			{
				"x": 0.5140206786,
				"y": -3.0014611548,
				"z": -3.2545085823,
				"element": "C" 
			},
			{
				"x": -0.8256094092,
				"y": -1.935383056,
				"z": -1.3624693005,
				"element": "C" 
			},
			{
				"x": -0.4184253419,
				"y": -0.6142431964,
				"z": -1.6303596002,
				"element": "C" 
			},
			{
				"x": -0.3886719523,
				"y": 0.3584614978,
				"z": -0.6438310226,
				"element": "C" 
			},
			{
				"x": -0.77841806,
				"y": 0.0472390098,
				"z": 0.667470359,
				"element": "C" 
			},
			{
				"x": -0.7100893347,
				"y": 1.0707014235,
				"z": 1.5671258735,
				"element": "O" 
			},
			{
				"x": -1.0821610673,
				"y": 0.8122261183,
				"z": 2.9188652907,
				"element": "C" 
			},
			{
				"x": -0.8669257576,
				"y": 2.0611812763,
				"z": 3.7399791411,
				"element": "C" 
			},
			{
				"x": 0.232867036,
				"y": 2.8957644207,
				"z": 3.506357845,
				"element": "C" 
			},
			{
				"x": 0.44614995,
				"y": 4.0194656799,
				"z": 4.3044033054,
				"element": "C" 
			},
			{
				"x": -0.4308613735,
				"y": 4.3177247558,
				"z": 5.3499664824,
				"element": "C" 
			},
			{
				"x": -1.528192495,
				"y": 3.4893745139,
				"z": 5.5882887187,
				"element": "C" 
			},
			{
				"x": -1.7466140326,
				"y": 2.3702864198,
				"z": 4.7828594101,
				"element": "C" 
			},
			{
				"x": -1.2075435754,
				"y": -1.2495208949,
				"z": 0.9570174293,
				"element": "C" 
			},
			{
				"x": -1.2282480704,
				"y": -2.2164129292,
				"z": -0.0552218425,
				"element": "C" 
			},
			{
				"x": -1.4468270102,
				"y": -4.0288816298,
				"z": -4.6258560044,
				"element": "H" 
			},
			{
				"x": -2.0255036796,
				"y": -4.4663325277,
				"z": -1.3898596656,
				"element": "H" 
			},
			{
				"x": -1.3302439354,
				"y": -5.0625591799,
				"z": -2.8796020561,
				"element": "H" 
			},
			{
				"x": -0.1184391151,
				"y": -6.0902146099,
				"z": -1.057789436,
				"element": "H" 
			},
			{
				"x": 0.2514202242,
				"y": -4.5182710338,
				"z": -0.3211006703,
				"element": "H" 
			},
			{
				"x": 1.7933196508,
				"y": -3.074725158,
				"z": -1.5004093308,
				"element": "H" 
			},
			{
				"x": 2.5379172973,
				"y": -3.7292010139,
				"z": -2.9758309768,
				"element": "H" 
			},
			{
				"x": 0.8244487621,
				"y": -1.9941559285,
				"z": -3.5450597987,
				"element": "H" 
			},
			{
				"x": 0.4237105673,
				"y": -3.5794936881,
				"z": -4.1825640925,
				"element": "H" 
			},
			{
				"x": -0.142338554,
				"y": -0.325985757,
				"z": -2.6395649804,
				"element": "H" 
			},
			{
				"x": -0.07840535,
				"y": 1.3741064253,
				"z": -0.8663859475,
				"element": "H" 
			},
			{
				"x": -0.470820128,
				"y": -0.0147746891,
				"z": 3.3128194644,
				"element": "H" 
			},
			{
				"x": -2.1336586638,
				"y": 0.4975585634,
				"z": 2.9712965706,
				"element": "H" 
			},
			{
				"x": 0.908088202,
				"y": 2.6672070379,
				"z": 2.6883171087,
				"element": "H" 
			},
			{
				"x": 1.2990102965,
				"y": 4.663739561,
				"z": 4.10990761,
				"element": "H" 
			},
			{
				"x": -0.2625802938,
				"y": 5.1929314824,
				"z": 5.9708981706,
				"element": "H" 
			},
			{
				"x": -2.2205478729,
				"y": 3.718282942,
				"z": 6.3934214968,
				"element": "H" 
			},
			{
				"x": -2.6104832131,
				"y": 1.7351213761,
				"z": 4.9646611357,
				"element": "H" 
			},
			{
				"x": -1.5323648121,
				"y": -1.5252069641,
				"z": 1.9530140316,
				"element": "H" 
			},
			{
				"x": -1.5799898634,
				"y": -3.2055402625,
				"z": 0.2142270793,
				"element": "H" 
			}
		],
		 "valence_orbital": [ 
			{
				"type": "occ",
				"energy": -0.25518,
				"method": "rhf"
			},
			{
				"type": "occ",
				"energy": -0.25193,
				"method": "rhf"
			},
			{
				"type": "occ",
				"energy": -0.25108,
				"method": "rhf"
			},
			{
				"type": "occ",
				"energy": -0.24664,
				"method": "rhf"
			},
			{
				"type": "occ",
				"energy": -0.22005,
				"method": "rhf"
			},
			{
				"type": "unocc",
				"energy": -0.00916,
				"method": "rhf"
			},
			{
				"type": "unocc",
				"energy": -0.00376,
				"method": "rhf"
			},
			{
				"type": "unocc",
				"energy": -0.00311,
				"method": "rhf"
			},
			{
				"type": "unocc",
				"energy": 0.00448,
				"method": "rhf"
			},
			{
				"type": "unocc",
				"energy": 0.00963,
				"method": "rhf"
			}
		],
		"cosmo_sigma_profile": { 
			"-0.025": 0.0,
			"-0.024": 0.0,
			"-0.023": 0.0,
			"-0.022": 0.0,
			"-0.021": 0.0,
			"-0.02": 0.0,
			"-0.019": 0.0,
			"-0.018": 0.724029369318,
			"-0.017": 1.01618115143,
			"-0.016": 0.723862773453,
			"-0.015": 0.869556446113,
			"-0.014": 0.68937233147,
			"-0.013": 0.908545170276,
			"-0.012": 1.54004877357,
			"-0.011": 0.857989203636,
			"-0.01": 0.498169275229,
			"-0.009": 0.43113008571,
			"-0.008": 2.56081802905,
			"-0.007": 6.36780101638,
			"-0.006": 21.267330614,
			"-0.005": 32.9398757368,
			"-0.004": 37.0858179965,
			"-0.003": 35.6667887434,
			"-0.002": 25.418172436,
			"-0.001": 19.2414890739,
			"0.0": 17.0315390742,
			"0.001": 14.6168810679,
			"0.002": 15.7358539828,
			"0.003": 17.418075415,
			"0.004": 19.5182435684,
			"0.005": 22.0762436155,
			"0.006": 14.0924409943,
			"0.007": 5.56020209624,
			"0.008": 5.89549244859,
			"0.009": 5.86601034078,
			"0.01": 6.5957752249,
			"0.011": 6.3407978296,
			"0.012": 6.79658853456,
			"0.013": 4.61229081613,
			"0.014": 0.380126433829,
			"0.015": 0.0,
			"0.016": 0.0,
			"0.017": 0.0,
			"0.018": 0.0,
			"0.019": 0.0,
			"0.02": 0.0,
			"0.021": 0.0,
			"0.022": 0.0,
			"0.023": 0.0,
			"0.024": 0.0,
			"0.025": 0.0
		}
	}
}
