{
	 "smiles": "BrCC(=O)C1=NC=CS1", 
	 "Tm": 327.65, 
	 "num_atms": 13, 
	 "gaussian": { 
		 "optdone": 1, 
		 "sigma_profile": "yes", 
		 "theory": "DFT", 
		 "functional": "B3LYP", 
		 "basiset": "6-31G**", 
		 "properties": { 
			 "R2extent": 5465.7394, 
			 "electric_dipole_moment_norm": 4.58253052909, 
			 "electric_quadrupole_moment_norm": 12.6007437523, 
			 "total_energy": -3292.4897332, 
			 "HOMO_LUMO_gap": 0.17934, 
			 "cosmo_polarized_energy": -10.15, 
			 "cosmo_cavitation_energy": 21.93, 
			 "cosmo_dispersion_energy": -17.23, 
			 "cosmo_repulsion_energy": 1.37, 
			 "cosmo_total_nonelectrostatic_energy": 6.06, 
			 "SMD_solvation_energy": 2.12 
		},
		"coords": [
			{
				"x": 4.4038891086,
				"y": -2.094286624,
				"z": 2.6920527113,
				"element": "Br" 
			},
			{
				"x": 2.8915896983,
				"y": -1.7569749339,
				"z": 1.5092108666,
				"element": "C" 
			},
			{
				"x": 2.6708600748,
				"y": -0.2747194897,
				"z": 1.2315223678,
				"element": "C" 
			},
			{
				"x": 3.3475372325,
				"y": 0.626949548,
				"z": 1.6835875095,
				"element": "O" 
			},
			{
				"x": 1.5242234976,
				"y": 0.0082733874,
				"z": 0.3310960056,
				"element": "C" 
			},
			{
				"x": 0.7428776261,
				"y": -0.8978644017,
				"z": -0.2017101554,
				"element": "N" 
			},
			{
				"x": -0.2166544283,
				"y": -0.3143047883,
				"z": -0.9805563672,
				"element": "C" 
			},
			{
				"x": -0.1701927811,
				"y": 1.0567199023,
				"z": -1.0455509988,
				"element": "C" 
			},
			{
				"x": 1.1304074275,
				"y": 1.6640593587,
				"z": -0.0925164436,
				"element": "S" 
			},
			{
				"x": 2.0019857818,
				"y": -2.1875899824,
				"z": 1.970889253,
				"element": "H" 
			},
			{
				"x": 3.0712482348,
				"y": -2.2900334241,
				"z": 0.5745818881,
				"element": "H" 
			},
			{
				"x": -0.9423017513,
				"y": -0.9359582319,
				"z": -1.4915363179,
				"element": "H" 
			},
			{
				"x": -0.8233697213,
				"y": 1.7200296796,
				"z": -1.595270319,
				"element": "H" 
			}
		],
		 "valence_orbital": [ 
			{
				"type": "occ",
				"energy": -0.30904,
				"method": "rhf"
			},
			{
				"type": "occ",
				"energy": -0.28013,
				"method": "rhf"
			},
			{
				"type": "occ",
				"energy": -0.27735,
				"method": "rhf"
			},
			{
				"type": "occ",
				"energy": -0.2734,
				"method": "rhf"
			},
			{
				"type": "occ",
				"energy": -0.26941,
				"method": "rhf"
			},
			{
				"type": "unocc",
				"energy": -0.09007,
				"method": "rhf"
			},
			{
				"type": "unocc",
				"energy": -0.00341,
				"method": "rhf"
			},
			{
				"type": "unocc",
				"energy": -0.0004,
				"method": "rhf"
			},
			{
				"type": "unocc",
				"energy": 0.01327,
				"method": "rhf"
			},
			{
				"type": "unocc",
				"energy": 0.05192,
				"method": "rhf"
			}
		],
		"cosmo_sigma_profile": { 
			"-0.025": 0.0,
			"-0.024": 0.0,
			"-0.023": 0.0,
			"-0.022": 0.0,
			"-0.021": 0.0,
			"-0.02": 0.0,
			"-0.019": 0.0,
			"-0.018": 0.0,
			"-0.017": 0.0,
			"-0.016": 0.0,
			"-0.015": 0.0,
			"-0.014": 0.0,
			"-0.013": 0.0,
			"-0.012": 0.0,
			"-0.011": 0.199959161146,
			"-0.01": 2.8781989567,
			"-0.009": 7.20526199855,
			"-0.008": 7.11225630432,
			"-0.007": 8.01814078795,
			"-0.006": 7.22039108098,
			"-0.005": 7.11018088186,
			"-0.004": 8.33597375006,
			"-0.003": 8.57558488183,
			"-0.002": 11.6689780659,
			"-0.001": 12.0119170261,
			"0.0": 18.1519819355,
			"0.001": 17.9990905314,
			"0.002": 11.3592667454,
			"0.003": 6.76080151684,
			"0.004": 8.25099042653,
			"0.005": 11.5191436026,
			"0.006": 7.56584009388,
			"0.007": 3.53486448794,
			"0.008": 2.90335967488,
			"0.009": 4.15814706193,
			"0.01": 5.20440360764,
			"0.011": 2.97022103687,
			"0.012": 1.27199922222,
			"0.013": 0.0,
			"0.014": 0.0,
			"0.015": 0.0,
			"0.016": 0.0,
			"0.017": 0.0,
			"0.018": 0.0,
			"0.019": 0.0,
			"0.02": 0.0,
			"0.021": 0.0,
			"0.022": 0.0,
			"0.023": 0.0,
			"0.024": 0.0,
			"0.025": 0.0
		}
	}
}
