{
	 "smiles": "CC(=O)N(O)C1=CC=C2C(CC3=CC=CC=C23)=C1", 
	 "Tm": 409.65, 
	 "num_atms": 31, 
	 "gaussian": { 
		 "optdone": 1, 
		 "sigma_profile": "yes", 
		 "theory": "DFT", 
		 "functional": "B3LYP", 
		 "basiset": "6-31G**", 
		 "properties": { 
			 "R2extent": 6673.1841, 
			 "electric_dipole_moment_norm": 2.85644649696, 
			 "electric_quadrupole_moment_norm": 22.1703744569, 
			 "total_energy": -784.601573935, 
			 "HOMO_LUMO_gap": 0.16981, 
			 "cosmo_polarized_energy": -13.9, 
			 "cosmo_cavitation_energy": 34.7, 
			 "cosmo_dispersion_energy": -25.43, 
			 "cosmo_repulsion_energy": 1.93, 
			 "cosmo_total_nonelectrostatic_energy": 11.19, 
			 "SMD_solvation_energy": 6.73 
		},
		"coords": [
			{
				"x": -0.6523009646,
				"y": -5.8297885045,
				"z": -3.2134818033,
				"element": "C" 
			},
			{
				"x": -0.6382313886,
				"y": -4.3416911056,
				"z": -2.9193429957,
				"element": "C" 
			},
			{
				"x": -0.958221893,
				"y": -3.5013355345,
				"z": -3.746681873,
				"element": "O" 
			},
			{
				"x": -0.2150589195,
				"y": -3.9872182258,
				"z": -1.6418897785,
				"element": "N" 
			},
			{
				"x": -0.0148998934,
				"y": -5.0622080671,
				"z": -0.7609211143,
				"element": "O" 
			},
			{
				"x": -0.2339204365,
				"y": -2.6987683602,
				"z": -1.0358392498,
				"element": "C" 
			},
			{
				"x": -0.2336706451,
				"y": -2.6124226766,
				"z": 0.368156912,
				"element": "C" 
			},
			{
				"x": -0.2144812231,
				"y": -1.3720961293,
				"z": 1.0033674352,
				"element": "C" 
			},
			{
				"x": -0.1984825737,
				"y": -0.2068146477,
				"z": 0.2367055341,
				"element": "C" 
			},
			{
				"x": -0.2018393456,
				"y": -0.3013561938,
				"z": -1.1699668936,
				"element": "C" 
			},
			{
				"x": -0.1871367247,
				"y": 1.0863263803,
				"z": -1.7805450852,
				"element": "C" 
			},
			{
				"x": -0.1695491611,
				"y": 1.9887998905,
				"z": -0.5626467474,
				"element": "C" 
			},
			{
				"x": -0.148481593,
				"y": 3.3769393817,
				"z": -0.4898629542,
				"element": "C" 
			},
			{
				"x": -0.1362857058,
				"y": 3.9917874894,
				"z": 0.76776985,
				"element": "C" 
			},
			{
				"x": -0.1448144338,
				"y": 3.2214148864,
				"z": 1.9359483362,
				"element": "C" 
			},
			{
				"x": -0.1654570992,
				"y": 1.8265957783,
				"z": 1.869528726,
				"element": "C" 
			},
			{
				"x": -0.1776904681,
				"y": 1.2109371183,
				"z": 0.6154139596,
				"element": "C" 
			},
			{
				"x": -0.213941671,
				"y": -1.527676095,
				"z": -1.8185260629,
				"element": "C" 
			},
			{
				"x": 0.3344413938,
				"y": -6.2788225812,
				"z": -3.06691934,
				"element": "H" 
			},
			{
				"x": -0.9590649225,
				"y": -5.9496281585,
				"z": -4.2523304745,
				"element": "H" 
			},
			{
				"x": -1.3471284944,
				"y": -6.357599607,
				"z": -2.5549365465,
				"element": "H" 
			},
			{
				"x": 0.9482300492,
				"y": -5.1049021136,
				"z": -0.6361025403,
				"element": "H" 
			},
			{
				"x": -0.2631135041,
				"y": -3.5213789678,
				"z": 0.9545603795,
				"element": "H" 
			},
			{
				"x": -0.2182684937,
				"y": -1.3288613453,
				"z": 2.0889843395,
				"element": "H" 
			},
			{
				"x": -1.0687168358,
				"y": 1.2621296093,
				"z": -2.4111061182,
				"element": "H" 
			},
			{
				"x": 0.6892995359,
				"y": 1.2431352153,
				"z": -2.4232667102,
				"element": "H" 
			},
			{
				"x": -0.1421744132,
				"y": 3.9809349414,
				"z": -1.3937945969,
				"element": "H" 
			},
			{
				"x": -0.1203676124,
				"y": 5.0756751087,
				"z": 0.8375566822,
				"element": "H" 
			},
			{
				"x": -0.1354306039,
				"y": 3.7137435306,
				"z": 2.9043451169,
				"element": "H" 
			},
			{
				"x": -0.1719997343,
				"y": 1.2346054508,
				"z": 2.7807918262,
				"element": "H" 
			},
			{
				"x": -0.2275422249,
				"y": -1.6005564675,
				"z": -2.8963682128,
				"element": "H" 
			}
		],
		 "valence_orbital": [ 
			{
				"type": "occ",
				"energy": -0.2576,
				"method": "rhf"
			},
			{
				"type": "occ",
				"energy": -0.25457,
				"method": "rhf"
			},
			{
				"type": "occ",
				"energy": -0.24733,
				"method": "rhf"
			},
			{
				"type": "occ",
				"energy": -0.23977,
				"method": "rhf"
			},
			{
				"type": "occ",
				"energy": -0.20056,
				"method": "rhf"
			},
			{
				"type": "unocc",
				"energy": -0.03075,
				"method": "rhf"
			},
			{
				"type": "unocc",
				"energy": -0.00915,
				"method": "rhf"
			},
			{
				"type": "unocc",
				"energy": 0.01012,
				"method": "rhf"
			},
			{
				"type": "unocc",
				"energy": 0.01671,
				"method": "rhf"
			},
			{
				"type": "unocc",
				"energy": 0.04278,
				"method": "rhf"
			}
		],
		"cosmo_sigma_profile": { 
			"-0.025": 0.0,
			"-0.024": 0.0,
			"-0.023": 0.0,
			"-0.022": 0.0,
			"-0.021": 0.0,
			"-0.02": 0.0,
			"-0.019": 0.0847782488796,
			"-0.018": 0.886448620847,
			"-0.017": 1.24267012862,
			"-0.016": 0.641032603142,
			"-0.015": 0.669456140896,
			"-0.014": 0.835495374479,
			"-0.013": 1.76778582632,
			"-0.012": 0.816184764414,
			"-0.011": 0.554267433033,
			"-0.01": 0.852595836922,
			"-0.009": 1.37602616794,
			"-0.008": 1.38801554777,
			"-0.007": 2.04297918895,
			"-0.006": 9.27998419939,
			"-0.005": 21.2844723746,
			"-0.004": 24.2265318538,
			"-0.003": 24.84019982,
			"-0.002": 23.2621349926,
			"-0.001": 22.0607780648,
			"0.0": 16.1632689775,
			"0.001": 13.9569094961,
			"0.002": 18.0697244992,
			"0.003": 18.3130999829,
			"0.004": 19.8419442354,
			"0.005": 20.5177315671,
			"0.006": 12.1311637344,
			"0.007": 4.49279899188,
			"0.008": 2.14142189943,
			"0.009": 2.42711726649,
			"0.01": 1.89540217388,
			"0.011": 2.41793153475,
			"0.012": 2.81227153048,
			"0.013": 2.82346221234,
			"0.014": 0.798933848818,
			"0.015": 0.0,
			"0.016": 0.0,
			"0.017": 0.0,
			"0.018": 0.0,
			"0.019": 0.0,
			"0.02": 0.0,
			"0.021": 0.0,
			"0.022": 0.0,
			"0.023": 0.0,
			"0.024": 0.0,
			"0.025": 0.0
		}
	}
}
