{
	 "smiles": "CC#N", 
	 "Tm": 227.25, 
	 "num_atms": 6, 
	 "gaussian": { 
		 "optdone": 1, 
		 "sigma_profile": "yes", 
		 "theory": "DFT", 
		 "functional": "B3LYP", 
		 "basiset": "6-31G**", 
		 "properties": { 
			 "R2extent": 377.7354, 
			 "electric_dipole_moment_norm": 3.82309512045, 
			 "electric_quadrupole_moment_norm": 6.90283458878, 
			 "total_energy": -132.755637551, 
			 "HOMO_LUMO_gap": 0.36298, 
			 "cosmo_polarized_energy": -8.5, 
			 "cosmo_cavitation_energy": 10.32, 
			 "cosmo_dispersion_energy": -7.11, 
			 "cosmo_repulsion_energy": 0.7, 
			 "cosmo_total_nonelectrostatic_energy": 3.91, 
			 "SMD_solvation_energy": 3.99 
		},
		"coords": [
			{
				"x": 0.3077138232,
				"y": 1.6030313188,
				"z": -1.2562041391,
				"element": "C" 
			},
			{
				"x": -0.6265025593,
				"y": 1.5498028417,
				"z": -0.1351775172,
				"element": "C" 
			},
			{
				"x": -1.368762324,
				"y": 1.5075489541,
				"z": 0.7554920639,
				"element": "N" 
			},
			{
				"x": 1.3383570163,
				"y": 1.6168913768,
				"z": -0.8904842759,
				"element": "H" 
			},
			{
				"x": 0.1769922231,
				"y": 0.7289503798,
				"z": -1.9004560953,
				"element": "H" 
			},
			{
				"x": 0.1354018208,
				"y": 2.5046751288,
				"z": -1.8507700365,
				"element": "H" 
			}
		],
		 "valence_orbital": [ 
			{
				"type": "occ",
				"energy": -0.46409,
				"method": "rhf"
			},
			{
				"type": "occ",
				"energy": -0.46408,
				"method": "rhf"
			},
			{
				"type": "occ",
				"energy": -0.35746,
				"method": "rhf"
			},
			{
				"type": "occ",
				"energy": -0.32595,
				"method": "rhf"
			},
			{
				"type": "occ",
				"energy": -0.32594,
				"method": "rhf"
			},
			{
				"type": "unocc",
				"energy": 0.03704,
				"method": "rhf"
			},
			{
				"type": "unocc",
				"energy": 0.03704,
				"method": "rhf"
			},
			{
				"type": "unocc",
				"energy": 0.08433,
				"method": "rhf"
			},
			{
				"type": "unocc",
				"energy": 0.16039,
				"method": "rhf"
			},
			{
				"type": "unocc",
				"energy": 0.16039,
				"method": "rhf"
			}
		],
		"cosmo_sigma_profile": { 
			"-0.025": 0.0,
			"-0.024": 0.0,
			"-0.023": 0.0,
			"-0.022": 0.0,
			"-0.021": 0.0,
			"-0.02": 0.0,
			"-0.019": 0.0,
			"-0.018": 0.0,
			"-0.017": 0.0,
			"-0.016": 0.0,
			"-0.015": 0.0,
			"-0.014": 0.0,
			"-0.013": 0.0,
			"-0.012": 0.0,
			"-0.011": 0.0,
			"-0.01": 0.0,
			"-0.009": 1.44582050552,
			"-0.008": 7.56048667595,
			"-0.007": 6.93927691633,
			"-0.006": 6.57372191788,
			"-0.005": 9.02221152956,
			"-0.004": 8.84353927734,
			"-0.003": 3.48471488022,
			"-0.002": 2.6676421111,
			"-0.001": 1.34282700674,
			"0.0": 1.63101348701,
			"0.001": 2.30421706606,
			"0.002": 1.43051676754,
			"0.003": 1.65387242929,
			"0.004": 2.45517178573,
			"0.005": 1.62129682884,
			"0.006": 2.92872584012,
			"0.007": 2.54621890598,
			"0.008": 3.11149679257,
			"0.009": 3.66820644214,
			"0.01": 3.41422839169,
			"0.011": 3.06128489668,
			"0.012": 2.67703772299,
			"0.013": 2.08275819667,
			"0.014": 0.706331413048,
			"0.015": 0.0,
			"0.016": 0.0,
			"0.017": 0.0,
			"0.018": 0.0,
			"0.019": 0.0,
			"0.02": 0.0,
			"0.021": 0.0,
			"0.022": 0.0,
			"0.023": 0.0,
			"0.024": 0.0,
			"0.025": 0.0
		}
	}
}
