{
	 "smiles": "CCCCC(CC)CNCC(CC)CCCC", 
	 "Tm": 213.15, 
	 "num_atms": 52, 
	 "gaussian": { 
		 "optdone": 1, 
		 "sigma_profile": "yes", 
		 "theory": "DFT", 
		 "functional": "B3LYP", 
		 "basiset": "6-31G**", 
		 "properties": { 
			 "R2extent": 6628.1772, 
			 "electric_dipole_moment_norm": 1.06101290284, 
			 "electric_quadrupole_moment_norm": 3.76021642196, 
			 "total_energy": -685.576320876, 
			 "HOMO_LUMO_gap": 0.28458, 
			 "cosmo_polarized_energy": -3.26, 
			 "cosmo_cavitation_energy": 48.45, 
			 "cosmo_dispersion_energy": -30.57, 
			 "cosmo_repulsion_energy": 2.46, 
			 "cosmo_total_nonelectrostatic_energy": 20.34, 
			 "SMD_solvation_energy": 6.98 
		},
		"coords": [
			{
				"x": 3.3044054305,
				"y": -2.2201595759,
				"z": 0.5728780126,
				"element": "C" 
			},
			{
				"x": 2.5257509968,
				"y": -1.2086621192,
				"z": 1.4222264305,
				"element": "C" 
			},
			{
				"x": 1.3968919623,
				"y": -1.8248772235,
				"z": 2.2662067549,
				"element": "C" 
			},
			{
				"x": 0.2090890317,
				"y": -2.4573456412,
				"z": 1.5124844717,
				"element": "C" 
			},
			{
				"x": -0.6853756649,
				"y": -1.4684156082,
				"z": 0.7121068938,
				"element": "C" 
			},
			{
				"x": -2.1994499659,
				"y": -1.7907034922,
				"z": 0.8604176289,
				"element": "C" 
			},
			{
				"x": -3.1123972108,
				"y": -0.557515014,
				"z": 0.9359506073,
				"element": "C" 
			},
			{
				"x": -0.246061079,
				"y": -1.443289536,
				"z": -0.7662027957,
				"element": "C" 
			},
			{
				"x": -0.9594594859,
				"y": -0.4581713088,
				"z": -1.5811468499,
				"element": "N" 
			},
			{
				"x": -0.4865288094,
				"y": -0.3564841382,
				"z": -2.9735168465,
				"element": "C" 
			},
			{
				"x": 0.385691773,
				"y": 0.8779767708,
				"z": -3.300786525,
				"element": "C" 
			},
			{
				"x": 1.6783265703,
				"y": 0.9221797372,
				"z": -2.4626243246,
				"element": "C" 
			},
			{
				"x": 2.6772452874,
				"y": 2.0032221661,
				"z": -2.8928610294,
				"element": "C" 
			},
			{
				"x": -0.4100075541,
				"y": 2.2071207672,
				"z": -3.2988634589,
				"element": "C" 
			},
			{
				"x": -0.7729764226,
				"y": 2.8115439736,
				"z": -1.9334796067,
				"element": "C" 
			},
			{
				"x": -1.6228996936,
				"y": 4.0829894967,
				"z": -2.0596401133,
				"element": "C" 
			},
			{
				"x": -1.9721522067,
				"y": 4.7121981091,
				"z": -0.7069417886,
				"element": "C" 
			},
			{
				"x": 4.1253651326,
				"y": -1.7348138563,
				"z": 0.0347201189,
				"element": "H" 
			},
			{
				"x": 3.7383647718,
				"y": -3.0076170861,
				"z": 1.2002822537,
				"element": "H" 
			},
			{
				"x": 2.6680091446,
				"y": -2.7088530602,
				"z": -0.1722377392,
				"element": "H" 
			},
			{
				"x": 2.1249211133,
				"y": -0.4142116845,
				"z": 0.7800924288,
				"element": "H" 
			},
			{
				"x": 3.2257361944,
				"y": -0.7094812775,
				"z": 2.1047853702,
				"element": "H" 
			},
			{
				"x": 1.8364743573,
				"y": -2.5947777247,
				"z": 2.91602465,
				"element": "H" 
			},
			{
				"x": 1.0020595052,
				"y": -1.0527252907,
				"z": 2.9405191773,
				"element": "H" 
			},
			{
				"x": -0.4077230912,
				"y": -2.96353499,
				"z": 2.2644311415,
				"element": "H" 
			},
			{
				"x": 0.5673605254,
				"y": -3.2565564821,
				"z": 0.8491581523,
				"element": "H" 
			},
			{
				"x": -0.5241623109,
				"y": -0.4598825856,
				"z": 1.1191803113,
				"element": "H" 
			},
			{
				"x": -2.5202106222,
				"y": -2.4453952735,
				"z": 0.0363493401,
				"element": "H" 
			},
			{
				"x": -2.3555863317,
				"y": -2.3789231725,
				"z": 1.7725711507,
				"element": "H" 
			},
			{
				"x": -2.9949513623,
				"y": 0.1014978644,
				"z": 0.0713517757,
				"element": "H" 
			},
			{
				"x": -4.1662830797,
				"y": -0.8493825898,
				"z": 1.0017538013,
				"element": "H" 
			},
			{
				"x": -2.8780248535,
				"y": 0.0391449405,
				"z": 1.8247273594,
				"element": "H" 
			},
			{
				"x": 0.8196760332,
				"y": -1.2068525864,
				"z": -0.8172792373,
				"element": "H" 
			},
			{
				"x": -0.3506732488,
				"y": -2.4699203064,
				"z": -1.1732500444,
				"element": "H" 
			},
			{
				"x": -1.9432522542,
				"y": -0.7032281991,
				"z": -1.5929993646,
				"element": "H" 
			},
			{
				"x": -1.3631803864,
				"y": -0.3237248347,
				"z": -3.6330184763,
				"element": "H" 
			},
			{
				"x": 0.0743998398,
				"y": -1.2633409604,
				"z": -3.2590214352,
				"element": "H" 
			},
			{
				"x": 0.695039157,
				"y": 0.7184097241,
				"z": -4.3469438781,
				"element": "H" 
			},
			{
				"x": 1.4231435618,
				"y": 1.0581524291,
				"z": -1.404959833,
				"element": "H" 
			},
			{
				"x": 2.1700908204,
				"y": -0.0576014867,
				"z": -2.5356139164,
				"element": "H" 
			},
			{
				"x": 3.6027239136,
				"y": 1.9354624191,
				"z": -2.3112618001,
				"element": "H" 
			},
			{
				"x": 2.275497887,
				"y": 3.011725162,
				"z": -2.7523224064,
				"element": "H" 
			},
			{
				"x": 2.9431030127,
				"y": 1.8982826378,
				"z": -3.9514329255,
				"element": "H" 
			},
			{
				"x": 0.1577664432,
				"y": 2.9543381151,
				"z": -3.870073214,
				"element": "H" 
			},
			{
				"x": -1.3349264409,
				"y": 2.0471640681,
				"z": -3.8723253448,
				"element": "H" 
			},
			{
				"x": 0.1441529032,
				"y": 3.0542513149,
				"z": -1.3791846728,
				"element": "H" 
			},
			{
				"x": -1.2982622569,
				"y": 2.0638680905,
				"z": -1.3305033946,
				"element": "H" 
			},
			{
				"x": -1.0910418989,
				"y": 4.819366507,
				"z": -2.6786991482,
				"element": "H" 
			},
			{
				"x": -2.5492156158,
				"y": 3.847807861,
				"z": -2.6024091999,
				"element": "H" 
			},
			{
				"x": -2.5825386919,
				"y": 5.6136575349,
				"z": -0.8270408218,
				"element": "H" 
			},
			{
				"x": -2.5331011818,
				"y": 4.0112911273,
				"z": -0.0781103854,
				"element": "H" 
			},
			{
				"x": -1.0673436487,
				"y": 4.9945962879,
				"z": -0.1562672543,
				"element": "H" 
			}
		],
		 "valence_orbital": [ 
			{
				"type": "occ",
				"energy": -0.30376,
				"method": "rhf"
			},
			{
				"type": "occ",
				"energy": -0.298,
				"method": "rhf"
			},
			{
				"type": "occ",
				"energy": -0.29398,
				"method": "rhf"
			},
			{
				"type": "occ",
				"energy": -0.29218,
				"method": "rhf"
			},
			{
				"type": "occ",
				"energy": -0.21318,
				"method": "rhf"
			},
			{
				"type": "unocc",
				"energy": 0.0714,
				"method": "rhf"
			},
			{
				"type": "unocc",
				"energy": 0.08081,
				"method": "rhf"
			},
			{
				"type": "unocc",
				"energy": 0.08973,
				"method": "rhf"
			},
			{
				"type": "unocc",
				"energy": 0.09722,
				"method": "rhf"
			},
			{
				"type": "unocc",
				"energy": 0.1041,
				"method": "rhf"
			}
		],
		"cosmo_sigma_profile": { 
			"-0.025": 0.0,
			"-0.024": 0.0,
			"-0.023": 0.0,
			"-0.022": 0.0,
			"-0.021": 0.0,
			"-0.02": 0.0,
			"-0.019": 0.0,
			"-0.018": 0.0,
			"-0.017": 0.0,
			"-0.016": 0.0,
			"-0.015": 0.0,
			"-0.014": 0.0,
			"-0.013": 0.0,
			"-0.012": 0.0,
			"-0.011": 0.0,
			"-0.01": 0.0,
			"-0.009": 0.223200512341,
			"-0.008": 0.894458257627,
			"-0.007": 1.28627142243,
			"-0.006": 1.64964050083,
			"-0.005": 2.00692391622,
			"-0.004": 2.33659385947,
			"-0.003": 8.13262044065,
			"-0.002": 43.5431376401,
			"-0.001": 86.7062866634,
			"0.0": 89.1032999132,
			"0.001": 76.9467813384,
			"0.002": 40.9134731648,
			"0.003": 5.75094693602,
			"0.004": 2.75633510926,
			"0.005": 1.51617844363,
			"0.006": 1.23381103932,
			"0.007": 0.980858968513,
			"0.008": 0.555559423203,
			"0.009": 1.10116678932,
			"0.01": 0.909337655063,
			"0.011": 0.642432154715,
			"0.012": 0.40816185398,
			"0.013": 0.0343695464649,
			"0.014": 0.0,
			"0.015": 0.0,
			"0.016": 0.0,
			"0.017": 0.0,
			"0.018": 0.0,
			"0.019": 0.0,
			"0.02": 0.0,
			"0.021": 0.0,
			"0.022": 0.0,
			"0.023": 0.0,
			"0.024": 0.0,
			"0.025": 0.0
		}
	}
}
