{
	 "smiles": "CCNS(=O)(=O)C1=C(OC)C=CC=C1", 
	 "Tm": 358.15, 
	 "num_atms": 27, 
	 "gaussian": { 
		 "optdone": 1, 
		 "sigma_profile": "yes", 
		 "theory": "DFT", 
		 "functional": "B3LYP", 
		 "basiset": "6-31G**", 
		 "properties": { 
			 "R2extent": 3532.0795, 
			 "electric_dipole_moment_norm": 4.11661662291, 
			 "electric_quadrupole_moment_norm": 18.2084094152, 
			 "total_energy": -1029.32136559, 
			 "HOMO_LUMO_gap": 0.21779, 
			 "cosmo_polarized_energy": -13.75, 
			 "cosmo_cavitation_energy": 31.15, 
			 "cosmo_dispersion_energy": -22.79, 
			 "cosmo_repulsion_energy": 1.77, 
			 "cosmo_total_nonelectrostatic_energy": 10.13, 
			 "SMD_solvation_energy": 4.89 
		},
		"coords": [
			{
				"x": -0.8760894176,
				"y": 1.8066862949,
				"z": -2.8257147102,
				"element": "C" 
			},
			{
				"x": 0.1078657826,
				"y": 0.7653149708,
				"z": -2.2999390488,
				"element": "C" 
			},
			{
				"x": 0.0546358802,
				"y": 0.7421992771,
				"z": -0.8232268382,
				"element": "N" 
			},
			{
				"x": 0.9527223937,
				"y": -0.4756018462,
				"z": -0.0731878166,
				"element": "S" 
			},
			{
				"x": 2.376037336,
				"y": -0.1155814629,
				"z": 0.0426130926,
				"element": "O" 
			},
			{
				"x": 0.5842712274,
				"y": -1.7380965908,
				"z": -0.7226944172,
				"element": "O" 
			},
			{
				"x": 0.2403629474,
				"y": -0.4512078623,
				"z": 1.5732173459,
				"element": "C" 
			},
			{
				"x": 0.3341404005,
				"y": 0.6993595232,
				"z": 2.3678479174,
				"element": "C" 
			},
			{
				"x": 0.8496876837,
				"y": 1.8567574831,
				"z": 1.8290437731,
				"element": "O" 
			},
			{
				"x": 2.1651929943,
				"y": 2.216823594,
				"z": 2.2879028394,
				"element": "C" 
			},
			{
				"x": -0.1683792782,
				"y": 0.6725918063,
				"z": 3.6699444202,
				"element": "C" 
			},
			{
				"x": -0.7498837063,
				"y": -0.4949554803,
				"z": 4.1670003262,
				"element": "C" 
			},
			{
				"x": -0.8444201654,
				"y": -1.6367718094,
				"z": 3.3683606625,
				"element": "C" 
			},
			{
				"x": -0.3518714565,
				"y": -1.6146601165,
				"z": 2.0634508875,
				"element": "C" 
			},
			{
				"x": -0.6134807437,
				"y": 2.8140932993,
				"z": -2.4833297833,
				"element": "H" 
			},
			{
				"x": -1.8923456855,
				"y": 1.5855630307,
				"z": -2.4881756692,
				"element": "H" 
			},
			{
				"x": -0.864403599,
				"y": 1.8149239162,
				"z": -3.919968611,
				"element": "H" 
			},
			{
				"x": 1.12167476,
				"y": 0.9754092536,
				"z": -2.6688845733,
				"element": "H" 
			},
			{
				"x": -0.1692665539,
				"y": -0.23352414,
				"z": -2.644386814,
				"element": "H" 
			},
			{
				"x": 0.3263771924,
				"y": 1.6270669888,
				"z": -0.3936615602,
				"element": "H" 
			},
			{
				"x": 2.1907157608,
				"y": 2.2925933886,
				"z": 3.3806678644,
				"element": "H" 
			},
			{
				"x": 2.8979724544,
				"y": 1.4837806987,
				"z": 1.9392093993,
				"element": "H" 
			},
			{
				"x": 2.3803907991,
				"y": 3.1941316341,
				"z": 1.8528256339,
				"element": "H" 
			},
			{
				"x": -0.1153668552,
				"y": 1.5729108154,
				"z": 4.2740616405,
				"element": "H" 
			},
			{
				"x": -1.1413002408,
				"y": -0.5070774054,
				"z": 5.1799597798,
				"element": "H" 
			},
			{
				"x": -1.3040166687,
				"y": -2.5397390345,
				"z": 3.7573209162,
				"element": "H" 
			},
			{
				"x": -0.4142232417,
				"y": -2.4823902267,
				"z": 1.415743343,
				"element": "H" 
			}
		],
		 "valence_orbital": [ 
			{
				"type": "occ",
				"energy": -0.30053,
				"method": "rhf"
			},
			{
				"type": "occ",
				"energy": -0.29329,
				"method": "rhf"
			},
			{
				"type": "occ",
				"energy": -0.27192,
				"method": "rhf"
			},
			{
				"type": "occ",
				"energy": -0.25907,
				"method": "rhf"
			},
			{
				"type": "occ",
				"energy": -0.25077,
				"method": "rhf"
			},
			{
				"type": "unocc",
				"energy": -0.03298,
				"method": "rhf"
			},
			{
				"type": "unocc",
				"energy": -0.01812,
				"method": "rhf"
			},
			{
				"type": "unocc",
				"energy": 0.06263,
				"method": "rhf"
			},
			{
				"type": "unocc",
				"energy": 0.07252,
				"method": "rhf"
			},
			{
				"type": "unocc",
				"energy": 0.08293,
				"method": "rhf"
			}
		],
		"cosmo_sigma_profile": { 
			"-0.025": 0.0,
			"-0.024": 0.0,
			"-0.023": 0.0,
			"-0.022": 0.0,
			"-0.021": 0.0,
			"-0.02": 0.0,
			"-0.019": 0.0,
			"-0.018": 0.0,
			"-0.017": 0.0,
			"-0.016": 0.0,
			"-0.015": 0.0,
			"-0.014": 0.0,
			"-0.013": 0.0,
			"-0.012": 0.147699566427,
			"-0.011": 0.921504971885,
			"-0.01": 0.765664106461,
			"-0.009": 1.0264275875,
			"-0.008": 1.37647802941,
			"-0.007": 7.47146792101,
			"-0.006": 14.1486358124,
			"-0.005": 16.5308173609,
			"-0.004": 22.5934465466,
			"-0.003": 27.8459804723,
			"-0.002": 22.1285245286,
			"-0.001": 16.6334713493,
			"0.0": 19.1122576898,
			"0.001": 15.0757561773,
			"0.002": 17.4270058458,
			"0.003": 14.6657138657,
			"0.004": 6.31982047852,
			"0.005": 4.41082707258,
			"0.006": 5.10224545067,
			"0.007": 4.60660708197,
			"0.008": 3.8924791725,
			"0.009": 5.39005287209,
			"0.01": 6.30190189943,
			"0.011": 7.48685602296,
			"0.012": 5.09904374835,
			"0.013": 0.218598486606,
			"0.014": 0.0,
			"0.015": 0.0,
			"0.016": 0.0,
			"0.017": 0.0,
			"0.018": 0.0,
			"0.019": 0.0,
			"0.02": 0.0,
			"0.021": 0.0,
			"0.022": 0.0,
			"0.023": 0.0,
			"0.024": 0.0,
			"0.025": 0.0
		}
	}
}
