{
	 "smiles": "CCC(CC)C=C", 
	 "Tm": 146.15, 
	 "num_atms": 21, 
	 "gaussian": { 
		 "optdone": 1, 
		 "sigma_profile": "yes", 
		 "theory": "DFT", 
		 "functional": "B3LYP", 
		 "basiset": "6-31G**", 
		 "properties": { 
			 "R2extent": 1394.0547, 
			 "electric_dipole_moment_norm": 0.386676531483, 
			 "electric_quadrupole_moment_norm": 1.6923597549, 
			 "total_energy": -275.171790461, 
			 "HOMO_LUMO_gap": 0.2725, 
			 "cosmo_polarized_energy": -1.56, 
			 "cosmo_cavitation_energy": 22.03, 
			 "cosmo_dispersion_energy": -15.76, 
			 "cosmo_repulsion_energy": 1.32, 
			 "cosmo_total_nonelectrostatic_energy": 7.6, 
			 "SMD_solvation_energy": 4.38 
		},
		"coords": [
			{
				"x": 0.8824442042,
				"y": 2.5174438616,
				"z": 1.6603740019,
				"element": "C" 
			},
			{
				"x": 1.1568922589,
				"y": 1.0581168981,
				"z": 1.2708226675,
				"element": "C" 
			},
			{
				"x": 0.855792532,
				"y": 0.6887984182,
				"z": -0.1984179263,
				"element": "C" 
			},
			{
				"x": -0.5929117699,
				"y": 1.0152381241,
				"z": -0.6372183923,
				"element": "C" 
			},
			{
				"x": -1.6795114765,
				"y": 0.3143421826,
				"z": 0.18494308,
				"element": "C" 
			},
			{
				"x": 1.8373789167,
				"y": 1.255670145,
				"z": -1.2045927889,
				"element": "C" 
			},
			{
				"x": 2.9931146664,
				"y": 1.8792292526,
				"z": -0.970251126,
				"element": "C" 
			},
			{
				"x": -0.184118754,
				"y": 2.7578697196,
				"z": 1.6017620538,
				"element": "H" 
			},
			{
				"x": 1.201760727,
				"y": 2.7066279477,
				"z": 2.6906464931,
				"element": "H" 
			},
			{
				"x": 1.4139920668,
				"y": 3.2182631209,
				"z": 1.0105167627,
				"element": "H" 
			},
			{
				"x": 0.5682133899,
				"y": 0.4004286333,
				"z": 1.9211201496,
				"element": "H" 
			},
			{
				"x": 2.2048463253,
				"y": 0.8131967487,
				"z": 1.4821878462,
				"element": "H" 
			},
			{
				"x": 0.9529106896,
				"y": -0.408409328,
				"z": -0.2704780188,
				"element": "H" 
			},
			{
				"x": -0.7478434706,
				"y": 2.100945992,
				"z": -0.6104325802,
				"element": "H" 
			},
			{
				"x": -0.7027739389,
				"y": 0.7248334224,
				"z": -1.6903034874,
				"element": "H" 
			},
			{
				"x": -1.5385292461,
				"y": -0.7729798424,
				"z": 0.1816242545,
				"element": "H" 
			},
			{
				"x": -1.6826417698,
				"y": 0.6437828075,
				"z": 1.2288699135,
				"element": "H" 
			},
			{
				"x": -2.673286111,
				"y": 0.5205510399,
				"z": -0.22585548,
				"element": "H" 
			},
			{
				"x": 1.5450884421,
				"y": 1.1016812467,
				"z": -2.2453138227,
				"element": "H" 
			},
			{
				"x": 3.6215388725,
				"y": 2.2181221932,
				"z": -1.7887905213,
				"element": "H" 
			},
			{
				"x": 3.3649434456,
				"y": 2.0732474163,
				"z": 0.0313869209,
				"element": "H" 
			}
		],
		 "valence_orbital": [ 
			{
				"type": "occ",
				"energy": -0.34474,
				"method": "rhf"
			},
			{
				"type": "occ",
				"energy": -0.32169,
				"method": "rhf"
			},
			{
				"type": "occ",
				"energy": -0.3138,
				"method": "rhf"
			},
			{
				"type": "occ",
				"energy": -0.30751,
				"method": "rhf"
			},
			{
				"type": "occ",
				"energy": -0.24764,
				"method": "rhf"
			},
			{
				"type": "unocc",
				"energy": 0.02486,
				"method": "rhf"
			},
			{
				"type": "unocc",
				"energy": 0.082,
				"method": "rhf"
			},
			{
				"type": "unocc",
				"energy": 0.11635,
				"method": "rhf"
			},
			{
				"type": "unocc",
				"energy": 0.12636,
				"method": "rhf"
			},
			{
				"type": "unocc",
				"energy": 0.13316,
				"method": "rhf"
			}
		],
		"cosmo_sigma_profile": { 
			"-0.025": 0.0,
			"-0.024": 0.0,
			"-0.023": 0.0,
			"-0.022": 0.0,
			"-0.021": 0.0,
			"-0.02": 0.0,
			"-0.019": 0.0,
			"-0.018": 0.0,
			"-0.017": 0.0,
			"-0.016": 0.0,
			"-0.015": 0.0,
			"-0.014": 0.0,
			"-0.013": 0.0,
			"-0.012": 0.0,
			"-0.011": 0.0,
			"-0.01": 0.0,
			"-0.009": 0.0,
			"-0.008": 0.0,
			"-0.007": 0.0,
			"-0.006": 0.0,
			"-0.005": 0.415125797676,
			"-0.004": 4.40979638508,
			"-0.003": 11.6130468729,
			"-0.002": 28.7320202836,
			"-0.001": 32.0490661168,
			"0.0": 30.1666071678,
			"0.001": 30.646677306,
			"0.002": 14.7199978556,
			"0.003": 5.23891498227,
			"0.004": 3.2042230484,
			"0.005": 3.5341274056,
			"0.006": 2.68026651406,
			"0.007": 2.0024861266,
			"0.008": 0.881540007518,
			"0.009": 0.0,
			"0.01": 0.0,
			"0.011": 0.0,
			"0.012": 0.0,
			"0.013": 0.0,
			"0.014": 0.0,
			"0.015": 0.0,
			"0.016": 0.0,
			"0.017": 0.0,
			"0.018": 0.0,
			"0.019": 0.0,
			"0.02": 0.0,
			"0.021": 0.0,
			"0.022": 0.0,
			"0.023": 0.0,
			"0.024": 0.0,
			"0.025": 0.0
		}
	}
}
