{
	 "smiles": "CN(C)CC(N)=NO", 
	 "Tm": 409.15, 
	 "num_atms": 19, 
	 "gaussian": { 
		 "optdone": 1, 
		 "sigma_profile": "yes", 
		 "theory": "DFT", 
		 "functional": "B3LYP", 
		 "basiset": "6-31G**", 
		 "properties": { 
			 "R2extent": 1511.0595, 
			 "electric_dipole_moment_norm": 1.80555469039, 
			 "electric_quadrupole_moment_norm": 5.93020280092, 
			 "total_energy": -398.472795193, 
			 "HOMO_LUMO_gap": 0.24612, 
			 "cosmo_polarized_energy": -9.88, 
			 "cosmo_cavitation_energy": 21.74, 
			 "cosmo_dispersion_energy": -15.88, 
			 "cosmo_repulsion_energy": 1.35, 
			 "cosmo_total_nonelectrostatic_energy": 7.21, 
			 "SMD_solvation_energy": 2.87 
		},
		"coords": [
			{
				"x": -0.7013654895,
				"y": 1.9901923621,
				"z": -3.3336907138,
				"element": "C" 
			},
			{
				"x": -0.4037403862,
				"y": 0.8549929216,
				"z": -2.467951621,
				"element": "N" 
			},
			{
				"x": 0.7677230457,
				"y": 0.1205969918,
				"z": -2.9404435078,
				"element": "C" 
			},
			{
				"x": -0.2615723746,
				"y": 1.259030936,
				"z": -1.0652861113,
				"element": "C" 
			},
			{
				"x": -0.3730883879,
				"y": 0.0690209072,
				"z": -0.1427006262,
				"element": "C" 
			},
			{
				"x": -1.4490924919,
				"y": -0.7577026155,
				"z": -0.3505372927,
				"element": "N" 
			},
			{
				"x": 0.5009468521,
				"y": -0.0434910668,
				"z": 0.7986326911,
				"element": "N" 
			},
			{
				"x": 0.1965982212,
				"y": -1.2010240101,
				"z": 1.5831701344,
				"element": "O" 
			},
			{
				"x": -1.6145062813,
				"y": 2.4887065408,
				"z": -2.9938082967,
				"element": "H" 
			},
			{
				"x": 0.1098691504,
				"y": 2.7416558609,
				"z": -3.3631337958,
				"element": "H" 
			},
			{
				"x": -0.8678903114,
				"y": 1.6368806376,
				"z": -4.35636336,
				"element": "H" 
			},
			{
				"x": 1.6828392918,
				"y": 0.7410637864,
				"z": -2.9594567341,
				"element": "H" 
			},
			{
				"x": 0.9580763779,
				"y": -0.7371679958,
				"z": -2.2897544639,
				"element": "H" 
			},
			{
				"x": 0.5851965009,
				"y": -0.2504254844,
				"z": -3.9539265131,
				"element": "H" 
			},
			{
				"x": 0.6866977162,
				"y": 1.7785776537,
				"z": -0.8509986706,
				"element": "H" 
			},
			{
				"x": -1.081023513,
				"y": 1.9514428654,
				"z": -0.8355958205,
				"element": "H" 
			},
			{
				"x": -1.7780846926,
				"y": -0.7635576499,
				"z": -1.3072112564,
				"element": "H" 
			},
			{
				"x": -1.4023260049,
				"y": -1.6495296666,
				"z": 0.1212570948,
				"element": "H" 
			},
			{
				"x": 0.9256427773,
				"y": -1.2059629744,
				"z": 2.2144988636,
				"element": "H" 
			}
		],
		 "valence_orbital": [ 
			{
				"type": "occ",
				"energy": -0.36121,
				"method": "rhf"
			},
			{
				"type": "occ",
				"energy": -0.30214,
				"method": "rhf"
			},
			{
				"type": "occ",
				"energy": -0.26382,
				"method": "rhf"
			},
			{
				"type": "occ",
				"energy": -0.22505,
				"method": "rhf"
			},
			{
				"type": "occ",
				"energy": -0.20464,
				"method": "rhf"
			},
			{
				"type": "unocc",
				"energy": 0.04148,
				"method": "rhf"
			},
			{
				"type": "unocc",
				"energy": 0.07783,
				"method": "rhf"
			},
			{
				"type": "unocc",
				"energy": 0.08927,
				"method": "rhf"
			},
			{
				"type": "unocc",
				"energy": 0.12992,
				"method": "rhf"
			},
			{
				"type": "unocc",
				"energy": 0.137,
				"method": "rhf"
			}
		],
		"cosmo_sigma_profile": { 
			"-0.025": 0.0,
			"-0.024": 0.0,
			"-0.023": 0.0,
			"-0.022": 0.0,
			"-0.021": 0.0,
			"-0.02": 0.0,
			"-0.019": 0.0,
			"-0.018": 0.0,
			"-0.017": 0.0150694893687,
			"-0.016": 1.07994055193,
			"-0.015": 0.577055592087,
			"-0.014": 0.866038181312,
			"-0.013": 0.798085534729,
			"-0.012": 1.2008137559,
			"-0.011": 1.37629955643,
			"-0.01": 2.06324655659,
			"-0.009": 2.359742684,
			"-0.008": 2.35893017636,
			"-0.007": 2.11520294089,
			"-0.006": 2.49525812072,
			"-0.005": 6.19174112181,
			"-0.004": 11.5910073546,
			"-0.003": 14.346172595,
			"-0.002": 22.7957129506,
			"-0.001": 23.6340200856,
			"0.0": 17.7005599428,
			"0.001": 5.7918405854,
			"0.002": 5.1545447184,
			"0.003": 4.10376389184,
			"0.004": 3.67032326318,
			"0.005": 4.75405770788,
			"0.006": 4.42128648356,
			"0.007": 4.50433076803,
			"0.008": 5.3807851389,
			"0.009": 4.85676957585,
			"0.01": 3.54882171703,
			"0.011": 3.52426358542,
			"0.012": 1.99994078406,
			"0.013": 0.716558798426,
			"0.014": 1.49506309126,
			"0.015": 0.78325323912,
			"0.016": 0.298638879954,
			"0.017": 0.0,
			"0.018": 0.0,
			"0.019": 0.0,
			"0.02": 0.0,
			"0.021": 0.0,
			"0.022": 0.0,
			"0.023": 0.0,
			"0.024": 0.0,
			"0.025": 0.0
		}
	}
}
