{
	 "smiles": "CCC1(C)CC(=O)NC(=O)C1", 
	 "Tm": 399.15, 
	 "num_atms": 24, 
	 "gaussian": { 
		 "optdone": 1, 
		 "sigma_profile": "yes", 
		 "theory": "DFT", 
		 "functional": "B3LYP", 
		 "basiset": "6-31G**", 
		 "properties": { 
			 "R2extent": 2128.4574, 
			 "electric_dipole_moment_norm": 3.42652582509, 
			 "electric_quadrupole_moment_norm": 8.74679987824, 
			 "total_energy": -517.932399052, 
			 "HOMO_LUMO_gap": 0.23097, 
			 "cosmo_polarized_energy": -12.7, 
			 "cosmo_cavitation_energy": 25.61, 
			 "cosmo_dispersion_energy": -18.46, 
			 "cosmo_repulsion_energy": 1.48, 
			 "cosmo_total_nonelectrostatic_energy": 8.63, 
			 "SMD_solvation_energy": 5.69 
		},
		"coords": [
			{
				"x": -1.3187248403,
				"y": 0.371326726,
				"z": -2.5639640647,
				"element": "C" 
			},
			{
				"x": -1.3429040477,
				"y": 0.3257116834,
				"z": -1.0312621928,
				"element": "C" 
			},
			{
				"x": 0.0319255912,
				"y": 0.2895779055,
				"z": -0.316126473,
				"element": "C" 
			},
			{
				"x": 0.8311160477,
				"y": -0.9609620763,
				"z": -0.7374817793,
				"element": "C" 
			},
			{
				"x": 0.8361220681,
				"y": 1.57246277,
				"z": -0.6233736314,
				"element": "C" 
			},
			{
				"x": 2.0834779807,
				"y": 1.755473257,
				"z": 0.223721241,
				"element": "C" 
			},
			{
				"x": 3.0687019365,
				"y": 2.3655862976,
				"z": -0.1459684896,
				"element": "O" 
			},
			{
				"x": 2.032593604,
				"y": 1.1996907471,
				"z": 1.5024880422,
				"element": "N" 
			},
			{
				"x": 1.0168008155,
				"y": 0.4258000092,
				"z": 2.0648519598,
				"element": "C" 
			},
			{
				"x": 1.1397376456,
				"y": -0.0390534684,
				"z": 3.1820695495,
				"element": "O" 
			},
			{
				"x": -0.2241788198,
				"y": 0.256007864,
				"z": 1.2075807329,
				"element": "C" 
			},
			{
				"x": -0.8405743059,
				"y": -0.5134017434,
				"z": -2.9948146171,
				"element": "H" 
			},
			{
				"x": -2.3405711915,
				"y": 0.4106841211,
				"z": -2.9540653946,
				"element": "H" 
			},
			{
				"x": -0.7933144759,
				"y": 1.2541597614,
				"z": -2.9421048074,
				"element": "H" 
			},
			{
				"x": -1.8995939148,
				"y": 1.1968608093,
				"z": -0.6595368729,
				"element": "H" 
			},
			{
				"x": -1.9132042917,
				"y": -0.5562187414,
				"z": -0.7101650284,
				"element": "H" 
			},
			{
				"x": 0.2524884499,
				"y": -1.8711372458,
				"z": -0.5463473371,
				"element": "H" 
			},
			{
				"x": 1.7733396871,
				"y": -1.0470943983,
				"z": -0.1868517651,
				"element": "H" 
			},
			{
				"x": 1.0785839278,
				"y": -0.9361325308,
				"z": -1.8024760913,
				"element": "H" 
			},
			{
				"x": 0.2038165618,
				"y": 2.4547759145,
				"z": -0.4472414714,
				"element": "H" 
			},
			{
				"x": 1.1603968435,
				"y": 1.6211412296,
				"z": -1.665171203,
				"element": "H" 
			},
			{
				"x": 2.8613327704,
				"y": 1.3276525328,
				"z": 2.0745856621,
				"element": "H" 
			},
			{
				"x": -0.7010525262,
				"y": -0.6772669281,
				"z": 1.5192715125,
				"element": "H" 
			},
			{
				"x": -0.9112155161,
				"y": 1.068655504,
				"z": 1.4841825191,
				"element": "H" 
			}
		],
		 "valence_orbital": [ 
			{
				"type": "occ",
				"energy": -0.33989,
				"method": "rhf"
			},
			{
				"type": "occ",
				"energy": -0.33679,
				"method": "rhf"
			},
			{
				"type": "occ",
				"energy": -0.28502,
				"method": "rhf"
			},
			{
				"type": "occ",
				"energy": -0.2781,
				"method": "rhf"
			},
			{
				"type": "occ",
				"energy": -0.25775,
				"method": "rhf"
			},
			{
				"type": "unocc",
				"energy": -0.02678,
				"method": "rhf"
			},
			{
				"type": "unocc",
				"energy": 0.02927,
				"method": "rhf"
			},
			{
				"type": "unocc",
				"energy": 0.06511,
				"method": "rhf"
			},
			{
				"type": "unocc",
				"energy": 0.10267,
				"method": "rhf"
			},
			{
				"type": "unocc",
				"energy": 0.10605,
				"method": "rhf"
			}
		],
		"cosmo_sigma_profile": { 
			"-0.025": 0.0,
			"-0.024": 0.0,
			"-0.023": 0.0,
			"-0.022": 0.0,
			"-0.021": 0.0,
			"-0.02": 0.0,
			"-0.019": 0.0,
			"-0.018": 0.0,
			"-0.017": 0.0,
			"-0.016": 0.0,
			"-0.015": 0.634537351245,
			"-0.014": 0.704334047513,
			"-0.013": 0.806534177168,
			"-0.012": 1.32120447578,
			"-0.011": 0.575261197367,
			"-0.01": 0.458938133242,
			"-0.009": 0.593413479854,
			"-0.008": 1.93226397002,
			"-0.007": 5.42467974883,
			"-0.006": 7.10129485909,
			"-0.005": 9.55697335315,
			"-0.004": 18.5400518529,
			"-0.003": 27.2382019783,
			"-0.002": 23.5083087314,
			"-0.001": 20.7708955416,
			"0.0": 19.0528156632,
			"0.001": 12.9928413275,
			"0.002": 4.54715571755,
			"0.003": 2.59386808941,
			"0.004": 2.10776828608,
			"0.005": 2.12797252294,
			"0.006": 4.12876510015,
			"0.007": 2.05170647128,
			"0.008": 1.51166860895,
			"0.009": 2.44303611424,
			"0.01": 4.49017704253,
			"0.011": 5.04664770443,
			"0.012": 11.0198277768,
			"0.013": 5.17741358243,
			"0.014": 0.388097540967,
			"0.015": 0.0,
			"0.016": 0.0,
			"0.017": 0.0,
			"0.018": 0.0,
			"0.019": 0.0,
			"0.02": 0.0,
			"0.021": 0.0,
			"0.022": 0.0,
			"0.023": 0.0,
			"0.024": 0.0,
			"0.025": 0.0
		}
	}
}
