{
	 "smiles": "CC1=CC=C(C=C1)N1C=C(C(O)=O)C(=N1)C(C)(C)C", 
	 "Tm": 492.15, 
	 "num_atms": 37, 
	 "gaussian": { 
		 "optdone": 1, 
		 "sigma_profile": "yes", 
		 "theory": "DFT", 
		 "functional": "B3LYP", 
		 "basiset": "6-31G**", 
		 "properties": { 
			 "R2extent": 7411.6039, 
			 "electric_dipole_moment_norm": 1.62127259583, 
			 "electric_quadrupole_moment_norm": 17.9516756945, 
			 "total_energy": -842.41808451, 
			 "HOMO_LUMO_gap": 0.18386, 
			 "cosmo_polarized_energy": -11.32, 
			 "cosmo_cavitation_energy": 39.3, 
			 "cosmo_dispersion_energy": -27.77, 
			 "cosmo_repulsion_energy": 2.12, 
			 "cosmo_total_nonelectrostatic_energy": 13.65, 
			 "SMD_solvation_energy": 7.85 
		},
		"coords": [
			{
				"x": 1.3762221568,
				"y": -6.0299828078,
				"z": -2.728406863,
				"element": "C" 
			},
			{
				"x": 0.8010674246,
				"y": -4.6995387445,
				"z": -2.305033037,
				"element": "C" 
			},
			{
				"x": -0.379285144,
				"y": -4.2060037657,
				"z": -2.8750290506,
				"element": "C" 
			},
			{
				"x": -0.9338468287,
				"y": -2.9938214872,
				"z": -2.4706278987,
				"element": "C" 
			},
			{
				"x": -0.3041328039,
				"y": -2.2416248252,
				"z": -1.4735939307,
				"element": "C" 
			},
			{
				"x": 0.8776588719,
				"y": -2.7117391265,
				"z": -0.8922491136,
				"element": "C" 
			},
			{
				"x": 1.4148786074,
				"y": -3.9259429207,
				"z": -1.3111830959,
				"element": "C" 
			},
			{
				"x": -0.8483906991,
				"y": -0.9983384826,
				"z": -1.0446296769,
				"element": "N" 
			},
			{
				"x": -1.9613006301,
				"y": -0.368762246,
				"z": -1.4746323952,
				"element": "C" 
			},
			{
				"x": -2.0783125692,
				"y": 0.8117014009,
				"z": -0.7564232568,
				"element": "C" 
			},
			{
				"x": -3.2171266478,
				"y": 1.6942236916,
				"z": -1.0336573744,
				"element": "C" 
			},
			{
				"x": -3.2661201386,
				"y": 2.8313656968,
				"z": -0.2913940135,
				"element": "O" 
			},
			{
				"x": -4.0758719679,
				"y": 1.450697522,
				"z": -1.8638287989,
				"element": "O" 
			},
			{
				"x": -0.9391795901,
				"y": 0.8160292285,
				"z": 0.1285598288,
				"element": "C" 
			},
			{
				"x": -0.2195265042,
				"y": -0.2824929752,
				"z": -0.0673626056,
				"element": "N" 
			},
			{
				"x": -0.4711730327,
				"y": 1.8191636999,
				"z": 1.1787004352,
				"element": "C" 
			},
			{
				"x": 0.8285704516,
				"y": 1.3196736587,
				"z": 1.8423165784,
				"element": "C" 
			},
			{
				"x": -0.1840199956,
				"y": 3.184620684,
				"z": 0.5108423496,
				"element": "C" 
			},
			{
				"x": -1.5504406215,
				"y": 1.9740624218,
				"z": 2.2760401487,
				"element": "C" 
			},
			{
				"x": 2.4647900446,
				"y": -6.0477936246,
				"z": -2.6197689707,
				"element": "H" 
			},
			{
				"x": 0.9752861338,
				"y": -6.8486900816,
				"z": -2.1174767278,
				"element": "H" 
			},
			{
				"x": 1.1365779421,
				"y": -6.2566020459,
				"z": -3.7716862968,
				"element": "H" 
			},
			{
				"x": -0.8784213228,
				"y": -4.7774871724,
				"z": -3.6532463284,
				"element": "H" 
			},
			{
				"x": -1.8479042188,
				"y": -2.6469672593,
				"z": -2.9394566564,
				"element": "H" 
			},
			{
				"x": 1.3584180541,
				"y": -2.1182438421,
				"z": -0.1253607695,
				"element": "H" 
			},
			{
				"x": 2.3359041004,
				"y": -4.2776511907,
				"z": -0.8532395535,
				"element": "H" 
			},
			{
				"x": -2.6136600902,
				"y": -0.7516531842,
				"z": -2.2423465161,
				"element": "H" 
			},
			{
				"x": -4.0654315277,
				"y": 3.2964797333,
				"z": -0.5906587831,
				"element": "H" 
			},
			{
				"x": 1.6321175781,
				"y": 1.197788426,
				"z": 1.1112223921,
				"element": "H" 
			},
			{
				"x": 1.1522332471,
				"y": 2.0486690894,
				"z": 2.5927798462,
				"element": "H" 
			},
			{
				"x": 0.682365865,
				"y": 0.3564178057,
				"z": 2.3380957013,
				"element": "H" 
			},
			{
				"x": -1.0745601173,
				"y": 3.600283441,
				"z": 0.0374000327,
				"element": "H" 
			},
			{
				"x": 0.6003969709,
				"y": 3.0867510325,
				"z": -0.2472118248,
				"element": "H" 
			},
			{
				"x": 0.1656729099,
				"y": 3.8981330625,
				"z": 1.2653986422,
				"element": "H" 
			},
			{
				"x": -1.2045320164,
				"y": 2.6833988495,
				"z": 3.0362680684,
				"element": "H" 
			},
			{
				"x": -1.7376346831,
				"y": 1.0156777356,
				"z": 2.7720217185,
				"element": "H" 
			},
			{
				"x": -2.4924892086,
				"y": 2.3445986023,
				"z": 1.8695577957,
				"element": "H" 
			}
		],
		 "valence_orbital": [ 
			{
				"type": "occ",
				"energy": -0.28406,
				"method": "rhf"
			},
			{
				"type": "occ",
				"energy": -0.2677,
				"method": "rhf"
			},
			{
				"type": "occ",
				"energy": -0.26279,
				"method": "rhf"
			},
			{
				"type": "occ",
				"energy": -0.25555,
				"method": "rhf"
			},
			{
				"type": "occ",
				"energy": -0.22325,
				"method": "rhf"
			},
			{
				"type": "unocc",
				"energy": -0.03939,
				"method": "rhf"
			},
			{
				"type": "unocc",
				"energy": -0.0125,
				"method": "rhf"
			},
			{
				"type": "unocc",
				"energy": -0.00371,
				"method": "rhf"
			},
			{
				"type": "unocc",
				"energy": 0.03754,
				"method": "rhf"
			},
			{
				"type": "unocc",
				"energy": 0.07692,
				"method": "rhf"
			}
		],
		"cosmo_sigma_profile": { 
			"-0.025": 0.0,
			"-0.024": 0.0,
			"-0.023": 0.0,
			"-0.022": 0.0,
			"-0.021": 0.0,
			"-0.02": 0.0,
			"-0.019": 0.0182797138505,
			"-0.018": 0.614940798442,
			"-0.017": 0.919989929386,
			"-0.016": 0.968136339586,
			"-0.015": 0.526503339098,
			"-0.014": 0.748437586199,
			"-0.013": 0.77034575893,
			"-0.012": 0.681491865854,
			"-0.011": 1.85156889683,
			"-0.01": 2.14262821558,
			"-0.009": 2.23439632049,
			"-0.008": 2.23423461575,
			"-0.007": 2.78284092136,
			"-0.006": 4.71384570674,
			"-0.005": 11.354483774,
			"-0.004": 15.176138007,
			"-0.003": 21.4202454912,
			"-0.002": 31.203533759,
			"-0.001": 31.63559263,
			"0.0": 38.4360128596,
			"0.001": 43.9883436407,
			"0.002": 29.0116105694,
			"0.003": 16.504888874,
			"0.004": 15.5366412252,
			"0.005": 11.7915074402,
			"0.006": 3.83844998904,
			"0.007": 2.90174148906,
			"0.008": 3.9658785994,
			"0.009": 1.85730886787,
			"0.01": 1.7707021222,
			"0.011": 2.78579763432,
			"0.012": 5.2354375804,
			"0.013": 0.738900706079,
			"0.014": 0.0,
			"0.015": 0.0,
			"0.016": 0.0,
			"0.017": 0.0,
			"0.018": 0.0,
			"0.019": 0.0,
			"0.02": 0.0,
			"0.021": 0.0,
			"0.022": 0.0,
			"0.023": 0.0,
			"0.024": 0.0,
			"0.025": 0.0
		}
	}
}
