{
	 "smiles": "NC1=CC=C(C=C1)S(=O)(=O)C1CCCC1", 
	 "Tm": 387.15, 
	 "num_atms": 30, 
	 "gaussian": { 
		 "optdone": 1, 
		 "sigma_profile": "yes", 
		 "theory": "DFT", 
		 "functional": "B3LYP", 
		 "basiset": "6-31G**", 
		 "properties": { 
			 "R2extent": 4900.6476, 
			 "electric_dipole_moment_norm": 7.01830328997, 
			 "electric_quadrupole_moment_norm": 24.9952968214, 
			 "total_energy": -1031.54878757, 
			 "HOMO_LUMO_gap": 0.20339, 
			 "cosmo_polarized_energy": -19.63, 
			 "cosmo_cavitation_energy": 33.06, 
			 "cosmo_dispersion_energy": -24.18, 
			 "cosmo_repulsion_energy": 1.86, 
			 "cosmo_total_nonelectrostatic_energy": 10.74, 
			 "SMD_solvation_energy": 4.17 
		},
		"coords": [
			{
				"x": 3.4717142076,
				"y": 2.0728702382,
				"z": 4.8178747392,
				"element": "N" 
			},
			{
				"x": 2.7316580771,
				"y": 1.7267899093,
				"z": 3.7007409447,
				"element": "C" 
			},
			{
				"x": 1.7063700087,
				"y": 2.5706828093,
				"z": 3.2292420963,
				"element": "C" 
			},
			{
				"x": 0.9965492723,
				"y": 2.2468861677,
				"z": 2.0800833347,
				"element": "C" 
			},
			{
				"x": 1.2961512331,
				"y": 1.0721683068,
				"z": 1.3838091071,
				"element": "C" 
			},
			{
				"x": 2.3225436699,
				"y": 0.2318298392,
				"z": 1.8287423911,
				"element": "C" 
			},
			{
				"x": 3.0304215536,
				"y": 0.5529339946,
				"z": 2.9787454473,
				"element": "C" 
			},
			{
				"x": 0.3819458991,
				"y": 0.6510556098,
				"z": -0.0943070292,
				"element": "S" 
			},
			{
				"x": -0.3111134669,
				"y": 1.8697754933,
				"z": -0.5593090114,
				"element": "O" 
			},
			{
				"x": 1.2894304533,
				"y": -0.0857396831,
				"z": -0.9943462105,
				"element": "O" 
			},
			{
				"x": -0.8907956219,
				"y": -0.5475600615,
				"z": 0.4642545538,
				"element": "C" 
			},
			{
				"x": -1.927902873,
				"y": 0.0815436271,
				"z": 1.4314339379,
				"element": "C" 
			},
			{
				"x": -3.2999907712,
				"y": -0.3708403158,
				"z": 0.8900558098,
				"element": "C" 
			},
			{
				"x": -3.082836313,
				"y": -0.4288461843,
				"z": -0.6294108478,
				"element": "C" 
			},
			{
				"x": -1.6915507121,
				"y": -1.0704750176,
				"z": -0.7636618336,
				"element": "C" 
			},
			{
				"x": 3.9771111783,
				"y": 1.331736292,
				"z": 5.280002063,
				"element": "H" 
			},
			{
				"x": 3.0572456504,
				"y": 2.7382410534,
				"z": 5.4533198158,
				"element": "H" 
			},
			{
				"x": 1.4810850642,
				"y": 3.4893434028,
				"z": 3.76464755,
				"element": "H" 
			},
			{
				"x": 0.223123407,
				"y": 2.9074238926,
				"z": 1.7032356083,
				"element": "H" 
			},
			{
				"x": 2.5752903948,
				"y": -0.6572965499,
				"z": 1.2601702677,
				"element": "H" 
			},
			{
				"x": 3.8342194963,
				"y": -0.0945249705,
				"z": 3.3193949736,
				"element": "H" 
			},
			{
				"x": -0.3078657375,
				"y": -1.3453877347,
				"z": 0.9319823692,
				"element": "H" 
			},
			{
				"x": -1.8654852697,
				"y": 1.1729405608,
				"z": 1.3783096962,
				"element": "H" 
			},
			{
				"x": -1.752065877,
				"y": -0.2113694104,
				"z": 2.4698612409,
				"element": "H" 
			},
			{
				"x": -4.1079410804,
				"y": 0.3036244319,
				"z": 1.1901962434,
				"element": "H" 
			},
			{
				"x": -3.5479404698,
				"y": -1.3699567438,
				"z": 1.2708919956,
				"element": "H" 
			},
			{
				"x": -3.859011908,
				"y": -0.9911603532,
				"z": -1.1576688876,
				"element": "H" 
			},
			{
				"x": -3.0619100234,
				"y": 0.5861534525,
				"z": -1.0417112901,
				"element": "H" 
			},
			{
				"x": -1.1949138461,
				"y": -0.8561601574,
				"z": -1.7131076936,
				"element": "H" 
			},
			{
				"x": -1.7661355955,
				"y": -2.1605818992,
				"z": -0.6834713816,
				"element": "H" 
			}
		],
		 "valence_orbital": [ 
			{
				"type": "occ",
				"energy": -0.29418,
				"method": "rhf"
			},
			{
				"type": "occ",
				"energy": -0.27885,
				"method": "rhf"
			},
			{
				"type": "occ",
				"energy": -0.26549,
				"method": "rhf"
			},
			{
				"type": "occ",
				"energy": -0.26479,
				"method": "rhf"
			},
			{
				"type": "occ",
				"energy": -0.2216,
				"method": "rhf"
			},
			{
				"type": "unocc",
				"energy": -0.01821,
				"method": "rhf"
			},
			{
				"type": "unocc",
				"energy": -0.01452,
				"method": "rhf"
			},
			{
				"type": "unocc",
				"energy": 0.05927,
				"method": "rhf"
			},
			{
				"type": "unocc",
				"energy": 0.06768,
				"method": "rhf"
			},
			{
				"type": "unocc",
				"energy": 0.0754,
				"method": "rhf"
			}
		],
		"cosmo_sigma_profile": { 
			"-0.025": 0.0,
			"-0.024": 0.0,
			"-0.023": 0.0,
			"-0.022": 0.0,
			"-0.021": 0.0,
			"-0.02": 0.0,
			"-0.019": 0.0,
			"-0.018": 0.0,
			"-0.017": 0.0,
			"-0.016": 0.0,
			"-0.015": 0.0,
			"-0.014": 0.143620376115,
			"-0.013": 2.7356170038,
			"-0.012": 2.97730792408,
			"-0.011": 3.39222821485,
			"-0.01": 2.87190437996,
			"-0.009": 3.01244344916,
			"-0.008": 3.24549020273,
			"-0.007": 6.08332607669,
			"-0.006": 10.6336308318,
			"-0.005": 12.435340987,
			"-0.004": 18.2240541871,
			"-0.003": 22.1906473191,
			"-0.002": 23.6000238815,
			"-0.001": 24.742620442,
			"0.0": 22.0493394163,
			"0.001": 15.5404864419,
			"0.002": 10.3092767492,
			"0.003": 11.7178038348,
			"0.004": 17.6498176692,
			"0.005": 7.01859243098,
			"0.006": 3.27984547179,
			"0.007": 3.30333582394,
			"0.008": 4.13881906128,
			"0.009": 3.79152187141,
			"0.01": 3.276211137,
			"0.011": 7.68273705229,
			"0.012": 8.5801235783,
			"0.013": 4.93372230776,
			"0.014": 0.10109063694,
			"0.015": 0.0,
			"0.016": 0.0,
			"0.017": 0.0,
			"0.018": 0.0,
			"0.019": 0.0,
			"0.02": 0.0,
			"0.021": 0.0,
			"0.022": 0.0,
			"0.023": 0.0,
			"0.024": 0.0,
			"0.025": 0.0
		}
	}
}
