{
	 "smiles": "NCCP(O)(O)=O", 
	 "Tm": 569.15, 
	 "num_atms": 15, 
	 "gaussian": { 
		 "optdone": 1, 
		 "sigma_profile": "yes", 
		 "theory": "DFT", 
		 "functional": "B3LYP", 
		 "basiset": "6-31G**", 
		 "properties": { 
			 "R2extent": 1251.0961, 
			 "electric_dipole_moment_norm": 0.399094186878, 
			 "electric_quadrupole_moment_norm": 12.773506297, 
			 "total_energy": -702.878880001, 
			 "HOMO_LUMO_gap": 0.28667, 
			 "cosmo_polarized_energy": -18.48, 
			 "cosmo_cavitation_energy": 20.28, 
			 "cosmo_dispersion_energy": -15.33, 
			 "cosmo_repulsion_energy": 1.32, 
			 "cosmo_total_nonelectrostatic_energy": 6.27, 
			 "SMD_solvation_energy": 4.71 
		},
		"coords": [
			{
				"x": 1.4659253022,
				"y": -0.2999332078,
				"z": 1.8528385343,
				"element": "N" 
			},
			{
				"x": 0.1391950123,
				"y": -0.079071232,
				"z": 1.2700595744,
				"element": "C" 
			},
			{
				"x": 0.2697937786,
				"y": 0.0966549605,
				"z": -0.2487337905,
				"element": "C" 
			},
			{
				"x": -1.3090167219,
				"y": 0.3906384383,
				"z": -1.0798240159,
				"element": "P" 
			},
			{
				"x": -0.8422406774,
				"y": 0.6691994303,
				"z": -2.6155022756,
				"element": "O" 
			},
			{
				"x": -1.7203524133,
				"y": 1.8509650615,
				"z": -0.4902796493,
				"element": "O" 
			},
			{
				"x": -2.3862088965,
				"y": -0.6302893904,
				"z": -0.9713589261,
				"element": "O" 
			},
			{
				"x": 1.4001291001,
				"y": -0.2954049052,
				"z": 2.8676473583,
				"element": "H" 
			},
			{
				"x": 1.8064493729,
				"y": -1.2242949641,
				"z": 1.5960611819,
				"element": "H" 
			},
			{
				"x": -0.5899561742,
				"y": -0.8797465433,
				"z": 1.4765326271,
				"element": "H" 
			},
			{
				"x": -0.2696539157,
				"y": 0.8422663661,
				"z": 1.6973836707,
				"element": "H" 
			},
			{
				"x": 0.6946008945,
				"y": -0.8038036472,
				"z": -0.7081188486,
				"element": "H" 
			},
			{
				"x": 0.9475111478,
				"y": 0.9259204466,
				"z": -0.4752086153,
				"element": "H" 
			},
			{
				"x": -1.4613932484,
				"y": 0.2364701691,
				"z": -3.2211295536,
				"element": "H" 
			},
			{
				"x": -2.6831825609,
				"y": 1.9519290177,
				"z": -0.4930672719,
				"element": "H" 
			}
		],
		 "valence_orbital": [ 
			{
				"type": "occ",
				"energy": -0.3514,
				"method": "rhf"
			},
			{
				"type": "occ",
				"energy": -0.33444,
				"method": "rhf"
			},
			{
				"type": "occ",
				"energy": -0.28743,
				"method": "rhf"
			},
			{
				"type": "occ",
				"energy": -0.28634,
				"method": "rhf"
			},
			{
				"type": "occ",
				"energy": -0.24056,
				"method": "rhf"
			},
			{
				"type": "unocc",
				"energy": 0.04611,
				"method": "rhf"
			},
			{
				"type": "unocc",
				"energy": 0.07387,
				"method": "rhf"
			},
			{
				"type": "unocc",
				"energy": 0.08144,
				"method": "rhf"
			},
			{
				"type": "unocc",
				"energy": 0.09411,
				"method": "rhf"
			},
			{
				"type": "unocc",
				"energy": 0.11923,
				"method": "rhf"
			}
		],
		"cosmo_sigma_profile": { 
			"-0.025": 0.0,
			"-0.024": 0.0,
			"-0.023": 0.0,
			"-0.022": 0.0,
			"-0.021": 0.0,
			"-0.02": 0.0,
			"-0.019": 0.615841788027,
			"-0.018": 1.83809366434,
			"-0.017": 1.88289296824,
			"-0.016": 1.37260741658,
			"-0.015": 1.77368363587,
			"-0.014": 1.52038957728,
			"-0.013": 0.567148677586,
			"-0.012": 1.14425721162,
			"-0.011": 1.90422579251,
			"-0.01": 4.71645204458,
			"-0.009": 4.63612656789,
			"-0.008": 4.52249793423,
			"-0.007": 6.14826431789,
			"-0.006": 8.09837901955,
			"-0.005": 6.62020912089,
			"-0.004": 8.61040489327,
			"-0.003": 9.36900444952,
			"-0.002": 10.7398183323,
			"-0.001": 8.44677754719,
			"0.0": 6.59426285789,
			"0.001": 4.09899710625,
			"0.002": 4.56747133238,
			"0.003": 5.8002526839,
			"0.004": 3.47852488625,
			"0.005": 3.20680605982,
			"0.006": 3.35376620357,
			"0.007": 4.05383106209,
			"0.008": 3.88154227791,
			"0.009": 4.28752272854,
			"0.01": 5.13157077375,
			"0.011": 4.76527725978,
			"0.012": 1.41911720091,
			"0.013": 1.25019124896,
			"0.014": 3.11909504983,
			"0.015": 8.31649266012,
			"0.016": 1.14223033074,
			"0.017": 0.436371631096,
			"0.018": 0.459441385648,
			"0.019": 0.45582384181,
			"0.02": 0.128228639446,
			"0.021": 0.0,
			"0.022": 0.0,
			"0.023": 0.0,
			"0.024": 0.0,
			"0.025": 0.0
		}
	}
}
