{
	 "smiles": "NS(=O)(=O)CC1CC1", 
	 "Tm": 319.15, 
	 "num_atms": 17, 
	 "gaussian": { 
		 "optdone": 1, 
		 "sigma_profile": "yes", 
		 "theory": "DFT", 
		 "functional": "B3LYP", 
		 "basiset": "6-31G**", 
		 "properties": { 
			 "R2extent": 1559.6667, 
			 "electric_dipole_moment_norm": 3.07025092297, 
			 "electric_quadrupole_moment_norm": 13.0137277734, 
			 "total_energy": -761.143860126, 
			 "HOMO_LUMO_gap": 0.33801, 
			 "cosmo_polarized_energy": -14.86, 
			 "cosmo_cavitation_energy": 21.49, 
			 "cosmo_dispersion_energy": -16.32, 
			 "cosmo_repulsion_energy": 1.33, 
			 "cosmo_total_nonelectrostatic_energy": 6.5, 
			 "SMD_solvation_energy": 2.89 
		},
		"coords": [
			{
				"x": 0.4798120507,
				"y": 2.2646376843,
				"z": -1.1226695573,
				"element": "N" 
			},
			{
				"x": -0.7589348147,
				"y": 1.1044089703,
				"z": -1.2327462713,
				"element": "S" 
			},
			{
				"x": -2.0371977693,
				"y": 1.7851255189,
				"z": -0.9950548745,
				"element": "O" 
			},
			{
				"x": -0.5144294739,
				"y": 0.3288957936,
				"z": -2.4543153688,
				"element": "O" 
			},
			{
				"x": -0.4054041927,
				"y": 0.0577321685,
				"z": 0.209627837,
				"element": "C" 
			},
			{
				"x": -1.4951388594,
				"y": -0.9634127534,
				"z": 0.4223229033,
				"element": "C" 
			},
			{
				"x": -1.5470407295,
				"y": -2.2060338459,
				"z": -0.4339948532,
				"element": "C" 
			},
			{
				"x": -1.1395723962,
				"y": -2.3105186867,
				"z": 1.0123022034,
				"element": "C" 
			},
			{
				"x": 0.0656270192,
				"y": 3.1799930763,
				"z": -0.9644201275,
				"element": "H" 
			},
			{
				"x": 1.0127112124,
				"y": 2.2542239215,
				"z": -1.988787912,
				"element": "H" 
			},
			{
				"x": -0.3036452604,
				"y": 0.7414416838,
				"z": 1.0574908131,
				"element": "H" 
			},
			{
				"x": 0.5663290369,
				"y": -0.4034320989,
				"z": 0.0120316489,
				"element": "H" 
			},
			{
				"x": -2.44857354,
				"y": -0.5349016781,
				"z": 0.7175590182,
				"element": "H" 
			},
			{
				"x": -0.7839626824,
				"y": -2.3227985589,
				"z": -1.1967380366,
				"element": "H" 
			},
			{
				"x": -2.5251933672,
				"y": -2.5745372025,
				"z": -0.7254402574,
				"element": "H" 
			},
			{
				"x": -1.8352655093,
				"y": -2.750516207,
				"z": 1.7200228841,
				"element": "H" 
			},
			{
				"x": -0.0950207241,
				"y": -2.5078077861,
				"z": 1.2373099505,
				"element": "H" 
			}
		],
		 "valence_orbital": [ 
			{
				"type": "occ",
				"energy": -0.31438,
				"method": "rhf"
			},
			{
				"type": "occ",
				"energy": -0.30121,
				"method": "rhf"
			},
			{
				"type": "occ",
				"energy": -0.29657,
				"method": "rhf"
			},
			{
				"type": "occ",
				"energy": -0.29279,
				"method": "rhf"
			},
			{
				"type": "occ",
				"energy": -0.28209,
				"method": "rhf"
			},
			{
				"type": "unocc",
				"energy": 0.05592,
				"method": "rhf"
			},
			{
				"type": "unocc",
				"energy": 0.0701,
				"method": "rhf"
			},
			{
				"type": "unocc",
				"energy": 0.08801,
				"method": "rhf"
			},
			{
				"type": "unocc",
				"energy": 0.09206,
				"method": "rhf"
			},
			{
				"type": "unocc",
				"energy": 0.09715,
				"method": "rhf"
			}
		],
		"cosmo_sigma_profile": { 
			"-0.025": 0.0,
			"-0.024": 0.0,
			"-0.023": 0.0,
			"-0.022": 0.0,
			"-0.021": 0.0,
			"-0.02": 0.0,
			"-0.019": 0.0,
			"-0.018": 0.0,
			"-0.017": 0.0,
			"-0.016": 0.0,
			"-0.015": 0.332995528372,
			"-0.014": 2.51864100529,
			"-0.013": 2.31095840668,
			"-0.012": 2.73769392541,
			"-0.011": 2.43841453716,
			"-0.01": 1.38920325373,
			"-0.009": 1.8392006733,
			"-0.008": 4.71512422074,
			"-0.007": 6.6808986203,
			"-0.006": 6.10935582591,
			"-0.005": 11.0187624691,
			"-0.004": 15.2428960726,
			"-0.003": 12.8220057314,
			"-0.002": 10.3105358331,
			"-0.001": 9.45907841995,
			"0.0": 8.49849919406,
			"0.001": 7.00491351819,
			"0.002": 6.43654391039,
			"0.003": 7.53990117037,
			"0.004": 5.95884976681,
			"0.005": 4.3506927271,
			"0.006": 3.49731267685,
			"0.007": 3.49611497958,
			"0.008": 3.94922388452,
			"0.009": 3.20720651743,
			"0.01": 5.26889704915,
			"0.011": 11.5437887692,
			"0.012": 6.99386546334,
			"0.013": 0.665840271891,
			"0.014": 0.0,
			"0.015": 0.0,
			"0.016": 0.0,
			"0.017": 0.0,
			"0.018": 0.0,
			"0.019": 0.0,
			"0.02": 0.0,
			"0.021": 0.0,
			"0.022": 0.0,
			"0.023": 0.0,
			"0.024": 0.0,
			"0.025": 0.0
		}
	}
}
