{
	 "smiles": "CC(=O)C(C)(C)C", 
	 "Tm": 220.65, 
	 "num_atms": 19, 
	 "gaussian": { 
		 "optdone": 1, 
		 "sigma_profile": "yes", 
		 "theory": "DFT", 
		 "functional": "B3LYP", 
		 "basiset": "6-31G**", 
		 "properties": { 
			 "R2extent": 1193.3182, 
			 "electric_dipole_moment_norm": 2.67035412258, 
			 "electric_quadrupole_moment_norm": 7.38914300038, 
			 "total_energy": -311.106498647, 
			 "HOMO_LUMO_gap": 0.22763, 
			 "cosmo_polarized_energy": -6.45, 
			 "cosmo_cavitation_energy": 20.71, 
			 "cosmo_dispersion_energy": -14.7, 
			 "cosmo_repulsion_energy": 1.23, 
			 "cosmo_total_nonelectrostatic_energy": 7.24, 
			 "SMD_solvation_energy": 4.61 
		},
		"coords": [
			{
				"x": -0.6655156964,
				"y": 0.591096645,
				"z": -0.476604186,
				"element": "C" 
			},
			{
				"x": 0.6273153263,
				"y": 1.1093645903,
				"z": 0.139576052,
				"element": "C" 
			},
			{
				"x": 1.0718469573,
				"y": 2.1922866772,
				"z": -0.1946030533,
				"element": "O" 
			},
			{
				"x": 1.3582573407,
				"y": 0.2293855927,
				"z": 1.1783257505,
				"element": "C" 
			},
			{
				"x": 2.4034451884,
				"y": 1.0794828985,
				"z": 1.9180728086,
				"element": "C" 
			},
			{
				"x": 2.0713776134,
				"y": -0.9084708717,
				"z": 0.40653904,
				"element": "C" 
			},
			{
				"x": 0.3602453716,
				"y": -0.3765191753,
				"z": 2.1871934952,
				"element": "C" 
			},
			{
				"x": -0.6142613544,
				"y": -0.4712841819,
				"z": -0.7321017836,
				"element": "H" 
			},
			{
				"x": -0.8931011836,
				"y": 1.1790785004,
				"z": -1.3669229516,
				"element": "H" 
			},
			{
				"x": -1.4874335037,
				"y": 0.7103866848,
				"z": 0.2391681575,
				"element": "H" 
			},
			{
				"x": 1.9272545262,
				"y": 1.8900085435,
				"z": 2.4781703966,
				"element": "H" 
			},
			{
				"x": 2.964039231,
				"y": 0.4574821929,
				"z": 2.6239481799,
				"element": "H" 
			},
			{
				"x": 3.1049974827,
				"y": 1.5361134533,
				"z": 1.2168414363,
				"element": "H" 
			},
			{
				"x": 2.7831866382,
				"y": -0.5048013792,
				"z": -0.320632706,
				"element": "H" 
			},
			{
				"x": 1.3648991137,
				"y": -1.5519895294,
				"z": -0.1277827934,
				"element": "H" 
			},
			{
				"x": 2.6274282272,
				"y": -1.5394689383,
				"z": 1.1084222256,
				"element": "H" 
			},
			{
				"x": -0.3723746908,
				"y": -1.0309150357,
				"z": 1.705035361,
				"element": "H" 
			},
			{
				"x": 0.8998455057,
				"y": -0.9769694869,
				"z": 2.9273736877,
				"element": "H" 
			},
			{
				"x": -0.1849520934,
				"y": 0.4042328198,
				"z": 2.7290808832,
				"element": "H" 
			}
		],
		 "valence_orbital": [ 
			{
				"type": "occ",
				"energy": -0.35385,
				"method": "rhf"
			},
			{
				"type": "occ",
				"energy": -0.35031,
				"method": "rhf"
			},
			{
				"type": "occ",
				"energy": -0.33131,
				"method": "rhf"
			},
			{
				"type": "occ",
				"energy": -0.3281,
				"method": "rhf"
			},
			{
				"type": "occ",
				"energy": -0.23724,
				"method": "rhf"
			},
			{
				"type": "unocc",
				"energy": -0.00961,
				"method": "rhf"
			},
			{
				"type": "unocc",
				"energy": 0.07159,
				"method": "rhf"
			},
			{
				"type": "unocc",
				"energy": 0.1183,
				"method": "rhf"
			},
			{
				"type": "unocc",
				"energy": 0.12837,
				"method": "rhf"
			},
			{
				"type": "unocc",
				"energy": 0.13327,
				"method": "rhf"
			}
		],
		"cosmo_sigma_profile": { 
			"-0.025": 0.0,
			"-0.024": 0.0,
			"-0.023": 0.0,
			"-0.022": 0.0,
			"-0.021": 0.0,
			"-0.02": 0.0,
			"-0.019": 0.0,
			"-0.018": 0.0,
			"-0.017": 0.0,
			"-0.016": 0.0,
			"-0.015": 0.0,
			"-0.014": 0.0,
			"-0.013": 0.0,
			"-0.012": 0.0,
			"-0.011": 0.0,
			"-0.01": 0.0,
			"-0.009": 0.0,
			"-0.008": 0.0,
			"-0.007": 0.0,
			"-0.006": 1.9920736617,
			"-0.005": 7.16288694364,
			"-0.004": 11.8869752731,
			"-0.003": 24.9251402782,
			"-0.002": 24.3038707406,
			"-0.001": 22.5050218132,
			"0.0": 19.8570857871,
			"0.001": 17.4439009926,
			"0.002": 6.16062625644,
			"0.003": 1.93610075576,
			"0.004": 1.21059086632,
			"0.005": 2.10912127988,
			"0.006": 1.70830344919,
			"0.007": 1.31477210912,
			"0.008": 1.46773163773,
			"0.009": 1.93861207166,
			"0.01": 2.11174541425,
			"0.011": 2.70866216786,
			"0.012": 4.10515117898,
			"0.013": 2.84186487625,
			"0.014": 0.361328591396,
			"0.015": 0.0,
			"0.016": 0.0,
			"0.017": 0.0,
			"0.018": 0.0,
			"0.019": 0.0,
			"0.02": 0.0,
			"0.021": 0.0,
			"0.022": 0.0,
			"0.023": 0.0,
			"0.024": 0.0,
			"0.025": 0.0
		}
	}
}
