{
	 "smiles": "NC(CC1=CC=C(C=C1)N(CCCl)CCCl)C(O)=O", 
	 "Tm": 455.65, 
	 "num_atms": 37, 
	 "gaussian": { 
		 "optdone": 1, 
		 "sigma_profile": "yes", 
		 "theory": "DFT", 
		 "functional": "B3LYP", 
		 "basiset": "6-31G**", 
		 "properties": { 
			 "R2extent": 9190.9196, 
			 "electric_dipole_moment_norm": 2.86011890312, 
			 "electric_quadrupole_moment_norm": 21.6858180155, 
			 "total_energy": -1686.5816858, 
			 "HOMO_LUMO_gap": 0.21668, 
			 "cosmo_polarized_energy": -17.43, 
			 "cosmo_cavitation_energy": 43.57, 
			 "cosmo_dispersion_energy": -29.19, 
			 "cosmo_repulsion_energy": 2.36, 
			 "cosmo_total_nonelectrostatic_energy": 16.74, 
			 "SMD_solvation_energy": 5.2 
		},
		"coords": [
			{
				"x": -4.2307758596,
				"y": 1.5051474916,
				"z": 2.5405157761,
				"element": "N" 
			},
			{
				"x": -3.0719917289,
				"y": 1.6854528055,
				"z": 3.4003712567,
				"element": "C" 
			},
			{
				"x": -1.9014733698,
				"y": 2.3515195591,
				"z": 2.6265521023,
				"element": "C" 
			},
			{
				"x": -1.3757745458,
				"y": 1.5285237875,
				"z": 1.4694037059,
				"element": "C" 
			},
			{
				"x": -0.291689646,
				"y": 0.6541253286,
				"z": 1.6402452806,
				"element": "C" 
			},
			{
				"x": 0.1869239889,
				"y": -0.1145274203,
				"z": 0.5807201491,
				"element": "C" 
			},
			{
				"x": -0.4098888254,
				"y": -0.0301039784,
				"z": -0.6853109293,
				"element": "C" 
			},
			{
				"x": -1.4914917976,
				"y": 0.8388004205,
				"z": -0.8620105464,
				"element": "C" 
			},
			{
				"x": -1.966456192,
				"y": 1.6095091923,
				"z": 0.2004739319,
				"element": "C" 
			},
			{
				"x": 0.0635707438,
				"y": -0.8046288839,
				"z": -1.8119847289,
				"element": "N" 
			},
			{
				"x": -0.1048970564,
				"y": -2.2545951228,
				"z": -1.645328201,
				"element": "C" 
			},
			{
				"x": -1.5843058169,
				"y": -2.6249321204,
				"z": -1.7231005002,
				"element": "C" 
			},
			{
				"x": -1.7966788197,
				"y": -4.4192116243,
				"z": -1.5553977983,
				"element": "Cl" 
			},
			{
				"x": 1.4037539031,
				"y": -0.4143254827,
				"z": -2.271108535,
				"element": "C" 
			},
			{
				"x": 1.3484288956,
				"y": 0.9482220559,
				"z": -2.9584868317,
				"element": "C" 
			},
			{
				"x": 2.9979408079,
				"y": 1.4309595258,
				"z": -3.5418542006,
				"element": "Cl" 
			},
			{
				"x": -2.6272692284,
				"y": 0.3882530747,
				"z": 4.0859431127,
				"element": "C" 
			},
			{
				"x": -1.5888455311,
				"y": 0.5848856914,
				"z": 4.9373300475,
				"element": "O" 
			},
			{
				"x": -3.136911377,
				"y": -0.6972663586,
				"z": 3.9201815346,
				"element": "O" 
			},
			{
				"x": -4.0271141893,
				"y": 0.7671363858,
				"z": 1.8691312858,
				"element": "H" 
			},
			{
				"x": -5.0073256435,
				"y": 1.1509641794,
				"z": 3.0940649423,
				"element": "H" 
			},
			{
				"x": -3.3451246919,
				"y": 2.377594021,
				"z": 4.2078076509,
				"element": "H" 
			},
			{
				"x": -1.0943407404,
				"y": 2.5595424181,
				"z": 3.3343380273,
				"element": "H" 
			},
			{
				"x": -2.2799137404,
				"y": 3.3096723707,
				"z": 2.2587020229,
				"element": "H" 
			},
			{
				"x": 0.1836316108,
				"y": 0.5805505786,
				"z": 2.6148510111,
				"element": "H" 
			},
			{
				"x": 1.0322155965,
				"y": -0.7790102018,
				"z": 0.7382597146,
				"element": "H" 
			},
			{
				"x": -1.9498129273,
				"y": 0.9049252206,
				"z": -1.8441749377,
				"element": "H" 
			},
			{
				"x": -2.8049371187,
				"y": 2.2829514132,
				"z": 0.0467322886,
				"element": "H" 
			},
			{
				"x": 0.4230948387,
				"y": -2.7556293333,
				"z": -2.4616233846,
				"element": "H" 
			},
			{
				"x": 0.3179205932,
				"y": -2.636671953,
				"z": -0.7021151886,
				"element": "H" 
			},
			{
				"x": -2.162637873,
				"y": -2.1657914087,
				"z": -0.9211002843,
				"element": "H" 
			},
			{
				"x": -2.0074133709,
				"y": -2.3367572817,
				"z": -2.6858554183,
				"element": "H" 
			},
			{
				"x": 1.7472020639,
				"y": -1.1571329181,
				"z": -2.9966678764,
				"element": "H" 
			},
			{
				"x": 2.1484659676,
				"y": -0.3838994676,
				"z": -1.4593914037,
				"element": "H" 
			},
			{
				"x": 1.0148964522,
				"y": 1.7337809678,
				"z": -2.2802145383,
				"element": "H" 
			},
			{
				"x": 0.6925054327,
				"y": 0.9191702358,
				"z": -3.8290263167,
				"element": "H" 
			},
			{
				"x": -1.3931808049,
				"y": -0.2823031685,
				"z": 5.3315277789,
				"element": "H" 
			}
		],
		 "valence_orbital": [ 
			{
				"type": "occ",
				"energy": -0.28562,
				"method": "rhf"
			},
			{
				"type": "occ",
				"energy": -0.26399,
				"method": "rhf"
			},
			{
				"type": "occ",
				"energy": -0.25932,
				"method": "rhf"
			},
			{
				"type": "occ",
				"energy": -0.2494,
				"method": "rhf"
			},
			{
				"type": "occ",
				"energy": -0.2377,
				"method": "rhf"
			},
			{
				"type": "unocc",
				"energy": -0.02102,
				"method": "rhf"
			},
			{
				"type": "unocc",
				"energy": -0.01882,
				"method": "rhf"
			},
			{
				"type": "unocc",
				"energy": 0.00144,
				"method": "rhf"
			},
			{
				"type": "unocc",
				"energy": 0.01825,
				"method": "rhf"
			},
			{
				"type": "unocc",
				"energy": 0.0329,
				"method": "rhf"
			}
		],
		"cosmo_sigma_profile": { 
			"-0.025": 0.0,
			"-0.024": 0.0,
			"-0.023": 0.0,
			"-0.022": 0.0,
			"-0.021": 0.0,
			"-0.02": 0.0,
			"-0.019": 0.00534226947846,
			"-0.018": 0.744929670871,
			"-0.017": 1.01952192516,
			"-0.016": 0.954024161464,
			"-0.015": 0.556547413856,
			"-0.014": 0.684060607942,
			"-0.013": 0.4309821324,
			"-0.012": 0.348658802609,
			"-0.011": 1.28415310261,
			"-0.01": 1.97463941144,
			"-0.009": 2.37011408969,
			"-0.008": 2.0032182267,
			"-0.007": 7.04852842633,
			"-0.006": 19.6467131367,
			"-0.005": 22.5313681071,
			"-0.004": 30.7553733156,
			"-0.003": 31.8325376093,
			"-0.002": 30.7481972189,
			"-0.001": 22.7715041165,
			"0.0": 20.457670622,
			"0.001": 19.7626439854,
			"0.002": 16.4462988333,
			"0.003": 19.4230919172,
			"0.004": 17.5166631266,
			"0.005": 18.0503175337,
			"0.006": 23.413156823,
			"0.007": 11.8423030923,
			"0.008": 3.13744415462,
			"0.009": 4.15454110119,
			"0.01": 2.85922369259,
			"0.011": 3.92508071985,
			"0.012": 3.99289068317,
			"0.013": 0.710913261364,
			"0.014": 0.794889315501,
			"0.015": 0.231628078649,
			"0.016": 0.419368929828,
			"0.017": 0.725713934437,
			"0.018": 0.352949239726,
			"0.019": 0.0569088700083,
			"0.02": 0.0,
			"0.021": 0.0,
			"0.022": 0.0,
			"0.023": 0.0,
			"0.024": 0.0,
			"0.025": 0.0
		}
	}
}
