{
	 "smiles": "OC1=CC(Cl)=NC=C1", 
	 "Tm": 444.15, 
	 "num_atms": 12, 
	 "gaussian": { 
		 "optdone": 1, 
		 "sigma_profile": "yes", 
		 "theory": "DFT", 
		 "functional": "B3LYP", 
		 "basiset": "6-31G**", 
		 "properties": { 
			 "R2extent": 2173.7004, 
			 "electric_dipole_moment_norm": 4.51322897491, 
			 "electric_quadrupole_moment_norm": 8.98082524827, 
			 "total_energy": -783.102396178, 
			 "HOMO_LUMO_gap": 0.23504, 
			 "cosmo_polarized_energy": -11.83, 
			 "cosmo_cavitation_energy": 18.33, 
			 "cosmo_dispersion_energy": -14.09, 
			 "cosmo_repulsion_energy": 1.18, 
			 "cosmo_total_nonelectrostatic_energy": 5.42, 
			 "SMD_solvation_energy": 2.04 
		},
		"coords": [
			{
				"x": -0.3724596932,
				"y": 1.314544893,
				"z": 1.9620537369,
				"element": "O" 
			},
			{
				"x": -0.0183758699,
				"y": 0.0764085932,
				"z": 1.5414522852,
				"element": "C" 
			},
			{
				"x": -0.8543005788,
				"y": -0.9893581975,
				"z": 1.8868081602,
				"element": "C" 
			},
			{
				"x": -0.4771681681,
				"y": -2.2555400675,
				"z": 1.4473204395,
				"element": "C" 
			},
			{
				"x": -1.5137215414,
				"y": -3.6180705369,
				"z": 1.8688237556,
				"element": "Cl" 
			},
			{
				"x": 0.6010349028,
				"y": -2.5357280817,
				"z": 0.7331956218,
				"element": "N" 
			},
			{
				"x": 1.3877695864,
				"y": -1.4984981393,
				"z": 0.4137234697,
				"element": "C" 
			},
			{
				"x": 1.1328455051,
				"y": -0.1827735544,
				"z": 0.7854390256,
				"element": "C" 
			},
			{
				"x": 0.2817129218,
				"y": 1.9594705994,
				"z": 1.6612172652,
				"element": "H" 
			},
			{
				"x": -1.7509345247,
				"y": -0.8232144115,
				"z": 2.469827268,
				"element": "H" 
			},
			{
				"x": 2.272262427,
				"y": -1.735876187,
				"z": -0.173341363,
				"element": "H" 
			},
			{
				"x": 1.8099350329,
				"y": 0.6158350904,
				"z": 0.4951803352,
				"element": "H" 
			}
		],
		 "valence_orbital": [ 
			{
				"type": "occ",
				"energy": -0.33237,
				"method": "rhf"
			},
			{
				"type": "occ",
				"energy": -0.31139,
				"method": "rhf"
			},
			{
				"type": "occ",
				"energy": -0.2755,
				"method": "rhf"
			},
			{
				"type": "occ",
				"energy": -0.2662,
				"method": "rhf"
			},
			{
				"type": "occ",
				"energy": -0.26157,
				"method": "rhf"
			},
			{
				"type": "unocc",
				"energy": -0.02653,
				"method": "rhf"
			},
			{
				"type": "unocc",
				"energy": -0.02005,
				"method": "rhf"
			},
			{
				"type": "unocc",
				"energy": 0.03172,
				"method": "rhf"
			},
			{
				"type": "unocc",
				"energy": 0.05483,
				"method": "rhf"
			},
			{
				"type": "unocc",
				"energy": 0.10211,
				"method": "rhf"
			}
		],
		"cosmo_sigma_profile": { 
			"-0.025": 0.0,
			"-0.024": 0.0,
			"-0.023": 0.0,
			"-0.022": 0.0,
			"-0.021": 0.0,
			"-0.02": 0.0,
			"-0.019": 0.594005787191,
			"-0.018": 1.6302128727,
			"-0.017": 0.976921096227,
			"-0.016": 1.02158554915,
			"-0.015": 1.3289225987,
			"-0.014": 0.870303488449,
			"-0.013": 1.22061111052,
			"-0.012": 1.15072718304,
			"-0.011": 0.675258687429,
			"-0.01": 1.12398805888,
			"-0.009": 1.2022709651,
			"-0.008": 3.52130649454,
			"-0.007": 6.37943522773,
			"-0.006": 5.48483112131,
			"-0.005": 5.04492350506,
			"-0.004": 4.48068077747,
			"-0.003": 3.85047795649,
			"-0.002": 5.94863299153,
			"-0.001": 7.29860214066,
			"0.0": 15.8103158068,
			"0.001": 18.4227214674,
			"0.002": 12.6602229249,
			"0.003": 8.67035126762,
			"0.004": 11.0288219844,
			"0.005": 8.51631875497,
			"0.006": 4.01695259378,
			"0.007": 3.18202333897,
			"0.008": 3.35886161053,
			"0.009": 3.11516797341,
			"0.01": 2.25401711095,
			"0.011": 1.193684722,
			"0.012": 0.822412984477,
			"0.013": 1.17387602936,
			"0.014": 0.781766738204,
			"0.015": 0.641585168189,
			"0.016": 0.0953685378647,
			"0.017": 0.0,
			"0.018": 0.0,
			"0.019": 0.0,
			"0.02": 0.0,
			"0.021": 0.0,
			"0.022": 0.0,
			"0.023": 0.0,
			"0.024": 0.0,
			"0.025": 0.0
		}
	}
}
