{
	 "smiles": "ClCC1=NC2=C(C=C(Br)C=C2Br)C(=O)N1", 
	 "Tm": 523.15, 
	 "num_atms": 20, 
	 "gaussian": { 
		 "optdone": 1, 
		 "sigma_profile": "yes", 
		 "theory": "DFT", 
		 "functional": "B3LYP", 
		 "basiset": "6-31G**", 
		 "properties": { 
			 "R2extent": 8237.2396, 
			 "electric_dipole_moment_norm": 2.18039837874, 
			 "electric_quadrupole_moment_norm": 9.28670228876, 
			 "total_energy": -6133.72787098, 
			 "HOMO_LUMO_gap": 0.17337, 
			 "cosmo_polarized_energy": -12.72, 
			 "cosmo_cavitation_energy": 31.56, 
			 "cosmo_dispersion_energy": -24.12, 
			 "cosmo_repulsion_energy": 1.91, 
			 "cosmo_total_nonelectrostatic_energy": 9.35, 
			 "SMD_solvation_energy": 2.09 
		},
		"coords": [
			{
				"x": -1.1965673181,
				"y": 1.6237542965,
				"z": 3.7607908187,
				"element": "Cl" 
			},
			{
				"x": -0.7735446278,
				"y": 0.0120327811,
				"z": 3.0446188734,
				"element": "C" 
			},
			{
				"x": -0.3712915658,
				"y": 0.0942814096,
				"z": 1.5937305976,
				"element": "C" 
			},
			{
				"x": -0.7747954223,
				"y": -0.8478038418,
				"z": 0.8051507847,
				"element": "N" 
			},
			{
				"x": -0.3301392005,
				"y": -0.8213150514,
				"z": -0.5050007301,
				"element": "C" 
			},
			{
				"x": 0.5238110616,
				"y": 0.1955129303,
				"z": -0.9983890777,
				"element": "C" 
			},
			{
				"x": 0.9608547397,
				"y": 0.2138172578,
				"z": -2.3284524373,
				"element": "C" 
			},
			{
				"x": 0.545243918,
				"y": -0.7954105681,
				"z": -3.1796083803,
				"element": "C" 
			},
			{
				"x": 1.119622305,
				"y": -0.8081071091,
				"z": -4.9958605116,
				"element": "Br" 
			},
			{
				"x": -0.2991583313,
				"y": -1.8211255465,
				"z": -2.7301664022,
				"element": "C" 
			},
			{
				"x": -0.7294929272,
				"y": -1.831129354,
				"z": -1.4118555403,
				"element": "C" 
			},
			{
				"x": -1.8730043496,
				"y": -3.2345714458,
				"z": -0.8362520531,
				"element": "Br" 
			},
			{
				"x": 0.9589008463,
				"y": 1.2704443859,
				"z": -0.0900411448,
				"element": "C" 
			},
			{
				"x": 1.6773413836,
				"y": 2.2126341827,
				"z": -0.3809359848,
				"element": "O" 
			},
			{
				"x": 0.4555493783,
				"y": 1.1172081901,
				"z": 1.2093337718,
				"element": "N" 
			},
			{
				"x": -1.6405448561,
				"y": -0.6396240654,
				"z": 3.1267129708,
				"element": "H" 
			},
			{
				"x": 0.0453544079,
				"y": -0.3845360031,
				"z": 3.6498091262,
				"element": "H" 
			},
			{
				"x": 1.6113429032,
				"y": 1.0153426906,
				"z": -2.6567207325,
				"element": "H" 
			},
			{
				"x": -0.6150931155,
				"y": -2.6032255155,
				"z": -3.4087883744,
				"element": "H" 
			},
			{
				"x": 0.6837107707,
				"y": 1.8585203762,
				"z": 1.8634244261,
				"element": "H" 
			}
		],
		 "valence_orbital": [ 
			{
				"type": "occ",
				"energy": -0.29455,
				"method": "rhf"
			},
			{
				"type": "occ",
				"energy": -0.29027,
				"method": "rhf"
			},
			{
				"type": "occ",
				"energy": -0.28092,
				"method": "rhf"
			},
			{
				"type": "occ",
				"energy": -0.26868,
				"method": "rhf"
			},
			{
				"type": "occ",
				"energy": -0.24291,
				"method": "rhf"
			},
			{
				"type": "unocc",
				"energy": -0.06954,
				"method": "rhf"
			},
			{
				"type": "unocc",
				"energy": -0.06598,
				"method": "rhf"
			},
			{
				"type": "unocc",
				"energy": -0.02115,
				"method": "rhf"
			},
			{
				"type": "unocc",
				"energy": -0.00646,
				"method": "rhf"
			},
			{
				"type": "unocc",
				"energy": 0.01009,
				"method": "rhf"
			}
		],
		"cosmo_sigma_profile": { 
			"-0.025": 0.0,
			"-0.024": 0.0,
			"-0.023": 0.0,
			"-0.022": 0.0,
			"-0.021": 0.0,
			"-0.02": 0.0,
			"-0.019": 0.0,
			"-0.018": 0.0,
			"-0.017": 0.0,
			"-0.016": 0.0295477984493,
			"-0.015": 0.511014171319,
			"-0.014": 0.517177560961,
			"-0.013": 1.57021720616,
			"-0.012": 0.866185117527,
			"-0.011": 1.08058694159,
			"-0.01": 3.89137254626,
			"-0.009": 5.95525276019,
			"-0.008": 5.83184141264,
			"-0.007": 6.8202634821,
			"-0.006": 9.09552124924,
			"-0.005": 12.1278134595,
			"-0.004": 12.8660106976,
			"-0.003": 14.5872819782,
			"-0.002": 15.0867333446,
			"-0.001": 24.3047381978,
			"0.0": 29.1499462353,
			"0.001": 18.8761458548,
			"0.002": 19.2044644538,
			"0.003": 21.2970347905,
			"0.004": 23.0678190365,
			"0.005": 11.379286386,
			"0.006": 3.35576185495,
			"0.007": 2.74856062694,
			"0.008": 2.54793914626,
			"0.009": 2.39799728969,
			"0.01": 3.06383029479,
			"0.011": 4.45145606916,
			"0.012": 5.85879912504,
			"0.013": 0.589084241179,
			"0.014": 0.0,
			"0.015": 0.0,
			"0.016": 0.0,
			"0.017": 0.0,
			"0.018": 0.0,
			"0.019": 0.0,
			"0.02": 0.0,
			"0.021": 0.0,
			"0.022": 0.0,
			"0.023": 0.0,
			"0.024": 0.0,
			"0.025": 0.0
		}
	}
}
