{
	 "smiles": "CC1=C2C=C(Br)C=CC2=NC=N1", 
	 "Tm": 396.15, 
	 "num_atms": 19, 
	 "gaussian": { 
		 "optdone": 1, 
		 "sigma_profile": "yes", 
		 "theory": "DFT", 
		 "functional": "B3LYP", 
		 "basiset": "6-31G**", 
		 "properties": { 
			 "R2extent": 3606.084, 
			 "electric_dipole_moment_norm": 1.28119164062, 
			 "electric_quadrupole_moment_norm": 8.19348386646, 
			 "total_energy": -3028.09430363, 
			 "HOMO_LUMO_gap": 0.1718, 
			 "cosmo_polarized_energy": -7.71, 
			 "cosmo_cavitation_energy": 25.41, 
			 "cosmo_dispersion_energy": -19.37, 
			 "cosmo_repulsion_energy": 1.52, 
			 "cosmo_total_nonelectrostatic_energy": 7.56, 
			 "SMD_solvation_energy": 0.31 
		},
		"coords": [
			{
				"x": -1.3359535429,
				"y": -0.3695551682,
				"z": 2.8979498756,
				"element": "C" 
			},
			{
				"x": -0.6274303906,
				"y": -1.2916586422,
				"z": 1.9418152667,
				"element": "C" 
			},
			{
				"x": 0.2939760504,
				"y": -0.798566483,
				"z": 0.9610053066,
				"element": "C" 
			},
			{
				"x": 0.6217077205,
				"y": 0.5718093862,
				"z": 0.7973470289,
				"element": "C" 
			},
			{
				"x": 1.520860229,
				"y": 0.9368643488,
				"z": -0.1776877837,
				"element": "C" 
			},
			{
				"x": 1.9730501397,
				"y": 2.7777414027,
				"z": -0.4116250566,
				"element": "Br" 
			},
			{
				"x": 2.1295336209,
				"y": -0.0207022314,
				"z": -1.0243026521,
				"element": "C" 
			},
			{
				"x": 1.8214259287,
				"y": -1.3533549785,
				"z": -0.877315941,
				"element": "C" 
			},
			{
				"x": 0.8987986629,
				"y": -1.7740183193,
				"z": 0.1159105644,
				"element": "C" 
			},
			{
				"x": 0.6130142798,
				"y": -3.1028628512,
				"z": 0.2376969248,
				"element": "N" 
			},
			{
				"x": -0.2488108702,
				"y": -3.4208633707,
				"z": 1.1770676606,
				"element": "C" 
			},
			{
				"x": -0.8871376423,
				"y": -2.5840779267,
				"z": 2.0393200873,
				"element": "N" 
			},
			{
				"x": -1.982360798,
				"y": -0.958670677,
				"z": 3.5487550366,
				"element": "H" 
			},
			{
				"x": -0.622078963,
				"y": 0.188080138,
				"z": 3.514859112,
				"element": "H" 
			},
			{
				"x": -1.9456960895,
				"y": 0.3666446439,
				"z": 2.3618734587,
				"element": "H" 
			},
			{
				"x": 0.1700667738,
				"y": 1.3244485683,
				"z": 1.4321007021,
				"element": "H" 
			},
			{
				"x": 2.8331967717,
				"y": 0.3080056154,
				"z": -1.7806441172,
				"element": "H" 
			},
			{
				"x": 2.269699238,
				"y": -2.1126970258,
				"z": -1.5092559249,
				"element": "H" 
			},
			{
				"x": -0.4895611188,
				"y": -4.4764664293,
				"z": 1.2895304512,
				"element": "H" 
			}
		],
		 "valence_orbital": [ 
			{
				"type": "occ",
				"energy": -0.30382,
				"method": "rhf"
			},
			{
				"type": "occ",
				"energy": -0.29587,
				"method": "rhf"
			},
			{
				"type": "occ",
				"energy": -0.27474,
				"method": "rhf"
			},
			{
				"type": "occ",
				"energy": -0.25393,
				"method": "rhf"
			},
			{
				"type": "occ",
				"energy": -0.24469,
				"method": "rhf"
			},
			{
				"type": "unocc",
				"energy": -0.07289,
				"method": "rhf"
			},
			{
				"type": "unocc",
				"energy": -0.03876,
				"method": "rhf"
			},
			{
				"type": "unocc",
				"energy": -0.00341,
				"method": "rhf"
			},
			{
				"type": "unocc",
				"energy": 0.00396,
				"method": "rhf"
			},
			{
				"type": "unocc",
				"energy": 0.06509,
				"method": "rhf"
			}
		],
		"cosmo_sigma_profile": { 
			"-0.025": 0.0,
			"-0.024": 0.0,
			"-0.023": 0.0,
			"-0.022": 0.0,
			"-0.021": 0.0,
			"-0.02": 0.0,
			"-0.019": 0.0,
			"-0.018": 0.0,
			"-0.017": 0.0,
			"-0.016": 0.0,
			"-0.015": 0.0,
			"-0.014": 0.0,
			"-0.013": 0.0,
			"-0.012": 0.0,
			"-0.011": 0.0,
			"-0.01": 0.0,
			"-0.009": 0.0,
			"-0.008": 2.1090565867,
			"-0.007": 7.97756248295,
			"-0.006": 12.9985542484,
			"-0.005": 11.7949592516,
			"-0.004": 13.3401052083,
			"-0.003": 13.5551098216,
			"-0.002": 16.4226582408,
			"-0.001": 19.3372350736,
			"0.0": 21.6205746807,
			"0.001": 25.421045787,
			"0.002": 14.7401209442,
			"0.003": 12.046961827,
			"0.004": 12.9600435183,
			"0.005": 4.37174251919,
			"0.006": 3.01053093291,
			"0.007": 3.06787752779,
			"0.008": 1.63861061902,
			"0.009": 1.72485615913,
			"0.01": 1.63606827369,
			"0.011": 1.30949584807,
			"0.012": 2.06388511936,
			"0.013": 1.80012406556,
			"0.014": 1.42449517135,
			"0.015": 1.18808219216,
			"0.016": 0.189794601777,
			"0.017": 0.0,
			"0.018": 0.0,
			"0.019": 0.0,
			"0.02": 0.0,
			"0.021": 0.0,
			"0.022": 0.0,
			"0.023": 0.0,
			"0.024": 0.0,
			"0.025": 0.0
		}
	}
}
