{
	 "smiles": "CN1C(=O)C(CBr)=NC2=C1C=CC=C2", 
	 "Tm": 453.15, 
	 "num_atms": 23, 
	 "gaussian": { 
		 "optdone": 1, 
		 "sigma_profile": "yes", 
		 "theory": "DFT", 
		 "functional": "B3LYP", 
		 "basiset": "6-31G**", 
		 "properties": { 
			 "R2extent": 5338.7322, 
			 "electric_dipole_moment_norm": 4.97077626332, 
			 "electric_quadrupole_moment_norm": 14.3923616464, 
			 "total_energy": -3142.63967743, 
			 "HOMO_LUMO_gap": 0.15058, 
			 "cosmo_polarized_energy": -12.27, 
			 "cosmo_cavitation_energy": 29.03, 
			 "cosmo_dispersion_energy": -21.72, 
			 "cosmo_repulsion_energy": 1.69, 
			 "cosmo_total_nonelectrostatic_energy": 9.01, 
			 "SMD_solvation_energy": 2.75 
		},
		"coords": [
			{
				"x": 0.0620588002,
				"y": 1.3319769928,
				"z": 4.0173335063,
				"element": "C" 
			},
			{
				"x": 0.2744487371,
				"y": 0.8052273982,
				"z": 2.6692906897,
				"element": "N" 
			},
			{
				"x": 1.5827398546,
				"y": 0.4813195764,
				"z": 2.3031772032,
				"element": "C" 
			},
			{
				"x": 2.5317866493,
				"y": 0.5957893791,
				"z": 3.0723238836,
				"element": "O" 
			},
			{
				"x": 1.7298125319,
				"y": -0.0318624438,
				"z": 0.9164043676,
				"element": "C" 
			},
			{
				"x": 3.1172424186,
				"y": -0.3525830485,
				"z": 0.4704506063,
				"element": "C" 
			},
			{
				"x": 4.0405989651,
				"y": 1.304179321,
				"z": -0.1499933458,
				"element": "Br" 
			},
			{
				"x": 0.7447846957,
				"y": -0.2215111071,
				"z": 0.0972850262,
				"element": "N" 
			},
			{
				"x": -0.5344354303,
				"y": 0.0961810599,
				"z": 0.5101466713,
				"element": "C" 
			},
			{
				"x": -0.7969679304,
				"y": 0.6262548436,
				"z": 1.8003782574,
				"element": "C" 
			},
			{
				"x": -2.1197636027,
				"y": 0.9434985052,
				"z": 2.157158964,
				"element": "C" 
			},
			{
				"x": -3.1510256162,
				"y": 0.7323481869,
				"z": 1.2492738891,
				"element": "C" 
			},
			{
				"x": -2.8987319748,
				"y": 0.2055144424,
				"z": -0.0264016199,
				"element": "C" 
			},
			{
				"x": -1.5982521037,
				"y": -0.1076261048,
				"z": -0.3871936872,
				"element": "C" 
			},
			{
				"x": -0.6028008679,
				"y": 0.6739132863,
				"z": 4.584763319,
				"element": "H" 
			},
			{
				"x": 1.0351649283,
				"y": 1.3771775696,
				"z": 4.5017720666,
				"element": "H" 
			},
			{
				"x": -0.3751937847,
				"y": 2.333635248,
				"z": 3.9703985578,
				"element": "H" 
			},
			{
				"x": 3.104392855,
				"y": -1.0187464977,
				"z": -0.3877935209,
				"element": "H" 
			},
			{
				"x": 3.7349343306,
				"y": -0.7223737739,
				"z": 1.2847213661,
				"element": "H" 
			},
			{
				"x": -2.3421452516,
				"y": 1.3508351995,
				"z": 3.1356616344,
				"element": "H" 
			},
			{
				"x": -4.1672834566,
				"y": 0.981858412,
				"z": 1.5396051794,
				"element": "H" 
			},
			{
				"x": -3.7153118526,
				"y": 0.0473122213,
				"z": -0.7231746952,
				"element": "H" 
			},
			{
				"x": -1.3541528947,
				"y": -0.5131186664,
				"z": -1.3634883191,
				"element": "H" 
			}
		],
		 "valence_orbital": [ 
			{
				"type": "occ",
				"energy": -0.27394,
				"method": "rhf"
			},
			{
				"type": "occ",
				"energy": -0.26584,
				"method": "rhf"
			},
			{
				"type": "occ",
				"energy": -0.25737,
				"method": "rhf"
			},
			{
				"type": "occ",
				"energy": -0.25268,
				"method": "rhf"
			},
			{
				"type": "occ",
				"energy": -0.23203,
				"method": "rhf"
			},
			{
				"type": "unocc",
				"energy": -0.08145,
				"method": "rhf"
			},
			{
				"type": "unocc",
				"energy": -0.02123,
				"method": "rhf"
			},
			{
				"type": "unocc",
				"energy": -0.003,
				"method": "rhf"
			},
			{
				"type": "unocc",
				"energy": 0.00744,
				"method": "rhf"
			},
			{
				"type": "unocc",
				"energy": 0.07926,
				"method": "rhf"
			}
		],
		"cosmo_sigma_profile": { 
			"-0.025": 0.0,
			"-0.024": 0.0,
			"-0.023": 0.0,
			"-0.022": 0.0,
			"-0.021": 0.0,
			"-0.02": 0.0,
			"-0.019": 0.0,
			"-0.018": 0.0,
			"-0.017": 0.0,
			"-0.016": 0.0,
			"-0.015": 0.0,
			"-0.014": 0.0,
			"-0.013": 0.0,
			"-0.012": 0.0,
			"-0.011": 0.0,
			"-0.01": 0.0,
			"-0.009": 0.0,
			"-0.008": 2.10372172001,
			"-0.007": 11.7925841708,
			"-0.006": 18.2764883827,
			"-0.005": 19.3795433167,
			"-0.004": 19.9934312833,
			"-0.003": 19.0153018122,
			"-0.002": 15.2029534466,
			"-0.001": 13.2677700432,
			"0.0": 11.905512107,
			"0.001": 13.3246081643,
			"0.002": 17.8093513926,
			"0.003": 17.1697505626,
			"0.004": 13.0968997337,
			"0.005": 11.4832804569,
			"0.006": 10.6882484258,
			"0.007": 3.50228196417,
			"0.008": 3.05058635884,
			"0.009": 3.16031110625,
			"0.01": 2.75470921734,
			"0.011": 2.22068406511,
			"0.012": 4.39962797104,
			"0.013": 2.26615881887,
			"0.014": 0.0,
			"0.015": 0.0,
			"0.016": 0.0,
			"0.017": 0.0,
			"0.018": 0.0,
			"0.019": 0.0,
			"0.02": 0.0,
			"0.021": 0.0,
			"0.022": 0.0,
			"0.023": 0.0,
			"0.024": 0.0,
			"0.025": 0.0
		}
	}
}
