{
	 "smiles": "C1CCCCNCCC1", 
	 "Tm": 254.15, 
	 "num_atms": 26, 
	 "gaussian": { 
		 "optdone": 1, 
		 "sigma_profile": "yes", 
		 "theory": "DFT", 
		 "functional": "B3LYP", 
		 "basiset": "6-31G**", 
		 "properties": { 
			 "R2extent": 1384.1831, 
			 "electric_dipole_moment_norm": 1.02777560781, 
			 "electric_quadrupole_moment_norm": 2.99823040142, 
			 "total_energy": -369.842673221, 
			 "HOMO_LUMO_gap": 0.28186, 
			 "cosmo_polarized_energy": -3.03, 
			 "cosmo_cavitation_energy": 23.91, 
			 "cosmo_dispersion_energy": -18.57, 
			 "cosmo_repulsion_energy": 1.52, 
			 "cosmo_total_nonelectrostatic_energy": 6.86, 
			 "SMD_solvation_energy": 1.56 
		},
		"coords": [
			{
				"x": 0.0011896418,
				"y": 2.3854930578,
				"z": 0.3618966702,
				"element": "C" 
			},
			{
				"x": 1.3680321973,
				"y": 1.7037110521,
				"z": 0.167203199,
				"element": "C" 
			},
			{
				"x": 1.5790465174,
				"y": 0.8667903368,
				"z": -1.1080301769,
				"element": "C" 
			},
			{
				"x": 0.7381325643,
				"y": -0.4050445214,
				"z": -1.3444634857,
				"element": "C" 
			},
			{
				"x": 0.7240584557,
				"y": -1.477347249,
				"z": -0.2297023609,
				"element": "C" 
			},
			{
				"x": -0.4298297624,
				"y": -1.4258404462,
				"z": 0.6791560169,
				"element": "N" 
			},
			{
				"x": -0.3176349947,
				"y": -0.6031618895,
				"z": 1.8904301709,
				"element": "C" 
			},
			{
				"x": -1.2347779896,
				"y": 0.6387198432,
				"z": 1.8886384423,
				"element": "C" 
			},
			{
				"x": -1.2370435123,
				"y": 1.507170813,
				"z": 0.6203552014,
				"element": "C" 
			},
			{
				"x": 0.0991908824,
				"y": 3.0887432084,
				"z": 1.201402789,
				"element": "H" 
			},
			{
				"x": -0.2019076518,
				"y": 3.0075179639,
				"z": -0.5218277746,
				"element": "H" 
			},
			{
				"x": 2.1241062736,
				"y": 2.5005229726,
				"z": 0.1447333097,
				"element": "H" 
			},
			{
				"x": 1.6182901169,
				"y": 1.1044076493,
				"z": 1.0482601104,
				"element": "H" 
			},
			{
				"x": 1.442762969,
				"y": 1.5221284656,
				"z": -1.9799333154,
				"element": "H" 
			},
			{
				"x": 2.6382003848,
				"y": 0.5728316928,
				"z": -1.1257328283,
				"element": "H" 
			},
			{
				"x": -0.3003860405,
				"y": -0.1576493558,
				"z": -1.5830397004,
				"element": "H" 
			},
			{
				"x": 1.1454930658,
				"y": -0.8736128985,
				"z": -2.250476993,
				"element": "H" 
			},
			{
				"x": 0.6802360224,
				"y": -2.4564470323,
				"z": -0.7199766106,
				"element": "H" 
			},
			{
				"x": 1.6853486516,
				"y": -1.453298175,
				"z": 0.3174203602,
				"element": "H" 
			},
			{
				"x": -0.6709102072,
				"y": -2.3727969156,
				"z": 0.9420464991,
				"element": "H" 
			},
			{
				"x": -0.5963151663,
				"y": -1.2111840949,
				"z": 2.7613762183,
				"element": "H" 
			},
			{
				"x": 0.7275789494,
				"y": -0.3129294917,
				"z": 2.0614696996,
				"element": "H" 
			},
			{
				"x": -0.9863713078,
				"y": 1.2526688191,
				"z": 2.7668833933,
				"element": "H" 
			},
			{
				"x": -2.2628943347,
				"y": 0.2865053983,
				"z": 2.0434089801,
				"element": "H" 
			},
			{
				"x": -2.0992311028,
				"y": 2.1840516291,
				"z": 0.6880149502,
				"element": "H" 
			},
			{
				"x": -1.4394646224,
				"y": 0.8566491681,
				"z": -0.2349127648,
				"element": "H" 
			}
		],
		 "valence_orbital": [ 
			{
				"type": "occ",
				"energy": -0.31565,
				"method": "rhf"
			},
			{
				"type": "occ",
				"energy": -0.29992,
				"method": "rhf"
			},
			{
				"type": "occ",
				"energy": -0.29267,
				"method": "rhf"
			},
			{
				"type": "occ",
				"energy": -0.29121,
				"method": "rhf"
			},
			{
				"type": "occ",
				"energy": -0.2101,
				"method": "rhf"
			},
			{
				"type": "unocc",
				"energy": 0.07176,
				"method": "rhf"
			},
			{
				"type": "unocc",
				"energy": 0.10161,
				"method": "rhf"
			},
			{
				"type": "unocc",
				"energy": 0.10413,
				"method": "rhf"
			},
			{
				"type": "unocc",
				"energy": 0.11311,
				"method": "rhf"
			},
			{
				"type": "unocc",
				"energy": 0.13657,
				"method": "rhf"
			}
		],
		"cosmo_sigma_profile": { 
			"-0.025": 0.0,
			"-0.024": 0.0,
			"-0.023": 0.0,
			"-0.022": 0.0,
			"-0.021": 0.0,
			"-0.02": 0.0,
			"-0.019": 0.0,
			"-0.018": 0.0,
			"-0.017": 0.0,
			"-0.016": 0.0,
			"-0.015": 0.0,
			"-0.014": 0.0,
			"-0.013": 0.0,
			"-0.012": 0.0,
			"-0.011": 0.0,
			"-0.01": 0.357024650962,
			"-0.009": 1.34389297546,
			"-0.008": 1.37696325256,
			"-0.007": 1.0926478101,
			"-0.006": 1.42256147561,
			"-0.005": 1.99015254094,
			"-0.004": 2.58962947688,
			"-0.003": 6.50554524196,
			"-0.002": 19.622052206,
			"-0.001": 36.9276975811,
			"0.0": 45.2406171088,
			"0.001": 36.7968373846,
			"0.002": 15.7331791622,
			"0.003": 2.0823602929,
			"0.004": 1.04879751883,
			"0.005": 1.11146639214,
			"0.006": 0.952165754688,
			"0.007": 0.904878479105,
			"0.008": 0.649067995045,
			"0.009": 0.58573732277,
			"0.01": 0.890175813627,
			"0.011": 0.647211770475,
			"0.012": 0.438689320693,
			"0.013": 0.576438215518,
			"0.014": 0.493124369468,
			"0.015": 0.600480975754,
			"0.016": 0.316022063613,
			"0.017": 0.12788784528,
			"0.018": 0.0,
			"0.019": 0.0,
			"0.02": 0.0,
			"0.021": 0.0,
			"0.022": 0.0,
			"0.023": 0.0,
			"0.024": 0.0,
			"0.025": 0.0
		}
	}
}
