{
	 "smiles": "CCCNCCC", 
	 "Tm": 210.15, 
	 "num_atms": 22, 
	 "gaussian": { 
		 "optdone": 1, 
		 "sigma_profile": "yes", 
		 "theory": "DFT", 
		 "functional": "B3LYP", 
		 "basiset": "6-31G**", 
		 "properties": { 
			 "R2extent": 1577.1154, 
			 "electric_dipole_moment_norm": 0.959651243942, 
			 "electric_quadrupole_moment_norm": 1.88183787027, 
			 "total_energy": -292.438628738, 
			 "HOMO_LUMO_gap": 0.29876, 
			 "cosmo_polarized_energy": -3.09, 
			 "cosmo_cavitation_energy": 23.17, 
			 "cosmo_dispersion_energy": -16.59, 
			 "cosmo_repulsion_energy": 1.43, 
			 "cosmo_total_nonelectrostatic_energy": 8.02, 
			 "SMD_solvation_energy": 3.2 
		},
		"coords": [
			{
				"x": -1.7669227136,
				"y": 3.3524135753,
				"z": 0.4833951299,
				"element": "C" 
			},
			{
				"x": -1.5214407433,
				"y": 3.2497060954,
				"z": -1.0251275962,
				"element": "C" 
			},
			{
				"x": -0.4455318097,
				"y": 2.2277352462,
				"z": -1.4085038546,
				"element": "C" 
			},
			{
				"x": -0.828457997,
				"y": 0.871478415,
				"z": -1.0180622926,
				"element": "N" 
			},
			{
				"x": 0.1382747978,
				"y": -0.1643042844,
				"z": -1.3926658454,
				"element": "C" 
			},
			{
				"x": 1.3132935602,
				"y": -0.268255273,
				"z": -0.4085491064,
				"element": "C" 
			},
			{
				"x": 0.8844120231,
				"y": -0.6611660271,
				"z": 1.0075764241,
				"element": "C" 
			},
			{
				"x": -0.8601408545,
				"y": 3.6796207391,
				"z": 1.0052784296,
				"element": "H" 
			},
			{
				"x": -2.0531062523,
				"y": 2.3819147487,
				"z": 0.8967873199,
				"element": "H" 
			},
			{
				"x": -2.5596677316,
				"y": 4.0734148815,
				"z": 0.7087062852,
				"element": "H" 
			},
			{
				"x": -1.2254408722,
				"y": 4.2277855547,
				"z": -1.4248332965,
				"element": "H" 
			},
			{
				"x": -2.4593958191,
				"y": 2.9875840405,
				"z": -1.5365034466,
				"element": "H" 
			},
			{
				"x": -0.2335820502,
				"y": 2.3070526215,
				"z": -2.4931350816,
				"element": "H" 
			},
			{
				"x": 0.4898949095,
				"y": 2.4844163686,
				"z": -0.8948757967,
				"element": "H" 
			},
			{
				"x": -1.7264786028,
				"y": 0.6563891324,
				"z": -1.4438328476,
				"element": "H" 
			},
			{
				"x": 0.5360054817,
				"y": -0.0109662604,
				"z": -2.4143772805,
				"element": "H" 
			},
			{
				"x": -0.3931849136,
				"y": -1.1243143551,
				"z": -1.4033572108,
				"element": "H" 
			},
			{
				"x": 2.0245448537,
				"y": -1.0039876114,
				"z": -0.8061897697,
				"element": "H" 
			},
			{
				"x": 1.8541614787,
				"y": 0.6864332692,
				"z": -0.380653721,
				"element": "H" 
			},
			{
				"x": 1.7390548875,
				"y": -0.6854148954,
				"z": 1.6917300598,
				"element": "H" 
			},
			{
				"x": 0.1491972224,
				"y": 0.0489089081,
				"z": 1.39518566,
				"element": "H" 
			},
			{
				"x": 0.4223111453,
				"y": -1.6556448897,
				"z": 1.0164078378,
				"element": "H" 
			}
		],
		 "valence_orbital": [ 
			{
				"type": "occ",
				"energy": -0.33177,
				"method": "rhf"
			},
			{
				"type": "occ",
				"energy": -0.33022,
				"method": "rhf"
			},
			{
				"type": "occ",
				"energy": -0.31989,
				"method": "rhf"
			},
			{
				"type": "occ",
				"energy": -0.31475,
				"method": "rhf"
			},
			{
				"type": "occ",
				"energy": -0.21519,
				"method": "rhf"
			},
			{
				"type": "unocc",
				"energy": 0.08357,
				"method": "rhf"
			},
			{
				"type": "unocc",
				"energy": 0.10731,
				"method": "rhf"
			},
			{
				"type": "unocc",
				"energy": 0.11015,
				"method": "rhf"
			},
			{
				"type": "unocc",
				"energy": 0.13119,
				"method": "rhf"
			},
			{
				"type": "unocc",
				"energy": 0.15102,
				"method": "rhf"
			}
		],
		"cosmo_sigma_profile": { 
			"-0.025": 0.0,
			"-0.024": 0.0,
			"-0.023": 0.0,
			"-0.022": 0.0,
			"-0.021": 0.0,
			"-0.02": 0.0,
			"-0.019": 0.0,
			"-0.018": 0.0,
			"-0.017": 0.0,
			"-0.016": 0.0,
			"-0.015": 0.0,
			"-0.014": 0.0,
			"-0.013": 0.0,
			"-0.012": 0.0,
			"-0.011": 0.0,
			"-0.01": 0.062978372938,
			"-0.009": 1.05347503444,
			"-0.008": 1.41035893881,
			"-0.007": 1.06623457681,
			"-0.006": 1.49592613439,
			"-0.005": 1.73457536734,
			"-0.004": 2.39785924901,
			"-0.003": 8.99885879192,
			"-0.002": 22.7484764399,
			"-0.001": 33.2419097397,
			"0.0": 38.754240579,
			"0.001": 31.5529950289,
			"0.002": 17.7175993541,
			"0.003": 4.02023495635,
			"0.004": 2.14105344093,
			"0.005": 1.11547604014,
			"0.006": 1.50750939566,
			"0.007": 1.44787015782,
			"0.008": 1.09470422366,
			"0.009": 1.09863057159,
			"0.01": 1.13474394402,
			"0.011": 0.86810992787,
			"0.012": 0.786930030971,
			"0.013": 0.175799115728,
			"0.014": 0.0,
			"0.015": 0.0,
			"0.016": 0.0,
			"0.017": 0.0,
			"0.018": 0.0,
			"0.019": 0.0,
			"0.02": 0.0,
			"0.021": 0.0,
			"0.022": 0.0,
			"0.023": 0.0,
			"0.024": 0.0,
			"0.025": 0.0
		}
	}
}
