{
	 "smiles": "COC1=CC(C=CC(O)=O)=CC=C1OCC1=CC=CC=C1", 
	 "Tm": 465.15, 
	 "num_atms": 37, 
	 "gaussian": { 
		 "optdone": 1, 
		 "sigma_profile": "yes", 
		 "theory": "DFT", 
		 "functional": "B3LYP", 
		 "basiset": "6-31G**", 
		 "properties": { 
			 "R2extent": 9168.9901, 
			 "electric_dipole_moment_norm": 6.07600795342, 
			 "electric_quadrupole_moment_norm": 49.7814080854, 
			 "total_energy": -958.315740423, 
			 "HOMO_LUMO_gap": 0.15402, 
			 "cosmo_polarized_energy": -21.93, 
			 "cosmo_cavitation_energy": 42.52, 
			 "cosmo_dispersion_energy": -28.93, 
			 "cosmo_repulsion_energy": 2.25, 
			 "cosmo_total_nonelectrostatic_energy": 15.83, 
			 "SMD_solvation_energy": 9.29 
		},
		"coords": [
			{
				"x": -0.6801555281,
				"y": -0.8888138721,
				"z": 2.7289039011,
				"element": "C" 
			},
			{
				"x": -1.0311451436,
				"y": -1.1263419178,
				"z": 1.3742720935,
				"element": "O" 
			},
			{
				"x": -0.0552299105,
				"y": -1.0249079193,
				"z": 0.4246551774,
				"element": "C" 
			},
			{
				"x": 1.2626638977,
				"y": -0.6629307721,
				"z": 0.6821623746,
				"element": "C" 
			},
			{
				"x": 2.2193006049,
				"y": -0.6095666116,
				"z": -0.3554039181,
				"element": "C" 
			},
			{
				"x": 3.6113283239,
				"y": -0.2365104528,
				"z": -0.1308394981,
				"element": "C" 
			},
			{
				"x": 4.2117796606,
				"y": 0.1187752927,
				"z": 1.0218664121,
				"element": "C" 
			},
			{
				"x": 5.654026291,
				"y": 0.4627658712,
				"z": 1.0228226274,
				"element": "C" 
			},
			{
				"x": 6.1793590454,
				"y": 0.8071172698,
				"z": 2.2351824656,
				"element": "O" 
			},
			{
				"x": 6.3677252392,
				"y": 0.4565277497,
				"z": 0.0444650425,
				"element": "O" 
			},
			{
				"x": 1.8142323342,
				"y": -0.9334610853,
				"z": -1.6581660251,
				"element": "C" 
			},
			{
				"x": 0.4920569428,
				"y": -1.2853335251,
				"z": -1.9236971601,
				"element": "C" 
			},
			{
				"x": -0.4527460291,
				"y": -1.3326595979,
				"z": -0.9032606977,
				"element": "C" 
			},
			{
				"x": -1.7206254267,
				"y": -1.761300805,
				"z": -1.1883945144,
				"element": "O" 
			},
			{
				"x": -2.7990202413,
				"y": -0.8115466164,
				"z": -1.0178178848,
				"element": "C" 
			},
			{
				"x": -2.817244993,
				"y": 0.2437822752,
				"z": -2.0992803347,
				"element": "C" 
			},
			{
				"x": -2.7071956154,
				"y": 1.600775902,
				"z": -1.7796149186,
				"element": "C" 
			},
			{
				"x": -2.7337513888,
				"y": 2.5738932193,
				"z": -2.7818983278,
				"element": "C" 
			},
			{
				"x": -2.861999095,
				"y": 2.1948290698,
				"z": -4.1178847739,
				"element": "C" 
			},
			{
				"x": -2.9658106009,
				"y": 0.8401234756,
				"z": -4.4484739494,
				"element": "C" 
			},
			{
				"x": -2.9454159334,
				"y": -0.1271194177,
				"z": -3.445672438,
				"element": "C" 
			},
			{
				"x": -0.3311263076,
				"y": 0.1404118993,
				"z": 2.883481531,
				"element": "H" 
			},
			{
				"x": -1.5907721051,
				"y": -1.0498622474,
				"z": 3.3074898414,
				"element": "H" 
			},
			{
				"x": 0.0940032934,
				"y": -1.5869599041,
				"z": 3.0713274627,
				"element": "H" 
			},
			{
				"x": 1.565299694,
				"y": -0.4305248423,
				"z": 1.6955389565,
				"element": "H" 
			},
			{
				"x": 4.253946162,
				"y": -0.2439881733,
				"z": -1.0100898747,
				"element": "H" 
			},
			{
				"x": 3.6642432706,
				"y": 0.1624217979,
				"z": 1.961450113,
				"element": "H" 
			},
			{
				"x": 5.4968669064,
				"y": 0.7657734949,
				"z": 2.9188620706,
				"element": "H" 
			},
			{
				"x": 2.5377191395,
				"y": -0.8999093348,
				"z": -2.4671576697,
				"element": "H" 
			},
			{
				"x": 0.1663462093,
				"y": -1.5325630254,
				"z": -2.9280674994,
				"element": "H" 
			},
			{
				"x": -3.6982748895,
				"y": -1.4327520263,
				"z": -1.0645888898,
				"element": "H" 
			},
			{
				"x": -2.7479225595,
				"y": -0.3571657761,
				"z": -0.0250223282,
				"element": "H" 
			},
			{
				"x": -2.601406168,
				"y": 1.8985207746,
				"z": -0.739174303,
				"element": "H" 
			},
			{
				"x": -2.6489572767,
				"y": 3.6244030689,
				"z": -2.5186581164,
				"element": "H" 
			},
			{
				"x": -2.8807265788,
				"y": 2.9490290157,
				"z": -4.899407353,
				"element": "H" 
			},
			{
				"x": -3.06669311,
				"y": 0.5406275118,
				"z": -5.4879064253,
				"element": "H" 
			},
			{
				"x": -3.0240781139,
				"y": -1.1804597655,
				"z": -3.7018031693,
				"element": "H" 
			}
		],
		 "valence_orbital": [ 
			{
				"type": "occ",
				"energy": -0.26367,
				"method": "rhf"
			},
			{
				"type": "occ",
				"energy": -0.25497,
				"method": "rhf"
			},
			{
				"type": "occ",
				"energy": -0.25096,
				"method": "rhf"
			},
			{
				"type": "occ",
				"energy": -0.2463,
				"method": "rhf"
			},
			{
				"type": "occ",
				"energy": -0.21949,
				"method": "rhf"
			},
			{
				"type": "unocc",
				"energy": -0.06547,
				"method": "rhf"
			},
			{
				"type": "unocc",
				"energy": -0.0133,
				"method": "rhf"
			},
			{
				"type": "unocc",
				"energy": -0.00672,
				"method": "rhf"
			},
			{
				"type": "unocc",
				"energy": -0.00024,
				"method": "rhf"
			},
			{
				"type": "unocc",
				"energy": 0.02524,
				"method": "rhf"
			}
		],
		"cosmo_sigma_profile": { 
			"-0.025": 0.0,
			"-0.024": 0.0,
			"-0.023": 0.0,
			"-0.022": 0.0,
			"-0.021": 0.0,
			"-0.02": 0.0,
			"-0.019": 0.544904665006,
			"-0.018": 1.31690817278,
			"-0.017": 1.18409922159,
			"-0.016": 1.28182179281,
			"-0.015": 0.900926077063,
			"-0.014": 0.768161409863,
			"-0.013": 0.770572106363,
			"-0.012": 0.844999407322,
			"-0.011": 1.74395591054,
			"-0.01": 1.06222048408,
			"-0.009": 2.62467390747,
			"-0.008": 2.89866508937,
			"-0.007": 6.05987294906,
			"-0.006": 18.4369228195,
			"-0.005": 29.4749404241,
			"-0.004": 27.8546242487,
			"-0.003": 28.488009151,
			"-0.002": 19.5741556891,
			"-0.001": 19.1314081952,
			"0.0": 17.7518582654,
			"0.001": 20.8144148483,
			"0.002": 25.591196969,
			"0.003": 26.2711707525,
			"0.004": 22.4142636436,
			"0.005": 14.968151467,
			"0.006": 9.66297401824,
			"0.007": 3.97862752968,
			"0.008": 4.64265055401,
			"0.009": 4.41302964447,
			"0.01": 6.6392753247,
			"0.011": 6.42506048037,
			"0.012": 5.82904698907,
			"0.013": 3.93372366231,
			"0.014": 0.863623794407,
			"0.015": 0.0,
			"0.016": 0.0,
			"0.017": 0.0,
			"0.018": 0.0,
			"0.019": 0.0,
			"0.02": 0.0,
			"0.021": 0.0,
			"0.022": 0.0,
			"0.023": 0.0,
			"0.024": 0.0,
			"0.025": 0.0
		}
	}
}
