{
	 "smiles": "NC1=CC=C(C=C1[N+]([O-])=O)C(=O)C1=CC=CC=C1", 
	 "Tm": 415.15, 
	 "num_atms": 28, 
	 "gaussian": { 
		 "optdone": 1, 
		 "sigma_profile": "yes", 
		 "theory": "DFT", 
		 "functional": "B3LYP", 
		 "basiset": "6-31G**", 
		 "properties": { 
			 "R2extent": 5373.4433, 
			 "electric_dipole_moment_norm": 2.62020120411, 
			 "electric_quadrupole_moment_norm": 28.5234851077, 
			 "total_energy": -836.498160294, 
			 "HOMO_LUMO_gap": 0.14479, 
			 "cosmo_polarized_energy": -16.11, 
			 "cosmo_cavitation_energy": 33.12, 
			 "cosmo_dispersion_energy": -24.07, 
			 "cosmo_repulsion_energy": 1.84, 
			 "cosmo_total_nonelectrostatic_energy": 10.89, 
			 "SMD_solvation_energy": 7.97 
		},
		"coords": [
			{
				"x": 3.5784564615,
				"y": -2.526630137,
				"z": -1.4029315529,
				"element": "N" 
			},
			{
				"x": 2.6027766014,
				"y": -1.595758665,
				"z": -1.3256010502,
				"element": "C" 
			},
			{
				"x": 1.8694489859,
				"y": -1.2442458635,
				"z": -2.4930560062,
				"element": "C" 
			},
			{
				"x": 0.8670463745,
				"y": -0.3052001894,
				"z": -2.4618941606,
				"element": "C" 
			},
			{
				"x": 0.4953435252,
				"y": 0.3410371248,
				"z": -1.2573500634,
				"element": "C" 
			},
			{
				"x": 1.2047452997,
				"y": 0.0262741561,
				"z": -0.105418053,
				"element": "C" 
			},
			{
				"x": 2.2397295568,
				"y": -0.9185855023,
				"z": -0.1247328727,
				"element": "C" 
			},
			{
				"x": 2.9246768101,
				"y": -1.1670543498,
				"z": 1.1296740114,
				"element": "N" 
			},
			{
				"x": 2.5637835182,
				"y": -0.5484902208,
				"z": 2.1304896592,
				"element": "O" 
			},
			{
				"x": 3.8521511156,
				"y": -1.9990351101,
				"z": 1.1524748687,
				"element": "O" 
			},
			{
				"x": -0.5612206471,
				"y": 1.395041472,
				"z": -1.3289159357,
				"element": "C" 
			},
			{
				"x": -0.817679316,
				"y": 1.9170491917,
				"z": -2.4108867606,
				"element": "O" 
			},
			{
				"x": -1.3030656321,
				"y": 1.8281473885,
				"z": -0.0996583924,
				"element": "C" 
			},
			{
				"x": -1.6072182732,
				"y": 0.9613461197,
				"z": 0.9617227844,
				"element": "C" 
			},
			{
				"x": -2.3581885063,
				"y": 1.4138114306,
				"z": 2.0474425206,
				"element": "C" 
			},
			{
				"x": -2.8030118275,
				"y": 2.7358994816,
				"z": 2.0885330566,
				"element": "C" 
			},
			{
				"x": -2.5134078147,
				"y": 3.6030334395,
				"z": 1.0303622646,
				"element": "C" 
			},
			{
				"x": -1.7803910434,
				"y": 3.148491483,
				"z": -0.0615441486,
				"element": "C" 
			},
			{
				"x": 3.8034587733,
				"y": -2.9425846876,
				"z": -2.2913150331,
				"element": "H" 
			},
			{
				"x": 4.1073165532,
				"y": -2.7403424878,
				"z": -0.568898629,
				"element": "H" 
			},
			{
				"x": 2.1280609054,
				"y": -1.7382712611,
				"z": -3.4257569802,
				"element": "H" 
			},
			{
				"x": 0.3360246053,
				"y": -0.0344353187,
				"z": -3.3683946643,
				"element": "H" 
			},
			{
				"x": 1.000702477,
				"y": 0.5150082997,
				"z": 0.8377127025,
				"element": "H" 
			},
			{
				"x": -1.2847187458,
				"y": -0.073915817,
				"z": 0.9283461452,
				"element": "H" 
			},
			{
				"x": -2.5968595326,
				"y": 0.7324613701,
				"z": 2.8586772699,
				"element": "H" 
			},
			{
				"x": -3.379480433,
				"y": 3.088861215,
				"z": 2.9388825182,
				"element": "H" 
			},
			{
				"x": -2.8650366578,
				"y": 4.6303207018,
				"z": 1.0570024815,
				"element": "H" 
			},
			{
				"x": -1.5646431337,
				"y": 3.7997667357,
				"z": -0.9019659802,
				"element": "H" 
			}
		],
		 "valence_orbital": [ 
			{
				"type": "occ",
				"energy": -0.28406,
				"method": "rhf"
			},
			{
				"type": "occ",
				"energy": -0.26295,
				"method": "rhf"
			},
			{
				"type": "occ",
				"energy": -0.25981,
				"method": "rhf"
			},
			{
				"type": "occ",
				"energy": -0.24871,
				"method": "rhf"
			},
			{
				"type": "occ",
				"energy": -0.23291,
				"method": "rhf"
			},
			{
				"type": "unocc",
				"energy": -0.08812,
				"method": "rhf"
			},
			{
				"type": "unocc",
				"energy": -0.06432,
				"method": "rhf"
			},
			{
				"type": "unocc",
				"energy": -0.01776,
				"method": "rhf"
			},
			{
				"type": "unocc",
				"energy": -0.00835,
				"method": "rhf"
			},
			{
				"type": "unocc",
				"energy": -0.00065,
				"method": "rhf"
			}
		],
		"cosmo_sigma_profile": { 
			"-0.025": 0.0,
			"-0.024": 0.0,
			"-0.023": 0.0,
			"-0.022": 0.0,
			"-0.021": 0.0,
			"-0.02": 0.0,
			"-0.019": 0.0,
			"-0.018": 0.0,
			"-0.017": 0.0,
			"-0.016": 0.0717537049316,
			"-0.015": 1.37527599793,
			"-0.014": 1.22434273763,
			"-0.013": 1.44662086965,
			"-0.012": 1.88738521759,
			"-0.011": 2.64793733912,
			"-0.01": 2.22287477292,
			"-0.009": 2.36928375902,
			"-0.008": 2.33504741559,
			"-0.007": 4.52006379131,
			"-0.006": 13.7861986457,
			"-0.005": 18.1001523309,
			"-0.004": 18.8719477431,
			"-0.003": 18.2404621987,
			"-0.002": 19.0637605255,
			"-0.001": 18.8339320459,
			"0.0": 22.7038751664,
			"0.001": 19.6905704991,
			"0.002": 18.4392011532,
			"0.003": 15.7743810837,
			"0.004": 15.6536369386,
			"0.005": 6.52677882424,
			"0.006": 4.92872122312,
			"0.007": 6.28633436117,
			"0.008": 8.06970996823,
			"0.009": 5.47263737267,
			"0.01": 6.35754524673,
			"0.011": 4.26127117577,
			"0.012": 3.90187882944,
			"0.013": 1.26870334094,
			"0.014": 0.0,
			"0.015": 0.0,
			"0.016": 0.0,
			"0.017": 0.0,
			"0.018": 0.0,
			"0.019": 0.0,
			"0.02": 0.0,
			"0.021": 0.0,
			"0.022": 0.0,
			"0.023": 0.0,
			"0.024": 0.0,
			"0.025": 0.0
		}
	}
}
