{
	 "smiles": "CC(=NO)C(C)(C)O", 
	 "Tm": 358.15, 
	 "num_atms": 19, 
	 "gaussian": { 
		 "optdone": 1, 
		 "sigma_profile": "yes", 
		 "theory": "DFT", 
		 "functional": "B3LYP", 
		 "basiset": "6-31G**", 
		 "properties": { 
			 "R2extent": 1244.4261, 
			 "electric_dipole_moment_norm": 1.87383453112, 
			 "electric_quadrupole_moment_norm": 8.43494471292, 
			 "total_energy": -402.308304414, 
			 "HOMO_LUMO_gap": 0.25363, 
			 "cosmo_polarized_energy": -8.95, 
			 "cosmo_cavitation_energy": 21.37, 
			 "cosmo_dispersion_energy": -15.55, 
			 "cosmo_repulsion_energy": 1.32, 
			 "cosmo_total_nonelectrostatic_energy": 7.14, 
			 "SMD_solvation_energy": 4.32 
		},
		"coords": [
			{
				"x": 0.4675829265,
				"y": -0.5269539344,
				"z": -1.5003399216,
				"element": "C" 
			},
			{
				"x": 0.9232187603,
				"y": 0.4012191381,
				"z": -0.4087156782,
				"element": "C" 
			},
			{
				"x": 1.7235515835,
				"y": 1.3803046879,
				"z": -0.6062821478,
				"element": "N" 
			},
			{
				"x": 2.1249651649,
				"y": 1.4883894201,
				"z": -1.9481447764,
				"element": "O" 
			},
			{
				"x": 0.453468178,
				"y": 0.2369311535,
				"z": 1.0400375167,
				"element": "C" 
			},
			{
				"x": 0.8997542126,
				"y": -1.1341194172,
				"z": 1.5840784743,
				"element": "C" 
			},
			{
				"x": -1.0782458495,
				"y": 0.3888743553,
				"z": 1.1155407578,
				"element": "C" 
			},
			{
				"x": 1.0283945433,
				"y": 1.2385397369,
				"z": 1.8688010706,
				"element": "O" 
			},
			{
				"x": -0.0313121724,
				"y": 0.0420586718,
				"z": -2.2916936599,
				"element": "H" 
			},
			{
				"x": -0.2135704847,
				"y": -1.2938909996,
				"z": -1.1311090342,
				"element": "H" 
			},
			{
				"x": 1.3324611641,
				"y": -1.0120409698,
				"z": -1.9647251097,
				"element": "H" 
			},
			{
				"x": 2.7109450869,
				"y": 2.2565677504,
				"z": -1.9278296364,
				"element": "H" 
			},
			{
				"x": 0.4598172702,
				"y": -1.9692230686,
				"z": 1.0299848792,
				"element": "H" 
			},
			{
				"x": 1.9895061088,
				"y": -1.216576195,
				"z": 1.5422475901,
				"element": "H" 
			},
			{
				"x": 0.5919398836,
				"y": -1.2149798267,
				"z": 2.6304962795,
				"element": "H" 
			},
			{
				"x": -1.3752599899,
				"y": 1.3741763558,
				"z": 0.7453046667,
				"element": "H" 
			},
			{
				"x": -1.388855814,
				"y": 0.3100759702,
				"z": 2.161288856,
				"element": "H" 
			},
			{
				"x": -1.6053304135,
				"y": -0.3791003699,
				"z": 0.5407706061,
				"element": "H" 
			},
			{
				"x": 1.5856698412,
				"y": 1.7852475412,
				"z": 1.2901892672,
				"element": "H" 
			}
		],
		 "valence_orbital": [ 
			{
				"type": "occ",
				"energy": -0.35243,
				"method": "rhf"
			},
			{
				"type": "occ",
				"energy": -0.3149,
				"method": "rhf"
			},
			{
				"type": "occ",
				"energy": -0.2836,
				"method": "rhf"
			},
			{
				"type": "occ",
				"energy": -0.26008,
				"method": "rhf"
			},
			{
				"type": "occ",
				"energy": -0.24995,
				"method": "rhf"
			},
			{
				"type": "unocc",
				"energy": 0.00368,
				"method": "rhf"
			},
			{
				"type": "unocc",
				"energy": 0.06819,
				"method": "rhf"
			},
			{
				"type": "unocc",
				"energy": 0.08459,
				"method": "rhf"
			},
			{
				"type": "unocc",
				"energy": 0.11539,
				"method": "rhf"
			},
			{
				"type": "unocc",
				"energy": 0.13239,
				"method": "rhf"
			}
		],
		"cosmo_sigma_profile": { 
			"-0.025": 0.0,
			"-0.024": 0.0,
			"-0.023": 0.0,
			"-0.022": 0.0,
			"-0.021": 0.0,
			"-0.02": 0.0,
			"-0.019": 0.0,
			"-0.018": 0.0339574091588,
			"-0.017": 1.01848336201,
			"-0.016": 0.870304688123,
			"-0.015": 0.859692597579,
			"-0.014": 1.12826290306,
			"-0.013": 0.2588253921,
			"-0.012": 1.16702731321,
			"-0.011": 0.635435997066,
			"-0.01": 0.62256173527,
			"-0.009": 0.529872525815,
			"-0.008": 0.974262257365,
			"-0.007": 1.36454565837,
			"-0.006": 3.32291666122,
			"-0.005": 7.35699487908,
			"-0.004": 10.992562898,
			"-0.003": 16.4298843652,
			"-0.002": 18.6605539073,
			"-0.001": 21.1661950901,
			"0.0": 17.9564640008,
			"0.001": 12.2809214267,
			"0.002": 6.70422354513,
			"0.003": 5.50564554421,
			"0.004": 5.58985233269,
			"0.005": 4.97381907033,
			"0.006": 5.2638563388,
			"0.007": 3.48058899468,
			"0.008": 3.07114731722,
			"0.009": 3.8132578343,
			"0.01": 2.71004929693,
			"0.011": 0.967548913057,
			"0.012": 1.25617784661,
			"0.013": 1.73487121048,
			"0.014": 1.73972347309,
			"0.015": 1.15035545,
			"0.016": 0.0,
			"0.017": 0.0,
			"0.018": 0.0,
			"0.019": 0.0,
			"0.02": 0.0,
			"0.021": 0.0,
			"0.022": 0.0,
			"0.023": 0.0,
			"0.024": 0.0,
			"0.025": 0.0
		}
	}
}
