{
	 "smiles": "CCOC1=C(C(F)=CC=C1)[N+]([O-])=O", 
	 "Tm": 308.15, 
	 "num_atms": 21, 
	 "gaussian": { 
		 "optdone": 1, 
		 "sigma_profile": "yes", 
		 "theory": "DFT", 
		 "functional": "B3LYP", 
		 "basiset": "6-31G**", 
		 "properties": { 
			 "R2extent": 3525.0338, 
			 "electric_dipole_moment_norm": 6.13587902586, 
			 "electric_quadrupole_moment_norm": 22.8105855705, 
			 "total_energy": -689.805666494, 
			 "HOMO_LUMO_gap": 0.17281, 
			 "cosmo_polarized_energy": -11.31, 
			 "cosmo_cavitation_energy": 26.23, 
			 "cosmo_dispersion_energy": -18.71, 
			 "cosmo_repulsion_energy": 1.49, 
			 "cosmo_total_nonelectrostatic_energy": 9.01, 
			 "SMD_solvation_energy": 7.89 
		},
		"coords": [
			{
				"x": -1.4280937685,
				"y": 0.4664034897,
				"z": 2.5810409225,
				"element": "C" 
			},
			{
				"x": -2.0314570797,
				"y": -0.6070276216,
				"z": 1.6837018056,
				"element": "C" 
			},
			{
				"x": -1.0589258104,
				"y": -1.5764629737,
				"z": 1.2629987626,
				"element": "O" 
			},
			{
				"x": -0.2436523087,
				"y": -1.3202620687,
				"z": 0.2196546671,
				"element": "C" 
			},
			{
				"x": 0.6982579313,
				"y": -2.3224173626,
				"z": -0.0961896677,
				"element": "C" 
			},
			{
				"x": 1.6015042575,
				"y": -2.1373878067,
				"z": -1.1415083253,
				"element": "C" 
			},
			{
				"x": 2.4723404036,
				"y": -3.1118612188,
				"z": -1.4316139243,
				"element": "F" 
			},
			{
				"x": 1.5903096785,
				"y": -0.9823405708,
				"z": -1.9126969889,
				"element": "C" 
			},
			{
				"x": 0.6607971331,
				"y": 0.0066124476,
				"z": -1.599061618,
				"element": "C" 
			},
			{
				"x": -0.2432341472,
				"y": -0.1455318453,
				"z": -0.5470583318,
				"element": "C" 
			},
			{
				"x": 0.7430175718,
				"y": -3.5722683753,
				"z": 0.6710902757,
				"element": "N" 
			},
			{
				"x": -0.2994227609,
				"y": -4.2117711066,
				"z": 0.7699084043,
				"element": "O" 
			},
			{
				"x": 1.8291670411,
				"y": -3.8915873492,
				"z": 1.1486617838,
				"element": "O" 
			},
			{
				"x": -2.2169399259,
				"y": 1.1366173728,
				"z": 2.9380522048,
				"element": "H" 
			},
			{
				"x": -0.681851249,
				"y": 1.0677161255,
				"z": 2.0546928051,
				"element": "H" 
			},
			{
				"x": -0.9473166263,
				"y": 0.0074383066,
				"z": 3.4491485642,
				"element": "H" 
			},
			{
				"x": -2.7679724446,
				"y": -1.1977748162,
				"z": 2.233356715,
				"element": "H" 
			},
			{
				"x": -2.5368233,
				"y": -0.17875872,
				"z": 0.8101705013,
				"element": "H" 
			},
			{
				"x": 2.2959437132,
				"y": -0.8807668498,
				"z": -2.7284169689,
				"element": "H" 
			},
			{
				"x": 0.639222869,
				"y": 0.9213468203,
				"z": -2.1831538893,
				"element": "H" 
			},
			{
				"x": -0.939271178,
				"y": 0.6524841227,
				"z": -0.3241776976,
				"element": "H" 
			}
		],
		 "valence_orbital": [ 
			{
				"type": "occ",
				"energy": -0.30245,
				"method": "rhf"
			},
			{
				"type": "occ",
				"energy": -0.30069,
				"method": "rhf"
			},
			{
				"type": "occ",
				"energy": -0.29621,
				"method": "rhf"
			},
			{
				"type": "occ",
				"energy": -0.26317,
				"method": "rhf"
			},
			{
				"type": "occ",
				"energy": -0.24495,
				"method": "rhf"
			},
			{
				"type": "unocc",
				"energy": -0.07214,
				"method": "rhf"
			},
			{
				"type": "unocc",
				"energy": -0.01702,
				"method": "rhf"
			},
			{
				"type": "unocc",
				"energy": -0.01161,
				"method": "rhf"
			},
			{
				"type": "unocc",
				"energy": 0.05506,
				"method": "rhf"
			},
			{
				"type": "unocc",
				"energy": 0.08384,
				"method": "rhf"
			}
		],
		"cosmo_sigma_profile": { 
			"-0.025": 0.0,
			"-0.024": 0.0,
			"-0.023": 0.0,
			"-0.022": 0.0,
			"-0.021": 0.0,
			"-0.02": 0.0,
			"-0.019": 0.0,
			"-0.018": 0.0,
			"-0.017": 0.0,
			"-0.016": 0.0,
			"-0.015": 0.0,
			"-0.014": 0.0,
			"-0.013": 0.0,
			"-0.012": 0.0,
			"-0.011": 0.0,
			"-0.01": 0.0,
			"-0.009": 0.481460858243,
			"-0.008": 4.89071600629,
			"-0.007": 7.67665388785,
			"-0.006": 11.3290792556,
			"-0.005": 13.6137054165,
			"-0.004": 17.0071509157,
			"-0.003": 15.2278342496,
			"-0.002": 14.8979529842,
			"-0.001": 19.1027075752,
			"0.0": 19.9403959509,
			"0.001": 13.2716674028,
			"0.002": 13.3441693646,
			"0.003": 13.5036549929,
			"0.004": 5.35962132311,
			"0.005": 4.83959047309,
			"0.006": 5.34656191915,
			"0.007": 10.9295365777,
			"0.008": 10.0863653302,
			"0.009": 5.77849825118,
			"0.01": 2.49938248905,
			"0.011": 0.269640615173,
			"0.012": 0.0,
			"0.013": 0.0,
			"0.014": 0.0,
			"0.015": 0.0,
			"0.016": 0.0,
			"0.017": 0.0,
			"0.018": 0.0,
			"0.019": 0.0,
			"0.02": 0.0,
			"0.021": 0.0,
			"0.022": 0.0,
			"0.023": 0.0,
			"0.024": 0.0,
			"0.025": 0.0
		}
	}
}
