{
	 "smiles": "CS(=O)(=O)NC1=C(F)C=CC(Br)=C1", 
	 "Tm": 417.15, 
	 "num_atms": 20, 
	 "gaussian": { 
		 "optdone": 1, 
		 "sigma_profile": "yes", 
		 "theory": "DFT", 
		 "functional": "B3LYP", 
		 "basiset": "6-31G**", 
		 "properties": { 
			 "R2extent": 4650.1914, 
			 "electric_dipole_moment_norm": 4.27890745168, 
			 "electric_quadrupole_moment_norm": 20.6614926196, 
			 "total_energy": -3545.51282459, 
			 "HOMO_LUMO_gap": 0.20508, 
			 "cosmo_polarized_energy": -18.98, 
			 "cosmo_cavitation_energy": 28.64, 
			 "cosmo_dispersion_energy": -21.25, 
			 "cosmo_repulsion_energy": 1.63, 
			 "cosmo_total_nonelectrostatic_energy": 9.02, 
			 "SMD_solvation_energy": 3.85 
		},
		"coords": [
			{
				"x": 0.7960122917,
				"y": -0.7597733254,
				"z": -2.5984497149,
				"element": "C" 
			},
			{
				"x": 1.6629946116,
				"y": -1.6114110925,
				"z": -1.2601526811,
				"element": "S" 
			},
			{
				"x": 3.0059105944,
				"y": -1.9422509831,
				"z": -1.730295467,
				"element": "O" 
			},
			{
				"x": 0.743689098,
				"y": -2.6050183309,
				"z": -0.7182480689,
				"element": "O" 
			},
			{
				"x": 1.9054056135,
				"y": -0.4298540838,
				"z": -0.0594627472,
				"element": "N" 
			},
			{
				"x": 0.8184829683,
				"y": 0.1388493028,
				"z": 0.6564622084,
				"element": "C" 
			},
			{
				"x": 0.2311231437,
				"y": -0.5692472564,
				"z": 1.7157586752,
				"element": "C" 
			},
			{
				"x": 0.6964045919,
				"y": -1.7772030547,
				"z": 2.0429278653,
				"element": "F" 
			},
			{
				"x": -0.818319292,
				"y": -0.0286821568,
				"z": 2.4499370293,
				"element": "C" 
			},
			{
				"x": -1.2868881572,
				"y": 1.2517335248,
				"z": 2.1581815462,
				"element": "C" 
			},
			{
				"x": -0.6944314652,
				"y": 1.9723555773,
				"z": 1.1223742357,
				"element": "C" 
			},
			{
				"x": -1.3149627334,
				"y": 3.7322434504,
				"z": 0.7175775946,
				"element": "Br" 
			},
			{
				"x": 0.3401447065,
				"y": 1.424275053,
				"z": 0.3680068955,
				"element": "C" 
			},
			{
				"x": 0.5753994812,
				"y": -1.5116607231,
				"z": -3.3582551932,
				"element": "H" 
			},
			{
				"x": 1.4436977085,
				"y": 0.0143089946,
				"z": -3.0125178408,
				"element": "H" 
			},
			{
				"x": -0.1312267639,
				"y": -0.3364027006,
				"z": -2.2097887162,
				"element": "H" 
			},
			{
				"x": 2.6530514181,
				"y": 0.2046288998,
				"z": -0.320592724,
				"element": "H" 
			},
			{
				"x": -1.2449725079,
				"y": -0.6123124038,
				"z": 3.2581866855,
				"element": "H" 
			},
			{
				"x": -2.0973896651,
				"y": 1.6836963928,
				"z": 2.7331154857,
				"element": "H" 
			},
			{
				"x": 0.7862743572,
				"y": 1.9923249158,
				"z": -0.441265068,
				"element": "H" 
			}
		],
		 "valence_orbital": [ 
			{
				"type": "occ",
				"energy": -0.31087,
				"method": "rhf"
			},
			{
				"type": "occ",
				"energy": -0.30913,
				"method": "rhf"
			},
			{
				"type": "occ",
				"energy": -0.30129,
				"method": "rhf"
			},
			{
				"type": "occ",
				"energy": -0.27375,
				"method": "rhf"
			},
			{
				"type": "occ",
				"energy": -0.24893,
				"method": "rhf"
			},
			{
				"type": "unocc",
				"energy": -0.04385,
				"method": "rhf"
			},
			{
				"type": "unocc",
				"energy": -0.02704,
				"method": "rhf"
			},
			{
				"type": "unocc",
				"energy": -0.01013,
				"method": "rhf"
			},
			{
				"type": "unocc",
				"energy": 0.04958,
				"method": "rhf"
			},
			{
				"type": "unocc",
				"energy": 0.06802,
				"method": "rhf"
			}
		],
		"cosmo_sigma_profile": { 
			"-0.025": 0.0,
			"-0.024": 0.0,
			"-0.023": 0.0,
			"-0.022": 0.0,
			"-0.021": 0.0,
			"-0.02": 0.0,
			"-0.019": 0.0,
			"-0.018": 0.0,
			"-0.017": 0.000330041079237,
			"-0.016": 0.955951729084,
			"-0.015": 1.41362108591,
			"-0.014": 1.7010170845,
			"-0.013": 1.53596408911,
			"-0.012": 1.25530548199,
			"-0.011": 2.04954544471,
			"-0.01": 1.573008092,
			"-0.009": 4.35523569167,
			"-0.008": 10.7314864818,
			"-0.007": 10.8318644183,
			"-0.006": 12.4225160173,
			"-0.005": 11.6957321385,
			"-0.004": 11.8138740562,
			"-0.003": 10.1917686836,
			"-0.002": 8.62587393133,
			"-0.001": 11.5530860448,
			"0.0": 15.6643976374,
			"0.001": 18.4032252931,
			"0.002": 16.578598037,
			"0.003": 12.6101701832,
			"0.004": 18.3018004935,
			"0.005": 7.84660594525,
			"0.006": 5.14246538674,
			"0.007": 4.845949574,
			"0.008": 4.76544893469,
			"0.009": 3.63113692596,
			"0.01": 8.92638604275,
			"0.011": 10.985841018,
			"0.012": 2.09297314956,
			"0.013": 0.0,
			"0.014": 0.0,
			"0.015": 0.0,
			"0.016": 0.0,
			"0.017": 0.0,
			"0.018": 0.0,
			"0.019": 0.0,
			"0.02": 0.0,
			"0.021": 0.0,
			"0.022": 0.0,
			"0.023": 0.0,
			"0.024": 0.0,
			"0.025": 0.0
		}
	}
}
