{
	 "smiles": "COC1=CC=C(C=C1)C1=NN=C2SC(NN12)C1=CC=C(O)C(OC)=C1", 
	 "Tm": 446.15, 
	 "num_atms": 41, 
	 "gaussian": { 
		 "optdone": 1, 
		 "sigma_profile": "yes", 
		 "theory": "DFT", 
		 "functional": "B3LYP", 
		 "basiset": "6-31G**", 
		 "properties": { 
			 "R2extent": 13656.673, 
			 "electric_dipole_moment_norm": 7.63276153106, 
			 "electric_quadrupole_moment_norm": 43.077826071, 
			 "total_energy": -1500.22490985, 
			 "HOMO_LUMO_gap": 0.16731, 
			 "cosmo_polarized_energy": -25.23, 
			 "cosmo_cavitation_energy": 47.0, 
			 "cosmo_dispersion_energy": -34.19, 
			 "cosmo_repulsion_energy": 2.53, 
			 "cosmo_total_nonelectrostatic_energy": 15.34, 
			 "SMD_solvation_energy": 6.58 
		},
		"coords": [
			{
				"x": 0.4395528169,
				"y": -1.5596029608,
				"z": -6.0498455956,
				"element": "C" 
			},
			{
				"x": 1.7199740615,
				"y": -1.7388585268,
				"z": -5.4650555813,
				"element": "O" 
			},
			{
				"x": 1.9007932158,
				"y": -1.350020941,
				"z": -4.1716562341,
				"element": "C" 
			},
			{
				"x": 0.9080844608,
				"y": -0.7882896768,
				"z": -3.3609876389,
				"element": "C" 
			},
			{
				"x": 1.2070567829,
				"y": -0.4287193301,
				"z": -2.0449833789,
				"element": "C" 
			},
			{
				"x": 2.4902740712,
				"y": -0.6217410044,
				"z": -1.5181790835,
				"element": "C" 
			},
			{
				"x": 3.4813974069,
				"y": -1.1864270176,
				"z": -2.3469583884,
				"element": "C" 
			},
			{
				"x": 3.192168851,
				"y": -1.5445908448,
				"z": -3.6517481706,
				"element": "C" 
			},
			{
				"x": 2.8538051535,
				"y": -0.2519178108,
				"z": -0.1506718443,
				"element": "C" 
			},
			{
				"x": 4.0789203811,
				"y": -0.2826577624,
				"z": 0.3488941676,
				"element": "N" 
			},
			{
				"x": 4.0534820345,
				"y": 0.1496909776,
				"z": 1.6694414422,
				"element": "N" 
			},
			{
				"x": 2.8032196919,
				"y": 0.4110447327,
				"z": 1.9403681915,
				"element": "C" 
			},
			{
				"x": 1.8777231716,
				"y": 0.9941925581,
				"z": 3.3197090494,
				"element": "S" 
			},
			{
				"x": 0.4558222474,
				"y": 1.3410436972,
				"z": 2.0755218126,
				"element": "C" 
			},
			{
				"x": 0.615816348,
				"y": 0.3717340373,
				"z": 0.9825051372,
				"element": "N" 
			},
			{
				"x": 2.005386829,
				"y": 0.1848664622,
				"z": 0.8458430888,
				"element": "N" 
			},
			{
				"x": -0.9121352749,
				"y": 1.2921863442,
				"z": 2.6909696184,
				"element": "C" 
			},
			{
				"x": -1.8269629363,
				"y": 2.3118546428,
				"z": 2.421946593,
				"element": "C" 
			},
			{
				"x": -3.1231618224,
				"y": 2.2634143984,
				"z": 2.9401167174,
				"element": "C" 
			},
			{
				"x": -3.5144572048,
				"y": 1.1915809338,
				"z": 3.7347252031,
				"element": "C" 
			},
			{
				"x": -4.7691958549,
				"y": 1.1400913035,
				"z": 4.2461791161,
				"element": "O" 
			},
			{
				"x": -2.5920093587,
				"y": 0.157963622,
				"z": 4.016050265,
				"element": "C" 
			},
			{
				"x": -3.1028381026,
				"y": -0.8265600731,
				"z": 4.8210493244,
				"element": "O" 
			},
			{
				"x": -2.2477232161,
				"y": -1.8959594436,
				"z": 5.2061145782,
				"element": "C" 
			},
			{
				"x": -1.3037759752,
				"y": 0.2072284054,
				"z": 3.4999117579,
				"element": "C" 
			},
			{
				"x": -0.3318418923,
				"y": -2.1325408822,
				"z": -5.5192232797,
				"element": "H" 
			},
			{
				"x": 0.1487802383,
				"y": -0.5014670304,
				"z": -6.0711454336,
				"element": "H" 
			},
			{
				"x": 0.5209641058,
				"y": -1.9298803955,
				"z": -7.0728460724,
				"element": "H" 
			},
			{
				"x": -0.0939901073,
				"y": -0.6228136317,
				"z": -3.7382779794,
				"element": "H" 
			},
			{
				"x": 0.4318900308,
				"y": 0.0163420691,
				"z": -1.430373085,
				"element": "H" 
			},
			{
				"x": 4.4768226912,
				"y": -1.3319334095,
				"z": -1.9420012203,
				"element": "H" 
			},
			{
				"x": 3.948719917,
				"y": -1.9802984365,
				"z": -4.2960145872,
				"element": "H" 
			},
			{
				"x": 0.6702076384,
				"y": 2.3329215175,
				"z": 1.6732288026,
				"element": "H" 
			},
			{
				"x": 0.2091085527,
				"y": -0.5224474995,
				"z": 1.2699289496,
				"element": "H" 
			},
			{
				"x": -1.5313973306,
				"y": 3.1511519041,
				"z": 1.7995716034,
				"element": "H" 
			},
			{
				"x": -3.8412132741,
				"y": 3.0512375425,
				"z": 2.7397389669,
				"element": "H" 
			},
			{
				"x": -4.832185236,
				"y": 0.3290082116,
				"z": 4.7746907316,
				"element": "H" 
			},
			{
				"x": -2.8439243889,
				"y": -2.5451442019,
				"z": 5.8481516427,
				"element": "H" 
			},
			{
				"x": -1.3785927966,
				"y": -1.5280422068,
				"z": 5.7642181255,
				"element": "H" 
			},
			{
				"x": -1.9047985412,
				"y": -2.4642324433,
				"z": 4.3329101414,
				"element": "H" 
			},
			{
				"x": -0.5842673852,
				"y": -0.5673078302,
				"z": 3.7405825468,
				"element": "H" 
			}
		],
		 "valence_orbital": [ 
			{
				"type": "occ",
				"energy": -0.25438,
				"method": "rhf"
			},
			{
				"type": "occ",
				"energy": -0.24608,
				"method": "rhf"
			},
			{
				"type": "occ",
				"energy": -0.24081,
				"method": "rhf"
			},
			{
				"type": "occ",
				"energy": -0.22845,
				"method": "rhf"
			},
			{
				"type": "occ",
				"energy": -0.2019,
				"method": "rhf"
			},
			{
				"type": "unocc",
				"energy": -0.03459,
				"method": "rhf"
			},
			{
				"type": "unocc",
				"energy": -0.02058,
				"method": "rhf"
			},
			{
				"type": "unocc",
				"energy": -0.01267,
				"method": "rhf"
			},
			{
				"type": "unocc",
				"energy": -0.00335,
				"method": "rhf"
			},
			{
				"type": "unocc",
				"energy": 0.0024,
				"method": "rhf"
			}
		],
		"cosmo_sigma_profile": { 
			"-0.025": 0.0,
			"-0.024": 0.0,
			"-0.023": 0.0,
			"-0.022": 0.0,
			"-0.021": 0.0,
			"-0.02": 0.0,
			"-0.019": 0.0,
			"-0.018": 0.0,
			"-0.017": 0.0,
			"-0.016": 0.0,
			"-0.015": 0.343416689814,
			"-0.014": 1.73175288206,
			"-0.013": 1.39334208425,
			"-0.012": 1.79676009645,
			"-0.011": 2.97688408009,
			"-0.01": 2.32054485334,
			"-0.009": 2.25044126549,
			"-0.008": 5.11584986947,
			"-0.007": 10.0171655208,
			"-0.006": 25.5630926776,
			"-0.005": 30.2211434076,
			"-0.004": 31.2162337529,
			"-0.003": 26.1947958464,
			"-0.002": 19.6887648524,
			"-0.001": 20.0821460649,
			"0.0": 23.2143427611,
			"0.001": 24.9791656874,
			"0.002": 28.007961851,
			"0.003": 31.5450827626,
			"0.004": 29.9666223052,
			"0.005": 13.9964413824,
			"0.006": 7.76682235999,
			"0.007": 5.34715190973,
			"0.008": 3.96136324761,
			"0.009": 4.83721032769,
			"0.01": 4.77566608202,
			"0.011": 4.41190971805,
			"0.012": 2.92186849291,
			"0.013": 2.96277253474,
			"0.014": 4.00751879999,
			"0.015": 2.62363013523,
			"0.016": 1.55726748499,
			"0.017": 0.268606470903,
			"0.018": 0.0,
			"0.019": 0.0,
			"0.02": 0.0,
			"0.021": 0.0,
			"0.022": 0.0,
			"0.023": 0.0,
			"0.024": 0.0,
			"0.025": 0.0
		}
	}
}
