{
	 "smiles": "CC1=C(C)C(C#N)=C(N=N1)N1CCCC1", 
	 "Tm": 420.15, 
	 "num_atms": 29, 
	 "gaussian": { 
		 "optdone": 1, 
		 "sigma_profile": "yes", 
		 "theory": "DFT", 
		 "functional": "B3LYP", 
		 "basiset": "6-31G**", 
		 "properties": { 
			 "R2extent": 3689.3481, 
			 "electric_dipole_moment_norm": 0.916540822877, 
			 "electric_quadrupole_moment_norm": 20.4240307611, 
			 "total_energy": -646.576111015, 
			 "HOMO_LUMO_gap": 0.14868, 
			 "cosmo_polarized_energy": -12.6, 
			 "cosmo_cavitation_energy": 31.57, 
			 "cosmo_dispersion_energy": -22.79, 
			 "cosmo_repulsion_energy": 1.78, 
			 "cosmo_total_nonelectrostatic_energy": 10.55, 
			 "SMD_solvation_energy": 3.53 
		},
		"coords": [
			{
				"x": 1.8523710643,
				"y": 4.2809618685,
				"z": 1.1754294434,
				"element": "C" 
			},
			{
				"x": 1.1667562248,
				"y": 2.9929538098,
				"z": 0.8025499919,
				"element": "C" 
			},
			{
				"x": 1.8648209226,
				"y": 1.7735487329,
				"z": 0.6783720382,
				"element": "C" 
			},
			{
				"x": 3.3428338826,
				"y": 1.7107909277,
				"z": 0.9522217109,
				"element": "C" 
			},
			{
				"x": 1.1212695562,
				"y": 0.6422076222,
				"z": 0.3183016314,
				"element": "C" 
			},
			{
				"x": 1.7690130785,
				"y": -0.6330951002,
				"z": 0.2931340305,
				"element": "C" 
			},
			{
				"x": 2.3281654908,
				"y": -1.6549356284,
				"z": 0.3107142961,
				"element": "N" 
			},
			{
				"x": -0.2793877613,
				"y": 0.8116292147,
				"z": 0.0644827932,
				"element": "C" 
			},
			{
				"x": -0.8666235611,
				"y": 2.0168533347,
				"z": 0.2588376229,
				"element": "N" 
			},
			{
				"x": -0.1570347664,
				"y": 3.0684680154,
				"z": 0.6228384777,
				"element": "N" 
			},
			{
				"x": -1.123923603,
				"y": -0.1715102239,
				"z": -0.3482066268,
				"element": "N" 
			},
			{
				"x": -0.74197797,
				"y": -1.4586521589,
				"z": -0.9546853156,
				"element": "C" 
			},
			{
				"x": -2.0067471066,
				"y": -1.8877457986,
				"z": -1.7148870842,
				"element": "C" 
			},
			{
				"x": -3.1425689551,
				"y": -1.2624827926,
				"z": -0.8920030227,
				"element": "C" 
			},
			{
				"x": -2.5682658735,
				"y": 0.0993733309,
				"z": -0.4881055764,
				"element": "C" 
			},
			{
				"x": 2.3496367604,
				"y": 4.2129748893,
				"z": 2.1504600974,
				"element": "H" 
			},
			{
				"x": 1.1054172604,
				"y": 5.0749456064,
				"z": 1.2209555267,
				"element": "H" 
			},
			{
				"x": 2.6183980421,
				"y": 4.5625141611,
				"z": 0.4428905897,
				"element": "H" 
			},
			{
				"x": 3.7442275722,
				"y": 0.7050253175,
				"z": 0.822669617,
				"element": "H" 
			},
			{
				"x": 3.5595703181,
				"y": 2.0382483003,
				"z": 1.9752534692,
				"element": "H" 
			},
			{
				"x": 3.8851163778,
				"y": 2.3881041348,
				"z": 0.2828985088,
				"element": "H" 
			},
			{
				"x": -0.4720069777,
				"y": -2.192690213,
				"z": -0.1867151655,
				"element": "H" 
			},
			{
				"x": 0.121341084,
				"y": -1.3409822575,
				"z": -1.6157903358,
				"element": "H" 
			},
			{
				"x": -2.0793731331,
				"y": -2.9744110298,
				"z": -1.8074194679,
				"element": "H" 
			},
			{
				"x": -1.9975120696,
				"y": -1.463913238,
				"z": -2.7254109859,
				"element": "H" 
			},
			{
				"x": -4.0776576424,
				"y": -1.1663966958,
				"z": -1.4498282039,
				"element": "H" 
			},
			{
				"x": -3.3430746502,
				"y": -1.8685145012,
				"z": -0.0010540419,
				"element": "H" 
			},
			{
				"x": -2.7412320214,
				"y": 0.8623806757,
				"z": -1.2576484376,
				"element": "H" 
			},
			{
				"x": -2.9744515432,
				"y": 0.492049696,
				"z": 0.4469444192,
				"element": "H" 
			}
		],
		 "valence_orbital": [ 
			{
				"type": "occ",
				"energy": -0.31207,
				"method": "rhf"
			},
			{
				"type": "occ",
				"energy": -0.30975,
				"method": "rhf"
			},
			{
				"type": "occ",
				"energy": -0.28369,
				"method": "rhf"
			},
			{
				"type": "occ",
				"energy": -0.22753,
				"method": "rhf"
			},
			{
				"type": "occ",
				"energy": -0.21386,
				"method": "rhf"
			},
			{
				"type": "unocc",
				"energy": -0.06518,
				"method": "rhf"
			},
			{
				"type": "unocc",
				"energy": -0.01363,
				"method": "rhf"
			},
			{
				"type": "unocc",
				"energy": 0.02496,
				"method": "rhf"
			},
			{
				"type": "unocc",
				"energy": 0.06499,
				"method": "rhf"
			},
			{
				"type": "unocc",
				"energy": 0.07968,
				"method": "rhf"
			}
		],
		"cosmo_sigma_profile": { 
			"-0.025": 0.0,
			"-0.024": 0.0,
			"-0.023": 0.0,
			"-0.022": 0.0,
			"-0.021": 0.0,
			"-0.02": 0.0,
			"-0.019": 0.0,
			"-0.018": 0.0,
			"-0.017": 0.0,
			"-0.016": 0.0,
			"-0.015": 0.0,
			"-0.014": 0.0,
			"-0.013": 0.0,
			"-0.012": 0.0,
			"-0.011": 0.0,
			"-0.01": 0.0,
			"-0.009": 0.0,
			"-0.008": 0.0,
			"-0.007": 0.102499814575,
			"-0.006": 7.32394038279,
			"-0.005": 13.3537566688,
			"-0.004": 26.6034289016,
			"-0.003": 41.2724407374,
			"-0.002": 42.6093582762,
			"-0.001": 31.5779958167,
			"0.0": 19.7792516199,
			"0.001": 9.32252144556,
			"0.002": 5.41977784214,
			"0.003": 5.27983023219,
			"0.004": 4.63337396249,
			"0.005": 4.33675369328,
			"0.006": 3.96381191271,
			"0.007": 4.57043043791,
			"0.008": 3.82556007171,
			"0.009": 4.28388557284,
			"0.01": 4.73038066334,
			"0.011": 4.43500647771,
			"0.012": 3.99226135041,
			"0.013": 3.02491628003,
			"0.014": 2.44638724697,
			"0.015": 2.02462096663,
			"0.016": 0.547383594517,
			"0.017": 0.0186114597133,
			"0.018": 0.0,
			"0.019": 0.0,
			"0.02": 0.0,
			"0.021": 0.0,
			"0.022": 0.0,
			"0.023": 0.0,
			"0.024": 0.0,
			"0.025": 0.0
		}
	}
}
