{
	 "smiles": "CN(C)C(=O)NC1=CC(Cl)=C(C=C1)C(O)=O", 
	 "Tm": 465.15, 
	 "num_atms": 27, 
	 "gaussian": { 
		 "optdone": 1, 
		 "sigma_profile": "yes", 
		 "theory": "DFT", 
		 "functional": "B3LYP", 
		 "basiset": "6-31G**", 
		 "properties": { 
			 "R2extent": 6057.9008, 
			 "electric_dipole_moment_norm": 8.51315623374, 
			 "electric_quadrupole_moment_norm": 22.786795382, 
			 "total_energy": -1183.09052674, 
			 "HOMO_LUMO_gap": 0.18667, 
			 "cosmo_polarized_energy": -20.28, 
			 "cosmo_cavitation_energy": 32.66, 
			 "cosmo_dispersion_energy": -24.33, 
			 "cosmo_repulsion_energy": 1.87, 
			 "cosmo_total_nonelectrostatic_energy": 10.2, 
			 "SMD_solvation_energy": 6.95 
		},
		"coords": [
			{
				"x": -1.9166183551,
				"y": 3.178710461,
				"z": 2.0522763517,
				"element": "C" 
			},
			{
				"x": -2.5709724276,
				"y": 1.8813410734,
				"z": 1.9752686251,
				"element": "N" 
			},
			{
				"x": -3.9012146797,
				"y": 1.7596158214,
				"z": 2.5607737042,
				"element": "C" 
			},
			{
				"x": -1.9556750625,
				"y": 0.7337829044,
				"z": 1.518768593,
				"element": "C" 
			},
			{
				"x": -2.5199368275,
				"y": -0.3552172262,
				"z": 1.478064357,
				"element": "O" 
			},
			{
				"x": -0.6356906636,
				"y": 0.9150812134,
				"z": 1.0972529093,
				"element": "N" 
			},
			{
				"x": 0.2261686796,
				"y": -0.0416156067,
				"z": 0.5531907256,
				"element": "C" 
			},
			{
				"x": -0.1411164989,
				"y": -1.3726071089,
				"z": 0.3058882255,
				"element": "C" 
			},
			{
				"x": 0.7908004801,
				"y": -2.2471291959,
				"z": -0.2452539079,
				"element": "C" 
			},
			{
				"x": 0.1810204687,
				"y": -3.8970892741,
				"z": -0.5008543435,
				"element": "Cl" 
			},
			{
				"x": 2.1043741189,
				"y": -1.8708505713,
				"z": -0.5753822115,
				"element": "C" 
			},
			{
				"x": 2.4338939707,
				"y": -0.5273933766,
				"z": -0.3115972922,
				"element": "C" 
			},
			{
				"x": 1.5341284771,
				"y": 0.3676669354,
				"z": 0.2339097486,
				"element": "C" 
			},
			{
				"x": 3.2293981788,
				"y": -2.68410519,
				"z": -1.17304993,
				"element": "C" 
			},
			{
				"x": 3.0309616222,
				"y": -3.9814403969,
				"z": -1.467743988,
				"element": "O" 
			},
			{
				"x": 4.3108480351,
				"y": -2.1806131062,
				"z": -1.3908541629,
				"element": "O" 
			},
			{
				"x": -1.4726276301,
				"y": 3.4667148272,
				"z": 1.0917127321,
				"element": "H" 
			},
			{
				"x": -1.1437219916,
				"y": 3.2237739252,
				"z": 2.833801708,
				"element": "H" 
			},
			{
				"x": -2.6678017052,
				"y": 3.9335964681,
				"z": 2.2906318357,
				"element": "H" 
			},
			{
				"x": -4.5936167762,
				"y": 2.4609395355,
				"z": 2.0816096481,
				"element": "H" 
			},
			{
				"x": -3.8801779383,
				"y": 1.9682422968,
				"z": 3.638152977,
				"element": "H" 
			},
			{
				"x": -4.2527024434,
				"y": 0.7421149791,
				"z": 2.4020410875,
				"element": "H" 
			},
			{
				"x": -0.2188217124,
				"y": 1.8233271215,
				"z": 1.2254550912,
				"element": "H" 
			},
			{
				"x": -1.1388774128,
				"y": -1.7056203711,
				"z": 0.5485472134,
				"element": "H" 
			},
			{
				"x": 3.442659073,
				"y": -0.2178976883,
				"z": -0.5593885236,
				"element": "H" 
			},
			{
				"x": 1.8412312204,
				"y": 1.394623216,
				"z": 0.4161996886,
				"element": "H" 
			},
			{
				"x": 2.1276878004,
				"y": -4.2638516662,
				"z": -1.2474208621,
				"element": "H" 
			}
		],
		 "valence_orbital": [ 
			{
				"type": "occ",
				"energy": -0.27738,
				"method": "rhf"
			},
			{
				"type": "occ",
				"energy": -0.26647,
				"method": "rhf"
			},
			{
				"type": "occ",
				"energy": -0.26525,
				"method": "rhf"
			},
			{
				"type": "occ",
				"energy": -0.25742,
				"method": "rhf"
			},
			{
				"type": "occ",
				"energy": -0.23647,
				"method": "rhf"
			},
			{
				"type": "unocc",
				"energy": -0.0498,
				"method": "rhf"
			},
			{
				"type": "unocc",
				"energy": -0.02251,
				"method": "rhf"
			},
			{
				"type": "unocc",
				"energy": 0.00809,
				"method": "rhf"
			},
			{
				"type": "unocc",
				"energy": 0.03355,
				"method": "rhf"
			},
			{
				"type": "unocc",
				"energy": 0.04879,
				"method": "rhf"
			}
		],
		"cosmo_sigma_profile": { 
			"-0.025": 0.0,
			"-0.024": 0.0,
			"-0.023": 0.0,
			"-0.022": 0.0,
			"-0.021": 0.0,
			"-0.02": 0.0,
			"-0.019": 0.0,
			"-0.018": 0.0,
			"-0.017": 0.0,
			"-0.016": 0.0,
			"-0.015": 0.889802808281,
			"-0.014": 1.45143125084,
			"-0.013": 1.38279304304,
			"-0.012": 1.096203688,
			"-0.011": 2.47866795788,
			"-0.01": 2.4306337591,
			"-0.009": 2.77247078761,
			"-0.008": 4.57363293874,
			"-0.007": 6.87865323003,
			"-0.006": 10.9604841938,
			"-0.005": 15.7805572382,
			"-0.004": 19.2839354556,
			"-0.003": 22.3511146693,
			"-0.002": 20.6451461867,
			"-0.001": 17.3535624822,
			"0.0": 21.572289308,
			"0.001": 24.0505179271,
			"0.002": 23.1578590243,
			"0.003": 13.4729642286,
			"0.004": 4.64158087538,
			"0.005": 4.19061880833,
			"0.006": 3.42626505625,
			"0.007": 4.04377917226,
			"0.008": 4.49853771083,
			"0.009": 5.23799454946,
			"0.01": 4.23418349315,
			"0.011": 6.49545304729,
			"0.012": 7.56569918739,
			"0.013": 4.93321414495,
			"0.014": 1.15492118131,
			"0.015": 0.0,
			"0.016": 0.0,
			"0.017": 0.0,
			"0.018": 0.0,
			"0.019": 0.0,
			"0.02": 0.0,
			"0.021": 0.0,
			"0.022": 0.0,
			"0.023": 0.0,
			"0.024": 0.0,
			"0.025": 0.0
		}
	}
}
