{
	 "smiles": "CCC1=CC=C(C=C1)C1=CC=C(O1)C=O", 
	 "Tm": 319.15, 
	 "num_atms": 27, 
	 "gaussian": { 
		 "optdone": 1, 
		 "sigma_profile": "yes", 
		 "theory": "DFT", 
		 "functional": "B3LYP", 
		 "basiset": "6-31G**", 
		 "properties": { 
			 "R2extent": 5362.7603, 
			 "electric_dipole_moment_norm": 4.88299814151, 
			 "electric_quadrupole_moment_norm": 20.4822366374, 
			 "total_energy": -653.05066289, 
			 "HOMO_LUMO_gap": 0.14837, 
			 "cosmo_polarized_energy": -9.3, 
			 "cosmo_cavitation_energy": 31.93, 
			 "cosmo_dispersion_energy": -22.76, 
			 "cosmo_repulsion_energy": 1.78, 
			 "cosmo_total_nonelectrostatic_energy": 10.95, 
			 "SMD_solvation_energy": 6.86 
		},
		"coords": [
			{
				"x": -1.4770932186,
				"y": -2.0546291649,
				"z": 3.7775045328,
				"element": "C" 
			},
			{
				"x": -0.3545703088,
				"y": -2.4358270008,
				"z": 2.7943797694,
				"element": "C" 
			},
			{
				"x": 0.051348034,
				"y": -1.2892727534,
				"z": 1.894821889,
				"element": "C" 
			},
			{
				"x": -0.5870442754,
				"y": -1.0719517249,
				"z": 0.6656946763,
				"element": "C" 
			},
			{
				"x": -0.2449616742,
				"y": 0.0027936509,
				"z": -0.1487937862,
				"element": "C" 
			},
			{
				"x": 0.7592026613,
				"y": 0.9046490249,
				"z": 0.2449572621,
				"element": "C" 
			},
			{
				"x": 1.4047805439,
				"y": 0.6907080862,
				"z": 1.4758344694,
				"element": "C" 
			},
			{
				"x": 1.0537875632,
				"y": -0.3870436356,
				"z": 2.2809290434,
				"element": "C" 
			},
			{
				"x": 1.1291029793,
				"y": 2.0316440407,
				"z": -0.6002862589,
				"element": "C" 
			},
			{
				"x": 2.0571516158,
				"y": 3.0480401307,
				"z": -0.4670683308,
				"element": "C" 
			},
			{
				"x": 1.9519097708,
				"y": 3.8534673349,
				"z": -1.6250323792,
				"element": "C" 
			},
			{
				"x": 0.9690060498,
				"y": 3.2923825927,
				"z": -2.406324031,
				"element": "C" 
			},
			{
				"x": 0.466201861,
				"y": 2.1781412593,
				"z": -1.7790153027,
				"element": "O" 
			},
			{
				"x": 0.4067036313,
				"y": 3.6500071626,
				"z": -3.6960083316,
				"element": "C" 
			},
			{
				"x": 0.7703511383,
				"y": 4.616000411,
				"z": -4.3482879027,
				"element": "O" 
			},
			{
				"x": -1.7458444126,
				"y": -2.9055954766,
				"z": 4.4118820866,
				"element": "H" 
			},
			{
				"x": -1.1663013097,
				"y": -1.2305268735,
				"z": 4.427718952,
				"element": "H" 
			},
			{
				"x": -2.3756582997,
				"y": -1.7329063405,
				"z": 3.2413133854,
				"element": "H" 
			},
			{
				"x": -0.6849818732,
				"y": -3.2821277092,
				"z": 2.1805522608,
				"element": "H" 
			},
			{
				"x": 0.5180395499,
				"y": -2.7828386356,
				"z": 3.3604874524,
				"element": "H" 
			},
			{
				"x": -1.3633208894,
				"y": -1.7597874201,
				"z": 0.339209682,
				"element": "H" 
			},
			{
				"x": -0.7498451628,
				"y": 0.148975732,
				"z": -1.0973899489,
				"element": "H" 
			},
			{
				"x": 2.1881009639,
				"y": 1.3679482184,
				"z": 1.8024281614,
				"element": "H" 
			},
			{
				"x": 1.5698207374,
				"y": -0.5352737413,
				"z": 3.2264126903,
				"element": "H" 
			},
			{
				"x": 2.7303062844,
				"y": 3.1931706821,
				"z": 0.364879891,
				"element": "H" 
			},
			{
				"x": 2.5168849917,
				"y": 4.7393851489,
				"z": -1.8754534682,
				"element": "H" 
			},
			{
				"x": -0.3933769516,
				"y": 2.9654670012,
				"z": -4.0492464641,
				"element": "H" 
			}
		],
		 "valence_orbital": [ 
			{
				"type": "occ",
				"energy": -0.2972,
				"method": "rhf"
			},
			{
				"type": "occ",
				"energy": -0.27944,
				"method": "rhf"
			},
			{
				"type": "occ",
				"energy": -0.26146,
				"method": "rhf"
			},
			{
				"type": "occ",
				"energy": -0.25211,
				"method": "rhf"
			},
			{
				"type": "occ",
				"energy": -0.21639,
				"method": "rhf"
			},
			{
				"type": "unocc",
				"energy": -0.06802,
				"method": "rhf"
			},
			{
				"type": "unocc",
				"energy": -0.01906,
				"method": "rhf"
			},
			{
				"type": "unocc",
				"energy": -0.01039,
				"method": "rhf"
			},
			{
				"type": "unocc",
				"energy": 0.0581,
				"method": "rhf"
			},
			{
				"type": "unocc",
				"energy": 0.08443,
				"method": "rhf"
			}
		],
		"cosmo_sigma_profile": { 
			"-0.025": 0.0,
			"-0.024": 0.0,
			"-0.023": 0.0,
			"-0.022": 0.0,
			"-0.021": 0.0,
			"-0.02": 0.0,
			"-0.019": 0.0,
			"-0.018": 0.0,
			"-0.017": 0.0,
			"-0.016": 0.0,
			"-0.015": 0.0,
			"-0.014": 0.0,
			"-0.013": 0.0,
			"-0.012": 0.0,
			"-0.011": 0.0,
			"-0.01": 0.0,
			"-0.009": 0.97452231033,
			"-0.008": 4.37164128859,
			"-0.007": 5.0131325155,
			"-0.006": 9.86741214128,
			"-0.005": 13.0083349812,
			"-0.004": 18.3841893023,
			"-0.003": 22.4149459724,
			"-0.002": 21.3294742068,
			"-0.001": 24.3535236938,
			"0.0": 27.3927856008,
			"0.001": 29.7961126157,
			"0.002": 20.9628615343,
			"0.003": 16.6707450523,
			"0.004": 12.29508782,
			"0.005": 9.29767739457,
			"0.006": 1.25671034963,
			"0.007": 1.46460006713,
			"0.008": 1.88442398239,
			"0.009": 1.15605734577,
			"0.01": 2.74204241016,
			"0.011": 3.45710865798,
			"0.012": 4.82828009652,
			"0.013": 1.84038392218,
			"0.014": 0.159481113329,
			"0.015": 0.0,
			"0.016": 0.0,
			"0.017": 0.0,
			"0.018": 0.0,
			"0.019": 0.0,
			"0.02": 0.0,
			"0.021": 0.0,
			"0.022": 0.0,
			"0.023": 0.0,
			"0.024": 0.0,
			"0.025": 0.0
		}
	}
}
