{
	 "smiles": "OC(=O)C1=CNN=C1C1=CC=NC=C1", 
	 "Tm": 608.15, 
	 "num_atms": 21, 
	 "gaussian": { 
		 "optdone": 1, 
		 "sigma_profile": "yes", 
		 "theory": "DFT", 
		 "functional": "B3LYP", 
		 "basiset": "6-31G**", 
		 "properties": { 
			 "R2extent": 2956.1466, 
			 "electric_dipole_moment_norm": 7.44680394532, 
			 "electric_quadrupole_moment_norm": 14.576715592, 
			 "total_energy": -661.858094437, 
			 "HOMO_LUMO_gap": 0.19843, 
			 "cosmo_polarized_energy": -23.4, 
			 "cosmo_cavitation_energy": 26.07, 
			 "cosmo_dispersion_energy": -19.54, 
			 "cosmo_repulsion_energy": 1.52, 
			 "cosmo_total_nonelectrostatic_energy": 8.05, 
			 "SMD_solvation_energy": 3.56 
		},
		"coords": [
			{
				"x": -1.8086401316,
				"y": 3.5385926689,
				"z": 0.6539580885,
				"element": "O" 
			},
			{
				"x": -1.6013244636,
				"y": 2.3123675379,
				"z": 0.0917304916,
				"element": "C" 
			},
			{
				"x": -2.1329735866,
				"y": 2.0472593714,
				"z": -0.9608553424,
				"element": "O" 
			},
			{
				"x": -0.7546879977,
				"y": 1.3984524115,
				"z": 0.8969129102,
				"element": "C" 
			},
			{
				"x": -0.7359518686,
				"y": 1.397778105,
				"z": 2.2867977116,
				"element": "C" 
			},
			{
				"x": 0.1227821479,
				"y": 0.4267400829,
				"z": 2.6574996981,
				"element": "N" 
			},
			{
				"x": 0.6820224294,
				"y": -0.2136972206,
				"z": 1.6151170412,
				"element": "N" 
			},
			{
				"x": 0.1579618024,
				"y": 0.3509977019,
				"z": 0.5220022175,
				"element": "C" 
			},
			{
				"x": 0.6293082505,
				"y": -0.1233913189,
				"z": -0.796736244,
				"element": "C" 
			},
			{
				"x": 1.8812401352,
				"y": -0.7541621459,
				"z": -0.8899181147,
				"element": "C" 
			},
			{
				"x": 2.3138922329,
				"y": -1.2205247842,
				"z": -2.1273019602,
				"element": "C" 
			},
			{
				"x": 1.606806977,
				"y": -1.1052306931,
				"z": -3.2605466842,
				"element": "N" 
			},
			{
				"x": 0.4146720475,
				"y": -0.5057787059,
				"z": -3.1618128406,
				"element": "C" 
			},
			{
				"x": -0.1208490801,
				"y": -0.0043666648,
				"z": -1.9739637721,
				"element": "C" 
			},
			{
				"x": -1.1697808727,
				"y": 3.6836382304,
				"z": 1.3655602575,
				"element": "H" 
			},
			{
				"x": -1.2966400832,
				"y": 1.9761450692,
				"z": 3.0076280425,
				"element": "H" 
			},
			{
				"x": 0.347725111,
				"y": 0.1234874171,
				"z": 3.5932093273,
				"element": "H" 
			},
			{
				"x": 2.4991588678,
				"y": -0.8731082729,
				"z": -0.0073734164,
				"element": "H" 
			},
			{
				"x": 3.2826661507,
				"y": -1.7098804742,
				"z": -2.2143941279,
				"element": "H" 
			},
			{
				"x": -0.1555295724,
				"y": -0.4196758209,
				"z": -4.0852540364,
				"element": "H" 
			},
			{
				"x": -1.0960584962,
				"y": 0.4650575054,
				"z": -1.9646592473,
				"element": "H" 
			}
		],
		 "valence_orbital": [ 
			{
				"type": "occ",
				"energy": -0.29177,
				"method": "rhf"
			},
			{
				"type": "occ",
				"energy": -0.27904,
				"method": "rhf"
			},
			{
				"type": "occ",
				"energy": -0.25444,
				"method": "rhf"
			},
			{
				"type": "occ",
				"energy": -0.25402,
				"method": "rhf"
			},
			{
				"type": "occ",
				"energy": -0.24628,
				"method": "rhf"
			},
			{
				"type": "unocc",
				"energy": -0.04785,
				"method": "rhf"
			},
			{
				"type": "unocc",
				"energy": -0.03556,
				"method": "rhf"
			},
			{
				"type": "unocc",
				"energy": -0.00228,
				"method": "rhf"
			},
			{
				"type": "unocc",
				"energy": 0.01868,
				"method": "rhf"
			},
			{
				"type": "unocc",
				"energy": 0.05148,
				"method": "rhf"
			}
		],
		"cosmo_sigma_profile": { 
			"-0.025": 0.0,
			"-0.024": 0.0,
			"-0.023": 0.0,
			"-0.022": 0.0,
			"-0.021": 0.0,
			"-0.02": 0.0,
			"-0.019": 0.140196819287,
			"-0.018": 2.39718853023,
			"-0.017": 2.82750312501,
			"-0.016": 2.28809176097,
			"-0.015": 2.19968626188,
			"-0.014": 2.65119757284,
			"-0.013": 2.05070174322,
			"-0.012": 3.15023234706,
			"-0.011": 4.12529895295,
			"-0.01": 3.01431991619,
			"-0.009": 3.16947921953,
			"-0.008": 2.74632509732,
			"-0.007": 2.67892698197,
			"-0.006": 7.10125840481,
			"-0.005": 8.94964402338,
			"-0.004": 8.56657054356,
			"-0.003": 9.49510730557,
			"-0.002": 7.9878643696,
			"-0.001": 10.829039231,
			"0.0": 14.8985796704,
			"0.001": 16.0877589123,
			"0.002": 21.180015959,
			"0.003": 15.1309137005,
			"0.004": 6.30209961992,
			"0.005": 6.96977626206,
			"0.006": 4.20992593898,
			"0.007": 5.29635530875,
			"0.008": 6.48360443411,
			"0.009": 5.11743393792,
			"0.01": 6.86512939504,
			"0.011": 5.95001044147,
			"0.012": 4.09010929755,
			"0.013": 2.16339449922,
			"0.014": 1.26307159456,
			"0.015": 0.505436680558,
			"0.016": 0.978847922856,
			"0.017": 0.430659614422,
			"0.018": 0.0,
			"0.019": 0.0,
			"0.02": 0.0,
			"0.021": 0.0,
			"0.022": 0.0,
			"0.023": 0.0,
			"0.024": 0.0,
			"0.025": 0.0
		}
	}
}
