{
	 "smiles": "CC(=O)OC1(CCC2(C)C(CCC3C4CCC(O)C4(C)CCC23)C1)C(C)=O", 
	 "Tm": 466.15, 
	 "num_atms": 63, 
	 "gaussian": { 
		 "optdone": 1, 
		 "sigma_profile": "yes", 
		 "theory": "DFT", 
		 "functional": "B3LYP", 
		 "basiset": "6-31G**", 
		 "properties": { 
			 "R2extent": 12722.4423, 
			 "electric_dipole_moment_norm": 2.82262628593, 
			 "electric_quadrupole_moment_norm": 34.635363015, 
			 "total_energy": -1199.07735592, 
			 "HOMO_LUMO_gap": 0.22576, 
			 "cosmo_polarized_energy": -15.8, 
			 "cosmo_cavitation_energy": 53.6, 
			 "cosmo_dispersion_energy": -36.31, 
			 "cosmo_repulsion_energy": 2.66, 
			 "cosmo_total_nonelectrostatic_energy": 19.95, 
			 "SMD_solvation_energy": 8.93 
		},
		"coords": [
			{
				"x": 2.865134724,
				"y": -0.5576111458,
				"z": -4.8305878864,
				"element": "C" 
			},
			{
				"x": 3.0972494141,
				"y": -1.5387163244,
				"z": -3.705648449,
				"element": "C" 
			},
			{
				"x": 3.4180473753,
				"y": -2.6999046421,
				"z": -3.848576206,
				"element": "O" 
			},
			{
				"x": 2.9049124003,
				"y": -0.9460698485,
				"z": -2.5041786088,
				"element": "O" 
			},
			{
				"x": 2.9545914083,
				"y": -1.7629987669,
				"z": -1.2881067569,
				"element": "C" 
			},
			{
				"x": 1.78350365,
				"y": -2.7555459845,
				"z": -1.2429625651,
				"element": "C" 
			},
			{
				"x": 0.4210147449,
				"y": -2.095873554,
				"z": -0.9800085573,
				"element": "C" 
			},
			{
				"x": 0.3835189365,
				"y": -1.1923221902,
				"z": 0.2839298962,
				"element": "C" 
			},
			{
				"x": 0.6459717641,
				"y": -2.0784217309,
				"z": 1.5239059889,
				"element": "C" 
			},
			{
				"x": 1.5032931393,
				"y": -0.1125935568,
				"z": 0.1527956889,
				"element": "C" 
			},
			{
				"x": 1.1715841807,
				"y": 0.9871706398,
				"z": -0.8772579365,
				"element": "C" 
			},
			{
				"x": -0.1943469687,
				"y": 1.6259921389,
				"z": -0.6226198999,
				"element": "C" 
			},
			{
				"x": -1.3072035838,
				"y": 0.5627325222,
				"z": -0.649160637,
				"element": "C" 
			},
			{
				"x": -2.7349458076,
				"y": 1.1566292992,
				"z": -0.5500617761,
				"element": "C" 
			},
			{
				"x": -3.8283064198,
				"y": 0.1969207533,
				"z": -1.110959824,
				"element": "C" 
			},
			{
				"x": -5.1082124506,
				"y": 0.429540876,
				"z": -0.2650519265,
				"element": "C" 
			},
			{
				"x": -4.7832508452,
				"y": 1.6053774659,
				"z": 0.6791611853,
				"element": "C" 
			},
			{
				"x": -5.2365517689,
				"y": 2.8512091688,
				"z": 0.1443548279,
				"element": "O" 
			},
			{
				"x": -3.2380839934,
				"y": 1.5557356481,
				"z": 0.873436464,
				"element": "C" 
			},
			{
				"x": -2.7198812273,
				"y": 2.9094565236,
				"z": 1.385948573,
				"element": "C" 
			},
			{
				"x": -2.8799356369,
				"y": 0.4366158463,
				"z": 1.8798633593,
				"element": "C" 
			},
			{
				"x": -1.4096391393,
				"y": -0.0089302201,
				"z": 1.8170191339,
				"element": "C" 
			},
			{
				"x": -1.0448072257,
				"y": -0.540847964,
				"z": 0.4122037837,
				"element": "C" 
			},
			{
				"x": 2.8866881787,
				"y": -0.7561585353,
				"z": -0.1121884968,
				"element": "C" 
			},
			{
				"x": 4.3210524495,
				"y": -2.4859111167,
				"z": -1.1611401221,
				"element": "C" 
			},
			{
				"x": 5.5571326241,
				"y": -1.8280119675,
				"z": -1.7477192373,
				"element": "C" 
			},
			{
				"x": 4.3983683566,
				"y": -3.5091044595,
				"z": -0.5098695137,
				"element": "O" 
			},
			{
				"x": 1.8049137978,
				"y": -0.2882442403,
				"z": -4.8723101843,
				"element": "H" 
			},
			{
				"x": 3.162205403,
				"y": -1.0129017649,
				"z": -5.7748704606,
				"element": "H" 
			},
			{
				"x": 3.4290353349,
				"y": 0.3628551003,
				"z": -4.6577382609,
				"element": "H" 
			},
			{
				"x": 1.7617373045,
				"y": -3.3197592506,
				"z": -2.1782680237,
				"element": "H" 
			},
			{
				"x": 2.0260835852,
				"y": -3.4825372115,
				"z": -0.4652441105,
				"element": "H" 
			},
			{
				"x": -0.3321648936,
				"y": -2.8873785729,
				"z": -0.876075184,
				"element": "H" 
			},
			{
				"x": 0.1287580057,
				"y": -1.5166139307,
				"z": -1.8623661893,
				"element": "H" 
			},
			{
				"x": 1.5397931553,
				"y": -2.6956677499,
				"z": 1.4144255368,
				"element": "H" 
			},
			{
				"x": 0.7807191849,
				"y": -1.4799350187,
				"z": 2.4293766368,
				"element": "H" 
			},
			{
				"x": -0.1953554673,
				"y": -2.7601670536,
				"z": 1.695156981,
				"element": "H" 
			},
			{
				"x": 1.5890210275,
				"y": 0.388322361,
				"z": 1.1288795337,
				"element": "H" 
			},
			{
				"x": 1.1968648117,
				"y": 0.577099825,
				"z": -1.8907677436,
				"element": "H" 
			},
			{
				"x": 1.9603861937,
				"y": 1.74984127,
				"z": -0.8420468962,
				"element": "H" 
			},
			{
				"x": -0.1781489954,
				"y": 2.1527882844,
				"z": 0.3378244401,
				"element": "H" 
			},
			{
				"x": -0.398895845,
				"y": 2.3892482162,
				"z": -1.3845070901,
				"element": "H" 
			},
			{
				"x": -1.2513257786,
				"y": 0.0940267746,
				"z": -1.6424449663,
				"element": "H" 
			},
			{
				"x": -2.7390831934,
				"y": 2.0678874686,
				"z": -1.167804224,
				"element": "H" 
			},
			{
				"x": -3.5031404969,
				"y": -0.8456460348,
				"z": -1.0376575191,
				"element": "H" 
			},
			{
				"x": -3.9958806276,
				"y": 0.3858000647,
				"z": -2.1766045177,
				"element": "H" 
			},
			{
				"x": -5.3639325448,
				"y": -0.467040905,
				"z": 0.3084045493,
				"element": "H" 
			},
			{
				"x": -5.9880906724,
				"y": 0.6761513758,
				"z": -0.8664726527,
				"element": "H" 
			},
			{
				"x": -5.3008529707,
				"y": 1.5227060438,
				"z": 1.6413952876,
				"element": "H" 
			},
			{
				"x": -4.8636700707,
				"y": 2.9490818697,
				"z": -0.7419546539,
				"element": "H" 
			},
			{
				"x": -2.8669110312,
				"y": 3.702204366,
				"z": 0.6486371822,
				"element": "H" 
			},
			{
				"x": -1.6581395798,
				"y": 2.8766688814,
				"z": 1.6421152768,
				"element": "H" 
			},
			{
				"x": -3.2672084796,
				"y": 3.2034515533,
				"z": 2.2886306986,
				"element": "H" 
			},
			{
				"x": -3.1245772798,
				"y": 0.7750849176,
				"z": 2.8949296206,
				"element": "H" 
			},
			{
				"x": -3.5064762582,
				"y": -0.4464096154,
				"z": 1.6969919649,
				"element": "H" 
			},
			{
				"x": -1.2631267633,
				"y": -0.7890907502,
				"z": 2.5683141586,
				"element": "H" 
			},
			{
				"x": -0.7495858984,
				"y": 0.8179491165,
				"z": 2.106356501,
				"element": "H" 
			},
			{
				"x": -1.7497652385,
				"y": -1.3638409128,
				"z": 0.2170123437,
				"element": "H" 
			},
			{
				"x": 3.6287526493,
				"y": 0.0327410876,
				"z": -0.2818512461,
				"element": "H" 
			},
			{
				"x": 3.2074787123,
				"y": -1.3002470087,
				"z": 0.7818692701,
				"element": "H" 
			},
			{
				"x": 5.4698670187,
				"y": -0.7401819851,
				"z": -1.8045535889,
				"element": "H" 
			},
			{
				"x": 5.7050816677,
				"y": -2.209007406,
				"z": -2.762940817,
				"element": "H" 
			},
			{
				"x": 6.4222359539,
				"y": -2.1106980403,
				"z": -1.1453621545,
				"element": "H" 
			}
		],
		 "valence_orbital": [ 
			{
				"type": "occ",
				"energy": -0.28297,
				"method": "rhf"
			},
			{
				"type": "occ",
				"energy": -0.27912,
				"method": "rhf"
			},
			{
				"type": "occ",
				"energy": -0.27573,
				"method": "rhf"
			},
			{
				"type": "occ",
				"energy": -0.25251,
				"method": "rhf"
			},
			{
				"type": "occ",
				"energy": -0.24168,
				"method": "rhf"
			},
			{
				"type": "unocc",
				"energy": -0.01592,
				"method": "rhf"
			},
			{
				"type": "unocc",
				"energy": -0.0008,
				"method": "rhf"
			},
			{
				"type": "unocc",
				"energy": 0.05727,
				"method": "rhf"
			},
			{
				"type": "unocc",
				"energy": 0.07007,
				"method": "rhf"
			},
			{
				"type": "unocc",
				"energy": 0.075,
				"method": "rhf"
			}
		],
		"cosmo_sigma_profile": { 
			"-0.025": 0.0,
			"-0.024": 0.0,
			"-0.023": 0.0,
			"-0.022": 0.0,
			"-0.021": 0.0,
			"-0.02": 0.0,
			"-0.019": 0.0,
			"-0.018": 0.0,
			"-0.017": 0.0,
			"-0.016": 0.0,
			"-0.015": 0.0,
			"-0.014": 0.222463530191,
			"-0.013": 0.766868694141,
			"-0.012": 0.650808295326,
			"-0.011": 1.02006977912,
			"-0.01": 1.13565202124,
			"-0.009": 1.01564235592,
			"-0.008": 0.841516059655,
			"-0.007": 2.33058859445,
			"-0.006": 6.81469636998,
			"-0.005": 13.0988908224,
			"-0.004": 19.5068313573,
			"-0.003": 36.2193289352,
			"-0.002": 76.6439326318,
			"-0.001": 73.2922833363,
			"0.0": 54.8999672616,
			"0.001": 36.6437932531,
			"0.002": 22.6895478634,
			"0.003": 7.33219421322,
			"0.004": 5.96269185969,
			"0.005": 5.13694239228,
			"0.006": 6.6489249242,
			"0.007": 4.16251394976,
			"0.008": 4.23970421865,
			"0.009": 4.21284593134,
			"0.01": 5.64514725435,
			"0.011": 6.63641463878,
			"0.012": 7.05882177925,
			"0.013": 2.5555043397,
			"0.014": 1.88199344864,
			"0.015": 1.87270359445,
			"0.016": 0.0267103246084,
			"0.017": 0.0,
			"0.018": 0.0,
			"0.019": 0.0,
			"0.02": 0.0,
			"0.021": 0.0,
			"0.022": 0.0,
			"0.023": 0.0,
			"0.024": 0.0,
			"0.025": 0.0
		}
	}
}
