{
	 "smiles": "CC(=O)N1CCSC1C(O)=O", 
	 "Tm": 388.15, 
	 "num_atms": 20, 
	 "gaussian": { 
		 "optdone": 1, 
		 "sigma_profile": "yes", 
		 "theory": "DFT", 
		 "functional": "B3LYP", 
		 "basiset": "6-31G**", 
		 "properties": { 
			 "R2extent": 2160.1372, 
			 "electric_dipole_moment_norm": 5.52929051597, 
			 "electric_quadrupole_moment_norm": 8.38207350123, 
			 "total_energy": -912.690404081, 
			 "HOMO_LUMO_gap": 0.22217, 
			 "cosmo_polarized_energy": -17.62, 
			 "cosmo_cavitation_energy": 24.94, 
			 "cosmo_dispersion_energy": -18.41, 
			 "cosmo_repulsion_energy": 1.46, 
			 "cosmo_total_nonelectrostatic_energy": 7.98, 
			 "SMD_solvation_energy": 5.18 
		},
		"coords": [
			{
				"x": -2.2018903336,
				"y": -0.7629216202,
				"z": 1.2690795935,
				"element": "C" 
			},
			{
				"x": -1.2752182401,
				"y": -0.0021331315,
				"z": 0.3368220584,
				"element": "C" 
			},
			{
				"x": -1.5180858806,
				"y": 0.1399289978,
				"z": -0.8550766671,
				"element": "O" 
			},
			{
				"x": -0.1358908374,
				"y": 0.5473329356,
				"z": 0.8898005813,
				"element": "N" 
			},
			{
				"x": 0.4025520477,
				"y": 0.3043375692,
				"z": 2.2253650892,
				"element": "C" 
			},
			{
				"x": 1.1280647096,
				"y": 1.5913701978,
				"z": 2.6201457751,
				"element": "C" 
			},
			{
				"x": 1.9555143779,
				"y": 2.1747736174,
				"z": 1.0822231124,
				"element": "S" 
			},
			{
				"x": 0.7805071333,
				"y": 1.2243369893,
				"z": -0.0080700703,
				"element": "C" 
			},
			{
				"x": 1.6060675268,
				"y": 0.3090653184,
				"z": -0.9103553585,
				"element": "C" 
			},
			{
				"x": 1.7059383542,
				"y": -0.949917528,
				"z": -0.4281415685,
				"element": "O" 
			},
			{
				"x": 2.1425170065,
				"y": 0.682665981,
				"z": -1.9261506446,
				"element": "O" 
			},
			{
				"x": -3.0688743005,
				"y": -1.0755829613,
				"z": 0.687923882,
				"element": "H" 
			},
			{
				"x": -1.710009021,
				"y": -1.6499003236,
				"z": 1.6821373245,
				"element": "H" 
			},
			{
				"x": -2.5355671005,
				"y": -0.1421786327,
				"z": 2.1071614349,
				"element": "H" 
			},
			{
				"x": -0.4057147395,
				"y": 0.0780454622,
				"z": 2.9234961685,
				"element": "H" 
			},
			{
				"x": 1.1029734448,
				"y": -0.5408063878,
				"z": 2.2133513554,
				"element": "H" 
			},
			{
				"x": 0.4253713232,
				"y": 2.3516589055,
				"z": 2.9699771699,
				"element": "H" 
			},
			{
				"x": 1.885827832,
				"y": 1.4173522247,
				"z": 3.3868526548,
				"element": "H" 
			},
			{
				"x": 0.2345474624,
				"y": 1.9027269661,
				"z": -0.6636612975,
				"element": "H" 
			},
			{
				"x": 2.2629692347,
				"y": -1.4346545799,
				"z": -1.0601805934,
				"element": "H" 
			}
		],
		 "valence_orbital": [ 
			{
				"type": "occ",
				"energy": -0.32244,
				"method": "rhf"
			},
			{
				"type": "occ",
				"energy": -0.29349,
				"method": "rhf"
			},
			{
				"type": "occ",
				"energy": -0.25868,
				"method": "rhf"
			},
			{
				"type": "occ",
				"energy": -0.25329,
				"method": "rhf"
			},
			{
				"type": "occ",
				"energy": -0.23832,
				"method": "rhf"
			},
			{
				"type": "unocc",
				"energy": -0.01615,
				"method": "rhf"
			},
			{
				"type": "unocc",
				"energy": 0.01376,
				"method": "rhf"
			},
			{
				"type": "unocc",
				"energy": 0.01829,
				"method": "rhf"
			},
			{
				"type": "unocc",
				"energy": 0.05879,
				"method": "rhf"
			},
			{
				"type": "unocc",
				"energy": 0.07901,
				"method": "rhf"
			}
		],
		"cosmo_sigma_profile": { 
			"-0.025": 0.0,
			"-0.024": 0.0,
			"-0.023": 0.0,
			"-0.022": 0.0,
			"-0.021": 0.0,
			"-0.02": 0.0,
			"-0.019": 0.439263530581,
			"-0.018": 0.805544494983,
			"-0.017": 1.05210817816,
			"-0.016": 1.26382145822,
			"-0.015": 0.401939931057,
			"-0.014": 0.285978984346,
			"-0.013": 0.602460574608,
			"-0.012": 1.20727725493,
			"-0.011": 0.784871128769,
			"-0.01": 0.538147939586,
			"-0.009": 0.707910739274,
			"-0.008": 3.02034731302,
			"-0.007": 9.23902314772,
			"-0.006": 16.8146246514,
			"-0.005": 17.1865203057,
			"-0.004": 15.4060687234,
			"-0.003": 13.1459544078,
			"-0.002": 11.9950024375,
			"-0.001": 11.3062014385,
			"0.0": 8.70796984355,
			"0.001": 7.31842254654,
			"0.002": 7.59364702524,
			"0.003": 8.71488894959,
			"0.004": 10.4063707398,
			"0.005": 8.64970931938,
			"0.006": 5.79448402323,
			"0.007": 5.47777535766,
			"0.008": 4.44659930594,
			"0.009": 3.50240873629,
			"0.01": 4.53057884117,
			"0.011": 6.58904123126,
			"0.012": 4.3398526635,
			"0.013": 3.97323929003,
			"0.014": 1.84883917539,
			"0.015": 0.24151125498,
			"0.016": 0.0,
			"0.017": 0.0,
			"0.018": 0.0,
			"0.019": 0.0,
			"0.02": 0.0,
			"0.021": 0.0,
			"0.022": 0.0,
			"0.023": 0.0,
			"0.024": 0.0,
			"0.025": 0.0
		}
	}
}
