{
	 "smiles": "CCC(F)(F)C(O)=O", 
	 "Tm": 281.15, 
	 "num_atms": 14, 
	 "gaussian": { 
		 "optdone": 1, 
		 "sigma_profile": "yes", 
		 "theory": "DFT", 
		 "functional": "B3LYP", 
		 "basiset": "6-31G**", 
		 "properties": { 
			 "R2extent": 1040.9521, 
			 "electric_dipole_moment_norm": 2.98535026588, 
			 "electric_quadrupole_moment_norm": 7.38751823077, 
			 "total_energy": -506.180554871, 
			 "HOMO_LUMO_gap": 0.26656, 
			 "cosmo_polarized_energy": -8.75, 
			 "cosmo_cavitation_energy": 18.56, 
			 "cosmo_dispersion_energy": -13.3, 
			 "cosmo_repulsion_energy": 1.1, 
			 "cosmo_total_nonelectrostatic_energy": 6.36, 
			 "SMD_solvation_energy": 5.3 
		},
		"coords": [
			{
				"x": -1.0192293687,
				"y": -1.0501953807,
				"z": -1.0281645848,
				"element": "C" 
			},
			{
				"x": -0.2656651684,
				"y": -0.6910774154,
				"z": 0.2554108648,
				"element": "C" 
			},
			{
				"x": -0.1351085362,
				"y": 0.7975853359,
				"z": 0.4797209029,
				"element": "C" 
			},
			{
				"x": 0.4408326778,
				"y": 1.0446185665,
				"z": 1.6951261388,
				"element": "F" 
			},
			{
				"x": -1.3925001588,
				"y": 1.3939610201,
				"z": 0.5185003787,
				"element": "F" 
			},
			{
				"x": 0.7109816954,
				"y": 1.5425568132,
				"z": -0.5821432296,
				"element": "C" 
			},
			{
				"x": 0.2241951114,
				"y": 2.7344214549,
				"z": -0.960121334,
				"element": "O" 
			},
			{
				"x": 1.739866712,
				"y": 1.0825026424,
				"z": -1.0050234425,
				"element": "O" 
			},
			{
				"x": -0.4918248858,
				"y": -0.683644236,
				"z": -1.9142514269,
				"element": "H" 
			},
			{
				"x": -2.0279177999,
				"y": -0.6280440154,
				"z": -1.0250604354,
				"element": "H" 
			},
			{
				"x": -1.1065907704,
				"y": -2.13561056,
				"z": -1.121307632,
				"element": "H" 
			},
			{
				"x": 0.750832382,
				"y": -1.0934018223,
				"z": 0.2355414065,
				"element": "H" 
			},
			{
				"x": -0.7715031341,
				"y": -1.0971853562,
				"z": 1.1377959901,
				"element": "H" 
			},
			{
				"x": -0.6331687564,
				"y": 2.869712953,
				"z": -0.5229235966,
				"element": "H" 
			}
		],
		 "valence_orbital": [ 
			{
				"type": "occ",
				"energy": -0.38632,
				"method": "rhf"
			},
			{
				"type": "occ",
				"energy": -0.36913,
				"method": "rhf"
			},
			{
				"type": "occ",
				"energy": -0.36102,
				"method": "rhf"
			},
			{
				"type": "occ",
				"energy": -0.33356,
				"method": "rhf"
			},
			{
				"type": "occ",
				"energy": -0.28787,
				"method": "rhf"
			},
			{
				"type": "unocc",
				"energy": -0.02131,
				"method": "rhf"
			},
			{
				"type": "unocc",
				"energy": 0.06942,
				"method": "rhf"
			},
			{
				"type": "unocc",
				"energy": 0.10361,
				"method": "rhf"
			},
			{
				"type": "unocc",
				"energy": 0.1127,
				"method": "rhf"
			},
			{
				"type": "unocc",
				"energy": 0.13471,
				"method": "rhf"
			}
		],
		"cosmo_sigma_profile": { 
			"-0.025": 0.0,
			"-0.024": 0.0,
			"-0.023": 0.0,
			"-0.022": 0.0,
			"-0.021": 0.0,
			"-0.02": 0.0,
			"-0.019": 0.0,
			"-0.018": 0.077137851231,
			"-0.017": 0.685991550955,
			"-0.016": 0.926422943168,
			"-0.015": 0.680889575804,
			"-0.014": 0.444582543656,
			"-0.013": 1.25787914488,
			"-0.012": 1.05157929111,
			"-0.011": 0.739308618398,
			"-0.01": 0.652040019224,
			"-0.009": 1.6967968302,
			"-0.008": 1.35898086284,
			"-0.007": 1.51486890199,
			"-0.006": 4.03410156146,
			"-0.005": 7.59329164739,
			"-0.004": 10.7860947914,
			"-0.003": 13.1029612228,
			"-0.002": 14.494048484,
			"-0.001": 12.7987366308,
			"0.0": 10.4202329738,
			"0.001": 7.459137243,
			"0.002": 7.12235812697,
			"0.003": 15.0490189291,
			"0.004": 6.72431612126,
			"0.005": 2.5333907186,
			"0.006": 2.88401810247,
			"0.007": 3.21360783757,
			"0.008": 3.8823566931,
			"0.009": 4.57221272459,
			"0.01": 4.77625991007,
			"0.011": 3.35006373617,
			"0.012": 0.456007417043,
			"0.013": 0.0,
			"0.014": 0.0,
			"0.015": 0.0,
			"0.016": 0.0,
			"0.017": 0.0,
			"0.018": 0.0,
			"0.019": 0.0,
			"0.02": 0.0,
			"0.021": 0.0,
			"0.022": 0.0,
			"0.023": 0.0,
			"0.024": 0.0,
			"0.025": 0.0
		}
	}
}
