{
	 "smiles": "CC1=C(CO)C=CC(Br)=C1", 
	 "Tm": 348.15, 
	 "num_atms": 19, 
	 "gaussian": { 
		 "optdone": 1, 
		 "sigma_profile": "yes", 
		 "theory": "DFT", 
		 "functional": "B3LYP", 
		 "basiset": "6-31G**", 
		 "properties": { 
			 "R2extent": 3140.7153, 
			 "electric_dipole_moment_norm": 1.17850354688, 
			 "electric_quadrupole_moment_norm": 7.49181123494, 
			 "total_energy": -2956.90091739, 
			 "HOMO_LUMO_gap": 0.21761, 
			 "cosmo_polarized_energy": -7.52, 
			 "cosmo_cavitation_energy": 24.52, 
			 "cosmo_dispersion_energy": -18.42, 
			 "cosmo_repulsion_energy": 1.5, 
			 "cosmo_total_nonelectrostatic_energy": 7.59, 
			 "SMD_solvation_energy": 3.15 
		},
		"coords": [
			{
				"x": -0.0183057373,
				"y": -0.2658761748,
				"z": -3.3022654356,
				"element": "C" 
			},
			{
				"x": 0.1101877211,
				"y": -0.2907505655,
				"z": -1.7969851825,
				"element": "C" 
			},
			{
				"x": -0.5936080391,
				"y": 0.6286657978,
				"z": -0.9862151145,
				"element": "C" 
			},
			{
				"x": -1.5397044247,
				"y": 1.6435787632,
				"z": -1.5932361508,
				"element": "C" 
			},
			{
				"x": -2.6747192461,
				"y": 1.0518161108,
				"z": -2.2278175654,
				"element": "O" 
			},
			{
				"x": -0.4313961641,
				"y": 0.579750858,
				"z": 0.4017406439,
				"element": "C" 
			},
			{
				"x": 0.4091866251,
				"y": -0.3523168671,
				"z": 1.0128286406,
				"element": "C" 
			},
			{
				"x": 1.0915462863,
				"y": -1.2519175788,
				"z": 0.2022029072,
				"element": "C" 
			},
			{
				"x": 2.2484669064,
				"y": -2.5500899135,
				"z": 0.9999135602,
				"element": "Br" 
			},
			{
				"x": 0.9485643667,
				"y": -1.2278339806,
				"z": -1.1847761372,
				"element": "C" 
			},
			{
				"x": 0.4638431806,
				"y": -1.1364221939,
				"z": -3.7539293848,
				"element": "H" 
			},
			{
				"x": -1.0684012106,
				"y": -0.2410174907,
				"z": -3.6031231778,
				"element": "H" 
			},
			{
				"x": 0.4568256733,
				"y": 0.6300856996,
				"z": -3.7221243882,
				"element": "H" 
			},
			{
				"x": -1.0419892139,
				"y": 2.2186231477,
				"z": -2.3813055748,
				"element": "H" 
			},
			{
				"x": -1.8513857713,
				"y": 2.3599654073,
				"z": -0.8184022249,
				"element": "H" 
			},
			{
				"x": -3.090986988,
				"y": 0.4653759711,
				"z": -1.5820852669,
				"element": "H" 
			},
			{
				"x": -0.9724736167,
				"y": 1.288571288,
				"z": 1.0244249024,
				"element": "H" 
			},
			{
				"x": 0.5263522777,
				"y": -0.3784411701,
				"z": 2.0899328211,
				"element": "H" 
			},
			{
				"x": 1.4947973747,
				"y": -1.9412671086,
				"z": -1.7926778721,
				"element": "H" 
			}
		],
		 "valence_orbital": [ 
			{
				"type": "occ",
				"energy": -0.30725,
				"method": "rhf"
			},
			{
				"type": "occ",
				"energy": -0.28621,
				"method": "rhf"
			},
			{
				"type": "occ",
				"energy": -0.2772,
				"method": "rhf"
			},
			{
				"type": "occ",
				"energy": -0.25688,
				"method": "rhf"
			},
			{
				"type": "occ",
				"energy": -0.23859,
				"method": "rhf"
			},
			{
				"type": "unocc",
				"energy": -0.02098,
				"method": "rhf"
			},
			{
				"type": "unocc",
				"energy": -0.01162,
				"method": "rhf"
			},
			{
				"type": "unocc",
				"energy": 0.00783,
				"method": "rhf"
			},
			{
				"type": "unocc",
				"energy": 0.08265,
				"method": "rhf"
			},
			{
				"type": "unocc",
				"energy": 0.10788,
				"method": "rhf"
			}
		],
		"cosmo_sigma_profile": { 
			"-0.025": 0.0,
			"-0.024": 0.0,
			"-0.023": 0.0,
			"-0.022": 0.0,
			"-0.021": 0.0,
			"-0.02": 0.0,
			"-0.019": 0.0,
			"-0.018": 0.0,
			"-0.017": 0.0,
			"-0.016": 0.0964689853572,
			"-0.015": 0.791070265127,
			"-0.014": 0.79569127069,
			"-0.013": 1.23133132632,
			"-0.012": 0.443727530979,
			"-0.011": 1.17069498395,
			"-0.01": 0.935707966509,
			"-0.009": 0.447845187714,
			"-0.008": 0.449098568269,
			"-0.007": 1.98802780186,
			"-0.006": 8.69934087135,
			"-0.005": 13.2070575192,
			"-0.004": 16.209821604,
			"-0.003": 13.589341545,
			"-0.002": 14.3198954217,
			"-0.001": 13.9953631505,
			"0.0": 17.2639017945,
			"0.001": 14.0524138835,
			"0.002": 17.4529792747,
			"0.003": 16.9851789268,
			"0.004": 20.5343113065,
			"0.005": 10.842978179,
			"0.006": 1.9687249312,
			"0.007": 1.23683517053,
			"0.008": 1.40745101222,
			"0.009": 1.08743241652,
			"0.01": 1.16367488396,
			"0.011": 0.156872930055,
			"0.012": 1.85192921083,
			"0.013": 1.48850434802,
			"0.014": 1.20789614576,
			"0.015": 0.289728172387,
			"0.016": 0.0,
			"0.017": 0.0,
			"0.018": 0.0,
			"0.019": 0.0,
			"0.02": 0.0,
			"0.021": 0.0,
			"0.022": 0.0,
			"0.023": 0.0,
			"0.024": 0.0,
			"0.025": 0.0
		}
	}
}
