{
	 "smiles": "CN1CC(=O)N(CCCC(O)=O)C1=O", 
	 "Tm": 353.15, 
	 "num_atms": 26, 
	 "gaussian": { 
		 "optdone": 1, 
		 "sigma_profile": "yes", 
		 "theory": "DFT", 
		 "functional": "B3LYP", 
		 "basiset": "6-31G**", 
		 "properties": { 
			 "R2extent": 2565.3708, 
			 "electric_dipole_moment_norm": 1.92227162753, 
			 "electric_quadrupole_moment_norm": 17.6248797494, 
			 "total_energy": -722.544948988, 
			 "HOMO_LUMO_gap": 0.24422, 
			 "cosmo_polarized_energy": -16.96, 
			 "cosmo_cavitation_energy": 29.1, 
			 "cosmo_dispersion_energy": -20.29, 
			 "cosmo_repulsion_energy": 1.61, 
			 "cosmo_total_nonelectrostatic_energy": 10.42, 
			 "SMD_solvation_energy": 6.29 
		},
		"coords": [
			{
				"x": -2.8666809722,
				"y": 0.0195351004,
				"z": 0.2784596176,
				"element": "C" 
			},
			{
				"x": -1.6337746139,
				"y": -0.7368765814,
				"z": 0.3075757329,
				"element": "N" 
			},
			{
				"x": -1.24693167,
				"y": -1.6801959777,
				"z": -0.7244818672,
				"element": "C" 
			},
			{
				"x": 0.222299969,
				"y": -1.9581720837,
				"z": -0.4068096442,
				"element": "C" 
			},
			{
				"x": 0.9708797736,
				"y": -2.7287820882,
				"z": -0.973596631,
				"element": "O" 
			},
			{
				"x": 0.5333678803,
				"y": -1.1509010822,
				"z": 0.6673742734,
				"element": "N" 
			},
			{
				"x": 1.8777199311,
				"y": -0.9886223399,
				"z": 1.1992940888,
				"element": "C" 
			},
			{
				"x": 2.7560474254,
				"y": -0.0107555959,
				"z": 0.4014005052,
				"element": "C" 
			},
			{
				"x": 2.3310283803,
				"y": 1.4634582339,
				"z": 0.4614428483,
				"element": "C" 
			},
			{
				"x": 1.2608091883,
				"y": 1.8611010734,
				"z": -0.532691472,
				"element": "C" 
			},
			{
				"x": 1.021708644,
				"y": 3.1913883213,
				"z": -0.4809998752,
				"element": "O" 
			},
			{
				"x": 0.6743043539,
				"y": 1.1305664824,
				"z": -1.305889005,
				"element": "O" 
			},
			{
				"x": -0.5552156721,
				"y": -0.3457693759,
				"z": 1.0587205425,
				"element": "C" 
			},
			{
				"x": -0.5135958671,
				"y": 0.5217365712,
				"z": 1.9169399137,
				"element": "O" 
			},
			{
				"x": -2.9565194644,
				"y": 0.6028214307,
				"z": -0.6479207386,
				"element": "H" 
			},
			{
				"x": -2.8598138653,
				"y": 0.7021408037,
				"z": 1.1292653593,
				"element": "H" 
			},
			{
				"x": -3.7325390537,
				"y": -0.6464602446,
				"z": 0.3592839291,
				"element": "H" 
			},
			{
				"x": -1.8318835309,
				"y": -2.607072987,
				"z": -0.6979726969,
				"element": "H" 
			},
			{
				"x": -1.3209531343,
				"y": -1.2472491032,
				"z": -1.7309699737,
				"element": "H" 
			},
			{
				"x": 1.7725579026,
				"y": -0.6569265079,
				"z": 2.2358544683,
				"element": "H" 
			},
			{
				"x": 2.3422989128,
				"y": -1.9782692377,
				"z": 1.191763237,
				"element": "H" 
			},
			{
				"x": 3.7694309971,
				"y": -0.0921827173,
				"z": 0.8116093693,
				"element": "H" 
			},
			{
				"x": 2.8070466946,
				"y": -0.3444878937,
				"z": -0.6395254743,
				"element": "H" 
			},
			{
				"x": 1.9562918878,
				"y": 1.7315783387,
				"z": 1.4561081125,
				"element": "H" 
			},
			{
				"x": 3.1892699233,
				"y": 2.1197876283,
				"z": 0.2748915363,
				"element": "H" 
			},
			{
				"x": 0.3241459797,
				"y": 3.3676098323,
				"z": -1.134126156,
				"element": "H" 
			}
		],
		 "valence_orbital": [ 
			{
				"type": "occ",
				"energy": -0.28698,
				"method": "rhf"
			},
			{
				"type": "occ",
				"energy": -0.28205,
				"method": "rhf"
			},
			{
				"type": "occ",
				"energy": -0.26535,
				"method": "rhf"
			},
			{
				"type": "occ",
				"energy": -0.2565,
				"method": "rhf"
			},
			{
				"type": "occ",
				"energy": -0.24505,
				"method": "rhf"
			},
			{
				"type": "unocc",
				"energy": -0.00083,
				"method": "rhf"
			},
			{
				"type": "unocc",
				"energy": 0.00668,
				"method": "rhf"
			},
			{
				"type": "unocc",
				"energy": 0.06241,
				"method": "rhf"
			},
			{
				"type": "unocc",
				"energy": 0.07529,
				"method": "rhf"
			},
			{
				"type": "unocc",
				"energy": 0.09063,
				"method": "rhf"
			}
		],
		"cosmo_sigma_profile": { 
			"-0.025": 0.0,
			"-0.024": 0.0,
			"-0.023": 0.0,
			"-0.022": 0.0,
			"-0.021": 0.0,
			"-0.02": 0.0,
			"-0.019": 0.0,
			"-0.018": 0.509005092999,
			"-0.017": 1.28634986204,
			"-0.016": 0.72494020262,
			"-0.015": 0.490644310755,
			"-0.014": 0.82213833672,
			"-0.013": 0.596768729496,
			"-0.012": 0.808906137203,
			"-0.011": 1.02768288335,
			"-0.01": 0.521057321601,
			"-0.009": 0.478751222984,
			"-0.008": 2.1991939681,
			"-0.007": 6.46961296145,
			"-0.006": 10.843538301,
			"-0.005": 23.8454123796,
			"-0.004": 24.5476208986,
			"-0.003": 23.6592219104,
			"-0.002": 22.3005145193,
			"-0.001": 12.0593210903,
			"0.0": 8.39342898787,
			"0.001": 7.67150181997,
			"0.002": 8.84430587098,
			"0.003": 7.71297237915,
			"0.004": 8.01938042008,
			"0.005": 7.33596651742,
			"0.006": 6.20950053538,
			"0.007": 5.3445568586,
			"0.008": 3.9236547466,
			"0.009": 5.58371013841,
			"0.01": 5.70325511555,
			"0.011": 5.64860702669,
			"0.012": 8.21159057619,
			"0.013": 6.0883067445,
			"0.014": 0.247109919076,
			"0.015": 0.0,
			"0.016": 0.0,
			"0.017": 0.0,
			"0.018": 0.0,
			"0.019": 0.0,
			"0.02": 0.0,
			"0.021": 0.0,
			"0.022": 0.0,
			"0.023": 0.0,
			"0.024": 0.0,
			"0.025": 0.0
		}
	}
}
