{
	 "smiles": "CC(=O)C1CCC2C3CC=C4CC(O)CCC4(C)C3CCC12C", 
	 "Tm": 466.15, 
	 "num_atms": 55, 
	 "gaussian": { 
		 "optdone": 1, 
		 "sigma_profile": "yes", 
		 "theory": "DFT", 
		 "functional": "B3LYP", 
		 "basiset": "6-31G**", 
		 "properties": { 
			 "R2extent": 9453.7419, 
			 "electric_dipole_moment_norm": 4.0603297871, 
			 "electric_quadrupole_moment_norm": 15.1106477608, 
			 "total_energy": -969.966607009, 
			 "HOMO_LUMO_gap": 0.21776, 
			 "cosmo_polarized_energy": -12.65, 
			 "cosmo_cavitation_energy": 46.84, 
			 "cosmo_dispersion_energy": -32.78, 
			 "cosmo_repulsion_energy": 2.41, 
			 "cosmo_total_nonelectrostatic_energy": 16.48, 
			 "SMD_solvation_energy": 7.12 
		},
		"coords": [
			{
				"x": -0.9171714917,
				"y": -1.320798673,
				"z": -5.0584093979,
				"element": "C" 
			},
			{
				"x": -0.4221426917,
				"y": -2.4077524173,
				"z": -4.1118382622,
				"element": "C" 
			},
			{
				"x": 0.1070963349,
				"y": -3.4087772322,
				"z": -4.5638627326,
				"element": "O" 
			},
			{
				"x": -0.5648203557,
				"y": -2.2450503789,
				"z": -2.5946126447,
				"element": "C" 
			},
			{
				"x": -1.947650514,
				"y": -1.7070978191,
				"z": -2.1330633245,
				"element": "C" 
			},
			{
				"x": -1.746050026,
				"y": -0.2251756934,
				"z": -1.7113412406,
				"element": "C" 
			},
			{
				"x": -0.2550785276,
				"y": 0.1153341064,
				"z": -1.982206918,
				"element": "C" 
			},
			{
				"x": 0.3694436758,
				"y": 1.2037852732,
				"z": -1.0699901008,
				"element": "C" 
			},
			{
				"x": -0.4770722323,
				"y": 2.4874774705,
				"z": -1.0885564529,
				"element": "C" 
			},
			{
				"x": -0.0876072717,
				"y": 3.4662370263,
				"z": -0.0190073171,
				"element": "C" 
			},
			{
				"x": 0.704649598,
				"y": 3.1953992923,
				"z": 1.0255816945,
				"element": "C" 
			},
			{
				"x": 1.0567199691,
				"y": 4.3029194626,
				"z": 2.0064269858,
				"element": "C" 
			},
			{
				"x": 1.1359835893,
				"y": 3.8442875422,
				"z": 3.486078215,
				"element": "C" 
			},
			{
				"x": 2.4859398412,
				"y": 3.6672652857,
				"z": 3.9312094019,
				"element": "O" 
			},
			{
				"x": 0.4408615463,
				"y": 2.4969462758,
				"z": 3.6488050181,
				"element": "C" 
			},
			{
				"x": 1.1144773903,
				"y": 1.4159193277,
				"z": 2.7903548139,
				"element": "C" 
			},
			{
				"x": 1.3136385766,
				"y": 1.8128843728,
				"z": 1.2763022025,
				"element": "C" 
			},
			{
				"x": 2.8361756722,
				"y": 1.9184350272,
				"z": 0.9921675059,
				"element": "C" 
			},
			{
				"x": 0.6143780995,
				"y": 0.7298939215,
				"z": 0.3789806998,
				"element": "C" 
			},
			{
				"x": 1.3627193428,
				"y": -0.6176497441,
				"z": 0.384210504,
				"element": "C" 
			},
			{
				"x": 0.6641324214,
				"y": -1.6854993779,
				"z": -0.4659446192,
				"element": "C" 
			},
			{
				"x": 0.4722432889,
				"y": -1.2588335313,
				"z": -1.9457053906,
				"element": "C" 
			},
			{
				"x": 1.8257589273,
				"y": -1.2567976765,
				"z": -2.6744191288,
				"element": "C" 
			},
			{
				"x": -0.9909560539,
				"y": -1.7369935462,
				"z": -6.0645370961,
				"element": "H" 
			},
			{
				"x": -0.1920090601,
				"y": -0.4987455823,
				"z": -5.0799171962,
				"element": "H" 
			},
			{
				"x": -1.8770541461,
				"y": -0.8935995641,
				"z": -4.7576811943,
				"element": "H" 
			},
			{
				"x": -0.3798556839,
				"y": -3.2536808805,
				"z": -2.2119853465,
				"element": "H" 
			},
			{
				"x": -2.3077689087,
				"y": -2.3032267331,
				"z": -1.2897595767,
				"element": "H" 
			},
			{
				"x": -2.7059379829,
				"y": -1.8128344373,
				"z": -2.9147491121,
				"element": "H" 
			},
			{
				"x": -2.4123275055,
				"y": 0.4458002827,
				"z": -2.2616219848,
				"element": "H" 
			},
			{
				"x": -1.992501359,
				"y": -0.0987128218,
				"z": -0.6521695658,
				"element": "H" 
			},
			{
				"x": -0.1878606636,
				"y": 0.5011931331,
				"z": -3.0088920904,
				"element": "H" 
			},
			{
				"x": 1.3504804733,
				"y": 1.4542691018,
				"z": -1.4992336124,
				"element": "H" 
			},
			{
				"x": -0.4038105745,
				"y": 2.9664986339,
				"z": -2.0756253502,
				"element": "H" 
			},
			{
				"x": -1.5422340641,
				"y": 2.2414959467,
				"z": -0.9680600714,
				"element": "H" 
			},
			{
				"x": -0.4966674543,
				"y": 4.4725753894,
				"z": -0.117311722,
				"element": "H" 
			},
			{
				"x": 0.3161333299,
				"y": 5.1041815198,
				"z": 1.9055040123,
				"element": "H" 
			},
			{
				"x": 2.0250859488,
				"y": 4.7505451127,
				"z": 1.7392852908,
				"element": "H" 
			},
			{
				"x": 0.6415761544,
				"y": 4.5942063721,
				"z": 4.1228296404,
				"element": "H" 
			},
			{
				"x": 2.9390315994,
				"y": 4.5154831156,
				"z": 3.84405212,
				"element": "H" 
			},
			{
				"x": -0.6095623791,
				"y": 2.6191700802,
				"z": 3.3558973019,
				"element": "H" 
			},
			{
				"x": 0.4531792745,
				"y": 2.1982618262,
				"z": 4.7025975197,
				"element": "H" 
			},
			{
				"x": 2.0859142798,
				"y": 1.1844810651,
				"z": 3.2357346756,
				"element": "H" 
			},
			{
				"x": 0.5160207959,
				"y": 0.5010488086,
				"z": 2.8571900655,
				"element": "H" 
			},
			{
				"x": 3.2773352582,
				"y": 2.6912814303,
				"z": 1.6260185758,
				"element": "H" 
			},
			{
				"x": 3.3538701701,
				"y": 0.9843075846,
				"z": 1.2277756927,
				"element": "H" 
			},
			{
				"x": 3.0386888655,
				"y": 2.172031446,
				"z": -0.053732639,
				"element": "H" 
			},
			{
				"x": -0.3738751929,
				"y": 0.5614599118,
				"z": 0.8348219301,
				"element": "H" 
			},
			{
				"x": 1.4708053616,
				"y": -0.9875924187,
				"z": 1.4107593772,
				"element": "H" 
			},
			{
				"x": 2.3808872249,
				"y": -0.4730848644,
				"z": 0.0087062648,
				"element": "H" 
			},
			{
				"x": 1.2370887979,
				"y": -2.6209696309,
				"z": -0.4362875809,
				"element": "H" 
			},
			{
				"x": -0.3119784894,
				"y": -1.9126775227,
				"z": -0.0190687006,
				"element": "H" 
			},
			{
				"x": 2.5596036965,
				"y": -0.6257005629,
				"z": -2.1657383378,
				"element": "H" 
			},
			{
				"x": 2.2376868649,
				"y": -2.2695829676,
				"z": -2.7322297014,
				"element": "H" 
			},
			{
				"x": 1.7359862595,
				"y": -0.8813410682,
				"z": -3.6989310996,
				"element": "H" 
			}
		],
		 "valence_orbital": [ 
			{
				"type": "occ",
				"energy": -0.2774,
				"method": "rhf"
			},
			{
				"type": "occ",
				"energy": -0.27441,
				"method": "rhf"
			},
			{
				"type": "occ",
				"energy": -0.26507,
				"method": "rhf"
			},
			{
				"type": "occ",
				"energy": -0.23223,
				"method": "rhf"
			},
			{
				"type": "occ",
				"energy": -0.22679,
				"method": "rhf"
			},
			{
				"type": "unocc",
				"energy": -0.00903,
				"method": "rhf"
			},
			{
				"type": "unocc",
				"energy": 0.0267,
				"method": "rhf"
			},
			{
				"type": "unocc",
				"energy": 0.06395,
				"method": "rhf"
			},
			{
				"type": "unocc",
				"energy": 0.07118,
				"method": "rhf"
			},
			{
				"type": "unocc",
				"energy": 0.07673,
				"method": "rhf"
			}
		],
		"cosmo_sigma_profile": { 
			"-0.025": 0.0,
			"-0.024": 0.0,
			"-0.023": 0.0,
			"-0.022": 0.0,
			"-0.021": 0.0,
			"-0.02": 0.0,
			"-0.019": 0.0,
			"-0.018": 0.0,
			"-0.017": 0.0,
			"-0.016": 0.00238103387105,
			"-0.015": 0.5989366232,
			"-0.014": 0.852803982974,
			"-0.013": 1.07376886182,
			"-0.012": 1.02306842339,
			"-0.011": 0.812376629618,
			"-0.01": 0.734979738385,
			"-0.009": 1.14552575447,
			"-0.008": 0.957836988697,
			"-0.007": 0.881010183147,
			"-0.006": 3.72417192632,
			"-0.005": 8.40472810114,
			"-0.004": 10.9547023659,
			"-0.003": 32.488432351,
			"-0.002": 67.632541568,
			"-0.001": 63.2750304038,
			"0.0": 55.7468759946,
			"0.001": 35.7377318708,
			"0.002": 18.3069110735,
			"0.003": 8.51165952315,
			"0.004": 5.9952337823,
			"0.005": 5.91293192897,
			"0.006": 5.72540727966,
			"0.007": 3.16881888457,
			"0.008": 2.58694690042,
			"0.009": 3.77340759643,
			"0.01": 2.87054068897,
			"0.011": 2.98143825235,
			"0.012": 5.41483040451,
			"0.013": 4.83088367292,
			"0.014": 2.45304280256,
			"0.015": 0.348112579492,
			"0.016": 0.0,
			"0.017": 0.0,
			"0.018": 0.0,
			"0.019": 0.0,
			"0.02": 0.0,
			"0.021": 0.0,
			"0.022": 0.0,
			"0.023": 0.0,
			"0.024": 0.0,
			"0.025": 0.0
		}
	}
}
