{
	 "smiles": "N#CC1=CC=C(C=C1)C1OCCO1", 
	 "Tm": 319.15, 
	 "num_atms": 22, 
	 "gaussian": { 
		 "optdone": 1, 
		 "sigma_profile": "yes", 
		 "theory": "DFT", 
		 "functional": "B3LYP", 
		 "basiset": "6-31G**", 
		 "properties": { 
			 "R2extent": 3724.8739, 
			 "electric_dipole_moment_norm": 5.2357294296, 
			 "electric_quadrupole_moment_norm": 19.5581311398, 
			 "total_energy": -591.645973545, 
			 "HOMO_LUMO_gap": 0.20995, 
			 "cosmo_polarized_energy": -11.16, 
			 "cosmo_cavitation_energy": 26.76, 
			 "cosmo_dispersion_energy": -19.21, 
			 "cosmo_repulsion_energy": 1.53, 
			 "cosmo_total_nonelectrostatic_energy": 9.07, 
			 "SMD_solvation_energy": 6.0 
		},
		"coords": [
			{
				"x": 4.332364179,
				"y": -2.3592171909,
				"z": -3.1750378145,
				"element": "N" 
			},
			{
				"x": 3.5613466215,
				"y": -2.1901099804,
				"z": -2.3203718872,
				"element": "C" 
			},
			{
				"x": 2.6109811849,
				"y": -1.9805814184,
				"z": -1.2667371131,
				"element": "C" 
			},
			{
				"x": 1.233930496,
				"y": -2.0108180379,
				"z": -1.5433059103,
				"element": "C" 
			},
			{
				"x": 0.3160228103,
				"y": -1.8032999217,
				"z": -0.5176862274,
				"element": "C" 
			},
			{
				"x": 0.7548731908,
				"y": -1.5653671659,
				"z": 0.7893152481,
				"element": "C" 
			},
			{
				"x": 2.128102767,
				"y": -1.5376593121,
				"z": 1.0623489488,
				"element": "C" 
			},
			{
				"x": 3.0549273886,
				"y": -1.7405597839,
				"z": 0.0450485912,
				"element": "C" 
			},
			{
				"x": -0.2429597648,
				"y": -1.3852517746,
				"z": 1.9299051838,
				"element": "C" 
			},
			{
				"x": 0.1991239684,
				"y": -0.441795595,
				"z": 2.8870503989,
				"element": "O" 
			},
			{
				"x": -0.3546552322,
				"y": 0.8070587438,
				"z": 2.4680885755,
				"element": "C" 
			},
			{
				"x": -1.7280831042,
				"y": 0.3865452998,
				"z": 1.9425034419,
				"element": "C" 
			},
			{
				"x": -1.4997278044,
				"y": -0.933997348,
				"z": 1.4377832403,
				"element": "O" 
			},
			{
				"x": 0.8952327728,
				"y": -2.1921167246,
				"z": -2.5579982335,
				"element": "H" 
			},
			{
				"x": -0.7483422417,
				"y": -1.8132161153,
				"z": -0.7242402358,
				"element": "H" 
			},
			{
				"x": 2.4647883096,
				"y": -1.3410861933,
				"z": 2.0749750901,
				"element": "H" 
			},
			{
				"x": 4.1191735656,
				"y": -1.712820669,
				"z": 0.2541391347,
				"element": "H" 
			},
			{
				"x": -0.3835553929,
				"y": -2.3360272869,
				"z": 2.4618895275,
				"element": "H" 
			},
			{
				"x": 0.2577694075,
				"y": 1.2634076876,
				"z": 1.6778787195,
				"element": "H" 
			},
			{
				"x": -0.3894490379,
				"y": 1.4723378554,
				"z": 3.332977677,
				"element": "H" 
			},
			{
				"x": -2.0980538568,
				"y": 1.0230458352,
				"z": 1.1331922771,
				"element": "H" 
			},
			{
				"x": -2.475310227,
				"y": 0.352729096,
				"z": 2.7456813674,
				"element": "H" 
			}
		],
		 "valence_orbital": [ 
			{
				"type": "occ",
				"energy": -0.32742,
				"method": "rhf"
			},
			{
				"type": "occ",
				"energy": -0.28944,
				"method": "rhf"
			},
			{
				"type": "occ",
				"energy": -0.27453,
				"method": "rhf"
			},
			{
				"type": "occ",
				"energy": -0.27136,
				"method": "rhf"
			},
			{
				"type": "occ",
				"energy": -0.26212,
				"method": "rhf"
			},
			{
				"type": "unocc",
				"energy": -0.05217,
				"method": "rhf"
			},
			{
				"type": "unocc",
				"energy": -0.02311,
				"method": "rhf"
			},
			{
				"type": "unocc",
				"energy": 0.03885,
				"method": "rhf"
			},
			{
				"type": "unocc",
				"energy": 0.07055,
				"method": "rhf"
			},
			{
				"type": "unocc",
				"energy": 0.08512,
				"method": "rhf"
			}
		],
		"cosmo_sigma_profile": { 
			"-0.025": 0.0,
			"-0.024": 0.0,
			"-0.023": 0.0,
			"-0.022": 0.0,
			"-0.021": 0.0,
			"-0.02": 0.0,
			"-0.019": 0.0,
			"-0.018": 0.0,
			"-0.017": 0.0,
			"-0.016": 0.0,
			"-0.015": 0.0,
			"-0.014": 0.0,
			"-0.013": 0.0,
			"-0.012": 0.0,
			"-0.011": 0.0,
			"-0.01": 0.0,
			"-0.009": 0.0,
			"-0.008": 2.58495810373,
			"-0.007": 8.02882896291,
			"-0.006": 16.8352503399,
			"-0.005": 22.2552812377,
			"-0.004": 18.6389981534,
			"-0.003": 16.5091402124,
			"-0.002": 12.6368668206,
			"-0.001": 15.4132597211,
			"0.0": 13.6624189068,
			"0.001": 13.0023647475,
			"0.002": 18.6967231484,
			"0.003": 10.1089472767,
			"0.004": 5.23904301828,
			"0.005": 4.9857313847,
			"0.006": 4.50145207888,
			"0.007": 5.21105690974,
			"0.008": 5.44373931408,
			"0.009": 4.92711645195,
			"0.01": 5.35396649636,
			"0.011": 5.14996818116,
			"0.012": 3.41390576413,
			"0.013": 1.70653084984,
			"0.014": 0.0927256689248,
			"0.015": 0.0,
			"0.016": 0.0,
			"0.017": 0.0,
			"0.018": 0.0,
			"0.019": 0.0,
			"0.02": 0.0,
			"0.021": 0.0,
			"0.022": 0.0,
			"0.023": 0.0,
			"0.024": 0.0,
			"0.025": 0.0
		}
	}
}
