{
	 "smiles": "CCN(CC)C(=O)C1=CC(O)=CC=C1", 
	 "Tm": 354.15, 
	 "num_atms": 29, 
	 "gaussian": { 
		 "optdone": 1, 
		 "sigma_profile": "yes", 
		 "theory": "DFT", 
		 "functional": "B3LYP", 
		 "basiset": "6-31G**", 
		 "properties": { 
			 "R2extent": 3728.9991, 
			 "electric_dipole_moment_norm": 2.93716398759, 
			 "electric_quadrupole_moment_norm": 8.32753405997, 
			 "total_energy": -633.423930597, 
			 "HOMO_LUMO_gap": 0.20328, 
			 "cosmo_polarized_energy": -14.17, 
			 "cosmo_cavitation_energy": 31.5, 
			 "cosmo_dispersion_energy": -22.08, 
			 "cosmo_repulsion_energy": 1.76, 
			 "cosmo_total_nonelectrostatic_energy": 11.19, 
			 "SMD_solvation_energy": 5.96 
		},
		"coords": [
			{
				"x": 0.5940828913,
				"y": -2.8540710617,
				"z": -1.4535139235,
				"element": "C" 
			},
			{
				"x": 1.0171766969,
				"y": -1.3810079654,
				"z": -1.5220274959,
				"element": "C" 
			},
			{
				"x": -0.0311901722,
				"y": -0.4610777737,
				"z": -1.9869260336,
				"element": "N" 
			},
			{
				"x": -0.1310861529,
				"y": -0.1780090839,
				"z": -3.4273612187,
				"element": "C" 
			},
			{
				"x": -0.9794431723,
				"y": -1.1679762513,
				"z": -4.2335232125,
				"element": "C" 
			},
			{
				"x": -1.0946771955,
				"y": -0.0590449916,
				"z": -1.2121261697,
				"element": "C" 
			},
			{
				"x": -2.111757149,
				"y": 0.4242653871,
				"z": -1.7103294771,
				"element": "O" 
			},
			{
				"x": -0.9962352746,
				"y": -0.1815934117,
				"z": 0.2892032204,
				"element": "C" 
			},
			{
				"x": -2.079164508,
				"y": -0.7619824493,
				"z": 0.9596642359,
				"element": "C" 
			},
			{
				"x": -2.0909821788,
				"y": -0.8263601534,
				"z": 2.3547504045,
				"element": "C" 
			},
			{
				"x": -3.114787329,
				"y": -1.3968843244,
				"z": 3.0552833263,
				"element": "O" 
			},
			{
				"x": -1.0293759561,
				"y": -0.286252805,
				"z": 3.0912026688,
				"element": "C" 
			},
			{
				"x": 0.0305513289,
				"y": 0.3182469286,
				"z": 2.4211201831,
				"element": "C" 
			},
			{
				"x": 0.0589880762,
				"y": 0.3717300129,
				"z": 1.0252075457,
				"element": "C" 
			},
			{
				"x": 0.2914072947,
				"y": -3.2392040301,
				"z": -2.4306452886,
				"element": "H" 
			},
			{
				"x": 1.4282226117,
				"y": -3.4649629799,
				"z": -1.0911482959,
				"element": "H" 
			},
			{
				"x": -0.2431164025,
				"y": -2.982402808,
				"z": -0.7607734509,
				"element": "H" 
			},
			{
				"x": 1.8670315661,
				"y": -1.2654557828,
				"z": -2.2026377448,
				"element": "H" 
			},
			{
				"x": 1.3615141476,
				"y": -1.0664017624,
				"z": -0.5363428155,
				"element": "H" 
			},
			{
				"x": 0.8908107351,
				"y": -0.140180145,
				"z": -3.8205209587,
				"element": "H" 
			},
			{
				"x": -0.5662081259,
				"y": 0.8192455709,
				"z": -3.5246200987,
				"element": "H" 
			},
			{
				"x": -1.9936620826,
				"y": -1.2038243584,
				"z": -3.8301899698,
				"element": "H" 
			},
			{
				"x": -1.037502236,
				"y": -0.8401684999,
				"z": -5.277299499,
				"element": "H" 
			},
			{
				"x": -0.5569433009,
				"y": -2.1770257343,
				"z": -4.224743741,
				"element": "H" 
			},
			{
				"x": -2.9177912002,
				"y": -1.1405090581,
				"z": 0.3803414486,
				"element": "H" 
			},
			{
				"x": -3.793219259,
				"y": -1.6966402663,
				"z": 2.436159131,
				"element": "H" 
			},
			{
				"x": -1.0615326566,
				"y": -0.3386313258,
				"z": 4.1743579261,
				"element": "H" 
			},
			{
				"x": 0.8420776043,
				"y": 0.757968719,
				"z": 2.9938153008,
				"element": "H" 
			},
			{
				"x": 0.8785113995,
				"y": 0.8671104041,
				"z": 0.5144240027,
				"element": "H" 
			}
		],
		 "valence_orbital": [ 
			{
				"type": "occ",
				"energy": -0.33106,
				"method": "rhf"
			},
			{
				"type": "occ",
				"energy": -0.26287,
				"method": "rhf"
			},
			{
				"type": "occ",
				"energy": -0.24026,
				"method": "rhf"
			},
			{
				"type": "occ",
				"energy": -0.23211,
				"method": "rhf"
			},
			{
				"type": "occ",
				"energy": -0.22542,
				"method": "rhf"
			},
			{
				"type": "unocc",
				"energy": -0.02214,
				"method": "rhf"
			},
			{
				"type": "unocc",
				"energy": 0.00365,
				"method": "rhf"
			},
			{
				"type": "unocc",
				"energy": 0.04704,
				"method": "rhf"
			},
			{
				"type": "unocc",
				"energy": 0.07075,
				"method": "rhf"
			},
			{
				"type": "unocc",
				"energy": 0.0864,
				"method": "rhf"
			}
		],
		"cosmo_sigma_profile": { 
			"-0.025": 0.0,
			"-0.024": 0.0,
			"-0.023": 0.0,
			"-0.022": 0.0,
			"-0.021": 0.0,
			"-0.02": 0.0,
			"-0.019": 0.0,
			"-0.018": 0.371892328938,
			"-0.017": 1.28793570731,
			"-0.016": 1.18964053059,
			"-0.015": 0.791299711855,
			"-0.014": 1.13825313055,
			"-0.013": 1.02984939623,
			"-0.012": 0.969184124324,
			"-0.011": 0.929380672298,
			"-0.01": 1.0568652719,
			"-0.009": 1.22731541175,
			"-0.008": 0.719662620444,
			"-0.007": 1.46312015739,
			"-0.006": 7.83887829243,
			"-0.005": 12.383184858,
			"-0.004": 19.5532156511,
			"-0.003": 23.5257267332,
			"-0.002": 27.458739742,
			"-0.001": 24.332453,
			"0.0": 23.158421259,
			"0.001": 22.3599028273,
			"0.002": 11.4953876612,
			"0.003": 12.25375663,
			"0.004": 11.1909119824,
			"0.005": 9.81971705714,
			"0.006": 3.99588252277,
			"0.007": 3.28910153686,
			"0.008": 3.01274046537,
			"0.009": 3.35356751318,
			"0.01": 3.04654981358,
			"0.011": 3.38327457345,
			"0.012": 2.19589259822,
			"0.013": 2.59230665154,
			"0.014": 4.23793223164,
			"0.015": 1.20294483397,
			"0.016": 0.0396291111076,
			"0.017": 0.0,
			"0.018": 0.0,
			"0.019": 0.0,
			"0.02": 0.0,
			"0.021": 0.0,
			"0.022": 0.0,
			"0.023": 0.0,
			"0.024": 0.0,
			"0.025": 0.0
		}
	}
}
