{
	 "smiles": "CC(=O)C=CC1=CC=C(Cl)C=C1", 
	 "Tm": 328.15, 
	 "num_atms": 21, 
	 "gaussian": { 
		 "optdone": 1, 
		 "sigma_profile": "yes", 
		 "theory": "DFT", 
		 "functional": "B3LYP", 
		 "basiset": "6-31G**", 
		 "properties": { 
			 "R2extent": 4406.5215, 
			 "electric_dipole_moment_norm": 2.16101369038, 
			 "electric_quadrupole_moment_norm": 17.7567890743, 
			 "total_energy": -921.895766919, 
			 "HOMO_LUMO_gap": 0.15978, 
			 "cosmo_polarized_energy": -9.73, 
			 "cosmo_cavitation_energy": 27.81, 
			 "cosmo_dispersion_energy": -20.22, 
			 "cosmo_repulsion_energy": 1.61, 
			 "cosmo_total_nonelectrostatic_energy": 9.2, 
			 "SMD_solvation_energy": 5.31 
		},
		"coords": [
			{
				"x": -1.5048286921,
				"y": -3.3547504212,
				"z": 2.221421213,
				"element": "C" 
			},
			{
				"x": -1.1866556468,
				"y": -2.6101343179,
				"z": 0.9369405552,
				"element": "C" 
			},
			{
				"x": -1.2168281274,
				"y": -3.169371608,
				"z": -0.1507972369,
				"element": "O" 
			},
			{
				"x": -0.8385617645,
				"y": -1.1709399754,
				"z": 1.0772959188,
				"element": "C" 
			},
			{
				"x": -0.5419117908,
				"y": -0.4304842473,
				"z": -0.0084989882,
				"element": "C" 
			},
			{
				"x": -0.1799119728,
				"y": 0.9840781169,
				"z": -0.0672835654,
				"element": "C" 
			},
			{
				"x": -0.0875588858,
				"y": 1.8084455241,
				"z": 1.071501425,
				"element": "C" 
			},
			{
				"x": 0.2606692708,
				"y": 3.1492508928,
				"z": 0.9641502282,
				"element": "C" 
			},
			{
				"x": 0.5240240537,
				"y": 3.6889847406,
				"z": -0.2980932662,
				"element": "C" 
			},
			{
				"x": 0.9637560805,
				"y": 5.3815952706,
				"z": -0.4361521399,
				"element": "Cl" 
			},
			{
				"x": 0.4423017976,
				"y": 2.9028427934,
				"z": -1.4463901128,
				"element": "C" 
			},
			{
				"x": 0.092052746,
				"y": 1.5610485164,
				"z": -1.3214150129,
				"element": "C" 
			},
			{
				"x": -2.352010363,
				"y": -2.8853084938,
				"z": 2.7358138308,
				"element": "H" 
			},
			{
				"x": -0.6515905321,
				"y": -3.3130774008,
				"z": 2.9091172874,
				"element": "H" 
			},
			{
				"x": -1.7435467168,
				"y": -4.3946777098,
				"z": 1.9964358887,
				"element": "H" 
			},
			{
				"x": -0.8350093037,
				"y": -0.7519451695,
				"z": 2.0807639011,
				"element": "H" 
			},
			{
				"x": -0.5776208577,
				"y": -0.9568139139,
				"z": -0.9618561677,
				"element": "H" 
			},
			{
				"x": -0.2900960208,
				"y": 1.3988432839,
				"z": 2.0558924211,
				"element": "H" 
			},
			{
				"x": 0.3293725912,
				"y": 3.7764303878,
				"z": 1.8460296398,
				"element": "H" 
			},
			{
				"x": 0.6494122282,
				"y": 3.3352812148,
				"z": -2.418832928,
				"element": "H" 
			},
			{
				"x": 0.0269419062,
				"y": 0.9441025162,
				"z": -2.2133428912,
				"element": "H" 
			}
		],
		 "valence_orbital": [ 
			{
				"type": "occ",
				"energy": -0.32081,
				"method": "rhf"
			},
			{
				"type": "occ",
				"energy": -0.29724,
				"method": "rhf"
			},
			{
				"type": "occ",
				"energy": -0.27537,
				"method": "rhf"
			},
			{
				"type": "occ",
				"energy": -0.24639,
				"method": "rhf"
			},
			{
				"type": "occ",
				"energy": -0.23676,
				"method": "rhf"
			},
			{
				"type": "unocc",
				"energy": -0.07698,
				"method": "rhf"
			},
			{
				"type": "unocc",
				"energy": -0.02375,
				"method": "rhf"
			},
			{
				"type": "unocc",
				"energy": 0.00187,
				"method": "rhf"
			},
			{
				"type": "unocc",
				"energy": 0.02201,
				"method": "rhf"
			},
			{
				"type": "unocc",
				"energy": 0.06812,
				"method": "rhf"
			}
		],
		"cosmo_sigma_profile": { 
			"-0.025": 0.0,
			"-0.024": 0.0,
			"-0.023": 0.0,
			"-0.022": 0.0,
			"-0.021": 0.0,
			"-0.02": 0.0,
			"-0.019": 0.0,
			"-0.018": 0.0,
			"-0.017": 0.0,
			"-0.016": 0.0,
			"-0.015": 0.0,
			"-0.014": 0.0,
			"-0.013": 0.0,
			"-0.012": 0.0,
			"-0.011": 0.0,
			"-0.01": 0.0,
			"-0.009": 0.271406777716,
			"-0.008": 3.95422284711,
			"-0.007": 9.82391056674,
			"-0.006": 13.4168421605,
			"-0.005": 17.780017946,
			"-0.004": 13.2200870115,
			"-0.003": 13.3315812348,
			"-0.002": 14.0790703101,
			"-0.001": 18.0567979351,
			"0.0": 16.6173741003,
			"0.001": 20.4268952696,
			"0.002": 24.0585916789,
			"0.003": 22.5366980471,
			"0.004": 13.3922004682,
			"0.005": 5.06475139552,
			"0.006": 1.93621472071,
			"0.007": 1.39176570889,
			"0.008": 1.70132474281,
			"0.009": 1.89109474486,
			"0.01": 1.55521869297,
			"0.011": 2.05214956955,
			"0.012": 4.4952731353,
			"0.013": 3.00655837012,
			"0.014": 0.722275053628,
			"0.015": 0.0,
			"0.016": 0.0,
			"0.017": 0.0,
			"0.018": 0.0,
			"0.019": 0.0,
			"0.02": 0.0,
			"0.021": 0.0,
			"0.022": 0.0,
			"0.023": 0.0,
			"0.024": 0.0,
			"0.025": 0.0
		}
	}
}
