{
	 "smiles": "O=C1CCC(N1)C1=CC=CC=C1", 
	 "Tm": 371.15, 
	 "num_atms": 23, 
	 "gaussian": { 
		 "optdone": 1, 
		 "sigma_profile": "yes", 
		 "theory": "DFT", 
		 "functional": "B3LYP", 
		 "basiset": "6-31G**", 
		 "properties": { 
			 "R2extent": 2564.3516, 
			 "electric_dipole_moment_norm": 3.82150667669, 
			 "electric_quadrupole_moment_norm": 14.6596360606, 
			 "total_energy": -517.69008184, 
			 "HOMO_LUMO_gap": 0.2297, 
			 "cosmo_polarized_energy": -11.97, 
			 "cosmo_cavitation_energy": 25.93, 
			 "cosmo_dispersion_energy": -18.93, 
			 "cosmo_repulsion_energy": 1.52, 
			 "cosmo_total_nonelectrostatic_energy": 8.52, 
			 "SMD_solvation_energy": 4.34 
		},
		"coords": [
			{
				"x": -0.3081074756,
				"y": -3.4115352493,
				"z": -0.8034634966,
				"element": "O" 
			},
			{
				"x": -0.5504794129,
				"y": -2.2531878548,
				"z": -1.09166527,
				"element": "C" 
			},
			{
				"x": -1.6795477972,
				"y": -1.3711244019,
				"z": -0.5503187162,
				"element": "C" 
			},
			{
				"x": -1.684097555,
				"y": -0.1423184278,
				"z": -1.471929031,
				"element": "C" 
			},
			{
				"x": -0.236212987,
				"y": -0.0813333573,
				"z": -2.0616989515,
				"element": "C" 
			},
			{
				"x": 0.1716556414,
				"y": -1.4749195709,
				"z": -1.965268301,
				"element": "N" 
			},
			{
				"x": 0.6820142894,
				"y": 0.8939847622,
				"z": -1.3321766806,
				"element": "C" 
			},
			{
				"x": 0.7277684366,
				"y": 2.2307974264,
				"z": -1.7508054641,
				"element": "C" 
			},
			{
				"x": 1.5202768782,
				"y": 3.1633484175,
				"z": -1.0822045906,
				"element": "C" 
			},
			{
				"x": 2.2874989596,
				"y": 2.7690160167,
				"z": 0.0163111652,
				"element": "C" 
			},
			{
				"x": 2.2553982476,
				"y": 1.4386711927,
				"z": 0.4360827075,
				"element": "C" 
			},
			{
				"x": 1.4592038738,
				"y": 0.5071726769,
				"z": -0.2340231975,
				"element": "C" 
			},
			{
				"x": -1.4363383958,
				"y": -1.1150738582,
				"z": 0.4872707696,
				"element": "H" 
			},
			{
				"x": -2.6211476275,
				"y": -1.9239636576,
				"z": -0.5374615525,
				"element": "H" 
			},
			{
				"x": -1.947412296,
				"y": 0.7878363445,
				"z": -0.9648986306,
				"element": "H" 
			},
			{
				"x": -2.3931014928,
				"y": -0.2922230844,
				"z": -2.2920932625,
				"element": "H" 
			},
			{
				"x": -0.2834406243,
				"y": 0.2243143118,
				"z": -3.1140644821,
				"element": "H" 
			},
			{
				"x": 1.0449275746,
				"y": -1.818967821,
				"z": -2.3393627393,
				"element": "H" 
			},
			{
				"x": 0.1386715323,
				"y": 2.5426163593,
				"z": -2.6108578351,
				"element": "H" 
			},
			{
				"x": 1.5454195486,
				"y": 4.1946042732,
				"z": -1.4230576013,
				"element": "H" 
			},
			{
				"x": 2.9098681233,
				"y": 3.4917308652,
				"z": 0.5359387233,
				"element": "H" 
			},
			{
				"x": 2.8541067653,
				"y": 1.1213268252,
				"z": 1.2852806893,
				"element": "H" 
			},
			{
				"x": 1.4518757933,
				"y": -0.5284721885,
				"z": 0.0924657476,
				"element": "H" 
			}
		],
		 "valence_orbital": [ 
			{
				"type": "occ",
				"energy": -0.32959,
				"method": "rhf"
			},
			{
				"type": "occ",
				"energy": -0.25919,
				"method": "rhf"
			},
			{
				"type": "occ",
				"energy": -0.25537,
				"method": "rhf"
			},
			{
				"type": "occ",
				"energy": -0.24483,
				"method": "rhf"
			},
			{
				"type": "occ",
				"energy": -0.23999,
				"method": "rhf"
			},
			{
				"type": "unocc",
				"energy": -0.01029,
				"method": "rhf"
			},
			{
				"type": "unocc",
				"energy": -0.00766,
				"method": "rhf"
			},
			{
				"type": "unocc",
				"energy": 0.03444,
				"method": "rhf"
			},
			{
				"type": "unocc",
				"energy": 0.08034,
				"method": "rhf"
			},
			{
				"type": "unocc",
				"energy": 0.09411,
				"method": "rhf"
			}
		],
		"cosmo_sigma_profile": { 
			"-0.025": 0.0,
			"-0.024": 0.0,
			"-0.023": 0.0,
			"-0.022": 0.0,
			"-0.021": 0.0,
			"-0.02": 0.0,
			"-0.019": 0.0,
			"-0.018": 0.0,
			"-0.017": 0.0,
			"-0.016": 0.0,
			"-0.015": 0.0,
			"-0.014": 0.613159912018,
			"-0.013": 1.36013399899,
			"-0.012": 0.756724920443,
			"-0.011": 0.7158903571,
			"-0.01": 1.27056308002,
			"-0.009": 1.13786647203,
			"-0.008": 0.739125266646,
			"-0.007": 1.19255254292,
			"-0.006": 5.76458843448,
			"-0.005": 20.0467457976,
			"-0.004": 26.4819365766,
			"-0.003": 24.9699921392,
			"-0.002": 17.3410883176,
			"-0.001": 16.24421863,
			"0.0": 11.8787662046,
			"0.001": 8.50599561867,
			"0.002": 7.56377931107,
			"0.003": 9.73377825395,
			"0.004": 9.84277267747,
			"0.005": 9.28638212621,
			"0.006": 8.36649405006,
			"0.007": 1.8833362953,
			"0.008": 1.38487164433,
			"0.009": 1.59669180177,
			"0.01": 1.21383824996,
			"0.011": 0.734249164658,
			"0.012": 1.87700110982,
			"0.013": 3.79527557582,
			"0.014": 6.08642571753,
			"0.015": 2.60782348327,
			"0.016": 0.0629362889468,
			"0.017": 0.0,
			"0.018": 0.0,
			"0.019": 0.0,
			"0.02": 0.0,
			"0.021": 0.0,
			"0.022": 0.0,
			"0.023": 0.0,
			"0.024": 0.0,
			"0.025": 0.0
		}
	}
}
