{
	 "smiles": "CCOC(=O)CC(O)C(F)(F)F", 
	 "Tm": 296.15, 
	 "num_atms": 21, 
	 "gaussian": { 
		 "optdone": 1, 
		 "sigma_profile": "yes", 
		 "theory": "DFT", 
		 "functional": "B3LYP", 
		 "basiset": "6-31G**", 
		 "properties": { 
			 "R2extent": 2916.6883, 
			 "electric_dipole_moment_norm": 4.20445267425, 
			 "electric_quadrupole_moment_norm": 8.82658729635, 
			 "total_energy": -759.265923862, 
			 "HOMO_LUMO_gap": 0.27709, 
			 "cosmo_polarized_energy": -12.9, 
			 "cosmo_cavitation_energy": 26.33, 
			 "cosmo_dispersion_energy": -18.15, 
			 "cosmo_repulsion_energy": 1.45, 
			 "cosmo_total_nonelectrostatic_energy": 9.63, 
			 "SMD_solvation_energy": 6.7 
		},
		"coords": [
			{
				"x": -1.5603692788,
				"y": -1.3027565685,
				"z": -2.5052399051,
				"element": "C" 
			},
			{
				"x": -1.9439821315,
				"y": -0.6310323478,
				"z": -1.1958385372,
				"element": "C" 
			},
			{
				"x": -0.9581312923,
				"y": 0.3566068927,
				"z": -0.8004564759,
				"element": "O" 
			},
			{
				"x": 0.1052058567,
				"y": -0.1000449742,
				"z": -0.0990735254,
				"element": "C" 
			},
			{
				"x": 0.2917846089,
				"y": -1.2628047919,
				"z": 0.1783494515,
				"element": "O" 
			},
			{
				"x": 1.0504220565,
				"y": 1.0364645371,
				"z": 0.2502448196,
				"element": "C" 
			},
			{
				"x": 0.3921882538,
				"y": 2.2846798251,
				"z": 0.864887265,
				"element": "C" 
			},
			{
				"x": 1.3226655272,
				"y": 3.3446119448,
				"z": 0.9868339879,
				"element": "O" 
			},
			{
				"x": -0.1182076738,
				"y": 2.0161669362,
				"z": 2.2796339516,
				"element": "C" 
			},
			{
				"x": -0.9977750594,
				"y": 0.9856845443,
				"z": 2.2705866577,
				"element": "F" 
			},
			{
				"x": 0.881540196,
				"y": 1.6928388407,
				"z": 3.1191346622,
				"element": "F" 
			},
			{
				"x": -0.7532667536,
				"y": 3.0891479386,
				"z": 2.7808828831,
				"element": "F" 
			},
			{
				"x": -1.4146425708,
				"y": -0.5618759676,
				"z": -3.2970536043,
				"element": "H" 
			},
			{
				"x": -2.3565834331,
				"y": -1.9864147165,
				"z": -2.8179724251,
				"element": "H" 
			},
			{
				"x": -0.6409554419,
				"y": -1.8807315644,
				"z": -2.3850890934,
				"element": "H" 
			},
			{
				"x": -2.0467093999,
				"y": -1.3624527114,
				"z": -0.391144964,
				"element": "H" 
			},
			{
				"x": -2.8723221089,
				"y": -0.0631223524,
				"z": -1.2918620614,
				"element": "H" 
			},
			{
				"x": 1.5390735575,
				"y": 1.3546667121,
				"z": -0.6784542886,
				"element": "H" 
			},
			{
				"x": 1.8217647237,
				"y": 0.6501828219,
				"z": 0.9182803135,
				"element": "H" 
			},
			{
				"x": -0.48525614,
				"y": 2.5700711818,
				"z": 0.2725540594,
				"element": "H" 
			},
			{
				"x": 1.3675565035,
				"y": 3.8073138193,
				"z": 0.1418968289,
				"element": "H" 
			}
		],
		 "valence_orbital": [ 
			{
				"type": "occ",
				"energy": -0.35005,
				"method": "rhf"
			},
			{
				"type": "occ",
				"energy": -0.34609,
				"method": "rhf"
			},
			{
				"type": "occ",
				"energy": -0.30829,
				"method": "rhf"
			},
			{
				"type": "occ",
				"energy": -0.30123,
				"method": "rhf"
			},
			{
				"type": "occ",
				"energy": -0.27266,
				"method": "rhf"
			},
			{
				"type": "unocc",
				"energy": 0.00443,
				"method": "rhf"
			},
			{
				"type": "unocc",
				"energy": 0.04865,
				"method": "rhf"
			},
			{
				"type": "unocc",
				"energy": 0.09731,
				"method": "rhf"
			},
			{
				"type": "unocc",
				"energy": 0.10717,
				"method": "rhf"
			},
			{
				"type": "unocc",
				"energy": 0.11614,
				"method": "rhf"
			}
		],
		"cosmo_sigma_profile": { 
			"-0.025": 0.0,
			"-0.024": 0.0,
			"-0.023": 0.0,
			"-0.022": 0.0,
			"-0.021": 0.0,
			"-0.02": 0.0,
			"-0.019": 0.0,
			"-0.018": 0.336508147353,
			"-0.017": 1.09305474382,
			"-0.016": 1.56836213254,
			"-0.015": 1.11859501543,
			"-0.014": 0.805336401181,
			"-0.013": 1.00848746212,
			"-0.012": 1.18375990863,
			"-0.011": 1.11299545714,
			"-0.01": 1.39297470861,
			"-0.009": 1.56981217166,
			"-0.008": 3.8894340681,
			"-0.007": 3.92761020167,
			"-0.006": 6.07468512377,
			"-0.005": 9.06966689294,
			"-0.004": 14.9735643342,
			"-0.003": 15.6420671177,
			"-0.002": 13.8796049343,
			"-0.001": 14.2498301111,
			"0.0": 15.3414382112,
			"0.001": 12.0653877626,
			"0.002": 22.4647654487,
			"0.003": 25.5912901428,
			"0.004": 5.98545839377,
			"0.005": 4.79303049081,
			"0.006": 4.44162501959,
			"0.007": 3.4177984237,
			"0.008": 3.33645432219,
			"0.009": 2.87622251164,
			"0.01": 3.54700351539,
			"0.011": 4.81584554477,
			"0.012": 4.6133365368,
			"0.013": 0.519392488724,
			"0.014": 0.0,
			"0.015": 0.0,
			"0.016": 0.0,
			"0.017": 0.0,
			"0.018": 0.0,
			"0.019": 0.0,
			"0.02": 0.0,
			"0.021": 0.0,
			"0.022": 0.0,
			"0.023": 0.0,
			"0.024": 0.0,
			"0.025": 0.0
		}
	}
}
