{
	 "smiles": "CC(C)(C1=NN=C(N)S1)C1=CC=CC=C1", 
	 "Tm": 423.15, 
	 "num_atms": 28, 
	 "gaussian": { 
		 "optdone": 1, 
		 "sigma_profile": "yes", 
		 "theory": "DFT", 
		 "functional": "B3LYP", 
		 "basiset": "6-31G**", 
		 "properties": { 
			 "R2extent": 3965.9324, 
			 "electric_dipole_moment_norm": 2.97861717748, 
			 "electric_quadrupole_moment_norm": 14.6129383459, 
			 "total_energy": -989.426860756, 
			 "HOMO_LUMO_gap": 0.21001, 
			 "cosmo_polarized_energy": -14.82, 
			 "cosmo_cavitation_energy": 32.33, 
			 "cosmo_dispersion_energy": -23.19, 
			 "cosmo_repulsion_energy": 1.78, 
			 "cosmo_total_nonelectrostatic_energy": 10.91, 
			 "SMD_solvation_energy": 3.49 
		},
		"coords": [
			{
				"x": 0.6748902473,
				"y": -2.1413415103,
				"z": -1.0773201555,
				"element": "C" 
			},
			{
				"x": -0.4004881953,
				"y": -1.7448770997,
				"z": -0.0410925048,
				"element": "C" 
			},
			{
				"x": -1.2776859957,
				"y": -2.9871210326,
				"z": 0.249673209,
				"element": "C" 
			},
			{
				"x": 0.2919882406,
				"y": -1.3183984621,
				"z": 1.2440427039,
				"element": "C" 
			},
			{
				"x": 0.0595547496,
				"y": -1.8187365876,
				"z": 2.4155350892,
				"element": "N" 
			},
			{
				"x": 0.7826218351,
				"y": -1.2546761403,
				"z": 3.4355704328,
				"element": "N" 
			},
			{
				"x": 1.5864393586,
				"y": -0.3155455716,
				"z": 3.0151600929,
				"element": "C" 
			},
			{
				"x": 2.4732853671,
				"y": 0.3405527129,
				"z": 3.8366305044,
				"element": "N" 
			},
			{
				"x": 1.5196246868,
				"y": -0.0272315334,
				"z": 1.2812591912,
				"element": "S" 
			},
			{
				"x": -1.3065817794,
				"y": -0.5944334353,
				"z": -0.5307755372,
				"element": "C" 
			},
			{
				"x": -1.291897942,
				"y": -0.1272745177,
				"z": -1.8506453587,
				"element": "C" 
			},
			{
				"x": -2.1590447141,
				"y": 0.8893124439,
				"z": -2.2624368175,
				"element": "C" 
			},
			{
				"x": -3.0562871652,
				"y": 1.4584770947,
				"z": -1.3611573191,
				"element": "C" 
			},
			{
				"x": -3.0798933127,
				"y": 1.0032253999,
				"z": -0.0404732175,
				"element": "C" 
			},
			{
				"x": -2.214676392,
				"y": -0.0094838816,
				"z": 0.3674310661,
				"element": "C" 
			},
			{
				"x": 0.2099062368,
				"y": -2.5438717959,
				"z": -1.9820409191,
				"element": "H" 
			},
			{
				"x": 1.3206542196,
				"y": -2.9184723382,
				"z": -0.6592886594,
				"element": "H" 
			},
			{
				"x": 1.3066904662,
				"y": -1.2956676729,
				"z": -1.3656718628,
				"element": "H" 
			},
			{
				"x": -0.6630182212,
				"y": -3.8185265354,
				"z": 0.6048398873,
				"element": "H" 
			},
			{
				"x": -1.7880099785,
				"y": -3.288133463,
				"z": -0.6701295232,
				"element": "H" 
			},
			{
				"x": -2.0273768727,
				"y": -2.7779768297,
				"z": 1.0137980209,
				"element": "H" 
			},
			{
				"x": 2.2857679441,
				"y": 0.1730617354,
				"z": 4.8174888372,
				"element": "H" 
			},
			{
				"x": 2.6648897253,
				"y": 1.3079532227,
				"z": 3.6184971233,
				"element": "H" 
			},
			{
				"x": -0.6044215343,
				"y": -0.5498786113,
				"z": -2.574827983,
				"element": "H" 
			},
			{
				"x": -2.1273226119,
				"y": 1.23441245,
				"z": -3.2922321405,
				"element": "H" 
			},
			{
				"x": -3.728775626,
				"y": 2.2491353161,
				"z": -1.6812573929,
				"element": "H" 
			},
			{
				"x": -3.7719528676,
				"y": 1.4392713136,
				"z": 0.6746445962,
				"element": "H" 
			},
			{
				"x": -2.2364798685,
				"y": -0.3498546707,
				"z": 1.3989786368,
				"element": "H" 
			}
		],
		 "valence_orbital": [ 
			{
				"type": "occ",
				"energy": -0.28179,
				"method": "rhf"
			},
			{
				"type": "occ",
				"energy": -0.2539,
				"method": "rhf"
			},
			{
				"type": "occ",
				"energy": -0.2488,
				"method": "rhf"
			},
			{
				"type": "occ",
				"energy": -0.24397,
				"method": "rhf"
			},
			{
				"type": "occ",
				"energy": -0.2273,
				"method": "rhf"
			},
			{
				"type": "unocc",
				"energy": -0.01729,
				"method": "rhf"
			},
			{
				"type": "unocc",
				"energy": -0.00497,
				"method": "rhf"
			},
			{
				"type": "unocc",
				"energy": 0.00263,
				"method": "rhf"
			},
			{
				"type": "unocc",
				"energy": 0.0069,
				"method": "rhf"
			},
			{
				"type": "unocc",
				"energy": 0.05039,
				"method": "rhf"
			}
		],
		"cosmo_sigma_profile": { 
			"-0.025": 0.0,
			"-0.024": 0.0,
			"-0.023": 0.0,
			"-0.022": 0.0,
			"-0.021": 0.0,
			"-0.02": 0.0,
			"-0.019": 0.0,
			"-0.018": 0.0,
			"-0.017": 0.0,
			"-0.016": 0.0,
			"-0.015": 0.794425041095,
			"-0.014": 2.35966669097,
			"-0.013": 2.93771607871,
			"-0.012": 2.5174733997,
			"-0.011": 2.79171156998,
			"-0.01": 3.07590958496,
			"-0.009": 1.01019850851,
			"-0.008": 1.80527764418,
			"-0.007": 2.10099973425,
			"-0.006": 3.79003655375,
			"-0.005": 12.6563269901,
			"-0.004": 21.9552461335,
			"-0.003": 25.4276296031,
			"-0.002": 19.2380250614,
			"-0.001": 21.4015610942,
			"0.0": 25.6781542436,
			"0.001": 21.7988642342,
			"0.002": 14.2856603453,
			"0.003": 14.7502451445,
			"0.004": 12.3487727,
			"0.005": 10.9477335823,
			"0.006": 10.2620047242,
			"0.007": 2.90137328764,
			"0.008": 2.27400708809,
			"0.009": 2.89984592353,
			"0.01": 2.58136095146,
			"0.011": 3.27333476837,
			"0.012": 2.6435679072,
			"0.013": 3.56937762606,
			"0.014": 2.11771215068,
			"0.015": 1.41851338257,
			"0.016": 0.285176948913,
			"0.017": 0.0,
			"0.018": 0.0,
			"0.019": 0.0,
			"0.02": 0.0,
			"0.021": 0.0,
			"0.022": 0.0,
			"0.023": 0.0,
			"0.024": 0.0,
			"0.025": 0.0
		}
	}
}
