{
	 "smiles": "CC(C)(C)OC(=O)N1CCC(CC1)NC1=CC=CC=C1", 
	 "Tm": 409.15, 
	 "num_atms": 44, 
	 "gaussian": { 
		 "optdone": 1, 
		 "sigma_profile": "yes", 
		 "theory": "DFT", 
		 "functional": "B3LYP", 
		 "basiset": "6-31G**", 
		 "properties": { 
			 "R2extent": 10327.8435, 
			 "electric_dipole_moment_norm": 2.18091555316, 
			 "electric_quadrupole_moment_norm": 14.6129848084, 
			 "total_energy": -884.158399633, 
			 "HOMO_LUMO_gap": 0.19956, 
			 "cosmo_polarized_energy": -13.0, 
			 "cosmo_cavitation_energy": 43.97, 
			 "cosmo_dispersion_energy": -30.88, 
			 "cosmo_repulsion_energy": 2.38, 
			 "cosmo_total_nonelectrostatic_energy": 15.46, 
			 "SMD_solvation_energy": 6.44 
		},
		"coords": [
			{
				"x": 1.2427919238,
				"y": 2.8484628402,
				"z": 4.2590648623,
				"element": "C" 
			},
			{
				"x": 0.1928097936,
				"y": 1.7747151416,
				"z": 4.5650750321,
				"element": "C" 
			},
			{
				"x": 0.6097527582,
				"y": 0.9398611706,
				"z": 5.7792580209,
				"element": "C" 
			},
			{
				"x": -1.2039169234,
				"y": 2.3710761485,
				"z": 4.7717205337,
				"element": "C" 
			},
			{
				"x": 0.1597787081,
				"y": 0.7754101078,
				"z": 3.4874648806,
				"element": "O" 
			},
			{
				"x": -0.1593976232,
				"y": 1.1335604563,
				"z": 2.2165390435,
				"element": "C" 
			},
			{
				"x": -0.4703743876,
				"y": 2.2602202166,
				"z": 1.8517306518,
				"element": "O" 
			},
			{
				"x": -0.088639792,
				"y": 0.0536596264,
				"z": 1.3783043275,
				"element": "N" 
			},
			{
				"x": 0.2606553086,
				"y": -1.2963618026,
				"z": 1.8372918227,
				"element": "C" 
			},
			{
				"x": 0.7432647329,
				"y": -2.136977297,
				"z": 0.6539460851,
				"element": "C" 
			},
			{
				"x": -0.3375391608,
				"y": -2.296128416,
				"z": -0.4371585452,
				"element": "C" 
			},
			{
				"x": -1.2417083607,
				"y": -1.0286954542,
				"z": -0.4965464178,
				"element": "C" 
			},
			{
				"x": -0.5086281021,
				"y": 0.2249227045,
				"z": -0.0174669783,
				"element": "C" 
			},
			{
				"x": 0.325987342,
				"y": -2.6281907346,
				"z": -1.6912356245,
				"element": "N" 
			},
			{
				"x": -0.3514154173,
				"y": -3.0428504836,
				"z": -2.8361825721,
				"element": "C" 
			},
			{
				"x": -1.6760279536,
				"y": -3.5193764956,
				"z": -2.8084372615,
				"element": "C" 
			},
			{
				"x": -2.2856555518,
				"y": -3.9775798782,
				"z": -3.9774647332,
				"element": "C" 
			},
			{
				"x": -1.608887605,
				"y": -3.9675156356,
				"z": -5.1962681706,
				"element": "C" 
			},
			{
				"x": -0.2959076454,
				"y": -3.4877070052,
				"z": -5.2310847645,
				"element": "C" 
			},
			{
				"x": 0.3248269239,
				"y": -3.0318705315,
				"z": -4.0738936848,
				"element": "C" 
			},
			{
				"x": 0.9594321283,
				"y": 3.4317446375,
				"z": 3.3829147987,
				"element": "H" 
			},
			{
				"x": 2.2179161853,
				"y": 2.3848351859,
				"z": 4.0777648781,
				"element": "H" 
			},
			{
				"x": 1.3416855951,
				"y": 3.5210905688,
				"z": 5.1173875504,
				"element": "H" 
			},
			{
				"x": 1.5901610373,
				"y": 0.4824020487,
				"z": 5.6162297515,
				"element": "H" 
			},
			{
				"x": 0.6674210618,
				"y": 1.573202921,
				"z": 6.6695170683,
				"element": "H" 
			},
			{
				"x": -0.1157861732,
				"y": 0.1430323611,
				"z": 5.9674398036,
				"element": "H" 
			},
			{
				"x": -1.5139864044,
				"y": 2.9455055932,
				"z": 3.8988431333,
				"element": "H" 
			},
			{
				"x": -1.9333415637,
				"y": 1.5745993948,
				"z": 4.9509648736,
				"element": "H" 
			},
			{
				"x": -1.1975576599,
				"y": 3.0286455527,
				"z": 5.6472530366,
				"element": "H" 
			},
			{
				"x": 1.0448473579,
				"y": -1.2205932408,
				"z": 2.5920205486,
				"element": "H" 
			},
			{
				"x": -0.6007319746,
				"y": -1.7809028284,
				"z": 2.3219988841,
				"element": "H" 
			},
			{
				"x": 1.6246326031,
				"y": -1.6431065531,
				"z": 0.222798395,
				"element": "H" 
			},
			{
				"x": 1.0759189317,
				"y": -3.1187036464,
				"z": 1.0035670673,
				"element": "H" 
			},
			{
				"x": -0.9663056183,
				"y": -3.1526707222,
				"z": -0.1680327711,
				"element": "H" 
			},
			{
				"x": -1.6056249841,
				"y": -0.883587511,
				"z": -1.5180703329,
				"element": "H" 
			},
			{
				"x": -2.1246788761,
				"y": -1.1767641375,
				"z": 0.1372696587,
				"element": "H" 
			},
			{
				"x": -1.1465082979,
				"y": 1.1083035548,
				"z": -0.064490585,
				"element": "H" 
			},
			{
				"x": 0.3617469356,
				"y": 0.4275489962,
				"z": -0.6600005252,
				"element": "H" 
			},
			{
				"x": 1.1546640546,
				"y": -2.0803047719,
				"z": -1.8812021764,
				"element": "H" 
			},
			{
				"x": -2.2338983565,
				"y": -3.535516983,
				"z": -1.8787290642,
				"element": "H" 
			},
			{
				"x": -3.3086496828,
				"y": -4.34123383,
				"z": -3.9276751353,
				"element": "H" 
			},
			{
				"x": -2.0925396914,
				"y": -4.3213355921,
				"z": -6.10117749,
				"element": "H" 
			},
			{
				"x": 0.2517887321,
				"y": -3.4668282729,
				"z": -6.1695067174,
				"element": "H" 
			},
			{
				"x": 1.3490256918,
				"y": -2.6669974036,
				"z": -4.1146411581,
				"element": "H" 
			}
		],
		 "valence_orbital": [ 
			{
				"type": "occ",
				"energy": -0.28308,
				"method": "rhf"
			},
			{
				"type": "occ",
				"energy": -0.25593,
				"method": "rhf"
			},
			{
				"type": "occ",
				"energy": -0.24276,
				"method": "rhf"
			},
			{
				"type": "occ",
				"energy": -0.23213,
				"method": "rhf"
			},
			{
				"type": "occ",
				"energy": -0.19351,
				"method": "rhf"
			},
			{
				"type": "unocc",
				"energy": 0.00605,
				"method": "rhf"
			},
			{
				"type": "unocc",
				"energy": 0.02087,
				"method": "rhf"
			},
			{
				"type": "unocc",
				"energy": 0.0567,
				"method": "rhf"
			},
			{
				"type": "unocc",
				"energy": 0.07049,
				"method": "rhf"
			},
			{
				"type": "unocc",
				"energy": 0.07934,
				"method": "rhf"
			}
		],
		"cosmo_sigma_profile": { 
			"-0.025": 0.0,
			"-0.024": 0.0,
			"-0.023": 0.0,
			"-0.022": 0.0,
			"-0.021": 0.0,
			"-0.02": 0.0,
			"-0.019": 0.0,
			"-0.018": 0.0,
			"-0.017": 0.0,
			"-0.016": 0.0,
			"-0.015": 0.0,
			"-0.014": 0.0,
			"-0.013": 0.0,
			"-0.012": 0.39527294276,
			"-0.011": 1.27564070805,
			"-0.01": 1.47315863981,
			"-0.009": 2.21110826823,
			"-0.008": 1.75156990389,
			"-0.007": 1.85349923244,
			"-0.006": 4.07500810654,
			"-0.005": 12.0073201831,
			"-0.004": 34.8165868087,
			"-0.003": 46.7339267833,
			"-0.002": 39.8543121429,
			"-0.001": 33.9957817962,
			"0.0": 35.6158968813,
			"0.001": 32.8834413709,
			"0.002": 16.3508184322,
			"0.003": 10.9893333252,
			"0.004": 12.2121503755,
			"0.005": 11.5098278376,
			"0.006": 12.4397414804,
			"0.007": 11.7249605747,
			"0.008": 6.66403915934,
			"0.009": 2.0636088186,
			"0.01": 1.57805529319,
			"0.011": 1.6886863008,
			"0.012": 1.80435572482,
			"0.013": 2.33301290984,
			"0.014": 2.61834914922,
			"0.015": 0.187158840484,
			"0.016": 0.0,
			"0.017": 0.0,
			"0.018": 0.0,
			"0.019": 0.0,
			"0.02": 0.0,
			"0.021": 0.0,
			"0.022": 0.0,
			"0.023": 0.0,
			"0.024": 0.0,
			"0.025": 0.0
		}
	}
}
