{
	 "smiles": "CC(C)C1=CC=C(C=NO)C=C1", 
	 "Tm": 338.15, 
	 "num_atms": 25, 
	 "gaussian": { 
		 "optdone": 1, 
		 "sigma_profile": "yes", 
		 "theory": "DFT", 
		 "functional": "B3LYP", 
		 "basiset": "6-31G**", 
		 "properties": { 
			 "R2extent": 3151.2011, 
			 "electric_dipole_moment_norm": 1.00302905741, 
			 "electric_quadrupole_moment_norm": 7.74899205833, 
			 "total_energy": -518.829251443, 
			 "HOMO_LUMO_gap": 0.18114, 
			 "cosmo_polarized_energy": -8.14, 
			 "cosmo_cavitation_energy": 28.55, 
			 "cosmo_dispersion_energy": -20.42, 
			 "cosmo_repulsion_energy": 1.65, 
			 "cosmo_total_nonelectrostatic_energy": 9.79, 
			 "SMD_solvation_energy": 5.45 
		},
		"coords": [
			{
				"x": -2.3761450473,
				"y": 1.3909955537,
				"z": 2.386096071,
				"element": "C" 
			},
			{
				"x": -1.9785009862,
				"y": 0.0055859168,
				"z": 1.8416971339,
				"element": "C" 
			},
			{
				"x": -1.5408493662,
				"y": -0.9326436138,
				"z": 2.982772223,
				"element": "C" 
			},
			{
				"x": -0.9178002489,
				"y": 0.1076178868,
				"z": 0.7547546147,
				"element": "C" 
			},
			{
				"x": -1.1840748555,
				"y": -0.324539527,
				"z": -0.5494168559,
				"element": "C" 
			},
			{
				"x": -0.2187354785,
				"y": -0.2352878761,
				"z": -1.5517071588,
				"element": "C" 
			},
			{
				"x": 1.0508826603,
				"y": 0.292422442,
				"z": -1.278442889,
				"element": "C" 
			},
			{
				"x": 2.040714811,
				"y": 0.3710370598,
				"z": -2.3557196762,
				"element": "C" 
			},
			{
				"x": 3.2155097589,
				"y": 0.8449685447,
				"z": -2.1578623058,
				"element": "N" 
			},
			{
				"x": 3.9711776127,
				"y": 0.8128176807,
				"z": -3.3375764105,
				"element": "O" 
			},
			{
				"x": 1.3257732192,
				"y": 0.7290174767,
				"z": 0.0306784051,
				"element": "C" 
			},
			{
				"x": 0.3581486251,
				"y": 0.6361553461,
				"z": 1.0222097088,
				"element": "C" 
			},
			{
				"x": -3.1808429283,
				"y": 1.2992860698,
				"z": 3.1237892203,
				"element": "H" 
			},
			{
				"x": -2.7227028896,
				"y": 2.0483993078,
				"z": 1.582751021,
				"element": "H" 
			},
			{
				"x": -1.529792737,
				"y": 1.8829413873,
				"z": 2.8778374323,
				"element": "H" 
			},
			{
				"x": -2.8712122741,
				"y": -0.4343960786,
				"z": 1.3779786691,
				"element": "H" 
			},
			{
				"x": -0.6573949873,
				"y": -0.543596924,
				"z": 3.5007221728,
				"element": "H" 
			},
			{
				"x": -1.2931025918,
				"y": -1.9290741012,
				"z": 2.604097403,
				"element": "H" 
			},
			{
				"x": -2.3405624541,
				"y": -1.0378228559,
				"z": 3.7240790698,
				"element": "H" 
			},
			{
				"x": -2.1619570102,
				"y": -0.7374780036,
				"z": -0.7850587108,
				"element": "H" 
			},
			{
				"x": -0.4510777132,
				"y": -0.5781907434,
				"z": -2.5570396471,
				"element": "H" 
			},
			{
				"x": 1.7538226846,
				"y": 0.0119278044,
				"z": -3.3478117292,
				"element": "H" 
			},
			{
				"x": 4.8149812671,
				"y": 1.1894955333,
				"z": -3.0544892392,
				"element": "H" 
			},
			{
				"x": 2.30542135,
				"y": 1.1391103671,
				"z": 0.252688732,
				"element": "H" 
			},
			{
				"x": 0.5981195791,
				"y": 0.9810513467,
				"z": 2.0245727459,
				"element": "H" 
			}
		],
		 "valence_orbital": [ 
			{
				"type": "occ",
				"energy": -0.32402,
				"method": "rhf"
			},
			{
				"type": "occ",
				"energy": -0.28255,
				"method": "rhf"
			},
			{
				"type": "occ",
				"energy": -0.27566,
				"method": "rhf"
			},
			{
				"type": "occ",
				"energy": -0.25108,
				"method": "rhf"
			},
			{
				"type": "occ",
				"energy": -0.21859,
				"method": "rhf"
			},
			{
				"type": "unocc",
				"energy": -0.03745,
				"method": "rhf"
			},
			{
				"type": "unocc",
				"energy": -0.00141,
				"method": "rhf"
			},
			{
				"type": "unocc",
				"energy": 0.05431,
				"method": "rhf"
			},
			{
				"type": "unocc",
				"energy": 0.07662,
				"method": "rhf"
			},
			{
				"type": "unocc",
				"energy": 0.08882,
				"method": "rhf"
			}
		],
		"cosmo_sigma_profile": { 
			"-0.025": 0.0,
			"-0.024": 0.0,
			"-0.023": 0.0,
			"-0.022": 0.0,
			"-0.021": 0.0,
			"-0.02": 0.0,
			"-0.019": 0.0,
			"-0.018": 0.164614039693,
			"-0.017": 0.89785681951,
			"-0.016": 1.07431631771,
			"-0.015": 0.937159414691,
			"-0.014": 0.768585897823,
			"-0.013": 0.498684395632,
			"-0.012": 0.598419789524,
			"-0.011": 0.470630246788,
			"-0.01": 0.503521062828,
			"-0.009": 1.17664229086,
			"-0.008": 0.749817346522,
			"-0.007": 3.88960716323,
			"-0.006": 5.00692404849,
			"-0.005": 9.78111493716,
			"-0.004": 13.46481118,
			"-0.003": 19.8412042233,
			"-0.002": 21.3556850954,
			"-0.001": 21.9175140437,
			"0.0": 20.9041087056,
			"0.001": 25.1875290504,
			"0.002": 14.3899946701,
			"0.003": 12.9748944898,
			"0.004": 13.0327556411,
			"0.005": 14.4936315046,
			"0.006": 6.39356826006,
			"0.007": 3.18541146997,
			"0.008": 1.91826854933,
			"0.009": 3.31813057695,
			"0.01": 3.52256918569,
			"0.011": 2.09559612582,
			"0.012": 0.133310418705,
			"0.013": 0.0,
			"0.014": 0.0,
			"0.015": 0.0,
			"0.016": 0.0,
			"0.017": 0.0,
			"0.018": 0.0,
			"0.019": 0.0,
			"0.02": 0.0,
			"0.021": 0.0,
			"0.022": 0.0,
			"0.023": 0.0,
			"0.024": 0.0,
			"0.025": 0.0
		}
	}
}
