{
	 "smiles": "CN1C=CC=C1C1=CSC(N)=N1", 
	 "Tm": 353.15, 
	 "num_atms": 21, 
	 "gaussian": { 
		 "optdone": 1, 
		 "sigma_profile": "yes", 
		 "theory": "DFT", 
		 "functional": "B3LYP", 
		 "basiset": "6-31G**", 
		 "properties": { 
			 "R2extent": 2975.0614, 
			 "electric_dipole_moment_norm": 1.82786448349, 
			 "electric_quadrupole_moment_norm": 18.7267218367, 
			 "total_energy": -872.700334341, 
			 "HOMO_LUMO_gap": 0.16991, 
			 "cosmo_polarized_energy": -13.93, 
			 "cosmo_cavitation_energy": 26.29, 
			 "cosmo_dispersion_energy": -20.14, 
			 "cosmo_repulsion_energy": 1.54, 
			 "cosmo_total_nonelectrostatic_energy": 7.69, 
			 "SMD_solvation_energy": 3.35 
		},
		"coords": [
			{
				"x": 0.7050045503,
				"y": -2.2491658146,
				"z": 0.06886875,
				"element": "C" 
			},
			{
				"x": 1.0683664762,
				"y": -0.8498748906,
				"z": 0.1884832641,
				"element": "N" 
			},
			{
				"x": 2.3080816844,
				"y": -0.4192981477,
				"z": 0.6007289387,
				"element": "C" 
			},
			{
				"x": 2.335695897,
				"y": 0.9595294523,
				"z": 0.5671486271,
				"element": "C" 
			},
			{
				"x": 1.066512565,
				"y": 1.3880054147,
				"z": 0.1142081196,
				"element": "C" 
			},
			{
				"x": 0.2873203443,
				"y": 0.2596098926,
				"z": -0.1143210287,
				"element": "C" 
			},
			{
				"x": -1.0924495203,
				"y": 0.2395065791,
				"z": -0.582085309,
				"element": "C" 
			},
			{
				"x": -1.9794735644,
				"y": -0.8070689659,
				"z": -0.6417331449,
				"element": "C" 
			},
			{
				"x": -3.5194577029,
				"y": -0.2760855678,
				"z": -1.2789263808,
				"element": "S" 
			},
			{
				"x": -2.8413697036,
				"y": 1.3539630405,
				"z": -1.3909663456,
				"element": "C" 
			},
			{
				"x": -3.5727331882,
				"y": 2.3891163065,
				"z": -1.932173763,
				"element": "N" 
			},
			{
				"x": -1.6076039643,
				"y": 1.4625067206,
				"z": -1.0074217786,
				"element": "N" 
			},
			{
				"x": -0.0238728636,
				"y": -2.5459536198,
				"z": 0.8318359763,
				"element": "H" 
			},
			{
				"x": 0.2883364408,
				"y": -2.4591357246,
				"z": -0.9202905286,
				"element": "H" 
			},
			{
				"x": 1.6036623038,
				"y": -2.8544791941,
				"z": 0.2003718922,
				"element": "H" 
			},
			{
				"x": 3.067477987,
				"y": -1.1360215615,
				"z": 0.8788193769,
				"element": "H" 
			},
			{
				"x": 3.1771877781,
				"y": 1.5826176229,
				"z": 0.8354306244,
				"element": "H" 
			},
			{
				"x": 0.7243673805,
				"y": 2.4000526547,
				"z": -0.0392468099,
				"element": "H" 
			},
			{
				"x": -1.8649088922,
				"y": -1.8300510081,
				"z": -0.325587905,
				"element": "H" 
			},
			{
				"x": -4.5672751333,
				"y": 2.3813961911,
				"z": -1.7551167192,
				"element": "H" 
			},
			{
				"x": -3.1395688744,
				"y": 3.2908306195,
				"z": -1.779125856,
				"element": "H" 
			}
		],
		 "valence_orbital": [ 
			{
				"type": "occ",
				"energy": -0.27569,
				"method": "rhf"
			},
			{
				"type": "occ",
				"energy": -0.26772,
				"method": "rhf"
			},
			{
				"type": "occ",
				"energy": -0.22671,
				"method": "rhf"
			},
			{
				"type": "occ",
				"energy": -0.22633,
				"method": "rhf"
			},
			{
				"type": "occ",
				"energy": -0.17928,
				"method": "rhf"
			},
			{
				"type": "unocc",
				"energy": -0.00937,
				"method": "rhf"
			},
			{
				"type": "unocc",
				"energy": 0.01367,
				"method": "rhf"
			},
			{
				"type": "unocc",
				"energy": 0.03331,
				"method": "rhf"
			},
			{
				"type": "unocc",
				"energy": 0.07366,
				"method": "rhf"
			},
			{
				"type": "unocc",
				"energy": 0.07945,
				"method": "rhf"
			}
		],
		"cosmo_sigma_profile": { 
			"-0.025": 0.0,
			"-0.024": 0.0,
			"-0.023": 0.0,
			"-0.022": 0.0,
			"-0.021": 0.0,
			"-0.02": 0.0,
			"-0.019": 0.0,
			"-0.018": 0.0,
			"-0.017": 0.0,
			"-0.016": 0.0,
			"-0.015": 0.349151090378,
			"-0.014": 1.68920957314,
			"-0.013": 2.3401794774,
			"-0.012": 2.85382923448,
			"-0.011": 2.47452149521,
			"-0.01": 1.87570812547,
			"-0.009": 2.92180028297,
			"-0.008": 4.55209214245,
			"-0.007": 7.96956235853,
			"-0.006": 10.0670285451,
			"-0.005": 11.4075751152,
			"-0.004": 13.5957225929,
			"-0.003": 13.5821174301,
			"-0.002": 12.5263747812,
			"-0.001": 9.95821534083,
			"0.0": 9.65560979741,
			"0.001": 11.5791687561,
			"0.002": 12.7405250471,
			"0.003": 13.1673068098,
			"0.004": 15.6796243258,
			"0.005": 14.8928077104,
			"0.006": 8.86474292373,
			"0.007": 7.67335147681,
			"0.008": 8.61705802874,
			"0.009": 4.86741293688,
			"0.01": 2.15430512743,
			"0.011": 2.05969939236,
			"0.012": 1.27622415049,
			"0.013": 0.624933727403,
			"0.014": 0.0537115030796,
			"0.015": 0.0,
			"0.016": 0.0,
			"0.017": 0.0,
			"0.018": 0.0,
			"0.019": 0.0,
			"0.02": 0.0,
			"0.021": 0.0,
			"0.022": 0.0,
			"0.023": 0.0,
			"0.024": 0.0,
			"0.025": 0.0
		}
	}
}
