{
	 "smiles": "[O-][N+](=O)C1=CC=C(C=C1)S(=O)(=O)OC1=CC=CC=C1", 
	 "Tm": 388.15, 
	 "num_atms": 28, 
	 "gaussian": { 
		 "optdone": 1, 
		 "sigma_profile": "yes", 
		 "theory": "DFT", 
		 "functional": "B3LYP", 
		 "basiset": "6-31G**", 
		 "properties": { 
			 "R2extent": 6188.2458, 
			 "electric_dipole_moment_norm": 3.17395548961, 
			 "electric_quadrupole_moment_norm": 22.0209091175, 
			 "total_energy": -1291.57809334, 
			 "HOMO_LUMO_gap": 0.14884, 
			 "cosmo_polarized_energy": -14.53, 
			 "cosmo_cavitation_energy": 35.5, 
			 "cosmo_dispersion_energy": -25.18, 
			 "cosmo_repulsion_energy": 1.89, 
			 "cosmo_total_nonelectrostatic_energy": 12.22, 
			 "SMD_solvation_energy": 7.38 
		},
		"coords": [
			{
				"x": -1.2348736618,
				"y": 3.1633033073,
				"z": 3.0883559542,
				"element": "O" 
			},
			{
				"x": -1.9827934168,
				"y": 3.0000331031,
				"z": 2.1271523692,
				"element": "N" 
			},
			{
				"x": -2.8470718137,
				"y": 3.7925694643,
				"z": 1.7600469552,
				"element": "O" 
			},
			{
				"x": -1.8288847374,
				"y": 1.7529686306,
				"z": 1.3492864305,
				"element": "C" 
			},
			{
				"x": -2.6647258435,
				"y": 1.5415071818,
				"z": 0.253836422,
				"element": "C" 
			},
			{
				"x": -2.5176442258,
				"y": 0.3677691347,
				"z": -0.4799006994,
				"element": "C" 
			},
			{
				"x": -1.5408655578,
				"y": -0.5544763625,
				"z": -0.0941982809,
				"element": "C" 
			},
			{
				"x": -0.712066876,
				"y": -0.3391598533,
				"z": 1.0091759139,
				"element": "C" 
			},
			{
				"x": -0.8580116637,
				"y": 0.8356615359,
				"z": 1.7438865793,
				"element": "C" 
			},
			{
				"x": -1.3478323338,
				"y": -2.0578542826,
				"z": -1.0523405938,
				"element": "S" 
			},
			{
				"x": -2.600413063,
				"y": -2.3516252595,
				"z": -1.7280770525,
				"element": "O" 
			},
			{
				"x": -0.6483978123,
				"y": -3.0389992326,
				"z": -0.2308238455,
				"element": "O" 
			},
			{
				"x": -0.3508762306,
				"y": -1.5582852075,
				"z": -2.2848426723,
				"element": "O" 
			},
			{
				"x": 1.0217361219,
				"y": -1.3805200707,
				"z": -2.047459653,
				"element": "C" 
			},
			{
				"x": 1.5192139111,
				"y": -0.0784289236,
				"z": -2.0717732939,
				"element": "C" 
			},
			{
				"x": 2.8919021237,
				"y": 0.1238373167,
				"z": -1.9214170393,
				"element": "C" 
			},
			{
				"x": 3.7462499162,
				"y": -0.9661571021,
				"z": -1.7418419847,
				"element": "C" 
			},
			{
				"x": 3.2284608536,
				"y": -2.2635962104,
				"z": -1.7200346108,
				"element": "C" 
			},
			{
				"x": 1.8594593568,
				"y": -2.4823338859,
				"z": -1.8779647965,
				"element": "C" 
			},
			{
				"x": -3.4093289174,
				"y": 2.2846107127,
				"z": -0.0018239617,
				"element": "H" 
			},
			{
				"x": -3.1567609902,
				"y": 0.1575469138,
				"z": -1.329992775,
				"element": "H" 
			},
			{
				"x": 0.0204398888,
				"y": -1.0861101969,
				"z": 1.2918791876,
				"element": "H" 
			},
			{
				"x": -0.2418873615,
				"y": 1.0475663286,
				"z": 2.6084304057,
				"element": "H" 
			},
			{
				"x": 0.8362578652,
				"y": 0.7509019647,
				"z": -2.2217199014,
				"element": "H" 
			},
			{
				"x": 3.2910664147,
				"y": 1.1333016267,
				"z": -1.9459716469,
				"element": "H" 
			},
			{
				"x": 4.8135689945,
				"y": -0.8056335005,
				"z": -1.6241959249,
				"element": "H" 
			},
			{
				"x": 3.8918727777,
				"y": -3.1125913741,
				"z": -1.5860082739,
				"element": "H" 
			},
			{
				"x": 1.439606281,
				"y": -3.4808057588,
				"z": -1.8673632111,
				"element": "H" 
			}
		],
		 "valence_orbital": [ 
			{
				"type": "occ",
				"energy": -0.30948,
				"method": "rhf"
			},
			{
				"type": "occ",
				"energy": -0.30668,
				"method": "rhf"
			},
			{
				"type": "occ",
				"energy": -0.30324,
				"method": "rhf"
			},
			{
				"type": "occ",
				"energy": -0.2709,
				"method": "rhf"
			},
			{
				"type": "occ",
				"energy": -0.2628,
				"method": "rhf"
			},
			{
				"type": "unocc",
				"energy": -0.11396,
				"method": "rhf"
			},
			{
				"type": "unocc",
				"energy": -0.05298,
				"method": "rhf"
			},
			{
				"type": "unocc",
				"energy": -0.04178,
				"method": "rhf"
			},
			{
				"type": "unocc",
				"energy": -0.02317,
				"method": "rhf"
			},
			{
				"type": "unocc",
				"energy": -0.02084,
				"method": "rhf"
			}
		],
		"cosmo_sigma_profile": { 
			"-0.025": 0.0,
			"-0.024": 0.0,
			"-0.023": 0.0,
			"-0.022": 0.0,
			"-0.021": 0.0,
			"-0.02": 0.0,
			"-0.019": 0.0,
			"-0.018": 0.0,
			"-0.017": 0.0,
			"-0.016": 0.0,
			"-0.015": 0.0,
			"-0.014": 0.0,
			"-0.013": 0.0,
			"-0.012": 0.0,
			"-0.011": 0.0,
			"-0.01": 0.160899536276,
			"-0.009": 4.369106929,
			"-0.008": 8.37714754254,
			"-0.007": 10.8517227178,
			"-0.006": 17.4583850548,
			"-0.005": 19.2819269055,
			"-0.004": 20.9355470806,
			"-0.003": 20.0808104793,
			"-0.002": 26.1578442892,
			"-0.001": 22.4028975256,
			"0.0": 15.335656742,
			"0.001": 14.1115856251,
			"0.002": 13.9738361066,
			"0.003": 15.1554698466,
			"0.004": 16.0202438814,
			"0.005": 8.977356096,
			"0.006": 10.0597747681,
			"0.007": 14.0613863214,
			"0.008": 12.3181012918,
			"0.009": 11.8233953211,
			"0.01": 4.44288878224,
			"0.011": 0.0,
			"0.012": 0.0,
			"0.013": 0.0,
			"0.014": 0.0,
			"0.015": 0.0,
			"0.016": 0.0,
			"0.017": 0.0,
			"0.018": 0.0,
			"0.019": 0.0,
			"0.02": 0.0,
			"0.021": 0.0,
			"0.022": 0.0,
			"0.023": 0.0,
			"0.024": 0.0,
			"0.025": 0.0
		}
	}
}
