{
	 "smiles": "O=C1CC(NC2=C(N1)C=CC=C2)C1=CC=CC=C1", 
	 "Tm": 436.15, 
	 "num_atms": 32, 
	 "gaussian": { 
		 "optdone": 1, 
		 "sigma_profile": "yes", 
		 "theory": "DFT", 
		 "functional": "B3LYP", 
		 "basiset": "6-31G**", 
		 "properties": { 
			 "R2extent": 5102.1569, 
			 "electric_dipole_moment_norm": 3.34948922823, 
			 "electric_quadrupole_moment_norm": 11.9466910553, 
			 "total_energy": -764.776191182, 
			 "HOMO_LUMO_gap": 0.19169, 
			 "cosmo_polarized_energy": -15.72, 
			 "cosmo_cavitation_energy": 34.78, 
			 "cosmo_dispersion_energy": -24.81, 
			 "cosmo_repulsion_energy": 1.9, 
			 "cosmo_total_nonelectrostatic_energy": 11.87, 
			 "SMD_solvation_energy": 5.7 
		},
		"coords": [
			{
				"x": 0.5728055933,
				"y": -2.506262191,
				"z": 1.9517022667,
				"element": "O" 
			},
			{
				"x": 0.1104611599,
				"y": -1.4917117427,
				"z": 1.4518141628,
				"element": "C" 
			},
			{
				"x": -0.9217844284,
				"y": -1.4967888217,
				"z": 0.3345924794,
				"element": "C" 
			},
			{
				"x": -0.3950769078,
				"y": -1.0092610785,
				"z": -1.0343818031,
				"element": "C" 
			},
			{
				"x": 0.3517404862,
				"y": 0.2497765628,
				"z": -0.8817291775,
				"element": "N" 
			},
			{
				"x": -0.040206052,
				"y": 1.2460750664,
				"z": 0.0355463116,
				"element": "C" 
			},
			{
				"x": 0.0435056011,
				"y": 1.0121644361,
				"z": 1.4283510892,
				"element": "C" 
			},
			{
				"x": 0.4540296461,
				"y": -0.2427851824,
				"z": 1.9252599698,
				"element": "N" 
			},
			{
				"x": -0.2160428937,
				"y": 2.0541218664,
				"z": 2.325199058,
				"element": "C" 
			},
			{
				"x": -0.5383051034,
				"y": 3.3314110043,
				"z": 1.8694237436,
				"element": "C" 
			},
			{
				"x": -0.6272179109,
				"y": 3.5695331838,
				"z": 0.4976515819,
				"element": "C" 
			},
			{
				"x": -0.3942958405,
				"y": 2.5309673344,
				"z": -0.4025400865,
				"element": "C" 
			},
			{
				"x": 0.4711537333,
				"y": -2.0506543709,
				"z": -1.7313941192,
				"element": "C" 
			},
			{
				"x": 1.8369160887,
				"y": -2.1748391216,
				"z": -1.447943896,
				"element": "C" 
			},
			{
				"x": 2.6005576203,
				"y": -3.1614705591,
				"z": -2.0723576431,
				"element": "C" 
			},
			{
				"x": 2.0111639864,
				"y": -4.0354421116,
				"z": -2.9881257134,
				"element": "C" 
			},
			{
				"x": 0.6514181479,
				"y": -3.915599814,
				"z": -3.2796276545,
				"element": "C" 
			},
			{
				"x": -0.1104201891,
				"y": -2.9267261063,
				"z": -2.6558669464,
				"element": "C" 
			},
			{
				"x": -1.7643411941,
				"y": -0.8617413222,
				"z": 0.6340301782,
				"element": "H" 
			},
			{
				"x": -1.2822844034,
				"y": -2.5209624902,
				"z": 0.2335715052,
				"element": "H" 
			},
			{
				"x": -1.2904240736,
				"y": -0.8565231598,
				"z": -1.6621308322,
				"element": "H" 
			},
			{
				"x": 0.5481426009,
				"y": 0.6498496784,
				"z": -1.7923002009,
				"element": "H" 
			},
			{
				"x": 1.0409800177,
				"y": -0.2632473318,
				"z": 2.7498494498,
				"element": "H" 
			},
			{
				"x": -0.1480031118,
				"y": 1.8524832424,
				"z": 3.3910601967,
				"element": "H" 
			},
			{
				"x": -0.7243015252,
				"y": 4.1289777195,
				"z": 2.5818312086,
				"element": "H" 
			},
			{
				"x": -0.8849695699,
				"y": 4.5568055266,
				"z": 0.1263669241,
				"element": "H" 
			},
			{
				"x": -0.4641242747,
				"y": 2.7135491095,
				"z": -1.4724356302,
				"element": "H" 
			},
			{
				"x": 2.2952129381,
				"y": -1.4873063392,
				"z": -0.7451263565,
				"element": "H" 
			},
			{
				"x": 3.6586699269,
				"y": -3.2482563133,
				"z": -1.8418950656,
				"element": "H" 
			},
			{
				"x": 2.6083086937,
				"y": -4.8015647781,
				"z": -3.4744523757,
				"element": "H" 
			},
			{
				"x": 0.1852211615,
				"y": -4.5856007963,
				"z": -3.9965918575,
				"element": "H" 
			},
			{
				"x": -1.1684899234,
				"y": -2.8322710996,
				"z": -2.8915507674,
				"element": "H" 
			}
		],
		 "valence_orbital": [ 
			{
				"type": "occ",
				"energy": -0.24952,
				"method": "rhf"
			},
			{
				"type": "occ",
				"energy": -0.24666,
				"method": "rhf"
			},
			{
				"type": "occ",
				"energy": -0.24063,
				"method": "rhf"
			},
			{
				"type": "occ",
				"energy": -0.23514,
				"method": "rhf"
			},
			{
				"type": "occ",
				"energy": -0.20602,
				"method": "rhf"
			},
			{
				"type": "unocc",
				"energy": -0.01433,
				"method": "rhf"
			},
			{
				"type": "unocc",
				"energy": -0.00506,
				"method": "rhf"
			},
			{
				"type": "unocc",
				"energy": -0.00085,
				"method": "rhf"
			},
			{
				"type": "unocc",
				"energy": 0.0044,
				"method": "rhf"
			},
			{
				"type": "unocc",
				"energy": 0.03558,
				"method": "rhf"
			}
		],
		"cosmo_sigma_profile": { 
			"-0.025": 0.0,
			"-0.024": 0.0,
			"-0.023": 0.0,
			"-0.022": 0.0,
			"-0.021": 0.0,
			"-0.02": 0.0,
			"-0.019": 0.0,
			"-0.018": 0.0,
			"-0.017": 0.0,
			"-0.016": 0.0,
			"-0.015": 0.068492714581,
			"-0.014": 0.753960632803,
			"-0.013": 1.21733908348,
			"-0.012": 1.72664612934,
			"-0.011": 2.57329769105,
			"-0.01": 2.37086421037,
			"-0.009": 2.71507888052,
			"-0.008": 2.66158987114,
			"-0.007": 3.76523859398,
			"-0.006": 11.1339596079,
			"-0.005": 24.144747352,
			"-0.004": 28.9798488064,
			"-0.003": 25.8995875713,
			"-0.002": 18.8915296637,
			"-0.001": 14.6377286973,
			"0.0": 14.7643251538,
			"0.001": 14.7531118425,
			"0.002": 14.3337983658,
			"0.003": 15.565620403,
			"0.004": 17.1800716881,
			"0.005": 17.8082226536,
			"0.006": 16.8584622834,
			"0.007": 4.40825447159,
			"0.008": 2.63738792252,
			"0.009": 2.26889631581,
			"0.01": 1.44223770892,
			"0.011": 1.41506321875,
			"0.012": 1.78988476604,
			"0.013": 4.89300883948,
			"0.014": 4.17740425722,
			"0.015": 0.580902973727,
			"0.016": 0.0,
			"0.017": 0.0,
			"0.018": 0.0,
			"0.019": 0.0,
			"0.02": 0.0,
			"0.021": 0.0,
			"0.022": 0.0,
			"0.023": 0.0,
			"0.024": 0.0,
			"0.025": 0.0
		}
	}
}
