{
	 "smiles": "FC(F)(F)C1=CC2=C(NC=C2)C=C1", 
	 "Tm": 342.15, 
	 "num_atms": 19, 
	 "gaussian": { 
		 "optdone": 1, 
		 "sigma_profile": "yes", 
		 "theory": "DFT", 
		 "functional": "B3LYP", 
		 "basiset": "6-31G**", 
		 "properties": { 
			 "R2extent": 4377.7482, 
			 "electric_dipole_moment_norm": 5.03570861746, 
			 "electric_quadrupole_moment_norm": 13.2146303297, 
			 "total_energy": -700.857659141, 
			 "HOMO_LUMO_gap": 0.19545, 
			 "cosmo_polarized_energy": -9.16, 
			 "cosmo_cavitation_energy": 24.55, 
			 "cosmo_dispersion_energy": -17.92, 
			 "cosmo_repulsion_energy": 1.34, 
			 "cosmo_total_nonelectrostatic_energy": 7.97, 
			 "SMD_solvation_energy": 5.31 
		},
		"coords": [
			{
				"x": -4.5713962146,
				"y": -0.6486214943,
				"z": 1.4390731297,
				"element": "F" 
			},
			{
				"x": -3.6300515752,
				"y": -1.058855714,
				"z": 2.3252632057,
				"element": "C" 
			},
			{
				"x": -3.6034722051,
				"y": -0.1456571539,
				"z": 3.3213916154,
				"element": "F" 
			},
			{
				"x": -4.0910269378,
				"y": -2.2183298456,
				"z": 2.8551138257,
				"element": "F" 
			},
			{
				"x": -2.2895368506,
				"y": -1.2389553279,
				"z": 1.6738384548,
				"element": "C" 
			},
			{
				"x": -1.2561999894,
				"y": -0.3456835538,
				"z": 1.9279452536,
				"element": "C" 
			},
			{
				"x": -0.0275654513,
				"y": -0.5272068179,
				"z": 1.2734710232,
				"element": "C" 
			},
			{
				"x": 0.116388979,
				"y": -1.6188922722,
				"z": 0.3706536541,
				"element": "C" 
			},
			{
				"x": 1.3997371041,
				"y": -1.568612984,
				"z": -0.1263923618,
				"element": "N" 
			},
			{
				"x": 2.064151993,
				"y": -0.4888731474,
				"z": 0.4297014349,
				"element": "C" 
			},
			{
				"x": 1.2275848971,
				"y": 0.1714296602,
				"z": 1.2893437777,
				"element": "C" 
			},
			{
				"x": -0.9246499118,
				"y": -2.5196377972,
				"z": 0.1140279946,
				"element": "C" 
			},
			{
				"x": -2.1263713483,
				"y": -2.3173824073,
				"z": 0.774193081,
				"element": "C" 
			},
			{
				"x": -1.4011175135,
				"y": 0.4732633919,
				"z": 2.6236603059,
				"element": "H" 
			},
			{
				"x": 1.7945573012,
				"y": -2.2152260903,
				"z": -0.7896083308,
				"element": "H" 
			},
			{
				"x": 3.0899227547,
				"y": -0.2811373589,
				"z": 0.1609232259,
				"element": "H" 
			},
			{
				"x": 1.4740690351,
				"y": 1.0515291993,
				"z": 1.8655164607,
				"element": "H" 
			},
			{
				"x": -0.7993463262,
				"y": -3.3503205606,
				"z": -0.5742550486,
				"element": "H" 
			},
			{
				"x": -2.9549777403,
				"y": -2.9974297261,
				"z": 0.607239298,
				"element": "H" 
			}
		],
		 "valence_orbital": [ 
			{
				"type": "occ",
				"energy": -0.34717,
				"method": "rhf"
			},
			{
				"type": "occ",
				"energy": -0.34244,
				"method": "rhf"
			},
			{
				"type": "occ",
				"energy": -0.28777,
				"method": "rhf"
			},
			{
				"type": "occ",
				"energy": -0.23433,
				"method": "rhf"
			},
			{
				"type": "occ",
				"energy": -0.2159,
				"method": "rhf"
			},
			{
				"type": "unocc",
				"energy": -0.02045,
				"method": "rhf"
			},
			{
				"type": "unocc",
				"energy": 0.00418,
				"method": "rhf"
			},
			{
				"type": "unocc",
				"energy": 0.05973,
				"method": "rhf"
			},
			{
				"type": "unocc",
				"energy": 0.07044,
				"method": "rhf"
			},
			{
				"type": "unocc",
				"energy": 0.108,
				"method": "rhf"
			}
		],
		"cosmo_sigma_profile": { 
			"-0.025": 0.0,
			"-0.024": 0.0,
			"-0.023": 0.0,
			"-0.022": 0.0,
			"-0.021": 0.0,
			"-0.02": 0.0,
			"-0.019": 0.0,
			"-0.018": 0.0,
			"-0.017": 0.0,
			"-0.016": 0.87991724181,
			"-0.015": 1.82776964591,
			"-0.014": 1.42336063497,
			"-0.013": 0.868040229786,
			"-0.012": 1.46645798114,
			"-0.011": 1.28426025407,
			"-0.01": 1.44345925906,
			"-0.009": 1.80874456409,
			"-0.008": 3.49013354528,
			"-0.007": 5.23066440852,
			"-0.006": 8.45778201992,
			"-0.005": 8.10803262671,
			"-0.004": 8.67192742021,
			"-0.003": 9.41226065759,
			"-0.002": 8.31380536759,
			"-0.001": 8.15283541137,
			"0.0": 10.2565334223,
			"0.001": 12.2763114228,
			"0.002": 17.2592506205,
			"0.003": 40.4787229978,
			"0.004": 28.6979747185,
			"0.005": 12.8266322729,
			"0.006": 4.30151691237,
			"0.007": 0.547458397793,
			"0.008": 0.0,
			"0.009": 0.0,
			"0.01": 0.0,
			"0.011": 0.0,
			"0.012": 0.0,
			"0.013": 0.0,
			"0.014": 0.0,
			"0.015": 0.0,
			"0.016": 0.0,
			"0.017": 0.0,
			"0.018": 0.0,
			"0.019": 0.0,
			"0.02": 0.0,
			"0.021": 0.0,
			"0.022": 0.0,
			"0.023": 0.0,
			"0.024": 0.0,
			"0.025": 0.0
		}
	}
}
