{
	 "smiles": "ClC1=CC(Cl)=CC=C1", 
	 "Tm": 248.25, 
	 "num_atms": 12, 
	 "gaussian": { 
		 "optdone": 1, 
		 "sigma_profile": "yes", 
		 "theory": "DFT", 
		 "functional": "B3LYP", 
		 "basiset": "6-31G**", 
		 "properties": { 
			 "R2extent": 2021.2631, 
			 "electric_dipole_moment_norm": 1.79100847011, 
			 "electric_quadrupole_moment_norm": 4.62492175934, 
			 "total_energy": -1151.4341353, 
			 "HOMO_LUMO_gap": 0.22713, 
			 "cosmo_polarized_energy": -3.71, 
			 "cosmo_cavitation_energy": 19.8, 
			 "cosmo_dispersion_energy": -15.13, 
			 "cosmo_repulsion_energy": 1.26, 
			 "cosmo_total_nonelectrostatic_energy": 5.93, 
			 "SMD_solvation_energy": 2.89 
		},
		"coords": [
			{
				"x": -0.8286794784,
				"y": 1.9076413723,
				"z": 3.5016292274,
				"element": "Cl" 
			},
			{
				"x": -0.4068318736,
				"y": 0.9396875663,
				"z": 2.0986953335,
				"element": "C" 
			},
			{
				"x": 0.3948926879,
				"y": 1.5051849418,
				"z": 1.1074248582,
				"element": "C" 
			},
			{
				"x": 0.721116614,
				"y": 0.7234164925,
				"z": -0.0005376472,
				"element": "C" 
			},
			{
				"x": 1.7295527989,
				"y": 1.4171419702,
				"z": -1.2594780175,
				"element": "Cl" 
			},
			{
				"x": 0.2670079854,
				"y": -0.5889107695,
				"z": -0.129888948,
				"element": "C" 
			},
			{
				"x": -0.5332612827,
				"y": -1.1245686608,
				"z": 0.8796391318,
				"element": "C" 
			},
			{
				"x": -0.877931651,
				"y": -0.3693848745,
				"z": 2.0009777795,
				"element": "C" 
			},
			{
				"x": 0.7541158004,
				"y": 2.5229610554,
				"z": 1.1955839828,
				"element": "H" 
			},
			{
				"x": 0.5357316907,
				"y": -1.174125837,
				"z": -1.0016468066,
				"element": "H" 
			},
			{
				"x": -0.8934236217,
				"y": -2.1450433324,
				"z": 0.7912539401,
				"element": "H" 
			},
			{
				"x": -1.49948967,
				"y": -0.7838999244,
				"z": 2.7861471659,
				"element": "H" 
			}
		],
		 "valence_orbital": [ 
			{
				"type": "occ",
				"energy": -0.32732,
				"method": "rhf"
			},
			{
				"type": "occ",
				"energy": -0.32496,
				"method": "rhf"
			},
			{
				"type": "occ",
				"energy": -0.3182,
				"method": "rhf"
			},
			{
				"type": "occ",
				"energy": -0.26705,
				"method": "rhf"
			},
			{
				"type": "occ",
				"energy": -0.25435,
				"method": "rhf"
			},
			{
				"type": "unocc",
				"energy": -0.02722,
				"method": "rhf"
			},
			{
				"type": "unocc",
				"energy": -0.02612,
				"method": "rhf"
			},
			{
				"type": "unocc",
				"energy": 0.00357,
				"method": "rhf"
			},
			{
				"type": "unocc",
				"energy": 0.0477,
				"method": "rhf"
			},
			{
				"type": "unocc",
				"energy": 0.10949,
				"method": "rhf"
			}
		],
		"cosmo_sigma_profile": { 
			"-0.025": 0.0,
			"-0.024": 0.0,
			"-0.023": 0.0,
			"-0.022": 0.0,
			"-0.021": 0.0,
			"-0.02": 0.0,
			"-0.019": 0.0,
			"-0.018": 0.0,
			"-0.017": 0.0,
			"-0.016": 0.0,
			"-0.015": 0.0,
			"-0.014": 0.0,
			"-0.013": 0.0,
			"-0.012": 0.0,
			"-0.011": 0.0,
			"-0.01": 0.0,
			"-0.009": 0.132798003409,
			"-0.008": 2.90583450486,
			"-0.007": 8.0802330713,
			"-0.006": 8.1467322111,
			"-0.005": 6.68179354691,
			"-0.004": 6.32208858666,
			"-0.003": 6.90207561459,
			"-0.002": 9.68233117618,
			"-0.001": 10.3952293371,
			"0.0": 14.3023364288,
			"0.001": 21.565113319,
			"0.002": 24.2529846852,
			"0.003": 18.2863851938,
			"0.004": 20.4335877279,
			"0.005": 6.02881999317,
			"0.006": 0.0,
			"0.007": 0.0,
			"0.008": 0.0,
			"0.009": 0.0,
			"0.01": 0.0,
			"0.011": 0.0,
			"0.012": 0.0,
			"0.013": 0.0,
			"0.014": 0.0,
			"0.015": 0.0,
			"0.016": 0.0,
			"0.017": 0.0,
			"0.018": 0.0,
			"0.019": 0.0,
			"0.02": 0.0,
			"0.021": 0.0,
			"0.022": 0.0,
			"0.023": 0.0,
			"0.024": 0.0,
			"0.025": 0.0
		}
	}
}
