{
	 "smiles": "CC(Cl)C(=O)NC1=C(C)N(N=C1C)C1=CC=CC=C1", 
	 "Tm": 408.15, 
	 "num_atms": 35, 
	 "gaussian": { 
		 "optdone": 1, 
		 "sigma_profile": "yes", 
		 "theory": "DFT", 
		 "functional": "B3LYP", 
		 "basiset": "6-31G**", 
		 "properties": { 
			 "R2extent": 8554.4995, 
			 "electric_dipole_moment_norm": 1.1788232183, 
			 "electric_quadrupole_moment_norm": 11.5947209052, 
			 "total_energy": -1242.82169997, 
			 "HOMO_LUMO_gap": 0.19696, 
			 "cosmo_polarized_energy": -13.64, 
			 "cosmo_cavitation_energy": 40.15, 
			 "cosmo_dispersion_energy": -27.98, 
			 "cosmo_repulsion_energy": 2.19, 
			 "cosmo_total_nonelectrostatic_energy": 14.35, 
			 "SMD_solvation_energy": 6.15 
		},
		"coords": [
			{
				"x": -0.9065063671,
				"y": -5.9605304137,
				"z": -1.4914107911,
				"element": "C" 
			},
			{
				"x": -1.722829545,
				"y": -4.7355711532,
				"z": -1.0920186483,
				"element": "C" 
			},
			{
				"x": -2.8325778463,
				"y": -5.1577022395,
				"z": 0.3143319018,
				"element": "Cl" 
			},
			{
				"x": -0.8087241593,
				"y": -3.5213395626,
				"z": -0.8408487838,
				"element": "C" 
			},
			{
				"x": -0.0743438169,
				"y": -3.1775053309,
				"z": -1.7587478484,
				"element": "O" 
			},
			{
				"x": -0.8826203533,
				"y": -2.9038709037,
				"z": 0.3702006759,
				"element": "N" 
			},
			{
				"x": -0.0674654069,
				"y": -1.820891516,
				"z": 0.7614230791,
				"element": "C" 
			},
			{
				"x": 0.1691913835,
				"y": -0.6463876231,
				"z": 0.0639344108,
				"element": "C" 
			},
			{
				"x": -0.4217768124,
				"y": -0.1742975276,
				"z": -1.2240012532,
				"element": "C" 
			},
			{
				"x": 1.0294777906,
				"y": 0.071564928,
				"z": 0.8584871203,
				"element": "N" 
			},
			{
				"x": 1.3164820246,
				"y": -0.5686709513,
				"z": 2.0295643618,
				"element": "N" 
			},
			{
				"x": 0.6630053856,
				"y": -1.7226895437,
				"z": 1.9741604435,
				"element": "C" 
			},
			{
				"x": 0.7495748796,
				"y": -2.7171083002,
				"z": 3.0896114926,
				"element": "C" 
			},
			{
				"x": 1.6095918839,
				"y": 1.3482366195,
				"z": 0.625032299,
				"element": "C" 
			},
			{
				"x": 2.093068917,
				"y": 1.6968212535,
				"z": -0.6408225408,
				"element": "C" 
			},
			{
				"x": 2.6565983749,
				"y": 2.9578626023,
				"z": -0.8406867245,
				"element": "C" 
			},
			{
				"x": 2.7615263768,
				"y": 3.8610287843,
				"z": 0.2174889262,
				"element": "C" 
			},
			{
				"x": 2.2993669907,
				"y": 3.4959633602,
				"z": 1.484767445,
				"element": "C" 
			},
			{
				"x": 1.7196476569,
				"y": 2.2467995849,
				"z": 1.6929435315,
				"element": "C" 
			},
			{
				"x": -1.5624928073,
				"y": -6.7812587611,
				"z": -1.7885338094,
				"element": "H" 
			},
			{
				"x": -0.2659039024,
				"y": -5.6836787573,
				"z": -2.3320657348,
				"element": "H" 
			},
			{
				"x": -0.2754561681,
				"y": -6.2953838171,
				"z": -0.6637358953,
				"element": "H" 
			},
			{
				"x": -2.4055234428,
				"y": -4.4530079521,
				"z": -1.8958408929,
				"element": "H" 
			},
			{
				"x": -1.5042015446,
				"y": -3.3092789147,
				"z": 1.057360902,
				"element": "H" 
			},
			{
				"x": 0.1313634825,
				"y": -0.5581099508,
				"z": -2.0869732782,
				"element": "H" 
			},
			{
				"x": -1.4431148745,
				"y": -0.5556585658,
				"z": -1.3105650312,
				"element": "H" 
			},
			{
				"x": -0.4550402331,
				"y": 0.9163373965,
				"z": -1.2741780267,
				"element": "H" 
			},
			{
				"x": 1.4681100529,
				"y": -2.369963123,
				"z": 3.8347735203,
				"element": "H" 
			},
			{
				"x": 1.0720171302,
				"y": -3.6985102603,
				"z": 2.724352591,
				"element": "H" 
			},
			{
				"x": -0.2170828638,
				"y": -2.8562689082,
				"z": 3.5895451621,
				"element": "H" 
			},
			{
				"x": 2.0530667622,
				"y": 0.9809633741,
				"z": -1.4538109595,
				"element": "H" 
			},
			{
				"x": 3.0300261759,
				"y": 3.2241394314,
				"z": -1.8251161836,
				"element": "H" 
			},
			{
				"x": 3.206743875,
				"y": 4.8386015658,
				"z": 0.0588527197,
				"element": "H" 
			},
			{
				"x": 2.3838834978,
				"y": 4.1900763373,
				"z": 2.3158364759,
				"element": "H" 
			},
			{
				"x": 1.3583175035,
				"y": 1.9467888383,
				"z": 2.6693893432,
				"element": "H" 
			}
		],
		 "valence_orbital": [ 
			{
				"type": "occ",
				"energy": -0.26843,
				"method": "rhf"
			},
			{
				"type": "occ",
				"energy": -0.26053,
				"method": "rhf"
			},
			{
				"type": "occ",
				"energy": -0.25587,
				"method": "rhf"
			},
			{
				"type": "occ",
				"energy": -0.23214,
				"method": "rhf"
			},
			{
				"type": "occ",
				"energy": -0.21539,
				"method": "rhf"
			},
			{
				"type": "unocc",
				"energy": -0.01843,
				"method": "rhf"
			},
			{
				"type": "unocc",
				"energy": -0.00692,
				"method": "rhf"
			},
			{
				"type": "unocc",
				"energy": 0.00758,
				"method": "rhf"
			},
			{
				"type": "unocc",
				"energy": 0.00933,
				"method": "rhf"
			},
			{
				"type": "unocc",
				"energy": 0.03567,
				"method": "rhf"
			}
		],
		"cosmo_sigma_profile": { 
			"-0.025": 0.0,
			"-0.024": 0.0,
			"-0.023": 0.0,
			"-0.022": 0.0,
			"-0.021": 0.0,
			"-0.02": 0.0,
			"-0.019": 0.0,
			"-0.018": 0.0,
			"-0.017": 0.0,
			"-0.016": 0.0,
			"-0.015": 0.0,
			"-0.014": 0.0,
			"-0.013": 0.0202046348308,
			"-0.012": 0.344925208192,
			"-0.011": 1.0504178925,
			"-0.01": 0.885390379142,
			"-0.009": 1.71619189981,
			"-0.008": 3.40191896157,
			"-0.007": 5.01270626195,
			"-0.006": 11.9967810127,
			"-0.005": 24.4122488231,
			"-0.004": 30.7239544256,
			"-0.003": 28.9348656769,
			"-0.002": 27.6331789209,
			"-0.001": 32.2067060085,
			"0.0": 24.2304884431,
			"0.001": 19.2557959697,
			"0.002": 18.1023535611,
			"0.003": 19.199768553,
			"0.004": 20.0204647386,
			"0.005": 18.2947150328,
			"0.006": 8.14365740192,
			"0.007": 4.009845946,
			"0.008": 3.66194096917,
			"0.009": 2.59151377624,
			"0.01": 3.06596006012,
			"0.011": 2.86315659447,
			"0.012": 3.67009472827,
			"0.013": 4.09999728126,
			"0.014": 0.535101738195,
			"0.015": 0.66060735255,
			"0.016": 0.0448608946334,
			"0.017": 0.0,
			"0.018": 0.0,
			"0.019": 0.0,
			"0.02": 0.0,
			"0.021": 0.0,
			"0.022": 0.0,
			"0.023": 0.0,
			"0.024": 0.0,
			"0.025": 0.0
		}
	}
}
