{
	 "smiles": "OC(=O)C=CC(=O)NC1=CC=CC2=CC=CC=C12", 
	 "Tm": 425.15, 
	 "num_atms": 29, 
	 "gaussian": { 
		 "optdone": 1, 
		 "sigma_profile": "yes", 
		 "theory": "DFT", 
		 "functional": "B3LYP", 
		 "basiset": "6-31G**", 
		 "properties": { 
			 "R2extent": 6181.4593, 
			 "electric_dipole_moment_norm": 5.41854128156, 
			 "electric_quadrupole_moment_norm": 15.8397046267, 
			 "total_energy": -820.560110796, 
			 "HOMO_LUMO_gap": 0.14207, 
			 "cosmo_polarized_energy": -17.11, 
			 "cosmo_cavitation_energy": 34.75, 
			 "cosmo_dispersion_energy": -24.52, 
			 "cosmo_repulsion_energy": 1.9, 
			 "cosmo_total_nonelectrostatic_energy": 12.13, 
			 "SMD_solvation_energy": 7.96 
		},
		"coords": [
			{
				"x": 0.2829745756,
				"y": 3.1579279107,
				"z": 1.0475910787,
				"element": "O" 
			},
			{
				"x": -1.0240371139,
				"y": 3.5125814231,
				"z": 1.1466102665,
				"element": "C" 
			},
			{
				"x": -1.3788112285,
				"y": 4.5655919657,
				"z": 1.6363804929,
				"element": "O" 
			},
			{
				"x": -1.9560059426,
				"y": 2.498972663,
				"z": 0.6063744183,
				"element": "C" 
			},
			{
				"x": -1.5718858906,
				"y": 1.3369317419,
				"z": 0.0623497152,
				"element": "C" 
			},
			{
				"x": -2.59988322,
				"y": 0.4028438617,
				"z": -0.4875133321,
				"element": "C" 
			},
			{
				"x": -3.772351344,
				"y": 0.7278812272,
				"z": -0.6358909554,
				"element": "O" 
			},
			{
				"x": -2.1637592389,
				"y": -0.8456874647,
				"z": -0.8904216753,
				"element": "N" 
			},
			{
				"x": -0.9501837135,
				"y": -1.5204510034,
				"z": -0.604451633,
				"element": "C" 
			},
			{
				"x": -0.4313677633,
				"y": -1.5399109398,
				"z": 0.6773672453,
				"element": "C" 
			},
			{
				"x": 0.7684794647,
				"y": -2.2313521182,
				"z": 0.9604938733,
				"element": "C" 
			},
			{
				"x": 1.4151628577,
				"y": -2.9372704445,
				"z": -0.026606807,
				"element": "C" 
			},
			{
				"x": 0.9028313907,
				"y": -2.9612140025,
				"z": -1.3518763368,
				"element": "C" 
			},
			{
				"x": 1.5506081898,
				"y": -3.6857914072,
				"z": -2.3882723025,
				"element": "C" 
			},
			{
				"x": 1.0575898755,
				"y": -3.6801744003,
				"z": -3.6733839469,
				"element": "C" 
			},
			{
				"x": -0.1044895343,
				"y": -2.9351239427,
				"z": -3.983340635,
				"element": "C" 
			},
			{
				"x": -0.7599467309,
				"y": -2.2230553328,
				"z": -3.0025795517,
				"element": "C" 
			},
			{
				"x": -0.2888673669,
				"y": -2.2265369051,
				"z": -1.6623922824,
				"element": "C" 
			},
			{
				"x": 0.7865477625,
				"y": 3.8969878705,
				"z": 1.4263276334,
				"element": "H" 
			},
			{
				"x": -3.008848656,
				"y": 2.7532849817,
				"z": 0.6691165957,
				"element": "H" 
			},
			{
				"x": -0.5220181266,
				"y": 1.0759187959,
				"z": -0.0057823234,
				"element": "H" 
			},
			{
				"x": -2.8948875955,
				"y": -1.3720779093,
				"z": -1.3548747901,
				"element": "H" 
			},
			{
				"x": -0.9663787879,
				"y": -1.0373169188,
				"z": 1.4764931869,
				"element": "H" 
			},
			{
				"x": 1.158055255,
				"y": -2.2216505456,
				"z": 1.9738236279,
				"element": "H" 
			},
			{
				"x": 2.3251509071,
				"y": -3.4885603243,
				"z": 0.1934269518,
				"element": "H" 
			},
			{
				"x": 2.449982993,
				"y": -4.2458150036,
				"z": -2.1460063844,
				"element": "H" 
			},
			{
				"x": 1.5637826788,
				"y": -4.2391014471,
				"z": -4.4548464331,
				"element": "H" 
			},
			{
				"x": -0.4765516425,
				"y": -2.9180084661,
				"z": -5.0034498329,
				"element": "H" 
			},
			{
				"x": -1.6342920547,
				"y": -1.6334238654,
				"z": -3.2576658641,
				"element": "H" 
			}
		],
		 "valence_orbital": [ 
			{
				"type": "occ",
				"energy": -0.28235,
				"method": "rhf"
			},
			{
				"type": "occ",
				"energy": -0.26982,
				"method": "rhf"
			},
			{
				"type": "occ",
				"energy": -0.26277,
				"method": "rhf"
			},
			{
				"type": "occ",
				"energy": -0.25769,
				"method": "rhf"
			},
			{
				"type": "occ",
				"energy": -0.22156,
				"method": "rhf"
			},
			{
				"type": "unocc",
				"energy": -0.07949,
				"method": "rhf"
			},
			{
				"type": "unocc",
				"energy": -0.05327,
				"method": "rhf"
			},
			{
				"type": "unocc",
				"energy": -0.02309,
				"method": "rhf"
			},
			{
				"type": "unocc",
				"energy": 0.01623,
				"method": "rhf"
			},
			{
				"type": "unocc",
				"energy": 0.04384,
				"method": "rhf"
			}
		],
		"cosmo_sigma_profile": { 
			"-0.025": 0.0,
			"-0.024": 0.0,
			"-0.023": 0.0,
			"-0.022": 0.0,
			"-0.021": 0.0,
			"-0.02": 0.0,
			"-0.019": 0.143405121991,
			"-0.018": 0.874006801944,
			"-0.017": 1.11353871592,
			"-0.016": 0.709999282484,
			"-0.015": 0.423185217034,
			"-0.014": 1.81979202022,
			"-0.013": 2.26122656804,
			"-0.012": 1.41898446012,
			"-0.011": 1.59652143348,
			"-0.01": 1.96874178578,
			"-0.009": 2.09755489672,
			"-0.008": 1.60179713694,
			"-0.007": 5.51664644046,
			"-0.006": 17.4911512163,
			"-0.005": 19.5461060538,
			"-0.004": 19.547727531,
			"-0.003": 18.2458508456,
			"-0.002": 20.2557610566,
			"-0.001": 18.8031030838,
			"0.0": 18.8080309181,
			"0.001": 16.1664239475,
			"0.002": 17.2267317737,
			"0.003": 21.0881312684,
			"0.004": 21.7795022042,
			"0.005": 10.9463806017,
			"0.006": 3.98392366729,
			"0.007": 4.16457996962,
			"0.008": 3.09102419514,
			"0.009": 3.20865335166,
			"0.01": 4.29891695233,
			"0.011": 5.87490231654,
			"0.012": 6.8448004722,
			"0.013": 5.20268182323,
			"0.014": 0.482881416292,
			"0.015": 0.0,
			"0.016": 0.0,
			"0.017": 0.0,
			"0.018": 0.0,
			"0.019": 0.0,
			"0.02": 0.0,
			"0.021": 0.0,
			"0.022": 0.0,
			"0.023": 0.0,
			"0.024": 0.0,
			"0.025": 0.0
		}
	}
}
