{
	 "smiles": "CN1N=C(C)C2=C1C(N)=NC=N2", 
	 "Tm": 511.15, 
	 "num_atms": 21, 
	 "gaussian": { 
		 "optdone": 1, 
		 "sigma_profile": "yes", 
		 "theory": "DFT", 
		 "functional": "B3LYP", 
		 "basiset": "6-31G**", 
		 "properties": { 
			 "R2extent": 1952.8182, 
			 "electric_dipole_moment_norm": 4.28335896581, 
			 "electric_quadrupole_moment_norm": 9.73795992033, 
			 "total_energy": -545.922929732, 
			 "HOMO_LUMO_gap": 0.18166, 
			 "cosmo_polarized_energy": -15.36, 
			 "cosmo_cavitation_energy": 24.82, 
			 "cosmo_dispersion_energy": -18.61, 
			 "cosmo_repulsion_energy": 1.48, 
			 "cosmo_total_nonelectrostatic_energy": 7.69, 
			 "SMD_solvation_energy": 0.33 
		},
		"coords": [
			{
				"x": -0.4181390618,
				"y": 2.9480268092,
				"z": -0.8258399033,
				"element": "C" 
			},
			{
				"x": -0.0793767469,
				"y": 1.758044519,
				"z": -0.0727219951,
				"element": "N" 
			},
			{
				"x": 0.8013850848,
				"y": 1.8559325557,
				"z": 0.9616051125,
				"element": "N" 
			},
			{
				"x": 0.9246305273,
				"y": 0.6503375617,
				"z": 1.5014606367,
				"element": "C" 
			},
			{
				"x": 1.8308925599,
				"y": 0.3921516547,
				"z": 2.6612330461,
				"element": "C" 
			},
			{
				"x": 0.0936416449,
				"y": -0.2823700061,
				"z": 0.8041274976,
				"element": "C" 
			},
			{
				"x": -0.5427625712,
				"y": 0.4744030244,
				"z": -0.1985908514,
				"element": "C" 
			},
			{
				"x": -1.4459176478,
				"y": -0.2025472943,
				"z": -1.0554367027,
				"element": "C" 
			},
			{
				"x": -2.1151331063,
				"y": 0.4019187036,
				"z": -2.0967399876,
				"element": "N" 
			},
			{
				"x": -1.625885946,
				"y": -1.5096096451,
				"z": -0.8792413667,
				"element": "N" 
			},
			{
				"x": -0.9433084687,
				"y": -2.1366233738,
				"z": 0.1089556973,
				"element": "C" 
			},
			{
				"x": -0.094542281,
				"y": -1.6120452304,
				"z": 0.9775689689,
				"element": "N" 
			},
			{
				"x": 0.3157255717,
				"y": 3.7114360788,
				"z": -0.5680957638,
				"element": "H" 
			},
			{
				"x": -1.4170909774,
				"y": 3.3232306728,
				"z": -0.5688044859,
				"element": "H" 
			},
			{
				"x": -0.3662758312,
				"y": 2.7503611331,
				"z": -1.9005577334,
				"element": "H" 
			},
			{
				"x": 1.2709985783,
				"y": -0.0004297765,
				"z": 3.5166770417,
				"element": "H" 
			},
			{
				"x": 2.3305127076,
				"y": 1.316034624,
				"z": 2.9601365689,
				"element": "H" 
			},
			{
				"x": 2.5903065833,
				"y": -0.3546204221,
				"z": 2.4062829996,
				"element": "H" 
			},
			{
				"x": -2.355889727,
				"y": 1.3770440706,
				"z": -2.0053644398,
				"element": "H" 
			},
			{
				"x": -2.8379465378,
				"y": -0.1805831036,
				"z": -2.4985034806,
				"element": "H" 
			},
			{
				"x": -1.1341243547,
				"y": -3.2046925557,
				"z": 0.1918491412,
				"element": "H" 
			}
		],
		 "valence_orbital": [ 
			{
				"type": "occ",
				"energy": -0.28451,
				"method": "rhf"
			},
			{
				"type": "occ",
				"energy": -0.2745,
				"method": "rhf"
			},
			{
				"type": "occ",
				"energy": -0.2578,
				"method": "rhf"
			},
			{
				"type": "occ",
				"energy": -0.24717,
				"method": "rhf"
			},
			{
				"type": "occ",
				"energy": -0.21487,
				"method": "rhf"
			},
			{
				"type": "unocc",
				"energy": -0.03321,
				"method": "rhf"
			},
			{
				"type": "unocc",
				"energy": 0.00356,
				"method": "rhf"
			},
			{
				"type": "unocc",
				"energy": 0.05425,
				"method": "rhf"
			},
			{
				"type": "unocc",
				"energy": 0.06157,
				"method": "rhf"
			},
			{
				"type": "unocc",
				"energy": 0.10828,
				"method": "rhf"
			}
		],
		"cosmo_sigma_profile": { 
			"-0.025": 0.0,
			"-0.024": 0.0,
			"-0.023": 0.0,
			"-0.022": 0.0,
			"-0.021": 0.0,
			"-0.02": 0.0,
			"-0.019": 0.0,
			"-0.018": 0.0,
			"-0.017": 0.0,
			"-0.016": 0.0,
			"-0.015": 0.0,
			"-0.014": 0.608479643832,
			"-0.013": 2.92303355599,
			"-0.012": 3.66526166023,
			"-0.011": 2.62285794825,
			"-0.01": 1.84870000781,
			"-0.009": 3.18941838626,
			"-0.008": 2.33071353683,
			"-0.007": 5.16907777705,
			"-0.006": 9.41223121271,
			"-0.005": 10.688770236,
			"-0.004": 14.7201460015,
			"-0.003": 13.9795862176,
			"-0.002": 11.6417292601,
			"-0.001": 14.4798160294,
			"0.0": 17.1704396071,
			"0.001": 13.5721969633,
			"0.002": 12.2289687578,
			"0.003": 8.42642393057,
			"0.004": 7.40850393805,
			"0.005": 6.23921001878,
			"0.006": 5.10164671061,
			"0.007": 4.99810212771,
			"0.008": 4.84115087644,
			"0.009": 3.95136003508,
			"0.01": 3.51857471948,
			"0.011": 2.83942682505,
			"0.012": 2.63190292191,
			"0.013": 2.4896562243,
			"0.014": 2.60894488771,
			"0.015": 1.42762226393,
			"0.016": 0.83342207001,
			"0.017": 0.0833795676794,
			"0.018": 0.0,
			"0.019": 0.0,
			"0.02": 0.0,
			"0.021": 0.0,
			"0.022": 0.0,
			"0.023": 0.0,
			"0.024": 0.0,
			"0.025": 0.0
		}
	}
}
