{
	 "smiles": "C1=CC=C(C=C1)C#CC1=CC=C(C=C1)C#CC1=CC=CC=C1", 
	 "Tm": 450.15, 
	 "num_atms": 36, 
	 "gaussian": { 
		 "optdone": 1, 
		 "sigma_profile": "yes", 
		 "theory": "DFT", 
		 "functional": "B3LYP", 
		 "basiset": "6-31G**", 
		 "properties": { 
			 "R2extent": 16945.7303, 
			 "electric_dipole_moment_norm": 0.0, 
			 "electric_quadrupole_moment_norm": 26.6119199862, 
			 "total_energy": -846.679782561, 
			 "HOMO_LUMO_gap": 0.13557, 
			 "cosmo_polarized_energy": -8.86, 
			 "cosmo_cavitation_energy": 44.25, 
			 "cosmo_dispersion_energy": -31.29, 
			 "cosmo_repulsion_energy": 2.4, 
			 "cosmo_total_nonelectrostatic_energy": 15.36, 
			 "SMD_solvation_energy": 7.49 
		},
		"coords": [
			{
				"x": 7.1902231329,
				"y": -1.6780610431,
				"z": -1.059866502,
				"element": "C" 
			},
			{
				"x": 6.7689560821,
				"y": -0.3775679963,
				"z": -1.3495816893,
				"element": "C" 
			},
			{
				"x": 5.4484563824,
				"y": 0.0002493922,
				"z": -1.1232959851,
				"element": "C" 
			},
			{
				"x": 4.5220987315,
				"y": -0.9249086246,
				"z": -0.5995075238,
				"element": "C" 
			},
			{
				"x": 4.9578051424,
				"y": -2.2345327468,
				"z": -0.3106764025,
				"element": "C" 
			},
			{
				"x": 6.2804141738,
				"y": -2.6027883345,
				"z": -0.5404492948,
				"element": "C" 
			},
			{
				"x": 3.1699321445,
				"y": -0.5432185042,
				"z": -0.3663820472,
				"element": "C" 
			},
			{
				"x": 2.0143552481,
				"y": -0.2170469931,
				"z": -0.1672541407,
				"element": "C" 
			},
			{
				"x": 0.6643919085,
				"y": 0.1640167052,
				"z": 0.0653438212,
				"element": "C" 
			},
			{
				"x": -0.2661461086,
				"y": -0.7585860061,
				"z": 0.5894695319,
				"element": "C" 
			},
			{
				"x": -1.5828223741,
				"y": -0.3868982359,
				"z": 0.8163617131,
				"element": "C" 
			},
			{
				"x": -2.0231295063,
				"y": 0.9226936976,
				"z": 0.5284279198,
				"element": "C" 
			},
			{
				"x": -1.0925860105,
				"y": 1.8453070312,
				"z": 0.0043155805,
				"element": "C" 
			},
			{
				"x": 0.2240856548,
				"y": 1.4736216082,
				"z": -0.2225746791,
				"element": "C" 
			},
			{
				"x": -3.3730872231,
				"y": 1.3037747285,
				"z": 0.7610233632,
				"element": "C" 
			},
			{
				"x": -4.5286575177,
				"y": 1.6299621907,
				"z": 0.9601551437,
				"element": "C" 
			},
			{
				"x": -5.8808247883,
				"y": 2.0116372223,
				"z": 1.1932783803,
				"element": "C" 
			},
			{
				"x": -6.8071996297,
				"y": 1.0864879381,
				"z": 1.7170362182,
				"element": "C" 
			},
			{
				"x": -8.1277001773,
				"y": 1.4643232047,
				"z": 1.9433087763,
				"element": "C" 
			},
			{
				"x": -8.5489471501,
				"y": 2.7648211482,
				"z": 1.6536014254,
				"element": "C" 
			},
			{
				"x": -7.6391162713,
				"y": 3.6895447368,
				"z": 1.1342036709,
				"element": "C" 
			},
			{
				"x": -6.316514192,
				"y": 3.3212740901,
				"z": 0.9044469062,
				"element": "C" 
			},
			{
				"x": 8.2212954146,
				"y": -1.9691267915,
				"z": -1.2377787541,
				"element": "H" 
			},
			{
				"x": 7.4724455072,
				"y": 0.3448034626,
				"z": -1.753450092,
				"element": "H" 
			},
			{
				"x": 5.1177971557,
				"y": 1.0093488539,
				"z": -1.3471577964,
				"element": "H" 
			},
			{
				"x": 4.2485272225,
				"y": -2.9500876826,
				"z": 0.0926050217,
				"element": "H" 
			},
			{
				"x": 6.603130102,
				"y": -3.6148345693,
				"z": -0.3136286989,
				"element": "H" 
			},
			{
				"x": 0.0611872689,
				"y": -1.7683466204,
				"z": 0.8146358923,
				"element": "H" 
			},
			{
				"x": -2.2895653975,
				"y": -1.1047309781,
				"z": 1.2197131865,
				"element": "H" 
			},
			{
				"x": -1.4199256751,
				"y": 2.8550697791,
				"z": -0.2208336411,
				"element": "H" 
			},
			{
				"x": 0.9308328166,
				"y": 2.1914574571,
				"z": -0.6259110396,
				"element": "H" 
			},
			{
				"x": -6.4765619615,
				"y": 0.0773801709,
				"z": 1.9408959188,
				"element": "H" 
			},
			{
				"x": -8.831200424,
				"y": 0.7419526029,
				"z": 2.347160244,
				"element": "H" 
			},
			{
				"x": -9.5800187129,
				"y": 3.0558977313,
				"z": 1.8314984674,
				"element": "H" 
			},
			{
				"x": -7.9618180052,
				"y": 4.7015960571,
				"z": 0.9073857297,
				"element": "H" 
			},
			{
				"x": -5.6072129632,
				"y": 4.0368153178,
				"z": 0.5011813753,
				"element": "H" 
			}
		],
		 "valence_orbital": [ 
			{
				"type": "occ",
				"energy": -0.26018,
				"method": "rhf"
			},
			{
				"type": "occ",
				"energy": -0.25624,
				"method": "rhf"
			},
			{
				"type": "occ",
				"energy": -0.25624,
				"method": "rhf"
			},
			{
				"type": "occ",
				"energy": -0.23404,
				"method": "rhf"
			},
			{
				"type": "occ",
				"energy": -0.19975,
				"method": "rhf"
			},
			{
				"type": "unocc",
				"energy": -0.06418,
				"method": "rhf"
			},
			{
				"type": "unocc",
				"energy": -0.02399,
				"method": "rhf"
			},
			{
				"type": "unocc",
				"energy": -0.00652,
				"method": "rhf"
			},
			{
				"type": "unocc",
				"energy": -0.00482,
				"method": "rhf"
			},
			{
				"type": "unocc",
				"energy": -0.00482,
				"method": "rhf"
			}
		],
		"cosmo_sigma_profile": { 
			"-0.025": 0.0,
			"-0.024": 0.0,
			"-0.023": 0.0,
			"-0.022": 0.0,
			"-0.021": 0.0,
			"-0.02": 0.0,
			"-0.019": 0.0,
			"-0.018": 0.0,
			"-0.017": 0.0,
			"-0.016": 0.0,
			"-0.015": 0.0,
			"-0.014": 0.0,
			"-0.013": 0.0,
			"-0.012": 0.0,
			"-0.011": 0.0,
			"-0.01": 0.0,
			"-0.009": 0.0,
			"-0.008": 0.0,
			"-0.007": 4.63797095992,
			"-0.006": 26.3948042473,
			"-0.005": 27.4988769674,
			"-0.004": 31.6512701805,
			"-0.003": 22.4164052843,
			"-0.002": 19.6394490309,
			"-0.001": 19.7304393206,
			"0.0": 20.0872775238,
			"0.001": 26.5306484343,
			"0.002": 34.3777104508,
			"0.003": 54.5995502656,
			"0.004": 40.3192999806,
			"0.005": 26.2753189618,
			"0.006": 4.63028702723,
			"0.007": 0.0,
			"0.008": 0.0,
			"0.009": 0.0,
			"0.01": 0.0,
			"0.011": 0.0,
			"0.012": 0.0,
			"0.013": 0.0,
			"0.014": 0.0,
			"0.015": 0.0,
			"0.016": 0.0,
			"0.017": 0.0,
			"0.018": 0.0,
			"0.019": 0.0,
			"0.02": 0.0,
			"0.021": 0.0,
			"0.022": 0.0,
			"0.023": 0.0,
			"0.024": 0.0,
			"0.025": 0.0
		}
	}
}
