{
	 "smiles": "CC(C)(C)NCC(O)COC1=C(C=CC=C1)C#N", 
	 "Tm": 437.15, 
	 "num_atms": 38, 
	 "gaussian": { 
		 "optdone": 1, 
		 "sigma_profile": "yes", 
		 "theory": "DFT", 
		 "functional": "B3LYP", 
		 "basiset": "6-31G**", 
		 "properties": { 
			 "R2extent": 7670.8995, 
			 "electric_dipole_moment_norm": 4.95924627943, 
			 "electric_quadrupole_moment_norm": 29.706070752, 
			 "total_energy": -805.47080871, 
			 "HOMO_LUMO_gap": 0.17219, 
			 "cosmo_polarized_energy": -14.49, 
			 "cosmo_cavitation_energy": 40.99, 
			 "cosmo_dispersion_energy": -27.06, 
			 "cosmo_repulsion_energy": 2.1, 
			 "cosmo_total_nonelectrostatic_energy": 16.03, 
			 "SMD_solvation_energy": 7.74 
		},
		"coords": [
			{
				"x": -1.3858431806,
				"y": 2.6694128133,
				"z": 0.4616099565,
				"element": "C" 
			},
			{
				"x": 0.1423096479,
				"y": 2.5246940822,
				"z": 0.3615281826,
				"element": "C" 
			},
			{
				"x": 0.7714032014,
				"y": 2.8318933998,
				"z": 1.7306983824,
				"element": "C" 
			},
			{
				"x": 0.6802459586,
				"y": 3.5125124167,
				"z": -0.6984525871,
				"element": "C" 
			},
			{
				"x": 0.3995780173,
				"y": 1.1098834832,
				"z": 0.0033533969,
				"element": "N" 
			},
			{
				"x": 1.7870306,
				"y": 0.6515444216,
				"z": -0.1284053142,
				"element": "C" 
			},
			{
				"x": 2.204475857,
				"y": -0.2866309435,
				"z": 1.0230490759,
				"element": "C" 
			},
			{
				"x": 3.5752716872,
				"y": -0.6373618806,
				"z": 0.9194112729,
				"element": "O" 
			},
			{
				"x": 1.3238711049,
				"y": -1.5303579779,
				"z": 1.1066066658,
				"element": "C" 
			},
			{
				"x": 1.5891878863,
				"y": -2.2883937481,
				"z": -0.0858851432,
				"element": "O" 
			},
			{
				"x": 0.9765029681,
				"y": -3.476555957,
				"z": -0.286136743,
				"element": "C" 
			},
			{
				"x": 1.347811276,
				"y": -4.170499757,
				"z": -1.4633749652,
				"element": "C" 
			},
			{
				"x": 0.7624389979,
				"y": -5.410061687,
				"z": -1.7592471022,
				"element": "C" 
			},
			{
				"x": -0.1828434209,
				"y": -5.9652933394,
				"z": -0.9010988268,
				"element": "C" 
			},
			{
				"x": -0.5437068437,
				"y": -5.2761316693,
				"z": 0.2580749327,
				"element": "C" 
			},
			{
				"x": 0.026134565,
				"y": -4.040816671,
				"z": 0.5715320997,
				"element": "C" 
			},
			{
				"x": 2.3230921259,
				"y": -3.5944882117,
				"z": -2.3377135762,
				"element": "C" 
			},
			{
				"x": 3.1167549411,
				"y": -3.1305696783,
				"z": -3.0513767226,
				"element": "N" 
			},
			{
				"x": -1.6656001968,
				"y": 3.6893299753,
				"z": 0.7438432511,
				"element": "H" 
			},
			{
				"x": -1.7882554388,
				"y": 1.9763260384,
				"z": 1.2061614794,
				"element": "H" 
			},
			{
				"x": -1.8644639154,
				"y": 2.4493167382,
				"z": -0.5004594694,
				"element": "H" 
			},
			{
				"x": 0.3886501979,
				"y": 2.145210977,
				"z": 2.4922426928,
				"element": "H" 
			},
			{
				"x": 1.8625195253,
				"y": 2.7463898671,
				"z": 1.7067394095,
				"element": "H" 
			},
			{
				"x": 0.5309231281,
				"y": 3.8545769384,
				"z": 2.038149139,
				"element": "H" 
			},
			{
				"x": 0.222969111,
				"y": 3.3175622867,
				"z": -1.6753808459,
				"element": "H" 
			},
			{
				"x": 1.765903127,
				"y": 3.4322577319,
				"z": -0.8126818062,
				"element": "H" 
			},
			{
				"x": 0.4544864515,
				"y": 4.5489281267,
				"z": -0.4243183384,
				"element": "H" 
			},
			{
				"x": -0.1085551567,
				"y": 0.9031855347,
				"z": -0.8504935928,
				"element": "H" 
			},
			{
				"x": 1.9067539188,
				"y": 0.1023909764,
				"z": -1.069476096,
				"element": "H" 
			},
			{
				"x": 2.5125816761,
				"y": 1.4734928677,
				"z": -0.1567045211,
				"element": "H" 
			},
			{
				"x": 2.0955903633,
				"y": 0.2473151795,
				"z": 1.9736143642,
				"element": "H" 
			},
			{
				"x": 3.6578971136,
				"y": -1.2214845512,
				"z": 0.1513553357,
				"element": "H" 
			},
			{
				"x": 1.5891928525,
				"y": -2.1297823192,
				"z": 1.9855002416,
				"element": "H" 
			},
			{
				"x": 0.2685868877,
				"y": -1.2396000879,
				"z": 1.1473916194,
				"element": "H" 
			},
			{
				"x": 1.0608877488,
				"y": -5.9258098385,
				"z": -2.6659156593,
				"element": "H" 
			},
			{
				"x": -0.6324972986,
				"y": -6.9246304597,
				"z": -1.1337419471,
				"element": "H" 
			},
			{
				"x": -1.2803703796,
				"y": -5.7013981569,
				"z": 0.9334447692,
				"element": "H" 
			},
			{
				"x": -0.270415105,
				"y": -3.5221569206,
				"z": 1.4747569895,
				"element": "H" 
			}
		],
		 "valence_orbital": [ 
			{
				"type": "occ",
				"energy": -0.3181,
				"method": "rhf"
			},
			{
				"type": "occ",
				"energy": -0.27254,
				"method": "rhf"
			},
			{
				"type": "occ",
				"energy": -0.2682,
				"method": "rhf"
			},
			{
				"type": "occ",
				"energy": -0.24038,
				"method": "rhf"
			},
			{
				"type": "occ",
				"energy": -0.22062,
				"method": "rhf"
			},
			{
				"type": "unocc",
				"energy": -0.04843,
				"method": "rhf"
			},
			{
				"type": "unocc",
				"energy": -0.01065,
				"method": "rhf"
			},
			{
				"type": "unocc",
				"energy": 0.03786,
				"method": "rhf"
			},
			{
				"type": "unocc",
				"energy": 0.06557,
				"method": "rhf"
			},
			{
				"type": "unocc",
				"energy": 0.07758,
				"method": "rhf"
			}
		],
		"cosmo_sigma_profile": { 
			"-0.025": 0.0,
			"-0.024": 0.0,
			"-0.023": 0.0,
			"-0.022": 0.0,
			"-0.021": 0.0,
			"-0.02": 0.0,
			"-0.019": 0.0,
			"-0.018": 0.0,
			"-0.017": 0.0,
			"-0.016": 0.0,
			"-0.015": 0.0,
			"-0.014": 0.0,
			"-0.013": 0.0,
			"-0.012": 0.190320345279,
			"-0.011": 0.789347446371,
			"-0.01": 0.495662634104,
			"-0.009": 1.68794572663,
			"-0.008": 4.12776192634,
			"-0.007": 9.60276366202,
			"-0.006": 15.9729403193,
			"-0.005": 17.2614196485,
			"-0.004": 18.4804970274,
			"-0.003": 28.5281208928,
			"-0.002": 31.391997665,
			"-0.001": 29.5778749674,
			"0.0": 36.9217184216,
			"0.001": 35.8306987025,
			"0.002": 24.8116518912,
			"0.003": 14.6553741268,
			"0.004": 7.6398187182,
			"0.005": 4.25131059408,
			"0.006": 5.21016292636,
			"0.007": 3.96374116848,
			"0.008": 5.61953366222,
			"0.009": 4.9434361112,
			"0.01": 5.18161111812,
			"0.011": 3.51586988868,
			"0.012": 4.54101812786,
			"0.013": 3.38809502667,
			"0.014": 2.54280250953,
			"0.015": 0.579163005331,
			"0.016": 0.0,
			"0.017": 0.0,
			"0.018": 0.0,
			"0.019": 0.0,
			"0.02": 0.0,
			"0.021": 0.0,
			"0.022": 0.0,
			"0.023": 0.0,
			"0.024": 0.0,
			"0.025": 0.0
		}
	}
}
