{
	 "smiles": "NC1=C(N)C=C(Cl)C(F)=C1", 
	 "Tm": 384.15, 
	 "num_atms": 16, 
	 "gaussian": { 
		 "optdone": 1, 
		 "sigma_profile": "yes", 
		 "theory": "DFT", 
		 "functional": "B3LYP", 
		 "basiset": "6-31G**", 
		 "properties": { 
			 "R2extent": 3371.8402, 
			 "electric_dipole_moment_norm": 4.2582408821, 
			 "electric_quadrupole_moment_norm": 14.5275775565, 
			 "total_energy": -901.785929521, 
			 "HOMO_LUMO_gap": 0.19384, 
			 "cosmo_polarized_energy": -11.47, 
			 "cosmo_cavitation_energy": 22.15, 
			 "cosmo_dispersion_energy": -16.72, 
			 "cosmo_repulsion_energy": 1.35, 
			 "cosmo_total_nonelectrostatic_energy": 6.77, 
			 "SMD_solvation_energy": 4.0 
		},
		"coords": [
			{
				"x": 2.0272473007,
				"y": 0.9460205121,
				"z": 1.0188695582,
				"element": "N" 
			},
			{
				"x": 0.770233913,
				"y": 0.6453543004,
				"z": 1.5603583232,
				"element": "C" 
			},
			{
				"x": -0.2014091352,
				"y": 0.0720717813,
				"z": 0.7031193386,
				"element": "C" 
			},
			{
				"x": 0.1439140147,
				"y": -0.0933272805,
				"z": -0.6557173759,
				"element": "N" 
			},
			{
				"x": -1.4576173672,
				"y": -0.2544723396,
				"z": 1.2112770954,
				"element": "C" 
			},
			{
				"x": -1.7664018476,
				"y": -0.033483959,
				"z": 2.5566745873,
				"element": "C" 
			},
			{
				"x": -3.3466011093,
				"y": -0.4443659527,
				"z": 3.185738428,
				"element": "Cl" 
			},
			{
				"x": -0.7958921639,
				"y": 0.5006338527,
				"z": 3.396554628,
				"element": "C" 
			},
			{
				"x": -1.0659651832,
				"y": 0.7103334368,
				"z": 4.6981568086,
				"element": "F" 
			},
			{
				"x": 0.4613781564,
				"y": 0.8423934233,
				"z": 2.9074988234,
				"element": "C" 
			},
			{
				"x": 1.9607143059,
				"y": 1.3373278336,
				"z": 0.0842598333,
				"element": "H" 
			},
			{
				"x": 2.6038731113,
				"y": 1.5253627443,
				"z": 1.6154214021,
				"element": "H" 
			},
			{
				"x": 1.0354180831,
				"y": -0.5691714366,
				"z": -0.7661215355,
				"element": "H" 
			},
			{
				"x": -0.569079877,
				"y": -0.5765976637,
				"z": -1.1886574852,
				"element": "H" 
			},
			{
				"x": -2.2092322102,
				"y": -0.6941219226,
				"z": 0.5630993546,
				"element": "H" 
			},
			{
				"x": 1.1839200083,
				"y": 1.2775426702,
				"z": 3.5907682161,
				"element": "H" 
			}
		],
		 "valence_orbital": [ 
			{
				"type": "occ",
				"energy": -0.31988,
				"method": "rhf"
			},
			{
				"type": "occ",
				"energy": -0.30626,
				"method": "rhf"
			},
			{
				"type": "occ",
				"energy": -0.28526,
				"method": "rhf"
			},
			{
				"type": "occ",
				"energy": -0.23389,
				"method": "rhf"
			},
			{
				"type": "occ",
				"energy": -0.19715,
				"method": "rhf"
			},
			{
				"type": "unocc",
				"energy": -0.00331,
				"method": "rhf"
			},
			{
				"type": "unocc",
				"energy": 0.01576,
				"method": "rhf"
			},
			{
				"type": "unocc",
				"energy": 0.03173,
				"method": "rhf"
			},
			{
				"type": "unocc",
				"energy": 0.06616,
				"method": "rhf"
			},
			{
				"type": "unocc",
				"energy": 0.09534,
				"method": "rhf"
			}
		],
		"cosmo_sigma_profile": { 
			"-0.025": 0.0,
			"-0.024": 0.0,
			"-0.023": 0.0,
			"-0.022": 0.0,
			"-0.021": 0.0,
			"-0.02": 0.0,
			"-0.019": 0.0,
			"-0.018": 0.0,
			"-0.017": 0.0,
			"-0.016": 0.0,
			"-0.015": 0.0,
			"-0.014": 0.0,
			"-0.013": 0.437236902215,
			"-0.012": 3.38912828867,
			"-0.011": 5.43729868834,
			"-0.01": 5.90522302653,
			"-0.009": 6.00781513118,
			"-0.008": 6.10208955049,
			"-0.007": 5.54821955138,
			"-0.006": 6.40818996925,
			"-0.005": 4.77077410284,
			"-0.004": 5.33832196343,
			"-0.003": 4.34608682126,
			"-0.002": 6.4666358836,
			"-0.001": 6.4878403501,
			"0.0": 6.37139512112,
			"0.001": 11.9222342851,
			"0.002": 15.611199321,
			"0.003": 19.2701226962,
			"0.004": 27.6176410602,
			"0.005": 16.5168113026,
			"0.006": 4.84988740459,
			"0.007": 1.37961734899,
			"0.008": 1.62995721265,
			"0.009": 1.61921684304,
			"0.01": 1.35921951736,
			"0.011": 0.571082659453,
			"0.012": 0.559871327382,
			"0.013": 1.84529904884,
			"0.014": 0.574045540736,
			"0.015": 0.0155108843985,
			"0.016": 0.0,
			"0.017": 0.0,
			"0.018": 0.0,
			"0.019": 0.0,
			"0.02": 0.0,
			"0.021": 0.0,
			"0.022": 0.0,
			"0.023": 0.0,
			"0.024": 0.0,
			"0.025": 0.0
		}
	}
}
