{
	 "smiles": "CC1=CC(Br)=CN=C1N", 
	 "Tm": 366.15, 
	 "num_atms": 16, 
	 "gaussian": { 
		 "optdone": 1, 
		 "sigma_profile": "yes", 
		 "theory": "DFT", 
		 "functional": "B3LYP", 
		 "basiset": "6-31G**", 
		 "properties": { 
			 "R2extent": 4890.3691, 
			 "electric_dipole_moment_norm": 3.69216964941, 
			 "electric_quadrupole_moment_norm": 5.02427985486, 
			 "total_energy": -2913.75684713, 
			 "HOMO_LUMO_gap": 0.21653, 
			 "cosmo_polarized_energy": -12.4, 
			 "cosmo_cavitation_energy": 22.25, 
			 "cosmo_dispersion_energy": -16.87, 
			 "cosmo_repulsion_energy": 1.38, 
			 "cosmo_total_nonelectrostatic_energy": 6.77, 
			 "SMD_solvation_energy": 1.14 
		},
		"coords": [
			{
				"x": -1.8345176308,
				"y": -0.3629327971,
				"z": 2.1244204838,
				"element": "C" 
			},
			{
				"x": -1.8924918115,
				"y": -0.2891214901,
				"z": 0.6192276497,
				"element": "C" 
			},
			{
				"x": -3.0815322637,
				"y": 0.0320338353,
				"z": -0.03876988,
				"element": "C" 
			},
			{
				"x": -3.0897083947,
				"y": 0.0889143296,
				"z": -1.4290950731,
				"element": "C" 
			},
			{
				"x": -4.6904030514,
				"y": 0.5232601487,
				"z": -2.3721422487,
				"element": "Br" 
			},
			{
				"x": -1.9155173481,
				"y": -0.1749329684,
				"z": -2.1296191199,
				"element": "C" 
			},
			{
				"x": -0.7740507736,
				"y": -0.4828227779,
				"z": -1.5092226561,
				"element": "N" 
			},
			{
				"x": -0.7498930303,
				"y": -0.5414817622,
				"z": -0.1755626433,
				"element": "C" 
			},
			{
				"x": 0.5189276689,
				"y": -0.8794893957,
				"z": 0.4035703717,
				"element": "N" 
			},
			{
				"x": -1.5316486318,
				"y": -1.3589934853,
				"z": 2.4683090677,
				"element": "H" 
			},
			{
				"x": -2.8082509961,
				"y": -0.1389868196,
				"z": 2.5673190759,
				"element": "H" 
			},
			{
				"x": -1.1083860933,
				"y": 0.348183989,
				"z": 2.5357219648,
				"element": "H" 
			},
			{
				"x": -3.9871072243,
				"y": 0.234621746,
				"z": 0.5240164587,
				"element": "H" 
			},
			{
				"x": -1.8971526665,
				"y": -0.1366290101,
				"z": -3.2158309157,
				"element": "H" 
			},
			{
				"x": 0.4411556869,
				"y": -1.7227635851,
				"z": 0.9680851315,
				"element": "H" 
			},
			{
				"x": 0.8336765605,
				"y": -0.1422599571,
				"z": 1.0306723329,
				"element": "H" 
			}
		],
		 "valence_orbital": [ 
			{
				"type": "occ",
				"energy": -0.29558,
				"method": "rhf"
			},
			{
				"type": "occ",
				"energy": -0.28163,
				"method": "rhf"
			},
			{
				"type": "occ",
				"energy": -0.2627,
				"method": "rhf"
			},
			{
				"type": "occ",
				"energy": -0.25502,
				"method": "rhf"
			},
			{
				"type": "occ",
				"energy": -0.24627,
				"method": "rhf"
			},
			{
				"type": "unocc",
				"energy": -0.02974,
				"method": "rhf"
			},
			{
				"type": "unocc",
				"energy": -0.02158,
				"method": "rhf"
			},
			{
				"type": "unocc",
				"energy": 0.00427,
				"method": "rhf"
			},
			{
				"type": "unocc",
				"energy": 0.06294,
				"method": "rhf"
			},
			{
				"type": "unocc",
				"energy": 0.11457,
				"method": "rhf"
			}
		],
		"cosmo_sigma_profile": { 
			"-0.025": 0.0,
			"-0.024": 0.0,
			"-0.023": 0.0,
			"-0.022": 0.0,
			"-0.021": 0.0,
			"-0.02": 0.0,
			"-0.019": 0.0,
			"-0.018": 0.0,
			"-0.017": 0.0,
			"-0.016": 0.0,
			"-0.015": 0.0,
			"-0.014": 0.0,
			"-0.013": 0.0,
			"-0.012": 0.0871494333723,
			"-0.011": 2.18824778922,
			"-0.01": 2.91849463718,
			"-0.009": 3.10155591406,
			"-0.008": 5.52937346889,
			"-0.007": 7.51704544766,
			"-0.006": 8.04697148215,
			"-0.005": 9.99202638218,
			"-0.004": 9.59179372273,
			"-0.003": 11.904477405,
			"-0.002": 11.6705906838,
			"-0.001": 14.4124826203,
			"0.0": 15.6339031136,
			"0.001": 19.3408435535,
			"0.002": 12.5030815868,
			"0.003": 8.70885699597,
			"0.004": 13.1539318999,
			"0.005": 4.52396708712,
			"0.006": 1.54158399515,
			"0.007": 1.57975961622,
			"0.008": 1.31489227156,
			"0.009": 1.53551861529,
			"0.01": 1.09531957914,
			"0.011": 1.22183903438,
			"0.012": 1.47719642403,
			"0.013": 1.30032655989,
			"0.014": 1.09709263823,
			"0.015": 1.19859233475,
			"0.016": 1.55444111041,
			"0.017": 1.32623197416,
			"0.018": 1.16889257922,
			"0.019": 1.20700727794,
			"0.02": 0.624187517112,
			"0.021": 0.000993868028856,
			"0.022": 0.0,
			"0.023": 0.0,
			"0.024": 0.0,
			"0.025": 0.0
		}
	}
}
