{
	 "smiles": "OC(=O)C1=CC2=C(C=C1)C(=O)OC2=O", 
	 "Tm": 437.15, 
	 "num_atms": 18, 
	 "gaussian": { 
		 "optdone": 1, 
		 "sigma_profile": "yes", 
		 "theory": "DFT", 
		 "functional": "B3LYP", 
		 "basiset": "6-31G**", 
		 "properties": { 
			 "R2extent": 3020.0896, 
			 "electric_dipole_moment_norm": 5.00601109268, 
			 "electric_quadrupole_moment_norm": 21.4163493093, 
			 "total_energy": -721.504603921, 
			 "HOMO_LUMO_gap": 0.1799, 
			 "cosmo_polarized_energy": -21.18, 
			 "cosmo_cavitation_energy": 24.76, 
			 "cosmo_dispersion_energy": -18.16, 
			 "cosmo_repulsion_energy": 1.4, 
			 "cosmo_total_nonelectrostatic_energy": 8.0, 
			 "SMD_solvation_energy": 7.4 
		},
		"coords": [
			{
				"x": 3.4255687128,
				"y": -0.6049478064,
				"z": 2.6515428336,
				"element": "O" 
			},
			{
				"x": 2.2774571196,
				"y": -1.1923807292,
				"z": 2.2317739221,
				"element": "C" 
			},
			{
				"x": 1.9036539545,
				"y": -2.2289170137,
				"z": 2.7228114474,
				"element": "O" 
			},
			{
				"x": 1.5078631049,
				"y": -0.4895676139,
				"z": 1.1440287464,
				"element": "C" 
			},
			{
				"x": 0.626372261,
				"y": -1.2709117932,
				"z": 0.3794844251,
				"element": "C" 
			},
			{
				"x": -0.0934851831,
				"y": -0.628219125,
				"z": -0.6158329606,
				"element": "C" 
			},
			{
				"x": 0.0262106867,
				"y": 0.7409107373,
				"z": -0.8411251581,
				"element": "C" 
			},
			{
				"x": 0.8722771155,
				"y": 1.5347720743,
				"z": -0.0783937543,
				"element": "C" 
			},
			{
				"x": 1.6154692117,
				"y": 0.8965355299,
				"z": 0.9188736909,
				"element": "C" 
			},
			{
				"x": -0.8813176815,
				"y": 1.0980875001,
				"z": -1.9620994694,
				"element": "C" 
			},
			{
				"x": -1.0933788353,
				"y": 2.157614058,
				"z": -2.4803750999,
				"element": "O" 
			},
			{
				"x": -1.5131029082,
				"y": -0.0794387629,
				"z": -2.3682502116,
				"element": "O" 
			},
			{
				"x": -1.0791201071,
				"y": -1.1621469236,
				"z": -1.5918020323,
				"element": "C" 
			},
			{
				"x": -1.48406658,
				"y": -2.2759536176,
				"z": -1.7609293623,
				"element": "O" 
			},
			{
				"x": 3.6876814663,
				"y": 0.1089363601,
				"z": 2.0539612917,
				"element": "H" 
			},
			{
				"x": 0.52783621,
				"y": -2.3323127484,
				"z": 0.5777278214,
				"element": "H" 
			},
			{
				"x": 0.9455276235,
				"y": 2.6037317772,
				"z": -0.2472414695,
				"element": "H" 
			},
			{
				"x": 2.2595538286,
				"y": 1.4997080968,
				"z": 1.5532453391,
				"element": "H" 
			}
		],
		 "valence_orbital": [ 
			{
				"type": "occ",
				"energy": -0.32589,
				"method": "rhf"
			},
			{
				"type": "occ",
				"energy": -0.31479,
				"method": "rhf"
			},
			{
				"type": "occ",
				"energy": -0.31307,
				"method": "rhf"
			},
			{
				"type": "occ",
				"energy": -0.30301,
				"method": "rhf"
			},
			{
				"type": "occ",
				"energy": -0.29728,
				"method": "rhf"
			},
			{
				"type": "unocc",
				"energy": -0.11738,
				"method": "rhf"
			},
			{
				"type": "unocc",
				"energy": -0.08453,
				"method": "rhf"
			},
			{
				"type": "unocc",
				"energy": -0.035,
				"method": "rhf"
			},
			{
				"type": "unocc",
				"energy": 0.03403,
				"method": "rhf"
			},
			{
				"type": "unocc",
				"energy": 0.03782,
				"method": "rhf"
			}
		],
		"cosmo_sigma_profile": { 
			"-0.025": 0.0,
			"-0.024": 0.0,
			"-0.023": 0.0,
			"-0.022": 0.0,
			"-0.021": 0.0,
			"-0.02": 0.291574081646,
			"-0.019": 1.1807556401,
			"-0.018": 1.13007755483,
			"-0.017": 1.18164645154,
			"-0.016": 0.899682216935,
			"-0.015": 0.89259397863,
			"-0.014": 0.942119964007,
			"-0.013": 0.95456670446,
			"-0.012": 2.00356262782,
			"-0.011": 1.29937818829,
			"-0.01": 3.15787790596,
			"-0.009": 6.61419167305,
			"-0.008": 7.26794303356,
			"-0.007": 7.30895997843,
			"-0.006": 7.88353736781,
			"-0.005": 10.3075590826,
			"-0.004": 12.9826900186,
			"-0.003": 13.8602187965,
			"-0.002": 15.0085178827,
			"-0.001": 12.9029067718,
			"0.0": 5.65616225286,
			"0.001": 4.613086828,
			"0.002": 5.74789293798,
			"0.003": 4.47521029677,
			"0.004": 7.07275258012,
			"0.005": 6.36422487575,
			"0.006": 7.50778465138,
			"0.007": 10.1241325814,
			"0.008": 9.08185167368,
			"0.009": 15.4189539049,
			"0.01": 9.68727122339,
			"0.011": 5.28405757678,
			"0.012": 1.62504993129,
			"0.013": 0.0820476445265,
			"0.014": 0.0,
			"0.015": 0.0,
			"0.016": 0.0,
			"0.017": 0.0,
			"0.018": 0.0,
			"0.019": 0.0,
			"0.02": 0.0,
			"0.021": 0.0,
			"0.022": 0.0,
			"0.023": 0.0,
			"0.024": 0.0,
			"0.025": 0.0
		}
	}
}
