{
	 "smiles": "CC(C)C1=NN=NN1CC(O)=O", 
	 "Tm": 453.15, 
	 "num_atms": 22, 
	 "gaussian": { 
		 "optdone": 1, 
		 "sigma_profile": "yes", 
		 "theory": "DFT", 
		 "functional": "B3LYP", 
		 "basiset": "6-31G**", 
		 "properties": { 
			 "R2extent": 2625.8175, 
			 "electric_dipole_moment_norm": 4.61260671421, 
			 "electric_quadrupole_moment_norm": 18.891927449, 
			 "total_energy": -604.083234995, 
			 "HOMO_LUMO_gap": 0.24025, 
			 "cosmo_polarized_energy": -18.79, 
			 "cosmo_cavitation_energy": 26.1, 
			 "cosmo_dispersion_energy": -18.55, 
			 "cosmo_repulsion_energy": 1.5, 
			 "cosmo_total_nonelectrostatic_energy": 9.05, 
			 "SMD_solvation_energy": 4.0 
		},
		"coords": [
			{
				"x": 2.7858488404,
				"y": 0.1860961516,
				"z": 2.5746202024,
				"element": "C" 
			},
			{
				"x": 1.5134068714,
				"y": -0.5689094213,
				"z": 2.1593788533,
				"element": "C" 
			},
			{
				"x": 0.3260834292,
				"y": -0.2320086048,
				"z": 3.0880584292,
				"element": "C" 
			},
			{
				"x": 1.1585936634,
				"y": -0.2644908761,
				"z": 0.7305607969,
				"element": "C" 
			},
			{
				"x": 1.410433078,
				"y": 0.8662666061,
				"z": 0.0839287692,
				"element": "N" 
			},
			{
				"x": 0.8829981892,
				"y": 0.7382647278,
				"z": -1.1532465184,
				"element": "N" 
			},
			{
				"x": 0.3318624142,
				"y": -0.4227854667,
				"z": -1.2951467518,
				"element": "N" 
			},
			{
				"x": 0.4822610439,
				"y": -1.0778617416,
				"z": -0.1160236526,
				"element": "N" 
			},
			{
				"x": -0.0302185127,
				"y": -2.4357592728,
				"z": 0.0301436292,
				"element": "C" 
			},
			{
				"x": -1.5035801214,
				"y": -2.6329159314,
				"z": -0.3941864259,
				"element": "C" 
			},
			{
				"x": -1.9527043399,
				"y": -1.8939535251,
				"z": -1.4101576998,
				"element": "O" 
			},
			{
				"x": -2.1681162967,
				"y": -3.4779708498,
				"z": 0.1528003437,
				"element": "O" 
			},
			{
				"x": 3.6357408821,
				"y": -0.0867197181,
				"z": 1.9432182599,
				"element": "H" 
			},
			{
				"x": 3.0353375529,
				"y": -0.0524859469,
				"z": 3.6125292432,
				"element": "H" 
			},
			{
				"x": 2.6390879926,
				"y": 1.2654353045,
				"z": 2.4885744394,
				"element": "H" 
			},
			{
				"x": 1.7110172924,
				"y": -1.6466240827,
				"z": 2.2329590797,
				"element": "H" 
			},
			{
				"x": 0.0975812175,
				"y": 0.8369581506,
				"z": 3.0416376473,
				"element": "H" 
			},
			{
				"x": 0.5779864153,
				"y": -0.4850189599,
				"z": 4.1221332797,
				"element": "H" 
			},
			{
				"x": -0.5791377324,
				"y": -0.7842356766,
				"z": 2.8160930782,
				"element": "H" 
			},
			{
				"x": 0.5843437949,
				"y": -3.1161284591,
				"z": -0.570599609,
				"element": "H" 
			},
			{
				"x": 0.0489565227,
				"y": -2.7339200212,
				"z": 1.0737105611,
				"element": "H" 
			},
			{
				"x": -1.2633821968,
				"y": -1.2639323865,
				"z": -1.7209859548,
				"element": "H" 
			}
		],
		 "valence_orbital": [ 
			{
				"type": "occ",
				"energy": -0.32588,
				"method": "rhf"
			},
			{
				"type": "occ",
				"energy": -0.32043,
				"method": "rhf"
			},
			{
				"type": "occ",
				"energy": -0.31068,
				"method": "rhf"
			},
			{
				"type": "occ",
				"energy": -0.29975,
				"method": "rhf"
			},
			{
				"type": "occ",
				"energy": -0.28366,
				"method": "rhf"
			},
			{
				"type": "unocc",
				"energy": -0.04341,
				"method": "rhf"
			},
			{
				"type": "unocc",
				"energy": -0.00815,
				"method": "rhf"
			},
			{
				"type": "unocc",
				"energy": 0.00401,
				"method": "rhf"
			},
			{
				"type": "unocc",
				"energy": 0.05134,
				"method": "rhf"
			},
			{
				"type": "unocc",
				"energy": 0.09208,
				"method": "rhf"
			}
		],
		"cosmo_sigma_profile": { 
			"-0.025": 0.0,
			"-0.024": 0.0,
			"-0.023": 0.0,
			"-0.022": 0.0,
			"-0.021": 0.0,
			"-0.02": 0.0,
			"-0.019": 0.0,
			"-0.018": 0.0,
			"-0.017": 0.0,
			"-0.016": 0.0,
			"-0.015": 0.0,
			"-0.014": 0.0,
			"-0.013": 0.0,
			"-0.012": 0.0120287058313,
			"-0.011": 2.46627446225,
			"-0.01": 6.79376421069,
			"-0.009": 7.88407075952,
			"-0.008": 9.92799075727,
			"-0.007": 8.59810295585,
			"-0.006": 6.31825944901,
			"-0.005": 9.19412423048,
			"-0.004": 17.4261221178,
			"-0.003": 15.8029556125,
			"-0.002": 15.8179437123,
			"-0.001": 15.3709793329,
			"0.0": 15.5761221502,
			"0.001": 5.44455966025,
			"0.002": 4.65859350875,
			"0.003": 5.00848845364,
			"0.004": 4.43508290895,
			"0.005": 5.18838391831,
			"0.006": 5.83247614298,
			"0.007": 5.48204537815,
			"0.008": 6.89812104796,
			"0.009": 7.31788086232,
			"0.01": 7.65814441306,
			"0.011": 8.30578835727,
			"0.012": 5.95054102455,
			"0.013": 2.23272568896,
			"0.014": 0.843388706145,
			"0.015": 0.0652273431066,
			"0.016": 0.0,
			"0.017": 0.0,
			"0.018": 0.0,
			"0.019": 0.0,
			"0.02": 0.0,
			"0.021": 0.0,
			"0.022": 0.0,
			"0.023": 0.0,
			"0.024": 0.0,
			"0.025": 0.0
		}
	}
}
