{
	 "smiles": "O=C1NN(C(=O)C1=CNC1=CC=CC=C1)C1=CC=CC=C1", 
	 "Tm": 549.15, 
	 "num_atms": 34, 
	 "gaussian": { 
		 "optdone": 1, 
		 "sigma_profile": "yes", 
		 "theory": "DFT", 
		 "functional": "B3LYP", 
		 "basiset": "6-31G**", 
		 "properties": { 
			 "R2extent": 8707.1465, 
			 "electric_dipole_moment_norm": 3.05739520834, 
			 "electric_quadrupole_moment_norm": 21.1351458256, 
			 "total_energy": -932.220583667, 
			 "HOMO_LUMO_gap": 0.14469, 
			 "cosmo_polarized_energy": -22.08, 
			 "cosmo_cavitation_energy": 38.65, 
			 "cosmo_dispersion_energy": -28.1, 
			 "cosmo_repulsion_energy": 2.11, 
			 "cosmo_total_nonelectrostatic_energy": 12.66, 
			 "SMD_solvation_energy": 7.73 
		},
		"coords": [
			{
				"x": 1.0264153969,
				"y": 1.8531539574,
				"z": -2.0569774346,
				"element": "O" 
			},
			{
				"x": 0.6089667279,
				"y": 1.1510058118,
				"z": -1.1483566094,
				"element": "C" 
			},
			{
				"x": -0.4205857754,
				"y": 1.5755473303,
				"z": -0.2743860953,
				"element": "N" 
			},
			{
				"x": -0.4680713915,
				"y": 0.7047992847,
				"z": 0.8495162637,
				"element": "N" 
			},
			{
				"x": 0.3472998119,
				"y": -0.4094131292,
				"z": 0.6219862525,
				"element": "C" 
			},
			{
				"x": 0.4475018319,
				"y": -1.3837252953,
				"z": 1.3594264796,
				"element": "O" 
			},
			{
				"x": 1.0184442425,
				"y": -0.1648482549,
				"z": -0.6678747626,
				"element": "C" 
			},
			{
				"x": 1.9413583255,
				"y": -1.0846589998,
				"z": -1.0929508003,
				"element": "C" 
			},
			{
				"x": 2.6756379675,
				"y": -1.2034367264,
				"z": -2.216562818,
				"element": "N" 
			},
			{
				"x": 2.5853977945,
				"y": -0.5638982857,
				"z": -3.4835639589,
				"element": "C" 
			},
			{
				"x": 1.3564080122,
				"y": -0.1993317937,
				"z": -4.0411998104,
				"element": "C" 
			},
			{
				"x": 1.3226663128,
				"y": 0.3470287247,
				"z": -5.3227533185,
				"element": "C" 
			},
			{
				"x": 2.4984807415,
				"y": 0.5238998087,
				"z": -6.0535565111,
				"element": "C" 
			},
			{
				"x": 3.7218635724,
				"y": 0.1459479437,
				"z": -5.4964233162,
				"element": "C" 
			},
			{
				"x": 3.7679237113,
				"y": -0.3972487653,
				"z": -4.2146790252,
				"element": "C" 
			},
			{
				"x": -1.5714065552,
				"y": 0.794366322,
				"z": 1.7290595283,
				"element": "C" 
			},
			{
				"x": -2.6476188034,
				"y": 1.6411244216,
				"z": 1.4226836873,
				"element": "C" 
			},
			{
				"x": -3.7164167234,
				"y": 1.7540743061,
				"z": 2.3114958529,
				"element": "C" 
			},
			{
				"x": -3.730255649,
				"y": 1.0307118043,
				"z": 3.5036670274,
				"element": "C" 
			},
			{
				"x": -2.6571464208,
				"y": 0.186871676,
				"z": 3.799965978,
				"element": "C" 
			},
			{
				"x": -1.5753027205,
				"y": 0.0659672516,
				"z": 2.9311515012,
				"element": "C" 
			},
			{
				"x": -0.3424987895,
				"y": 2.5539352624,
				"z": -0.0071440077,
				"element": "H" 
			},
			{
				"x": 2.1223560942,
				"y": -1.8841274205,
				"z": -0.3745063286,
				"element": "H" 
			},
			{
				"x": 3.3811825388,
				"y": -1.9261102371,
				"z": -2.1751504764,
				"element": "H" 
			},
			{
				"x": 0.4393046707,
				"y": -0.357737351,
				"z": -3.4885520779,
				"element": "H" 
			},
			{
				"x": 0.3668062407,
				"y": 0.6315147199,
				"z": -5.7516634653,
				"element": "H" 
			},
			{
				"x": 2.4618446909,
				"y": 0.9504508602,
				"z": -7.0512156865,
				"element": "H" 
			},
			{
				"x": 4.6429695689,
				"y": 0.2772174552,
				"z": -6.0561874313,
				"element": "H" 
			},
			{
				"x": 4.7193491202,
				"y": -0.6820139229,
				"z": -3.7724906382,
				"element": "H" 
			},
			{
				"x": -2.65792832,
				"y": 2.1858802735,
				"z": 0.48600241,
				"element": "H" 
			},
			{
				"x": -4.5449335419,
				"y": 2.410469295,
				"z": 2.0606795373,
				"element": "H" 
			},
			{
				"x": -4.5641825089,
				"y": 1.1226786553,
				"z": 4.1928116507,
				"element": "H" 
			},
			{
				"x": -2.6539840395,
				"y": -0.3837628739,
				"z": 4.7243920462,
				"element": "H" 
			},
			{
				"x": -0.7469461342,
				"y": -0.5908321088,
				"z": 3.1574563574,
				"element": "H" 
			}
		],
		 "valence_orbital": [ 
			{
				"type": "occ",
				"energy": -0.25829,
				"method": "rhf"
			},
			{
				"type": "occ",
				"energy": -0.24772,
				"method": "rhf"
			},
			{
				"type": "occ",
				"energy": -0.24437,
				"method": "rhf"
			},
			{
				"type": "occ",
				"energy": -0.22449,
				"method": "rhf"
			},
			{
				"type": "occ",
				"energy": -0.2039,
				"method": "rhf"
			},
			{
				"type": "unocc",
				"energy": -0.05921,
				"method": "rhf"
			},
			{
				"type": "unocc",
				"energy": -0.011,
				"method": "rhf"
			},
			{
				"type": "unocc",
				"energy": -0.00058,
				"method": "rhf"
			},
			{
				"type": "unocc",
				"energy": 0.00033,
				"method": "rhf"
			},
			{
				"type": "unocc",
				"energy": 0.00404,
				"method": "rhf"
			}
		],
		"cosmo_sigma_profile": { 
			"-0.025": 0.0,
			"-0.024": 0.0,
			"-0.023": 0.0,
			"-0.022": 0.0,
			"-0.021": 0.0,
			"-0.02": 0.0,
			"-0.019": 0.0,
			"-0.018": 0.0,
			"-0.017": 1.02772796821,
			"-0.016": 1.94070825096,
			"-0.015": 2.42584745294,
			"-0.014": 2.63993343286,
			"-0.013": 2.47362676603,
			"-0.012": 1.95857997497,
			"-0.011": 2.62958033309,
			"-0.01": 3.61422855497,
			"-0.009": 2.92859625849,
			"-0.008": 3.03220580624,
			"-0.007": 4.18500011313,
			"-0.006": 15.9813282482,
			"-0.005": 21.2297677083,
			"-0.004": 22.6142636656,
			"-0.003": 20.9547458766,
			"-0.002": 17.7601541295,
			"-0.001": 21.3431519791,
			"0.0": 16.4695459821,
			"0.001": 21.0205399186,
			"0.002": 18.7208787772,
			"0.003": 19.0542456957,
			"0.004": 19.8467005968,
			"0.005": 20.7330759098,
			"0.006": 10.9942526113,
			"0.007": 4.18339251036,
			"0.008": 4.18596207628,
			"0.009": 3.13538426914,
			"0.01": 3.37442638165,
			"0.011": 4.27157638282,
			"0.012": 5.80241795727,
			"0.013": 8.24958692966,
			"0.014": 1.53560248297,
			"0.015": 0.0,
			"0.016": 0.0,
			"0.017": 0.0,
			"0.018": 0.0,
			"0.019": 0.0,
			"0.02": 0.0,
			"0.021": 0.0,
			"0.022": 0.0,
			"0.023": 0.0,
			"0.024": 0.0,
			"0.025": 0.0
		}
	}
}
