{
	 "smiles": "CCOC(=O)C(Br)C(=O)OCC", 
	 "Tm": 219.15, 
	 "num_atms": 23, 
	 "gaussian": { 
		 "optdone": 1, 
		 "sigma_profile": "yes", 
		 "theory": "DFT", 
		 "functional": "B3LYP", 
		 "basiset": "6-31G**", 
		 "properties": { 
			 "R2extent": 4475.5375, 
			 "electric_dipole_moment_norm": 3.38857541011, 
			 "electric_quadrupole_moment_norm": 13.8788612274, 
			 "total_energy": -3145.69125609, 
			 "HOMO_LUMO_gap": 0.23257, 
			 "cosmo_polarized_energy": -11.2, 
			 "cosmo_cavitation_energy": 30.09, 
			 "cosmo_dispersion_energy": -20.42, 
			 "cosmo_repulsion_energy": 1.7, 
			 "cosmo_total_nonelectrostatic_energy": 11.37, 
			 "SMD_solvation_energy": 6.29 
		},
		"coords": [
			{
				"x": 0.6688668466,
				"y": -1.3016429273,
				"z": 1.8851521296,
				"element": "C" 
			},
			{
				"x": 0.7668829055,
				"y": 0.0627910299,
				"z": 1.2321429015,
				"element": "C" 
			},
			{
				"x": -0.3726653128,
				"y": 0.2024912979,
				"z": 0.3457260676,
				"element": "O" 
			},
			{
				"x": -0.4473963714,
				"y": 1.3544871723,
				"z": -0.3357939922,
				"element": "C" 
			},
			{
				"x": 0.3357979256,
				"y": 2.2712282344,
				"z": -0.2472957454,
				"element": "O" 
			},
			{
				"x": -1.6655909301,
				"y": 1.3693757396,
				"z": -1.2580587192,
				"element": "C" 
			},
			{
				"x": -1.3114554415,
				"y": 0.23801074,
				"z": -2.8201742214,
				"element": "Br" 
			},
			{
				"x": -2.9495191047,
				"y": 0.9429404144,
				"z": -0.5371996685,
				"element": "C" 
			},
			{
				"x": -3.6912445486,
				"y": 0.0468784083,
				"z": -0.8506049124,
				"element": "O" 
			},
			{
				"x": -3.1234800904,
				"y": 1.7757232132,
				"z": 0.50810701,
				"element": "O" 
			},
			{
				"x": -4.2871948227,
				"y": 1.5341893427,
				"z": 1.3444611638,
				"element": "C" 
			},
			{
				"x": -3.9953138677,
				"y": 0.4791965717,
				"z": 2.3992411218,
				"element": "C" 
			},
			{
				"x": 1.5157317161,
				"y": -1.447348911,
				"z": 2.5627729999,
				"element": "H" 
			},
			{
				"x": 0.6865413181,
				"y": -2.0960678325,
				"z": 1.1340999923,
				"element": "H" 
			},
			{
				"x": -0.2547683626,
				"y": -1.3938620138,
				"z": 2.4635389407,
				"element": "H" 
			},
			{
				"x": 1.6805712628,
				"y": 0.1747592426,
				"z": 0.6407116608,
				"element": "H" 
			},
			{
				"x": 0.7413050003,
				"y": 0.8770748544,
				"z": 1.9627996727,
				"element": "H" 
			},
			{
				"x": -1.7742737145,
				"y": 2.3864121061,
				"z": -1.6315002105,
				"element": "H" 
			},
			{
				"x": -4.500083302,
				"y": 2.5071082285,
				"z": 1.7923345525,
				"element": "H" 
			},
			{
				"x": -5.1198631955,
				"y": 1.2371069369,
				"z": 0.702919158,
				"element": "H" 
			},
			{
				"x": -3.135803217,
				"y": 0.7674930686,
				"z": 3.0112201976,
				"element": "H" 
			},
			{
				"x": -4.8634214085,
				"y": 0.3661320685,
				"z": 3.056947661,
				"element": "H" 
			},
			{
				"x": -3.7913232851,
				"y": -0.4871769854,
				"z": 1.9318522397,
				"element": "H" 
			}
		],
		 "valence_orbital": [ 
			{
				"type": "occ",
				"energy": -0.31182,
				"method": "rhf"
			},
			{
				"type": "occ",
				"energy": -0.30733,
				"method": "rhf"
			},
			{
				"type": "occ",
				"energy": -0.2857,
				"method": "rhf"
			},
			{
				"type": "occ",
				"energy": -0.2819,
				"method": "rhf"
			},
			{
				"type": "occ",
				"energy": -0.27337,
				"method": "rhf"
			},
			{
				"type": "unocc",
				"energy": -0.0408,
				"method": "rhf"
			},
			{
				"type": "unocc",
				"energy": -0.0066,
				"method": "rhf"
			},
			{
				"type": "unocc",
				"energy": 0.03506,
				"method": "rhf"
			},
			{
				"type": "unocc",
				"energy": 0.08497,
				"method": "rhf"
			},
			{
				"type": "unocc",
				"energy": 0.10147,
				"method": "rhf"
			}
		],
		"cosmo_sigma_profile": { 
			"-0.025": 0.0,
			"-0.024": 0.0,
			"-0.023": 0.0,
			"-0.022": 0.0,
			"-0.021": 0.0,
			"-0.02": 0.0,
			"-0.019": 0.0,
			"-0.018": 0.0,
			"-0.017": 0.0,
			"-0.016": 0.0,
			"-0.015": 0.0,
			"-0.014": 0.0,
			"-0.013": 0.0,
			"-0.012": 0.0186308877479,
			"-0.011": 1.61771527264,
			"-0.01": 1.52401193986,
			"-0.009": 1.59158151704,
			"-0.008": 1.63814638209,
			"-0.007": 1.9742703875,
			"-0.006": 8.00885475695,
			"-0.005": 18.0290659455,
			"-0.004": 27.4467755932,
			"-0.003": 24.1653046366,
			"-0.002": 21.0611739844,
			"-0.001": 21.894737894,
			"0.0": 19.7337170986,
			"0.001": 13.7110441112,
			"0.002": 10.2665938543,
			"0.003": 12.0359370629,
			"0.004": 13.8268484299,
			"0.005": 8.6330671876,
			"0.006": 5.84861669286,
			"0.007": 3.75037940767,
			"0.008": 3.83692581895,
			"0.009": 3.76087004711,
			"0.01": 7.59997624531,
			"0.011": 7.40182300802,
			"0.012": 0.743358467045,
			"0.013": 0.0,
			"0.014": 0.0,
			"0.015": 0.0,
			"0.016": 0.0,
			"0.017": 0.0,
			"0.018": 0.0,
			"0.019": 0.0,
			"0.02": 0.0,
			"0.021": 0.0,
			"0.022": 0.0,
			"0.023": 0.0,
			"0.024": 0.0,
			"0.025": 0.0
		}
	}
}
