{
	 "smiles": "NC1=C(C=C(Cl)C=C1)C(=O)C1=CC=CN1", 
	 "Tm": 423.15, 
	 "num_atms": 24, 
	 "gaussian": { 
		 "optdone": 1, 
		 "sigma_profile": "yes", 
		 "theory": "DFT", 
		 "functional": "B3LYP", 
		 "basiset": "6-31G**", 
		 "properties": { 
			 "R2extent": 4985.483, 
			 "electric_dipole_moment_norm": 6.00210995151, 
			 "electric_quadrupole_moment_norm": 13.9131649182, 
			 "total_energy": -1069.5091564, 
			 "HOMO_LUMO_gap": 0.16233, 
			 "cosmo_polarized_energy": -16.75, 
			 "cosmo_cavitation_energy": 30.07, 
			 "cosmo_dispersion_energy": -22.16, 
			 "cosmo_repulsion_energy": 1.73, 
			 "cosmo_total_nonelectrostatic_energy": 9.64, 
			 "SMD_solvation_energy": 5.62 
		},
		"coords": [
			{
				"x": -0.0967114701,
				"y": -1.0218303247,
				"z": 2.2256229567,
				"element": "N" 
			},
			{
				"x": -1.3430682519,
				"y": -1.1950208651,
				"z": 1.5847400679,
				"element": "C" 
			},
			{
				"x": -1.4982987285,
				"y": -1.0177047797,
				"z": 0.1918809511,
				"element": "C" 
			},
			{
				"x": -2.7642495591,
				"y": -1.2225973942,
				"z": -0.3792983452,
				"element": "C" 
			},
			{
				"x": -3.8647468526,
				"y": -1.5251378279,
				"z": 0.4103122565,
				"element": "C" 
			},
			{
				"x": -5.4444536865,
				"y": -1.7386619489,
				"z": -0.3316803986,
				"element": "Cl" 
			},
			{
				"x": -3.7258808066,
				"y": -1.6658652675,
				"z": 1.7910483347,
				"element": "C" 
			},
			{
				"x": -2.4681686556,
				"y": -1.5131855291,
				"z": 2.3620651436,
				"element": "C" 
			},
			{
				"x": -0.407181947,
				"y": -0.6805419492,
				"z": -0.8070964669,
				"element": "C" 
			},
			{
				"x": -0.4260114764,
				"y": -1.2455800374,
				"z": -1.9006945051,
				"element": "O" 
			},
			{
				"x": 0.5822485522,
				"y": 0.3688774384,
				"z": -0.5554643652,
				"element": "C" 
			},
			{
				"x": 1.5021875777,
				"y": 0.8682229254,
				"z": -1.4796449808,
				"element": "C" 
			},
			{
				"x": 2.1801214113,
				"y": 1.9454028406,
				"z": -0.8775907682,
				"element": "C" 
			},
			{
				"x": 1.6640209719,
				"y": 2.0858550054,
				"z": 0.405127632,
				"element": "C" 
			},
			{
				"x": 0.6934095676,
				"y": 1.1502447223,
				"z": 0.5854108644,
				"element": "N" 
			},
			{
				"x": 0.6940114278,
				"y": -1.3608930104,
				"z": 1.6886473654,
				"element": "H" 
			},
			{
				"x": -0.0758390212,
				"y": -1.4161825541,
				"z": 3.1584801007,
				"element": "H" 
			},
			{
				"x": -2.8603854624,
				"y": -1.1355982402,
				"z": -1.4549927784,
				"element": "H" 
			},
			{
				"x": -4.5849046181,
				"y": -1.9073348336,
				"z": 2.4072322257,
				"element": "H" 
			},
			{
				"x": -2.3490944957,
				"y": -1.6528902404,
				"z": 3.4338413963,
				"element": "H" 
			},
			{
				"x": 1.6184754946,
				"y": 0.4861574169,
				"z": -2.4830225922,
				"element": "H" 
			},
			{
				"x": 2.9504181072,
				"y": 2.5612343661,
				"z": -1.3196883787,
				"element": "H" 
			},
			{
				"x": 1.9238816736,
				"y": 2.7776033358,
				"z": 1.1938007907,
				"element": "H" 
			},
			{
				"x": 0.2676202478,
				"y": 0.9044267518,
				"z": 1.4728634936,
				"element": "H" 
			}
		],
		 "valence_orbital": [ 
			{
				"type": "occ",
				"energy": -0.27015,
				"method": "rhf"
			},
			{
				"type": "occ",
				"energy": -0.25471,
				"method": "rhf"
			},
			{
				"type": "occ",
				"energy": -0.24422,
				"method": "rhf"
			},
			{
				"type": "occ",
				"energy": -0.22575,
				"method": "rhf"
			},
			{
				"type": "occ",
				"energy": -0.22131,
				"method": "rhf"
			},
			{
				"type": "unocc",
				"energy": -0.05898,
				"method": "rhf"
			},
			{
				"type": "unocc",
				"energy": -0.01371,
				"method": "rhf"
			},
			{
				"type": "unocc",
				"energy": 0.00081,
				"method": "rhf"
			},
			{
				"type": "unocc",
				"energy": 0.03129,
				"method": "rhf"
			},
			{
				"type": "unocc",
				"energy": 0.05506,
				"method": "rhf"
			}
		],
		"cosmo_sigma_profile": { 
			"-0.025": 0.0,
			"-0.024": 0.0,
			"-0.023": 0.0,
			"-0.022": 0.0,
			"-0.021": 0.0,
			"-0.02": 0.0,
			"-0.019": 0.0,
			"-0.018": 0.0,
			"-0.017": 0.0,
			"-0.016": 0.0,
			"-0.015": 0.0,
			"-0.014": 0.413118402839,
			"-0.013": 2.40893783991,
			"-0.012": 3.27685192321,
			"-0.011": 3.61154200918,
			"-0.01": 4.38888452936,
			"-0.009": 4.03923303488,
			"-0.008": 7.08719646513,
			"-0.007": 7.65345197214,
			"-0.006": 10.9473706065,
			"-0.005": 10.8931135824,
			"-0.004": 9.90295704247,
			"-0.003": 12.0906791071,
			"-0.002": 13.690780543,
			"-0.001": 12.8076844495,
			"0.0": 13.4353562976,
			"0.001": 17.8001197968,
			"0.002": 21.839148763,
			"0.003": 22.1910471701,
			"0.004": 21.6231622639,
			"0.005": 17.4239421721,
			"0.006": 7.6415280732,
			"0.007": 2.94280049538,
			"0.008": 1.56597188385,
			"0.009": 2.0392304838,
			"0.01": 1.88130830394,
			"0.011": 2.14039282863,
			"0.012": 3.21330245849,
			"0.013": 4.15961550831,
			"0.014": 0.414505165284,
			"0.015": 0.0,
			"0.016": 0.0,
			"0.017": 0.0,
			"0.018": 0.0,
			"0.019": 0.0,
			"0.02": 0.0,
			"0.021": 0.0,
			"0.022": 0.0,
			"0.023": 0.0,
			"0.024": 0.0,
			"0.025": 0.0
		}
	}
}
