{
	 "smiles": "CCCC1=NN=C(N)S1", 
	 "Tm": 473.15, 
	 "num_atms": 18, 
	 "gaussian": { 
		 "optdone": 1, 
		 "sigma_profile": "yes", 
		 "theory": "DFT", 
		 "functional": "B3LYP", 
		 "basiset": "6-31G**", 
		 "properties": { 
			 "R2extent": 1693.7181, 
			 "electric_dipole_moment_norm": 3.14044418514, 
			 "electric_quadrupole_moment_norm": 17.0661336025, 
			 "total_energy": -758.379008111, 
			 "HOMO_LUMO_gap": 0.21146, 
			 "cosmo_polarized_energy": -13.52, 
			 "cosmo_cavitation_energy": 23.09, 
			 "cosmo_dispersion_energy": -17.41, 
			 "cosmo_repulsion_energy": 1.41, 
			 "cosmo_total_nonelectrostatic_energy": 7.09, 
			 "SMD_solvation_energy": 1.63 
		},
		"coords": [
			{
				"x": 1.3662233333,
				"y": 2.2980685455,
				"z": -0.2806177089,
				"element": "C" 
			},
			{
				"x": -0.1100796276,
				"y": 2.669722205,
				"z": -0.1167418609,
				"element": "C" 
			},
			{
				"x": -0.9174974211,
				"y": 1.7085527049,
				"z": 0.7840913738,
				"element": "C" 
			},
			{
				"x": -1.1004182811,
				"y": 0.3317349591,
				"z": 0.2089330542,
				"element": "C" 
			},
			{
				"x": -2.0151044867,
				"y": 0.0271568565,
				"z": -0.6573140805,
				"element": "N" 
			},
			{
				"x": -1.9840576338,
				"y": -1.2736581553,
				"z": -1.0855207214,
				"element": "N" 
			},
			{
				"x": -1.03876299,
				"y": -1.9688169394,
				"z": -0.5129186957,
				"element": "C" 
			},
			{
				"x": -0.8646882784,
				"y": -3.319250782,
				"z": -0.7147708175,
				"element": "N" 
			},
			{
				"x": -0.0664153613,
				"y": -1.0508618392,
				"z": 0.6322076029,
				"element": "S" 
			},
			{
				"x": 1.4870388355,
				"y": 1.32001173,
				"z": -0.7568287272,
				"element": "H" 
			},
			{
				"x": 1.8777219594,
				"y": 2.2621103187,
				"z": 0.6885792227,
				"element": "H" 
			},
			{
				"x": 1.8859205742,
				"y": 3.0344872255,
				"z": -0.9018760746,
				"element": "H" 
			},
			{
				"x": -0.5977598341,
				"y": 2.7127733785,
				"z": -1.0971726886,
				"element": "H" 
			},
			{
				"x": -0.1871014761,
				"y": 3.6746059285,
				"z": 0.3166904987,
				"element": "H" 
			},
			{
				"x": -1.9211017847,
				"y": 2.1199969374,
				"z": 0.9333493516,
				"element": "H" 
			},
			{
				"x": -0.4462353696,
				"y": 1.6395743893,
				"z": 1.7713537274,
				"element": "H" 
			},
			{
				"x": -1.4025232935,
				"y": -3.6604068825,
				"z": -1.5021816097,
				"element": "H" 
			},
			{
				"x": 0.0858411356,
				"y": -3.6608005805,
				"z": -0.6967618465,
				"element": "H" 
			}
		],
		 "valence_orbital": [ 
			{
				"type": "occ",
				"energy": -0.32973,
				"method": "rhf"
			},
			{
				"type": "occ",
				"energy": -0.2928,
				"method": "rhf"
			},
			{
				"type": "occ",
				"energy": -0.28371,
				"method": "rhf"
			},
			{
				"type": "occ",
				"energy": -0.25328,
				"method": "rhf"
			},
			{
				"type": "occ",
				"energy": -0.22749,
				"method": "rhf"
			},
			{
				"type": "unocc",
				"energy": -0.01603,
				"method": "rhf"
			},
			{
				"type": "unocc",
				"energy": 0.00072,
				"method": "rhf"
			},
			{
				"type": "unocc",
				"energy": 0.04498,
				"method": "rhf"
			},
			{
				"type": "unocc",
				"energy": 0.06865,
				"method": "rhf"
			},
			{
				"type": "unocc",
				"energy": 0.10217,
				"method": "rhf"
			}
		],
		"cosmo_sigma_profile": { 
			"-0.025": 0.0,
			"-0.024": 0.0,
			"-0.023": 0.0,
			"-0.022": 0.0,
			"-0.021": 0.0,
			"-0.02": 0.0,
			"-0.019": 0.0,
			"-0.018": 0.0,
			"-0.017": 0.0,
			"-0.016": 0.0,
			"-0.015": 0.755030699036,
			"-0.014": 2.1944323292,
			"-0.013": 2.81588110029,
			"-0.012": 2.77576494296,
			"-0.011": 2.43615897505,
			"-0.01": 2.24043755332,
			"-0.009": 2.03097829298,
			"-0.008": 2.2722588536,
			"-0.007": 1.37013792082,
			"-0.006": 3.14169610062,
			"-0.005": 6.01703158188,
			"-0.004": 6.82070757393,
			"-0.003": 16.4454452201,
			"-0.002": 20.0398316706,
			"-0.001": 20.5243517178,
			"0.0": 21.9056659563,
			"0.001": 18.5500829719,
			"0.002": 9.65935751182,
			"0.003": 7.02949207899,
			"0.004": 3.48608552974,
			"0.005": 2.93127863475,
			"0.006": 3.16960635494,
			"0.007": 1.99043505448,
			"0.008": 1.94393407531,
			"0.009": 3.91491228805,
			"0.01": 2.51866072756,
			"0.011": 2.54383920553,
			"0.012": 3.42888712834,
			"0.013": 3.25440613963,
			"0.014": 2.83599980886,
			"0.015": 1.88623263752,
			"0.016": 0.860879166095,
			"0.017": 0.0,
			"0.018": 0.0,
			"0.019": 0.0,
			"0.02": 0.0,
			"0.021": 0.0,
			"0.022": 0.0,
			"0.023": 0.0,
			"0.024": 0.0,
			"0.025": 0.0
		}
	}
}
