{
	 "smiles": "CC1=NNC(=O)N(C1)N=CC1=CC=CN=C1", 
	 "Tm": 490.15, 
	 "num_atms": 27, 
	 "gaussian": { 
		 "optdone": 1, 
		 "sigma_profile": "yes", 
		 "theory": "DFT", 
		 "functional": "B3LYP", 
		 "basiset": "6-31G**", 
		 "properties": { 
			 "R2extent": 5181.9975, 
			 "electric_dipole_moment_norm": 3.52603659227, 
			 "electric_quadrupole_moment_norm": 18.5219582221, 
			 "total_energy": -736.616185113, 
			 "HOMO_LUMO_gap": 0.17028, 
			 "cosmo_polarized_energy": -20.53, 
			 "cosmo_cavitation_energy": 32.05, 
			 "cosmo_dispersion_energy": -23.51, 
			 "cosmo_repulsion_energy": 1.83, 
			 "cosmo_total_nonelectrostatic_energy": 10.37, 
			 "SMD_solvation_energy": 3.55 
		},
		"coords": [
			{
				"x": 0.3422005446,
				"y": -3.5984901782,
				"z": 3.7232799058,
				"element": "C" 
			},
			{
				"x": -0.5765881711,
				"y": -2.8803097108,
				"z": 2.7790162289,
				"element": "C" 
			},
			{
				"x": -1.8253875825,
				"y": -3.1672742659,
				"z": 2.7946298073,
				"element": "N" 
			},
			{
				"x": -2.6383764663,
				"y": -2.4960767284,
				"z": 1.9234410656,
				"element": "N" 
			},
			{
				"x": -2.3000177773,
				"y": -1.5289262826,
				"z": 0.9910864959,
				"element": "C" 
			},
			{
				"x": -3.132046571,
				"y": -1.0171172787,
				"z": 0.269558469,
				"element": "O" 
			},
			{
				"x": -0.9307994262,
				"y": -1.2205984567,
				"z": 0.9793851866,
				"element": "N" 
			},
			{
				"x": 0.0438422081,
				"y": -1.8551144103,
				"z": 1.8643160634,
				"element": "C" 
			},
			{
				"x": -0.5641803492,
				"y": -0.2765685127,
				"z": 0.080189133,
				"element": "N" 
			},
			{
				"x": 0.6649742385,
				"y": 0.0913192562,
				"z": -0.0202352669,
				"element": "C" 
			},
			{
				"x": 1.0422515184,
				"y": 1.1142122331,
				"z": -0.9997040801,
				"element": "C" 
			},
			{
				"x": 0.1111260843,
				"y": 1.7280726807,
				"z": -1.8540604975,
				"element": "C" 
			},
			{
				"x": 0.5613753293,
				"y": 2.6879156171,
				"z": -2.7507610415,
				"element": "C" 
			},
			{
				"x": 1.923523077,
				"y": 3.0080749195,
				"z": -2.7706667119,
				"element": "C" 
			},
			{
				"x": 2.8279215513,
				"y": 2.4365543611,
				"z": -1.9666395969,
				"element": "N" 
			},
			{
				"x": 2.3828071665,
				"y": 1.5144054029,
				"z": -1.1080090284,
				"element": "C" 
			},
			{
				"x": 1.122001328,
				"y": -4.1450248712,
				"z": 3.1778439692,
				"element": "H" 
			},
			{
				"x": 0.8525728793,
				"y": -2.8935701933,
				"z": 4.3917879514,
				"element": "H" 
			},
			{
				"x": -0.2287443664,
				"y": -4.3061148412,
				"z": 4.3260446939,
				"element": "H" 
			},
			{
				"x": -3.6146556855,
				"y": -2.7460595649,
				"z": 1.9564486889,
				"element": "H" 
			},
			{
				"x": 0.5510060328,
				"y": -1.0824378547,
				"z": 2.4667175524,
				"element": "H" 
			},
			{
				"x": 0.8327041812,
				"y": -2.3321442212,
				"z": 1.2585569896,
				"element": "H" 
			},
			{
				"x": 1.4770635302,
				"y": -0.3134107719,
				"z": 0.5890119899,
				"element": "H" 
			},
			{
				"x": -0.9337855711,
				"y": 1.4409683683,
				"z": -1.7954937265,
				"element": "H" 
			},
			{
				"x": -0.1260811238,
				"y": 3.185535196,
				"z": -3.4277798356,
				"element": "H" 
			},
			{
				"x": 2.3028258755,
				"y": 3.756888111,
				"z": -3.4637880165,
				"element": "H" 
			},
			{
				"x": 3.1350675455,
				"y": 1.0605919967,
				"z": -0.461676389,
				"element": "H" 
			}
		],
		 "valence_orbital": [ 
			{
				"type": "occ",
				"energy": -0.27711,
				"method": "rhf"
			},
			{
				"type": "occ",
				"energy": -0.26387,
				"method": "rhf"
			},
			{
				"type": "occ",
				"energy": -0.25521,
				"method": "rhf"
			},
			{
				"type": "occ",
				"energy": -0.24604,
				"method": "rhf"
			},
			{
				"type": "occ",
				"energy": -0.22608,
				"method": "rhf"
			},
			{
				"type": "unocc",
				"energy": -0.0558,
				"method": "rhf"
			},
			{
				"type": "unocc",
				"energy": -0.0223,
				"method": "rhf"
			},
			{
				"type": "unocc",
				"energy": -0.01632,
				"method": "rhf"
			},
			{
				"type": "unocc",
				"energy": 0.03325,
				"method": "rhf"
			},
			{
				"type": "unocc",
				"energy": 0.0678,
				"method": "rhf"
			}
		],
		"cosmo_sigma_profile": { 
			"-0.025": 0.0,
			"-0.024": 0.0,
			"-0.023": 0.0,
			"-0.022": 0.0,
			"-0.021": 0.0,
			"-0.02": 0.0,
			"-0.019": 0.0,
			"-0.018": 0.0,
			"-0.017": 0.0,
			"-0.016": 0.292186703302,
			"-0.015": 0.797872170894,
			"-0.014": 1.10471311326,
			"-0.013": 0.824080809678,
			"-0.012": 1.10650537938,
			"-0.011": 0.367681519678,
			"-0.01": 0.357019484079,
			"-0.009": 2.71512030812,
			"-0.008": 8.69160322072,
			"-0.007": 15.6888290357,
			"-0.006": 17.532842286,
			"-0.005": 20.5371666013,
			"-0.004": 16.3711605032,
			"-0.003": 14.5447833626,
			"-0.002": 14.5318781068,
			"-0.001": 17.6107405298,
			"0.0": 15.8989983707,
			"0.001": 17.8581953362,
			"0.002": 20.4742669628,
			"0.003": 10.6620866167,
			"0.004": 7.56177366441,
			"0.005": 5.90295249988,
			"0.006": 4.38948565868,
			"0.007": 4.62933082577,
			"0.008": 3.95972444466,
			"0.009": 3.54747840936,
			"0.01": 2.90885405937,
			"0.011": 4.46594180289,
			"0.012": 4.96542001338,
			"0.013": 7.60555057569,
			"0.014": 3.61548011007,
			"0.015": 2.21462703008,
			"0.016": 2.16641764204,
			"0.017": 0.111725522923,
			"0.018": 0.0,
			"0.019": 0.0,
			"0.02": 0.0,
			"0.021": 0.0,
			"0.022": 0.0,
			"0.023": 0.0,
			"0.024": 0.0,
			"0.025": 0.0
		}
	}
}
