{
	 "smiles": "OC(=O)C=CC1=COC=C1", 
	 "Tm": 426.15, 
	 "num_atms": 16, 
	 "gaussian": { 
		 "optdone": 1, 
		 "sigma_profile": "yes", 
		 "theory": "DFT", 
		 "functional": "B3LYP", 
		 "basiset": "6-31G**", 
		 "properties": { 
			 "R2extent": 2125.0404, 
			 "electric_dipole_moment_norm": 2.11711990449, 
			 "electric_quadrupole_moment_norm": 5.30876120672, 
			 "total_energy": -496.003436402, 
			 "HOMO_LUMO_gap": 0.17495, 
			 "cosmo_polarized_energy": -10.87, 
			 "cosmo_cavitation_energy": 21.81, 
			 "cosmo_dispersion_energy": -15.89, 
			 "cosmo_repulsion_energy": 1.29, 
			 "cosmo_total_nonelectrostatic_energy": 7.2, 
			 "SMD_solvation_energy": 6.6 
		},
		"coords": [
			{
				"x": 2.4388645326,
				"y": -3.4740623146,
				"z": -0.1185966825,
				"element": "O" 
			},
			{
				"x": 2.3266933669,
				"y": -2.1822821742,
				"z": -0.5279278485,
				"element": "C" 
			},
			{
				"x": 3.1572912836,
				"y": -1.6561090659,
				"z": -1.2462023315,
				"element": "O" 
			},
			{
				"x": 1.1082110987,
				"y": -1.5499099718,
				"z": 0.0040647331,
				"element": "C" 
			},
			{
				"x": 0.8287546462,
				"y": -0.2671691974,
				"z": -0.2963631803,
				"element": "C" 
			},
			{
				"x": -0.3235424598,
				"y": 0.4854592831,
				"z": 0.1495497488,
				"element": "C" 
			},
			{
				"x": -0.5840743174,
				"y": 1.7944696479,
				"z": -0.1725450122,
				"element": "C" 
			},
			{
				"x": -1.7379797443,
				"y": 2.2155345173,
				"z": 0.3976269239,
				"element": "O" 
			},
			{
				"x": -2.238713216,
				"y": 1.1560977112,
				"z": 1.1064647837,
				"element": "C" 
			},
			{
				"x": -1.4243162723,
				"y": 0.078011538,
				"z": 0.9940113655,
				"element": "C" 
			},
			{
				"x": 3.262321093,
				"y": -3.8045832186,
				"z": -0.5140558961,
				"element": "H" 
			},
			{
				"x": 0.4669185035,
				"y": -2.1579269122,
				"z": 0.6334825983,
				"element": "H" 
			},
			{
				"x": 1.5388960264,
				"y": 0.2535134942,
				"z": -0.9366797106,
				"element": "H" 
			},
			{
				"x": -0.0554281091,
				"y": 2.5183352507,
				"z": -0.7742842525,
				"element": "H" 
			},
			{
				"x": -3.1676197032,
				"y": 1.3375988061,
				"z": 1.6240072799,
				"element": "H" 
			},
			{
				"x": -1.5750767288,
				"y": -0.8900773939,
				"z": 1.448547481,
				"element": "H" 
			}
		],
		 "valence_orbital": [ 
			{
				"type": "occ",
				"energy": -0.3355,
				"method": "rhf"
			},
			{
				"type": "occ",
				"energy": -0.30928,
				"method": "rhf"
			},
			{
				"type": "occ",
				"energy": -0.27021,
				"method": "rhf"
			},
			{
				"type": "occ",
				"energy": -0.26519,
				"method": "rhf"
			},
			{
				"type": "occ",
				"energy": -0.23243,
				"method": "rhf"
			},
			{
				"type": "unocc",
				"energy": -0.05748,
				"method": "rhf"
			},
			{
				"type": "unocc",
				"energy": 0.00784,
				"method": "rhf"
			},
			{
				"type": "unocc",
				"energy": 0.06535,
				"method": "rhf"
			},
			{
				"type": "unocc",
				"energy": 0.08779,
				"method": "rhf"
			},
			{
				"type": "unocc",
				"energy": 0.10317,
				"method": "rhf"
			}
		],
		"cosmo_sigma_profile": { 
			"-0.025": 0.0,
			"-0.024": 0.0,
			"-0.023": 0.0,
			"-0.022": 0.0,
			"-0.021": 0.0,
			"-0.02": 0.0,
			"-0.019": 0.0,
			"-0.018": 0.51449063225,
			"-0.017": 0.705412370819,
			"-0.016": 1.09305359105,
			"-0.015": 0.671213229313,
			"-0.014": 1.0426997166,
			"-0.013": 0.233229095338,
			"-0.012": 0.428323753032,
			"-0.011": 0.849530786698,
			"-0.01": 1.92616921945,
			"-0.009": 4.55156317839,
			"-0.008": 6.75811545255,
			"-0.007": 9.3583404682,
			"-0.006": 7.6093718406,
			"-0.005": 7.13782892533,
			"-0.004": 6.32446372365,
			"-0.003": 7.02256916878,
			"-0.002": 8.34825511419,
			"-0.001": 9.48250369519,
			"0.0": 11.1885077848,
			"0.001": 15.8111171228,
			"0.002": 16.9949987638,
			"0.003": 14.9707941736,
			"0.004": 9.86373894,
			"0.005": 4.43122232178,
			"0.006": 4.78915704176,
			"0.007": 4.28940385915,
			"0.008": 3.22381124673,
			"0.009": 3.04349413349,
			"0.01": 2.52609422458,
			"0.011": 2.63725711619,
			"0.012": 5.19038858287,
			"0.013": 2.09074961602,
			"0.014": 0.0,
			"0.015": 0.0,
			"0.016": 0.0,
			"0.017": 0.0,
			"0.018": 0.0,
			"0.019": 0.0,
			"0.02": 0.0,
			"0.021": 0.0,
			"0.022": 0.0,
			"0.023": 0.0,
			"0.024": 0.0,
			"0.025": 0.0
		}
	}
}
