{
	 "smiles": "CC1=C(N2C=CC=CC2=N1)C(=O)NN", 
	 "Tm": 462.15, 
	 "num_atms": 24, 
	 "gaussian": { 
		 "optdone": 1, 
		 "sigma_profile": "yes", 
		 "theory": "DFT", 
		 "functional": "B3LYP", 
		 "basiset": "6-31G**", 
		 "properties": { 
			 "R2extent": 3437.9505, 
			 "electric_dipole_moment_norm": 1.86246582251, 
			 "electric_quadrupole_moment_norm": 14.634347871, 
			 "total_energy": -643.195505206, 
			 "HOMO_LUMO_gap": 0.17652, 
			 "cosmo_polarized_energy": -14.82, 
			 "cosmo_cavitation_energy": 27.44, 
			 "cosmo_dispersion_energy": -20.4, 
			 "cosmo_repulsion_energy": 1.58, 
			 "cosmo_total_nonelectrostatic_energy": 8.62, 
			 "SMD_solvation_energy": 4.03 
		},
		"coords": [
			{
				"x": -2.8801863819,
				"y": 0.1181970602,
				"z": -0.8522124519,
				"element": "C" 
			},
			{
				"x": -1.5877753843,
				"y": 0.0415562698,
				"z": -0.0977649571,
				"element": "C" 
			},
			{
				"x": -1.3703229741,
				"y": 0.1898414708,
				"z": 1.2812197856,
				"element": "C" 
			},
			{
				"x": -0.0138614871,
				"y": -0.0996786328,
				"z": 1.4575488616,
				"element": "N" 
			},
			{
				"x": 0.7632653631,
				"y": -0.1567659457,
				"z": 2.5885783903,
				"element": "C" 
			},
			{
				"x": 2.0980152443,
				"y": -0.4342440396,
				"z": 2.4614288104,
				"element": "C" 
			},
			{
				"x": 2.669507508,
				"y": -0.6725091372,
				"z": 1.1832198471,
				"element": "C" 
			},
			{
				"x": 1.8827481512,
				"y": -0.634800096,
				"z": 0.0556463346,
				"element": "C" 
			},
			{
				"x": 0.5062869345,
				"y": -0.3507896579,
				"z": 0.1835237023,
				"element": "C" 
			},
			{
				"x": -0.4461678324,
				"y": -0.2783491987,
				"z": -0.7524258137,
				"element": "N" 
			},
			{
				"x": -2.2407631511,
				"y": 0.4177599023,
				"z": 2.442258381,
				"element": "C" 
			},
			{
				"x": -1.9932099857,
				"y": -0.0557809286,
				"z": 3.5541672156,
				"element": "O" 
			},
			{
				"x": -3.3851664767,
				"y": 1.1821465059,
				"z": 2.2628801241,
				"element": "N" 
			},
			{
				"x": -3.471061012,
				"y": 2.3084837272,
				"z": 1.4094431499,
				"element": "N" 
			},
			{
				"x": -3.7398725394,
				"y": -0.0719169482,
				"z": -0.2045511492,
				"element": "H" 
			},
			{
				"x": -3.0081832168,
				"y": 1.0944804093,
				"z": -1.3366253783,
				"element": "H" 
			},
			{
				"x": -2.8690714285,
				"y": -0.6288799207,
				"z": -1.6494768002,
				"element": "H" 
			},
			{
				"x": 0.2445234582,
				"y": 0.0016597939,
				"z": 3.5231629177,
				"element": "H" 
			},
			{
				"x": 2.7073209842,
				"y": -0.4809530826,
				"z": 3.3565995355,
				"element": "H" 
			},
			{
				"x": 3.728915405,
				"y": -0.893103237,
				"z": 1.1018008553,
				"element": "H" 
			},
			{
				"x": 2.2736623254,
				"y": -0.8190910672,
				"z": -0.9379858002,
				"element": "H" 
			},
			{
				"x": -3.8563327909,
				"y": 1.3320523611,
				"z": 3.1485344162,
				"element": "H" 
			},
			{
				"x": -3.8343979292,
				"y": 2.0203825151,
				"z": 0.5068758372,
				"element": "H" 
			},
			{
				"x": -2.5447727835,
				"y": 2.7036018767,
				"z": 1.2611541861,
				"element": "H" 
			}
		],
		 "valence_orbital": [ 
			{
				"type": "occ",
				"energy": -0.28089,
				"method": "rhf"
			},
			{
				"type": "occ",
				"energy": -0.25682,
				"method": "rhf"
			},
			{
				"type": "occ",
				"energy": -0.25364,
				"method": "rhf"
			},
			{
				"type": "occ",
				"energy": -0.24651,
				"method": "rhf"
			},
			{
				"type": "occ",
				"energy": -0.21774,
				"method": "rhf"
			},
			{
				"type": "unocc",
				"energy": -0.04122,
				"method": "rhf"
			},
			{
				"type": "unocc",
				"energy": -0.02942,
				"method": "rhf"
			},
			{
				"type": "unocc",
				"energy": 0.01928,
				"method": "rhf"
			},
			{
				"type": "unocc",
				"energy": 0.07133,
				"method": "rhf"
			},
			{
				"type": "unocc",
				"energy": 0.08493,
				"method": "rhf"
			}
		],
		"cosmo_sigma_profile": { 
			"-0.025": 0.0,
			"-0.024": 0.0,
			"-0.023": 0.0,
			"-0.022": 0.0,
			"-0.021": 0.0,
			"-0.02": 0.0,
			"-0.019": 0.0,
			"-0.018": 0.0,
			"-0.017": 0.0,
			"-0.016": 0.0,
			"-0.015": 0.0,
			"-0.014": 0.0,
			"-0.013": 0.441453041665,
			"-0.012": 1.50243863694,
			"-0.011": 1.99995362163,
			"-0.01": 4.41972252312,
			"-0.009": 4.52395669162,
			"-0.008": 4.81805709115,
			"-0.007": 9.28788587478,
			"-0.006": 13.5179327272,
			"-0.005": 12.5356317543,
			"-0.004": 13.3090018749,
			"-0.003": 13.4852591031,
			"-0.002": 13.3397395965,
			"-0.001": 19.0599163605,
			"0.0": 15.4254103234,
			"0.001": 15.133556164,
			"0.002": 16.139746986,
			"0.003": 14.0328539532,
			"0.004": 5.58205741438,
			"0.005": 4.30742983339,
			"0.006": 4.59681591874,
			"0.007": 2.81702821389,
			"0.008": 4.1317089923,
			"0.009": 2.93026783477,
			"0.01": 3.69428081237,
			"0.011": 2.14202881724,
			"0.012": 4.00771241398,
			"0.013": 5.56113188162,
			"0.014": 2.44716250303,
			"0.015": 1.60464607294,
			"0.016": 1.27687927096,
			"0.017": 0.695191198818,
			"0.018": 0.143232309562,
			"0.019": 0.0,
			"0.02": 0.0,
			"0.021": 0.0,
			"0.022": 0.0,
			"0.023": 0.0,
			"0.024": 0.0,
			"0.025": 0.0
		}
	}
}
