{
	 "smiles": "NC1=NC(N)=NN1", 
	 "Tm": 478.15, 
	 "num_atms": 12, 
	 "gaussian": { 
		 "optdone": 1, 
		 "sigma_profile": "yes", 
		 "theory": "DFT", 
		 "functional": "B3LYP", 
		 "basiset": "6-31G**", 
		 "properties": { 
			 "R2extent": 1913.5908, 
			 "electric_dipole_moment_norm": 2.4708335638, 
			 "electric_quadrupole_moment_norm": 6.87783235111, 
			 "total_energy": -352.974920978, 
			 "HOMO_LUMO_gap": 0.23705, 
			 "cosmo_polarized_energy": -18.88, 
			 "cosmo_cavitation_energy": 16.36, 
			 "cosmo_dispersion_energy": -12.78, 
			 "cosmo_repulsion_energy": 1.12, 
			 "cosmo_total_nonelectrostatic_energy": 4.7, 
			 "SMD_solvation_energy": 0.01 
		},
		"coords": [
			{
				"x": 1.0087085328,
				"y": -0.3556765635,
				"z": -0.873492279,
				"element": "N" 
			},
			{
				"x": 0.0076740288,
				"y": -1.2674014295,
				"z": -1.1622658122,
				"element": "C" 
			},
			{
				"x": 0.0955452684,
				"y": -2.5792185766,
				"z": -1.0120677261,
				"element": "N" 
			},
			{
				"x": -1.1074306246,
				"y": -3.0132944902,
				"z": -1.5096611951,
				"element": "C" 
			},
			{
				"x": -1.4478283659,
				"y": -4.354855396,
				"z": -1.4814860894,
				"element": "N" 
			},
			{
				"x": -1.9298319463,
				"y": -2.0742737481,
				"z": -1.9500402558,
				"element": "N" 
			},
			{
				"x": -1.1868050138,
				"y": -0.9313544404,
				"z": -1.6956109037,
				"element": "N" 
			},
			{
				"x": 0.6900109037,
				"y": 0.5087220546,
				"z": -0.4543383149,
				"element": "H" 
			},
			{
				"x": 1.7446135405,
				"y": -0.7864389803,
				"z": -0.3285484218,
				"element": "H" 
			},
			{
				"x": -0.6446294544,
				"y": -4.9652580528,
				"z": -1.5429650695,
				"element": "H" 
			},
			{
				"x": -2.1809258223,
				"y": -4.5957410891,
				"z": -2.1345726806,
				"element": "H" 
			},
			{
				"x": -1.504301047,
				"y": -0.0412092881,
				"z": -2.0431512521,
				"element": "H" 
			}
		],
		 "valence_orbital": [ 
			{
				"type": "occ",
				"energy": -0.31831,
				"method": "rhf"
			},
			{
				"type": "occ",
				"energy": -0.30813,
				"method": "rhf"
			},
			{
				"type": "occ",
				"energy": -0.26126,
				"method": "rhf"
			},
			{
				"type": "occ",
				"energy": -0.24622,
				"method": "rhf"
			},
			{
				"type": "occ",
				"energy": -0.19613,
				"method": "rhf"
			},
			{
				"type": "unocc",
				"energy": 0.04092,
				"method": "rhf"
			},
			{
				"type": "unocc",
				"energy": 0.06595,
				"method": "rhf"
			},
			{
				"type": "unocc",
				"energy": 0.08875,
				"method": "rhf"
			},
			{
				"type": "unocc",
				"energy": 0.10336,
				"method": "rhf"
			},
			{
				"type": "unocc",
				"energy": 0.11054,
				"method": "rhf"
			}
		],
		"cosmo_sigma_profile": { 
			"-0.025": 0.0,
			"-0.024": 0.0,
			"-0.023": 0.0,
			"-0.022": 0.0,
			"-0.021": 0.0,
			"-0.02": 0.0,
			"-0.019": 0.0,
			"-0.018": 0.0,
			"-0.017": 0.202349091215,
			"-0.016": 1.78332866601,
			"-0.015": 1.67435016422,
			"-0.014": 3.85748762176,
			"-0.013": 4.63065173936,
			"-0.012": 5.09462654935,
			"-0.011": 5.16443207059,
			"-0.01": 5.287308651,
			"-0.009": 5.1227837069,
			"-0.008": 3.55659961186,
			"-0.007": 3.26304752557,
			"-0.006": 3.67497455872,
			"-0.005": 3.30263997971,
			"-0.004": 3.33005422608,
			"-0.003": 3.15560280357,
			"-0.002": 2.90408292295,
			"-0.001": 4.03980453933,
			"0.0": 3.95049948767,
			"0.001": 3.70086721368,
			"0.002": 4.85920572761,
			"0.003": 6.01252269022,
			"0.004": 5.06231267997,
			"0.005": 3.86406089891,
			"0.006": 4.66990123534,
			"0.007": 4.51321778321,
			"0.008": 4.44548297721,
			"0.009": 4.08402041954,
			"0.01": 4.96587217327,
			"0.011": 3.41533903524,
			"0.012": 3.40032029016,
			"0.013": 3.69810776697,
			"0.014": 2.72473609645,
			"0.015": 2.3883707641,
			"0.016": 2.03532713742,
			"0.017": 1.14815575941,
			"0.018": 0.0152665914356,
			"0.019": 0.0,
			"0.02": 0.0,
			"0.021": 0.0,
			"0.022": 0.0,
			"0.023": 0.0,
			"0.024": 0.0,
			"0.025": 0.0
		}
	}
}
