{
	 "smiles": "ClC1=NC=CC(=C1)C#N", 
	 "Tm": 344.65, 
	 "num_atms": 12, 
	 "gaussian": { 
		 "optdone": 1, 
		 "sigma_profile": "yes", 
		 "theory": "DFT", 
		 "functional": "B3LYP", 
		 "basiset": "6-31G**", 
		 "properties": { 
			 "R2extent": 1805.7378, 
			 "electric_dipole_moment_norm": 1.74749123317, 
			 "electric_quadrupole_moment_norm": 14.1938718407, 
			 "total_energy": -800.113345218, 
			 "HOMO_LUMO_gap": 0.19712, 
			 "cosmo_polarized_energy": -9.44, 
			 "cosmo_cavitation_energy": 19.9, 
			 "cosmo_dispersion_energy": -14.38, 
			 "cosmo_repulsion_energy": 1.19, 
			 "cosmo_total_nonelectrostatic_energy": 6.7, 
			 "SMD_solvation_energy": 3.34 
		},
		"coords": [
			{
				"x": -2.3662959641,
				"y": 0.6738364581,
				"z": 1.8898219954,
				"element": "Cl" 
			},
			{
				"x": -0.7543423581,
				"y": 0.4981644654,
				"z": 1.2170330889,
				"element": "C" 
			},
			{
				"x": -0.1404372713,
				"y": -0.6525181303,
				"z": 1.4293960514,
				"element": "N" 
			},
			{
				"x": 1.0913945632,
				"y": -0.8000423814,
				"z": 0.9209502376,
				"element": "C" 
			},
			{
				"x": 1.7455425934,
				"y": 0.1867896888,
				"z": 0.1903655874,
				"element": "C" 
			},
			{
				"x": 1.0723101072,
				"y": 1.4005919245,
				"z": -0.0217407674,
				"element": "C" 
			},
			{
				"x": -0.2144434586,
				"y": 1.5703486041,
				"z": 0.5026073757,
				"element": "C" 
			},
			{
				"x": 1.6921052739,
				"y": 2.4592181025,
				"z": -0.7674323805,
				"element": "C" 
			},
			{
				"x": 2.1973960038,
				"y": 3.3138926362,
				"z": -1.3717421229,
				"element": "N" 
			},
			{
				"x": 1.5731008619,
				"y": -1.7559702546,
				"z": 1.1105142143,
				"element": "H" 
			},
			{
				"x": 2.7422561491,
				"y": 0.0261616418,
				"z": -0.2032133608,
				"element": "H" 
			},
			{
				"x": -0.7668865002,
				"y": 2.4905272451,
				"z": 0.3613400812,
				"element": "H" 
			}
		],
		 "valence_orbital": [ 
			{
				"type": "occ",
				"energy": -0.35458,
				"method": "rhf"
			},
			{
				"type": "occ",
				"energy": -0.33185,
				"method": "rhf"
			},
			{
				"type": "occ",
				"energy": -0.31156,
				"method": "rhf"
			},
			{
				"type": "occ",
				"energy": -0.29984,
				"method": "rhf"
			},
			{
				"type": "occ",
				"energy": -0.28503,
				"method": "rhf"
			},
			{
				"type": "unocc",
				"energy": -0.08791,
				"method": "rhf"
			},
			{
				"type": "unocc",
				"energy": -0.05101,
				"method": "rhf"
			},
			{
				"type": "unocc",
				"energy": 0.00591,
				"method": "rhf"
			},
			{
				"type": "unocc",
				"energy": 0.02429,
				"method": "rhf"
			},
			{
				"type": "unocc",
				"energy": 0.05026,
				"method": "rhf"
			}
		],
		"cosmo_sigma_profile": { 
			"-0.025": 0.0,
			"-0.024": 0.0,
			"-0.023": 0.0,
			"-0.022": 0.0,
			"-0.021": 0.0,
			"-0.02": 0.0,
			"-0.019": 0.0,
			"-0.018": 0.0,
			"-0.017": 0.0,
			"-0.016": 0.0,
			"-0.015": 0.0,
			"-0.014": 0.0,
			"-0.013": 0.0,
			"-0.012": 0.0,
			"-0.011": 0.125029378627,
			"-0.01": 2.66198041137,
			"-0.009": 5.74162626241,
			"-0.008": 7.31078926226,
			"-0.007": 5.65401277532,
			"-0.006": 5.33649036747,
			"-0.005": 6.2202146774,
			"-0.004": 9.58179568533,
			"-0.003": 13.34934701,
			"-0.002": 18.7126988307,
			"-0.001": 12.6570575098,
			"0.0": 7.77040277496,
			"0.001": 7.07439531574,
			"0.002": 8.03416157449,
			"0.003": 10.6352860278,
			"0.004": 10.9398920276,
			"0.005": 4.84947062113,
			"0.006": 5.20990770148,
			"0.007": 4.45839361697,
			"0.008": 4.8507328504,
			"0.009": 3.73758845075,
			"0.01": 3.59129531111,
			"0.011": 2.9639752556,
			"0.012": 2.31755723886,
			"0.013": 0.794227932833,
			"0.014": 0.116206671675,
			"0.015": 0.0,
			"0.016": 0.0,
			"0.017": 0.0,
			"0.018": 0.0,
			"0.019": 0.0,
			"0.02": 0.0,
			"0.021": 0.0,
			"0.022": 0.0,
			"0.023": 0.0,
			"0.024": 0.0,
			"0.025": 0.0
		}
	}
}
