{
	 "smiles": "CCOC(=O)C1=C(N(N=C1)C1=NC=C(C=C1)C(F)(F)F)C(F)(F)F", 
	 "Tm": 372.15, 
	 "num_atms": 33, 
	 "gaussian": { 
		 "optdone": 1, 
		 "sigma_profile": "yes", 
		 "theory": "DFT", 
		 "functional": "B3LYP", 
		 "basiset": "6-31G**", 
		 "properties": { 
			 "R2extent": 11655.0968, 
			 "electric_dipole_moment_norm": 3.29143422082, 
			 "electric_quadrupole_moment_norm": 11.0121133108, 
			 "total_energy": -1414.53878098, 
			 "HOMO_LUMO_gap": 0.19759, 
			 "cosmo_polarized_energy": -13.28, 
			 "cosmo_cavitation_energy": 41.74, 
			 "cosmo_dispersion_energy": -28.05, 
			 "cosmo_repulsion_energy": 2.01, 
			 "cosmo_total_nonelectrostatic_energy": 15.71, 
			 "SMD_solvation_energy": 8.14 
		},
		"coords": [
			{
				"x": 2.7930583542,
				"y": -4.617567997,
				"z": 0.7548017254,
				"element": "C" 
			},
			{
				"x": 1.4173879394,
				"y": -5.0335200456,
				"z": 0.2709337217,
				"element": "C" 
			},
			{
				"x": 0.6438224582,
				"y": -3.8235288772,
				"z": 0.0862224526,
				"element": "O" 
			},
			{
				"x": -0.5971486678,
				"y": -3.9858457841,
				"z": -0.4054914133,
				"element": "C" 
			},
			{
				"x": -1.1048019602,
				"y": -5.0655592746,
				"z": -0.6385085372,
				"element": "O" 
			},
			{
				"x": -1.3180593575,
				"y": -2.7070094856,
				"z": -0.5833868302,
				"element": "C" 
			},
			{
				"x": -0.8972341243,
				"y": -1.3831790149,
				"z": -0.6608580797,
				"element": "C" 
			},
			{
				"x": -2.0351271267,
				"y": -0.6234742674,
				"z": -0.7667031658,
				"element": "N" 
			},
			{
				"x": -3.1589072279,
				"y": -1.3863838871,
				"z": -0.7761034251,
				"element": "N" 
			},
			{
				"x": -2.7294229181,
				"y": -2.6321205039,
				"z": -0.6746344844,
				"element": "C" 
			},
			{
				"x": -2.1979500206,
				"y": 0.8002831966,
				"z": -0.7776991332,
				"element": "C" 
			},
			{
				"x": -3.009678465,
				"y": 1.2763936603,
				"z": -1.7142635652,
				"element": "N" 
			},
			{
				"x": -3.2282383036,
				"y": 2.5935912526,
				"z": -1.7258993547,
				"element": "C" 
			},
			{
				"x": -2.6370897874,
				"y": 3.4746413171,
				"z": -0.8173185097,
				"element": "C" 
			},
			{
				"x": -1.7882638419,
				"y": 2.9530035864,
				"z": 0.1611152216,
				"element": "C" 
			},
			{
				"x": -1.5667174579,
				"y": 1.5819993182,
				"z": 0.1945274665,
				"element": "C" 
			},
			{
				"x": -2.8728051312,
				"y": 4.9573166138,
				"z": -0.916063963,
				"element": "C" 
			},
			{
				"x": -2.8698137182,
				"y": 5.5381273931,
				"z": 0.3034851958,
				"element": "F" 
			},
			{
				"x": -4.0535067012,
				"y": 5.2365173988,
				"z": -1.504561548,
				"element": "F" 
			},
			{
				"x": -1.9088345266,
				"y": 5.5621510959,
				"z": -1.644448213,
				"element": "F" 
			},
			{
				"x": 0.4858403286,
				"y": -0.7975074444,
				"z": -0.7274475093,
				"element": "C" 
			},
			{
				"x": 0.9593198346,
				"y": -0.4914384829,
				"z": 0.5044874053,
				"element": "F" 
			},
			{
				"x": 0.4970647241,
				"y": 0.3460522479,
				"z": -1.4500794482,
				"element": "F" 
			},
			{
				"x": 1.3546425883,
				"y": -1.6363212123,
				"z": -1.3043230542,
				"element": "F" 
			},
			{
				"x": 3.2769443305,
				"y": -3.9595407145,
				"z": 0.0276767087,
				"element": "H" 
			},
			{
				"x": 3.4208420019,
				"y": -5.5030826168,
				"z": 0.8934948674,
				"element": "H" 
			},
			{
				"x": 2.7290669637,
				"y": -4.0875530008,
				"z": 1.7093708575,
				"element": "H" 
			},
			{
				"x": 1.4580722312,
				"y": -5.5726321236,
				"z": -0.6804606217,
				"element": "H" 
			},
			{
				"x": 0.8993293165,
				"y": -5.6742035627,
				"z": 0.9914582557,
				"element": "H" 
			},
			{
				"x": -3.4247175002,
				"y": -3.4591467227,
				"z": -0.6524845355,
				"element": "H" 
			},
			{
				"x": -3.9040400135,
				"y": 2.9638659262,
				"z": -2.491626706,
				"element": "H" 
			},
			{
				"x": -1.3288751108,
				"y": 3.6057280989,
				"z": 0.8955294077,
				"element": "H" 
			},
			{
				"x": -0.930059111,
				"y": 1.1304439123,
				"z": 0.9454588116,
				"element": "H" 
			}
		],
		 "valence_orbital": [ 
			{
				"type": "occ",
				"energy": -0.30599,
				"method": "rhf"
			},
			{
				"type": "occ",
				"energy": -0.29442,
				"method": "rhf"
			},
			{
				"type": "occ",
				"energy": -0.28576,
				"method": "rhf"
			},
			{
				"type": "occ",
				"energy": -0.28112,
				"method": "rhf"
			},
			{
				"type": "occ",
				"energy": -0.27093,
				"method": "rhf"
			},
			{
				"type": "unocc",
				"energy": -0.07334,
				"method": "rhf"
			},
			{
				"type": "unocc",
				"energy": -0.05333,
				"method": "rhf"
			},
			{
				"type": "unocc",
				"energy": -0.03663,
				"method": "rhf"
			},
			{
				"type": "unocc",
				"energy": -0.00108,
				"method": "rhf"
			},
			{
				"type": "unocc",
				"energy": 0.08073,
				"method": "rhf"
			}
		],
		"cosmo_sigma_profile": { 
			"-0.025": 0.0,
			"-0.024": 0.0,
			"-0.023": 0.0,
			"-0.022": 0.0,
			"-0.021": 0.0,
			"-0.02": 0.0,
			"-0.019": 0.0,
			"-0.018": 0.0,
			"-0.017": 0.0,
			"-0.016": 0.0,
			"-0.015": 0.0,
			"-0.014": 0.0,
			"-0.013": 0.0,
			"-0.012": 0.0,
			"-0.011": 0.0,
			"-0.01": 0.433420249397,
			"-0.009": 4.59727818159,
			"-0.008": 8.46918252532,
			"-0.007": 6.61512025281,
			"-0.006": 8.64077805825,
			"-0.005": 15.8147430904,
			"-0.004": 23.3166155093,
			"-0.003": 27.5719330275,
			"-0.002": 31.5443800845,
			"-0.001": 33.8608863384,
			"0.0": 27.6329292688,
			"0.001": 30.707090528,
			"0.002": 50.1095393829,
			"0.003": 22.459784426,
			"0.004": 7.33171777926,
			"0.005": 4.89918493733,
			"0.006": 3.01261743322,
			"0.007": 2.87086644296,
			"0.008": 3.47058999924,
			"0.009": 3.57884150004,
			"0.01": 3.93538420685,
			"0.011": 5.72654612319,
			"0.012": 4.51622584366,
			"0.013": 2.14824931693,
			"0.014": 2.07638840182,
			"0.015": 0.109933727309,
			"0.016": 0.0,
			"0.017": 0.0,
			"0.018": 0.0,
			"0.019": 0.0,
			"0.02": 0.0,
			"0.021": 0.0,
			"0.022": 0.0,
			"0.023": 0.0,
			"0.024": 0.0,
			"0.025": 0.0
		}
	}
}
