{
	 "smiles": "N1C=CC(=N1)C1=CC=CC=C1", 
	 "Tm": 349.15, 
	 "num_atms": 19, 
	 "gaussian": { 
		 "optdone": 1, 
		 "sigma_profile": "yes", 
		 "theory": "DFT", 
		 "functional": "B3LYP", 
		 "basiset": "6-31G**", 
		 "properties": { 
			 "R2extent": 2391.8468, 
			 "electric_dipole_moment_norm": 2.43590928813, 
			 "electric_quadrupole_moment_norm": 17.4994386521, 
			 "total_energy": -457.264564743, 
			 "HOMO_LUMO_gap": 0.19828, 
			 "cosmo_polarized_energy": -10.85, 
			 "cosmo_cavitation_energy": 22.99, 
			 "cosmo_dispersion_energy": -17.43, 
			 "cosmo_repulsion_energy": 1.38, 
			 "cosmo_total_nonelectrostatic_energy": 6.94, 
			 "SMD_solvation_energy": 3.43 
		},
		"coords": [
			{
				"x": 3.2096689485,
				"y": 2.3767891425,
				"z": -0.1373170188,
				"element": "N" 
			},
			{
				"x": 2.6582158439,
				"y": 3.5026604314,
				"z": -0.6624594163,
				"element": "C" 
			},
			{
				"x": 1.3319565875,
				"y": 3.2076241615,
				"z": -0.8918917206,
				"element": "C" 
			},
			{
				"x": 1.1725941895,
				"y": 1.8583761187,
				"z": -0.4675544403,
				"element": "C" 
			},
			{
				"x": 2.331245012,
				"y": 1.365487057,
				"z": -0.0087992875,
				"element": "N" 
			},
			{
				"x": -0.0423632102,
				"y": 1.0250093796,
				"z": -0.4841927217,
				"element": "C" 
			},
			{
				"x": -1.2616278511,
				"y": 1.5299410434,
				"z": -0.9623600703,
				"element": "C" 
			},
			{
				"x": -2.4072242954,
				"y": 0.7351544261,
				"z": -0.9750398109,
				"element": "C" 
			},
			{
				"x": -2.3562572179,
				"y": -0.5797979194,
				"z": -0.509965834,
				"element": "C" 
			},
			{
				"x": -1.1472512583,
				"y": -1.0922721466,
				"z": -0.0317481369,
				"element": "C" 
			},
			{
				"x": -0.0021224969,
				"y": -0.3003587094,
				"z": -0.0182000278,
				"element": "C" 
			},
			{
				"x": 4.1645414591,
				"y": 2.2323526496,
				"z": 0.1508000865,
				"element": "H" 
			},
			{
				"x": 3.2362128858,
				"y": 4.4002121452,
				"z": -0.8270266846,
				"element": "H" 
			},
			{
				"x": 0.5886568762,
				"y": 3.8712950737,
				"z": -1.3057438509,
				"element": "H" 
			},
			{
				"x": -1.3184667951,
				"y": 2.5509307487,
				"z": -1.3277893879,
				"element": "H" 
			},
			{
				"x": -3.3410749425,
				"y": 1.1454127326,
				"z": -1.3493601922,
				"element": "H" 
			},
			{
				"x": -3.2486877752,
				"y": -1.1988911752,
				"z": -0.5198533132,
				"element": "H" 
			},
			{
				"x": -1.0964454449,
				"y": -2.1146950487,
				"z": 0.332651681,
				"element": "H" 
			},
			{
				"x": 0.938029485,
				"y": -0.6945301105,
				"z": 0.3521501464,
				"element": "H" 
			}
		],
		 "valence_orbital": [ 
			{
				"type": "occ",
				"energy": -0.2864,
				"method": "rhf"
			},
			{
				"type": "occ",
				"energy": -0.28539,
				"method": "rhf"
			},
			{
				"type": "occ",
				"energy": -0.24914,
				"method": "rhf"
			},
			{
				"type": "occ",
				"energy": -0.24097,
				"method": "rhf"
			},
			{
				"type": "occ",
				"energy": -0.21391,
				"method": "rhf"
			},
			{
				"type": "unocc",
				"energy": -0.01563,
				"method": "rhf"
			},
			{
				"type": "unocc",
				"energy": 0.00687,
				"method": "rhf"
			},
			{
				"type": "unocc",
				"energy": 0.03182,
				"method": "rhf"
			},
			{
				"type": "unocc",
				"energy": 0.0785,
				"method": "rhf"
			},
			{
				"type": "unocc",
				"energy": 0.09454,
				"method": "rhf"
			}
		],
		"cosmo_sigma_profile": { 
			"-0.025": 0.0,
			"-0.024": 0.0,
			"-0.023": 0.0,
			"-0.022": 0.0,
			"-0.021": 0.0,
			"-0.02": 0.0,
			"-0.019": 0.0,
			"-0.018": 0.0,
			"-0.017": 0.494894817312,
			"-0.016": 1.57404137154,
			"-0.015": 1.48096919361,
			"-0.014": 1.29721722067,
			"-0.013": 0.641030355664,
			"-0.012": 1.33400454466,
			"-0.011": 1.06039831735,
			"-0.01": 0.818258124114,
			"-0.009": 2.87443008295,
			"-0.008": 3.05250604837,
			"-0.007": 5.35893149528,
			"-0.006": 6.71432472427,
			"-0.005": 10.7033412125,
			"-0.004": 13.5028105066,
			"-0.003": 12.5045045958,
			"-0.002": 10.9346633594,
			"-0.001": 8.85772561443,
			"0.0": 8.24118924028,
			"0.001": 9.58327414623,
			"0.002": 9.85030458891,
			"0.003": 13.2263291778,
			"0.004": 18.174841176,
			"0.005": 18.3722441593,
			"0.006": 13.0379684527,
			"0.007": 2.62616418178,
			"0.008": 1.48307050384,
			"0.009": 1.20043010866,
			"0.01": 1.32935401896,
			"0.011": 1.67534779298,
			"0.012": 1.10996365805,
			"0.013": 0.873907785391,
			"0.014": 0.81320490447,
			"0.015": 0.0,
			"0.016": 0.0,
			"0.017": 0.0,
			"0.018": 0.0,
			"0.019": 0.0,
			"0.02": 0.0,
			"0.021": 0.0,
			"0.022": 0.0,
			"0.023": 0.0,
			"0.024": 0.0,
			"0.025": 0.0
		}
	}
}
