{
	 "smiles": "CCCCCCCCCCCCCC(=O)OC1=CC=C(C=C1)N=CC1=CC=CN=C1", 
	 "Tm": 355.85, 
	 "num_atms": 66, 
	 "gaussian": { 
		 "optdone": 1, 
		 "sigma_profile": "yes", 
		 "theory": "DFT", 
		 "functional": "B3LYP", 
		 "basiset": "6-31G**", 
		 "properties": { 
			 "R2extent": 31898.4436, 
			 "electric_dipole_moment_norm": 1.91842071246, 
			 "electric_quadrupole_moment_norm": 15.8964863904, 
			 "total_energy": -1272.44474382, 
			 "HOMO_LUMO_gap": 0.1517, 
			 "cosmo_polarized_energy": -13.44, 
			 "cosmo_cavitation_energy": 68.18, 
			 "cosmo_dispersion_energy": -46.31, 
			 "cosmo_repulsion_energy": 3.57, 
			 "cosmo_total_nonelectrostatic_energy": 25.43, 
			 "SMD_solvation_energy": 8.17 
		},
		"coords": [
			{
				"x": 2.5593155788,
				"y": 5.5658107456,
				"z": 0.9999009537,
				"element": "C" 
			},
			{
				"x": 1.6097190975,
				"y": 6.0897971475,
				"z": 2.0825095296,
				"element": "C" 
			},
			{
				"x": 0.1298445776,
				"y": 5.9132371354,
				"z": 1.7162849112,
				"element": "C" 
			},
			{
				"x": -0.8621317821,
				"y": 6.5023116174,
				"z": 2.7338130152,
				"element": "C" 
			},
			{
				"x": -0.871679088,
				"y": 5.9025883918,
				"z": 4.1540597615,
				"element": "C" 
			},
			{
				"x": -1.3309269664,
				"y": 4.4322158111,
				"z": 4.2722229609,
				"element": "C" 
			},
			{
				"x": -0.2131350719,
				"y": 3.3812564196,
				"z": 4.1612819593,
				"element": "C" 
			},
			{
				"x": -0.6735440864,
				"y": 1.9335010827,
				"z": 4.4064258223,
				"element": "C" 
			},
			{
				"x": -1.6122698299,
				"y": 1.3716129108,
				"z": 3.3274068575,
				"element": "C" 
			},
			{
				"x": -2.0623788479,
				"y": -0.0818925264,
				"z": 3.5603286939,
				"element": "C" 
			},
			{
				"x": -0.9461048496,
				"y": -1.1245069206,
				"z": 3.3962123008,
				"element": "C" 
			},
			{
				"x": -1.3609042503,
				"y": -2.5667362884,
				"z": 3.73301034,
				"element": "C" 
			},
			{
				"x": -2.5280803337,
				"y": -3.1316072223,
				"z": 2.8902332739,
				"element": "C" 
			},
			{
				"x": -2.2467644783,
				"y": -3.0784968902,
				"z": 1.4055046193,
				"element": "C" 
			},
			{
				"x": -2.7270092152,
				"y": -2.2943903552,
				"z": 0.622178333,
				"element": "O" 
			},
			{
				"x": -1.3273890232,
				"y": -4.0411261991,
				"z": 1.071374473,
				"element": "O" 
			},
			{
				"x": -0.8414404609,
				"y": -4.174322584,
				"z": -0.2290433884,
				"element": "C" 
			},
			{
				"x": 0.5130945264,
				"y": -4.4894675396,
				"z": -0.3359033768,
				"element": "C" 
			},
			{
				"x": 1.0771896319,
				"y": -4.7125993687,
				"z": -1.5884130759,
				"element": "C" 
			},
			{
				"x": 0.2878288527,
				"y": -4.6257212251,
				"z": -2.7492208758,
				"element": "C" 
			},
			{
				"x": -1.0819927008,
				"y": -4.3461321251,
				"z": -2.6126300869,
				"element": "C" 
			},
			{
				"x": -1.6508869203,
				"y": -4.1056829808,
				"z": -1.365879985,
				"element": "C" 
			},
			{
				"x": 0.7775030903,
				"y": -4.8545490572,
				"z": -4.0463731161,
				"element": "N" 
			},
			{
				"x": 1.9657827343,
				"y": -4.4958162726,
				"z": -4.3643710397,
				"element": "C" 
			},
			{
				"x": 2.5331085563,
				"y": -4.7684489801,
				"z": -5.6883518821,
				"element": "C" 
			},
			{
				"x": 1.8216424862,
				"y": -5.4559204488,
				"z": -6.684949325,
				"element": "C" 
			},
			{
				"x": 2.4326988797,
				"y": -5.6706803088,
				"z": -7.9128873539,
				"element": "C" 
			},
			{
				"x": 3.7349190467,
				"y": -5.1955885424,
				"z": -8.1080765035,
				"element": "C" 
			},
			{
				"x": 4.4330341959,
				"y": -4.5392577322,
				"z": -7.1733621243,
				"element": "N" 
			},
			{
				"x": 3.8324274476,
				"y": -4.3375893601,
				"z": -5.9966697207,
				"element": "C" 
			},
			{
				"x": 3.6079113494,
				"y": 5.7070929471,
				"z": 1.2821577371,
				"element": "H" 
			},
			{
				"x": 2.4049813488,
				"y": 4.4952105168,
				"z": 0.8218361879,
				"element": "H" 
			},
			{
				"x": 2.3984778069,
				"y": 6.0831334161,
				"z": 0.0470067472,
				"element": "H" 
			},
			{
				"x": 1.8247218603,
				"y": 5.5781687277,
				"z": 3.0288906068,
				"element": "H" 
			},
			{
				"x": 1.8103114346,
				"y": 7.1553418052,
				"z": 2.2616773424,
				"element": "H" 
			},
			{
				"x": -0.0493034132,
				"y": 6.3984137356,
				"z": 0.7465638219,
				"element": "H" 
			},
			{
				"x": -0.0827256568,
				"y": 4.84822152,
				"z": 1.5549092367,
				"element": "H" 
			},
			{
				"x": -0.6651657168,
				"y": 7.5801543857,
				"z": 2.8214067234,
				"element": "H" 
			},
			{
				"x": -1.8765142879,
				"y": 6.4170859127,
				"z": 2.3201893008,
				"element": "H" 
			},
			{
				"x": 0.1162212228,
				"y": 6.0154457653,
				"z": 4.6205528363,
				"element": "H" 
			},
			{
				"x": -1.5495777757,
				"y": 6.5231273407,
				"z": 4.7537954621,
				"element": "H" 
			},
			{
				"x": -1.8168251027,
				"y": 4.2946834182,
				"z": 5.2481151098,
				"element": "H" 
			},
			{
				"x": -2.1100742213,
				"y": 4.2401377745,
				"z": 3.5227151787,
				"element": "H" 
			},
			{
				"x": 0.5652456554,
				"y": 3.6294386031,
				"z": 4.8958573882,
				"element": "H" 
			},
			{
				"x": 0.2711571395,
				"y": 3.4389988575,
				"z": 3.1785089285,
				"element": "H" 
			},
			{
				"x": -1.1734221313,
				"y": 1.8737014901,
				"z": 5.384612741,
				"element": "H" 
			},
			{
				"x": 0.2176656291,
				"y": 1.2980124567,
				"z": 4.4830599201,
				"element": "H" 
			},
			{
				"x": -2.5076893063,
				"y": 2.0014052527,
				"z": 3.2630684397,
				"element": "H" 
			},
			{
				"x": -1.1216563271,
				"y": 1.4437872523,
				"z": 2.345896892,
				"element": "H" 
			},
			{
				"x": -2.8667384332,
				"y": -0.3101229586,
				"z": 2.8514734144,
				"element": "H" 
			},
			{
				"x": -2.4986240778,
				"y": -0.1686417997,
				"z": 4.5667106777,
				"element": "H" 
			},
			{
				"x": -0.5685670057,
				"y": -1.0803726822,
				"z": 2.3652401541,
				"element": "H" 
			},
			{
				"x": -0.0960680659,
				"y": -0.8670328683,
				"z": 4.0394720694,
				"element": "H" 
			},
			{
				"x": -1.6569190152,
				"y": -2.6251955029,
				"z": 4.7879643705,
				"element": "H" 
			},
			{
				"x": -0.4955970925,
				"y": -3.2286043888,
				"z": 3.6145222915,
				"element": "H" 
			},
			{
				"x": -3.4455327707,
				"y": -2.5652888892,
				"z": 3.0623909663,
				"element": "H" 
			},
			{
				"x": -2.7051306807,
				"y": -4.1730488361,
				"z": 3.1783431776,
				"element": "H" 
			},
			{
				"x": 1.1075209389,
				"y": -4.570240321,
				"z": 0.5683245242,
				"element": "H" 
			},
			{
				"x": 2.1239191206,
				"y": -4.9903232042,
				"z": -1.6633205439,
				"element": "H" 
			},
			{
				"x": -1.6910305199,
				"y": -4.3076820311,
				"z": -3.5098681453,
				"element": "H" 
			},
			{
				"x": -2.7021081951,
				"y": -3.8680872533,
				"z": -1.2766579845,
				"element": "H" 
			},
			{
				"x": 2.6204201272,
				"y": -3.9519322302,
				"z": -3.667337783,
				"element": "H" 
			},
			{
				"x": 0.814722404,
				"y": -5.7999999982,
				"z": -6.4721275195,
				"element": "H" 
			},
			{
				"x": 1.9187219949,
				"y": -6.1966388896,
				"z": -8.7114245169,
				"element": "H" 
			},
			{
				"x": 4.2386036674,
				"y": -5.3508020394,
				"z": -9.0606294345,
				"element": "H" 
			},
			{
				"x": 4.4143972986,
				"y": -3.8009456197,
				"z": -5.2469122696,
				"element": "H" 
			}
		],
		 "valence_orbital": [ 
			{
				"type": "occ",
				"energy": -0.27594,
				"method": "rhf"
			},
			{
				"type": "occ",
				"energy": -0.26363,
				"method": "rhf"
			},
			{
				"type": "occ",
				"energy": -0.25948,
				"method": "rhf"
			},
			{
				"type": "occ",
				"energy": -0.25738,
				"method": "rhf"
			},
			{
				"type": "occ",
				"energy": -0.22107,
				"method": "rhf"
			},
			{
				"type": "unocc",
				"energy": -0.06937,
				"method": "rhf"
			},
			{
				"type": "unocc",
				"energy": -0.02572,
				"method": "rhf"
			},
			{
				"type": "unocc",
				"energy": -0.00891,
				"method": "rhf"
			},
			{
				"type": "unocc",
				"energy": -0.00853,
				"method": "rhf"
			},
			{
				"type": "unocc",
				"energy": 0.01424,
				"method": "rhf"
			}
		],
		"cosmo_sigma_profile": { 
			"-0.025": 0.0,
			"-0.024": 0.0,
			"-0.023": 0.0,
			"-0.022": 0.0,
			"-0.021": 0.0,
			"-0.02": 0.0,
			"-0.019": 0.0,
			"-0.018": 0.0,
			"-0.017": 0.0,
			"-0.016": 0.0,
			"-0.015": 0.0,
			"-0.014": 0.0,
			"-0.013": 0.0,
			"-0.012": 0.0,
			"-0.011": 0.0,
			"-0.01": 0.0,
			"-0.009": 0.135985745447,
			"-0.008": 1.98627550513,
			"-0.007": 11.5579932218,
			"-0.006": 18.0375812938,
			"-0.005": 19.276020018,
			"-0.004": 21.5997096825,
			"-0.003": 27.0384346167,
			"-0.002": 55.674949428,
			"-0.001": 84.889393903,
			"0.0": 84.7398219893,
			"0.001": 81.5027635724,
			"0.002": 46.6936138789,
			"0.003": 19.983123712,
			"0.004": 17.6926748592,
			"0.005": 7.63121952646,
			"0.006": 5.46728566943,
			"0.007": 5.83254596873,
			"0.008": 5.26396997383,
			"0.009": 3.50837166667,
			"0.01": 4.03342957953,
			"0.011": 4.72705906445,
			"0.012": 2.59668558159,
			"0.013": 1.05898662942,
			"0.014": 0.921668893558,
			"0.015": 0.911883053913,
			"0.016": 0.678701234824,
			"0.017": 0.1471729834,
			"0.018": 0.0,
			"0.019": 0.0,
			"0.02": 0.0,
			"0.021": 0.0,
			"0.022": 0.0,
			"0.023": 0.0,
			"0.024": 0.0,
			"0.025": 0.0
		}
	}
}
