{
	 "smiles": "CN(C)CC(C)(C)CNC(N)=S", 
	 "Tm": 395.15, 
	 "num_atms": 31, 
	 "gaussian": { 
		 "optdone": 1, 
		 "sigma_profile": "yes", 
		 "theory": "DFT", 
		 "functional": "B3LYP", 
		 "basiset": "6-31G**", 
		 "properties": { 
			 "R2extent": 3655.8808, 
			 "electric_dipole_moment_norm": 6.43581229838, 
			 "electric_quadrupole_moment_norm": 23.2080502083, 
			 "total_energy": -878.759181283, 
			 "HOMO_LUMO_gap": 0.20455, 
			 "cosmo_polarized_energy": -17.87, 
			 "cosmo_cavitation_energy": 32.66, 
			 "cosmo_dispersion_energy": -22.7, 
			 "cosmo_repulsion_energy": 1.77, 
			 "cosmo_total_nonelectrostatic_energy": 11.74, 
			 "SMD_solvation_energy": 4.63 
		},
		"coords": [
			{
				"x": -1.4736028815,
				"y": 0.2876695043,
				"z": -1.5778311215,
				"element": "C" 
			},
			{
				"x": -0.7234910124,
				"y": 0.6106665406,
				"z": -0.3627102724,
				"element": "N" 
			},
			{
				"x": -1.2923788825,
				"y": 1.8033145382,
				"z": 0.2650110818,
				"element": "C" 
			},
			{
				"x": 0.7139283156,
				"y": 0.7259804524,
				"z": -0.6707867209,
				"element": "C" 
			},
			{
				"x": 1.7169178399,
				"y": 0.7042440045,
				"z": 0.5270918479,
				"element": "C" 
			},
			{
				"x": 2.0426169113,
				"y": 2.1222546639,
				"z": 1.039933318,
				"element": "C" 
			},
			{
				"x": 3.02272746,
				"y": 0.0705215982,
				"z": 0.0027355162,
				"element": "C" 
			},
			{
				"x": 1.1822618317,
				"y": -0.1315962449,
				"z": 1.7168982472,
				"element": "C" 
			},
			{
				"x": 0.5998852516,
				"y": -1.3998251182,
				"z": 1.3106318634,
				"element": "N" 
			},
			{
				"x": 0.9290427074,
				"y": -2.6187634714,
				"z": 1.7995169923,
				"element": "C" 
			},
			{
				"x": 0.1248110848,
				"y": -3.6372286767,
				"z": 1.3546937078,
				"element": "N" 
			},
			{
				"x": 2.1845463451,
				"y": -2.9311742704,
				"z": 2.8824154557,
				"element": "S" 
			},
			{
				"x": -1.0972864271,
				"y": -0.6424937401,
				"z": -2.0155027876,
				"element": "H" 
			},
			{
				"x": -1.4070147859,
				"y": 1.0763496982,
				"z": -2.3497463789,
				"element": "H" 
			},
			{
				"x": -2.5306629827,
				"y": 0.1465306623,
				"z": -1.3315562706,
				"element": "H" 
			},
			{
				"x": -0.8326730959,
				"y": 1.9882533459,
				"z": 1.2366361685,
				"element": "H" 
			},
			{
				"x": -2.3631566026,
				"y": 1.6494336801,
				"z": 0.4303704367,
				"element": "H" 
			},
			{
				"x": -1.1688988686,
				"y": 2.7108033573,
				"z": -0.3543847532,
				"element": "H" 
			},
			{
				"x": 0.9466142862,
				"y": -0.1366934615,
				"z": -1.3037389345,
				"element": "H" 
			},
			{
				"x": 0.917106002,
				"y": 1.6229095918,
				"z": -1.2870831429,
				"element": "H" 
			},
			{
				"x": 2.4873015686,
				"y": 2.7281403868,
				"z": 0.243252849,
				"element": "H" 
			},
			{
				"x": 2.76611157,
				"y": 2.0747322505,
				"z": 1.8612301002,
				"element": "H" 
			},
			{
				"x": 1.1616306897,
				"y": 2.6545166957,
				"z": 1.4092546295,
				"element": "H" 
			},
			{
				"x": 2.8772918302,
				"y": -0.9876681778,
				"z": -0.235257455,
				"element": "H" 
			},
			{
				"x": 3.8172962157,
				"y": 0.1368841577,
				"z": 0.7522823224,
				"element": "H" 
			},
			{
				"x": 3.3703712603,
				"y": 0.5809402272,
				"z": -0.9032389889,
				"element": "H" 
			},
			{
				"x": 0.4249262893,
				"y": 0.4411331445,
				"z": 2.2672517722,
				"element": "H" 
			},
			{
				"x": 1.9941805695,
				"y": -0.3531623644,
				"z": 2.4133985516,
				"element": "H" 
			},
			{
				"x": -0.2559655439,
				"y": -1.2821477817,
				"z": 0.775370229,
				"element": "H" 
			},
			{
				"x": 0.4557156078,
				"y": -4.5663707025,
				"z": 1.5635422389,
				"element": "H" 
			},
			{
				"x": -0.3977525535,
				"y": -3.5260544906,
				"z": 0.4960194982,
				"element": "H" 
			}
		],
		 "valence_orbital": [ 
			{
				"type": "occ",
				"energy": -0.32231,
				"method": "rhf"
			},
			{
				"type": "occ",
				"energy": -0.25563,
				"method": "rhf"
			},
			{
				"type": "occ",
				"energy": -0.23556,
				"method": "rhf"
			},
			{
				"type": "occ",
				"energy": -0.20128,
				"method": "rhf"
			},
			{
				"type": "occ",
				"energy": -0.19139,
				"method": "rhf"
			},
			{
				"type": "unocc",
				"energy": 0.01316,
				"method": "rhf"
			},
			{
				"type": "unocc",
				"energy": 0.05438,
				"method": "rhf"
			},
			{
				"type": "unocc",
				"energy": 0.07641,
				"method": "rhf"
			},
			{
				"type": "unocc",
				"energy": 0.09625,
				"method": "rhf"
			},
			{
				"type": "unocc",
				"energy": 0.10164,
				"method": "rhf"
			}
		],
		"cosmo_sigma_profile": { 
			"-0.025": 0.0,
			"-0.024": 0.0,
			"-0.023": 0.0,
			"-0.022": 0.0,
			"-0.021": 0.0,
			"-0.02": 0.0,
			"-0.019": 0.0,
			"-0.018": 0.0,
			"-0.017": 0.0,
			"-0.016": 0.0,
			"-0.015": 0.718783697446,
			"-0.014": 2.48508026191,
			"-0.013": 2.76087254926,
			"-0.012": 2.25897662611,
			"-0.011": 2.30466572046,
			"-0.01": 2.64065500282,
			"-0.009": 1.95180575488,
			"-0.008": 1.932484663,
			"-0.007": 1.70477099203,
			"-0.006": 3.17723915452,
			"-0.005": 4.41458111134,
			"-0.004": 13.9919454332,
			"-0.003": 23.4454195579,
			"-0.002": 36.7888164767,
			"-0.001": 38.6767929549,
			"0.0": 30.9694314262,
			"0.001": 20.2969221259,
			"0.002": 10.0517734208,
			"0.003": 4.03961502439,
			"0.004": 4.99513832707,
			"0.005": 6.19068965617,
			"0.006": 4.22308537451,
			"0.007": 4.58749056542,
			"0.008": 4.76301861361,
			"0.009": 4.56510093508,
			"0.01": 4.92896603062,
			"0.011": 6.1685730596,
			"0.012": 7.27212644449,
			"0.013": 2.89750626473,
			"0.014": 0.0350035400032,
			"0.015": 0.0,
			"0.016": 0.0,
			"0.017": 0.0,
			"0.018": 0.0,
			"0.019": 0.0,
			"0.02": 0.0,
			"0.021": 0.0,
			"0.022": 0.0,
			"0.023": 0.0,
			"0.024": 0.0,
			"0.025": 0.0
		}
	}
}
