{
	 "smiles": "COC1=CC=C(N=C=S)C(OC)=C1", 
	 "Tm": 325.15, 
	 "num_atms": 22, 
	 "gaussian": { 
		 "optdone": 1, 
		 "sigma_profile": "yes", 
		 "theory": "DFT", 
		 "functional": "B3LYP", 
		 "basiset": "6-31G**", 
		 "properties": { 
			 "R2extent": 3619.0742, 
			 "electric_dipole_moment_norm": 5.63655788314, 
			 "electric_quadrupole_moment_norm": 10.298315989, 
			 "total_energy": -951.73786281, 
			 "HOMO_LUMO_gap": 0.17613, 
			 "cosmo_polarized_energy": -9.62, 
			 "cosmo_cavitation_energy": 29.12, 
			 "cosmo_dispersion_energy": -21.21, 
			 "cosmo_repulsion_energy": 1.66, 
			 "cosmo_total_nonelectrostatic_energy": 9.56, 
			 "SMD_solvation_energy": 6.69 
		},
		"coords": [
			{
				"x": -1.9998886146,
				"y": -3.0543531267,
				"z": -2.1386002763,
				"element": "C" 
			},
			{
				"x": -2.2537133295,
				"y": -1.6790774892,
				"z": -2.3774765224,
				"element": "O" 
			},
			{
				"x": -1.6248977604,
				"y": -0.7517436833,
				"z": -1.602558147,
				"element": "C" 
			},
			{
				"x": -1.9205276211,
				"y": 0.5866013927,
				"z": -1.8937886194,
				"element": "C" 
			},
			{
				"x": -1.323979094,
				"y": 1.596472365,
				"z": -1.1529221667,
				"element": "C" 
			},
			{
				"x": -0.4298945705,
				"y": 1.3007081984,
				"z": -0.117270403,
				"element": "C" 
			},
			{
				"x": 0.1553012682,
				"y": 2.3169693889,
				"z": 0.6107834298,
				"element": "N" 
			},
			{
				"x": 0.8928168642,
				"y": 2.6640502621,
				"z": 1.4893445706,
				"element": "C" 
			},
			{
				"x": 1.835785992,
				"y": 3.2666904856,
				"z": 2.6189776454,
				"element": "S" 
			},
			{
				"x": -0.1332470109,
				"y": -0.0511252724,
				"z": 0.1744083184,
				"element": "C" 
			},
			{
				"x": 0.7415560628,
				"y": -0.251573946,
				"z": 1.1913406669,
				"element": "O" 
			},
			{
				"x": 1.0914029687,
				"y": -1.5814206191,
				"z": 1.546655046,
				"element": "C" 
			},
			{
				"x": -0.7319922689,
				"y": -1.0733121601,
				"z": -0.5695049783,
				"element": "C" 
			},
			{
				"x": -2.3013312105,
				"y": -3.3521986508,
				"z": -1.1259975692,
				"element": "H" 
			},
			{
				"x": -2.6011159886,
				"y": -3.6016701564,
				"z": -2.8658916915,
				"element": "H" 
			},
			{
				"x": -0.9411227512,
				"y": -3.3028845438,
				"z": -2.2875069465,
				"element": "H" 
			},
			{
				"x": -2.6136902439,
				"y": 0.8077239609,
				"z": -2.6970516602,
				"element": "H" 
			},
			{
				"x": -1.5403811922,
				"y": 2.6382661718,
				"z": -1.3634820985,
				"element": "H" 
			},
			{
				"x": 0.2142694259,
				"y": -2.1531685088,
				"z": 1.8744728396,
				"element": "H" 
			},
			{
				"x": 1.5764056279,
				"y": -2.1050165942,
				"z": 0.71339915,
				"element": "H" 
			},
			{
				"x": 1.794445245,
				"y": -1.4923759931,
				"z": 2.3752446444,
				"element": "H" 
			},
			{
				"x": -0.5027017982,
				"y": -2.1048614817,
				"z": -0.343475232,
				"element": "H" 
			}
		],
		 "valence_orbital": [ 
			{
				"type": "occ",
				"energy": -0.31397,
				"method": "rhf"
			},
			{
				"type": "occ",
				"energy": -0.26567,
				"method": "rhf"
			},
			{
				"type": "occ",
				"energy": -0.24883,
				"method": "rhf"
			},
			{
				"type": "occ",
				"energy": -0.24707,
				"method": "rhf"
			},
			{
				"type": "occ",
				"energy": -0.20276,
				"method": "rhf"
			},
			{
				"type": "unocc",
				"energy": -0.02663,
				"method": "rhf"
			},
			{
				"type": "unocc",
				"energy": -0.00711,
				"method": "rhf"
			},
			{
				"type": "unocc",
				"energy": -0.00371,
				"method": "rhf"
			},
			{
				"type": "unocc",
				"energy": 0.05744,
				"method": "rhf"
			},
			{
				"type": "unocc",
				"energy": 0.07555,
				"method": "rhf"
			}
		],
		"cosmo_sigma_profile": { 
			"-0.025": 0.0,
			"-0.024": 0.0,
			"-0.023": 0.0,
			"-0.022": 0.0,
			"-0.021": 0.0,
			"-0.02": 0.0,
			"-0.019": 0.0,
			"-0.018": 0.0,
			"-0.017": 0.0,
			"-0.016": 0.0,
			"-0.015": 0.0,
			"-0.014": 0.0,
			"-0.013": 0.0,
			"-0.012": 0.0,
			"-0.011": 0.0,
			"-0.01": 0.0,
			"-0.009": 0.0,
			"-0.008": 0.835206417178,
			"-0.007": 5.94796227741,
			"-0.006": 18.0370600731,
			"-0.005": 20.8528548203,
			"-0.004": 19.586989201,
			"-0.003": 17.6790269831,
			"-0.002": 9.781611888,
			"-0.001": 9.07482740596,
			"0.0": 14.5221759816,
			"0.001": 23.069233923,
			"0.002": 22.3531029096,
			"0.003": 21.4844527944,
			"0.004": 15.2728852073,
			"0.005": 15.7404245726,
			"0.006": 14.9264354898,
			"0.007": 3.4989795825,
			"0.008": 1.34810689818,
			"0.009": 1.49036428867,
			"0.01": 1.02041150629,
			"0.011": 0.0,
			"0.012": 0.0,
			"0.013": 0.0,
			"0.014": 0.0,
			"0.015": 0.0,
			"0.016": 0.0,
			"0.017": 0.0,
			"0.018": 0.0,
			"0.019": 0.0,
			"0.02": 0.0,
			"0.021": 0.0,
			"0.022": 0.0,
			"0.023": 0.0,
			"0.024": 0.0,
			"0.025": 0.0
		}
	}
}
