{
	 "smiles": "COC(=O)C1=C(N)C=C(S1)C1=CC=CC=C1", 
	 "Tm": 421.15, 
	 "num_atms": 27, 
	 "gaussian": { 
		 "optdone": 1, 
		 "sigma_profile": "yes", 
		 "theory": "DFT", 
		 "functional": "B3LYP", 
		 "basiset": "6-31G**", 
		 "properties": { 
			 "R2extent": 5549.0066, 
			 "electric_dipole_moment_norm": 3.98804725774, 
			 "electric_quadrupole_moment_norm": 15.1814537953, 
			 "total_energy": -1067.30408789, 
			 "HOMO_LUMO_gap": 0.14883, 
			 "cosmo_polarized_energy": -14.31, 
			 "cosmo_cavitation_energy": 32.87, 
			 "cosmo_dispersion_energy": -24.63, 
			 "cosmo_repulsion_energy": 1.87, 
			 "cosmo_total_nonelectrostatic_energy": 10.1, 
			 "SMD_solvation_energy": 6.58 
		},
		"coords": [
			{
				"x": 0.4339609479,
				"y": -3.3123269356,
				"z": -3.2222154635,
				"element": "C" 
			},
			{
				"x": -0.1693113048,
				"y": -2.6769229363,
				"z": -2.0848887297,
				"element": "O" 
			},
			{
				"x": 0.5142784387,
				"y": -1.5868922511,
				"z": -1.6060587088,
				"element": "C" 
			},
			{
				"x": 1.5485593493,
				"y": -1.1929364333,
				"z": -2.1171002341,
				"element": "O" 
			},
			{
				"x": -0.1380545074,
				"y": -0.9859087772,
				"z": -0.4597488633,
				"element": "C" 
			},
			{
				"x": -1.3119938493,
				"y": -1.3364875278,
				"z": 0.209306609,
				"element": "C" 
			},
			{
				"x": -2.0942648932,
				"y": -2.4339600644,
				"z": -0.0648316255,
				"element": "N" 
			},
			{
				"x": -1.6043735246,
				"y": -0.4300201051,
				"z": 1.2746086183,
				"element": "C" 
			},
			{
				"x": -0.6786685467,
				"y": 0.5773300174,
				"z": 1.4201821564,
				"element": "C" 
			},
			{
				"x": 0.6039325362,
				"y": 0.4365527799,
				"z": 0.2476813688,
				"element": "S" 
			},
			{
				"x": -0.6863092522,
				"y": 1.6579956168,
				"z": 2.4162314163,
				"element": "C" 
			},
			{
				"x": -1.3102653966,
				"y": 1.469858692,
				"z": 3.6633299798,
				"element": "C" 
			},
			{
				"x": -1.3353922869,
				"y": 2.4927474265,
				"z": 4.6082648394,
				"element": "C" 
			},
			{
				"x": -0.7294151942,
				"y": 3.7209243145,
				"z": 4.3336729196,
				"element": "C" 
			},
			{
				"x": -0.0989108667,
				"y": 3.9173996949,
				"z": 3.1034509826,
				"element": "C" 
			},
			{
				"x": -0.0796185167,
				"y": 2.899159772,
				"z": 2.1528026457,
				"element": "C" 
			},
			{
				"x": 1.4402520126,
				"y": -3.662076623,
				"z": -2.979565478,
				"element": "H" 
			},
			{
				"x": -0.2138622526,
				"y": -4.1543529918,
				"z": -3.4680986268,
				"element": "H" 
			},
			{
				"x": 0.4974697291,
				"y": -2.6191018541,
				"z": -4.0647355988,
				"element": "H" 
			},
			{
				"x": -1.9153401106,
				"y": -2.88814894,
				"z": -0.9491911768,
				"element": "H" 
			},
			{
				"x": -3.0616154055,
				"y": -2.3824341762,
				"z": 0.2157488813,
				"element": "H" 
			},
			{
				"x": -2.4904020054,
				"y": -0.5180014875,
				"z": 1.8939227933,
				"element": "H" 
			},
			{
				"x": -1.7545986505,
				"y": 0.5077667244,
				"z": 3.8985973758,
				"element": "H" 
			},
			{
				"x": -1.8191202578,
				"y": 2.3261120578,
				"z": 5.566494663,
				"element": "H" 
			},
			{
				"x": -0.7457149354,
				"y": 4.5160916523,
				"z": 5.0731405427,
				"element": "H" 
			},
			{
				"x": 0.3729514961,
				"y": 4.8694753683,
				"z": 2.8785991247,
				"element": "H" 
			},
			{
				"x": 0.3915272474,
				"y": 3.0711569868,
				"z": 1.1894995886,
				"element": "H" 
			}
		],
		 "valence_orbital": [ 
			{
				"type": "occ",
				"energy": -0.26871,
				"method": "rhf"
			},
			{
				"type": "occ",
				"energy": -0.26654,
				"method": "rhf"
			},
			{
				"type": "occ",
				"energy": -0.2569,
				"method": "rhf"
			},
			{
				"type": "occ",
				"energy": -0.22899,
				"method": "rhf"
			},
			{
				"type": "occ",
				"energy": -0.20188,
				"method": "rhf"
			},
			{
				"type": "unocc",
				"energy": -0.05305,
				"method": "rhf"
			},
			{
				"type": "unocc",
				"energy": -0.0086,
				"method": "rhf"
			},
			{
				"type": "unocc",
				"energy": 0.00372,
				"method": "rhf"
			},
			{
				"type": "unocc",
				"energy": 0.0342,
				"method": "rhf"
			},
			{
				"type": "unocc",
				"energy": 0.05291,
				"method": "rhf"
			}
		],
		"cosmo_sigma_profile": { 
			"-0.025": 0.0,
			"-0.024": 0.0,
			"-0.023": 0.0,
			"-0.022": 0.0,
			"-0.021": 0.0,
			"-0.02": 0.0,
			"-0.019": 0.0,
			"-0.018": 0.0,
			"-0.017": 0.0,
			"-0.016": 0.0,
			"-0.015": 0.0,
			"-0.014": 0.624267871121,
			"-0.013": 1.46949454947,
			"-0.012": 1.26168913586,
			"-0.011": 1.67067512393,
			"-0.01": 2.45377591707,
			"-0.009": 2.52281266116,
			"-0.008": 2.91639305687,
			"-0.007": 5.17189145192,
			"-0.006": 14.9065965379,
			"-0.005": 19.1235385389,
			"-0.004": 21.4183409623,
			"-0.003": 19.6062908484,
			"-0.002": 14.9862626336,
			"-0.001": 14.3050564503,
			"0.0": 13.9511313255,
			"0.001": 17.936693301,
			"0.002": 21.1594437174,
			"0.003": 28.519686508,
			"0.004": 22.0303153658,
			"0.005": 15.1403757777,
			"0.006": 3.13531843493,
			"0.007": 3.24120451604,
			"0.008": 2.43278095593,
			"0.009": 2.11929448127,
			"0.01": 2.10850175444,
			"0.011": 3.01470979491,
			"0.012": 3.91705633141,
			"0.013": 3.72254502021,
			"0.014": 0.0138254036209,
			"0.015": 0.0,
			"0.016": 0.0,
			"0.017": 0.0,
			"0.018": 0.0,
			"0.019": 0.0,
			"0.02": 0.0,
			"0.021": 0.0,
			"0.022": 0.0,
			"0.023": 0.0,
			"0.024": 0.0,
			"0.025": 0.0
		}
	}
}
