{
	 "smiles": "FC1=C(F)C(=C(C#N)C#N)C(F)=C(F)C1=C(C#N)C#N", 
	 "Tm": 564.15, 
	 "num_atms": 20, 
	 "gaussian": { 
		 "optdone": 1, 
		 "sigma_profile": "yes", 
		 "theory": "DFT", 
		 "functional": "B3LYP", 
		 "basiset": "6-31G**", 
		 "properties": { 
			 "R2extent": 5752.0975, 
			 "electric_dipole_moment_norm": 0.0001, 
			 "electric_quadrupole_moment_norm": 28.9917554844, 
			 "total_energy": -1075.442806, 
			 "HOMO_LUMO_gap": 0.08656, 
			 "cosmo_polarized_energy": -20.83, 
			 "cosmo_cavitation_energy": 32.64, 
			 "cosmo_dispersion_energy": -20.92, 
			 "cosmo_repulsion_energy": 1.51, 
			 "cosmo_total_nonelectrostatic_energy": 13.23, 
			 "SMD_solvation_energy": 12.01 
		},
		"coords": [
			{
				"x": -1.8397111843,
				"y": 0.2911110487,
				"z": 1.0319521913,
				"element": "F" 
			},
			{
				"x": -0.819226951,
				"y": -0.1351829,
				"z": 0.2916122215,
				"element": "C" 
			},
			{
				"x": 0.2877877759,
				"y": 0.6485763693,
				"z": 0.2017882976,
				"element": "C" 
			},
			{
				"x": 0.3002150583,
				"y": 1.8061795487,
				"z": 0.8582949101,
				"element": "F" 
			},
			{
				"x": 1.4479359228,
				"y": 0.2753694484,
				"z": -0.5760063651,
				"element": "C" 
			},
			{
				"x": 2.5788122109,
				"y": 1.0759860114,
				"z": -0.6676058877,
				"element": "C" 
			},
			{
				"x": 3.7373584786,
				"y": 0.7291080862,
				"z": -1.4294198368,
				"element": "C" 
			},
			{
				"x": 4.7216634296,
				"y": 0.5340276899,
				"z": -2.0196211059,
				"element": "N" 
			},
			{
				"x": 2.7131347517,
				"y": 2.3381277835,
				"z": -0.0104480224,
				"element": "C" 
			},
			{
				"x": 2.9146651289,
				"y": 3.3727159444,
				"z": 0.4837820644,
				"element": "N" 
			},
			{
				"x": 1.3360399434,
				"y": -0.9983734157,
				"z": -1.2507013202,
				"element": "C" 
			},
			{
				"x": 2.3565271528,
				"y": -1.4246646608,
				"z": -1.9910400676,
				"element": "F" 
			},
			{
				"x": 0.2290257501,
				"y": -1.7821325948,
				"z": -1.160877626,
				"element": "C" 
			},
			{
				"x": 0.2165963045,
				"y": -2.9397369536,
				"z": -1.8173828127,
				"element": "F" 
			},
			{
				"x": -0.93112231,
				"y": -1.4089267414,
				"z": -0.3830839393,
				"element": "C" 
			},
			{
				"x": -2.0619922965,
				"y": -2.2095536429,
				"z": -0.2914930912,
				"element": "C" 
			},
			{
				"x": -3.220549757,
				"y": -1.8626977243,
				"z": 0.4703141275,
				"element": "C" 
			},
			{
				"x": -4.2048728028,
				"y": -1.6676607003,
				"z": 1.0604995164,
				"element": "N" 
			},
			{
				"x": -2.1962918057,
				"y": -3.4716926135,
				"z": -0.948659973,
				"element": "C" 
			},
			{
				"x": -2.3977948004,
				"y": -4.506279983,
				"z": -1.4429032808,
				"element": "N" 
			}
		],
		 "valence_orbital": [ 
			{
				"type": "occ",
				"energy": -0.36769,
				"method": "rhf"
			},
			{
				"type": "occ",
				"energy": -0.36725,
				"method": "rhf"
			},
			{
				"type": "occ",
				"energy": -0.35924,
				"method": "rhf"
			},
			{
				"type": "occ",
				"energy": -0.3142,
				"method": "rhf"
			},
			{
				"type": "occ",
				"energy": -0.27945,
				"method": "rhf"
			},
			{
				"type": "unocc",
				"energy": -0.19289,
				"method": "rhf"
			},
			{
				"type": "unocc",
				"energy": -0.08201,
				"method": "rhf"
			},
			{
				"type": "unocc",
				"energy": -0.06182,
				"method": "rhf"
			},
			{
				"type": "unocc",
				"energy": -0.04168,
				"method": "rhf"
			},
			{
				"type": "unocc",
				"energy": -0.04041,
				"method": "rhf"
			}
		],
		"cosmo_sigma_profile": { 
			"-0.025": 0.0,
			"-0.024": 0.0,
			"-0.023": 0.0,
			"-0.022": 0.0,
			"-0.021": 0.0,
			"-0.02": 0.0,
			"-0.019": 0.0,
			"-0.018": 0.0,
			"-0.017": 0.0,
			"-0.016": 0.0,
			"-0.015": 0.0,
			"-0.014": 0.0,
			"-0.013": 0.146673081137,
			"-0.012": 0.774561955011,
			"-0.011": 1.77593477083,
			"-0.01": 3.12967983045,
			"-0.009": 12.4276677235,
			"-0.008": 16.1061819028,
			"-0.007": 20.0073094874,
			"-0.006": 11.7604642153,
			"-0.005": 8.76304581342,
			"-0.004": 10.1571834008,
			"-0.003": 11.0438407552,
			"-0.002": 9.49658541167,
			"-0.001": 10.9333788519,
			"0.0": 16.5394909783,
			"0.001": 32.6041756642,
			"0.002": 14.3108527558,
			"0.003": 11.6738405654,
			"0.004": 11.2595790061,
			"0.005": 11.3147767708,
			"0.006": 10.9379399879,
			"0.007": 11.6347773277,
			"0.008": 10.6749356275,
			"0.009": 9.9218385964,
			"0.01": 9.19608675718,
			"0.011": 4.31157526846,
			"0.012": 0.0119268016975,
			"0.013": 0.0,
			"0.014": 0.0,
			"0.015": 0.0,
			"0.016": 0.0,
			"0.017": 0.0,
			"0.018": 0.0,
			"0.019": 0.0,
			"0.02": 0.0,
			"0.021": 0.0,
			"0.022": 0.0,
			"0.023": 0.0,
			"0.024": 0.0,
			"0.025": 0.0
		}
	}
}
