{
	 "smiles": "OC(=O)C1=C(I)C=C(Br)C=C1", 
	 "Tm": 444.15, 
	 "num_atms": 15, 
	 "gaussian": { 
		 "optdone": 1, 
		 "sigma_profile": "yes", 
		 "theory": "DFT", 
		 "functional": "B3LYP", 
		 "basiset": "6-31G**", 
		 "properties": { 
			 "R2extent": 3525.2484, 
			 "electric_dipole_moment_norm": 3.33896248856, 
			 "electric_quadrupole_moment_norm": 12.0839114537, 
			 "total_energy": -3002.39148333, 
			 "HOMO_LUMO_gap": 0.19264, 
			 "cosmo_polarized_energy": -10.55, 
			 "cosmo_cavitation_energy": 25.14, 
			 "cosmo_dispersion_energy": -20.43, 
			 "cosmo_repulsion_energy": 1.6, 
			 "cosmo_total_nonelectrostatic_energy": 6.31, 
			 "SMD_solvation_energy": 3.51 
		},
		"coords": [
			{
				"x": -0.852910932,
				"y": -0.2506699717,
				"z": -2.9804822495,
				"element": "O" 
			},
			{
				"x": -1.4177959107,
				"y": -0.4212832416,
				"z": -1.770444045,
				"element": "C" 
			},
			{
				"x": -2.5801790959,
				"y": -0.7450721907,
				"z": -1.6894286377,
				"element": "O" 
			},
			{
				"x": -0.6047298764,
				"y": -0.1363949158,
				"z": -0.5231961458,
				"element": "C" 
			},
			{
				"x": 0.7846220016,
				"y": -0.2291519504,
				"z": -0.3239866069,
				"element": "C" 
			},
			{
				"x": 2.1712817176,
				"y": -0.8923714285,
				"z": -1.807638867,
				"element": "I" 
			},
			{
				"x": 1.3629110767,
				"y": 0.0685362692,
				"z": 0.9136287306,
				"element": "C" 
			},
			{
				"x": 0.5487013939,
				"y": 0.472051399,
				"z": 1.9692198679,
				"element": "C" 
			},
			{
				"x": 1.3465881228,
				"y": 0.889661484,
				"z": 3.6460793236,
				"element": "Br" 
			},
			{
				"x": -0.8329701964,
				"y": 0.5646295579,
				"z": 1.8143769356,
				"element": "C" 
			},
			{
				"x": -1.3868515002,
				"y": 0.2516832012,
				"z": 0.5809463539,
				"element": "C" 
			},
			{
				"x": 0.0820185952,
				"y": 0.0028101533,
				"z": -2.9164401423,
				"element": "H" 
			},
			{
				"x": 2.4319775523,
				"y": -0.0161327176,
				"z": 1.0587525464,
				"element": "H" 
			},
			{
				"x": -1.4614588425,
				"y": 0.8702699074,
				"z": 2.6423912532,
				"element": "H" 
			},
			{
				"x": -2.460304106,
				"y": 0.2939344442,
				"z": 0.4347216831,
				"element": "H" 
			}
		],
		 "valence_orbital": [ 
			{
				"type": "occ",
				"energy": -0.30904,
				"method": "rhf"
			},
			{
				"type": "occ",
				"energy": -0.29765,
				"method": "rhf"
			},
			{
				"type": "occ",
				"energy": -0.28691,
				"method": "rhf"
			},
			{
				"type": "occ",
				"energy": -0.27396,
				"method": "rhf"
			},
			{
				"type": "occ",
				"energy": -0.26628,
				"method": "rhf"
			},
			{
				"type": "unocc",
				"energy": -0.07364,
				"method": "rhf"
			},
			{
				"type": "unocc",
				"energy": -0.06929,
				"method": "rhf"
			},
			{
				"type": "unocc",
				"energy": -0.04574,
				"method": "rhf"
			},
			{
				"type": "unocc",
				"energy": -0.00739,
				"method": "rhf"
			},
			{
				"type": "unocc",
				"energy": 0.02758,
				"method": "rhf"
			}
		],
		"cosmo_sigma_profile": { 
			"-0.025": 0.0,
			"-0.024": 0.0,
			"-0.023": 0.0,
			"-0.022": 0.0,
			"-0.021": 0.0,
			"-0.02": 0.0,
			"-0.019": 0.0,
			"-0.018": 0.0,
			"-0.017": 0.0,
			"-0.016": 0.0,
			"-0.015": 0.0745389794585,
			"-0.014": 0.761519349092,
			"-0.013": 0.903955317447,
			"-0.012": 0.995970504571,
			"-0.011": 0.940848864544,
			"-0.01": 0.776244792171,
			"-0.009": 1.46248774051,
			"-0.008": 5.66661104533,
			"-0.007": 7.82759285197,
			"-0.006": 8.08652620304,
			"-0.005": 9.99300906915,
			"-0.004": 11.9665514511,
			"-0.003": 11.4849575502,
			"-0.002": 14.1606334966,
			"-0.001": 18.4412138556,
			"0.0": 26.7519813611,
			"0.001": 21.467370682,
			"0.002": 17.0715116068,
			"0.003": 15.5494236091,
			"0.004": 9.03826076553,
			"0.005": 2.49455364869,
			"0.006": 2.43034691409,
			"0.007": 2.1547994307,
			"0.008": 3.16551678843,
			"0.009": 3.60653476219,
			"0.01": 4.70031573585,
			"0.011": 5.37069443212,
			"0.012": 3.05661878686,
			"0.013": 0.609955227723,
			"0.014": 0.0,
			"0.015": 0.0,
			"0.016": 0.0,
			"0.017": 0.0,
			"0.018": 0.0,
			"0.019": 0.0,
			"0.02": 0.0,
			"0.021": 0.0,
			"0.022": 0.0,
			"0.023": 0.0,
			"0.024": 0.0,
			"0.025": 0.0
		}
	}
}
