{
	 "smiles": "CN1C=C(C=N1)C(O)=O", 
	 "Tm": 477.15, 
	 "num_atms": 15, 
	 "gaussian": { 
		 "optdone": 1, 
		 "sigma_profile": "yes", 
		 "theory": "DFT", 
		 "functional": "B3LYP", 
		 "basiset": "6-31G**", 
		 "properties": { 
			 "R2extent": 1767.4857, 
			 "electric_dipole_moment_norm": 6.52147295095, 
			 "electric_quadrupole_moment_norm": 12.5152692268, 
			 "total_energy": -454.08026363, 
			 "HOMO_LUMO_gap": 0.23612, 
			 "cosmo_polarized_energy": -20.03, 
			 "cosmo_cavitation_energy": 19.9, 
			 "cosmo_dispersion_energy": -14.75, 
			 "cosmo_repulsion_energy": 1.21, 
			 "cosmo_total_nonelectrostatic_energy": 6.36, 
			 "SMD_solvation_energy": 4.39 
		},
		"coords": [
			{
				"x": -1.8653159589,
				"y": -1.0674332109,
				"z": 0.9232280397,
				"element": "C" 
			},
			{
				"x": -0.9525546865,
				"y": -0.9312382179,
				"z": -0.1982865776,
				"element": "N" 
			},
			{
				"x": -0.2168029055,
				"y": 0.1468466148,
				"z": -0.5524086616,
				"element": "C" 
			},
			{
				"x": 0.4973594595,
				"y": -0.2096510798,
				"z": -1.6930031556,
				"element": "C" 
			},
			{
				"x": 0.1029441359,
				"y": -1.549650577,
				"z": -1.9359780595,
				"element": "C" 
			},
			{
				"x": -0.7695620551,
				"y": -1.9823291647,
				"z": -1.0356101147,
				"element": "N" 
			},
			{
				"x": 1.4555022841,
				"y": 0.5426022594,
				"z": -2.5243394042,
				"element": "C" 
			},
			{
				"x": 1.7294408306,
				"y": 1.8272451338,
				"z": -2.1534769469,
				"element": "O" 
			},
			{
				"x": 1.995199784,
				"y": 0.0739769398,
				"z": -3.4994141509,
				"element": "O" 
			},
			{
				"x": -1.8856606278,
				"y": -0.1305276319,
				"z": 1.481897537,
				"element": "H" 
			},
			{
				"x": -1.5310168155,
				"y": -1.8755038747,
				"z": 1.5782585052,
				"element": "H" 
			},
			{
				"x": -2.8695942044,
				"y": -1.2968698746,
				"z": 0.5591062354,
				"element": "H" 
			},
			{
				"x": -0.2618152095,
				"y": 1.0602376114,
				"z": 0.0254263859,
				"element": "H" 
			},
			{
				"x": 0.4380698814,
				"y": -2.1897152436,
				"z": -2.7397206324,
				"element": "H" 
			},
			{
				"x": 1.2318060877,
				"y": 2.0697103158,
				"z": -1.361479,
				"element": "H" 
			}
		],
		 "valence_orbital": [ 
			{
				"type": "occ",
				"energy": -0.31254,
				"method": "rhf"
			},
			{
				"type": "occ",
				"energy": -0.30364,
				"method": "rhf"
			},
			{
				"type": "occ",
				"energy": -0.27402,
				"method": "rhf"
			},
			{
				"type": "occ",
				"energy": -0.2699,
				"method": "rhf"
			},
			{
				"type": "occ",
				"energy": -0.26357,
				"method": "rhf"
			},
			{
				"type": "unocc",
				"energy": -0.02745,
				"method": "rhf"
			},
			{
				"type": "unocc",
				"energy": 0.00688,
				"method": "rhf"
			},
			{
				"type": "unocc",
				"energy": 0.04746,
				"method": "rhf"
			},
			{
				"type": "unocc",
				"energy": 0.07587,
				"method": "rhf"
			},
			{
				"type": "unocc",
				"energy": 0.10647,
				"method": "rhf"
			}
		],
		"cosmo_sigma_profile": { 
			"-0.025": 0.0,
			"-0.024": 0.0,
			"-0.023": 0.0,
			"-0.022": 0.0,
			"-0.021": 0.0,
			"-0.02": 0.00827975546868,
			"-0.019": 1.04318547754,
			"-0.018": 1.24940957967,
			"-0.017": 0.910695352056,
			"-0.016": 1.09231980912,
			"-0.015": 1.20899706671,
			"-0.014": 1.05255005811,
			"-0.013": 0.508966830746,
			"-0.012": 2.11480619166,
			"-0.011": 2.80612179505,
			"-0.01": 2.7048568383,
			"-0.009": 2.43011111662,
			"-0.008": 3.69764620535,
			"-0.007": 6.94238201151,
			"-0.006": 8.25755699042,
			"-0.005": 9.33851863453,
			"-0.004": 11.943557221,
			"-0.003": 10.4292698045,
			"-0.002": 5.59305913225,
			"-0.001": 7.04857946643,
			"0.0": 6.13140237146,
			"0.001": 8.30807536507,
			"0.002": 9.27715126183,
			"0.003": 6.66157754177,
			"0.004": 3.79615387319,
			"0.005": 3.99774450242,
			"0.006": 3.78743671973,
			"0.007": 3.81371389514,
			"0.008": 4.12797370963,
			"0.009": 4.1721874729,
			"0.01": 4.90510320049,
			"0.011": 6.47946999718,
			"0.012": 7.21212674716,
			"0.013": 3.83403142311,
			"0.014": 1.56800838191,
			"0.015": 0.528812635307,
			"0.016": 0.0130568396426,
			"0.017": 0.0,
			"0.018": 0.0,
			"0.019": 0.0,
			"0.02": 0.0,
			"0.021": 0.0,
			"0.022": 0.0,
			"0.023": 0.0,
			"0.024": 0.0,
			"0.025": 0.0
		}
	}
}
