{
	 "smiles": "CC1=CC=C(C=C1)C1=NON=C1N", 
	 "Tm": 413.15, 
	 "num_atms": 22, 
	 "gaussian": { 
		 "optdone": 1, 
		 "sigma_profile": "yes", 
		 "theory": "DFT", 
		 "functional": "B3LYP", 
		 "basiset": "6-31G**", 
		 "properties": { 
			 "R2extent": 3741.1352, 
			 "electric_dipole_moment_norm": 5.16349933282, 
			 "electric_quadrupole_moment_norm": 17.1948268459, 
			 "total_energy": -587.788031398, 
			 "HOMO_LUMO_gap": 0.18801, 
			 "cosmo_polarized_energy": -12.96, 
			 "cosmo_cavitation_energy": 26.47, 
			 "cosmo_dispersion_energy": -19.64, 
			 "cosmo_repulsion_energy": 1.55, 
			 "cosmo_total_nonelectrostatic_energy": 8.38, 
			 "SMD_solvation_energy": 4.2 
		},
		"coords": [
			{
				"x": -0.5325703904,
				"y": -0.3907489372,
				"z": 4.1072587944,
				"element": "C" 
			},
			{
				"x": 0.1080992665,
				"y": -0.0707509038,
				"z": 2.7782150126,
				"element": "C" 
			},
			{
				"x": -0.4939745529,
				"y": -0.4731646838,
				"z": 1.5750960705,
				"element": "C" 
			},
			{
				"x": 0.0992196248,
				"y": -0.2082272996,
				"z": 0.3466991338,
				"element": "C" 
			},
			{
				"x": 1.3237302563,
				"y": 0.4791018827,
				"z": 0.2802600455,
				"element": "C" 
			},
			{
				"x": 1.926831936,
				"y": 0.8945007793,
				"z": 1.4772777618,
				"element": "C" 
			},
			{
				"x": 1.3228847076,
				"y": 0.6199453877,
				"z": 2.7043391935,
				"element": "C" 
			},
			{
				"x": 1.9377709983,
				"y": 0.768104603,
				"z": -1.0231440226,
				"element": "C" 
			},
			{
				"x": 1.2374166592,
				"y": 0.8872198626,
				"z": -2.1264564648,
				"element": "N" 
			},
			{
				"x": 2.1276669246,
				"y": 1.132531325,
				"z": -3.1307194252,
				"element": "O" 
			},
			{
				"x": 3.4295304791,
				"y": 1.1539067147,
				"z": -2.6575863697,
				"element": "N" 
			},
			{
				"x": 3.3287615587,
				"y": 0.9400466383,
				"z": -1.3693986829,
				"element": "C" 
			},
			{
				"x": 4.420861115,
				"y": 0.9341434079,
				"z": -0.5199157634,
				"element": "N" 
			},
			{
				"x": -0.3953819947,
				"y": -1.4473759788,
				"z": 4.3686080692,
				"element": "H" 
			},
			{
				"x": -0.1001569485,
				"y": 0.2066650814,
				"z": 4.9146104477,
				"element": "H" 
			},
			{
				"x": -1.6109714682,
				"y": -0.2026362494,
				"z": 4.0861220152,
				"element": "H" 
			},
			{
				"x": -1.4415806661,
				"y": -1.0054341626,
				"z": 1.6045445813,
				"element": "H" 
			},
			{
				"x": -0.3770664335,
				"y": -0.5281421964,
				"z": -0.5742540522,
				"element": "H" 
			},
			{
				"x": 2.8506761236,
				"y": 1.4639134752,
				"z": 1.4492507459,
				"element": "H" 
			},
			{
				"x": 1.8016795442,
				"y": 0.9582747488,
				"z": 3.6197231435,
				"element": "H" 
			},
			{
				"x": 5.3038185776,
				"y": 0.8929684156,
				"z": -1.0143110202,
				"element": "H" 
			},
			{
				"x": 4.3638546826,
				"y": 0.2449580894,
				"z": 0.2191807861,
				"element": "H" 
			}
		],
		 "valence_orbital": [ 
			{
				"type": "occ",
				"energy": -0.31004,
				"method": "rhf"
			},
			{
				"type": "occ",
				"energy": -0.30292,
				"method": "rhf"
			},
			{
				"type": "occ",
				"energy": -0.26195,
				"method": "rhf"
			},
			{
				"type": "occ",
				"energy": -0.25629,
				"method": "rhf"
			},
			{
				"type": "occ",
				"energy": -0.23478,
				"method": "rhf"
			},
			{
				"type": "unocc",
				"energy": -0.04677,
				"method": "rhf"
			},
			{
				"type": "unocc",
				"energy": -0.01483,
				"method": "rhf"
			},
			{
				"type": "unocc",
				"energy": -0.00184,
				"method": "rhf"
			},
			{
				"type": "unocc",
				"energy": 0.0613,
				"method": "rhf"
			},
			{
				"type": "unocc",
				"energy": 0.07697,
				"method": "rhf"
			}
		],
		"cosmo_sigma_profile": { 
			"-0.025": 0.0,
			"-0.024": 0.0,
			"-0.023": 0.0,
			"-0.022": 0.0,
			"-0.021": 0.0,
			"-0.02": 0.0,
			"-0.019": 0.0,
			"-0.018": 0.0,
			"-0.017": 0.0,
			"-0.016": 0.0,
			"-0.015": 0.079494087136,
			"-0.014": 1.2621306635,
			"-0.013": 2.74578513345,
			"-0.012": 2.44160113184,
			"-0.011": 3.1927265505,
			"-0.01": 2.36527966644,
			"-0.009": 1.77807644394,
			"-0.008": 2.32641577762,
			"-0.007": 2.62375031772,
			"-0.006": 5.69424826386,
			"-0.005": 11.773747033,
			"-0.004": 16.8481863529,
			"-0.003": 14.9297480526,
			"-0.002": 16.8328479302,
			"-0.001": 18.0260330278,
			"0.0": 16.4604059059,
			"0.001": 10.9790977263,
			"0.002": 11.9399284054,
			"0.003": 12.0591486043,
			"0.004": 14.0171310026,
			"0.005": 9.00627241011,
			"0.006": 8.56731844038,
			"0.007": 8.89460536466,
			"0.008": 4.78464009373,
			"0.009": 3.24350631641,
			"0.01": 3.04956286111,
			"0.011": 2.56081772219,
			"0.012": 2.12731436097,
			"0.013": 0.789624495658,
			"0.014": 0.0424438867217,
			"0.015": 0.0,
			"0.016": 0.0,
			"0.017": 0.0,
			"0.018": 0.0,
			"0.019": 0.0,
			"0.02": 0.0,
			"0.021": 0.0,
			"0.022": 0.0,
			"0.023": 0.0,
			"0.024": 0.0,
			"0.025": 0.0
		}
	}
}
