{
	 "smiles": "OC1=CC=CN=C1Br", 
	 "Tm": 459.15, 
	 "num_atms": 12, 
	 "gaussian": { 
		 "optdone": 1, 
		 "sigma_profile": "yes", 
		 "theory": "DFT", 
		 "functional": "B3LYP", 
		 "basiset": "6-31G**", 
		 "properties": { 
			 "R2extent": 1928.5594, 
			 "electric_dipole_moment_norm": 1.90585480559, 
			 "electric_quadrupole_moment_norm": 6.67163046639, 
			 "total_energy": -2894.31346698, 
			 "HOMO_LUMO_gap": 0.20539, 
			 "cosmo_polarized_energy": -7.05, 
			 "cosmo_cavitation_energy": 18.46, 
			 "cosmo_dispersion_energy": -14.64, 
			 "cosmo_repulsion_energy": 1.21, 
			 "cosmo_total_nonelectrostatic_energy": 5.03, 
			 "SMD_solvation_energy": 1.22 
		},
		"coords": [
			{
				"x": 0.1391803049,
				"y": 2.52910579,
				"z": 0.1097819149,
				"element": "O" 
			},
			{
				"x": 0.1592446192,
				"y": 1.2039803658,
				"z": -0.1411622061,
				"element": "C" 
			},
			{
				"x": 1.2995070949,
				"y": 0.4600220162,
				"z": 0.1764902561,
				"element": "C" 
			},
			{
				"x": 1.3137029862,
				"y": -0.9077635673,
				"z": -0.0851301482,
				"element": "C" 
			},
			{
				"x": 0.1882726214,
				"y": -1.5001093838,
				"z": -0.6579792577,
				"element": "C" 
			},
			{
				"x": -0.9096164286,
				"y": -0.7949618379,
				"z": -0.9660590987,
				"element": "N" 
			},
			{
				"x": -0.9091117057,
				"y": 0.4903453356,
				"z": -0.7146155096,
				"element": "C" 
			},
			{
				"x": -2.5007233767,
				"y": 1.5045733606,
				"z": -1.1628964846,
				"element": "Br" 
			},
			{
				"x": -0.7234270932,
				"y": 2.8797971644,
				"z": -0.1719518102,
				"element": "H" 
			},
			{
				"x": 2.1473140972,
				"y": 0.9712677389,
				"z": 0.6207519162,
				"element": "H" 
			},
			{
				"x": 2.1872111723,
				"y": -1.5061170265,
				"z": 0.1526520415,
				"element": "H" 
			},
			{
				"x": 0.1565457082,
				"y": -2.5633399561,
				"z": -0.8786816136,
				"element": "H" 
			}
		],
		 "valence_orbital": [ 
			{
				"type": "occ",
				"energy": -0.32515,
				"method": "rhf"
			},
			{
				"type": "occ",
				"energy": -0.30579,
				"method": "rhf"
			},
			{
				"type": "occ",
				"energy": -0.28406,
				"method": "rhf"
			},
			{
				"type": "occ",
				"energy": -0.27563,
				"method": "rhf"
			},
			{
				"type": "occ",
				"energy": -0.24176,
				"method": "rhf"
			},
			{
				"type": "unocc",
				"energy": -0.03637,
				"method": "rhf"
			},
			{
				"type": "unocc",
				"energy": -0.01406,
				"method": "rhf"
			},
			{
				"type": "unocc",
				"energy": -0.00288,
				"method": "rhf"
			},
			{
				"type": "unocc",
				"energy": 0.08493,
				"method": "rhf"
			},
			{
				"type": "unocc",
				"energy": 0.10354,
				"method": "rhf"
			}
		],
		"cosmo_sigma_profile": { 
			"-0.025": 0.0,
			"-0.024": 0.0,
			"-0.023": 0.0,
			"-0.022": 0.0,
			"-0.021": 0.0,
			"-0.02": 0.0,
			"-0.019": 0.0,
			"-0.018": 0.0,
			"-0.017": 0.0,
			"-0.016": 0.0,
			"-0.015": 0.296826260855,
			"-0.014": 0.464135885802,
			"-0.013": 0.481902444894,
			"-0.012": 0.667099135777,
			"-0.011": 0.804075480661,
			"-0.01": 1.24847327076,
			"-0.009": 0.704578316885,
			"-0.008": 3.59954383445,
			"-0.007": 6.95714423239,
			"-0.006": 8.78519273504,
			"-0.005": 7.27890270749,
			"-0.004": 6.84231646846,
			"-0.003": 6.52036967601,
			"-0.002": 9.33020848145,
			"-0.001": 11.2531836868,
			"0.0": 14.4945885347,
			"0.001": 15.2503267173,
			"0.002": 14.1853526266,
			"0.003": 9.90282703717,
			"0.004": 10.6011211946,
			"0.005": 3.8026041074,
			"0.006": 3.91976853025,
			"0.007": 3.54569653241,
			"0.008": 2.32614072198,
			"0.009": 2.8740203317,
			"0.01": 2.3789468693,
			"0.011": 1.27539603898,
			"0.012": 0.972842370093,
			"0.013": 0.774977795237,
			"0.014": 0.475839320003,
			"0.015": 0.00303782051504,
			"0.016": 0.0,
			"0.017": 0.0,
			"0.018": 0.0,
			"0.019": 0.0,
			"0.02": 0.0,
			"0.021": 0.0,
			"0.022": 0.0,
			"0.023": 0.0,
			"0.024": 0.0,
			"0.025": 0.0
		}
	}
}
