{
	 "smiles": "BrC1=C(Br)C(=O)N(N=C1)C1=CC=CC=C1", 
	 "Tm": 417.15, 
	 "num_atms": 21, 
	 "gaussian": { 
		 "optdone": 1, 
		 "sigma_profile": "yes", 
		 "theory": "DFT", 
		 "functional": "B3LYP", 
		 "basiset": "6-31G**", 
		 "properties": { 
			 "R2extent": 8789.5449, 
			 "electric_dipole_moment_norm": 2.44567078937, 
			 "electric_quadrupole_moment_norm": 10.9610365536, 
			 "total_energy": -5712.17499647, 
			 "HOMO_LUMO_gap": 0.15235, 
			 "cosmo_polarized_energy": -9.74, 
			 "cosmo_cavitation_energy": 30.47, 
			 "cosmo_dispersion_energy": -23.27, 
			 "cosmo_repulsion_energy": 1.8, 
			 "cosmo_total_nonelectrostatic_energy": 9.01, 
			 "SMD_solvation_energy": 3.28 
		},
		"coords": [
			{
				"x": 3.0823271299,
				"y": -4.2739727856,
				"z": -0.366899626,
				"element": "Br" 
			},
			{
				"x": 1.935552996,
				"y": -2.7750724183,
				"z": -0.4955950249,
				"element": "C" 
			},
			{
				"x": 1.7522683786,
				"y": -2.0512965495,
				"z": -1.6354644299,
				"element": "C" 
			},
			{
				"x": 2.6205161991,
				"y": -2.4153571064,
				"z": -3.2595824624,
				"element": "Br" 
			},
			{
				"x": 0.8377523188,
				"y": -0.8981812913,
				"z": -1.6504805843,
				"element": "C" 
			},
			{
				"x": 0.6308639036,
				"y": -0.1956937145,
				"z": -2.6255472975,
				"element": "O" 
			},
			{
				"x": 0.2007909311,
				"y": -0.6636238783,
				"z": -0.4003778885,
				"element": "N" 
			},
			{
				"x": 0.4015785332,
				"y": -1.3837393346,
				"z": 0.719326427,
				"element": "N" 
			},
			{
				"x": 1.2255438558,
				"y": -2.3900164321,
				"z": 0.6818349321,
				"element": "C" 
			},
			{
				"x": -0.6880798617,
				"y": 0.4612126264,
				"z": -0.2299698701,
				"element": "C" 
			},
			{
				"x": -1.6161868924,
				"y": 0.8043863598,
				"z": -1.2178424728,
				"element": "C" 
			},
			{
				"x": -2.4781113456,
				"y": 1.8781286695,
				"z": -0.996314456,
				"element": "C" 
			},
			{
				"x": -2.4203867021,
				"y": 2.6045130008,
				"z": 0.1939531349,
				"element": "C" 
			},
			{
				"x": -1.4912453962,
				"y": 2.2515313277,
				"z": 1.1743178702,
				"element": "C" 
			},
			{
				"x": -0.6225188451,
				"y": 1.1824402636,
				"z": 0.9662146323,
				"element": "C" 
			},
			{
				"x": 1.3501031587,
				"y": -2.9443652443,
				"z": 1.6051222507,
				"element": "H" 
			},
			{
				"x": -1.6561208386,
				"y": 0.2501937556,
				"z": -2.1451432887,
				"element": "H" 
			},
			{
				"x": -3.1996573076,
				"y": 2.1439751794,
				"z": -1.7628668098,
				"element": "H" 
			},
			{
				"x": -3.0937644121,
				"y": 3.4408055068,
				"z": 0.3560953074,
				"element": "H" 
			},
			{
				"x": -1.4364577788,
				"y": 2.8107487927,
				"z": 2.1034634958,
				"element": "H" 
			},
			{
				"x": 0.0981319753,
				"y": 0.8955832725,
				"z": 1.7227561604,
				"element": "H" 
			}
		],
		 "valence_orbital": [ 
			{
				"type": "occ",
				"energy": -0.29244,
				"method": "rhf"
			},
			{
				"type": "occ",
				"energy": -0.27156,
				"method": "rhf"
			},
			{
				"type": "occ",
				"energy": -0.26216,
				"method": "rhf"
			},
			{
				"type": "occ",
				"energy": -0.25805,
				"method": "rhf"
			},
			{
				"type": "occ",
				"energy": -0.23724,
				"method": "rhf"
			},
			{
				"type": "unocc",
				"energy": -0.08489,
				"method": "rhf"
			},
			{
				"type": "unocc",
				"energy": -0.03591,
				"method": "rhf"
			},
			{
				"type": "unocc",
				"energy": -0.02294,
				"method": "rhf"
			},
			{
				"type": "unocc",
				"energy": -0.0092,
				"method": "rhf"
			},
			{
				"type": "unocc",
				"energy": -0.00509,
				"method": "rhf"
			}
		],
		"cosmo_sigma_profile": { 
			"-0.025": 0.0,
			"-0.024": 0.0,
			"-0.023": 0.0,
			"-0.022": 0.0,
			"-0.021": 0.0,
			"-0.02": 0.0,
			"-0.019": 0.0,
			"-0.018": 0.0,
			"-0.017": 0.0,
			"-0.016": 0.0,
			"-0.015": 0.0,
			"-0.014": 0.0,
			"-0.013": 0.0,
			"-0.012": 0.0,
			"-0.011": 0.0,
			"-0.01": 0.525925601117,
			"-0.009": 1.84300850175,
			"-0.008": 1.56993052989,
			"-0.007": 4.96773675271,
			"-0.006": 14.614963976,
			"-0.005": 18.5939449612,
			"-0.004": 21.6784079333,
			"-0.003": 21.1996482298,
			"-0.002": 20.0436607445,
			"-0.001": 15.9906806018,
			"0.0": 16.2460529369,
			"0.001": 19.6524725662,
			"0.002": 23.9028433592,
			"0.003": 23.3540207551,
			"0.004": 18.2245358641,
			"0.005": 8.12899278823,
			"0.006": 3.29062599332,
			"0.007": 1.96602320229,
			"0.008": 3.67857614387,
			"0.009": 2.56441307565,
			"0.01": 2.85542149907,
			"0.011": 2.896271979,
			"0.012": 4.05806758906,
			"0.013": 0.94991132283,
			"0.014": 0.0,
			"0.015": 0.0,
			"0.016": 0.0,
			"0.017": 0.0,
			"0.018": 0.0,
			"0.019": 0.0,
			"0.02": 0.0,
			"0.021": 0.0,
			"0.022": 0.0,
			"0.023": 0.0,
			"0.024": 0.0,
			"0.025": 0.0
		}
	}
}
