{
	 "smiles": "BrC(C(Br)C1=CC=CC=C1)C1=CC=CC=C1", 
	 "Tm": 512.15, 
	 "num_atms": 28, 
	 "gaussian": { 
		 "optdone": 1, 
		 "sigma_profile": "yes", 
		 "theory": "DFT", 
		 "functional": "B3LYP", 
		 "basiset": "6-31G**", 
		 "properties": { 
			 "R2extent": 6549.2396, 
			 "electric_dipole_moment_norm": 3.35184409094, 
			 "electric_quadrupole_moment_norm": 12.4095703338, 
			 "total_energy": -5683.53571558, 
			 "HOMO_LUMO_gap": 0.20529, 
			 "cosmo_polarized_energy": -9.32, 
			 "cosmo_cavitation_energy": 35.14, 
			 "cosmo_dispersion_energy": -24.67, 
			 "cosmo_repulsion_energy": 1.94, 
			 "cosmo_total_nonelectrostatic_energy": 12.4, 
			 "SMD_solvation_energy": 3.53 
		},
		"coords": [
			{
				"x": -1.9635952723,
				"y": 3.3363647986,
				"z": 0.8049179223,
				"element": "Br" 
			},
			{
				"x": -1.297515468,
				"y": 1.5295538948,
				"z": 0.2492076304,
				"element": "C" 
			},
			{
				"x": -1.3253887296,
				"y": 1.4263441574,
				"z": -1.2921114062,
				"element": "C" 
			},
			{
				"x": -0.0159737238,
				"y": 2.634454997,
				"z": -2.1893873406,
				"element": "Br" 
			},
			{
				"x": -1.1747745662,
				"y": 0.0021872206,
				"z": -1.7788584771,
				"element": "C" 
			},
			{
				"x": -2.3261955926,
				"y": -0.6838395203,
				"z": -2.188553708,
				"element": "C" 
			},
			{
				"x": -2.2544369465,
				"y": -2.0172133443,
				"z": -2.5956872613,
				"element": "C" 
			},
			{
				"x": -1.0265725475,
				"y": -2.6786689756,
				"z": -2.6006679217,
				"element": "C" 
			},
			{
				"x": 0.1269176362,
				"y": -1.9999711302,
				"z": -2.1985560873,
				"element": "C" 
			},
			{
				"x": 0.0556338171,
				"y": -0.669844197,
				"z": -1.7893193157,
				"element": "C" 
			},
			{
				"x": -0.0316269805,
				"y": 1.1622289873,
				"z": 0.9824424206,
				"element": "C" 
			},
			{
				"x": 1.0931047787,
				"y": 1.9992707256,
				"z": 1.024233453,
				"element": "C" 
			},
			{
				"x": 2.2474107857,
				"y": 1.5934664263,
				"z": 1.6915253758,
				"element": "C" 
			},
			{
				"x": 2.2952999271,
				"y": 0.3529930567,
				"z": 2.3329369572,
				"element": "C" 
			},
			{
				"x": 1.1771132204,
				"y": -0.4800506317,
				"z": 2.3082520374,
				"element": "C" 
			},
			{
				"x": 0.0209428253,
				"y": -0.0748812456,
				"z": 1.6398444703,
				"element": "C" 
			},
			{
				"x": -2.103162022,
				"y": 0.8741443556,
				"z": 0.586727681,
				"element": "H" 
			},
			{
				"x": -2.2822281534,
				"y": 1.8249816531,
				"z": -1.6259241014,
				"element": "H" 
			},
			{
				"x": -3.2846478565,
				"y": -0.1703038627,
				"z": -2.1944532424,
				"element": "H" 
			},
			{
				"x": -3.1554887366,
				"y": -2.5324430072,
				"z": -2.9154362929,
				"element": "H" 
			},
			{
				"x": -0.9657027583,
				"y": -3.7140901551,
				"z": -2.9229979575,
				"element": "H" 
			},
			{
				"x": 1.0872792959,
				"y": -2.5071470418,
				"z": -2.207687137,
				"element": "H" 
			},
			{
				"x": 0.9561628581,
				"y": -0.1423822616,
				"z": -1.4948142651,
				"element": "H" 
			},
			{
				"x": 1.054021403,
				"y": 2.9714725162,
				"z": 0.5479016625,
				"element": "H" 
			},
			{
				"x": 3.1100048022,
				"y": 2.252925255,
				"z": 1.7179438994,
				"element": "H" 
			},
			{
				"x": 3.1953297602,
				"y": 0.0439680611,
				"z": 2.8566840663,
				"element": "H" 
			},
			{
				"x": 1.1988624972,
				"y": -1.441914617,
				"z": 2.8121512478,
				"element": "H" 
			},
			{
				"x": -0.8472742533,
				"y": -0.7283061154,
				"z": 1.62428569,
				"element": "H" 
			}
		],
		 "valence_orbital": [ 
			{
				"type": "occ",
				"energy": -0.27095,
				"method": "rhf"
			},
			{
				"type": "occ",
				"energy": -0.26173,
				"method": "rhf"
			},
			{
				"type": "occ",
				"energy": -0.25445,
				"method": "rhf"
			},
			{
				"type": "occ",
				"energy": -0.24959,
				"method": "rhf"
			},
			{
				"type": "occ",
				"energy": -0.24762,
				"method": "rhf"
			},
			{
				"type": "unocc",
				"energy": -0.04233,
				"method": "rhf"
			},
			{
				"type": "unocc",
				"energy": -0.02436,
				"method": "rhf"
			},
			{
				"type": "unocc",
				"energy": -0.01212,
				"method": "rhf"
			},
			{
				"type": "unocc",
				"energy": -0.00439,
				"method": "rhf"
			},
			{
				"type": "unocc",
				"energy": 0.01151,
				"method": "rhf"
			}
		],
		"cosmo_sigma_profile": { 
			"-0.025": 0.0,
			"-0.024": 0.0,
			"-0.023": 0.0,
			"-0.022": 0.0,
			"-0.021": 0.0,
			"-0.02": 0.0,
			"-0.019": 0.0,
			"-0.018": 0.0,
			"-0.017": 0.0,
			"-0.016": 0.0,
			"-0.015": 0.0,
			"-0.014": 0.0,
			"-0.013": 0.0,
			"-0.012": 0.0,
			"-0.011": 0.0,
			"-0.01": 0.0,
			"-0.009": 2.09204777459,
			"-0.008": 5.98000012996,
			"-0.007": 5.81056850323,
			"-0.006": 16.1004363604,
			"-0.005": 20.9840092415,
			"-0.004": 22.6311380744,
			"-0.003": 18.9435286485,
			"-0.002": 16.744941937,
			"-0.001": 16.6198566869,
			"0.0": 18.072218908,
			"0.001": 19.3611799866,
			"0.002": 20.7790665538,
			"0.003": 24.610469974,
			"0.004": 31.3938634517,
			"0.005": 32.4257088261,
			"0.006": 11.4509464799,
			"0.007": 2.15904611853,
			"0.008": 0.15024485677,
			"0.009": 0.0,
			"0.01": 0.0,
			"0.011": 0.0,
			"0.012": 0.0,
			"0.013": 0.0,
			"0.014": 0.0,
			"0.015": 0.0,
			"0.016": 0.0,
			"0.017": 0.0,
			"0.018": 0.0,
			"0.019": 0.0,
			"0.02": 0.0,
			"0.021": 0.0,
			"0.022": 0.0,
			"0.023": 0.0,
			"0.024": 0.0,
			"0.025": 0.0
		}
	}
}
