{
	 "smiles": "CN1N=C(C=O)C=C1C", 
	 "Tm": 329.65, 
	 "num_atms": 17, 
	 "gaussian": { 
		 "optdone": 1, 
		 "sigma_profile": "yes", 
		 "theory": "DFT", 
		 "functional": "B3LYP", 
		 "basiset": "6-31G**", 
		 "properties": { 
			 "R2extent": 1849.6562, 
			 "electric_dipole_moment_norm": 6.13206199659, 
			 "electric_quadrupole_moment_norm": 16.7754196263, 
			 "total_energy": -418.157924329, 
			 "HOMO_LUMO_gap": 0.20054, 
			 "cosmo_polarized_energy": -14.48, 
			 "cosmo_cavitation_energy": 21.45, 
			 "cosmo_dispersion_energy": -15.49, 
			 "cosmo_repulsion_energy": 1.28, 
			 "cosmo_total_nonelectrostatic_energy": 7.24, 
			 "SMD_solvation_energy": 4.15 
		},
		"coords": [
			{
				"x": -0.4776320263,
				"y": 0.8573580947,
				"z": 0.3708491984,
				"element": "C" 
			},
			{
				"x": 0.0525563819,
				"y": -0.3675392651,
				"z": -0.2038354617,
				"element": "N" 
			},
			{
				"x": 1.2121183028,
				"y": -0.3303386334,
				"z": -0.8753216696,
				"element": "N" 
			},
			{
				"x": 1.41732249,
				"y": -1.5967642058,
				"z": -1.2684257705,
				"element": "C" 
			},
			{
				"x": 2.599618576,
				"y": -1.9957011889,
				"z": -2.0470485684,
				"element": "C" 
			},
			{
				"x": 3.4929339614,
				"y": -1.2576273666,
				"z": -2.4127064913,
				"element": "O" 
			},
			{
				"x": 0.3667341666,
				"y": -2.4443358303,
				"z": -0.8354108152,
				"element": "C" 
			},
			{
				"x": -0.5040198799,
				"y": -1.6218079288,
				"z": -0.1479315925,
				"element": "C" 
			},
			{
				"x": -1.7963897137,
				"y": -1.9037187411,
				"z": 0.5487197387,
				"element": "C" 
			},
			{
				"x": -1.4579889134,
				"y": 1.093842781,
				"z": -0.054198413,
				"element": "H" 
			},
			{
				"x": -0.5722193288,
				"y": 0.7679605331,
				"z": 1.4574720565,
				"element": "H" 
			},
			{
				"x": 0.2251519912,
				"y": 1.6536015963,
				"z": 0.1307002713,
				"element": "H" 
			},
			{
				"x": 2.6157269122,
				"y": -3.0825231206,
				"z": -2.2920123843,
				"element": "H" 
			},
			{
				"x": 0.2609503562,
				"y": -3.5067854368,
				"z": -1.0023034341,
				"element": "H" 
			},
			{
				"x": -2.0390927422,
				"y": -2.96475714,
				"z": 0.4624035055,
				"element": "H" 
			},
			{
				"x": -2.6282916389,
				"y": -1.3345124184,
				"z": 0.1170076483,
				"element": "H" 
			},
			{
				"x": -1.7496788951,
				"y": -1.6574517293,
				"z": 1.616242182,
				"element": "H" 
			}
		],
		 "valence_orbital": [ 
			{
				"type": "occ",
				"energy": -0.36787,
				"method": "rhf"
			},
			{
				"type": "occ",
				"energy": -0.29446,
				"method": "rhf"
			},
			{
				"type": "occ",
				"energy": -0.25781,
				"method": "rhf"
			},
			{
				"type": "occ",
				"energy": -0.2476,
				"method": "rhf"
			},
			{
				"type": "occ",
				"energy": -0.24094,
				"method": "rhf"
			},
			{
				"type": "unocc",
				"energy": -0.0404,
				"method": "rhf"
			},
			{
				"type": "unocc",
				"energy": 0.02247,
				"method": "rhf"
			},
			{
				"type": "unocc",
				"energy": 0.07332,
				"method": "rhf"
			},
			{
				"type": "unocc",
				"energy": 0.10558,
				"method": "rhf"
			},
			{
				"type": "unocc",
				"energy": 0.11097,
				"method": "rhf"
			}
		],
		"cosmo_sigma_profile": { 
			"-0.025": 0.0,
			"-0.024": 0.0,
			"-0.023": 0.0,
			"-0.022": 0.0,
			"-0.021": 0.0,
			"-0.02": 0.0,
			"-0.019": 0.0,
			"-0.018": 0.0,
			"-0.017": 0.0,
			"-0.016": 0.0,
			"-0.015": 0.0,
			"-0.014": 0.0,
			"-0.013": 0.0,
			"-0.012": 0.0,
			"-0.011": 0.0,
			"-0.01": 0.0,
			"-0.009": 0.0,
			"-0.008": 0.426177830488,
			"-0.007": 7.45984175448,
			"-0.006": 17.4932487427,
			"-0.005": 19.2929898986,
			"-0.004": 16.5429145888,
			"-0.003": 17.3161147423,
			"-0.002": 13.7548841982,
			"-0.001": 10.3842848145,
			"0.0": 7.25118747157,
			"0.001": 6.38693366224,
			"0.002": 7.10593897909,
			"0.003": 7.27594547444,
			"0.004": 5.58057752198,
			"0.005": 3.24389817209,
			"0.006": 2.03069851964,
			"0.007": 2.43009760567,
			"0.008": 2.73842739081,
			"0.009": 2.19892987946,
			"0.01": 3.80435096076,
			"0.011": 4.44637679945,
			"0.012": 5.86743301977,
			"0.013": 3.62003628911,
			"0.014": 2.44953524304,
			"0.015": 1.24905690197,
			"0.016": 0.171844750853,
			"0.017": 0.0,
			"0.018": 0.0,
			"0.019": 0.0,
			"0.02": 0.0,
			"0.021": 0.0,
			"0.022": 0.0,
			"0.023": 0.0,
			"0.024": 0.0,
			"0.025": 0.0
		}
	}
}
