{
	 "smiles": "C#CCCCC#C", 
	 "Tm": 188.15, 
	 "num_atms": 15, 
	 "gaussian": { 
		 "optdone": 1, 
		 "sigma_profile": "yes", 
		 "theory": "DFT", 
		 "functional": "B3LYP", 
		 "basiset": "6-31G**", 
		 "properties": { 
			 "R2extent": 1206.4047, 
			 "electric_dipole_moment_norm": 0.702349891436, 
			 "electric_quadrupole_moment_norm": 2.90786155276, 
			 "total_energy": -271.423734495, 
			 "HOMO_LUMO_gap": 0.29746, 
			 "cosmo_polarized_energy": -6.24, 
			 "cosmo_cavitation_energy": 20.35, 
			 "cosmo_dispersion_energy": -13.46, 
			 "cosmo_repulsion_energy": 1.15, 
			 "cosmo_total_nonelectrostatic_energy": 8.03, 
			 "SMD_solvation_energy": 6.09 
		},
		"coords": [
			{
				"x": 0.7653205219,
				"y": -1.9285253034,
				"z": -3.5760567652,
				"element": "C" 
			},
			{
				"x": 0.4161835262,
				"y": -1.5907216511,
				"z": -2.4701522437,
				"element": "C" 
			},
			{
				"x": 0.0148409081,
				"y": -1.1833802327,
				"z": -1.1244167009,
				"element": "C" 
			},
			{
				"x": 1.2082767135,
				"y": -1.0562092282,
				"z": -0.1565510894,
				"element": "C" 
			},
			{
				"x": 0.7810050774,
				"y": -0.6342318042,
				"z": 1.2655237721,
				"element": "C" 
			},
			{
				"x": 0.1383858441,
				"y": 0.6800162497,
				"z": 1.3189016852,
				"element": "C" 
			},
			{
				"x": -0.3900011348,
				"y": 1.7662713799,
				"z": 1.3444377229,
				"element": "C" 
			},
			{
				"x": 1.0669830212,
				"y": -2.2244630781,
				"z": -4.5537356021,
				"element": "H" 
			},
			{
				"x": -0.7050531236,
				"y": -1.9103113248,
				"z": -0.7232297662,
				"element": "H" 
			},
			{
				"x": -0.5136733784,
				"y": -0.2229423353,
				"z": -1.1704661451,
				"element": "H" 
			},
			{
				"x": 1.9211417728,
				"y": -0.3276725908,
				"z": -0.5558787214,
				"element": "H" 
			},
			{
				"x": 1.7311188458,
				"y": -2.0166631932,
				"z": -0.0947370697,
				"element": "H" 
			},
			{
				"x": 0.0979761677,
				"y": -1.3877856182,
				"z": 1.6814470257,
				"element": "H" 
			},
			{
				"x": 1.6637347022,
				"y": -0.6308235604,
				"z": 1.9174315269,
				"element": "H" 
			},
			{
				"x": -0.853839464,
				"y": 2.7247422906,
				"z": 1.3753823709,
				"element": "H" 
			}
		],
		 "valence_orbital": [ 
			{
				"type": "occ",
				"energy": -0.35655,
				"method": "rhf"
			},
			{
				"type": "occ",
				"energy": -0.27126,
				"method": "rhf"
			},
			{
				"type": "occ",
				"energy": -0.26495,
				"method": "rhf"
			},
			{
				"type": "occ",
				"energy": -0.25941,
				"method": "rhf"
			},
			{
				"type": "occ",
				"energy": -0.25481,
				"method": "rhf"
			},
			{
				"type": "unocc",
				"energy": 0.04265,
				"method": "rhf"
			},
			{
				"type": "unocc",
				"energy": 0.05368,
				"method": "rhf"
			},
			{
				"type": "unocc",
				"energy": 0.06232,
				"method": "rhf"
			},
			{
				"type": "unocc",
				"energy": 0.06772,
				"method": "rhf"
			},
			{
				"type": "unocc",
				"energy": 0.10515,
				"method": "rhf"
			}
		],
		"cosmo_sigma_profile": { 
			"-0.025": 0.0,
			"-0.024": 0.0,
			"-0.023": 0.0,
			"-0.022": 0.0,
			"-0.021": 0.0,
			"-0.02": 0.0,
			"-0.019": 0.0,
			"-0.018": 0.0,
			"-0.017": 0.0,
			"-0.016": 0.0,
			"-0.015": 0.0,
			"-0.014": 0.0,
			"-0.013": 0.0,
			"-0.012": 0.107588557762,
			"-0.011": 1.85637579207,
			"-0.01": 2.42912411008,
			"-0.009": 2.37101752401,
			"-0.008": 1.45210435933,
			"-0.007": 3.15499778386,
			"-0.006": 4.55079100992,
			"-0.005": 11.5562059634,
			"-0.004": 15.1660012532,
			"-0.003": 16.5244329666,
			"-0.002": 13.4093649544,
			"-0.001": 11.1129024767,
			"0.0": 8.91294247099,
			"0.001": 6.90051565233,
			"0.002": 7.41564903418,
			"0.003": 8.19063285772,
			"0.004": 9.18318088706,
			"0.005": 7.9233042356,
			"0.006": 10.4109564633,
			"0.007": 15.2092676801,
			"0.008": 5.24794324438,
			"0.009": 0.0,
			"0.01": 0.0,
			"0.011": 0.0,
			"0.012": 0.0,
			"0.013": 0.0,
			"0.014": 0.0,
			"0.015": 0.0,
			"0.016": 0.0,
			"0.017": 0.0,
			"0.018": 0.0,
			"0.019": 0.0,
			"0.02": 0.0,
			"0.021": 0.0,
			"0.022": 0.0,
			"0.023": 0.0,
			"0.024": 0.0,
			"0.025": 0.0
		}
	}
}
