{
	 "smiles": "COC1=CC(=CC=C1)C1=NON=C1N", 
	 "Tm": 348.15, 
	 "num_atms": 23, 
	 "gaussian": { 
		 "optdone": 1, 
		 "sigma_profile": "yes", 
		 "theory": "DFT", 
		 "functional": "B3LYP", 
		 "basiset": "6-31G**", 
		 "properties": { 
			 "R2extent": 3332.4839, 
			 "electric_dipole_moment_norm": 3.79429868882, 
			 "electric_quadrupole_moment_norm": 16.9592293348, 
			 "total_energy": -662.992000812, 
			 "HOMO_LUMO_gap": 0.1792, 
			 "cosmo_polarized_energy": -13.93, 
			 "cosmo_cavitation_energy": 27.68, 
			 "cosmo_dispersion_energy": -20.54, 
			 "cosmo_repulsion_energy": 1.61, 
			 "cosmo_total_nonelectrostatic_energy": 8.75, 
			 "SMD_solvation_energy": 5.15 
		},
		"coords": [
			{
				"x": 3.1676595671,
				"y": 0.7463813716,
				"z": -0.6697689385,
				"element": "C" 
			},
			{
				"x": 2.9374363671,
				"y": -0.2251012359,
				"z": 0.3416210713,
				"element": "O" 
			},
			{
				"x": 1.6517433536,
				"y": -0.5798190098,
				"z": 0.6165187664,
				"element": "C" 
			},
			{
				"x": 0.5307748185,
				"y": -0.036833183,
				"z": -0.0135376294,
				"element": "C" 
			},
			{
				"x": -0.7567965234,
				"y": -0.4754513695,
				"z": 0.3466690223,
				"element": "C" 
			},
			{
				"x": -0.9131910787,
				"y": -1.4563500381,
				"z": 1.3348002604,
				"element": "C" 
			},
			{
				"x": 0.2189664885,
				"y": -1.9880106751,
				"z": 1.9610081453,
				"element": "C" 
			},
			{
				"x": 1.4920342014,
				"y": -1.5567786988,
				"z": 1.614585565,
				"element": "C" 
			},
			{
				"x": -1.9243374619,
				"y": 0.1006162033,
				"z": -0.3376061243,
				"element": "C" 
			},
			{
				"x": -1.8587778773,
				"y": 0.6024353575,
				"z": -1.5482823115,
				"element": "N" 
			},
			{
				"x": -3.1071781473,
				"y": 1.0587409765,
				"z": -1.8515702463,
				"element": "O" 
			},
			{
				"x": -3.9874614974,
				"y": 0.8583310231,
				"z": -0.8002977113,
				"element": "N" 
			},
			{
				"x": -3.279877714,
				"y": 0.2666166456,
				"z": 0.1301132197,
				"element": "C" 
			},
			{
				"x": -3.8177368734,
				"y": -0.145421931,
				"z": 1.3351230702,
				"element": "N" 
			},
			{
				"x": 2.7122133858,
				"y": 1.7113833897,
				"z": -0.4140787027,
				"element": "H" 
			},
			{
				"x": 4.2503601412,
				"y": 0.8647313618,
				"z": -0.7303344498,
				"element": "H" 
			},
			{
				"x": 2.783866179,
				"y": 0.4148930492,
				"z": -1.6425301753,
				"element": "H" 
			},
			{
				"x": 0.6235012811,
				"y": 0.7203674456,
				"z": -0.7812433824,
				"element": "H" 
			},
			{
				"x": -1.9002955847,
				"y": -1.8303255023,
				"z": 1.5835195483,
				"element": "H" 
			},
			{
				"x": 0.1021299373,
				"y": -2.7531792857,
				"z": 2.7227871034,
				"element": "H" 
			},
			{
				"x": 2.3790853873,
				"y": -1.9577943587,
				"z": 2.0934654086,
				"element": "H" 
			},
			{
				"x": -3.1900605867,
				"y": -0.0478824643,
				"z": 2.1228733141,
				"element": "H" 
			},
			{
				"x": -4.7319577632,
				"y": 0.2498509284,
				"z": 1.5174651764,
				"element": "H" 
			}
		],
		 "valence_orbital": [ 
			{
				"type": "occ",
				"energy": -0.30582,
				"method": "rhf"
			},
			{
				"type": "occ",
				"energy": -0.30442,
				"method": "rhf"
			},
			{
				"type": "occ",
				"energy": -0.26009,
				"method": "rhf"
			},
			{
				"type": "occ",
				"energy": -0.24375,
				"method": "rhf"
			},
			{
				"type": "occ",
				"energy": -0.22832,
				"method": "rhf"
			},
			{
				"type": "unocc",
				"energy": -0.04912,
				"method": "rhf"
			},
			{
				"type": "unocc",
				"energy": -0.00464,
				"method": "rhf"
			},
			{
				"type": "unocc",
				"energy": -0.00082,
				"method": "rhf"
			},
			{
				"type": "unocc",
				"energy": 0.06076,
				"method": "rhf"
			},
			{
				"type": "unocc",
				"energy": 0.08012,
				"method": "rhf"
			}
		],
		"cosmo_sigma_profile": { 
			"-0.025": 0.0,
			"-0.024": 0.0,
			"-0.023": 0.0,
			"-0.022": 0.0,
			"-0.021": 0.0,
			"-0.02": 0.0,
			"-0.019": 0.0,
			"-0.018": 0.0,
			"-0.017": 0.0,
			"-0.016": 0.0,
			"-0.015": 0.0631086771346,
			"-0.014": 1.58556849781,
			"-0.013": 2.43234309073,
			"-0.012": 2.64309569272,
			"-0.011": 2.69540788175,
			"-0.01": 2.25725258186,
			"-0.009": 2.127680451,
			"-0.008": 2.36499109409,
			"-0.007": 3.77824084378,
			"-0.006": 12.6412665868,
			"-0.005": 17.3483593897,
			"-0.004": 16.1098352547,
			"-0.003": 15.2153472703,
			"-0.002": 13.1088897354,
			"-0.001": 13.1159610708,
			"0.0": 9.2513745312,
			"0.001": 10.4663049573,
			"0.002": 13.9642076037,
			"0.003": 17.2207462842,
			"0.004": 15.4033790042,
			"0.005": 7.43332643549,
			"0.006": 10.7952499997,
			"0.007": 10.1883934321,
			"0.008": 5.22901035312,
			"0.009": 4.5128176776,
			"0.01": 4.25324012535,
			"0.011": 2.70019077354,
			"0.012": 1.86826080716,
			"0.013": 0.679459623173,
			"0.014": 0.0165565966007,
			"0.015": 0.0,
			"0.016": 0.0,
			"0.017": 0.0,
			"0.018": 0.0,
			"0.019": 0.0,
			"0.02": 0.0,
			"0.021": 0.0,
			"0.022": 0.0,
			"0.023": 0.0,
			"0.024": 0.0,
			"0.025": 0.0
		}
	}
}
