{
	 "smiles": "C#CCCC#C", 
	 "Tm": 267.15, 
	 "num_atms": 12, 
	 "gaussian": { 
		 "optdone": 1, 
		 "sigma_profile": "yes", 
		 "theory": "DFT", 
		 "functional": "B3LYP", 
		 "basiset": "6-31G**", 
		 "properties": { 
			 "R2extent": 906.2298, 
			 "electric_dipole_moment_norm": 0.778091800497, 
			 "electric_quadrupole_moment_norm": 3.72700262544, 
			 "total_energy": -232.105590301, 
			 "HOMO_LUMO_gap": 0.30333, 
			 "cosmo_polarized_energy": -6.89, 
			 "cosmo_cavitation_energy": 17.65, 
			 "cosmo_dispersion_energy": -11.53, 
			 "cosmo_repulsion_energy": 1.0, 
			 "cosmo_total_nonelectrostatic_energy": 7.13, 
			 "SMD_solvation_energy": 5.83 
		},
		"coords": [
			{
				"x": -2.1370688169,
				"y": 2.4915265274,
				"z": 0.6602776191,
				"element": "C" 
			},
			{
				"x": -2.10356169,
				"y": 1.2859281469,
				"z": 0.7175032321,
				"element": "C" 
			},
			{
				"x": -2.0639551234,
				"y": -0.1742453306,
				"z": 0.7695938638,
				"element": "C" 
			},
			{
				"x": -0.7391117819,
				"y": -0.7812987364,
				"z": 0.2331863613,
				"element": "C" 
			},
			{
				"x": 0.4283196005,
				"y": -0.4559116923,
				"z": 1.0502594514,
				"element": "C" 
			},
			{
				"x": 1.3877221559,
				"y": -0.1952886795,
				"z": 1.7354596003,
				"element": "C" 
			},
			{
				"x": -2.1600836942,
				"y": 3.5555213665,
				"z": 0.6164219012,
				"element": "H" 
			},
			{
				"x": -2.2194617116,
				"y": -0.5125577866,
				"z": 1.8009666639,
				"element": "H" 
			},
			{
				"x": -2.8921109131,
				"y": -0.5824239055,
				"z": 0.1764767826,
				"element": "H" 
			},
			{
				"x": -0.5793791875,
				"y": -0.436280826,
				"z": -0.7953169269,
				"element": "H" 
			},
			{
				"x": -0.8572257835,
				"y": -1.8712189826,
				"z": 0.1844844014,
				"element": "H" 
			},
			{
				"x": 2.2336169455,
				"y": 0.0430498987,
				"z": 2.3372870499,
				"element": "H" 
			}
		],
		 "valence_orbital": [ 
			{
				"type": "occ",
				"energy": -0.39314,
				"method": "rhf"
			},
			{
				"type": "occ",
				"energy": -0.27161,
				"method": "rhf"
			},
			{
				"type": "occ",
				"energy": -0.26465,
				"method": "rhf"
			},
			{
				"type": "occ",
				"energy": -0.25914,
				"method": "rhf"
			},
			{
				"type": "occ",
				"energy": -0.25704,
				"method": "rhf"
			},
			{
				"type": "unocc",
				"energy": 0.04629,
				"method": "rhf"
			},
			{
				"type": "unocc",
				"energy": 0.0468,
				"method": "rhf"
			},
			{
				"type": "unocc",
				"energy": 0.05598,
				"method": "rhf"
			},
			{
				"type": "unocc",
				"energy": 0.06882,
				"method": "rhf"
			},
			{
				"type": "unocc",
				"energy": 0.12314,
				"method": "rhf"
			}
		],
		"cosmo_sigma_profile": { 
			"-0.025": 0.0,
			"-0.024": 0.0,
			"-0.023": 0.0,
			"-0.022": 0.0,
			"-0.021": 0.0,
			"-0.02": 0.0,
			"-0.019": 0.0,
			"-0.018": 0.0,
			"-0.017": 0.0,
			"-0.016": 0.0,
			"-0.015": 0.0,
			"-0.014": 0.0,
			"-0.013": 0.0,
			"-0.012": 0.331074685546,
			"-0.011": 2.49613125985,
			"-0.01": 1.73462161837,
			"-0.009": 0.87923379383,
			"-0.008": 3.61188771484,
			"-0.007": 4.18318107762,
			"-0.006": 9.50106997078,
			"-0.005": 12.6039432222,
			"-0.004": 12.6931504675,
			"-0.003": 10.0164684784,
			"-0.002": 6.54159804758,
			"-0.001": 5.31037327993,
			"0.0": 6.35623769769,
			"0.001": 5.42873416452,
			"0.002": 5.78284478289,
			"0.003": 7.08378153461,
			"0.004": 6.78088415495,
			"0.005": 8.20586189077,
			"0.006": 11.1149429351,
			"0.007": 15.8030725229,
			"0.008": 5.39269646025,
			"0.009": 0.746117706779,
			"0.01": 0.0,
			"0.011": 0.0,
			"0.012": 0.0,
			"0.013": 0.0,
			"0.014": 0.0,
			"0.015": 0.0,
			"0.016": 0.0,
			"0.017": 0.0,
			"0.018": 0.0,
			"0.019": 0.0,
			"0.02": 0.0,
			"0.021": 0.0,
			"0.022": 0.0,
			"0.023": 0.0,
			"0.024": 0.0,
			"0.025": 0.0
		}
	}
}
