{
	 "smiles": "CN(C)C1=NC(Cl)=NC(C)=N1", 
	 "Tm": 355.15, 
	 "num_atms": 20, 
	 "gaussian": { 
		 "optdone": 1, 
		 "sigma_profile": "yes", 
		 "theory": "DFT", 
		 "functional": "B3LYP", 
		 "basiset": "6-31G**", 
		 "properties": { 
			 "R2extent": 2764.838, 
			 "electric_dipole_moment_norm": 4.07508092312, 
			 "electric_quadrupole_moment_norm": 8.44799798414, 
			 "total_energy": -913.283447597, 
			 "HOMO_LUMO_gap": 0.20301, 
			 "cosmo_polarized_energy": -8.03, 
			 "cosmo_cavitation_energy": 25.53, 
			 "cosmo_dispersion_energy": -19.16, 
			 "cosmo_repulsion_energy": 1.57, 
			 "cosmo_total_nonelectrostatic_energy": 7.94, 
			 "SMD_solvation_energy": 1.14 
		},
		"coords": [
			{
				"x": -0.7227631083,
				"y": -0.9123606941,
				"z": -1.6174030793,
				"element": "C" 
			},
			{
				"x": -0.9288930512,
				"y": -0.6278412539,
				"z": -0.2042276367,
				"element": "N" 
			},
			{
				"x": -2.2748460228,
				"y": -0.8507698056,
				"z": 0.3036742016,
				"element": "C" 
			},
			{
				"x": 0.0725689093,
				"y": -0.1810318244,
				"z": 0.5920355675,
				"element": "C" 
			},
			{
				"x": 1.29567709,
				"y": -0.0011632153,
				"z": 0.0333514416,
				"element": "N" 
			},
			{
				"x": 2.2070763694,
				"y": 0.4339651335,
				"z": 0.8782994601,
				"element": "C" 
			},
			{
				"x": 3.8115735431,
				"y": 0.6836011677,
				"z": 0.2033032248,
				"element": "Cl" 
			},
			{
				"x": 2.0743565386,
				"y": 0.7077790702,
				"z": 2.1672680935,
				"element": "N" 
			},
			{
				"x": 0.8207121262,
				"y": 0.4964355244,
				"z": 2.6263239364,
				"element": "C" 
			},
			{
				"x": 0.5837764945,
				"y": 0.7832744011,
				"z": 4.0811053138,
				"element": "C" 
			},
			{
				"x": -0.2014869987,
				"y": 0.0606648421,
				"z": 1.8977704752,
				"element": "N" 
			},
			{
				"x": -1.3844709788,
				"y": -0.285078092,
				"z": -2.227412242,
				"element": "H" 
			},
			{
				"x": 0.3123471838,
				"y": -0.7124913438,
				"z": -1.8831829732,
				"element": "H" 
			},
			{
				"x": -0.9577499596,
				"y": -1.9631882806,
				"z": -1.8270373149,
				"element": "H" 
			},
			{
				"x": -2.5622030665,
				"y": -1.8997387648,
				"z": 0.1598679595,
				"element": "H" 
			},
			{
				"x": -2.308354861,
				"y": -0.6068739989,
				"z": 1.3625651066,
				"element": "H" 
			},
			{
				"x": -2.9910648186,
				"y": -0.2222775224,
				"z": -0.2400553602,
				"element": "H" 
			},
			{
				"x": -0.4534544848,
				"y": 0.581550526,
				"z": 4.3490116572,
				"element": "H" 
			},
			{
				"x": 1.2520418943,
				"y": 0.1694776886,
				"z": 4.6933132061,
				"element": "H" 
			},
			{
				"x": 0.8269572009,
				"y": 1.828466442,
				"z": 4.2969289626,
				"element": "H" 
			}
		],
		 "valence_orbital": [ 
			{
				"type": "occ",
				"energy": -0.31275,
				"method": "rhf"
			},
			{
				"type": "occ",
				"energy": -0.29239,
				"method": "rhf"
			},
			{
				"type": "occ",
				"energy": -0.26993,
				"method": "rhf"
			},
			{
				"type": "occ",
				"energy": -0.26698,
				"method": "rhf"
			},
			{
				"type": "occ",
				"energy": -0.23953,
				"method": "rhf"
			},
			{
				"type": "unocc",
				"energy": -0.03652,
				"method": "rhf"
			},
			{
				"type": "unocc",
				"energy": -0.01929,
				"method": "rhf"
			},
			{
				"type": "unocc",
				"energy": 0.04168,
				"method": "rhf"
			},
			{
				"type": "unocc",
				"energy": 0.08707,
				"method": "rhf"
			},
			{
				"type": "unocc",
				"energy": 0.11424,
				"method": "rhf"
			}
		],
		"cosmo_sigma_profile": { 
			"-0.025": 0.0,
			"-0.024": 0.0,
			"-0.023": 0.0,
			"-0.022": 0.0,
			"-0.021": 0.0,
			"-0.02": 0.0,
			"-0.019": 0.0,
			"-0.018": 0.0,
			"-0.017": 0.0,
			"-0.016": 0.0,
			"-0.015": 0.0,
			"-0.014": 0.0,
			"-0.013": 0.0,
			"-0.012": 0.0,
			"-0.011": 0.0,
			"-0.01": 0.0,
			"-0.009": 0.0,
			"-0.008": 0.0,
			"-0.007": 0.0140340171879,
			"-0.006": 4.14993283429,
			"-0.005": 18.4233533726,
			"-0.004": 19.364758046,
			"-0.003": 24.0988831714,
			"-0.002": 29.0740189737,
			"-0.001": 20.6196252964,
			"0.0": 15.3439539021,
			"0.001": 11.3422078422,
			"0.002": 7.40726153688,
			"0.003": 10.9196924009,
			"0.004": 12.5335654946,
			"0.005": 8.53537381452,
			"0.006": 5.92071247635,
			"0.007": 4.76197397181,
			"0.008": 4.53650686323,
			"0.009": 3.75922083339,
			"0.01": 1.07960004142,
			"0.011": 0.562782715744,
			"0.012": 1.26503163961,
			"0.013": 0.847240745277,
			"0.014": 0.673985455685,
			"0.015": 0.253632071918,
			"0.016": 0.0,
			"0.017": 0.0,
			"0.018": 0.0,
			"0.019": 0.0,
			"0.02": 0.0,
			"0.021": 0.0,
			"0.022": 0.0,
			"0.023": 0.0,
			"0.024": 0.0,
			"0.025": 0.0
		}
	}
}
