{
	 "smiles": "COC1=C(OC(F)F)C=C(Br)C(CC#N)=C1", 
	 "Tm": 354.15, 
	 "num_atms": 24, 
	 "gaussian": { 
		 "optdone": 1, 
		 "sigma_profile": "yes", 
		 "theory": "DFT", 
		 "functional": "B3LYP", 
		 "basiset": "6-31G**", 
		 "properties": { 
			 "R2extent": 7302.848, 
			 "electric_dipole_moment_norm": 0.839823457639, 
			 "electric_quadrupole_moment_norm": 22.5848293863, 
			 "total_energy": -3362.126531, 
			 "HOMO_LUMO_gap": 0.20778, 
			 "cosmo_polarized_energy": -12.06, 
			 "cosmo_cavitation_energy": 32.83, 
			 "cosmo_dispersion_energy": -22.69, 
			 "cosmo_repulsion_energy": 1.74, 
			 "cosmo_total_nonelectrostatic_energy": 11.89, 
			 "SMD_solvation_energy": 7.85 
		},
		"coords": [
			{
				"x": -1.8193757358,
				"y": -0.5616975099,
				"z": 0.9584447643,
				"element": "C" 
			},
			{
				"x": -1.5923054584,
				"y": 0.0451358915,
				"z": -0.3111917334,
				"element": "O" 
			},
			{
				"x": -0.3413529605,
				"y": 0.4916299316,
				"z": -0.5992405847,
				"element": "C" 
			},
			{
				"x": -0.1560142958,
				"y": 1.0411916061,
				"z": -1.8830087278,
				"element": "C" 
			},
			{
				"x": -1.181889199,
				"y": 1.0329617427,
				"z": -2.8131140626,
				"element": "O" 
			},
			{
				"x": -2.218424805,
				"y": 1.9203109163,
				"z": -2.5911501016,
				"element": "C" 
			},
			{
				"x": -1.7919556777,
				"y": 3.1954405222,
				"z": -2.8063224339,
				"element": "F" 
			},
			{
				"x": -3.1593814452,
				"y": 1.6346372101,
				"z": -3.5064216088,
				"element": "F" 
			},
			{
				"x": 1.0858010623,
				"y": 1.5262369956,
				"z": -2.2648866899,
				"element": "C" 
			},
			{
				"x": 2.1593479093,
				"y": 1.4643911962,
				"z": -1.3772309102,
				"element": "C" 
			},
			{
				"x": 3.8523098452,
				"y": 2.140023165,
				"z": -1.9594369352,
				"element": "Br" 
			},
			{
				"x": 2.0075627188,
				"y": 0.9274171394,
				"z": -0.0957213813,
				"element": "C" 
			},
			{
				"x": 3.1913855538,
				"y": 0.8706961251,
				"z": 0.8599862528,
				"element": "C" 
			},
			{
				"x": 2.8819540439,
				"y": 0.2844821126,
				"z": 2.1648570036,
				"element": "C" 
			},
			{
				"x": 2.6290240232,
				"y": -0.1813492327,
				"z": 3.1972294742,
				"element": "N" 
			},
			{
				"x": 0.7452636987,
				"y": 0.4467081195,
				"z": 0.2774015644,
				"element": "C" 
			},
			{
				"x": -1.6405957109,
				"y": 0.1439135668,
				"z": 1.7784017666,
				"element": "H" 
			},
			{
				"x": -1.1867529325,
				"y": -1.446281548,
				"z": 1.0949899284,
				"element": "H" 
			},
			{
				"x": -2.8674378281,
				"y": -0.8618694473,
				"z": 0.9598338765,
				"element": "H" 
			},
			{
				"x": -2.6360955956,
				"y": 1.8541176631,
				"z": -1.5827910868,
				"element": "H" 
			},
			{
				"x": 1.2007814214,
				"y": 1.9419764914,
				"z": -3.2581024548,
				"element": "H" 
			},
			{
				"x": 3.5920014985,
				"y": 1.8792691271,
				"z": 1.0206286292,
				"element": "H" 
			},
			{
				"x": 4.0100938222,
				"y": 0.2966411013,
				"z": 0.4086299907,
				"element": "H" 
			},
			{
				"x": 0.6240560472,
				"y": 0.0281171141,
				"z": 1.2688154602,
				"element": "H" 
			}
		],
		 "valence_orbital": [ 
			{
				"type": "occ",
				"energy": -0.32743,
				"method": "rhf"
			},
			{
				"type": "occ",
				"energy": -0.30991,
				"method": "rhf"
			},
			{
				"type": "occ",
				"energy": -0.30409,
				"method": "rhf"
			},
			{
				"type": "occ",
				"energy": -0.27265,
				"method": "rhf"
			},
			{
				"type": "occ",
				"energy": -0.23867,
				"method": "rhf"
			},
			{
				"type": "unocc",
				"energy": -0.03089,
				"method": "rhf"
			},
			{
				"type": "unocc",
				"energy": -0.02493,
				"method": "rhf"
			},
			{
				"type": "unocc",
				"energy": -0.01165,
				"method": "rhf"
			},
			{
				"type": "unocc",
				"energy": 0.02389,
				"method": "rhf"
			},
			{
				"type": "unocc",
				"energy": 0.02932,
				"method": "rhf"
			}
		],
		"cosmo_sigma_profile": { 
			"-0.025": 0.0,
			"-0.024": 0.0,
			"-0.023": 0.0,
			"-0.022": 0.0,
			"-0.021": 0.0,
			"-0.02": 0.0,
			"-0.019": 0.0,
			"-0.018": 0.0,
			"-0.017": 0.0,
			"-0.016": 0.0,
			"-0.015": 0.0,
			"-0.014": 0.0,
			"-0.013": 0.0,
			"-0.012": 0.0,
			"-0.011": 0.0,
			"-0.01": 0.89610514209,
			"-0.009": 5.65106180057,
			"-0.008": 6.66238676228,
			"-0.007": 9.22785419012,
			"-0.006": 18.6583713065,
			"-0.005": 14.9417464673,
			"-0.004": 18.1913980147,
			"-0.003": 16.3550448786,
			"-0.002": 13.1715410717,
			"-0.001": 13.0543832166,
			"0.0": 17.452685224,
			"0.001": 24.8819228204,
			"0.002": 22.6115993397,
			"0.003": 23.8983187919,
			"0.004": 26.3753837692,
			"0.005": 7.13926031484,
			"0.006": 4.55674771343,
			"0.007": 5.52275886536,
			"0.008": 5.26279978321,
			"0.009": 3.44519060874,
			"0.01": 2.87292690064,
			"0.011": 2.6231937494,
			"0.012": 2.36471571129,
			"0.013": 1.06859995819,
			"0.014": 0.0,
			"0.015": 0.0,
			"0.016": 0.0,
			"0.017": 0.0,
			"0.018": 0.0,
			"0.019": 0.0,
			"0.02": 0.0,
			"0.021": 0.0,
			"0.022": 0.0,
			"0.023": 0.0,
			"0.024": 0.0,
			"0.025": 0.0
		}
	}
}
