{
	 "smiles": "NC1=NC(=NC=C1)N1CCCC1", 
	 "Tm": 492.15, 
	 "num_atms": 24, 
	 "gaussian": { 
		 "optdone": 1, 
		 "sigma_profile": "yes", 
		 "theory": "DFT", 
		 "functional": "B3LYP", 
		 "basiset": "6-31G**", 
		 "properties": { 
			 "R2extent": 2492.9674, 
			 "electric_dipole_moment_norm": 1.85805147668, 
			 "electric_quadrupole_moment_norm": 11.8507214979, 
			 "total_energy": -531.114525521, 
			 "HOMO_LUMO_gap": 0.19506, 
			 "cosmo_polarized_energy": -11.23, 
			 "cosmo_cavitation_energy": 26.34, 
			 "cosmo_dispersion_energy": -20.04, 
			 "cosmo_repulsion_energy": 1.63, 
			 "cosmo_total_nonelectrostatic_energy": 7.93, 
			 "SMD_solvation_energy": 1.28 
		},
		"coords": [
			{
				"x": 2.4317214176,
				"y": 0.4022690282,
				"z": 3.0003920728,
				"element": "N" 
			},
			{
				"x": 1.79134912,
				"y": -0.0602916411,
				"z": 1.8752588521,
				"element": "C" 
			},
			{
				"x": 0.7608640372,
				"y": 0.6704940949,
				"z": 1.4375478063,
				"element": "N" 
			},
			{
				"x": 0.0964642523,
				"y": 0.1916315939,
				"z": 0.3630692831,
				"element": "C" 
			},
			{
				"x": 0.3798600408,
				"y": -0.9390788803,
				"z": -0.3230437789,
				"element": "N" 
			},
			{
				"x": 1.4247984451,
				"y": -1.6320823098,
				"z": 0.1418155684,
				"element": "C" 
			},
			{
				"x": 2.1813333934,
				"y": -1.2593514043,
				"z": 1.2418418946,
				"element": "C" 
			},
			{
				"x": -0.9603243463,
				"y": 0.9249805976,
				"z": -0.0759910721,
				"element": "N" 
			},
			{
				"x": -1.7573922741,
				"y": 0.5610496311,
				"z": -1.2496324738,
				"element": "C" 
			},
			{
				"x": -2.6024186769,
				"y": 1.8199474338,
				"z": -1.4998479311,
				"element": "C" 
			},
			{
				"x": -2.7755454779,
				"y": 2.4182303443,
				"z": -0.0927266426,
				"element": "C" 
			},
			{
				"x": -1.4173886557,
				"y": 2.1527462541,
				"z": 0.5758022194,
				"element": "C" 
			},
			{
				"x": 2.2300940594,
				"y": 1.3616703199,
				"z": 3.2420687533,
				"element": "H" 
			},
			{
				"x": 3.3757146841,
				"y": 0.091662504,
				"z": 3.1694434205,
				"element": "H" 
			},
			{
				"x": 1.6682203245,
				"y": -2.5445230067,
				"z": -0.4023654123,
				"element": "H" 
			},
			{
				"x": 3.0147137412,
				"y": -1.8549280605,
				"z": 1.5966003548,
				"element": "H" 
			},
			{
				"x": -2.3855417781,
				"y": -0.3153848315,
				"z": -1.0366023088,
				"element": "H" 
			},
			{
				"x": -1.1104983175,
				"y": 0.2944324239,
				"z": -2.0895523009,
				"element": "H" 
			},
			{
				"x": -2.050940541,
				"y": 2.5190740561,
				"z": -2.1393024028,
				"element": "H" 
			},
			{
				"x": -3.5513814916,
				"y": 1.5942032996,
				"z": -1.9940345208,
				"element": "H" 
			},
			{
				"x": -3.035819193,
				"y": 3.4802966514,
				"z": -0.1021177541,
				"element": "H" 
			},
			{
				"x": -3.567081125,
				"y": 1.8850911401,
				"z": 0.4466045564,
				"element": "H" 
			},
			{
				"x": -1.4842932572,
				"y": 2.0155588333,
				"z": 1.6587150038,
				"element": "H" 
			},
			{
				"x": -0.7095083815,
				"y": 2.975401928,
				"z": 0.3984568127,
				"element": "H" 
			}
		],
		 "valence_orbital": [ 
			{
				"type": "occ",
				"energy": -0.28864,
				"method": "rhf"
			},
			{
				"type": "occ",
				"energy": -0.28615,
				"method": "rhf"
			},
			{
				"type": "occ",
				"energy": -0.23284,
				"method": "rhf"
			},
			{
				"type": "occ",
				"energy": -0.22896,
				"method": "rhf"
			},
			{
				"type": "occ",
				"energy": -0.19259,
				"method": "rhf"
			},
			{
				"type": "unocc",
				"energy": 0.00247,
				"method": "rhf"
			},
			{
				"type": "unocc",
				"energy": 0.02604,
				"method": "rhf"
			},
			{
				"type": "unocc",
				"energy": 0.08777,
				"method": "rhf"
			},
			{
				"type": "unocc",
				"energy": 0.09241,
				"method": "rhf"
			},
			{
				"type": "unocc",
				"energy": 0.1221,
				"method": "rhf"
			}
		],
		"cosmo_sigma_profile": { 
			"-0.025": 0.0,
			"-0.024": 0.0,
			"-0.023": 0.0,
			"-0.022": 0.0,
			"-0.021": 0.0,
			"-0.02": 0.0,
			"-0.019": 0.0,
			"-0.018": 0.0,
			"-0.017": 0.0,
			"-0.016": 0.0,
			"-0.015": 0.0,
			"-0.014": 0.403161973635,
			"-0.013": 1.46066768831,
			"-0.012": 2.36760226898,
			"-0.011": 2.65359894374,
			"-0.01": 2.44935401084,
			"-0.009": 2.78960393289,
			"-0.008": 2.19665955327,
			"-0.007": 2.60963826692,
			"-0.006": 4.3728659282,
			"-0.005": 4.3116007994,
			"-0.004": 10.7417055588,
			"-0.003": 23.4478845036,
			"-0.002": 29.6490231666,
			"-0.001": 21.3864309416,
			"0.0": 15.9640454147,
			"0.001": 9.16002518878,
			"0.002": 11.0263354839,
			"0.003": 13.7671384005,
			"0.004": 10.9043078804,
			"0.005": 6.92412066942,
			"0.006": 4.62381457801,
			"0.007": 4.38612352817,
			"0.008": 3.08673782602,
			"0.009": 4.81706019082,
			"0.01": 3.22560008204,
			"0.011": 3.15249510143,
			"0.012": 2.16988182723,
			"0.013": 1.10261627647,
			"0.014": 0.92421333421,
			"0.015": 0.61001678807,
			"0.016": 0.316085554198,
			"0.017": 0.0,
			"0.018": 0.0,
			"0.019": 0.0,
			"0.02": 0.0,
			"0.021": 0.0,
			"0.022": 0.0,
			"0.023": 0.0,
			"0.024": 0.0,
			"0.025": 0.0
		}
	}
}
