{
	 "smiles": "NC1=CC=C(CC(=O)N2CCN(CC2)C2=CC=CC=C2)C=C1", 
	 "Tm": 475.15, 
	 "num_atms": 43, 
	 "gaussian": { 
		 "optdone": 1, 
		 "sigma_profile": "yes", 
		 "theory": "DFT", 
		 "functional": "B3LYP", 
		 "basiset": "6-31G**", 
		 "properties": { 
			 "R2extent": 8988.8457, 
			 "electric_dipole_moment_norm": 3.84435909483, 
			 "electric_quadrupole_moment_norm": 20.8415523057, 
			 "total_energy": -938.061093029, 
			 "HOMO_LUMO_gap": 0.18603, 
			 "cosmo_polarized_energy": -18.48, 
			 "cosmo_cavitation_energy": 44.21, 
			 "cosmo_dispersion_energy": -30.67, 
			 "cosmo_repulsion_energy": 2.32, 
			 "cosmo_total_nonelectrostatic_energy": 15.86, 
			 "SMD_solvation_energy": 5.57 
		},
		"coords": [
			{
				"x": -0.1703204789,
				"y": 1.8330853059,
				"z": 5.4105636331,
				"element": "N" 
			},
			{
				"x": -0.3458290712,
				"y": 1.9792261409,
				"z": 4.0327419804,
				"element": "C" 
			},
			{
				"x": -1.5727642112,
				"y": 1.6567897453,
				"z": 3.4248410241,
				"element": "C" 
			},
			{
				"x": -1.767064816,
				"y": 1.8583559407,
				"z": 2.0626764241,
				"element": "C" 
			},
			{
				"x": -0.7501816999,
				"y": 2.3848166028,
				"z": 1.2517860005,
				"element": "C" 
			},
			{
				"x": -0.9846705123,
				"y": 2.6192109657,
				"z": -0.2323237069,
				"element": "C" 
			},
			{
				"x": -1.5999307572,
				"y": 1.4052677023,
				"z": -0.9362456553,
				"element": "C" 
			},
			{
				"x": -2.8165369,
				"y": 1.351148068,
				"z": -1.1095883152,
				"element": "O" 
			},
			{
				"x": -0.7650896427,
				"y": 0.3909969962,
				"z": -1.3432093526,
				"element": "N" 
			},
			{
				"x": -1.3414481523,
				"y": -0.7916975185,
				"z": -1.9884041212,
				"element": "C" 
			},
			{
				"x": -1.0130615733,
				"y": -2.0453708402,
				"z": -1.1623941536,
				"element": "C" 
			},
			{
				"x": 0.4194485962,
				"y": -2.1939245095,
				"z": -0.9112085817,
				"element": "N" 
			},
			{
				"x": 0.9517032904,
				"y": -1.0024280285,
				"z": -0.2482642577,
				"element": "C" 
			},
			{
				"x": 0.6629074618,
				"y": 0.2781824879,
				"z": -1.0579270324,
				"element": "C" 
			},
			{
				"x": 1.2325940503,
				"y": -2.9264071553,
				"z": -1.7980377623,
				"element": "C" 
			},
			{
				"x": 2.5725367108,
				"y": -3.2116011556,
				"z": -1.4545306071,
				"element": "C" 
			},
			{
				"x": 3.3839921576,
				"y": -3.9711758458,
				"z": -2.2908598083,
				"element": "C" 
			},
			{
				"x": 2.8926978402,
				"y": -4.4902258108,
				"z": -3.4914962445,
				"element": "C" 
			},
			{
				"x": 1.5683003119,
				"y": -4.2282134544,
				"z": -3.8359254139,
				"element": "C" 
			},
			{
				"x": 0.74943907,
				"y": -3.4536499781,
				"z": -3.0128912383,
				"element": "C" 
			},
			{
				"x": 0.4684320625,
				"y": 2.7040628615,
				"z": 1.861498632,
				"element": "C" 
			},
			{
				"x": 0.6746451689,
				"y": 2.5075664188,
				"z": 3.2261061822,
				"element": "C" 
			},
			{
				"x": -0.7711382725,
				"y": 1.1492809113,
				"z": 5.8498325917,
				"element": "H" 
			},
			{
				"x": 0.7890121373,
				"y": 1.7414741784,
				"z": 5.7151142795,
				"element": "H" 
			},
			{
				"x": -2.3797281015,
				"y": 1.2524412871,
				"z": 4.0315358533,
				"element": "H" 
			},
			{
				"x": -2.7228060319,
				"y": 1.6033643577,
				"z": 1.6128564456,
				"element": "H" 
			},
			{
				"x": -0.0557787527,
				"y": 2.9406467837,
				"z": -0.713813544,
				"element": "H" 
			},
			{
				"x": -1.7174504011,
				"y": 3.4184939648,
				"z": -0.3784963632,
				"element": "H" 
			},
			{
				"x": -0.923326436,
				"y": -0.885348171,
				"z": -2.999852297,
				"element": "H" 
			},
			{
				"x": -2.4173662108,
				"y": -0.6314829789,
				"z": -2.0624487174,
				"element": "H" 
			},
			{
				"x": -1.4024728745,
				"y": -2.9463221386,
				"z": -1.6403176887,
				"element": "H" 
			},
			{
				"x": -1.5114044658,
				"y": -1.9553379532,
				"z": -0.1880746012,
				"element": "H" 
			},
			{
				"x": 0.4819703812,
				"y": -0.9079572614,
				"z": 0.739043681,
				"element": "H" 
			},
			{
				"x": 2.0271191444,
				"y": -1.0985105736,
				"z": -0.0979070208,
				"element": "H" 
			},
			{
				"x": 1.2209995104,
				"y": 0.2381748045,
				"z": -2.0047721909,
				"element": "H" 
			},
			{
				"x": 1.006414242,
				"y": 1.1450784006,
				"z": -0.4957987194,
				"element": "H" 
			},
			{
				"x": 2.9724773168,
				"y": -2.8648740515,
				"z": -0.507485541,
				"element": "H" 
			},
			{
				"x": 4.4085854047,
				"y": -4.172808505,
				"z": -1.989603697,
				"element": "H" 
			},
			{
				"x": 3.5274550067,
				"y": -5.0868854468,
				"z": -4.1389249013,
				"element": "H" 
			},
			{
				"x": 1.1602766942,
				"y": -4.6161789278,
				"z": -4.7655364518,
				"element": "H" 
			},
			{
				"x": -0.2651955381,
				"y": -3.2521801978,
				"z": -3.3355232217,
				"element": "H" 
			},
			{
				"x": 1.275162027,
				"y": 3.1229141515,
				"z": 1.2632798909,
				"element": "H" 
			},
			{
				"x": 1.630296315,
				"y": 2.7714024271,
				"z": 3.6729845882,
				"element": "H" 
			}
		],
		 "valence_orbital": [ 
			{
				"type": "occ",
				"energy": -0.24471,
				"method": "rhf"
			},
			{
				"type": "occ",
				"energy": -0.24212,
				"method": "rhf"
			},
			{
				"type": "occ",
				"energy": -0.23899,
				"method": "rhf"
			},
			{
				"type": "occ",
				"energy": -0.20082,
				"method": "rhf"
			},
			{
				"type": "occ",
				"energy": -0.18845,
				"method": "rhf"
			},
			{
				"type": "unocc",
				"energy": -0.00242,
				"method": "rhf"
			},
			{
				"type": "unocc",
				"energy": 0.00282,
				"method": "rhf"
			},
			{
				"type": "unocc",
				"energy": 0.01144,
				"method": "rhf"
			},
			{
				"type": "unocc",
				"energy": 0.01483,
				"method": "rhf"
			},
			{
				"type": "unocc",
				"energy": 0.03396,
				"method": "rhf"
			}
		],
		"cosmo_sigma_profile": { 
			"-0.025": 0.0,
			"-0.024": 0.0,
			"-0.023": 0.0,
			"-0.022": 0.0,
			"-0.021": 0.0,
			"-0.02": 0.0,
			"-0.019": 0.0,
			"-0.018": 0.0,
			"-0.017": 0.0,
			"-0.016": 0.0,
			"-0.015": 0.0,
			"-0.014": 0.0,
			"-0.013": 0.0867647740434,
			"-0.012": 2.02797275453,
			"-0.011": 2.97151857476,
			"-0.01": 3.06367260072,
			"-0.009": 2.68076188639,
			"-0.008": 3.45514635088,
			"-0.007": 7.11388396283,
			"-0.006": 13.538399123,
			"-0.005": 24.4028624452,
			"-0.004": 36.0382903598,
			"-0.003": 38.7580003642,
			"-0.002": 31.2747367158,
			"-0.001": 23.3066480755,
			"0.0": 18.9134350194,
			"0.001": 18.1647481335,
			"0.002": 17.5957595339,
			"0.003": 15.0085710328,
			"0.004": 15.0606696159,
			"0.005": 18.1717339327,
			"0.006": 20.7341154151,
			"0.007": 13.0443379833,
			"0.008": 4.14361379763,
			"0.009": 2.63194756944,
			"0.01": 2.86569621863,
			"0.011": 2.11892699713,
			"0.012": 2.44590892353,
			"0.013": 2.77817103899,
			"0.014": 4.82968477897,
			"0.015": 1.88517186805,
			"0.016": 0.100431307409,
			"0.017": 0.0,
			"0.018": 0.0,
			"0.019": 0.0,
			"0.02": 0.0,
			"0.021": 0.0,
			"0.022": 0.0,
			"0.023": 0.0,
			"0.024": 0.0,
			"0.025": 0.0
		}
	}
}
