{
	 "smiles": "ON=CC1=CC=C(Cl)C=C1", 
	 "Tm": 374.15, 
	 "num_atms": 16, 
	 "gaussian": { 
		 "optdone": 1, 
		 "sigma_profile": "yes", 
		 "theory": "DFT", 
		 "functional": "B3LYP", 
		 "basiset": "6-31G**", 
		 "properties": { 
			 "R2extent": 3220.1048, 
			 "electric_dipole_moment_norm": 1.45767456245, 
			 "electric_quadrupole_moment_norm": 9.01031496897, 
			 "total_energy": -860.469358236, 
			 "HOMO_LUMO_gap": 0.17794, 
			 "cosmo_polarized_energy": -8.06, 
			 "cosmo_cavitation_energy": 22.85, 
			 "cosmo_dispersion_energy": -17.04, 
			 "cosmo_repulsion_energy": 1.39, 
			 "cosmo_total_nonelectrostatic_energy": 7.2, 
			 "SMD_solvation_energy": 4.17 
		},
		"coords": [
			{
				"x": 2.9139510788,
				"y": 0.7514674888,
				"z": -0.1706714988,
				"element": "O" 
			},
			{
				"x": 1.6538896464,
				"y": 0.6618986031,
				"z": 0.4272194807,
				"element": "N" 
			},
			{
				"x": 1.0325776207,
				"y": -0.388013963,
				"z": 0.0331811968,
				"element": "C" 
			},
			{
				"x": -0.3126995019,
				"y": -0.7060768956,
				"z": 0.5191465236,
				"element": "C" 
			},
			{
				"x": -0.9909089163,
				"y": 0.116178193,
				"z": 1.4372751993,
				"element": "C" 
			},
			{
				"x": -2.2664411156,
				"y": -0.2130023629,
				"z": 1.8790621565,
				"element": "C" 
			},
			{
				"x": -2.8781041465,
				"y": -1.3762085148,
				"z": 1.4021977455,
				"element": "C" 
			},
			{
				"x": -4.4903220648,
				"y": -1.7934318315,
				"z": 1.9598326796,
				"element": "Cl" 
			},
			{
				"x": -2.2293730668,
				"y": -2.2088702331,
				"z": 0.492419634,
				"element": "C" 
			},
			{
				"x": -0.950131613,
				"y": -1.8674649761,
				"z": 0.057044999,
				"element": "C" 
			},
			{
				"x": 3.2675902519,
				"y": 1.5692572052,
				"z": 0.2043339121,
				"element": "H" 
			},
			{
				"x": 1.5012757217,
				"y": -1.0710401188,
				"z": -0.6798459135,
				"element": "H" 
			},
			{
				"x": -0.5040696775,
				"y": 1.0154931687,
				"z": 1.7987018202,
				"element": "H" 
			},
			{
				"x": -2.7883015275,
				"y": 0.4216175543,
				"z": 2.5868248411,
				"element": "H" 
			},
			{
				"x": -2.7173993799,
				"y": -3.1075316803,
				"z": 0.1321353642,
				"element": "H" 
			},
			{
				"x": -0.4398333099,
				"y": -2.5134716368,
				"z": -0.6524581402,
				"element": "H" 
			}
		],
		 "valence_orbital": [ 
			{
				"type": "occ",
				"energy": -0.31534,
				"method": "rhf"
			},
			{
				"type": "occ",
				"energy": -0.2872,
				"method": "rhf"
			},
			{
				"type": "occ",
				"energy": -0.28575,
				"method": "rhf"
			},
			{
				"type": "occ",
				"energy": -0.26888,
				"method": "rhf"
			},
			{
				"type": "occ",
				"energy": -0.22924,
				"method": "rhf"
			},
			{
				"type": "unocc",
				"energy": -0.0513,
				"method": "rhf"
			},
			{
				"type": "unocc",
				"energy": -0.01735,
				"method": "rhf"
			},
			{
				"type": "unocc",
				"energy": 0.02724,
				"method": "rhf"
			},
			{
				"type": "unocc",
				"energy": 0.03986,
				"method": "rhf"
			},
			{
				"type": "unocc",
				"energy": 0.07108,
				"method": "rhf"
			}
		],
		"cosmo_sigma_profile": { 
			"-0.025": 0.0,
			"-0.024": 0.0,
			"-0.023": 0.0,
			"-0.022": 0.0,
			"-0.021": 0.0,
			"-0.02": 0.0,
			"-0.019": 0.0,
			"-0.018": 0.121038980762,
			"-0.017": 1.4175334958,
			"-0.016": 0.571448711618,
			"-0.015": 0.948794992101,
			"-0.014": 0.749775688801,
			"-0.013": 0.942321126482,
			"-0.012": 0.866370202655,
			"-0.011": 0.600152359317,
			"-0.01": 0.397409651808,
			"-0.009": 0.759098216106,
			"-0.008": 3.7015404231,
			"-0.007": 9.24286851848,
			"-0.006": 8.892820458,
			"-0.005": 8.28871591812,
			"-0.004": 7.80135789828,
			"-0.003": 7.93859334572,
			"-0.002": 8.52659969724,
			"-0.001": 8.79024639247,
			"0.0": 11.8893309524,
			"0.001": 18.2840959888,
			"0.002": 20.6053171347,
			"0.003": 24.3403629047,
			"0.004": 14.2259872238,
			"0.005": 9.0501076224,
			"0.006": 4.21039667457,
			"0.007": 2.16106783876,
			"0.008": 2.69317145418,
			"0.009": 3.33331697732,
			"0.01": 2.89348844244,
			"0.011": 1.06514065401,
			"0.012": 0.0,
			"0.013": 0.0,
			"0.014": 0.0,
			"0.015": 0.0,
			"0.016": 0.0,
			"0.017": 0.0,
			"0.018": 0.0,
			"0.019": 0.0,
			"0.02": 0.0,
			"0.021": 0.0,
			"0.022": 0.0,
			"0.023": 0.0,
			"0.024": 0.0,
			"0.025": 0.0
		}
	}
}
