{
	 "smiles": "ICI", 
	 "Tm": 278.7, 
	 "num_atms": 5, 
	 "gaussian": { 
		 "optdone": 1, 
		 "sigma_profile": "yes", 
		 "theory": "DFT", 
		 "functional": "B3LYP", 
		 "basiset": "6-31G**", 
		 "properties": { 
			 "R2extent": 624.4667, 
			 "electric_dipole_moment_norm": 1.20395672264, 
			 "electric_quadrupole_moment_norm": 3.27952905613, 
			 "total_energy": -62.0814810126, 
			 "HOMO_LUMO_gap": 0.17975, 
			 "cosmo_polarized_energy": -4.28, 
			 "cosmo_cavitation_energy": 14.82, 
			 "cosmo_dispersion_energy": -14.26, 
			 "cosmo_repulsion_energy": 1.21, 
			 "cosmo_total_nonelectrostatic_energy": 1.76, 
			 "SMD_solvation_energy": 1.01 
		},
		"coords": [
			{
				"x": 0.5751835055,
				"y": -1.7537029903,
				"z": 2.1889423121,
				"element": "I" 
			},
			{
				"x": -1.2247995609,
				"y": -1.0524102913,
				"z": 1.2318736475,
				"element": "C" 
			},
			{
				"x": -1.7317319874,
				"y": -1.9832358568,
				"z": -0.6446909723,
				"element": "I" 
			},
			{
				"x": -2.0460725903,
				"y": -1.2381404521,
				"z": 1.9161953486,
				"element": "H" 
			},
			{
				"x": -1.095579367,
				"y": 0.0078895905,
				"z": 1.0411796641,
				"element": "H" 
			}
		],
		 "valence_orbital": [ 
			{
				"type": "occ",
				"energy": -0.38505,
				"method": "rhf"
			},
			{
				"type": "occ",
				"energy": -0.28361,
				"method": "rhf"
			},
			{
				"type": "occ",
				"energy": -0.27817,
				"method": "rhf"
			},
			{
				"type": "occ",
				"energy": -0.27307,
				"method": "rhf"
			},
			{
				"type": "occ",
				"energy": -0.26589,
				"method": "rhf"
			},
			{
				"type": "unocc",
				"energy": -0.08614,
				"method": "rhf"
			},
			{
				"type": "unocc",
				"energy": -0.03235,
				"method": "rhf"
			},
			{
				"type": "unocc",
				"energy": 0.02986,
				"method": "rhf"
			},
			{
				"type": "unocc",
				"energy": 0.0306,
				"method": "rhf"
			},
			{
				"type": "unocc",
				"energy": 0.03358,
				"method": "rhf"
			}
		],
		"cosmo_sigma_profile": { 
			"-0.025": 0.0,
			"-0.024": 0.0,
			"-0.023": 0.0,
			"-0.022": 0.0,
			"-0.021": 0.0,
			"-0.02": 0.0,
			"-0.019": 0.0,
			"-0.018": 0.0,
			"-0.017": 0.0,
			"-0.016": 0.0,
			"-0.015": 0.0,
			"-0.014": 0.0,
			"-0.013": 0.0,
			"-0.012": 0.0,
			"-0.011": 0.0,
			"-0.01": 1.05027721439,
			"-0.009": 4.25410880021,
			"-0.008": 3.40379745865,
			"-0.007": 5.74944082199,
			"-0.006": 6.18034695105,
			"-0.005": 6.36019661318,
			"-0.004": 6.38307450993,
			"-0.003": 5.91863347675,
			"-0.002": 6.39057664462,
			"-0.001": 5.81625342753,
			"0.0": 6.98660615656,
			"0.001": 7.1408599669,
			"0.002": 10.7254104976,
			"0.003": 12.8547311799,
			"0.004": 19.5971977266,
			"0.005": 19.4807633508,
			"0.006": 0.258138678414,
			"0.007": 0.0,
			"0.008": 0.0,
			"0.009": 0.0,
			"0.01": 0.0,
			"0.011": 0.0,
			"0.012": 0.0,
			"0.013": 0.0,
			"0.014": 0.0,
			"0.015": 0.0,
			"0.016": 0.0,
			"0.017": 0.0,
			"0.018": 0.0,
			"0.019": 0.0,
			"0.02": 0.0,
			"0.021": 0.0,
			"0.022": 0.0,
			"0.023": 0.0,
			"0.024": 0.0,
			"0.025": 0.0
		}
	}
}
