{
	 "smiles": "CC1=NC(C=O)=C(O)C=C1", 
	 "Tm": 338.15, 
	 "num_atms": 17, 
	 "gaussian": { 
		 "optdone": 1, 
		 "sigma_profile": "yes", 
		 "theory": "DFT", 
		 "functional": "B3LYP", 
		 "basiset": "6-31G**", 
		 "properties": { 
			 "R2extent": 1665.6018, 
			 "electric_dipole_moment_norm": 3.73299864586, 
			 "electric_quadrupole_moment_norm": 16.038051684, 
			 "total_energy": -476.140892753, 
			 "HOMO_LUMO_gap": 0.17143, 
			 "cosmo_polarized_energy": -16.13, 
			 "cosmo_cavitation_energy": 21.64, 
			 "cosmo_dispersion_energy": -16.04, 
			 "cosmo_repulsion_energy": 1.31, 
			 "cosmo_total_nonelectrostatic_energy": 6.91, 
			 "SMD_solvation_energy": 4.12 
		},
		"coords": [
			{
				"x": 0.3143143475,
				"y": -0.6876910756,
				"z": -3.3454123944,
				"element": "C" 
			},
			{
				"x": 0.2906151485,
				"y": -0.4921490164,
				"z": -1.8493690391,
				"element": "C" 
			},
			{
				"x": -0.404148587,
				"y": -1.3598225474,
				"z": -1.1247655185,
				"element": "N" 
			},
			{
				"x": -0.4575451632,
				"y": -1.2284182099,
				"z": 0.2177141748,
				"element": "C" 
			},
			{
				"x": -1.2567057974,
				"y": -2.24261574,
				"z": 0.9496849789,
				"element": "C" 
			},
			{
				"x": -1.8570799034,
				"y": -3.1658606688,
				"z": 0.4443091237,
				"element": "O" 
			},
			{
				"x": 0.2080074761,
				"y": -0.1861393901,
				"z": 0.8937108822,
				"element": "C" 
			},
			{
				"x": 0.2053888324,
				"y": 0.0172943922,
				"z": 2.2383752898,
				"element": "O" 
			},
			{
				"x": 0.944016771,
				"y": 0.7333701998,
				"z": 0.1291544849,
				"element": "C" 
			},
			{
				"x": 0.9852550549,
				"y": 0.5801854605,
				"z": -1.2421506984,
				"element": "C" 
			},
			{
				"x": 1.3380858256,
				"y": -0.8227584926,
				"z": -3.71303713,
				"element": "H" 
			},
			{
				"x": -0.2717078538,
				"y": -1.5698617436,
				"z": -3.6064064374,
				"element": "H" 
			},
			{
				"x": -0.1053360088,
				"y": 0.1805754186,
				"z": -3.8666341426,
				"element": "H" 
			},
			{
				"x": -1.2884741549,
				"y": -2.1174284028,
				"z": 2.0616413444,
				"element": "H" 
			},
			{
				"x": -0.3222776415,
				"y": -0.6563736449,
				"z": 2.6859725753,
				"element": "H" 
			},
			{
				"x": 1.4615137754,
				"y": 1.5408102899,
				"z": 0.6370013608,
				"element": "H" 
			},
			{
				"x": 1.5482778787,
				"y": 1.2791831711,
				"z": -1.8542888544,
				"element": "H" 
			}
		],
		 "valence_orbital": [ 
			{
				"type": "occ",
				"energy": -0.35632,
				"method": "rhf"
			},
			{
				"type": "occ",
				"energy": -0.29175,
				"method": "rhf"
			},
			{
				"type": "occ",
				"energy": -0.26536,
				"method": "rhf"
			},
			{
				"type": "occ",
				"energy": -0.25439,
				"method": "rhf"
			},
			{
				"type": "occ",
				"energy": -0.24461,
				"method": "rhf"
			},
			{
				"type": "unocc",
				"energy": -0.07318,
				"method": "rhf"
			},
			{
				"type": "unocc",
				"energy": -0.01657,
				"method": "rhf"
			},
			{
				"type": "unocc",
				"energy": 0.02836,
				"method": "rhf"
			},
			{
				"type": "unocc",
				"energy": 0.04151,
				"method": "rhf"
			},
			{
				"type": "unocc",
				"energy": 0.09742,
				"method": "rhf"
			}
		],
		"cosmo_sigma_profile": { 
			"-0.025": 0.0,
			"-0.024": 0.0,
			"-0.023": 0.0,
			"-0.022": 0.0,
			"-0.021": 0.0,
			"-0.02": 0.0,
			"-0.019": 0.22631175576,
			"-0.018": 1.30961268099,
			"-0.017": 1.24665542258,
			"-0.016": 1.3231466941,
			"-0.015": 0.899315171689,
			"-0.014": 0.921362106448,
			"-0.013": 0.746174407922,
			"-0.012": 1.62236601234,
			"-0.011": 1.46250494932,
			"-0.01": 1.40665221936,
			"-0.009": 0.880933507183,
			"-0.008": 2.77708709292,
			"-0.007": 6.58742243258,
			"-0.006": 6.92420998693,
			"-0.005": 8.82717938182,
			"-0.004": 12.3703108495,
			"-0.003": 10.2717529714,
			"-0.002": 12.3004932842,
			"-0.001": 13.9761059243,
			"0.0": 18.3217806379,
			"0.001": 13.4864185721,
			"0.002": 7.78443844874,
			"0.003": 4.72038440802,
			"0.004": 3.3131854112,
			"0.005": 4.03132659454,
			"0.006": 3.54479059484,
			"0.007": 4.07490118587,
			"0.008": 3.88907149504,
			"0.009": 4.49260460527,
			"0.01": 4.3678591906,
			"0.011": 4.54134951963,
			"0.012": 3.61366960928,
			"0.013": 2.12603836895,
			"0.014": 1.03902708861,
			"0.015": 1.3901556406,
			"0.016": 0.843636507493,
			"0.017": 0.916367021198,
			"0.018": 0.446931471047,
			"0.019": 0.00859396173661,
			"0.02": 0.0,
			"0.021": 0.0,
			"0.022": 0.0,
			"0.023": 0.0,
			"0.024": 0.0,
			"0.025": 0.0
		}
	}
}
