{
	 "smiles": "CN1C=C(C(N)=O)C(=N1)C(F)F", 
	 "Tm": 488.15, 
	 "num_atms": 19, 
	 "gaussian": { 
		 "optdone": 1, 
		 "sigma_profile": "yes", 
		 "theory": "DFT", 
		 "functional": "B3LYP", 
		 "basiset": "6-31G**", 
		 "properties": { 
			 "R2extent": 2175.0643, 
			 "electric_dipole_moment_norm": 7.0707332781, 
			 "electric_quadrupole_moment_norm": 6.79067979955, 
			 "total_energy": -672.002663954, 
			 "HOMO_LUMO_gap": 0.23322, 
			 "cosmo_polarized_energy": -19.72, 
			 "cosmo_cavitation_energy": 24.81, 
			 "cosmo_dispersion_energy": -17.72, 
			 "cosmo_repulsion_energy": 1.41, 
			 "cosmo_total_nonelectrostatic_energy": 8.49, 
			 "SMD_solvation_energy": 5.42 
		},
		"coords": [
			{
				"x": -2.6053748039,
				"y": 1.8874217915,
				"z": -0.3204369192,
				"element": "C" 
			},
			{
				"x": -1.5137913972,
				"y": 0.9321676406,
				"z": -0.2356797476,
				"element": "N" 
			},
			{
				"x": -1.3863928767,
				"y": -0.1211017979,
				"z": 0.6052766655,
				"element": "C" 
			},
			{
				"x": -0.2056388037,
				"y": -0.7683023825,
				"z": 0.2642668948,
				"element": "C" 
			},
			{
				"x": 0.3912098007,
				"y": -1.9945719338,
				"z": 0.8386074906,
				"element": "C" 
			},
			{
				"x": -0.0948448459,
				"y": -2.3784793987,
				"z": 2.0693782023,
				"element": "N" 
			},
			{
				"x": 1.2361340341,
				"y": -2.6548326953,
				"z": 0.2428177437,
				"element": "O" 
			},
			{
				"x": 0.3002380981,
				"y": -0.0064567131,
				"z": -0.8244876378,
				"element": "C" 
			},
			{
				"x": -0.4925979879,
				"y": 1.0201366375,
				"z": -1.1141339502,
				"element": "N" 
			},
			{
				"x": 1.5932252057,
				"y": -0.2156788332,
				"z": -1.5607144654,
				"element": "C" 
			},
			{
				"x": 1.5260568808,
				"y": 0.3509174965,
				"z": -2.798784211,
				"element": "F" 
			},
			{
				"x": 2.6113771929,
				"y": 0.4036718159,
				"z": -0.8769721866,
				"element": "F" 
			},
			{
				"x": -2.2035807005,
				"y": 2.9021240944,
				"z": -0.2892353645,
				"element": "H" 
			},
			{
				"x": -3.2776861308,
				"y": 1.734297004,
				"z": 0.5250566622,
				"element": "H" 
			},
			{
				"x": -3.1561020315,
				"y": 1.7504616732,
				"z": -1.2547342494,
				"element": "H" 
			},
			{
				"x": -2.1422762354,
				"y": -0.3512894625,
				"z": 1.3424422906,
				"element": "H" 
			},
			{
				"x": 0.403390285,
				"y": -3.1435157012,
				"z": 2.5028135073,
				"element": "H" 
			},
			{
				"x": -0.477233058,
				"y": -1.683530814,
				"z": 2.6926296563,
				"element": "H" 
			},
			{
				"x": 1.8425873742,
				"y": -1.2744384215,
				"z": -1.6532103816,
				"element": "H" 
			}
		],
		 "valence_orbital": [ 
			{
				"type": "occ",
				"energy": -0.30441,
				"method": "rhf"
			},
			{
				"type": "occ",
				"energy": -0.2807,
				"method": "rhf"
			},
			{
				"type": "occ",
				"energy": -0.27062,
				"method": "rhf"
			},
			{
				"type": "occ",
				"energy": -0.26405,
				"method": "rhf"
			},
			{
				"type": "occ",
				"energy": -0.2573,
				"method": "rhf"
			},
			{
				"type": "unocc",
				"energy": -0.02408,
				"method": "rhf"
			},
			{
				"type": "unocc",
				"energy": -0.00147,
				"method": "rhf"
			},
			{
				"type": "unocc",
				"energy": 0.06619,
				"method": "rhf"
			},
			{
				"type": "unocc",
				"energy": 0.08015,
				"method": "rhf"
			},
			{
				"type": "unocc",
				"energy": 0.09841,
				"method": "rhf"
			}
		],
		"cosmo_sigma_profile": { 
			"-0.025": 0.0,
			"-0.024": 0.0,
			"-0.023": 0.0,
			"-0.022": 0.0,
			"-0.021": 0.0,
			"-0.02": 0.0,
			"-0.019": 0.0,
			"-0.018": 0.0,
			"-0.017": 0.0,
			"-0.016": 0.0,
			"-0.015": 0.150075523961,
			"-0.014": 1.62488873988,
			"-0.013": 3.2637000686,
			"-0.012": 2.34080539158,
			"-0.011": 4.31203345693,
			"-0.01": 5.18161096604,
			"-0.009": 4.73433521571,
			"-0.008": 4.12291182242,
			"-0.007": 7.72302387829,
			"-0.006": 10.2668329032,
			"-0.005": 10.2105245116,
			"-0.004": 13.3326570427,
			"-0.003": 9.00382475302,
			"-0.002": 7.23931992902,
			"-0.001": 6.46373281879,
			"0.0": 10.3145462068,
			"0.001": 9.98533290467,
			"0.002": 9.11692523466,
			"0.003": 7.69060546303,
			"0.004": 18.4370978327,
			"0.005": 20.4525219683,
			"0.006": 5.41461986465,
			"0.007": 4.05465708982,
			"0.008": 2.71903174826,
			"0.009": 2.49791149384,
			"0.01": 3.63685260986,
			"0.011": 2.89832999456,
			"0.012": 3.14973345285,
			"0.013": 4.34498326128,
			"0.014": 2.63433199849,
			"0.015": 0.251268073451,
			"0.016": 0.0,
			"0.017": 0.0,
			"0.018": 0.0,
			"0.019": 0.0,
			"0.02": 0.0,
			"0.021": 0.0,
			"0.022": 0.0,
			"0.023": 0.0,
			"0.024": 0.0,
			"0.025": 0.0
		}
	}
}
