{
	 "smiles": "[O-][N+](=O)C1=CC2=C(OCOC2)C(CCl)=C1", 
	 "Tm": 368.15, 
	 "num_atms": 23, 
	 "gaussian": { 
		 "optdone": 1, 
		 "sigma_profile": "yes", 
		 "theory": "DFT", 
		 "functional": "B3LYP", 
		 "basiset": "6-31G**", 
		 "properties": { 
			 "R2extent": 3893.4173, 
			 "electric_dipole_moment_norm": 4.44845276248, 
			 "electric_quadrupole_moment_norm": 13.979162736, 
			 "total_energy": -1163.5052284, 
			 "HOMO_LUMO_gap": 0.16831, 
			 "cosmo_polarized_energy": -13.71, 
			 "cosmo_cavitation_energy": 29.3, 
			 "cosmo_dispersion_energy": -21.57, 
			 "cosmo_repulsion_energy": 1.7, 
			 "cosmo_total_nonelectrostatic_energy": 9.43, 
			 "SMD_solvation_energy": 7.28 
		},
		"coords": [
			{
				"x": 1.151675354,
				"y": -3.1368400277,
				"z": 1.971577652,
				"element": "O" 
			},
			{
				"x": 0.0984146673,
				"y": -2.5218614778,
				"z": 1.7966502411,
				"element": "N" 
			},
			{
				"x": -0.9721477514,
				"y": -2.7978013762,
				"z": 2.3390583814,
				"element": "O" 
			},
			{
				"x": 0.1220284297,
				"y": -1.3810748761,
				"z": 0.8785574545,
				"element": "C" 
			},
			{
				"x": 1.3239724482,
				"y": -1.0266479667,
				"z": 0.2707577055,
				"element": "C" 
			},
			{
				"x": 1.3569152571,
				"y": 0.058995799,
				"z": -0.5978538087,
				"element": "C" 
			},
			{
				"x": 0.1687737397,
				"y": 0.7698562737,
				"z": -0.8485951155,
				"element": "C" 
			},
			{
				"x": 0.1453081846,
				"y": 1.8327785859,
				"z": -1.6914709308,
				"element": "O" 
			},
			{
				"x": 1.3221420939,
				"y": 1.9875921804,
				"z": -2.4985972832,
				"element": "C" 
			},
			{
				"x": 2.4895639086,
				"y": 1.8552118215,
				"z": -1.757428841,
				"element": "O" 
			},
			{
				"x": 2.6350382509,
				"y": 0.5239230553,
				"z": -1.2618918912,
				"element": "C" 
			},
			{
				"x": -1.044685891,
				"y": 0.419186106,
				"z": -0.2187367887,
				"element": "C" 
			},
			{
				"x": -2.2903583589,
				"y": 1.2021103936,
				"z": -0.4951891972,
				"element": "C" 
			},
			{
				"x": -3.1237073753,
				"y": 0.6524516778,
				"z": -2.0342585352,
				"element": "Cl" 
			},
			{
				"x": -1.0547756381,
				"y": -0.6700361939,
				"z": 0.647206519,
				"element": "C" 
			},
			{
				"x": 2.2175926801,
				"y": -1.5976509406,
				"z": 0.4965940582,
				"element": "H" 
			},
			{
				"x": 1.2708258649,
				"y": 1.2468229627,
				"z": -3.3121066028,
				"element": "H" 
			},
			{
				"x": 1.2813435319,
				"y": 3.0025275201,
				"z": -2.8925698143,
				"element": "H" 
			},
			{
				"x": 2.9242606148,
				"y": -0.1540866042,
				"z": -2.0808795793,
				"element": "H" 
			},
			{
				"x": 3.4595140386,
				"y": 0.5550693963,
				"z": -0.5448656166,
				"element": "H" 
			},
			{
				"x": -3.0239982239,
				"y": 1.0740865026,
				"z": 0.2997025176,
				"element": "H" 
			},
			{
				"x": -2.0801906442,
				"y": 2.2600139255,
				"z": -0.6430361709,
				"element": "H" 
			},
			{
				"x": -1.9661051818,
				"y": -0.9807267372,
				"z": 1.1440756461,
				"element": "H" 
			}
		],
		 "valence_orbital": [ 
			{
				"type": "occ",
				"energy": -0.30345,
				"method": "rhf"
			},
			{
				"type": "occ",
				"energy": -0.29953,
				"method": "rhf"
			},
			{
				"type": "occ",
				"energy": -0.29171,
				"method": "rhf"
			},
			{
				"type": "occ",
				"energy": -0.27901,
				"method": "rhf"
			},
			{
				"type": "occ",
				"energy": -0.25757,
				"method": "rhf"
			},
			{
				"type": "unocc",
				"energy": -0.08926,
				"method": "rhf"
			},
			{
				"type": "unocc",
				"energy": -0.05077,
				"method": "rhf"
			},
			{
				"type": "unocc",
				"energy": -0.00716,
				"method": "rhf"
			},
			{
				"type": "unocc",
				"energy": 0.03349,
				"method": "rhf"
			},
			{
				"type": "unocc",
				"energy": 0.07758,
				"method": "rhf"
			}
		],
		"cosmo_sigma_profile": { 
			"-0.025": 0.0,
			"-0.024": 0.0,
			"-0.023": 0.0,
			"-0.022": 0.0,
			"-0.021": 0.0,
			"-0.02": 0.0,
			"-0.019": 0.0,
			"-0.018": 0.0,
			"-0.017": 0.0,
			"-0.016": 0.0,
			"-0.015": 0.0,
			"-0.014": 0.0,
			"-0.013": 0.0,
			"-0.012": 0.0,
			"-0.011": 0.0,
			"-0.01": 0.251391851774,
			"-0.009": 3.45403472016,
			"-0.008": 11.6306562646,
			"-0.007": 16.5807484544,
			"-0.006": 16.9299069971,
			"-0.005": 14.6108281645,
			"-0.004": 13.4480339365,
			"-0.003": 9.06754784876,
			"-0.002": 11.9504999411,
			"-0.001": 16.5212051663,
			"0.0": 18.8451484988,
			"0.001": 11.6193054007,
			"0.002": 9.82481269376,
			"0.003": 9.3411762183,
			"0.004": 9.79890593186,
			"0.005": 11.9405159217,
			"0.006": 15.3519296414,
			"0.007": 12.3350764013,
			"0.008": 10.1477371053,
			"0.009": 5.83094793581,
			"0.01": 4.90928345705,
			"0.011": 1.68127487222,
			"0.012": 0.00778289276017,
			"0.013": 0.0,
			"0.014": 0.0,
			"0.015": 0.0,
			"0.016": 0.0,
			"0.017": 0.0,
			"0.018": 0.0,
			"0.019": 0.0,
			"0.02": 0.0,
			"0.021": 0.0,
			"0.022": 0.0,
			"0.023": 0.0,
			"0.024": 0.0,
			"0.025": 0.0
		}
	}
}
