{
	 "smiles": "CC(C)C(C)(CC(=O)N1CCOCC1)C(O)=O", 
	 "Tm": 408.15, 
	 "num_atms": 38, 
	 "gaussian": { 
		 "optdone": 1, 
		 "sigma_profile": "yes", 
		 "theory": "DFT", 
		 "functional": "B3LYP", 
		 "basiset": "6-31G**", 
		 "properties": { 
			 "R2extent": 5120.3103, 
			 "electric_dipole_moment_norm": 2.03223703342, 
			 "electric_quadrupole_moment_norm": 14.6148359823, 
			 "total_energy": -825.598028095, 
			 "HOMO_LUMO_gap": 0.24568, 
			 "cosmo_polarized_energy": -17.66, 
			 "cosmo_cavitation_energy": 36.62, 
			 "cosmo_dispersion_energy": -25.9, 
			 "cosmo_repulsion_energy": 1.99, 
			 "cosmo_total_nonelectrostatic_energy": 12.71, 
			 "SMD_solvation_energy": 6.89 
		},
		"coords": [
			{
				"x": 0.5107656705,
				"y": 3.8297494971,
				"z": 1.4618086807,
				"element": "C" 
			},
			{
				"x": 0.5601564596,
				"y": 2.3240944933,
				"z": 1.1405547942,
				"element": "C" 
			},
			{
				"x": 0.3159925406,
				"y": 1.5207479721,
				"z": 2.4295454242,
				"element": "C" 
			},
			{
				"x": -0.3925427661,
				"y": 1.9033124449,
				"z": -0.0494234079,
				"element": "C" 
			},
			{
				"x": 0.08135724,
				"y": 2.5392925555,
				"z": -1.3765190215,
				"element": "C" 
			},
			{
				"x": -0.4688041329,
				"y": 0.3629443476,
				"z": -0.2245406604,
				"element": "C" 
			},
			{
				"x": 0.8554408086,
				"y": -0.3681513669,
				"z": -0.4472463934,
				"element": "C" 
			},
			{
				"x": 1.9255572622,
				"y": 0.2202828108,
				"z": -0.6108712766,
				"element": "O" 
			},
			{
				"x": 0.799230701,
				"y": -1.742566478,
				"z": -0.4606620413,
				"element": "N" 
			},
			{
				"x": -0.405588685,
				"y": -2.569770038,
				"z": -0.3983573979,
				"element": "C" 
			},
			{
				"x": -0.1842118714,
				"y": -3.7280095666,
				"z": 0.5802880174,
				"element": "C" 
			},
			{
				"x": 0.9704866093,
				"y": -4.4789742732,
				"z": 0.2418200136,
				"element": "O" 
			},
			{
				"x": 2.1360990664,
				"y": -3.661686358,
				"z": 0.2580555112,
				"element": "C" 
			},
			{
				"x": 2.0188173484,
				"y": -2.5072999373,
				"z": -0.7350124861,
				"element": "C" 
			},
			{
				"x": -1.8324368429,
				"y": 2.3388960043,
				"z": 0.3136676165,
				"element": "C" 
			},
			{
				"x": -2.2322176993,
				"y": 3.5697155089,
				"z": -0.0939917545,
				"element": "O" 
			},
			{
				"x": -2.5956786353,
				"y": 1.6595185096,
				"z": 0.962052663,
				"element": "O" 
			},
			{
				"x": 1.2616989144,
				"y": 4.0640846678,
				"z": 2.2227446736,
				"element": "H" 
			},
			{
				"x": 0.7365681862,
				"y": 4.4589736373,
				"z": 0.59477563,
				"element": "H" 
			},
			{
				"x": -0.4627155058,
				"y": 4.1357286604,
				"z": 1.8602629193,
				"element": "H" 
			},
			{
				"x": 1.5655806258,
				"y": 2.0859692899,
				"z": 0.7821487453,
				"element": "H" 
			},
			{
				"x": 0.9843820327,
				"y": 1.8793899318,
				"z": 3.2190513962,
				"element": "H" 
			},
			{
				"x": -0.7137704841,
				"y": 1.6264752258,
				"z": 2.7849153161,
				"element": "H" 
			},
			{
				"x": 0.5209771635,
				"y": 0.4546052397,
				"z": 2.2977922029,
				"element": "H" 
			},
			{
				"x": 0.2160854488,
				"y": 3.6255662987,
				"z": -1.3151683649,
				"element": "H" 
			},
			{
				"x": -0.622284933,
				"y": 2.3305670573,
				"z": -2.1901476117,
				"element": "H" 
			},
			{
				"x": 1.051298623,
				"y": 2.1168143287,
				"z": -1.6420601245,
				"element": "H" 
			},
			{
				"x": -1.1196069152,
				"y": 0.1489686732,
				"z": -1.083498399,
				"element": "H" 
			},
			{
				"x": -0.9910951086,
				"y": -0.050967669,
				"z": 0.6391720634,
				"element": "H" 
			},
			{
				"x": -1.2660747915,
				"y": -1.9805355627,
				"z": -0.083043882,
				"element": "H" 
			},
			{
				"x": -0.6211670391,
				"y": -2.980260924,
				"z": -1.3961937986,
				"element": "H" 
			},
			{
				"x": -0.0958751784,
				"y": -3.3281139492,
				"z": 1.6042006719,
				"element": "H" 
			},
			{
				"x": -1.0313311118,
				"y": -4.4192866789,
				"z": 0.546987308,
				"element": "H" 
			},
			{
				"x": 2.3052886712,
				"y": -3.2629213475,
				"z": 1.2716509302,
				"element": "H" 
			},
			{
				"x": 2.9753837142,
				"y": -4.3112075587,
				"z": -0.0062117624,
				"element": "H" 
			},
			{
				"x": 1.9765097962,
				"y": -2.9090710858,
				"z": -1.7577567358,
				"element": "H" 
			},
			{
				"x": 2.8668130099,
				"y": -1.8259536806,
				"z": -0.6631115131,
				"element": "H" 
			},
			{
				"x": -1.5295881923,
				"y": 3.9936793194,
				"z": -0.605877946,
				"element": "H" 
			}
		],
		 "valence_orbital": [ 
			{
				"type": "occ",
				"energy": -0.30896,
				"method": "rhf"
			},
			{
				"type": "occ",
				"energy": -0.27778,
				"method": "rhf"
			},
			{
				"type": "occ",
				"energy": -0.26435,
				"method": "rhf"
			},
			{
				"type": "occ",
				"energy": -0.25336,
				"method": "rhf"
			},
			{
				"type": "occ",
				"energy": -0.2393,
				"method": "rhf"
			},
			{
				"type": "unocc",
				"energy": 0.00638,
				"method": "rhf"
			},
			{
				"type": "unocc",
				"energy": 0.01973,
				"method": "rhf"
			},
			{
				"type": "unocc",
				"energy": 0.05365,
				"method": "rhf"
			},
			{
				"type": "unocc",
				"energy": 0.08409,
				"method": "rhf"
			},
			{
				"type": "unocc",
				"energy": 0.09898,
				"method": "rhf"
			}
		],
		"cosmo_sigma_profile": { 
			"-0.025": 0.0,
			"-0.024": 0.0,
			"-0.023": 0.0,
			"-0.022": 0.0,
			"-0.021": 0.0,
			"-0.02": 0.0,
			"-0.019": 0.0,
			"-0.018": 0.0,
			"-0.017": 0.194305012167,
			"-0.016": 0.731575652451,
			"-0.015": 0.698056783185,
			"-0.014": 1.15576338601,
			"-0.013": 1.09655267276,
			"-0.012": 0.782819950097,
			"-0.011": 0.644865646072,
			"-0.01": 0.629545954336,
			"-0.009": 1.26607292838,
			"-0.008": 1.37862736171,
			"-0.007": 4.9252493848,
			"-0.006": 12.3184440164,
			"-0.005": 21.4230121786,
			"-0.004": 31.4886955287,
			"-0.003": 31.1246422589,
			"-0.002": 25.1949050615,
			"-0.001": 25.3887707359,
			"0.0": 25.4153731019,
			"0.001": 20.6785260777,
			"0.002": 9.72925130282,
			"0.003": 5.84446298039,
			"0.004": 6.09929985869,
			"0.005": 5.46896331668,
			"0.006": 5.80069198419,
			"0.007": 5.09070476555,
			"0.008": 5.40445932201,
			"0.009": 5.46924777433,
			"0.01": 6.14738639993,
			"0.011": 6.95538161591,
			"0.012": 7.96702272923,
			"0.013": 6.07228189218,
			"0.014": 1.65845456439,
			"0.015": 0.0,
			"0.016": 0.0,
			"0.017": 0.0,
			"0.018": 0.0,
			"0.019": 0.0,
			"0.02": 0.0,
			"0.021": 0.0,
			"0.022": 0.0,
			"0.023": 0.0,
			"0.024": 0.0,
			"0.025": 0.0
		}
	}
}
