{
	 "smiles": "CCOC(=O)C(=NNC1=C(C=CC=C1)[N+]([O-])=O)C(=O)OCC", 
	 "Tm": 469.15, 
	 "num_atms": 37, 
	 "gaussian": { 
		 "optdone": 1, 
		 "sigma_profile": "yes", 
		 "theory": "DFT", 
		 "functional": "B3LYP", 
		 "basiset": "6-31G**", 
		 "properties": { 
			 "R2extent": 8197.8812, 
			 "electric_dipole_moment_norm": 4.06851395229, 
			 "electric_quadrupole_moment_norm": 17.5198233613, 
			 "total_energy": -1119.90986318, 
			 "HOMO_LUMO_gap": 0.13247, 
			 "cosmo_polarized_energy": -16.44, 
			 "cosmo_cavitation_energy": 42.78, 
			 "cosmo_dispersion_energy": -29.54, 
			 "cosmo_repulsion_energy": 2.28, 
			 "cosmo_total_nonelectrostatic_energy": 15.53, 
			 "SMD_solvation_energy": 10.82 
		},
		"coords": [
			{
				"x": 1.2891591939,
				"y": -1.5397607426,
				"z": -3.7801101349,
				"element": "C" 
			},
			{
				"x": 0.1888754087,
				"y": -2.3662442917,
				"z": -3.1347912169,
				"element": "C" 
			},
			{
				"x": -0.2701905331,
				"y": -1.7566058608,
				"z": -1.8938692223,
				"element": "O" 
			},
			{
				"x": -1.2343332703,
				"y": -0.8086588073,
				"z": -1.995834887,
				"element": "C" 
			},
			{
				"x": -1.7414913712,
				"y": -0.4595024627,
				"z": -3.0364553994,
				"element": "O" 
			},
			{
				"x": -1.5632316719,
				"y": -0.2046276735,
				"z": -0.6592115573,
				"element": "C" 
			},
			{
				"x": -0.7834497988,
				"y": -0.0758328098,
				"z": 0.3688179208,
				"element": "N" 
			},
			{
				"x": 0.447938285,
				"y": -0.57232705,
				"z": 0.4013394184,
				"element": "N" 
			},
			{
				"x": 1.2371908069,
				"y": -0.349303958,
				"z": 1.5200596802,
				"element": "C" 
			},
			{
				"x": 2.5591989888,
				"y": -0.8549857705,
				"z": 1.6360529778,
				"element": "C" 
			},
			{
				"x": 3.3291677604,
				"y": -0.6030408121,
				"z": 2.7820193858,
				"element": "C" 
			},
			{
				"x": 2.8142949787,
				"y": 0.1451130103,
				"z": 3.8247896871,
				"element": "C" 
			},
			{
				"x": 1.510400592,
				"y": 0.6532101964,
				"z": 3.7203060139,
				"element": "C" 
			},
			{
				"x": 0.7386388041,
				"y": 0.4154836684,
				"z": 2.595734313,
				"element": "C" 
			},
			{
				"x": 3.1926527654,
				"y": -1.6491317654,
				"z": 0.5927064433,
				"element": "N" 
			},
			{
				"x": 2.5376494241,
				"y": -1.9247660193,
				"z": -0.4294649036,
				"element": "O" 
			},
			{
				"x": 4.3524264778,
				"y": -2.0193088146,
				"z": 0.7589585324,
				"element": "O" 
			},
			{
				"x": -2.9578292652,
				"y": 0.3314837033,
				"z": -0.510428268,
				"element": "C" 
			},
			{
				"x": -3.9085505018,
				"y": -0.1337409639,
				"z": -1.1029301544,
				"element": "O" 
			},
			{
				"x": -3.0254721917,
				"y": 1.3448141066,
				"z": 0.3744769833,
				"element": "O" 
			},
			{
				"x": -4.3500108065,
				"y": 1.872433248,
				"z": 0.6329805158,
				"element": "C" 
			},
			{
				"x": -4.7363722821,
				"y": 2.9237632588,
				"z": -0.3963720018,
				"element": "C" 
			},
			{
				"x": 1.6499640045,
				"y": -2.0514983348,
				"z": -4.6784983146,
				"element": "H" 
			},
			{
				"x": 0.912145375,
				"y": -0.5576869666,
				"z": -4.0767264966,
				"element": "H" 
			},
			{
				"x": 2.1314695666,
				"y": -1.4144550828,
				"z": -3.0944120765,
				"element": "H" 
			},
			{
				"x": 0.5502954413,
				"y": -3.3488003535,
				"z": -2.8263267903,
				"element": "H" 
			},
			{
				"x": -0.6725592588,
				"y": -2.4795653334,
				"z": -3.7957497967,
				"element": "H" 
			},
			{
				"x": 0.8179193163,
				"y": -1.1601869748,
				"z": -0.3465045354,
				"element": "H" 
			},
			{
				"x": 4.330136527,
				"y": -1.0130429982,
				"z": 2.8152718442,
				"element": "H" 
			},
			{
				"x": 3.4144680618,
				"y": 0.3347752881,
				"z": 4.7079058714,
				"element": "H" 
			},
			{
				"x": 1.0927156499,
				"y": 1.2446230094,
				"z": 4.5297507577,
				"element": "H" 
			},
			{
				"x": -0.265862854,
				"y": 0.8087892815,
				"z": 2.5086881941,
				"element": "H" 
			},
			{
				"x": -4.2777293128,
				"y": 2.2997972077,
				"z": 1.6360377921,
				"element": "H" 
			},
			{
				"x": -5.0649163491,
				"y": 1.0461656504,
				"z": 0.6397548688,
				"element": "H" 
			},
			{
				"x": -3.9946376209,
				"y": 3.7271626144,
				"z": -0.4296337291,
				"element": "H" 
			},
			{
				"x": -4.8191602449,
				"y": 2.4758736643,
				"z": -1.3893437853,
				"element": "H" 
			},
			{
				"x": -5.7056100951,
				"y": 3.3606859386,
				"z": -0.13348793,
				"element": "H" 
			}
		],
		 "valence_orbital": [ 
			{
				"type": "occ",
				"energy": -0.29529,
				"method": "rhf"
			},
			{
				"type": "occ",
				"energy": -0.28759,
				"method": "rhf"
			},
			{
				"type": "occ",
				"energy": -0.2867,
				"method": "rhf"
			},
			{
				"type": "occ",
				"energy": -0.26328,
				"method": "rhf"
			},
			{
				"type": "occ",
				"energy": -0.23473,
				"method": "rhf"
			},
			{
				"type": "unocc",
				"energy": -0.10226,
				"method": "rhf"
			},
			{
				"type": "unocc",
				"energy": -0.07207,
				"method": "rhf"
			},
			{
				"type": "unocc",
				"energy": -0.01208,
				"method": "rhf"
			},
			{
				"type": "unocc",
				"energy": -0.00459,
				"method": "rhf"
			},
			{
				"type": "unocc",
				"energy": 0.00201,
				"method": "rhf"
			}
		],
		"cosmo_sigma_profile": { 
			"-0.025": 0.0,
			"-0.024": 0.0,
			"-0.023": 0.0,
			"-0.022": 0.0,
			"-0.021": 0.0,
			"-0.02": 0.0,
			"-0.019": 0.0,
			"-0.018": 0.0,
			"-0.017": 0.0,
			"-0.016": 0.0,
			"-0.015": 0.0,
			"-0.014": 0.0,
			"-0.013": 0.0,
			"-0.012": 0.0,
			"-0.011": 0.0,
			"-0.01": 0.0,
			"-0.009": 0.0,
			"-0.008": 1.79297816087,
			"-0.007": 8.81318422547,
			"-0.006": 17.1357853399,
			"-0.005": 24.3869679578,
			"-0.004": 28.791584494,
			"-0.003": 35.9499396445,
			"-0.002": 34.7658168197,
			"-0.001": 34.6750605767,
			"0.0": 33.8532159803,
			"0.001": 22.5829894166,
			"0.002": 20.8186937218,
			"0.003": 9.99929415475,
			"0.004": 8.02440246135,
			"0.005": 6.20860577222,
			"0.006": 7.36216653992,
			"0.007": 9.29030467347,
			"0.008": 8.0999601627,
			"0.009": 8.12009939832,
			"0.01": 7.15890408774,
			"0.011": 7.12347318623,
			"0.012": 4.71526677043,
			"0.013": 1.60976582677,
			"0.014": 0.0283857154821,
			"0.015": 0.0,
			"0.016": 0.0,
			"0.017": 0.0,
			"0.018": 0.0,
			"0.019": 0.0,
			"0.02": 0.0,
			"0.021": 0.0,
			"0.022": 0.0,
			"0.023": 0.0,
			"0.024": 0.0,
			"0.025": 0.0
		}
	}
}
