{
	 "smiles": "CC(COC1=CC=C(C=C1)C(C)(C)C)OS(=O)OCCCl", 
	 "Tm": 241.45, 
	 "num_atms": 44, 
	 "gaussian": { 
		 "optdone": 1, 
		 "sigma_profile": "yes", 
		 "theory": "DFT", 
		 "functional": "B3LYP", 
		 "basiset": "6-31G**", 
		 "properties": { 
			 "R2extent": 11336.1061, 
			 "electric_dipole_moment_norm": 2.73132967801, 
			 "electric_quadrupole_moment_norm": 8.91955543623, 
			 "total_energy": -1744.68753902, 
			 "HOMO_LUMO_gap": 0.21268, 
			 "cosmo_polarized_energy": -11.58, 
			 "cosmo_cavitation_energy": 48.79, 
			 "cosmo_dispersion_energy": -33.25, 
			 "cosmo_repulsion_energy": 2.51, 
			 "cosmo_total_nonelectrostatic_energy": 18.05, 
			 "SMD_solvation_energy": 6.88 
		},
		"coords": [
			{
				"x": 3.1999468999,
				"y": -3.4865299359,
				"z": -0.8986383734,
				"element": "C" 
			},
			{
				"x": 2.2952466775,
				"y": -2.2600522181,
				"z": -0.8325045194,
				"element": "C" 
			},
			{
				"x": 1.3349845072,
				"y": -2.3183753626,
				"z": 0.3460382305,
				"element": "C" 
			},
			{
				"x": 0.7305544301,
				"y": -1.0443227623,
				"z": 0.5103953393,
				"element": "O" 
			},
			{
				"x": -0.1773868333,
				"y": -0.8785499903,
				"z": 1.527218775,
				"element": "C" 
			},
			{
				"x": -0.5914692112,
				"y": -1.8957220963,
				"z": 2.3935170811,
				"element": "C" 
			},
			{
				"x": -1.5242344148,
				"y": -1.6116108262,
				"z": 3.3927831737,
				"element": "C" 
			},
			{
				"x": -2.0717241009,
				"y": -0.3334556062,
				"z": 3.5696844289,
				"element": "C" 
			},
			{
				"x": -1.6340282821,
				"y": 0.6662985918,
				"z": 2.686178348,
				"element": "C" 
			},
			{
				"x": -0.7045822787,
				"y": 0.4071070073,
				"z": 1.6824348869,
				"element": "C" 
			},
			{
				"x": -3.0974693402,
				"y": -0.0778026637,
				"z": 4.6892036809,
				"element": "C" 
			},
			{
				"x": -2.4572958696,
				"y": -0.3990339105,
				"z": 6.060777089,
				"element": "C" 
			},
			{
				"x": -4.3322256713,
				"y": -0.9858161019,
				"z": 4.4768581718,
				"element": "C" 
			},
			{
				"x": -3.577991439,
				"y": 1.3856578583,
				"z": 4.715673492,
				"element": "C" 
			},
			{
				"x": 1.4774975288,
				"y": -2.2104918784,
				"z": -2.0378825066,
				"element": "O" 
			},
			{
				"x": 1.9629843687,
				"y": -1.2831955847,
				"z": -3.3458876461,
				"element": "S" 
			},
			{
				"x": 3.3163510018,
				"y": -0.7739717471,
				"z": -3.0417330874,
				"element": "O" 
			},
			{
				"x": 0.8967216422,
				"y": -0.0126491066,
				"z": -3.2229453582,
				"element": "O" 
			},
			{
				"x": 1.1390780283,
				"y": 0.9956999512,
				"z": -2.2091635792,
				"element": "C" 
			},
			{
				"x": 0.1066608745,
				"y": 2.0774602748,
				"z": -2.4788897753,
				"element": "C" 
			},
			{
				"x": 0.2808795178,
				"y": 3.4045440891,
				"z": -1.2564267192,
				"element": "Cl" 
			},
			{
				"x": 2.6079591627,
				"y": -4.4027085382,
				"z": -0.9891465742,
				"element": "H" 
			},
			{
				"x": 3.8224551102,
				"y": -3.5579015534,
				"z": -0.0008807854,
				"element": "H" 
			},
			{
				"x": 3.8608643037,
				"y": -3.4124193468,
				"z": -1.7650366232,
				"element": "H" 
			},
			{
				"x": 2.8987672912,
				"y": -1.3508167997,
				"z": -0.7679887551,
				"element": "H" 
			},
			{
				"x": 1.8950532107,
				"y": -2.5924109089,
				"z": 1.2517356703,
				"element": "H" 
			},
			{
				"x": 0.5762660515,
				"y": -3.0907225696,
				"z": 0.1614430067,
				"element": "H" 
			},
			{
				"x": -0.2033437312,
				"y": -2.9035321154,
				"z": 2.3042181767,
				"element": "H" 
			},
			{
				"x": -1.8258060448,
				"y": -2.4234826445,
				"z": 4.0485087719,
				"element": "H" 
			},
			{
				"x": -2.0171815334,
				"y": 1.6766698826,
				"z": 2.7716417419,
				"element": "H" 
			},
			{
				"x": -0.3764564137,
				"y": 1.1987378915,
				"z": 1.0159130629,
				"element": "H" 
			},
			{
				"x": -1.5840313535,
				"y": 0.2358800669,
				"z": 6.2431395325,
				"element": "H" 
			},
			{
				"x": -2.1299816708,
				"y": -1.4413423971,
				"z": 6.1226852071,
				"element": "H" 
			},
			{
				"x": -3.1772248021,
				"y": -0.2279428853,
				"z": 6.8693717157,
				"element": "H" 
			},
			{
				"x": -4.0640838301,
				"y": -2.0465943583,
				"z": 4.4895739,
				"element": "H" 
			},
			{
				"x": -5.0708305225,
				"y": -0.819989252,
				"z": 5.2695435597,
				"element": "H" 
			},
			{
				"x": -4.8121271697,
				"y": -0.7749443473,
				"z": 3.5155173741,
				"element": "H" 
			},
			{
				"x": -4.0696362357,
				"y": 1.6702849919,
				"z": 3.779543036,
				"element": "H" 
			},
			{
				"x": -2.7526869088,
				"y": 2.0827697087,
				"z": 4.894437477,
				"element": "H" 
			},
			{
				"x": -4.3043485772,
				"y": 1.5210510233,
				"z": 5.5236682293,
				"element": "H" 
			},
			{
				"x": 2.1560327036,
				"y": 1.3846897395,
				"z": -2.3068168622,
				"element": "H" 
			},
			{
				"x": 1.0010803571,
				"y": 0.5591698469,
				"z": -1.2176098927,
				"element": "H" 
			},
			{
				"x": 0.2432775048,
				"y": 2.5232299087,
				"z": -3.4643444962,
				"element": "H" 
			},
			{
				"x": -0.9071149374,
				"y": 1.6869366751,
				"z": -2.3897076051,
				"element": "H" 
			}
		],
		 "valence_orbital": [ 
			{
				"type": "occ",
				"energy": -0.30195,
				"method": "rhf"
			},
			{
				"type": "occ",
				"energy": -0.29885,
				"method": "rhf"
			},
			{
				"type": "occ",
				"energy": -0.2779,
				"method": "rhf"
			},
			{
				"type": "occ",
				"energy": -0.24939,
				"method": "rhf"
			},
			{
				"type": "occ",
				"energy": -0.21641,
				"method": "rhf"
			},
			{
				"type": "unocc",
				"energy": -0.00373,
				"method": "rhf"
			},
			{
				"type": "unocc",
				"energy": -0.00261,
				"method": "rhf"
			},
			{
				"type": "unocc",
				"energy": 0.01007,
				"method": "rhf"
			},
			{
				"type": "unocc",
				"energy": 0.01345,
				"method": "rhf"
			},
			{
				"type": "unocc",
				"energy": 0.03676,
				"method": "rhf"
			}
		],
		"cosmo_sigma_profile": { 
			"-0.025": 0.0,
			"-0.024": 0.0,
			"-0.023": 0.0,
			"-0.022": 0.0,
			"-0.021": 0.0,
			"-0.02": 0.0,
			"-0.019": 0.0,
			"-0.018": 0.0,
			"-0.017": 0.0,
			"-0.016": 0.0,
			"-0.015": 0.0,
			"-0.014": 0.0,
			"-0.013": 0.0,
			"-0.012": 0.0,
			"-0.011": 0.0,
			"-0.01": 0.0,
			"-0.009": 0.0,
			"-0.008": 2.06177098103,
			"-0.007": 5.36098731218,
			"-0.006": 16.472375386,
			"-0.005": 22.7540640335,
			"-0.004": 26.9757216005,
			"-0.003": 35.6368540411,
			"-0.002": 42.3908519771,
			"-0.001": 42.3286864686,
			"0.0": 34.3649840569,
			"0.001": 37.0477070164,
			"0.002": 26.1195047264,
			"0.003": 16.1924124047,
			"0.004": 18.7912408736,
			"0.005": 20.9410946699,
			"0.006": 19.1324306787,
			"0.007": 4.95951181031,
			"0.008": 4.64635838569,
			"0.009": 3.04821260354,
			"0.01": 3.30260287532,
			"0.011": 3.28579742763,
			"0.012": 0.304599744812,
			"0.013": 0.0,
			"0.014": 0.0,
			"0.015": 0.0,
			"0.016": 0.0,
			"0.017": 0.0,
			"0.018": 0.0,
			"0.019": 0.0,
			"0.02": 0.0,
			"0.021": 0.0,
			"0.022": 0.0,
			"0.023": 0.0,
			"0.024": 0.0,
			"0.025": 0.0
		}
	}
}
