{
	 "smiles": "OC(=O)C1=CSC(=N1)C1=CC=CS1", 
	 "Tm": 290.15, 
	 "num_atms": 18, 
	 "gaussian": { 
		 "optdone": 1, 
		 "sigma_profile": "yes", 
		 "theory": "DFT", 
		 "functional": "B3LYP", 
		 "basiset": "6-31G**", 
		 "properties": { 
			 "R2extent": 5403.9949, 
			 "electric_dipole_moment_norm": 6.0084865532, 
			 "electric_quadrupole_moment_norm": 18.1986261339, 
			 "total_energy": -1309.43058325, 
			 "HOMO_LUMO_gap": 0.15466, 
			 "cosmo_polarized_energy": -12.11, 
			 "cosmo_cavitation_energy": 26.72, 
			 "cosmo_dispersion_energy": -20.81, 
			 "cosmo_repulsion_energy": 1.54, 
			 "cosmo_total_nonelectrostatic_energy": 7.45, 
			 "SMD_solvation_energy": 4.91 
		},
		"coords": [
			{
				"x": -3.297535027,
				"y": -0.9414219122,
				"z": 0.1374466096,
				"element": "O" 
			},
			{
				"x": -2.78734082,
				"y": -0.9774652997,
				"z": -1.1100158526,
				"element": "C" 
			},
			{
				"x": -3.415694377,
				"y": -0.635006658,
				"z": -2.0845593673,
				"element": "O" 
			},
			{
				"x": -1.3817950249,
				"y": -1.4778251855,
				"z": -1.1682988698,
				"element": "C" 
			},
			{
				"x": -0.6485478546,
				"y": -1.6062079157,
				"z": -2.3152039948,
				"element": "C" 
			},
			{
				"x": 0.9196133059,
				"y": -2.2172234422,
				"z": -1.9364965322,
				"element": "S" 
			},
			{
				"x": 0.4719594094,
				"y": -2.2588711618,
				"z": -0.2242828056,
				"element": "C" 
			},
			{
				"x": -0.7514945496,
				"y": -1.8436580598,
				"z": -0.0028884396,
				"element": "N" 
			},
			{
				"x": 1.3735383682,
				"y": -2.7081953031,
				"z": 0.8190880437,
				"element": "C" 
			},
			{
				"x": 1.0938252658,
				"y": -2.7676574447,
				"z": 2.1685312655,
				"element": "C" 
			},
			{
				"x": 2.1817797288,
				"y": -3.2523424559,
				"z": 2.9425992534,
				"element": "C" 
			},
			{
				"x": 3.2797063025,
				"y": -3.5581906123,
				"z": 2.1820596266,
				"element": "C" 
			},
			{
				"x": 3.0034277724,
				"y": -3.2584587219,
				"z": 0.5000100924,
				"element": "S" 
			},
			{
				"x": -2.6062444768,
				"y": -1.2631459361,
				"z": 0.7459973707,
				"element": "H" 
			},
			{
				"x": -0.9574612089,
				"y": -1.3749595368,
				"z": -3.3237899183,
				"element": "H" 
			},
			{
				"x": 0.1343172922,
				"y": -2.4693162152,
				"z": 2.5718057786,
				"element": "H" 
			},
			{
				"x": 2.1520116611,
				"y": -3.3696295215,
				"z": 4.0194688235,
				"element": "H" 
			},
			{
				"x": 4.2370342327,
				"y": -3.9422246177,
				"z": 2.5059289162,
				"element": "H" 
			}
		],
		 "valence_orbital": [ 
			{
				"type": "occ",
				"energy": -0.30991,
				"method": "rhf"
			},
			{
				"type": "occ",
				"energy": -0.2942,
				"method": "rhf"
			},
			{
				"type": "occ",
				"energy": -0.27505,
				"method": "rhf"
			},
			{
				"type": "occ",
				"energy": -0.27171,
				"method": "rhf"
			},
			{
				"type": "occ",
				"energy": -0.23457,
				"method": "rhf"
			},
			{
				"type": "unocc",
				"energy": -0.07991,
				"method": "rhf"
			},
			{
				"type": "unocc",
				"energy": -0.03997,
				"method": "rhf"
			},
			{
				"type": "unocc",
				"energy": -0.02439,
				"method": "rhf"
			},
			{
				"type": "unocc",
				"energy": 0.00877,
				"method": "rhf"
			},
			{
				"type": "unocc",
				"energy": 0.03558,
				"method": "rhf"
			}
		],
		"cosmo_sigma_profile": { 
			"-0.025": 0.0,
			"-0.024": 0.0,
			"-0.023": 0.0,
			"-0.022": 0.0,
			"-0.021": 0.0,
			"-0.02": 0.0,
			"-0.019": 0.0,
			"-0.018": 0.0,
			"-0.017": 0.0,
			"-0.016": 0.0,
			"-0.015": 0.0,
			"-0.014": 0.404618952201,
			"-0.013": 0.3746247907,
			"-0.012": 0.488095611538,
			"-0.011": 1.52468166984,
			"-0.01": 2.87360677036,
			"-0.009": 3.85246139033,
			"-0.008": 5.34887721813,
			"-0.007": 7.6222805506,
			"-0.006": 8.59131030963,
			"-0.005": 9.47875349684,
			"-0.004": 10.2534970166,
			"-0.003": 13.8207952187,
			"-0.002": 17.1031974251,
			"-0.001": 20.1675554778,
			"0.0": 22.4068093859,
			"0.001": 20.4483718354,
			"0.002": 18.6666287806,
			"0.003": 17.7178920447,
			"0.004": 8.47158280466,
			"0.005": 2.97477551988,
			"0.006": 2.53854920694,
			"0.007": 2.86819403249,
			"0.008": 2.32081901281,
			"0.009": 4.19272917946,
			"0.01": 5.07335417741,
			"0.011": 4.70501650304,
			"0.012": 4.74628098965,
			"0.013": 1.28224661527,
			"0.014": 0.034666324379,
			"0.015": 0.0,
			"0.016": 0.0,
			"0.017": 0.0,
			"0.018": 0.0,
			"0.019": 0.0,
			"0.02": 0.0,
			"0.021": 0.0,
			"0.022": 0.0,
			"0.023": 0.0,
			"0.024": 0.0,
			"0.025": 0.0
		}
	}
}
