{
	 "smiles": "CC1=NN(C(C)=C1C(O)=O)C(C)(C)C", 
	 "Tm": 432.15, 
	 "num_atms": 30, 
	 "gaussian": { 
		 "optdone": 1, 
		 "sigma_profile": "yes", 
		 "theory": "DFT", 
		 "functional": "B3LYP", 
		 "basiset": "6-31G**", 
		 "properties": { 
			 "R2extent": 3229.9829, 
			 "electric_dipole_moment_norm": 1.98418154663, 
			 "electric_quadrupole_moment_norm": 12.6751696584, 
			 "total_energy": -650.686526501, 
			 "HOMO_LUMO_gap": 0.22395, 
			 "cosmo_polarized_energy": -10.74, 
			 "cosmo_cavitation_energy": 31.33, 
			 "cosmo_dispersion_energy": -22.28, 
			 "cosmo_repulsion_energy": 1.75, 
			 "cosmo_total_nonelectrostatic_energy": 10.8, 
			 "SMD_solvation_energy": 6.12 
		},
		"coords": [
			{
				"x": -1.9202910339,
				"y": -0.5104853466,
				"z": 2.4442112332,
				"element": "C" 
			},
			{
				"x": -0.9011104061,
				"y": -0.057600097,
				"z": 1.4442955477,
				"element": "C" 
			},
			{
				"x": 0.1334377901,
				"y": -0.8352333567,
				"z": 1.1680554864,
				"element": "N" 
			},
			{
				"x": 0.8746307578,
				"y": -0.1751974042,
				"z": 0.226223998,
				"element": "N" 
			},
			{
				"x": 0.331890237,
				"y": 1.032742242,
				"z": -0.0903525337,
				"element": "C" 
			},
			{
				"x": 0.8788540473,
				"y": 2.0260881324,
				"z": -1.0697019864,
				"element": "C" 
			},
			{
				"x": -0.8356974239,
				"y": 1.1434359696,
				"z": 0.6782393847,
				"element": "C" 
			},
			{
				"x": -1.7560866526,
				"y": 2.2766902791,
				"z": 0.6690624202,
				"element": "C" 
			},
			{
				"x": -2.8045399009,
				"y": 2.1083805175,
				"z": 1.5223994898,
				"element": "O" 
			},
			{
				"x": -1.6574859916,
				"y": 3.2937439586,
				"z": -0.0009044122,
				"element": "O" 
			},
			{
				"x": 2.1661592194,
				"y": -0.7983225073,
				"z": -0.205659522,
				"element": "C" 
			},
			{
				"x": 2.29638515,
				"y": -0.7549726473,
				"z": -1.7398281695,
				"element": "C" 
			},
			{
				"x": 3.3295443688,
				"y": -0.0532818485,
				"z": 0.4773010351,
				"element": "C" 
			},
			{
				"x": 2.176286672,
				"y": -2.2711650243,
				"z": 0.2387937802,
				"element": "C" 
			},
			{
				"x": -1.6326450291,
				"y": -1.490814186,
				"z": 2.8301261198,
				"element": "H" 
			},
			{
				"x": -2.00051785,
				"y": 0.1941671785,
				"z": 3.2771593943,
				"element": "H" 
			},
			{
				"x": -2.9152403192,
				"y": -0.5800162783,
				"z": 1.994530227,
				"element": "H" 
			},
			{
				"x": 0.7083805618,
				"y": 1.7059694533,
				"z": -2.1033964927,
				"element": "H" 
			},
			{
				"x": 0.3534286029,
				"y": 2.9696657464,
				"z": -0.9271579325,
				"element": "H" 
			},
			{
				"x": 1.9521334862,
				"y": 2.1889668318,
				"z": -0.9427074991,
				"element": "H" 
			},
			{
				"x": -3.3362108065,
				"y": 2.9161390996,
				"z": 1.4303159882,
				"element": "H" 
			},
			{
				"x": 2.4326967405,
				"y": 0.2544883152,
				"z": -2.1285257099,
				"element": "H" 
			},
			{
				"x": 1.415304197,
				"y": -1.1964635709,
				"z": -2.2151255475,
				"element": "H" 
			},
			{
				"x": 3.1707696759,
				"y": -1.3408692025,
				"z": -2.0382248167,
				"element": "H" 
			},
			{
				"x": 3.3753075728,
				"y": 0.9980071465,
				"z": 0.1810496488,
				"element": "H" 
			},
			{
				"x": 4.281949745,
				"y": -0.5195365269,
				"z": 0.2058719394,
				"element": "H" 
			},
			{
				"x": 3.2215150542,
				"y": -0.0988444874,
				"z": 1.5646817377,
				"element": "H" 
			},
			{
				"x": 3.115036637,
				"y": -2.7230193188,
				"z": -0.0962395884,
				"element": "H" 
			},
			{
				"x": 2.1017288867,
				"y": -2.3665130575,
				"z": 1.3217025824,
				"element": "H" 
			},
			{
				"x": 1.3444860112,
				"y": -2.8241500102,
				"z": -0.2037958021,
				"element": "H" 
			}
		],
		 "valence_orbital": [ 
			{
				"type": "occ",
				"energy": -0.30785,
				"method": "rhf"
			},
			{
				"type": "occ",
				"energy": -0.284,
				"method": "rhf"
			},
			{
				"type": "occ",
				"energy": -0.26169,
				"method": "rhf"
			},
			{
				"type": "occ",
				"energy": -0.24249,
				"method": "rhf"
			},
			{
				"type": "occ",
				"energy": -0.23886,
				"method": "rhf"
			},
			{
				"type": "unocc",
				"energy": -0.01491,
				"method": "rhf"
			},
			{
				"type": "unocc",
				"energy": 0.02888,
				"method": "rhf"
			},
			{
				"type": "unocc",
				"energy": 0.07418,
				"method": "rhf"
			},
			{
				"type": "unocc",
				"energy": 0.08866,
				"method": "rhf"
			},
			{
				"type": "unocc",
				"energy": 0.09757,
				"method": "rhf"
			}
		],
		"cosmo_sigma_profile": { 
			"-0.025": 0.0,
			"-0.024": 0.0,
			"-0.023": 0.0,
			"-0.022": 0.0,
			"-0.021": 0.0,
			"-0.02": 0.0,
			"-0.019": 0.0,
			"-0.018": 0.131718200633,
			"-0.017": 1.10770115086,
			"-0.016": 0.60159215102,
			"-0.015": 0.785583526823,
			"-0.014": 1.08266898707,
			"-0.013": 0.278334628439,
			"-0.012": 0.373510242058,
			"-0.011": 0.724765332128,
			"-0.01": 0.669591436263,
			"-0.009": 1.04057993741,
			"-0.008": 0.461727911655,
			"-0.007": 1.24396157275,
			"-0.006": 3.70249005329,
			"-0.005": 7.71178927302,
			"-0.004": 20.9223871588,
			"-0.003": 23.3933269387,
			"-0.002": 26.674860672,
			"-0.001": 31.8712362451,
			"0.0": 35.2134263557,
			"0.001": 21.959453804,
			"0.002": 10.768167889,
			"0.003": 12.1493480031,
			"0.004": 6.57762610205,
			"0.005": 5.63052480078,
			"0.006": 6.68869943763,
			"0.007": 4.21913805301,
			"0.008": 3.07449641921,
			"0.009": 2.36628989855,
			"0.01": 3.37468600547,
			"0.011": 3.46503595197,
			"0.012": 4.89330500486,
			"0.013": 1.82819104057,
			"0.014": 0.0,
			"0.015": 0.0,
			"0.016": 0.0,
			"0.017": 0.0,
			"0.018": 0.0,
			"0.019": 0.0,
			"0.02": 0.0,
			"0.021": 0.0,
			"0.022": 0.0,
			"0.023": 0.0,
			"0.024": 0.0,
			"0.025": 0.0
		}
	}
}
