{
	 "smiles": "CN(C)C1=C(C)C=C(C=C1)N=NC1=CC(=CC=C1)[N+]([O-])=O", 
	 "Tm": 347.15, 
	 "num_atms": 37, 
	 "gaussian": { 
		 "optdone": 1, 
		 "sigma_profile": "yes", 
		 "theory": "DFT", 
		 "functional": "B3LYP", 
		 "basiset": "6-31G**", 
		 "properties": { 
			 "R2extent": 11490.2505, 
			 "electric_dipole_moment_norm": 7.18299561186, 
			 "electric_quadrupole_moment_norm": 22.3049592952, 
			 "total_energy": -950.548765265, 
			 "HOMO_LUMO_gap": 0.11608, 
			 "cosmo_polarized_energy": -11.34, 
			 "cosmo_cavitation_energy": 41.74, 
			 "cosmo_dispersion_energy": -29.95, 
			 "cosmo_repulsion_energy": 2.27, 
			 "cosmo_total_nonelectrostatic_energy": 14.06, 
			 "SMD_solvation_energy": 7.79 
		},
		"coords": [
			{
				"x": 1.9433628437,
				"y": 5.7161141212,
				"z": -0.9787449527,
				"element": "C" 
			},
			{
				"x": 2.2393294027,
				"y": 4.4225193719,
				"z": -1.596678041,
				"element": "N" 
			},
			{
				"x": 1.9948399017,
				"y": 4.4439202092,
				"z": -3.0322443696,
				"element": "C" 
			},
			{
				"x": 1.8456779831,
				"y": 3.2677067185,
				"z": -0.8835175348,
				"element": "C" 
			},
			{
				"x": 2.4728246073,
				"y": 2.9471896902,
				"z": 0.3507361291,
				"element": "C" 
			},
			{
				"x": 3.605574635,
				"y": 3.7721653445,
				"z": 0.9137606221,
				"element": "C" 
			},
			{
				"x": 2.0684531234,
				"y": 1.7922096443,
				"z": 1.0164650613,
				"element": "C" 
			},
			{
				"x": 1.0849963351,
				"y": 0.9332627142,
				"z": 0.5047241525,
				"element": "C" 
			},
			{
				"x": 0.4898389515,
				"y": 1.2389947892,
				"z": -0.7300556747,
				"element": "C" 
			},
			{
				"x": 0.8708023097,
				"y": 2.3866434801,
				"z": -1.4043914122,
				"element": "C" 
			},
			{
				"x": 0.7885207327,
				"y": -0.1952389736,
				"z": 1.2908130392,
				"element": "N" 
			},
			{
				"x": -0.0813597162,
				"y": -0.9750705723,
				"z": 0.8088780439,
				"element": "N" 
			},
			{
				"x": -0.3662208763,
				"y": -2.1021543348,
				"z": 1.6214270312,
				"element": "C" 
			},
			{
				"x": -1.3274011667,
				"y": -2.9811994684,
				"z": 1.1115861237,
				"element": "C" 
			},
			{
				"x": -1.6623883117,
				"y": -4.111898957,
				"z": 1.8495926803,
				"element": "C" 
			},
			{
				"x": -1.073571409,
				"y": -4.3997210668,
				"z": 3.0792251882,
				"element": "C" 
			},
			{
				"x": -0.1147995747,
				"y": -3.5142950131,
				"z": 3.5779381314,
				"element": "C" 
			},
			{
				"x": 0.2401176881,
				"y": -2.3750550769,
				"z": 2.8618616066,
				"element": "C" 
			},
			{
				"x": -2.6749450658,
				"y": -5.03660173,
				"z": 1.3114922939,
				"element": "N" 
			},
			{
				"x": -3.1804706442,
				"y": -4.7609071247,
				"z": 0.2245248047,
				"element": "O" 
			},
			{
				"x": -2.9539742266,
				"y": -6.0298033048,
				"z": 1.9827928345,
				"element": "O" 
			},
			{
				"x": 2.153643553,
				"y": 5.6972605728,
				"z": 0.0894189633,
				"element": "H" 
			},
			{
				"x": 0.8861192128,
				"y": 6.0016085576,
				"z": -1.1114528768,
				"element": "H" 
			},
			{
				"x": 2.566490703,
				"y": 6.491542856,
				"z": -1.4364975749,
				"element": "H" 
			},
			{
				"x": 0.9401254329,
				"y": 4.6292680913,
				"z": -3.3001994359,
				"element": "H" 
			},
			{
				"x": 2.3075979923,
				"y": 3.4984257578,
				"z": -3.480898395,
				"element": "H" 
			},
			{
				"x": 2.5925209751,
				"y": 5.2470040606,
				"z": -3.4754483385,
				"element": "H" 
			},
			{
				"x": 4.2612066974,
				"y": 3.1482160922,
				"z": 1.5273700355,
				"element": "H" 
			},
			{
				"x": 3.2553176733,
				"y": 4.5917174752,
				"z": 1.5540279973,
				"element": "H" 
			},
			{
				"x": 4.1984944709,
				"y": 4.21593082,
				"z": 0.108819438,
				"element": "H" 
			},
			{
				"x": 2.5403391827,
				"y": 1.5128371759,
				"z": 1.9544061052,
				"element": "H" 
			},
			{
				"x": -0.2689894901,
				"y": 0.5768723296,
				"z": -1.1308328993,
				"element": "H" 
			},
			{
				"x": 0.3905298417,
				"y": 2.6228023291,
				"z": -2.3472956808,
				"element": "H" 
			},
			{
				"x": -1.7989067599,
				"y": -2.7795008733,
				"z": 0.1585595653,
				"element": "H" 
			},
			{
				"x": -1.3676323747,
				"y": -5.2925581619,
				"z": 3.6160909438,
				"element": "H" 
			},
			{
				"x": 0.3558817951,
				"y": -3.720509845,
				"z": 4.5343144122,
				"element": "H" 
			},
			{
				"x": 0.9821535716,
				"y": -1.6799976986,
				"z": 3.2372319831,
				"element": "H" 
			}
		],
		 "valence_orbital": [ 
			{
				"type": "occ",
				"energy": -0.27804,
				"method": "rhf"
			},
			{
				"type": "occ",
				"energy": -0.25692,
				"method": "rhf"
			},
			{
				"type": "occ",
				"energy": -0.25411,
				"method": "rhf"
			},
			{
				"type": "occ",
				"energy": -0.23181,
				"method": "rhf"
			},
			{
				"type": "occ",
				"energy": -0.20864,
				"method": "rhf"
			},
			{
				"type": "unocc",
				"energy": -0.09256,
				"method": "rhf"
			},
			{
				"type": "unocc",
				"energy": -0.07786,
				"method": "rhf"
			},
			{
				"type": "unocc",
				"energy": -0.01187,
				"method": "rhf"
			},
			{
				"type": "unocc",
				"energy": -0.00665,
				"method": "rhf"
			},
			{
				"type": "unocc",
				"energy": 0.00922,
				"method": "rhf"
			}
		],
		"cosmo_sigma_profile": { 
			"-0.025": 0.0,
			"-0.024": 0.0,
			"-0.023": 0.0,
			"-0.022": 0.0,
			"-0.021": 0.0,
			"-0.02": 0.0,
			"-0.019": 0.0,
			"-0.018": 0.0,
			"-0.017": 0.0,
			"-0.016": 0.0,
			"-0.015": 0.0,
			"-0.014": 0.0,
			"-0.013": 0.0,
			"-0.012": 0.0,
			"-0.011": 0.0,
			"-0.01": 0.0,
			"-0.009": 0.0,
			"-0.008": 1.40180155439,
			"-0.007": 5.28805432819,
			"-0.006": 11.8626496231,
			"-0.005": 20.1865304669,
			"-0.004": 27.2793995967,
			"-0.003": 29.818448203,
			"-0.002": 33.3089051319,
			"-0.001": 35.5169037541,
			"0.0": 33.7498407677,
			"0.001": 28.1644893086,
			"0.002": 22.0693824897,
			"0.003": 20.2009620045,
			"0.004": 19.2771285423,
			"0.005": 8.53620669146,
			"0.006": 7.79437902035,
			"0.007": 12.2512199507,
			"0.008": 8.87905734543,
			"0.009": 4.92988952167,
			"0.01": 2.19939687493,
			"0.011": 0.048952593384,
			"0.012": 0.0,
			"0.013": 0.0,
			"0.014": 0.0,
			"0.015": 0.0,
			"0.016": 0.0,
			"0.017": 0.0,
			"0.018": 0.0,
			"0.019": 0.0,
			"0.02": 0.0,
			"0.021": 0.0,
			"0.022": 0.0,
			"0.023": 0.0,
			"0.024": 0.0,
			"0.025": 0.0
		}
	}
}
