{
	 "smiles": "CC(C)(C)C1=CN=C(C=N1)C(=O)NC1=CC=CC(Br)=C1", 
	 "Tm": 387.15, 
	 "num_atms": 36, 
	 "gaussian": { 
		 "optdone": 1, 
		 "sigma_profile": "yes", 
		 "theory": "DFT", 
		 "functional": "B3LYP", 
		 "basiset": "6-31G**", 
		 "properties": { 
			 "R2extent": 9411.428, 
			 "electric_dipole_moment_norm": 2.68761009449, 
			 "electric_quadrupole_moment_norm": 17.0227978444, 
			 "total_energy": -3392.13585932, 
			 "HOMO_LUMO_gap": 0.16644, 
			 "cosmo_polarized_energy": -13.47, 
			 "cosmo_cavitation_energy": 42.02, 
			 "cosmo_dispersion_energy": -28.73, 
			 "cosmo_repulsion_energy": 2.24, 
			 "cosmo_total_nonelectrostatic_energy": 15.53, 
			 "SMD_solvation_energy": 5.17 
		},
		"coords": [
			{
				"x": -2.851483882,
				"y": -2.5813995627,
				"z": -1.5620085558,
				"element": "C" 
			},
			{
				"x": -1.5615240653,
				"y": -2.546685454,
				"z": -0.7095432176,
				"element": "C" 
			},
			{
				"x": -0.5684344658,
				"y": -3.6061355813,
				"z": -1.2420222064,
				"element": "C" 
			},
			{
				"x": -1.9102849703,
				"y": -2.8675760662,
				"z": 0.7546817433,
				"element": "C" 
			},
			{
				"x": -0.919077051,
				"y": -1.1660459409,
				"z": -0.8660509283,
				"element": "C" 
			},
			{
				"x": -0.6713718469,
				"y": -0.285146386,
				"z": 0.2003889665,
				"element": "C" 
			},
			{
				"x": -0.0951215194,
				"y": 0.9080918808,
				"z": 0.0322308216,
				"element": "N" 
			},
			{
				"x": 0.2348048612,
				"y": 1.2494474287,
				"z": -1.2174264262,
				"element": "C" 
			},
			{
				"x": -0.0257896963,
				"y": 0.3906852095,
				"z": -2.2940874487,
				"element": "C" 
			},
			{
				"x": -0.5841855249,
				"y": -0.8052104373,
				"z": -2.1188637169,
				"element": "N" 
			},
			{
				"x": 0.8037334857,
				"y": 2.6105959175,
				"z": -1.5067186175,
				"element": "C" 
			},
			{
				"x": 0.6297478239,
				"y": 3.1228082446,
				"z": -2.6076488505,
				"element": "O" 
			},
			{
				"x": 1.4560339296,
				"y": 3.3075738938,
				"z": -0.5114321208,
				"element": "N" 
			},
			{
				"x": 2.0856994362,
				"y": 2.8844441822,
				"z": 0.6845052341,
				"element": "C" 
			},
			{
				"x": 2.0555164883,
				"y": 3.7367522355,
				"z": 1.7948679369,
				"element": "C" 
			},
			{
				"x": 2.7194904123,
				"y": 3.3800868416,
				"z": 2.9669525897,
				"element": "C" 
			},
			{
				"x": 3.4084166067,
				"y": 2.1702562593,
				"z": 3.0585765636,
				"element": "C" 
			},
			{
				"x": 3.4331621467,
				"y": 1.3365282348,
				"z": 1.9415718171,
				"element": "C" 
			},
			{
				"x": 4.3903581364,
				"y": -0.31773662,
				"z": 2.03146571,
				"element": "Br" 
			},
			{
				"x": 2.8007540337,
				"y": 1.6813081046,
				"z": 0.7519987715,
				"element": "C" 
			},
			{
				"x": -3.3046565223,
				"y": -3.5775046251,
				"z": -1.5171306509,
				"element": "H" 
			},
			{
				"x": -2.6304484829,
				"y": -2.3443690496,
				"z": -2.6052775245,
				"element": "H" 
			},
			{
				"x": -3.5876706493,
				"y": -1.8578863448,
				"z": -1.1949915716,
				"element": "H" 
			},
			{
				"x": -0.2962686064,
				"y": -3.3926005246,
				"z": -2.2783127037,
				"element": "H" 
			},
			{
				"x": -1.0218917559,
				"y": -4.6021021413,
				"z": -1.197067657,
				"element": "H" 
			},
			{
				"x": 0.3488081451,
				"y": -3.6246985442,
				"z": -0.643322413,
				"element": "H" 
			},
			{
				"x": -2.6307585282,
				"y": -2.1551105254,
				"z": 1.1707144625,
				"element": "H" 
			},
			{
				"x": -1.0225584286,
				"y": -2.8739379461,
				"z": 1.3961985427,
				"element": "H" 
			},
			{
				"x": -2.3632496643,
				"y": -3.8621950563,
				"z": 0.8126296045,
				"element": "H" 
			},
			{
				"x": -0.9413541007,
				"y": -0.5425659443,
				"z": 1.2193424531,
				"element": "H" 
			},
			{
				"x": 0.2259983181,
				"y": 0.6931390704,
				"z": -3.3065953291,
				"element": "H" 
			},
			{
				"x": 1.6319441971,
				"y": 4.2642692048,
				"z": -0.7953689006,
				"element": "H" 
			},
			{
				"x": 1.500447145,
				"y": 4.668104474,
				"z": 1.7372433533,
				"element": "H" 
			},
			{
				"x": 2.6908646905,
				"y": 4.0452889007,
				"z": 3.8246935611,
				"element": "H" 
			},
			{
				"x": 3.9176074371,
				"y": 1.8826100245,
				"z": 3.9706011878,
				"element": "H" 
			},
			{
				"x": 2.8680424673,
				"y": 1.0314166429,
				"z": -0.1109944801,
				"element": "H" 
			}
		],
		 "valence_orbital": [ 
			{
				"type": "occ",
				"energy": -0.28028,
				"method": "rhf"
			},
			{
				"type": "occ",
				"energy": -0.26608,
				"method": "rhf"
			},
			{
				"type": "occ",
				"energy": -0.25297,
				"method": "rhf"
			},
			{
				"type": "occ",
				"energy": -0.24584,
				"method": "rhf"
			},
			{
				"type": "occ",
				"energy": -0.23452,
				"method": "rhf"
			},
			{
				"type": "unocc",
				"energy": -0.06808,
				"method": "rhf"
			},
			{
				"type": "unocc",
				"energy": -0.04405,
				"method": "rhf"
			},
			{
				"type": "unocc",
				"energy": -0.01865,
				"method": "rhf"
			},
			{
				"type": "unocc",
				"energy": -0.01517,
				"method": "rhf"
			},
			{
				"type": "unocc",
				"energy": 0.00276,
				"method": "rhf"
			}
		],
		"cosmo_sigma_profile": { 
			"-0.025": 0.0,
			"-0.024": 0.0,
			"-0.023": 0.0,
			"-0.022": 0.0,
			"-0.021": 0.0,
			"-0.02": 0.0,
			"-0.019": 0.0,
			"-0.018": 0.0,
			"-0.017": 0.0,
			"-0.016": 0.0,
			"-0.015": 0.536299204371,
			"-0.014": 0.96609470518,
			"-0.013": 1.24886827158,
			"-0.012": 0.955851415238,
			"-0.011": 0.74932472741,
			"-0.01": 1.48615078432,
			"-0.009": 1.1063270938,
			"-0.008": 2.86486403407,
			"-0.007": 9.37497292741,
			"-0.006": 12.1404367334,
			"-0.005": 13.2922533266,
			"-0.004": 18.9262336372,
			"-0.003": 34.3412069567,
			"-0.002": 29.8934876012,
			"-0.001": 31.5713125143,
			"0.0": 34.7475597928,
			"0.001": 34.6781110203,
			"0.002": 23.63424779,
			"0.003": 20.9332443032,
			"0.004": 19.7172314474,
			"0.005": 12.1021784764,
			"0.006": 5.340165594,
			"0.007": 4.13979073319,
			"0.008": 2.59978022085,
			"0.009": 3.4517662317,
			"0.01": 3.26593785961,
			"0.011": 3.56004698196,
			"0.012": 5.4417116583,
			"0.013": 3.52593101477,
			"0.014": 0.0540281319067,
			"0.015": 0.0,
			"0.016": 0.0,
			"0.017": 0.0,
			"0.018": 0.0,
			"0.019": 0.0,
			"0.02": 0.0,
			"0.021": 0.0,
			"0.022": 0.0,
			"0.023": 0.0,
			"0.024": 0.0,
			"0.025": 0.0
		}
	}
}
