{
	 "smiles": "CC1=C(C(C)=NN1)C(C)(C)C", 
	 "Tm": 377.15, 
	 "num_atms": 27, 
	 "gaussian": { 
		 "optdone": 1, 
		 "sigma_profile": "yes", 
		 "theory": "DFT", 
		 "functional": "B3LYP", 
		 "basiset": "6-31G**", 
		 "properties": { 
			 "R2extent": 2255.991, 
			 "electric_dipole_moment_norm": 2.31612552769, 
			 "electric_quadrupole_moment_norm": 10.4385829508, 
			 "total_energy": -462.104974675, 
			 "HOMO_LUMO_gap": 0.25528, 
			 "cosmo_polarized_energy": -8.91, 
			 "cosmo_cavitation_energy": 27.24, 
			 "cosmo_dispersion_energy": -19.63, 
			 "cosmo_repulsion_energy": 1.55, 
			 "cosmo_total_nonelectrostatic_energy": 9.17, 
			 "SMD_solvation_energy": 4.01 
		},
		"coords": [
			{
				"x": -2.9607030306,
				"y": 1.9328544368,
				"z": 1.0534544402,
				"element": "C" 
			},
			{
				"x": -2.3593463794,
				"y": 0.6122219972,
				"z": 0.664067185,
				"element": "C" 
			},
			{
				"x": -1.2669624086,
				"y": 0.1961643369,
				"z": -0.1013385554,
				"element": "C" 
			},
			{
				"x": -1.3363733865,
				"y": -1.2369942093,
				"z": -0.0513292464,
				"element": "C" 
			},
			{
				"x": -0.4549144082,
				"y": -2.2890055438,
				"z": -0.6642835484,
				"element": "C" 
			},
			{
				"x": -2.3701959268,
				"y": -1.6580186752,
				"z": 0.6783434726,
				"element": "N" 
			},
			{
				"x": -2.9656036649,
				"y": -0.5276682242,
				"z": 1.0973797383,
				"element": "N" 
			},
			{
				"x": -0.2485993114,
				"y": 1.0392762117,
				"z": -0.8727910015,
				"element": "C" 
			},
			{
				"x": 1.1944008871,
				"y": 0.5819969018,
				"z": -0.5524106751,
				"element": "C" 
			},
			{
				"x": -0.5048314272,
				"y": 0.8986591278,
				"z": -2.3931262844,
				"element": "C" 
			},
			{
				"x": -0.3343221659,
				"y": 2.5375538543,
				"z": -0.5158783517,
				"element": "C" 
			},
			{
				"x": -3.332875511,
				"y": 2.4899909214,
				"z": 0.1878613217,
				"element": "H" 
			},
			{
				"x": -2.2508874358,
				"y": 2.5766962231,
				"z": 1.5785097668,
				"element": "H" 
			},
			{
				"x": -3.8116996891,
				"y": 1.7716812674,
				"z": 1.7239996203,
				"element": "H" 
			},
			{
				"x": -0.2770090917,
				"y": -2.1186067613,
				"z": -1.7306703562,
				"element": "H" 
			},
			{
				"x": -0.9419552292,
				"y": -3.2602586974,
				"z": -0.549782988,
				"element": "H" 
			},
			{
				"x": 0.5232249194,
				"y": -2.345937424,
				"z": -0.1740355277,
				"element": "H" 
			},
			{
				"x": -3.7892797374,
				"y": -0.589588491,
				"z": 1.6754609099,
				"element": "H" 
			},
			{
				"x": 1.3932190603,
				"y": 0.6412940786,
				"z": 0.5228198566,
				"element": "H" 
			},
			{
				"x": 1.3865378967,
				"y": -0.4431649612,
				"z": -0.8742163283,
				"element": "H" 
			},
			{
				"x": 1.9161533905,
				"y": 1.2272663713,
				"z": -1.0663793121,
				"element": "H" 
			},
			{
				"x": 0.2247940133,
				"y": 1.4854730939,
				"z": -2.9640388255,
				"element": "H" 
			},
			{
				"x": -1.5065789614,
				"y": 1.2561285956,
				"z": -2.6532039195,
				"element": "H" 
			},
			{
				"x": -0.4278304894,
				"y": -0.1410864808,
				"z": -2.7233485591,
				"element": "H" 
			},
			{
				"x": -1.3015590935,
				"y": 2.972378704,
				"z": -0.7810834699,
				"element": "H" 
			},
			{
				"x": 0.432408448,
				"y": 3.08938254,
				"z": -1.0702318311,
				"element": "H" 
			},
			{
				"x": -0.1572112672,
				"y": 2.7096108066,
				"z": 0.5506524687,
				"element": "H" 
			}
		],
		 "valence_orbital": [ 
			{
				"type": "occ",
				"energy": -0.32682,
				"method": "rhf"
			},
			{
				"type": "occ",
				"energy": -0.31514,
				"method": "rhf"
			},
			{
				"type": "occ",
				"energy": -0.26969,
				"method": "rhf"
			},
			{
				"type": "occ",
				"energy": -0.2295,
				"method": "rhf"
			},
			{
				"type": "occ",
				"energy": -0.21934,
				"method": "rhf"
			},
			{
				"type": "unocc",
				"energy": 0.03594,
				"method": "rhf"
			},
			{
				"type": "unocc",
				"energy": 0.06941,
				"method": "rhf"
			},
			{
				"type": "unocc",
				"energy": 0.07637,
				"method": "rhf"
			},
			{
				"type": "unocc",
				"energy": 0.08647,
				"method": "rhf"
			},
			{
				"type": "unocc",
				"energy": 0.11253,
				"method": "rhf"
			}
		],
		"cosmo_sigma_profile": { 
			"-0.025": 0.0,
			"-0.024": 0.0,
			"-0.023": 0.0,
			"-0.022": 0.0,
			"-0.021": 0.0,
			"-0.02": 0.0,
			"-0.019": 0.0,
			"-0.018": 0.0,
			"-0.017": 0.0,
			"-0.016": 0.146091859379,
			"-0.015": 1.14851377663,
			"-0.014": 1.29068559712,
			"-0.013": 1.240126403,
			"-0.012": 1.19065158972,
			"-0.011": 0.615410290399,
			"-0.01": 1.2964785644,
			"-0.009": 1.51525169192,
			"-0.008": 1.1852595066,
			"-0.007": 1.01644070729,
			"-0.006": 1.73819507011,
			"-0.005": 3.97134559815,
			"-0.004": 10.3184924458,
			"-0.003": 17.8941969994,
			"-0.002": 29.681810691,
			"-0.001": 29.5966172053,
			"0.0": 27.1541064559,
			"0.001": 27.2535594284,
			"0.002": 16.8479660164,
			"0.003": 5.57691428109,
			"0.004": 4.09136757154,
			"0.005": 4.46617199374,
			"0.006": 6.16584041444,
			"0.007": 3.10327303795,
			"0.008": 2.04936459497,
			"0.009": 1.76166813142,
			"0.01": 1.16707732278,
			"0.011": 1.79230084966,
			"0.012": 1.13406563963,
			"0.013": 1.29002851491,
			"0.014": 0.795249544899,
			"0.015": 1.17206017532,
			"0.016": 0.984450188329,
			"0.017": 0.840182254667,
			"0.018": 0.0553037556554,
			"0.019": 0.0,
			"0.02": 0.0,
			"0.021": 0.0,
			"0.022": 0.0,
			"0.023": 0.0,
			"0.024": 0.0,
			"0.025": 0.0
		}
	}
}
