{
	 "smiles": "NC1=CC=C(CN2CCCC2)C=C1", 
	 "Tm": 320.15, 
	 "num_atms": 29, 
	 "gaussian": { 
		 "optdone": 1, 
		 "sigma_profile": "yes", 
		 "theory": "DFT", 
		 "functional": "B3LYP", 
		 "basiset": "6-31G**", 
		 "properties": { 
			 "R2extent": 3243.5007, 
			 "electric_dipole_moment_norm": 2.31502363919, 
			 "electric_quadrupole_moment_norm": 10.9970334773, 
			 "total_energy": -538.312512373, 
			 "HOMO_LUMO_gap": 0.1989, 
			 "cosmo_polarized_energy": -8.98, 
			 "cosmo_cavitation_energy": 30.07, 
			 "cosmo_dispersion_energy": -22.01, 
			 "cosmo_repulsion_energy": 1.76, 
			 "cosmo_total_nonelectrostatic_energy": 9.82, 
			 "SMD_solvation_energy": 1.79 
		},
		"coords": [
			{
				"x": 0.6525735353,
				"y": -0.1752305865,
				"z": 5.0697103885,
				"element": "N" 
			},
			{
				"x": 0.6472293626,
				"y": -0.3018946346,
				"z": 3.6773126057,
				"element": "C" 
			},
			{
				"x": -0.0724077948,
				"y": -1.3330693633,
				"z": 3.0504188169,
				"element": "C" 
			},
			{
				"x": -0.0243796416,
				"y": -1.4894813986,
				"z": 1.6676672053,
				"element": "C" 
			},
			{
				"x": 0.7322022242,
				"y": -0.6342975302,
				"z": 0.8540832487,
				"element": "C" 
			},
			{
				"x": 0.7523783879,
				"y": -0.7923177436,
				"z": -0.6592726345,
				"element": "C" 
			},
			{
				"x": -0.264190749,
				"y": -0.0625740119,
				"z": -1.42244449,
				"element": "N" 
			},
			{
				"x": -0.2249624585,
				"y": 1.3965204998,
				"z": -1.3510179822,
				"element": "C" 
			},
			{
				"x": -1.4797867825,
				"y": 1.8224949878,
				"z": -2.1395535751,
				"element": "C" 
			},
			{
				"x": -2.4415153026,
				"y": 0.6030768625,
				"z": -2.0243257255,
				"element": "C" 
			},
			{
				"x": -1.6594516426,
				"y": -0.4232718285,
				"z": -1.1799664816,
				"element": "C" 
			},
			{
				"x": 1.4526750725,
				"y": 0.3857440092,
				"z": 1.4913639375,
				"element": "C" 
			},
			{
				"x": 1.4157129813,
				"y": 0.5562089999,
				"z": 2.8727885121,
				"element": "C" 
			},
			{
				"x": -0.1583763837,
				"y": -0.5598518839,
				"z": 5.5350223912,
				"element": "H" 
			},
			{
				"x": 0.8733332757,
				"y": 0.7501024118,
				"z": 5.4119269197,
				"element": "H" 
			},
			{
				"x": -0.6612576414,
				"y": -2.0190030271,
				"z": 3.6552196106,
				"element": "H" 
			},
			{
				"x": -0.5827346073,
				"y": -2.3037860583,
				"z": 1.2109817809,
				"element": "H" 
			},
			{
				"x": 0.6431736418,
				"y": -1.8544465606,
				"z": -0.9128947618,
				"element": "H" 
			},
			{
				"x": 1.7306068989,
				"y": -0.4750632537,
				"z": -1.0424106153,
				"element": "H" 
			},
			{
				"x": -0.2849398617,
				"y": 1.7707377764,
				"z": -0.3122018348,
				"element": "H" 
			},
			{
				"x": 0.708405207,
				"y": 1.7762007792,
				"z": -1.7841191636,
				"element": "H" 
			},
			{
				"x": -1.9155402703,
				"y": 2.7404503583,
				"z": -1.7346490064,
				"element": "H" 
			},
			{
				"x": -1.229057024,
				"y": 2.0132416668,
				"z": -3.1867170556,
				"element": "H" 
			},
			{
				"x": -2.6628761452,
				"y": 0.1966013881,
				"z": -3.0150723013,
				"element": "H" 
			},
			{
				"x": -3.3953802843,
				"y": 0.8636091096,
				"z": -1.5566422703,
				"element": "H" 
			},
			{
				"x": -1.8442098933,
				"y": -1.4618549984,
				"z": -1.4801658414,
				"element": "H" 
			},
			{
				"x": -1.9409347299,
				"y": -0.3308809716,
				"z": -0.114600659,
				"element": "H" 
			},
			{
				"x": 2.0653710468,
				"y": 1.0581747772,
				"z": 0.8948388353,
				"element": "H" 
			},
			{
				"x": 1.9935395786,
				"y": 1.3514602243,
				"z": 3.3383201462,
				"element": "H" 
			}
		],
		 "valence_orbital": [ 
			{
				"type": "occ",
				"energy": -0.31044,
				"method": "rhf"
			},
			{
				"type": "occ",
				"energy": -0.2974,
				"method": "rhf"
			},
			{
				"type": "occ",
				"energy": -0.2416,
				"method": "rhf"
			},
			{
				"type": "occ",
				"energy": -0.20156,
				"method": "rhf"
			},
			{
				"type": "occ",
				"energy": -0.19323,
				"method": "rhf"
			},
			{
				"type": "unocc",
				"energy": 0.00567,
				"method": "rhf"
			},
			{
				"type": "unocc",
				"energy": 0.0192,
				"method": "rhf"
			},
			{
				"type": "unocc",
				"energy": 0.08294,
				"method": "rhf"
			},
			{
				"type": "unocc",
				"energy": 0.09072,
				"method": "rhf"
			},
			{
				"type": "unocc",
				"energy": 0.10882,
				"method": "rhf"
			}
		],
		"cosmo_sigma_profile": { 
			"-0.025": 0.0,
			"-0.024": 0.0,
			"-0.023": 0.0,
			"-0.022": 0.0,
			"-0.021": 0.0,
			"-0.02": 0.0,
			"-0.019": 0.0,
			"-0.018": 0.0,
			"-0.017": 0.0,
			"-0.016": 0.0,
			"-0.015": 0.0,
			"-0.014": 0.0,
			"-0.013": 0.0500559291554,
			"-0.012": 2.02018973266,
			"-0.011": 2.84149408479,
			"-0.01": 2.40400564983,
			"-0.009": 3.23399453252,
			"-0.008": 3.03369169931,
			"-0.007": 2.93309238898,
			"-0.006": 3.19626149247,
			"-0.005": 5.9604391877,
			"-0.004": 11.0493166584,
			"-0.003": 22.9722219847,
			"-0.002": 26.6157083142,
			"-0.001": 28.2812388655,
			"0.0": 31.7398762332,
			"0.001": 22.2817596817,
			"0.002": 11.1083534733,
			"0.003": 7.33282456346,
			"0.004": 8.41510374366,
			"0.005": 8.10465750538,
			"0.006": 9.42898330989,
			"0.007": 8.90925638915,
			"0.008": 3.35419194715,
			"0.009": 1.49224009457,
			"0.01": 1.486946575,
			"0.011": 1.31952696282,
			"0.012": 1.17077707103,
			"0.013": 1.57927804367,
			"0.014": 0.949200488728,
			"0.015": 0.758472741835,
			"0.016": 0.368976042892,
			"0.017": 0.120101069408,
			"0.018": 0.0,
			"0.019": 0.0,
			"0.02": 0.0,
			"0.021": 0.0,
			"0.022": 0.0,
			"0.023": 0.0,
			"0.024": 0.0,
			"0.025": 0.0
		}
	}
}
