{
	 "smiles": "[O-][N+](=O)C1=CC=CC=C1C=CC1=C(C=C(C(C=CC2=C(C=CC=C2)[N+]([O-])=O)=C1)[N+]([O-])=O)[N+]([O-])=O", 
	 "Tm": 564.15, 
	 "num_atms": 48, 
	 "gaussian": { 
		 "optdone": 1, 
		 "sigma_profile": "yes", 
		 "theory": "DFT", 
		 "functional": "B3LYP", 
		 "basiset": "6-31G**", 
		 "properties": { 
			 "R2extent": 19937.5725, 
			 "electric_dipole_moment_norm": 5.17157095958, 
			 "electric_quadrupole_moment_norm": 53.4933864697, 
			 "total_energy": -1667.12141442, 
			 "HOMO_LUMO_gap": 0.13419, 
			 "cosmo_polarized_energy": -24.01, 
			 "cosmo_cavitation_energy": 57.38, 
			 "cosmo_dispersion_energy": -38.37, 
			 "cosmo_repulsion_energy": 2.83, 
			 "cosmo_total_nonelectrostatic_energy": 21.84, 
			 "SMD_solvation_energy": 17.75 
		},
		"coords": [
			{
				"x": -3.0009994957,
				"y": -1.0901750203,
				"z": -3.2199373696,
				"element": "O" 
			},
			{
				"x": -1.9986773167,
				"y": -0.3750931033,
				"z": -3.2149692031,
				"element": "N" 
			},
			{
				"x": -1.806361529,
				"y": 0.5632930792,
				"z": -2.4453613284,
				"element": "O" 
			},
			{
				"x": -0.9763881844,
				"y": -0.6511412997,
				"z": -4.2438928345,
				"element": "C" 
			},
			{
				"x": -1.4670893301,
				"y": -0.8943957332,
				"z": -5.5253908224,
				"element": "C" 
			},
			{
				"x": -0.5780462855,
				"y": -1.0549654164,
				"z": -6.5849152382,
				"element": "C" 
			},
			{
				"x": 0.795218641,
				"y": -0.9795074486,
				"z": -6.3464700751,
				"element": "C" 
			},
			{
				"x": 1.2699792281,
				"y": -0.7635544236,
				"z": -5.0549794256,
				"element": "C" 
			},
			{
				"x": 0.4030893712,
				"y": -0.6095626612,
				"z": -3.9576213308,
				"element": "C" 
			},
			{
				"x": 1.0198572638,
				"y": -0.4830749506,
				"z": -2.6250884483,
				"element": "C" 
			},
			{
				"x": 0.5338966483,
				"y": -1.0187776422,
				"z": -1.4947254438,
				"element": "C" 
			},
			{
				"x": 1.0335585818,
				"y": -0.8589995378,
				"z": -0.1128778071,
				"element": "C" 
			},
			{
				"x": 2.3253959852,
				"y": -1.0999156776,
				"z": 0.4088698414,
				"element": "C" 
			},
			{
				"x": 2.5876050757,
				"y": -0.986290701,
				"z": 1.7688635914,
				"element": "C" 
			},
			{
				"x": 1.59354267,
				"y": -0.5766465054,
				"z": 2.6463690969,
				"element": "C" 
			},
			{
				"x": 0.2732172248,
				"y": -0.3221596539,
				"z": 2.2005009287,
				"element": "C" 
			},
			{
				"x": -0.8502305446,
				"y": 0.0614205796,
				"z": 3.065148352,
				"element": "C" 
			},
			{
				"x": -1.8788108771,
				"y": 0.8257129975,
				"z": 2.6435253702,
				"element": "C" 
			},
			{
				"x": -3.0460337418,
				"y": 1.1418414657,
				"z": 3.4813310543,
				"element": "C" 
			},
			{
				"x": -3.7966649845,
				"y": 2.3359778341,
				"z": 3.388578718,
				"element": "C" 
			},
			{
				"x": -4.9343413896,
				"y": 2.5644166882,
				"z": 4.163621555,
				"element": "C" 
			},
			{
				"x": -5.3521143458,
				"y": 1.6059529743,
				"z": 5.0798235285,
				"element": "C" 
			},
			{
				"x": -4.6340051469,
				"y": 0.4139848225,
				"z": 5.2001118284,
				"element": "C" 
			},
			{
				"x": -3.5148285228,
				"y": 0.1877357699,
				"z": 4.4056798756,
				"element": "C" 
			},
			{
				"x": -3.3990365896,
				"y": 3.4358322207,
				"z": 2.4894574623,
				"element": "N" 
			},
			{
				"x": -2.2402030697,
				"y": 3.4598434793,
				"z": 2.0719956997,
				"element": "O" 
			},
			{
				"x": -4.2493057384,
				"y": 4.283100932,
				"z": 2.2199700938,
				"element": "O" 
			},
			{
				"x": 0.047832723,
				"y": -0.518163776,
				"z": 0.8284056289,
				"element": "C" 
			},
			{
				"x": 2.0108868306,
				"y": -0.4119690237,
				"z": 4.0515938522,
				"element": "N" 
			},
			{
				"x": 3.1033953389,
				"y": -0.8745300559,
				"z": 4.3754803592,
				"element": "O" 
			},
			{
				"x": 1.2565880128,
				"y": 0.1860504703,
				"z": 4.8194578887,
				"element": "O" 
			},
			{
				"x": 3.4628746333,
				"y": -1.5509425903,
				"z": -0.4063700309,
				"element": "N" 
			},
			{
				"x": 3.5662425757,
				"y": -1.1234806815,
				"z": -1.5558424922,
				"element": "O" 
			},
			{
				"x": 4.2603722722,
				"y": -2.320827501,
				"z": 0.1261924635,
				"element": "O" 
			},
			{
				"x": -2.5395353031,
				"y": -0.9332806886,
				"z": -5.6755964803,
				"element": "H" 
			},
			{
				"x": -0.9571414721,
				"y": -1.2272213372,
				"z": -7.5869122742,
				"element": "H" 
			},
			{
				"x": 1.4989801928,
				"y": -1.0960296872,
				"z": -7.1647843685,
				"element": "H" 
			},
			{
				"x": 2.3397411102,
				"y": -0.7375264392,
				"z": -4.8701102217,
				"element": "H" 
			},
			{
				"x": 1.9665208875,
				"y": 0.0419070526,
				"z": -2.6015312856,
				"element": "H" 
			},
			{
				"x": -0.418181553,
				"y": -1.5438652465,
				"z": -1.531930914,
				"element": "H" 
			},
			{
				"x": 3.5740631583,
				"y": -1.2127597736,
				"z": 2.1488558447,
				"element": "H" 
			},
			{
				"x": -0.8018888114,
				"y": -0.2535122093,
				"z": 4.0989393657,
				"element": "H" 
			},
			{
				"x": -1.8498723888,
				"y": 1.2690762116,
				"z": 1.6556428855,
				"element": "H" 
			},
			{
				"x": -5.4645780376,
				"y": 3.4997226493,
				"z": 4.0381767346,
				"element": "H" 
			},
			{
				"x": -6.230721974,
				"y": 1.7870016207,
				"z": 5.6901960709,
				"element": "H" 
			},
			{
				"x": -4.9552186865,
				"y": -0.3488223117,
				"z": 5.9028116788,
				"element": "H" 
			},
			{
				"x": -2.9958116827,
				"y": -0.7622398865,
				"z": 4.4722171758,
				"element": "H" 
			},
			{
				"x": -0.9646714236,
				"y": -0.3956398641,
				"z": 0.4595904494,
				"element": "H" 
			}
		],
		 "valence_orbital": [ 
			{
				"type": "occ",
				"energy": -0.2897,
				"method": "rhf"
			},
			{
				"type": "occ",
				"energy": -0.28371,
				"method": "rhf"
			},
			{
				"type": "occ",
				"energy": -0.2804,
				"method": "rhf"
			},
			{
				"type": "occ",
				"energy": -0.25401,
				"method": "rhf"
			},
			{
				"type": "occ",
				"energy": -0.24995,
				"method": "rhf"
			},
			{
				"type": "unocc",
				"energy": -0.11576,
				"method": "rhf"
			},
			{
				"type": "unocc",
				"energy": -0.09878,
				"method": "rhf"
			},
			{
				"type": "unocc",
				"energy": -0.09483,
				"method": "rhf"
			},
			{
				"type": "unocc",
				"energy": -0.0915,
				"method": "rhf"
			},
			{
				"type": "unocc",
				"energy": -0.06208,
				"method": "rhf"
			}
		],
		"cosmo_sigma_profile": { 
			"-0.025": 0.0,
			"-0.024": 0.0,
			"-0.023": 0.0,
			"-0.022": 0.0,
			"-0.021": 0.0,
			"-0.02": 0.0,
			"-0.019": 0.0,
			"-0.018": 0.0,
			"-0.017": 0.0,
			"-0.016": 0.0,
			"-0.015": 0.0,
			"-0.014": 0.0,
			"-0.013": 0.0,
			"-0.012": 0.0,
			"-0.011": 0.0,
			"-0.01": 0.0107041087515,
			"-0.009": 1.97400357588,
			"-0.008": 13.8806003578,
			"-0.007": 30.5726259387,
			"-0.006": 32.2048783448,
			"-0.005": 27.5554867111,
			"-0.004": 26.3745674017,
			"-0.003": 31.6289426107,
			"-0.002": 32.2122303062,
			"-0.001": 32.9777568536,
			"0.0": 32.5222120931,
			"0.001": 36.9745538293,
			"0.002": 30.402125837,
			"0.003": 13.841072284,
			"0.004": 13.3643073679,
			"0.005": 13.8657440389,
			"0.006": 17.3027422048,
			"0.007": 30.6244829966,
			"0.008": 24.1355530996,
			"0.009": 15.0374175139,
			"0.01": 5.64408048689,
			"0.011": 0.0471242166434,
			"0.012": 0.0,
			"0.013": 0.0,
			"0.014": 0.0,
			"0.015": 0.0,
			"0.016": 0.0,
			"0.017": 0.0,
			"0.018": 0.0,
			"0.019": 0.0,
			"0.02": 0.0,
			"0.021": 0.0,
			"0.022": 0.0,
			"0.023": 0.0,
			"0.024": 0.0,
			"0.025": 0.0
		}
	}
}
