{
	 "smiles": "COC1=CC=C(SCCC(O)=O)C=C1", 
	 "Tm": 355.15, 
	 "num_atms": 26, 
	 "gaussian": { 
		 "optdone": 1, 
		 "sigma_profile": "yes", 
		 "theory": "DFT", 
		 "functional": "B3LYP", 
		 "basiset": "6-31G**", 
		 "properties": { 
			 "R2extent": 3879.7575, 
			 "electric_dipole_moment_norm": 2.23281867155, 
			 "electric_quadrupole_moment_norm": 14.0745590638, 
			 "total_energy": -1012.15720008, 
			 "HOMO_LUMO_gap": 0.20744, 
			 "cosmo_polarized_energy": -13.66, 
			 "cosmo_cavitation_energy": 31.59, 
			 "cosmo_dispersion_energy": -22.16, 
			 "cosmo_repulsion_energy": 1.72, 
			 "cosmo_total_nonelectrostatic_energy": 11.16, 
			 "SMD_solvation_energy": 6.53 
		},
		"coords": [
			{
				"x": 1.4160692201,
				"y": -2.1114664049,
				"z": -2.862255642,
				"element": "C" 
			},
			{
				"x": 0.3705138352,
				"y": -2.4686888124,
				"z": -1.9707605856,
				"element": "O" 
			},
			{
				"x": 0.3207043074,
				"y": -1.8563619485,
				"z": -0.7542192434,
				"element": "C" 
			},
			{
				"x": -0.7213856813,
				"y": -2.2705477345,
				"z": 0.0918841869,
				"element": "C" 
			},
			{
				"x": -0.8562664318,
				"y": -1.7126976801,
				"z": 1.3551486279,
				"element": "C" 
			},
			{
				"x": 0.030776569,
				"y": -0.7161901832,
				"z": 1.7987839417,
				"element": "C" 
			},
			{
				"x": -0.1057589374,
				"y": -0.0439512103,
				"z": 3.4566598696,
				"element": "S" 
			},
			{
				"x": -1.4826981515,
				"y": 1.1751127912,
				"z": 3.3059888161,
				"element": "C" 
			},
			{
				"x": -1.103290108,
				"y": 2.5352632466,
				"z": 2.7014214748,
				"element": "C" 
			},
			{
				"x": -0.8099381941,
				"y": 2.511586276,
				"z": 1.2157906785,
				"element": "C" 
			},
			{
				"x": -1.8293586109,
				"y": 1.958113465,
				"z": 0.5137338381,
				"element": "O" 
			},
			{
				"x": 0.1863245897,
				"y": 2.9489431357,
				"z": 0.6842565608,
				"element": "O" 
			},
			{
				"x": 1.0673764128,
				"y": -0.3131380213,
				"z": 0.9520357851,
				"element": "C" 
			},
			{
				"x": 1.2192932733,
				"y": -0.875251811,
				"z": -0.3188232253,
				"element": "C" 
			},
			{
				"x": 1.2711927246,
				"y": -2.7208239199,
				"z": -3.7555129348,
				"element": "H" 
			},
			{
				"x": 1.3687487813,
				"y": -1.0501740012,
				"z": -3.1380323443,
				"element": "H" 
			},
			{
				"x": 2.4034418294,
				"y": -2.3264159137,
				"z": -2.43435614,
				"element": "H" 
			},
			{
				"x": -1.4010226576,
				"y": -3.0392143571,
				"z": -0.2614381192,
				"element": "H" 
			},
			{
				"x": -1.6516737877,
				"y": -2.0520945989,
				"z": 2.0116054687,
				"element": "H" 
			},
			{
				"x": -2.3047775453,
				"y": 0.7178119242,
				"z": 2.7509700244,
				"element": "H" 
			},
			{
				"x": -1.8161312199,
				"y": 1.3221621645,
				"z": 4.3375054161,
				"element": "H" 
			},
			{
				"x": -1.9488799806,
				"y": 3.2215363295,
				"z": 2.8488965579,
				"element": "H" 
			},
			{
				"x": -0.2305796044,
				"y": 2.9580347749,
				"z": 3.2019595526,
				"element": "H" 
			},
			{
				"x": -1.548358726,
				"y": 1.9577415878,
				"z": -0.4163823114,
				"element": "H" 
			},
			{
				"x": 1.7564093585,
				"y": 0.457935558,
				"z": 1.2792237183,
				"element": "H" 
			},
			{
				"x": 2.0317687354,
				"y": -0.5386246564,
				"z": -0.9515839713,
				"element": "H" 
			}
		],
		 "valence_orbital": [ 
			{
				"type": "occ",
				"energy": -0.30359,
				"method": "rhf"
			},
			{
				"type": "occ",
				"energy": -0.27215,
				"method": "rhf"
			},
			{
				"type": "occ",
				"energy": -0.25583,
				"method": "rhf"
			},
			{
				"type": "occ",
				"energy": -0.23209,
				"method": "rhf"
			},
			{
				"type": "occ",
				"energy": -0.21791,
				"method": "rhf"
			},
			{
				"type": "unocc",
				"energy": -0.01047,
				"method": "rhf"
			},
			{
				"type": "unocc",
				"energy": -0.00658,
				"method": "rhf"
			},
			{
				"type": "unocc",
				"energy": 0.01227,
				"method": "rhf"
			},
			{
				"type": "unocc",
				"energy": 0.05484,
				"method": "rhf"
			},
			{
				"type": "unocc",
				"energy": 0.07156,
				"method": "rhf"
			}
		],
		"cosmo_sigma_profile": { 
			"-0.025": 0.0,
			"-0.024": 0.0,
			"-0.023": 0.0,
			"-0.022": 0.0,
			"-0.021": 0.0,
			"-0.02": 0.0,
			"-0.019": 0.0539248266144,
			"-0.018": 0.473248281792,
			"-0.017": 1.17317211905,
			"-0.016": 0.419638912542,
			"-0.015": 0.265478387438,
			"-0.014": 0.59273541905,
			"-0.013": 0.501128810447,
			"-0.012": 0.972633114466,
			"-0.011": 0.933087529672,
			"-0.01": 0.771322414434,
			"-0.009": 0.455685869595,
			"-0.008": 0.250471305094,
			"-0.007": 5.79180885082,
			"-0.006": 17.4023958035,
			"-0.005": 23.7652871289,
			"-0.004": 25.2328774293,
			"-0.003": 22.0459583367,
			"-0.002": 14.0136148709,
			"-0.001": 10.8283753089,
			"0.0": 10.6616260068,
			"0.001": 13.1778940312,
			"0.002": 16.3088353612,
			"0.003": 16.8838460468,
			"0.004": 16.5908463834,
			"0.005": 14.2778196642,
			"0.006": 7.83935115341,
			"0.007": 4.96670359465,
			"0.008": 6.94397743855,
			"0.009": 5.10599512757,
			"0.01": 4.73522107161,
			"0.011": 2.83820390162,
			"0.012": 4.15178235454,
			"0.013": 1.10959893301,
			"0.014": 0.011322427335,
			"0.015": 0.0,
			"0.016": 0.0,
			"0.017": 0.0,
			"0.018": 0.0,
			"0.019": 0.0,
			"0.02": 0.0,
			"0.021": 0.0,
			"0.022": 0.0,
			"0.023": 0.0,
			"0.024": 0.0,
			"0.025": 0.0
		}
	}
}
