{
	 "smiles": "CC1=CC(=CC(C)=C1)C1OC2=C(Cl)C(Cl)=C(Cl)C(Cl)=C2O1", 
	 "Tm": 433.15, 
	 "num_atms": 31, 
	 "gaussian": { 
		 "optdone": 1, 
		 "sigma_profile": "yes", 
		 "theory": "DFT", 
		 "functional": "B3LYP", 
		 "basiset": "6-31G**", 
		 "properties": { 
			 "R2extent": 11484.1427, 
			 "electric_dipole_moment_norm": 4.10219317317, 
			 "electric_quadrupole_moment_norm": 7.4211212421, 
			 "total_energy": -2568.81466832, 
			 "HOMO_LUMO_gap": 0.19574, 
			 "cosmo_polarized_energy": -6.34, 
			 "cosmo_cavitation_energy": 42.47, 
			 "cosmo_dispersion_energy": -30.33, 
			 "cosmo_repulsion_energy": 2.36, 
			 "cosmo_total_nonelectrostatic_energy": 14.5, 
			 "SMD_solvation_energy": 6.39 
		},
		"coords": [
			{
				"x": -0.0551829261,
				"y": -3.7831981765,
				"z": -2.3247734871,
				"element": "C" 
			},
			{
				"x": 0.2575606483,
				"y": -2.8675367061,
				"z": -1.1642748529,
				"element": "C" 
			},
			{
				"x": 0.4937431287,
				"y": -1.5042576095,
				"z": -1.3743109761,
				"element": "C" 
			},
			{
				"x": 0.748907057,
				"y": -0.655655431,
				"z": -0.2937762665,
				"element": "C" 
			},
			{
				"x": 0.7792002322,
				"y": -1.1640508949,
				"z": 1.0074924075,
				"element": "C" 
			},
			{
				"x": 0.5459796905,
				"y": -2.5237804527,
				"z": 1.2425892872,
				"element": "C" 
			},
			{
				"x": 0.5409978228,
				"y": -3.0725812488,
				"z": 2.6503518443,
				"element": "C" 
			},
			{
				"x": 0.2934310295,
				"y": -3.3574896383,
				"z": 0.1466845088,
				"element": "C" 
			},
			{
				"x": 1.073104218,
				"y": 0.802155045,
				"z": -0.5411139482,
				"element": "C" 
			},
			{
				"x": 0.6631406755,
				"y": 1.6351090893,
				"z": 0.5692820062,
				"element": "O" 
			},
			{
				"x": -0.4241154171,
				"y": 2.3292268922,
				"z": 0.131079821,
				"element": "C" 
			},
			{
				"x": -1.2632723294,
				"y": 3.1511443264,
				"z": 0.8581061686,
				"element": "C" 
			},
			{
				"x": -0.9969904004,
				"y": 3.3562371863,
				"z": 2.5597809454,
				"element": "Cl" 
			},
			{
				"x": -2.3127097575,
				"y": 3.7958297822,
				"z": 0.1592633995,
				"element": "C" 
			},
			{
				"x": -3.3957360546,
				"y": 4.8337029757,
				"z": 1.0365497499,
				"element": "Cl" 
			},
			{
				"x": -2.4810333581,
				"y": 3.5988859057,
				"z": -1.221496823,
				"element": "C" 
			},
			{
				"x": -3.7744994233,
				"y": 4.3906168714,
				"z": -2.0699587926,
				"element": "Cl" 
			},
			{
				"x": -1.6046613454,
				"y": 2.7517173107,
				"z": -1.9423444529,
				"element": "C" 
			},
			{
				"x": -1.753713623,
				"y": 2.4709674807,
				"z": -3.6475168496,
				"element": "Cl" 
			},
			{
				"x": -0.5907453888,
				"y": 2.1342276516,
				"z": -1.2359358745,
				"element": "C" 
			},
			{
				"x": 0.3853999776,
				"y": 1.3101162028,
				"z": -1.7090951962,
				"element": "O" 
			},
			{
				"x": 0.2763971912,
				"y": -4.8069123341,
				"z": -2.1272251577,
				"element": "H" 
			},
			{
				"x": 0.4258638787,
				"y": -3.4413691305,
				"z": -3.2459013598,
				"element": "H" 
			},
			{
				"x": -1.1346929537,
				"y": -3.8215755218,
				"z": -2.5167140417,
				"element": "H" 
			},
			{
				"x": 0.4699844097,
				"y": -1.098967512,
				"z": -2.3812097532,
				"element": "H" 
			},
			{
				"x": 0.9760564821,
				"y": -0.4959991609,
				"z": 1.840319186,
				"element": "H" 
			},
			{
				"x": 0.8503999888,
				"y": -4.121757658,
				"z": 2.6717885229,
				"element": "H" 
			},
			{
				"x": 1.2115790987,
				"y": -2.5065272633,
				"z": 3.3035286466,
				"element": "H" 
			},
			{
				"x": -0.462593642,
				"y": -3.0196583537,
				"z": 3.0904187643,
				"element": "H" 
			},
			{
				"x": 0.120189648,
				"y": -4.4179501276,
				"z": 0.3189285997,
				"element": "H" 
			},
			{
				"x": 2.1432114422,
				"y": 0.9725304997,
				"z": -0.6959160258,
				"element": "H" 
			}
		],
		 "valence_orbital": [ 
			{
				"type": "occ",
				"energy": -0.29829,
				"method": "rhf"
			},
			{
				"type": "occ",
				"energy": -0.25467,
				"method": "rhf"
			},
			{
				"type": "occ",
				"energy": -0.25067,
				"method": "rhf"
			},
			{
				"type": "occ",
				"energy": -0.24652,
				"method": "rhf"
			},
			{
				"type": "occ",
				"energy": -0.22975,
				"method": "rhf"
			},
			{
				"type": "unocc",
				"energy": -0.03401,
				"method": "rhf"
			},
			{
				"type": "unocc",
				"energy": -0.03194,
				"method": "rhf"
			},
			{
				"type": "unocc",
				"energy": -0.02603,
				"method": "rhf"
			},
			{
				"type": "unocc",
				"energy": -0.01898,
				"method": "rhf"
			},
			{
				"type": "unocc",
				"energy": -0.01001,
				"method": "rhf"
			}
		],
		"cosmo_sigma_profile": { 
			"-0.025": 0.0,
			"-0.024": 0.0,
			"-0.023": 0.0,
			"-0.022": 0.0,
			"-0.021": 0.0,
			"-0.02": 0.0,
			"-0.019": 0.0,
			"-0.018": 0.0,
			"-0.017": 0.0,
			"-0.016": 0.0,
			"-0.015": 0.0,
			"-0.014": 0.0,
			"-0.013": 0.0,
			"-0.012": 0.0,
			"-0.011": 0.0,
			"-0.01": 0.924761008073,
			"-0.009": 2.49771633655,
			"-0.008": 2.24500660748,
			"-0.007": 1.58222874373,
			"-0.006": 1.89124177697,
			"-0.005": 8.10064322259,
			"-0.004": 26.9890910431,
			"-0.003": 29.6234639407,
			"-0.002": 38.3289154035,
			"-0.001": 47.6633878279,
			"0.0": 37.0746872207,
			"0.001": 30.4755631813,
			"0.002": 33.3036504639,
			"0.003": 41.628219467,
			"0.004": 28.0926363873,
			"0.005": 11.5268225889,
			"0.006": 4.78250780123,
			"0.007": 1.78653237529,
			"0.008": 0.365584558743,
			"0.009": 0.0,
			"0.01": 0.0,
			"0.011": 0.0,
			"0.012": 0.0,
			"0.013": 0.0,
			"0.014": 0.0,
			"0.015": 0.0,
			"0.016": 0.0,
			"0.017": 0.0,
			"0.018": 0.0,
			"0.019": 0.0,
			"0.02": 0.0,
			"0.021": 0.0,
			"0.022": 0.0,
			"0.023": 0.0,
			"0.024": 0.0,
			"0.025": 0.0
		}
	}
}
