{
	 "smiles": "CSCCC(NS(=O)(=O)C1=CC=C(C)C=C1)C(O)=O", 
	 "Tm": 379.15, 
	 "num_atms": 36, 
	 "gaussian": { 
		 "optdone": 1, 
		 "sigma_profile": "yes", 
		 "theory": "DFT", 
		 "functional": "B3LYP", 
		 "basiset": "6-31G**", 
		 "properties": { 
			 "R2extent": 6910.0423, 
			 "electric_dipole_moment_norm": 6.08637773721, 
			 "electric_quadrupole_moment_norm": 23.5375125298, 
			 "total_energy": -1619.49672888, 
			 "HOMO_LUMO_gap": 0.21438, 
			 "cosmo_polarized_energy": -21.89, 
			 "cosmo_cavitation_energy": 41.74, 
			 "cosmo_dispersion_energy": -28.41, 
			 "cosmo_repulsion_energy": 2.12, 
			 "cosmo_total_nonelectrostatic_energy": 15.44, 
			 "SMD_solvation_energy": 6.86 
		},
		"coords": [
			{
				"x": -1.1022566605,
				"y": -0.5406860872,
				"z": 2.9239581954,
				"element": "C" 
			},
			{
				"x": 0.6881129367,
				"y": -0.6474584978,
				"z": 3.284925524,
				"element": "S" 
			},
			{
				"x": 1.3181533647,
				"y": -1.6027904347,
				"z": 1.827523936,
				"element": "C" 
			},
			{
				"x": 2.3638157979,
				"y": -0.8415440211,
				"z": 1.0094596864,
				"element": "C" 
			},
			{
				"x": 1.8139738124,
				"y": 0.4239406376,
				"z": 0.2836775735,
				"element": "C" 
			},
			{
				"x": 2.1131917281,
				"y": 0.3970525579,
				"z": -1.1463883621,
				"element": "N" 
			},
			{
				"x": 0.9689276784,
				"y": -0.2096762992,
				"z": -2.2043788633,
				"element": "S" 
			},
			{
				"x": 1.5883720917,
				"y": -0.169340815,
				"z": -3.5273463928,
				"element": "O" 
			},
			{
				"x": 0.4831999003,
				"y": -1.4537242949,
				"z": -1.5936944806,
				"element": "O" 
			},
			{
				"x": -0.4062381667,
				"y": 0.9467609187,
				"z": -2.2035051173,
				"element": "C" 
			},
			{
				"x": -1.5731222358,
				"y": 0.6387318069,
				"z": -1.5038081413,
				"element": "C" 
			},
			{
				"x": -2.624824494,
				"y": 1.5573297965,
				"z": -1.4925863871,
				"element": "C" 
			},
			{
				"x": -2.5273115604,
				"y": 2.7785704099,
				"z": -2.1698500933,
				"element": "C" 
			},
			{
				"x": -3.6581024366,
				"y": 3.7781803604,
				"z": -2.146346897,
				"element": "C" 
			},
			{
				"x": -1.3456481235,
				"y": 3.0577558765,
				"z": -2.8772474011,
				"element": "C" 
			},
			{
				"x": -0.2891101271,
				"y": 2.1539428473,
				"z": -2.9010911997,
				"element": "C" 
			},
			{
				"x": 2.3879012511,
				"y": 1.7413600224,
				"z": 0.8409803436,
				"element": "C" 
			},
			{
				"x": 2.2115579102,
				"y": 1.9514794067,
				"z": 2.1475573332,
				"element": "O" 
			},
			{
				"x": 2.9593787441,
				"y": 2.5456408192,
				"z": 0.1371882769,
				"element": "O" 
			},
			{
				"x": -1.5516511925,
				"y": 0.0327249448,
				"z": 3.7374296141,
				"element": "H" 
			},
			{
				"x": -1.2950532766,
				"y": -0.0295912381,
				"z": 1.9780736588,
				"element": "H" 
			},
			{
				"x": -1.5459681164,
				"y": -1.5381761296,
				"z": 2.9070947207,
				"element": "H" 
			},
			{
				"x": 1.7444436836,
				"y": -2.5321680083,
				"z": 2.2125441775,
				"element": "H" 
			},
			{
				"x": 0.4645989623,
				"y": -1.8615048922,
				"z": 1.195322534,
				"element": "H" 
			},
			{
				"x": 3.2224551549,
				"y": -0.5847415013,
				"z": 1.6403908224,
				"element": "H" 
			},
			{
				"x": 2.7338779042,
				"y": -1.5137603519,
				"z": 0.2314676067,
				"element": "H" 
			},
			{
				"x": 0.72669924,
				"y": 0.477197174,
				"z": 0.4460186624,
				"element": "H" 
			},
			{
				"x": 2.5592401851,
				"y": 1.2593787157,
				"z": -1.4627009895,
				"element": "H" 
			},
			{
				"x": -1.6600015477,
				"y": -0.3208667482,
				"z": -1.006056056,
				"element": "H" 
			},
			{
				"x": -3.5387025859,
				"y": 1.3151463103,
				"z": -0.956603798,
				"element": "H" 
			},
			{
				"x": -3.9181279285,
				"y": 4.1072909713,
				"z": -3.1579586679,
				"element": "H" 
			},
			{
				"x": -3.3793608521,
				"y": 4.6737781834,
				"z": -1.5785708489,
				"element": "H" 
			},
			{
				"x": -4.5560038819,
				"y": 3.3579286062,
				"z": -1.6860215606,
				"element": "H" 
			},
			{
				"x": -1.2576928723,
				"y": 3.9938360748,
				"z": -3.4224758519,
				"element": "H" 
			},
			{
				"x": 0.6094560473,
				"y": 2.369521605,
				"z": -3.4700883377,
				"element": "H" 
			},
			{
				"x": 1.6855196656,
				"y": 1.2288812737,
				"z": 2.5673067802,
				"element": "H" 
			}
		],
		 "valence_orbital": [ 
			{
				"type": "occ",
				"energy": -0.28997,
				"method": "rhf"
			},
			{
				"type": "occ",
				"energy": -0.28309,
				"method": "rhf"
			},
			{
				"type": "occ",
				"energy": -0.27445,
				"method": "rhf"
			},
			{
				"type": "occ",
				"energy": -0.26124,
				"method": "rhf"
			},
			{
				"type": "occ",
				"energy": -0.25513,
				"method": "rhf"
			},
			{
				"type": "unocc",
				"energy": -0.04075,
				"method": "rhf"
			},
			{
				"type": "unocc",
				"energy": -0.02728,
				"method": "rhf"
			},
			{
				"type": "unocc",
				"energy": 0.00043,
				"method": "rhf"
			},
			{
				"type": "unocc",
				"energy": 0.00982,
				"method": "rhf"
			},
			{
				"type": "unocc",
				"energy": 0.04394,
				"method": "rhf"
			}
		],
		"cosmo_sigma_profile": { 
			"-0.025": 0.0,
			"-0.024": 0.0,
			"-0.023": 0.0,
			"-0.022": 0.0,
			"-0.021": 0.0,
			"-0.02": 0.0,
			"-0.019": 0.0,
			"-0.018": 0.0,
			"-0.017": 0.0,
			"-0.016": 0.0,
			"-0.015": 0.0,
			"-0.014": 0.0,
			"-0.013": 0.0,
			"-0.012": 0.0533278441466,
			"-0.011": 1.52539722901,
			"-0.01": 1.72247348052,
			"-0.009": 1.84634570025,
			"-0.008": 3.24589249676,
			"-0.007": 8.41738078166,
			"-0.006": 22.7630801572,
			"-0.005": 32.3893554946,
			"-0.004": 34.7851566824,
			"-0.003": 27.7968523511,
			"-0.002": 28.3666904632,
			"-0.001": 23.4743643913,
			"0.0": 19.2552303065,
			"0.001": 15.1066322215,
			"0.002": 14.3600521901,
			"0.003": 18.7149422542,
			"0.004": 9.90734317947,
			"0.005": 7.18230792249,
			"0.006": 7.5623917674,
			"0.007": 7.53584855186,
			"0.008": 7.78747482058,
			"0.009": 8.4697510772,
			"0.01": 11.6924548002,
			"0.011": 12.0077300244,
			"0.012": 5.66762921622,
			"0.013": 0.343345135767,
			"0.014": 0.0,
			"0.015": 0.0,
			"0.016": 0.0,
			"0.017": 0.0,
			"0.018": 0.0,
			"0.019": 0.0,
			"0.02": 0.0,
			"0.021": 0.0,
			"0.022": 0.0,
			"0.023": 0.0,
			"0.024": 0.0,
			"0.025": 0.0
		}
	}
}
