{
	 "smiles": "NC1=C(C=CC=C1)S(=O)(=O)C(F)F", 
	 "Tm": 339.15, 
	 "num_atms": 20, 
	 "gaussian": { 
		 "optdone": 1, 
		 "sigma_profile": "yes", 
		 "theory": "DFT", 
		 "functional": "B3LYP", 
		 "basiset": "6-31G**", 
		 "properties": { 
			 "R2extent": 2898.3914, 
			 "electric_dipole_moment_norm": 3.5649468846, 
			 "electric_quadrupole_moment_norm": 15.7104030092, 
			 "total_energy": -1073.9483233, 
			 "HOMO_LUMO_gap": 0.17933, 
			 "cosmo_polarized_energy": -13.03, 
			 "cosmo_cavitation_energy": 25.82, 
			 "cosmo_dispersion_energy": -19.26, 
			 "cosmo_repulsion_energy": 1.44, 
			 "cosmo_total_nonelectrostatic_energy": 8.01, 
			 "SMD_solvation_energy": 4.63 
		},
		"coords": [
			{
				"x": 1.8655583898,
				"y": -0.062324192,
				"z": -0.1023774143,
				"element": "N" 
			},
			{
				"x": 0.7047408409,
				"y": 0.4104704257,
				"z": 0.4499804803,
				"element": "C" 
			},
			{
				"x": -0.2428707951,
				"y": 1.1956437828,
				"z": -0.2612885408,
				"element": "C" 
			},
			{
				"x": -1.4331175147,
				"y": 1.6354388874,
				"z": 0.3401322833,
				"element": "C" 
			},
			{
				"x": -1.7206786997,
				"y": 1.307349408,
				"z": 1.6558414499,
				"element": "C" 
			},
			{
				"x": -0.8010706508,
				"y": 0.5275320109,
				"z": 2.3716024913,
				"element": "C" 
			},
			{
				"x": 0.3784931263,
				"y": 0.0929551684,
				"z": 1.7892804158,
				"element": "C" 
			},
			{
				"x": -0.0028002099,
				"y": 1.6602916934,
				"z": -1.958590449,
				"element": "S" 
			},
			{
				"x": -0.8540508159,
				"y": 2.8091607528,
				"z": -2.2908562314,
				"element": "O" 
			},
			{
				"x": 1.4387982997,
				"y": 1.6715485351,
				"z": -2.2847853261,
				"element": "O" 
			},
			{
				"x": -0.7067234515,
				"y": 0.2348305328,
				"z": -2.9270177544,
				"element": "C" 
			},
			{
				"x": -2.0099156185,
				"y": 0.0995977284,
				"z": -2.6083107139,
				"element": "F" 
			},
			{
				"x": -0.0448232097,
				"y": -0.8902600464,
				"z": -2.5865447948,
				"element": "F" 
			},
			{
				"x": 2.2036282339,
				"y": 0.3890738702,
				"z": -0.9428603884,
				"element": "H" 
			},
			{
				"x": 2.5640376736,
				"y": -0.4131951604,
				"z": 0.5337771965,
				"element": "H" 
			},
			{
				"x": -2.1103153019,
				"y": 2.2488732183,
				"z": -0.2437947014,
				"element": "H" 
			},
			{
				"x": -2.6382993877,
				"y": 1.6508970567,
				"z": 2.1203426287,
				"element": "H" 
			},
			{
				"x": -1.0073200203,
				"y": 0.2604594505,
				"z": 3.4043279882,
				"element": "H" 
			},
			{
				"x": 1.0811813456,
				"y": -0.505422468,
				"z": 2.3633343547,
				"element": "H" 
			},
			{
				"x": -0.5855522341,
				"y": 0.4527793455,
				"z": -3.994192974,
				"element": "H" 
			}
		],
		 "valence_orbital": [ 
			{
				"type": "occ",
				"energy": -0.32508,
				"method": "rhf"
			},
			{
				"type": "occ",
				"energy": -0.31302,
				"method": "rhf"
			},
			{
				"type": "occ",
				"energy": -0.29296,
				"method": "rhf"
			},
			{
				"type": "occ",
				"energy": -0.27611,
				"method": "rhf"
			},
			{
				"type": "occ",
				"energy": -0.22191,
				"method": "rhf"
			},
			{
				"type": "unocc",
				"energy": -0.04258,
				"method": "rhf"
			},
			{
				"type": "unocc",
				"energy": -0.00502,
				"method": "rhf"
			},
			{
				"type": "unocc",
				"energy": 0.05489,
				"method": "rhf"
			},
			{
				"type": "unocc",
				"energy": 0.05887,
				"method": "rhf"
			},
			{
				"type": "unocc",
				"energy": 0.06818,
				"method": "rhf"
			}
		],
		"cosmo_sigma_profile": { 
			"-0.025": 0.0,
			"-0.024": 0.0,
			"-0.023": 0.0,
			"-0.022": 0.0,
			"-0.021": 0.0,
			"-0.02": 0.0,
			"-0.019": 0.0,
			"-0.018": 0.0,
			"-0.017": 0.0,
			"-0.016": 0.0,
			"-0.015": 0.00538269698642,
			"-0.014": 0.816536603785,
			"-0.013": 2.90713438102,
			"-0.012": 4.00079243727,
			"-0.011": 3.46503322108,
			"-0.01": 3.19054185676,
			"-0.009": 4.36771552722,
			"-0.008": 3.24428315794,
			"-0.007": 5.51882533063,
			"-0.006": 9.79355487203,
			"-0.005": 10.4215177444,
			"-0.004": 9.52752181712,
			"-0.003": 7.85078096741,
			"-0.002": 7.90814300547,
			"-0.001": 10.2570438043,
			"0.0": 13.1732895579,
			"0.001": 16.1864989753,
			"0.002": 25.244666363,
			"0.003": 21.5212817063,
			"0.004": 12.6828995867,
			"0.005": 3.84650738396,
			"0.006": 4.69368661229,
			"0.007": 4.00106010161,
			"0.008": 4.36697387603,
			"0.009": 5.04517033878,
			"0.01": 7.4444111641,
			"0.011": 5.14965142957,
			"0.012": 0.0717033750301,
			"0.013": 0.0,
			"0.014": 0.0,
			"0.015": 0.0,
			"0.016": 0.0,
			"0.017": 0.0,
			"0.018": 0.0,
			"0.019": 0.0,
			"0.02": 0.0,
			"0.021": 0.0,
			"0.022": 0.0,
			"0.023": 0.0,
			"0.024": 0.0,
			"0.025": 0.0
		}
	}
}
