{
	 "smiles": "OC1=CC=CC(=C1)C1=CC=CC=C1", 
	 "Tm": 351.15, 
	 "num_atms": 23, 
	 "gaussian": { 
		 "optdone": 1, 
		 "sigma_profile": "yes", 
		 "theory": "DFT", 
		 "functional": "B3LYP", 
		 "basiset": "6-31G**", 
		 "properties": { 
			 "R2extent": 3213.3492, 
			 "electric_dipole_moment_norm": 1.31241373431, 
			 "electric_quadrupole_moment_norm": 10.2050249382, 
			 "total_energy": -538.531277593, 
			 "HOMO_LUMO_gap": 0.18932, 
			 "cosmo_polarized_energy": -9.42, 
			 "cosmo_cavitation_energy": 26.87, 
			 "cosmo_dispersion_energy": -19.9, 
			 "cosmo_repulsion_energy": 1.56, 
			 "cosmo_total_nonelectrostatic_energy": 8.53, 
			 "SMD_solvation_energy": 4.71 
		},
		"coords": [
			{
				"x": -1.4258089533,
				"y": -1.44190455,
				"z": 4.3389437741,
				"element": "O" 
			},
			{
				"x": -1.2576321473,
				"y": -0.4886624908,
				"z": 3.3736816264,
				"element": "C" 
			},
			{
				"x": -1.2944305105,
				"y": 0.8500845781,
				"z": 3.7791433542,
				"element": "C" 
			},
			{
				"x": -1.1375645815,
				"y": 1.8509282035,
				"z": 2.8241123916,
				"element": "C" 
			},
			{
				"x": -0.9457474864,
				"y": 1.5366097331,
				"z": 1.477855921,
				"element": "C" 
			},
			{
				"x": -0.9071913672,
				"y": 0.196018881,
				"z": 1.062983418,
				"element": "C" 
			},
			{
				"x": -1.0660437706,
				"y": -0.81166892,
				"z": 2.0282714233,
				"element": "C" 
			},
			{
				"x": -0.7017216991,
				"y": -0.1563937084,
				"z": -0.3658843646,
				"element": "C" 
			},
			{
				"x": -1.3001714459,
				"y": 0.6007507533,
				"z": -1.3874782417,
				"element": "C" 
			},
			{
				"x": -1.1085815307,
				"y": 0.2725866672,
				"z": -2.7288851396,
				"element": "C" 
			},
			{
				"x": -0.3147655806,
				"y": -0.8212271834,
				"z": -3.0794504591,
				"element": "C" 
			},
			{
				"x": 0.2866188641,
				"y": -1.5828343879,
				"z": -2.075747596,
				"element": "C" 
			},
			{
				"x": 0.0956107234,
				"y": -1.2533591164,
				"z": -0.7344512739,
				"element": "C" 
			},
			{
				"x": -1.3857939975,
				"y": -2.3160198401,
				"z": 3.9297624279,
				"element": "H" 
			},
			{
				"x": -1.445753036,
				"y": 1.0796739239,
				"z": 4.8284804801,
				"element": "H" 
			},
			{
				"x": -1.1569307283,
				"y": 2.8916420754,
				"z": 3.1351626325,
				"element": "H" 
			},
			{
				"x": -0.7956829646,
				"y": 2.3287050366,
				"z": 0.7516403466,
				"element": "H" 
			},
			{
				"x": -1.0701559581,
				"y": -1.8552050233,
				"z": 1.7206330086,
				"element": "H" 
			},
			{
				"x": -1.9403697992,
				"y": 1.4373772138,
				"z": -1.1239813874,
				"element": "H" 
			},
			{
				"x": -1.5877050841,
				"y": 0.867464803,
				"z": -3.5015048323,
				"element": "H" 
			},
			{
				"x": -0.1658031553,
				"y": -1.077182685,
				"z": -4.1244544631,
				"element": "H" 
			},
			{
				"x": 0.9142631373,
				"y": -2.4302345865,
				"z": -2.3373237484,
				"element": "H" 
			},
			{
				"x": 0.5914610714,
				"y": -1.8348493772,
				"z": 0.0373907015,
				"element": "H" 
			}
		],
		 "valence_orbital": [ 
			{
				"type": "occ",
				"energy": -0.33011,
				"method": "rhf"
			},
			{
				"type": "occ",
				"energy": -0.26967,
				"method": "rhf"
			},
			{
				"type": "occ",
				"energy": -0.25042,
				"method": "rhf"
			},
			{
				"type": "occ",
				"energy": -0.23259,
				"method": "rhf"
			},
			{
				"type": "occ",
				"energy": -0.21564,
				"method": "rhf"
			},
			{
				"type": "unocc",
				"energy": -0.02632,
				"method": "rhf"
			},
			{
				"type": "unocc",
				"energy": -0.00218,
				"method": "rhf"
			},
			{
				"type": "unocc",
				"energy": 0.00906,
				"method": "rhf"
			},
			{
				"type": "unocc",
				"energy": 0.03356,
				"method": "rhf"
			},
			{
				"type": "unocc",
				"energy": 0.0712,
				"method": "rhf"
			}
		],
		"cosmo_sigma_profile": { 
			"-0.025": 0.0,
			"-0.024": 0.0,
			"-0.023": 0.0,
			"-0.022": 0.0,
			"-0.021": 0.0,
			"-0.02": 0.0,
			"-0.019": 0.0,
			"-0.018": 0.371938495175,
			"-0.017": 0.893752505948,
			"-0.016": 1.2944802226,
			"-0.015": 1.25875940506,
			"-0.014": 0.528620137048,
			"-0.013": 0.896349269225,
			"-0.012": 0.780599157205,
			"-0.011": 1.14828564594,
			"-0.01": 1.34084701967,
			"-0.009": 0.983062306591,
			"-0.008": 1.06569456111,
			"-0.007": 1.05684025044,
			"-0.006": 7.15817346932,
			"-0.005": 18.5724048553,
			"-0.004": 18.9388210349,
			"-0.003": 17.2811028859,
			"-0.002": 12.375237408,
			"-0.001": 12.2277816965,
			"0.0": 10.5943002225,
			"0.001": 12.2539284981,
			"0.002": 14.1325776946,
			"0.003": 17.5880511591,
			"0.004": 19.6895825322,
			"0.005": 20.4963783791,
			"0.006": 12.924756021,
			"0.007": 1.70470130764,
			"0.008": 1.631142923,
			"0.009": 1.61664886025,
			"0.01": 1.265605447,
			"0.011": 2.19734874974,
			"0.012": 0.78527808183,
			"0.013": 0.0,
			"0.014": 0.0,
			"0.015": 0.0,
			"0.016": 0.0,
			"0.017": 0.0,
			"0.018": 0.0,
			"0.019": 0.0,
			"0.02": 0.0,
			"0.021": 0.0,
			"0.022": 0.0,
			"0.023": 0.0,
			"0.024": 0.0,
			"0.025": 0.0
		}
	}
}
