{
	 "smiles": "C[C@]12CC(=O)[C@H]3[C@@H](CCC4=CC(=O)C=C[C@]34C)[C@@H]1CC[C@]2(O)C(=O)CO", 
	 "Tm": 509.15, 
	 "num_atms": 52, 
	 "gaussian": { 
		 "optdone": 1, 
		 "sigma_profile": "yes", 
		 "theory": "DFT", 
		 "functional": "B3LYP", 
		 "basiset": "6-31G**", 
		 "properties": { 
			 "R2extent": 10884.9845, 
			 "electric_dipole_moment_norm": 6.10357756238, 
			 "electric_quadrupole_moment_norm": 33.4477199265, 
			 "total_energy": -1191.99067291, 
			 "HOMO_LUMO_gap": 0.17469, 
			 "cosmo_polarized_energy": -23.28, 
			 "cosmo_cavitation_energy": 47.62, 
			 "cosmo_dispersion_energy": -33.03, 
			 "cosmo_repulsion_energy": 2.4, 
			 "cosmo_total_nonelectrostatic_energy": 16.99, 
			 "SMD_solvation_energy": 8.64 
		},
		"coords": [
			{
				"x": 1.4388533491,
				"y": -0.8389610894,
				"z": 1.4692395333,
				"element": "C" 
			},
			{
				"x": 0.6805079031,
				"y": 0.5048621053,
				"z": 1.5163492645,
				"element": "C" 
			},
			{
				"x": -0.7791606003,
				"y": 0.2464732378,
				"z": 1.9277104319,
				"element": "C" 
			},
			{
				"x": -1.4900351061,
				"y": -0.5224769276,
				"z": 0.8147182011,
				"element": "C" 
			},
			{
				"x": -2.0366858218,
				"y": -1.5860262005,
				"z": 1.0474927412,
				"element": "O" 
			},
			{
				"x": -1.4483425187,
				"y": 0.1326972699,
				"z": -0.5789042848,
				"element": "C" 
			},
			{
				"x": 0.0276616027,
				"y": 0.4719495262,
				"z": -0.9820465396,
				"element": "C" 
			},
			{
				"x": 0.0585495302,
				"y": 1.2530439375,
				"z": -2.3044659163,
				"element": "C" 
			},
			{
				"x": -0.7025897629,
				"y": 0.519165874,
				"z": -3.4228186195,
				"element": "C" 
			},
			{
				"x": -2.1107006212,
				"y": 0.2104048361,
				"z": -2.9833968063,
				"element": "C" 
			},
			{
				"x": -3.1732925268,
				"y": 0.6909758223,
				"z": -3.6559031349,
				"element": "C" 
			},
			{
				"x": -4.5689931116,
				"y": 0.4868596152,
				"z": -3.2262924504,
				"element": "C" 
			},
			{
				"x": -5.5199382661,
				"y": 0.9297639192,
				"z": -3.8669216496,
				"element": "O" 
			},
			{
				"x": -4.7448920189,
				"y": -0.2729192076,
				"z": -1.9736695653,
				"element": "C" 
			},
			{
				"x": -3.701702769,
				"y": -0.7619674644,
				"z": -1.2878414319,
				"element": "C" 
			},
			{
				"x": -2.2553404827,
				"y": -0.6162438491,
				"z": -1.7092625577,
				"element": "C" 
			},
			{
				"x": -1.708964641,
				"y": -2.0544587069,
				"z": -1.9646836136,
				"element": "C" 
			},
			{
				"x": 0.6870769252,
				"y": 1.2557708351,
				"z": 0.1597586081,
				"element": "C" 
			},
			{
				"x": 2.1409410618,
				"y": 1.7372788282,
				"z": 0.0070218107,
				"element": "C" 
			},
			{
				"x": 2.5949668245,
				"y": 2.0444138039,
				"z": 1.4657329327,
				"element": "C" 
			},
			{
				"x": 1.4410543531,
				"y": 1.5801090746,
				"z": 2.397766723,
				"element": "C" 
			},
			{
				"x": 0.5926481088,
				"y": 2.697068234,
				"z": 2.6285378687,
				"element": "O" 
			},
			{
				"x": 1.8445384741,
				"y": 1.0329204758,
				"z": 3.7694519039,
				"element": "C" 
			},
			{
				"x": 1.0506483613,
				"y": 1.1430751982,
				"z": 4.6968836493,
				"element": "O" 
			},
			{
				"x": 3.1982112201,
				"y": 0.4041959962,
				"z": 4.0557221083,
				"element": "C" 
			},
			{
				"x": 3.2212449813,
				"y": -0.217974617,
				"z": 5.3072104832,
				"element": "O" 
			},
			{
				"x": 0.9652872968,
				"y": -1.5368995298,
				"z": 0.7735942965,
				"element": "H" 
			},
			{
				"x": 1.4271587634,
				"y": -1.3283178711,
				"z": 2.4484225809,
				"element": "H" 
			},
			{
				"x": 2.4808814435,
				"y": -0.7284529672,
				"z": 1.1566340427,
				"element": "H" 
			},
			{
				"x": -0.8663439797,
				"y": -0.3378137126,
				"z": 2.8477441916,
				"element": "H" 
			},
			{
				"x": -1.2819303784,
				"y": 1.2100953536,
				"z": 2.0718820046,
				"element": "H" 
			},
			{
				"x": -1.9457211451,
				"y": 1.1067142929,
				"z": -0.4431710395,
				"element": "H" 
			},
			{
				"x": 0.5733694688,
				"y": -0.4686551386,
				"z": -1.136251193,
				"element": "H" 
			},
			{
				"x": -0.3946316599,
				"y": 2.2417620281,
				"z": -2.1496939874,
				"element": "H" 
			},
			{
				"x": 1.0967080785,
				"y": 1.4226065127,
				"z": -2.611694206,
				"element": "H" 
			},
			{
				"x": -0.720125018,
				"y": 1.1254838906,
				"z": -4.3336016548,
				"element": "H" 
			},
			{
				"x": -0.1674078171,
				"y": -0.4079533054,
				"z": -3.6693712566,
				"element": "H" 
			},
			{
				"x": -3.0428730421,
				"y": 1.2770755299,
				"z": -4.5627225918,
				"element": "H" 
			},
			{
				"x": -5.768165118,
				"y": -0.4240213237,
				"z": -1.6411480876,
				"element": "H" 
			},
			{
				"x": -3.8627253828,
				"y": -1.3351867366,
				"z": -0.3807483785,
				"element": "H" 
			},
			{
				"x": -2.2474642851,
				"y": -2.5059454015,
				"z": -2.8025352697,
				"element": "H" 
			},
			{
				"x": -1.852583083,
				"y": -2.6729018213,
				"z": -1.0784039344,
				"element": "H" 
			},
			{
				"x": -0.6442267546,
				"y": -2.0500001644,
				"z": -2.2130523172,
				"element": "H" 
			},
			{
				"x": 0.0773116872,
				"y": 2.1547474918,
				"z": 0.3224940467,
				"element": "H" 
			},
			{
				"x": 2.2182425033,
				"y": 2.618771353,
				"z": -0.6341227339,
				"element": "H" 
			},
			{
				"x": 2.7701868312,
				"y": 0.9605834039,
				"z": -0.4424221073,
				"element": "H" 
			},
			{
				"x": 2.7522198019,
				"y": 3.111535275,
				"z": 1.6366412898,
				"element": "H" 
			},
			{
				"x": 3.5340576144,
				"y": 1.5349225928,
				"z": 1.6960509363,
				"element": "H" 
			},
			{
				"x": 0.1647071782,
				"y": 2.5303445724,
				"z": 3.4857179433,
				"element": "H" 
			},
			{
				"x": 3.471581269,
				"y": -0.3134015399,
				"z": 3.273185043,
				"element": "H" 
			},
			{
				"x": 3.9341413945,
				"y": 1.228766062,
				"z": 3.9881650361,
				"element": "H" 
			},
			{
				"x": 2.4427798848,
				"y": 0.1192406265,
				"z": 5.783017656,
				"element": "H" 
			}
		],
		 "valence_orbital": [ 
			{
				"type": "occ",
				"energy": -0.27695,
				"method": "rhf"
			},
			{
				"type": "occ",
				"energy": -0.26699,
				"method": "rhf"
			},
			{
				"type": "occ",
				"energy": -0.26092,
				"method": "rhf"
			},
			{
				"type": "occ",
				"energy": -0.25118,
				"method": "rhf"
			},
			{
				"type": "occ",
				"energy": -0.23094,
				"method": "rhf"
			},
			{
				"type": "unocc",
				"energy": -0.05625,
				"method": "rhf"
			},
			{
				"type": "unocc",
				"energy": -0.05407,
				"method": "rhf"
			},
			{
				"type": "unocc",
				"energy": -0.03426,
				"method": "rhf"
			},
			{
				"type": "unocc",
				"energy": 0.00086,
				"method": "rhf"
			},
			{
				"type": "unocc",
				"energy": 0.05462,
				"method": "rhf"
			}
		],
		"cosmo_sigma_profile": { 
			"-0.025": 0.0,
			"-0.024": 0.0,
			"-0.023": 0.0,
			"-0.022": 0.0,
			"-0.021": 0.0,
			"-0.02": 0.0,
			"-0.019": 0.0,
			"-0.018": 0.0,
			"-0.017": 0.0,
			"-0.016": 0.0,
			"-0.015": 0.0,
			"-0.014": 0.0,
			"-0.013": 0.0,
			"-0.012": 0.310894990549,
			"-0.011": 1.03202847553,
			"-0.01": 1.31795920212,
			"-0.009": 1.58282697135,
			"-0.008": 2.38562980987,
			"-0.007": 9.40625669564,
			"-0.006": 19.1937928221,
			"-0.005": 26.6652167608,
			"-0.004": 33.4992898137,
			"-0.003": 43.3664815547,
			"-0.002": 41.3255100303,
			"-0.001": 36.5220259753,
			"0.0": 31.7838186011,
			"0.001": 20.3470608539,
			"0.002": 15.2267863895,
			"0.003": 11.3669108903,
			"0.004": 8.55556609471,
			"0.005": 7.19152000208,
			"0.006": 5.69402917785,
			"0.007": 5.45758392838,
			"0.008": 7.62780999652,
			"0.009": 6.15838186686,
			"0.01": 5.92413845016,
			"0.011": 6.76338903594,
			"0.012": 6.65491499523,
			"0.013": 8.57493139656,
			"0.014": 5.19818360936,
			"0.015": 1.24859111866,
			"0.016": 0.0,
			"0.017": 0.0,
			"0.018": 0.0,
			"0.019": 0.0,
			"0.02": 0.0,
			"0.021": 0.0,
			"0.022": 0.0,
			"0.023": 0.0,
			"0.024": 0.0,
			"0.025": 0.0
		}
	}
}
