{
	 "smiles": "SC1=NC=CN1CC1=NC=CC=C1", 
	 "Tm": 447.15, 
	 "num_atms": 22, 
	 "gaussian": { 
		 "optdone": 1, 
		 "sigma_profile": "yes", 
		 "theory": "DFT", 
		 "functional": "B3LYP", 
		 "basiset": "6-31G**", 
		 "properties": { 
			 "R2extent": 4120.9461, 
			 "electric_dipole_moment_norm": 3.66159832996, 
			 "electric_quadrupole_moment_norm": 11.467381641, 
			 "total_energy": -910.804082208, 
			 "HOMO_LUMO_gap": 0.16616, 
			 "cosmo_polarized_energy": -12.0, 
			 "cosmo_cavitation_energy": 28.15, 
			 "cosmo_dispersion_energy": -20.53, 
			 "cosmo_repulsion_energy": 1.57, 
			 "cosmo_total_nonelectrostatic_energy": 9.18, 
			 "SMD_solvation_energy": 1.94 
		},
		"coords": [
			{
				"x": -3.756653825,
				"y": -2.6385953855,
				"z": -1.2366919932,
				"element": "S" 
			},
			{
				"x": -3.0871370008,
				"y": -1.2021461414,
				"z": -2.0431699936,
				"element": "C" 
			},
			{
				"x": -3.7932526782,
				"y": -0.2677785539,
				"z": -2.639631131,
				"element": "N" 
			},
			{
				"x": -2.8590921639,
				"y": 0.6322838818,
				"z": -3.1129308419,
				"element": "C" 
			},
			{
				"x": -1.5903534355,
				"y": 0.231673122,
				"z": -2.7928801831,
				"element": "C" 
			},
			{
				"x": -1.7381873572,
				"y": -0.9657569784,
				"z": -2.1057679706,
				"element": "N" 
			},
			{
				"x": -0.6522164706,
				"y": -1.7617922628,
				"z": -1.5355182315,
				"element": "C" 
			},
			{
				"x": -0.0681713066,
				"y": -1.1368795668,
				"z": -0.2811719218,
				"element": "C" 
			},
			{
				"x": 0.9102793439,
				"y": -0.2410244865,
				"z": -0.4826209258,
				"element": "N" 
			},
			{
				"x": 1.4368938307,
				"y": 0.3611058518,
				"z": 0.5898147767,
				"element": "C" 
			},
			{
				"x": 1.0268300541,
				"y": 0.1032192655,
				"z": 1.8987743043,
				"element": "C" 
			},
			{
				"x": 0.0116452453,
				"y": -0.8304438071,
				"z": 2.1007105897,
				"element": "C" 
			},
			{
				"x": -0.5478914516,
				"y": -1.4631767845,
				"z": 0.9917497019,
				"element": "C" 
			},
			{
				"x": -4.9920198428,
				"y": -2.4204774837,
				"z": -1.7213176556,
				"element": "H" 
			},
			{
				"x": -3.1623805335,
				"y": 1.5149677118,
				"z": -3.6584783136,
				"element": "H" 
			},
			{
				"x": -0.614202363,
				"y": 0.659824905,
				"z": -2.9578521404,
				"element": "H" 
			},
			{
				"x": 0.1386997452,
				"y": -1.8481156258,
				"z": -2.2847048318,
				"element": "H" 
			},
			{
				"x": -1.0411606449,
				"y": -2.7628602527,
				"z": -1.3323193939,
				"element": "H" 
			},
			{
				"x": 2.2281712127,
				"y": 1.0820763034,
				"z": 0.3924340343,
				"element": "H" 
			},
			{
				"x": 1.4934024654,
				"y": 0.6195724444,
				"z": 2.7315421844,
				"element": "H" 
			},
			{
				"x": -0.3382301853,
				"y": -1.0632199257,
				"z": 3.10221093,
				"element": "H" 
			},
			{
				"x": -1.3441726382,
				"y": -2.1921562309,
				"z": 1.1074190066,
				"element": "H" 
			}
		],
		 "valence_orbital": [ 
			{
				"type": "occ",
				"energy": -0.27649,
				"method": "rhf"
			},
			{
				"type": "occ",
				"energy": -0.27075,
				"method": "rhf"
			},
			{
				"type": "occ",
				"energy": -0.26392,
				"method": "rhf"
			},
			{
				"type": "occ",
				"energy": -0.25884,
				"method": "rhf"
			},
			{
				"type": "occ",
				"energy": -0.20392,
				"method": "rhf"
			},
			{
				"type": "unocc",
				"energy": -0.03776,
				"method": "rhf"
			},
			{
				"type": "unocc",
				"energy": -0.02535,
				"method": "rhf"
			},
			{
				"type": "unocc",
				"energy": 0.01308,
				"method": "rhf"
			},
			{
				"type": "unocc",
				"energy": 0.033,
				"method": "rhf"
			},
			{
				"type": "unocc",
				"energy": 0.06592,
				"method": "rhf"
			}
		],
		"cosmo_sigma_profile": { 
			"-0.025": 0.0,
			"-0.024": 0.0,
			"-0.023": 0.0,
			"-0.022": 0.0,
			"-0.021": 0.0,
			"-0.02": 0.0,
			"-0.019": 0.0,
			"-0.018": 0.0,
			"-0.017": 0.0,
			"-0.016": 0.0,
			"-0.015": 0.0,
			"-0.014": 0.0,
			"-0.013": 0.0,
			"-0.012": 0.32782755284,
			"-0.011": 1.40444643724,
			"-0.01": 1.50492333298,
			"-0.009": 1.12404501413,
			"-0.008": 2.59281581362,
			"-0.007": 11.5452041145,
			"-0.006": 17.2346870109,
			"-0.005": 19.3261215933,
			"-0.004": 14.7509894412,
			"-0.003": 13.8413188004,
			"-0.002": 11.8756843107,
			"-0.001": 12.7639719432,
			"0.0": 13.0128206057,
			"0.001": 16.6328602828,
			"0.002": 24.3013168293,
			"0.003": 15.7628153189,
			"0.004": 11.0068482858,
			"0.005": 9.31665001238,
			"0.006": 8.3655695258,
			"0.007": 4.58922831571,
			"0.008": 3.28035052482,
			"0.009": 1.97211882505,
			"0.01": 2.3574542226,
			"0.011": 1.67466751583,
			"0.012": 1.85258647059,
			"0.013": 0.984141789641,
			"0.014": 1.86959962437,
			"0.015": 1.44925964808,
			"0.016": 0.921245106711,
			"0.017": 0.706822622961,
			"0.018": 0.0243746479052,
			"0.019": 0.0,
			"0.02": 0.0,
			"0.021": 0.0,
			"0.022": 0.0,
			"0.023": 0.0,
			"0.024": 0.0,
			"0.025": 0.0
		}
	}
}
