{
	 "smiles": "O=CC1=CN=C2C=CC(=CN12)C#N", 
	 "Tm": 458.15, 
	 "num_atms": 18, 
	 "gaussian": { 
		 "optdone": 1, 
		 "sigma_profile": "yes", 
		 "theory": "DFT", 
		 "functional": "B3LYP", 
		 "basiset": "6-31G**", 
		 "properties": { 
			 "R2extent": 2519.2354, 
			 "electric_dipole_moment_norm": 3.80320726493, 
			 "electric_quadrupole_moment_norm": 19.1784917812, 
			 "total_energy": -585.417512371, 
			 "HOMO_LUMO_gap": 0.16801, 
			 "cosmo_polarized_energy": -14.33, 
			 "cosmo_cavitation_energy": 24.47, 
			 "cosmo_dispersion_energy": -17.44, 
			 "cosmo_repulsion_energy": 1.34, 
			 "cosmo_total_nonelectrostatic_energy": 8.37, 
			 "SMD_solvation_energy": 5.16 
		},
		"coords": [
			{
				"x": -1.020863808,
				"y": -3.379137661,
				"z": -0.3580478915,
				"element": "O" 
			},
			{
				"x": -1.1324289013,
				"y": -2.7084829713,
				"z": 0.6629146937,
				"element": "C" 
			},
			{
				"x": -0.7192341988,
				"y": -1.3327541777,
				"z": 0.7951968889,
				"element": "C" 
			},
			{
				"x": -0.7823563113,
				"y": -0.4541533188,
				"z": 1.8787840421,
				"element": "C" 
			},
			{
				"x": -0.2840773054,
				"y": 0.7650748635,
				"z": 1.5921319008,
				"element": "N" 
			},
			{
				"x": 0.1101164234,
				"y": 0.6921658666,
				"z": 0.3138391003,
				"element": "C" 
			},
			{
				"x": 0.7043999824,
				"y": 1.6682585486,
				"z": -0.5125924594,
				"element": "C" 
			},
			{
				"x": 1.0235503182,
				"y": 1.3507510228,
				"z": -1.8095960737,
				"element": "C" 
			},
			{
				"x": 0.7552448274,
				"y": 0.0410081253,
				"z": -2.3173584909,
				"element": "C" 
			},
			{
				"x": 0.1737824045,
				"y": -0.9162005577,
				"z": -1.5110430684,
				"element": "C" 
			},
			{
				"x": -0.1355637725,
				"y": -0.5804997304,
				"z": -0.225581834,
				"element": "N" 
			},
			{
				"x": 1.0880531579,
				"y": -0.2903704307,
				"z": -3.6699131057,
				"element": "C" 
			},
			{
				"x": 1.366417694,
				"y": -0.5382130626,
				"z": -4.7714328049,
				"element": "N" 
			},
			{
				"x": -1.5758178096,
				"y": -3.1350747232,
				"z": 1.5853205068,
				"element": "H" 
			},
			{
				"x": -1.1797759857,
				"y": -0.6841549402,
				"z": 2.8599599273,
				"element": "H" 
			},
			{
				"x": 0.8926481264,
				"y": 2.6491982771,
				"z": -0.0934851856,
				"element": "H" 
			},
			{
				"x": 1.4809383146,
				"y": 2.0835379323,
				"z": -2.4643456753,
				"element": "H" 
			},
			{
				"x": -0.0633331562,
				"y": -1.9279530627,
				"z": -1.8120504705,
				"element": "H" 
			}
		],
		 "valence_orbital": [ 
			{
				"type": "occ",
				"energy": -0.3427,
				"method": "rhf"
			},
			{
				"type": "occ",
				"energy": -0.30697,
				"method": "rhf"
			},
			{
				"type": "occ",
				"energy": -0.27865,
				"method": "rhf"
			},
			{
				"type": "occ",
				"energy": -0.27333,
				"method": "rhf"
			},
			{
				"type": "occ",
				"energy": -0.25032,
				"method": "rhf"
			},
			{
				"type": "unocc",
				"energy": -0.08231,
				"method": "rhf"
			},
			{
				"type": "unocc",
				"energy": -0.074,
				"method": "rhf"
			},
			{
				"type": "unocc",
				"energy": -0.02765,
				"method": "rhf"
			},
			{
				"type": "unocc",
				"energy": 0.01756,
				"method": "rhf"
			},
			{
				"type": "unocc",
				"energy": 0.06422,
				"method": "rhf"
			}
		],
		"cosmo_sigma_profile": { 
			"-0.025": 0.0,
			"-0.024": 0.0,
			"-0.023": 0.0,
			"-0.022": 0.0,
			"-0.021": 0.0,
			"-0.02": 0.0,
			"-0.019": 0.0,
			"-0.018": 0.0,
			"-0.017": 0.0,
			"-0.016": 0.0,
			"-0.015": 0.0,
			"-0.014": 0.0,
			"-0.013": 0.0,
			"-0.012": 0.0,
			"-0.011": 0.0,
			"-0.01": 1.07096465757,
			"-0.009": 8.41770256637,
			"-0.008": 9.51812737028,
			"-0.007": 10.385455705,
			"-0.006": 8.59619904949,
			"-0.005": 11.5792036141,
			"-0.004": 15.880944832,
			"-0.003": 17.9337786942,
			"-0.002": 17.1673654469,
			"-0.001": 14.8836816661,
			"0.0": 11.7997196949,
			"0.001": 7.03153661682,
			"0.002": 5.42445188112,
			"0.003": 5.52047264821,
			"0.004": 4.39237111779,
			"0.005": 4.64079917154,
			"0.006": 5.70473344141,
			"0.007": 6.37750983194,
			"0.008": 5.37604867542,
			"0.009": 6.17852928879,
			"0.01": 5.61651275659,
			"0.011": 6.36837340321,
			"0.012": 5.34334460673,
			"0.013": 2.21697906884,
			"0.014": 0.971261137514,
			"0.015": 0.941016805549,
			"0.016": 0.537696357683,
			"0.017": 0.0,
			"0.018": 0.0,
			"0.019": 0.0,
			"0.02": 0.0,
			"0.021": 0.0,
			"0.022": 0.0,
			"0.023": 0.0,
			"0.024": 0.0,
			"0.025": 0.0
		}
	}
}
