{
	 "smiles": "N#CC1=CC(=NC=C1)N1CCCCC1", 
	 "Tm": 329.15, 
	 "num_atms": 27, 
	 "gaussian": { 
		 "optdone": 1, 
		 "sigma_profile": "yes", 
		 "theory": "DFT", 
		 "functional": "B3LYP", 
		 "basiset": "6-31G**", 
		 "properties": { 
			 "R2extent": 3633.9494, 
			 "electric_dipole_moment_norm": 4.75692351841, 
			 "electric_quadrupole_moment_norm": 20.552510199, 
			 "total_energy": -591.246211758, 
			 "HOMO_LUMO_gap": 0.15383, 
			 "cosmo_polarized_energy": -9.1, 
			 "cosmo_cavitation_energy": 29.87, 
			 "cosmo_dispersion_energy": -21.66, 
			 "cosmo_repulsion_energy": 1.71, 
			 "cosmo_total_nonelectrostatic_energy": 9.91, 
			 "SMD_solvation_energy": 4.4 
		},
		"coords": [
			{
				"x": -2.9249828506,
				"y": 1.9565083419,
				"z": -3.738116759,
				"element": "N" 
			},
			{
				"x": -2.2444773936,
				"y": 1.8723488913,
				"z": -2.7990377918,
				"element": "C" 
			},
			{
				"x": -1.403265107,
				"y": 1.7706580605,
				"z": -1.6384046938,
				"element": "C" 
			},
			{
				"x": -1.310866982,
				"y": 0.5547303151,
				"z": -0.9624867389,
				"element": "C" 
			},
			{
				"x": -0.4743510527,
				"y": 0.4791916114,
				"z": 0.181552299,
				"element": "C" 
			},
			{
				"x": 0.2305213494,
				"y": 1.5518021664,
				"z": 0.6026236479,
				"element": "N" 
			},
			{
				"x": 0.1206035524,
				"y": 2.6999481159,
				"z": -0.065916662,
				"element": "C" 
			},
			{
				"x": -0.6764738171,
				"y": 2.8865319047,
				"z": -1.1910241047,
				"element": "C" 
			},
			{
				"x": -0.3566902749,
				"y": -0.682562182,
				"z": 0.9014943894,
				"element": "N" 
			},
			{
				"x": 0.5809622339,
				"y": -0.8059219157,
				"z": 2.0199245234,
				"element": "C" 
			},
			{
				"x": -0.1151280161,
				"y": -1.3687998685,
				"z": 3.2707200429,
				"element": "C" 
			},
			{
				"x": -1.0919428326,
				"y": -2.5246014078,
				"z": 2.9228824133,
				"element": "C" 
			},
			{
				"x": -0.8646998975,
				"y": -3.0291560831,
				"z": 1.4924111835,
				"element": "C" 
			},
			{
				"x": -1.0657911854,
				"y": -1.893520308,
				"z": 0.4811198188,
				"element": "C" 
			},
			{
				"x": -1.8679971359,
				"y": -0.299280437,
				"z": -1.3214652427,
				"element": "H" 
			},
			{
				"x": 0.7111016263,
				"y": 3.528387976,
				"z": 0.3224772661,
				"element": "H" 
			},
			{
				"x": -0.7310393809,
				"y": 3.8400687131,
				"z": -1.701089955,
				"element": "H" 
			},
			{
				"x": 1.4146389333,
				"y": -1.4594641802,
				"z": 1.7246507832,
				"element": "H" 
			},
			{
				"x": 0.9970252815,
				"y": 0.1815013015,
				"z": 2.2091957906,
				"element": "H" 
			},
			{
				"x": -0.6568125584,
				"y": -0.5633029097,
				"z": 3.7771492007,
				"element": "H" 
			},
			{
				"x": 0.6605648524,
				"y": -1.7112684059,
				"z": 3.9652985565,
				"element": "H" 
			},
			{
				"x": -0.9885504902,
				"y": -3.3489772535,
				"z": 3.6358148312,
				"element": "H" 
			},
			{
				"x": -2.1276553131,
				"y": -2.1733599739,
				"z": 3.0062401185,
				"element": "H" 
			},
			{
				"x": -1.5619375458,
				"y": -3.8368466495,
				"z": 1.2461809267,
				"element": "H" 
			},
			{
				"x": 0.1432291862,
				"y": -3.4493595567,
				"z": 1.393991395,
				"element": "H" 
			},
			{
				"x": -2.140699891,
				"y": -1.6731567859,
				"z": 0.4087727505,
				"element": "H" 
			},
			{
				"x": -0.7357852905,
				"y": -2.2112994804,
				"z": -0.5203579892,
				"element": "H" 
			}
		],
		 "valence_orbital": [ 
			{
				"type": "occ",
				"energy": -0.32719,
				"method": "rhf"
			},
			{
				"type": "occ",
				"energy": -0.29698,
				"method": "rhf"
			},
			{
				"type": "occ",
				"energy": -0.28199,
				"method": "rhf"
			},
			{
				"type": "occ",
				"energy": -0.26474,
				"method": "rhf"
			},
			{
				"type": "occ",
				"energy": -0.21008,
				"method": "rhf"
			},
			{
				"type": "unocc",
				"energy": -0.05625,
				"method": "rhf"
			},
			{
				"type": "unocc",
				"energy": -0.00431,
				"method": "rhf"
			},
			{
				"type": "unocc",
				"energy": 0.03726,
				"method": "rhf"
			},
			{
				"type": "unocc",
				"energy": 0.06948,
				"method": "rhf"
			},
			{
				"type": "unocc",
				"energy": 0.08082,
				"method": "rhf"
			}
		],
		"cosmo_sigma_profile": { 
			"-0.025": 0.0,
			"-0.024": 0.0,
			"-0.023": 0.0,
			"-0.022": 0.0,
			"-0.021": 0.0,
			"-0.02": 0.0,
			"-0.019": 0.0,
			"-0.018": 0.0,
			"-0.017": 0.0,
			"-0.016": 0.0,
			"-0.015": 0.0,
			"-0.014": 0.0,
			"-0.013": 0.0,
			"-0.012": 0.0,
			"-0.011": 0.0,
			"-0.01": 0.0,
			"-0.009": 0.0,
			"-0.008": 1.484778953,
			"-0.007": 5.58090520587,
			"-0.006": 7.51297383545,
			"-0.005": 7.92157702732,
			"-0.004": 15.1673543488,
			"-0.003": 28.9477518092,
			"-0.002": 34.6325486593,
			"-0.001": 29.4751120209,
			"0.0": 22.5783196839,
			"0.001": 22.2921548193,
			"0.002": 13.8844233217,
			"0.003": 8.27424894999,
			"0.004": 3.93095671801,
			"0.005": 5.73624119979,
			"0.006": 3.72508867903,
			"0.007": 4.66025700508,
			"0.008": 4.97207800438,
			"0.009": 4.18197888995,
			"0.01": 5.13332790043,
			"0.011": 3.53245467461,
			"0.012": 2.34174505306,
			"0.013": 0.832285669989,
			"0.014": 0.0,
			"0.015": 0.0,
			"0.016": 0.0,
			"0.017": 0.0,
			"0.018": 0.0,
			"0.019": 0.0,
			"0.02": 0.0,
			"0.021": 0.0,
			"0.022": 0.0,
			"0.023": 0.0,
			"0.024": 0.0,
			"0.025": 0.0
		}
	}
}
