{
	 "smiles": "CC1=C(C=O)C(C)=NN1", 
	 "Tm": 359.15, 
	 "num_atms": 17, 
	 "gaussian": { 
		 "optdone": 1, 
		 "sigma_profile": "yes", 
		 "theory": "DFT", 
		 "functional": "B3LYP", 
		 "basiset": "6-31G**", 
		 "properties": { 
			 "R2extent": 1530.3009, 
			 "electric_dipole_moment_norm": 2.41142471995, 
			 "electric_quadrupole_moment_norm": 18.1334772592, 
			 "total_energy": -418.174041671, 
			 "HOMO_LUMO_gap": 0.20568, 
			 "cosmo_polarized_energy": -12.67, 
			 "cosmo_cavitation_energy": 21.18, 
			 "cosmo_dispersion_energy": -15.41, 
			 "cosmo_repulsion_energy": 1.27, 
			 "cosmo_total_nonelectrostatic_energy": 7.04, 
			 "SMD_solvation_energy": 3.88 
		},
		"coords": [
			{
				"x": 1.8749702708,
				"y": -2.2529103097,
				"z": 1.0112035478,
				"element": "C" 
			},
			{
				"x": 1.1209494434,
				"y": -1.0637859253,
				"z": 0.5184114551,
				"element": "C" 
			},
			{
				"x": 1.173692344,
				"y": 0.2833955312,
				"z": 0.8963530947,
				"element": "C" 
			},
			{
				"x": 2.0347604511,
				"y": 0.8468293956,
				"z": 1.9205728537,
				"element": "C" 
			},
			{
				"x": 2.8328133408,
				"y": 0.2032461434,
				"z": 2.5901270153,
				"element": "O" 
			},
			{
				"x": 0.2143196078,
				"y": 0.9439700425,
				"z": 0.064605385,
				"element": "C" 
			},
			{
				"x": -0.1549700119,
				"y": 2.39571146,
				"z": 0.032027498,
				"element": "C" 
			},
			{
				"x": -0.3790824573,
				"y": 0.0845023372,
				"z": -0.7543611374,
				"element": "N" 
			},
			{
				"x": 0.1905643539,
				"y": -1.1184598059,
				"z": -0.4551733747,
				"element": "N" 
			},
			{
				"x": 1.710818278,
				"y": -2.3939556823,
				"z": 2.0831697803,
				"element": "H" 
			},
			{
				"x": 1.5745297943,
				"y": -3.1627792117,
				"z": 0.4825822365,
				"element": "H" 
			},
			{
				"x": 2.9508436205,
				"y": -2.1054916486,
				"z": 0.8818873423,
				"element": "H" 
			},
			{
				"x": 1.9287026058,
				"y": 1.9431103943,
				"z": 2.0741610708,
				"element": "H" 
			},
			{
				"x": -0.542807086,
				"y": 2.7335218075,
				"z": 0.9992099176,
				"element": "H" 
			},
			{
				"x": -0.9254165121,
				"y": 2.5580866031,
				"z": -0.7244865796,
				"element": "H" 
			},
			{
				"x": 0.708085807,
				"y": 3.0245481597,
				"z": -0.2122577196,
				"element": "H" 
			},
			{
				"x": -0.1106738502,
				"y": -1.9371392909,
				"z": -0.9627323857,
				"element": "H" 
			}
		],
		 "valence_orbital": [ 
			{
				"type": "occ",
				"energy": -0.3721,
				"method": "rhf"
			},
			{
				"type": "occ",
				"energy": -0.29732,
				"method": "rhf"
			},
			{
				"type": "occ",
				"energy": -0.2597,
				"method": "rhf"
			},
			{
				"type": "occ",
				"energy": -0.24741,
				"method": "rhf"
			},
			{
				"type": "occ",
				"energy": -0.24279,
				"method": "rhf"
			},
			{
				"type": "unocc",
				"energy": -0.03711,
				"method": "rhf"
			},
			{
				"type": "unocc",
				"energy": 0.02003,
				"method": "rhf"
			},
			{
				"type": "unocc",
				"energy": 0.07061,
				"method": "rhf"
			},
			{
				"type": "unocc",
				"energy": 0.09999,
				"method": "rhf"
			},
			{
				"type": "unocc",
				"energy": 0.10565,
				"method": "rhf"
			}
		],
		"cosmo_sigma_profile": { 
			"-0.025": 0.0,
			"-0.024": 0.0,
			"-0.023": 0.0,
			"-0.022": 0.0,
			"-0.021": 0.0,
			"-0.02": 0.0,
			"-0.019": 0.0,
			"-0.018": 0.0,
			"-0.017": 0.720645802129,
			"-0.016": 1.61118412015,
			"-0.015": 1.015620981,
			"-0.014": 1.0051046449,
			"-0.013": 1.3906590563,
			"-0.012": 0.826003406772,
			"-0.011": 1.58726554206,
			"-0.01": 1.5521799739,
			"-0.009": 0.802621738034,
			"-0.008": 1.04747523869,
			"-0.007": 1.27797416371,
			"-0.006": 3.50817302649,
			"-0.005": 14.7967084333,
			"-0.004": 15.277605816,
			"-0.003": 14.0508239843,
			"-0.002": 16.8076897084,
			"-0.001": 15.7456726923,
			"0.0": 10.3918140919,
			"0.001": 9.0123598914,
			"0.002": 10.4780693301,
			"0.003": 6.1183610204,
			"0.004": 4.47884251135,
			"0.005": 3.70060044863,
			"0.006": 3.15796691201,
			"0.007": 3.03356691068,
			"0.008": 2.59156917616,
			"0.009": 3.25178265186,
			"0.01": 2.97922444668,
			"0.011": 3.41530642,
			"0.012": 4.79866443372,
			"0.013": 3.85699207706,
			"0.014": 1.96674439491,
			"0.015": 1.01357831385,
			"0.016": 0.453061631269,
			"0.017": 0.00283109743485,
			"0.018": 0.0,
			"0.019": 0.0,
			"0.02": 0.0,
			"0.021": 0.0,
			"0.022": 0.0,
			"0.023": 0.0,
			"0.024": 0.0,
			"0.025": 0.0
		}
	}
}
