{
	 "smiles": "CC1=CC(C)=C(CSCC2=C(C)C=C(C)C=C2C)C(C)=C1", 
	 "Tm": 419.15, 
	 "num_atms": 47, 
	 "gaussian": { 
		 "optdone": 1, 
		 "sigma_profile": "yes", 
		 "theory": "DFT", 
		 "functional": "B3LYP", 
		 "basiset": "6-31G**", 
		 "properties": { 
			 "R2extent": 9207.8951, 
			 "electric_dipole_moment_norm": 1.53716456829, 
			 "electric_quadrupole_moment_norm": 7.06775907626, 
			 "total_energy": -1176.03286867, 
			 "HOMO_LUMO_gap": 0.20327, 
			 "cosmo_polarized_energy": -8.26, 
			 "cosmo_cavitation_energy": 48.15, 
			 "cosmo_dispersion_energy": -32.47, 
			 "cosmo_repulsion_energy": 2.46, 
			 "cosmo_total_nonelectrostatic_energy": 18.14, 
			 "SMD_solvation_energy": 7.65 
		},
		"coords": [
			{
				"x": -2.1630318259,
				"y": 0.5815827778,
				"z": 5.2322845325,
				"element": "C" 
			},
			{
				"x": -1.4883106573,
				"y": 0.7264730836,
				"z": 3.8884467727,
				"element": "C" 
			},
			{
				"x": -1.2140832671,
				"y": -0.3914432491,
				"z": 3.0959902328,
				"element": "C" 
			},
			{
				"x": -0.6165782935,
				"y": -0.2782548533,
				"z": 1.8368835732,
				"element": "C" 
			},
			{
				"x": -0.3473055038,
				"y": -1.527936088,
				"z": 1.0286071968,
				"element": "C" 
			},
			{
				"x": -0.2801461961,
				"y": 1.00182571,
				"z": 1.3460322366,
				"element": "C" 
			},
			{
				"x": 0.3688496746,
				"y": 1.1485089318,
				"z": -0.0093204525,
				"element": "C" 
			},
			{
				"x": 2.2133758525,
				"y": 1.0843629146,
				"z": 0.1600404925,
				"element": "S" 
			},
			{
				"x": 2.7601592877,
				"y": 1.0941452235,
				"z": -1.6174107192,
				"element": "C" 
			},
			{
				"x": 2.3311013761,
				"y": -0.0953057603,
				"z": -2.444234505,
				"element": "C" 
			},
			{
				"x": 2.9683094802,
				"y": -1.3465903086,
				"z": -2.269845973,
				"element": "C" 
			},
			{
				"x": 4.1050998117,
				"y": -1.5231774563,
				"z": -1.2886386761,
				"element": "C" 
			},
			{
				"x": 2.555474128,
				"y": -2.4403340848,
				"z": -3.034595364,
				"element": "C" 
			},
			{
				"x": 1.528133974,
				"y": -2.3410545849,
				"z": -3.9778912488,
				"element": "C" 
			},
			{
				"x": 1.0775493959,
				"y": -3.5477231366,
				"z": -4.7668301817,
				"element": "C" 
			},
			{
				"x": 0.9276537293,
				"y": -1.094099276,
				"z": -4.1556934494,
				"element": "C" 
			},
			{
				"x": 1.3105536424,
				"y": 0.0300561917,
				"z": -3.4125417557,
				"element": "C" 
			},
			{
				"x": 0.6341950611,
				"y": 1.3533793607,
				"z": -3.7099915717,
				"element": "C" 
			},
			{
				"x": -0.5382315273,
				"y": 2.1422324875,
				"z": 2.1364797119,
				"element": "C" 
			},
			{
				"x": -0.1823433254,
				"y": 3.5325816852,
				"z": 1.6568276457,
				"element": "C" 
			},
			{
				"x": -1.1378601653,
				"y": 1.9838346381,
				"z": 3.3899441127,
				"element": "C" 
			},
			{
				"x": -3.2557016302,
				"y": 0.6150741121,
				"z": 5.1342798878,
				"element": "H" 
			},
			{
				"x": -1.9100726534,
				"y": -0.3715559609,
				"z": 5.7068465706,
				"element": "H" 
			},
			{
				"x": -1.8743453294,
				"y": 1.3871084656,
				"z": 5.9144139811,
				"element": "H" 
			},
			{
				"x": -1.4678000618,
				"y": -1.3818054434,
				"z": 3.4684057103,
				"element": "H" 
			},
			{
				"x": -0.5637425536,
				"y": -2.4234603044,
				"z": 1.6170413567,
				"element": "H" 
			},
			{
				"x": -0.970767823,
				"y": -1.5705987024,
				"z": 0.1265956365,
				"element": "H" 
			},
			{
				"x": 0.6957633617,
				"y": -1.5812735837,
				"z": 0.7003238062,
				"element": "H" 
			},
			{
				"x": 0.1015479688,
				"y": 2.1019218932,
				"z": -0.4711938038,
				"element": "H" 
			},
			{
				"x": 0.0698352229,
				"y": 0.3446551079,
				"z": -0.6847325799,
				"element": "H" 
			},
			{
				"x": 2.4370696306,
				"y": 2.035397572,
				"z": -2.0642939144,
				"element": "H" 
			},
			{
				"x": 3.8498888267,
				"y": 1.1420130074,
				"z": -1.5305192513,
				"element": "H" 
			},
			{
				"x": 4.4631329,
				"y": -2.5559754592,
				"z": -1.2923677866,
				"element": "H" 
			},
			{
				"x": 3.8015878984,
				"y": -1.2683994514,
				"z": -0.2684388059,
				"element": "H" 
			},
			{
				"x": 4.9584307028,
				"y": -0.8797058453,
				"z": -1.5384995588,
				"element": "H" 
			},
			{
				"x": 3.0552407421,
				"y": -3.3963560887,
				"z": -2.892164735,
				"element": "H" 
			},
			{
				"x": 0.3814696263,
				"y": -4.1656029082,
				"z": -4.185453127,
				"element": "H" 
			},
			{
				"x": 0.5633659197,
				"y": -3.2555237499,
				"z": -5.6871949016,
				"element": "H" 
			},
			{
				"x": 1.923599553,
				"y": -4.1867911692,
				"z": -5.0395801732,
				"element": "H" 
			},
			{
				"x": 0.1409693153,
				"y": -0.9859328175,
				"z": -4.8993802879,
				"element": "H" 
			},
			{
				"x": -0.1298341848,
				"y": 1.2263766891,
				"z": -4.4813813552,
				"element": "H" 
			},
			{
				"x": 1.345817498,
				"y": 2.1024835865,
				"z": -4.0773802189,
				"element": "H" 
			},
			{
				"x": 0.1432588064,
				"y": 1.782376757,
				"z": -2.8306986099,
				"element": "H" 
			},
			{
				"x": -0.3488107057,
				"y": 4.2688871603,
				"z": 2.4474450956,
				"element": "H" 
			},
			{
				"x": -0.7933581149,
				"y": 3.8345957392,
				"z": 0.7964653662,
				"element": "H" 
			},
			{
				"x": 0.8663126232,
				"y": 3.5988716443,
				"z": 1.3487554583,
				"element": "H" 
			},
			{
				"x": -1.331022191,
				"y": 2.867755543,
				"z": 3.9942636299,
				"element": "H" 
			}
		],
		 "valence_orbital": [ 
			{
				"type": "occ",
				"energy": -0.23279,
				"method": "rhf"
			},
			{
				"type": "occ",
				"energy": -0.22885,
				"method": "rhf"
			},
			{
				"type": "occ",
				"energy": -0.22788,
				"method": "rhf"
			},
			{
				"type": "occ",
				"energy": -0.22009,
				"method": "rhf"
			},
			{
				"type": "occ",
				"energy": -0.21394,
				"method": "rhf"
			},
			{
				"type": "unocc",
				"energy": -0.01067,
				"method": "rhf"
			},
			{
				"type": "unocc",
				"energy": 0.00274,
				"method": "rhf"
			},
			{
				"type": "unocc",
				"energy": 0.00805,
				"method": "rhf"
			},
			{
				"type": "unocc",
				"energy": 0.01284,
				"method": "rhf"
			},
			{
				"type": "unocc",
				"energy": 0.05016,
				"method": "rhf"
			}
		],
		"cosmo_sigma_profile": { 
			"-0.025": 0.0,
			"-0.024": 0.0,
			"-0.023": 0.0,
			"-0.022": 0.0,
			"-0.021": 0.0,
			"-0.02": 0.0,
			"-0.019": 0.0,
			"-0.018": 0.0,
			"-0.017": 0.0,
			"-0.016": 0.0,
			"-0.015": 0.0,
			"-0.014": 0.0,
			"-0.013": 0.0,
			"-0.012": 0.0,
			"-0.011": 0.0,
			"-0.01": 0.0,
			"-0.009": 0.0,
			"-0.008": 0.0,
			"-0.007": 0.00317483019852,
			"-0.006": 2.10626136546,
			"-0.005": 13.636349844,
			"-0.004": 43.1650286985,
			"-0.003": 39.6355349922,
			"-0.002": 42.5734913658,
			"-0.001": 40.6590223202,
			"0.0": 55.9856385768,
			"0.001": 39.4563499208,
			"0.002": 19.1316695542,
			"0.003": 18.1460237691,
			"0.004": 16.8709482472,
			"0.005": 17.1301732573,
			"0.006": 16.8142423519,
			"0.007": 9.90420702913,
			"0.008": 2.49377394529,
			"0.009": 0.912048607528,
			"0.01": 0.744837638952,
			"0.011": 0.00928928047219,
			"0.012": 0.0,
			"0.013": 0.0,
			"0.014": 0.0,
			"0.015": 0.0,
			"0.016": 0.0,
			"0.017": 0.0,
			"0.018": 0.0,
			"0.019": 0.0,
			"0.02": 0.0,
			"0.021": 0.0,
			"0.022": 0.0,
			"0.023": 0.0,
			"0.024": 0.0,
			"0.025": 0.0
		}
	}
}
