{
	 "smiles": "OC(=O)C1=CNC(=O)C=N1", 
	 "Tm": 539.15, 
	 "num_atms": 14, 
	 "gaussian": { 
		 "optdone": 1, 
		 "sigma_profile": "yes", 
		 "theory": "DFT", 
		 "functional": "B3LYP", 
		 "basiset": "6-31G**", 
		 "properties": { 
			 "R2extent": 2062.5928, 
			 "electric_dipole_moment_norm": 2.46866523854, 
			 "electric_quadrupole_moment_norm": 17.9098088842, 
			 "total_energy": -528.124093045, 
			 "HOMO_LUMO_gap": 0.16735, 
			 "cosmo_polarized_energy": -18.88, 
			 "cosmo_cavitation_energy": 19.54, 
			 "cosmo_dispersion_energy": -14.82, 
			 "cosmo_repulsion_energy": 1.21, 
			 "cosmo_total_nonelectrostatic_energy": 5.93, 
			 "SMD_solvation_energy": 5.1 
		},
		"coords": [
			{
				"x": -0.5400897725,
				"y": 2.807331048,
				"z": 1.2100257892,
				"element": "O" 
			},
			{
				"x": 0.054962108,
				"y": 2.009681296,
				"z": 0.3066780678,
				"element": "C" 
			},
			{
				"x": 1.2259591887,
				"y": 2.1067884504,
				"z": 0.010439775,
				"element": "O" 
			},
			{
				"x": -0.8548113553,
				"y": 0.9935795719,
				"z": -0.2982249769,
				"element": "C" 
			},
			{
				"x": -0.3927903894,
				"y": 0.1098317928,
				"z": -1.2341761693,
				"element": "C" 
			},
			{
				"x": -1.2520136225,
				"y": -0.7983484902,
				"z": -1.7598188043,
				"element": "N" 
			},
			{
				"x": -2.6128846134,
				"y": -0.8934260161,
				"z": -1.3993153251,
				"element": "C" 
			},
			{
				"x": -3.3508684075,
				"y": -1.7270277998,
				"z": -1.8982761581,
				"element": "O" 
			},
			{
				"x": -2.9868304272,
				"y": 0.1072295637,
				"z": -0.3881997532,
				"element": "C" 
			},
			{
				"x": -2.1660945693,
				"y": 0.9790004455,
				"z": 0.1176618992,
				"element": "N" 
			},
			{
				"x": -1.4756019233,
				"y": 2.5309260916,
				"z": 1.2703335151,
				"element": "H" 
			},
			{
				"x": 0.637822603,
				"y": 0.1124029873,
				"z": -1.5688880647,
				"element": "H" 
			},
			{
				"x": -0.9410899396,
				"y": -1.4674015134,
				"z": -2.45567881,
				"element": "H" 
			},
			{
				"x": -4.0228688796,
				"y": 0.0971325722,
				"z": -0.0583609848,
				"element": "H" 
			}
		],
		 "valence_orbital": [ 
			{
				"type": "occ",
				"energy": -0.33643,
				"method": "rhf"
			},
			{
				"type": "occ",
				"energy": -0.31702,
				"method": "rhf"
			},
			{
				"type": "occ",
				"energy": -0.28602,
				"method": "rhf"
			},
			{
				"type": "occ",
				"energy": -0.27302,
				"method": "rhf"
			},
			{
				"type": "occ",
				"energy": -0.2581,
				"method": "rhf"
			},
			{
				"type": "unocc",
				"energy": -0.09075,
				"method": "rhf"
			},
			{
				"type": "unocc",
				"energy": -0.05679,
				"method": "rhf"
			},
			{
				"type": "unocc",
				"energy": 0.04381,
				"method": "rhf"
			},
			{
				"type": "unocc",
				"energy": 0.04495,
				"method": "rhf"
			},
			{
				"type": "unocc",
				"energy": 0.10273,
				"method": "rhf"
			}
		],
		"cosmo_sigma_profile": { 
			"-0.025": 0.0,
			"-0.024": 0.0,
			"-0.023": 0.0,
			"-0.022": 0.0,
			"-0.021": 0.0,
			"-0.02": 0.0,
			"-0.019": 0.0,
			"-0.018": 1.37473163002,
			"-0.017": 1.9965322114,
			"-0.016": 1.18321798037,
			"-0.015": 0.978946148274,
			"-0.014": 1.31455645963,
			"-0.013": 2.04758365439,
			"-0.012": 2.6378146151,
			"-0.011": 2.24759770351,
			"-0.01": 2.86006231319,
			"-0.009": 2.76079320532,
			"-0.008": 4.49589923951,
			"-0.007": 4.75231056119,
			"-0.006": 6.67435789891,
			"-0.005": 8.81243152791,
			"-0.004": 12.5374113988,
			"-0.003": 13.4268794256,
			"-0.002": 9.99043192928,
			"-0.001": 4.81743303321,
			"0.0": 4.88631636522,
			"0.001": 5.75405659134,
			"0.002": 4.51091156958,
			"0.003": 4.81935085326,
			"0.004": 4.24069584873,
			"0.005": 4.70634106752,
			"0.006": 2.48152210533,
			"0.007": 3.42291058101,
			"0.008": 4.18019816578,
			"0.009": 4.92455801498,
			"0.01": 6.42955137953,
			"0.011": 7.55667885897,
			"0.012": 9.47588681308,
			"0.013": 4.82633103639,
			"0.014": 0.21834520365,
			"0.015": 0.0,
			"0.016": 0.0,
			"0.017": 0.0,
			"0.018": 0.0,
			"0.019": 0.0,
			"0.02": 0.0,
			"0.021": 0.0,
			"0.022": 0.0,
			"0.023": 0.0,
			"0.024": 0.0,
			"0.025": 0.0
		}
	}
}
