{
	 "smiles": "COC1=CC(CC(O)=O)=CC=C1Br", 
	 "Tm": 377.15, 
	 "num_atms": 22, 
	 "gaussian": { 
		 "optdone": 1, 
		 "sigma_profile": "yes", 
		 "theory": "DFT", 
		 "functional": "B3LYP", 
		 "basiset": "6-31G**", 
		 "properties": { 
			 "R2extent": 5582.921, 
			 "electric_dipole_moment_norm": 2.84963726464, 
			 "electric_quadrupole_moment_norm": 4.84477440858, 
			 "total_energy": -3145.45612787, 
			 "HOMO_LUMO_gap": 0.21824, 
			 "cosmo_polarized_energy": -12.34, 
			 "cosmo_cavitation_energy": 29.04, 
			 "cosmo_dispersion_energy": -20.99, 
			 "cosmo_repulsion_energy": 1.68, 
			 "cosmo_total_nonelectrostatic_energy": 9.73, 
			 "SMD_solvation_energy": 5.79 
		},
		"coords": [
			{
				"x": -2.271711532,
				"y": -2.5962853086,
				"z": 1.8953721045,
				"element": "C" 
			},
			{
				"x": -2.3246004516,
				"y": -1.168122902,
				"z": 1.973103753,
				"element": "O" 
			},
			{
				"x": -2.0320103187,
				"y": -0.5205803212,
				"z": 0.8011477059,
				"element": "C" 
			},
			{
				"x": -0.7100882713,
				"y": -0.1696719153,
				"z": 0.5200812968,
				"element": "C" 
			},
			{
				"x": -0.3770465807,
				"y": 0.5342964965,
				"z": -0.641991423,
				"element": "C" 
			},
			{
				"x": 1.0539142615,
				"y": 0.9269552278,
				"z": -0.9309838538,
				"element": "C" 
			},
			{
				"x": 2.0160161787,
				"y": -0.245096471,
				"z": -1.0608597028,
				"element": "C" 
			},
			{
				"x": 3.0732288098,
				"y": 0.083922013,
				"z": -1.841101173,
				"element": "O" 
			},
			{
				"x": 1.9110824311,
				"y": -1.3250017178,
				"z": -0.5252685587,
				"element": "O" 
			},
			{
				"x": -1.3992295768,
				"y": 0.8883570737,
				"z": -1.5290097659,
				"element": "C" 
			},
			{
				"x": -2.7260173928,
				"y": 0.5503615919,
				"z": -1.2619299314,
				"element": "C" 
			},
			{
				"x": -3.0400563012,
				"y": -0.1547568313,
				"z": -0.1031038766,
				"element": "C" 
			},
			{
				"x": -4.8558881384,
				"y": -0.6092485616,
				"z": 0.2622527562,
				"element": "Br" 
			},
			{
				"x": -3.0213794764,
				"y": -2.982587378,
				"z": 1.1949339183,
				"element": "H" 
			},
			{
				"x": -2.4905641942,
				"y": -2.9656027173,
				"z": 2.8989006784,
				"element": "H" 
			},
			{
				"x": -1.2757200189,
				"y": -2.9382075484,
				"z": 1.5878199565,
				"element": "H" 
			},
			{
				"x": 0.0560290692,
				"y": -0.4630900211,
				"z": 1.2291294512,
				"element": "H" 
			},
			{
				"x": 1.4534941359,
				"y": 1.5500732557,
				"z": -0.1180382804,
				"element": "H" 
			},
			{
				"x": 1.1214271476,
				"y": 1.5340213968,
				"z": -1.8370992735,
				"element": "H" 
			},
			{
				"x": 3.6618713033,
				"y": -0.6900788815,
				"z": -1.8402444049,
				"element": "H" 
			},
			{
				"x": -1.1640781757,
				"y": 1.4380107166,
				"z": -2.4362591351,
				"element": "H" 
			},
			{
				"x": -3.5155729086,
				"y": 0.8314328031,
				"z": -1.9496522417,
				"element": "H" 
			}
		],
		 "valence_orbital": [ 
			{
				"type": "occ",
				"energy": -0.28545,
				"method": "rhf"
			},
			{
				"type": "occ",
				"energy": -0.28288,
				"method": "rhf"
			},
			{
				"type": "occ",
				"energy": -0.27323,
				"method": "rhf"
			},
			{
				"type": "occ",
				"energy": -0.25192,
				"method": "rhf"
			},
			{
				"type": "occ",
				"energy": -0.23564,
				"method": "rhf"
			},
			{
				"type": "unocc",
				"energy": -0.0174,
				"method": "rhf"
			},
			{
				"type": "unocc",
				"energy": -0.00789,
				"method": "rhf"
			},
			{
				"type": "unocc",
				"energy": 0.00338,
				"method": "rhf"
			},
			{
				"type": "unocc",
				"energy": 0.01062,
				"method": "rhf"
			},
			{
				"type": "unocc",
				"energy": 0.07246,
				"method": "rhf"
			}
		],
		"cosmo_sigma_profile": { 
			"-0.025": 0.0,
			"-0.024": 0.0,
			"-0.023": 0.0,
			"-0.022": 0.0,
			"-0.021": 0.0,
			"-0.02": 0.0,
			"-0.019": 0.0562472899263,
			"-0.018": 0.751366566296,
			"-0.017": 0.842161433092,
			"-0.016": 1.25194851746,
			"-0.015": 0.719233965047,
			"-0.014": 0.569791835242,
			"-0.013": 0.429314264448,
			"-0.012": 0.402417560458,
			"-0.011": 1.04704004912,
			"-0.01": 0.918931316323,
			"-0.009": 0.341111517402,
			"-0.008": 2.5849061652,
			"-0.007": 9.02044126058,
			"-0.006": 11.2153515648,
			"-0.005": 13.4706137349,
			"-0.004": 18.8642174692,
			"-0.003": 20.9525018092,
			"-0.002": 17.7042447699,
			"-0.001": 12.2225493614,
			"0.0": 11.4829836008,
			"0.001": 13.9846732925,
			"0.002": 18.2294407073,
			"0.003": 19.1877521886,
			"0.004": 16.2602628431,
			"0.005": 9.47614613381,
			"0.006": 3.97094410672,
			"0.007": 5.44865660773,
			"0.008": 4.05681522698,
			"0.009": 5.50130651645,
			"0.01": 4.05689490455,
			"0.011": 5.63989206048,
			"0.012": 3.26425831083,
			"0.013": 0.00164996824254,
			"0.014": 0.0,
			"0.015": 0.0,
			"0.016": 0.0,
			"0.017": 0.0,
			"0.018": 0.0,
			"0.019": 0.0,
			"0.02": 0.0,
			"0.021": 0.0,
			"0.022": 0.0,
			"0.023": 0.0,
			"0.024": 0.0,
			"0.025": 0.0
		}
	}
}
