{
	 "smiles": "C[C@]12CCC3C(CC=C4C[C@@H](O)CC[C@]34C)C1CC1=C2OC(=O)C(C)(C)C1C1=CC=CC=C1", 
	 "Tm": 505.15, 
	 "num_atms": 71, 
	 "gaussian": { 
		 "optdone": 1, 
		 "sigma_profile": "yes", 
		 "theory": "DFT", 
		 "functional": "B3LYP", 
		 "basiset": "6-31G**", 
		 "properties": { 
			 "R2extent": 16589.7855, 
			 "electric_dipole_moment_norm": 4.21972048126, 
			 "electric_quadrupole_moment_norm": 26.2759329532, 
			 "total_energy": -1391.76282777, 
			 "HOMO_LUMO_gap": 0.20242, 
			 "cosmo_polarized_energy": -15.03, 
			 "cosmo_cavitation_energy": 62.57, 
			 "cosmo_dispersion_energy": -40.37, 
			 "cosmo_repulsion_energy": 2.96, 
			 "cosmo_total_nonelectrostatic_energy": 25.16, 
			 "SMD_solvation_energy": 9.85 
		},
		"coords": [
			{
				"x": -0.6266050187,
				"y": 0.3198732989,
				"z": 3.4769044949,
				"element": "C" 
			},
			{
				"x": 0.035753409,
				"y": 0.5643428883,
				"z": 2.1017876074,
				"element": "C" 
			},
			{
				"x": 0.9001594594,
				"y": 1.8410584776,
				"z": 2.1833305011,
				"element": "C" 
			},
			{
				"x": 1.4469631599,
				"y": 2.3800090992,
				"z": 0.8383272789,
				"element": "C" 
			},
			{
				"x": 0.6337670596,
				"y": 1.9664178992,
				"z": -0.4195114269,
				"element": "C" 
			},
			{
				"x": -0.8486918567,
				"y": 1.765228858,
				"z": -0.0556975483,
				"element": "C" 
			},
			{
				"x": -1.474527783,
				"y": 3.101547861,
				"z": 0.3860049931,
				"element": "C" 
			},
			{
				"x": -1.1402176225,
				"y": 4.200791968,
				"z": -0.5892565477,
				"element": "C" 
			},
			{
				"x": -0.1459365123,
				"y": 4.1449270395,
				"z": -1.4875159169,
				"element": "C" 
			},
			{
				"x": -0.0064474389,
				"y": 5.1973266238,
				"z": -2.5666950112,
				"element": "C" 
			},
			{
				"x": 0.0011646256,
				"y": 4.5582801216,
				"z": -3.9951223635,
				"element": "C" 
			},
			{
				"x": 1.2913024708,
				"y": 4.5926268339,
				"z": -4.6141777581,
				"element": "O" 
			},
			{
				"x": -0.431453732,
				"y": 3.092439702,
				"z": -3.933359202,
				"element": "C" 
			},
			{
				"x": 0.4226409344,
				"y": 2.2310968017,
				"z": -2.9785229105,
				"element": "C" 
			},
			{
				"x": 0.7932449076,
				"y": 2.9480725965,
				"z": -1.625187232,
				"element": "C" 
			},
			{
				"x": 2.2683758531,
				"y": 3.4154023151,
				"z": -1.7368706402,
				"element": "C" 
			},
			{
				"x": -1.0411807399,
				"y": 0.6005232709,
				"z": 0.9464709443,
				"element": "C" 
			},
			{
				"x": -0.9512642666,
				"y": -0.793889949,
				"z": 0.2318491453,
				"element": "C" 
			},
			{
				"x": 0.3232875226,
				"y": -1.4087381609,
				"z": 0.7431892244,
				"element": "C" 
			},
			{
				"x": 0.8353120833,
				"y": -0.6573060834,
				"z": 1.7170785791,
				"element": "C" 
			},
			{
				"x": 1.9572443517,
				"y": -0.9716105126,
				"z": 2.4602666923,
				"element": "O" 
			},
			{
				"x": 2.7079394795,
				"y": -2.0786401748,
				"z": 2.1136337917,
				"element": "C" 
			},
			{
				"x": 3.5540125033,
				"y": -2.4485321219,
				"z": 2.8870391856,
				"element": "O" 
			},
			{
				"x": 2.4720894887,
				"y": -2.6853149612,
				"z": 0.7208138262,
				"element": "C" 
			},
			{
				"x": 3.1094295627,
				"y": -4.0813726905,
				"z": 0.6731349064,
				"element": "C" 
			},
			{
				"x": 3.2216162332,
				"y": -1.7569258397,
				"z": -0.2731210609,
				"element": "C" 
			},
			{
				"x": 0.9457774292,
				"y": -2.7154996223,
				"z": 0.3361245516,
				"element": "C" 
			},
			{
				"x": 0.1627902463,
				"y": -3.9068278722,
				"z": 0.8908776845,
				"element": "C" 
			},
			{
				"x": -0.1496208301,
				"y": -4.0060327266,
				"z": 2.2551956662,
				"element": "C" 
			},
			{
				"x": -0.8562279494,
				"y": -5.1028703038,
				"z": 2.7480214963,
				"element": "C" 
			},
			{
				"x": -1.2753064703,
				"y": -6.1169299297,
				"z": 1.8834226421,
				"element": "C" 
			},
			{
				"x": -0.9795869724,
				"y": -6.025572401,
				"z": 0.5233154668,
				"element": "C" 
			},
			{
				"x": -0.2651975389,
				"y": -4.929485683,
				"z": 0.035124965,
				"element": "C" 
			},
			{
				"x": -1.252468282,
				"y": 1.1733628275,
				"z": 3.7597157426,
				"element": "H" 
			},
			{
				"x": 0.1300059344,
				"y": 0.1795178696,
				"z": 4.2557353316,
				"element": "H" 
			},
			{
				"x": -1.2595966358,
				"y": -0.5735745626,
				"z": 3.4541949957,
				"element": "H" 
			},
			{
				"x": 0.2986844057,
				"y": 2.6151180953,
				"z": 2.671755782,
				"element": "H" 
			},
			{
				"x": 1.7345019204,
				"y": 1.6456860524,
				"z": 2.8662204535,
				"element": "H" 
			},
			{
				"x": 1.481194252,
				"y": 3.4720469854,
				"z": 0.9091500731,
				"element": "H" 
			},
			{
				"x": 2.484533766,
				"y": 2.056630956,
				"z": 0.7088697364,
				"element": "H" 
			},
			{
				"x": 1.0262895612,
				"y": 0.9987652223,
				"z": -0.7605545141,
				"element": "H" 
			},
			{
				"x": -1.3861017871,
				"y": 1.47819045,
				"z": -0.9696540572,
				"element": "H" 
			},
			{
				"x": -2.5665150402,
				"y": 2.9902816113,
				"z": 0.4422667084,
				"element": "H" 
			},
			{
				"x": -1.1628880468,
				"y": 3.3812430903,
				"z": 1.400999293,
				"element": "H" 
			},
			{
				"x": -1.7906163726,
				"y": 5.0758814703,
				"z": -0.5821435022,
				"element": "H" 
			},
			{
				"x": -0.8316384179,
				"y": 5.9127125853,
				"z": -2.4832704278,
				"element": "H" 
			},
			{
				"x": 0.9222418264,
				"y": 5.7713885121,
				"z": -2.4460229776,
				"element": "H" 
			},
			{
				"x": -0.7111958594,
				"y": 5.1079332541,
				"z": -4.6297215514,
				"element": "H" 
			},
			{
				"x": 1.5705518778,
				"y": 5.5158398327,
				"z": -4.6661668132,
				"element": "H" 
			},
			{
				"x": -1.4759520672,
				"y": 3.0793506218,
				"z": -3.6005025812,
				"element": "H" 
			},
			{
				"x": -0.410154264,
				"y": 2.6694282869,
				"z": -4.9433783008,
				"element": "H" 
			},
			{
				"x": 1.3468367797,
				"y": 1.933250708,
				"z": -3.4843478037,
				"element": "H" 
			},
			{
				"x": -0.1293404461,
				"y": 1.306731628,
				"z": -2.7725469241,
				"element": "H" 
			},
			{
				"x": 2.4364396685,
				"y": 3.9371666614,
				"z": -2.6802319072,
				"element": "H" 
			},
			{
				"x": 2.9324746626,
				"y": 2.5433175335,
				"z": -1.7211279843,
				"element": "H" 
			},
			{
				"x": 2.5620572261,
				"y": 4.0756809085,
				"z": -0.9160570187,
				"element": "H" 
			},
			{
				"x": -2.0356865393,
				"y": 0.7103362968,
				"z": 1.3941294405,
				"element": "H" 
			},
			{
				"x": -1.8171435392,
				"y": -1.4277783253,
				"z": 0.4674926123,
				"element": "H" 
			},
			{
				"x": -0.9458744881,
				"y": -0.6844574732,
				"z": -0.861957826,
				"element": "H" 
			},
			{
				"x": 4.1804282567,
				"y": -4.016933788,
				"z": 0.8751408926,
				"element": "H" 
			},
			{
				"x": 2.668214233,
				"y": -4.7523684513,
				"z": 1.4122566793,
				"element": "H" 
			},
			{
				"x": 2.9648549454,
				"y": -4.5217894788,
				"z": -0.3188895827,
				"element": "H" 
			},
			{
				"x": 2.7952148154,
				"y": -0.7512728997,
				"z": -0.2997794946,
				"element": "H" 
			},
			{
				"x": 4.2780899876,
				"y": -1.6790123789,
				"z": -0.0002673892,
				"element": "H" 
			},
			{
				"x": 3.1617811518,
				"y": -2.1806590276,
				"z": -1.2811475177,
				"element": "H" 
			},
			{
				"x": 0.9181894164,
				"y": -2.8044744232,
				"z": -0.7586462937,
				"element": "H" 
			},
			{
				"x": 0.1562703393,
				"y": -3.2185130662,
				"z": 2.9382181771,
				"element": "H" 
			},
			{
				"x": -1.0833548054,
				"y": -5.1633436656,
				"z": 3.8086753386,
				"element": "H" 
			},
			{
				"x": -1.8297174884,
				"y": -6.9683873407,
				"z": 2.2673460485,
				"element": "H" 
			},
			{
				"x": -1.304725611,
				"y": -6.8052880772,
				"z": -0.1598592187,
				"element": "H" 
			},
			{
				"x": -0.0377913837,
				"y": -4.8660251234,
				"z": -1.0264696444,
				"element": "H" 
			}
		],
		 "valence_orbital": [ 
			{
				"type": "occ",
				"energy": -0.26402,
				"method": "rhf"
			},
			{
				"type": "occ",
				"energy": -0.2518,
				"method": "rhf"
			},
			{
				"type": "occ",
				"energy": -0.24608,
				"method": "rhf"
			},
			{
				"type": "occ",
				"energy": -0.22732,
				"method": "rhf"
			},
			{
				"type": "occ",
				"energy": -0.21863,
				"method": "rhf"
			},
			{
				"type": "unocc",
				"energy": -0.01621,
				"method": "rhf"
			},
			{
				"type": "unocc",
				"energy": -0.00423,
				"method": "rhf"
			},
			{
				"type": "unocc",
				"energy": 0.00458,
				"method": "rhf"
			},
			{
				"type": "unocc",
				"energy": 0.02721,
				"method": "rhf"
			},
			{
				"type": "unocc",
				"energy": 0.04696,
				"method": "rhf"
			}
		],
		"cosmo_sigma_profile": { 
			"-0.025": 0.0,
			"-0.024": 0.0,
			"-0.023": 0.0,
			"-0.022": 0.0,
			"-0.021": 0.0,
			"-0.02": 0.0,
			"-0.019": 0.0,
			"-0.018": 0.0,
			"-0.017": 0.0,
			"-0.016": 0.0,
			"-0.015": 0.652899316531,
			"-0.014": 0.781276262679,
			"-0.013": 1.21779045545,
			"-0.012": 0.763198433239,
			"-0.011": 0.970076558693,
			"-0.01": 0.919412260162,
			"-0.009": 1.16099083009,
			"-0.008": 0.844338401044,
			"-0.007": 1.1298519349,
			"-0.006": 4.57232676141,
			"-0.005": 15.5744848487,
			"-0.004": 23.192933227,
			"-0.003": 48.8463070122,
			"-0.002": 72.2793348995,
			"-0.001": 80.568987809,
			"0.0": 66.1974215172,
			"0.001": 50.361838826,
			"0.002": 26.8424753535,
			"0.003": 19.2472711422,
			"0.004": 14.413139628,
			"0.005": 12.2524534468,
			"0.006": 10.1402948887,
			"0.007": 4.50910751506,
			"0.008": 3.37227538106,
			"0.009": 4.16495441618,
			"0.01": 4.62646025609,
			"0.011": 6.13157493585,
			"0.012": 4.84561488332,
			"0.013": 2.26146351375,
			"0.014": 1.06523134941,
			"0.015": 0.48946734726,
			"0.016": 0.0,
			"0.017": 0.0,
			"0.018": 0.0,
			"0.019": 0.0,
			"0.02": 0.0,
			"0.021": 0.0,
			"0.022": 0.0,
			"0.023": 0.0,
			"0.024": 0.0,
			"0.025": 0.0
		}
	}
}
