{
	 "smiles": "OC(CN1C(=O)C2=C(C=CC=C2)C1=O)CN1C(=O)C2=C(C=CC=C2)C1=O", 
	 "Tm": 480.15, 
	 "num_atms": 40, 
	 "gaussian": { 
		 "optdone": 1, 
		 "sigma_profile": "yes", 
		 "theory": "DFT", 
		 "functional": "B3LYP", 
		 "basiset": "6-31G**", 
		 "properties": { 
			 "R2extent": 11194.0292, 
			 "electric_dipole_moment_norm": 5.37941808935, 
			 "electric_quadrupole_moment_norm": 33.6235969054, 
			 "total_energy": -1218.14728209, 
			 "HOMO_LUMO_gap": 0.16623, 
			 "cosmo_polarized_energy": -19.93, 
			 "cosmo_cavitation_energy": 45.73, 
			 "cosmo_dispersion_energy": -31.3, 
			 "cosmo_repulsion_energy": 2.31, 
			 "cosmo_total_nonelectrostatic_energy": 16.73, 
			 "SMD_solvation_energy": 9.22 
		},
		"coords": [
			{
				"x": 2.2408233166,
				"y": -1.3360395582,
				"z": 2.4128339124,
				"element": "O" 
			},
			{
				"x": 1.0288450531,
				"y": -0.7993450508,
				"z": 1.9262720281,
				"element": "C" 
			},
			{
				"x": 1.2135650066,
				"y": 0.5966684258,
				"z": 1.3005665359,
				"element": "C" 
			},
			{
				"x": 1.6623432887,
				"y": 0.5717384482,
				"z": -0.0930622439,
				"element": "N" 
			},
			{
				"x": 2.8667884359,
				"y": 0.0385468922,
				"z": -0.5514229674,
				"element": "C" 
			},
			{
				"x": 3.689842664,
				"y": -0.5568571732,
				"z": 0.1303724993,
				"element": "O" 
			},
			{
				"x": 2.9249497245,
				"y": 0.3265614154,
				"z": -2.0119813615,
				"element": "C" 
			},
			{
				"x": 1.756770015,
				"y": 1.0030699114,
				"z": -2.3683766894,
				"element": "C" 
			},
			{
				"x": 1.517259312,
				"y": 1.3984357194,
				"z": -3.6759944714,
				"element": "C" 
			},
			{
				"x": 2.4975356635,
				"y": 1.0923921063,
				"z": -4.6300393592,
				"element": "C" 
			},
			{
				"x": 3.6689027197,
				"y": 0.4125058982,
				"z": -4.2723163701,
				"element": "C" 
			},
			{
				"x": 3.8999523017,
				"y": 0.0152387574,
				"z": -2.9482433038,
				"element": "C" 
			},
			{
				"x": 0.9280375116,
				"y": 1.1763796541,
				"z": -1.1404893118,
				"element": "C" 
			},
			{
				"x": -0.1508671788,
				"y": 1.7160987242,
				"z": -1.0141112195,
				"element": "O" 
			},
			{
				"x": 0.107212316,
				"y": -0.7494133361,
				"z": 3.1563273934,
				"element": "C" 
			},
			{
				"x": -1.2773826527,
				"y": -0.4311266767,
				"z": 2.8448329792,
				"element": "N" 
			},
			{
				"x": -2.2198995234,
				"y": -1.3845519904,
				"z": 2.4178762734,
				"element": "C" 
			},
			{
				"x": -1.9825225314,
				"y": -2.5568285315,
				"z": 2.20578391,
				"element": "O" 
			},
			{
				"x": -3.5138782927,
				"y": -0.6482341196,
				"z": 2.302713387,
				"element": "C" 
			},
			{
				"x": -3.2958986287,
				"y": 0.6809068742,
				"z": 2.6716359367,
				"element": "C" 
			},
			{
				"x": -4.3223408387,
				"y": 1.6140358606,
				"z": 2.6653829215,
				"element": "C" 
			},
			{
				"x": -5.5929552346,
				"y": 1.1708967714,
				"z": 2.2744488043,
				"element": "C" 
			},
			{
				"x": -5.8120100984,
				"y": -0.1625897607,
				"z": 1.9050852818,
				"element": "C" 
			},
			{
				"x": -4.7676243108,
				"y": -1.0969612923,
				"z": 1.9140740432,
				"element": "C" 
			},
			{
				"x": -1.855709889,
				"y": 0.8366515994,
				"z": 3.0309853909,
				"element": "C" 
			},
			{
				"x": -1.2620717877,
				"y": 1.8288101306,
				"z": 3.407678757,
				"element": "O" 
			},
			{
				"x": 2.9209175187,
				"y": -1.2114191779,
				"z": 1.7270813485,
				"element": "H" 
			},
			{
				"x": 0.5628094254,
				"y": -1.4594848804,
				"z": 1.1759159266,
				"element": "H" 
			},
			{
				"x": 0.2758954032,
				"y": 1.1549804638,
				"z": 1.2886836184,
				"element": "H" 
			},
			{
				"x": 1.9361171772,
				"y": 1.1556256731,
				"z": 1.9055727131,
				"element": "H" 
			},
			{
				"x": 0.6056865401,
				"y": 1.923393337,
				"z": -3.9422440604,
				"element": "H" 
			},
			{
				"x": 2.3481547876,
				"y": 1.3859303853,
				"z": -5.6647072547,
				"element": "H" 
			},
			{
				"x": 4.4087241327,
				"y": 0.1897754276,
				"z": -5.0352092809,
				"element": "H" 
			},
			{
				"x": 4.8025497669,
				"y": -0.5135663348,
				"z": -2.6600602986,
				"element": "H" 
			},
			{
				"x": 0.4692178858,
				"y": -0.0011191811,
				"z": 3.8657321211,
				"element": "H" 
			},
			{
				"x": 0.1396304835,
				"y": -1.7334442958,
				"z": 3.6290150915,
				"element": "H" 
			},
			{
				"x": -4.1403981301,
				"y": 2.6445198839,
				"z": 2.9526458117,
				"element": "H" 
			},
			{
				"x": -6.4228020538,
				"y": 1.8710580643,
				"z": 2.2563800674,
				"element": "H" 
			},
			{
				"x": -6.8083559909,
				"y": -0.475071694,
				"z": 1.6069089663,
				"element": "H" 
			},
			{
				"x": -4.9255133083,
				"y": -2.1323673704,
				"z": 1.6300524741,
				"element": "H" 
			}
		],
		 "valence_orbital": [ 
			{
				"type": "occ",
				"energy": -0.27633,
				"method": "rhf"
			},
			{
				"type": "occ",
				"energy": -0.27606,
				"method": "rhf"
			},
			{
				"type": "occ",
				"energy": -0.26634,
				"method": "rhf"
			},
			{
				"type": "occ",
				"energy": -0.26244,
				"method": "rhf"
			},
			{
				"type": "occ",
				"energy": -0.25806,
				"method": "rhf"
			},
			{
				"type": "unocc",
				"energy": -0.09183,
				"method": "rhf"
			},
			{
				"type": "unocc",
				"energy": -0.08027,
				"method": "rhf"
			},
			{
				"type": "unocc",
				"energy": -0.04852,
				"method": "rhf"
			},
			{
				"type": "unocc",
				"energy": -0.03927,
				"method": "rhf"
			},
			{
				"type": "unocc",
				"energy": 0.01943,
				"method": "rhf"
			}
		],
		"cosmo_sigma_profile": { 
			"-0.025": 0.0,
			"-0.024": 0.0,
			"-0.023": 0.0,
			"-0.022": 0.0,
			"-0.021": 0.0,
			"-0.02": 0.0,
			"-0.019": 0.0,
			"-0.018": 0.0,
			"-0.017": 0.0,
			"-0.016": 0.0,
			"-0.015": 0.0,
			"-0.014": 0.0,
			"-0.013": 0.0,
			"-0.012": 0.0,
			"-0.011": 0.0,
			"-0.01": 0.0,
			"-0.009": 0.0,
			"-0.008": 5.09418423033,
			"-0.007": 17.5343162386,
			"-0.006": 27.9619363139,
			"-0.005": 32.8939594791,
			"-0.004": 27.2744113352,
			"-0.003": 28.4599990326,
			"-0.002": 23.8141594112,
			"-0.001": 28.1178536069,
			"0.0": 28.3325094269,
			"0.001": 32.0386366298,
			"0.002": 29.9977957412,
			"0.003": 10.080779819,
			"0.004": 7.83871286775,
			"0.005": 6.67166915425,
			"0.006": 5.96593391243,
			"0.007": 6.6447599966,
			"0.008": 6.93851967808,
			"0.009": 9.30277294135,
			"0.01": 10.8385489002,
			"0.011": 14.4197205769,
			"0.012": 4.38027177498,
			"0.013": 1.99015403107,
			"0.014": 0.769521096663,
			"0.015": 0.0,
			"0.016": 0.0,
			"0.017": 0.0,
			"0.018": 0.0,
			"0.019": 0.0,
			"0.02": 0.0,
			"0.021": 0.0,
			"0.022": 0.0,
			"0.023": 0.0,
			"0.024": 0.0,
			"0.025": 0.0
		}
	}
}
