{
	 "smiles": "CC1=CC=C(C=C1)C1(CCCCC1)C(O)=O", 
	 "Tm": 441.15, 
	 "num_atms": 34, 
	 "gaussian": { 
		 "optdone": 1, 
		 "sigma_profile": "yes", 
		 "theory": "DFT", 
		 "functional": "B3LYP", 
		 "basiset": "6-31G**", 
		 "properties": { 
			 "R2extent": 4496.8709, 
			 "electric_dipole_moment_norm": 1.41872994259, 
			 "electric_quadrupole_moment_norm": 6.88358341999, 
			 "total_energy": -694.826012309, 
			 "HOMO_LUMO_gap": 0.22383, 
			 "cosmo_polarized_energy": -9.02, 
			 "cosmo_cavitation_energy": 34.09, 
			 "cosmo_dispersion_energy": -24.54, 
			 "cosmo_repulsion_energy": 1.91, 
			 "cosmo_total_nonelectrostatic_energy": 11.46, 
			 "SMD_solvation_energy": 5.99 
		},
		"coords": [
			{
				"x": -3.1117202906,
				"y": -3.6329108527,
				"z": -1.0195065117,
				"element": "C" 
			},
			{
				"x": -2.0726686733,
				"y": -2.6830258357,
				"z": -0.4725074484,
				"element": "C" 
			},
			{
				"x": -2.2699146618,
				"y": -1.29943706,
				"z": -0.4863027281,
				"element": "C" 
			},
			{
				"x": -1.2994242598,
				"y": -0.4197083925,
				"z": -0.0002691113,
				"element": "C" 
			},
			{
				"x": -0.0884383845,
				"y": -0.8952689145,
				"z": 0.514656479,
				"element": "C" 
			},
			{
				"x": 0.1059262676,
				"y": -2.2869659447,
				"z": 0.5391374403,
				"element": "C" 
			},
			{
				"x": -0.864998757,
				"y": -3.1597063462,
				"z": 0.0567872758,
				"element": "C" 
			},
			{
				"x": 1.0283984866,
				"y": 0.0376721328,
				"z": 1.0331603152,
				"element": "C" 
			},
			{
				"x": 0.6244044247,
				"y": 1.5324105648,
				"z": 1.0159863702,
				"element": "C" 
			},
			{
				"x": 1.7688607395,
				"y": 2.4606715104,
				"z": 1.4512991884,
				"element": "C" 
			},
			{
				"x": 3.0147588284,
				"y": 2.264575232,
				"z": 0.5766090232,
				"element": "C" 
			},
			{
				"x": 3.4537976918,
				"y": 0.7941681475,
				"z": 0.5675490395,
				"element": "C" 
			},
			{
				"x": 2.3064235504,
				"y": -0.1471175988,
				"z": 0.1678027982,
				"element": "C" 
			},
			{
				"x": 1.3197707531,
				"y": -0.4287436661,
				"z": 2.4678655195,
				"element": "C" 
			},
			{
				"x": 0.4524486455,
				"y": 0.0834747383,
				"z": 3.374182924,
				"element": "O" 
			},
			{
				"x": 2.192962181,
				"y": -1.2066580514,
				"z": 2.7938602833,
				"element": "O" 
			},
			{
				"x": -3.2353310075,
				"y": -4.507479207,
				"z": -0.3722079587,
				"element": "H" 
			},
			{
				"x": -4.0861436102,
				"y": -3.1461238845,
				"z": -1.1191306472,
				"element": "H" 
			},
			{
				"x": -2.8273763549,
				"y": -4.0049850189,
				"z": -2.0117725781,
				"element": "H" 
			},
			{
				"x": -3.1999675432,
				"y": -0.8960449638,
				"z": -0.8799634376,
				"element": "H" 
			},
			{
				"x": -1.5068971777,
				"y": 0.6437306505,
				"z": -0.02650247,
				"element": "H" 
			},
			{
				"x": 1.0223785113,
				"y": -2.6923524963,
				"z": 0.9574500398,
				"element": "H" 
			},
			{
				"x": -0.6830169122,
				"y": -4.2313418346,
				"z": 0.0956299884,
				"element": "H" 
			},
			{
				"x": -0.2555217997,
				"y": 1.6928318646,
				"z": 1.644572402,
				"element": "H" 
			},
			{
				"x": 0.3409574584,
				"y": 1.7900030627,
				"z": -0.012208932,
				"element": "H" 
			},
			{
				"x": 1.4275749471,
				"y": 3.501523973,
				"z": 1.4032139853,
				"element": "H" 
			},
			{
				"x": 2.0201040915,
				"y": 2.2686099588,
				"z": 2.5032180379,
				"element": "H" 
			},
			{
				"x": 3.8326191542,
				"y": 2.9049435499,
				"z": 0.9278299044,
				"element": "H" 
			},
			{
				"x": 2.7859662796,
				"y": 2.5840992733,
				"z": -0.4503276112,
				"element": "H" 
			},
			{
				"x": 4.2938276915,
				"y": 0.6514551311,
				"z": -0.1226855452,
				"element": "H" 
			},
			{
				"x": 3.8176386863,
				"y": 0.5111695534,
				"z": 1.5625695482,
				"element": "H" 
			},
			{
				"x": 2.018863793,
				"y": 0.0398057258,
				"z": -0.8746488283,
				"element": "H" 
			},
			{
				"x": 2.6416313261,
				"y": -1.1852249318,
				"z": 0.2268041739,
				"element": "H" 
			},
			{
				"x": 0.694905925,
				"y": -0.3165500697,
				"z": 4.2263490714,
				"element": "H" 
			}
		],
		 "valence_orbital": [ 
			{
				"type": "occ",
				"energy": -0.30269,
				"method": "rhf"
			},
			{
				"type": "occ",
				"energy": -0.29669,
				"method": "rhf"
			},
			{
				"type": "occ",
				"energy": -0.26963,
				"method": "rhf"
			},
			{
				"type": "occ",
				"energy": -0.24566,
				"method": "rhf"
			},
			{
				"type": "occ",
				"energy": -0.23195,
				"method": "rhf"
			},
			{
				"type": "unocc",
				"energy": -0.00812,
				"method": "rhf"
			},
			{
				"type": "unocc",
				"energy": 0.00119,
				"method": "rhf"
			},
			{
				"type": "unocc",
				"energy": 0.02274,
				"method": "rhf"
			},
			{
				"type": "unocc",
				"energy": 0.07622,
				"method": "rhf"
			},
			{
				"type": "unocc",
				"energy": 0.09497,
				"method": "rhf"
			}
		],
		"cosmo_sigma_profile": { 
			"-0.025": 0.0,
			"-0.024": 0.0,
			"-0.023": 0.0,
			"-0.022": 0.0,
			"-0.021": 0.0,
			"-0.02": 0.0,
			"-0.019": 0.0,
			"-0.018": 0.602891217786,
			"-0.017": 0.934833768549,
			"-0.016": 0.440893865491,
			"-0.015": 1.23918435285,
			"-0.014": 0.793411494057,
			"-0.013": 0.279665021957,
			"-0.012": 0.369799919724,
			"-0.011": 1.52708914477,
			"-0.01": 0.711397205292,
			"-0.009": 0.40629569626,
			"-0.008": 0.207703012433,
			"-0.007": 1.05731474371,
			"-0.006": 1.75517680402,
			"-0.005": 6.6450434547,
			"-0.004": 15.6288032466,
			"-0.003": 28.6346989038,
			"-0.002": 34.4990594601,
			"-0.001": 35.5152943776,
			"0.0": 36.0377989397,
			"0.001": 26.3171073719,
			"0.002": 12.3059948689,
			"0.003": 11.0090667047,
			"0.004": 10.1824870158,
			"0.005": 11.1906266892,
			"0.006": 10.8583745457,
			"0.007": 3.4215515607,
			"0.008": 3.23645948047,
			"0.009": 2.09121348507,
			"0.01": 1.35891136726,
			"0.011": 2.51286605592,
			"0.012": 3.88771312427,
			"0.013": 0.219831743515,
			"0.014": 0.0,
			"0.015": 0.0,
			"0.016": 0.0,
			"0.017": 0.0,
			"0.018": 0.0,
			"0.019": 0.0,
			"0.02": 0.0,
			"0.021": 0.0,
			"0.022": 0.0,
			"0.023": 0.0,
			"0.024": 0.0,
			"0.025": 0.0
		}
	}
}
