{
	 "smiles": "NS(=O)(=O)C1=CC2=C(CN(C3CCCCC3)C2=O)C=C1Cl", 
	 "Tm": 540.15, 
	 "num_atms": 38, 
	 "gaussian": { 
		 "optdone": 1, 
		 "sigma_profile": "yes", 
		 "theory": "DFT", 
		 "functional": "B3LYP", 
		 "basiset": "6-31G**", 
		 "properties": { 
			 "R2extent": 13266.4372, 
			 "electric_dipole_moment_norm": 4.87665942219, 
			 "electric_quadrupole_moment_norm": 26.3451610137, 
			 "total_energy": -1737.25292433, 
			 "HOMO_LUMO_gap": 0.19002, 
			 "cosmo_polarized_energy": -23.33, 
			 "cosmo_cavitation_energy": 42.7, 
			 "cosmo_dispersion_energy": -31.25, 
			 "cosmo_repulsion_energy": 2.35, 
			 "cosmo_total_nonelectrostatic_energy": 13.8, 
			 "SMD_solvation_energy": 5.8 
		},
		"coords": [
			{
				"x": -6.1547322932,
				"y": -1.5965233595,
				"z": -1.4764706387,
				"element": "N" 
			},
			{
				"x": -5.846192718,
				"y": -2.4468663125,
				"z": -0.0505819564,
				"element": "S" 
			},
			{
				"x": -5.8039063814,
				"y": -3.8689530387,
				"z": -0.3938654341,
				"element": "O" 
			},
			{
				"x": -6.7499061285,
				"y": -1.9196601381,
				"z": 0.9728069429,
				"element": "O" 
			},
			{
				"x": -4.1654145675,
				"y": -1.9169363037,
				"z": 0.3570285518,
				"element": "C" 
			},
			{
				"x": -3.4955717759,
				"y": -1.0116082516,
				"z": -0.469746164,
				"element": "C" 
			},
			{
				"x": -2.2064712363,
				"y": -0.6285250547,
				"z": -0.1222798489,
				"element": "C" 
			},
			{
				"x": -1.5776634711,
				"y": -1.1211338167,
				"z": 1.0169792677,
				"element": "C" 
			},
			{
				"x": -0.1972675697,
				"y": -0.5184586934,
				"z": 1.1172312198,
				"element": "C" 
			},
			{
				"x": -0.1338231619,
				"y": 0.3387599688,
				"z": -0.0629424082,
				"element": "N" 
			},
			{
				"x": 1.0148232708,
				"y": 1.1664055186,
				"z": -0.4243428566,
				"element": "C" 
			},
			{
				"x": 1.2993105953,
				"y": 2.2600963732,
				"z": 0.6225739358,
				"element": "C" 
			},
			{
				"x": 2.4752894253,
				"y": 3.1499731622,
				"z": 0.187779834,
				"element": "C" 
			},
			{
				"x": 3.7342705478,
				"y": 2.3198618466,
				"z": -0.1043235952,
				"element": "C" 
			},
			{
				"x": 3.4493725454,
				"y": 1.2208594704,
				"z": -1.1389583926,
				"element": "C" 
			},
			{
				"x": 2.2751954565,
				"y": 0.3272136115,
				"z": -0.7065789302,
				"element": "C" 
			},
			{
				"x": -1.2891973145,
				"y": 0.3121147705,
				"z": -0.8244983055,
				"element": "C" 
			},
			{
				"x": -1.4957050339,
				"y": 0.9372127751,
				"z": -1.8551130952,
				"element": "O" 
			},
			{
				"x": -2.2291466565,
				"y": -2.022139151,
				"z": 1.8495318471,
				"element": "C" 
			},
			{
				"x": -3.5275923178,
				"y": -2.4172935989,
				"z": 1.5125848714,
				"element": "C" 
			},
			{
				"x": -4.3208896575,
				"y": -3.5503646106,
				"z": 2.5787294619,
				"element": "Cl" 
			},
			{
				"x": -6.3187547601,
				"y": -2.2541352049,
				"z": -2.2334476437,
				"element": "H" 
			},
			{
				"x": -6.9432152602,
				"y": -0.9718663561,
				"z": -1.3333939189,
				"element": "H" 
			},
			{
				"x": -3.9736559948,
				"y": -0.6201374001,
				"z": -1.3589914588,
				"element": "H" 
			},
			{
				"x": 0.5843776214,
				"y": -1.2902412292,
				"z": 1.1023729439,
				"element": "H" 
			},
			{
				"x": -0.072196468,
				"y": 0.0561505835,
				"z": 2.0452015724,
				"element": "H" 
			},
			{
				"x": 0.7053128452,
				"y": 1.6520321098,
				"z": -1.3569159861,
				"element": "H" 
			},
			{
				"x": 0.3958247069,
				"y": 2.8609031721,
				"z": 0.7763063065,
				"element": "H" 
			},
			{
				"x": 1.5418808626,
				"y": 1.7921976268,
				"z": 1.5876196251,
				"element": "H" 
			},
			{
				"x": 2.1898350898,
				"y": 3.7055494902,
				"z": -0.7162072689,
				"element": "H" 
			},
			{
				"x": 2.6810068306,
				"y": 3.8991882549,
				"z": 0.960944555,
				"element": "H" 
			},
			{
				"x": 4.5438131365,
				"y": 2.9701231196,
				"z": -0.4556574448,
				"element": "H" 
			},
			{
				"x": 4.0880381125,
				"y": 1.857118621,
				"z": 0.828204075,
				"element": "H" 
			},
			{
				"x": 3.2096288716,
				"y": 1.6860493587,
				"z": -2.1051232612,
				"element": "H" 
			},
			{
				"x": 4.3430310133,
				"y": 0.6076552763,
				"z": -1.3026621169,
				"element": "H" 
			},
			{
				"x": 2.5609602578,
				"y": -0.2250049115,
				"z": 0.2003161819,
				"element": "H" 
			},
			{
				"x": 2.0517863138,
				"y": -0.4182707675,
				"z": -1.4781384383,
				"element": "H" 
			},
			{
				"x": -1.7664547362,
				"y": -2.4244469109,
				"z": 2.7444279713,
				"element": "H" 
			}
		],
		 "valence_orbital": [ 
			{
				"type": "occ",
				"energy": -0.293,
				"method": "rhf"
			},
			{
				"type": "occ",
				"energy": -0.27913,
				"method": "rhf"
			},
			{
				"type": "occ",
				"energy": -0.26318,
				"method": "rhf"
			},
			{
				"type": "occ",
				"energy": -0.2585,
				"method": "rhf"
			},
			{
				"type": "occ",
				"energy": -0.24579,
				"method": "rhf"
			},
			{
				"type": "unocc",
				"energy": -0.05577,
				"method": "rhf"
			},
			{
				"type": "unocc",
				"energy": -0.04376,
				"method": "rhf"
			},
			{
				"type": "unocc",
				"energy": 0.01091,
				"method": "rhf"
			},
			{
				"type": "unocc",
				"energy": 0.03717,
				"method": "rhf"
			},
			{
				"type": "unocc",
				"energy": 0.05115,
				"method": "rhf"
			}
		],
		"cosmo_sigma_profile": { 
			"-0.025": 0.0,
			"-0.024": 0.0,
			"-0.023": 0.0,
			"-0.022": 0.0,
			"-0.021": 0.0,
			"-0.02": 0.0,
			"-0.019": 0.0,
			"-0.018": 0.0,
			"-0.017": 0.0,
			"-0.016": 0.0970459738242,
			"-0.015": 2.19735180266,
			"-0.014": 2.50325801516,
			"-0.013": 2.21946473399,
			"-0.012": 2.56674397424,
			"-0.011": 2.8372124933,
			"-0.01": 1.58076747405,
			"-0.009": 2.28462229095,
			"-0.008": 4.17983398026,
			"-0.007": 9.5781439409,
			"-0.006": 10.4142682971,
			"-0.005": 11.5859947667,
			"-0.004": 13.414881961,
			"-0.003": 26.5254882347,
			"-0.002": 39.2289561853,
			"-0.001": 45.9343402809,
			"0.0": 49.6501343584,
			"0.001": 23.1018153302,
			"0.002": 10.9204129067,
			"0.003": 9.66482699607,
			"0.004": 7.22025775006,
			"0.005": 5.08925413585,
			"0.006": 4.86483811894,
			"0.007": 5.38472127305,
			"0.008": 5.5815177787,
			"0.009": 5.39223105214,
			"0.01": 12.3677727021,
			"0.011": 10.8173336834,
			"0.012": 2.61726126488,
			"0.013": 4.58087905333,
			"0.014": 3.86818575509,
			"0.015": 0.0399331488949,
			"0.016": 0.0,
			"0.017": 0.0,
			"0.018": 0.0,
			"0.019": 0.0,
			"0.02": 0.0,
			"0.021": 0.0,
			"0.022": 0.0,
			"0.023": 0.0,
			"0.024": 0.0,
			"0.025": 0.0
		}
	}
}
