{
	 "smiles": "NC1CCN(C1)C1=C(C=CC=C1)C(N)=O", 
	 "Tm": 412.15, 
	 "num_atms": 30, 
	 "gaussian": { 
		 "optdone": 1, 
		 "sigma_profile": "yes", 
		 "theory": "DFT", 
		 "functional": "B3LYP", 
		 "basiset": "6-31G**", 
		 "properties": { 
			 "R2extent": 4374.5295, 
			 "electric_dipole_moment_norm": 4.392412064, 
			 "electric_quadrupole_moment_norm": 17.8697041621, 
			 "total_energy": -667.696576349, 
			 "HOMO_LUMO_gap": 0.19144, 
			 "cosmo_polarized_energy": -16.62, 
			 "cosmo_cavitation_energy": 31.38, 
			 "cosmo_dispersion_energy": -22.65, 
			 "cosmo_repulsion_energy": 1.77, 
			 "cosmo_total_nonelectrostatic_energy": 10.5, 
			 "SMD_solvation_energy": 4.45 
		},
		"coords": [
			{
				"x": 0.6660333958,
				"y": 1.0937846886,
				"z": -2.7929246259,
				"element": "N" 
			},
			{
				"x": 0.8781967873,
				"y": 1.1976356521,
				"z": -1.3475535582,
				"element": "C" 
			},
			{
				"x": -0.4890979285,
				"y": 1.3150828114,
				"z": -0.6103567222,
				"element": "C" 
			},
			{
				"x": -0.5690501806,
				"y": 0.0855065897,
				"z": 0.3116092961,
				"element": "C" 
			},
			{
				"x": 0.3847326111,
				"y": -0.8680014066,
				"z": -0.3079370339,
				"element": "N" 
			},
			{
				"x": 1.533965635,
				"y": -0.028795554,
				"z": -0.6668490672,
				"element": "C" 
			},
			{
				"x": 0.6098464325,
				"y": -2.0878522109,
				"z": 0.4067145959,
				"element": "C" 
			},
			{
				"x": -0.3766172869,
				"y": -3.1084614192,
				"z": 0.4332050319,
				"element": "C" 
			},
			{
				"x": -0.1458707017,
				"y": -4.2557595552,
				"z": 1.203379595,
				"element": "C" 
			},
			{
				"x": 1.0429896912,
				"y": -4.4453532761,
				"z": 1.9012308432,
				"element": "C" 
			},
			{
				"x": 2.0312163995,
				"y": -3.4654487846,
				"z": 1.8339872749,
				"element": "C" 
			},
			{
				"x": 1.8105689243,
				"y": -2.2987366769,
				"z": 1.1029292064,
				"element": "C" 
			},
			{
				"x": -1.6698809138,
				"y": -3.1405278624,
				"z": -0.3560439014,
				"element": "C" 
			},
			{
				"x": -1.7639319252,
				"y": -2.2834510287,
				"z": -1.4102607342,
				"element": "N" 
			},
			{
				"x": -2.5602126058,
				"y": -3.9420149524,
				"z": -0.0866454347,
				"element": "O" 
			},
			{
				"x": 0.1666670386,
				"y": 0.231770456,
				"z": -3.0047851563,
				"element": "H" 
			},
			{
				"x": 1.5607072114,
				"y": 1.0315050461,
				"z": -3.2743894919,
				"element": "H" 
			},
			{
				"x": 1.4968147409,
				"y": 2.085176177,
				"z": -1.1802390099,
				"element": "H" 
			},
			{
				"x": -1.2905145355,
				"y": 1.3121733452,
				"z": -1.3549230485,
				"element": "H" 
			},
			{
				"x": -0.5759603415,
				"y": 2.2469344243,
				"z": -0.0461922211,
				"element": "H" 
			},
			{
				"x": -1.5680880849,
				"y": -0.3494293089,
				"z": 0.3687520416,
				"element": "H" 
			},
			{
				"x": -0.2431414126,
				"y": 0.3329920656,
				"z": 1.3351335404,
				"element": "H" 
			},
			{
				"x": 2.0946054583,
				"y": 0.3069271947,
				"z": 0.2239525071,
				"element": "H" 
			},
			{
				"x": 2.2254694909,
				"y": -0.5677375987,
				"z": -1.3219139071,
				"element": "H" 
			},
			{
				"x": -0.9310591946,
				"y": -5.0038042012,
				"z": 1.2141245958,
				"element": "H" 
			},
			{
				"x": 1.200386978,
				"y": -5.3516148153,
				"z": 2.4779791243,
				"element": "H" 
			},
			{
				"x": 2.973453177,
				"y": -3.5961943267,
				"z": 2.3590836156,
				"element": "H" 
			},
			{
				"x": 2.5821993824,
				"y": -1.538107657,
				"z": 1.0853674145,
				"element": "H" 
			},
			{
				"x": -1.0049524303,
				"y": -1.6415145159,
				"z": -1.6059715101,
				"element": "H" 
			},
			{
				"x": -2.5857758122,
				"y": -2.3458833,
				"z": -1.9906632604,
				"element": "H" 
			}
		],
		 "valence_orbital": [ 
			{
				"type": "occ",
				"energy": -0.25674,
				"method": "rhf"
			},
			{
				"type": "occ",
				"energy": -0.25104,
				"method": "rhf"
			},
			{
				"type": "occ",
				"energy": -0.24586,
				"method": "rhf"
			},
			{
				"type": "occ",
				"energy": -0.24025,
				"method": "rhf"
			},
			{
				"type": "occ",
				"energy": -0.22154,
				"method": "rhf"
			},
			{
				"type": "unocc",
				"energy": -0.0301,
				"method": "rhf"
			},
			{
				"type": "unocc",
				"energy": -0.00135,
				"method": "rhf"
			},
			{
				"type": "unocc",
				"energy": 0.0603,
				"method": "rhf"
			},
			{
				"type": "unocc",
				"energy": 0.07111,
				"method": "rhf"
			},
			{
				"type": "unocc",
				"energy": 0.08774,
				"method": "rhf"
			}
		],
		"cosmo_sigma_profile": { 
			"-0.025": 0.0,
			"-0.024": 0.0,
			"-0.023": 0.0,
			"-0.022": 0.0,
			"-0.021": 0.0,
			"-0.02": 0.0,
			"-0.019": 0.0,
			"-0.018": 0.0,
			"-0.017": 0.0,
			"-0.016": 0.0,
			"-0.015": 0.0,
			"-0.014": 0.181325281511,
			"-0.013": 1.14686042155,
			"-0.012": 0.775541394814,
			"-0.011": 1.38800767361,
			"-0.01": 1.28372432874,
			"-0.009": 4.54277846831,
			"-0.008": 5.4350883797,
			"-0.007": 4.89626440666,
			"-0.006": 9.39778608085,
			"-0.005": 12.5536318336,
			"-0.004": 20.8756428527,
			"-0.003": 32.5185247357,
			"-0.002": 26.3657607043,
			"-0.001": 18.2627841347,
			"0.0": 13.6678018097,
			"0.001": 12.9897438481,
			"0.002": 12.4486951512,
			"0.003": 12.1673404773,
			"0.004": 13.3395680946,
			"0.005": 11.2205633214,
			"0.006": 3.22073464414,
			"0.007": 2.32618951726,
			"0.008": 1.38689478644,
			"0.009": 2.50818510863,
			"0.01": 2.00923451944,
			"0.011": 2.48998775204,
			"0.012": 2.95995344807,
			"0.013": 2.7235498514,
			"0.014": 6.1593247661,
			"0.015": 2.2750835046,
			"0.016": 0.703490659669,
			"0.017": 0.615039062965,
			"0.018": 0.683394854913,
			"0.019": 0.5339973083,
			"0.02": 0.22548387897,
			"0.021": 0.0,
			"0.022": 0.0,
			"0.023": 0.0,
			"0.024": 0.0,
			"0.025": 0.0
		}
	}
}
