{
	 "smiles": "COC(=O)C1=C(C(=CS1)S(=O)(=O)C(C)C)S(Cl)(=O)=O", 
	 "Tm": 401.15, 
	 "num_atms": 30, 
	 "gaussian": { 
		 "optdone": 1, 
		 "sigma_profile": "yes", 
		 "theory": "DFT", 
		 "functional": "B3LYP", 
		 "basiset": "6-31G**", 
		 "properties": { 
			 "R2extent": 7729.4031, 
			 "electric_dipole_moment_norm": 6.23812711477, 
			 "electric_quadrupole_moment_norm": 24.8977642681, 
			 "total_energy": -2455.52714533, 
			 "HOMO_LUMO_gap": 0.18446, 
			 "cosmo_polarized_energy": -20.52, 
			 "cosmo_cavitation_energy": 39.61, 
			 "cosmo_dispersion_energy": -28.53, 
			 "cosmo_repulsion_energy": 2.09, 
			 "cosmo_total_nonelectrostatic_energy": 13.17, 
			 "SMD_solvation_energy": 6.5 
		},
		"coords": [
			{
				"x": 0.6590660085,
				"y": -3.2817985118,
				"z": -4.8983103301,
				"element": "C" 
			},
			{
				"x": 0.4998622717,
				"y": -2.7751698026,
				"z": -3.5574836031,
				"element": "O" 
			},
			{
				"x": -0.0961447489,
				"y": -1.569770097,
				"z": -3.4678329427,
				"element": "C" 
			},
			{
				"x": -0.4774606614,
				"y": -0.9142448917,
				"z": -4.4076761892,
				"element": "O" 
			},
			{
				"x": -0.2877625194,
				"y": -1.1982202656,
				"z": -2.035718005,
				"element": "C" 
			},
			{
				"x": -0.4252788011,
				"y": 0.0430900624,
				"z": -1.4440424179,
				"element": "C" 
			},
			{
				"x": -0.7772886301,
				"y": -0.0349322963,
				"z": -0.0505033624,
				"element": "C" 
			},
			{
				"x": -0.8724156553,
				"y": -1.3344749015,
				"z": 0.3737003598,
				"element": "C" 
			},
			{
				"x": -0.5382200019,
				"y": -2.4654858873,
				"z": -0.8741232851,
				"element": "S" 
			},
			{
				"x": -1.3417800703,
				"y": 1.2381465286,
				"z": 1.1348013235,
				"element": "S" 
			},
			{
				"x": -2.2238476851,
				"y": 2.1545534866,
				"z": 0.4035363735,
				"element": "O" 
			},
			{
				"x": -1.8608159976,
				"y": 0.4558641892,
				"z": 2.2730370083,
				"element": "O" 
			},
			{
				"x": 0.1518226787,
				"y": 2.135122456,
				"z": 1.7269517918,
				"element": "C" 
			},
			{
				"x": 1.0934111525,
				"y": 1.1786902438,
				"z": 2.4567271811,
				"element": "C" 
			},
			{
				"x": -0.3449072633,
				"y": 3.2893453862,
				"z": 2.6050588274,
				"element": "C" 
			},
			{
				"x": -0.0160442736,
				"y": 1.5647043103,
				"z": -2.3149983381,
				"element": "S" 
			},
			{
				"x": -1.8122293911,
				"y": 2.0450901441,
				"z": -3.2710205329,
				"element": "Cl" 
			},
			{
				"x": 0.2256651631,
				"y": 2.6014696865,
				"z": -1.319214475,
				"element": "O" 
			},
			{
				"x": 0.9815501679,
				"y": 1.2753676202,
				"z": -3.3320468846,
				"element": "O" 
			},
			{
				"x": 1.1412088777,
				"y": -4.2518259636,
				"z": -4.7864018985,
				"element": "H" 
			},
			{
				"x": 1.2823947663,
				"y": -2.6034141334,
				"z": -5.484529449,
				"element": "H" 
			},
			{
				"x": -0.3141479776,
				"y": -3.3846690056,
				"z": -5.3836607095,
				"element": "H" 
			},
			{
				"x": -1.1620129213,
				"y": -1.6511860372,
				"z": 1.3661490418,
				"element": "H" 
			},
			{
				"x": 0.607167904,
				"y": 2.5249189774,
				"z": 0.8154869961,
				"element": "H" 
			},
			{
				"x": 0.6084313649,
				"y": 0.7480226606,
				"z": 3.3364443906,
				"element": "H" 
			},
			{
				"x": 1.4358059613,
				"y": 0.3642026491,
				"z": 1.8116444062,
				"element": "H" 
			},
			{
				"x": 1.9771946778,
				"y": 1.7350802853,
				"z": 2.7842481512,
				"element": "H" 
			},
			{
				"x": 0.5185517837,
				"y": 3.8797770924,
				"z": 2.9261589172,
				"element": "H" 
			},
			{
				"x": -1.0252248415,
				"y": 3.9417803672,
				"z": 2.053934694,
				"element": "H" 
			},
			{
				"x": -0.8571513385,
				"y": 2.9136656478,
				"z": 3.4953829605,
				"element": "H" 
			}
		],
		 "valence_orbital": [ 
			{
				"type": "occ",
				"energy": -0.30724,
				"method": "rhf"
			},
			{
				"type": "occ",
				"energy": -0.30615,
				"method": "rhf"
			},
			{
				"type": "occ",
				"energy": -0.30042,
				"method": "rhf"
			},
			{
				"type": "occ",
				"energy": -0.29602,
				"method": "rhf"
			},
			{
				"type": "occ",
				"energy": -0.28651,
				"method": "rhf"
			},
			{
				"type": "unocc",
				"energy": -0.10205,
				"method": "rhf"
			},
			{
				"type": "unocc",
				"energy": -0.07656,
				"method": "rhf"
			},
			{
				"type": "unocc",
				"energy": -0.04247,
				"method": "rhf"
			},
			{
				"type": "unocc",
				"energy": -0.01535,
				"method": "rhf"
			},
			{
				"type": "unocc",
				"energy": 0.01414,
				"method": "rhf"
			}
		],
		"cosmo_sigma_profile": { 
			"-0.025": 0.0,
			"-0.024": 0.0,
			"-0.023": 0.0,
			"-0.022": 0.0,
			"-0.021": 0.0,
			"-0.02": 0.0,
			"-0.019": 0.0,
			"-0.018": 0.0,
			"-0.017": 0.0,
			"-0.016": 0.0,
			"-0.015": 0.0,
			"-0.014": 0.0,
			"-0.013": 0.00620589280673,
			"-0.012": 0.947364328489,
			"-0.011": 1.59648219056,
			"-0.01": 1.58879375035,
			"-0.009": 1.50354468479,
			"-0.008": 3.26095288233,
			"-0.007": 7.60891950576,
			"-0.006": 15.2323746498,
			"-0.005": 25.306958438,
			"-0.004": 32.5445144141,
			"-0.003": 32.9315328807,
			"-0.002": 31.8476552313,
			"-0.001": 29.0147783326,
			"0.0": 17.323646548,
			"0.001": 13.5850330379,
			"0.002": 15.1645445307,
			"0.003": 11.9199840816,
			"0.004": 7.84192801319,
			"0.005": 9.62523428809,
			"0.006": 8.43879519352,
			"0.007": 10.3398110497,
			"0.008": 13.0569213957,
			"0.009": 9.29636401947,
			"0.01": 10.7711128144,
			"0.011": 7.2670528868,
			"0.012": 2.21413556421,
			"0.013": 0.0,
			"0.014": 0.0,
			"0.015": 0.0,
			"0.016": 0.0,
			"0.017": 0.0,
			"0.018": 0.0,
			"0.019": 0.0,
			"0.02": 0.0,
			"0.021": 0.0,
			"0.022": 0.0,
			"0.023": 0.0,
			"0.024": 0.0,
			"0.025": 0.0
		}
	}
}
