{
	 "smiles": "CC1=C(C=CC=C1)N1C(S)=NC2=C(C(=CS2)C2=CC=CC=C2)C1=O", 
	 "Tm": 431.15, 
	 "num_atms": 38, 
	 "gaussian": { 
		 "optdone": 1, 
		 "sigma_profile": "yes", 
		 "theory": "DFT", 
		 "functional": "B3LYP", 
		 "basiset": "6-31G**", 
		 "properties": { 
			 "R2extent": 9590.1391, 
			 "electric_dipole_moment_norm": 1.45903092839, 
			 "electric_quadrupole_moment_norm": 10.8079130358, 
			 "total_energy": -1713.57701269, 
			 "HOMO_LUMO_gap": 0.16509, 
			 "cosmo_polarized_energy": -13.65, 
			 "cosmo_cavitation_energy": 44.94, 
			 "cosmo_dispersion_energy": -31.96, 
			 "cosmo_repulsion_energy": 2.34, 
			 "cosmo_total_nonelectrostatic_energy": 15.33, 
			 "SMD_solvation_energy": 5.84 
		},
		"coords": [
			{
				"x": -1.9491594921,
				"y": 2.2218379334,
				"z": -2.135553854,
				"element": "C" 
			},
			{
				"x": -0.6584267086,
				"y": 2.9619253032,
				"z": -1.8967158024,
				"element": "C" 
			},
			{
				"x": 0.5471077699,
				"y": 2.2817455969,
				"z": -1.6534104553,
				"element": "C" 
			},
			{
				"x": 1.7354804384,
				"y": 2.965217059,
				"z": -1.3910749675,
				"element": "C" 
			},
			{
				"x": 1.7498187011,
				"y": 4.3588795541,
				"z": -1.3869169723,
				"element": "C" 
			},
			{
				"x": 0.5681290649,
				"y": 5.0556054598,
				"z": -1.6372140062,
				"element": "C" 
			},
			{
				"x": -0.6162644056,
				"y": 4.3610353089,
				"z": -1.8860344211,
				"element": "C" 
			},
			{
				"x": 0.5753644487,
				"y": 0.8334035172,
				"z": -1.6584148714,
				"element": "N" 
			},
			{
				"x": 1.0220942377,
				"y": 0.1431700283,
				"z": -2.7619023466,
				"element": "C" 
			},
			{
				"x": 1.5012102413,
				"y": 1.1189145067,
				"z": -4.1752213548,
				"element": "S" 
			},
			{
				"x": 1.0994084944,
				"y": -1.1544924966,
				"z": -2.8352626697,
				"element": "N" 
			},
			{
				"x": 0.7055105233,
				"y": -1.8256797167,
				"z": -1.7225447723,
				"element": "C" 
			},
			{
				"x": 0.2344812513,
				"y": -1.2754150567,
				"z": -0.5316423604,
				"element": "C" 
			},
			{
				"x": -0.1343521981,
				"y": -2.2794556252,
				"z": 0.4465851394,
				"element": "C" 
			},
			{
				"x": 0.0816951627,
				"y": -3.539204423,
				"z": -0.0509420953,
				"element": "C" 
			},
			{
				"x": 0.7156794106,
				"y": -3.5684707403,
				"z": -1.67248547,
				"element": "S" 
			},
			{
				"x": -0.6697680172,
				"y": -2.0721647292,
				"z": 1.8146807342,
				"element": "C" 
			},
			{
				"x": -1.7210535228,
				"y": -2.8833076141,
				"z": 2.2747572574,
				"element": "C" 
			},
			{
				"x": -2.2005379446,
				"y": -2.7630789063,
				"z": 3.5786870568,
				"element": "C" 
			},
			{
				"x": -1.638052238,
				"y": -1.8264970535,
				"z": 4.4466730338,
				"element": "C" 
			},
			{
				"x": -0.5967978594,
				"y": -1.0107140355,
				"z": 3.9983760247,
				"element": "C" 
			},
			{
				"x": -0.1162792844,
				"y": -1.1292653155,
				"z": 2.6958816358,
				"element": "C" 
			},
			{
				"x": 0.1167804085,
				"y": 0.1691039306,
				"z": -0.4593473468,
				"element": "C" 
			},
			{
				"x": -0.3119236613,
				"y": 0.845092493,
				"z": 0.4625944541,
				"element": "O" 
			},
			{
				"x": -2.2576429774,
				"y": 1.6933798647,
				"z": -1.2273072925,
				"element": "H" 
			},
			{
				"x": -1.8497123789,
				"y": 1.47865902,
				"z": -2.933730911,
				"element": "H" 
			},
			{
				"x": -2.7466217215,
				"y": 2.9139965091,
				"z": -2.4163291742,
				"element": "H" 
			},
			{
				"x": 2.6397142599,
				"y": 2.3986342942,
				"z": -1.1923953919,
				"element": "H" 
			},
			{
				"x": 2.6740612511,
				"y": 4.8913831031,
				"z": -1.1861111777,
				"element": "H" 
			},
			{
				"x": 0.5652486879,
				"y": 6.1417093389,
				"z": -1.6362734146,
				"element": "H" 
			},
			{
				"x": -1.533616469,
				"y": 4.9123109451,
				"z": -2.073498641,
				"element": "H" 
			},
			{
				"x": 1.7453628168,
				"y": 0.0173174154,
				"z": -4.9115732265,
				"element": "H" 
			},
			{
				"x": -0.0697041974,
				"y": -4.4713425176,
				"z": 0.4750640407,
				"element": "H" 
			},
			{
				"x": -2.1767995352,
				"y": -3.5975914435,
				"z": 1.5951329784,
				"element": "H" 
			},
			{
				"x": -3.0187762631,
				"y": -3.3953668147,
				"z": 3.9118514895,
				"element": "H" 
			},
			{
				"x": -2.0117783313,
				"y": -1.7277386779,
				"z": 5.4618652546,
				"element": "H" 
			},
			{
				"x": -0.1550992567,
				"y": -0.2764419949,
				"z": 4.6660078055,
				"element": "H" 
			},
			{
				"x": 0.6851192939,
				"y": -0.4844940203,
				"z": 2.3569460908,
				"element": "H" 
			}
		],
		 "valence_orbital": [ 
			{
				"type": "occ",
				"energy": -0.25881,
				"method": "rhf"
			},
			{
				"type": "occ",
				"energy": -0.25174,
				"method": "rhf"
			},
			{
				"type": "occ",
				"energy": -0.2426,
				"method": "rhf"
			},
			{
				"type": "occ",
				"energy": -0.23621,
				"method": "rhf"
			},
			{
				"type": "occ",
				"energy": -0.21061,
				"method": "rhf"
			},
			{
				"type": "unocc",
				"energy": -0.04552,
				"method": "rhf"
			},
			{
				"type": "unocc",
				"energy": -0.02469,
				"method": "rhf"
			},
			{
				"type": "unocc",
				"energy": -0.0201,
				"method": "rhf"
			},
			{
				"type": "unocc",
				"energy": -0.01041,
				"method": "rhf"
			},
			{
				"type": "unocc",
				"energy": -0.00177,
				"method": "rhf"
			}
		],
		"cosmo_sigma_profile": { 
			"-0.025": 0.0,
			"-0.024": 0.0,
			"-0.023": 0.0,
			"-0.022": 0.0,
			"-0.021": 0.0,
			"-0.02": 0.0,
			"-0.019": 0.0,
			"-0.018": 0.0,
			"-0.017": 0.0,
			"-0.016": 0.0,
			"-0.015": 0.0,
			"-0.014": 0.0,
			"-0.013": 0.0,
			"-0.012": 0.84958587797,
			"-0.011": 1.34640689458,
			"-0.01": 1.00726184893,
			"-0.009": 2.75752040904,
			"-0.008": 3.1296001583,
			"-0.007": 5.67061334065,
			"-0.006": 15.9755681617,
			"-0.005": 26.8284286986,
			"-0.004": 30.7518299756,
			"-0.003": 27.7333845536,
			"-0.002": 26.1830721706,
			"-0.001": 26.8868536137,
			"0.0": 29.8495190296,
			"0.001": 31.7180681697,
			"0.002": 32.0313317659,
			"0.003": 29.5176230469,
			"0.004": 24.4076724716,
			"0.005": 17.2355515389,
			"0.006": 10.2346617182,
			"0.007": 3.82017867391,
			"0.008": 3.14002364105,
			"0.009": 3.28465170733,
			"0.01": 2.73297159771,
			"0.011": 2.92503091835,
			"0.012": 3.55158654614,
			"0.013": 2.00436016055,
			"0.014": 0.0,
			"0.015": 0.0,
			"0.016": 0.0,
			"0.017": 0.0,
			"0.018": 0.0,
			"0.019": 0.0,
			"0.02": 0.0,
			"0.021": 0.0,
			"0.022": 0.0,
			"0.023": 0.0,
			"0.024": 0.0,
			"0.025": 0.0
		}
	}
}
