{
	 "smiles": "CC1=NC(C=O)=CS1", 
	 "Tm": 330.15, 
	 "num_atms": 13, 
	 "gaussian": { 
		 "optdone": 1, 
		 "sigma_profile": "yes", 
		 "theory": "DFT", 
		 "functional": "B3LYP", 
		 "basiset": "6-31G**", 
		 "properties": { 
			 "R2extent": 1636.4991, 
			 "electric_dipole_moment_norm": 3.69509160915, 
			 "electric_quadrupole_moment_norm": 4.48976429114, 
			 "total_energy": -721.691668585, 
			 "HOMO_LUMO_gap": 0.18983, 
			 "cosmo_polarized_energy": -8.21, 
			 "cosmo_cavitation_energy": 19.46, 
			 "cosmo_dispersion_energy": -14.85, 
			 "cosmo_repulsion_energy": 1.19, 
			 "cosmo_total_nonelectrostatic_energy": 5.81, 
			 "SMD_solvation_energy": 3.07 
		},
		"coords": [
			{
				"x": -2.3367332433,
				"y": -0.0047785461,
				"z": 3.1110883775,
				"element": "C" 
			},
			{
				"x": -1.2459841503,
				"y": -0.3582837948,
				"z": 2.1478838705,
				"element": "C" 
			},
			{
				"x": -1.4064053312,
				"y": -0.5149913582,
				"z": 0.8694661444,
				"element": "N" 
			},
			{
				"x": -0.2178145023,
				"y": -0.8380622102,
				"z": 0.2427467157,
				"element": "C" 
			},
			{
				"x": -0.1951427216,
				"y": -1.0570210067,
				"z": -1.2167743449,
				"element": "C" 
			},
			{
				"x": 0.8056311417,
				"y": -1.3440517587,
				"z": -1.8464814529,
				"element": "O" 
			},
			{
				"x": 0.880404139,
				"y": -0.9313848582,
				"z": 1.0600318629,
				"element": "C" 
			},
			{
				"x": 0.4282157592,
				"y": -0.6040513613,
				"z": 2.6878603656,
				"element": "S" 
			},
			{
				"x": -3.2700727653,
				"y": 0.0946070153,
				"z": 2.5542063106,
				"element": "H" 
			},
			{
				"x": -2.4627821411,
				"y": -0.7780813588,
				"z": 3.8760556843,
				"element": "H" 
			},
			{
				"x": -2.1289766475,
				"y": 0.9404887276,
				"z": 3.6233069269,
				"element": "H" 
			},
			{
				"x": -1.1852910848,
				"y": -0.9359292383,
				"z": -1.7021454515,
				"element": "H" 
			},
			{
				"x": 1.8927515478,
				"y": -1.1710602516,
				"z": 0.767954991,
				"element": "H" 
			}
		],
		 "valence_orbital": [ 
			{
				"type": "occ",
				"energy": -0.37491,
				"method": "rhf"
			},
			{
				"type": "occ",
				"energy": -0.3012,
				"method": "rhf"
			},
			{
				"type": "occ",
				"energy": -0.28976,
				"method": "rhf"
			},
			{
				"type": "occ",
				"energy": -0.25663,
				"method": "rhf"
			},
			{
				"type": "occ",
				"energy": -0.25598,
				"method": "rhf"
			},
			{
				"type": "unocc",
				"energy": -0.06615,
				"method": "rhf"
			},
			{
				"type": "unocc",
				"energy": -0.01848,
				"method": "rhf"
			},
			{
				"type": "unocc",
				"energy": 0.0036,
				"method": "rhf"
			},
			{
				"type": "unocc",
				"energy": 0.07994,
				"method": "rhf"
			},
			{
				"type": "unocc",
				"energy": 0.09043,
				"method": "rhf"
			}
		],
		"cosmo_sigma_profile": { 
			"-0.025": 0.0,
			"-0.024": 0.0,
			"-0.023": 0.0,
			"-0.022": 0.0,
			"-0.021": 0.0,
			"-0.02": 0.0,
			"-0.019": 0.0,
			"-0.018": 0.0,
			"-0.017": 0.0,
			"-0.016": 0.0,
			"-0.015": 0.0,
			"-0.014": 0.0,
			"-0.013": 0.0,
			"-0.012": 0.0,
			"-0.011": 0.0744131281626,
			"-0.01": 1.28195493854,
			"-0.009": 1.83310462329,
			"-0.008": 1.00021412196,
			"-0.007": 3.08064050094,
			"-0.006": 11.0923223015,
			"-0.005": 12.6466889544,
			"-0.004": 11.6645262283,
			"-0.003": 11.6707985237,
			"-0.002": 14.1506482312,
			"-0.001": 15.5698760558,
			"0.0": 15.6468896888,
			"0.001": 15.3385639148,
			"0.002": 8.13833263081,
			"0.003": 3.81902082831,
			"0.004": 3.44946218158,
			"0.005": 3.21265553544,
			"0.006": 2.07567418744,
			"0.007": 2.62944899742,
			"0.008": 3.24070987791,
			"0.009": 2.53629736689,
			"0.01": 3.69699816957,
			"0.011": 5.22004884877,
			"0.012": 3.66435090962,
			"0.013": 1.12089215357,
			"0.014": 0.533821557765,
			"0.015": 0.0259406745891,
			"0.016": 0.0,
			"0.017": 0.0,
			"0.018": 0.0,
			"0.019": 0.0,
			"0.02": 0.0,
			"0.021": 0.0,
			"0.022": 0.0,
			"0.023": 0.0,
			"0.024": 0.0,
			"0.025": 0.0
		}
	}
}
