{
	 "smiles": "CC(CCC(O)=O)C1CCC2C3C(CC(=O)C12C)C1(C)CCC(=O)CC1CC3=O", 
	 "Tm": 510.15, 
	 "num_atms": 63, 
	 "gaussian": { 
		 "optdone": 1, 
		 "sigma_profile": "yes", 
		 "theory": "DFT", 
		 "functional": "B3LYP", 
		 "basiset": "6-31G**", 
		 "properties": { 
			 "R2extent": 14974.8178, 
			 "electric_dipole_moment_norm": 4.19430486851, 
			 "electric_quadrupole_moment_norm": 32.3724734282, 
			 "total_energy": -1311.18247408, 
			 "HOMO_LUMO_gap": 0.21438, 
			 "cosmo_polarized_energy": -26.87, 
			 "cosmo_cavitation_energy": 55.72, 
			 "cosmo_dispersion_energy": -37.28, 
			 "cosmo_repulsion_energy": 2.73, 
			 "cosmo_total_nonelectrostatic_energy": 21.17, 
			 "SMD_solvation_energy": 10.48 
		},
		"coords": [
			{
				"x": -5.0652317322,
				"y": -2.1108668358,
				"z": -0.4282494972,
				"element": "C" 
			},
			{
				"x": -3.6743927794,
				"y": -1.7165180832,
				"z": 0.1027702942,
				"element": "C" 
			},
			{
				"x": -3.6265068454,
				"y": -0.2491469613,
				"z": 0.5797494796,
				"element": "C" 
			},
			{
				"x": -4.5515075789,
				"y": 0.0732716353,
				"z": 1.7733034532,
				"element": "C" 
			},
			{
				"x": -6.0161751499,
				"y": 0.2782292304,
				"z": 1.4504941179,
				"element": "C" 
			},
			{
				"x": -6.195582292,
				"y": 1.1325728981,
				"z": 0.4091316741,
				"element": "O" 
			},
			{
				"x": -6.9502477549,
				"y": -0.2087435577,
				"z": 2.0494220208,
				"element": "O" 
			},
			{
				"x": -2.5936372369,
				"y": -2.0816547142,
				"z": -0.9524791936,
				"element": "C" 
			},
			{
				"x": -2.7070499333,
				"y": -1.2880082158,
				"z": -2.2999990144,
				"element": "C" 
			},
			{
				"x": -1.2794652791,
				"y": -0.8587235497,
				"z": -2.7057419621,
				"element": "C" 
			},
			{
				"x": -0.5922743459,
				"y": -0.7101896932,
				"z": -1.3424800792,
				"element": "C" 
			},
			{
				"x": 0.9058114209,
				"y": -0.3679304147,
				"z": -1.2215020169,
				"element": "C" 
			},
			{
				"x": 1.4647692059,
				"y": -0.7030557685,
				"z": 0.1996614368,
				"element": "C" 
			},
			{
				"x": 0.341833059,
				"y": -0.7119644543,
				"z": 1.2573508753,
				"element": "C" 
			},
			{
				"x": -0.7354374924,
				"y": -1.7624593093,
				"z": 0.9389257511,
				"element": "C" 
			},
			{
				"x": -1.227791289,
				"y": -2.4368310144,
				"z": 1.8256762478,
				"element": "O" 
			},
			{
				"x": -1.0692000626,
				"y": -1.9515552951,
				"z": -0.544256959,
				"element": "C" 
			},
			{
				"x": -0.3638497298,
				"y": -3.2712813836,
				"z": -0.9662677005,
				"element": "C" 
			},
			{
				"x": 2.7424247505,
				"y": 0.141618625,
				"z": 0.5509106856,
				"element": "C" 
			},
			{
				"x": 2.3660747589,
				"y": 1.4752109669,
				"z": 1.2257650646,
				"element": "C" 
			},
			{
				"x": 3.6211974629,
				"y": -0.720550972,
				"z": 1.4982398791,
				"element": "C" 
			},
			{
				"x": 5.0371818073,
				"y": -0.1709659121,
				"z": 1.7517387479,
				"element": "C" 
			},
			{
				"x": 5.7563470932,
				"y": 0.0239123511,
				"z": 0.4292275794,
				"element": "C" 
			},
			{
				"x": 6.8496893818,
				"y": -0.4502439796,
				"z": 0.1882208869,
				"element": "O" 
			},
			{
				"x": 4.9885703688,
				"y": 0.8739698907,
				"z": -0.5707417101,
				"element": "C" 
			},
			{
				"x": 3.5107544824,
				"y": 0.4539316289,
				"z": -0.78661444,
				"element": "C" 
			},
			{
				"x": 3.3717580673,
				"y": -0.6846672395,
				"z": -1.8142835796,
				"element": "C" 
			},
			{
				"x": 1.9117803391,
				"y": -0.9650193054,
				"z": -2.2015492727,
				"element": "C" 
			},
			{
				"x": 1.6349310211,
				"y": -1.6182672907,
				"z": -3.1884786713,
				"element": "O" 
			},
			{
				"x": -5.3793611165,
				"y": -1.470996577,
				"z": -1.260582289,
				"element": "H" 
			},
			{
				"x": -5.8287724168,
				"y": -2.0446559949,
				"z": 0.3515267525,
				"element": "H" 
			},
			{
				"x": -5.0623840511,
				"y": -3.1460250487,
				"z": -0.7865925671,
				"element": "H" 
			},
			{
				"x": -3.4646875753,
				"y": -2.3408535401,
				"z": 0.978969112,
				"element": "H" 
			},
			{
				"x": -3.8602606284,
				"y": 0.4390214718,
				"z": -0.2394125934,
				"element": "H" 
			},
			{
				"x": -2.6072962166,
				"y": -0.0110577505,
				"z": 0.9019822189,
				"element": "H" 
			},
			{
				"x": -4.4949208157,
				"y": -0.7011540426,
				"z": 2.5422584079,
				"element": "H" 
			},
			{
				"x": -4.2150540313,
				"y": 1.0121928385,
				"z": 2.2326282014,
				"element": "H" 
			},
			{
				"x": -7.1576731913,
				"y": 1.2143199652,
				"z": 0.2975628045,
				"element": "H" 
			},
			{
				"x": -2.7667674169,
				"y": -3.1420472989,
				"z": -1.1636744235,
				"element": "H" 
			},
			{
				"x": -3.3276072454,
				"y": -0.3966085393,
				"z": -2.1599225384,
				"element": "H" 
			},
			{
				"x": -3.1944117819,
				"y": -1.8830682743,
				"z": -3.077545295,
				"element": "H" 
			},
			{
				"x": -1.273145369,
				"y": 0.0722278012,
				"z": -3.2829759058,
				"element": "H" 
			},
			{
				"x": -0.7790862289,
				"y": -1.6138653581,
				"z": -3.3126828735,
				"element": "H" 
			},
			{
				"x": -1.0997708676,
				"y": 0.1388312993,
				"z": -0.8606859482,
				"element": "H" 
			},
			{
				"x": 0.9873283859,
				"y": 0.7203208262,
				"z": -1.3661203602,
				"element": "H" 
			},
			{
				"x": 1.8152997466,
				"y": -1.7410777583,
				"z": 0.1500476934,
				"element": "H" 
			},
			{
				"x": 0.7200109441,
				"y": -0.9373107636,
				"z": 2.2579906068,
				"element": "H" 
			},
			{
				"x": -0.145338219,
				"y": 0.2712157348,
				"z": 1.311369064,
				"element": "H" 
			},
			{
				"x": 0.7186154799,
				"y": -3.252419259,
				"z": -0.8160184317,
				"element": "H" 
			},
			{
				"x": -0.7701387272,
				"y": -4.0941213359,
				"z": -0.3712063303,
				"element": "H" 
			},
			{
				"x": -0.5407842427,
				"y": -3.4841339456,
				"z": -2.023110784,
				"element": "H" 
			},
			{
				"x": 3.2392476777,
				"y": 2.1208600193,
				"z": 1.3594866129,
				"element": "H" 
			},
			{
				"x": 1.923537269,
				"y": 1.3191208749,
				"z": 2.2140676194,
				"element": "H" 
			},
			{
				"x": 1.6447258451,
				"y": 2.0353353939,
				"z": 0.6197755197,
				"element": "H" 
			},
			{
				"x": 3.7266807276,
				"y": -1.7250027115,
				"z": 1.0682502332,
				"element": "H" 
			},
			{
				"x": 3.1034685895,
				"y": -0.8562148774,
				"z": 2.4548338274,
				"element": "H" 
			},
			{
				"x": 5.6208262892,
				"y": -0.8509568718,
				"z": 2.3774873096,
				"element": "H" 
			},
			{
				"x": 4.9847655389,
				"y": 0.7974443213,
				"z": 2.267434246,
				"element": "H" 
			},
			{
				"x": 5.0100102652,
				"y": 1.901146444,
				"z": -0.1801929515,
				"element": "H" 
			},
			{
				"x": 5.5337521952,
				"y": 0.8806238421,
				"z": -1.5186719946,
				"element": "H" 
			},
			{
				"x": 3.0238625254,
				"y": 1.3288791797,
				"z": -1.2357025351,
				"element": "H" 
			},
			{
				"x": 3.8031479254,
				"y": -1.6230352721,
				"z": -1.4381577276,
				"element": "H" 
			},
			{
				"x": 3.9198070204,
				"y": -0.4578080686,
				"z": -2.7347587785,
				"element": "H" 
			}
		],
		 "valence_orbital": [ 
			{
				"type": "occ",
				"energy": -0.29705,
				"method": "rhf"
			},
			{
				"type": "occ",
				"energy": -0.26998,
				"method": "rhf"
			},
			{
				"type": "occ",
				"energy": -0.24803,
				"method": "rhf"
			},
			{
				"type": "occ",
				"energy": -0.24448,
				"method": "rhf"
			},
			{
				"type": "occ",
				"energy": -0.24248,
				"method": "rhf"
			},
			{
				"type": "unocc",
				"energy": -0.0281,
				"method": "rhf"
			},
			{
				"type": "unocc",
				"energy": -0.02445,
				"method": "rhf"
			},
			{
				"type": "unocc",
				"energy": -0.02019,
				"method": "rhf"
			},
			{
				"type": "unocc",
				"energy": 0.00862,
				"method": "rhf"
			},
			{
				"type": "unocc",
				"energy": 0.0512,
				"method": "rhf"
			}
		],
		"cosmo_sigma_profile": { 
			"-0.025": 0.0,
			"-0.024": 0.0,
			"-0.023": 0.0,
			"-0.022": 0.0,
			"-0.021": 0.0,
			"-0.02": 0.0,
			"-0.019": 0.0,
			"-0.018": 0.49258830636,
			"-0.017": 0.823103108397,
			"-0.016": 0.869855830075,
			"-0.015": 0.584219364852,
			"-0.014": 1.0370255583,
			"-0.013": 0.589012539254,
			"-0.012": 0.717691786027,
			"-0.011": 0.744256509868,
			"-0.01": 1.02369426102,
			"-0.009": 0.304205424034,
			"-0.008": 1.85888280898,
			"-0.007": 8.96970767777,
			"-0.006": 20.6910556905,
			"-0.005": 29.1765121438,
			"-0.004": 36.3181568373,
			"-0.003": 46.281571277,
			"-0.002": 56.8715371801,
			"-0.001": 44.5068357395,
			"0.0": 34.9675660731,
			"0.001": 28.8045761066,
			"0.002": 15.549002233,
			"0.003": 8.87079469228,
			"0.004": 7.90682180509,
			"0.005": 9.27141562824,
			"0.006": 7.13937278912,
			"0.007": 7.03856698322,
			"0.008": 7.31636206773,
			"0.009": 7.96948390192,
			"0.01": 7.27077358692,
			"0.011": 9.91852305291,
			"0.012": 16.31548576,
			"0.013": 8.42962134133,
			"0.014": 1.11214281122,
			"0.015": 0.0,
			"0.016": 0.0,
			"0.017": 0.0,
			"0.018": 0.0,
			"0.019": 0.0,
			"0.02": 0.0,
			"0.021": 0.0,
			"0.022": 0.0,
			"0.023": 0.0,
			"0.024": 0.0,
			"0.025": 0.0
		}
	}
}
