{
	 "smiles": "FC1=C(C=CC=N1)C#N", 
	 "Tm": 301.65, 
	 "num_atms": 12, 
	 "gaussian": { 
		 "optdone": 1, 
		 "sigma_profile": "yes", 
		 "theory": "DFT", 
		 "functional": "B3LYP", 
		 "basiset": "6-31G**", 
		 "properties": { 
			 "R2extent": 1340.5676, 
			 "electric_dipole_moment_norm": 4.91347475011, 
			 "electric_quadrupole_moment_norm": 10.9722921047, 
			 "total_energy": -439.759841191, 
			 "HOMO_LUMO_gap": 0.20406, 
			 "cosmo_polarized_energy": -10.28, 
			 "cosmo_cavitation_energy": 18.41, 
			 "cosmo_dispersion_energy": -13.03, 
			 "cosmo_repulsion_energy": 1.05, 
			 "cosmo_total_nonelectrostatic_energy": 6.43, 
			 "SMD_solvation_energy": 3.71 
		},
		"coords": [
			{
				"x": 0.7800945574,
				"y": -2.6588579858,
				"z": 0.5975639664,
				"element": "F" 
			},
			{
				"x": 0.3508043643,
				"y": -1.4372858858,
				"z": 0.2782196966,
				"element": "C" 
			},
			{
				"x": -0.3841155363,
				"y": -1.2845350689,
				"z": -0.9126962268,
				"element": "C" 
			},
			{
				"x": -0.8219675427,
				"y": 0.0108765138,
				"z": -1.2218614752,
				"element": "C" 
			},
			{
				"x": -0.512909215,
				"y": 1.0542357626,
				"z": -0.3528960036,
				"element": "C" 
			},
			{
				"x": 0.2237506745,
				"y": 0.7649456597,
				"z": 0.7954830721,
				"element": "C" 
			},
			{
				"x": 0.6513053675,
				"y": -0.4675495768,
				"z": 1.1081872613,
				"element": "N" 
			},
			{
				"x": -0.6639422828,
				"y": -2.4024362947,
				"z": -1.7570805723,
				"element": "C" 
			},
			{
				"x": -0.9007383798,
				"y": -3.3010559405,
				"z": -2.4559049677,
				"element": "N" 
			},
			{
				"x": -1.3921350527,
				"y": 0.1790136902,
				"z": -2.1293052938,
				"element": "H" 
			},
			{
				"x": -0.8347649219,
				"y": 2.0686238852,
				"z": -0.559496025,
				"element": "H" 
			},
			{
				"x": 0.4858179673,
				"y": 1.5510252409,
				"z": 1.4994865682,
				"element": "H" 
			}
		],
		 "valence_orbital": [ 
			{
				"type": "occ",
				"energy": -0.3728,
				"method": "rhf"
			},
			{
				"type": "occ",
				"energy": -0.34917,
				"method": "rhf"
			},
			{
				"type": "occ",
				"energy": -0.31686,
				"method": "rhf"
			},
			{
				"type": "occ",
				"energy": -0.30296,
				"method": "rhf"
			},
			{
				"type": "occ",
				"energy": -0.28175,
				"method": "rhf"
			},
			{
				"type": "unocc",
				"energy": -0.07769,
				"method": "rhf"
			},
			{
				"type": "unocc",
				"energy": -0.04389,
				"method": "rhf"
			},
			{
				"type": "unocc",
				"energy": 0.0194,
				"method": "rhf"
			},
			{
				"type": "unocc",
				"energy": 0.05391,
				"method": "rhf"
			},
			{
				"type": "unocc",
				"energy": 0.07271,
				"method": "rhf"
			}
		],
		"cosmo_sigma_profile": { 
			"-0.025": 0.0,
			"-0.024": 0.0,
			"-0.023": 0.0,
			"-0.022": 0.0,
			"-0.021": 0.0,
			"-0.02": 0.0,
			"-0.019": 0.0,
			"-0.018": 0.0,
			"-0.017": 0.0,
			"-0.016": 0.0,
			"-0.015": 0.0,
			"-0.014": 0.0,
			"-0.013": 0.0,
			"-0.012": 0.0,
			"-0.011": 0.0,
			"-0.01": 1.48890737588,
			"-0.009": 4.48908163837,
			"-0.008": 8.4211371765,
			"-0.007": 6.70284586557,
			"-0.006": 5.49153827097,
			"-0.005": 7.40440106796,
			"-0.004": 10.6519162297,
			"-0.003": 10.9532563239,
			"-0.002": 11.74757993,
			"-0.001": 11.0155741896,
			"0.0": 9.30555354827,
			"0.001": 6.20787601578,
			"0.002": 10.3492268,
			"0.003": 8.36852936068,
			"0.004": 4.8561734054,
			"0.005": 5.29124783124,
			"0.006": 3.57746608641,
			"0.007": 4.46332983179,
			"0.008": 4.32129334214,
			"0.009": 3.73758156545,
			"0.01": 4.58801131743,
			"0.011": 3.13252046479,
			"0.012": 2.871849184,
			"0.013": 0.928294868026,
			"0.014": 0.117105783141,
			"0.015": 0.0,
			"0.016": 0.0,
			"0.017": 0.0,
			"0.018": 0.0,
			"0.019": 0.0,
			"0.02": 0.0,
			"0.021": 0.0,
			"0.022": 0.0,
			"0.023": 0.0,
			"0.024": 0.0,
			"0.025": 0.0
		}
	}
}
