{
	 "smiles": "CC1=CC(C(O)=O)=C(C)N1CC1=CC=CC=C1", 
	 "Tm": 471.15, 
	 "num_atms": 32, 
	 "gaussian": { 
		 "optdone": 1, 
		 "sigma_profile": "yes", 
		 "theory": "DFT", 
		 "functional": "B3LYP", 
		 "basiset": "6-31G**", 
		 "properties": { 
			 "R2extent": 4879.23, 
			 "electric_dipole_moment_norm": 6.60385033219, 
			 "electric_quadrupole_moment_norm": 24.4432907316, 
			 "total_energy": -747.749866805, 
			 "HOMO_LUMO_gap": 0.19536, 
			 "cosmo_polarized_energy": -17.14, 
			 "cosmo_cavitation_energy": 35.01, 
			 "cosmo_dispersion_energy": -24.42, 
			 "cosmo_repulsion_energy": 1.89, 
			 "cosmo_total_nonelectrostatic_energy": 12.48, 
			 "SMD_solvation_energy": 6.88 
		},
		"coords": [
			{
				"x": -0.5764055721,
				"y": -0.7423459368,
				"z": -2.671821054,
				"element": "C" 
			},
			{
				"x": 0.037942638,
				"y": 0.3378740602,
				"z": -1.8409915923,
				"element": "C" 
			},
			{
				"x": -0.23753219,
				"y": 1.6807994855,
				"z": -1.7885457494,
				"element": "C" 
			},
			{
				"x": 0.6547225476,
				"y": 2.2830627554,
				"z": -0.8401426873,
				"element": "C" 
			},
			{
				"x": 0.7322418987,
				"y": 3.6998023962,
				"z": -0.4461847316,
				"element": "C" 
			},
			{
				"x": -0.2925510137,
				"y": 4.4932835779,
				"z": -0.8784241072,
				"element": "O" 
			},
			{
				"x": 1.6175054788,
				"y": 4.200917499,
				"z": 0.2175939135,
				"element": "O" 
			},
			{
				"x": 1.4642536429,
				"y": 1.2674874178,
				"z": -0.3353998418,
				"element": "C" 
			},
			{
				"x": 2.560020029,
				"y": 1.323914288,
				"z": 0.6803826155,
				"element": "C" 
			},
			{
				"x": 1.0795395936,
				"y": 0.0950040236,
				"z": -0.9490191862,
				"element": "N" 
			},
			{
				"x": 1.6226022546,
				"y": -1.2233384114,
				"z": -0.6549815839,
				"element": "C" 
			},
			{
				"x": 0.810189906,
				"y": -2.0442166587,
				"z": 0.3389886896,
				"element": "C" 
			},
			{
				"x": -0.120051369,
				"y": -1.4569224921,
				"z": 1.2025359146,
				"element": "C" 
			},
			{
				"x": -0.8159103158,
				"y": -2.2387477301,
				"z": 2.1282289547,
				"element": "C" 
			},
			{
				"x": -0.5891882009,
				"y": -3.6129921379,
				"z": 2.2014559912,
				"element": "C" 
			},
			{
				"x": 0.3367665322,
				"y": -4.2061740729,
				"z": 1.3397399219,
				"element": "C" 
			},
			{
				"x": 1.0283285698,
				"y": -3.426463713,
				"z": 0.4137841153,
				"element": "C" 
			},
			{
				"x": 0.1413165414,
				"y": -1.1923426303,
				"z": -3.3700481324,
				"element": "H" 
			},
			{
				"x": -0.9898892025,
				"y": -1.5520956133,
				"z": -2.0593835185,
				"element": "H" 
			},
			{
				"x": -1.3914341567,
				"y": -0.3236660905,
				"z": -3.2666750513,
				"element": "H" 
			},
			{
				"x": -0.9738949236,
				"y": 2.1731783967,
				"z": -2.411740667,
				"element": "H" 
			},
			{
				"x": -0.973548744,
				"y": 3.9492391468,
				"z": -1.2963137334,
				"element": "H" 
			},
			{
				"x": 3.5294498655,
				"y": 1.0477757199,
				"z": 0.2458451569,
				"element": "H" 
			},
			{
				"x": 2.6391225717,
				"y": 2.3465789739,
				"z": 1.0475079781,
				"element": "H" 
			},
			{
				"x": 2.3716818784,
				"y": 0.6506824057,
				"z": 1.5251732106,
				"element": "H" 
			},
			{
				"x": 1.7194983037,
				"y": -1.7758740299,
				"z": -1.5950443116,
				"element": "H" 
			},
			{
				"x": 2.639577478,
				"y": -1.084734893,
				"z": -0.2757157177,
				"element": "H" 
			},
			{
				"x": -0.3065589252,
				"y": -0.3888432861,
				"z": 1.1479678374,
				"element": "H" 
			},
			{
				"x": -1.5368369467,
				"y": -1.7695413251,
				"z": 2.791565661,
				"element": "H" 
			},
			{
				"x": -1.1315086638,
				"y": -4.2192641541,
				"z": 2.9210223713,
				"element": "H" 
			},
			{
				"x": 0.5160234658,
				"y": -5.2766142374,
				"z": 1.384678376,
				"element": "H" 
			},
			{
				"x": 1.7444270286,
				"y": -3.8956227341,
				"z": -0.2576390424,
				"element": "H" 
			}
		],
		 "valence_orbital": [ 
			{
				"type": "occ",
				"energy": -0.26116,
				"method": "rhf"
			},
			{
				"type": "occ",
				"energy": -0.25677,
				"method": "rhf"
			},
			{
				"type": "occ",
				"energy": -0.25352,
				"method": "rhf"
			},
			{
				"type": "occ",
				"energy": -0.24748,
				"method": "rhf"
			},
			{
				"type": "occ",
				"energy": -0.21133,
				"method": "rhf"
			},
			{
				"type": "unocc",
				"energy": -0.01597,
				"method": "rhf"
			},
			{
				"type": "unocc",
				"energy": -0.01192,
				"method": "rhf"
			},
			{
				"type": "unocc",
				"energy": -0.00686,
				"method": "rhf"
			},
			{
				"type": "unocc",
				"energy": 0.03178,
				"method": "rhf"
			},
			{
				"type": "unocc",
				"energy": 0.07675,
				"method": "rhf"
			}
		],
		"cosmo_sigma_profile": { 
			"-0.025": 0.0,
			"-0.024": 0.0,
			"-0.023": 0.0,
			"-0.022": 0.0,
			"-0.021": 0.0,
			"-0.02": 0.0,
			"-0.019": 0.0,
			"-0.018": 0.044841017301,
			"-0.017": 0.563808272688,
			"-0.016": 1.22445457301,
			"-0.015": 0.786810061994,
			"-0.014": 0.554418236574,
			"-0.013": 0.618425613917,
			"-0.012": 0.953099090114,
			"-0.011": 1.36999071619,
			"-0.01": 1.36213362533,
			"-0.009": 1.07014962443,
			"-0.008": 0.719398405484,
			"-0.007": 4.36822006352,
			"-0.006": 14.6479390825,
			"-0.005": 21.9056605922,
			"-0.004": 24.3158075511,
			"-0.003": 24.4823769538,
			"-0.002": 21.8419370623,
			"-0.001": 24.5639670915,
			"0.0": 21.1551397324,
			"0.001": 15.9042043006,
			"0.002": 14.6038659525,
			"0.003": 13.7813647708,
			"0.004": 14.2441836156,
			"0.005": 13.8565190804,
			"0.006": 11.5397944545,
			"0.007": 3.48262161815,
			"0.008": 1.94242690369,
			"0.009": 2.75728340391,
			"0.01": 3.77269234124,
			"0.011": 4.05077963121,
			"0.012": 5.15319843741,
			"0.013": 4.0574497883,
			"0.014": 2.10478353457,
			"0.015": 0.21245360885,
			"0.016": 0.0,
			"0.017": 0.0,
			"0.018": 0.0,
			"0.019": 0.0,
			"0.02": 0.0,
			"0.021": 0.0,
			"0.022": 0.0,
			"0.023": 0.0,
			"0.024": 0.0,
			"0.025": 0.0
		}
	}
}
