{
	 "smiles": "CC1=C(SC2=C1C(=O)NC(CCl)=N2)C(O)=O", 
	 "Tm": 596.15, 
	 "num_atms": 23, 
	 "gaussian": { 
		 "optdone": 1, 
		 "sigma_profile": "yes", 
		 "theory": "DFT", 
		 "functional": "B3LYP", 
		 "basiset": "6-31G**", 
		 "properties": { 
			 "R2extent": 6114.1408, 
			 "electric_dipole_moment_norm": 3.01874263063, 
			 "electric_quadrupole_moment_norm": 12.3658112019, 
			 "total_energy": -1540.77497999, 
			 "HOMO_LUMO_gap": 0.15708, 
			 "cosmo_polarized_energy": -16.55, 
			 "cosmo_cavitation_energy": 31.28, 
			 "cosmo_dispersion_energy": -23.86, 
			 "cosmo_repulsion_energy": 1.81, 
			 "cosmo_total_nonelectrostatic_energy": 9.23, 
			 "SMD_solvation_energy": 4.79 
		},
		"coords": [
			{
				"x": -1.7532342361,
				"y": 2.1487283295,
				"z": -1.250983125,
				"element": "C" 
			},
			{
				"x": -1.3726819818,
				"y": 0.7685608148,
				"z": -0.7892837309,
				"element": "C" 
			},
			{
				"x": -1.2828586924,
				"y": -0.3435149848,
				"z": -1.6083032576,
				"element": "C" 
			},
			{
				"x": -0.8150329335,
				"y": -1.8072891705,
				"z": -0.7546525872,
				"element": "S" 
			},
			{
				"x": -0.7320682757,
				"y": -0.9273444419,
				"z": 0.7357010811,
				"element": "C" 
			},
			{
				"x": -1.0519988662,
				"y": 0.424897199,
				"z": 0.5645467136,
				"element": "C" 
			},
			{
				"x": -1.030173642,
				"y": 1.2845961433,
				"z": 1.7408459477,
				"element": "C" 
			},
			{
				"x": -1.2842068298,
				"y": 2.4765330756,
				"z": 1.829426253,
				"element": "O" 
			},
			{
				"x": -0.65143789,
				"y": 0.5641327785,
				"z": 2.9036700025,
				"element": "N" 
			},
			{
				"x": -0.3619773748,
				"y": -0.7667584726,
				"z": 2.9479592083,
				"element": "C" 
			},
			{
				"x": 0.1000432222,
				"y": -1.3647642588,
				"z": 4.2515672744,
				"element": "C" 
			},
			{
				"x": -0.8380374092,
				"y": -0.7689387434,
				"z": 5.6835929905,
				"element": "Cl" 
			},
			{
				"x": -0.3944134856,
				"y": -1.5456693543,
				"z": 1.9036657303,
				"element": "N" 
			},
			{
				"x": -1.5370316051,
				"y": -0.3747898308,
				"z": -3.0512799176,
				"element": "C" 
			},
			{
				"x": -1.3657226551,
				"y": -1.6180399441,
				"z": -3.5735329078,
				"element": "O" 
			},
			{
				"x": -1.8638339981,
				"y": 0.5793640818,
				"z": -3.7316947756,
				"element": "O" 
			},
			{
				"x": -1.0604992312,
				"y": 2.4993671828,
				"z": -2.0214021286,
				"element": "H" 
			},
			{
				"x": -1.75203784,
				"y": 2.8409836907,
				"z": -0.4105425768,
				"element": "H" 
			},
			{
				"x": -2.7414851152,
				"y": 2.1366672171,
				"z": -1.7194523834,
				"element": "H" 
			},
			{
				"x": -0.6643257602,
				"y": 1.1044542261,
				"z": 3.7626311443,
				"element": "H" 
			},
			{
				"x": -0.0085691463,
				"y": -2.4457403133,
				"z": 4.1945495543,
				"element": "H" 
			},
			{
				"x": 1.1450633226,
				"y": -1.1096776663,
				"z": 4.4441405679,
				"element": "H" 
			},
			{
				"x": -1.5544795767,
				"y": -1.5411575583,
				"z": -4.5229690775,
				"element": "H" 
			}
		],
		 "valence_orbital": [ 
			{
				"type": "occ",
				"energy": -0.30659,
				"method": "rhf"
			},
			{
				"type": "occ",
				"energy": -0.2844,
				"method": "rhf"
			},
			{
				"type": "occ",
				"energy": -0.27602,
				"method": "rhf"
			},
			{
				"type": "occ",
				"energy": -0.27026,
				"method": "rhf"
			},
			{
				"type": "occ",
				"energy": -0.2376,
				"method": "rhf"
			},
			{
				"type": "unocc",
				"energy": -0.08052,
				"method": "rhf"
			},
			{
				"type": "unocc",
				"energy": -0.03544,
				"method": "rhf"
			},
			{
				"type": "unocc",
				"energy": -0.01956,
				"method": "rhf"
			},
			{
				"type": "unocc",
				"energy": 0.0095,
				"method": "rhf"
			},
			{
				"type": "unocc",
				"energy": 0.01267,
				"method": "rhf"
			}
		],
		"cosmo_sigma_profile": { 
			"-0.025": 0.0,
			"-0.024": 0.0,
			"-0.023": 0.0,
			"-0.022": 0.0,
			"-0.021": 0.0,
			"-0.02": 0.0,
			"-0.019": 0.253336609308,
			"-0.018": 1.07839083368,
			"-0.017": 0.688560048472,
			"-0.016": 0.551539958576,
			"-0.015": 1.53390145465,
			"-0.014": 1.24449651587,
			"-0.013": 1.66505799146,
			"-0.012": 1.71073530285,
			"-0.011": 2.16660334396,
			"-0.01": 5.68785890326,
			"-0.009": 5.14351081777,
			"-0.008": 5.01855724267,
			"-0.007": 5.59771399923,
			"-0.006": 6.85243287766,
			"-0.005": 8.070113817,
			"-0.004": 9.86009782851,
			"-0.003": 13.0539761354,
			"-0.002": 18.2337126915,
			"-0.001": 28.3671808787,
			"0.0": 25.6881921283,
			"0.001": 19.1094921807,
			"0.002": 18.6417732232,
			"0.003": 12.8688291174,
			"0.004": 10.9340320962,
			"0.005": 13.1475407398,
			"0.006": 4.92818576226,
			"0.007": 6.29370846107,
			"0.008": 3.25700058005,
			"0.009": 3.85116417037,
			"0.01": 4.88708681701,
			"0.011": 7.18408985543,
			"0.012": 6.5824075448,
			"0.013": 0.80017507583,
			"0.014": 0.0,
			"0.015": 0.0,
			"0.016": 0.0,
			"0.017": 0.0,
			"0.018": 0.0,
			"0.019": 0.0,
			"0.02": 0.0,
			"0.021": 0.0,
			"0.022": 0.0,
			"0.023": 0.0,
			"0.024": 0.0,
			"0.025": 0.0
		}
	}
}
