{
	 "smiles": "C1C(C2=CC=CC=C12)C1=NC=CC=C1", 
	 "Tm": 312.65, 
	 "num_atms": 25, 
	 "gaussian": { 
		 "optdone": 1, 
		 "sigma_profile": "yes", 
		 "theory": "DFT", 
		 "functional": "B3LYP", 
		 "basiset": "6-31G**", 
		 "properties": { 
			 "R2extent": 3843.192, 
			 "electric_dipole_moment_norm": 1.7287637259, 
			 "electric_quadrupole_moment_norm": 7.78961397054, 
			 "total_energy": -556.726800403, 
			 "HOMO_LUMO_gap": 0.21428, 
			 "cosmo_polarized_energy": -6.87, 
			 "cosmo_cavitation_energy": 28.71, 
			 "cosmo_dispersion_energy": -20.78, 
			 "cosmo_repulsion_energy": 1.65, 
			 "cosmo_total_nonelectrostatic_energy": 9.57, 
			 "SMD_solvation_energy": 3.0 
		},
		"coords": [
			{
				"x": -0.0364958482,
				"y": 1.5175454636,
				"z": -2.1215658764,
				"element": "C" 
			},
			{
				"x": 0.9803978624,
				"y": 0.2909346782,
				"z": -2.2416358116,
				"element": "C" 
			},
			{
				"x": -0.2606806152,
				"y": -0.5711785389,
				"z": -2.4600324019,
				"element": "C" 
			},
			{
				"x": -0.69294791,
				"y": -1.8701228429,
				"z": -2.6950053937,
				"element": "C" 
			},
			{
				"x": -2.077003433,
				"y": -2.0353493191,
				"z": -2.8635312457,
				"element": "C" 
			},
			{
				"x": -2.9618431258,
				"y": -0.9484019929,
				"z": -2.8007738581,
				"element": "C" 
			},
			{
				"x": -2.5102768633,
				"y": 0.3596126664,
				"z": -2.5621764341,
				"element": "C" 
			},
			{
				"x": -1.1408386846,
				"y": 0.507781335,
				"z": -2.388939061,
				"element": "C" 
			},
			{
				"x": 1.8746818123,
				"y": 0.0353042043,
				"z": -1.0519110488,
				"element": "C" 
			},
			{
				"x": 3.1370012623,
				"y": 0.4861048471,
				"z": -1.1612823324,
				"element": "N" 
			},
			{
				"x": 3.9579285735,
				"y": 0.3194619865,
				"z": -0.1180825772,
				"element": "C" 
			},
			{
				"x": 3.5819249631,
				"y": -0.2970598028,
				"z": 1.075508409,
				"element": "C" 
			},
			{
				"x": 2.2736334078,
				"y": -0.7675893824,
				"z": 1.1844503537,
				"element": "C" 
			},
			{
				"x": 1.4069728738,
				"y": -0.6011760625,
				"z": 0.1069955996,
				"element": "C" 
			},
			{
				"x": -0.0511706803,
				"y": 1.9821617962,
				"z": -1.1303085286,
				"element": "H" 
			},
			{
				"x": 0.1055484507,
				"y": 2.2996122043,
				"z": -2.8745925229,
				"element": "H" 
			},
			{
				"x": 1.6203229677,
				"y": 0.3858844103,
				"z": -3.1242362326,
				"element": "H" 
			},
			{
				"x": -0.0173837699,
				"y": -2.7193433552,
				"z": -2.7506191971,
				"element": "H" 
			},
			{
				"x": -2.477030634,
				"y": -3.0282757838,
				"z": -3.0505822375,
				"element": "H" 
			},
			{
				"x": -4.0244912092,
				"y": -1.1282744057,
				"z": -2.9403439144,
				"element": "H" 
			},
			{
				"x": -3.208455205,
				"y": 1.1910320647,
				"z": -2.5164216604,
				"element": "H" 
			},
			{
				"x": 4.9720437388,
				"y": 0.6956957244,
				"z": -0.2458501096,
				"element": "H" 
			},
			{
				"x": 4.2941548302,
				"y": -0.4075862474,
				"z": 1.887109176,
				"element": "H" 
			},
			{
				"x": 1.9344768376,
				"y": -1.2596722655,
				"z": 2.0919143183,
				"element": "H" 
			},
			{
				"x": 0.3843303986,
				"y": -0.9617013822,
				"z": 0.1512125873,
				"element": "H" 
			}
		],
		 "valence_orbital": [ 
			{
				"type": "occ",
				"energy": -0.28133,
				"method": "rhf"
			},
			{
				"type": "occ",
				"energy": -0.25408,
				"method": "rhf"
			},
			{
				"type": "occ",
				"energy": -0.24845,
				"method": "rhf"
			},
			{
				"type": "occ",
				"energy": -0.24607,
				"method": "rhf"
			},
			{
				"type": "occ",
				"energy": -0.23523,
				"method": "rhf"
			},
			{
				"type": "unocc",
				"energy": -0.02095,
				"method": "rhf"
			},
			{
				"type": "unocc",
				"energy": -0.00998,
				"method": "rhf"
			},
			{
				"type": "unocc",
				"energy": -0.00423,
				"method": "rhf"
			},
			{
				"type": "unocc",
				"energy": 0.00669,
				"method": "rhf"
			},
			{
				"type": "unocc",
				"energy": 0.10076,
				"method": "rhf"
			}
		],
		"cosmo_sigma_profile": { 
			"-0.025": 0.0,
			"-0.024": 0.0,
			"-0.023": 0.0,
			"-0.022": 0.0,
			"-0.021": 0.0,
			"-0.02": 0.0,
			"-0.019": 0.0,
			"-0.018": 0.0,
			"-0.017": 0.0,
			"-0.016": 0.0,
			"-0.015": 0.0,
			"-0.014": 0.0,
			"-0.013": 0.0,
			"-0.012": 0.0,
			"-0.011": 0.0,
			"-0.01": 0.0,
			"-0.009": 0.0,
			"-0.008": 0.0,
			"-0.007": 2.25951378828,
			"-0.006": 9.32155976798,
			"-0.005": 18.5546489059,
			"-0.004": 21.3411944877,
			"-0.003": 22.375404253,
			"-0.002": 19.4242221925,
			"-0.001": 20.7471679029,
			"0.0": 19.670719046,
			"0.001": 17.0617505773,
			"0.002": 17.3840722153,
			"0.003": 20.2670118284,
			"0.004": 12.8735272416,
			"0.005": 9.2074902705,
			"0.006": 8.57460460591,
			"0.007": 2.32488541458,
			"0.008": 1.24780189315,
			"0.009": 1.48577255967,
			"0.01": 0.9619065972,
			"0.011": 1.19330669816,
			"0.012": 0.670290255975,
			"0.013": 0.403259507977,
			"0.014": 1.11800834027,
			"0.015": 0.614637949507,
			"0.016": 0.736387009412,
			"0.017": 0.179684947708,
			"0.018": 0.0,
			"0.019": 0.0,
			"0.02": 0.0,
			"0.021": 0.0,
			"0.022": 0.0,
			"0.023": 0.0,
			"0.024": 0.0,
			"0.025": 0.0
		}
	}
}
