{
	 "smiles": "CN1N=C(C(Cl)=C1OC(F)F)C1=CC(OCC(O)=O)=C(Cl)C=C1F", 
	 "Tm": 399.15, 
	 "num_atms": 33, 
	 "gaussian": { 
		 "optdone": 1, 
		 "sigma_profile": "yes", 
		 "theory": "DFT", 
		 "functional": "B3LYP", 
		 "basiset": "6-31G**", 
		 "properties": { 
			 "R2extent": 13631.2759, 
			 "electric_dipole_moment_norm": 3.11415188615, 
			 "electric_quadrupole_moment_norm": 18.4296669389, 
			 "total_energy": -2131.05106822, 
			 "HOMO_LUMO_gap": 0.19812, 
			 "cosmo_polarized_energy": -22.49, 
			 "cosmo_cavitation_energy": 44.28, 
			 "cosmo_dispersion_energy": -30.29, 
			 "cosmo_repulsion_energy": 2.29, 
			 "cosmo_total_nonelectrostatic_energy": 16.27, 
			 "SMD_solvation_energy": 9.09 
		},
		"coords": [
			{
				"x": -3.0613421598,
				"y": -1.3740367177,
				"z": 1.5691257087,
				"element": "C" 
			},
			{
				"x": -1.6399493252,
				"y": -1.6822585654,
				"z": 1.5865514987,
				"element": "N" 
			},
			{
				"x": -0.7410048094,
				"y": -0.8095173626,
				"z": 1.0924445472,
				"element": "N" 
			},
			{
				"x": 0.4650556474,
				"y": -1.361707662,
				"z": 1.2879532783,
				"element": "C" 
			},
			{
				"x": 0.3278430314,
				"y": -2.6139138988,
				"z": 1.9401290775,
				"element": "C" 
			},
			{
				"x": 1.5366365555,
				"y": -3.7081330577,
				"z": 2.5157215995,
				"element": "Cl" 
			},
			{
				"x": -1.0353315783,
				"y": -2.7775542457,
				"z": 2.1118806702,
				"element": "C" 
			},
			{
				"x": -1.746985437,
				"y": -3.7532324149,
				"z": 2.7447317477,
				"element": "O" 
			},
			{
				"x": -1.9421713564,
				"y": -4.9219599044,
				"z": 2.0147721227,
				"element": "C" 
			},
			{
				"x": -2.4726764954,
				"y": -5.8098944712,
				"z": 2.8631599542,
				"element": "F" 
			},
			{
				"x": -2.8417376302,
				"y": -4.6921684036,
				"z": 1.0184554748,
				"element": "F" 
			},
			{
				"x": 1.6729125446,
				"y": -0.6219385834,
				"z": 0.8841142888,
				"element": "C" 
			},
			{
				"x": 1.7655121083,
				"y": 0.7566053077,
				"z": 1.1245943141,
				"element": "C" 
			},
			{
				"x": 2.8854763368,
				"y": 1.4910040279,
				"z": 0.7378739902,
				"element": "C" 
			},
			{
				"x": 2.9873875951,
				"y": 2.8254852262,
				"z": 1.070316754,
				"element": "O" 
			},
			{
				"x": 2.5903462926,
				"y": 3.7566486777,
				"z": 0.0884390156,
				"element": "C" 
			},
			{
				"x": 1.0928264953,
				"y": 4.0836936293,
				"z": 0.1483686697,
				"element": "C" 
			},
			{
				"x": 0.6927489302,
				"y": 5.0110675668,
				"z": -0.7614700395,
				"element": "O" 
			},
			{
				"x": 0.3088564698,
				"y": 3.5989309899,
				"z": 0.9191259404,
				"element": "O" 
			},
			{
				"x": 3.9442414447,
				"y": 0.8363711239,
				"z": 0.089272083,
				"element": "C" 
			},
			{
				"x": 5.3726046724,
				"y": 1.7310342409,
				"z": -0.3856360294,
				"element": "Cl" 
			},
			{
				"x": 3.8740648651,
				"y": -0.5287744697,
				"z": -0.1776896844,
				"element": "C" 
			},
			{
				"x": 2.7412988093,
				"y": -1.2291769613,
				"z": 0.2153874818,
				"element": "C" 
			},
			{
				"x": 2.6763691224,
				"y": -2.5397609838,
				"z": -0.0894706431,
				"element": "F" 
			},
			{
				"x": -3.2302794683,
				"y": -0.6681045551,
				"z": 0.7567128494,
				"element": "H" 
			},
			{
				"x": -3.3734856837,
				"y": -0.9229695686,
				"z": 2.5158485881,
				"element": "H" 
			},
			{
				"x": -3.6253298321,
				"y": -2.2905045616,
				"z": 1.3959734694,
				"element": "H" 
			},
			{
				"x": -1.0174973641,
				"y": -5.3056875485,
				"z": 1.5732596179,
				"element": "H" 
			},
			{
				"x": 0.9551570007,
				"y": 1.2799877822,
				"z": 1.617182758,
				"element": "H" 
			},
			{
				"x": 3.1545265081,
				"y": 4.6779159259,
				"z": 0.2793234592,
				"element": "H" 
			},
			{
				"x": 2.8463234908,
				"y": 3.4158526892,
				"z": -0.9250985425,
				"element": "H" 
			},
			{
				"x": 1.4351479428,
				"y": 5.3020357519,
				"z": -1.3117914083,
				"element": "H" 
			},
			{
				"x": 4.6765552765,
				"y": -1.0454390035,
				"z": -0.6895626122,
				"element": "H" 
			}
		],
		 "valence_orbital": [ 
			{
				"type": "occ",
				"energy": -0.28346,
				"method": "rhf"
			},
			{
				"type": "occ",
				"energy": -0.28027,
				"method": "rhf"
			},
			{
				"type": "occ",
				"energy": -0.25725,
				"method": "rhf"
			},
			{
				"type": "occ",
				"energy": -0.248,
				"method": "rhf"
			},
			{
				"type": "occ",
				"energy": -0.23659,
				"method": "rhf"
			},
			{
				"type": "unocc",
				"energy": -0.03847,
				"method": "rhf"
			},
			{
				"type": "unocc",
				"energy": -0.01411,
				"method": "rhf"
			},
			{
				"type": "unocc",
				"energy": -0.00213,
				"method": "rhf"
			},
			{
				"type": "unocc",
				"energy": 0.00491,
				"method": "rhf"
			},
			{
				"type": "unocc",
				"energy": 0.01692,
				"method": "rhf"
			}
		],
		"cosmo_sigma_profile": { 
			"-0.025": 0.0,
			"-0.024": 0.0,
			"-0.023": 0.0,
			"-0.022": 0.0,
			"-0.021": 0.0,
			"-0.02": 0.730623916473,
			"-0.019": 1.67035439318,
			"-0.018": 1.39465429404,
			"-0.017": 0.997856713751,
			"-0.016": 1.42958323034,
			"-0.015": 1.26626653686,
			"-0.014": 0.928765612915,
			"-0.013": 0.961992200285,
			"-0.012": 1.47936235438,
			"-0.011": 3.85843586975,
			"-0.01": 3.6763633697,
			"-0.009": 5.5988225415,
			"-0.008": 7.41846141779,
			"-0.007": 10.5599402971,
			"-0.006": 12.4996246968,
			"-0.005": 12.9521889498,
			"-0.004": 15.8992025556,
			"-0.003": 17.4587121569,
			"-0.002": 18.4632295698,
			"-0.001": 20.940540004,
			"0.0": 34.2373114587,
			"0.001": 34.1137414446,
			"0.002": 32.0084210015,
			"0.003": 39.9716519608,
			"0.004": 26.0208162903,
			"0.005": 11.1460010816,
			"0.006": 6.19392308137,
			"0.007": 6.29946615449,
			"0.008": 6.47596879187,
			"0.009": 7.09094793583,
			"0.01": 8.30307913956,
			"0.011": 3.99005509722,
			"0.012": 2.70781692976,
			"0.013": 0.817034619071,
			"0.014": 0.0849769193243,
			"0.015": 0.0,
			"0.016": 0.0,
			"0.017": 0.0,
			"0.018": 0.0,
			"0.019": 0.0,
			"0.02": 0.0,
			"0.021": 0.0,
			"0.022": 0.0,
			"0.023": 0.0,
			"0.024": 0.0,
			"0.025": 0.0
		}
	}
}
