{
	 "smiles": "CCS(=O)(=O)C1=CC(=CC=C1)S(Cl)(=O)=O", 
	 "Tm": 366.15, 
	 "num_atms": 24, 
	 "gaussian": { 
		 "optdone": 1, 
		 "sigma_profile": "yes", 
		 "theory": "DFT", 
		 "functional": "B3LYP", 
		 "basiset": "6-31G**", 
		 "properties": { 
			 "R2extent": 6565.2293, 
			 "electric_dipole_moment_norm": 5.69081776725, 
			 "electric_quadrupole_moment_norm": 20.5949794965, 
			 "total_energy": -1867.60562018, 
			 "HOMO_LUMO_gap": 0.19693, 
			 "cosmo_polarized_energy": -18.68, 
			 "cosmo_cavitation_energy": 33.37, 
			 "cosmo_dispersion_energy": -24.38, 
			 "cosmo_repulsion_energy": 1.84, 
			 "cosmo_total_nonelectrostatic_energy": 10.83, 
			 "SMD_solvation_energy": 3.83 
		},
		"coords": [
			{
				"x": 0.3695976196,
				"y": 3.154103899,
				"z": 0.4594211213,
				"element": "C" 
			},
			{
				"x": 0.0395799707,
				"y": 1.7578650084,
				"z": -0.0661771706,
				"element": "C" 
			},
			{
				"x": 1.0101280065,
				"y": 0.500852099,
				"z": 0.8276832287,
				"element": "S" 
			},
			{
				"x": 2.4287709453,
				"y": 0.6882899662,
				"z": 0.4830976574,
				"element": "O" 
			},
			{
				"x": 0.556036868,
				"y": 0.4831425221,
				"z": 2.226615689,
				"element": "O" 
			},
			{
				"x": 0.4793753509,
				"y": -1.054505078,
				"z": 0.0691416948,
				"element": "C" 
			},
			{
				"x": -0.6387846938,
				"y": -1.7102768799,
				"z": 0.5820365709,
				"element": "C" 
			},
			{
				"x": -1.0144213806,
				"y": -2.9061387652,
				"z": -0.0269395381,
				"element": "C" 
			},
			{
				"x": -0.3078041614,
				"y": -3.4602958352,
				"z": -1.0962274687,
				"element": "C" 
			},
			{
				"x": 0.817744003,
				"y": -2.7895357334,
				"z": -1.5742491454,
				"element": "C" 
			},
			{
				"x": 1.2145975648,
				"y": -1.5828083234,
				"z": -0.9941796519,
				"element": "C" 
			},
			{
				"x": -2.4427371653,
				"y": -3.7822830609,
				"z": 0.6080197897,
				"element": "S" 
			},
			{
				"x": -3.9903770625,
				"y": -2.9509719524,
				"z": -0.602345142,
				"element": "Cl" 
			},
			{
				"x": -2.7088460346,
				"y": -3.3444805421,
				"z": 1.970783524,
				"element": "O" 
			},
			{
				"x": -2.3445180548,
				"y": -5.1873440913,
				"z": 0.236278903,
				"element": "O" 
			},
			{
				"x": 1.4287119262,
				"y": 3.3822454755,
				"z": 0.3184391759,
				"element": "H" 
			},
			{
				"x": -0.2214689732,
				"y": 3.8947773134,
				"z": -0.0863386216,
				"element": "H" 
			},
			{
				"x": 0.1315635247,
				"y": 3.2348729361,
				"z": 1.5225918572,
				"element": "H" 
			},
			{
				"x": 0.2900122977,
				"y": 1.643479792,
				"z": -1.1247378853,
				"element": "H" 
			},
			{
				"x": -1.0121838576,
				"y": 1.4975696004,
				"z": 0.0831699766,
				"element": "H" 
			},
			{
				"x": -1.175430671,
				"y": -1.3182333693,
				"z": 1.4392920675,
				"element": "H" 
			},
			{
				"x": -0.627685254,
				"y": -4.4021109904,
				"z": -1.5278789823,
				"element": "H" 
			},
			{
				"x": 1.3902654633,
				"y": -3.2130027284,
				"z": -2.39297835,
				"element": "H" 
			},
			{
				"x": 2.0992737682,
				"y": -1.0583112623,
				"z": -1.3398193001,
				"element": "H" 
			}
		],
		 "valence_orbital": [ 
			{
				"type": "occ",
				"energy": -0.32369,
				"method": "rhf"
			},
			{
				"type": "occ",
				"energy": -0.31212,
				"method": "rhf"
			},
			{
				"type": "occ",
				"energy": -0.31084,
				"method": "rhf"
			},
			{
				"type": "occ",
				"energy": -0.30726,
				"method": "rhf"
			},
			{
				"type": "occ",
				"energy": -0.29947,
				"method": "rhf"
			},
			{
				"type": "unocc",
				"energy": -0.10254,
				"method": "rhf"
			},
			{
				"type": "unocc",
				"energy": -0.07138,
				"method": "rhf"
			},
			{
				"type": "unocc",
				"energy": -0.05947,
				"method": "rhf"
			},
			{
				"type": "unocc",
				"energy": 0.02844,
				"method": "rhf"
			},
			{
				"type": "unocc",
				"energy": 0.04283,
				"method": "rhf"
			}
		],
		"cosmo_sigma_profile": { 
			"-0.025": 0.0,
			"-0.024": 0.0,
			"-0.023": 0.0,
			"-0.022": 0.0,
			"-0.021": 0.0,
			"-0.02": 0.0,
			"-0.019": 0.0,
			"-0.018": 0.0,
			"-0.017": 0.0,
			"-0.016": 0.0,
			"-0.015": 0.0,
			"-0.014": 0.0,
			"-0.013": 0.0,
			"-0.012": 0.0,
			"-0.011": 0.00107174114071,
			"-0.01": 0.553323402274,
			"-0.009": 5.84136337983,
			"-0.008": 14.1586198468,
			"-0.007": 11.5962675116,
			"-0.006": 12.8174489026,
			"-0.005": 16.0694360144,
			"-0.004": 15.8057857001,
			"-0.003": 19.5265221063,
			"-0.002": 23.2442133526,
			"-0.001": 25.8322167928,
			"0.0": 17.5069875629,
			"0.001": 10.2180012491,
			"0.002": 13.5762279662,
			"0.003": 16.6409731958,
			"0.004": 7.82269819964,
			"0.005": 5.26265766083,
			"0.006": 6.6118201861,
			"0.007": 10.1809061888,
			"0.008": 11.6136037227,
			"0.009": 5.98118354229,
			"0.01": 5.39612403741,
			"0.011": 8.88935285421,
			"0.012": 4.07278076998,
			"0.013": 0.00242679878504,
			"0.014": 0.0,
			"0.015": 0.0,
			"0.016": 0.0,
			"0.017": 0.0,
			"0.018": 0.0,
			"0.019": 0.0,
			"0.02": 0.0,
			"0.021": 0.0,
			"0.022": 0.0,
			"0.023": 0.0,
			"0.024": 0.0,
			"0.025": 0.0
		}
	}
}
