{
	 "smiles": "CN1C=C(C(O)=O)C(Cl)=N1", 
	 "Tm": 483.15, 
	 "num_atms": 15, 
	 "gaussian": { 
		 "optdone": 1, 
		 "sigma_profile": "yes", 
		 "theory": "DFT", 
		 "functional": "B3LYP", 
		 "basiset": "6-31G**", 
		 "properties": { 
			 "R2extent": 2914.1843, 
			 "electric_dipole_moment_norm": 7.26693952982, 
			 "electric_quadrupole_moment_norm": 24.7974047947, 
			 "total_energy": -913.663922377, 
			 "HOMO_LUMO_gap": 0.22627, 
			 "cosmo_polarized_energy": -21.33, 
			 "cosmo_cavitation_energy": 21.99, 
			 "cosmo_dispersion_energy": -16.35, 
			 "cosmo_repulsion_energy": 1.34, 
			 "cosmo_total_nonelectrostatic_energy": 6.98, 
			 "SMD_solvation_energy": 4.25 
		},
		"coords": [
			{
				"x": -2.2575539654,
				"y": 0.3381287333,
				"z": 1.3592261292,
				"element": "C" 
			},
			{
				"x": -1.3886395631,
				"y": 0.9120438303,
				"z": 0.3458391644,
				"element": "N" 
			},
			{
				"x": -1.6909789394,
				"y": 1.8304947037,
				"z": -0.5960559702,
				"element": "C" 
			},
			{
				"x": -0.5259807297,
				"y": 2.0880400641,
				"z": -1.3136430325,
				"element": "C" 
			},
			{
				"x": -0.3234969384,
				"y": 3.0585796361,
				"z": -2.4106271951,
				"element": "C" 
			},
			{
				"x": -1.4520209547,
				"y": 3.4015608784,
				"z": -3.1027615385,
				"element": "O" 
			},
			{
				"x": 0.7367239087,
				"y": 3.5563160347,
				"z": -2.6962997388,
				"element": "O" 
			},
			{
				"x": 0.4317180068,
				"y": 1.2452001532,
				"z": -0.6849185588,
				"element": "C" 
			},
			{
				"x": 2.0931587739,
				"y": 1.0585993655,
				"z": -1.0969753255,
				"element": "Cl" 
			},
			{
				"x": -0.0888870108,
				"y": 0.5326078063,
				"z": 0.3028288833,
				"element": "N" 
			},
			{
				"x": -1.876728547,
				"y": 0.5780634075,
				"z": 2.3546297892,
				"element": "H" 
			},
			{
				"x": -2.295643202,
				"y": -0.7473622018,
				"z": 1.2426383669,
				"element": "H" 
			},
			{
				"x": -3.2590753292,
				"y": 0.754162562,
				"z": 1.2408055804,
				"element": "H" 
			},
			{
				"x": -2.67965703,
				"y": 2.2632697392,
				"z": -0.6650418868,
				"element": "H" 
			},
			{
				"x": -2.1627384796,
				"y": 2.7749952876,
				"z": -2.9093446672,
				"element": "H" 
			}
		],
		 "valence_orbital": [ 
			{
				"type": "occ",
				"energy": -0.32144,
				"method": "rhf"
			},
			{
				"type": "occ",
				"energy": -0.31495,
				"method": "rhf"
			},
			{
				"type": "occ",
				"energy": -0.28204,
				"method": "rhf"
			},
			{
				"type": "occ",
				"energy": -0.27215,
				"method": "rhf"
			},
			{
				"type": "occ",
				"energy": -0.2607,
				"method": "rhf"
			},
			{
				"type": "unocc",
				"energy": -0.03443,
				"method": "rhf"
			},
			{
				"type": "unocc",
				"energy": -0.00637,
				"method": "rhf"
			},
			{
				"type": "unocc",
				"energy": 0.03651,
				"method": "rhf"
			},
			{
				"type": "unocc",
				"energy": 0.05457,
				"method": "rhf"
			},
			{
				"type": "unocc",
				"energy": 0.07531,
				"method": "rhf"
			}
		],
		"cosmo_sigma_profile": { 
			"-0.025": 0.0,
			"-0.024": 0.0,
			"-0.023": 0.0,
			"-0.022": 0.0,
			"-0.021": 0.0,
			"-0.02": 0.0,
			"-0.019": 0.489842038632,
			"-0.018": 1.04217180493,
			"-0.017": 1.12436701797,
			"-0.016": 1.239133492,
			"-0.015": 1.40030000582,
			"-0.014": 1.37505769415,
			"-0.013": 0.708282189509,
			"-0.012": 2.44589546313,
			"-0.011": 3.70761957051,
			"-0.01": 2.5149039856,
			"-0.009": 2.88736648149,
			"-0.008": 3.36253517206,
			"-0.007": 7.22253738126,
			"-0.006": 8.12731396845,
			"-0.005": 8.91186338737,
			"-0.004": 13.533363239,
			"-0.003": 8.8168124588,
			"-0.002": 6.9517250186,
			"-0.001": 8.66668094916,
			"0.0": 11.3152055063,
			"0.001": 7.97244969989,
			"0.002": 8.83091229542,
			"0.003": 9.59321137392,
			"0.004": 10.1889043261,
			"0.005": 5.64789495006,
			"0.006": 5.27136108753,
			"0.007": 4.39048531576,
			"0.008": 3.61635294218,
			"0.009": 4.66935259526,
			"0.01": 6.65646446351,
			"0.011": 6.93246687929,
			"0.012": 6.41385852088,
			"0.013": 2.1078611388,
			"0.014": 0.306056351635,
			"0.015": 0.0,
			"0.016": 0.0,
			"0.017": 0.0,
			"0.018": 0.0,
			"0.019": 0.0,
			"0.02": 0.0,
			"0.021": 0.0,
			"0.022": 0.0,
			"0.023": 0.0,
			"0.024": 0.0,
			"0.025": 0.0
		}
	}
}
