{
	 "smiles": "FC1=CC2=C(C=C1)N=C(S)NC2=O", 
	 "Tm": 619.15, 
	 "num_atms": 18, 
	 "gaussian": { 
		 "optdone": 1, 
		 "sigma_profile": "yes", 
		 "theory": "DFT", 
		 "functional": "B3LYP", 
		 "basiset": "6-31G**", 
		 "properties": { 
			 "R2extent": 3995.099, 
			 "electric_dipole_moment_norm": 2.95069744128, 
			 "electric_quadrupole_moment_norm": 8.59641717229, 
			 "total_energy": -990.637015229, 
			 "HOMO_LUMO_gap": 0.17546, 
			 "cosmo_polarized_energy": -11.94, 
			 "cosmo_cavitation_energy": 25.28, 
			 "cosmo_dispersion_energy": -19.35, 
			 "cosmo_repulsion_energy": 1.44, 
			 "cosmo_total_nonelectrostatic_energy": 7.37, 
			 "SMD_solvation_energy": 3.54 
		},
		"coords": [
			{
				"x": -2.239598408,
				"y": -0.8902207168,
				"z": -5.2125398819,
				"element": "F" 
			},
			{
				"x": -1.5382879609,
				"y": -0.8445414153,
				"z": -4.0625431254,
				"element": "C" 
			},
			{
				"x": -1.1213597149,
				"y": 0.3751796431,
				"z": -3.5675965424,
				"element": "C" 
			},
			{
				"x": -0.3933507853,
				"y": 0.3948988366,
				"z": -2.3694107117,
				"element": "C" 
			},
			{
				"x": -0.0903579553,
				"y": -0.8036069116,
				"z": -1.6797455413,
				"element": "C" 
			},
			{
				"x": -0.5358834371,
				"y": -2.0258715066,
				"z": -2.2213994498,
				"element": "C" 
			},
			{
				"x": -1.255520376,
				"y": -2.0487799103,
				"z": -3.40531918,
				"element": "C" 
			},
			{
				"x": 0.6290153495,
				"y": -0.8239908155,
				"z": -0.4897552534,
				"element": "N" 
			},
			{
				"x": 1.0229267054,
				"y": 0.3091370153,
				"z": -0.019694376,
				"element": "C" 
			},
			{
				"x": 1.9532938687,
				"y": 0.4055753612,
				"z": 1.4994157744,
				"element": "S" 
			},
			{
				"x": 0.7778966872,
				"y": 1.5251890065,
				"z": -0.6166146756,
				"element": "N" 
			},
			{
				"x": 0.0637178128,
				"y": 1.6765432664,
				"z": -1.8181329845,
				"element": "C" 
			},
			{
				"x": -0.1192791164,
				"y": 2.784818044,
				"z": -2.2962852595,
				"element": "O" 
			},
			{
				"x": -1.3442822992,
				"y": 1.302692308,
				"z": -4.082159883,
				"element": "H" 
			},
			{
				"x": -0.3006797349,
				"y": -2.9407447071,
				"z": -1.6885432147,
				"element": "H" 
			},
			{
				"x": -1.6064367168,
				"y": -2.9800933524,
				"z": -3.8370354923,
				"element": "H" 
			},
			{
				"x": 1.9384724099,
				"y": -0.9264624652,
				"z": 1.6860455349,
				"element": "H" 
			},
			{
				"x": 1.1109136712,
				"y": 2.3889783198,
				"z": -0.2043857378,
				"element": "H" 
			}
		],
		 "valence_orbital": [ 
			{
				"type": "occ",
				"energy": -0.2918,
				"method": "rhf"
			},
			{
				"type": "occ",
				"energy": -0.28816,
				"method": "rhf"
			},
			{
				"type": "occ",
				"energy": -0.27579,
				"method": "rhf"
			},
			{
				"type": "occ",
				"energy": -0.27537,
				"method": "rhf"
			},
			{
				"type": "occ",
				"energy": -0.23039,
				"method": "rhf"
			},
			{
				"type": "unocc",
				"energy": -0.05493,
				"method": "rhf"
			},
			{
				"type": "unocc",
				"energy": -0.03989,
				"method": "rhf"
			},
			{
				"type": "unocc",
				"energy": -0.01513,
				"method": "rhf"
			},
			{
				"type": "unocc",
				"energy": 0.01715,
				"method": "rhf"
			},
			{
				"type": "unocc",
				"energy": 0.05611,
				"method": "rhf"
			}
		],
		"cosmo_sigma_profile": { 
			"-0.025": 0.0,
			"-0.024": 0.0,
			"-0.023": 0.0,
			"-0.022": 0.0,
			"-0.021": 0.0,
			"-0.02": 0.0,
			"-0.019": 0.0,
			"-0.018": 0.00891932297856,
			"-0.017": 1.04282628678,
			"-0.016": 1.11920673062,
			"-0.015": 0.82772331932,
			"-0.014": 1.09985257151,
			"-0.013": 0.800617420645,
			"-0.012": 2.23523665974,
			"-0.011": 2.48951928144,
			"-0.01": 2.18712143919,
			"-0.009": 2.12980662463,
			"-0.008": 3.86697648117,
			"-0.007": 6.29353926523,
			"-0.006": 7.65563945968,
			"-0.005": 7.99904079377,
			"-0.004": 9.35360546741,
			"-0.003": 11.3274863195,
			"-0.002": 12.4096943015,
			"-0.001": 12.7108365516,
			"0.0": 19.4743336942,
			"0.001": 23.8970717211,
			"0.002": 18.263966913,
			"0.003": 11.8394745972,
			"0.004": 15.3455235494,
			"0.005": 5.79870013367,
			"0.006": 6.25567299365,
			"0.007": 1.95587149347,
			"0.008": 1.49715912114,
			"0.009": 2.55666541802,
			"0.01": 2.97011061357,
			"0.011": 2.95396816277,
			"0.012": 5.7481993063,
			"0.013": 2.45872209462,
			"0.014": 0.0,
			"0.015": 0.0,
			"0.016": 0.0,
			"0.017": 0.0,
			"0.018": 0.0,
			"0.019": 0.0,
			"0.02": 0.0,
			"0.021": 0.0,
			"0.022": 0.0,
			"0.023": 0.0,
			"0.024": 0.0,
			"0.025": 0.0
		}
	}
}
