{
	 "smiles": "CCCCCCCCC=CC", 
	 "Tm": 224.85, 
	 "num_atms": 33, 
	 "gaussian": { 
		 "optdone": 1, 
		 "sigma_profile": "yes", 
		 "theory": "DFT", 
		 "functional": "B3LYP", 
		 "basiset": "6-31G**", 
		 "properties": { 
			 "R2extent": 4331.2049, 
			 "electric_dipole_moment_norm": 0.132345041464, 
			 "electric_quadrupole_moment_norm": 1.99777022703, 
			 "total_energy": -432.442539483, 
			 "HOMO_LUMO_gap": 0.26696, 
			 "cosmo_polarized_energy": -1.61, 
			 "cosmo_cavitation_energy": 33.98, 
			 "cosmo_dispersion_energy": -23.77, 
			 "cosmo_repulsion_energy": 2.01, 
			 "cosmo_total_nonelectrostatic_energy": 12.22, 
			 "SMD_solvation_energy": 5.19 
		},
		"coords": [
			{
				"x": 4.0768324861,
				"y": -0.0594179088,
				"z": -1.4745469945,
				"element": "C" 
			},
			{
				"x": 3.1590513789,
				"y": -0.9806059884,
				"z": -0.6614920484,
				"element": "C" 
			},
			{
				"x": 2.081965384,
				"y": -0.2502319591,
				"z": 0.1591695851,
				"element": "C" 
			},
			{
				"x": 1.0203335664,
				"y": 0.4718339778,
				"z": -0.6841456462,
				"element": "C" 
			},
			{
				"x": -0.0533926729,
				"y": 1.2096622936,
				"z": 0.1343176152,
				"element": "C" 
			},
			{
				"x": -0.985934067,
				"y": 0.2999254765,
				"z": 0.9464221903,
				"element": "C" 
			},
			{
				"x": -2.0834021728,
				"y": 1.0738099879,
				"z": 1.6873400638,
				"element": "C" 
			},
			{
				"x": -3.0436277926,
				"y": 0.178487155,
				"z": 2.4987751816,
				"element": "C" 
			},
			{
				"x": -3.8884005165,
				"y": -0.7310918066,
				"z": 1.6473490027,
				"element": "C" 
			},
			{
				"x": -3.909761933,
				"y": -2.0650266488,
				"z": 1.7176441055,
				"element": "C" 
			},
			{
				"x": -4.7623626128,
				"y": -2.9655233743,
				"z": 0.8698778061,
				"element": "C" 
			},
			{
				"x": 4.5805701199,
				"y": 0.6667676913,
				"z": -0.8256167389,
				"element": "H" 
			},
			{
				"x": 4.851878074,
				"y": -0.6338263051,
				"z": -1.9928735194,
				"element": "H" 
			},
			{
				"x": 3.5250390435,
				"y": 0.503686967,
				"z": -2.2341270416,
				"element": "H" 
			},
			{
				"x": 2.6724103482,
				"y": -1.6990768876,
				"z": -1.3356522044,
				"element": "H" 
			},
			{
				"x": 3.7746659345,
				"y": -1.5787572947,
				"z": 0.0226546725,
				"element": "H" 
			},
			{
				"x": 1.5911764303,
				"y": -0.9809711092,
				"z": 0.8138252611,
				"element": "H" 
			},
			{
				"x": 2.5680948218,
				"y": 0.4772167867,
				"z": 0.8261157709,
				"element": "H" 
			},
			{
				"x": 1.5125434803,
				"y": 1.1986977234,
				"z": -1.342163466,
				"element": "H" 
			},
			{
				"x": 0.5316092476,
				"y": -0.256306521,
				"z": -1.3480802781,
				"element": "H" 
			},
			{
				"x": 0.4362813819,
				"y": 1.926436571,
				"z": 0.8096802042,
				"element": "H" 
			},
			{
				"x": -0.6638445528,
				"y": 1.8129445502,
				"z": -0.5517132342,
				"element": "H" 
			},
			{
				"x": -0.4061786144,
				"y": -0.2779826354,
				"z": 1.6786586931,
				"element": "H" 
			},
			{
				"x": -1.4497815589,
				"y": -0.4374366261,
				"z": 0.2778749507,
				"element": "H" 
			},
			{
				"x": -2.6658175513,
				"y": 1.6631258138,
				"z": 0.9645895084,
				"element": "H" 
			},
			{
				"x": -1.6198862286,
				"y": 1.8011430831,
				"z": 2.3673707383,
				"element": "H" 
			},
			{
				"x": -3.7026960798,
				"y": 0.830488648,
				"z": 3.0905554328,
				"element": "H" 
			},
			{
				"x": -2.4697882572,
				"y": -0.4183832274,
				"z": 3.2197429231,
				"element": "H" 
			},
			{
				"x": -4.5307017412,
				"y": -0.2353253028,
				"z": 0.9152342915,
				"element": "H" 
			},
			{
				"x": -3.266843762,
				"y": -2.5598461086,
				"z": 2.4479741399,
				"element": "H" 
			},
			{
				"x": -5.373172979,
				"y": -2.3936868395,
				"z": 0.1643405405,
				"element": "H" 
			},
			{
				"x": -4.1488655043,
				"y": -3.6699556994,
				"z": 0.2934593812,
				"element": "H" 
			},
			{
				"x": -5.4373931005,
				"y": -3.5729744825,
				"z": 1.4866391131,
				"element": "H" 
			}
		],
		 "valence_orbital": [ 
			{
				"type": "occ",
				"energy": -0.31635,
				"method": "rhf"
			},
			{
				"type": "occ",
				"energy": -0.31181,
				"method": "rhf"
			},
			{
				"type": "occ",
				"energy": -0.3042,
				"method": "rhf"
			},
			{
				"type": "occ",
				"energy": -0.29929,
				"method": "rhf"
			},
			{
				"type": "occ",
				"energy": -0.23492,
				"method": "rhf"
			},
			{
				"type": "unocc",
				"energy": 0.03204,
				"method": "rhf"
			},
			{
				"type": "unocc",
				"energy": 0.09295,
				"method": "rhf"
			},
			{
				"type": "unocc",
				"energy": 0.10703,
				"method": "rhf"
			},
			{
				"type": "unocc",
				"energy": 0.10933,
				"method": "rhf"
			},
			{
				"type": "unocc",
				"energy": 0.12026,
				"method": "rhf"
			}
		],
		"cosmo_sigma_profile": { 
			"-0.025": 0.0,
			"-0.024": 0.0,
			"-0.023": 0.0,
			"-0.022": 0.0,
			"-0.021": 0.0,
			"-0.02": 0.0,
			"-0.019": 0.0,
			"-0.018": 0.0,
			"-0.017": 0.0,
			"-0.016": 0.0,
			"-0.015": 0.0,
			"-0.014": 0.0,
			"-0.013": 0.0,
			"-0.012": 0.0,
			"-0.011": 0.0,
			"-0.01": 0.0,
			"-0.009": 0.0,
			"-0.008": 0.0,
			"-0.007": 0.0,
			"-0.006": 0.0,
			"-0.005": 0.0,
			"-0.004": 2.36858540658,
			"-0.003": 14.1484072273,
			"-0.002": 37.2764920925,
			"-0.001": 55.2081230772,
			"0.0": 57.3117139592,
			"0.001": 53.1899077246,
			"0.002": 23.2020164498,
			"0.003": 5.54919533263,
			"0.004": 4.92469211036,
			"0.005": 4.50646991088,
			"0.006": 2.07362143061,
			"0.007": 1.30171867295,
			"0.008": 0.0644786354649,
			"0.009": 0.0,
			"0.01": 0.0,
			"0.011": 0.0,
			"0.012": 0.0,
			"0.013": 0.0,
			"0.014": 0.0,
			"0.015": 0.0,
			"0.016": 0.0,
			"0.017": 0.0,
			"0.018": 0.0,
			"0.019": 0.0,
			"0.02": 0.0,
			"0.021": 0.0,
			"0.022": 0.0,
			"0.023": 0.0,
			"0.024": 0.0,
			"0.025": 0.0
		}
	}
}
