{
	 "smiles": "CC(=O)C1CCC2(C)C3CCC4(C)C(O)CCC4C3CC[C@@]2(C)C1", 
	 "Tm": 425.15, 
	 "num_atms": 60, 
	 "gaussian": { 
		 "optdone": 1, 
		 "sigma_profile": "yes", 
		 "theory": "DFT", 
		 "functional": "B3LYP", 
		 "basiset": "6-31G**", 
		 "properties": { 
			 "R2extent": 9702.3242, 
			 "electric_dipole_moment_norm": 3.8078186262, 
			 "electric_quadrupole_moment_norm": 14.4421672913, 
			 "total_energy": -1010.49774903, 
			 "HOMO_LUMO_gap": 0.22508, 
			 "cosmo_polarized_energy": -12.73, 
			 "cosmo_cavitation_energy": 49.79, 
			 "cosmo_dispersion_energy": -34.35, 
			 "cosmo_repulsion_energy": 2.51, 
			 "cosmo_total_nonelectrostatic_energy": 17.94, 
			 "SMD_solvation_energy": 7.47 
		},
		"coords": [
			{
				"x": 4.2038021266,
				"y": -4.4725952107,
				"z": 1.3705123994,
				"element": "C" 
			},
			{
				"x": 3.2359465688,
				"y": -4.1161415705,
				"z": 0.2522978523,
				"element": "C" 
			},
			{
				"x": 3.2670972021,
				"y": -4.7086206737,
				"z": -0.8115764792,
				"element": "O" 
			},
			{
				"x": 2.2328576986,
				"y": -2.9844072589,
				"z": 0.4805079506,
				"element": "C" 
			},
			{
				"x": 2.9136767075,
				"y": -1.6070598635,
				"z": 0.3479111876,
				"element": "C" 
			},
			{
				"x": 1.8693152516,
				"y": -0.487357868,
				"z": 0.4413558019,
				"element": "C" 
			},
			{
				"x": 0.9730180305,
				"y": -0.5069592792,
				"z": 1.7208521616,
				"element": "C" 
			},
			{
				"x": 1.8474368884,
				"y": 0.000089954,
				"z": 2.8957211313,
				"element": "C" 
			},
			{
				"x": -0.2482715617,
				"y": 0.4611433221,
				"z": 1.5448989405,
				"element": "C" 
			},
			{
				"x": 0.1396364515,
				"y": 1.9572088905,
				"z": 1.476887637,
				"element": "C" 
			},
			{
				"x": -1.0248958233,
				"y": 2.812415036,
				"z": 0.9636778497,
				"element": "C" 
			},
			{
				"x": -1.3192183612,
				"y": 2.52893962,
				"z": -0.5246256288,
				"element": "C" 
			},
			{
				"x": -0.3299248985,
				"y": 3.3173642842,
				"z": -1.4060414905,
				"element": "C" 
			},
			{
				"x": -2.781616821,
				"y": 2.8897426547,
				"z": -0.9210643428,
				"element": "C" 
			},
			{
				"x": -3.0289142273,
				"y": 4.2654015778,
				"z": -1.1752754379,
				"element": "O" 
			},
			{
				"x": -3.0522884165,
				"y": 2.0563254859,
				"z": -2.1698105624,
				"element": "C" 
			},
			{
				"x": -2.4229477642,
				"y": 0.6974767732,
				"z": -1.8172678187,
				"element": "C" 
			},
			{
				"x": -1.2258759382,
				"y": 0.9937654735,
				"z": -0.8509466198,
				"element": "C" 
			},
			{
				"x": -1.2518838135,
				"y": 0.0723927844,
				"z": 0.3937737856,
				"element": "C" 
			},
			{
				"x": -1.1332241135,
				"y": -1.4117040771,
				"z": -0.0121018736,
				"element": "C" 
			},
			{
				"x": -0.8498047402,
				"y": -2.3123151496,
				"z": 1.1905112927,
				"element": "C" 
			},
			{
				"x": 0.4193926079,
				"y": -1.9660572683,
				"z": 2.0480135558,
				"element": "C" 
			},
			{
				"x": -0.0162957317,
				"y": -2.0982227274,
				"z": 3.5287065131,
				"element": "C" 
			},
			{
				"x": 1.521156626,
				"y": -3.0436291594,
				"z": 1.8397176944,
				"element": "C" 
			},
			{
				"x": 3.6684851277,
				"y": -4.9862312013,
				"z": 2.1778858486,
				"element": "H" 
			},
			{
				"x": 4.665757004,
				"y": -3.5825939369,
				"z": 1.8103612978,
				"element": "H" 
			},
			{
				"x": 4.9743846544,
				"y": -5.1379988245,
				"z": 0.9788350956,
				"element": "H" 
			},
			{
				"x": 1.5054105305,
				"y": -3.090529911,
				"z": -0.3331290778,
				"element": "H" 
			},
			{
				"x": 3.6709310441,
				"y": -1.4942557203,
				"z": 1.134808887,
				"element": "H" 
			},
			{
				"x": 3.4417593929,
				"y": -1.5336181857,
				"z": -0.6098690335,
				"element": "H" 
			},
			{
				"x": 1.2553896588,
				"y": -0.5342087596,
				"z": -0.4594837466,
				"element": "H" 
			},
			{
				"x": 2.3865675383,
				"y": 0.4776960564,
				"z": 0.3954865751,
				"element": "H" 
			},
			{
				"x": 2.6145200365,
				"y": -0.7273308061,
				"z": 3.178190224,
				"element": "H" 
			},
			{
				"x": 2.3680305936,
				"y": 0.9221580231,
				"z": 2.6222885286,
				"element": "H" 
			},
			{
				"x": 1.2533727532,
				"y": 0.2130123985,
				"z": 3.7888847877,
				"element": "H" 
			},
			{
				"x": -0.824841008,
				"y": 0.357195762,
				"z": 2.4741224564,
				"element": "H" 
			},
			{
				"x": 0.4477314004,
				"y": 2.3042884277,
				"z": 2.4682814082,
				"element": "H" 
			},
			{
				"x": 1.0044105101,
				"y": 2.1081936221,
				"z": 0.8203261224,
				"element": "H" 
			},
			{
				"x": -0.7998927427,
				"y": 3.8783122458,
				"z": 1.103265328,
				"element": "H" 
			},
			{
				"x": -1.9162437492,
				"y": 2.602510765,
				"z": 1.5727910166,
				"element": "H" 
			},
			{
				"x": -0.4960637497,
				"y": 4.3940532866,
				"z": -1.3127768857,
				"element": "H" 
			},
			{
				"x": 0.7049269503,
				"y": 3.100925394,
				"z": -1.1212853371,
				"element": "H" 
			},
			{
				"x": -0.4351282084,
				"y": 3.0604672461,
				"z": -2.4644124438,
				"element": "H" 
			},
			{
				"x": -3.4477512357,
				"y": 2.5340854369,
				"z": -0.1148138463,
				"element": "H" 
			},
			{
				"x": -2.9307464855,
				"y": 4.7450243648,
				"z": -0.3426360391,
				"element": "H" 
			},
			{
				"x": -4.1183425444,
				"y": 1.9890872979,
				"z": -2.4059607553,
				"element": "H" 
			},
			{
				"x": -2.5585672351,
				"y": 2.5257547231,
				"z": -3.0275075542,
				"element": "H" 
			},
			{
				"x": -3.1679946566,
				"y": 0.0810025694,
				"z": -1.300044545,
				"element": "H" 
			},
			{
				"x": -2.1164239954,
				"y": 0.1342322982,
				"z": -2.7033631189,
				"element": "H" 
			},
			{
				"x": -0.2833655256,
				"y": 0.8145075196,
				"z": -1.382790895,
				"element": "H" 
			},
			{
				"x": -2.2542751285,
				"y": 0.188619088,
				"z": 0.832239719,
				"element": "H" 
			},
			{
				"x": -2.0681195813,
				"y": -1.7383621796,
				"z": -0.4811652002,
				"element": "H" 
			},
			{
				"x": -0.3645768832,
				"y": -1.5413170551,
				"z": -0.781040797,
				"element": "H" 
			},
			{
				"x": -0.7905609442,
				"y": -3.3566800426,
				"z": 0.860664627,
				"element": "H" 
			},
			{
				"x": -1.7299451281,
				"y": -2.2633247993,
				"z": 1.8446211875,
				"element": "H" 
			},
			{
				"x": -0.4718881726,
				"y": -3.0826515903,
				"z": 3.6852028541,
				"element": "H" 
			},
			{
				"x": 0.8214612879,
				"y": -2.0136129873,
				"z": 4.225831956,
				"element": "H" 
			},
			{
				"x": -0.7652054696,
				"y": -1.3493175685,
				"z": 3.806233162,
				"element": "H" 
			},
			{
				"x": 1.0617770171,
				"y": -4.0295411406,
				"z": 1.9892039215,
				"element": "H" 
			},
			{
				"x": 2.2750429953,
				"y": -2.9382475662,
				"z": 2.6306187727,
				"element": "H" 
			}
		],
		 "valence_orbital": [ 
			{
				"type": "occ",
				"energy": -0.28109,
				"method": "rhf"
			},
			{
				"type": "occ",
				"energy": -0.27917,
				"method": "rhf"
			},
			{
				"type": "occ",
				"energy": -0.27325,
				"method": "rhf"
			},
			{
				"type": "occ",
				"energy": -0.25373,
				"method": "rhf"
			},
			{
				"type": "occ",
				"energy": -0.23354,
				"method": "rhf"
			},
			{
				"type": "unocc",
				"energy": -0.00846,
				"method": "rhf"
			},
			{
				"type": "unocc",
				"energy": 0.06476,
				"method": "rhf"
			},
			{
				"type": "unocc",
				"energy": 0.06855,
				"method": "rhf"
			},
			{
				"type": "unocc",
				"energy": 0.07328,
				"method": "rhf"
			},
			{
				"type": "unocc",
				"energy": 0.07891,
				"method": "rhf"
			}
		],
		"cosmo_sigma_profile": { 
			"-0.025": 0.0,
			"-0.024": 0.0,
			"-0.023": 0.0,
			"-0.022": 0.0,
			"-0.021": 0.0,
			"-0.02": 0.0,
			"-0.019": 0.0,
			"-0.018": 0.0,
			"-0.017": 0.0,
			"-0.016": 0.0,
			"-0.015": 0.046834571985,
			"-0.014": 1.0028172847,
			"-0.013": 0.593474964721,
			"-0.012": 0.843450056569,
			"-0.011": 0.891910233235,
			"-0.01": 0.904015635758,
			"-0.009": 0.960219641109,
			"-0.008": 0.639755388799,
			"-0.007": 1.49242995012,
			"-0.006": 1.86622970504,
			"-0.005": 8.24661630152,
			"-0.004": 12.6252401509,
			"-0.003": 31.6822953045,
			"-0.002": 69.098908463,
			"-0.001": 73.5497446064,
			"0.0": 63.7852365903,
			"0.001": 42.8886065335,
			"0.002": 24.2526463566,
			"0.003": 5.31834973869,
			"0.004": 2.44936245245,
			"0.005": 2.51961752225,
			"0.006": 2.7761446708,
			"0.007": 3.01163058557,
			"0.008": 2.90635094892,
			"0.009": 3.80892384263,
			"0.01": 2.89871125291,
			"0.011": 3.16291389809,
			"0.012": 5.95238948121,
			"0.013": 5.71624991477,
			"0.014": 2.68562614202,
			"0.015": 0.985198443898,
			"0.016": 0.0,
			"0.017": 0.0,
			"0.018": 0.0,
			"0.019": 0.0,
			"0.02": 0.0,
			"0.021": 0.0,
			"0.022": 0.0,
			"0.023": 0.0,
			"0.024": 0.0,
			"0.025": 0.0
		}
	}
}
