{
	 "smiles": "O=C1OC(=O)C2C1C1C=CC2C2C1C(=O)OC2=O", 
	 "Tm": 633.15, 
	 "num_atms": 26, 
	 "gaussian": { 
		 "optdone": 1, 
		 "sigma_profile": "yes", 
		 "theory": "DFT", 
		 "functional": "B3LYP", 
		 "basiset": "6-31G**", 
		 "properties": { 
			 "R2extent": 3958.8165, 
			 "electric_dipole_moment_norm": 3.29809037475, 
			 "electric_quadrupole_moment_norm": 24.7374174355, 
			 "total_energy": -913.448274091, 
			 "HOMO_LUMO_gap": 0.24062, 
			 "cosmo_polarized_energy": -23.51, 
			 "cosmo_cavitation_energy": 29.49, 
			 "cosmo_dispersion_energy": -21.45, 
			 "cosmo_repulsion_energy": 1.64, 
			 "cosmo_total_nonelectrostatic_energy": 9.68, 
			 "SMD_solvation_energy": 8.12 
		},
		"coords": [
			{
				"x": 2.6028433775,
				"y": -0.3950789638,
				"z": -1.8482614667,
				"element": "O" 
			},
			{
				"x": 1.5742535653,
				"y": 0.1652733785,
				"z": -1.6047401236,
				"element": "C" 
			},
			{
				"x": 1.5092942168,
				"y": 1.5433467214,
				"z": -1.4469871341,
				"element": "O" 
			},
			{
				"x": 0.2261446155,
				"y": 1.9621650942,
				"z": -1.1209513371,
				"element": "C" 
			},
			{
				"x": -0.027618386,
				"y": 3.1110675417,
				"z": -0.9043380632,
				"element": "O" 
			},
			{
				"x": -0.714969237,
				"y": 0.7642236627,
				"z": -1.0924400079,
				"element": "C" 
			},
			{
				"x": 0.1889081288,
				"y": -0.4405172883,
				"z": -1.4165515115,
				"element": "C" 
			},
			{
				"x": 0.152790541,
				"y": -1.4645059578,
				"z": -0.2415301349,
				"element": "C" 
			},
			{
				"x": 0.5083882877,
				"y": -0.7317928765,
				"z": 1.0354774093,
				"element": "C" 
			},
			{
				"x": -0.2778828428,
				"y": 0.3157247244,
				"z": 1.3172691784,
				"element": "C" 
			},
			{
				"x": -1.3760166765,
				"y": 0.5726849349,
				"z": 0.3063769098,
				"element": "C" 
			},
			{
				"x": -2.2370295172,
				"y": -0.7211576131,
				"z": 0.1833395212,
				"element": "C" 
			},
			{
				"x": -1.3329665887,
				"y": -1.925857143,
				"z": -0.1405709988,
				"element": "C" 
			},
			{
				"x": -1.5553829223,
				"y": -2.8887637785,
				"z": 1.0191418571,
				"element": "C" 
			},
			{
				"x": -1.043430011,
				"y": -3.9532604832,
				"z": 1.2089904684,
				"element": "O" 
			},
			{
				"x": -2.4851572235,
				"y": -2.354334324,
				"z": 1.9012439677,
				"element": "O" 
			},
			{
				"x": -2.9037951236,
				"y": -1.091924162,
				"z": 1.5022494075,
				"element": "C" 
			},
			{
				"x": -3.6742884998,
				"y": -0.4471174502,
				"z": 2.1517594089,
				"element": "O" 
			},
			{
				"x": -1.4914601953,
				"y": 0.9305926674,
				"z": -1.8465936353,
				"element": "H" 
			},
			{
				"x": -0.0866225877,
				"y": -0.9421738331,
				"z": -2.3502498474,
				"element": "H" 
			},
			{
				"x": 0.8091787621,
				"y": -2.3114576572,
				"z": -0.4445341103,
				"element": "H" 
			},
			{
				"x": 1.339963996,
				"y": -1.052470136,
				"z": 1.6539659422,
				"element": "H" 
			},
			{
				"x": -0.1607098274,
				"y": 0.9468640137,
				"z": 2.1918055305,
				"element": "H" 
			},
			{
				"x": -1.999023943,
				"y": 1.4305636575,
				"z": 0.5618902864,
				"element": "H" 
			},
			{
				"x": -3.0269645675,
				"y": -0.5680780216,
				"z": -0.5595904218,
				"element": "H" 
			},
			{
				"x": -1.6217473415,
				"y": -2.4406167083,
				"z": -1.0630710946,
				"element": "H" 
			}
		],
		 "valence_orbital": [ 
			{
				"type": "occ",
				"energy": -0.32381,
				"method": "rhf"
			},
			{
				"type": "occ",
				"energy": -0.31857,
				"method": "rhf"
			},
			{
				"type": "occ",
				"energy": -0.29854,
				"method": "rhf"
			},
			{
				"type": "occ",
				"energy": -0.29668,
				"method": "rhf"
			},
			{
				"type": "occ",
				"energy": -0.2925,
				"method": "rhf"
			},
			{
				"type": "unocc",
				"energy": -0.05188,
				"method": "rhf"
			},
			{
				"type": "unocc",
				"energy": -0.04156,
				"method": "rhf"
			},
			{
				"type": "unocc",
				"energy": -0.04045,
				"method": "rhf"
			},
			{
				"type": "unocc",
				"energy": -0.02874,
				"method": "rhf"
			},
			{
				"type": "unocc",
				"energy": -0.00557,
				"method": "rhf"
			}
		],
		"cosmo_sigma_profile": { 
			"-0.025": 0.0,
			"-0.024": 0.0,
			"-0.023": 0.0,
			"-0.022": 0.0,
			"-0.021": 0.0,
			"-0.02": 0.0,
			"-0.019": 0.0,
			"-0.018": 0.0,
			"-0.017": 0.0,
			"-0.016": 0.0,
			"-0.015": 0.0,
			"-0.014": 0.0,
			"-0.013": 0.00445553784519,
			"-0.012": 1.08783585798,
			"-0.011": 2.52156081964,
			"-0.01": 9.87465412082,
			"-0.009": 21.9351808423,
			"-0.008": 7.00281282241,
			"-0.007": 12.968845296,
			"-0.006": 12.4843934708,
			"-0.005": 9.36797890341,
			"-0.004": 9.15662501802,
			"-0.003": 11.6512357518,
			"-0.002": 12.3712447642,
			"-0.001": 10.7880668942,
			"0.0": 7.49245862772,
			"0.001": 5.92316740014,
			"0.002": 6.39509160648,
			"0.003": 7.59460419392,
			"0.004": 5.85421953649,
			"0.005": 8.35089945518,
			"0.006": 11.8902145835,
			"0.007": 11.0984135433,
			"0.008": 9.91442812156,
			"0.009": 16.6740607871,
			"0.01": 18.6773299193,
			"0.011": 3.64134323491,
			"0.012": 0.0,
			"0.013": 0.0,
			"0.014": 0.0,
			"0.015": 0.0,
			"0.016": 0.0,
			"0.017": 0.0,
			"0.018": 0.0,
			"0.019": 0.0,
			"0.02": 0.0,
			"0.021": 0.0,
			"0.022": 0.0,
			"0.023": 0.0,
			"0.024": 0.0,
			"0.025": 0.0
		}
	}
}
