{
	 "smiles": "[O-][N+](=O)C1=CC(C=O)=C(F)C=C1", 
	 "Tm": 331.15, 
	 "num_atms": 16, 
	 "gaussian": { 
		 "optdone": 1, 
		 "sigma_profile": "yes", 
		 "theory": "DFT", 
		 "functional": "B3LYP", 
		 "basiset": "6-31G**", 
		 "properties": { 
			 "R2extent": 2331.3749, 
			 "electric_dipole_moment_norm": 4.51967145487, 
			 "electric_quadrupole_moment_norm": 11.9501263403, 
			 "total_energy": -649.297333058, 
			 "HOMO_LUMO_gap": 0.17612, 
			 "cosmo_polarized_energy": -10.85, 
			 "cosmo_cavitation_energy": 22.66, 
			 "cosmo_dispersion_energy": -16.31, 
			 "cosmo_repulsion_energy": 1.26, 
			 "cosmo_total_nonelectrostatic_energy": 7.61, 
			 "SMD_solvation_energy": 7.82 
		},
		"coords": [
			{
				"x": 0.9191186225,
				"y": -0.7321654963,
				"z": 3.8282693434,
				"element": "O" 
			},
			{
				"x": 0.0471715925,
				"y": -0.1872048466,
				"z": 3.1524894339,
				"element": "N" 
			},
			{
				"x": -0.8414268118,
				"y": 0.5361997599,
				"z": 3.595477976,
				"element": "O" 
			},
			{
				"x": 0.0726404975,
				"y": -0.4211968961,
				"z": 1.698797976,
				"element": "C" 
			},
			{
				"x": -0.8930678183,
				"y": 0.1751153329,
				"z": 0.9007214582,
				"element": "C" 
			},
			{
				"x": -0.870966772,
				"y": -0.0458699824,
				"z": -0.48152258,
				"element": "C" 
			},
			{
				"x": -1.8978632396,
				"y": 0.5848261234,
				"z": -1.3531057063,
				"element": "C" 
			},
			{
				"x": -2.779736484,
				"y": 1.3009752418,
				"z": -0.9222213215,
				"element": "O" 
			},
			{
				"x": 0.1358138518,
				"y": -0.8680393067,
				"z": -1.0038150466,
				"element": "C" 
			},
			{
				"x": 0.171576699,
				"y": -1.0905053571,
				"z": -2.3275962218,
				"element": "F" 
			},
			{
				"x": 1.1055983448,
				"y": -1.4670572285,
				"z": -0.2038186154,
				"element": "C" 
			},
			{
				"x": 1.073648603,
				"y": -1.2404675326,
				"z": 1.1671053717,
				"element": "C" 
			},
			{
				"x": -1.6620770852,
				"y": 0.8073569966,
				"z": 1.3283818403,
				"element": "H" 
			},
			{
				"x": -1.8106730253,
				"y": 0.3605315529,
				"z": -2.4323907268,
				"element": "H" 
			},
			{
				"x": 1.8624266114,
				"y": -2.0945617586,
				"z": -0.6604086098,
				"element": "H" 
			},
			{
				"x": 1.8047164139,
				"y": -1.6828366026,
				"z": 1.8322354285,
				"element": "H" 
			}
		],
		 "valence_orbital": [ 
			{
				"type": "occ",
				"energy": -0.32022,
				"method": "rhf"
			},
			{
				"type": "occ",
				"energy": -0.30374,
				"method": "rhf"
			},
			{
				"type": "occ",
				"energy": -0.30187,
				"method": "rhf"
			},
			{
				"type": "occ",
				"energy": -0.29405,
				"method": "rhf"
			},
			{
				"type": "occ",
				"energy": -0.27851,
				"method": "rhf"
			},
			{
				"type": "unocc",
				"energy": -0.10239,
				"method": "rhf"
			},
			{
				"type": "unocc",
				"energy": -0.0913,
				"method": "rhf"
			},
			{
				"type": "unocc",
				"energy": -0.02395,
				"method": "rhf"
			},
			{
				"type": "unocc",
				"energy": 0.01697,
				"method": "rhf"
			},
			{
				"type": "unocc",
				"energy": 0.06276,
				"method": "rhf"
			}
		],
		"cosmo_sigma_profile": { 
			"-0.025": 0.0,
			"-0.024": 0.0,
			"-0.023": 0.0,
			"-0.022": 0.0,
			"-0.021": 0.0,
			"-0.02": 0.0,
			"-0.019": 0.0,
			"-0.018": 0.0,
			"-0.017": 0.0,
			"-0.016": 0.0,
			"-0.015": 0.0,
			"-0.014": 0.0,
			"-0.013": 0.0,
			"-0.012": 0.0,
			"-0.011": 0.0,
			"-0.01": 0.490317160763,
			"-0.009": 3.34662636492,
			"-0.008": 4.80146133209,
			"-0.007": 8.25473275921,
			"-0.006": 9.99582458444,
			"-0.005": 10.2829906108,
			"-0.004": 12.4254815426,
			"-0.003": 19.4529752185,
			"-0.002": 21.6923266997,
			"-0.001": 12.4039206717,
			"0.0": 8.63049304148,
			"0.001": 6.67378476338,
			"0.002": 10.3569215408,
			"0.003": 6.6865597617,
			"0.004": 3.82025463821,
			"0.005": 4.88995255413,
			"0.006": 5.74454948218,
			"0.007": 11.2099610314,
			"0.008": 7.23606979683,
			"0.009": 6.19176760439,
			"0.01": 5.27977986939,
			"0.011": 2.61233221768,
			"0.012": 0.87463866272,
			"0.013": 0.0,
			"0.014": 0.0,
			"0.015": 0.0,
			"0.016": 0.0,
			"0.017": 0.0,
			"0.018": 0.0,
			"0.019": 0.0,
			"0.02": 0.0,
			"0.021": 0.0,
			"0.022": 0.0,
			"0.023": 0.0,
			"0.024": 0.0,
			"0.025": 0.0
		}
	}
}
