{
	 "smiles": "O=C1C=CC(=O)N1C1=CC=C(C=C1)N=NC1=CC=CC=C1", 
	 "Tm": 436.65, 
	 "num_atms": 32, 
	 "gaussian": { 
		 "optdone": 1, 
		 "sigma_profile": "yes", 
		 "theory": "DFT", 
		 "functional": "B3LYP", 
		 "basiset": "6-31G**", 
		 "properties": { 
			 "R2extent": 10613.8978, 
			 "electric_dipole_moment_norm": 1.51867609121, 
			 "electric_quadrupole_moment_norm": 33.181983243, 
			 "total_energy": -930.990043473, 
			 "HOMO_LUMO_gap": 0.11774, 
			 "cosmo_polarized_energy": -13.28, 
			 "cosmo_cavitation_energy": 38.6, 
			 "cosmo_dispersion_energy": -27.93, 
			 "cosmo_repulsion_energy": 2.1, 
			 "cosmo_total_nonelectrostatic_energy": 12.77, 
			 "SMD_solvation_energy": 6.86 
		},
		"coords": [
			{
				"x": -1.7338320113,
				"y": 2.6054152437,
				"z": 3.9935411473,
				"element": "O" 
			},
			{
				"x": -0.6814715558,
				"y": 3.0796467749,
				"z": 3.6248481307,
				"element": "C" 
			},
			{
				"x": -0.0792355681,
				"y": 4.3856294122,
				"z": 4.0463050967,
				"element": "C" 
			},
			{
				"x": 1.0886704168,
				"y": 4.5470628442,
				"z": 3.4209000243,
				"element": "C" 
			},
			{
				"x": 1.3372371777,
				"y": 3.361398836,
				"z": 2.5386426763,
				"element": "C" 
			},
			{
				"x": 2.2963092386,
				"y": 3.1686476665,
				"z": 1.8236060498,
				"element": "O" 
			},
			{
				"x": 0.2253472269,
				"y": 2.5028763069,
				"z": 2.7049845329,
				"element": "N" 
			},
			{
				"x": 0.0465385672,
				"y": 1.2509486345,
				"z": 2.0487347721,
				"element": "C" 
			},
			{
				"x": 0.479314094,
				"y": 1.088726494,
				"z": 0.7209964005,
				"element": "C" 
			},
			{
				"x": 0.3107520527,
				"y": -0.1297918159,
				"z": 0.080608523,
				"element": "C" 
			},
			{
				"x": -0.3047551972,
				"y": -1.2013764061,
				"z": 0.749665104,
				"element": "C" 
			},
			{
				"x": -0.7400800613,
				"y": -1.0274968393,
				"z": 2.0693156925,
				"element": "C" 
			},
			{
				"x": -0.5625562193,
				"y": 0.1864142308,
				"z": 2.7247672123,
				"element": "C" 
			},
			{
				"x": -0.5345700918,
				"y": -2.4818883782,
				"z": 0.1911002753,
				"element": "N" 
			},
			{
				"x": -0.1261018467,
				"y": -2.6221867735,
				"z": -0.9937881492,
				"element": "N" 
			},
			{
				"x": -0.3573524276,
				"y": -3.9026461283,
				"z": -1.556100295,
				"element": "C" 
			},
			{
				"x": 0.0970356698,
				"y": -4.0721022228,
				"z": -2.8711165096,
				"element": "C" 
			},
			{
				"x": -0.0781226986,
				"y": -5.2919308656,
				"z": -3.5225082943,
				"element": "C" 
			},
			{
				"x": -0.7087636696,
				"y": -6.3476563538,
				"z": -2.8617364887,
				"element": "C" 
			},
			{
				"x": -1.164017426,
				"y": -6.1803555465,
				"z": -1.547110564,
				"element": "C" 
			},
			{
				"x": -0.9924565055,
				"y": -4.9668552164,
				"z": -0.8917513361,
				"element": "C" 
			},
			{
				"x": -0.5805907627,
				"y": 5.0347141625,
				"z": 4.7519297428,
				"element": "H" 
			},
			{
				"x": 1.7982096188,
				"y": 5.3615558643,
				"z": 3.4818863247,
				"element": "H" 
			},
			{
				"x": 0.9562975951,
				"y": 1.9126352776,
				"z": 0.2062891859,
				"element": "H" 
			},
			{
				"x": 0.6414883778,
				"y": -0.2717119567,
				"z": -0.9415455412,
				"element": "H" 
			},
			{
				"x": -1.2131056401,
				"y": -1.8658036167,
				"z": 2.5702404677,
				"element": "H" 
			},
			{
				"x": -0.9053324666,
				"y": 0.3140175048,
				"z": 3.7429071115,
				"element": "H" 
			},
			{
				"x": 0.583311829,
				"y": -3.2324341004,
				"z": -3.3575647886,
				"element": "H" 
			},
			{
				"x": 0.2756884145,
				"y": -5.4187672753,
				"z": -4.5413532346,
				"element": "H" 
			},
			{
				"x": -0.8473194897,
				"y": -7.2997600831,
				"z": -3.365972227,
				"element": "H" 
			},
			{
				"x": -1.6544903071,
				"y": -7.0043334871,
				"z": -1.0364048058,
				"element": "H" 
			},
			{
				"x": -1.3371463341,
				"y": -4.816292187,
				"z": 0.1247837634,
				"element": "H" 
			}
		],
		 "valence_orbital": [ 
			{
				"type": "occ",
				"energy": -0.26453,
				"method": "rhf"
			},
			{
				"type": "occ",
				"energy": -0.25956,
				"method": "rhf"
			},
			{
				"type": "occ",
				"energy": -0.25547,
				"method": "rhf"
			},
			{
				"type": "occ",
				"energy": -0.22562,
				"method": "rhf"
			},
			{
				"type": "occ",
				"energy": -0.22304,
				"method": "rhf"
			},
			{
				"type": "unocc",
				"energy": -0.1053,
				"method": "rhf"
			},
			{
				"type": "unocc",
				"energy": -0.08242,
				"method": "rhf"
			},
			{
				"type": "unocc",
				"energy": -0.00812,
				"method": "rhf"
			},
			{
				"type": "unocc",
				"energy": -0.00498,
				"method": "rhf"
			},
			{
				"type": "unocc",
				"energy": 0.00029,
				"method": "rhf"
			}
		],
		"cosmo_sigma_profile": { 
			"-0.025": 0.0,
			"-0.024": 0.0,
			"-0.023": 0.0,
			"-0.022": 0.0,
			"-0.021": 0.0,
			"-0.02": 0.0,
			"-0.019": 0.0,
			"-0.018": 0.0,
			"-0.017": 0.0,
			"-0.016": 0.0,
			"-0.015": 0.0,
			"-0.014": 0.0,
			"-0.013": 0.0,
			"-0.012": 0.0,
			"-0.011": 0.0,
			"-0.01": 2.85170180312,
			"-0.009": 3.85073990795,
			"-0.008": 3.46758823753,
			"-0.007": 5.66107496478,
			"-0.006": 20.4956744068,
			"-0.005": 27.8123736186,
			"-0.004": 23.6792533475,
			"-0.003": 21.8624736527,
			"-0.002": 16.6586086385,
			"-0.001": 16.7841318969,
			"0.0": 16.8038873471,
			"0.001": 24.0723919483,
			"0.002": 32.8844066729,
			"0.003": 30.6341281727,
			"0.004": 19.9025351052,
			"0.005": 8.8658619348,
			"0.006": 6.91902346047,
			"0.007": 7.1589706416,
			"0.008": 4.43678744057,
			"0.009": 5.47709907707,
			"0.01": 7.96324527062,
			"0.011": 3.9549110601,
			"0.012": 0.230692859215,
			"0.013": 0.0,
			"0.014": 0.0,
			"0.015": 0.0,
			"0.016": 0.0,
			"0.017": 0.0,
			"0.018": 0.0,
			"0.019": 0.0,
			"0.02": 0.0,
			"0.021": 0.0,
			"0.022": 0.0,
			"0.023": 0.0,
			"0.024": 0.0,
			"0.025": 0.0
		}
	}
}
