{
	 "smiles": "CC12CCC3C(CCC4CC(O)(CCC34C)C#C)C1CCC2(O)C#C", 
	 "Tm": 420.15, 
	 "num_atms": 57, 
	 "gaussian": { 
		 "optdone": 1, 
		 "sigma_profile": "yes", 
		 "theory": "DFT", 
		 "functional": "B3LYP", 
		 "basiset": "6-31G**", 
		 "properties": { 
			 "R2extent": 10216.8376, 
			 "electric_dipole_moment_norm": 2.09542125836, 
			 "electric_quadrupole_moment_norm": 12.2454116521, 
			 "total_energy": -1046.03348963, 
			 "HOMO_LUMO_gap": 0.29331, 
			 "cosmo_polarized_energy": -13.11, 
			 "cosmo_cavitation_energy": 49.88, 
			 "cosmo_dispersion_energy": -33.62, 
			 "cosmo_repulsion_energy": 2.43, 
			 "cosmo_total_nonelectrostatic_energy": 18.69, 
			 "SMD_solvation_energy": 9.87 
		},
		"coords": [
			{
				"x": -0.5851547525,
				"y": -3.0147136117,
				"z": 2.4918536723,
				"element": "C" 
			},
			{
				"x": 0.3451851744,
				"y": -2.8572976772,
				"z": 1.2712592136,
				"element": "C" 
			},
			{
				"x": 1.7441408237,
				"y": -2.4049966316,
				"z": 1.7446669838,
				"element": "C" 
			},
			{
				"x": 1.77296724,
				"y": -0.8986150653,
				"z": 2.0355628253,
				"element": "C" 
			},
			{
				"x": 1.549110653,
				"y": -0.045449011,
				"z": 0.7593400349,
				"element": "C" 
			},
			{
				"x": 0.7373046413,
				"y": -0.8373072196,
				"z": -0.3215997382,
				"element": "C" 
			},
			{
				"x": 0.123478851,
				"y": 0.1106698703,
				"z": -1.373146255,
				"element": "C" 
			},
			{
				"x": 0.9983168487,
				"y": 1.3547829505,
				"z": -1.5545841161,
				"element": "C" 
			},
			{
				"x": 0.97773592,
				"y": 2.2482404905,
				"z": -0.2924954044,
				"element": "C" 
			},
			{
				"x": -0.2736365094,
				"y": 3.1565211201,
				"z": -0.3664602381,
				"element": "C" 
			},
			{
				"x": -0.609324195,
				"y": 3.9077245884,
				"z": 0.9372149067,
				"element": "C" 
			},
			{
				"x": 0.475192543,
				"y": 4.7782365302,
				"z": 1.3146039203,
				"element": "O" 
			},
			{
				"x": -0.7849414701,
				"y": 2.8951582764,
				"z": 2.1075200707,
				"element": "C" 
			},
			{
				"x": -0.3011942667,
				"y": 1.4725366519,
				"z": 1.771673081,
				"element": "C" 
			},
			{
				"x": 1.0736804075,
				"y": 1.4219777437,
				"z": 1.0571843824,
				"element": "C" 
			},
			{
				"x": 2.1423601773,
				"y": 2.0814305056,
				"z": 1.9627895477,
				"element": "C" 
			},
			{
				"x": -1.8265228533,
				"y": 4.7194747877,
				"z": 0.7413153474,
				"element": "C" 
			},
			{
				"x": -2.8097910973,
				"y": 5.3961798575,
				"z": 0.5518811844,
				"element": "C" 
			},
			{
				"x": -0.2906360206,
				"y": -1.8364518636,
				"z": 0.2511065863,
				"element": "C" 
			},
			{
				"x": -0.9649163124,
				"y": -2.7000937987,
				"z": -0.8599272519,
				"element": "C" 
			},
			{
				"x": -0.9256983278,
				"y": -4.152447305,
				"z": -0.3579731438,
				"element": "C" 
			},
			{
				"x": 0.38651658,
				"y": -4.2001798505,
				"z": 0.4552049806,
				"element": "C" 
			},
			{
				"x": 1.499008387,
				"y": -4.1009647964,
				"z": -0.4534932482,
				"element": "O" 
			},
			{
				"x": 0.5293707786,
				"y": -5.4179691418,
				"z": 1.2650287417,
				"element": "C" 
			},
			{
				"x": 0.6583020332,
				"y": -6.4476060735,
				"z": 1.8849714024,
				"element": "C" 
			},
			{
				"x": -1.6080613526,
				"y": -3.2761258791,
				"z": 2.2033722273,
				"element": "H" 
			},
			{
				"x": -0.2195043575,
				"y": -3.7874594574,
				"z": 3.1739009205,
				"element": "H" 
			},
			{
				"x": -0.6406480882,
				"y": -2.0724006695,
				"z": 3.0452556499,
				"element": "H" 
			},
			{
				"x": 2.4893967058,
				"y": -2.6492963468,
				"z": 0.9838146877,
				"element": "H" 
			},
			{
				"x": 2.021859269,
				"y": -2.9665866558,
				"z": 2.6450235799,
				"element": "H" 
			},
			{
				"x": 1.0150191907,
				"y": -0.668798925,
				"z": 2.7927494919,
				"element": "H" 
			},
			{
				"x": 2.7330846307,
				"y": -0.6358438194,
				"z": 2.4912587452,
				"element": "H" 
			},
			{
				"x": 2.5445200317,
				"y": 0.0873251451,
				"z": 0.313886521,
				"element": "H" 
			},
			{
				"x": 1.4767991669,
				"y": -1.4528344932,
				"z": -0.8499617086,
				"element": "H" 
			},
			{
				"x": 0.0027000506,
				"y": -0.4126300166,
				"z": -2.3278611396,
				"element": "H" 
			},
			{
				"x": -0.8881877915,
				"y": 0.4142861566,
				"z": -1.0705881885,
				"element": "H" 
			},
			{
				"x": 2.0247512069,
				"y": 1.0420515253,
				"z": -1.7837410683,
				"element": "H" 
			},
			{
				"x": 0.6616094068,
				"y": 1.9411988678,
				"z": -2.4188851079,
				"element": "H" 
			},
			{
				"x": 1.8530109173,
				"y": 2.9063730888,
				"z": -0.3325284364,
				"element": "H" 
			},
			{
				"x": -0.1415914541,
				"y": 3.8876035026,
				"z": -1.1745344201,
				"element": "H" 
			},
			{
				"x": -1.1550616069,
				"y": 2.565813038,
				"z": -0.6430891339,
				"element": "H" 
			},
			{
				"x": 0.5717941648,
				"y": 5.44133174,
				"z": 0.6168618201,
				"element": "H" 
			},
			{
				"x": -1.8382371796,
				"y": 2.8532006754,
				"z": 2.3983941296,
				"element": "H" 
			},
			{
				"x": -0.2398747422,
				"y": 3.3079349441,
				"z": 2.9606927227,
				"element": "H" 
			},
			{
				"x": -0.2663683576,
				"y": 0.9030598766,
				"z": 2.7062494573,
				"element": "H" 
			},
			{
				"x": -1.0563188444,
				"y": 0.9806389428,
				"z": 1.1486304412,
				"element": "H" 
			},
			{
				"x": 1.9682225331,
				"y": 3.1538109274,
				"z": 2.0640110078,
				"element": "H" 
			},
			{
				"x": 2.1531217151,
				"y": 1.6397986906,
				"z": 2.9649302816,
				"element": "H" 
			},
			{
				"x": 3.141218037,
				"y": 1.9464124616,
				"z": 1.5306223522,
				"element": "H" 
			},
			{
				"x": -3.6788397319,
				"y": 5.9933107441,
				"z": 0.3992594298,
				"element": "H" 
			},
			{
				"x": -1.0660341412,
				"y": -1.2682060353,
				"z": 0.7797668891,
				"element": "H" 
			},
			{
				"x": -1.9822355676,
				"y": -2.3705887486,
				"z": -1.0905693748,
				"element": "H" 
			},
			{
				"x": -0.384450702,
				"y": -2.6296050947,
				"z": -1.7842230041,
				"element": "H" 
			},
			{
				"x": -0.9208828312,
				"y": -4.8937067643,
				"z": -1.1646183113,
				"element": "H" 
			},
			{
				"x": -1.7765902965,
				"y": -4.3862450435,
				"z": 0.289034829,
				"element": "H" 
			},
			{
				"x": 1.5520164777,
				"y": -4.9384172945,
				"z": -0.9332314835,
				"element": "H" 
			},
			{
				"x": 0.7753082873,
				"y": -7.3484464096,
				"z": 2.4418187071,
				"element": "H" 
			}
		],
		 "valence_orbital": [ 
			{
				"type": "occ",
				"energy": -0.26843,
				"method": "rhf"
			},
			{
				"type": "occ",
				"energy": -0.26697,
				"method": "rhf"
			},
			{
				"type": "occ",
				"energy": -0.26163,
				"method": "rhf"
			},
			{
				"type": "occ",
				"energy": -0.25698,
				"method": "rhf"
			},
			{
				"type": "occ",
				"energy": -0.25664,
				"method": "rhf"
			},
			{
				"type": "unocc",
				"energy": 0.03667,
				"method": "rhf"
			},
			{
				"type": "unocc",
				"energy": 0.04084,
				"method": "rhf"
			},
			{
				"type": "unocc",
				"energy": 0.05038,
				"method": "rhf"
			},
			{
				"type": "unocc",
				"energy": 0.05548,
				"method": "rhf"
			},
			{
				"type": "unocc",
				"energy": 0.07209,
				"method": "rhf"
			}
		],
		"cosmo_sigma_profile": { 
			"-0.025": 0.0,
			"-0.024": 0.0,
			"-0.023": 0.0,
			"-0.022": 0.0,
			"-0.021": 0.0,
			"-0.02": 0.0,
			"-0.019": 0.0,
			"-0.018": 0.0,
			"-0.017": 0.0,
			"-0.016": 0.283926798534,
			"-0.015": 1.45759441425,
			"-0.014": 1.95079995933,
			"-0.013": 1.58742654747,
			"-0.012": 1.7318909602,
			"-0.011": 3.52638150664,
			"-0.01": 4.4903026597,
			"-0.009": 2.98593603073,
			"-0.008": 4.37547591966,
			"-0.007": 4.58814559792,
			"-0.006": 3.88315503495,
			"-0.005": 5.42772262961,
			"-0.004": 11.8814658692,
			"-0.003": 21.7861335728,
			"-0.002": 40.7301932976,
			"-0.001": 61.0459013815,
			"0.0": 60.7493138496,
			"0.001": 42.8323470871,
			"0.002": 26.4709645059,
			"0.003": 12.9871145201,
			"0.004": 14.0757113602,
			"0.005": 14.0154012564,
			"0.006": 16.7322759455,
			"0.007": 11.8403957796,
			"0.008": 4.94489247178,
			"0.009": 3.13757907834,
			"0.01": 3.42179068858,
			"0.011": 1.34602327325,
			"0.012": 0.794188948349,
			"0.013": 0.659804041885,
			"0.014": 0.115701823495,
			"0.015": 0.0,
			"0.016": 0.0,
			"0.017": 0.0,
			"0.018": 0.0,
			"0.019": 0.0,
			"0.02": 0.0,
			"0.021": 0.0,
			"0.022": 0.0,
			"0.023": 0.0,
			"0.024": 0.0,
			"0.025": 0.0
		}
	}
}
