{
	 "smiles": "CN(C)C1=CC(N)=C(C=C1)C#N", 
	 "Tm": 383.15, 
	 "num_atms": 23, 
	 "gaussian": { 
		 "optdone": 1, 
		 "sigma_profile": "yes", 
		 "theory": "DFT", 
		 "functional": "B3LYP", 
		 "basiset": "6-31G**", 
		 "properties": { 
			 "R2extent": 2677.6562, 
			 "electric_dipole_moment_norm": 6.85982788778, 
			 "electric_quadrupole_moment_norm": 17.8179940832, 
			 "total_energy": -513.828983853, 
			 "HOMO_LUMO_gap": 0.1794, 
			 "cosmo_polarized_energy": -14.63, 
			 "cosmo_cavitation_energy": 26.78, 
			 "cosmo_dispersion_energy": -19.3, 
			 "cosmo_repulsion_energy": 1.53, 
			 "cosmo_total_nonelectrostatic_energy": 9.01, 
			 "SMD_solvation_energy": 5.59 
		},
		"coords": [
			{
				"x": -0.8098965087,
				"y": -3.4908986053,
				"z": 0.0997134203,
				"element": "C" 
			},
			{
				"x": 0.074028722,
				"y": -2.3751409821,
				"z": -0.1982625392,
				"element": "N" 
			},
			{
				"x": 1.0124700842,
				"y": -2.4860942976,
				"z": -1.3017179041,
				"element": "C" 
			},
			{
				"x": -0.0854932509,
				"y": -1.170599355,
				"z": 0.4558225308,
				"element": "C" 
			},
			{
				"x": 0.7091341294,
				"y": -0.0548260088,
				"z": 0.1222303451,
				"element": "C" 
			},
			{
				"x": 0.5704717749,
				"y": 1.1728492996,
				"z": 0.7809873493,
				"element": "C" 
			},
			{
				"x": 1.3261389749,
				"y": 2.2634055976,
				"z": 0.3992391152,
				"element": "N" 
			},
			{
				"x": -0.3951073048,
				"y": 1.296479508,
				"z": 1.8164329963,
				"element": "C" 
			},
			{
				"x": -1.1914562582,
				"y": 0.1839247972,
				"z": 2.1397402514,
				"element": "C" 
			},
			{
				"x": -1.0546400116,
				"y": -1.0250232894,
				"z": 1.4855935486,
				"element": "C" 
			},
			{
				"x": -0.5266812597,
				"y": 2.5324454689,
				"z": 2.5096202337,
				"element": "C" 
			},
			{
				"x": -0.5853585366,
				"y": 3.5639362254,
				"z": 3.0518508576,
				"element": "N" 
			},
			{
				"x": -1.8612451398,
				"y": -3.2621155942,
				"z": -0.1245853834,
				"element": "H" 
			},
			{
				"x": -0.5157326709,
				"y": -4.3506196203,
				"z": -0.5032148753,
				"element": "H" 
			},
			{
				"x": -0.7444997888,
				"y": -3.7856591191,
				"z": 1.1543354052,
				"element": "H" 
			},
			{
				"x": 0.7586884797,
				"y": -1.8134116855,
				"z": -2.1336033652,
				"element": "H" 
			},
			{
				"x": 2.0373424898,
				"y": -2.2571717011,
				"z": -0.9822813051,
				"element": "H" 
			},
			{
				"x": 1.0037656965,
				"y": -3.5088283667,
				"z": -1.679869936,
				"element": "H" 
			},
			{
				"x": 1.4436578333,
				"y": -0.1219737099,
				"z": -0.6710723471,
				"element": "H" 
			},
			{
				"x": 1.3611196091,
				"y": 3.0430115602,
				"z": 1.0411327495,
				"element": "H" 
			},
			{
				"x": 2.1933789365,
				"y": 2.0764323053,
				"z": -0.080057146,
				"element": "H" 
			},
			{
				"x": -1.9292202879,
				"y": 0.2859737046,
				"z": 2.9293192461,
				"element": "H" 
			},
			{
				"x": -1.6921657125,
				"y": -1.8515961318,
				"z": 1.7683467525,
				"element": "H" 
			}
		],
		 "valence_orbital": [ 
			{
				"type": "occ",
				"energy": -0.32608,
				"method": "rhf"
			},
			{
				"type": "occ",
				"energy": -0.31279,
				"method": "rhf"
			},
			{
				"type": "occ",
				"energy": -0.27563,
				"method": "rhf"
			},
			{
				"type": "occ",
				"energy": -0.2159,
				"method": "rhf"
			},
			{
				"type": "occ",
				"energy": -0.19661,
				"method": "rhf"
			},
			{
				"type": "unocc",
				"energy": -0.01721,
				"method": "rhf"
			},
			{
				"type": "unocc",
				"energy": 0.0095,
				"method": "rhf"
			},
			{
				"type": "unocc",
				"energy": 0.04821,
				"method": "rhf"
			},
			{
				"type": "unocc",
				"energy": 0.07534,
				"method": "rhf"
			},
			{
				"type": "unocc",
				"energy": 0.08489,
				"method": "rhf"
			}
		],
		"cosmo_sigma_profile": { 
			"-0.025": 0.0,
			"-0.024": 0.0,
			"-0.023": 0.0,
			"-0.022": 0.0,
			"-0.021": 0.0,
			"-0.02": 0.0,
			"-0.019": 0.0,
			"-0.018": 0.0,
			"-0.017": 0.0,
			"-0.016": 0.0,
			"-0.015": 0.0,
			"-0.014": 0.114239350798,
			"-0.013": 1.13459900436,
			"-0.012": 2.1429911101,
			"-0.011": 2.08868822143,
			"-0.01": 2.77141785275,
			"-0.009": 2.38764965898,
			"-0.008": 2.07379778853,
			"-0.007": 5.5951622474,
			"-0.006": 8.80611564786,
			"-0.005": 14.3708283139,
			"-0.004": 21.3132842783,
			"-0.003": 17.7419800212,
			"-0.002": 20.422501948,
			"-0.001": 14.3585071863,
			"0.0": 9.17683479864,
			"0.001": 9.79946426672,
			"0.002": 11.0379117422,
			"0.003": 9.89472057418,
			"0.004": 11.4352786895,
			"0.005": 14.0479462914,
			"0.006": 7.10242301526,
			"0.007": 2.43578574239,
			"0.008": 2.97481021942,
			"0.009": 3.81241308711,
			"0.01": 3.86092074145,
			"0.011": 4.01292510445,
			"0.012": 3.21099354853,
			"0.013": 2.8112897426,
			"0.014": 1.9470057775,
			"0.015": 0.13026647376,
			"0.016": 0.0,
			"0.017": 0.0,
			"0.018": 0.0,
			"0.019": 0.0,
			"0.02": 0.0,
			"0.021": 0.0,
			"0.022": 0.0,
			"0.023": 0.0,
			"0.024": 0.0,
			"0.025": 0.0
		}
	}
}
