{
	 "smiles": "CC1=NC2=CC=C3C=CC=CC3=C2C1(C)C", 
	 "Tm": 390.15, 
	 "num_atms": 31, 
	 "gaussian": { 
		 "optdone": 1, 
		 "sigma_profile": "yes", 
		 "theory": "DFT", 
		 "functional": "B3LYP", 
		 "basiset": "6-31G**", 
		 "properties": { 
			 "R2extent": 4019.6774, 
			 "electric_dipole_moment_norm": 2.14658178041, 
			 "electric_quadrupole_moment_norm": 9.48223128277, 
			 "total_energy": -635.407168739, 
			 "HOMO_LUMO_gap": 0.16058, 
			 "cosmo_polarized_energy": -8.84, 
			 "cosmo_cavitation_energy": 32.36, 
			 "cosmo_dispersion_energy": -23.22, 
			 "cosmo_repulsion_energy": 1.76, 
			 "cosmo_total_nonelectrostatic_energy": 10.9, 
			 "SMD_solvation_energy": 3.51 
		},
		"coords": [
			{
				"x": 0.4784264094,
				"y": -0.6568483568,
				"z": 3.7705311273,
				"element": "C" 
			},
			{
				"x": 0.8683704152,
				"y": -0.8130624624,
				"z": 2.3344608862,
				"element": "C" 
			},
			{
				"x": 1.746328684,
				"y": -1.6811432143,
				"z": 1.9552618838,
				"element": "N" 
			},
			{
				"x": 1.8669508808,
				"y": -1.5547257116,
				"z": 0.548588947,
				"element": "C" 
			},
			{
				"x": 2.727745215,
				"y": -2.3271581674,
				"z": -0.2587246366,
				"element": "C" 
			},
			{
				"x": 2.7347699038,
				"y": -2.0889663186,
				"z": -1.614452073,
				"element": "C" 
			},
			{
				"x": 1.901695468,
				"y": -1.0935680984,
				"z": -2.2003136922,
				"element": "C" 
			},
			{
				"x": 1.9174229007,
				"y": -0.8566540778,
				"z": -3.6007789688,
				"element": "C" 
			},
			{
				"x": 1.1142822978,
				"y": 0.1041561453,
				"z": -4.1723008118,
				"element": "C" 
			},
			{
				"x": 0.2516661164,
				"y": 0.8776102702,
				"z": -3.3592327099,
				"element": "C" 
			},
			{
				"x": 0.2074446983,
				"y": 0.6780674181,
				"z": -1.9973692028,
				"element": "C" 
			},
			{
				"x": 1.023305135,
				"y": -0.3065200137,
				"z": -1.3694344033,
				"element": "C" 
			},
			{
				"x": 1.0369148644,
				"y": -0.573503949,
				"z": 0.0232313446,
				"element": "C" 
			},
			{
				"x": 0.2727725104,
				"y": 0.0293042077,
				"z": 1.1929117327,
				"element": "C" 
			},
			{
				"x": 0.5913490101,
				"y": 1.526619098,
				"z": 1.4119653612,
				"element": "C" 
			},
			{
				"x": -1.2531208178,
				"y": -0.2032628725,
				"z": 1.0977655427,
				"element": "C" 
			},
			{
				"x": 0.6810605222,
				"y": 0.3588646855,
				"z": 4.1316120148,
				"element": "H" 
			},
			{
				"x": 1.0391752946,
				"y": -1.3664510773,
				"z": 4.3811496951,
				"element": "H" 
			},
			{
				"x": -0.5941588424,
				"y": -0.8348731231,
				"z": 3.9153257914,
				"element": "H" 
			},
			{
				"x": 3.3594541648,
				"y": -3.0836956178,
				"z": 0.1952012575,
				"element": "H" 
			},
			{
				"x": 3.3852180382,
				"y": -2.6648276931,
				"z": -2.2678658705,
				"element": "H" 
			},
			{
				"x": 2.5825004895,
				"y": -1.4545006375,
				"z": -4.2192800775,
				"element": "H" 
			},
			{
				"x": 1.1395498609,
				"y": 0.2715093906,
				"z": -5.2450729164,
				"element": "H" 
			},
			{
				"x": -0.3803597791,
				"y": 1.6347168872,
				"z": -3.814860789,
				"element": "H" 
			},
			{
				"x": -0.4603267492,
				"y": 1.2810252766,
				"z": -1.3918445162,
				"element": "H" 
			},
			{
				"x": 1.6687455013,
				"y": 1.6876558252,
				"z": 1.511867617,
				"element": "H" 
			},
			{
				"x": 0.1006720636,
				"y": 1.899255216,
				"z": 2.3173911699,
				"element": "H" 
			},
			{
				"x": 0.2393265072,
				"y": 2.128461211,
				"z": 0.5696436602,
				"element": "H" 
			},
			{
				"x": -1.7576260797,
				"y": 0.1567834562,
				"z": 2.0006764683,
				"element": "H" 
			},
			{
				"x": -1.677206829,
				"y": 0.3306753508,
				"z": 0.2429598805,
				"element": "H" 
			},
			{
				"x": -1.4807478546,
				"y": -1.2662430469,
				"z": 0.9754862874,
				"element": "H" 
			}
		],
		 "valence_orbital": [ 
			{
				"type": "occ",
				"energy": -0.29787,
				"method": "rhf"
			},
			{
				"type": "occ",
				"energy": -0.27406,
				"method": "rhf"
			},
			{
				"type": "occ",
				"energy": -0.25525,
				"method": "rhf"
			},
			{
				"type": "occ",
				"energy": -0.23024,
				"method": "rhf"
			},
			{
				"type": "occ",
				"energy": -0.20368,
				"method": "rhf"
			},
			{
				"type": "unocc",
				"energy": -0.0431,
				"method": "rhf"
			},
			{
				"type": "unocc",
				"energy": -0.0177,
				"method": "rhf"
			},
			{
				"type": "unocc",
				"energy": 0.01784,
				"method": "rhf"
			},
			{
				"type": "unocc",
				"energy": 0.04336,
				"method": "rhf"
			},
			{
				"type": "unocc",
				"energy": 0.07377,
				"method": "rhf"
			}
		],
		"cosmo_sigma_profile": { 
			"-0.025": 0.0,
			"-0.024": 0.0,
			"-0.023": 0.0,
			"-0.022": 0.0,
			"-0.021": 0.0,
			"-0.02": 0.0,
			"-0.019": 0.0,
			"-0.018": 0.0,
			"-0.017": 0.0,
			"-0.016": 0.0,
			"-0.015": 0.0,
			"-0.014": 0.0,
			"-0.013": 0.0,
			"-0.012": 0.0,
			"-0.011": 0.0,
			"-0.01": 0.0,
			"-0.009": 0.0,
			"-0.008": 0.00681717475357,
			"-0.007": 0.841764134063,
			"-0.006": 8.54159241212,
			"-0.005": 19.0285026322,
			"-0.004": 27.6689125082,
			"-0.003": 28.8853093595,
			"-0.002": 23.7981569469,
			"-0.001": 25.9010143896,
			"0.0": 24.0205295025,
			"0.001": 14.5872736801,
			"0.002": 11.4160651008,
			"0.003": 13.7662776984,
			"0.004": 24.361147898,
			"0.005": 17.3487452761,
			"0.006": 5.00094650787,
			"0.007": 2.14199476408,
			"0.008": 1.28587696315,
			"0.009": 1.12915958286,
			"0.01": 1.01883908217,
			"0.011": 0.540464847988,
			"0.012": 1.62319603139,
			"0.013": 0.513332446684,
			"0.014": 1.3485572374,
			"0.015": 0.591855592131,
			"0.016": 0.631111355775,
			"0.017": 0.622389570336,
			"0.018": 0.0902291008543,
			"0.019": 0.0,
			"0.02": 0.0,
			"0.021": 0.0,
			"0.022": 0.0,
			"0.023": 0.0,
			"0.024": 0.0,
			"0.025": 0.0
		}
	}
}
