{
	 "smiles": "NC1=NC(N2CCCC2)=C(C#N)C2=C1C(=CC(=N2)C1=CC=CC=C1)C1=CC=CC=C1", 
	 "Tm": 509.15, 
	 "num_atms": 51, 
	 "gaussian": { 
		 "optdone": 1, 
		 "sigma_profile": "yes", 
		 "theory": "DFT", 
		 "functional": "B3LYP", 
		 "basiset": "6-31G**", 
		 "properties": { 
			 "R2extent": 14584.3771, 
			 "electric_dipole_moment_norm": 7.23556020361, 
			 "electric_quadrupole_moment_norm": 18.9753357232, 
			 "total_energy": -1239.09953555, 
			 "HOMO_LUMO_gap": 0.12551, 
			 "cosmo_polarized_energy": -21.66, 
			 "cosmo_cavitation_energy": 53.91, 
			 "cosmo_dispersion_energy": -37.51, 
			 "cosmo_repulsion_energy": 2.79, 
			 "cosmo_total_nonelectrostatic_energy": 19.19, 
			 "SMD_solvation_energy": 6.54 
		},
		"coords": [
			{
				"x": -2.5466178168,
				"y": 0.4544283844,
				"z": -1.2378848499,
				"element": "N" 
			},
			{
				"x": -1.6908988227,
				"y": 0.7088469555,
				"z": -0.2065950818,
				"element": "C" 
			},
			{
				"x": -2.0197215596,
				"y": 1.7481568808,
				"z": 0.5433666723,
				"element": "N" 
			},
			{
				"x": -1.2390939526,
				"y": 2.1460056917,
				"z": 1.580186803,
				"element": "C" 
			},
			{
				"x": -1.7625575218,
				"y": 3.1662433847,
				"z": 2.313519138,
				"element": "N" 
			},
			{
				"x": -3.031516772,
				"y": 3.808425692,
				"z": 1.9282135414,
				"element": "C" 
			},
			{
				"x": -3.188478806,
				"y": 4.9325270473,
				"z": 2.9587686048,
				"element": "C" 
			},
			{
				"x": -2.5258570611,
				"y": 4.34616392,
				"z": 4.2137565587,
				"element": "C" 
			},
			{
				"x": -1.3106960025,
				"y": 3.5959775052,
				"z": 3.6488314341,
				"element": "C" 
			},
			{
				"x": 0.0200963653,
				"y": 1.5430821046,
				"z": 1.8209865269,
				"element": "C" 
			},
			{
				"x": 0.9893541891,
				"y": 2.058483454,
				"z": 2.7261415855,
				"element": "C" 
			},
			{
				"x": 1.7885981793,
				"y": 2.4993994618,
				"z": 3.45236318,
				"element": "N" 
			},
			{
				"x": 0.3756282239,
				"y": 0.3966490674,
				"z": 1.0417830126,
				"element": "C" 
			},
			{
				"x": -0.5183683083,
				"y": -0.1043064474,
				"z": 0.0433750072,
				"element": "C" 
			},
			{
				"x": -0.1321988261,
				"y": -1.2964970398,
				"z": -0.6357247588,
				"element": "C" 
			},
			{
				"x": 1.1103172925,
				"y": -1.8428087015,
				"z": -0.3551518127,
				"element": "C" 
			},
			{
				"x": 1.9634096554,
				"y": -1.2355233249,
				"z": 0.5999784927,
				"element": "C" 
			},
			{
				"x": 1.5824748333,
				"y": -0.165579303,
				"z": 1.28553486,
				"element": "N" 
			},
			{
				"x": 3.31493838,
				"y": -1.7774578186,
				"z": 0.9084680012,
				"element": "C" 
			},
			{
				"x": 4.0179464258,
				"y": -1.2774099086,
				"z": 2.0190741029,
				"element": "C" 
			},
			{
				"x": 5.2829397218,
				"y": -1.7649834361,
				"z": 2.3351725387,
				"element": "C" 
			},
			{
				"x": 5.8742838308,
				"y": -2.7567691526,
				"z": 1.5482515241,
				"element": "C" 
			},
			{
				"x": 5.1905866985,
				"y": -3.2538469976,
				"z": 0.4375348337,
				"element": "C" 
			},
			{
				"x": 3.9227296984,
				"y": -2.7687266462,
				"z": 0.1199858963,
				"element": "C" 
			},
			{
				"x": -0.9964127893,
				"y": -2.0438972805,
				"z": -1.60002927,
				"element": "C" 
			},
			{
				"x": -2.195022928,
				"y": -2.6445175706,
				"z": -1.178441512,
				"element": "C" 
			},
			{
				"x": -2.957305389,
				"y": -3.4028478694,
				"z": -2.0656990365,
				"element": "C" 
			},
			{
				"x": -2.5403557672,
				"y": -3.5683479458,
				"z": -3.3891865952,
				"element": "C" 
			},
			{
				"x": -1.3529271007,
				"y": -2.9750996949,
				"z": -3.8195680304,
				"element": "C" 
			},
			{
				"x": -0.5825653726,
				"y": -2.2229118687,
				"z": -2.9297575953,
				"element": "C" 
			},
			{
				"x": -2.2969340727,
				"y": -0.1726977014,
				"z": -1.9830157078,
				"element": "H" 
			},
			{
				"x": -3.2423527311,
				"y": 1.1638064787,
				"z": -1.4098514386,
				"element": "H" 
			},
			{
				"x": -3.8589933975,
				"y": 3.0891829017,
				"z": 1.9844475511,
				"element": "H" 
			},
			{
				"x": -2.9842906618,
				"y": 4.1644909332,
				"z": 0.8960121054,
				"element": "H" 
			},
			{
				"x": -4.2349039375,
				"y": 5.2111773451,
				"z": 3.109665045,
				"element": "H" 
			},
			{
				"x": -2.6467625061,
				"y": 5.8263017655,
				"z": 2.6285329063,
				"element": "H" 
			},
			{
				"x": -2.236495043,
				"y": 5.1015039713,
				"z": 4.9489820778,
				"element": "H" 
			},
			{
				"x": -3.2075814484,
				"y": 3.6423678802,
				"z": 4.7050900525,
				"element": "H" 
			},
			{
				"x": -0.4348698655,
				"y": 4.249901784,
				"z": 3.5780838849,
				"element": "H" 
			},
			{
				"x": -1.0252018723,
				"y": 2.7335483478,
				"z": 4.2561654646,
				"element": "H" 
			},
			{
				"x": 1.3931661136,
				"y": -2.7677734898,
				"z": -0.8417003629,
				"element": "H" 
			},
			{
				"x": 3.5525231403,
				"y": -0.5019840721,
				"z": 2.6168550018,
				"element": "H" 
			},
			{
				"x": 5.8098419394,
				"y": -1.3688286991,
				"z": 3.1985298094,
				"element": "H" 
			},
			{
				"x": 6.8616954722,
				"y": -3.1360928311,
				"z": 1.7959188752,
				"element": "H" 
			},
			{
				"x": 5.6456634931,
				"y": -4.0176794426,
				"z": -0.1866063192,
				"element": "H" 
			},
			{
				"x": 3.4201211813,
				"y": -3.1576873577,
				"z": -0.7594731687,
				"element": "H" 
			},
			{
				"x": -2.5212134531,
				"y": -2.5165368836,
				"z": -0.1509449999,
				"element": "H" 
			},
			{
				"x": -3.8769750081,
				"y": -3.8676491211,
				"z": -1.722394278,
				"element": "H" 
			},
			{
				"x": -3.137398373,
				"y": -4.1573631991,
				"z": -4.0791956687,
				"element": "H" 
			},
			{
				"x": -1.0216921474,
				"y": -3.0987001713,
				"z": -4.8465779173,
				"element": "H" 
			},
			{
				"x": 0.3440444797,
				"y": -1.7646469821,
				"z": -3.2632766841,
				"element": "H" 
			}
		],
		 "valence_orbital": [ 
			{
				"type": "occ",
				"energy": -0.24909,
				"method": "rhf"
			},
			{
				"type": "occ",
				"energy": -0.24499,
				"method": "rhf"
			},
			{
				"type": "occ",
				"energy": -0.23833,
				"method": "rhf"
			},
			{
				"type": "occ",
				"energy": -0.22657,
				"method": "rhf"
			},
			{
				"type": "occ",
				"energy": -0.18912,
				"method": "rhf"
			},
			{
				"type": "unocc",
				"energy": -0.06361,
				"method": "rhf"
			},
			{
				"type": "unocc",
				"energy": -0.02969,
				"method": "rhf"
			},
			{
				"type": "unocc",
				"energy": -0.01922,
				"method": "rhf"
			},
			{
				"type": "unocc",
				"energy": -0.01285,
				"method": "rhf"
			},
			{
				"type": "unocc",
				"energy": 0.0019,
				"method": "rhf"
			}
		],
		"cosmo_sigma_profile": { 
			"-0.025": 0.0,
			"-0.024": 0.0,
			"-0.023": 0.0,
			"-0.022": 0.0,
			"-0.021": 0.0,
			"-0.02": 0.0,
			"-0.019": 0.0,
			"-0.018": 0.0,
			"-0.017": 0.0,
			"-0.016": 0.0,
			"-0.015": 0.0,
			"-0.014": 0.433880425302,
			"-0.013": 1.04116847225,
			"-0.012": 0.799072726317,
			"-0.011": 1.58491525162,
			"-0.01": 1.73703327595,
			"-0.009": 1.8728563275,
			"-0.008": 3.04557355505,
			"-0.007": 5.19959987119,
			"-0.006": 16.3955254839,
			"-0.005": 24.4688713515,
			"-0.004": 37.7559366381,
			"-0.003": 47.4156705884,
			"-0.002": 39.1122994114,
			"-0.001": 34.6335387339,
			"0.0": 34.3813002887,
			"0.001": 35.5652506146,
			"0.002": 31.1095443475,
			"0.003": 27.4655638041,
			"0.004": 24.4705500427,
			"0.005": 20.7865219422,
			"0.006": 6.84102838775,
			"0.007": 6.46931987356,
			"0.008": 6.64052710297,
			"0.009": 4.99868585195,
			"0.01": 4.38619977695,
			"0.011": 3.22884329222,
			"0.012": 3.0940537668,
			"0.013": 2.69974262264,
			"0.014": 2.53729021226,
			"0.015": 1.08151562375,
			"0.016": 0.0,
			"0.017": 0.0,
			"0.018": 0.0,
			"0.019": 0.0,
			"0.02": 0.0,
			"0.021": 0.0,
			"0.022": 0.0,
			"0.023": 0.0,
			"0.024": 0.0,
			"0.025": 0.0
		}
	}
}
