{
	 "smiles": "COC1=C(OCC2=C(C)C=C(C=C2C)C(C)(C)C)C=CC(C=O)=C1", 
	 "Tm": 413.15, 
	 "num_atms": 50, 
	 "gaussian": { 
		 "optdone": 1, 
		 "sigma_profile": "yes", 
		 "theory": "DFT", 
		 "functional": "B3LYP", 
		 "basiset": "6-31G**", 
		 "properties": { 
			 "R2extent": 10694.7254, 
			 "electric_dipole_moment_norm": 4.19881533173, 
			 "electric_quadrupole_moment_norm": 28.0268225878, 
			 "total_energy": -1041.56945503, 
			 "HOMO_LUMO_gap": 0.16657, 
			 "cosmo_polarized_energy": -13.32, 
			 "cosmo_cavitation_energy": 50.94, 
			 "cosmo_dispersion_energy": -33.27, 
			 "cosmo_repulsion_energy": 2.55, 
			 "cosmo_total_nonelectrostatic_energy": 20.21, 
			 "SMD_solvation_energy": 10.6 
		},
		"coords": [
			{
				"x": -1.8323320095,
				"y": 2.6070520107,
				"z": -4.7835866622,
				"element": "C" 
			},
			{
				"x": -0.8504514749,
				"y": 1.8675672378,
				"z": -4.0729032011,
				"element": "O" 
			},
			{
				"x": -1.1186052853,
				"y": 0.5620185893,
				"z": -3.7771205657,
				"element": "C" 
			},
			{
				"x": -0.0862508239,
				"y": -0.1475770961,
				"z": -3.1114323999,
				"element": "C" 
			},
			{
				"x": 1.117326903,
				"y": 0.4432880185,
				"z": -2.8525765555,
				"element": "O" 
			},
			{
				"x": 1.14718156,
				"y": 1.493043775,
				"z": -1.8427939825,
				"element": "C" 
			},
			{
				"x": 1.1553299326,
				"y": 0.9405630249,
				"z": -0.4350649988,
				"element": "C" 
			},
			{
				"x": 0.0379663492,
				"y": 1.0802278704,
				"z": 0.4151748552,
				"element": "C" 
			},
			{
				"x": -1.2228072817,
				"y": 1.7992738921,
				"z": -0.0212526763,
				"element": "C" 
			},
			{
				"x": 0.0930674477,
				"y": 0.5480063152,
				"z": 1.7064993359,
				"element": "C" 
			},
			{
				"x": 1.2173138966,
				"y": -0.1296078818,
				"z": 2.1972033802,
				"element": "C" 
			},
			{
				"x": 2.3114288788,
				"y": -0.2539103229,
				"z": 1.3351531043,
				"element": "C" 
			},
			{
				"x": 2.3010662652,
				"y": 0.2690979737,
				"z": 0.0365322758,
				"element": "C" 
			},
			{
				"x": 3.5300526023,
				"y": 0.1109073938,
				"z": -0.8325910173,
				"element": "C" 
			},
			{
				"x": 1.2097716877,
				"y": -0.696564533,
				"z": 3.6289536067,
				"element": "C" 
			},
			{
				"x": 2.5274292121,
				"y": -1.4112825424,
				"z": 3.9843054657,
				"element": "C" 
			},
			{
				"x": 0.0552685025,
				"y": -1.7167500924,
				"z": 3.7730015012,
				"element": "C" 
			},
			{
				"x": 1.0013759852,
				"y": 0.4581262405,
				"z": 4.6378289076,
				"element": "C" 
			},
			{
				"x": -0.2651258891,
				"y": -1.4960974138,
				"z": -2.7938509367,
				"element": "C" 
			},
			{
				"x": -1.4471389542,
				"y": -2.1551966908,
				"z": -3.1164587545,
				"element": "C" 
			},
			{
				"x": -2.4725086618,
				"y": -1.4554093651,
				"z": -3.7608902732,
				"element": "C" 
			},
			{
				"x": -3.7389695774,
				"y": -2.130735576,
				"z": -4.1080642153,
				"element": "C" 
			},
			{
				"x": -3.9939538848,
				"y": -3.2977087602,
				"z": -3.8737766075,
				"element": "O" 
			},
			{
				"x": -2.3051154384,
				"y": -0.0990366881,
				"z": -4.0894177775,
				"element": "C" 
			},
			{
				"x": -1.4095523303,
				"y": 3.6014644946,
				"z": -4.9327789728,
				"element": "H" 
			},
			{
				"x": -2.0467271321,
				"y": 2.1550071486,
				"z": -5.7601203532,
				"element": "H" 
			},
			{
				"x": -2.7667654407,
				"y": 2.69313585,
				"z": -4.2141223424,
				"element": "H" 
			},
			{
				"x": 0.3189323327,
				"y": 2.1801878417,
				"z": -2.0143818615,
				"element": "H" 
			},
			{
				"x": 2.0750722858,
				"y": 2.0286023832,
				"z": -2.0581255584,
				"element": "H" 
			},
			{
				"x": -1.9757209085,
				"y": 1.7654785857,
				"z": 0.770486125,
				"element": "H" 
			},
			{
				"x": -1.6647127971,
				"y": 1.3475150307,
				"z": -0.9153993476,
				"element": "H" 
			},
			{
				"x": -1.036691146,
				"y": 2.8555397694,
				"z": -0.2488985767,
				"element": "H" 
			},
			{
				"x": -0.7792127573,
				"y": 0.6682761251,
				"z": 2.3431595268,
				"element": "H" 
			},
			{
				"x": 3.2075577352,
				"y": -0.7675795642,
				"z": 1.665489275,
				"element": "H" 
			},
			{
				"x": 4.2697254281,
				"y": -0.5317390691,
				"z": -0.348018181,
				"element": "H" 
			},
			{
				"x": 3.2809873935,
				"y": -0.3188358901,
				"z": -1.8063946171,
				"element": "H" 
			},
			{
				"x": 4.0133820468,
				"y": 1.077956543,
				"z": -1.0240351882,
				"element": "H" 
			},
			{
				"x": 2.4728538454,
				"y": -1.7969485032,
				"z": 5.0075818128,
				"element": "H" 
			},
			{
				"x": 2.7218827811,
				"y": -2.2610178984,
				"z": 3.32172336,
				"element": "H" 
			},
			{
				"x": 3.3860289545,
				"y": -0.7337022186,
				"z": 3.932944398,
				"element": "H" 
			},
			{
				"x": 0.1799847933,
				"y": -2.5502890377,
				"z": 3.0740455013,
				"element": "H" 
			},
			{
				"x": -0.9191527842,
				"y": -1.2602359258,
				"z": 3.5763261272,
				"element": "H" 
			},
			{
				"x": 0.0327860015,
				"y": -2.125912197,
				"z": 4.7894980008,
				"element": "H" 
			},
			{
				"x": 1.8093657294,
				"y": 1.1934510133,
				"z": 4.5633834833,
				"element": "H" 
			},
			{
				"x": 0.9874218225,
				"y": 0.0710706666,
				"z": 5.6631138972,
				"element": "H" 
			},
			{
				"x": 0.0565676115,
				"y": 0.9824228339,
				"z": 4.4670070133,
				"element": "H" 
			},
			{
				"x": 0.5493168646,
				"y": -2.0068759621,
				"z": -2.2913466398,
				"element": "H" 
			},
			{
				"x": -1.59893407,
				"y": -3.2014448195,
				"z": -2.8737952594,
				"element": "H" 
			},
			{
				"x": -4.4831689731,
				"y": -1.4788291275,
				"z": -4.6210711424,
				"element": "H" 
			},
			{
				"x": -3.1100472291,
				"y": 0.4196065481,
				"z": -4.6001422887,
				"element": "H" 
			}
		],
		 "valence_orbital": [ 
			{
				"type": "occ",
				"energy": -0.25293,
				"method": "rhf"
			},
			{
				"type": "occ",
				"energy": -0.2488,
				"method": "rhf"
			},
			{
				"type": "occ",
				"energy": -0.23551,
				"method": "rhf"
			},
			{
				"type": "occ",
				"energy": -0.23185,
				"method": "rhf"
			},
			{
				"type": "occ",
				"energy": -0.222,
				"method": "rhf"
			},
			{
				"type": "unocc",
				"energy": -0.05543,
				"method": "rhf"
			},
			{
				"type": "unocc",
				"energy": -0.00877,
				"method": "rhf"
			},
			{
				"type": "unocc",
				"energy": -0.00137,
				"method": "rhf"
			},
			{
				"type": "unocc",
				"energy": 0.00773,
				"method": "rhf"
			},
			{
				"type": "unocc",
				"energy": 0.04917,
				"method": "rhf"
			}
		],
		"cosmo_sigma_profile": { 
			"-0.025": 0.0,
			"-0.024": 0.0,
			"-0.023": 0.0,
			"-0.022": 0.0,
			"-0.021": 0.0,
			"-0.02": 0.0,
			"-0.019": 0.0,
			"-0.018": 0.0,
			"-0.017": 0.0,
			"-0.016": 0.0,
			"-0.015": 0.0,
			"-0.014": 0.0,
			"-0.013": 0.0,
			"-0.012": 0.0,
			"-0.011": 0.0,
			"-0.01": 0.0,
			"-0.009": 0.00951876186816,
			"-0.008": 1.92341283706,
			"-0.007": 5.06406881478,
			"-0.006": 13.4564696727,
			"-0.005": 21.3661043733,
			"-0.004": 30.8345670782,
			"-0.003": 37.8207558996,
			"-0.002": 44.9174369289,
			"-0.001": 42.2850306954,
			"0.0": 41.7410162806,
			"0.001": 45.2513394699,
			"0.002": 32.0225802064,
			"0.003": 21.1909782248,
			"0.004": 14.9474893111,
			"0.005": 10.5527860766,
			"0.006": 9.24137698686,
			"0.007": 5.863708037,
			"0.008": 3.65623223741,
			"0.009": 4.01320333751,
			"0.01": 4.17642438777,
			"0.011": 5.06277555456,
			"0.012": 3.6528286875,
			"0.013": 1.28559338292,
			"0.014": 0.0165978182345,
			"0.015": 0.0,
			"0.016": 0.0,
			"0.017": 0.0,
			"0.018": 0.0,
			"0.019": 0.0,
			"0.02": 0.0,
			"0.021": 0.0,
			"0.022": 0.0,
			"0.023": 0.0,
			"0.024": 0.0,
			"0.0": 0.0
		}
	}
}
