{
	 "smiles": "ClC1=CC=C(SCC2=NC3=C(C4=C(CCC4)S3)C(Cl)=N2)C=C1", 
	 "Tm": 346.15, 
	 "num_atms": 34, 
	 "gaussian": { 
		 "optdone": 1, 
		 "sigma_profile": "yes", 
		 "theory": "DFT", 
		 "functional": "B3LYP", 
		 "basiset": "6-31G**", 
		 "properties": { 
			 "R2extent": 11665.1264, 
			 "electric_dipole_moment_norm": 3.99096528173, 
			 "electric_quadrupole_moment_norm": 22.1888493595, 
			 "total_energy": -2443.20348769, 
			 "HOMO_LUMO_gap": 0.16621, 
			 "cosmo_polarized_energy": -10.54, 
			 "cosmo_cavitation_energy": 45.12, 
			 "cosmo_dispersion_energy": -32.16, 
			 "cosmo_repulsion_energy": 2.41, 
			 "cosmo_total_nonelectrostatic_energy": 15.38, 
			 "SMD_solvation_energy": 2.4 
		},
		"coords": [
			{
				"x": 4.8500370879,
				"y": 0.8271721291,
				"z": -2.5003984153,
				"element": "Cl" 
			},
			{
				"x": 3.4179420995,
				"y": -0.1661678844,
				"z": -2.2768330966,
				"element": "C" 
			},
			{
				"x": 2.7224386059,
				"y": -0.6247154046,
				"z": -3.3962366116,
				"element": "C" 
			},
			{
				"x": 1.5928619226,
				"y": -1.4201042268,
				"z": -3.2133868337,
				"element": "C" 
			},
			{
				"x": 1.1469374222,
				"y": -1.7425631517,
				"z": -1.9241874037,
				"element": "C" 
			},
			{
				"x": -0.2716243688,
				"y": -2.8144398021,
				"z": -1.6901091154,
				"element": "S" 
			},
			{
				"x": -1.6910156983,
				"y": -1.6635399863,
				"z": -2.0261421095,
				"element": "C" 
			},
			{
				"x": -1.9909298117,
				"y": -0.742058219,
				"z": -0.8801963266,
				"element": "C" 
			},
			{
				"x": -2.8429253824,
				"y": -1.174259557,
				"z": 0.0557796947,
				"element": "N" 
			},
			{
				"x": -3.0536630731,
				"y": -0.3329328383,
				"z": 1.0594283961,
				"element": "C" 
			},
			{
				"x": -2.4490855687,
				"y": 0.9493937275,
				"z": 1.198624236,
				"element": "C" 
			},
			{
				"x": -2.8751764136,
				"y": 1.6115032603,
				"z": 2.3970361749,
				"element": "C" 
			},
			{
				"x": -3.7592946876,
				"y": 0.8640149587,
				"z": 3.1140548705,
				"element": "C" 
			},
			{
				"x": -4.2724000955,
				"y": 1.5551078992,
				"z": 4.3446617042,
				"element": "C" 
			},
			{
				"x": -3.2832972743,
				"y": 2.7557288331,
				"z": 4.459109426,
				"element": "C" 
			},
			{
				"x": -2.6417131287,
				"y": 2.9517930147,
				"z": 3.0512834899,
				"element": "C" 
			},
			{
				"x": -4.1429513545,
				"y": -0.6874430885,
				"z": 2.4019054221,
				"element": "S" 
			},
			{
				"x": -1.5882486659,
				"y": 1.2627277795,
				"z": 0.1360670957,
				"element": "C" 
			},
			{
				"x": -0.7584185335,
				"y": 2.814015661,
				"z": 0.1120854677,
				"element": "Cl" 
			},
			{
				"x": -1.3609712165,
				"y": 0.4530470064,
				"z": -0.874974849,
				"element": "N" 
			},
			{
				"x": 1.8615319939,
				"y": -1.2723410972,
				"z": -0.8155671619,
				"element": "C" 
			},
			{
				"x": 3.0013542073,
				"y": -0.4862444383,
				"z": -0.9858101961,
				"element": "C" 
			},
			{
				"x": 3.067406384,
				"y": -0.3716028632,
				"z": -4.3926269242,
				"element": "H" 
			},
			{
				"x": 1.0571782171,
				"y": -1.7987050961,
				"z": -4.0783399339,
				"element": "H" 
			},
			{
				"x": -2.5399428046,
				"y": -2.3277570002,
				"z": -2.1976525002,
				"element": "H" 
			},
			{
				"x": -1.4712314906,
				"y": -1.094872206,
				"z": -2.9305494732,
				"element": "H" 
			},
			{
				"x": -5.3090435905,
				"y": 1.8883911515,
				"z": 4.1987670868,
				"element": "H" 
			},
			{
				"x": -4.2654081733,
				"y": 0.9218261411,
				"z": 5.2381881056,
				"element": "H" 
			},
			{
				"x": -3.7757711213,
				"y": 3.6614800948,
				"z": 4.8218554935,
				"element": "H" 
			},
			{
				"x": -2.4986228021,
				"y": 2.5010139896,
				"z": 5.1780681506,
				"element": "H" 
			},
			{
				"x": -3.1368545667,
				"y": 3.7510015406,
				"z": 2.4845896797,
				"element": "H" 
			},
			{
				"x": -1.5841144418,
				"y": 3.2232665321,
				"z": 3.1145118243,
				"element": "H" 
			},
			{
				"x": 1.5241435928,
				"y": -1.5235419876,
				"z": 0.1844720266,
				"element": "H" 
			},
			{
				"x": 3.5557727307,
				"y": -0.1210948718,
				"z": -0.1284773943,
				"element": "H" 
			}
		],
		 "valence_orbital": [ 
			{
				"type": "occ",
				"energy": -0.27031,
				"method": "rhf"
			},
			{
				"type": "occ",
				"energy": -0.26534,
				"method": "rhf"
			},
			{
				"type": "occ",
				"energy": -0.25066,
				"method": "rhf"
			},
			{
				"type": "occ",
				"energy": -0.23737,
				"method": "rhf"
			},
			{
				"type": "occ",
				"energy": -0.2253,
				"method": "rhf"
			},
			{
				"type": "unocc",
				"energy": -0.05909,
				"method": "rhf"
			},
			{
				"type": "unocc",
				"energy": -0.04462,
				"method": "rhf"
			},
			{
				"type": "unocc",
				"energy": -0.02337,
				"method": "rhf"
			},
			{
				"type": "unocc",
				"energy": -0.01587,
				"method": "rhf"
			},
			{
				"type": "unocc",
				"energy": 0.00162,
				"method": "rhf"
			}
		],
		"cosmo_sigma_profile": { 
			"-0.025": 0.0,
			"-0.024": 0.0,
			"-0.023": 0.0,
			"-0.022": 0.0,
			"-0.021": 0.0,
			"-0.02": 0.0,
			"-0.019": 0.0,
			"-0.018": 0.0,
			"-0.017": 0.0,
			"-0.016": 0.0,
			"-0.015": 0.0,
			"-0.014": 0.0,
			"-0.013": 0.0,
			"-0.012": 0.0,
			"-0.011": 0.0,
			"-0.01": 0.0,
			"-0.009": 0.0,
			"-0.008": 1.71402317264,
			"-0.007": 8.83780641277,
			"-0.006": 11.223749981,
			"-0.005": 17.2681866941,
			"-0.004": 25.4156497778,
			"-0.003": 33.6384084575,
			"-0.002": 37.5184695148,
			"-0.001": 37.2338390184,
			"0.0": 36.9227419757,
			"0.001": 35.9987132628,
			"0.002": 33.431254978,
			"0.003": 29.9091644757,
			"0.004": 23.9663052271,
			"0.005": 13.2746040373,
			"0.006": 5.88165826689,
			"0.007": 5.68304836627,
			"0.008": 4.1289375373,
			"0.009": 3.71826161003,
			"0.01": 1.28431387372,
			"0.011": 1.67463060086,
			"0.012": 1.26751943524,
			"0.013": 0.111822930088,
			"0.014": 0.0,
			"0.015": 0.0,
			"0.016": 0.0,
			"0.017": 0.0,
			"0.018": 0.0,
			"0.019": 0.0,
			"0.02": 0.0,
			"0.021": 0.0,
			"0.022": 0.0,
			"0.023": 0.0,
			"0.024": 0.0,
			"0.025": 0.0
		}
	}
}
