{
	 "smiles": "COC1=C(C)C=C2C(=O)CC2=C1", 
	 "Tm": 361.15, 
	 "num_atms": 22, 
	 "gaussian": { 
		 "optdone": 1, 
		 "sigma_profile": "yes", 
		 "theory": "DFT", 
		 "functional": "B3LYP", 
		 "basiset": "6-31G**", 
		 "properties": { 
			 "R2extent": 2659.3998, 
			 "electric_dipole_moment_norm": 5.15406028486, 
			 "electric_quadrupole_moment_norm": 11.844143479, 
			 "total_energy": -537.494332879, 
			 "HOMO_LUMO_gap": 0.18294, 
			 "cosmo_polarized_energy": -9.72, 
			 "cosmo_cavitation_energy": 25.9, 
			 "cosmo_dispersion_energy": -18.99, 
			 "cosmo_repulsion_energy": 1.53, 
			 "cosmo_total_nonelectrostatic_energy": 8.45, 
			 "SMD_solvation_energy": 5.67 
		},
		"coords": [
			{
				"x": 3.1895831944,
				"y": 1.1171759204,
				"z": 1.0754840327,
				"element": "C" 
			},
			{
				"x": 1.8731956554,
				"y": 1.0302844824,
				"z": 1.6030942211,
				"element": "O" 
			},
			{
				"x": 0.8171244035,
				"y": 1.0459072592,
				"z": 0.7443365705,
				"element": "C" 
			},
			{
				"x": -0.4537186516,
				"y": 0.9530669686,
				"z": 1.3891442797,
				"element": "C" 
			},
			{
				"x": -0.5030395072,
				"y": 0.8511495295,
				"z": 2.8930173016,
				"element": "C" 
			},
			{
				"x": -1.6151434781,
				"y": 0.9586346873,
				"z": 0.6187426015,
				"element": "C" 
			},
			{
				"x": -1.4720957481,
				"y": 1.0564848663,
				"z": -0.7678183367,
				"element": "C" 
			},
			{
				"x": -2.1697589436,
				"y": 1.1165157827,
				"z": -2.0834362181,
				"element": "C" 
			},
			{
				"x": -3.308811144,
				"y": 1.0981690834,
				"z": -2.4804531791,
				"element": "O" 
			},
			{
				"x": -0.7673805085,
				"y": 1.2197110589,
				"z": -2.8036897858,
				"element": "C" 
			},
			{
				"x": -0.220608741,
				"y": 1.1465354535,
				"z": -1.3813779615,
				"element": "C" 
			},
			{
				"x": 0.9590109707,
				"y": 1.1443826509,
				"z": -0.651815435,
				"element": "C" 
			},
			{
				"x": 3.3430547923,
				"y": 2.0564183248,
				"z": 0.5300100186,
				"element": "H" 
			},
			{
				"x": 3.4131491096,
				"y": 0.2733458556,
				"z": 0.4112222209,
				"element": "H" 
			},
			{
				"x": 3.8596750892,
				"y": 1.0862151479,
				"z": 1.9356165438,
				"element": "H" 
			},
			{
				"x": 0.0382361533,
				"y": -0.031448895,
				"z": 3.2507438221,
				"element": "H" 
			},
			{
				"x": -1.5367937286,
				"y": 0.7872157243,
				"z": 3.2414133708,
				"element": "H" 
			},
			{
				"x": -0.030794304,
				"y": 1.7184550222,
				"z": 3.3670410108,
				"element": "H" 
			},
			{
				"x": -2.5870741435,
				"y": 0.8884551446,
				"z": 1.0987309136,
				"element": "H" 
			},
			{
				"x": -0.6018793563,
				"y": 2.1568383282,
				"z": -3.3472218067,
				"element": "H" 
			},
			{
				"x": -0.5318511838,
				"y": 0.3786471239,
				"z": -3.4656265331,
				"element": "H" 
			},
			{
				"x": 1.93392007,
				"y": 1.2138404805,
				"z": -1.1189576519,
				"element": "H" 
			}
		],
		 "valence_orbital": [ 
			{
				"type": "occ",
				"energy": -0.32612,
				"method": "rhf"
			},
			{
				"type": "occ",
				"energy": -0.32408,
				"method": "rhf"
			},
			{
				"type": "occ",
				"energy": -0.25684,
				"method": "rhf"
			},
			{
				"type": "occ",
				"energy": -0.23821,
				"method": "rhf"
			},
			{
				"type": "occ",
				"energy": -0.22688,
				"method": "rhf"
			},
			{
				"type": "unocc",
				"energy": -0.04394,
				"method": "rhf"
			},
			{
				"type": "unocc",
				"energy": -0.00868,
				"method": "rhf"
			},
			{
				"type": "unocc",
				"energy": 0.05695,
				"method": "rhf"
			},
			{
				"type": "unocc",
				"energy": 0.08951,
				"method": "rhf"
			},
			{
				"type": "unocc",
				"energy": 0.09727,
				"method": "rhf"
			}
		],
		"cosmo_sigma_profile": { 
			"-0.025": 0.0,
			"-0.024": 0.0,
			"-0.023": 0.0,
			"-0.022": 0.0,
			"-0.021": 0.0,
			"-0.02": 0.0,
			"-0.019": 0.0,
			"-0.018": 0.0,
			"-0.017": 0.0,
			"-0.016": 0.0,
			"-0.015": 0.0,
			"-0.014": 0.0,
			"-0.013": 0.0,
			"-0.012": 0.0,
			"-0.011": 0.0,
			"-0.01": 0.0,
			"-0.009": 0.0,
			"-0.008": 0.0764849598017,
			"-0.007": 3.26798948905,
			"-0.006": 12.9583652087,
			"-0.005": 17.3900762203,
			"-0.004": 20.6425067783,
			"-0.003": 18.9858846718,
			"-0.002": 17.1715072134,
			"-0.001": 17.765591857,
			"0.0": 18.115355981,
			"0.001": 15.3027064219,
			"0.002": 12.5079236404,
			"0.003": 14.6393678064,
			"0.004": 9.16576477514,
			"0.005": 3.17737281483,
			"0.006": 2.94311542738,
			"0.007": 3.27904885348,
			"0.008": 2.77085950022,
			"0.009": 2.01693771583,
			"0.01": 2.13612830208,
			"0.011": 4.41724883415,
			"0.012": 4.97545826543,
			"0.013": 2.38384688176,
			"0.014": 0.0470594506192,
			"0.015": 0.0,
			"0.016": 0.0,
			"0.017": 0.0,
			"0.018": 0.0,
			"0.019": 0.0,
			"0.02": 0.0,
			"0.021": 0.0,
			"0.022": 0.0,
			"0.023": 0.0,
			"0.024": 0.0,
			"0.025": 0.0
		}
	}
}
