{
	 "smiles": "NC(=O)NCC1CCCCC1", 
	 "Tm": 442.15, 
	 "num_atms": 27, 
	 "gaussian": { 
		 "optdone": 1, 
		 "sigma_profile": "yes", 
		 "theory": "DFT", 
		 "functional": "B3LYP", 
		 "basiset": "6-31G**", 
		 "properties": { 
			 "R2extent": 2933.9796, 
			 "electric_dipole_moment_norm": 3.85638972227, 
			 "electric_quadrupole_moment_norm": 19.2558344218, 
			 "total_energy": -499.257661993, 
			 "HOMO_LUMO_gap": 0.29467, 
			 "cosmo_polarized_energy": -13.83, 
			 "cosmo_cavitation_energy": 27.63, 
			 "cosmo_dispersion_energy": -20.13, 
			 "cosmo_repulsion_energy": 1.65, 
			 "cosmo_total_nonelectrostatic_energy": 9.15, 
			 "SMD_solvation_energy": 4.07 
		},
		"coords": [
			{
				"x": -2.2153069655,
				"y": 0.287921646,
				"z": -3.7813388281,
				"element": "N" 
			},
			{
				"x": -2.2585968049,
				"y": 1.5140192733,
				"z": -3.1268035874,
				"element": "C" 
			},
			{
				"x": -2.2228873062,
				"y": 2.5783123261,
				"z": -3.7313454455,
				"element": "O" 
			},
			{
				"x": -2.3326079787,
				"y": 1.4550482051,
				"z": -1.7475732636,
				"element": "N" 
			},
			{
				"x": -2.0017511172,
				"y": 0.3093726284,
				"z": -0.9092764185,
				"element": "C" 
			},
			{
				"x": -0.510283653,
				"y": -0.0858546079,
				"z": -0.8630692967,
				"element": "C" 
			},
			{
				"x": -0.3557118939,
				"y": -1.4409936202,
				"z": -0.1275822684,
				"element": "C" 
			},
			{
				"x": 1.0547088475,
				"y": -1.6115796343,
				"z": 0.4518866135,
				"element": "C" 
			},
			{
				"x": 1.3429860485,
				"y": -0.5519296764,
				"z": 1.5428564805,
				"element": "C" 
			},
			{
				"x": 0.5708556135,
				"y": 0.7651834256,
				"z": 1.291645167,
				"element": "C" 
			},
			{
				"x": 0.3716250021,
				"y": 1.01205937,
				"z": -0.2101640886,
				"element": "C" 
			},
			{
				"x": -2.6645768683,
				"y": -0.5071930246,
				"z": -3.3496402948,
				"element": "H" 
			},
			{
				"x": -2.3927488565,
				"y": 0.3833258632,
				"z": -4.7710803758,
				"element": "H" 
			},
			{
				"x": -2.2357943869,
				"y": 2.3743732559,
				"z": -1.3411863064,
				"element": "H" 
			},
			{
				"x": -2.3534835635,
				"y": 0.5417839117,
				"z": 0.1031406725,
				"element": "H" 
			},
			{
				"x": -2.5967320729,
				"y": -0.5567620026,
				"z": -1.2292692827,
				"element": "H" 
			},
			{
				"x": -0.1837951165,
				"y": -0.2160476405,
				"z": -1.9017935151,
				"element": "H" 
			},
			{
				"x": -1.0859048788,
				"y": -1.5041393548,
				"z": 0.6930534389,
				"element": "H" 
			},
			{
				"x": -0.5975469315,
				"y": -2.2636296193,
				"z": -0.8110563087,
				"element": "H" 
			},
			{
				"x": 1.1842582864,
				"y": -2.6202953482,
				"z": 0.8595169163,
				"element": "H" 
			},
			{
				"x": 1.7834038651,
				"y": -1.5171298236,
				"z": -0.3635052091,
				"element": "H" 
			},
			{
				"x": 1.073121866,
				"y": -0.9483512873,
				"z": 2.5289761487,
				"element": "H" 
			},
			{
				"x": 2.4203086547,
				"y": -0.3514337591,
				"z": 1.5780183196,
				"element": "H" 
			},
			{
				"x": -0.4103057672,
				"y": 0.7195123081,
				"z": 1.7829887629,
				"element": "H" 
			},
			{
				"x": 1.0975024072,
				"y": 1.6076758407,
				"z": 1.7533288352,
				"element": "H" 
			},
			{
				"x": 1.3528115523,
				"y": 1.032147287,
				"z": -0.7001213987,
				"element": "H" 
			},
			{
				"x": -0.0646479819,
				"y": 2.0018040578,
				"z": -0.389505467,
				"element": "H" 
			}
		],
		 "valence_orbital": [ 
			{
				"type": "occ",
				"energy": -0.30105,
				"method": "rhf"
			},
			{
				"type": "occ",
				"energy": -0.30054,
				"method": "rhf"
			},
			{
				"type": "occ",
				"energy": -0.26545,
				"method": "rhf"
			},
			{
				"type": "occ",
				"energy": -0.24797,
				"method": "rhf"
			},
			{
				"type": "occ",
				"energy": -0.23767,
				"method": "rhf"
			},
			{
				"type": "unocc",
				"energy": 0.057,
				"method": "rhf"
			},
			{
				"type": "unocc",
				"energy": 0.06137,
				"method": "rhf"
			},
			{
				"type": "unocc",
				"energy": 0.08477,
				"method": "rhf"
			},
			{
				"type": "unocc",
				"energy": 0.09022,
				"method": "rhf"
			},
			{
				"type": "unocc",
				"energy": 0.10113,
				"method": "rhf"
			}
		],
		"cosmo_sigma_profile": { 
			"-0.025": 0.0,
			"-0.024": 0.0,
			"-0.023": 0.0,
			"-0.022": 0.0,
			"-0.021": 0.0,
			"-0.02": 0.0,
			"-0.019": 0.0,
			"-0.018": 0.0,
			"-0.017": 0.0,
			"-0.016": 0.0,
			"-0.015": 0.0,
			"-0.014": 0.0823972417989,
			"-0.013": 1.53424262674,
			"-0.012": 3.10971601063,
			"-0.011": 3.60260503955,
			"-0.01": 3.49048839092,
			"-0.009": 3.0720147667,
			"-0.008": 4.003897641,
			"-0.007": 3.54755942071,
			"-0.006": 3.64998816444,
			"-0.005": 4.21210744685,
			"-0.004": 6.29831494969,
			"-0.003": 10.6009747052,
			"-0.002": 25.0581981915,
			"-0.001": 33.0088277558,
			"0.0": 32.8442679995,
			"0.001": 26.3921731246,
			"0.002": 10.3480804576,
			"0.003": 3.67683194062,
			"0.004": 2.8210822259,
			"0.005": 3.05821238118,
			"0.006": 2.72106032017,
			"0.007": 3.26494304914,
			"0.008": 2.69097214174,
			"0.009": 2.09061662976,
			"0.01": 1.24921045947,
			"0.011": 1.73046152399,
			"0.012": 1.75922199118,
			"0.013": 1.1936806494,
			"0.014": 4.26734689439,
			"0.015": 6.37240874582,
			"0.016": 0.765473865988,
			"0.017": 0.0,
			"0.018": 0.0,
			"0.019": 0.0,
			"0.02": 0.0,
			"0.021": 0.0,
			"0.022": 0.0,
			"0.023": 0.0,
			"0.024": 0.0,
			"0.025": 0.0
		}
	}
}
