{
	 "smiles": "CC(C)(C)OC(=O)N1CC(=O)NC2CNCCC12", 
	 "Tm": 418.15, 
	 "num_atms": 39, 
	 "gaussian": { 
		 "optdone": 1, 
		 "sigma_profile": "yes", 
		 "theory": "DFT", 
		 "functional": "B3LYP", 
		 "basiset": "6-31G**", 
		 "properties": { 
			 "R2extent": 5364.6124, 
			 "electric_dipole_moment_norm": 6.02432469659, 
			 "electric_quadrupole_moment_norm": 18.6437850575, 
			 "total_energy": -859.897049741, 
			 "HOMO_LUMO_gap": 0.25943, 
			 "cosmo_polarized_energy": -17.61, 
			 "cosmo_cavitation_energy": 38.67, 
			 "cosmo_dispersion_energy": -26.69, 
			 "cosmo_repulsion_energy": 2.09, 
			 "cosmo_total_nonelectrostatic_energy": 14.06, 
			 "SMD_solvation_energy": 5.09 
		},
		"coords": [
			{
				"x": -2.8358103303,
				"y": 3.4419059045,
				"z": 0.4499511953,
				"element": "C" 
			},
			{
				"x": -1.602427486,
				"y": 2.9636897222,
				"z": 1.2234045915,
				"element": "C" 
			},
			{
				"x": -0.4064206341,
				"y": 3.882213217,
				"z": 0.9586555533,
				"element": "C" 
			},
			{
				"x": -1.869694604,
				"y": 2.8401077757,
				"z": 2.7270691734,
				"element": "C" 
			},
			{
				"x": -1.137429715,
				"y": 1.6741173758,
				"z": 0.6844967906,
				"element": "O" 
			},
			{
				"x": -1.9254467297,
				"y": 0.5734915211,
				"z": 0.7421804098,
				"element": "C" 
			},
			{
				"x": -3.0611770487,
				"y": 0.5367527559,
				"z": 1.1931308281,
				"element": "O" 
			},
			{
				"x": -1.2845146186,
				"y": -0.531389099,
				"z": 0.2279564597,
				"element": "N" 
			},
			{
				"x": -2.0615913211,
				"y": -1.7618226642,
				"z": 0.1271798194,
				"element": "C" 
			},
			{
				"x": -1.2342603191,
				"y": -3.0321619822,
				"z": 0.2542591105,
				"element": "C" 
			},
			{
				"x": -1.7785043221,
				"y": -4.123269886,
				"z": 0.3592587284,
				"element": "O" 
			},
			{
				"x": 0.1227662499,
				"y": -2.8932777182,
				"z": 0.1996384341,
				"element": "N" 
			},
			{
				"x": 0.9001102048,
				"y": -1.660389533,
				"z": 0.1036342703,
				"element": "C" 
			},
			{
				"x": 2.100802557,
				"y": -1.874203437,
				"z": -0.8600522998,
				"element": "C" 
			},
			{
				"x": 2.4116213446,
				"y": -0.6097789363,
				"z": -1.5135626683,
				"element": "N" 
			},
			{
				"x": 1.4030010775,
				"y": -0.2450079042,
				"z": -2.5182967329,
				"element": "C" 
			},
			{
				"x": -0.0170638095,
				"y": -0.4788251066,
				"z": -1.9446823878,
				"element": "C" 
			},
			{
				"x": 0.0307705629,
				"y": -0.4883842134,
				"z": -0.4054756144,
				"element": "C" 
			},
			{
				"x": -2.6204743364,
				"y": 3.4784878912,
				"z": -0.6228500479,
				"element": "H" 
			},
			{
				"x": -3.1038466788,
				"y": 4.4521100049,
				"z": 0.7761510974,
				"element": "H" 
			},
			{
				"x": -3.6841512579,
				"y": 2.7788140511,
				"z": 0.6188383564,
				"element": "H" 
			},
			{
				"x": 0.4851143193,
				"y": 3.5160283661,
				"z": 1.4761798494,
				"element": "H" 
			},
			{
				"x": -0.6234653059,
				"y": 4.8930957591,
				"z": 1.3162251514,
				"element": "H" 
			},
			{
				"x": -0.1875379385,
				"y": 3.9336493138,
				"z": -0.111989522,
				"element": "H" 
			},
			{
				"x": -2.7081677976,
				"y": 2.1712720072,
				"z": 2.9212996498,
				"element": "H" 
			},
			{
				"x": -0.9819743037,
				"y": 2.4567181397,
				"z": 3.2402606737,
				"element": "H" 
			},
			{
				"x": -2.1002363296,
				"y": 3.8273832733,
				"z": 3.1404872145,
				"element": "H" 
			},
			{
				"x": -2.8109166637,
				"y": -1.7657515256,
				"z": 0.9187832965,
				"element": "H" 
			},
			{
				"x": -2.6107051119,
				"y": -1.8255431456,
				"z": -0.8237102744,
				"element": "H" 
			},
			{
				"x": 0.6221152067,
				"y": -3.766718346,
				"z": 0.3173592638,
				"element": "H" 
			},
			{
				"x": 1.2773764824,
				"y": -1.3868951303,
				"z": 1.0984424028,
				"element": "H" 
			},
			{
				"x": 2.9778105966,
				"y": -2.2124765384,
				"z": -0.2987442673,
				"element": "H" 
			},
			{
				"x": 1.8356096516,
				"y": -2.6808240205,
				"z": -1.5695259339,
				"element": "H" 
			},
			{
				"x": 3.3367935893,
				"y": -0.6323710568,
				"z": -1.929041422,
				"element": "H" 
			},
			{
				"x": 1.510380472,
				"y": -0.8153205866,
				"z": -3.4575015851,
				"element": "H" 
			},
			{
				"x": 1.5426379724,
				"y": 0.8135541606,
				"z": -2.765361318,
				"element": "H" 
			},
			{
				"x": -0.699516133,
				"y": 0.3055450288,
				"z": -2.2844834609,
				"element": "H" 
			},
			{
				"x": -0.4202024671,
				"y": -1.431494079,
				"z": -2.3058398756,
				"element": "H" 
			},
			{
				"x": 0.5146249752,
				"y": 0.4266686409,
				"z": -0.0748249097,
				"element": "H" 
			}
		],
		 "valence_orbital": [ 
			{
				"type": "occ",
				"energy": -0.26304,
				"method": "rhf"
			},
			{
				"type": "occ",
				"energy": -0.25909,
				"method": "rhf"
			},
			{
				"type": "occ",
				"energy": -0.24901,
				"method": "rhf"
			},
			{
				"type": "occ",
				"energy": -0.23357,
				"method": "rhf"
			},
			{
				"type": "occ",
				"energy": -0.22886,
				"method": "rhf"
			},
			{
				"type": "unocc",
				"energy": 0.03057,
				"method": "rhf"
			},
			{
				"type": "unocc",
				"energy": 0.05133,
				"method": "rhf"
			},
			{
				"type": "unocc",
				"energy": 0.06305,
				"method": "rhf"
			},
			{
				"type": "unocc",
				"energy": 0.07794,
				"method": "rhf"
			},
			{
				"type": "unocc",
				"energy": 0.08932,
				"method": "rhf"
			}
		],
		"cosmo_sigma_profile": { 
			"-0.025": 0.0,
			"-0.024": 0.0,
			"-0.023": 0.0,
			"-0.022": 0.0,
			"-0.021": 0.0,
			"-0.02": 0.0,
			"-0.019": 0.0,
			"-0.018": 0.0,
			"-0.017": 0.0,
			"-0.016": 0.0,
			"-0.015": 0.0,
			"-0.014": 0.400172793639,
			"-0.013": 1.09139389471,
			"-0.012": 0.986909925479,
			"-0.011": 1.45258834879,
			"-0.01": 2.28177274744,
			"-0.009": 2.57911030575,
			"-0.008": 2.23546466253,
			"-0.007": 2.44992106886,
			"-0.006": 5.6057385996,
			"-0.005": 13.1641040097,
			"-0.004": 25.713664253,
			"-0.003": 36.6517029535,
			"-0.002": 39.9870969924,
			"-0.001": 36.6572166293,
			"0.0": 35.1810424687,
			"0.001": 23.7934544584,
			"0.002": 9.83059684843,
			"0.003": 6.83915277054,
			"0.004": 7.0912912182,
			"0.005": 5.99073702241,
			"0.006": 2.79233930637,
			"0.007": 3.40549127712,
			"0.008": 3.94697899822,
			"0.009": 3.56274440656,
			"0.01": 2.56876418672,
			"0.011": 3.04006781636,
			"0.012": 4.17281487213,
			"0.013": 6.36489099344,
			"0.014": 6.85440520306,
			"0.015": 2.63763351811,
			"0.016": 0.259357423333,
			"0.017": 0.0265732071399,
			"0.018": 0.0,
			"0.019": 0.0,
			"0.02": 0.0,
			"0.021": 0.0,
			"0.022": 0.0,
			"0.023": 0.0,
			"0.024": 0.0,
			"0.025": 0.0
		}
	}
}
