{
	 "smiles": "NC1C2=C(C=CC=C2)C2=C1C=CC=C2", 
	 "Tm": 317.15, 
	 "num_atms": 25, 
	 "gaussian": { 
		 "optdone": 1, 
		 "sigma_profile": "yes", 
		 "theory": "DFT", 
		 "functional": "B3LYP", 
		 "basiset": "6-31G**", 
		 "properties": { 
			 "R2extent": 2898.252, 
			 "electric_dipole_moment_norm": 1.06895209434, 
			 "electric_quadrupole_moment_norm": 8.65467761387, 
			 "total_energy": -556.772969368, 
			 "HOMO_LUMO_gap": 0.18219, 
			 "cosmo_polarized_energy": -8.54, 
			 "cosmo_cavitation_energy": 28.15, 
			 "cosmo_dispersion_energy": -20.59, 
			 "cosmo_repulsion_energy": 1.59, 
			 "cosmo_total_nonelectrostatic_energy": 9.15, 
			 "SMD_solvation_energy": 3.13 
		},
		"coords": [
			{
				"x": 1.7787308401,
				"y": 1.1072515042,
				"z": 2.1319451433,
				"element": "N" 
			},
			{
				"x": 0.4867486516,
				"y": 0.7515776669,
				"z": 1.5327655387,
				"element": "C" 
			},
			{
				"x": 0.6354177454,
				"y": -0.2383011942,
				"z": 0.3870444723,
				"element": "C" 
			},
			{
				"x": -0.0700022803,
				"y": 0.2052758129,
				"z": -0.7484262596,
				"element": "C" 
			},
			{
				"x": -0.0859667868,
				"y": -0.5644554553,
				"z": -1.9131697503,
				"element": "C" 
			},
			{
				"x": 0.6201270011,
				"y": -1.7705250627,
				"z": -1.9318033652,
				"element": "C" 
			},
			{
				"x": 1.3339780266,
				"y": -2.1995316586,
				"z": -0.8072134383,
				"element": "C" 
			},
			{
				"x": 1.3455477283,
				"y": -1.431592376,
				"z": 0.3635789631,
				"element": "C" 
			},
			{
				"x": -0.6765546537,
				"y": 1.5116751036,
				"z": -0.442455559,
				"element": "C" 
			},
			{
				"x": -0.3423240698,
				"y": 1.8606130838,
				"z": 0.8818991801,
				"element": "C" 
			},
			{
				"x": -0.7729002086,
				"y": 3.0651535632,
				"z": 1.4238658533,
				"element": "C" 
			},
			{
				"x": -1.5429974771,
				"y": 3.9299289135,
				"z": 0.6357714892,
				"element": "C" 
			},
			{
				"x": -1.8801072974,
				"y": 3.5810687488,
				"z": -0.676115216,
				"element": "C" 
			},
			{
				"x": -1.4506960794,
				"y": 2.369508496,
				"z": -1.2256801476,
				"element": "C" 
			},
			{
				"x": 2.3382792657,
				"y": 1.6119242903,
				"z": 1.4470671418,
				"element": "H" 
			},
			{
				"x": 1.6335227888,
				"y": 1.7440304232,
				"z": 2.9124326664,
				"element": "H" 
			},
			{
				"x": -0.1091759393,
				"y": 0.2881433005,
				"z": 2.3335562523,
				"element": "H" 
			},
			{
				"x": -0.6299769007,
				"y": -0.2342044134,
				"z": -2.7939450248,
				"element": "H" 
			},
			{
				"x": 0.6193392823,
				"y": -2.3792192559,
				"z": -2.8317365065,
				"element": "H" 
			},
			{
				"x": 1.8842391115,
				"y": -3.1354435376,
				"z": -0.8445342185,
				"element": "H" 
			},
			{
				"x": 1.9051775215,
				"y": -1.7520971175,
				"z": 1.2373627807,
				"element": "H" 
			},
			{
				"x": -0.5161058339,
				"y": 3.340480886,
				"z": 2.4446282337,
				"element": "H" 
			},
			{
				"x": -1.883059592,
				"y": 4.8765591927,
				"z": 1.0459864382,
				"element": "H" 
			},
			{
				"x": -2.4809370063,
				"y": 4.2599019658,
				"z": -1.2747899446,
				"element": "H" 
			},
			{
				"x": -1.7157038375,
				"y": 2.1070771197,
				"z": -2.2463347227,
				"element": "H" 
			}
		],
		 "valence_orbital": [ 
			{
				"type": "occ",
				"energy": -0.27916,
				"method": "rhf"
			},
			{
				"type": "occ",
				"energy": -0.25526,
				"method": "rhf"
			},
			{
				"type": "occ",
				"energy": -0.24383,
				"method": "rhf"
			},
			{
				"type": "occ",
				"energy": -0.23549,
				"method": "rhf"
			},
			{
				"type": "occ",
				"energy": -0.21182,
				"method": "rhf"
			},
			{
				"type": "unocc",
				"energy": -0.02963,
				"method": "rhf"
			},
			{
				"type": "unocc",
				"energy": -0.01317,
				"method": "rhf"
			},
			{
				"type": "unocc",
				"energy": 0.01155,
				"method": "rhf"
			},
			{
				"type": "unocc",
				"energy": 0.04291,
				"method": "rhf"
			},
			{
				"type": "unocc",
				"energy": 0.08744,
				"method": "rhf"
			}
		],
		"cosmo_sigma_profile": { 
			"-0.025": 0.0,
			"-0.024": 0.0,
			"-0.023": 0.0,
			"-0.022": 0.0,
			"-0.021": 0.0,
			"-0.02": 0.0,
			"-0.019": 0.0,
			"-0.018": 0.0,
			"-0.017": 0.0,
			"-0.016": 0.0,
			"-0.015": 0.0,
			"-0.014": 0.0,
			"-0.013": 0.0,
			"-0.012": 0.0,
			"-0.011": 0.0,
			"-0.01": 1.45181093112,
			"-0.009": 2.70082351087,
			"-0.008": 3.186444979,
			"-0.007": 4.18002419292,
			"-0.006": 9.8387829504,
			"-0.005": 20.9469549445,
			"-0.004": 19.8894699609,
			"-0.003": 20.1776647407,
			"-0.002": 14.4074508536,
			"-0.001": 12.0381013928,
			"0.0": 13.8871309427,
			"0.001": 11.7946692625,
			"0.002": 13.6589860041,
			"0.003": 16.3288465904,
			"0.004": 18.5183023706,
			"0.005": 17.6894841628,
			"0.006": 15.1694128804,
			"0.007": 1.81360877169,
			"0.008": 0.804465255098,
			"0.009": 0.431601591612,
			"0.01": 0.977946268048,
			"0.011": 0.913121595727,
			"0.012": 0.484910134906,
			"0.013": 0.716256962234,
			"0.014": 0.535362001038,
			"0.015": 0.28511789038,
			"0.016": 0.857977527142,
			"0.017": 0.543098520674,
			"0.018": 0.204933904184,
			"0.019": 0.0,
			"0.02": 0.0,
			"0.021": 0.0,
			"0.022": 0.0,
			"0.023": 0.0,
			"0.024": 0.0,
			"0.025": 0.0
		}
	}
}
