{
	 "smiles": "BrC1=NOC2=NC=CC=C12", 
	 "Tm": 408.15, 
	 "num_atms": 13, 
	 "gaussian": { 
		 "optdone": 1, 
		 "sigma_profile": "yes", 
		 "theory": "DFT", 
		 "functional": "B3LYP", 
		 "basiset": "6-31G**", 
		 "properties": { 
			 "R2extent": 3092.5242, 
			 "electric_dipole_moment_norm": 4.49738869679, 
			 "electric_quadrupole_moment_norm": 4.11724431993, 
			 "total_energy": -2986.51528118, 
			 "HOMO_LUMO_gap": 0.19933, 
			 "cosmo_polarized_energy": -8.86, 
			 "cosmo_cavitation_energy": 20.48, 
			 "cosmo_dispersion_energy": -15.97, 
			 "cosmo_repulsion_energy": 1.28, 
			 "cosmo_total_nonelectrostatic_energy": 5.79, 
			 "SMD_solvation_energy": 0.64 
		},
		"coords": [
			{
				"x": 2.8550073447,
				"y": 2.1680658786,
				"z": 1.9596698802,
				"element": "Br" 
			},
			{
				"x": 1.4304478139,
				"y": 1.6914269325,
				"z": 0.8320915871,
				"element": "C" 
			},
			{
				"x": 1.1184158092,
				"y": 2.4362301081,
				"z": -0.1930974363,
				"element": "N" 
			},
			{
				"x": 0.0242179734,
				"y": 1.8134604604,
				"z": -0.8237813926,
				"element": "O" 
			},
			{
				"x": -0.2838559411,
				"y": 0.6877717904,
				"z": -0.1304265259,
				"element": "C" 
			},
			{
				"x": -1.2735559046,
				"y": -0.1176365057,
				"z": -0.4788633513,
				"element": "N" 
			},
			{
				"x": -1.4149994205,
				"y": -1.1722138938,
				"z": 0.3323522905,
				"element": "C" 
			},
			{
				"x": -0.6078595869,
				"y": -1.4348772877,
				"z": 1.4591840413,
				"element": "C" 
			},
			{
				"x": 0.423369432,
				"y": -0.5643736115,
				"z": 1.793567375,
				"element": "C" 
			},
			{
				"x": 0.5876549851,
				"y": 0.5438248244,
				"z": 0.958356738,
				"element": "C" 
			},
			{
				"x": -2.2194547193,
				"y": -1.8586404725,
				"z": 0.0782618617,
				"element": "H" 
			},
			{
				"x": -0.8031656442,
				"y": -2.3194475704,
				"z": 2.0554072818,
				"element": "H" 
			},
			{
				"x": 1.0660778582,
				"y": -0.7310906528,
				"z": 2.6519776505,
				"element": "H" 
			}
		],
		 "valence_orbital": [ 
			{
				"type": "occ",
				"energy": -0.31689,
				"method": "rhf"
			},
			{
				"type": "occ",
				"energy": -0.31655,
				"method": "rhf"
			},
			{
				"type": "occ",
				"energy": -0.29007,
				"method": "rhf"
			},
			{
				"type": "occ",
				"energy": -0.2791,
				"method": "rhf"
			},
			{
				"type": "occ",
				"energy": -0.27442,
				"method": "rhf"
			},
			{
				"type": "unocc",
				"energy": -0.07509,
				"method": "rhf"
			},
			{
				"type": "unocc",
				"energy": -0.02313,
				"method": "rhf"
			},
			{
				"type": "unocc",
				"energy": -0.01443,
				"method": "rhf"
			},
			{
				"type": "unocc",
				"energy": 0.01227,
				"method": "rhf"
			},
			{
				"type": "unocc",
				"energy": 0.08184,
				"method": "rhf"
			}
		],
		"cosmo_sigma_profile": { 
			"-0.025": 0.0,
			"-0.024": 0.0,
			"-0.023": 0.0,
			"-0.022": 0.0,
			"-0.021": 0.0,
			"-0.02": 0.0,
			"-0.019": 0.0,
			"-0.018": 0.0,
			"-0.017": 0.0,
			"-0.016": 0.0,
			"-0.015": 0.0,
			"-0.014": 0.0,
			"-0.013": 0.0,
			"-0.012": 0.0,
			"-0.011": 0.0,
			"-0.01": 0.00477436418321,
			"-0.009": 1.33597657905,
			"-0.008": 6.09043004723,
			"-0.007": 8.1248107387,
			"-0.006": 7.76023447726,
			"-0.005": 7.39249281007,
			"-0.004": 10.6177277663,
			"-0.003": 13.8474419987,
			"-0.002": 13.5698527617,
			"-0.001": 14.4316821661,
			"0.0": 15.3904800009,
			"0.001": 13.9053880699,
			"0.002": 14.6853490093,
			"0.003": 8.37977885748,
			"0.004": 3.25131102714,
			"0.005": 5.53670085467,
			"0.006": 7.19696799193,
			"0.007": 4.87354215352,
			"0.008": 3.34743034658,
			"0.009": 2.47355039653,
			"0.01": 2.20728046174,
			"0.011": 1.97689799976,
			"0.012": 2.3283994267,
			"0.013": 0.690610582818,
			"0.014": 0.534650260792,
			"0.015": 0.0,
			"0.016": 0.0,
			"0.017": 0.0,
			"0.018": 0.0,
			"0.019": 0.0,
			"0.02": 0.0,
			"0.021": 0.0,
			"0.022": 0.0,
			"0.023": 0.0,
			"0.024": 0.0,
			"0.025": 0.0
		}
	}
}
