{
	 "smiles": "OC(=O)CCC1CCCCC1", 
	 "Tm": 289.15, 
	 "num_atms": 27, 
	 "gaussian": { 
		 "optdone": 1, 
		 "sigma_profile": "yes", 
		 "theory": "DFT", 
		 "functional": "B3LYP", 
		 "basiset": "6-31G**", 
		 "properties": { 
			 "R2extent": 2878.789, 
			 "electric_dipole_moment_norm": 3.8949555543, 
			 "electric_quadrupole_moment_norm": 17.8581413893, 
			 "total_energy": -503.071491771, 
			 "HOMO_LUMO_gap": 0.27964, 
			 "cosmo_polarized_energy": -13.05, 
			 "cosmo_cavitation_energy": 27.59, 
			 "cosmo_dispersion_energy": -20.02, 
			 "cosmo_repulsion_energy": 1.63, 
			 "cosmo_total_nonelectrostatic_energy": 9.2, 
			 "SMD_solvation_energy": 4.76 
		},
		"coords": [
			{
				"x": 0.3873887269,
				"y": 5.0135191896,
				"z": -0.0086687984,
				"element": "O" 
			},
			{
				"x": 0.903912794,
				"y": 3.7636392935,
				"z": -0.1753805848,
				"element": "C" 
			},
			{
				"x": 2.0302468299,
				"y": 3.529238272,
				"z": 0.1853179041,
				"element": "O" 
			},
			{
				"x": -0.0241949754,
				"y": 2.7630850652,
				"z": -0.8563700447,
				"element": "C" 
			},
			{
				"x": 0.5063787637,
				"y": 1.3244379016,
				"z": -0.839418827,
				"element": "C" 
			},
			{
				"x": 0.5340645449,
				"y": 0.6483754772,
				"z": 0.5455303516,
				"element": "C" 
			},
			{
				"x": -0.8680385165,
				"y": 0.6129548631,
				"z": 1.2087463023,
				"element": "C" 
			},
			{
				"x": -0.9717702989,
				"y": -0.5107314005,
				"z": 2.2495754967,
				"element": "C" 
			},
			{
				"x": -0.8414393108,
				"y": -1.9030521462,
				"z": 1.5871250595,
				"element": "C" 
			},
			{
				"x": 0.0436031896,
				"y": -1.857940564,
				"z": 0.3194719095,
				"element": "C" 
			},
			{
				"x": 1.1331099354,
				"y": -0.7841317805,
				"z": 0.4451735118,
				"element": "C" 
			},
			{
				"x": -0.5198037764,
				"y": 5.0454148184,
				"z": -0.3440779897,
				"element": "H" 
			},
			{
				"x": -1.0183424635,
				"y": 2.8262625229,
				"z": -0.3948746816,
				"element": "H" 
			},
			{
				"x": -0.1525430979,
				"y": 3.1032017418,
				"z": -1.8939539678,
				"element": "H" 
			},
			{
				"x": -0.109152283,
				"y": 0.7242419931,
				"z": -1.5229335769,
				"element": "H" 
			},
			{
				"x": 1.5221282001,
				"y": 1.334232921,
				"z": -1.2490159797,
				"element": "H" 
			},
			{
				"x": 1.1982377909,
				"y": 1.2438172239,
				"z": 1.1820228186,
				"element": "H" 
			},
			{
				"x": -1.0907866211,
				"y": 1.5793204594,
				"z": 1.6762504532,
				"element": "H" 
			},
			{
				"x": -1.6410958639,
				"y": 0.4578338586,
				"z": 0.4410090509,
				"element": "H" 
			},
			{
				"x": -1.9163554479,
				"y": -0.4397200915,
				"z": 2.8005177568,
				"element": "H" 
			},
			{
				"x": -0.1758257008,
				"y": -0.3736399829,
				"z": 2.9928835656,
				"element": "H" 
			},
			{
				"x": -0.4212783019,
				"y": -2.61167266,
				"z": 2.3108156477,
				"element": "H" 
			},
			{
				"x": -1.8346736266,
				"y": -2.2868299112,
				"z": 1.324411182,
				"element": "H" 
			},
			{
				"x": 0.4910517245,
				"y": -2.8408365874,
				"z": 0.1339075815,
				"element": "H" 
			},
			{
				"x": -0.5768501954,
				"y": -1.6392598719,
				"z": -0.5596116633,
				"element": "H" 
			},
			{
				"x": 1.7340373227,
				"y": -0.9942036994,
				"z": 1.338891399,
				"element": "H" 
			},
			{
				"x": 1.8265906574,
				"y": -0.8381569058,
				"z": -0.4024438769,
				"element": "H" 
			}
		],
		 "valence_orbital": [ 
			{
				"type": "occ",
				"energy": -0.31474,
				"method": "rhf"
			},
			{
				"type": "occ",
				"energy": -0.29598,
				"method": "rhf"
			},
			{
				"type": "occ",
				"energy": -0.29377,
				"method": "rhf"
			},
			{
				"type": "occ",
				"energy": -0.29313,
				"method": "rhf"
			},
			{
				"type": "occ",
				"energy": -0.2685,
				"method": "rhf"
			},
			{
				"type": "unocc",
				"energy": 0.01114,
				"method": "rhf"
			},
			{
				"type": "unocc",
				"energy": 0.05383,
				"method": "rhf"
			},
			{
				"type": "unocc",
				"energy": 0.07708,
				"method": "rhf"
			},
			{
				"type": "unocc",
				"energy": 0.09708,
				"method": "rhf"
			},
			{
				"type": "unocc",
				"energy": 0.11184,
				"method": "rhf"
			}
		],
		"cosmo_sigma_profile": { 
			"-0.025": 0.0,
			"-0.024": 0.0,
			"-0.023": 0.0,
			"-0.022": 0.0,
			"-0.021": 0.0,
			"-0.02": 0.0,
			"-0.019": 0.395950500887,
			"-0.018": 0.912533068753,
			"-0.017": 1.34618112504,
			"-0.016": 0.933703612159,
			"-0.015": 0.704140218979,
			"-0.014": 0.772313721129,
			"-0.013": 1.59317421823,
			"-0.012": 1.07835125773,
			"-0.011": 0.647392196479,
			"-0.01": 1.73529570971,
			"-0.009": 1.06019367877,
			"-0.008": 1.37909940154,
			"-0.007": 3.17143650441,
			"-0.006": 3.67578206164,
			"-0.005": 3.63149944651,
			"-0.004": 5.26652160755,
			"-0.003": 8.18022921719,
			"-0.002": 31.5567259381,
			"-0.001": 33.9381765313,
			"0.0": 34.8840461351,
			"0.001": 26.8222387934,
			"0.002": 13.1546532427,
			"0.003": 2.2388858751,
			"0.004": 1.7933458923,
			"0.005": 2.82875917026,
			"0.006": 2.2388674972,
			"0.007": 2.0330377238,
			"0.008": 3.36454741397,
			"0.009": 3.34855275745,
			"0.01": 3.66587870274,
			"0.011": 5.38455808105,
			"0.012": 5.61384916552,
			"0.013": 2.65120974901,
			"0.014": 0.208510113322,
			"0.015": 0.0,
			"0.016": 0.0,
			"0.017": 0.0,
			"0.018": 0.0,
			"0.019": 0.0,
			"0.02": 0.0,
			"0.021": 0.0,
			"0.022": 0.0,
			"0.023": 0.0,
			"0.024": 0.0,
			"0.025": 0.0
		}
	}
}
