{
	 "smiles": "ClC1=CC2=C(C=C(Cl)C=C2Cl)C(Cl)=C1", 
	 "Tm": 453.15, 
	 "num_atms": 18, 
	 "gaussian": { 
		 "optdone": 1, 
		 "sigma_profile": "yes", 
		 "theory": "DFT", 
		 "functional": "B3LYP", 
		 "basiset": "6-31G**", 
		 "properties": { 
			 "R2extent": 5474.1716, 
			 "electric_dipole_moment_norm": 0.0, 
			 "electric_quadrupole_moment_norm": 3.60379518841, 
			 "total_energy": -2224.25329759, 
			 "HOMO_LUMO_gap": 0.16123, 
			 "cosmo_polarized_energy": -3.71, 
			 "cosmo_cavitation_energy": 29.6, 
			 "cosmo_dispersion_energy": -22.42, 
			 "cosmo_repulsion_energy": 1.75, 
			 "cosmo_total_nonelectrostatic_energy": 8.93, 
			 "SMD_solvation_energy": 3.65 
		},
		"coords": [
			{
				"x": 2.6668881807,
				"y": -3.7366006467,
				"z": -0.1748584041,
				"element": "Cl" 
			},
			{
				"x": 2.1274775542,
				"y": -2.098221846,
				"z": -0.4801655835,
				"element": "C" 
			},
			{
				"x": 1.1699636683,
				"y": -1.5290385147,
				"z": 0.3238381337,
				"element": "C" 
			},
			{
				"x": 0.738852902,
				"y": -0.2030251641,
				"z": 0.0703219205,
				"element": "C" 
			},
			{
				"x": 1.3005352282,
				"y": 0.5445337232,
				"z": -1.0235651275,
				"element": "C" 
			},
			{
				"x": 0.8694252212,
				"y": 1.870550964,
				"z": -1.277084255,
				"element": "C" 
			},
			{
				"x": -0.0880871127,
				"y": 2.4397323457,
				"z": -0.4730805819,
				"element": "C" 
			},
			{
				"x": -0.6274980931,
				"y": 4.0781114781,
				"z": -0.7783834353,
				"element": "Cl" 
			},
			{
				"x": -0.6629447946,
				"y": 1.7388583827,
				"z": 0.6095178847,
				"element": "C" 
			},
			{
				"x": -0.2515049647,
				"y": 0.4521106908,
				"z": 0.8636950176,
				"element": "C" 
			},
			{
				"x": -0.9840109618,
				"y": -0.3931666859,
				"z": 2.2156273145,
				"element": "Cl" 
			},
			{
				"x": 2.290891036,
				"y": -0.1105979997,
				"z": -1.8169387676,
				"element": "C" 
			},
			{
				"x": 3.0233992079,
				"y": 0.734674267,
				"z": -3.1688701149,
				"element": "Cl" 
			},
			{
				"x": 2.7023329584,
				"y": -1.3973482739,
				"z": -1.5627616767,
				"element": "C" 
			},
			{
				"x": 0.7439542691,
				"y": -2.0860132131,
				"z": 1.1477337302,
				"element": "H" 
			},
			{
				"x": 1.2954358789,
				"y": 2.4275244013,
				"z": -2.1009794575,
				"element": "H" 
			},
			{
				"x": -1.4161618237,
				"y": 2.2101357064,
				"z": 1.2284059502,
				"element": "H" 
			},
			{
				"x": 3.4555516457,
				"y": -1.8686196153,
				"z": -2.1816525475,
				"element": "H" 
			}
		],
		 "valence_orbital": [ 
			{
				"type": "occ",
				"energy": -0.32685,
				"method": "rhf"
			},
			{
				"type": "occ",
				"energy": -0.30996,
				"method": "rhf"
			},
			{
				"type": "occ",
				"energy": -0.29075,
				"method": "rhf"
			},
			{
				"type": "occ",
				"energy": -0.26959,
				"method": "rhf"
			},
			{
				"type": "occ",
				"energy": -0.238,
				"method": "rhf"
			},
			{
				"type": "unocc",
				"energy": -0.07677,
				"method": "rhf"
			},
			{
				"type": "unocc",
				"energy": -0.04751,
				"method": "rhf"
			},
			{
				"type": "unocc",
				"energy": -0.00417,
				"method": "rhf"
			},
			{
				"type": "unocc",
				"energy": -0.00261,
				"method": "rhf"
			},
			{
				"type": "unocc",
				"energy": -0.00144,
				"method": "rhf"
			}
		],
		"cosmo_sigma_profile": { 
			"-0.025": 0.0,
			"-0.024": 0.0,
			"-0.023": 0.0,
			"-0.022": 0.0,
			"-0.021": 0.0,
			"-0.02": 0.0,
			"-0.019": 0.0,
			"-0.018": 0.0,
			"-0.017": 0.0,
			"-0.016": 0.0,
			"-0.015": 0.0,
			"-0.014": 0.0,
			"-0.013": 0.0,
			"-0.012": 0.0,
			"-0.011": 0.0,
			"-0.01": 0.0,
			"-0.009": 1.66499973038,
			"-0.008": 2.96369823613,
			"-0.007": 4.07429529097,
			"-0.006": 6.50230050168,
			"-0.005": 5.61406640631,
			"-0.004": 7.26151226731,
			"-0.003": 12.4250034751,
			"-0.002": 16.2188713207,
			"-0.001": 34.9163077016,
			"0.0": 50.6203100048,
			"0.001": 30.7534794751,
			"0.002": 20.7414968082,
			"0.003": 28.822907086,
			"0.004": 25.0407691502,
			"0.005": 0.992551115536,
			"0.006": 0.0,
			"0.007": 0.0,
			"0.008": 0.0,
			"0.009": 0.0,
			"0.01": 0.0,
			"0.011": 0.0,
			"0.012": 0.0,
			"0.013": 0.0,
			"0.014": 0.0,
			"0.015": 0.0,
			"0.016": 0.0,
			"0.017": 0.0,
			"0.018": 0.0,
			"0.019": 0.0,
			"0.02": 0.0,
			"0.021": 0.0,
			"0.022": 0.0,
			"0.023": 0.0,
			"0.024": 0.0,
			"0.025": 0.0
		}
	}
}
