{
	 "smiles": "NC1=CC=CC=C1O", 
	 "Tm": 448.15, 
	 "num_atms": 15, 
	 "gaussian": { 
		 "optdone": 1, 
		 "sigma_profile": "yes", 
		 "theory": "DFT", 
		 "functional": "B3LYP", 
		 "basiset": "6-31G**", 
		 "properties": { 
			 "R2extent": 1561.6243, 
			 "electric_dipole_moment_norm": 2.66826336594, 
			 "electric_quadrupole_moment_norm": 10.6832575332, 
			 "total_energy": -362.830139239, 
			 "HOMO_LUMO_gap": 0.21087, 
			 "cosmo_polarized_energy": -8.27, 
			 "cosmo_cavitation_energy": 18.43, 
			 "cosmo_dispersion_energy": -14.17, 
			 "cosmo_repulsion_energy": 1.19, 
			 "cosmo_total_nonelectrostatic_energy": 5.45, 
			 "SMD_solvation_energy": 3.86 
		},
		"coords": [
			{
				"x": 0.5903339898,
				"y": 2.3137716792,
				"z": 1.0163414146,
				"element": "N" 
			},
			{
				"x": -0.0458006088,
				"y": 1.0543596731,
				"z": 1.3285777477,
				"element": "C" 
			},
			{
				"x": -1.1546461013,
				"y": 0.5236887225,
				"z": 0.6688784047,
				"element": "C" 
			},
			{
				"x": -1.686964893,
				"y": -0.7072965501,
				"z": 1.0580987598,
				"element": "C" 
			},
			{
				"x": -1.0997158678,
				"y": -1.4069744755,
				"z": 2.1168518385,
				"element": "C" 
			},
			{
				"x": 0.0084935102,
				"y": -0.8918390672,
				"z": 2.7870489326,
				"element": "C" 
			},
			{
				"x": 0.5385403617,
				"y": 0.3414225273,
				"z": 2.3938067311,
				"element": "C" 
			},
			{
				"x": 1.6145958695,
				"y": 0.8622483818,
				"z": 3.0292925471,
				"element": "O" 
			},
			{
				"x": 0.9331834411,
				"y": 2.3303492212,
				"z": 0.0592346095,
				"element": "H" 
			},
			{
				"x": -0.0558029863,
				"y": 3.0923043738,
				"z": 1.1179115762,
				"element": "H" 
			},
			{
				"x": -1.6000732249,
				"y": 1.0803264795,
				"z": -0.1527694246,
				"element": "H" 
			},
			{
				"x": -2.5498422647,
				"y": -1.115676966,
				"z": 0.5413861891,
				"element": "H" 
			},
			{
				"x": -1.5092073851,
				"y": -2.365135213,
				"z": 2.4245199097,
				"element": "H" 
			},
			{
				"x": 0.4732109216,
				"y": -1.4250621611,
				"z": 3.6098489801,
				"element": "H" 
			},
			{
				"x": 1.774295238,
				"y": 1.7102133744,
				"z": 2.5649717839,
				"element": "H" 
			}
		],
		 "valence_orbital": [ 
			{
				"type": "occ",
				"energy": -0.3319,
				"method": "rhf"
			},
			{
				"type": "occ",
				"energy": -0.3247,
				"method": "rhf"
			},
			{
				"type": "occ",
				"energy": -0.27449,
				"method": "rhf"
			},
			{
				"type": "occ",
				"energy": -0.24466,
				"method": "rhf"
			},
			{
				"type": "occ",
				"energy": -0.21068,
				"method": "rhf"
			},
			{
				"type": "unocc",
				"energy": 0.00019,
				"method": "rhf"
			},
			{
				"type": "unocc",
				"energy": 0.02101,
				"method": "rhf"
			},
			{
				"type": "unocc",
				"energy": 0.07248,
				"method": "rhf"
			},
			{
				"type": "unocc",
				"energy": 0.10203,
				"method": "rhf"
			},
			{
				"type": "unocc",
				"energy": 0.13671,
				"method": "rhf"
			}
		],
		"cosmo_sigma_profile": { 
			"-0.025": 0.0,
			"-0.024": 0.0,
			"-0.023": 0.0,
			"-0.022": 0.0,
			"-0.021": 0.0,
			"-0.02": 0.0,
			"-0.019": 0.0,
			"-0.018": 0.0,
			"-0.017": 0.0,
			"-0.016": 0.0,
			"-0.015": 0.0,
			"-0.014": 0.0,
			"-0.013": 0.0,
			"-0.012": 0.896436509729,
			"-0.011": 2.72751960838,
			"-0.01": 3.28548412338,
			"-0.009": 3.12291169885,
			"-0.008": 2.60353739414,
			"-0.007": 3.40316967607,
			"-0.006": 4.84088301494,
			"-0.005": 11.1249598492,
			"-0.004": 10.8927012657,
			"-0.003": 10.6238065614,
			"-0.002": 8.52844780971,
			"-0.001": 8.32342039073,
			"0.0": 7.5973393728,
			"0.001": 6.66297759758,
			"0.002": 7.31164471623,
			"0.003": 9.21760244196,
			"0.004": 10.5015862041,
			"0.005": 10.4131304151,
			"0.006": 10.2956235052,
			"0.007": 4.1107952192,
			"0.008": 1.98150563133,
			"0.009": 1.63048705219,
			"0.01": 1.89079231185,
			"0.011": 1.55747713661,
			"0.012": 2.14553914353,
			"0.013": 0.435822160003,
			"0.014": 0.0,
			"0.015": 0.0,
			"0.016": 0.0,
			"0.017": 0.0,
			"0.018": 0.0,
			"0.019": 0.0,
			"0.02": 0.0,
			"0.021": 0.0,
			"0.022": 0.0,
			"0.023": 0.0,
			"0.024": 0.0,
			"0.025": 0.0
		}
	}
}
