{
	 "smiles": "ClCC1=CC=C(C=C1)C1=NC=CC=N1", 
	 "Tm": 356.95, 
	 "num_atms": 23, 
	 "gaussian": { 
		 "optdone": 1, 
		 "sigma_profile": "yes", 
		 "theory": "DFT", 
		 "functional": "B3LYP", 
		 "basiset": "6-31G**", 
		 "properties": { 
			 "R2extent": 5528.3374, 
			 "electric_dipole_moment_norm": 3.729846092, 
			 "electric_quadrupole_moment_norm": 14.827892828, 
			 "total_energy": -994.298416454, 
			 "HOMO_LUMO_gap": 0.17793, 
			 "cosmo_polarized_energy": -10.07, 
			 "cosmo_cavitation_energy": 29.39, 
			 "cosmo_dispersion_energy": -21.75, 
			 "cosmo_repulsion_energy": 1.7, 
			 "cosmo_total_nonelectrostatic_energy": 9.35, 
			 "SMD_solvation_energy": 2.62 
		},
		"coords": [
			{
				"x": -1.2443443351,
				"y": -3.2184131727,
				"z": 5.2771824881,
				"element": "Cl" 
			},
			{
				"x": -0.2435378489,
				"y": -1.6849581271,
				"z": 5.0991083917,
				"element": "C" 
			},
			{
				"x": -0.2720509035,
				"y": -1.1442607008,
				"z": 3.7020638271,
				"element": "C" 
			},
			{
				"x": -1.2522990933,
				"y": -0.2204831828,
				"z": 3.314185929,
				"element": "C" 
			},
			{
				"x": -1.2773444206,
				"y": 0.2884818908,
				"z": 2.0201095859,
				"element": "C" 
			},
			{
				"x": -0.317778133,
				"y": -0.1179862032,
				"z": 1.079552656,
				"element": "C" 
			},
			{
				"x": 0.6642547939,
				"y": -1.0442083499,
				"z": 1.4647318578,
				"element": "C" 
			},
			{
				"x": 0.6838709605,
				"y": -1.5494052994,
				"z": 2.7603712305,
				"element": "C" 
			},
			{
				"x": -0.3395475555,
				"y": 0.4258765904,
				"z": -0.3016452899,
				"element": "C" 
			},
			{
				"x": 0.6094185934,
				"y": -0.004934621,
				"z": -1.1540689984,
				"element": "N" 
			},
			{
				"x": 0.5779021383,
				"y": 0.4888340073,
				"z": -2.3928118246,
				"element": "C" 
			},
			{
				"x": -0.38200178,
				"y": 1.4092162244,
				"z": -2.8098088721,
				"element": "C" 
			},
			{
				"x": -1.3179592353,
				"y": 1.7908545869,
				"z": -1.8502589853,
				"element": "C" 
			},
			{
				"x": -1.3072038811,
				"y": 1.3113263792,
				"z": -0.6055804992,
				"element": "N" 
			},
			{
				"x": -0.665511794,
				"y": -0.9832750314,
				"z": 5.8186851119,
				"element": "H" 
			},
			{
				"x": 0.7634127812,
				"y": -1.9633162682,
				"z": 5.4102174132,
				"element": "H" 
			},
			{
				"x": -2.0017793118,
				"y": 0.0991251193,
				"z": 4.0336383953,
				"element": "H" 
			},
			{
				"x": -2.0326492743,
				"y": 1.0051719424,
				"z": 1.7191858006,
				"element": "H" 
			},
			{
				"x": 1.4043624272,
				"y": -1.3539634736,
				"z": 0.7360513292,
				"element": "H" 
			},
			{
				"x": 1.4472022983,
				"y": -2.2681415699,
				"z": 3.0471210644,
				"element": "H" 
			},
			{
				"x": 1.3493569703,
				"y": 0.1341282177,
				"z": -3.0749246779,
				"element": "H" 
			},
			{
				"x": -0.3994112807,
				"y": 1.804449688,
				"z": -3.8191239206,
				"element": "H" 
			},
			{
				"x": -2.104562116,
				"y": 2.5061813536,
				"z": -2.0864820129,
				"element": "H" 
			}
		],
		 "valence_orbital": [ 
			{
				"type": "occ",
				"energy": -0.29104,
				"method": "rhf"
			},
			{
				"type": "occ",
				"energy": -0.29075,
				"method": "rhf"
			},
			{
				"type": "occ",
				"energy": -0.25613,
				"method": "rhf"
			},
			{
				"type": "occ",
				"energy": -0.2531,
				"method": "rhf"
			},
			{
				"type": "occ",
				"energy": -0.24023,
				"method": "rhf"
			},
			{
				"type": "unocc",
				"energy": -0.0623,
				"method": "rhf"
			},
			{
				"type": "unocc",
				"energy": -0.04507,
				"method": "rhf"
			},
			{
				"type": "unocc",
				"energy": -0.00385,
				"method": "rhf"
			},
			{
				"type": "unocc",
				"energy": 0.00086,
				"method": "rhf"
			},
			{
				"type": "unocc",
				"energy": 0.05086,
				"method": "rhf"
			}
		],
		"cosmo_sigma_profile": { 
			"-0.025": 0.0,
			"-0.024": 0.0,
			"-0.023": 0.0,
			"-0.022": 0.0,
			"-0.021": 0.0,
			"-0.02": 0.0,
			"-0.019": 0.0,
			"-0.018": 0.0,
			"-0.017": 0.0,
			"-0.016": 0.0,
			"-0.015": 0.0,
			"-0.014": 0.0,
			"-0.013": 0.0,
			"-0.012": 0.0,
			"-0.011": 0.0,
			"-0.01": 0.0,
			"-0.009": 0.0372878906241,
			"-0.008": 6.03876636134,
			"-0.007": 16.5423224836,
			"-0.006": 14.9949906273,
			"-0.005": 15.1028347141,
			"-0.004": 14.9314915862,
			"-0.003": 10.8215463556,
			"-0.002": 11.9333274206,
			"-0.001": 15.1473264071,
			"0.0": 19.6097201612,
			"0.001": 17.297833927,
			"0.002": 15.4930263388,
			"0.003": 19.0021645918,
			"0.004": 20.8233524931,
			"0.005": 10.0375133145,
			"0.006": 12.1531411683,
			"0.007": 10.5382912563,
			"0.008": 2.12767621065,
			"0.009": 2.29779145267,
			"0.01": 2.43373220641,
			"0.011": 1.2781496568,
			"0.012": 0.0,
			"0.013": 0.0,
			"0.014": 0.0,
			"0.015": 0.0,
			"0.016": 0.0,
			"0.017": 0.0,
			"0.018": 0.0,
			"0.019": 0.0,
			"0.02": 0.0,
			"0.021": 0.0,
			"0.022": 0.0,
			"0.023": 0.0,
			"0.024": 0.0,
			"0.025": 0.0
		}
	}
}
