{
	 "smiles": "N#CC1(CCNCC1)N1CCCC1", 
	 "Tm": 335.15, 
	 "num_atms": 30, 
	 "gaussian": { 
		 "optdone": 1, 
		 "sigma_profile": "yes", 
		 "theory": "DFT", 
		 "functional": "B3LYP", 
		 "basiset": "6-31G**", 
		 "properties": { 
			 "R2extent": 2595.4555, 
			 "electric_dipole_moment_norm": 4.74907017215, 
			 "electric_quadrupole_moment_norm": 8.18788518361, 
			 "total_energy": -555.529892613, 
			 "HOMO_LUMO_gap": 0.24829, 
			 "cosmo_polarized_energy": -11.71, 
			 "cosmo_cavitation_energy": 29.53, 
			 "cosmo_dispersion_energy": -21.37, 
			 "cosmo_repulsion_energy": 1.69, 
			 "cosmo_total_nonelectrostatic_energy": 9.85, 
			 "SMD_solvation_energy": 0.89 
		},
		"coords": [
			{
				"x": 1.3320787423,
				"y": -2.2106889173,
				"z": 1.4293242551,
				"element": "N" 
			},
			{
				"x": 0.8291541454,
				"y": -1.2972927951,
				"z": 0.9186375385,
				"element": "C" 
			},
			{
				"x": 0.1830985044,
				"y": -0.1459449321,
				"z": 0.2336409213,
				"element": "C" 
			},
			{
				"x": -1.3468544277,
				"y": -0.4170899439,
				"z": 0.2070219967,
				"element": "C" 
			},
			{
				"x": -1.7029906878,
				"y": -1.6400536223,
				"z": -0.6593959175,
				"element": "C" 
			},
			{
				"x": -1.1878143271,
				"y": -1.5706043993,
				"z": -2.0279283126,
				"element": "N" 
			},
			{
				"x": 0.2546902912,
				"y": -1.3258989899,
				"z": -2.0538451107,
				"element": "C" 
			},
			{
				"x": 0.7054413985,
				"y": -0.0978635149,
				"z": -1.2365568878,
				"element": "C" 
			},
			{
				"x": 0.4785537355,
				"y": 1.0446922495,
				"z": 1.0409982966,
				"element": "N" 
			},
			{
				"x": 1.8873053913,
				"y": 1.3742507541,
				"z": 1.2869348028,
				"element": "C" 
			},
			{
				"x": 1.775600613,
				"y": 2.6889916968,
				"z": 2.059030425,
				"element": "C" 
			},
			{
				"x": 0.6475123211,
				"y": 3.4223333493,
				"z": 1.3067738443,
				"element": "C" 
			},
			{
				"x": -0.2426772625,
				"y": 2.2921614761,
				"z": 0.7265851027,
				"element": "C" 
			},
			{
				"x": -1.7089204044,
				"y": -0.5372079105,
				"z": 1.2337391471,
				"element": "H" 
			},
			{
				"x": -1.8369556444,
				"y": 0.4680855785,
				"z": -0.2137373161,
				"element": "H" 
			},
			{
				"x": -1.3035217992,
				"y": -2.549947063,
				"z": -0.1941056125,
				"element": "H" 
			},
			{
				"x": -2.7910432691,
				"y": -1.7577801578,
				"z": -0.6980910327,
				"element": "H" 
			},
			{
				"x": -1.6657549259,
				"y": -0.8246664935,
				"z": -2.5303401946,
				"element": "H" 
			},
			{
				"x": 0.5739822107,
				"y": -1.2153317128,
				"z": -3.0957104989,
				"element": "H" 
			},
			{
				"x": 0.7543352316,
				"y": -2.222507196,
				"z": -1.6651660714,
				"element": "H" 
			},
			{
				"x": 0.3073419012,
				"y": 0.8138689056,
				"z": -1.6992689008,
				"element": "H" 
			},
			{
				"x": 1.7976314031,
				"y": -0.0181096925,
				"z": -1.2461723246,
				"element": "H" 
			},
			{
				"x": 2.4710122623,
				"y": 1.5277859044,
				"z": 0.360313392,
				"element": "H" 
			},
			{
				"x": 2.3712051015,
				"y": 0.5755635866,
				"z": 1.8568546786,
				"element": "H" 
			},
			{
				"x": 1.4800806503,
				"y": 2.481499267,
				"z": 3.0922591005,
				"element": "H" 
			},
			{
				"x": 2.7126275604,
				"y": 3.2524316359,
				"z": 2.0773639972,
				"element": "H" 
			},
			{
				"x": 0.0828334656,
				"y": 4.1017765389,
				"z": 1.9507301654,
				"element": "H" 
			},
			{
				"x": 1.0663187083,
				"y": 4.0220180934,
				"z": 0.4921337461,
				"element": "H" 
			},
			{
				"x": -1.2371018289,
				"y": 2.2780218131,
				"z": 1.1864010128,
				"element": "H" 
			},
			{
				"x": -0.3898690606,
				"y": 2.4460064918,
				"z": -0.3549242424,
				"element": "H" 
			}
		],
		 "valence_orbital": [ 
			{
				"type": "occ",
				"energy": -0.33028,
				"method": "rhf"
			},
			{
				"type": "occ",
				"energy": -0.32116,
				"method": "rhf"
			},
			{
				"type": "occ",
				"energy": -0.31276,
				"method": "rhf"
			},
			{
				"type": "occ",
				"energy": -0.22566,
				"method": "rhf"
			},
			{
				"type": "occ",
				"energy": -0.21532,
				"method": "rhf"
			},
			{
				"type": "unocc",
				"energy": 0.03297,
				"method": "rhf"
			},
			{
				"type": "unocc",
				"energy": 0.04173,
				"method": "rhf"
			},
			{
				"type": "unocc",
				"energy": 0.06906,
				"method": "rhf"
			},
			{
				"type": "unocc",
				"energy": 0.08538,
				"method": "rhf"
			},
			{
				"type": "unocc",
				"energy": 0.09807,
				"method": "rhf"
			}
		],
		"cosmo_sigma_profile": { 
			"-0.025": 0.0,
			"-0.024": 0.0,
			"-0.023": 0.0,
			"-0.022": 0.0,
			"-0.021": 0.0,
			"-0.02": 0.0,
			"-0.019": 0.0,
			"-0.018": 0.0,
			"-0.017": 0.0,
			"-0.016": 0.0,
			"-0.015": 0.0,
			"-0.014": 0.0,
			"-0.013": 0.0,
			"-0.012": 0.0,
			"-0.011": 0.0,
			"-0.01": 0.762798202027,
			"-0.009": 1.66793219118,
			"-0.008": 1.56116125042,
			"-0.007": 2.42772327072,
			"-0.006": 2.8706243881,
			"-0.005": 7.39017720974,
			"-0.004": 18.9704160637,
			"-0.003": 33.8523420341,
			"-0.002": 43.3448171585,
			"-0.001": 35.6252251232,
			"0.0": 19.7747045034,
			"0.001": 10.1771454166,
			"0.002": 4.27965015682,
			"0.003": 4.64985442946,
			"0.004": 3.99563907541,
			"0.005": 3.71034089859,
			"0.006": 4.20345358811,
			"0.007": 3.5359253147,
			"0.008": 3.63350726789,
			"0.009": 5.06919675575,
			"0.01": 4.04191945286,
			"0.011": 4.27554249703,
			"0.012": 2.86147326178,
			"0.013": 2.85210376726,
			"0.014": 0.955096729207,
			"0.015": 1.03353310916,
			"0.016": 0.457148447397,
			"0.017": 0.490452710525,
			"0.018": 0.418583860187,
			"0.019": 0.117583670248,
			"0.02": 0.0,
			"0.021": 0.0,
			"0.022": 0.0,
			"0.023": 0.0,
			"0.024": 0.0,
			"0.025": 0.0
		}
	}
}
