{
	 "smiles": "CN1C(CO)=NC2=C1C=CC(Cl)=C2", 
	 "Tm": 453.15, 
	 "num_atms": 22, 
	 "gaussian": { 
		 "optdone": 1, 
		 "sigma_profile": "yes", 
		 "theory": "DFT", 
		 "functional": "B3LYP", 
		 "basiset": "6-31G**", 
		 "properties": { 
			 "R2extent": 4168.9096, 
			 "electric_dipole_moment_norm": 5.82817589388, 
			 "electric_quadrupole_moment_norm": 8.11337483357, 
			 "total_energy": -993.301534655, 
			 "HOMO_LUMO_gap": 0.19533, 
			 "cosmo_polarized_energy": -14.05, 
			 "cosmo_cavitation_energy": 27.53, 
			 "cosmo_dispersion_energy": -20.6, 
			 "cosmo_repulsion_energy": 1.63, 
			 "cosmo_total_nonelectrostatic_energy": 8.57, 
			 "SMD_solvation_energy": 2.5 
		},
		"coords": [
			{
				"x": 2.4066732213,
				"y": -1.1699211669,
				"z": -0.7964717704,
				"element": "C" 
			},
			{
				"x": 1.2688059,
				"y": -0.6522412883,
				"z": -0.0531169431,
				"element": "N" 
			},
			{
				"x": 0.6406962499,
				"y": 0.5718508277,
				"z": -0.191702937,
				"element": "C" 
			},
			{
				"x": 1.0441694826,
				"y": 1.5956656088,
				"z": -1.2073357712,
				"element": "C" 
			},
			{
				"x": 2.4307018231,
				"y": 1.9024983447,
				"z": -1.0559801211,
				"element": "O" 
			},
			{
				"x": -0.3797988909,
				"y": 0.7340709326,
				"z": 0.6210931535,
				"element": "N" 
			},
			{
				"x": -0.4492197341,
				"y": -0.4431588274,
				"z": 1.3448554524,
				"element": "C" 
			},
			{
				"x": 0.5785105031,
				"y": -1.3273396214,
				"z": 0.9386920653,
				"element": "C" 
			},
			{
				"x": 0.7455588978,
				"y": -2.5898822735,
				"z": 1.5116226619,
				"element": "C" 
			},
			{
				"x": -0.1488579067,
				"y": -2.9569467144,
				"z": 2.5132677663,
				"element": "C" 
			},
			{
				"x": -1.1709716104,
				"y": -2.0762031275,
				"z": 2.9168260504,
				"element": "C" 
			},
			{
				"x": -2.2711019267,
				"y": -2.6036352057,
				"z": 4.190873515,
				"element": "Cl" 
			},
			{
				"x": -1.3449804892,
				"y": -0.8186649952,
				"z": 2.3541274044,
				"element": "C" 
			},
			{
				"x": 2.092317326,
				"y": -1.9356500347,
				"z": -1.5146816141,
				"element": "H" 
			},
			{
				"x": 2.8918525722,
				"y": -0.344993688,
				"z": -1.315717266,
				"element": "H" 
			},
			{
				"x": 3.1273218425,
				"y": -1.6134533672,
				"z": -0.1030037039,
				"element": "H" 
			},
			{
				"x": 0.8369236685,
				"y": 1.2148291145,
				"z": -2.2214192034,
				"element": "H" 
			},
			{
				"x": 0.4033509761,
				"y": 2.468285545,
				"z": -1.0366636334,
				"element": "H" 
			},
			{
				"x": 2.6599800169,
				"y": 2.5630256781,
				"z": -1.7221214254,
				"element": "H" 
			},
			{
				"x": 1.531351868,
				"y": -3.2694727338,
				"z": 1.1975494658,
				"element": "H" 
			},
			{
				"x": -0.066526574,
				"y": -3.9266886742,
				"z": 2.9905671268,
				"element": "H" 
			},
			{
				"x": -2.136257216,
				"y": -0.1527743332,
				"z": 2.6772397272,
				"element": "H" 
			}
		],
		 "valence_orbital": [ 
			{
				"type": "occ",
				"energy": -0.29562,
				"method": "rhf"
			},
			{
				"type": "occ",
				"energy": -0.29142,
				"method": "rhf"
			},
			{
				"type": "occ",
				"energy": -0.27327,
				"method": "rhf"
			},
			{
				"type": "occ",
				"energy": -0.22892,
				"method": "rhf"
			},
			{
				"type": "occ",
				"energy": -0.22136,
				"method": "rhf"
			},
			{
				"type": "unocc",
				"energy": -0.02603,
				"method": "rhf"
			},
			{
				"type": "unocc",
				"energy": 0.01262,
				"method": "rhf"
			},
			{
				"type": "unocc",
				"energy": 0.03678,
				"method": "rhf"
			},
			{
				"type": "unocc",
				"energy": 0.03934,
				"method": "rhf"
			},
			{
				"type": "unocc",
				"energy": 0.07376,
				"method": "rhf"
			}
		],
		"cosmo_sigma_profile": { 
			"-0.025": 0.0,
			"-0.024": 0.0,
			"-0.023": 0.0,
			"-0.022": 0.0,
			"-0.021": 0.0,
			"-0.02": 0.0,
			"-0.019": 0.0,
			"-0.018": 0.0,
			"-0.017": 0.357900787074,
			"-0.016": 1.2459006845,
			"-0.015": 1.00954105442,
			"-0.014": 0.655988380443,
			"-0.013": 1.67182103352,
			"-0.012": 0.482125628312,
			"-0.011": 0.682288538761,
			"-0.01": 1.34009470681,
			"-0.009": 0.753204581207,
			"-0.008": 0.925360285877,
			"-0.007": 6.82265596434,
			"-0.006": 16.3047012248,
			"-0.005": 17.4158177442,
			"-0.004": 17.9540106825,
			"-0.003": 15.7890792348,
			"-0.002": 9.50853347583,
			"-0.001": 9.5139128097,
			"0.0": 10.7119071609,
			"0.001": 12.7821729895,
			"0.002": 15.6788690081,
			"0.003": 22.0837564849,
			"0.004": 20.4723794271,
			"0.005": 14.5939586016,
			"0.006": 4.47420497644,
			"0.007": 2.2122805498,
			"0.008": 2.84971279159,
			"0.009": 1.9478231061,
			"0.01": 2.70574196478,
			"0.011": 1.99168475334,
			"0.012": 1.81615234371,
			"0.013": 1.72729059056,
			"0.014": 0.731734120094,
			"0.015": 1.2460138684,
			"0.016": 0.637324802773,
			"0.017": 0.657052105657,
			"0.018": 0.0267134557346,
			"0.019": 0.0,
			"0.02": 0.0,
			"0.021": 0.0,
			"0.022": 0.0,
			"0.023": 0.0,
			"0.024": 0.0,
			"0.025": 0.0
		}
	}
}
