{
	 "smiles": "[O-][N+](=O)C1=CC(=CC=C1)C1=CN=C(CCCl)O1", 
	 "Tm": 347.15, 
	 "num_atms": 26, 
	 "gaussian": { 
		 "optdone": 1, 
		 "sigma_profile": "yes", 
		 "theory": "DFT", 
		 "functional": "B3LYP", 
		 "basiset": "6-31G**", 
		 "properties": { 
			 "R2extent": 6089.227, 
			 "electric_dipole_moment_norm": 3.21349714174, 
			 "electric_quadrupole_moment_norm": 30.6480706071, 
			 "total_energy": -1219.86133764, 
			 "HOMO_LUMO_gap": 0.14253, 
			 "cosmo_polarized_energy": -14.95, 
			 "cosmo_cavitation_energy": 33.91, 
			 "cosmo_dispersion_energy": -24.09, 
			 "cosmo_repulsion_energy": 1.88, 
			 "cosmo_total_nonelectrostatic_energy": 11.7, 
			 "SMD_solvation_energy": 6.03 
		},
		"coords": [
			{
				"x": -0.7445176232,
				"y": 0.1125949653,
				"z": 4.5859797935,
				"element": "O" 
			},
			{
				"x": -0.7255319609,
				"y": 0.5445271855,
				"z": 3.4345192725,
				"element": "N" 
			},
			{
				"x": -1.2854739325,
				"y": 1.5742949263,
				"z": 3.0616838075,
				"element": "O" 
			},
			{
				"x": 0.0252403387,
				"y": -0.229965319,
				"z": 2.4281449554,
				"element": "C" 
			},
			{
				"x": 0.0574459196,
				"y": 0.2389789744,
				"z": 1.1198292438,
				"element": "C" 
			},
			{
				"x": 0.76927792,
				"y": -0.4867820223,
				"z": 0.1532312622,
				"element": "C" 
			},
			{
				"x": 1.4278464066,
				"y": -1.6694877285,
				"z": 0.5420927813,
				"element": "C" 
			},
			{
				"x": 1.3781320412,
				"y": -2.1148714223,
				"z": 1.8604159999,
				"element": "C" 
			},
			{
				"x": 0.6723439608,
				"y": -1.3971969354,
				"z": 2.8260962868,
				"element": "C" 
			},
			{
				"x": 0.8282076325,
				"y": -0.0263448039,
				"z": -1.2253746438,
				"element": "C" 
			},
			{
				"x": 1.4320881326,
				"y": -0.463565888,
				"z": -2.3704530948,
				"element": "C" 
			},
			{
				"x": 1.1321403497,
				"y": 0.3910624546,
				"z": -3.4166821103,
				"element": "N" 
			},
			{
				"x": 0.3730959604,
				"y": 1.3032383365,
				"z": -2.8886968025,
				"element": "C" 
			},
			{
				"x": -0.2342341962,
				"y": 2.4988230096,
				"z": -3.541676872,
				"element": "C" 
			},
			{
				"x": -1.7377737823,
				"y": 2.6506560804,
				"z": -3.3105939336,
				"element": "C" 
			},
			{
				"x": -2.6861173911,
				"y": 1.29868343,
				"z": -4.058783178,
				"element": "Cl" 
			},
			{
				"x": 0.143651195,
				"y": 1.1229954007,
				"z": -1.5574748878,
				"element": "O" 
			},
			{
				"x": -0.4639520456,
				"y": 1.1521974384,
				"z": 0.8672028525,
				"element": "H" 
			},
			{
				"x": 1.9804994096,
				"y": -2.2439169997,
				"z": -0.1946320527,
				"element": "H" 
			},
			{
				"x": 1.8921133632,
				"y": -3.0291557852,
				"z": 2.1390430006,
				"element": "H" 
			},
			{
				"x": 0.6150323947,
				"y": -1.718099337,
				"z": 3.8581152615,
				"element": "H" 
			},
			{
				"x": 2.0580295394,
				"y": -1.3317573678,
				"z": -2.5159792654,
				"element": "H" 
			},
			{
				"x": 0.2439302655,
				"y": 3.40912302,
				"z": -3.1516320103,
				"element": "H" 
			},
			{
				"x": -0.0085589615,
				"y": 2.439384647,
				"z": -4.6083131922,
				"element": "H" 
			},
			{
				"x": -1.9803208437,
				"y": 2.6490515893,
				"z": -2.2475184045,
				"element": "H" 
			},
			{
				"x": -2.1018940924,
				"y": 3.5742321511,
				"z": -3.7616440694,
				"element": "H" 
			}
		],
		 "valence_orbital": [ 
			{
				"type": "occ",
				"energy": -0.30232,
				"method": "rhf"
			},
			{
				"type": "occ",
				"energy": -0.29958,
				"method": "rhf"
			},
			{
				"type": "occ",
				"energy": -0.2951,
				"method": "rhf"
			},
			{
				"type": "occ",
				"energy": -0.28846,
				"method": "rhf"
			},
			{
				"type": "occ",
				"energy": -0.23652,
				"method": "rhf"
			},
			{
				"type": "unocc",
				"energy": -0.09399,
				"method": "rhf"
			},
			{
				"type": "unocc",
				"energy": -0.05934,
				"method": "rhf"
			},
			{
				"type": "unocc",
				"energy": -0.01228,
				"method": "rhf"
			},
			{
				"type": "unocc",
				"energy": 0.00694,
				"method": "rhf"
			},
			{
				"type": "unocc",
				"energy": 0.02139,
				"method": "rhf"
			}
		],
		"cosmo_sigma_profile": { 
			"-0.025": 0.0,
			"-0.024": 0.0,
			"-0.023": 0.0,
			"-0.022": 0.0,
			"-0.021": 0.0,
			"-0.02": 0.0,
			"-0.019": 0.0,
			"-0.018": 0.0,
			"-0.017": 0.0,
			"-0.016": 0.0,
			"-0.015": 0.0,
			"-0.014": 0.0,
			"-0.013": 0.0,
			"-0.012": 0.0,
			"-0.011": 0.0,
			"-0.01": 0.195216633508,
			"-0.009": 2.67633196569,
			"-0.008": 10.0062479879,
			"-0.007": 17.8395224116,
			"-0.006": 17.9143577436,
			"-0.005": 15.3899920968,
			"-0.004": 14.8090144866,
			"-0.003": 14.1811124165,
			"-0.002": 13.7187174551,
			"-0.001": 22.661720693,
			"0.0": 25.4450688834,
			"0.001": 24.6749251356,
			"0.002": 16.747535919,
			"0.003": 9.35271221712,
			"0.004": 8.67783292182,
			"0.005": 11.3769283135,
			"0.006": 14.8508785338,
			"0.007": 11.48649338,
			"0.008": 8.79262776242,
			"0.009": 5.07937509919,
			"0.01": 3.1017827542,
			"0.011": 1.41101129056,
			"0.012": 0.66970281678,
			"0.013": 0.891527956612,
			"0.014": 1.3219303051,
			"0.015": 0.727569394132,
			"0.016": 0.371427301514,
			"0.017": 0.0,
			"0.018": 0.0,
			"0.019": 0.0,
			"0.02": 0.0,
			"0.021": 0.0,
			"0.022": 0.0,
			"0.023": 0.0,
			"0.024": 0.0,
			"0.025": 0.0
		}
	}
}
