{
	 "smiles": "CN(N)C(=O)C1=C(N)C=CC(Cl)=C1", 
	 "Tm": 352.65, 
	 "num_atms": 23, 
	 "gaussian": { 
		 "optdone": 1, 
		 "sigma_profile": "yes", 
		 "theory": "DFT", 
		 "functional": "B3LYP", 
		 "basiset": "6-31G**", 
		 "properties": { 
			 "R2extent": 3533.1641, 
			 "electric_dipole_moment_norm": 4.42199207711, 
			 "electric_quadrupole_moment_norm": 5.70477850227, 
			 "total_energy": -1010.5297129, 
			 "HOMO_LUMO_gap": 0.17427, 
			 "cosmo_polarized_energy": -14.43, 
			 "cosmo_cavitation_energy": 28.16, 
			 "cosmo_dispersion_energy": -20.67, 
			 "cosmo_repulsion_energy": 1.66, 
			 "cosmo_total_nonelectrostatic_energy": 9.15, 
			 "SMD_solvation_energy": 5.8 
		},
		"coords": [
			{
				"x": 1.6601001405,
				"y": -2.6882026375,
				"z": -1.1524659735,
				"element": "C" 
			},
			{
				"x": 2.401595559,
				"y": -1.4290161625,
				"z": -1.298156711,
				"element": "N" 
			},
			{
				"x": 3.7045896603,
				"y": -1.6564469344,
				"z": -1.8365637587,
				"element": "N" 
			},
			{
				"x": 2.3185140971,
				"y": -0.4145123257,
				"z": -0.3433065163,
				"element": "C" 
			},
			{
				"x": 3.3141883577,
				"y": 0.2401188015,
				"z": -0.0438247001,
				"element": "O" 
			},
			{
				"x": 0.9842418522,
				"y": -0.1145272047,
				"z": 0.2722588977,
				"element": "C" 
			},
			{
				"x": -0.2341774529,
				"y": -0.0521135368,
				"z": -0.4500117896,
				"element": "C" 
			},
			{
				"x": -0.3305996746,
				"y": -0.4101464486,
				"z": -1.7880811349,
				"element": "N" 
			},
			{
				"x": -1.3943465645,
				"y": 0.3602900426,
				"z": 0.2362022292,
				"element": "C" 
			},
			{
				"x": -1.3628359192,
				"y": 0.6989311623,
				"z": 1.5809730844,
				"element": "C" 
			},
			{
				"x": -0.1515486166,
				"y": 0.6465297156,
				"z": 2.2758204531,
				"element": "C" 
			},
			{
				"x": -0.1027680653,
				"y": 1.0854598991,
				"z": 3.9788260485,
				"element": "Cl" 
			},
			{
				"x": 1.0099168941,
				"y": 0.263197686,
				"z": 1.624133199,
				"element": "C" 
			},
			{
				"x": 1.4839686495,
				"y": -3.120507975,
				"z": -2.1395367692,
				"element": "H" 
			},
			{
				"x": 0.702172012,
				"y": -2.5094178673,
				"z": -0.667720035,
				"element": "H" 
			},
			{
				"x": 2.2441943145,
				"y": -3.4018402374,
				"z": -0.5600801428,
				"element": "H" 
			},
			{
				"x": 3.8186473628,
				"y": -1.0110463523,
				"z": -2.6174861902,
				"element": "H" 
			},
			{
				"x": 4.3629220118,
				"y": -1.3265358753,
				"z": -1.1265211183,
				"element": "H" 
			},
			{
				"x": -1.0890054782,
				"y": 0.0150801917,
				"z": -2.301355877,
				"element": "H" 
			},
			{
				"x": 0.5398307306,
				"y": -0.4573494726,
				"z": -2.3002234337,
				"element": "H" 
			},
			{
				"x": -2.3351782385,
				"y": 0.4099951832,
				"z": -0.3057354169,
				"element": "H" 
			},
			{
				"x": -2.2696689643,
				"y": 1.0082470928,
				"z": 2.0892564763,
				"element": "H" 
			},
			{
				"x": 1.9612473321,
				"y": 0.2589132553,
				"z": 2.143099179,
				"element": "H" 
			}
		],
		 "valence_orbital": [ 
			{
				"type": "occ",
				"energy": -0.28489,
				"method": "rhf"
			},
			{
				"type": "occ",
				"energy": -0.27473,
				"method": "rhf"
			},
			{
				"type": "occ",
				"energy": -0.25804,
				"method": "rhf"
			},
			{
				"type": "occ",
				"energy": -0.24977,
				"method": "rhf"
			},
			{
				"type": "occ",
				"energy": -0.21359,
				"method": "rhf"
			},
			{
				"type": "unocc",
				"energy": -0.03932,
				"method": "rhf"
			},
			{
				"type": "unocc",
				"energy": -0.00368,
				"method": "rhf"
			},
			{
				"type": "unocc",
				"energy": 0.02954,
				"method": "rhf"
			},
			{
				"type": "unocc",
				"energy": 0.0384,
				"method": "rhf"
			},
			{
				"type": "unocc",
				"energy": 0.06997,
				"method": "rhf"
			}
		],
		"cosmo_sigma_profile": { 
			"-0.025": 0.0,
			"-0.024": 0.0,
			"-0.023": 0.0,
			"-0.022": 0.0,
			"-0.021": 0.0,
			"-0.02": 0.0,
			"-0.019": 0.0,
			"-0.018": 0.0,
			"-0.017": 0.0,
			"-0.016": 0.0,
			"-0.015": 0.0,
			"-0.014": 0.116156703256,
			"-0.013": 1.4765988701,
			"-0.012": 1.665479362,
			"-0.011": 3.47757215614,
			"-0.01": 4.03864077419,
			"-0.009": 4.91082181626,
			"-0.008": 5.0456707278,
			"-0.007": 7.0913087471,
			"-0.006": 8.4071769207,
			"-0.005": 12.6053356471,
			"-0.004": 15.047682631,
			"-0.003": 14.3711124392,
			"-0.002": 16.6794690696,
			"-0.001": 12.9278864398,
			"0.0": 12.1333155493,
			"0.001": 11.9268110146,
			"0.002": 15.8221232824,
			"0.003": 19.4410001517,
			"0.004": 17.4155407762,
			"0.005": 13.3430965311,
			"0.006": 3.67512788179,
			"0.007": 2.18550150406,
			"0.008": 3.64560927023,
			"0.009": 2.32687118392,
			"0.01": 2.74332789386,
			"0.011": 3.15362862748,
			"0.012": 3.61873172186,
			"0.013": 3.65475788434,
			"0.014": 1.24221941911,
			"0.015": 0.567262101719,
			"0.016": 0.59693180025,
			"0.017": 0.0880001749442,
			"0.018": 0.0,
			"0.019": 0.0,
			"0.02": 0.0,
			"0.021": 0.0,
			"0.022": 0.0,
			"0.023": 0.0,
			"0.024": 0.0,
			"0.025": 0.0
		}
	}
}
