{
	 "smiles": "NC1=CC(=CC=C1)N1C=CN=N1", 
	 "Tm": 392.15, 
	 "num_atms": 20, 
	 "gaussian": { 
		 "optdone": 1, 
		 "sigma_profile": "yes", 
		 "theory": "DFT", 
		 "functional": "B3LYP", 
		 "basiset": "6-31G**", 
		 "properties": { 
			 "R2extent": 2361.202, 
			 "electric_dipole_moment_norm": 5.5610989966, 
			 "electric_quadrupole_moment_norm": 10.4432345325, 
			 "total_energy": -528.635340642, 
			 "HOMO_LUMO_gap": 0.18329, 
			 "cosmo_polarized_energy": -16.57, 
			 "cosmo_cavitation_energy": 24.54, 
			 "cosmo_dispersion_energy": -18.28, 
			 "cosmo_repulsion_energy": 1.43, 
			 "cosmo_total_nonelectrostatic_energy": 7.7, 
			 "SMD_solvation_energy": 3.36 
		},
		"coords": [
			{
				"x": -2.8566363091,
				"y": 1.8018997256,
				"z": 2.0473972224,
				"element": "N" 
			},
			{
				"x": -2.1985056905,
				"y": 0.928155932,
				"z": 1.1837306312,
				"element": "C" 
			},
			{
				"x": -0.8133468768,
				"y": 0.72663612,
				"z": 1.2953454543,
				"element": "C" 
			},
			{
				"x": -0.1737861923,
				"y": -0.1958455344,
				"z": 0.4660448667,
				"element": "C" 
			},
			{
				"x": -0.8776579046,
				"y": -0.9198143979,
				"z": -0.4992171361,
				"element": "C" 
			},
			{
				"x": -2.2501674797,
				"y": -0.702109751,
				"z": -0.6126040067,
				"element": "C" 
			},
			{
				"x": -2.9121869773,
				"y": 0.2004198191,
				"z": 0.2150348926,
				"element": "C" 
			},
			{
				"x": 1.228031544,
				"y": -0.4031882392,
				"z": 0.6041437038,
				"element": "N" 
			},
			{
				"x": 2.0098841649,
				"y": -0.2851643187,
				"z": 1.7139139238,
				"element": "C" 
			},
			{
				"x": 3.2719645557,
				"y": -0.6080362932,
				"z": 1.2762432599,
				"element": "C" 
			},
			{
				"x": 3.2121205443,
				"y": -0.9047981004,
				"z": -0.0546913696,
				"element": "N" 
			},
			{
				"x": 1.9827597002,
				"y": -0.7822710221,
				"z": -0.4642006528,
				"element": "N" 
			},
			{
				"x": -2.2830176079,
				"y": 2.5270702743,
				"z": 2.4551301542,
				"element": "H" 
			},
			{
				"x": -3.7374333544,
				"y": 2.1621738387,
				"z": 1.7076563405,
				"element": "H" 
			},
			{
				"x": -0.2406654049,
				"y": 1.3060379656,
				"z": 2.013054207,
				"element": "H" 
			},
			{
				"x": -0.3534833014,
				"y": -1.6233852656,
				"z": -1.1326991322,
				"element": "H" 
			},
			{
				"x": -2.8160658229,
				"y": -1.253207291,
				"z": -1.3578632116,
				"element": "H" 
			},
			{
				"x": -3.9843712394,
				"y": 0.3481047206,
				"z": 0.1170070783,
				"element": "H" 
			},
			{
				"x": 1.6144361204,
				"y": -0.0269402391,
				"z": 2.6824939819,
				"element": "H" 
			},
			{
				"x": 4.1991275316,
				"y": -0.6504379433,
				"z": 1.8278797926,
				"element": "H" 
			}
		],
		 "valence_orbital": [ 
			{
				"type": "occ",
				"energy": -0.2994,
				"method": "rhf"
			},
			{
				"type": "occ",
				"energy": -0.26388,
				"method": "rhf"
			},
			{
				"type": "occ",
				"energy": -0.26078,
				"method": "rhf"
			},
			{
				"type": "occ",
				"energy": -0.24456,
				"method": "rhf"
			},
			{
				"type": "occ",
				"energy": -0.21455,
				"method": "rhf"
			},
			{
				"type": "unocc",
				"energy": -0.03126,
				"method": "rhf"
			},
			{
				"type": "unocc",
				"energy": -0.00031,
				"method": "rhf"
			},
			{
				"type": "unocc",
				"energy": 0.02917,
				"method": "rhf"
			},
			{
				"type": "unocc",
				"energy": 0.05307,
				"method": "rhf"
			},
			{
				"type": "unocc",
				"energy": 0.06954,
				"method": "rhf"
			}
		],
		"cosmo_sigma_profile": { 
			"-0.025": 0.0,
			"-0.024": 0.0,
			"-0.023": 0.0,
			"-0.022": 0.0,
			"-0.021": 0.0,
			"-0.02": 0.0,
			"-0.019": 0.0,
			"-0.018": 0.0,
			"-0.017": 0.0,
			"-0.016": 0.0,
			"-0.015": 0.0,
			"-0.014": 0.0,
			"-0.013": 1.00208666988,
			"-0.012": 3.3830568349,
			"-0.011": 2.74761950534,
			"-0.01": 5.57879982211,
			"-0.009": 6.20423665371,
			"-0.008": 8.37150144518,
			"-0.007": 6.86078489146,
			"-0.006": 8.90035141544,
			"-0.005": 10.577071928,
			"-0.004": 9.77653648774,
			"-0.003": 10.55488084,
			"-0.002": 7.80795602017,
			"-0.001": 9.73346600877,
			"0.0": 13.0554220711,
			"0.001": 9.44148989748,
			"0.002": 12.3992959673,
			"0.003": 11.552949341,
			"0.004": 13.2970754096,
			"0.005": 12.6259191067,
			"0.006": 5.45805168071,
			"0.007": 3.77722136057,
			"0.008": 3.07451085392,
			"0.009": 2.7486426492,
			"0.01": 3.35298448959,
			"0.011": 4.84419497728,
			"0.012": 3.85631585895,
			"0.013": 2.52872795093,
			"0.014": 1.62538450795,
			"0.015": 1.12738081053,
			"0.016": 0.599331921363,
			"0.017": 0.0,
			"0.018": 0.0,
			"0.019": 0.0,
			"0.02": 0.0,
			"0.021": 0.0,
			"0.022": 0.0,
			"0.023": 0.0,
			"0.024": 0.0,
			"0.025": 0.0
		}
	}
}
