{
	 "smiles": "NNC1=C(F)C(F)=CC(F)=C1F", 
	 "Tm": 363.65, 
	 "num_atms": 16, 
	 "gaussian": { 
		 "optdone": 1, 
		 "sigma_profile": "yes", 
		 "theory": "DFT", 
		 "functional": "B3LYP", 
		 "basiset": "6-31G**", 
		 "properties": { 
			 "R2extent": 2115.5062, 
			 "electric_dipole_moment_norm": 0.896063217636, 
			 "electric_quadrupole_moment_norm": 3.88205908507, 
			 "total_energy": -739.828435502, 
			 "HOMO_LUMO_gap": 0.21059, 
			 "cosmo_polarized_energy": -7.18, 
			 "cosmo_cavitation_energy": 22.45, 
			 "cosmo_dispersion_energy": -16.2, 
			 "cosmo_repulsion_energy": 1.21, 
			 "cosmo_total_nonelectrostatic_energy": 7.47, 
			 "SMD_solvation_energy": 6.02 
		},
		"coords": [
			{
				"x": -3.6680087701,
				"y": 0.5027772477,
				"z": 0.610048777,
				"element": "N" 
			},
			{
				"x": -2.7890222554,
				"y": 0.5993631192,
				"z": -0.5000531397,
				"element": "N" 
			},
			{
				"x": -1.4179741164,
				"y": 0.4160807212,
				"z": -0.3506722879,
				"element": "C" 
			},
			{
				"x": -0.8522948911,
				"y": -0.567153609,
				"z": 0.4767011448,
				"element": "C" 
			},
			{
				"x": -1.6474622382,
				"y": -1.3879860098,
				"z": 1.1986304845,
				"element": "F" 
			},
			{
				"x": 0.5276419789,
				"y": -0.7317005428,
				"z": 0.5533749888,
				"element": "C" 
			},
			{
				"x": 1.0099169965,
				"y": -1.6861119278,
				"z": 1.3652723801,
				"element": "F" 
			},
			{
				"x": 1.3999681149,
				"y": 0.0479899541,
				"z": -0.1956237617,
				"element": "C" 
			},
			{
				"x": 0.8486890337,
				"y": 1.0148195756,
				"z": -1.0299686157,
				"element": "C" 
			},
			{
				"x": 1.6462297925,
				"y": 1.8009007467,
				"z": -1.7700055589,
				"element": "F" 
			},
			{
				"x": -0.5246755098,
				"y": 1.1999257147,
				"z": -1.1007992944,
				"element": "C" 
			},
			{
				"x": -1.0385676721,
				"y": 2.1583594174,
				"z": -1.9037409922,
				"element": "F" 
			},
			{
				"x": -3.2259411334,
				"y": 0.888816639,
				"z": 1.4455175632,
				"element": "H" 
			},
			{
				"x": -3.8345777676,
				"y": -0.4823614758,
				"z": 0.7908740343,
				"element": "H" 
			},
			{
				"x": -3.0178261871,
				"y": 1.4013233611,
				"z": -1.0718057156,
				"element": "H" 
			},
			{
				"x": 2.4710046247,
				"y": -0.0947429314,
				"z": -0.1343500066,
				"element": "H" 
			}
		],
		 "valence_orbital": [ 
			{
				"type": "occ",
				"energy": -0.36711,
				"method": "rhf"
			},
			{
				"type": "occ",
				"energy": -0.31576,
				"method": "rhf"
			},
			{
				"type": "occ",
				"energy": -0.27634,
				"method": "rhf"
			},
			{
				"type": "occ",
				"energy": -0.24797,
				"method": "rhf"
			},
			{
				"type": "occ",
				"energy": -0.22764,
				"method": "rhf"
			},
			{
				"type": "unocc",
				"energy": -0.01705,
				"method": "rhf"
			},
			{
				"type": "unocc",
				"energy": -0.00619,
				"method": "rhf"
			},
			{
				"type": "unocc",
				"energy": 0.03267,
				"method": "rhf"
			},
			{
				"type": "unocc",
				"energy": 0.08021,
				"method": "rhf"
			},
			{
				"type": "unocc",
				"energy": 0.10941,
				"method": "rhf"
			}
		],
		"cosmo_sigma_profile": { 
			"-0.025": 0.0,
			"-0.024": 0.0,
			"-0.023": 0.0,
			"-0.022": 0.0,
			"-0.021": 0.0,
			"-0.02": 0.0,
			"-0.019": 0.0,
			"-0.018": 0.0,
			"-0.017": 0.0,
			"-0.016": 0.0,
			"-0.015": 0.0,
			"-0.014": 0.0,
			"-0.013": 0.0790133203048,
			"-0.012": 0.817051605465,
			"-0.011": 2.53095450681,
			"-0.01": 2.87939577602,
			"-0.009": 5.39483146664,
			"-0.008": 4.90080454887,
			"-0.007": 4.87966438034,
			"-0.006": 5.28795671388,
			"-0.005": 5.22239588164,
			"-0.004": 5.3920503906,
			"-0.003": 4.91053886348,
			"-0.002": 9.46822480812,
			"-0.001": 21.823854622,
			"0.0": 18.2261359522,
			"0.001": 13.7365308741,
			"0.002": 14.0895878554,
			"0.003": 29.9096811556,
			"0.004": 18.454771749,
			"0.005": 1.66634482821,
			"0.006": 1.6502360971,
			"0.007": 1.42298546111,
			"0.008": 0.91152912,
			"0.009": 1.17986437666,
			"0.01": 1.91647047665,
			"0.011": 0.509384581809,
			"0.012": 0.482464669027,
			"0.013": 0.533097429154,
			"0.014": 0.836149963629,
			"0.015": 0.550114006471,
			"0.016": 0.602099859591,
			"0.017": 0.166757985154,
			"0.018": 0.0,
			"0.019": 0.0,
			"0.02": 0.0,
			"0.021": 0.0,
			"0.022": 0.0,
			"0.023": 0.0,
			"0.024": 0.0,
			"0.025": 0.0
		}
	}
}
