{
	 "smiles": "CC1=CC(C)=C(CC(O)C2=CC3=C(O2)C=CC=C3)C(C)=C1", 
	 "Tm": 348.65, 
	 "num_atms": 41, 
	 "gaussian": { 
		 "optdone": 1, 
		 "sigma_profile": "yes", 
		 "theory": "DFT", 
		 "functional": "B3LYP", 
		 "basiset": "6-31G**", 
		 "properties": { 
			 "R2extent": 6902.3659, 
			 "electric_dipole_moment_norm": 1.36520654481, 
			 "electric_quadrupole_moment_norm": 14.2219032647, 
			 "total_energy": -886.531274186, 
			 "HOMO_LUMO_gap": 0.19436, 
			 "cosmo_polarized_energy": -9.41, 
			 "cosmo_cavitation_energy": 41.94, 
			 "cosmo_dispersion_energy": -28.86, 
			 "cosmo_repulsion_energy": 2.21, 
			 "cosmo_total_nonelectrostatic_energy": 15.28, 
			 "SMD_solvation_energy": 6.94 
		},
		"coords": [
			{
				"x": -2.0071690843,
				"y": -3.1171218105,
				"z": 2.3320086632,
				"element": "C" 
			},
			{
				"x": -0.7776239713,
				"y": -2.5644334785,
				"z": 1.6505836227,
				"element": "C" 
			},
			{
				"x": -0.3517985628,
				"y": -1.2541385725,
				"z": 1.8817112939,
				"element": "C" 
			},
			{
				"x": 0.7592902079,
				"y": -0.7078826832,
				"z": 1.2313412054,
				"element": "C" 
			},
			{
				"x": 1.1894604593,
				"y": 0.6969385432,
				"z": 1.5985946004,
				"element": "C" 
			},
			{
				"x": 1.4764433152,
				"y": -1.4927818151,
				"z": 0.2989748365,
				"element": "C" 
			},
			{
				"x": 2.6681616335,
				"y": -0.9177867013,
				"z": -0.4472050787,
				"element": "C" 
			},
			{
				"x": 2.3729178408,
				"y": -0.3181213345,
				"z": -1.8587404558,
				"element": "C" 
			},
			{
				"x": 1.7461388741,
				"y": -1.2559402748,
				"z": -2.7271484651,
				"element": "O" 
			},
			{
				"x": 1.6052598248,
				"y": 0.9722707341,
				"z": -1.8541378679,
				"element": "C" 
			},
			{
				"x": 1.9763084866,
				"y": 2.2713972193,
				"z": -2.0028242143,
				"element": "C" 
			},
			{
				"x": 0.7691132015,
				"y": 3.0582577011,
				"z": -1.9183384482,
				"element": "C" 
			},
			{
				"x": -0.269360782,
				"y": 2.1269977105,
				"z": -1.7264975193,
				"element": "C" 
			},
			{
				"x": 0.2405572759,
				"y": 0.8549555666,
				"z": -1.6846909533,
				"element": "O" 
			},
			{
				"x": -1.6082445589,
				"y": 2.4757297092,
				"z": -1.6025465655,
				"element": "C" 
			},
			{
				"x": -1.9033326354,
				"y": 3.8370517675,
				"z": -1.6758220513,
				"element": "C" 
			},
			{
				"x": -0.8895886902,
				"y": 4.7947629789,
				"z": -1.8668660366,
				"element": "C" 
			},
			{
				"x": 0.4464321404,
				"y": 4.4222229824,
				"z": -1.9898499128,
				"element": "C" 
			},
			{
				"x": 1.0917823356,
				"y": -2.8390520533,
				"z": 0.0948970302,
				"element": "C" 
			},
			{
				"x": 1.8953551863,
				"y": -3.7849915137,
				"z": -0.7761916955,
				"element": "C" 
			},
			{
				"x": -0.0300452021,
				"y": -3.3426018753,
				"z": 0.7652403304,
				"element": "C" 
			},
			{
				"x": -2.1470600742,
				"y": -2.6777532401,
				"z": 3.3246612567,
				"element": "H" 
			},
			{
				"x": -2.913765895,
				"y": -2.9015246587,
				"z": 1.7521454693,
				"element": "H" 
			},
			{
				"x": -1.9473137704,
				"y": -4.2036673138,
				"z": 2.4473195755,
				"element": "H" 
			},
			{
				"x": -0.8950353627,
				"y": -0.6381491712,
				"z": 2.5953448406,
				"element": "H" 
			},
			{
				"x": 0.4931202075,
				"y": 1.134650339,
				"z": 2.3185661903,
				"element": "H" 
			},
			{
				"x": 1.2381380744,
				"y": 1.3673589237,
				"z": 0.7371986736,
				"element": "H" 
			},
			{
				"x": 2.1833372821,
				"y": 0.7003395927,
				"z": 2.0639957749,
				"element": "H" 
			},
			{
				"x": 3.4175372584,
				"y": -1.699725373,
				"z": -0.6042978055,
				"element": "H" 
			},
			{
				"x": 3.154911636,
				"y": -0.1365162256,
				"z": 0.1451221959,
				"element": "H" 
			},
			{
				"x": 3.3443160572,
				"y": -0.0996196549,
				"z": -2.3153867924,
				"element": "H" 
			},
			{
				"x": 0.84896809,
				"y": -1.3933798748,
				"z": -2.3893096368,
				"element": "H" 
			},
			{
				"x": 2.9840431742,
				"y": 2.6284239327,
				"z": -2.1622828656,
				"element": "H" 
			},
			{
				"x": -2.3760197311,
				"y": 1.7240036459,
				"z": -1.4554280577,
				"element": "H" 
			},
			{
				"x": -2.9348713477,
				"y": 4.1631697233,
				"z": -1.5837046145,
				"element": "H" 
			},
			{
				"x": -1.1582795472,
				"y": 5.8457145945,
				"z": -1.919322406,
				"element": "H" 
			},
			{
				"x": 1.21995691,
				"y": 5.1699032335,
				"z": -2.138118605,
				"element": "H" 
			},
			{
				"x": 2.0649816309,
				"y": -3.383286915,
				"z": -1.7771848581,
				"element": "H" 
			},
			{
				"x": 2.8811903657,
				"y": -3.9834701872,
				"z": -0.3351360952,
				"element": "H" 
			},
			{
				"x": 1.3844428133,
				"y": -4.7471092427,
				"z": -0.8698753085,
				"element": "H" 
			},
			{
				"x": -0.3174550664,
				"y": -4.3783949283,
				"z": 0.59680075,
				"element": "H" 
			}
		],
		 "valence_orbital": [ 
			{
				"type": "occ",
				"energy": -0.27782,
				"method": "rhf"
			},
			{
				"type": "occ",
				"energy": -0.2376,
				"method": "rhf"
			},
			{
				"type": "occ",
				"energy": -0.22896,
				"method": "rhf"
			},
			{
				"type": "occ",
				"energy": -0.22559,
				"method": "rhf"
			},
			{
				"type": "occ",
				"energy": -0.21514,
				"method": "rhf"
			},
			{
				"type": "unocc",
				"energy": -0.02078,
				"method": "rhf"
			},
			{
				"type": "unocc",
				"energy": 0.00202,
				"method": "rhf"
			},
			{
				"type": "unocc",
				"energy": 0.01001,
				"method": "rhf"
			},
			{
				"type": "unocc",
				"energy": 0.0143,
				"method": "rhf"
			},
			{
				"type": "unocc",
				"energy": 0.05271,
				"method": "rhf"
			}
		],
		"cosmo_sigma_profile": { 
			"-0.025": 0.0,
			"-0.024": 0.0,
			"-0.023": 0.0,
			"-0.022": 0.0,
			"-0.021": 0.0,
			"-0.02": 0.0,
			"-0.019": 0.0,
			"-0.018": 0.0,
			"-0.017": 0.0,
			"-0.016": 0.0,
			"-0.015": 0.0,
			"-0.014": 0.0,
			"-0.013": 0.197200026199,
			"-0.012": 0.484259127826,
			"-0.011": 0.355023696473,
			"-0.01": 0.463389887779,
			"-0.009": 0.549913226858,
			"-0.008": 0.932584876707,
			"-0.007": 3.8545364548,
			"-0.006": 11.2923067517,
			"-0.005": 14.5637427442,
			"-0.004": 33.4326904034,
			"-0.003": 35.3876037273,
			"-0.002": 27.7295391932,
			"-0.001": 26.4049677388,
			"0.0": 37.3320756082,
			"0.001": 30.1395162537,
			"0.002": 23.6286371858,
			"0.003": 20.3381362053,
			"0.004": 20.2276529136,
			"0.005": 17.2538858957,
			"0.006": 11.5311948948,
			"0.007": 6.86203126473,
			"0.008": 2.57841947013,
			"0.009": 0.952661687137,
			"0.01": 0.793329622196,
			"0.011": 1.47347818435,
			"0.012": 1.08369549242,
			"0.013": 1.64501942372,
			"0.014": 0.397465587899,
			"0.015": 0.0,
			"0.016": 0.0,
			"0.017": 0.0,
			"0.018": 0.0,
			"0.019": 0.0,
			"0.02": 0.0,
			"0.021": 0.0,
			"0.022": 0.0,
			"0.023": 0.0,
			"0.024": 0.0,
			"0.025": 0.0
		}
	}
}
