{
	 "smiles": "CC1=CC(Cl)=C(C)C=C1S(=O)(=O)CC1=CC=C(N)C=C1", 
	 "Tm": 430.15, 
	 "num_atms": 36, 
	 "gaussian": { 
		 "optdone": 1, 
		 "sigma_profile": "yes", 
		 "theory": "DFT", 
		 "functional": "B3LYP", 
		 "basiset": "6-31G**", 
		 "properties": { 
			 "R2extent": 7029.5122, 
			 "electric_dipole_moment_norm": 5.3085576996, 
			 "electric_quadrupole_moment_norm": 15.4035765493, 
			 "total_energy": -1644.77680181, 
			 "HOMO_LUMO_gap": 0.16712, 
			 "cosmo_polarized_energy": -19.38, 
			 "cosmo_cavitation_energy": 42.04, 
			 "cosmo_dispersion_energy": -28.73, 
			 "cosmo_repulsion_energy": 2.19, 
			 "cosmo_total_nonelectrostatic_energy": 15.5, 
			 "SMD_solvation_energy": 5.99 
		},
		"coords": [
			{
				"x": -0.4619088412,
				"y": 3.0443968429,
				"z": -1.7411189028,
				"element": "C" 
			},
			{
				"x": -0.9940761157,
				"y": 2.0903516258,
				"z": -0.6966151367,
				"element": "C" 
			},
			{
				"x": -1.7087744635,
				"y": 2.6050462226,
				"z": 0.3909570912,
				"element": "C" 
			},
			{
				"x": -2.2390910484,
				"y": 1.771576536,
				"z": 1.374305182,
				"element": "C" 
			},
			{
				"x": -3.1210260566,
				"y": 2.5207896016,
				"z": 2.6998447715,
				"element": "Cl" 
			},
			{
				"x": -2.0959268524,
				"y": 0.3789033723,
				"z": 1.33579761,
				"element": "C" 
			},
			{
				"x": -2.6746393982,
				"y": -0.53015091,
				"z": 2.3880107904,
				"element": "C" 
			},
			{
				"x": -1.3771981692,
				"y": -0.1344305072,
				"z": 0.2509909677,
				"element": "C" 
			},
			{
				"x": -0.8369583129,
				"y": 0.6904146012,
				"z": -0.7361452335,
				"element": "C" 
			},
			{
				"x": 0.0410413008,
				"y": -0.1608937034,
				"z": -2.0719404363,
				"element": "S" 
			},
			{
				"x": -0.2310838219,
				"y": -1.6020343134,
				"z": -1.9252738285,
				"element": "O" 
			},
			{
				"x": -0.2485822926,
				"y": 0.5149336396,
				"z": -3.349877215,
				"element": "O" 
			},
			{
				"x": 1.8340224219,
				"y": 0.0995108896,
				"z": -1.7244108759,
				"element": "C" 
			},
			{
				"x": 2.3161324206,
				"y": -0.4713163769,
				"z": -0.4259978529,
				"element": "C" 
			},
			{
				"x": 2.538088072,
				"y": -1.849269884,
				"z": -0.2784627761,
				"element": "C" 
			},
			{
				"x": 2.9819835531,
				"y": -2.3809984168,
				"z": 0.9255947662,
				"element": "C" 
			},
			{
				"x": 3.2233276912,
				"y": -1.5475679681,
				"z": 2.0337876211,
				"element": "C" 
			},
			{
				"x": 3.7270289909,
				"y": -2.0704316795,
				"z": 3.2211180401,
				"element": "N" 
			},
			{
				"x": 2.9995078797,
				"y": -0.1668760093,
				"z": 1.8913966596,
				"element": "C" 
			},
			{
				"x": 2.5519922661,
				"y": 0.3539152077,
				"z": 0.6819378732,
				"element": "C" 
			},
			{
				"x": -0.7560439285,
				"y": 4.0686592717,
				"z": -1.5002794368,
				"element": "H" 
			},
			{
				"x": 0.6321745155,
				"y": 3.0208762033,
				"z": -1.7977319692,
				"element": "H" 
			},
			{
				"x": -0.8317470158,
				"y": 2.7866387114,
				"z": -2.7351416496,
				"element": "H" 
			},
			{
				"x": -1.862714632,
				"y": 3.6760094313,
				"z": 0.4697034179,
				"element": "H" 
			},
			{
				"x": -3.7625679279,
				"y": -0.4216574324,
				"z": 2.4519265022,
				"element": "H" 
			},
			{
				"x": -2.2738053644,
				"y": -0.2964801595,
				"z": 3.380189285,
				"element": "H" 
			},
			{
				"x": -2.4464117924,
				"y": -1.5740682014,
				"z": 2.1616812187,
				"element": "H" 
			},
			{
				"x": -1.2381822707,
				"y": -1.2061186656,
				"z": 0.1586218814,
				"element": "H" 
			},
			{
				"x": 1.9993006663,
				"y": 1.1768416884,
				"z": -1.800126303,
				"element": "H" 
			},
			{
				"x": 2.2932731966,
				"y": -0.3756698248,
				"z": -2.5976530559,
				"element": "H" 
			},
			{
				"x": 2.3442796161,
				"y": -2.5132150084,
				"z": -1.1153216565,
				"element": "H" 
			},
			{
				"x": 3.152446475,
				"y": -3.4510822554,
				"z": 1.0139018193,
				"element": "H" 
			},
			{
				"x": 3.5663919917,
				"y": -1.5149238085,
				"z": 4.0494056036,
				"element": "H" 
			},
			{
				"x": 3.5539847049,
				"y": -3.0535587396,
				"z": 3.3760721215,
				"element": "H" 
			},
			{
				"x": 3.1847764234,
				"y": 0.4967183251,
				"z": 2.7322984889,
				"element": "H" 
			},
			{
				"x": 2.3864861185,
				"y": 1.4253616936,
				"z": 0.599054617,
				"element": "H" 
			}
		],
		 "valence_orbital": [ 
			{
				"type": "occ",
				"energy": -0.28081,
				"method": "rhf"
			},
			{
				"type": "occ",
				"energy": -0.26382,
				"method": "rhf"
			},
			{
				"type": "occ",
				"energy": -0.25534,
				"method": "rhf"
			},
			{
				"type": "occ",
				"energy": -0.25251,
				"method": "rhf"
			},
			{
				"type": "occ",
				"energy": -0.20847,
				"method": "rhf"
			},
			{
				"type": "unocc",
				"energy": -0.04135,
				"method": "rhf"
			},
			{
				"type": "unocc",
				"energy": -0.01856,
				"method": "rhf"
			},
			{
				"type": "unocc",
				"energy": -0.0061,
				"method": "rhf"
			},
			{
				"type": "unocc",
				"energy": -0.00382,
				"method": "rhf"
			},
			{
				"type": "unocc",
				"energy": 0.02441,
				"method": "rhf"
			}
		],
		"cosmo_sigma_profile": { 
			"-0.025": 0.0,
			"-0.024": 0.0,
			"-0.023": 0.0,
			"-0.022": 0.0,
			"-0.021": 0.0,
			"-0.02": 0.0,
			"-0.019": 0.0,
			"-0.018": 0.0,
			"-0.017": 0.0,
			"-0.016": 0.0,
			"-0.015": 0.0,
			"-0.014": 0.0,
			"-0.013": 0.634965842437,
			"-0.012": 2.65861334009,
			"-0.011": 2.91643207968,
			"-0.01": 2.69485844782,
			"-0.009": 4.82839771959,
			"-0.008": 8.46870222027,
			"-0.007": 11.5902038334,
			"-0.006": 15.450363463,
			"-0.005": 18.4574740442,
			"-0.004": 20.7177920495,
			"-0.003": 22.5669823865,
			"-0.002": 21.3724086013,
			"-0.001": 31.3298612072,
			"0.0": 24.69507608,
			"0.001": 24.8399100175,
			"0.002": 24.1981679265,
			"0.003": 19.0017445344,
			"0.004": 18.8837368174,
			"0.005": 14.6455844998,
			"0.006": 10.672312726,
			"0.007": 4.25448944855,
			"0.008": 3.8619776052,
			"0.009": 4.57864556456,
			"0.01": 5.25185894904,
			"0.011": 6.64509838804,
			"0.012": 7.91396381958,
			"0.013": 2.28083450098,
			"0.014": 0.343014857493,
			"0.015": 0.0,
			"0.016": 0.0,
			"0.017": 0.0,
			"0.018": 0.0,
			"0.019": 0.0,
			"0.02": 0.0,
			"0.021": 0.0,
			"0.022": 0.0,
			"0.023": 0.0,
			"0.024": 0.0,
			"0.025": 0.0
		}
	}
}
