{
	 "smiles": "OC(=O)C1=CC=CC=C1C#N", 
	 "Tm": 484.15, 
	 "num_atms": 16, 
	 "gaussian": { 
		 "optdone": 1, 
		 "sigma_profile": "yes", 
		 "theory": "DFT", 
		 "functional": "B3LYP", 
		 "basiset": "6-31G**", 
		 "properties": { 
			 "R2extent": 2442.7859, 
			 "electric_dipole_moment_norm": 5.84344476743, 
			 "electric_quadrupole_moment_norm": 29.6157377864, 
			 "total_energy": -513.057759161, 
			 "HOMO_LUMO_gap": 0.19519, 
			 "cosmo_polarized_energy": -15.8, 
			 "cosmo_cavitation_energy": 22.01, 
			 "cosmo_dispersion_energy": -15.78, 
			 "cosmo_repulsion_energy": 1.26, 
			 "cosmo_total_nonelectrostatic_energy": 7.49, 
			 "SMD_solvation_energy": 6.25 
		},
		"coords": [
			{
				"x": 1.2642258605,
				"y": -2.9027916946,
				"z": 0.1807065453,
				"element": "O" 
			},
			{
				"x": 2.0529811328,
				"y": -1.8266093152,
				"z": -0.0638740257,
				"element": "C" 
			},
			{
				"x": 3.1487676958,
				"y": -1.9288341382,
				"z": -0.5713052919,
				"element": "O" 
			},
			{
				"x": 1.4179504422,
				"y": -0.5455251628,
				"z": 0.3579249981,
				"element": "C" 
			},
			{
				"x": 0.1427900645,
				"y": -0.5391328821,
				"z": 0.9361600443,
				"element": "C" 
			},
			{
				"x": -0.4570782733,
				"y": 0.654331473,
				"z": 1.3329075166,
				"element": "C" 
			},
			{
				"x": 0.2153702607,
				"y": 1.864151362,
				"z": 1.155172107,
				"element": "C" 
			},
			{
				"x": 1.4844038701,
				"y": 1.8778921083,
				"z": 0.5819224074,
				"element": "C" 
			},
			{
				"x": 2.0989203404,
				"y": 0.6808466815,
				"z": 0.1780770223,
				"element": "C" 
			},
			{
				"x": 3.4083662021,
				"y": 0.7937503294,
				"z": -0.4025708049,
				"element": "C" 
			},
			{
				"x": 4.4534884618,
				"y": 1.0380037907,
				"z": -0.8502204987,
				"element": "N" 
			},
			{
				"x": 1.7679054766,
				"y": -3.6738332007,
				"z": -0.1282355251,
				"element": "H" 
			},
			{
				"x": -0.3729743187,
				"y": -1.4820582381,
				"z": 1.0708864911,
				"element": "H" 
			},
			{
				"x": -1.4463697183,
				"y": 0.6387471728,
				"z": 1.7794281495,
				"element": "H" 
			},
			{
				"x": -0.2455150385,
				"y": 2.7979974621,
				"z": 1.4617912684,
				"element": "H" 
			},
			{
				"x": 2.0153675414,
				"y": 2.812764252,
				"z": 0.4395295963,
				"element": "H" 
			}
		],
		 "valence_orbital": [ 
			{
				"type": "occ",
				"energy": -0.33225,
				"method": "rhf"
			},
			{
				"type": "occ",
				"energy": -0.33203,
				"method": "rhf"
			},
			{
				"type": "occ",
				"energy": -0.28691,
				"method": "rhf"
			},
			{
				"type": "occ",
				"energy": -0.28471,
				"method": "rhf"
			},
			{
				"type": "occ",
				"energy": -0.27388,
				"method": "rhf"
			},
			{
				"type": "unocc",
				"energy": -0.07869,
				"method": "rhf"
			},
			{
				"type": "unocc",
				"energy": -0.04718,
				"method": "rhf"
			},
			{
				"type": "unocc",
				"energy": 0.03809,
				"method": "rhf"
			},
			{
				"type": "unocc",
				"energy": 0.04119,
				"method": "rhf"
			},
			{
				"type": "unocc",
				"energy": 0.06529,
				"method": "rhf"
			}
		],
		"cosmo_sigma_profile": { 
			"-0.025": 0.0,
			"-0.024": 0.0,
			"-0.023": 0.0,
			"-0.022": 0.0,
			"-0.021": 0.0,
			"-0.02": 0.0,
			"-0.019": 0.324641329257,
			"-0.018": 0.798324974028,
			"-0.017": 0.919469144424,
			"-0.016": 1.05985128046,
			"-0.015": 0.821761305565,
			"-0.014": 0.852660037384,
			"-0.013": 0.377844268688,
			"-0.012": 0.559172395877,
			"-0.011": 1.24854065797,
			"-0.01": 0.467973229877,
			"-0.009": 0.689426569672,
			"-0.008": 5.91816273639,
			"-0.007": 10.6277981075,
			"-0.006": 10.2045374347,
			"-0.005": 7.18925110217,
			"-0.004": 9.18693871415,
			"-0.003": 12.071140412,
			"-0.002": 12.6455993328,
			"-0.001": 12.9216745169,
			"0.0": 15.6265189272,
			"0.001": 15.5389701734,
			"0.002": 7.18377844134,
			"0.003": 3.77265893579,
			"0.004": 3.7189109061,
			"0.005": 4.5159001187,
			"0.006": 4.11145342184,
			"0.007": 4.40220746285,
			"0.008": 4.66314876513,
			"0.009": 5.48174410792,
			"0.01": 6.95173636513,
			"0.011": 8.20653400235,
			"0.012": 3.70084098898,
			"0.013": 1.37825137197,
			"0.014": 0.0178254405378,
			"0.015": 0.0,
			"0.016": 0.0,
			"0.017": 0.0,
			"0.018": 0.0,
			"0.019": 0.0,
			"0.02": 0.0,
			"0.021": 0.0,
			"0.022": 0.0,
			"0.023": 0.0,
			"0.024": 0.0,
			"0.025": 0.0
		}
	}
}
