{
	 "smiles": "OC1=CC=C2C=CC=CC2=C1N=NC1=CC=C(C=C1)N=NC1=CC=CC=C1", 
	 "Tm": 472.15, 
	 "num_atms": 43, 
	 "gaussian": { 
		 "optdone": 1, 
		 "sigma_profile": "yes", 
		 "theory": "DFT", 
		 "functional": "B3LYP", 
		 "basiset": "6-31G**", 
		 "properties": { 
			 "R2extent": 16251.4211, 
			 "electric_dipole_moment_norm": 2.84385085931, 
			 "electric_quadrupole_moment_norm": 18.0850341318, 
			 "total_energy": -1142.13154672, 
			 "HOMO_LUMO_gap": 0.1033, 
			 "cosmo_polarized_energy": -12.89, 
			 "cosmo_cavitation_energy": 48.5, 
			 "cosmo_dispersion_energy": -34.41, 
			 "cosmo_repulsion_energy": 2.53, 
			 "cosmo_total_nonelectrostatic_energy": 16.63, 
			 "SMD_solvation_energy": 5.31 
		},
		"coords": [
			{
				"x": 4.0008665823,
				"y": -1.6394130147,
				"z": 1.036570563,
				"element": "O" 
			},
			{
				"x": 3.3041871667,
				"y": -2.2382255594,
				"z": 1.9993058229,
				"element": "C" 
			},
			{
				"x": 4.0171467434,
				"y": -3.0129488351,
				"z": 2.9509941937,
				"element": "C" 
			},
			{
				"x": 3.3502531842,
				"y": -3.6506486149,
				"z": 3.9638280519,
				"element": "C" 
			},
			{
				"x": 1.9332366401,
				"y": -3.5645468524,
				"z": 4.1029957401,
				"element": "C" 
			},
			{
				"x": 1.2527321062,
				"y": -4.2276162778,
				"z": 5.1544390316,
				"element": "C" 
			},
			{
				"x": -0.1174908453,
				"y": -4.136124153,
				"z": 5.2776384066,
				"element": "C" 
			},
			{
				"x": -0.8516589424,
				"y": -3.3723593827,
				"z": 4.3447893212,
				"element": "C" 
			},
			{
				"x": -0.2155633256,
				"y": -2.7150122994,
				"z": 3.3095659232,
				"element": "C" 
			},
			{
				"x": 1.1897914902,
				"y": -2.7919084604,
				"z": 3.1592003924,
				"element": "C" 
			},
			{
				"x": 1.893870402,
				"y": -2.1191588755,
				"z": 2.0897648974,
				"element": "C" 
			},
			{
				"x": 1.1303439702,
				"y": -1.3867333921,
				"z": 1.2033726359,
				"element": "N" 
			},
			{
				"x": 1.7550205796,
				"y": -0.7892470117,
				"z": 0.2586905811,
				"element": "N" 
			},
			{
				"x": 0.965943162,
				"y": -0.0476811836,
				"z": -0.6386617323,
				"element": "C" 
			},
			{
				"x": 1.6534037897,
				"y": 0.6219869064,
				"z": -1.6648677733,
				"element": "C" 
			},
			{
				"x": 0.968212362,
				"y": 1.3967288347,
				"z": -2.5915220909,
				"element": "C" 
			},
			{
				"x": -0.4302200702,
				"y": 1.4984907243,
				"z": -2.5149881901,
				"element": "C" 
			},
			{
				"x": -1.1250021357,
				"y": 0.7816972847,
				"z": -1.523882449,
				"element": "C" 
			},
			{
				"x": -0.4379632204,
				"y": 0.040911009,
				"z": -0.5758726131,
				"element": "C" 
			},
			{
				"x": -1.224802631,
				"y": 2.1278727954,
				"z": -3.5216837852,
				"element": "N" 
			},
			{
				"x": -0.9951159898,
				"y": 3.2587687924,
				"z": -4.0020100394,
				"element": "N" 
			},
			{
				"x": -0.0402522407,
				"y": 4.1794376617,
				"z": -3.4581927011,
				"element": "C" 
			},
			{
				"x": 0.7264720841,
				"y": 4.9005187102,
				"z": -4.3841337491,
				"element": "C" 
			},
			{
				"x": 1.6027445488,
				"y": 5.8892443569,
				"z": -3.9421530737,
				"element": "C" 
			},
			{
				"x": 1.6749838881,
				"y": 6.2055593768,
				"z": -2.5829084434,
				"element": "C" 
			},
			{
				"x": 0.8700319344,
				"y": 5.5228846695,
				"z": -1.6667367277,
				"element": "C" 
			},
			{
				"x": 0.0192860517,
				"y": 4.5057649607,
				"z": -2.0945559308,
				"element": "C" 
			},
			{
				"x": 3.3204242132,
				"y": -1.1478236975,
				"z": 0.4746384705,
				"element": "H" 
			},
			{
				"x": 5.0946097842,
				"y": -3.0764482558,
				"z": 2.8424763073,
				"element": "H" 
			},
			{
				"x": 3.9064597054,
				"y": -4.2414445875,
				"z": 4.6872682956,
				"element": "H" 
			},
			{
				"x": 1.8334309864,
				"y": -4.8115549297,
				"z": 5.8640094333,
				"element": "H" 
			},
			{
				"x": -0.6313107965,
				"y": -4.6473573989,
				"z": 6.0860690065,
				"element": "H" 
			},
			{
				"x": -1.9313268711,
				"y": -3.3003145455,
				"z": 4.4417408735,
				"element": "H" 
			},
			{
				"x": -0.7832164767,
				"y": -2.1299830637,
				"z": 2.5963965322,
				"element": "H" 
			},
			{
				"x": 2.7337526868,
				"y": 0.527741071,
				"z": -1.7175411677,
				"element": "H" 
			},
			{
				"x": 1.5077987943,
				"y": 1.9110354615,
				"z": -3.3786666711,
				"element": "H" 
			},
			{
				"x": -2.2096520408,
				"y": 0.8281970767,
				"z": -1.514833258,
				"element": "H" 
			},
			{
				"x": -0.9647284317,
				"y": -0.4932528814,
				"z": 0.2054382191,
				"element": "H" 
			},
			{
				"x": 0.6260371479,
				"y": 4.6671192546,
				"z": -5.4395696932,
				"element": "H" 
			},
			{
				"x": 2.2136680264,
				"y": 6.4279288627,
				"z": -4.660552328,
				"element": "H" 
			},
			{
				"x": 2.3417745197,
				"y": 6.9914051872,
				"z": -2.2409662223,
				"element": "H" 
			},
			{
				"x": 0.9060411791,
				"y": 5.7821086995,
				"z": -0.6125921161,
				"element": "H" 
			},
			{
				"x": -0.6071197112,
				"y": 3.9785015764,
				"z": -1.3834019435,
				"element": "H" 
			}
		],
		 "valence_orbital": [ 
			{
				"type": "occ",
				"energy": -0.25607,
				"method": "rhf"
			},
			{
				"type": "occ",
				"energy": -0.24025,
				"method": "rhf"
			},
			{
				"type": "occ",
				"energy": -0.23804,
				"method": "rhf"
			},
			{
				"type": "occ",
				"energy": -0.22216,
				"method": "rhf"
			},
			{
				"type": "occ",
				"energy": -0.20224,
				"method": "rhf"
			},
			{
				"type": "unocc",
				"energy": -0.09894,
				"method": "rhf"
			},
			{
				"type": "unocc",
				"energy": -0.06736,
				"method": "rhf"
			},
			{
				"type": "unocc",
				"energy": -0.03107,
				"method": "rhf"
			},
			{
				"type": "unocc",
				"energy": -0.01864,
				"method": "rhf"
			},
			{
				"type": "unocc",
				"energy": -0.00804,
				"method": "rhf"
			}
		],
		"cosmo_sigma_profile": { 
			"-0.025": 0.0,
			"-0.024": 0.0,
			"-0.023": 0.0,
			"-0.022": 0.0,
			"-0.021": 0.0,
			"-0.02": 0.0,
			"-0.019": 0.0,
			"-0.018": 0.0,
			"-0.017": 0.0,
			"-0.016": 0.0,
			"-0.015": 0.0,
			"-0.014": 0.0,
			"-0.013": 0.0,
			"-0.012": 0.0,
			"-0.011": 0.0,
			"-0.01": 0.0,
			"-0.009": 0.0,
			"-0.008": 0.2780919188,
			"-0.007": 10.7886179836,
			"-0.006": 28.0379821796,
			"-0.005": 32.0859393047,
			"-0.004": 29.9727706664,
			"-0.003": 24.4344774944,
			"-0.002": 25.4222106604,
			"-0.001": 22.2021644332,
			"0.0": 27.3277596771,
			"0.001": 39.3647252523,
			"0.002": 42.3961623946,
			"0.003": 41.1218836481,
			"0.004": 28.4619566596,
			"0.005": 13.6066528106,
			"0.006": 4.44652465366,
			"0.007": 2.86527947718,
			"0.008": 2.59074141853,
			"0.009": 3.45619301182,
			"0.01": 4.02969025998,
			"0.011": 3.52343873584,
			"0.012": 2.5190276014,
			"0.013": 1.80989570069,
			"0.014": 0.617493472142,
			"0.015": 0.0,
			"0.016": 0.0,
			"0.017": 0.0,
			"0.018": 0.0,
			"0.019": 0.0,
			"0.02": 0.0,
			"0.021": 0.0,
			"0.022": 0.0,
			"0.023": 0.0,
			"0.024": 0.0,
			"0.025": 0.0
		}
	}
}
