{
	 "smiles": "OC(=O)CN1C(S)=NN=C1C1=CC=CS1", 
	 "Tm": 290.15, 
	 "num_atms": 22, 
	 "gaussian": { 
		 "optdone": 1, 
		 "sigma_profile": "yes", 
		 "theory": "DFT", 
		 "functional": "B3LYP", 
		 "basiset": "6-31G**", 
		 "properties": { 
			 "R2extent": 4249.5731, 
			 "electric_dipole_moment_norm": 5.15079174205, 
			 "electric_quadrupole_moment_norm": 15.3197975127, 
			 "total_energy": -1420.10876389, 
			 "HOMO_LUMO_gap": 0.1769, 
			 "cosmo_polarized_energy": -22.32, 
			 "cosmo_cavitation_energy": 30.87, 
			 "cosmo_dispersion_energy": -22.55, 
			 "cosmo_repulsion_energy": 1.7, 
			 "cosmo_total_nonelectrostatic_energy": 10.02, 
			 "SMD_solvation_energy": 3.89 
		},
		"coords": [
			{
				"x": -3.5001823307,
				"y": 1.2269730161,
				"z": -0.3423791123,
				"element": "O" 
			},
			{
				"x": -2.7138733051,
				"y": 0.2071890632,
				"z": 0.0628899512,
				"element": "C" 
			},
			{
				"x": -3.0752522284,
				"y": -0.6910988095,
				"z": 0.7801014696,
				"element": "O" 
			},
			{
				"x": -1.3096150381,
				"y": 0.379017947,
				"z": -0.5151338983,
				"element": "C" 
			},
			{
				"x": -0.4351191828,
				"y": -0.7182807777,
				"z": -0.1648307789,
				"element": "N" 
			},
			{
				"x": -0.4003379719,
				"y": -1.9510287366,
				"z": -0.7711014325,
				"element": "C" 
			},
			{
				"x": -1.2291359816,
				"y": -2.2887651889,
				"z": -2.2940726381,
				"element": "S" 
			},
			{
				"x": 0.3354076663,
				"y": -2.7962538822,
				"z": -0.0916911453,
				"element": "N" 
			},
			{
				"x": 0.805241398,
				"y": -2.1224063786,
				"z": 1.0155116949,
				"element": "N" 
			},
			{
				"x": 0.3335850767,
				"y": -0.8942309887,
				"z": 0.9800225848,
				"element": "C" 
			},
			{
				"x": 0.5858352745,
				"y": 0.1004983738,
				"z": 2.0126974065,
				"element": "C" 
			},
			{
				"x": 0.6608333493,
				"y": -0.1550631679,
				"z": 3.3611460412,
				"element": "C" 
			},
			{
				"x": 1.0150032314,
				"y": 0.9884522978,
				"z": 4.1328362236,
				"element": "C" 
			},
			{
				"x": 1.2126585764,
				"y": 2.1064839936,
				"z": 3.3701635764,
				"element": "C" 
			},
			{
				"x": 0.9906537793,
				"y": 1.7759041395,
				"z": 1.6829240904,
				"element": "S" 
			},
			{
				"x": -4.3756423098,
				"y": 1.0810477166,
				"z": 0.0543395474,
				"element": "H" 
			},
			{
				"x": -1.376525731,
				"y": 0.4717025353,
				"z": -1.6034969328,
				"element": "H" 
			},
			{
				"x": -0.8995972568,
				"y": 1.3210823078,
				"z": -0.1453490656,
				"element": "H" 
			},
			{
				"x": -0.7374110419,
				"y": -3.5401836786,
				"z": -2.3558635267,
				"element": "H" 
			},
			{
				"x": 0.463053315,
				"y": -1.1386874462,
				"z": 3.7686759509,
				"element": "H" 
			},
			{
				"x": 1.109916487,
				"y": 0.9808561079,
				"z": 5.212475865,
				"element": "H" 
			},
			{
				"x": 1.4720042243,
				"y": 3.1057915561,
				"z": 3.6909341288,
				"element": "H" 
			}
		],
		 "valence_orbital": [ 
			{
				"type": "occ",
				"energy": -0.29334,
				"method": "rhf"
			},
			{
				"type": "occ",
				"energy": -0.2642,
				"method": "rhf"
			},
			{
				"type": "occ",
				"energy": -0.26209,
				"method": "rhf"
			},
			{
				"type": "occ",
				"energy": -0.25628,
				"method": "rhf"
			},
			{
				"type": "occ",
				"energy": -0.21966,
				"method": "rhf"
			},
			{
				"type": "unocc",
				"energy": -0.04276,
				"method": "rhf"
			},
			{
				"type": "unocc",
				"energy": -0.01467,
				"method": "rhf"
			},
			{
				"type": "unocc",
				"energy": -0.00125,
				"method": "rhf"
			},
			{
				"type": "unocc",
				"energy": 0.01069,
				"method": "rhf"
			},
			{
				"type": "unocc",
				"energy": 0.02294,
				"method": "rhf"
			}
		],
		"cosmo_sigma_profile": { 
			"-0.025": 0.0,
			"-0.024": 0.0,
			"-0.023": 0.0,
			"-0.022": 0.0,
			"-0.021": 0.0,
			"-0.02": 0.0712936439893,
			"-0.019": 0.739192175317,
			"-0.018": 0.958353380188,
			"-0.017": 1.03887268233,
			"-0.016": 0.699085454133,
			"-0.015": 0.514278425453,
			"-0.014": 0.668008450016,
			"-0.013": 1.45094474471,
			"-0.012": 2.95392741696,
			"-0.011": 1.77064547157,
			"-0.01": 3.25726915248,
			"-0.009": 6.48741360587,
			"-0.008": 10.3484940217,
			"-0.007": 13.0460565474,
			"-0.006": 10.820410352,
			"-0.005": 11.873799165,
			"-0.004": 11.5466506352,
			"-0.003": 13.0207412816,
			"-0.002": 13.1546261334,
			"-0.001": 10.7592733585,
			"0.0": 14.4463404566,
			"0.001": 17.1433832063,
			"0.002": 18.1328190045,
			"0.003": 19.3933814512,
			"0.004": 13.9792140872,
			"0.005": 9.16311804515,
			"0.006": 6.62209513251,
			"0.007": 5.11507097191,
			"0.008": 5.28110889507,
			"0.009": 4.14658878278,
			"0.01": 5.82340573202,
			"0.011": 6.00270191055,
			"0.012": 3.21634612732,
			"0.013": 2.60509721309,
			"0.014": 2.96023066552,
			"0.015": 2.20261727916,
			"0.016": 1.13052989901,
			"0.017": 0.0509570233133,
			"0.018": 0.0,
			"0.019": 0.0,
			"0.02": 0.0,
			"0.021": 0.0,
			"0.022": 0.0,
			"0.023": 0.0,
			"0.024": 0.0,
			"0.025": 0.0
		}
	}
}
