{
	 "smiles": "CC(C)(C)OC(=O)NC1CCN(CC2=CC(Cl)=CC(Cl)=C2)CC1", 
	 "Tm": 419.15, 
	 "num_atms": 47, 
	 "gaussian": { 
		 "optdone": 1, 
		 "sigma_profile": "yes", 
		 "theory": "DFT", 
		 "functional": "B3LYP", 
		 "basiset": "6-31G**", 
		 "properties": { 
			 "R2extent": 13202.1465, 
			 "electric_dipole_moment_norm": 2.3825012256, 
			 "electric_quadrupole_moment_norm": 25.3773128682, 
			 "total_energy": -1842.64677986, 
			 "HOMO_LUMO_gap": 0.19869, 
			 "cosmo_polarized_energy": -12.71, 
			 "cosmo_cavitation_energy": 51.61, 
			 "cosmo_dispersion_energy": -34.0, 
			 "cosmo_repulsion_energy": 2.63, 
			 "cosmo_total_nonelectrostatic_energy": 20.25, 
			 "SMD_solvation_energy": 7.24 
		},
		"coords": [
			{
				"x": 2.3048208702,
				"y": -4.60436679,
				"z": 1.6668052931,
				"element": "C" 
			},
			{
				"x": 2.5687062468,
				"y": -3.1980665053,
				"z": 2.2156844864,
				"element": "C" 
			},
			{
				"x": 1.4175696008,
				"y": -2.7411769426,
				"z": 3.1155596022,
				"element": "C" 
			},
			{
				"x": 3.9070882817,
				"y": -3.1059050753,
				"z": 2.9563431978,
				"element": "C" 
			},
			{
				"x": 2.529530657,
				"y": -2.2148700608,
				"z": 1.121326594,
				"element": "O" 
			},
			{
				"x": 3.4276040498,
				"y": -2.2692030046,
				"z": 0.1072972811,
				"element": "C" 
			},
			{
				"x": 4.2975849438,
				"y": -3.1134469591,
				"z": -0.0420695811,
				"element": "O" 
			},
			{
				"x": 3.2513953986,
				"y": -1.2199520784,
				"z": -0.756251063,
				"element": "N" 
			},
			{
				"x": 2.1587169161,
				"y": -0.2537787534,
				"z": -0.7465290466,
				"element": "C" 
			},
			{
				"x": 2.6108775927,
				"y": 1.0497639273,
				"z": -1.4358569646,
				"element": "C" 
			},
			{
				"x": 1.3997862862,
				"y": 1.8707914725,
				"z": -1.930729533,
				"element": "C" 
			},
			{
				"x": 0.2396666866,
				"y": 1.6109912237,
				"z": -1.0775278575,
				"element": "N" 
			},
			{
				"x": -0.8114192897,
				"y": 2.6115206886,
				"z": -1.1933342138,
				"element": "C" 
			},
			{
				"x": -1.7988247124,
				"y": 2.5752330772,
				"z": -0.0373098785,
				"element": "C" 
			},
			{
				"x": -1.3375152051,
				"y": 2.3888576504,
				"z": 1.2716194977,
				"element": "C" 
			},
			{
				"x": -2.2449955366,
				"y": 2.4109642594,
				"z": 2.3262967689,
				"element": "C" 
			},
			{
				"x": -1.6641830311,
				"y": 2.1732658014,
				"z": 3.9682348928,
				"element": "Cl" 
			},
			{
				"x": -3.6098953698,
				"y": 2.6182085718,
				"z": 2.1221316947,
				"element": "C" 
			},
			{
				"x": -4.0463428341,
				"y": 2.8003581101,
				"z": 0.8119682524,
				"element": "C" 
			},
			{
				"x": -5.7592774619,
				"y": 3.0547999118,
				"z": 0.5145124911,
				"element": "Cl" 
			},
			{
				"x": -3.1627294575,
				"y": 2.7772515492,
				"z": -0.2667208472,
				"element": "C" 
			},
			{
				"x": -0.2723214835,
				"y": 0.2438288661,
				"z": -1.2708308282,
				"element": "C" 
			},
			{
				"x": 0.8784714833,
				"y": -0.7744820933,
				"z": -1.4202971537,
				"element": "C" 
			},
			{
				"x": 1.3609479438,
				"y": -4.6246038974,
				"z": 1.1123357087,
				"element": "H" 
			},
			{
				"x": 2.2250937413,
				"y": -5.3139267143,
				"z": 2.4968977137,
				"element": "H" 
			},
			{
				"x": 3.1111343211,
				"y": -4.9214125832,
				"z": 1.0053810865,
				"element": "H" 
			},
			{
				"x": 1.5855787141,
				"y": -1.7206633189,
				"z": 3.4717890267,
				"element": "H" 
			},
			{
				"x": 1.3346774752,
				"y": -3.4016304994,
				"z": 3.9838200259,
				"element": "H" 
			},
			{
				"x": 0.4684600685,
				"y": -2.7643906722,
				"z": 2.5719812476,
				"element": "H" 
			},
			{
				"x": 3.8857204211,
				"y": -3.7576242502,
				"z": 3.8359073052,
				"element": "H" 
			},
			{
				"x": 4.7313441338,
				"y": -3.4098566984,
				"z": 2.3108718693,
				"element": "H" 
			},
			{
				"x": 4.0818977141,
				"y": -2.0806772777,
				"z": 3.2980085656,
				"element": "H" 
			},
			{
				"x": 3.8272409564,
				"y": -1.2926688213,
				"z": -1.5828200347,
				"element": "H" 
			},
			{
				"x": 1.9317407678,
				"y": -0.0423318868,
				"z": 0.2999591534,
				"element": "H" 
			},
			{
				"x": 3.2525965252,
				"y": 0.8118272028,
				"z": -2.294531657,
				"element": "H" 
			},
			{
				"x": 3.2180828013,
				"y": 1.6357410722,
				"z": -0.7390296472,
				"element": "H" 
			},
			{
				"x": 1.6325507951,
				"y": 2.9394056128,
				"z": -1.8899039778,
				"element": "H" 
			},
			{
				"x": 1.185044861,
				"y": 1.6396117484,
				"z": -2.9918299061,
				"element": "H" 
			},
			{
				"x": -0.3319575486,
				"y": 3.5990911363,
				"z": -1.2039604323,
				"element": "H" 
			},
			{
				"x": -1.371247475,
				"y": 2.5261426738,
				"z": -2.1452875124,
				"element": "H" 
			},
			{
				"x": -0.2822832518,
				"y": 2.2157517285,
				"z": 1.4470864281,
				"element": "H" 
			},
			{
				"x": -4.3051692247,
				"y": 2.6323412611,
				"z": 2.9519591275,
				"element": "H" 
			},
			{
				"x": -3.5380401349,
				"y": 2.9142005594,
				"z": -1.2753539822,
				"element": "H" 
			},
			{
				"x": -0.9288094951,
				"y": 0.1916241697,
				"z": -2.1605857179,
				"element": "H" 
			},
			{
				"x": -0.8934687104,
				"y": -0.0081803168,
				"z": -0.405079297,
				"element": "H" 
			},
			{
				"x": 0.5913314127,
				"y": -1.7326952751,
				"z": -0.9786733867,
				"element": "H" 
			},
			{
				"x": 1.0908185563,
				"y": -0.9628617996,
				"z": -2.4804647921,
				"element": "H" 
			}
		],
		 "valence_orbital": [ 
			{
				"type": "occ",
				"energy": -0.26012,
				"method": "rhf"
			},
			{
				"type": "occ",
				"energy": -0.25729,
				"method": "rhf"
			},
			{
				"type": "occ",
				"energy": -0.25213,
				"method": "rhf"
			},
			{
				"type": "occ",
				"energy": -0.24653,
				"method": "rhf"
			},
			{
				"type": "occ",
				"energy": -0.22566,
				"method": "rhf"
			},
			{
				"type": "unocc",
				"energy": -0.02697,
				"method": "rhf"
			},
			{
				"type": "unocc",
				"energy": -0.02424,
				"method": "rhf"
			},
			{
				"type": "unocc",
				"energy": 0.00645,
				"method": "rhf"
			},
			{
				"type": "unocc",
				"energy": 0.04795,
				"method": "rhf"
			},
			{
				"type": "unocc",
				"energy": 0.0575,
				"method": "rhf"
			}
		],
		"cosmo_sigma_profile": { 
			"-0.025": 0.0,
			"-0.024": 0.0,
			"-0.023": 0.0,
			"-0.022": 0.0,
			"-0.021": 0.0,
			"-0.02": 0.0,
			"-0.019": 0.0,
			"-0.018": 0.0,
			"-0.017": 0.0,
			"-0.016": 0.0,
			"-0.015": 0.0,
			"-0.014": 0.00643503387421,
			"-0.013": 0.56101210969,
			"-0.012": 0.933815454196,
			"-0.011": 1.04862653495,
			"-0.01": 1.17389116287,
			"-0.009": 1.31062645693,
			"-0.008": 2.31174945358,
			"-0.007": 3.91638529139,
			"-0.006": 6.803744419,
			"-0.005": 10.275159866,
			"-0.004": 23.4836647474,
			"-0.003": 40.0523599067,
			"-0.002": 53.3045907687,
			"-0.001": 49.7438073597,
			"0.0": 48.2486813366,
			"0.001": 48.7917423172,
			"0.002": 32.1775004367,
			"0.003": 22.9640504151,
			"0.004": 26.4519181058,
			"0.005": 14.3765308101,
			"0.006": 3.98711226383,
			"0.007": 1.93619572162,
			"0.008": 2.26533969844,
			"0.009": 1.80983403914,
			"0.01": 0.941929809621,
			"0.011": 1.1777839698,
			"0.012": 1.78372086137,
			"0.013": 2.77650917824,
			"0.014": 3.28345808432,
			"0.015": 0.27811146321,
			"0.016": 0.0,
			"0.017": 0.0,
			"0.018": 0.0,
			"0.019": 0.0,
			"0.02": 0.0,
			"0.021": 0.0,
			"0.022": 0.0,
			"0.023": 0.0,
			"0.024": 0.0,
			"0.025": 0.0
		}
	}
}
