{
	 "smiles": "CC(OC1=CC(=CC=C1)C(C)(C)C)C(O)=O", 
	 "Tm": 341.15, 
	 "num_atms": 34, 
	 "gaussian": { 
		 "optdone": 1, 
		 "sigma_profile": "yes", 
		 "theory": "DFT", 
		 "functional": "B3LYP", 
		 "basiset": "6-31G**", 
		 "properties": { 
			 "R2extent": 7561.3099, 
			 "electric_dipole_moment_norm": 4.48902542096, 
			 "electric_quadrupole_moment_norm": 35.8872746647, 
			 "total_energy": -731.910179536, 
			 "HOMO_LUMO_gap": 0.2169, 
			 "cosmo_polarized_energy": -18.82, 
			 "cosmo_cavitation_energy": 36.29, 
			 "cosmo_dispersion_energy": -25.13, 
			 "cosmo_repulsion_energy": 1.97, 
			 "cosmo_total_nonelectrostatic_energy": 13.13, 
			 "SMD_solvation_energy": 7.73 
		},
		"coords": [
			{
				"x": 1.9794719131,
				"y": -5.3425624918,
				"z": 0.5477782511,
				"element": "C" 
			},
			{
				"x": 2.4959515243,
				"y": -4.0414877162,
				"z": -0.088914354,
				"element": "C" 
			},
			{
				"x": 2.1789615284,
				"y": -2.9179690344,
				"z": 0.7050840326,
				"element": "O" 
			},
			{
				"x": 0.9355774855,
				"y": -2.3413693484,
				"z": 0.616899047,
				"element": "C" 
			},
			{
				"x": 0.7504813006,
				"y": -1.2284975998,
				"z": 1.4437811332,
				"element": "C" 
			},
			{
				"x": -0.4554335208,
				"y": -0.519002931,
				"z": 1.4634065048,
				"element": "C" 
			},
			{
				"x": -1.4883121391,
				"y": -0.9606433975,
				"z": 0.6195832324,
				"element": "C" 
			},
			{
				"x": -1.305580631,
				"y": -2.0700973361,
				"z": -0.2032807715,
				"element": "C" 
			},
			{
				"x": -0.1009580384,
				"y": -2.7754082114,
				"z": -0.2169922945,
				"element": "C" 
			},
			{
				"x": -0.6002206032,
				"y": 0.7013631883,
				"z": 2.3924895581,
				"element": "C" 
			},
			{
				"x": 0.4604607106,
				"y": 1.7629521433,
				"z": 2.0157322574,
				"element": "C" 
			},
			{
				"x": -1.991830932,
				"y": 1.3536779416,
				"z": 2.2866731392,
				"element": "C" 
			},
			{
				"x": -0.384757017,
				"y": 0.2598346906,
				"z": 3.8596019574,
				"element": "C" 
			},
			{
				"x": 4.0292090767,
				"y": -4.077056693,
				"z": -0.2093677749,
				"element": "C" 
			},
			{
				"x": 4.4909753378,
				"y": -4.94352764,
				"z": -1.1543435958,
				"element": "O" 
			},
			{
				"x": 4.7909186576,
				"y": -3.4472153786,
				"z": 0.469911937,
				"element": "O" 
			},
			{
				"x": 2.4233127065,
				"y": -5.4617675116,
				"z": 1.539537097,
				"element": "H" 
			},
			{
				"x": 2.2378195248,
				"y": -6.2188848417,
				"z": -0.0553906039,
				"element": "H" 
			},
			{
				"x": 0.8931391677,
				"y": -5.3078978062,
				"z": 0.6555379143,
				"element": "H" 
			},
			{
				"x": 2.0839620277,
				"y": -3.9207193646,
				"z": -1.1027953257,
				"element": "H" 
			},
			{
				"x": 1.5889646784,
				"y": -0.9357107867,
				"z": 2.0667185286,
				"element": "H" 
			},
			{
				"x": -2.4409803028,
				"y": -0.4458797044,
				"z": 0.5987090197,
				"element": "H" 
			},
			{
				"x": -2.1166409821,
				"y": -2.3992329552,
				"z": -0.8471316102,
				"element": "H" 
			},
			{
				"x": 0.0061436774,
				"y": -3.6389925203,
				"z": -0.8628249353,
				"element": "H" 
			},
			{
				"x": 0.3287748047,
				"y": 2.0982545186,
				"z": 0.9817014035,
				"element": "H" 
			},
			{
				"x": 0.3727164471,
				"y": 2.6373947863,
				"z": 2.6704541129,
				"element": "H" 
			},
			{
				"x": 1.478146779,
				"y": 1.374213612,
				"z": 2.1132087553,
				"element": "H" 
			},
			{
				"x": -2.1957061044,
				"y": 1.7183493208,
				"z": 1.2745511911,
				"element": "H" 
			},
			{
				"x": -2.7904399341,
				"y": 0.6594569303,
				"z": 2.5682952824,
				"element": "H" 
			},
			{
				"x": -2.0477893123,
				"y": 2.2123867392,
				"z": 2.9634895075,
				"element": "H" 
			},
			{
				"x": -1.1261937577,
				"y": -0.489461126,
				"z": 4.1561644513,
				"element": "H" 
			},
			{
				"x": 0.6077128535,
				"y": -0.1736263084,
				"z": 4.0128481374,
				"element": "H" 
			},
			{
				"x": -0.4813735628,
				"y": 1.1187031019,
				"z": 4.5333747502,
				"element": "H" 
			},
			{
				"x": 3.7587166366,
				"y": -5.3393762701,
				"z": -1.6481899353,
				"element": "H" 
			}
		],
		 "valence_orbital": [ 
			{
				"type": "occ",
				"energy": -0.31613,
				"method": "rhf"
			},
			{
				"type": "occ",
				"energy": -0.31313,
				"method": "rhf"
			},
			{
				"type": "occ",
				"energy": -0.27516,
				"method": "rhf"
			},
			{
				"type": "occ",
				"energy": -0.24359,
				"method": "rhf"
			},
			{
				"type": "occ",
				"energy": -0.22189,
				"method": "rhf"
			},
			{
				"type": "unocc",
				"energy": -0.00499,
				"method": "rhf"
			},
			{
				"type": "unocc",
				"energy": 0.00209,
				"method": "rhf"
			},
			{
				"type": "unocc",
				"energy": 0.01306,
				"method": "rhf"
			},
			{
				"type": "unocc",
				"energy": 0.04054,
				"method": "rhf"
			},
			{
				"type": "unocc",
				"energy": 0.08093,
				"method": "rhf"
			}
		],
		"cosmo_sigma_profile": { 
			"-0.025": 0.0,
			"-0.024": 0.0,
			"-0.023": 0.0,
			"-0.022": 0.0,
			"-0.021": 0.0,
			"-0.02": 0.110816450709,
			"-0.019": 0.982480321501,
			"-0.018": 1.20254425569,
			"-0.017": 0.628471682073,
			"-0.016": 1.4032416792,
			"-0.015": 0.732709702763,
			"-0.014": 1.27552387223,
			"-0.013": 1.25934421746,
			"-0.012": 1.18104966528,
			"-0.011": 1.82761936143,
			"-0.01": 0.826952262214,
			"-0.009": 2.92381263523,
			"-0.008": 4.18798433357,
			"-0.007": 3.31071837723,
			"-0.006": 5.25155644194,
			"-0.005": 12.5654892514,
			"-0.004": 16.1677839741,
			"-0.003": 26.402629301,
			"-0.002": 33.0281379441,
			"-0.001": 26.7696211001,
			"0.0": 23.679471418,
			"0.001": 28.2751952901,
			"0.002": 16.1602944588,
			"0.003": 8.70505124236,
			"0.004": 12.5378207013,
			"0.005": 10.9957075236,
			"0.006": 9.92346818602,
			"0.007": 4.03024307915,
			"0.008": 3.50457023208,
			"0.009": 4.26815125093,
			"0.01": 6.23144349761,
			"0.011": 5.36654023942,
			"0.012": 4.82243168136,
			"0.013": 1.95028667231,
			"0.014": 1.29512826873,
			"0.015": 0.197273690096,
			"0.016": 0.0,
			"0.017": 0.0,
			"0.018": 0.0,
			"0.019": 0.0,
			"0.02": 0.0,
			"0.021": 0.0,
			"0.022": 0.0,
			"0.023": 0.0,
			"0.024": 0.0,
			"0.025": 0.0
		}
	}
}
