{
	 "smiles": "CC1=CC(C)=C(C#N)C(=S)N1", 
	 "Tm": 529.15, 
	 "num_atms": 19, 
	 "gaussian": { 
		 "optdone": 1, 
		 "sigma_profile": "yes", 
		 "theory": "DFT", 
		 "functional": "B3LYP", 
		 "basiset": "6-31G**", 
		 "properties": { 
			 "R2extent": 3578.3995, 
			 "electric_dipole_moment_norm": 9.42588164895, 
			 "electric_quadrupole_moment_norm": 34.2627828241, 
			 "total_energy": -817.362351978, 
			 "HOMO_LUMO_gap": 0.13583, 
			 "cosmo_polarized_energy": -24.56, 
			 "cosmo_cavitation_energy": 25.49, 
			 "cosmo_dispersion_energy": -18.48, 
			 "cosmo_repulsion_energy": 1.45, 
			 "cosmo_total_nonelectrostatic_energy": 8.45, 
			 "SMD_solvation_energy": 4.69 
		},
		"coords": [
			{
				"x": 3.1649754515,
				"y": 1.1659996377,
				"z": 0.2894965744,
				"element": "C" 
			},
			{
				"x": 1.8674591067,
				"y": 1.2036452773,
				"z": -0.4633847049,
				"element": "C" 
			},
			{
				"x": 0.6400756757,
				"y": 1.4163871521,
				"z": 0.1099658688,
				"element": "C" 
			},
			{
				"x": -0.533714812,
				"y": 1.4340839001,
				"z": -0.6907799368,
				"element": "C" 
			},
			{
				"x": -1.8588835557,
				"y": 1.6713873993,
				"z": -0.0175798244,
				"element": "C" 
			},
			{
				"x": -0.4186128004,
				"y": 1.2323546571,
				"z": -2.0638903122,
				"element": "C" 
			},
			{
				"x": -1.5890667239,
				"y": 1.2466786035,
				"z": -2.8876642909,
				"element": "C" 
			},
			{
				"x": -2.5841069066,
				"y": 1.2723434538,
				"z": -3.490344414,
				"element": "N" 
			},
			{
				"x": 0.8624221262,
				"y": 1.0049195058,
				"z": -2.6988337263,
				"element": "C" 
			},
			{
				"x": 1.141318817,
				"y": 0.7511557393,
				"z": -4.3257265877,
				"element": "S" 
			},
			{
				"x": 1.931124326,
				"y": 1.010990082,
				"z": -1.8111083992,
				"element": "N" 
			},
			{
				"x": 3.6615482893,
				"y": 0.1967365574,
				"z": 0.1663620871,
				"element": "H" 
			},
			{
				"x": 3.8514589477,
				"y": 1.9393162998,
				"z": -0.0737417391,
				"element": "H" 
			},
			{
				"x": 2.9960675673,
				"y": 1.3311440401,
				"z": 1.3544838863,
				"element": "H" 
			},
			{
				"x": 0.5696343812,
				"y": 1.5715274638,
				"z": 1.1800436948,
				"element": "H" 
			},
			{
				"x": -1.8494157472,
				"y": 2.6363992643,
				"z": 0.5017155106,
				"element": "H" 
			},
			{
				"x": -2.6890700207,
				"y": 1.664726231,
				"z": -0.7236846565,
				"element": "H" 
			},
			{
				"x": -2.0387833608,
				"y": 0.9009037399,
				"z": 0.740708277,
				"element": "H" 
			},
			{
				"x": 2.8300692387,
				"y": 0.8521009956,
				"z": -2.254337307,
				"element": "H" 
			}
		],
		 "valence_orbital": [ 
			{
				"type": "occ",
				"energy": -0.32471,
				"method": "rhf"
			},
			{
				"type": "occ",
				"energy": -0.31772,
				"method": "rhf"
			},
			{
				"type": "occ",
				"energy": -0.29245,
				"method": "rhf"
			},
			{
				"type": "occ",
				"energy": -0.21323,
				"method": "rhf"
			},
			{
				"type": "occ",
				"energy": -0.21246,
				"method": "rhf"
			},
			{
				"type": "unocc",
				"energy": -0.07663,
				"method": "rhf"
			},
			{
				"type": "unocc",
				"energy": -0.0447,
				"method": "rhf"
			},
			{
				"type": "unocc",
				"energy": 0.03792,
				"method": "rhf"
			},
			{
				"type": "unocc",
				"energy": 0.04621,
				"method": "rhf"
			},
			{
				"type": "unocc",
				"energy": 0.04911,
				"method": "rhf"
			}
		],
		"cosmo_sigma_profile": { 
			"-0.025": 0.0,
			"-0.024": 0.0,
			"-0.023": 0.0,
			"-0.022": 0.0,
			"-0.021": 0.0,
			"-0.02": 0.0,
			"-0.019": 0.0,
			"-0.018": 0.0,
			"-0.017": 0.129764234528,
			"-0.016": 0.871905434197,
			"-0.015": 1.00478998194,
			"-0.014": 1.00377567592,
			"-0.013": 1.07465514521,
			"-0.012": 1.7301131865,
			"-0.011": 1.22279550002,
			"-0.01": 0.912202930497,
			"-0.009": 1.62455483994,
			"-0.008": 5.02774534707,
			"-0.007": 10.1526001829,
			"-0.006": 15.154804944,
			"-0.005": 12.728387733,
			"-0.004": 15.2958967407,
			"-0.003": 22.5512998053,
			"-0.002": 23.1213469291,
			"-0.001": 12.3891248173,
			"0.0": 6.09127275082,
			"0.001": 3.83447822492,
			"0.002": 2.88884275382,
			"0.003": 3.80072337738,
			"0.004": 5.13505460801,
			"0.005": 4.00972671757,
			"0.006": 5.81297859483,
			"0.007": 6.05032887441,
			"0.008": 7.47187176527,
			"0.009": 10.131973964,
			"0.01": 12.1228733079,
			"0.011": 7.82835149963,
			"0.012": 4.03317409378,
			"0.013": 1.61341641343,
			"0.014": 0.0300344591282,
			"0.015": 0.0,
			"0.016": 0.0,
			"0.017": 0.0,
			"0.018": 0.0,
			"0.019": 0.0,
			"0.02": 0.0,
			"0.021": 0.0,
			"0.022": 0.0,
			"0.023": 0.0,
			"0.024": 0.0,
			"0.025": 0.0
		}
	}
}
