{
	 "smiles": "COC1=CC2=C(NC3=C2CC(C)CC3)C=C1", 
	 "Tm": 333.15, 
	 "num_atms": 33, 
	 "gaussian": { 
		 "optdone": 1, 
		 "sigma_profile": "yes", 
		 "theory": "DFT", 
		 "functional": "B3LYP", 
		 "basiset": "6-31G**", 
		 "properties": { 
			 "R2extent": 4777.1352, 
			 "electric_dipole_moment_norm": 2.19562697651, 
			 "electric_quadrupole_moment_norm": 12.8964017769, 
			 "total_energy": -673.726913531, 
			 "HOMO_LUMO_gap": 0.18823, 
			 "cosmo_polarized_energy": -9.9, 
			 "cosmo_cavitation_energy": 34.13, 
			 "cosmo_dispersion_energy": -25.17, 
			 "cosmo_repulsion_energy": 1.96, 
			 "cosmo_total_nonelectrostatic_energy": 10.92, 
			 "SMD_solvation_energy": 5.3 
		},
		"coords": [
			{
				"x": -2.4241040464,
				"y": -3.851543828,
				"z": -0.3458893018,
				"element": "C" 
			},
			{
				"x": -2.6501437539,
				"y": -3.1910885465,
				"z": 0.8840058614,
				"element": "O" 
			},
			{
				"x": -1.8230825216,
				"y": -2.1441942175,
				"z": 1.2118245856,
				"element": "C" 
			},
			{
				"x": -0.7756705846,
				"y": -1.6878315058,
				"z": 0.4162461512,
				"element": "C" 
			},
			{
				"x": -0.0054010028,
				"y": -0.6007021203,
				"z": 0.8757787832,
				"element": "C" 
			},
			{
				"x": -0.3123964333,
				"y": -0.0039051598,
				"z": 2.1273103974,
				"element": "C" 
			},
			{
				"x": 0.5912673284,
				"y": 1.026914059,
				"z": 2.3281818757,
				"element": "N" 
			},
			{
				"x": 1.4498486929,
				"y": 1.0923551722,
				"z": 1.245408442,
				"element": "C" 
			},
			{
				"x": 1.1174879587,
				"y": 0.1177999355,
				"z": 0.3344438926,
				"element": "C" 
			},
			{
				"x": 1.8629711103,
				"y": -0.0754039555,
				"z": -0.9552298626,
				"element": "C" 
			},
			{
				"x": 2.7345001635,
				"y": 1.1568238482,
				"z": -1.2882953386,
				"element": "C" 
			},
			{
				"x": 3.68510822,
				"y": 0.8710317289,
				"z": -2.455707689,
				"element": "C" 
			},
			{
				"x": 3.5002204915,
				"y": 1.6348808059,
				"z": -0.0378908644,
				"element": "C" 
			},
			{
				"x": 2.55552066,
				"y": 2.0886165427,
				"z": 1.0929983072,
				"element": "C" 
			},
			{
				"x": -1.364610345,
				"y": -0.4664815579,
				"z": 2.9233512071,
				"element": "C" 
			},
			{
				"x": -2.1131597941,
				"y": -1.5365979241,
				"z": 2.4560362335,
				"element": "C" 
			},
			{
				"x": -2.5372564579,
				"y": -3.1715414545,
				"z": -1.2015487354,
				"element": "H" 
			},
			{
				"x": -1.4246571379,
				"y": -4.3061825335,
				"z": -0.3877480187,
				"element": "H" 
			},
			{
				"x": -3.1776935843,
				"y": -4.6385747596,
				"z": -0.4129181236,
				"element": "H" 
			},
			{
				"x": -0.5465641303,
				"y": -2.1495006778,
				"z": -0.5370409349,
				"element": "H" 
			},
			{
				"x": 0.6202825982,
				"y": 1.6312444697,
				"z": 3.1327991927,
				"element": "H" 
			},
			{
				"x": 2.5071017703,
				"y": -0.9677238351,
				"z": -0.8998720017,
				"element": "H" 
			},
			{
				"x": 1.1661040498,
				"y": -0.2630521531,
				"z": -1.7836286096,
				"element": "H" 
			},
			{
				"x": 2.054948844,
				"y": 1.9687466906,
				"z": -1.588618856,
				"element": "H" 
			},
			{
				"x": 4.4084566981,
				"y": 0.0901054021,
				"z": -2.1911738313,
				"element": "H" 
			},
			{
				"x": 4.2500779902,
				"y": 1.7656480108,
				"z": -2.7397174649,
				"element": "H" 
			},
			{
				"x": 3.1359758377,
				"y": 0.5277200715,
				"z": -3.3394107093,
				"element": "H" 
			},
			{
				"x": 4.1754815699,
				"y": 2.4568261059,
				"z": -0.3035912601,
				"element": "H" 
			},
			{
				"x": 4.1316244062,
				"y": 0.8129141309,
				"z": 0.3263645397,
				"element": "H" 
			},
			{
				"x": 2.1446074313,
				"y": 3.082578806,
				"z": 0.8585797651,
				"element": "H" 
			},
			{
				"x": 3.1149471397,
				"y": 2.2043128772,
				"z": 2.031441034,
				"element": "H" 
			},
			{
				"x": -1.5967175586,
				"y": -0.0075650472,
				"z": 3.8806327281,
				"element": "H" 
			},
			{
				"x": -2.9407756099,
				"y": -1.9343293809,
				"z": 3.0335786052,
				"element": "H" 
			}
		],
		 "valence_orbital": [ 
			{
				"type": "occ",
				"energy": -0.30152,
				"method": "rhf"
			},
			{
				"type": "occ",
				"energy": -0.2806,
				"method": "rhf"
			},
			{
				"type": "occ",
				"energy": -0.25817,
				"method": "rhf"
			},
			{
				"type": "occ",
				"energy": -0.18802,
				"method": "rhf"
			},
			{
				"type": "occ",
				"energy": -0.18587,
				"method": "rhf"
			},
			{
				"type": "unocc",
				"energy": 0.00236,
				"method": "rhf"
			},
			{
				"type": "unocc",
				"energy": 0.0474,
				"method": "rhf"
			},
			{
				"type": "unocc",
				"energy": 0.07489,
				"method": "rhf"
			},
			{
				"type": "unocc",
				"energy": 0.08778,
				"method": "rhf"
			},
			{
				"type": "unocc",
				"energy": 0.09233,
				"method": "rhf"
			}
		],
		"cosmo_sigma_profile": { 
			"-0.025": 0.0,
			"-0.024": 0.0,
			"-0.023": 0.0,
			"-0.022": 0.0,
			"-0.021": 0.0,
			"-0.02": 0.0,
			"-0.019": 0.0,
			"-0.018": 0.0,
			"-0.017": 0.0,
			"-0.016": 0.0,
			"-0.015": 0.518346182644,
			"-0.014": 1.38319781521,
			"-0.013": 1.44331637644,
			"-0.012": 1.02542537085,
			"-0.011": 0.876044780623,
			"-0.01": 1.15969794709,
			"-0.009": 1.49387739803,
			"-0.008": 1.71125747585,
			"-0.007": 1.18571282642,
			"-0.006": 4.1854323121,
			"-0.005": 9.97435627732,
			"-0.004": 18.1666768445,
			"-0.003": 22.6947601252,
			"-0.002": 36.6063642062,
			"-0.001": 35.6001328162,
			"0.0": 27.6074331326,
			"0.001": 21.1729558426,
			"0.002": 14.1856015946,
			"0.003": 6.90766077895,
			"0.004": 8.83425813241,
			"0.005": 12.3118938361,
			"0.006": 16.0181936753,
			"0.007": 15.4919311817,
			"0.008": 2.12739568623,
			"0.009": 1.10265084277,
			"0.01": 1.63007760702,
			"0.011": 1.7218184169,
			"0.012": 0.307556833102,
			"0.013": 0.0,
			"0.014": 0.0,
			"0.015": 0.0,
			"0.016": 0.0,
			"0.017": 0.0,
			"0.018": 0.0,
			"0.019": 0.0,
			"0.02": 0.0,
			"0.021": 0.0,
			"0.022": 0.0,
			"0.023": 0.0,
			"0.024": 0.0,
			"0.025": 0.0
		}
	}
}
