{
	 "smiles": "CC(=O)N1CCN(CC(N)=NO)CC1", 
	 "Tm": 473.15, 
	 "num_atms": 30, 
	 "gaussian": { 
		 "optdone": 1, 
		 "sigma_profile": "yes", 
		 "theory": "DFT", 
		 "functional": "B3LYP", 
		 "basiset": "6-31G**", 
		 "properties": { 
			 "R2extent": 4554.0235, 
			 "electric_dipole_moment_norm": 2.96679300424, 
			 "electric_quadrupole_moment_norm": 25.4444709222, 
			 "total_energy": -683.906540435, 
			 "HOMO_LUMO_gap": 0.23677, 
			 "cosmo_polarized_energy": -18.4, 
			 "cosmo_cavitation_energy": 31.81, 
			 "cosmo_dispersion_energy": -22.83, 
			 "cosmo_repulsion_energy": 1.83, 
			 "cosmo_total_nonelectrostatic_energy": 10.81, 
			 "SMD_solvation_energy": 4.35 
		},
		"coords": [
			{
				"x": -4.1587472149,
				"y": -0.9292746267,
				"z": -3.0382529206,
				"element": "C" 
			},
			{
				"x": -3.661815494,
				"y": 0.0417305922,
				"z": -1.9741354525,
				"element": "C" 
			},
			{
				"x": -4.3741655437,
				"y": 0.9581387475,
				"z": -1.5775288523,
				"element": "O" 
			},
			{
				"x": -2.3858716644,
				"y": -0.1455262228,
				"z": -1.4883995483,
				"element": "N" 
			},
			{
				"x": -1.4886018401,
				"y": -1.2425944424,
				"z": -1.8267836941,
				"element": "C" 
			},
			{
				"x": -0.089989655,
				"y": -0.7090098775,
				"z": -2.1549775612,
				"element": "C" 
			},
			{
				"x": 0.4182504249,
				"y": 0.0966923611,
				"z": -1.044976263,
				"element": "N" 
			},
			{
				"x": 1.8055831027,
				"y": 0.52472659,
				"z": -1.2517748902,
				"element": "C" 
			},
			{
				"x": 2.4348698572,
				"y": 0.9699078603,
				"z": 0.0461731141,
				"element": "C" 
			},
			{
				"x": 2.3113049545,
				"y": 0.1086104368,
				"z": 1.1085998129,
				"element": "N" 
			},
			{
				"x": 3.0896444246,
				"y": 2.0805562196,
				"z": 0.0410215833,
				"element": "N" 
			},
			{
				"x": 3.6442282437,
				"y": 2.3029002737,
				"z": 1.3390701984,
				"element": "O" 
			},
			{
				"x": -0.4787496019,
				"y": 1.2308966836,
				"z": -0.7852765997,
				"element": "C" 
			},
			{
				"x": -1.8803842406,
				"y": 0.7339302194,
				"z": -0.436526791,
				"element": "C" 
			},
			{
				"x": -5.1698615702,
				"y": -0.6235332859,
				"z": -3.3047133048,
				"element": "H" 
			},
			{
				"x": -3.5332552706,
				"y": -0.9079498132,
				"z": -3.9367942877,
				"element": "H" 
			},
			{
				"x": -4.1844815382,
				"y": -1.9606527673,
				"z": -2.6710995341,
				"element": "H" 
			},
			{
				"x": -1.41074534,
				"y": -1.935957277,
				"z": -0.9753475403,
				"element": "H" 
			},
			{
				"x": -1.8758348956,
				"y": -1.7996989222,
				"z": -2.6797073538,
				"element": "H" 
			},
			{
				"x": -0.1382343462,
				"y": -0.1283025682,
				"z": -3.0962709146,
				"element": "H" 
			},
			{
				"x": 0.5882096054,
				"y": -1.5540219872,
				"z": -2.3189457208,
				"element": "H" 
			},
			{
				"x": 2.3655385332,
				"y": -0.3395605256,
				"z": -1.630599485,
				"element": "H" 
			},
			{
				"x": 1.9078437613,
				"y": 1.3397803095,
				"z": -1.9853714537,
				"element": "H" 
			},
			{
				"x": 1.4821423685,
				"y": -0.4693411867,
				"z": 1.0716954634,
				"element": "H" 
			},
			{
				"x": 2.5498203451,
				"y": 0.5022203816,
				"z": 2.0079061773,
				"element": "H" 
			},
			{
				"x": 4.0628096108,
				"y": 3.1649008278,
				"z": 1.229161746,
				"element": "H" 
			},
			{
				"x": -0.5340339864,
				"y": 1.9022177908,
				"z": -1.6624888288,
				"element": "H" 
			},
			{
				"x": -0.0774692657,
				"y": 1.8142920609,
				"z": 0.0492464366,
				"element": "H" 
			},
			{
				"x": -2.5820610784,
				"y": 1.5616293044,
				"z": -0.3344267785,
				"element": "H" 
			},
			{
				"x": -1.8450426859,
				"y": 0.1846928434,
				"z": 0.5160232432,
				"element": "H" 
			}
		],
		 "valence_orbital": [ 
			{
				"type": "occ",
				"energy": -0.26965,
				"method": "rhf"
			},
			{
				"type": "occ",
				"energy": -0.2455,
				"method": "rhf"
			},
			{
				"type": "occ",
				"energy": -0.24281,
				"method": "rhf"
			},
			{
				"type": "occ",
				"energy": -0.23261,
				"method": "rhf"
			},
			{
				"type": "occ",
				"energy": -0.21083,
				"method": "rhf"
			},
			{
				"type": "unocc",
				"energy": 0.02594,
				"method": "rhf"
			},
			{
				"type": "unocc",
				"energy": 0.0352,
				"method": "rhf"
			},
			{
				"type": "unocc",
				"energy": 0.07243,
				"method": "rhf"
			},
			{
				"type": "unocc",
				"energy": 0.08394,
				"method": "rhf"
			},
			{
				"type": "unocc",
				"energy": 0.0987,
				"method": "rhf"
			}
		],
		"cosmo_sigma_profile": { 
			"-0.025": 0.0,
			"-0.024": 0.0,
			"-0.023": 0.0,
			"-0.022": 0.0,
			"-0.021": 0.0,
			"-0.02": 0.0,
			"-0.019": 0.0,
			"-0.018": 0.0,
			"-0.017": 0.175109441501,
			"-0.016": 0.734808193947,
			"-0.015": 0.93136560156,
			"-0.014": 1.0407012122,
			"-0.013": 0.639832660051,
			"-0.012": 0.801171298305,
			"-0.011": 1.76400597554,
			"-0.01": 1.99054212028,
			"-0.009": 2.5676647461,
			"-0.008": 2.11991853347,
			"-0.007": 2.94909015422,
			"-0.006": 11.4559389445,
			"-0.005": 16.5096468308,
			"-0.004": 23.8656430126,
			"-0.003": 33.8289860177,
			"-0.002": 30.3903707641,
			"-0.001": 20.9901164592,
			"0.0": 12.7896091119,
			"0.001": 8.40119369899,
			"0.002": 6.65743833314,
			"0.003": 6.16726263578,
			"0.004": 4.97916353558,
			"0.005": 6.68555187247,
			"0.006": 5.20396855794,
			"0.007": 5.33929484216,
			"0.008": 6.59278825046,
			"0.009": 5.89025347383,
			"0.01": 4.23634451017,
			"0.011": 4.7578961307,
			"0.012": 3.79039453454,
			"0.013": 3.69732039591,
			"0.014": 6.05635698166,
			"0.015": 2.87743062134,
			"0.016": 0.396056362425,
			"0.017": 0.0,
			"0.018": 0.0,
			"0.019": 0.0,
			"0.02": 0.0,
			"0.021": 0.0,
			"0.022": 0.0,
			"0.023": 0.0,
			"0.024": 0.0,
			"0.025": 0.0
		}
	}
}
