{
	 "smiles": "COC1=CC2=C(C=C1)C=C(CO2)C=O", 
	 "Tm": 356.15, 
	 "num_atms": 24, 
	 "gaussian": { 
		 "optdone": 1, 
		 "sigma_profile": "yes", 
		 "theory": "DFT", 
		 "functional": "B3LYP", 
		 "basiset": "6-31G**", 
		 "properties": { 
			 "R2extent": 3972.2331, 
			 "electric_dipole_moment_norm": 3.92840359179, 
			 "electric_quadrupole_moment_norm": 23.4833722559, 
			 "total_energy": -650.831306811, 
			 "HOMO_LUMO_gap": 0.13567, 
			 "cosmo_polarized_energy": -10.96, 
			 "cosmo_cavitation_energy": 28.22, 
			 "cosmo_dispersion_energy": -20.95, 
			 "cosmo_repulsion_energy": 1.63, 
			 "cosmo_total_nonelectrostatic_energy": 8.9, 
			 "SMD_solvation_energy": 6.72 
		},
		"coords": [
			{
				"x": -3.0104002026,
				"y": 1.7545637363,
				"z": -0.5343336936,
				"element": "C" 
			},
			{
				"x": -1.6541843078,
				"y": 1.9614141388,
				"z": -0.9079115168,
				"element": "O" 
			},
			{
				"x": -0.7174474178,
				"y": 1.0793128528,
				"z": -0.4758363319,
				"element": "C" 
			},
			{
				"x": -1.0018516225,
				"y": -0.0337890834,
				"z": 0.323038871,
				"element": "C" 
			},
			{
				"x": 0.0388453205,
				"y": -0.8803102559,
				"z": 0.7131576422,
				"element": "C" 
			},
			{
				"x": 1.3695516359,
				"y": -0.627873759,
				"z": 0.3129738211,
				"element": "C" 
			},
			{
				"x": 1.6207186811,
				"y": 0.5006642702,
				"z": -0.4905798905,
				"element": "C" 
			},
			{
				"x": 0.6033982577,
				"y": 1.3492450012,
				"z": -0.8861413088,
				"element": "C" 
			},
			{
				"x": 2.389628848,
				"y": -1.5432927153,
				"z": 0.7532149484,
				"element": "C" 
			},
			{
				"x": 2.0879164831,
				"y": -2.6121811193,
				"z": 1.5253874248,
				"element": "C" 
			},
			{
				"x": 0.6720133654,
				"y": -2.8904619202,
				"z": 1.9576288817,
				"element": "C" 
			},
			{
				"x": -0.3065748002,
				"y": -1.9375820175,
				"z": 1.4849156468,
				"element": "O" 
			},
			{
				"x": 3.1162753233,
				"y": -3.5415637184,
				"z": 1.9739110055,
				"element": "C" 
			},
			{
				"x": 2.8903118802,
				"y": -4.520295657,
				"z": 2.6724091048,
				"element": "O" 
			},
			{
				"x": -3.1366232948,
				"y": 1.7868709335,
				"z": 0.5547206277,
				"element": "H" 
			},
			{
				"x": -3.573233606,
				"y": 2.5716468992,
				"z": -0.9872821978,
				"element": "H" 
			},
			{
				"x": -3.3902766488,
				"y": 0.7981211753,
				"z": -0.9137067346,
				"element": "H" 
			},
			{
				"x": -2.0041596927,
				"y": -0.2699907575,
				"z": 0.6555026574,
				"element": "H" 
			},
			{
				"x": 2.6426160598,
				"y": 0.7009576099,
				"z": -0.8022640686,
				"element": "H" 
			},
			{
				"x": 0.7897216688,
				"y": 2.2195813391,
				"z": -1.5046183295,
				"element": "H" 
			},
			{
				"x": 3.421860777,
				"y": -1.3655588019,
				"z": 0.4550859738,
				"element": "H" 
			},
			{
				"x": 0.6027390191,
				"y": -2.9071685236,
				"z": 3.0522268319,
				"element": "H" 
			},
			{
				"x": 0.3530402837,
				"y": -3.8800424545,
				"z": 1.6080511117,
				"element": "H" 
			},
			{
				"x": 4.1478139895,
				"y": -3.3002671728,
				"z": 1.6330495234,
				"element": "H" 
			}
		],
		 "valence_orbital": [ 
			{
				"type": "occ",
				"energy": -0.32933,
				"method": "rhf"
			},
			{
				"type": "occ",
				"energy": -0.28247,
				"method": "rhf"
			},
			{
				"type": "occ",
				"energy": -0.24852,
				"method": "rhf"
			},
			{
				"type": "occ",
				"energy": -0.24381,
				"method": "rhf"
			},
			{
				"type": "occ",
				"energy": -0.20536,
				"method": "rhf"
			},
			{
				"type": "unocc",
				"energy": -0.06969,
				"method": "rhf"
			},
			{
				"type": "unocc",
				"energy": -0.00295,
				"method": "rhf"
			},
			{
				"type": "unocc",
				"energy": 0.02025,
				"method": "rhf"
			},
			{
				"type": "unocc",
				"energy": 0.07199,
				"method": "rhf"
			},
			{
				"type": "unocc",
				"energy": 0.08904,
				"method": "rhf"
			}
		],
		"cosmo_sigma_profile": { 
			"-0.025": 0.0,
			"-0.024": 0.0,
			"-0.023": 0.0,
			"-0.022": 0.0,
			"-0.021": 0.0,
			"-0.02": 0.0,
			"-0.019": 0.0,
			"-0.018": 0.0,
			"-0.017": 0.0,
			"-0.016": 0.0,
			"-0.015": 0.0,
			"-0.014": 0.0,
			"-0.013": 0.0,
			"-0.012": 0.0,
			"-0.011": 0.0,
			"-0.01": 0.0,
			"-0.009": 0.0,
			"-0.008": 2.54171074323,
			"-0.007": 7.84657486044,
			"-0.006": 18.137255286,
			"-0.005": 20.6379395438,
			"-0.004": 19.4717768323,
			"-0.003": 18.1407173336,
			"-0.002": 15.1871224734,
			"-0.001": 14.2677677151,
			"0.0": 13.8701984004,
			"0.001": 13.0172826854,
			"0.002": 13.951218923,
			"0.003": 19.6615325371,
			"0.004": 11.8119918022,
			"0.005": 7.51677900359,
			"0.006": 3.34148030318,
			"0.007": 3.38996270492,
			"0.008": 4.60744512033,
			"0.009": 4.45064301077,
			"0.01": 2.70204035963,
			"0.011": 2.93736841739,
			"0.012": 4.19068721229,
			"0.013": 2.84396198491,
			"0.014": 0.733677465922,
			"0.015": 0.0,
			"0.016": 0.0,
			"0.017": 0.0,
			"0.018": 0.0,
			"0.019": 0.0,
			"0.02": 0.0,
			"0.021": 0.0,
			"0.022": 0.0,
			"0.023": 0.0,
			"0.024": 0.0,
			"0.025": 0.0
		}
	}
}
