{
	 "smiles": "OC(=O)C1=C(C=CC=N1)C(F)(F)F", 
	 "Tm": 381.15, 
	 "num_atms": 17, 
	 "gaussian": { 
		 "optdone": 1, 
		 "sigma_profile": "yes", 
		 "theory": "DFT", 
		 "functional": "B3LYP", 
		 "basiset": "6-31G**", 
		 "properties": { 
			 "R2extent": 2906.5773, 
			 "electric_dipole_moment_norm": 3.20905048262, 
			 "electric_quadrupole_moment_norm": 5.4409440146, 
			 "total_energy": -773.87774464, 
			 "HOMO_LUMO_gap": 0.20464, 
			 "cosmo_polarized_energy": -12.7, 
			 "cosmo_cavitation_energy": 23.45, 
			 "cosmo_dispersion_energy": -16.92, 
			 "cosmo_repulsion_energy": 1.29, 
			 "cosmo_total_nonelectrostatic_energy": 7.82, 
			 "SMD_solvation_energy": 5.15 
		},
		"coords": [
			{
				"x": -2.5999783132,
				"y": 3.6357691868,
				"z": -0.8322019823,
				"element": "O" 
			},
			{
				"x": -1.5869873374,
				"y": 2.9799033501,
				"z": -0.2383785533,
				"element": "C" 
			},
			{
				"x": -1.1163218438,
				"y": 3.2977229346,
				"z": 0.8310236467,
				"element": "O" 
			},
			{
				"x": -1.0877830361,
				"y": 1.8245457839,
				"z": -1.0714504781,
				"element": "C" 
			},
			{
				"x": -0.6740122732,
				"y": 0.6093845981,
				"z": -0.4912645268,
				"element": "C" 
			},
			{
				"x": -0.1599139062,
				"y": -0.3735915997,
				"z": -1.3386713365,
				"element": "C" 
			},
			{
				"x": -0.0629336595,
				"y": -0.1193856869,
				"z": -2.703513218,
				"element": "C" 
			},
			{
				"x": -0.5085045317,
				"y": 1.1130160467,
				"z": -3.1780207092,
				"element": "C" 
			},
			{
				"x": -1.0177399716,
				"y": 2.0607358964,
				"z": -2.3863827244,
				"element": "N" 
			},
			{
				"x": -0.7879233699,
				"y": 0.307071927,
				"z": 0.9898738274,
				"element": "C" 
			},
			{
				"x": -1.9832146196,
				"y": 0.6824446912,
				"z": 1.4857533954,
				"element": "F" 
			},
			{
				"x": -0.6730636794,
				"y": -1.0266273985,
				"z": 1.2097250844,
				"element": "F" 
			},
			{
				"x": 0.1748515336,
				"y": 0.9041149718,
				"z": 1.7095439096,
				"element": "F" 
			},
			{
				"x": -2.8198226288,
				"y": 4.3761078027,
				"z": -0.2413897159,
				"element": "H" 
			},
			{
				"x": 0.1495374425,
				"y": -1.3267982266,
				"z": -0.9267068963,
				"element": "H" 
			},
			{
				"x": 0.3375844927,
				"y": -0.8633292572,
				"z": -3.3840918534,
				"element": "H" 
			},
			{
				"x": -0.4609742986,
				"y": 1.3513149796,
				"z": -4.2385478695,
				"element": "H" 
			}
		],
		 "valence_orbital": [ 
			{
				"type": "occ",
				"energy": -0.32669,
				"method": "rhf"
			},
			{
				"type": "occ",
				"energy": -0.31461,
				"method": "rhf"
			},
			{
				"type": "occ",
				"energy": -0.30071,
				"method": "rhf"
			},
			{
				"type": "occ",
				"energy": -0.28761,
				"method": "rhf"
			},
			{
				"type": "occ",
				"energy": -0.27122,
				"method": "rhf"
			},
			{
				"type": "unocc",
				"energy": -0.06658,
				"method": "rhf"
			},
			{
				"type": "unocc",
				"energy": -0.05208,
				"method": "rhf"
			},
			{
				"type": "unocc",
				"energy": 0.02481,
				"method": "rhf"
			},
			{
				"type": "unocc",
				"energy": 0.0747,
				"method": "rhf"
			},
			{
				"type": "unocc",
				"energy": 0.09022,
				"method": "rhf"
			}
		],
		"cosmo_sigma_profile": { 
			"-0.025": 0.0,
			"-0.024": 0.0,
			"-0.023": 0.0,
			"-0.022": 0.0,
			"-0.021": 0.0,
			"-0.02": 0.00264579155453,
			"-0.019": 0.619209064729,
			"-0.018": 1.16597151177,
			"-0.017": 0.556078665246,
			"-0.016": 0.874340844532,
			"-0.015": 0.684185741641,
			"-0.014": 0.64868770266,
			"-0.013": 0.924950190258,
			"-0.012": 0.573350600932,
			"-0.011": 0.841986033074,
			"-0.01": 0.603920801249,
			"-0.009": 2.02746663045,
			"-0.008": 7.08719749569,
			"-0.007": 8.72062085196,
			"-0.006": 6.72724796598,
			"-0.005": 6.01770138288,
			"-0.004": 6.91429905016,
			"-0.003": 10.1702752059,
			"-0.002": 15.7342949687,
			"-0.001": 15.3039053687,
			"0.0": 15.3963632087,
			"0.001": 10.9774020234,
			"0.002": 21.8243661801,
			"0.003": 15.6275554536,
			"0.004": 4.59292756659,
			"0.005": 4.01410163566,
			"0.006": 4.76002033088,
			"0.007": 2.81483102034,
			"0.008": 3.82706697703,
			"0.009": 4.70729269163,
			"0.01": 5.37993045341,
			"0.011": 4.70818575211,
			"0.012": 1.14498088301,
			"0.013": 1.17449800398,
			"0.014": 1.11286299717,
			"0.015": 0.633233172234,
			"0.016": 0.0,
			"0.017": 0.0,
			"0.018": 0.0,
			"0.019": 0.0,
			"0.02": 0.0,
			"0.021": 0.0,
			"0.022": 0.0,
			"0.023": 0.0,
			"0.024": 0.0,
			"0.025": 0.0
		}
	}
}
