{
	 "smiles": "COC1=CC2=C(C=C1)N=C(C)C=C2C(O)=O", 
	 "Tm": 553.15, 
	 "num_atms": 27, 
	 "gaussian": { 
		 "optdone": 1, 
		 "sigma_profile": "yes", 
		 "theory": "DFT", 
		 "functional": "B3LYP", 
		 "basiset": "6-31G**", 
		 "properties": { 
			 "R2extent": 4192.3884, 
			 "electric_dipole_moment_norm": 2.99559688209, 
			 "electric_quadrupole_moment_norm": 16.7701646587, 
			 "total_energy": -744.339374288, 
			 "HOMO_LUMO_gap": 0.15825, 
			 "cosmo_polarized_energy": -14.99, 
			 "cosmo_cavitation_energy": 31.19, 
			 "cosmo_dispersion_energy": -22.69, 
			 "cosmo_repulsion_energy": 1.75, 
			 "cosmo_total_nonelectrostatic_energy": 10.25, 
			 "SMD_solvation_energy": 5.71 
		},
		"coords": [
			{
				"x": -2.2930205964,
				"y": 1.6983101533,
				"z": 1.9666714244,
				"element": "C" 
			},
			{
				"x": -2.5559121475,
				"y": 0.6934810765,
				"z": 0.996487924,
				"element": "O" 
			},
			{
				"x": -1.5021402722,
				"y": 0.0612370347,
				"z": 0.4171330542,
				"element": "C" 
			},
			{
				"x": -0.17136749,
				"y": 0.3259573835,
				"z": 0.6915201922,
				"element": "C" 
			},
			{
				"x": 0.8558190553,
				"y": -0.4104088328,
				"z": 0.0322196399,
				"element": "C" 
			},
			{
				"x": 0.4922960566,
				"y": -1.4492835844,
				"z": -0.8845590854,
				"element": "C" 
			},
			{
				"x": -0.8877510504,
				"y": -1.6773103903,
				"z": -1.149064415,
				"element": "C" 
			},
			{
				"x": -1.8599160304,
				"y": -0.9418260884,
				"z": -0.5250376194,
				"element": "C" 
			},
			{
				"x": 1.3952360935,
				"y": -2.2476682848,
				"z": -1.5171464646,
				"element": "N" 
			},
			{
				"x": 2.6826633062,
				"y": -2.0825586909,
				"z": -1.2645297346,
				"element": "C" 
			},
			{
				"x": 3.660229725,
				"y": -2.9971144941,
				"z": -1.9583374949,
				"element": "C" 
			},
			{
				"x": 3.148321317,
				"y": -1.0733233587,
				"z": -0.3817574537,
				"element": "C" 
			},
			{
				"x": 2.2602189159,
				"y": -0.2201287823,
				"z": 0.2388060281,
				"element": "C" 
			},
			{
				"x": 2.8585981126,
				"y": 0.8690264274,
				"z": 1.0875964372,
				"element": "C" 
			},
			{
				"x": 2.2376562922,
				"y": 2.080039345,
				"z": 1.0463027952,
				"element": "O" 
			},
			{
				"x": 3.8584797989,
				"y": 0.7249066474,
				"z": 1.7476699301,
				"element": "O" 
			},
			{
				"x": -3.2674488376,
				"y": 2.0635650065,
				"z": 2.2926605696,
				"element": "H" 
			},
			{
				"x": -1.7187490063,
				"y": 2.5296677104,
				"z": 1.538479083,
				"element": "H" 
			},
			{
				"x": -1.749832432,
				"y": 1.292051501,
				"z": 2.8287777584,
				"element": "H" 
			},
			{
				"x": 0.0921842991,
				"y": 1.0529496511,
				"z": 1.4485488028,
				"element": "H" 
			},
			{
				"x": -1.1361287639,
				"y": -2.4627343466,
				"z": -1.8549213075,
				"element": "H" 
			},
			{
				"x": -2.9148005488,
				"y": -1.1113358501,
				"z": -0.7135649094,
				"element": "H" 
			},
			{
				"x": 4.3611748534,
				"y": -2.4289298991,
				"z": -2.5808117521,
				"element": "H" 
			},
			{
				"x": 3.1188072252,
				"y": -3.7022090433,
				"z": -2.5905607682,
				"element": "H" 
			},
			{
				"x": 4.2580397662,
				"y": -3.5586231712,
				"z": -1.2311809004,
				"element": "H" 
			},
			{
				"x": 4.2110896398,
				"y": -0.9484586199,
				"z": -0.2013433632,
				"element": "H" 
			},
			{
				"x": 1.5258527184,
				"y": 2.0615215003,
				"z": 0.3889416293,
				"element": "H" 
			}
		],
		 "valence_orbital": [ 
			{
				"type": "occ",
				"energy": -0.31114,
				"method": "rhf"
			},
			{
				"type": "occ",
				"energy": -0.28039,
				"method": "rhf"
			},
			{
				"type": "occ",
				"energy": -0.26195,
				"method": "rhf"
			},
			{
				"type": "occ",
				"energy": -0.25219,
				"method": "rhf"
			},
			{
				"type": "occ",
				"energy": -0.2295,
				"method": "rhf"
			},
			{
				"type": "unocc",
				"energy": -0.07125,
				"method": "rhf"
			},
			{
				"type": "unocc",
				"energy": -0.02567,
				"method": "rhf"
			},
			{
				"type": "unocc",
				"energy": -0.01221,
				"method": "rhf"
			},
			{
				"type": "unocc",
				"energy": 0.03766,
				"method": "rhf"
			},
			{
				"type": "unocc",
				"energy": 0.07599,
				"method": "rhf"
			}
		],
		"cosmo_sigma_profile": { 
			"-0.025": 0.0,
			"-0.024": 0.0,
			"-0.023": 0.0,
			"-0.022": 0.0,
			"-0.021": 0.0,
			"-0.02": 0.0,
			"-0.019": 0.0,
			"-0.018": 0.0,
			"-0.017": 0.6410275922,
			"-0.016": 0.945964910942,
			"-0.015": 0.543909405763,
			"-0.014": 0.381636192787,
			"-0.013": 1.2587741267,
			"-0.012": 1.13486516348,
			"-0.011": 1.30153439932,
			"-0.01": 0.850428063555,
			"-0.009": 0.785348427566,
			"-0.008": 1.47565686695,
			"-0.007": 6.81666055637,
			"-0.006": 14.1168015382,
			"-0.005": 19.7733404688,
			"-0.004": 23.6610296048,
			"-0.003": 18.5131646177,
			"-0.002": 14.6860328452,
			"-0.001": 16.4527900122,
			"0.0": 20.2849428829,
			"0.001": 18.6425566955,
			"0.002": 19.9513817086,
			"0.003": 12.5787372275,
			"0.004": 6.94749428467,
			"0.005": 5.98586334447,
			"0.006": 5.4550615361,
			"0.007": 5.70178323055,
			"0.008": 4.65703294788,
			"0.009": 6.66225237158,
			"0.01": 6.53343771538,
			"0.011": 6.19659752851,
			"0.012": 3.88711915842,
			"0.013": 1.57022070106,
			"0.014": 0.502570710639,
			"0.015": 0.256299582706,
			"0.016": 0.0,
			"0.017": 0.0,
			"0.018": 0.0,
			"0.019": 0.0,
			"0.02": 0.0,
			"0.021": 0.0,
			"0.022": 0.0,
			"0.023": 0.0,
			"0.024": 0.0,
			"0.025": 0.0
		}
	}
}
