{
	 "smiles": "CCC(CC)(CCC#N)C=O", 
	 "Tm": 370.15, 
	 "num_atms": 26, 
	 "gaussian": { 
		 "optdone": 1, 
		 "sigma_profile": "yes", 
		 "theory": "DFT", 
		 "functional": "B3LYP", 
		 "basiset": "6-31G**", 
		 "properties": { 
			 "R2extent": 2057.2048, 
			 "electric_dipole_moment_norm": 4.57033569336, 
			 "electric_quadrupole_moment_norm": 14.2624663214, 
			 "total_energy": -481.953842737, 
			 "HOMO_LUMO_gap": 0.22175, 
			 "cosmo_polarized_energy": -12.94, 
			 "cosmo_cavitation_energy": 28.02, 
			 "cosmo_dispersion_energy": -18.79, 
			 "cosmo_repulsion_energy": 1.51, 
			 "cosmo_total_nonelectrostatic_energy": 10.74, 
			 "SMD_solvation_energy": 6.72 
		},
		"coords": [
			{
				"x": 0.4891260379,
				"y": 2.569097602,
				"z": 1.056404692,
				"element": "C" 
			},
			{
				"x": -0.6710601132,
				"y": 1.630692198,
				"z": 1.4103865002,
				"element": "C" 
			},
			{
				"x": -0.5320369143,
				"y": 0.1570896591,
				"z": 0.9348223109,
				"element": "C" 
			},
			{
				"x": -0.3202845046,
				"y": 0.021916452,
				"z": -0.5897223856,
				"element": "C" 
			},
			{
				"x": -1.3522066027,
				"y": 0.7505903215,
				"z": -1.4606498423,
				"element": "C" 
			},
			{
				"x": 0.6153313348,
				"y": -0.5272168195,
				"z": 1.7460335809,
				"element": "C" 
			},
			{
				"x": 0.9195812746,
				"y": -2.0071720872,
				"z": 1.3998706002,
				"element": "C" 
			},
			{
				"x": 1.8256076165,
				"y": -2.181079873,
				"z": 0.2605383482,
				"element": "C" 
			},
			{
				"x": 2.563352611,
				"y": -2.3128743654,
				"z": -0.6260298234,
				"element": "N" 
			},
			{
				"x": -1.8017890647,
				"y": -0.5774122959,
				"z": 1.3679096278,
				"element": "C" 
			},
			{
				"x": -2.3215863154,
				"y": -1.4937185628,
				"z": 0.7679530606,
				"element": "O" 
			},
			{
				"x": 0.2838176179,
				"y": 3.5753428068,
				"z": 1.4348532811,
				"element": "H" 
			},
			{
				"x": 1.4373366243,
				"y": 2.2459795327,
				"z": 1.4967032448,
				"element": "H" 
			},
			{
				"x": 0.6347343554,
				"y": 2.6479436388,
				"z": -0.0248061077,
				"element": "H" 
			},
			{
				"x": -0.8114437717,
				"y": 1.6301808944,
				"z": 2.5000937942,
				"element": "H" 
			},
			{
				"x": -1.5971602636,
				"y": 2.0448671482,
				"z": 0.9939433378,
				"element": "H" 
			},
			{
				"x": -0.3484267951,
				"y": -1.04031781,
				"z": -0.8473950031,
				"element": "H" 
			},
			{
				"x": 0.6876755498,
				"y": 0.370788721,
				"z": -0.8401812328,
				"element": "H" 
			},
			{
				"x": -1.3223746764,
				"y": 1.8364551136,
				"z": -1.3252699429,
				"element": "H" 
			},
			{
				"x": -2.36850112,
				"y": 0.4076295478,
				"z": -1.2451506163,
				"element": "H" 
			},
			{
				"x": -1.1555741056,
				"y": 0.5490764237,
				"z": -2.5180089687,
				"element": "H" 
			},
			{
				"x": 0.3547096911,
				"y": -0.486823869,
				"z": 2.8112968449,
				"element": "H" 
			},
			{
				"x": 1.5316004062,
				"y": 0.0592312676,
				"z": 1.6335408086,
				"element": "H" 
			},
			{
				"x": 1.393988618,
				"y": -2.4872797258,
				"z": 2.2634842121,
				"element": "H" 
			},
			{
				"x": -0.0044381136,
				"y": -2.5611282112,
				"z": 1.1994974547,
				"element": "H" 
			},
			{
				"x": -2.2196793767,
				"y": -0.2391577072,
				"z": 2.3462822237,
				"element": "H" 
			}
		],
		 "valence_orbital": [ 
			{
				"type": "occ",
				"energy": -0.33991,
				"method": "rhf"
			},
			{
				"type": "occ",
				"energy": -0.33038,
				"method": "rhf"
			},
			{
				"type": "occ",
				"energy": -0.3205,
				"method": "rhf"
			},
			{
				"type": "occ",
				"energy": -0.31175,
				"method": "rhf"
			},
			{
				"type": "occ",
				"energy": -0.25987,
				"method": "rhf"
			},
			{
				"type": "unocc",
				"energy": -0.03812,
				"method": "rhf"
			},
			{
				"type": "unocc",
				"energy": 0.03176,
				"method": "rhf"
			},
			{
				"type": "unocc",
				"energy": 0.041,
				"method": "rhf"
			},
			{
				"type": "unocc",
				"energy": 0.07233,
				"method": "rhf"
			},
			{
				"type": "unocc",
				"energy": 0.0893,
				"method": "rhf"
			}
		],
		"cosmo_sigma_profile": { 
			"-0.025": 0.0,
			"-0.024": 0.0,
			"-0.023": 0.0,
			"-0.022": 0.0,
			"-0.021": 0.0,
			"-0.02": 0.0,
			"-0.019": 0.0,
			"-0.018": 0.0,
			"-0.017": 0.0,
			"-0.016": 0.0,
			"-0.015": 0.0,
			"-0.014": 0.0,
			"-0.013": 0.0,
			"-0.012": 0.0,
			"-0.011": 0.0,
			"-0.01": 0.0,
			"-0.009": 0.150229342298,
			"-0.008": 2.92112903657,
			"-0.007": 6.30040276063,
			"-0.006": 13.4258733769,
			"-0.005": 17.3641672674,
			"-0.004": 13.9888723508,
			"-0.003": 23.3179316854,
			"-0.002": 26.76903851,
			"-0.001": 21.0155443667,
			"0.0": 19.1372709077,
			"0.001": 18.0305691686,
			"0.002": 7.43503301103,
			"0.003": 3.87721705516,
			"0.004": 4.34203735771,
			"0.005": 3.0533845192,
			"0.006": 4.18492242884,
			"0.007": 4.27262737462,
			"0.008": 4.10169873349,
			"0.009": 4.75106396738,
			"0.01": 5.60039537151,
			"0.011": 6.94698055021,
			"0.012": 4.34390923483,
			"0.013": 2.47367315504,
			"0.014": 0.719462567194,
			"0.015": 0.0,
			"0.016": 0.0,
			"0.017": 0.0,
			"0.018": 0.0,
			"0.019": 0.0,
			"0.02": 0.0,
			"0.021": 0.0,
			"0.022": 0.0,
			"0.023": 0.0,
			"0.024": 0.0,
			"0.025": 0.0
		}
	}
}
