{
	 "smiles": "FC1=C(F)C(C#N)=C(F)C(C#N)=C1F", 
	 "Tm": 351.15, 
	 "num_atms": 14, 
	 "gaussian": { 
		 "optdone": 1, 
		 "sigma_profile": "yes", 
		 "theory": "DFT", 
		 "functional": "B3LYP", 
		 "basiset": "6-31G**", 
		 "properties": { 
			 "R2extent": 3009.7535, 
			 "electric_dipole_moment_norm": 2.74742124364, 
			 "electric_quadrupole_moment_norm": 14.2495255672, 
			 "total_energy": -813.618198185, 
			 "HOMO_LUMO_gap": 0.19775, 
			 "cosmo_polarized_energy": -11.04, 
			 "cosmo_cavitation_energy": 24.24, 
			 "cosmo_dispersion_energy": -15.89, 
			 "cosmo_repulsion_energy": 1.17, 
			 "cosmo_total_nonelectrostatic_energy": 9.53, 
			 "SMD_solvation_energy": 8.82 
		},
		"coords": [
			{
				"x": -2.0661927338,
				"y": -1.9088748791,
				"z": -1.0741959264,
				"element": "F" 
			},
			{
				"x": -1.3258569968,
				"y": -0.8023853551,
				"z": -1.023602644,
				"element": "C" 
			},
			{
				"x": -1.5822783806,
				"y": 0.2562462043,
				"z": -1.8902405614,
				"element": "C" 
			},
			{
				"x": -2.5738881356,
				"y": 0.1436133153,
				"z": -2.7644984684,
				"element": "F" 
			},
			{
				"x": -0.8151735138,
				"y": 1.4327294715,
				"z": -1.8554586277,
				"element": "C" 
			},
			{
				"x": -1.0889207007,
				"y": 2.5097876548,
				"z": -2.7494172162,
				"element": "C" 
			},
			{
				"x": -1.3153127372,
				"y": 3.3848552077,
				"z": -3.4794899935,
				"element": "N" 
			},
			{
				"x": 0.2223793079,
				"y": 1.5117027248,
				"z": -0.9178242303,
				"element": "C" 
			},
			{
				"x": 0.9603348187,
				"y": 2.6147091671,
				"z": -0.8673784676,
				"element": "F" 
			},
			{
				"x": 0.5067521444,
				"y": 0.4649138099,
				"z": -0.0316612153,
				"element": "C" 
			},
			{
				"x": 1.5678534106,
				"y": 0.5646609313,
				"z": 0.9161089649,
				"element": "C" 
			},
			{
				"x": 2.4312848729,
				"y": 0.6417186896,
				"z": 1.689769404,
				"element": "N" 
			},
			{
				"x": -0.2872113922,
				"y": -0.6919011029,
				"z": -0.1035364335,
				"element": "C" 
			},
			{
				"x": -0.0487699637,
				"y": -1.7050758391,
				"z": 0.7192254153,
				"element": "F" 
			}
		],
		 "valence_orbital": [ 
			{
				"type": "occ",
				"energy": -0.37049,
				"method": "rhf"
			},
			{
				"type": "occ",
				"energy": -0.36503,
				"method": "rhf"
			},
			{
				"type": "occ",
				"energy": -0.36167,
				"method": "rhf"
			},
			{
				"type": "occ",
				"energy": -0.30327,
				"method": "rhf"
			},
			{
				"type": "occ",
				"energy": -0.29897,
				"method": "rhf"
			},
			{
				"type": "unocc",
				"energy": -0.10122,
				"method": "rhf"
			},
			{
				"type": "unocc",
				"energy": -0.07986,
				"method": "rhf"
			},
			{
				"type": "unocc",
				"energy": -0.02187,
				"method": "rhf"
			},
			{
				"type": "unocc",
				"energy": 0.00342,
				"method": "rhf"
			},
			{
				"type": "unocc",
				"energy": 0.00631,
				"method": "rhf"
			}
		],
		"cosmo_sigma_profile": { 
			"-0.025": 0.0,
			"-0.024": 0.0,
			"-0.023": 0.0,
			"-0.022": 0.0,
			"-0.021": 0.0,
			"-0.02": 0.0,
			"-0.019": 0.0,
			"-0.018": 0.0,
			"-0.017": 0.0,
			"-0.016": 0.0,
			"-0.015": 0.0,
			"-0.014": 0.0,
			"-0.013": 0.0,
			"-0.012": 0.0,
			"-0.011": 0.0,
			"-0.01": 0.323518413476,
			"-0.009": 1.34436563749,
			"-0.008": 2.77634843594,
			"-0.007": 17.2769305751,
			"-0.006": 18.22960976,
			"-0.005": 9.88246924375,
			"-0.004": 7.50234166097,
			"-0.003": 7.35792085323,
			"-0.002": 9.21283873031,
			"-0.001": 10.3335663892,
			"0.0": 20.4786884497,
			"0.001": 37.4454855813,
			"0.002": 9.52271283539,
			"0.003": 5.27279766685,
			"0.004": 5.08970331552,
			"0.005": 4.74483531373,
			"0.006": 6.23291824848,
			"0.007": 6.48272884888,
			"0.008": 5.83613082572,
			"0.009": 5.58288967423,
			"0.01": 4.65956307858,
			"0.011": 3.97757532185,
			"0.012": 0.722116199356,
			"0.013": 0.0,
			"0.014": 0.0,
			"0.015": 0.0,
			"0.016": 0.0,
			"0.017": 0.0,
			"0.018": 0.0,
			"0.019": 0.0,
			"0.02": 0.0,
			"0.021": 0.0,
			"0.022": 0.0,
			"0.023": 0.0,
			"0.024": 0.0,
			"0.025": 0.0
		}
	}
}
