{
	 "smiles": "FC1=CC2=C(CCC(=O)N2)C=C1", 
	 "Tm": 461.15, 
	 "num_atms": 20, 
	 "gaussian": { 
		 "optdone": 1, 
		 "sigma_profile": "yes", 
		 "theory": "DFT", 
		 "functional": "B3LYP", 
		 "basiset": "6-31G**", 
		 "properties": { 
			 "R2extent": 2675.9388, 
			 "electric_dipole_moment_norm": 2.34462695114, 
			 "electric_quadrupole_moment_norm": 10.5052816007, 
			 "total_energy": -577.6183936, 
			 "HOMO_LUMO_gap": 0.20479, 
			 "cosmo_polarized_energy": -10.95, 
			 "cosmo_cavitation_energy": 23.97, 
			 "cosmo_dispersion_energy": -17.91, 
			 "cosmo_repulsion_energy": 1.4, 
			 "cosmo_total_nonelectrostatic_energy": 7.45, 
			 "SMD_solvation_energy": 4.83 
		},
		"coords": [
			{
				"x": 4.1147087288,
				"y": 2.3257825509,
				"z": 1.5555642548,
				"element": "F" 
			},
			{
				"x": 2.8796846636,
				"y": 1.9243152489,
				"z": 1.1900367,
				"element": "C" 
			},
			{
				"x": 2.6397397591,
				"y": 0.5619733261,
				"z": 1.0624823269,
				"element": "C" 
			},
			{
				"x": 1.3602943896,
				"y": 0.1421424919,
				"z": 0.6837568577,
				"element": "C" 
			},
			{
				"x": 0.3381820135,
				"y": 1.0787516673,
				"z": 0.4334483288,
				"element": "C" 
			},
			{
				"x": -1.000291071,
				"y": 0.5565291008,
				"z": -0.0359569073,
				"element": "C" 
			},
			{
				"x": -1.3246047717,
				"y": -0.7933135974,
				"z": 0.621041659,
				"element": "C" 
			},
			{
				"x": -0.1826440074,
				"y": -1.7911041346,
				"z": 0.4982718455,
				"element": "C" 
			},
			{
				"x": -0.3319441536,
				"y": -2.9983307879,
				"z": 0.4102148946,
				"element": "O" 
			},
			{
				"x": 1.0803114792,
				"y": -1.2248623948,
				"z": 0.5350140528,
				"element": "N" 
			},
			{
				"x": 0.625771509,
				"y": 2.4344121467,
				"z": 0.5900728004,
				"element": "C" 
			},
			{
				"x": 1.8951999449,
				"y": 2.8786049913,
				"z": 0.967283723,
				"element": "C" 
			},
			{
				"x": 3.4358518344,
				"y": -0.1470365336,
				"z": 1.2646425761,
				"element": "H" 
			},
			{
				"x": -1.7922439113,
				"y": 1.282246373,
				"z": 0.1739858889,
				"element": "H" 
			},
			{
				"x": -0.9789554053,
				"y": 0.4261242606,
				"z": -1.1278960846,
				"element": "H" 
			},
			{
				"x": -2.2150396475,
				"y": -1.2593998187,
				"z": 0.1946975174,
				"element": "H" 
			},
			{
				"x": -1.5115224262,
				"y": -0.6517614508,
				"z": 1.6944710309,
				"element": "H" 
			},
			{
				"x": 1.8424589047,
				"y": -1.8905102506,
				"z": 0.5535814981,
				"element": "H" 
			},
			{
				"x": -0.1588890811,
				"y": 3.1631725972,
				"z": 0.4044263728,
				"element": "H" 
			},
			{
				"x": 2.1241312482,
				"y": 3.9311642138,
				"z": 1.0868606642,
				"element": "H" 
			}
		],
		 "valence_orbital": [ 
			{
				"type": "occ",
				"energy": -0.3465,
				"method": "rhf"
			},
			{
				"type": "occ",
				"energy": -0.31001,
				"method": "rhf"
			},
			{
				"type": "occ",
				"energy": -0.25749,
				"method": "rhf"
			},
			{
				"type": "occ",
				"energy": -0.25302,
				"method": "rhf"
			},
			{
				"type": "occ",
				"energy": -0.22455,
				"method": "rhf"
			},
			{
				"type": "unocc",
				"energy": -0.01976,
				"method": "rhf"
			},
			{
				"type": "unocc",
				"energy": -0.01076,
				"method": "rhf"
			},
			{
				"type": "unocc",
				"energy": 0.03274,
				"method": "rhf"
			},
			{
				"type": "unocc",
				"energy": 0.07919,
				"method": "rhf"
			},
			{
				"type": "unocc",
				"energy": 0.09327,
				"method": "rhf"
			}
		],
		"cosmo_sigma_profile": { 
			"-0.025": 0.0,
			"-0.024": 0.0,
			"-0.023": 0.0,
			"-0.022": 0.0,
			"-0.021": 0.0,
			"-0.02": 0.0,
			"-0.019": 0.0,
			"-0.018": 0.0,
			"-0.017": 0.0,
			"-0.016": 0.0,
			"-0.015": 0.569926660871,
			"-0.014": 0.928157041959,
			"-0.013": 1.9066197244,
			"-0.012": 0.878912294363,
			"-0.011": 0.978572438916,
			"-0.01": 1.31338992429,
			"-0.009": 1.54273147054,
			"-0.008": 2.16672789262,
			"-0.007": 3.36108596916,
			"-0.006": 8.70181137139,
			"-0.005": 15.2986717875,
			"-0.004": 16.2688627292,
			"-0.003": 15.4156862753,
			"-0.002": 13.9034049624,
			"-0.001": 11.2189721532,
			"0.0": 10.2540598068,
			"0.001": 12.7250088127,
			"0.002": 14.8285553376,
			"0.003": 13.6405615566,
			"0.004": 17.5278217073,
			"0.005": 7.94408129448,
			"0.006": 1.11120477114,
			"0.007": 1.71794669534,
			"0.008": 0.951467989691,
			"0.009": 0.653552905206,
			"0.01": 1.7253664848,
			"0.011": 1.94143151228,
			"0.012": 2.4892393643,
			"0.013": 5.95155446859,
			"0.014": 2.67205288713,
			"0.015": 0.215667897965,
			"0.016": 0.0,
			"0.017": 0.0,
			"0.018": 0.0,
			"0.019": 0.0,
			"0.02": 0.0,
			"0.021": 0.0,
			"0.022": 0.0,
			"0.023": 0.0,
			"0.024": 0.0,
			"0.025": 0.0
		}
	}
}
