{
	 "smiles": "OCC1=CC2=C(CCN2)C=C1", 
	 "Tm": 323.15, 
	 "num_atms": 22, 
	 "gaussian": { 
		 "optdone": 1, 
		 "sigma_profile": "yes", 
		 "theory": "DFT", 
		 "functional": "B3LYP", 
		 "basiset": "6-31G**", 
		 "properties": { 
			 "R2extent": 2528.3582, 
			 "electric_dipole_moment_norm": 3.14448846396, 
			 "electric_quadrupole_moment_norm": 5.89115894795, 
			 "total_energy": -479.553267079, 
			 "HOMO_LUMO_gap": 0.19281, 
			 "cosmo_polarized_energy": -9.99, 
			 "cosmo_cavitation_energy": 24.5, 
			 "cosmo_dispersion_energy": -18.59, 
			 "cosmo_repulsion_energy": 1.51, 
			 "cosmo_total_nonelectrostatic_energy": 7.42, 
			 "SMD_solvation_energy": 2.47 
		},
		"coords": [
			{
				"x": 2.2152826664,
				"y": 1.5417314502,
				"z": 1.7243704319,
				"element": "O" 
			},
			{
				"x": 0.95452613,
				"y": 2.1354786634,
				"z": 1.4467529153,
				"element": "C" 
			},
			{
				"x": -0.0456358966,
				"y": 1.1885383046,
				"z": 0.8092082357,
				"element": "C" 
			},
			{
				"x": -1.4195866216,
				"y": 1.3797744309,
				"z": 1.0252288158,
				"element": "C" 
			},
			{
				"x": -2.3239675185,
				"y": 0.5182746176,
				"z": 0.4062436251,
				"element": "C" 
			},
			{
				"x": -1.8774315027,
				"y": -0.5370651408,
				"z": -0.409647121,
				"element": "C" 
			},
			{
				"x": -3.0913292149,
				"y": -1.2655588653,
				"z": -0.9489180745,
				"element": "C" 
			},
			{
				"x": -4.2149141822,
				"y": -0.768173358,
				"z": -0.0057316191,
				"element": "C" 
			},
			{
				"x": -3.7235132629,
				"y": 0.5463796459,
				"z": 0.4500604812,
				"element": "N" 
			},
			{
				"x": -0.5197668534,
				"y": -0.7228057547,
				"z": -0.6194217612,
				"element": "C" 
			},
			{
				"x": 0.399103565,
				"y": 0.1418720746,
				"z": -0.0071563251,
				"element": "C" 
			},
			{
				"x": 2.0470569283,
				"y": 0.7482236872,
				"z": 2.2502212356,
				"element": "H" 
			},
			{
				"x": 1.1751707426,
				"y": 2.9655315584,
				"z": 0.7642437931,
				"element": "H" 
			},
			{
				"x": 0.5119109109,
				"y": 2.5815254606,
				"z": 2.3524049365,
				"element": "H" 
			},
			{
				"x": -1.7668842497,
				"y": 2.1840105135,
				"z": 1.6703094555,
				"element": "H" 
			},
			{
				"x": -2.9980972234,
				"y": -2.3554982096,
				"z": -0.9424599861,
				"element": "H" 
			},
			{
				"x": -3.2956605586,
				"y": -0.9594431692,
				"z": -1.9838948791,
				"element": "H" 
			},
			{
				"x": -5.1821179469,
				"y": -0.6719846767,
				"z": -0.5074013659,
				"element": "H" 
			},
			{
				"x": -4.3344231092,
				"y": -1.4666602969,
				"z": 0.8378012448,
				"element": "H" 
			},
			{
				"x": -4.1423066051,
				"y": 0.9082591253,
				"z": 1.2974319261,
				"element": "H" 
			},
			{
				"x": -0.1645748486,
				"y": -1.5366545664,
				"z": -1.2471087342,
				"element": "H" 
			},
			{
				"x": 1.4654586514,
				"y": 0.0081445054,
				"z": -0.1555372301,
				"element": "H" 
			}
		],
		 "valence_orbital": [ 
			{
				"type": "occ",
				"energy": -0.31915,
				"method": "rhf"
			},
			{
				"type": "occ",
				"energy": -0.28878,
				"method": "rhf"
			},
			{
				"type": "occ",
				"energy": -0.26651,
				"method": "rhf"
			},
			{
				"type": "occ",
				"energy": -0.23371,
				"method": "rhf"
			},
			{
				"type": "occ",
				"energy": -0.19091,
				"method": "rhf"
			},
			{
				"type": "unocc",
				"energy": 0.0019,
				"method": "rhf"
			},
			{
				"type": "unocc",
				"energy": 0.02034,
				"method": "rhf"
			},
			{
				"type": "unocc",
				"energy": 0.08773,
				"method": "rhf"
			},
			{
				"type": "unocc",
				"energy": 0.09501,
				"method": "rhf"
			},
			{
				"type": "unocc",
				"energy": 0.11593,
				"method": "rhf"
			}
		],
		"cosmo_sigma_profile": { 
			"-0.025": 0.0,
			"-0.024": 0.0,
			"-0.023": 0.0,
			"-0.022": 0.0,
			"-0.021": 0.0,
			"-0.02": 0.0,
			"-0.019": 0.0,
			"-0.018": 0.0,
			"-0.017": 0.0,
			"-0.016": 0.0,
			"-0.015": 0.46822545639,
			"-0.014": 0.984423681993,
			"-0.013": 0.71776197239,
			"-0.012": 2.09755583641,
			"-0.011": 2.31200605535,
			"-0.01": 1.83996955268,
			"-0.009": 1.51596118726,
			"-0.008": 1.92450440544,
			"-0.007": 2.21044750674,
			"-0.006": 3.64609306176,
			"-0.005": 8.28148960645,
			"-0.004": 17.40924393,
			"-0.003": 23.062065666,
			"-0.002": 22.2277596108,
			"-0.001": 18.8532195311,
			"0.0": 12.4426712164,
			"0.001": 8.43267025849,
			"0.002": 7.40769318337,
			"0.003": 8.18370207928,
			"0.004": 7.09508280902,
			"0.005": 7.23252382653,
			"0.006": 9.39477513323,
			"0.007": 9.33262008378,
			"0.008": 2.64295725105,
			"0.009": 1.55791635117,
			"0.01": 2.12925483147,
			"0.011": 2.33859422501,
			"0.012": 1.53932819028,
			"0.013": 2.10212921326,
			"0.014": 2.92434882588,
			"0.015": 0.29401053807,
			"0.016": 0.0,
			"0.017": 0.0,
			"0.018": 0.0,
			"0.019": 0.0,
			"0.02": 0.0,
			"0.021": 0.0,
			"0.022": 0.0,
			"0.023": 0.0,
			"0.024": 0.0,
			"0.025": 0.0
		}
	}
}
