{
	 "smiles": "CC(C)(C)OC(=O)NC1CCN(CC1)C(=O)CC(F)(F)F", 
	 "Tm": 421.15, 
	 "num_atms": 42, 
	 "gaussian": { 
		 "optdone": 1, 
		 "sigma_profile": "yes", 
		 "theory": "DFT", 
		 "functional": "B3LYP", 
		 "basiset": "6-31G**", 
		 "properties": { 
			 "R2extent": 11559.9387, 
			 "electric_dipole_moment_norm": 3.15977167688, 
			 "electric_quadrupole_moment_norm": 26.1259323024, 
			 "total_energy": -1142.79918844, 
			 "HOMO_LUMO_gap": 0.25364, 
			 "cosmo_polarized_energy": -17.92, 
			 "cosmo_cavitation_energy": 44.42, 
			 "cosmo_dispersion_energy": -30.4, 
			 "cosmo_repulsion_energy": 2.3, 
			 "cosmo_total_nonelectrostatic_energy": 16.31, 
			 "SMD_solvation_energy": 8.72 
		},
		"coords": [
			{
				"x": 3.5933635612,
				"y": 1.4040967706,
				"z": -4.2141836975,
				"element": "C" 
			},
			{
				"x": 2.9026003919,
				"y": 0.0561735327,
				"z": -3.9814279539,
				"element": "C" 
			},
			{
				"x": 2.429748256,
				"y": -0.5483045822,
				"z": -5.3061043477,
				"element": "C" 
			},
			{
				"x": 3.7958034172,
				"y": -0.930325895,
				"z": -3.2214047142,
				"element": "C" 
			},
			{
				"x": 1.6394852954,
				"y": 0.2566747404,
				"z": -3.2533310582,
				"element": "O" 
			},
			{
				"x": 1.6305056091,
				"y": 0.793114763,
				"z": -2.0087619404,
				"element": "C" 
			},
			{
				"x": 2.6049057314,
				"y": 1.1411274138,
				"z": -1.3590022964,
				"element": "O" 
			},
			{
				"x": 0.3356781335,
				"y": 0.9119800693,
				"z": -1.578079995,
				"element": "N" 
			},
			{
				"x": 0.0213620861,
				"y": 1.3082755992,
				"z": -0.2113720877,
				"element": "C" 
			},
			{
				"x": -1.291327722,
				"y": 2.1323545835,
				"z": -0.1412312785,
				"element": "C" 
			},
			{
				"x": -2.4721047747,
				"y": 1.326507461,
				"z": 0.40410434,
				"element": "C" 
			},
			{
				"x": -2.1726032287,
				"y": 0.8265321801,
				"z": 1.754908611,
				"element": "N" 
			},
			{
				"x": -0.7854488423,
				"y": 0.4166288973,
				"z": 2.0383711111,
				"element": "C" 
			},
			{
				"x": -0.0569845545,
				"y": 0.0878798257,
				"z": 0.7331761737,
				"element": "C" 
			},
			{
				"x": -3.1997059703,
				"y": 0.787187307,
				"z": 2.6573425294,
				"element": "C" 
			},
			{
				"x": -4.3505169298,
				"y": 1.0978644538,
				"z": 2.3683887566,
				"element": "O" 
			},
			{
				"x": -2.8772684142,
				"y": 0.3596620624,
				"z": 4.0965489721,
				"element": "C" 
			},
			{
				"x": -3.1546305753,
				"y": -1.1088207804,
				"z": 4.3560780516,
				"element": "C" 
			},
			{
				"x": -4.4269740697,
				"y": -1.4436659693,
				"z": 4.0923456395,
				"element": "F" 
			},
			{
				"x": -2.3621929525,
				"y": -1.9119315202,
				"z": 3.59766755,
				"element": "F" 
			},
			{
				"x": -2.9062085944,
				"y": -1.4169633384,
				"z": 5.6479116117,
				"element": "F" 
			},
			{
				"x": 2.9139828729,
				"y": 2.0962426274,
				"z": -4.7217693659,
				"element": "H" 
			},
			{
				"x": 4.4718050133,
				"y": 1.2617859491,
				"z": -4.8520162405,
				"element": "H" 
			},
			{
				"x": 3.9110740518,
				"y": 1.8479335958,
				"z": -3.2703940029,
				"element": "H" 
			},
			{
				"x": 1.897240669,
				"y": -1.4882980795,
				"z": -5.133992357,
				"element": "H" 
			},
			{
				"x": 3.2875302064,
				"y": -0.7500398052,
				"z": -5.9544583625,
				"element": "H" 
			},
			{
				"x": 1.7564719256,
				"y": 0.139364839,
				"z": -5.8261339373,
				"element": "H" 
			},
			{
				"x": 3.2574258212,
				"y": -1.8654327765,
				"z": -3.0364589823,
				"element": "H" 
			},
			{
				"x": 4.6813647714,
				"y": -1.162293303,
				"z": -3.8219723304,
				"element": "H" 
			},
			{
				"x": 4.1165789617,
				"y": -0.5112394755,
				"z": -2.2674648932,
				"element": "H" 
			},
			{
				"x": -0.3736666219,
				"y": 0.4677617409,
				"z": -2.1438285944,
				"element": "H" 
			},
			{
				"x": 0.8602292352,
				"y": 1.9353975823,
				"z": 0.0996030295,
				"element": "H" 
			},
			{
				"x": -1.5373817473,
				"y": 2.5234444003,
				"z": -1.1335810488,
				"element": "H" 
			},
			{
				"x": -1.138380484,
				"y": 3.0024778,
				"z": 0.5066036057,
				"element": "H" 
			},
			{
				"x": -3.37247324,
				"y": 1.9370029074,
				"z": 0.4797004295,
				"element": "H" 
			},
			{
				"x": -2.7166510627,
				"y": 0.4864691099,
				"z": -0.2620550627,
				"element": "H" 
			},
			{
				"x": -0.78988706,
				"y": -0.4668288864,
				"z": 2.6768880395,
				"element": "H" 
			},
			{
				"x": -0.245983543,
				"y": 1.2151519147,
				"z": 2.5712677025,
				"element": "H" 
			},
			{
				"x": 0.9525872533,
				"y": -0.2711207798,
				"z": 0.9539672668,
				"element": "H" 
			},
			{
				"x": -0.584534787,
				"y": -0.731761906,
				"z": 0.2304228165,
				"element": "H" 
			},
			{
				"x": -1.8486420151,
				"y": 0.563187995,
				"z": 4.3998570604,
				"element": "H" 
			},
			{
				"x": -3.5489760742,
				"y": 0.9302469759,
				"z": 4.7402712501,
				"element": "H" 
			}
		],
		 "valence_orbital": [ 
			{
				"type": "occ",
				"energy": -0.29059,
				"method": "rhf"
			},
			{
				"type": "occ",
				"energy": -0.26865,
				"method": "rhf"
			},
			{
				"type": "occ",
				"energy": -0.25617,
				"method": "rhf"
			},
			{
				"type": "occ",
				"energy": -0.25417,
				"method": "rhf"
			},
			{
				"type": "occ",
				"energy": -0.24427,
				"method": "rhf"
			},
			{
				"type": "unocc",
				"energy": 0.00937,
				"method": "rhf"
			},
			{
				"type": "unocc",
				"energy": 0.05042,
				"method": "rhf"
			},
			{
				"type": "unocc",
				"energy": 0.06495,
				"method": "rhf"
			},
			{
				"type": "unocc",
				"energy": 0.08166,
				"method": "rhf"
			},
			{
				"type": "unocc",
				"energy": 0.08648,
				"method": "rhf"
			}
		],
		"cosmo_sigma_profile": { 
			"-0.025": 0.0,
			"-0.024": 0.0,
			"-0.023": 0.0,
			"-0.022": 0.0,
			"-0.021": 0.0,
			"-0.02": 0.0,
			"-0.019": 0.0,
			"-0.018": 0.0,
			"-0.017": 0.0,
			"-0.016": 0.0,
			"-0.015": 0.0,
			"-0.014": 0.0294932791826,
			"-0.013": 0.982336250606,
			"-0.012": 0.818519534447,
			"-0.011": 1.41360379091,
			"-0.01": 1.57990219205,
			"-0.009": 1.9014031172,
			"-0.008": 6.06308942836,
			"-0.007": 6.20080465026,
			"-0.006": 6.70435759942,
			"-0.005": 16.8767968051,
			"-0.004": 35.3874408619,
			"-0.003": 35.8569973259,
			"-0.002": 29.4566151504,
			"-0.001": 29.7279572266,
			"0.0": 37.7097325981,
			"0.001": 27.8181015303,
			"0.002": 23.8533453344,
			"0.003": 30.1469431452,
			"0.004": 7.35868608128,
			"0.005": 7.60757785521,
			"0.006": 4.92229104102,
			"0.007": 5.15939139894,
			"0.008": 4.16411280616,
			"0.009": 2.7246534998,
			"0.01": 3.16363503992,
			"0.011": 3.08180174012,
			"0.012": 3.3799437796,
			"0.013": 7.2444458055,
			"0.014": 4.68229273967,
			"0.015": 0.290695753394,
			"0.016": 0.0,
			"0.017": 0.0,
			"0.018": 0.0,
			"0.019": 0.0,
			"0.02": 0.0,
			"0.021": 0.0,
			"0.022": 0.0,
			"0.023": 0.0,
			"0.024": 0.0,
			"0.025": 0.0
		}
	}
}
