{
	 "smiles": "COC1=C(C=C(NC(=O)CCl)C=C1)S(=O)(=O)N1CCOCC1", 
	 "Tm": 395.15, 
	 "num_atms": 39, 
	 "gaussian": { 
		 "optdone": 1, 
		 "sigma_profile": "yes", 
		 "theory": "DFT", 
		 "functional": "B3LYP", 
		 "basiset": "6-31G**", 
		 "properties": { 
			 "R2extent": 9139.1458, 
			 "electric_dipole_moment_norm": 5.90888331751, 
			 "electric_quadrupole_moment_norm": 16.6577048407, 
			 "total_energy": -1849.52329473, 
			 "HOMO_LUMO_gap": 0.19601, 
			 "cosmo_polarized_energy": -23.7, 
			 "cosmo_cavitation_energy": 44.4, 
			 "cosmo_dispersion_energy": -30.53, 
			 "cosmo_repulsion_energy": 2.34, 
			 "cosmo_total_nonelectrostatic_energy": 16.21, 
			 "SMD_solvation_energy": 7.21 
		},
		"coords": [
			{
				"x": 0.252096167,
				"y": -2.5140001431,
				"z": -2.0773962738,
				"element": "C" 
			},
			{
				"x": -0.4623854981,
				"y": -1.2693250214,
				"z": -1.9791085601,
				"element": "O" 
			},
			{
				"x": -0.7338998327,
				"y": -0.846657365,
				"z": -0.7048816806,
				"element": "C" 
			},
			{
				"x": -0.0091835905,
				"y": 0.2116939426,
				"z": -0.135484284,
				"element": "C" 
			},
			{
				"x": -0.3451750188,
				"y": 0.7003688849,
				"z": 1.1282974607,
				"element": "C" 
			},
			{
				"x": -1.3734268738,
				"y": 0.1033621691,
				"z": 1.8637268763,
				"element": "C" 
			},
			{
				"x": -1.7296137219,
				"y": 0.5929571726,
				"z": 3.1501078156,
				"element": "N" 
			},
			{
				"x": -0.970418394,
				"y": 0.6897723467,
				"z": 4.2961884578,
				"element": "C" 
			},
			{
				"x": -1.4214300408,
				"y": 1.1989493329,
				"z": 5.308990133,
				"element": "O" 
			},
			{
				"x": 0.4455740954,
				"y": 0.1157524065,
				"z": 4.2767085272,
				"element": "C" 
			},
			{
				"x": 0.417150327,
				"y": -1.6977791086,
				"z": 4.2196242067,
				"element": "Cl" 
			},
			{
				"x": -2.0949320068,
				"y": -0.9552504754,
				"z": 1.2973645762,
				"element": "C" 
			},
			{
				"x": -1.7853345211,
				"y": -1.4155553743,
				"z": 0.0211248944,
				"element": "C" 
			},
			{
				"x": 1.3848101576,
				"y": 0.981519333,
				"z": -0.9981525776,
				"element": "S" 
			},
			{
				"x": 1.8696069229,
				"y": 2.0202776781,
				"z": -0.0846506199,
				"element": "O" 
			},
			{
				"x": 2.2669548302,
				"y": -0.0851455008,
				"z": -1.4785778449,
				"element": "O" 
			},
			{
				"x": 0.778703805,
				"y": 1.7650053085,
				"z": -2.3277925279,
				"element": "N" 
			},
			{
				"x": 0.69116157,
				"y": 1.1223926489,
				"z": -3.6419487539,
				"element": "C" 
			},
			{
				"x": 1.0131875486,
				"y": 2.1700830488,
				"z": -4.7134525637,
				"element": "C" 
			},
			{
				"x": 0.3839630058,
				"y": 3.435372136,
				"z": -4.4812623632,
				"element": "O" 
			},
			{
				"x": -0.6029779669,
				"y": 3.4163784675,
				"z": -3.4692366139,
				"element": "C" 
			},
			{
				"x": -0.0116908376,
				"y": 2.9930434081,
				"z": -2.1201972348,
				"element": "C" 
			},
			{
				"x": 0.2962190841,
				"y": -2.7531366624,
				"z": -3.1409791344,
				"element": "H" 
			},
			{
				"x": 1.2641374872,
				"y": -2.3998382743,
				"z": -1.6795549354,
				"element": "H" 
			},
			{
				"x": -0.2775887405,
				"y": -3.3136175102,
				"z": -1.546945395,
				"element": "H" 
			},
			{
				"x": 0.2033858232,
				"y": 1.548280465,
				"z": 1.5218166052,
				"element": "H" 
			},
			{
				"x": -2.6908012884,
				"y": 0.8753858396,
				"z": 3.3005404274,
				"element": "H" 
			},
			{
				"x": 1.0422528874,
				"y": 0.4483540806,
				"z": 3.4282840783,
				"element": "H" 
			},
			{
				"x": 0.9201083309,
				"y": 0.4024838775,
				"z": 5.2122309885,
				"element": "H" 
			},
			{
				"x": -2.8962773131,
				"y": -1.4176863577,
				"z": 1.8654291404,
				"element": "H" 
			},
			{
				"x": -2.3540934583,
				"y": -2.2230133942,
				"z": -0.4288947406,
				"element": "H" 
			},
			{
				"x": 1.4267647271,
				"y": 0.3190118864,
				"z": -3.6828056078,
				"element": "H" 
			},
			{
				"x": -0.2974044919,
				"y": 0.6749074701,
				"z": -3.8003411381,
				"element": "H" 
			},
			{
				"x": 2.0926440718,
				"y": 2.35512737,
				"z": -4.7387077192,
				"element": "H" 
			},
			{
				"x": 0.7060078134,
				"y": 1.7816726023,
				"z": -5.695792328,
				"element": "H" 
			},
			{
				"x": -0.9886286311,
				"y": 4.4364565168,
				"z": -3.3906398927,
				"element": "H" 
			},
			{
				"x": -1.4480186008,
				"y": 2.7640165972,
				"z": -3.739722063,
				"element": "H" 
			},
			{
				"x": -0.8274016503,
				"y": 2.8322128247,
				"z": -1.3995392758,
				"element": "H" 
			},
			{
				"x": 0.6436538229,
				"y": 3.775367373,
				"z": -1.7286700594,
				"element": "H" 
			}
		],
		 "valence_orbital": [ 
			{
				"type": "occ",
				"energy": -0.28518,
				"method": "rhf"
			},
			{
				"type": "occ",
				"energy": -0.2674,
				"method": "rhf"
			},
			{
				"type": "occ",
				"energy": -0.26136,
				"method": "rhf"
			},
			{
				"type": "occ",
				"energy": -0.25526,
				"method": "rhf"
			},
			{
				"type": "occ",
				"energy": -0.24727,
				"method": "rhf"
			},
			{
				"type": "unocc",
				"energy": -0.05126,
				"method": "rhf"
			},
			{
				"type": "unocc",
				"energy": -0.03944,
				"method": "rhf"
			},
			{
				"type": "unocc",
				"energy": -0.02064,
				"method": "rhf"
			},
			{
				"type": "unocc",
				"energy": 0.04556,
				"method": "rhf"
			},
			{
				"type": "unocc",
				"energy": 0.05308,
				"method": "rhf"
			}
		],
		"cosmo_sigma_profile": { 
			"-0.025": 0.0,
			"-0.024": 0.0,
			"-0.023": 0.0,
			"-0.022": 0.0,
			"-0.021": 0.0,
			"-0.02": 0.0,
			"-0.019": 0.0,
			"-0.018": 0.0,
			"-0.017": 0.0,
			"-0.016": 0.0354019920117,
			"-0.015": 0.780227552328,
			"-0.014": 1.20222640799,
			"-0.013": 1.0886280542,
			"-0.012": 0.663907964355,
			"-0.011": 1.76296207768,
			"-0.01": 2.24077718915,
			"-0.009": 2.86564132662,
			"-0.008": 7.91314577314,
			"-0.007": 10.5641043037,
			"-0.006": 21.2384028127,
			"-0.005": 35.3137503847,
			"-0.004": 31.0041191757,
			"-0.003": 28.0840775295,
			"-0.002": 22.4481481569,
			"-0.001": 18.5891121102,
			"0.0": 19.1395201092,
			"0.001": 22.7320980333,
			"0.002": 16.3542789421,
			"0.003": 15.4737282819,
			"0.004": 17.0638477019,
			"0.005": 15.5093055903,
			"0.006": 9.05085820075,
			"0.007": 6.25097359301,
			"0.008": 6.05832652134,
			"0.009": 7.15180114345,
			"0.01": 7.71496103239,
			"0.011": 9.70495873004,
			"0.012": 9.81127800602,
			"0.013": 5.129972202,
			"0.014": 0.258307196373,
			"0.015": 0.0,
			"0.016": 0.0,
			"0.017": 0.0,
			"0.018": 0.0,
			"0.019": 0.0,
			"0.02": 0.0,
			"0.021": 0.0,
			"0.022": 0.0,
			"0.023": 0.0,
			"0.024": 0.0,
			"0.025": 0.0
		}
	}
}
