{
	 "smiles": "ClC1=C(C=O)C(=O)OC2=C1C=CC=C2", 
	 "Tm": 387.15, 
	 "num_atms": 19, 
	 "gaussian": { 
		 "optdone": 1, 
		 "sigma_profile": "yes", 
		 "theory": "DFT", 
		 "functional": "B3LYP", 
		 "basiset": "6-31G**", 
		 "properties": { 
			 "R2extent": 3787.8933, 
			 "electric_dipole_moment_norm": 5.72838025623, 
			 "electric_quadrupole_moment_norm": 8.45570460813, 
			 "total_energy": -1069.9252124, 
			 "HOMO_LUMO_gap": 0.1474, 
			 "cosmo_polarized_energy": -11.69, 
			 "cosmo_cavitation_energy": 25.85, 
			 "cosmo_dispersion_energy": -19.48, 
			 "cosmo_repulsion_energy": 1.49, 
			 "cosmo_total_nonelectrostatic_energy": 7.86, 
			 "SMD_solvation_energy": 6.36 
		},
		"coords": [
			{
				"x": -2.1065853635,
				"y": 2.2556806368,
				"z": -1.0507411168,
				"element": "Cl" 
			},
			{
				"x": -1.6670330702,
				"y": 0.5803563816,
				"z": -0.9227603531,
				"element": "C" 
			},
			{
				"x": -1.6605207361,
				"y": -0.2417982439,
				"z": -2.0191081907,
				"element": "C" 
			},
			{
				"x": -2.0091284316,
				"y": 0.1457204034,
				"z": -3.4172712088,
				"element": "C" 
			},
			{
				"x": -2.3501697399,
				"y": 1.2545480298,
				"z": -3.7785396066,
				"element": "O" 
			},
			{
				"x": -1.2810483399,
				"y": -1.6575881943,
				"z": -1.8663249649,
				"element": "C" 
			},
			{
				"x": -1.2409747122,
				"y": -2.4697049327,
				"z": -2.7599193104,
				"element": "O" 
			},
			{
				"x": -0.9423914546,
				"y": -2.0925859971,
				"z": -0.5930014257,
				"element": "O" 
			},
			{
				"x": -0.9514057971,
				"y": -1.2703508389,
				"z": 0.4900048846,
				"element": "C" 
			},
			{
				"x": -1.3079160964,
				"y": 0.0906066246,
				"z": 0.3914567494,
				"element": "C" 
			},
			{
				"x": -1.2895520976,
				"y": 0.8699551942,
				"z": 1.5673958534,
				"element": "C" 
			},
			{
				"x": -0.930499731,
				"y": 0.3083484214,
				"z": 2.7817975213,
				"element": "C" 
			},
			{
				"x": -0.5796913371,
				"y": -1.0491214536,
				"z": 2.8531290249,
				"element": "C" 
			},
			{
				"x": -0.5886713338,
				"y": -1.840689776,
				"z": 1.712269952,
				"element": "C" 
			},
			{
				"x": -1.9267114474,
				"y": -0.6980792623,
				"z": -4.1242460581,
				"element": "H" 
			},
			{
				"x": -1.5611756075,
				"y": 1.9166400665,
				"z": 1.505897032,
				"element": "H" 
			},
			{
				"x": -0.9211156206,
				"y": 0.9202781324,
				"z": 3.6775948658,
				"element": "H" 
			},
			{
				"x": -0.2985154708,
				"y": -1.4875719315,
				"z": 3.8056649251,
				"element": "H" 
			},
			{
				"x": -0.3225936127,
				"y": -2.8914432604,
				"z": 1.7372014266,
				"element": "H" 
			}
		],
		 "valence_orbital": [ 
			{
				"type": "occ",
				"energy": -0.31325,
				"method": "rhf"
			},
			{
				"type": "occ",
				"energy": -0.29907,
				"method": "rhf"
			},
			{
				"type": "occ",
				"energy": -0.27588,
				"method": "rhf"
			},
			{
				"type": "occ",
				"energy": -0.25859,
				"method": "rhf"
			},
			{
				"type": "occ",
				"energy": -0.25461,
				"method": "rhf"
			},
			{
				"type": "unocc",
				"energy": -0.10721,
				"method": "rhf"
			},
			{
				"type": "unocc",
				"energy": -0.03592,
				"method": "rhf"
			},
			{
				"type": "unocc",
				"energy": -0.01849,
				"method": "rhf"
			},
			{
				"type": "unocc",
				"energy": -0.01287,
				"method": "rhf"
			},
			{
				"type": "unocc",
				"energy": 0.01144,
				"method": "rhf"
			}
		],
		"cosmo_sigma_profile": { 
			"-0.025": 0.0,
			"-0.024": 0.0,
			"-0.023": 0.0,
			"-0.022": 0.0,
			"-0.021": 0.0,
			"-0.02": 0.0,
			"-0.019": 0.0,
			"-0.018": 0.0,
			"-0.017": 0.0,
			"-0.016": 0.0,
			"-0.015": 0.0,
			"-0.014": 0.0,
			"-0.013": 0.0,
			"-0.012": 0.0,
			"-0.011": 0.0,
			"-0.01": 0.0,
			"-0.009": 0.0843773191659,
			"-0.008": 3.88938656817,
			"-0.007": 9.93259494793,
			"-0.006": 13.5556265826,
			"-0.005": 15.8193257643,
			"-0.004": 15.7579284507,
			"-0.003": 20.0843855105,
			"-0.002": 15.3732924328,
			"-0.001": 17.5523893354,
			"0.0": 16.4432769533,
			"0.001": 17.3052378348,
			"0.002": 15.5665723876,
			"0.003": 6.06246059404,
			"0.004": 4.34684037924,
			"0.005": 4.03646451985,
			"0.006": 3.81257671109,
			"0.007": 4.21933696653,
			"0.008": 4.68499909535,
			"0.009": 5.12970249351,
			"0.01": 7.3191225798,
			"0.011": 7.92475984271,
			"0.012": 2.79208782828,
			"0.013": 0.0386682174007,
			"0.014": 0.0,
			"0.015": 0.0,
			"0.016": 0.0,
			"0.017": 0.0,
			"0.018": 0.0,
			"0.019": 0.0,
			"0.02": 0.0,
			"0.021": 0.0,
			"0.022": 0.0,
			"0.023": 0.0,
			"0.024": 0.0,
			"0.025": 0.0
		}
	}
}
