{
	 "smiles": "CC(C)(C)OC(=O)N[C@@H](CO)C(O)=O", 
	 "Tm": 363.65, 
	 "num_atms": 29, 
	 "gaussian": { 
		 "optdone": 1, 
		 "sigma_profile": "yes", 
		 "theory": "DFT", 
		 "functional": "B3LYP", 
		 "basiset": "6-31G**", 
		 "properties": { 
			 "R2extent": 3767.2461, 
			 "electric_dipole_moment_norm": 6.37118833578, 
			 "electric_quadrupole_moment_norm": 7.7976365291, 
			 "total_energy": -744.79782514, 
			 "HOMO_LUMO_gap": 0.2661, 
			 "cosmo_polarized_energy": -22.1, 
			 "cosmo_cavitation_energy": 32.25, 
			 "cosmo_dispersion_energy": -22.09, 
			 "cosmo_repulsion_energy": 1.78, 
			 "cosmo_total_nonelectrostatic_energy": 11.94, 
			 "SMD_solvation_energy": 8.06 
		},
		"coords": [
			{
				"x": 1.6836012037,
				"y": -3.1047964653,
				"z": -0.3394955217,
				"element": "C" 
			},
			{
				"x": 1.5290530509,
				"y": -2.0249801731,
				"z": -1.4141531064,
				"element": "C" 
			},
			{
				"x": 0.9239542572,
				"y": -2.6068503672,
				"z": -2.6931752517,
				"element": "C" 
			},
			{
				"x": 2.8457140209,
				"y": -1.3007580849,
				"z": -1.70894108,
				"element": "C" 
			},
			{
				"x": 0.5025620091,
				"y": -1.0436646202,
				"z": -0.9947836831,
				"element": "O" 
			},
			{
				"x": 0.6543298928,
				"y": -0.320432678,
				"z": 0.1316886146,
				"element": "C" 
			},
			{
				"x": 1.6037512484,
				"y": -0.3243048496,
				"z": 0.8903961996,
				"element": "O" 
			},
			{
				"x": -0.4929116309,
				"y": 0.4414089806,
				"z": 0.3320197677,
				"element": "N" 
			},
			{
				"x": -0.4834262702,
				"y": 1.58882501,
				"z": 1.2385395121,
				"element": "C" 
			},
			{
				"x": -0.5085737291,
				"y": 2.9317768322,
				"z": 0.4896878951,
				"element": "C" 
			},
			{
				"x": 0.6459670971,
				"y": 3.1318814766,
				"z": -0.2994979679,
				"element": "O" 
			},
			{
				"x": -1.628623164,
				"y": 1.5173204746,
				"z": 2.2646762747,
				"element": "C" 
			},
			{
				"x": -2.1599707217,
				"y": 0.2942808651,
				"z": 2.4514782712,
				"element": "O" 
			},
			{
				"x": -2.0121680468,
				"y": 2.4847676203,
				"z": 2.8765821211,
				"element": "O" 
			},
			{
				"x": 0.7160557085,
				"y": -3.5678170871,
				"z": -0.1212940434,
				"element": "H" 
			},
			{
				"x": 2.0955221085,
				"y": -2.6896639194,
				"z": 0.5808085432,
				"element": "H" 
			},
			{
				"x": 2.3576039595,
				"y": -3.8865792829,
				"z": -0.7034739727,
				"element": "H" 
			},
			{
				"x": 0.7683977546,
				"y": -1.8231483424,
				"z": -3.4402901429,
				"element": "H" 
			},
			{
				"x": 1.5973765285,
				"y": -3.3578320816,
				"z": -3.1160398047,
				"element": "H" 
			},
			{
				"x": -0.0384887716,
				"y": -3.0832243205,
				"z": -2.4854440752,
				"element": "H" 
			},
			{
				"x": 3.265097988,
				"y": -0.8614124858,
				"z": -0.8035073654,
				"element": "H" 
			},
			{
				"x": 3.5681127329,
				"y": -2.0117084765,
				"z": -2.1221517489,
				"element": "H" 
			},
			{
				"x": 2.6894835388,
				"y": -0.5102548643,
				"z": -2.4499390759,
				"element": "H" 
			},
			{
				"x": -1.1350274563,
				"y": 0.4627387654,
				"z": -0.4517408262,
				"element": "H" 
			},
			{
				"x": 0.4579766255,
				"y": 1.5201344521,
				"z": 1.7953541014,
				"element": "H" 
			},
			{
				"x": -0.5395870119,
				"y": 3.7338404077,
				"z": 1.2280354959,
				"element": "H" 
			},
			{
				"x": -1.4338899426,
				"y": 3.0014782618,
				"z": -0.1072027999,
				"element": "H" 
			},
			{
				"x": 0.6593851054,
				"y": 2.4634064847,
				"z": -0.9964703172,
				"element": "H" 
			},
			{
				"x": -1.7095780853,
				"y": -0.3135315323,
				"z": 1.8372339865,
				"element": "H" 
			}
		],
		 "valence_orbital": [ 
			{
				"type": "occ",
				"energy": -0.31308,
				"method": "rhf"
			},
			{
				"type": "occ",
				"energy": -0.30873,
				"method": "rhf"
			},
			{
				"type": "occ",
				"energy": -0.29166,
				"method": "rhf"
			},
			{
				"type": "occ",
				"energy": -0.28629,
				"method": "rhf"
			},
			{
				"type": "occ",
				"energy": -0.26166,
				"method": "rhf"
			},
			{
				"type": "unocc",
				"energy": 0.00444,
				"method": "rhf"
			},
			{
				"type": "unocc",
				"energy": 0.02289,
				"method": "rhf"
			},
			{
				"type": "unocc",
				"energy": 0.04387,
				"method": "rhf"
			},
			{
				"type": "unocc",
				"energy": 0.07703,
				"method": "rhf"
			},
			{
				"type": "unocc",
				"energy": 0.08354,
				"method": "rhf"
			}
		],
		"cosmo_sigma_profile": { 
			"-0.025": 0.0,
			"-0.024": 0.0,
			"-0.023": 0.0,
			"-0.022": 0.0,
			"-0.021": 0.0,
			"-0.02": 0.0,
			"-0.019": 0.0,
			"-0.018": 0.0,
			"-0.017": 0.0,
			"-0.016": 0.0925612199098,
			"-0.015": 2.1719981923,
			"-0.014": 4.47000157727,
			"-0.013": 3.9715661441,
			"-0.012": 3.19207346422,
			"-0.011": 3.46818139979,
			"-0.01": 3.59550028661,
			"-0.009": 2.86885189284,
			"-0.008": 3.94931845127,
			"-0.007": 4.97668344984,
			"-0.006": 4.65108482301,
			"-0.005": 7.55816166387,
			"-0.004": 19.5227651718,
			"-0.003": 20.680725835,
			"-0.002": 22.8030363205,
			"-0.001": 20.8495791361,
			"0.0": 26.1241459033,
			"0.001": 16.0266749334,
			"0.002": 6.96720909871,
			"0.003": 6.63363937419,
			"0.004": 7.23401447896,
			"0.005": 6.85353433665,
			"0.006": 6.30416400335,
			"0.007": 5.15399095266,
			"0.008": 5.72879340549,
			"0.009": 5.81177473774,
			"0.01": 8.06249540518,
			"0.011": 8.1637283758,
			"0.012": 8.53388696502,
			"0.013": 3.58037116971,
			"0.014": 1.28028180332,
			"0.015": 0.0,
			"0.016": 0.0,
			"0.017": 0.0,
			"0.018": 0.0,
			"0.019": 0.0,
			"0.02": 0.0,
			"0.021": 0.0,
			"0.022": 0.0,
			"0.023": 0.0,
			"0.024": 0.0,
			"0.025": 0.0
		}
	}
}
