{
	 "smiles": "C[C@@H](CCC(O)=O)C1CCC2C3C=C[C@@H]4CCCC[C@]4(C)C3CC[C@]12C", 
	 "Tm": 429.15, 
	 "num_atms": 64, 
	 "gaussian": { 
		 "optdone": 1, 
		 "sigma_profile": "yes", 
		 "theory": "DFT", 
		 "functional": "B3LYP", 
		 "basiset": "6-31G**", 
		 "properties": { 
			 "R2extent": 11803.74, 
			 "electric_dipole_moment_norm": 1.2762873736, 
			 "electric_quadrupole_moment_norm": 5.60425462216, 
			 "total_energy": -1087.92773372, 
			 "HOMO_LUMO_gap": 0.23387, 
			 "cosmo_polarized_energy": -8.84, 
			 "cosmo_cavitation_energy": 53.54, 
			 "cosmo_dispersion_energy": -36.84, 
			 "cosmo_repulsion_energy": 2.73, 
			 "cosmo_total_nonelectrostatic_energy": 19.44, 
			 "SMD_solvation_energy": 8.35 
		},
		"coords": [
			{
				"x": -1.1465401328,
				"y": -3.4199942126,
				"z": 4.1340017468,
				"element": "C" 
			},
			{
				"x": -1.4016931253,
				"y": -2.3846473931,
				"z": 3.020682608,
				"element": "C" 
			},
			{
				"x": -2.2248142072,
				"y": -1.1911554204,
				"z": 3.5583741022,
				"element": "C" 
			},
			{
				"x": -3.6561915477,
				"y": -1.5295282472,
				"z": 3.9955948243,
				"element": "C" 
			},
			{
				"x": -4.581513276,
				"y": -1.9118932922,
				"z": 2.8600433639,
				"element": "C" 
			},
			{
				"x": -5.7564591828,
				"y": -2.4044688221,
				"z": 3.3250010707,
				"element": "O" 
			},
			{
				"x": -4.3615486637,
				"y": -1.7919255252,
				"z": 1.6730224982,
				"element": "O" 
			},
			{
				"x": -0.0489428563,
				"y": -1.9791585956,
				"z": 2.3675146876,
				"element": "C" 
			},
			{
				"x": 0.7675835719,
				"y": -0.8671950932,
				"z": 3.0488688887,
				"element": "C" 
			},
			{
				"x": 1.9552105467,
				"y": -0.6996625018,
				"z": 2.0894051746,
				"element": "C" 
			},
			{
				"x": 1.3587027163,
				"y": -0.8647810651,
				"z": 0.662226596,
				"element": "C" 
			},
			{
				"x": 1.3020729709,
				"y": 0.4571926422,
				"z": -0.1603645499,
				"element": "C" 
			},
			{
				"x": 0.8739755978,
				"y": 1.7146552992,
				"z": 0.5645798537,
				"element": "C" 
			},
			{
				"x": 0.3542925428,
				"y": 2.7705753821,
				"z": -0.0714871372,
				"element": "C" 
			},
			{
				"x": 0.1181464938,
				"y": 2.8687948909,
				"z": -1.5595504715,
				"element": "C" 
			},
			{
				"x": -1.3075155273,
				"y": 3.3731078743,
				"z": -1.8829707114,
				"element": "C" 
			},
			{
				"x": -1.4858877759,
				"y": 3.6933494529,
				"z": -3.3817368238,
				"element": "C" 
			},
			{
				"x": -0.6956138158,
				"y": 2.7208150111,
				"z": -4.2941299537,
				"element": "C" 
			},
			{
				"x": -0.3986857644,
				"y": 1.3897842198,
				"z": -3.5886901981,
				"element": "C" 
			},
			{
				"x": 0.5143779029,
				"y": 1.5600287,
				"z": -2.3406265493,
				"element": "C" 
			},
			{
				"x": 1.9723051605,
				"y": 1.720051189,
				"z": -2.8332847521,
				"element": "C" 
			},
			{
				"x": 0.4313307245,
				"y": 0.2909179427,
				"z": -1.4272372444,
				"element": "C" 
			},
			{
				"x": -1.0167441117,
				"y": -0.1343331843,
				"z": -1.0293956477,
				"element": "C" 
			},
			{
				"x": -1.1591149163,
				"y": -0.6462376391,
				"z": 0.4175969336,
				"element": "C" 
			},
			{
				"x": -0.0270933113,
				"y": -1.6022610363,
				"z": 0.8417030229,
				"element": "C" 
			},
			{
				"x": -0.0885154995,
				"y": -2.887820204,
				"z": -0.0057968965,
				"element": "C" 
			},
			{
				"x": -2.0732433026,
				"y": -3.7710671237,
				"z": 4.5992951675,
				"element": "H" 
			},
			{
				"x": -0.5180600184,
				"y": -2.9994651533,
				"z": 4.9284759221,
				"element": "H" 
			},
			{
				"x": -0.6318917043,
				"y": -4.3010555784,
				"z": 3.7368633502,
				"element": "H" 
			},
			{
				"x": -2.0032981197,
				"y": -2.8758936994,
				"z": 2.2453412058,
				"element": "H" 
			},
			{
				"x": -2.2823647405,
				"y": -0.4050325866,
				"z": 2.8030236667,
				"element": "H" 
			},
			{
				"x": -1.7066267934,
				"y": -0.7581871827,
				"z": 4.4229728628,
				"element": "H" 
			},
			{
				"x": -3.6919228569,
				"y": -2.3282837993,
				"z": 4.74331152,
				"element": "H" 
			},
			{
				"x": -4.1158180498,
				"y": -0.6597820908,
				"z": 4.4842622195,
				"element": "H" 
			},
			{
				"x": -6.296378743,
				"y": -2.5967498659,
				"z": 2.5398033587,
				"element": "H" 
			},
			{
				"x": 0.5819511206,
				"y": -2.8787108657,
				"z": 2.431839513,
				"element": "H" 
			},
			{
				"x": 1.0789846364,
				"y": -1.1240256865,
				"z": 4.0676668561,
				"element": "H" 
			},
			{
				"x": 0.1900687977,
				"y": 0.0628067413,
				"z": 3.1112244287,
				"element": "H" 
			},
			{
				"x": 2.4906742374,
				"y": 0.2461664503,
				"z": 2.2213144945,
				"element": "H" 
			},
			{
				"x": 2.6832901466,
				"y": -1.4970924777,
				"z": 2.2798563209,
				"element": "H" 
			},
			{
				"x": 2.0166189818,
				"y": -1.5245000176,
				"z": 0.0835474797,
				"element": "H" 
			},
			{
				"x": 2.3422432819,
				"y": 0.6193208492,
				"z": -0.4764451758,
				"element": "H" 
			},
			{
				"x": 1.0307147517,
				"y": 1.7774599432,
				"z": 1.6392207435,
				"element": "H" 
			},
			{
				"x": 0.0907865403,
				"y": 3.6584952433,
				"z": 0.5041753116,
				"element": "H" 
			},
			{
				"x": 0.7899618066,
				"y": 3.6649490252,
				"z": -1.9227490191,
				"element": "H" 
			},
			{
				"x": -1.5193441535,
				"y": 4.2672409414,
				"z": -1.2836177763,
				"element": "H" 
			},
			{
				"x": -2.0432427705,
				"y": 2.6255311929,
				"z": -1.5689596058,
				"element": "H" 
			},
			{
				"x": -2.5536514782,
				"y": 3.6601920258,
				"z": -3.6281908093,
				"element": "H" 
			},
			{
				"x": -1.1608017404,
				"y": 4.7218880523,
				"z": -3.5803159231,
				"element": "H" 
			},
			{
				"x": -1.2507374608,
				"y": 2.5356465142,
				"z": -5.2206337657,
				"element": "H" 
			},
			{
				"x": 0.2475140285,
				"y": 3.1877073627,
				"z": -4.6019830941,
				"element": "H" 
			},
			{
				"x": 0.0801046838,
				"y": 0.6895130289,
				"z": -4.285509525,
				"element": "H" 
			},
			{
				"x": -1.3509096555,
				"y": 0.9297933762,
				"z": -3.3045272977,
				"element": "H" 
			},
			{
				"x": 2.0426496008,
				"y": 2.4918449795,
				"z": -3.6068073124,
				"element": "H" 
			},
			{
				"x": 2.6474712493,
				"y": 2.0184446702,
				"z": -2.0260279053,
				"element": "H" 
			},
			{
				"x": 2.3492223167,
				"y": 0.7846146295,
				"z": -3.2633505412,
				"element": "H" 
			},
			{
				"x": 0.8702558084,
				"y": -0.5317239208,
				"z": -2.0103296181,
				"element": "H" 
			},
			{
				"x": -1.7112155301,
				"y": 0.700906196,
				"z": -1.1430047818,
				"element": "H" 
			},
			{
				"x": -1.3671660527,
				"y": -0.9029580539,
				"z": -1.7269088736,
				"element": "H" 
			},
			{
				"x": -1.1611457371,
				"y": 0.2238460108,
				"z": 1.0826186548,
				"element": "H" 
			},
			{
				"x": -2.1360954417,
				"y": -1.127063523,
				"z": 0.5321771074,
				"element": "H" 
			},
			{
				"x": -0.0183329593,
				"y": -2.6780659633,
				"z": -1.077629336,
				"element": "H" 
			},
			{
				"x": -1.0287984849,
				"y": -3.4271625082,
				"z": 0.1595093954,
				"element": "H" 
			},
			{
				"x": 0.7352092909,
				"y": -3.5645575082,
				"z": 0.2498463458,
				"element": "H" 
			}
		],
		 "valence_orbital": [ 
			{
				"type": "occ",
				"energy": -0.27734,
				"method": "rhf"
			},
			{
				"type": "occ",
				"energy": -0.27063,
				"method": "rhf"
			},
			{
				"type": "occ",
				"energy": -0.26741,
				"method": "rhf"
			},
			{
				"type": "occ",
				"energy": -0.26211,
				"method": "rhf"
			},
			{
				"type": "occ",
				"energy": -0.22515,
				"method": "rhf"
			},
			{
				"type": "unocc",
				"energy": 0.00872,
				"method": "rhf"
			},
			{
				"type": "unocc",
				"energy": 0.03085,
				"method": "rhf"
			},
			{
				"type": "unocc",
				"energy": 0.07407,
				"method": "rhf"
			},
			{
				"type": "unocc",
				"energy": 0.07891,
				"method": "rhf"
			},
			{
				"type": "unocc",
				"energy": 0.08293,
				"method": "rhf"
			}
		],
		"cosmo_sigma_profile": { 
			"-0.025": 0.0,
			"-0.024": 0.0,
			"-0.023": 0.0,
			"-0.022": 0.0,
			"-0.021": 0.0,
			"-0.02": 0.0,
			"-0.019": 0.0,
			"-0.018": 0.214937516489,
			"-0.017": 1.01921943912,
			"-0.016": 0.925615117475,
			"-0.015": 0.85851532759,
			"-0.014": 0.719352732078,
			"-0.013": 0.748879431083,
			"-0.012": 0.307206567919,
			"-0.011": 1.04435000228,
			"-0.01": 0.811816356111,
			"-0.009": 0.542571121865,
			"-0.008": 0.682756088628,
			"-0.007": 0.623852368197,
			"-0.006": 3.97213817759,
			"-0.005": 5.86311941913,
			"-0.004": 5.8006777934,
			"-0.003": 18.0404623544,
			"-0.002": 59.7663092749,
			"-0.001": 86.3316001535,
			"0.0": 76.6995756583,
			"0.001": 57.1208944725,
			"0.002": 40.2384673966,
			"0.003": 10.9734279624,
			"0.004": 4.92583239106,
			"0.005": 5.77859028664,
			"0.006": 5.70258891537,
			"0.007": 5.13456497348,
			"0.008": 4.13345513266,
			"0.009": 2.87273085844,
			"0.01": 3.09910052144,
			"0.011": 2.65841183405,
			"0.012": 1.91800258705,
			"0.013": 0.516939322249,
			"0.014": 0.0,
			"0.015": 0.0,
			"0.016": 0.0,
			"0.017": 0.0,
			"0.018": 0.0,
			"0.019": 0.0,
			"0.02": 0.0,
			"0.021": 0.0,
			"0.022": 0.0,
			"0.023": 0.0,
			"0.024": 0.0,
			"0.025": 0.0
		}
	}
}
