{
	 "smiles": "CC1=NC2=C(C=NN2C2=CC=C(F)C=C2)C(=O)N1", 
	 "Tm": 603.15, 
	 "num_atms": 27, 
	 "gaussian": { 
		 "optdone": 1, 
		 "sigma_profile": "yes", 
		 "theory": "DFT", 
		 "functional": "B3LYP", 
		 "basiset": "6-31G**", 
		 "properties": { 
			 "R2extent": 5767.1421, 
			 "electric_dipole_moment_norm": 4.16201683082, 
			 "electric_quadrupole_moment_norm": 31.0683770624, 
			 "total_energy": -856.778412529, 
			 "HOMO_LUMO_gap": 0.17553, 
			 "cosmo_polarized_energy": -15.05, 
			 "cosmo_cavitation_energy": 32.43, 
			 "cosmo_dispersion_energy": -23.86, 
			 "cosmo_repulsion_energy": 1.78, 
			 "cosmo_total_nonelectrostatic_energy": 10.35, 
			 "SMD_solvation_energy": 5.43 
		},
		"coords": [
			{
				"x": 0.2558374682,
				"y": -0.2367630302,
				"z": -4.6537954713,
				"element": "C" 
			},
			{
				"x": 0.8700313382,
				"y": -0.0162332436,
				"z": -3.2975454765,
				"element": "C" 
			},
			{
				"x": 0.2974355402,
				"y": -0.537783827,
				"z": -2.2440918532,
				"element": "N" 
			},
			{
				"x": 0.9372270776,
				"y": -0.2759117902,
				"z": -1.067257287,
				"element": "C" 
			},
			{
				"x": 2.1093104719,
				"y": 0.4754716635,
				"z": -0.9046111238,
				"element": "C" 
			},
			{
				"x": 2.3675078652,
				"y": 0.4564628951,
				"z": 0.4850073578,
				"element": "C" 
			},
			{
				"x": 1.4491059384,
				"y": -0.2377639685,
				"z": 1.131106536,
				"element": "N" 
			},
			{
				"x": 0.5631293582,
				"y": -0.6932676883,
				"z": 0.1835084609,
				"element": "N" 
			},
			{
				"x": -0.5464552459,
				"y": -1.4835164324,
				"z": 0.6098775881,
				"element": "C" 
			},
			{
				"x": -1.4857531869,
				"y": -1.9778209312,
				"z": -0.3050471191,
				"element": "C" 
			},
			{
				"x": -2.5562182656,
				"y": -2.746255658,
				"z": 0.1507404219,
				"element": "C" 
			},
			{
				"x": -2.6767698649,
				"y": -3.0115612832,
				"z": 1.5084729206,
				"element": "C" 
			},
			{
				"x": -3.7145444231,
				"y": -3.7558609127,
				"z": 1.9454749036,
				"element": "F" 
			},
			{
				"x": -1.7534554419,
				"y": -2.5284665764,
				"z": 2.4285063444,
				"element": "C" 
			},
			{
				"x": -0.6835923656,
				"y": -1.7610894267,
				"z": 1.9773016598,
				"element": "C" 
			},
			{
				"x": 2.7504071085,
				"y": 1.0554247131,
				"z": -2.0546498886,
				"element": "C" 
			},
			{
				"x": 3.7621726965,
				"y": 1.7335337789,
				"z": -2.1300551307,
				"element": "O" 
			},
			{
				"x": 2.0152208743,
				"y": 0.7313180589,
				"z": -3.2362387158,
				"element": "N" 
			},
			{
				"x": 0.8245779644,
				"y": 0.2469631523,
				"z": -5.4512844018,
				"element": "H" 
			},
			{
				"x": -0.7655071655,
				"y": 0.1536977364,
				"z": -4.6636136057,
				"element": "H" 
			},
			{
				"x": 0.1991322098,
				"y": -1.308612034,
				"z": -4.8626505612,
				"element": "H" 
			},
			{
				"x": 3.1807663667,
				"y": 0.9193688225,
				"z": 1.0264939026,
				"element": "H" 
			},
			{
				"x": -1.3771802007,
				"y": -1.7619605275,
				"z": -1.3589308899,
				"element": "H" 
			},
			{
				"x": -3.2945149398,
				"y": -3.1386881396,
				"z": -0.5399947702,
				"element": "H" 
			},
			{
				"x": -1.8761513044,
				"y": -2.7535585855,
				"z": 3.4822495731,
				"element": "H" 
			},
			{
				"x": 0.0500249734,
				"y": -1.3721182034,
				"z": 2.6707641873,
				"element": "H" 
			},
			{
				"x": 2.4132551526,
				"y": 1.1100914378,
				"z": -4.0870375614,
				"element": "H" 
			}
		],
		 "valence_orbital": [ 
			{
				"type": "occ",
				"energy": -0.29267,
				"method": "rhf"
			},
			{
				"type": "occ",
				"energy": -0.26939,
				"method": "rhf"
			},
			{
				"type": "occ",
				"energy": -0.26324,
				"method": "rhf"
			},
			{
				"type": "occ",
				"energy": -0.23943,
				"method": "rhf"
			},
			{
				"type": "occ",
				"energy": -0.22398,
				"method": "rhf"
			},
			{
				"type": "unocc",
				"energy": -0.04845,
				"method": "rhf"
			},
			{
				"type": "unocc",
				"energy": -0.01914,
				"method": "rhf"
			},
			{
				"type": "unocc",
				"energy": -0.01286,
				"method": "rhf"
			},
			{
				"type": "unocc",
				"energy": 0.00305,
				"method": "rhf"
			},
			{
				"type": "unocc",
				"energy": 0.05035,
				"method": "rhf"
			}
		],
		"cosmo_sigma_profile": { 
			"-0.025": 0.0,
			"-0.024": 0.0,
			"-0.023": 0.0,
			"-0.022": 0.0,
			"-0.021": 0.0,
			"-0.02": 0.0,
			"-0.019": 0.0,
			"-0.018": 0.0,
			"-0.017": 0.115550677828,
			"-0.016": 1.14942466963,
			"-0.015": 1.29179165202,
			"-0.014": 1.20200909206,
			"-0.013": 1.27259408663,
			"-0.012": 1.05000801766,
			"-0.011": 1.12563656657,
			"-0.01": 1.05309917294,
			"-0.009": 2.47644482775,
			"-0.008": 4.19101506504,
			"-0.007": 7.50566513479,
			"-0.006": 12.2468246736,
			"-0.005": 13.4540784533,
			"-0.004": 17.0575531466,
			"-0.003": 18.1747282415,
			"-0.002": 17.4332529402,
			"-0.001": 17.005472255,
			"0.0": 21.220191662,
			"0.001": 23.9769747474,
			"0.002": 20.9546348191,
			"0.003": 21.186442669,
			"0.004": 18.2527022146,
			"0.005": 8.44548507274,
			"0.006": 5.51078953407,
			"0.007": 3.44727068492,
			"0.008": 2.31145708422,
			"0.009": 2.97621710013,
			"0.01": 2.97305023116,
			"0.011": 2.36012660944,
			"0.012": 4.22922690637,
			"0.013": 5.23269855924,
			"0.014": 0.743869143555,
			"0.015": 0.0,
			"0.016": 0.0,
			"0.017": 0.0,
			"0.018": 0.0,
			"0.019": 0.0,
			"0.02": 0.0,
			"0.021": 0.0,
			"0.022": 0.0,
			"0.023": 0.0,
			"0.024": 0.0,
			"0.025": 0.0
		}
	}
}
