{
	 "smiles": "NCC1=CC=C(NC(=O)C2=CC=CO2)C=C1", 
	 "Tm": 376.15, 
	 "num_atms": 28, 
	 "gaussian": { 
		 "optdone": 1, 
		 "sigma_profile": "yes", 
		 "theory": "DFT", 
		 "functional": "B3LYP", 
		 "basiset": "6-31G**", 
		 "properties": { 
			 "R2extent": 4531.8063, 
			 "electric_dipole_moment_norm": 2.17533820129, 
			 "electric_quadrupole_moment_norm": 26.1879233325, 
			 "total_energy": -724.437875888, 
			 "HOMO_LUMO_gap": 0.17831, 
			 "cosmo_polarized_energy": -16.15, 
			 "cosmo_cavitation_energy": 32.96, 
			 "cosmo_dispersion_energy": -22.99, 
			 "cosmo_repulsion_energy": 1.82, 
			 "cosmo_total_nonelectrostatic_energy": 11.79, 
			 "SMD_solvation_energy": 5.64 
		},
		"coords": [
			{
				"x": -4.3242129751,
				"y": -2.3866608584,
				"z": 0.1548958174,
				"element": "N" 
			},
			{
				"x": -3.5303571386,
				"y": -2.3339530341,
				"z": -1.0849443626,
				"element": "C" 
			},
			{
				"x": -2.0603824557,
				"y": -1.996398632,
				"z": -0.9085794885,
				"element": "C" 
			},
			{
				"x": -1.6220016447,
				"y": -0.6647982646,
				"z": -0.889790196,
				"element": "C" 
			},
			{
				"x": -0.2833847781,
				"y": -0.3412955315,
				"z": -0.6843535028,
				"element": "C" 
			},
			{
				"x": 0.655866767,
				"y": -1.3566130487,
				"z": -0.4596933809,
				"element": "C" 
			},
			{
				"x": 2.0378774547,
				"y": -1.0849099805,
				"z": -0.289272859,
				"element": "N" 
			},
			{
				"x": 2.6943164634,
				"y": -0.0173506997,
				"z": 0.2948608584,
				"element": "C" 
			},
			{
				"x": 3.8547316124,
				"y": 0.2425940261,
				"z": -0.0123512284,
				"element": "O" 
			},
			{
				"x": 2.0264155527,
				"y": 0.7732366919,
				"z": 1.3450139312,
				"element": "C" 
			},
			{
				"x": 2.4199097484,
				"y": 1.9661308133,
				"z": 1.8912491566,
				"element": "C" 
			},
			{
				"x": 1.4770113422,
				"y": 2.2732187223,
				"z": 2.9160707538,
				"element": "C" 
			},
			{
				"x": 0.5839915607,
				"y": 1.2403273649,
				"z": 2.9273924187,
				"element": "C" 
			},
			{
				"x": 0.9006287005,
				"y": 0.3200694651,
				"z": 1.9816828863,
				"element": "O" 
			},
			{
				"x": 0.2335620574,
				"y": -2.6916363776,
				"z": -0.4815735981,
				"element": "C" 
			},
			{
				"x": -1.104748167,
				"y": -3.0019634649,
				"z": -0.7133497014,
				"element": "C" 
			},
			{
				"x": -4.2544267148,
				"y": -1.4903630189,
				"z": 0.6335685108,
				"element": "H" 
			},
			{
				"x": -3.9066478879,
				"y": -3.0654489642,
				"z": 0.789162207,
				"element": "H" 
			},
			{
				"x": -4.0009915423,
				"y": -1.5971076209,
				"z": -1.7460156196,
				"element": "H" 
			},
			{
				"x": -3.6280104196,
				"y": -3.3065747261,
				"z": -1.58060898,
				"element": "H" 
			},
			{
				"x": -2.3374956102,
				"y": 0.1355955594,
				"z": -1.0663767854,
				"element": "H" 
			},
			{
				"x": 0.0386494617,
				"y": 0.6942634829,
				"z": -0.7138883118,
				"element": "H" 
			},
			{
				"x": 2.6751709046,
				"y": -1.623753133,
				"z": -0.8638243417,
				"element": "H" 
			},
			{
				"x": 3.2856924542,
				"y": 2.5340311285,
				"z": 1.5860525917,
				"element": "H" 
			},
			{
				"x": 1.4657338332,
				"y": 3.1395086057,
				"z": 3.5614084149,
				"element": "H" 
			},
			{
				"x": -0.2884468266,
				"y": 1.0198769463,
				"z": 3.5233272936,
				"element": "H" 
			},
			{
				"x": 0.9600341492,
				"y": -3.4822530238,
				"z": -0.3148573095,
				"element": "H" 
			},
			{
				"x": -1.4114859018,
				"y": -4.0453724275,
				"z": -0.7378051748,
				"element": "H" 
			}
		],
		 "valence_orbital": [ 
			{
				"type": "occ",
				"energy": -0.26103,
				"method": "rhf"
			},
			{
				"type": "occ",
				"energy": -0.25755,
				"method": "rhf"
			},
			{
				"type": "occ",
				"energy": -0.24506,
				"method": "rhf"
			},
			{
				"type": "occ",
				"energy": -0.23819,
				"method": "rhf"
			},
			{
				"type": "occ",
				"energy": -0.21997,
				"method": "rhf"
			},
			{
				"type": "unocc",
				"energy": -0.04166,
				"method": "rhf"
			},
			{
				"type": "unocc",
				"energy": -0.01031,
				"method": "rhf"
			},
			{
				"type": "unocc",
				"energy": -0.00357,
				"method": "rhf"
			},
			{
				"type": "unocc",
				"energy": 0.04315,
				"method": "rhf"
			},
			{
				"type": "unocc",
				"energy": 0.08306,
				"method": "rhf"
			}
		],
		"cosmo_sigma_profile": { 
			"-0.025": 0.0,
			"-0.024": 0.0,
			"-0.023": 0.0,
			"-0.022": 0.0,
			"-0.021": 0.0,
			"-0.02": 0.0,
			"-0.019": 0.0,
			"-0.018": 0.0,
			"-0.017": 0.0,
			"-0.016": 0.0,
			"-0.015": 0.0300883131504,
			"-0.014": 0.728795698444,
			"-0.013": 1.20471516585,
			"-0.012": 0.922105622131,
			"-0.011": 0.92902870956,
			"-0.01": 1.79722525214,
			"-0.009": 5.15301673012,
			"-0.008": 6.77340343884,
			"-0.007": 10.0496685743,
			"-0.006": 13.6031268205,
			"-0.005": 21.2293395551,
			"-0.004": 21.7114279259,
			"-0.003": 16.5675942628,
			"-0.002": 14.4749977222,
			"-0.001": 15.7016798731,
			"0.0": 17.3495840201,
			"0.001": 16.5071898334,
			"0.002": 18.4221304078,
			"0.003": 16.6184700636,
			"0.004": 13.5563945646,
			"0.005": 11.536953991,
			"0.006": 7.19216028361,
			"0.007": 4.60104216686,
			"0.008": 3.01216464909,
			"0.009": 1.90261603977,
			"0.01": 1.66375756535,
			"0.011": 3.21984577244,
			"0.012": 2.64179678132,
			"0.013": 6.74114243917,
			"0.014": 2.8650345177,
			"0.015": 0.467903603139,
			"0.016": 0.572929734943,
			"0.017": 0.802628456503,
			"0.018": 0.908197787995,
			"0.019": 0.43162603407,
			"0.02": 0.341091793274,
			"0.021": 0.0,
			"0.022": 0.0,
			"0.023": 0.0,
			"0.024": 0.0,
			"0.025": 0.0
		}
	}
}
