{
	 "smiles": "OC1=CC(F)=C(C=O)C(F)=C1", 
	 "Tm": 454.15, 
	 "num_atms": 15, 
	 "gaussian": { 
		 "optdone": 1, 
		 "sigma_profile": "yes", 
		 "theory": "DFT", 
		 "functional": "B3LYP", 
		 "basiset": "6-31G**", 
		 "properties": { 
			 "R2extent": 1830.0383, 
			 "electric_dipole_moment_norm": 5.42707506674, 
			 "electric_quadrupole_moment_norm": 5.94613935087, 
			 "total_energy": -619.251023189, 
			 "HOMO_LUMO_gap": 0.18837, 
			 "cosmo_polarized_energy": -13.65, 
			 "cosmo_cavitation_energy": 21.15, 
			 "cosmo_dispersion_energy": -15.4, 
			 "cosmo_repulsion_energy": 1.19, 
			 "cosmo_total_nonelectrostatic_energy": 6.94, 
			 "SMD_solvation_energy": 6.11 
		},
		"coords": [
			{
				"x": 1.863114018,
				"y": -0.0008493268,
				"z": 2.1364828803,
				"element": "O" 
			},
			{
				"x": 1.1618177685,
				"y": -0.1779883714,
				"z": 0.9914121069,
				"element": "C" 
			},
			{
				"x": -0.123261474,
				"y": 0.3771816074,
				"z": 0.94113137,
				"element": "C" 
			},
			{
				"x": -0.8741871764,
				"y": 0.2193161016,
				"z": -0.2108586686,
				"element": "C" 
			},
			{
				"x": -2.0950986451,
				"y": 0.757639595,
				"z": -0.2331364472,
				"element": "F" 
			},
			{
				"x": -0.409449627,
				"y": -0.4770328192,
				"z": -1.3463020186,
				"element": "C" 
			},
			{
				"x": -1.1922795735,
				"y": -0.6584421987,
				"z": -2.5863225996,
				"element": "C" 
			},
			{
				"x": -2.3168466712,
				"y": -0.2354730372,
				"z": -2.7771131949,
				"element": "O" 
			},
			{
				"x": 0.8848629786,
				"y": -1.0090678229,
				"z": -1.2325176778,
				"element": "C" 
			},
			{
				"x": 1.3935987489,
				"y": -1.6869854418,
				"z": -2.2790509098,
				"element": "F" 
			},
			{
				"x": 1.678835437,
				"y": -0.8810172893,
				"z": -0.1049284509,
				"element": "C" 
			},
			{
				"x": 2.72932464,
				"y": -0.422680558,
				"z": 2.0597834114,
				"element": "H" 
			},
			{
				"x": -0.5227873724,
				"y": 0.9203980284,
				"z": 1.788302642,
				"element": "H" 
			},
			{
				"x": -0.6592542277,
				"y": -1.2335976148,
				"z": -3.368349135,
				"element": "H" 
			},
			{
				"x": 2.6704111763,
				"y": -1.3213008523,
				"z": -0.0938333083,
				"element": "H" 
			}
		],
		 "valence_orbital": [ 
			{
				"type": "occ",
				"energy": -0.38088,
				"method": "rhf"
			},
			{
				"type": "occ",
				"energy": -0.33862,
				"method": "rhf"
			},
			{
				"type": "occ",
				"energy": -0.26713,
				"method": "rhf"
			},
			{
				"type": "occ",
				"energy": -0.25406,
				"method": "rhf"
			},
			{
				"type": "occ",
				"energy": -0.24969,
				"method": "rhf"
			},
			{
				"type": "unocc",
				"energy": -0.06132,
				"method": "rhf"
			},
			{
				"type": "unocc",
				"energy": -0.01902,
				"method": "rhf"
			},
			{
				"type": "unocc",
				"energy": 0.03547,
				"method": "rhf"
			},
			{
				"type": "unocc",
				"energy": 0.04469,
				"method": "rhf"
			},
			{
				"type": "unocc",
				"energy": 0.06989,
				"method": "rhf"
			}
		],
		"cosmo_sigma_profile": { 
			"-0.025": 0.0,
			"-0.024": 0.0,
			"-0.023": 0.0,
			"-0.022": 0.0,
			"-0.021": 0.0,
			"-0.02": 0.243818075492,
			"-0.019": 0.969663476467,
			"-0.018": 1.4170706927,
			"-0.017": 1.08107693231,
			"-0.016": 1.15581325165,
			"-0.015": 0.842424933276,
			"-0.014": 0.829164939931,
			"-0.013": 0.728322109181,
			"-0.012": 1.75874904801,
			"-0.011": 1.07711520444,
			"-0.01": 1.02903648079,
			"-0.009": 1.95859186098,
			"-0.008": 3.28863144492,
			"-0.007": 4.18818741159,
			"-0.006": 4.27617368397,
			"-0.005": 5.74531371028,
			"-0.004": 7.11908035,
			"-0.003": 7.70476400336,
			"-0.002": 9.69979636517,
			"-0.001": 20.7568879502,
			"0.0": 17.6607805397,
			"0.001": 14.7761355218,
			"0.002": 8.78596555079,
			"0.003": 15.8276115385,
			"0.004": 6.43148903672,
			"0.005": 3.83446809698,
			"0.006": 2.722963485,
			"0.007": 4.18533254803,
			"0.008": 3.43407408035,
			"0.009": 3.29606435428,
			"0.01": 4.0799826895,
			"0.011": 4.48983532348,
			"0.012": 3.95911516773,
			"0.013": 1.13095889747,
			"0.014": 0.0318851959111,
			"0.015": 0.0,
			"0.016": 0.0,
			"0.017": 0.0,
			"0.018": 0.0,
			"0.019": 0.0,
			"0.02": 0.0,
			"0.021": 0.0,
			"0.022": 0.0,
			"0.023": 0.0,
			"0.024": 0.0,
			"0.025": 0.0
		}
	}
}
