{
	 "smiles": "CCOC(=O)CC(=C)C(=O)OCC", 
	 "Tm": 331.65, 
	 "num_atms": 27, 
	 "gaussian": { 
		 "optdone": 1, 
		 "sigma_profile": "yes", 
		 "theory": "DFT", 
		 "functional": "B3LYP", 
		 "basiset": "6-31G**", 
		 "properties": { 
			 "R2extent": 3236.1607, 
			 "electric_dipole_moment_norm": 3.44660657169, 
			 "electric_quadrupole_moment_norm": 10.2105736685, 
			 "total_energy": -652.302293678, 
			 "HOMO_LUMO_gap": 0.2275, 
			 "cosmo_polarized_energy": -12.13, 
			 "cosmo_cavitation_energy": 31.75, 
			 "cosmo_dispersion_energy": -21.32, 
			 "cosmo_repulsion_energy": 1.77, 
			 "cosmo_total_nonelectrostatic_energy": 12.2, 
			 "SMD_solvation_energy": 8.28 
		},
		"coords": [
			{
				"x": -4.26534406,
				"y": 1.7725782678,
				"z": 1.8810289577,
				"element": "C" 
			},
			{
				"x": -2.8435190651,
				"y": 2.0581012426,
				"z": 1.436252394,
				"element": "C" 
			},
			{
				"x": -2.5333328265,
				"y": 1.1452019445,
				"z": 0.357800243,
				"element": "O" 
			},
			{
				"x": -1.2974761045,
				"y": 1.2616234728,
				"z": -0.1735291525,
				"element": "C" 
			},
			{
				"x": -0.4707252295,
				"y": 2.0605642573,
				"z": 0.2057304285,
				"element": "O" 
			},
			{
				"x": -1.1202850269,
				"y": 0.2731070882,
				"z": -1.3193768778,
				"element": "C" 
			},
			{
				"x": 0.3059625475,
				"y": 0.173470469,
				"z": -1.7955522701,
				"element": "C" 
			},
			{
				"x": 0.7056090143,
				"y": 0.557762282,
				"z": -3.0117661577,
				"element": "C" 
			},
			{
				"x": 1.3386336977,
				"y": -0.4017469421,
				"z": -0.8748283302,
				"element": "C" 
			},
			{
				"x": 2.5290108928,
				"y": -0.4606645808,
				"z": -1.1079248843,
				"element": "O" 
			},
			{
				"x": 0.7781622441,
				"y": -0.8772711992,
				"z": 0.2606802294,
				"element": "O" 
			},
			{
				"x": 1.696156881,
				"y": -1.4279145976,
				"z": 1.2314706015,
				"element": "C" 
			},
			{
				"x": 0.8834667827,
				"y": -1.8527394808,
				"z": 2.4395701621,
				"element": "C" 
			},
			{
				"x": -4.5402749899,
				"y": 2.4444744428,
				"z": 2.700082473,
				"element": "H" 
			},
			{
				"x": -4.3658017157,
				"y": 0.7418306246,
				"z": 2.2330315094,
				"element": "H" 
			},
			{
				"x": -4.970827126,
				"y": 1.9256195564,
				"z": 1.0592463572,
				"element": "H" 
			},
			{
				"x": -2.1209005718,
				"y": 1.9072499686,
				"z": 2.2444950824,
				"element": "H" 
			},
			{
				"x": -2.7224716017,
				"y": 3.0849123589,
				"z": 1.0766335074,
				"element": "H" 
			},
			{
				"x": -1.4990919073,
				"y": -0.6976815012,
				"z": -0.9843430091,
				"element": "H" 
			},
			{
				"x": -1.7706724066,
				"y": 0.5976743161,
				"z": -2.1396305263,
				"element": "H" 
			},
			{
				"x": 1.7459105205,
				"y": 0.4561405362,
				"z": -3.3012840819,
				"element": "H" 
			},
			{
				"x": 0.0123737523,
				"y": 0.9812978165,
				"z": -3.7319743988,
				"element": "H" 
			},
			{
				"x": 2.2282792925,
				"y": -2.2688609948,
				"z": 0.7751530232,
				"element": "H" 
			},
			{
				"x": 2.4398303845,
				"y": -0.6652651909,
				"z": 1.4816330524,
				"element": "H" 
			},
			{
				"x": 0.1419069046,
				"y": -2.6097187497,
				"z": 2.1677192539,
				"element": "H" 
			},
			{
				"x": 0.3602644924,
				"y": -0.9977188275,
				"z": 2.877195667,
				"element": "H" 
			},
			{
				"x": 1.5450552248,
				"y": -2.2778265796,
				"z": 3.2007867463,
				"element": "H" 
			}
		],
		 "valence_orbital": [ 
			{
				"type": "occ",
				"energy": -0.30124,
				"method": "rhf"
			},
			{
				"type": "occ",
				"energy": -0.29496,
				"method": "rhf"
			},
			{
				"type": "occ",
				"energy": -0.27606,
				"method": "rhf"
			},
			{
				"type": "occ",
				"energy": -0.26835,
				"method": "rhf"
			},
			{
				"type": "occ",
				"energy": -0.26545,
				"method": "rhf"
			},
			{
				"type": "unocc",
				"energy": -0.03795,
				"method": "rhf"
			},
			{
				"type": "unocc",
				"energy": 0.01508,
				"method": "rhf"
			},
			{
				"type": "unocc",
				"energy": 0.07963,
				"method": "rhf"
			},
			{
				"type": "unocc",
				"energy": 0.09277,
				"method": "rhf"
			},
			{
				"type": "unocc",
				"energy": 0.10434,
				"method": "rhf"
			}
		],
		"cosmo_sigma_profile": { 
			"-0.025": 0.0,
			"-0.024": 0.0,
			"-0.023": 0.0,
			"-0.022": 0.0,
			"-0.021": 0.0,
			"-0.02": 0.0,
			"-0.019": 0.0,
			"-0.018": 0.0,
			"-0.017": 0.0,
			"-0.016": 0.0,
			"-0.015": 0.0,
			"-0.014": 0.0,
			"-0.013": 0.0,
			"-0.012": 0.0,
			"-0.011": 0.0,
			"-0.01": 0.0,
			"-0.009": 0.0,
			"-0.008": 1.5610753984,
			"-0.007": 5.55151881126,
			"-0.006": 6.51459996877,
			"-0.005": 17.2253892342,
			"-0.004": 29.5277173695,
			"-0.003": 32.5386593792,
			"-0.002": 26.4974785834,
			"-0.001": 23.7283946285,
			"0.0": 22.0310610575,
			"0.001": 13.7302002175,
			"0.002": 10.0270809517,
			"0.003": 9.19614737462,
			"0.004": 8.00638155604,
			"0.005": 6.16285840085,
			"0.006": 6.20412977581,
			"0.007": 3.46173507664,
			"0.008": 4.34726881937,
			"0.009": 4.37944151224,
			"0.01": 3.4271100553,
			"0.011": 6.07250939833,
			"0.012": 8.51280819678,
			"0.013": 0.634459242031,
			"0.014": 0.0,
			"0.015": 0.0,
			"0.016": 0.0,
			"0.017": 0.0,
			"0.018": 0.0,
			"0.019": 0.0,
			"0.02": 0.0,
			"0.021": 0.0,
			"0.022": 0.0,
			"0.023": 0.0,
			"0.024": 0.0,
			"0.025": 0.0
		}
	}
}
