{
	 "smiles": "NC1=C(C=CC(=C1)C(O)=O)N1C=NN=C1", 
	 "Tm": 608.15, 
	 "num_atms": 23, 
	 "gaussian": { 
		 "optdone": 1, 
		 "sigma_profile": "yes", 
		 "theory": "DFT", 
		 "functional": "B3LYP", 
		 "basiset": "6-31G**", 
		 "properties": { 
			 "R2extent": 3882.0903, 
			 "electric_dipole_moment_norm": 3.83487216084, 
			 "electric_quadrupole_moment_norm": 39.6375862504, 
			 "total_energy": -717.209827566, 
			 "HOMO_LUMO_gap": 0.17204, 
			 "cosmo_polarized_energy": -29.33, 
			 "cosmo_cavitation_energy": 28.47, 
			 "cosmo_dispersion_energy": -20.56, 
			 "cosmo_repulsion_energy": 1.59, 
			 "cosmo_total_nonelectrostatic_energy": 9.5, 
			 "SMD_solvation_energy": 5.12 
		},
		"coords": [
			{
				"x": -1.1885083541,
				"y": 0.7914546125,
				"z": -1.4383330009,
				"element": "N" 
			},
			{
				"x": -0.1274513649,
				"y": 0.3328360876,
				"z": -0.6726524269,
				"element": "C" 
			},
			{
				"x": -0.0940403459,
				"y": 0.5272525204,
				"z": 0.7272311319,
				"element": "C" 
			},
			{
				"x": 0.9747403019,
				"y": 0.0537794288,
				"z": 1.4915248864,
				"element": "C" 
			},
			{
				"x": 2.0296876582,
				"y": -0.6260187147,
				"z": 0.8945303532,
				"element": "C" 
			},
			{
				"x": 1.996112695,
				"y": -0.8630477743,
				"z": -0.484873029,
				"element": "C" 
			},
			{
				"x": 0.9327341166,
				"y": -0.3819548555,
				"z": -1.2549131836,
				"element": "C" 
			},
			{
				"x": 3.1495076669,
				"y": -1.6059670635,
				"z": -1.0952151882,
				"element": "C" 
			},
			{
				"x": 2.9042020594,
				"y": -2.2539658075,
				"z": -2.2658771755,
				"element": "O" 
			},
			{
				"x": 4.2489835153,
				"y": -1.6436207452,
				"z": -0.5979109922,
				"element": "O" 
			},
			{
				"x": -1.1494043813,
				"y": 1.2481668283,
				"z": 1.3620207144,
				"element": "N" 
			},
			{
				"x": -1.0492224956,
				"y": 2.3833913311,
				"z": 2.1359104922,
				"element": "C" 
			},
			{
				"x": -2.2203659972,
				"y": 2.7405914631,
				"z": 2.5960248809,
				"element": "N" 
			},
			{
				"x": -3.1438547655,
				"y": 1.8194224133,
				"z": 2.1324607623,
				"element": "N" 
			},
			{
				"x": -2.4940331063,
				"y": 0.9449138713,
				"z": 1.407713195,
				"element": "C" 
			},
			{
				"x": -1.7070690907,
				"y": 1.5732882562,
				"z": -1.0615573197,
				"element": "H" 
			},
			{
				"x": -1.0090634599,
				"y": 0.8792031454,
				"z": -2.4284253688,
				"element": "H" 
			},
			{
				"x": 0.960891576,
				"y": 0.2213328657,
				"z": 2.5639165216,
				"element": "H" 
			},
			{
				"x": 2.8709358344,
				"y": -0.987526522,
				"z": 1.4734816257,
				"element": "H" 
			},
			{
				"x": 0.9345887921,
				"y": -0.5030842689,
				"z": -2.3357929203,
				"element": "H" 
			},
			{
				"x": 1.951786075,
				"y": -2.2903082259,
				"z": -2.4315614306,
				"element": "H" 
			},
			{
				"x": -0.111807244,
				"y": 2.8940809091,
				"z": 2.3035444412,
				"element": "H" 
			},
			{
				"x": -2.9178496855,
				"y": 0.0868802446,
				"z": 0.906553031,
				"element": "H" 
			}
		],
		 "valence_orbital": [ 
			{
				"type": "occ",
				"energy": -0.28855,
				"method": "rhf"
			},
			{
				"type": "occ",
				"energy": -0.28062,
				"method": "rhf"
			},
			{
				"type": "occ",
				"energy": -0.27586,
				"method": "rhf"
			},
			{
				"type": "occ",
				"energy": -0.26222,
				"method": "rhf"
			},
			{
				"type": "occ",
				"energy": -0.23995,
				"method": "rhf"
			},
			{
				"type": "unocc",
				"energy": -0.06791,
				"method": "rhf"
			},
			{
				"type": "unocc",
				"energy": -0.02902,
				"method": "rhf"
			},
			{
				"type": "unocc",
				"energy": 0.00124,
				"method": "rhf"
			},
			{
				"type": "unocc",
				"energy": 0.02981,
				"method": "rhf"
			},
			{
				"type": "unocc",
				"energy": 0.03531,
				"method": "rhf"
			}
		],
		"cosmo_sigma_profile": { 
			"-0.025": 0.0,
			"-0.024": 0.0,
			"-0.023": 0.0,
			"-0.022": 0.0,
			"-0.021": 0.0,
			"-0.02": 0.0,
			"-0.019": 0.0307743601509,
			"-0.018": 0.782485210037,
			"-0.017": 1.14198863325,
			"-0.016": 1.13191989785,
			"-0.015": 0.702624234128,
			"-0.014": 1.97799007396,
			"-0.013": 3.41885322147,
			"-0.012": 4.80324283586,
			"-0.011": 4.85461622866,
			"-0.01": 7.9182934681,
			"-0.009": 6.84496621143,
			"-0.008": 7.61104337657,
			"-0.007": 9.93123060658,
			"-0.006": 10.830315799,
			"-0.005": 10.6656204264,
			"-0.004": 10.0769169425,
			"-0.003": 11.08025597,
			"-0.002": 10.7932855191,
			"-0.001": 10.7478409231,
			"0.0": 9.36235827413,
			"0.001": 10.3148464483,
			"0.002": 13.9916187655,
			"0.003": 10.3014426771,
			"0.004": 5.53635005632,
			"0.005": 4.01732712277,
			"0.006": 5.74678473169,
			"0.007": 6.47418556544,
			"0.008": 4.69163202167,
			"0.009": 5.89370396471,
			"0.01": 7.2078979056,
			"0.011": 8.1623307631,
			"0.012": 7.85295447103,
			"0.013": 5.26453206689,
			"0.014": 2.69609807041,
			"0.015": 2.6906407536,
			"0.016": 2.43860406886,
			"0.017": 0.650130968573,
			"0.018": 0.0,
			"0.019": 0.0,
			"0.02": 0.0,
			"0.021": 0.0,
			"0.022": 0.0,
			"0.023": 0.0,
			"0.024": 0.0,
			"0.025": 0.0
		}
	}
}
