{
	 "smiles": "CCOC(=O)C(C)NC(=O)C1=CC=C(N)C=C1", 
	 "Tm": 401.15, 
	 "num_atms": 33, 
	 "gaussian": { 
		 "optdone": 1, 
		 "sigma_profile": "yes", 
		 "theory": "DFT", 
		 "functional": "B3LYP", 
		 "basiset": "6-31G**", 
		 "properties": { 
			 "R2extent": 5750.3661, 
			 "electric_dipole_moment_norm": 6.1979293986, 
			 "electric_quadrupole_moment_norm": 30.1443693029, 
			 "total_energy": -802.123248802, 
			 "HOMO_LUMO_gap": 0.18833, 
			 "cosmo_polarized_energy": -21.14, 
			 "cosmo_cavitation_energy": 36.45, 
			 "cosmo_dispersion_energy": -25.54, 
			 "cosmo_repulsion_energy": 2.04, 
			 "cosmo_total_nonelectrostatic_energy": 12.96, 
			 "SMD_solvation_energy": 7.49 
		},
		"coords": [
			{
				"x": -2.8576859498,
				"y": 3.5353867233,
				"z": -1.7770499381,
				"element": "C" 
			},
			{
				"x": -1.9220250971,
				"y": 2.9781563759,
				"z": -0.7216086913,
				"element": "C" 
			},
			{
				"x": -0.813564648,
				"y": 2.349013097,
				"z": -1.4095726308,
				"element": "O" 
			},
			{
				"x": 0.1304510007,
				"y": 1.7873740456,
				"z": -0.6239155718,
				"element": "C" 
			},
			{
				"x": 0.0939004573,
				"y": 1.8084324314,
				"z": 0.5863319956,
				"element": "O" 
			},
			{
				"x": 1.2205051537,
				"y": 1.1494654569,
				"z": -1.5028764357,
				"element": "C" 
			},
			{
				"x": 0.6611655046,
				"y": -0.0575594333,
				"z": -2.2811813053,
				"element": "C" 
			},
			{
				"x": 2.4668920614,
				"y": 0.9211092547,
				"z": -0.7773346912,
				"element": "N" 
			},
			{
				"x": 3.0989403183,
				"y": -0.2439173452,
				"z": -0.3552782733,
				"element": "C" 
			},
			{
				"x": 4.3281081311,
				"y": -0.2755086512,
				"z": -0.354843403,
				"element": "O" 
			},
			{
				"x": 2.3060715418,
				"y": -1.4042017449,
				"z": 0.1415760682,
				"element": "C" 
			},
			{
				"x": 2.8491977638,
				"y": -2.6868596423,
				"z": -0.0364265561,
				"element": "C" 
			},
			{
				"x": 2.2025470253,
				"y": -3.8134879587,
				"z": 0.4492116273,
				"element": "C" 
			},
			{
				"x": 0.9967206823,
				"y": -3.6904599638,
				"z": 1.167242846,
				"element": "C" 
			},
			{
				"x": 0.3767022835,
				"y": -4.8100350537,
				"z": 1.7084877703,
				"element": "N" 
			},
			{
				"x": 0.4705188243,
				"y": -2.4027844268,
				"z": 1.3783929178,
				"element": "C" 
			},
			{
				"x": 1.1146318483,
				"y": -1.2787206661,
				"z": 0.8722315485,
				"element": "C" 
			},
			{
				"x": -2.34796772,
				"y": 4.2748863212,
				"z": -2.4012367313,
				"element": "H" 
			},
			{
				"x": -3.236370052,
				"y": 2.7396343911,
				"z": -2.4249792753,
				"element": "H" 
			},
			{
				"x": -3.7113948085,
				"y": 4.0220236312,
				"z": -1.2953016324,
				"element": "H" 
			},
			{
				"x": -1.528338543,
				"y": 3.7598023167,
				"z": -0.0646079615,
				"element": "H" 
			},
			{
				"x": -2.4116482044,
				"y": 2.2320132077,
				"z": -0.0879745644,
				"element": "H" 
			},
			{
				"x": 1.4486462955,
				"y": 1.9151807452,
				"z": -2.2539253752,
				"element": "H" 
			},
			{
				"x": 1.4421446772,
				"y": -0.4745597853,
				"z": -2.9226490057,
				"element": "H" 
			},
			{
				"x": 0.303285435,
				"y": -0.8457937262,
				"z": -1.6185694884,
				"element": "H" 
			},
			{
				"x": -0.1681495367,
				"y": 0.2771223858,
				"z": -2.9083804226,
				"element": "H" 
			},
			{
				"x": 3.1797708097,
				"y": 1.6141190997,
				"z": -0.9677211416,
				"element": "H" 
			},
			{
				"x": 3.792475509,
				"y": -2.7811543395,
				"z": -0.5644332349,
				"element": "H" 
			},
			{
				"x": 2.632856639,
				"y": -4.7995219674,
				"z": 0.291154248,
				"element": "H" 
			},
			{
				"x": 0.6023892789,
				"y": -5.6952229987,
				"z": 1.2781560343,
				"element": "H" 
			},
			{
				"x": -0.6056935338,
				"y": -4.7154474022,
				"z": 1.9219874906,
				"element": "H" 
			},
			{
				"x": -0.4406180627,
				"y": -2.2871831577,
				"z": 1.9606821941,
				"element": "H" 
			},
			{
				"x": 0.7075349149,
				"y": -0.2932012204,
				"z": 1.0714115892,
				"element": "H" 
			}
		],
		 "valence_orbital": [ 
			{
				"type": "occ",
				"energy": -0.27839,
				"method": "rhf"
			},
			{
				"type": "occ",
				"energy": -0.2504,
				"method": "rhf"
			},
			{
				"type": "occ",
				"energy": -0.24527,
				"method": "rhf"
			},
			{
				"type": "occ",
				"energy": -0.23236,
				"method": "rhf"
			},
			{
				"type": "occ",
				"energy": -0.2022,
				"method": "rhf"
			},
			{
				"type": "unocc",
				"energy": -0.01387,
				"method": "rhf"
			},
			{
				"type": "unocc",
				"energy": 0.00227,
				"method": "rhf"
			},
			{
				"type": "unocc",
				"energy": 0.00607,
				"method": "rhf"
			},
			{
				"type": "unocc",
				"energy": 0.06563,
				"method": "rhf"
			},
			{
				"type": "unocc",
				"energy": 0.07959,
				"method": "rhf"
			}
		],
		"cosmo_sigma_profile": { 
			"-0.025": 0.0,
			"-0.024": 0.0,
			"-0.023": 0.0,
			"-0.022": 0.0,
			"-0.021": 0.0,
			"-0.02": 0.0,
			"-0.019": 0.0,
			"-0.018": 0.0,
			"-0.017": 0.0,
			"-0.016": 0.0,
			"-0.015": 0.0,
			"-0.014": 0.0552918971166,
			"-0.013": 2.72179328,
			"-0.012": 4.07558443803,
			"-0.011": 3.93776535359,
			"-0.01": 4.28918085682,
			"-0.009": 5.09206550117,
			"-0.008": 5.39103333008,
			"-0.007": 5.85820910717,
			"-0.006": 6.86794876125,
			"-0.005": 14.4876900814,
			"-0.004": 25.5895795879,
			"-0.003": 26.1889597736,
			"-0.002": 23.5140890635,
			"-0.001": 24.2681198693,
			"0.0": 21.4094869867,
			"0.001": 14.2787351544,
			"0.002": 12.1736000543,
			"0.003": 12.303390084,
			"0.004": 13.0211309678,
			"0.005": 14.1025233062,
			"0.006": 8.07784289929,
			"0.007": 5.23722543349,
			"0.008": 4.88986990875,
			"0.009": 2.75734420799,
			"0.01": 5.27866848706,
			"0.011": 6.31879589671,
			"0.012": 4.06786764073,
			"0.013": 4.38433060882,
			"0.014": 5.18102620346,
			"0.015": 1.2095357602,
			"0.016": 0.0,
			"0.017": 0.0,
			"0.018": 0.0,
			"0.019": 0.0,
			"0.02": 0.0,
			"0.021": 0.0,
			"0.022": 0.0,
			"0.023": 0.0,
			"0.024": 0.0,
			"0.025": 0.0
		}
	}
}
