{
	 "smiles": "C#CC1=CC=CN=C1", 
	 "Tm": 313.15, 
	 "num_atms": 13, 
	 "gaussian": { 
		 "optdone": 1, 
		 "sigma_profile": "yes", 
		 "theory": "DFT", 
		 "functional": "B3LYP", 
		 "basiset": "6-31G**", 
		 "properties": { 
			 "R2extent": 1156.1185, 
			 "electric_dipole_moment_norm": 1.98974961239, 
			 "electric_quadrupole_moment_norm": 7.55623564151, 
			 "total_energy": -324.430021929, 
			 "HOMO_LUMO_gap": 0.20066, 
			 "cosmo_polarized_energy": -6.68, 
			 "cosmo_cavitation_energy": 18.42, 
			 "cosmo_dispersion_energy": -13.07, 
			 "cosmo_repulsion_energy": 1.07, 
			 "cosmo_total_nonelectrostatic_energy": 6.42, 
			 "SMD_solvation_energy": 3.28 
		},
		"coords": [
			{
				"x": -1.5366443777,
				"y": 2.5901732223,
				"z": 1.2936165609,
				"element": "C" 
			},
			{
				"x": -0.8745767724,
				"y": 1.5797713114,
				"z": 1.223886788,
				"element": "C" 
			},
			{
				"x": -0.0989405018,
				"y": 0.3849441053,
				"z": 1.1386893859,
				"element": "C" 
			},
			{
				"x": 1.2298875329,
				"y": 0.3309309888,
				"z": 1.5934305691,
				"element": "C" 
			},
			{
				"x": 1.9299188549,
				"y": -0.8654539297,
				"z": 1.4810152737,
				"element": "C" 
			},
			{
				"x": 1.2853601315,
				"y": -1.9696042558,
				"z": 0.919764722,
				"element": "C" 
			},
			{
				"x": 0.0201759203,
				"y": -1.941895804,
				"z": 0.4796346377,
				"element": "N" 
			},
			{
				"x": -0.6465964511,
				"y": -0.7923984399,
				"z": 0.5897280946,
				"element": "C" 
			},
			{
				"x": -2.1207835841,
				"y": 3.4790799117,
				"z": 1.3543248049,
				"element": "H" 
			},
			{
				"x": 1.6900043001,
				"y": 1.2150343744,
				"z": 2.0229776595,
				"element": "H" 
			},
			{
				"x": 2.9575249763,
				"y": -0.9449119123,
				"z": 1.8213369733,
				"element": "H" 
			},
			{
				"x": 1.8073721272,
				"y": -2.9192795165,
				"z": 0.8185823728,
				"element": "H" 
			},
			{
				"x": -1.6727021561,
				"y": -0.7850900556,
				"z": 0.2282121577,
				"element": "H" 
			}
		],
		 "valence_orbital": [ 
			{
				"type": "occ",
				"energy": -0.32823,
				"method": "rhf"
			},
			{
				"type": "occ",
				"energy": -0.28769,
				"method": "rhf"
			},
			{
				"type": "occ",
				"energy": -0.28723,
				"method": "rhf"
			},
			{
				"type": "occ",
				"energy": -0.25701,
				"method": "rhf"
			},
			{
				"type": "occ",
				"energy": -0.2445,
				"method": "rhf"
			},
			{
				"type": "unocc",
				"energy": -0.04384,
				"method": "rhf"
			},
			{
				"type": "unocc",
				"energy": -0.02598,
				"method": "rhf"
			},
			{
				"type": "unocc",
				"energy": 0.04388,
				"method": "rhf"
			},
			{
				"type": "unocc",
				"energy": 0.07764,
				"method": "rhf"
			},
			{
				"type": "unocc",
				"energy": 0.09644,
				"method": "rhf"
			}
		],
		"cosmo_sigma_profile": { 
			"-0.025": 0.0,
			"-0.024": 0.0,
			"-0.023": 0.0,
			"-0.022": 0.0,
			"-0.021": 0.0,
			"-0.02": 0.0,
			"-0.019": 0.0,
			"-0.018": 0.0,
			"-0.017": 0.0,
			"-0.016": 0.0,
			"-0.015": 0.0,
			"-0.014": 0.0,
			"-0.013": 0.0316579095166,
			"-0.012": 1.00068706656,
			"-0.011": 1.31931959126,
			"-0.01": 1.22638335885,
			"-0.009": 0.922169111588,
			"-0.008": 2.82990484021,
			"-0.007": 7.23532076006,
			"-0.006": 10.7870302992,
			"-0.005": 8.33148332714,
			"-0.004": 7.19375066308,
			"-0.003": 7.28683098533,
			"-0.002": 6.65343905131,
			"-0.001": 8.51672130591,
			"0.0": 11.2150550274,
			"0.001": 20.5916570719,
			"0.002": 13.980433924,
			"0.003": 6.70580082518,
			"0.004": 7.83250209854,
			"0.005": 9.08064259747,
			"0.006": 7.36667196064,
			"0.007": 1.15202273564,
			"0.008": 1.24640116078,
			"0.009": 1.72164416083,
			"0.01": 0.833647102668,
			"0.011": 0.890637276901,
			"0.012": 0.785191775746,
			"0.013": 0.778442394486,
			"0.014": 1.00363615829,
			"0.015": 0.788598920913,
			"0.016": 0.674877544882,
			"0.017": 0.0501607208027,
			"0.018": 0.0,
			"0.019": 0.0,
			"0.02": 0.0,
			"0.021": 0.0,
			"0.022": 0.0,
			"0.023": 0.0,
			"0.024": 0.0,
			"0.025": 0.0
		}
	}
}
