{
	 "smiles": "CC1=C(CCl)C2=C(C=C1)C(CCl)=C(C)C=C2", 
	 "Tm": 501.15, 
	 "num_atms": 30, 
	 "gaussian": { 
		 "optdone": 1, 
		 "sigma_profile": "yes", 
		 "theory": "DFT", 
		 "functional": "B3LYP", 
		 "basiset": "6-31G**", 
		 "properties": { 
			 "R2extent": 6117.2954, 
			 "electric_dipole_moment_norm": 3.55203282783, 
			 "electric_quadrupole_moment_norm": 17.0317273132, 
			 "total_energy": -1462.34493808, 
			 "HOMO_LUMO_gap": 0.15809, 
			 "cosmo_polarized_energy": -10.18, 
			 "cosmo_cavitation_energy": 35.12, 
			 "cosmo_dispersion_energy": -25.26, 
			 "cosmo_repulsion_energy": 1.94, 
			 "cosmo_total_nonelectrostatic_energy": 11.8, 
			 "SMD_solvation_energy": 4.84 
		},
		"coords": [
			{
				"x": 3.0066385751,
				"y": -0.353232169,
				"z": 1.3525964369,
				"element": "C" 
			},
			{
				"x": 1.5591294404,
				"y": 0.0851429487,
				"z": 1.3920662592,
				"element": "C" 
			},
			{
				"x": 0.6132416075,
				"y": -0.3809230383,
				"z": 0.4839243665,
				"element": "C" 
			},
			{
				"x": 1.0079487276,
				"y": -1.4004405459,
				"z": -0.5410130489,
				"element": "C" 
			},
			{
				"x": 1.4651423239,
				"y": -0.6546758044,
				"z": -2.1669926374,
				"element": "Cl" 
			},
			{
				"x": -0.7392195807,
				"y": 0.0977796572,
				"z": 0.5329652112,
				"element": "C" 
			},
			{
				"x": -1.14008928,
				"y": 1.0075102189,
				"z": 1.566674543,
				"element": "C" 
			},
			{
				"x": -0.1466025289,
				"y": 1.4504521093,
				"z": 2.4801505344,
				"element": "C" 
			},
			{
				"x": 1.1515754418,
				"y": 1.0102328874,
				"z": 2.3847591274,
				"element": "C" 
			},
			{
				"x": -2.5026310177,
				"y": 1.453218064,
				"z": 1.6408374493,
				"element": "C" 
			},
			{
				"x": -2.9405009449,
				"y": 2.3315378736,
				"z": 2.7733456838,
				"element": "C" 
			},
			{
				"x": -2.6220340153,
				"y": 4.1239789879,
				"z": 2.4656544588,
				"element": "Cl" 
			},
			{
				"x": -3.4251491403,
				"y": 1.0636346641,
				"z": 0.6744927694,
				"element": "C" 
			},
			{
				"x": -4.8599363571,
				"y": 1.543538744,
				"z": 0.6825946593,
				"element": "C" 
			},
			{
				"x": -3.0013218658,
				"y": 0.1917922243,
				"z": -0.3587470309,
				"element": "C" 
			},
			{
				"x": -1.7139445218,
				"y": -0.2837771872,
				"z": -0.4272356331,
				"element": "C" 
			},
			{
				"x": 3.605654674,
				"y": 0.2372514318,
				"z": 2.0502411341,
				"element": "H" 
			},
			{
				"x": 3.1248137156,
				"y": -1.4066097446,
				"z": 1.6358604888,
				"element": "H" 
			},
			{
				"x": 3.440799844,
				"y": -0.2315750895,
				"z": 0.3550680338,
				"element": "H" 
			},
			{
				"x": 1.886497229,
				"y": -1.9650804815,
				"z": -0.2386625337,
				"element": "H" 
			},
			{
				"x": 0.2065501534,
				"y": -2.1015320363,
				"z": -0.7667543907,
				"element": "H" 
			},
			{
				"x": -0.3978175553,
				"y": 2.174593301,
				"z": 3.2464668812,
				"element": "H" 
			},
			{
				"x": 1.893219298,
				"y": 1.3814461302,
				"z": 3.0868209136,
				"element": "H" 
			},
			{
				"x": -4.0113131878,
				"y": 2.2670586584,
				"z": 2.9502264886,
				"element": "H" 
			},
			{
				"x": -2.4217760294,
				"y": 2.1077103488,
				"z": 3.7036899047,
				"element": "H" 
			},
			{
				"x": -4.9229582018,
				"y": 2.6338677979,
				"z": 0.7571871171,
				"element": "H" 
			},
			{
				"x": -5.4289096964,
				"y": 1.1236319734,
				"z": 1.5215006058,
				"element": "H" 
			},
			{
				"x": -5.3704230179,
				"y": 1.2429326044,
				"z": -0.2356857935,
				"element": "H" 
			},
			{
				"x": -3.7197407018,
				"y": -0.1034147839,
				"z": -1.1186479894,
				"element": "H" 
			},
			{
				"x": -1.4393433874,
				"y": -0.9315497445,
				"z": -1.2516840095,
				"element": "H" 
			}
		],
		 "valence_orbital": [ 
			{
				"type": "occ",
				"energy": -0.29326,
				"method": "rhf"
			},
			{
				"type": "occ",
				"energy": -0.29047,
				"method": "rhf"
			},
			{
				"type": "occ",
				"energy": -0.27606,
				"method": "rhf"
			},
			{
				"type": "occ",
				"energy": -0.24496,
				"method": "rhf"
			},
			{
				"type": "occ",
				"energy": -0.21976,
				"method": "rhf"
			},
			{
				"type": "unocc",
				"energy": -0.06167,
				"method": "rhf"
			},
			{
				"type": "unocc",
				"energy": -0.01454,
				"method": "rhf"
			},
			{
				"type": "unocc",
				"energy": -0.01339,
				"method": "rhf"
			},
			{
				"type": "unocc",
				"energy": 0.03081,
				"method": "rhf"
			},
			{
				"type": "unocc",
				"energy": 0.05675,
				"method": "rhf"
			}
		],
		"cosmo_sigma_profile": { 
			"-0.025": 0.0,
			"-0.024": 0.0,
			"-0.023": 0.0,
			"-0.022": 0.0,
			"-0.021": 0.0,
			"-0.02": 0.0,
			"-0.019": 0.0,
			"-0.018": 0.0,
			"-0.017": 0.0,
			"-0.016": 0.0,
			"-0.015": 0.0,
			"-0.014": 0.0,
			"-0.013": 0.0,
			"-0.012": 0.0,
			"-0.011": 0.0,
			"-0.01": 0.0,
			"-0.009": 0.243351321823,
			"-0.008": 3.57653178686,
			"-0.007": 8.50917372585,
			"-0.006": 15.4258335347,
			"-0.005": 21.8291203578,
			"-0.004": 22.3066019067,
			"-0.003": 20.8350568542,
			"-0.002": 18.2236033901,
			"-0.001": 21.382182085,
			"0.0": 23.4722965483,
			"0.001": 15.2715472992,
			"0.002": 14.6963802675,
			"0.003": 23.4628489978,
			"0.004": 29.0210943307,
			"0.005": 15.7114468108,
			"0.006": 17.3869127617,
			"0.007": 11.8560003878,
			"0.008": 0.0957724731085,
			"0.009": 0.0,
			"0.01": 0.0,
			"0.011": 0.0,
			"0.012": 0.0,
			"0.013": 0.0,
			"0.014": 0.0,
			"0.015": 0.0,
			"0.016": 0.0,
			"0.017": 0.0,
			"0.018": 0.0,
			"0.019": 0.0,
			"0.02": 0.0,
			"0.021": 0.0,
			"0.022": 0.0,
			"0.023": 0.0,
			"0.024": 0.0,
			"0.025": 0.0
		}
	}
}
