{
	 "smiles": "NC1=NC(=O)C2=C1C=CC=C2", 
	 "Tm": 482.15, 
	 "num_atms": 17, 
	 "gaussian": { 
		 "optdone": 1, 
		 "sigma_profile": "yes", 
		 "theory": "DFT", 
		 "functional": "B3LYP", 
		 "basiset": "6-31G**", 
		 "properties": { 
			 "R2extent": 1742.033, 
			 "electric_dipole_moment_norm": 6.69307073995, 
			 "electric_quadrupole_moment_norm": 20.2305501492, 
			 "total_energy": -493.198256625, 
			 "HOMO_LUMO_gap": 0.16889, 
			 "cosmo_polarized_energy": -21.72, 
			 "cosmo_cavitation_energy": 21.87, 
			 "cosmo_dispersion_energy": -16.35, 
			 "cosmo_repulsion_energy": 1.31, 
			 "cosmo_total_nonelectrostatic_energy": 6.83, 
			 "SMD_solvation_energy": 2.54 
		},
		"coords": [
			{
				"x": 0.3521145335,
				"y": -1.1891614938,
				"z": -3.1536384849,
				"element": "N" 
			},
			{
				"x": -0.3395916039,
				"y": -0.4894703685,
				"z": -2.2377848593,
				"element": "C" 
			},
			{
				"x": -1.3338304764,
				"y": 0.3023901297,
				"z": -2.5523326013,
				"element": "N" 
			},
			{
				"x": -1.8088582344,
				"y": 0.8593169148,
				"z": -1.3422961425,
				"element": "C" 
			},
			{
				"x": -2.7284115217,
				"y": 1.6440566731,
				"z": -1.2342892421,
				"element": "O" 
			},
			{
				"x": -0.9750799732,
				"y": 0.3103756162,
				"z": -0.2016334251,
				"element": "C" 
			},
			{
				"x": -0.0385224772,
				"y": -0.5498759508,
				"z": -0.7765534129,
				"element": "C" 
			},
			{
				"x": 0.8922706744,
				"y": -1.2278890642,
				"z": -0.0008989528,
				"element": "C" 
			},
			{
				"x": 0.8567142873,
				"y": -1.0157905581,
				"z": 1.3866328498,
				"element": "C" 
			},
			{
				"x": -0.0826671477,
				"y": -0.1533250826,
				"z": 1.9602278109,
				"element": "C" 
			},
			{
				"x": -1.0185792535,
				"y": 0.5262896851,
				"z": 1.1643338711,
				"element": "C" 
			},
			{
				"x": 1.1138787395,
				"y": -1.7942262928,
				"z": -2.8990745153,
				"element": "H" 
			},
			{
				"x": 0.0944968114,
				"y": -1.1006482086,
				"z": -4.12483649,
				"element": "H" 
			},
			{
				"x": 1.6296771051,
				"y": -1.9021284116,
				"z": -0.4293815194,
				"element": "H" 
			},
			{
				"x": 1.570100943,
				"y": -1.52983229,
				"z": 2.0239395979,
				"element": "H" 
			},
			{
				"x": -0.0850999787,
				"y": -0.0098259528,
				"z": 3.0368343238,
				"element": "H" 
			},
			{
				"x": -1.7534124278,
				"y": 1.1987446548,
				"z": 1.5961511922,
				"element": "H" 
			}
		],
		 "valence_orbital": [ 
			{
				"type": "occ",
				"energy": -0.2813,
				"method": "rhf"
			},
			{
				"type": "occ",
				"energy": -0.27645,
				"method": "rhf"
			},
			{
				"type": "occ",
				"energy": -0.26876,
				"method": "rhf"
			},
			{
				"type": "occ",
				"energy": -0.24367,
				"method": "rhf"
			},
			{
				"type": "occ",
				"energy": -0.24106,
				"method": "rhf"
			},
			{
				"type": "unocc",
				"energy": -0.07217,
				"method": "rhf"
			},
			{
				"type": "unocc",
				"energy": -0.02979,
				"method": "rhf"
			},
			{
				"type": "unocc",
				"energy": 0.03224,
				"method": "rhf"
			},
			{
				"type": "unocc",
				"energy": 0.04811,
				"method": "rhf"
			},
			{
				"type": "unocc",
				"energy": 0.09502,
				"method": "rhf"
			}
		],
		"cosmo_sigma_profile": { 
			"-0.025": 0.0,
			"-0.024": 0.0,
			"-0.023": 0.0,
			"-0.022": 0.0,
			"-0.021": 0.0,
			"-0.02": 0.0,
			"-0.019": 0.0,
			"-0.018": 0.0,
			"-0.017": 0.0,
			"-0.016": 0.870591529026,
			"-0.015": 2.70400512511,
			"-0.014": 2.21085697484,
			"-0.013": 3.48454285801,
			"-0.012": 3.1013931687,
			"-0.011": 2.41724022762,
			"-0.01": 2.62932453239,
			"-0.009": 2.33663562837,
			"-0.008": 2.65879540639,
			"-0.007": 6.30994858146,
			"-0.006": 8.98109844375,
			"-0.005": 9.89777039281,
			"-0.004": 8.03125490558,
			"-0.003": 8.15725714853,
			"-0.002": 9.94835278362,
			"-0.001": 10.2048330944,
			"0.0": 11.1093284171,
			"0.001": 12.6970794168,
			"0.002": 14.4293169288,
			"0.003": 13.3063542573,
			"0.004": 4.83583614793,
			"0.005": 2.4488798684,
			"0.006": 1.98563117943,
			"0.007": 1.56884639516,
			"0.008": 2.26933377464,
			"0.009": 2.29522646517,
			"0.01": 2.81335872618,
			"0.011": 3.60017659071,
			"0.012": 5.85776344309,
			"0.013": 4.71438883742,
			"0.014": 3.39503517693,
			"0.015": 2.06088562531,
			"0.016": 1.307328231,
			"0.017": 1.09079322566,
			"0.018": 0.102907689378,
			"0.019": 0.0,
			"0.02": 0.0,
			"0.021": 0.0,
			"0.022": 0.0,
			"0.023": 0.0,
			"0.024": 0.0,
			"0.025": 0.0
		}
	}
}
