{
	 "smiles": "O=C1CC(=NN1C1=CC=CC=C1)C1=CC=CC=C1", 
	 "Tm": 412.15, 
	 "num_atms": 30, 
	 "gaussian": { 
		 "optdone": 1, 
		 "sigma_profile": "yes", 
		 "theory": "DFT", 
		 "functional": "B3LYP", 
		 "basiset": "6-31G**", 
		 "properties": { 
			 "R2extent": 6000.4238, 
			 "electric_dipole_moment_norm": 3.36035338023, 
			 "electric_quadrupole_moment_norm": 14.2646515517, 
			 "total_energy": -763.546061465, 
			 "HOMO_LUMO_gap": 0.14731, 
			 "cosmo_polarized_energy": -11.23, 
			 "cosmo_cavitation_energy": 34.26, 
			 "cosmo_dispersion_energy": -25.22, 
			 "cosmo_repulsion_energy": 1.9, 
			 "cosmo_total_nonelectrostatic_energy": 10.94, 
			 "SMD_solvation_energy": 5.65 
		},
		"coords": [
			{
				"x": -0.4166864358,
				"y": 1.0932134292,
				"z": 3.1843051376,
				"element": "O" 
			},
			{
				"x": -0.5436219965,
				"y": 0.3626642033,
				"z": 2.2193436374,
				"element": "C" 
			},
			{
				"x": -1.5625174616,
				"y": -0.7552941559,
				"z": 2.0198994958,
				"element": "C" 
			},
			{
				"x": -1.2016908769,
				"y": -1.2636073741,
				"z": 0.6525880698,
				"element": "C" 
			},
			{
				"x": -0.2046226527,
				"y": -0.6126160469,
				"z": 0.1431754501,
				"element": "N" 
			},
			{
				"x": 0.2132893737,
				"y": 0.3616024812,
				"z": 1.0449698745,
				"element": "N" 
			},
			{
				"x": 1.3034269377,
				"y": 1.1998670612,
				"z": 0.6895194714,
				"element": "C" 
			},
			{
				"x": 1.7589779713,
				"y": 2.1971631404,
				"z": 1.5663354762,
				"element": "C" 
			},
			{
				"x": 2.8319219212,
				"y": 3.0025663883,
				"z": 1.1854184426,
				"element": "C" 
			},
			{
				"x": 3.457735319,
				"y": 2.8330721173,
				"z": -0.0497956596,
				"element": "C" 
			},
			{
				"x": 2.9969134973,
				"y": 1.8385212486,
				"z": -0.9141187433,
				"element": "C" 
			},
			{
				"x": 1.9269135315,
				"y": 1.0223757933,
				"z": -0.5547848441,
				"element": "C" 
			},
			{
				"x": -1.863593193,
				"y": -2.3580797241,
				"z": -0.0629330112,
				"element": "C" 
			},
			{
				"x": -1.4331014145,
				"y": -2.7432646397,
				"z": -1.3465730838,
				"element": "C" 
			},
			{
				"x": -2.0665886317,
				"y": -3.7824681473,
				"z": -2.0182558899,
				"element": "C" 
			},
			{
				"x": -3.1395475999,
				"y": -4.4573502022,
				"z": -1.4255380922,
				"element": "C" 
			},
			{
				"x": -3.5739609046,
				"y": -4.0833861009,
				"z": -0.1536847207,
				"element": "C" 
			},
			{
				"x": -2.9413571025,
				"y": -3.0413570555,
				"z": 0.5237713515,
				"element": "C" 
			},
			{
				"x": -1.4578662411,
				"y": -1.5084168616,
				"z": 2.8082914668,
				"element": "H" 
			},
			{
				"x": -2.5804650166,
				"y": -0.3559964137,
				"z": 2.0835185831,
				"element": "H" 
			},
			{
				"x": 1.2768779378,
				"y": 2.3316213758,
				"z": 2.5241483109,
				"element": "H" 
			},
			{
				"x": 3.1779548729,
				"y": 3.7718284247,
				"z": 1.8699887671,
				"element": "H" 
			},
			{
				"x": 4.292293522,
				"y": 3.4662749203,
				"z": -0.3353734638,
				"element": "H" 
			},
			{
				"x": 3.4718097737,
				"y": 1.6917864494,
				"z": -1.8801307457,
				"element": "H" 
			},
			{
				"x": 1.5683095837,
				"y": 0.2510033853,
				"z": -1.2232516138,
				"element": "H" 
			},
			{
				"x": -0.6009836537,
				"y": -2.216222177,
				"z": -1.8005580235,
				"element": "H" 
			},
			{
				"x": -1.7247339964,
				"y": -4.0699089984,
				"z": -3.0083289766,
				"element": "H" 
			},
			{
				"x": -3.6319260759,
				"y": -5.2687234538,
				"z": -1.9534293762,
				"element": "H" 
			},
			{
				"x": -4.4059614672,
				"y": -4.602054991,
				"z": 0.3133928378,
				"element": "H" 
			},
			{
				"x": -3.2887995213,
				"y": -2.7596140764,
				"z": 1.5133898716,
				"element": "H" 
			}
		],
		 "valence_orbital": [ 
			{
				"type": "occ",
				"energy": -0.26373,
				"method": "rhf"
			},
			{
				"type": "occ",
				"energy": -0.25874,
				"method": "rhf"
			},
			{
				"type": "occ",
				"energy": -0.25551,
				"method": "rhf"
			},
			{
				"type": "occ",
				"energy": -0.24605,
				"method": "rhf"
			},
			{
				"type": "occ",
				"energy": -0.20776,
				"method": "rhf"
			},
			{
				"type": "unocc",
				"energy": -0.06045,
				"method": "rhf"
			},
			{
				"type": "unocc",
				"energy": -0.01758,
				"method": "rhf"
			},
			{
				"type": "unocc",
				"energy": -0.01172,
				"method": "rhf"
			},
			{
				"type": "unocc",
				"energy": 0.00397,
				"method": "rhf"
			},
			{
				"type": "unocc",
				"energy": 0.0237,
				"method": "rhf"
			}
		],
		"cosmo_sigma_profile": { 
			"-0.025": 0.0,
			"-0.024": 0.0,
			"-0.023": 0.0,
			"-0.022": 0.0,
			"-0.021": 0.0,
			"-0.02": 0.0,
			"-0.019": 0.0,
			"-0.018": 0.0,
			"-0.017": 0.0,
			"-0.016": 0.0,
			"-0.015": 0.0,
			"-0.014": 0.0,
			"-0.013": 0.0,
			"-0.012": 0.0,
			"-0.011": 0.0,
			"-0.01": 0.0,
			"-0.009": 2.48069203661,
			"-0.008": 6.55637354993,
			"-0.007": 8.64741163699,
			"-0.006": 16.412140558,
			"-0.005": 20.5040195166,
			"-0.004": 22.3761159393,
			"-0.003": 20.1000367098,
			"-0.002": 15.5458563644,
			"-0.001": 14.0935666643,
			"0.0": 16.1642414471,
			"0.001": 18.2852012456,
			"0.002": 22.0375749849,
			"0.003": 24.868732016,
			"0.004": 24.9222598085,
			"0.005": 19.8934259385,
			"0.006": 7.93181050716,
			"0.007": 2.77751922344,
			"0.008": 1.50447727562,
			"0.009": 1.04326420801,
			"0.01": 2.34460993322,
			"0.011": 2.84268143729,
			"0.012": 3.08539566635,
			"0.013": 1.2822799265,
			"0.014": 0.0341882419784,
			"0.015": 0.0,
			"0.016": 0.0,
			"0.017": 0.0,
			"0.018": 0.0,
			"0.019": 0.0,
			"0.02": 0.0,
			"0.021": 0.0,
			"0.022": 0.0,
			"0.023": 0.0,
			"0.024": 0.0,
			"0.025": 0.0
		}
	}
}
