{
	 "smiles": "CC(C)CCC[C@@H](C)[C@H]1CC[C@H]2[C@@H]3CC=C4C[C@H](CC[C@]4(C)[C@H]3CC[C@]12C)OC(=O)C1=CC=C(Cl)C=C1Cl", 
	 "Tm": 399.15, 
	 "num_atms": 86, 
	 "gaussian": { 
		 "optdone": 1, 
		 "sigma_profile": "yes", 
		 "theory": "DFT", 
		 "functional": "B3LYP", 
		 "basiset": "6-31G**", 
		 "properties": { 
			 "R2extent": 53482.9707, 
			 "electric_dipole_moment_norm": 1.50844792088, 
			 "electric_quadrupole_moment_norm": 11.8373854816, 
			 "total_energy": -2395.4287831, 
			 "HOMO_LUMO_gap": 0.17191, 
			 "cosmo_polarized_energy": -7.79, 
			 "cosmo_cavitation_energy": 79.18, 
			 "cosmo_dispersion_energy": -53.63, 
			 "cosmo_repulsion_energy": 3.9, 
			 "cosmo_total_nonelectrostatic_energy": 29.46, 
			 "SMD_solvation_energy": 11.26 
		},
		"coords": [
			{
				"x": -3.2934432702,
				"y": 4.7374712453,
				"z": -5.5620725526,
				"element": "C" 
			},
			{
				"x": -4.7552869787,
				"y": 4.3980348134,
				"z": -5.236413664,
				"element": "C" 
			},
			{
				"x": -5.6907281809,
				"y": 4.9872371939,
				"z": -6.3035785641,
				"element": "C" 
			},
			{
				"x": -5.1976889488,
				"y": 4.8542795076,
				"z": -3.8297305485,
				"element": "C" 
			},
			{
				"x": -4.4520945825,
				"y": 4.2227968914,
				"z": -2.6292925216,
				"element": "C" 
			},
			{
				"x": -3.2887949801,
				"y": 5.0689952971,
				"z": -2.0814520029,
				"element": "C" 
			},
			{
				"x": -2.6026199443,
				"y": 4.5421904022,
				"z": -0.792002192,
				"element": "C" 
			},
			{
				"x": -3.5926005981,
				"y": 4.5525926089,
				"z": 0.387158737,
				"element": "C" 
			},
			{
				"x": -1.909717969,
				"y": 3.1746566879,
				"z": -1.0095999819,
				"element": "C" 
			},
			{
				"x": -0.8928978929,
				"y": 3.2016018897,
				"z": -2.1979524281,
				"element": "C" 
			},
			{
				"x": 0.2178587606,
				"y": 2.1643943199,
				"z": -1.8740242212,
				"element": "C" 
			},
			{
				"x": -0.3129068675,
				"y": 1.4390788366,
				"z": -0.6282722657,
				"element": "C" 
			},
			{
				"x": 0.6554362477,
				"y": 0.5891488419,
				"z": 0.2041194665,
				"element": "C" 
			},
			{
				"x": 1.3212617996,
				"y": -0.4925709106,
				"z": -0.6612040393,
				"element": "C" 
			},
			{
				"x": 1.976449482,
				"y": -1.5732872112,
				"z": 0.1497031291,
				"element": "C" 
			},
			{
				"x": 1.7956675179,
				"y": -1.7659547641,
				"z": 1.4621837279,
				"element": "C" 
			},
			{
				"x": 2.5648468587,
				"y": -2.8558842926,
				"z": 2.1875155452,
				"element": "C" 
			},
			{
				"x": 1.6168397001,
				"y": -3.7521604605,
				"z": 2.9928365437,
				"element": "C" 
			},
			{
				"x": 0.7424193166,
				"y": -2.94346991,
				"z": 3.947969326,
				"element": "C" 
			},
			{
				"x": -0.0464764489,
				"y": -1.8923718704,
				"z": 3.1510789474,
				"element": "C" 
			},
			{
				"x": 0.835388536,
				"y": -0.9195591855,
				"z": 2.30907916,
				"element": "C" 
			},
			{
				"x": 1.6667825567,
				"y": -0.0188331713,
				"z": 3.2593864959,
				"element": "C" 
			},
			{
				"x": -0.1058871891,
				"y": -0.0746811758,
				"z": 1.381066323,
				"element": "C" 
			},
			{
				"x": -0.9806197214,
				"y": 0.9409664051,
				"z": 2.1516058746,
				"element": "C" 
			},
			{
				"x": -1.8888810165,
				"y": 1.8031376845,
				"z": 1.2510952072,
				"element": "C" 
			},
			{
				"x": -1.0829662289,
				"y": 2.5355265197,
				"z": 0.1593187002,
				"element": "C" 
			},
			{
				"x": -0.140776687,
				"y": 3.5859280217,
				"z": 0.7884479501,
				"element": "C" 
			},
			{
				"x": 2.3177038039,
				"y": -4.8535580769,
				"z": 3.650724761,
				"element": "O" 
			},
			{
				"x": 3.2061332083,
				"y": -4.6224358929,
				"z": 4.6211022092,
				"element": "C" 
			},
			{
				"x": 3.5460884905,
				"y": -3.520170298,
				"z": 5.0156048375,
				"element": "O" 
			},
			{
				"x": 3.8169671219,
				"y": -5.8789232157,
				"z": 5.1808497862,
				"element": "C" 
			},
			{
				"x": 5.0247900232,
				"y": -5.6824115141,
				"z": 5.8733519632,
				"element": "C" 
			},
			{
				"x": 5.7381002039,
				"y": -6.7278592613,
				"z": 6.4428393662,
				"element": "C" 
			},
			{
				"x": 5.2240271268,
				"y": -8.0192964516,
				"z": 6.3310050148,
				"element": "C" 
			},
			{
				"x": 6.0940761218,
				"y": -9.3659614845,
				"z": 7.036694138,
				"element": "Cl" 
			},
			{
				"x": 4.0219288586,
				"y": -8.2607689883,
				"z": 5.672758984,
				"element": "C" 
			},
			{
				"x": 3.3225732607,
				"y": -7.1953140673,
				"z": 5.0988147182,
				"element": "C" 
			},
			{
				"x": 1.8006887238,
				"y": -7.6208437753,
				"z": 4.3394377284,
				"element": "Cl" 
			},
			{
				"x": -2.5946687534,
				"y": 4.2457589522,
				"z": -4.8791229967,
				"element": "H" 
			},
			{
				"x": -3.1179132292,
				"y": 5.818675588,
				"z": -5.5005820153,
				"element": "H" 
			},
			{
				"x": -3.0371294695,
				"y": 4.4184470421,
				"z": -6.578629949,
				"element": "H" 
			},
			{
				"x": -4.85860272,
				"y": 3.3024689554,
				"z": -5.2701657677,
				"element": "H" 
			},
			{
				"x": -5.4271397455,
				"y": 4.6299543031,
				"z": -7.3050956726,
				"element": "H" 
			},
			{
				"x": -5.6288113982,
				"y": 6.0825155003,
				"z": -6.3163795876,
				"element": "H" 
			},
			{
				"x": -6.735556308,
				"y": 4.7166984906,
				"z": -6.1150783773,
				"element": "H" 
			},
			{
				"x": -5.1256712362,
				"y": 5.9504865394,
				"z": -3.770866361,
				"element": "H" 
			},
			{
				"x": -6.2668846018,
				"y": 4.6239868876,
				"z": -3.737307551,
				"element": "H" 
			},
			{
				"x": -4.0962682287,
				"y": 3.2229084342,
				"z": -2.9119665329,
				"element": "H" 
			},
			{
				"x": -5.1746913493,
				"y": 4.0614044992,
				"z": -1.8208911894,
				"element": "H" 
			},
			{
				"x": -3.674885274,
				"y": 6.0739180498,
				"z": -1.8600430284,
				"element": "H" 
			},
			{
				"x": -2.5344196194,
				"y": 5.2095260067,
				"z": -2.862278887,
				"element": "H" 
			},
			{
				"x": -1.8149702377,
				"y": 5.2738251078,
				"z": -0.5606958312,
				"element": "H" 
			},
			{
				"x": -3.0818449605,
				"y": 4.4631094365,
				"z": 1.3490319046,
				"element": "H" 
			},
			{
				"x": -4.157521284,
				"y": 5.4917073495,
				"z": 0.4062996105,
				"element": "H" 
			},
			{
				"x": -4.3163756672,
				"y": 3.732954829,
				"z": 0.3239061148,
				"element": "H" 
			},
			{
				"x": -2.6949197424,
				"y": 2.4440253669,
				"z": -1.2529017387,
				"element": "H" 
			},
			{
				"x": -1.3922972836,
				"y": 2.9707906361,
				"z": -3.1440073142,
				"element": "H" 
			},
			{
				"x": -0.4653870581,
				"y": 4.2040324046,
				"z": -2.3131404342,
				"element": "H" 
			},
			{
				"x": 1.170117575,
				"y": 2.662895834,
				"z": -1.6565508321,
				"element": "H" 
			},
			{
				"x": 0.4052120128,
				"y": 1.4809167985,
				"z": -2.7077652377,
				"element": "H" 
			},
			{
				"x": -1.0910499137,
				"y": 0.7420660713,
				"z": -0.9834795819,
				"element": "H" 
			},
			{
				"x": 1.4498212803,
				"y": 1.2328970711,
				"z": 0.6071513722,
				"element": "H" 
			},
			{
				"x": 0.5690632943,
				"y": -0.9445609114,
				"z": -1.3288694282,
				"element": "H" 
			},
			{
				"x": 2.0629298096,
				"y": -0.0370317223,
				"z": -1.3306396966,
				"element": "H" 
			},
			{
				"x": 2.6550421538,
				"y": -2.2372280512,
				"z": -0.3863342362,
				"element": "H" 
			},
			{
				"x": 3.1217200198,
				"y": -3.4636725012,
				"z": 1.466814158,
				"element": "H" 
			},
			{
				"x": 3.2936658757,
				"y": -2.4188905547,
				"z": 2.8772479537,
				"element": "H" 
			},
			{
				"x": 0.9695812198,
				"y": -4.2931457201,
				"z": 2.2947082643,
				"element": "H" 
			},
			{
				"x": 1.3668462745,
				"y": -2.4697799548,
				"z": 4.7084966539,
				"element": "H" 
			},
			{
				"x": 0.0486047413,
				"y": -3.6153247774,
				"z": 4.4662884901,
				"element": "H" 
			},
			{
				"x": -0.6684218224,
				"y": -1.3177608994,
				"z": 3.8454634776,
				"element": "H" 
			},
			{
				"x": -0.7356715149,
				"y": -2.4096185173,
				"z": 2.4694609253,
				"element": "H" 
			},
			{
				"x": 2.2035983754,
				"y": 0.7537735692,
				"z": 2.7005524719,
				"element": "H" 
			},
			{
				"x": 2.4135604723,
				"y": -0.5951728987,
				"z": 3.8108425327,
				"element": "H" 
			},
			{
				"x": 1.0316330452,
				"y": 0.475551816,
				"z": 4.0007476263,
				"element": "H" 
			},
			{
				"x": -0.7948873777,
				"y": -0.7972175545,
				"z": 0.9137138278,
				"element": "H" 
			},
			{
				"x": -1.6104151597,
				"y": 0.4116223787,
				"z": 2.8755093568,
				"element": "H" 
			},
			{
				"x": -0.3429625926,
				"y": 1.6069487991,
				"z": 2.7418470408,
				"element": "H" 
			},
			{
				"x": -2.6380465828,
				"y": 1.1618126251,
				"z": 0.7652850952,
				"element": "H" 
			},
			{
				"x": -2.4437963825,
				"y": 2.5024799252,
				"z": 1.8845273953,
				"element": "H" 
			},
			{
				"x": 0.5965389072,
				"y": 3.1367518594,
				"z": 1.4581941961,
				"element": "H" 
			},
			{
				"x": -0.7103362422,
				"y": 4.3118705044,
				"z": 1.3779432181,
				"element": "H" 
			},
			{
				"x": 0.4138027129,
				"y": 4.1472842286,
				"z": 0.0306011811,
				"element": "H" 
			},
			{
				"x": 5.3881927337,
				"y": -4.6639274611,
				"z": 5.9507674814,
				"element": "H" 
			},
			{
				"x": 6.6713600426,
				"y": -6.5497643922,
				"z": 6.9640883293,
				"element": "H" 
			},
			{
				"x": 3.6231149944,
				"y": -9.2651911322,
				"z": 5.6066499099,
				"element": "H" 
			}
		],
		 "valence_orbital": [ 
			{
				"type": "occ",
				"energy": -0.27526,
				"method": "rhf"
			},
			{
				"type": "occ",
				"energy": -0.26687,
				"method": "rhf"
			},
			{
				"type": "occ",
				"energy": -0.26499,
				"method": "rhf"
			},
			{
				"type": "occ",
				"energy": -0.2588,
				"method": "rhf"
			},
			{
				"type": "occ",
				"energy": -0.23065,
				"method": "rhf"
			},
			{
				"type": "unocc",
				"energy": -0.05874,
				"method": "rhf"
			},
			{
				"type": "unocc",
				"energy": -0.02949,
				"method": "rhf"
			},
			{
				"type": "unocc",
				"energy": 0.00392,
				"method": "rhf"
			},
			{
				"type": "unocc",
				"energy": 0.02409,
				"method": "rhf"
			},
			{
				"type": "unocc",
				"energy": 0.0386,
				"method": "rhf"
			}
		],
		"cosmo_sigma_profile": { 
			"-0.025": 0.0,
			"-0.024": 0.0,
			"-0.023": 0.0,
			"-0.022": 0.0,
			"-0.021": 0.0,
			"-0.02": 0.0,
			"-0.019": 0.0,
			"-0.018": 0.0,
			"-0.017": 0.0,
			"-0.016": 0.0,
			"-0.015": 0.0,
			"-0.014": 0.0,
			"-0.013": 0.0,
			"-0.012": 0.0,
			"-0.011": 0.0,
			"-0.01": 0.0,
			"-0.009": 0.594223042804,
			"-0.008": 3.06168252604,
			"-0.007": 4.58119639842,
			"-0.006": 4.97789988501,
			"-0.005": 5.80206357131,
			"-0.004": 12.3792381855,
			"-0.003": 29.9231723107,
			"-0.002": 79.9452421666,
			"-0.001": 124.761366668,
			"0.0": 127.827333065,
			"0.001": 93.5459991498,
			"0.002": 60.4727136202,
			"0.003": 24.5600458169,
			"0.004": 20.3860149885,
			"0.005": 7.65842843796,
			"0.006": 5.30405109277,
			"0.007": 2.95021595308,
			"0.008": 1.95714171439,
			"0.009": 1.33679681209,
			"0.01": 1.56463797902,
			"0.011": 2.20695654352,
			"0.012": 1.15646782208,
			"0.013": 0.0,
			"0.014": 0.0,
			"0.015": 0.0,
			"0.016": 0.0,
			"0.017": 0.0,
			"0.018": 0.0,
			"0.019": 0.0,
			"0.02": 0.0,
			"0.021": 0.0,
			"0.022": 0.0,
			"0.023": 0.0,
			"0.024": 0.0,
			"0.025": 0.0
		}
	}
}
