{
	 "smiles": "NC(=S)NC1=CC=CC=C1Cl", 
	 "Tm": 419.15, 
	 "num_atms": 18, 
	 "gaussian": { 
		 "optdone": 1, 
		 "sigma_profile": "yes", 
		 "theory": "DFT", 
		 "functional": "B3LYP", 
		 "basiset": "6-31G**", 
		 "properties": { 
			 "R2extent": 3201.8927, 
			 "electric_dipole_moment_norm": 5.91984921261, 
			 "electric_quadrupole_moment_norm": 16.5209738384, 
			 "total_energy": -1238.86313849, 
			 "HOMO_LUMO_gap": 0.16885, 
			 "cosmo_polarized_energy": -15.91, 
			 "cosmo_cavitation_energy": 25.5, 
			 "cosmo_dispersion_energy": -19.42, 
			 "cosmo_repulsion_energy": 1.53, 
			 "cosmo_total_nonelectrostatic_energy": 7.6, 
			 "SMD_solvation_energy": 3.25 
		},
		"coords": [
			{
				"x": 0.9280469965,
				"y": 2.2000380314,
				"z": -0.6620064322,
				"element": "N" 
			},
			{
				"x": 2.0835546686,
				"y": 1.5987723933,
				"z": -0.2648667155,
				"element": "C" 
			},
			{
				"x": 3.5915880713,
				"y": 2.2758930519,
				"z": -0.5475698657,
				"element": "S" 
			},
			{
				"x": 1.9698289677,
				"y": 0.4003222846,
				"z": 0.3963203197,
				"element": "N" 
			},
			{
				"x": 0.8261471486,
				"y": -0.2888919092,
				"z": 0.8370785289,
				"element": "C" 
			},
			{
				"x": -0.2989822516,
				"y": 0.3715941315,
				"z": 1.3621095115,
				"element": "C" 
			},
			{
				"x": -1.4048215149,
				"y": -0.3470586466,
				"z": 1.8108558686,
				"element": "C" 
			},
			{
				"x": -1.4043859926,
				"y": -1.7415528885,
				"z": 1.7754563253,
				"element": "C" 
			},
			{
				"x": -0.2852887949,
				"y": -2.4174278609,
				"z": 1.2901369566,
				"element": "C" 
			},
			{
				"x": 0.8116473277,
				"y": -1.6983079974,
				"z": 0.8229674293,
				"element": "C" 
			},
			{
				"x": 2.2074527101,
				"y": -2.5775211707,
				"z": 0.2171924266,
				"element": "Cl" 
			},
			{
				"x": 1.0517243822,
				"y": 2.9970543275,
				"z": -1.2675356578,
				"element": "H" 
			},
			{
				"x": 0.0850592943,
				"y": 1.654097283,
				"z": -0.7802571291,
				"element": "H" 
			},
			{
				"x": 2.8598967349,
				"y": -0.0650805506,
				"z": 0.5173728643,
				"element": "H" 
			},
			{
				"x": -0.2839523048,
				"y": 1.4525662331,
				"z": 1.4395893026,
				"element": "H" 
			},
			{
				"x": -2.2601798233,
				"y": 0.1895274802,
				"z": 2.2095462729,
				"element": "H" 
			},
			{
				"x": -2.2616306955,
				"y": -2.3043309278,
				"z": 2.1302427936,
				"element": "H" 
			},
			{
				"x": -0.2568049243,
				"y": -3.5010932648,
				"z": 1.2622672006,
				"element": "H" 
			}
		],
		 "valence_orbital": [ 
			{
				"type": "occ",
				"energy": -0.3178,
				"method": "rhf"
			},
			{
				"type": "occ",
				"energy": -0.26904,
				"method": "rhf"
			},
			{
				"type": "occ",
				"energy": -0.25366,
				"method": "rhf"
			},
			{
				"type": "occ",
				"energy": -0.21615,
				"method": "rhf"
			},
			{
				"type": "occ",
				"energy": -0.20982,
				"method": "rhf"
			},
			{
				"type": "unocc",
				"energy": -0.04097,
				"method": "rhf"
			},
			{
				"type": "unocc",
				"energy": -0.03198,
				"method": "rhf"
			},
			{
				"type": "unocc",
				"energy": 0.00985,
				"method": "rhf"
			},
			{
				"type": "unocc",
				"energy": 0.01374,
				"method": "rhf"
			},
			{
				"type": "unocc",
				"energy": 0.07129,
				"method": "rhf"
			}
		],
		"cosmo_sigma_profile": { 
			"-0.025": 0.0,
			"-0.024": 0.0,
			"-0.023": 0.0,
			"-0.022": 0.0,
			"-0.021": 0.0,
			"-0.02": 0.0,
			"-0.019": 0.0,
			"-0.018": 0.0,
			"-0.017": 0.0,
			"-0.016": 0.0,
			"-0.015": 0.504906180052,
			"-0.014": 1.79300591693,
			"-0.013": 2.55858447465,
			"-0.012": 2.59030915161,
			"-0.011": 2.49688340522,
			"-0.01": 2.97819064503,
			"-0.009": 2.85823588874,
			"-0.008": 4.21170410964,
			"-0.007": 7.61715176918,
			"-0.006": 11.7657205255,
			"-0.005": 11.5919980984,
			"-0.004": 9.29310623437,
			"-0.003": 10.3906906049,
			"-0.002": 9.91328812324,
			"-0.001": 12.0223642748,
			"0.0": 14.9715827812,
			"0.001": 15.7210222679,
			"0.002": 16.1483505045,
			"0.003": 17.8856036834,
			"0.004": 14.3354860477,
			"0.005": 4.39925103994,
			"0.006": 4.16934874436,
			"0.007": 3.0900584765,
			"0.008": 3.79337779218,
			"0.009": 3.95284404958,
			"0.01": 6.14505207526,
			"0.011": 8.17310384281,
			"0.012": 3.64385873537,
			"0.013": 0.157088900175,
			"0.014": 0.0,
			"0.015": 0.0,
			"0.016": 0.0,
			"0.017": 0.0,
			"0.018": 0.0,
			"0.019": 0.0,
			"0.02": 0.0,
			"0.021": 0.0,
			"0.022": 0.0,
			"0.023": 0.0,
			"0.024": 0.0,
			"0.025": 0.0
		}
	}
}
