{
	 "smiles": "OC(=O)C1=COC=N1", 
	 "Tm": 403.15, 
	 "num_atms": 11, 
	 "gaussian": { 
		 "optdone": 1, 
		 "sigma_profile": "yes", 
		 "theory": "DFT", 
		 "functional": "B3LYP", 
		 "basiset": "6-31G**", 
		 "properties": { 
			 "R2extent": 1784.2019, 
			 "electric_dipole_moment_norm": 4.59087868169, 
			 "electric_quadrupole_moment_norm": 13.6608485684, 
			 "total_energy": -434.641133794, 
			 "HOMO_LUMO_gap": 0.23026, 
			 "cosmo_polarized_energy": -11.88, 
			 "cosmo_cavitation_energy": 16.36, 
			 "cosmo_dispersion_energy": -12.4, 
			 "cosmo_repulsion_energy": 1.03, 
			 "cosmo_total_nonelectrostatic_energy": 4.99, 
			 "SMD_solvation_energy": 4.73 
		},
		"coords": [
			{
				"x": -2.1791865416,
				"y": -0.0788874263,
				"z": -0.0391204896,
				"element": "O" 
			},
			{
				"x": -2.0930368215,
				"y": -1.2731225207,
				"z": -0.6589091799,
				"element": "C" 
			},
			{
				"x": -2.9723910539,
				"y": -2.1012700553,
				"z": -0.6109407731,
				"element": "O" 
			},
			{
				"x": -0.8230274677,
				"y": -1.4724081793,
				"z": -1.398689219,
				"element": "C" 
			},
			{
				"x": -0.4115016437,
				"y": -2.5461090835,
				"z": -2.1242220882,
				"element": "C" 
			},
			{
				"x": 0.828124647,
				"y": -2.2610943664,
				"z": -2.6155250012,
				"element": "O" 
			},
			{
				"x": 1.10678004,
				"y": -1.0126500158,
				"z": -2.1556639545,
				"element": "C" 
			},
			{
				"x": 0.1690881419,
				"y": -0.4946717753,
				"z": -1.4308600847,
				"element": "N" 
			},
			{
				"x": -1.3596830944,
				"y": 0.4176809768,
				"z": -0.2156148575,
				"element": "H" 
			},
			{
				"x": -0.840614073,
				"y": -3.5036280785,
				"z": -2.3677112207,
				"element": "H" 
			},
			{
				"x": 2.060047867,
				"y": -0.5897394756,
				"z": -2.4353431316,
				"element": "H" 
			}
		],
		 "valence_orbital": [ 
			{
				"type": "occ",
				"energy": -0.35328,
				"method": "rhf"
			},
			{
				"type": "occ",
				"energy": -0.33409,
				"method": "rhf"
			},
			{
				"type": "occ",
				"energy": -0.31758,
				"method": "rhf"
			},
			{
				"type": "occ",
				"energy": -0.27913,
				"method": "rhf"
			},
			{
				"type": "occ",
				"energy": -0.27857,
				"method": "rhf"
			},
			{
				"type": "unocc",
				"energy": -0.04831,
				"method": "rhf"
			},
			{
				"type": "unocc",
				"energy": -0.01851,
				"method": "rhf"
			},
			{
				"type": "unocc",
				"energy": 0.09775,
				"method": "rhf"
			},
			{
				"type": "unocc",
				"energy": 0.10133,
				"method": "rhf"
			},
			{
				"type": "unocc",
				"energy": 0.10167,
				"method": "rhf"
			}
		],
		"cosmo_sigma_profile": { 
			"-0.025": 0.0,
			"-0.024": 0.0,
			"-0.023": 0.0,
			"-0.022": 0.0,
			"-0.021": 0.0,
			"-0.02": 0.0,
			"-0.019": 0.0,
			"-0.018": 0.0,
			"-0.017": 0.0,
			"-0.016": 0.0,
			"-0.015": 0.181664107689,
			"-0.014": 0.829688304511,
			"-0.013": 0.686512811963,
			"-0.012": 3.82293822345,
			"-0.011": 3.67761146077,
			"-0.01": 4.18505930914,
			"-0.009": 2.77869450576,
			"-0.008": 3.1427304098,
			"-0.007": 4.04482147005,
			"-0.006": 4.34812084341,
			"-0.005": 4.43336722638,
			"-0.004": 7.72393822897,
			"-0.003": 9.73636944571,
			"-0.002": 10.9955010852,
			"-0.001": 10.5301507235,
			"0.0": 5.92279206026,
			"0.001": 4.00721690247,
			"0.002": 5.08016980072,
			"0.003": 5.04663701659,
			"0.004": 4.41171146815,
			"0.005": 4.82475526626,
			"0.006": 4.05332963975,
			"0.007": 3.50791980417,
			"0.008": 4.04379158696,
			"0.009": 4.8643356645,
			"0.01": 5.18299313254,
			"0.011": 5.11987197487,
			"0.012": 4.11087026289,
			"0.013": 1.16308482956,
			"0.014": 0.000483829001093,
			"0.015": 0.0,
			"0.016": 0.0,
			"0.017": 0.0,
			"0.018": 0.0,
			"0.019": 0.0,
			"0.02": 0.0,
			"0.021": 0.0,
			"0.022": 0.0,
			"0.023": 0.0,
			"0.024": 0.0,
			"0.025": 0.0
		}
	}
}
