{
	 "smiles": "CC(=C)C(Cl)=O", 
	 "Tm": 213.15, 
	 "num_atms": 11, 
	 "gaussian": { 
		 "optdone": 1, 
		 "sigma_profile": "yes", 
		 "theory": "DFT", 
		 "functional": "B3LYP", 
		 "basiset": "6-31G**", 
		 "properties": { 
			 "R2extent": 1087.7035, 
			 "electric_dipole_moment_norm": 3.38275423878, 
			 "electric_quadrupole_moment_norm": 5.11905374459, 
			 "total_energy": -690.84307267, 
			 "HOMO_LUMO_gap": 0.21549, 
			 "cosmo_polarized_energy": -5.19, 
			 "cosmo_cavitation_energy": 17.03, 
			 "cosmo_dispersion_energy": -12.42, 
			 "cosmo_repulsion_energy": 1.07, 
			 "cosmo_total_nonelectrostatic_energy": 5.68, 
			 "SMD_solvation_energy": 4.49 
		},
		"coords": [
			{
				"x": -0.6422681102,
				"y": 0.977549589,
				"z": -0.4328087783,
				"element": "C" 
			},
			{
				"x": 0.285686572,
				"y": -0.1092070004,
				"z": 0.0526887144,
				"element": "C" 
			},
			{
				"x": 0.0693608543,
				"y": -1.4169643555,
				"z": -0.1388131251,
				"element": "C" 
			},
			{
				"x": 1.4790055551,
				"y": 0.4102400464,
				"z": 0.7733192312,
				"element": "C" 
			},
			{
				"x": 2.6617631865,
				"y": -0.842162897,
				"z": 1.3989762826,
				"element": "Cl" 
			},
			{
				"x": 1.7106668974,
				"y": 1.5656670999,
				"z": 0.9662453486,
				"element": "O" 
			},
			{
				"x": -0.1217182777,
				"y": 1.6596867249,
				"z": -1.1123609182,
				"element": "H" 
			},
			{
				"x": -1.4998513578,
				"y": 0.5464849952,
				"z": -0.9535736166,
				"element": "H" 
			},
			{
				"x": -1.0041191231,
				"y": 1.5835238868,
				"z": 0.4038100112,
				"element": "H" 
			},
			{
				"x": -0.8149141487,
				"y": -1.7549590303,
				"z": -0.6703986559,
				"element": "H" 
			},
			{
				"x": 0.7550879521,
				"y": -2.1732590591,
				"z": 0.2223155061,
				"element": "H" 
			}
		],
		 "valence_orbital": [ 
			{
				"type": "occ",
				"energy": -0.39228,
				"method": "rhf"
			},
			{
				"type": "occ",
				"energy": -0.32083,
				"method": "rhf"
			},
			{
				"type": "occ",
				"energy": -0.32047,
				"method": "rhf"
			},
			{
				"type": "occ",
				"energy": -0.294,
				"method": "rhf"
			},
			{
				"type": "occ",
				"energy": -0.29268,
				"method": "rhf"
			},
			{
				"type": "unocc",
				"energy": -0.07719,
				"method": "rhf"
			},
			{
				"type": "unocc",
				"energy": 0.01798,
				"method": "rhf"
			},
			{
				"type": "unocc",
				"energy": 0.04722,
				"method": "rhf"
			},
			{
				"type": "unocc",
				"energy": 0.09982,
				"method": "rhf"
			},
			{
				"type": "unocc",
				"energy": 0.11931,
				"method": "rhf"
			}
		],
		"cosmo_sigma_profile": { 
			"-0.025": 0.0,
			"-0.024": 0.0,
			"-0.023": 0.0,
			"-0.022": 0.0,
			"-0.021": 0.0,
			"-0.02": 0.0,
			"-0.019": 0.0,
			"-0.018": 0.0,
			"-0.017": 0.0,
			"-0.016": 0.0,
			"-0.015": 0.0,
			"-0.014": 0.0,
			"-0.013": 0.0,
			"-0.012": 0.0,
			"-0.011": 0.0,
			"-0.01": 0.0,
			"-0.009": 0.0,
			"-0.008": 1.12942201083,
			"-0.007": 3.40221984774,
			"-0.006": 4.40973659725,
			"-0.005": 9.34682027509,
			"-0.004": 12.6244318606,
			"-0.003": 11.5880766396,
			"-0.002": 11.5806129882,
			"-0.001": 15.8290908009,
			"0.0": 13.4790217001,
			"0.001": 9.06330611934,
			"0.002": 8.91163481559,
			"0.003": 5.74991246013,
			"0.004": 8.41863067582,
			"0.005": 7.82004510107,
			"0.006": 3.7754912906,
			"0.007": 2.51610800515,
			"0.008": 4.06725007019,
			"0.009": 3.77518601914,
			"0.01": 0.576119360753,
			"0.011": 0.0,
			"0.012": 0.0,
			"0.013": 0.0,
			"0.014": 0.0,
			"0.015": 0.0,
			"0.016": 0.0,
			"0.017": 0.0,
			"0.018": 0.0,
			"0.019": 0.0,
			"0.02": 0.0,
			"0.021": 0.0,
			"0.022": 0.0,
			"0.023": 0.0,
			"0.024": 0.0,
			"0.025": 0.0
		}
	}
}
