{
	 "smiles": "CC(O)C1=C(Cl)C=C(C=C1)N1CCNC(=O)C1", 
	 "Tm": 460.15, 
	 "num_atms": 32, 
	 "gaussian": { 
		 "optdone": 1, 
		 "sigma_profile": "yes", 
		 "theory": "DFT", 
		 "functional": "B3LYP", 
		 "basiset": "6-31G**", 
		 "properties": { 
			 "R2extent": 6744.4517, 
			 "electric_dipole_moment_norm": 2.55999853711, 
			 "electric_quadrupole_moment_norm": 24.4120395596, 
			 "total_energy": -1186.46216286, 
			 "HOMO_LUMO_gap": 0.19822, 
			 "cosmo_polarized_energy": -17.81, 
			 "cosmo_cavitation_energy": 35.7, 
			 "cosmo_dispersion_energy": -26.2, 
			 "cosmo_repulsion_energy": 2.05, 
			 "cosmo_total_nonelectrostatic_energy": 11.55, 
			 "SMD_solvation_energy": 4.28 
		},
		"coords": [
			{
				"x": 2.5931261421,
				"y": 1.5911438627,
				"z": -3.959562999,
				"element": "C" 
			},
			{
				"x": 1.1566251436,
				"y": 1.1256775032,
				"z": -4.2398536204,
				"element": "C" 
			},
			{
				"x": 0.3596013527,
				"y": 2.2085903163,
				"z": -4.7204507067,
				"element": "O" 
			},
			{
				"x": 0.4846948918,
				"y": 0.5870170588,
				"z": -2.9901150146,
				"element": "C" 
			},
			{
				"x": 0.6745936205,
				"y": -0.7129782862,
				"z": -2.5176253675,
				"element": "C" 
			},
			{
				"x": 1.7243090129,
				"y": -1.8397245762,
				"z": -3.3918965956,
				"element": "Cl" 
			},
			{
				"x": 0.0763203862,
				"y": -1.1900497279,
				"z": -1.3508118825,
				"element": "C" 
			},
			{
				"x": -0.7791712751,
				"y": -0.3624312163,
				"z": -0.6069520919,
				"element": "C" 
			},
			{
				"x": -0.9841490424,
				"y": 0.9514542529,
				"z": -1.0703146614,
				"element": "C" 
			},
			{
				"x": -0.3625445187,
				"y": 1.4037818049,
				"z": -2.2252792607,
				"element": "C" 
			},
			{
				"x": -1.4483047143,
				"y": -0.8155128233,
				"z": 0.5530554712,
				"element": "N" 
			},
			{
				"x": -1.393511249,
				"y": -2.2335903368,
				"z": 0.8779725895,
				"element": "C" 
			},
			{
				"x": -2.5687379716,
				"y": -2.5854899461,
				"z": 1.7852109499,
				"element": "C" 
			},
			{
				"x": -2.5967440989,
				"y": -1.6990935728,
				"z": 2.9399933416,
				"element": "N" 
			},
			{
				"x": -2.1359957638,
				"y": -0.4148951857,
				"z": 2.9514841414,
				"element": "C" 
			},
			{
				"x": -2.3026912569,
				"y": 0.3408329608,
				"z": 3.8988505527,
				"element": "O" 
			},
			{
				"x": -1.3169657528,
				"y": 0.0344018438,
				"z": 1.7427116216,
				"element": "C" 
			},
			{
				"x": 3.2094397522,
				"y": 0.7710883558,
				"z": -3.5818368428,
				"element": "H" 
			},
			{
				"x": 3.0615877283,
				"y": 1.9640622907,
				"z": -4.8791569817,
				"element": "H" 
			},
			{
				"x": 2.5873983838,
				"y": 2.3973278876,
				"z": -3.2198974405,
				"element": "H" 
			},
			{
				"x": 1.1869763353,
				"y": 0.3222285891,
				"z": -4.9902272058,
				"element": "H" 
			},
			{
				"x": 0.8396972482,
				"y": 2.6183241059,
				"z": -5.4507209981,
				"element": "H" 
			},
			{
				"x": 0.3013448022,
				"y": -2.1998299715,
				"z": -1.0340405414,
				"element": "H" 
			},
			{
				"x": -1.6600986278,
				"y": 1.613118569,
				"z": -0.5398051656,
				"element": "H" 
			},
			{
				"x": -0.5500611678,
				"y": 2.4101794195,
				"z": -2.5813504597,
				"element": "H" 
			},
			{
				"x": -0.4433295002,
				"y": -2.5189706109,
				"z": 1.3654117244,
				"element": "H" 
			},
			{
				"x": -1.4877423488,
				"y": -2.8160829747,
				"z": -0.0410206088,
				"element": "H" 
			},
			{
				"x": -3.5021634491,
				"y": -2.5131267111,
				"z": 1.2098155855,
				"element": "H" 
			},
			{
				"x": -2.4649631015,
				"y": -3.6196270467,
				"z": 2.131756902,
				"element": "H" 
			},
			{
				"x": -3.1748487777,
				"y": -1.939477797,
				"z": 3.7349662482,
				"element": "H" 
			},
			{
				"x": -1.6402702175,
				"y": 1.052531151,
				"z": 1.5263073209,
				"element": "H" 
			},
			{
				"x": -0.2678219658,
				"y": 0.0988208114,
				"z": 2.0824819959,
				"element": "H" 
			}
		],
		 "valence_orbital": [ 
			{
				"type": "occ",
				"energy": -0.26964,
				"method": "rhf"
			},
			{
				"type": "occ",
				"energy": -0.256,
				"method": "rhf"
			},
			{
				"type": "occ",
				"energy": -0.24923,
				"method": "rhf"
			},
			{
				"type": "occ",
				"energy": -0.24592,
				"method": "rhf"
			},
			{
				"type": "occ",
				"energy": -0.20885,
				"method": "rhf"
			},
			{
				"type": "unocc",
				"energy": -0.01063,
				"method": "rhf"
			},
			{
				"type": "unocc",
				"energy": -0.00252,
				"method": "rhf"
			},
			{
				"type": "unocc",
				"energy": 0.02324,
				"method": "rhf"
			},
			{
				"type": "unocc",
				"energy": 0.03068,
				"method": "rhf"
			},
			{
				"type": "unocc",
				"energy": 0.07294,
				"method": "rhf"
			}
		],
		"cosmo_sigma_profile": { 
			"-0.025": 0.0,
			"-0.024": 0.0,
			"-0.023": 0.0,
			"-0.022": 0.0,
			"-0.021": 0.0,
			"-0.02": 0.0,
			"-0.019": 0.0,
			"-0.018": 0.0,
			"-0.017": 0.0,
			"-0.016": 0.134608598554,
			"-0.015": 1.08219525642,
			"-0.014": 1.47656473613,
			"-0.013": 2.75279894893,
			"-0.012": 1.7856351327,
			"-0.011": 1.83389013944,
			"-0.01": 1.72962644309,
			"-0.009": 1.83264858646,
			"-0.008": 3.87974225942,
			"-0.007": 6.19496304388,
			"-0.006": 13.3364381897,
			"-0.005": 19.2277435742,
			"-0.004": 26.5971821452,
			"-0.003": 20.6846032537,
			"-0.002": 18.9322164934,
			"-0.001": 17.9484039351,
			"0.0": 21.7638398312,
			"0.001": 18.8595804323,
			"0.002": 15.9129023504,
			"0.003": 18.5515243243,
			"0.004": 19.2821328214,
			"0.005": 14.7545769335,
			"0.006": 4.61416939041,
			"0.007": 2.71837743862,
			"0.008": 3.36171368684,
			"0.009": 3.09951255672,
			"0.01": 3.18197442918,
			"0.011": 2.37312504376,
			"0.012": 2.41409249075,
			"0.013": 4.41447922823,
			"0.014": 6.4420277131,
			"0.015": 1.89677087586,
			"0.016": 0.0,
			"0.017": 0.0,
			"0.018": 0.0,
			"0.019": 0.0,
			"0.02": 0.0,
			"0.021": 0.0,
			"0.022": 0.0,
			"0.023": 0.0,
			"0.024": 0.0,
			"0.025": 0.0
		}
	}
}
