{
	 "smiles": "FC1=CC2=C(OCCC2=O)C(F)=C1", 
	 "Tm": 409.15, 
	 "num_atms": 19, 
	 "gaussian": { 
		 "optdone": 1, 
		 "sigma_profile": "yes", 
		 "theory": "DFT", 
		 "functional": "B3LYP", 
		 "basiset": "6-31G**", 
		 "properties": { 
			 "R2extent": 2542.8518, 
			 "electric_dipole_moment_norm": 2.20584848301, 
			 "electric_quadrupole_moment_norm": 13.209512494, 
			 "total_energy": -696.677135771, 
			 "HOMO_LUMO_gap": 0.16491, 
			 "cosmo_polarized_energy": -8.84, 
			 "cosmo_cavitation_energy": 24.13, 
			 "cosmo_dispersion_energy": -17.83, 
			 "cosmo_repulsion_energy": 1.35, 
			 "cosmo_total_nonelectrostatic_energy": 7.66, 
			 "SMD_solvation_energy": 5.76 
		},
		"coords": [
			{
				"x": -0.6332637058,
				"y": -3.7976139919,
				"z": 1.9244850087,
				"element": "F" 
			},
			{
				"x": -0.4480804004,
				"y": -2.6574082481,
				"z": 1.229952084,
				"element": "C" 
			},
			{
				"x": -1.4439797836,
				"y": -1.7031438283,
				"z": 1.1938002933,
				"element": "C" 
			},
			{
				"x": -1.230590437,
				"y": -0.5230883391,
				"z": 0.4599630834,
				"element": "C" 
			},
			{
				"x": -0.0141304764,
				"y": -0.3109244376,
				"z": -0.2149756358,
				"element": "C" 
			},
			{
				"x": 0.2697844374,
				"y": 0.8060348652,
				"z": -0.9332770753,
				"element": "O" 
			},
			{
				"x": -0.5183330605,
				"y": 1.9580020136,
				"z": -0.5909509462,
				"element": "C" 
			},
			{
				"x": -2.0090993774,
				"y": 1.6405939686,
				"z": -0.5999088692,
				"element": "C" 
			},
			{
				"x": -2.3200322094,
				"y": 0.4805192956,
				"z": 0.3373354419,
				"element": "C" 
			},
			{
				"x": -3.3923603245,
				"y": 0.364225083,
				"z": 0.9064839825,
				"element": "O" 
			},
			{
				"x": 0.9669371841,
				"y": -1.3147582898,
				"z": -0.1546996424,
				"element": "C" 
			},
			{
				"x": 2.1277603719,
				"y": -1.119751452,
				"z": -0.8007069224,
				"element": "F" 
			},
			{
				"x": 0.7652082643,
				"y": -2.4844390083,
				"z": 0.5564182922,
				"element": "C" 
			},
			{
				"x": -2.3891966353,
				"y": -1.84701784,
				"z": 1.7039085477,
				"element": "H" 
			},
			{
				"x": -0.2560167385,
				"y": 2.7186437211,
				"z": -1.3283655949,
				"element": "H" 
			},
			{
				"x": -0.206190165,
				"y": 2.310625345,
				"z": 0.4024328633,
				"element": "H" 
			},
			{
				"x": -2.3205589522,
				"y": 1.3478887863,
				"z": -1.6120020325,
				"element": "H" 
			},
			{
				"x": -2.6051179702,
				"y": 2.5095587596,
				"z": -0.3080809972,
				"element": "H" 
			},
			{
				"x": 1.5388599785,
				"y": -3.2421464029,
				"z": 0.594988119,
				"element": "H" 
			}
		],
		 "valence_orbital": [ 
			{
				"type": "occ",
				"energy": -0.34873,
				"method": "rhf"
			},
			{
				"type": "occ",
				"energy": -0.3275,
				"method": "rhf"
			},
			{
				"type": "occ",
				"energy": -0.27096,
				"method": "rhf"
			},
			{
				"type": "occ",
				"energy": -0.25992,
				"method": "rhf"
			},
			{
				"type": "occ",
				"energy": -0.23551,
				"method": "rhf"
			},
			{
				"type": "unocc",
				"energy": -0.0706,
				"method": "rhf"
			},
			{
				"type": "unocc",
				"energy": -0.00493,
				"method": "rhf"
			},
			{
				"type": "unocc",
				"energy": 0.02948,
				"method": "rhf"
			},
			{
				"type": "unocc",
				"energy": 0.06795,
				"method": "rhf"
			},
			{
				"type": "unocc",
				"energy": 0.09307,
				"method": "rhf"
			}
		],
		"cosmo_sigma_profile": { 
			"-0.025": 0.0,
			"-0.024": 0.0,
			"-0.023": 0.0,
			"-0.022": 0.0,
			"-0.021": 0.0,
			"-0.02": 0.0,
			"-0.019": 0.0,
			"-0.018": 0.0,
			"-0.017": 0.0,
			"-0.016": 0.0,
			"-0.015": 0.0,
			"-0.014": 0.0,
			"-0.013": 0.0,
			"-0.012": 0.0,
			"-0.011": 0.0,
			"-0.01": 0.263014161932,
			"-0.009": 1.52651629824,
			"-0.008": 2.08062693338,
			"-0.007": 11.2953299251,
			"-0.006": 15.8467913481,
			"-0.005": 13.7249376678,
			"-0.004": 9.88076608583,
			"-0.003": 9.25492492286,
			"-0.002": 9.56042749975,
			"-0.001": 17.4731509519,
			"0.0": 20.0932160921,
			"0.001": 14.8644607739,
			"0.002": 8.39088442138,
			"0.003": 13.8955518862,
			"0.004": 17.5917699006,
			"0.005": 5.48375293072,
			"0.006": 2.35854130197,
			"0.007": 2.96476064461,
			"0.008": 3.30299603301,
			"0.009": 3.50672109829,
			"0.01": 2.74172620445,
			"0.011": 3.79153633143,
			"0.012": 3.04595713937,
			"0.013": 0.736274498053,
			"0.014": 0.0,
			"0.015": 0.0,
			"0.016": 0.0,
			"0.017": 0.0,
			"0.018": 0.0,
			"0.019": 0.0,
			"0.02": 0.0,
			"0.021": 0.0,
			"0.022": 0.0,
			"0.023": 0.0,
			"0.024": 0.0,
			"0.025": 0.0
		}
	}
}
