{
	 "smiles": "NCCCCO", 
	 "Tm": 290.15, 
	 "num_atms": 17, 
	 "gaussian": { 
		 "optdone": 1, 
		 "sigma_profile": "yes", 
		 "theory": "DFT", 
		 "functional": "B3LYP", 
		 "basiset": "6-31G**", 
		 "properties": { 
			 "R2extent": 1234.3493, 
			 "electric_dipole_moment_norm": 1.54468541134, 
			 "electric_quadrupole_moment_norm": 10.7084398434, 
			 "total_energy": -289.019402947, 
			 "HOMO_LUMO_gap": 0.30279, 
			 "cosmo_polarized_energy": -10.15, 
			 "cosmo_cavitation_energy": 19.27, 
			 "cosmo_dispersion_energy": -14.3, 
			 "cosmo_repulsion_energy": 1.28, 
			 "cosmo_total_nonelectrostatic_energy": 6.25, 
			 "SMD_solvation_energy": 1.75 
		},
		"coords": [
			{
				"x": -3.149515471,
				"y": 0.750897161,
				"z": 1.4163449968,
				"element": "N" 
			},
			{
				"x": -2.2080260823,
				"y": -0.3495504975,
				"z": 1.2005809116,
				"element": "C" 
			},
			{
				"x": -1.2739682467,
				"y": -0.2188575842,
				"z": -0.0146454856,
				"element": "C" 
			},
			{
				"x": -0.3265082218,
				"y": -1.4131372324,
				"z": -0.1857362392,
				"element": "C" 
			},
			{
				"x": 0.6301546887,
				"y": -1.2810919181,
				"z": -1.3745362114,
				"element": "C" 
			},
			{
				"x": -0.0335816632,
				"y": -1.2376613942,
				"z": -2.6323926552,
				"element": "O" 
			},
			{
				"x": -2.6402083628,
				"y": 1.6267663227,
				"z": 1.515139035,
				"element": "H" 
			},
			{
				"x": -3.7439914069,
				"y": 0.8619676478,
				"z": 0.597505039,
				"element": "H" 
			},
			{
				"x": -2.7891939057,
				"y": -1.2763101427,
				"z": 1.1114284731,
				"element": "H" 
			},
			{
				"x": -1.6034104885,
				"y": -0.4573997686,
				"z": 2.110526197,
				"element": "H" 
			},
			{
				"x": -1.8915434157,
				"y": -0.1067689933,
				"z": -0.9179959393,
				"element": "H" 
			},
			{
				"x": -0.6879233947,
				"y": 0.7080118205,
				"z": 0.0826612805,
				"element": "H" 
			},
			{
				"x": -0.9128261788,
				"y": -2.3325951352,
				"z": -0.3099735644,
				"element": "H" 
			},
			{
				"x": 0.2728035789,
				"y": -1.5396799999,
				"z": 0.7268913081,
				"element": "H" 
			},
			{
				"x": 1.2766894255,
				"y": -0.3981480267,
				"z": -1.2366271281,
				"element": "H" 
			},
			{
				"x": 1.2867987169,
				"y": -2.1561024813,
				"z": -1.4195593325,
				"element": "H" 
			},
			{
				"x": -0.5062495718,
				"y": -0.3982397781,
				"z": -2.6890106853,
				"element": "H" 
			}
		],
		 "valence_orbital": [ 
			{
				"type": "occ",
				"energy": -0.34558,
				"method": "rhf"
			},
			{
				"type": "occ",
				"energy": -0.33336,
				"method": "rhf"
			},
			{
				"type": "occ",
				"energy": -0.32001,
				"method": "rhf"
			},
			{
				"type": "occ",
				"energy": -0.26589,
				"method": "rhf"
			},
			{
				"type": "occ",
				"energy": -0.23205,
				"method": "rhf"
			},
			{
				"type": "unocc",
				"energy": 0.07074,
				"method": "rhf"
			},
			{
				"type": "unocc",
				"energy": 0.0816,
				"method": "rhf"
			},
			{
				"type": "unocc",
				"energy": 0.10644,
				"method": "rhf"
			},
			{
				"type": "unocc",
				"energy": 0.11808,
				"method": "rhf"
			},
			{
				"type": "unocc",
				"energy": 0.13744,
				"method": "rhf"
			}
		],
		"cosmo_sigma_profile": { 
			"-0.025": 0.0,
			"-0.024": 0.0,
			"-0.023": 0.0,
			"-0.022": 0.0,
			"-0.021": 0.0,
			"-0.02": 0.0,
			"-0.019": 0.0,
			"-0.018": 0.0,
			"-0.017": 0.0,
			"-0.016": 0.0,
			"-0.015": 0.0263652380481,
			"-0.014": 0.897713895687,
			"-0.013": 0.830784512019,
			"-0.012": 0.572803929872,
			"-0.011": 1.41772583194,
			"-0.01": 0.812561062604,
			"-0.009": 2.69433286304,
			"-0.008": 4.0379390612,
			"-0.007": 3.82957337806,
			"-0.006": 4.03619510739,
			"-0.005": 4.29469924392,
			"-0.004": 6.0119894965,
			"-0.003": 16.2826034616,
			"-0.002": 27.9454267512,
			"-0.001": 19.9110216984,
			"0.0": 11.2382574738,
			"0.001": 7.65746770171,
			"0.002": 3.31729986765,
			"0.003": 2.39167867588,
			"0.004": 2.8439145584,
			"0.005": 2.07846122102,
			"0.006": 1.85240343468,
			"0.007": 1.7004106384,
			"0.008": 2.03081320546,
			"0.009": 1.89679775867,
			"0.01": 1.80368624447,
			"0.011": 2.2741017368,
			"0.012": 2.2878820087,
			"0.013": 2.17775365151,
			"0.014": 2.63686048932,
			"0.015": 2.22476255655,
			"0.016": 0.987489996877,
			"0.017": 0.580208578967,
			"0.018": 0.690764817848,
			"0.019": 0.587231601469,
			"0.02": 0.552649976124,
			"0.021": 0.0743627251399,
			"0.022": 0.0,
			"0.023": 0.0,
			"0.024": 0.0,
			"0.025": 0.0
		}
	}
}
