{
	 "smiles": "CC1=CC(=CC=C1O)C(C)(C)C1=CC(C)=C(O)C=C1", 
	 "Tm": 412.15, 
	 "num_atms": 39, 
	 "gaussian": { 
		 "optdone": 1, 
		 "sigma_profile": "yes", 
		 "theory": "DFT", 
		 "functional": "B3LYP", 
		 "basiset": "6-31G**", 
		 "properties": { 
			 "R2extent": 5945.2993, 
			 "electric_dipole_moment_norm": 1.64493157912, 
			 "electric_quadrupole_moment_norm": 13.5384367491, 
			 "total_energy": -810.325259076, 
			 "HOMO_LUMO_gap": 0.20338, 
			 "cosmo_polarized_energy": -13.51, 
			 "cosmo_cavitation_energy": 40.13, 
			 "cosmo_dispersion_energy": -27.64, 
			 "cosmo_repulsion_energy": 2.15, 
			 "cosmo_total_nonelectrostatic_energy": 14.63, 
			 "SMD_solvation_energy": 7.21 
		},
		"coords": [
			{
				"x": 3.2340161235,
				"y": 1.1608548589,
				"z": -1.9135826257,
				"element": "C" 
			},
			{
				"x": 2.6596340442,
				"y": 0.2994008817,
				"z": -0.8131422954,
				"element": "C" 
			},
			{
				"x": 1.5006692148,
				"y": 0.6682089565,
				"z": -0.1283031506,
				"element": "C" 
			},
			{
				"x": 0.9383581076,
				"y": -0.108654671,
				"z": 0.8967800695,
				"element": "C" 
			},
			{
				"x": 1.5882776178,
				"y": -1.3049101959,
				"z": 1.2225813487,
				"element": "C" 
			},
			{
				"x": 2.7467542243,
				"y": -1.7048455912,
				"z": 0.5554081478,
				"element": "C" 
			},
			{
				"x": 3.2844665907,
				"y": -0.9102771349,
				"z": -0.4551322607,
				"element": "C" 
			},
			{
				"x": 4.4225480949,
				"y": -1.3593962494,
				"z": -1.0718855477,
				"element": "O" 
			},
			{
				"x": -0.3118216747,
				"y": 0.4071773009,
				"z": 1.6384759312,
				"element": "C" 
			},
			{
				"x": 0.1244089311,
				"y": 1.604255027,
				"z": 2.5175738878,
				"element": "C" 
			},
			{
				"x": -0.9134401002,
				"y": -0.6626691966,
				"z": 2.5816735381,
				"element": "C" 
			},
			{
				"x": -1.4023449419,
				"y": 0.8003637082,
				"z": 0.6209482443,
				"element": "C" 
			},
			{
				"x": -1.784000506,
				"y": -0.1183397004,
				"z": -0.3694290018,
				"element": "C" 
			},
			{
				"x": -2.7966915347,
				"y": 0.1385662375,
				"z": -1.2950055571,
				"element": "C" 
			},
			{
				"x": -3.1781745638,
				"y": -0.8744677025,
				"z": -2.3491591355,
				"element": "C" 
			},
			{
				"x": -3.4576263863,
				"y": 1.3797139814,
				"z": -1.2269015871,
				"element": "C" 
			},
			{
				"x": -4.4607462985,
				"y": 1.7258408998,
				"z": -2.0936541463,
				"element": "O" 
			},
			{
				"x": -3.0973016018,
				"y": 2.3136574651,
				"z": -0.2576016708,
				"element": "C" 
			},
			{
				"x": -2.0824372906,
				"y": 2.0234271896,
				"z": 0.6550628093,
				"element": "C" 
			},
			{
				"x": 4.2529766652,
				"y": 1.5022280573,
				"z": -1.6832303248,
				"element": "H" 
			},
			{
				"x": 2.6243768032,
				"y": 2.0544416169,
				"z": -2.0662688244,
				"element": "H" 
			},
			{
				"x": 3.2741755286,
				"y": 0.6311982665,
				"z": -2.8756934692,
				"element": "H" 
			},
			{
				"x": 1.0085918614,
				"y": 1.5939230087,
				"z": -0.4167058418,
				"element": "H" 
			},
			{
				"x": 1.1992764092,
				"y": -1.9477518545,
				"z": 2.0043269688,
				"element": "H" 
			},
			{
				"x": 3.2462847719,
				"y": -2.6346248732,
				"z": 0.8083061502,
				"element": "H" 
			},
			{
				"x": 4.6942192172,
				"y": -0.722656168,
				"z": -1.7442153452,
				"element": "H" 
			},
			{
				"x": 0.9252689974,
				"y": 1.2886510086,
				"z": 3.1926543447,
				"element": "H" 
			},
			{
				"x": 0.5052979929,
				"y": 2.4344875096,
				"z": 1.9157356891,
				"element": "H" 
			},
			{
				"x": -0.7032281147,
				"y": 1.9748987001,
				"z": 3.1318179052,
				"element": "H" 
			},
			{
				"x": -1.1897246059,
				"y": -1.5730501089,
				"z": 2.041830318,
				"element": "H" 
			},
			{
				"x": -1.818841711,
				"y": -0.2674161085,
				"z": 3.0515241411,
				"element": "H" 
			},
			{
				"x": -0.2144693537,
				"y": -0.9340195623,
				"z": 3.380080826,
				"element": "H" 
			},
			{
				"x": -1.2619204582,
				"y": -1.069983133,
				"z": -0.4332129521,
				"element": "H" 
			},
			{
				"x": -3.0386430388,
				"y": -0.4849963126,
				"z": -3.3673225441,
				"element": "H" 
			},
			{
				"x": -4.2267083691,
				"y": -1.1912253503,
				"z": -2.2589965145,
				"element": "H" 
			},
			{
				"x": -2.564063995,
				"y": -1.7739983204,
				"z": -2.2644282285,
				"element": "H" 
			},
			{
				"x": -4.6176344219,
				"y": 0.9982313163,
				"z": -2.7078488446,
				"element": "H" 
			},
			{
				"x": -3.6203475678,
				"y": 3.2642672636,
				"z": -0.2303528029,
				"element": "H" 
			},
			{
				"x": -1.8298346612,
				"y": 2.7733889794,
				"z": 1.3962923512,
				"element": "H" 
			}
		],
		 "valence_orbital": [ 
			{
				"type": "occ",
				"energy": -0.30779,
				"method": "rhf"
			},
			{
				"type": "occ",
				"energy": -0.2404,
				"method": "rhf"
			},
			{
				"type": "occ",
				"energy": -0.23655,
				"method": "rhf"
			},
			{
				"type": "occ",
				"energy": -0.21425,
				"method": "rhf"
			},
			{
				"type": "occ",
				"energy": -0.20146,
				"method": "rhf"
			},
			{
				"type": "unocc",
				"energy": 0.00192,
				"method": "rhf"
			},
			{
				"type": "unocc",
				"energy": 0.00996,
				"method": "rhf"
			},
			{
				"type": "unocc",
				"energy": 0.01529,
				"method": "rhf"
			},
			{
				"type": "unocc",
				"energy": 0.02251,
				"method": "rhf"
			},
			{
				"type": "unocc",
				"energy": 0.06794,
				"method": "rhf"
			}
		],
		"cosmo_sigma_profile": { 
			"-0.025": 0.0,
			"-0.024": 0.0,
			"-0.023": 0.0,
			"-0.022": 0.0,
			"-0.021": 0.0,
			"-0.02": 0.0,
			"-0.019": 0.0,
			"-0.018": 0.0,
			"-0.017": 0.0,
			"-0.016": 0.385670127138,
			"-0.015": 1.4419657217,
			"-0.014": 1.66665456797,
			"-0.013": 2.20752660142,
			"-0.012": 1.5886263584,
			"-0.011": 2.36683539018,
			"-0.01": 2.37418074018,
			"-0.009": 2.47842075553,
			"-0.008": 2.67518561259,
			"-0.007": 3.2079555521,
			"-0.006": 4.01254783561,
			"-0.005": 13.1915336289,
			"-0.004": 22.186052674,
			"-0.003": 31.7767575308,
			"-0.002": 32.0658874116,
			"-0.001": 31.3211572419,
			"0.0": 27.8904952388,
			"0.001": 25.2333592416,
			"0.002": 17.0588365748,
			"0.003": 12.4918454688,
			"0.004": 16.9571825282,
			"0.005": 19.9856667959,
			"0.006": 17.7077418153,
			"0.007": 6.60364786343,
			"0.008": 2.97935225132,
			"0.009": 3.39036568469,
			"0.01": 2.81308171368,
			"0.011": 4.13247447342,
			"0.012": 2.79935444882,
			"0.013": 0.00172547014297,
			"0.014": 0.0,
			"0.015": 0.0,
			"0.016": 0.0,
			"0.017": 0.0,
			"0.018": 0.0,
			"0.019": 0.0,
			"0.02": 0.0,
			"0.021": 0.0,
			"0.022": 0.0,
			"0.023": 0.0,
			"0.024": 0.0,
			"0.025": 0.0
		}
	}
}
