{
	 "smiles": "OCC1=CC=C(CO)C=C1", 
	 "Tm": 391.15, 
	 "num_atms": 20, 
	 "gaussian": { 
		 "optdone": 1, 
		 "sigma_profile": "yes", 
		 "theory": "DFT", 
		 "functional": "B3LYP", 
		 "basiset": "6-31G**", 
		 "properties": { 
			 "R2extent": 2156.1331, 
			 "electric_dipole_moment_norm": 2.65219512857, 
			 "electric_quadrupole_moment_norm": 6.19981514966, 
			 "total_energy": -461.303555501, 
			 "HOMO_LUMO_gap": 0.22894, 
			 "cosmo_polarized_energy": -11.66, 
			 "cosmo_cavitation_energy": 23.39, 
			 "cosmo_dispersion_energy": -17.48, 
			 "cosmo_repulsion_energy": 1.45, 
			 "cosmo_total_nonelectrostatic_energy": 7.35, 
			 "SMD_solvation_energy": 4.13 
		},
		"coords": [
			{
				"x": 0.6126259674,
				"y": 0.9287881813,
				"z": -3.8674127641,
				"element": "O" 
			},
			{
				"x": -0.5472573317,
				"y": 0.7340947376,
				"z": -3.0717283345,
				"element": "C" 
			},
			{
				"x": -0.1790902278,
				"y": 0.0107265218,
				"z": -1.7953112813,
				"element": "C" 
			},
			{
				"x": 1.0155865174,
				"y": -0.7064158143,
				"z": -1.6857281132,
				"element": "C" 
			},
			{
				"x": 1.3165842904,
				"y": -1.4002242188,
				"z": -0.5125622233,
				"element": "C" 
			},
			{
				"x": 0.4387412006,
				"y": -1.3905639591,
				"z": 0.5759237699,
				"element": "C" 
			},
			{
				"x": 0.7819311646,
				"y": -2.1143303425,
				"z": 1.8633838535,
				"element": "C" 
			},
			{
				"x": -0.3524532965,
				"y": -2.6250600742,
				"z": 2.5519339729,
				"element": "O" 
			},
			{
				"x": -0.758893452,
				"y": -0.672147111,
				"z": 0.4629302482,
				"element": "C" 
			},
			{
				"x": -1.0609046818,
				"y": 0.0205263751,
				"z": -0.7071669543,
				"element": "C" 
			},
			{
				"x": 0.3322649399,
				"y": 1.2735312181,
				"z": -4.7233291333,
				"element": "H" 
			},
			{
				"x": -1.3010221923,
				"y": 0.1406298342,
				"z": -3.6174969893,
				"element": "H" 
			},
			{
				"x": -1.025616892,
				"y": 1.6943046423,
				"z": -2.8177379747,
				"element": "H" 
			},
			{
				"x": 1.7031598169,
				"y": -0.7150438821,
				"z": -2.5239206482,
				"element": "H" 
			},
			{
				"x": 2.2481485854,
				"y": -1.958526515,
				"z": -0.4457676376,
				"element": "H" 
			},
			{
				"x": 1.2550083009,
				"y": -1.423176045,
				"z": 2.5717222315,
				"element": "H" 
			},
			{
				"x": 1.5191629738,
				"y": -2.9062246344,
				"z": 1.6550327863,
				"element": "H" 
			},
			{
				"x": -0.8260263479,
				"y": -3.2009309601,
				"z": 1.9366448674,
				"element": "H" 
			},
			{
				"x": -1.4480511123,
				"y": -0.6625300009,
				"z": 1.3020202752,
				"element": "H" 
			},
			{
				"x": -1.9922982231,
				"y": 0.579572047,
				"z": -0.7735299512,
				"element": "H" 
			}
		],
		 "valence_orbital": [ 
			{
				"type": "occ",
				"energy": -0.31961,
				"method": "rhf"
			},
			{
				"type": "occ",
				"energy": -0.27976,
				"method": "rhf"
			},
			{
				"type": "occ",
				"energy": -0.27056,
				"method": "rhf"
			},
			{
				"type": "occ",
				"energy": -0.24509,
				"method": "rhf"
			},
			{
				"type": "occ",
				"energy": -0.23051,
				"method": "rhf"
			},
			{
				"type": "unocc",
				"energy": -0.00157,
				"method": "rhf"
			},
			{
				"type": "unocc",
				"energy": 0.00324,
				"method": "rhf"
			},
			{
				"type": "unocc",
				"energy": 0.07218,
				"method": "rhf"
			},
			{
				"type": "unocc",
				"energy": 0.09104,
				"method": "rhf"
			},
			{
				"type": "unocc",
				"energy": 0.11211,
				"method": "rhf"
			}
		],
		"cosmo_sigma_profile": { 
			"-0.025": 0.0,
			"-0.024": 0.0,
			"-0.023": 0.0,
			"-0.022": 0.0,
			"-0.021": 0.0,
			"-0.02": 0.0,
			"-0.019": 0.0,
			"-0.018": 0.0,
			"-0.017": 0.0,
			"-0.016": 0.912419139847,
			"-0.015": 1.74328612588,
			"-0.014": 1.57508063263,
			"-0.013": 2.2810527239,
			"-0.012": 1.79633467773,
			"-0.011": 1.59134065272,
			"-0.01": 1.48376336518,
			"-0.009": 1.45854536787,
			"-0.008": 1.60374557365,
			"-0.007": 1.61890625022,
			"-0.006": 3.36041731765,
			"-0.005": 13.2127830534,
			"-0.004": 20.3892195846,
			"-0.003": 17.7305500257,
			"-0.002": 13.7798788097,
			"-0.001": 10.303518287,
			"0.0": 9.36521127545,
			"0.001": 8.99382712801,
			"0.002": 8.42912683344,
			"0.003": 9.36160263103,
			"0.004": 8.84322462562,
			"0.005": 9.91189380486,
			"0.006": 10.9031249929,
			"0.007": 4.69087995263,
			"0.008": 2.73781102364,
			"0.009": 2.54546486814,
			"0.01": 2.55649316954,
			"0.011": 2.91202009558,
			"0.012": 2.52606439485,
			"0.013": 2.46605688767,
			"0.014": 2.4939398878,
			"0.015": 0.302524577236,
			"0.016": 0.0,
			"0.017": 0.0,
			"0.018": 0.0,
			"0.019": 0.0,
			"0.02": 0.0,
			"0.021": 0.0,
			"0.022": 0.0,
			"0.023": 0.0,
			"0.024": 0.0,
			"0.025": 0.0
		}
	}
}
