{
	 "smiles": "OC(=O)CSC1=CC(=CC=C1)C(F)(F)F", 
	 "Tm": 293.15, 
	 "num_atms": 22, 
	 "gaussian": { 
		 "optdone": 1, 
		 "sigma_profile": "yes", 
		 "theory": "DFT", 
		 "functional": "B3LYP", 
		 "basiset": "6-31G**", 
		 "properties": { 
			 "R2extent": 5127.1164, 
			 "electric_dipole_moment_norm": 1.86534200886, 
			 "electric_quadrupole_moment_norm": 26.0660212271, 
			 "total_energy": -1195.34429655, 
			 "HOMO_LUMO_gap": 0.2053, 
			 "cosmo_polarized_energy": -12.58, 
			 "cosmo_cavitation_energy": 29.79, 
			 "cosmo_dispersion_energy": -21.32, 
			 "cosmo_repulsion_energy": 1.58, 
			 "cosmo_total_nonelectrostatic_energy": 10.05, 
			 "SMD_solvation_energy": 7.08 
		},
		"coords": [
			{
				"x": 0.6956042616,
				"y": 4.1082165224,
				"z": -1.3764407966,
				"element": "O" 
			},
			{
				"x": 1.9307048467,
				"y": 3.8520163677,
				"z": -0.8983390395,
				"element": "C" 
			},
			{
				"x": 2.4960801739,
				"y": 4.6085387249,
				"z": -0.1501779352,
				"element": "O" 
			},
			{
				"x": 2.604260342,
				"y": 2.5638147488,
				"z": -1.3907641675,
				"element": "C" 
			},
			{
				"x": 1.4984946889,
				"y": 1.2694198141,
				"z": -2.0871752365,
				"element": "S" 
			},
			{
				"x": 0.8588746971,
				"y": 0.4831747264,
				"z": -0.5994370604,
				"element": "C" 
			},
			{
				"x": 1.1883599683,
				"y": -0.8563713687,
				"z": -0.3698894978,
				"element": "C" 
			},
			{
				"x": 0.6718198801,
				"y": -1.5160449477,
				"z": 0.747576083,
				"element": "C" 
			},
			{
				"x": -0.1616260326,
				"y": -0.8432570593,
				"z": 1.6437654731,
				"element": "C" 
			},
			{
				"x": -0.4859790379,
				"y": 0.4931084606,
				"z": 1.4128110798,
				"element": "C" 
			},
			{
				"x": 0.0103430884,
				"y": 1.1561804531,
				"z": 0.2903863837,
				"element": "C" 
			},
			{
				"x": 1.0705259375,
				"y": -2.9431719853,
				"z": 1.0220912269,
				"element": "C" 
			},
			{
				"x": 1.3665561844,
				"y": -3.609377941,
				"z": -0.1143973598,
				"element": "F" 
			},
			{
				"x": 2.1644340466,
				"y": -3.0068414356,
				"z": 1.8147199781,
				"element": "F" 
			},
			{
				"x": 0.0878279342,
				"y": -3.6224569866,
				"z": 1.6519557877,
				"element": "F" 
			},
			{
				"x": 0.4237830992,
				"y": 3.3643547719,
				"z": -1.9490047248,
				"element": "H" 
			},
			{
				"x": 3.2821710951,
				"y": 2.8346110691,
				"z": -2.207776424,
				"element": "H" 
			},
			{
				"x": 3.2109322378,
				"y": 2.1577397297,
				"z": -0.5804552078,
				"element": "H" 
			},
			{
				"x": 1.8376706601,
				"y": -1.3826727439,
				"z": -1.0602269444,
				"element": "H" 
			},
			{
				"x": -0.5598830409,
				"y": -1.3657995641,
				"z": 2.5066248467,
				"element": "H" 
			},
			{
				"x": -1.139649672,
				"y": 1.0188543028,
				"z": 2.1016757286,
				"element": "H" 
			},
			{
				"x": -0.2623053588,
				"y": 2.1903643409,
				"z": 0.1086778068,
				"element": "H" 
			}
		],
		 "valence_orbital": [ 
			{
				"type": "occ",
				"energy": -0.32413,
				"method": "rhf"
			},
			{
				"type": "occ",
				"energy": -0.30709,
				"method": "rhf"
			},
			{
				"type": "occ",
				"energy": -0.28667,
				"method": "rhf"
			},
			{
				"type": "occ",
				"energy": -0.27764,
				"method": "rhf"
			},
			{
				"type": "occ",
				"energy": -0.25909,
				"method": "rhf"
			},
			{
				"type": "unocc",
				"energy": -0.05379,
				"method": "rhf"
			},
			{
				"type": "unocc",
				"energy": -0.04044,
				"method": "rhf"
			},
			{
				"type": "unocc",
				"energy": -0.00271,
				"method": "rhf"
			},
			{
				"type": "unocc",
				"energy": 0.01683,
				"method": "rhf"
			},
			{
				"type": "unocc",
				"energy": 0.04134,
				"method": "rhf"
			}
		],
		"cosmo_sigma_profile": { 
			"-0.025": 0.0,
			"-0.024": 0.0,
			"-0.023": 0.0,
			"-0.022": 0.0,
			"-0.021": 0.0,
			"-0.02": 0.0,
			"-0.019": 0.0,
			"-0.018": 0.0,
			"-0.017": 0.0,
			"-0.016": 0.0,
			"-0.015": 0.0,
			"-0.014": 0.0200356997835,
			"-0.013": 0.671744658253,
			"-0.012": 1.15589552521,
			"-0.011": 1.37183084407,
			"-0.01": 4.58298683199,
			"-0.009": 3.81470489809,
			"-0.008": 5.14758975944,
			"-0.007": 10.0534519827,
			"-0.006": 13.3951282714,
			"-0.005": 12.6473635695,
			"-0.004": 10.7362043919,
			"-0.003": 11.4941361476,
			"-0.002": 12.474885265,
			"-0.001": 13.6207389105,
			"0.0": 17.2739835489,
			"0.001": 21.3009986825,
			"0.002": 32.4581633777,
			"0.003": 31.7861475214,
			"0.004": 5.18711190604,
			"0.005": 3.27037352832,
			"0.006": 3.42507980585,
			"0.007": 3.00824476755,
			"0.008": 2.68761047318,
			"0.009": 4.02541892421,
			"0.01": 4.468030735,
			"0.011": 5.50942875262,
			"0.012": 4.48350206637,
			"0.013": 0.606490004877,
			"0.014": 0.0,
			"0.015": 0.0,
			"0.016": 0.0,
			"0.017": 0.0,
			"0.018": 0.0,
			"0.019": 0.0,
			"0.02": 0.0,
			"0.021": 0.0,
			"0.022": 0.0,
			"0.023": 0.0,
			"0.024": 0.0,
			"0.025": 0.0
		}
	}
}
