{
	 "smiles": "CCCCN1C(CCC(O)=O)=NC2=C1C=CC(=C2)S(=O)(=O)N1CCOCC1", 
	 "Tm": 410.15, 
	 "num_atms": 52, 
	 "gaussian": { 
		 "optdone": 1, 
		 "sigma_profile": "yes", 
		 "theory": "DFT", 
		 "functional": "B3LYP", 
		 "basiset": "6-31G**", 
		 "properties": { 
			 "R2extent": 14117.379, 
			 "electric_dipole_moment_norm": 8.2747251616, 
			 "electric_quadrupole_moment_norm": 31.5461824041, 
			 "total_energy": -1639.4944578, 
			 "HOMO_LUMO_gap": 0.19693, 
			 "cosmo_polarized_energy": -30.33, 
			 "cosmo_cavitation_energy": 55.12, 
			 "cosmo_dispersion_energy": -36.84, 
			 "cosmo_repulsion_energy": 2.8, 
			 "cosmo_total_nonelectrostatic_energy": 21.08, 
			 "SMD_solvation_energy": 5.63 
		},
		"coords": [
			{
				"x": 1.3109741818,
				"y": 2.4516976358,
				"z": 5.4621749708,
				"element": "C" 
			},
			{
				"x": 2.4731124412,
				"y": 1.4724002682,
				"z": 5.2533184231,
				"element": "C" 
			},
			{
				"x": 2.6637132342,
				"y": 1.0071374537,
				"z": 3.8004314516,
				"element": "C" 
			},
			{
				"x": 1.5110531602,
				"y": 0.1342055346,
				"z": 3.2802825251,
				"element": "C" 
			},
			{
				"x": 1.7066334302,
				"y": -0.3121122989,
				"z": 1.9033695335,
				"element": "N" 
			},
			{
				"x": 2.3095962564,
				"y": -1.4823928736,
				"z": 1.4587528125,
				"element": "C" 
			},
			{
				"x": 2.754789433,
				"y": -2.5809476222,
				"z": 2.3775665893,
				"element": "C" 
			},
			{
				"x": 1.6197505403,
				"y": -3.5669395973,
				"z": 2.7533203201,
				"element": "C" 
			},
			{
				"x": 1.0452538234,
				"y": -4.2805943589,
				"z": 1.5451823666,
				"element": "C" 
			},
			{
				"x": 1.9731570568,
				"y": -5.0626942792,
				"z": 0.9464330748,
				"element": "O" 
			},
			{
				"x": -0.0940097895,
				"y": -4.1846380109,
				"z": 1.1496153366,
				"element": "O" 
			},
			{
				"x": 2.4014665536,
				"y": -1.5530782384,
				"z": 0.1503305552,
				"element": "N" 
			},
			{
				"x": 1.8421475461,
				"y": -0.37644288,
				"z": -0.3159829583,
				"element": "C" 
			},
			{
				"x": 1.4054497555,
				"y": 0.4224173808,
				"z": 0.7699165724,
				"element": "C" 
			},
			{
				"x": 0.8199630065,
				"y": 1.6787824858,
				"z": 0.5888772382,
				"element": "C" 
			},
			{
				"x": 0.6596987377,
				"y": 2.1205781052,
				"z": -0.7204413344,
				"element": "C" 
			},
			{
				"x": 1.0804689518,
				"y": 1.3220910657,
				"z": -1.8056999988,
				"element": "C" 
			},
			{
				"x": 1.6823386483,
				"y": 0.0768352642,
				"z": -1.6282251337,
				"element": "C" 
			},
			{
				"x": 0.7939293107,
				"y": 1.9166221922,
				"z": -3.4764434025,
				"element": "S" 
			},
			{
				"x": 1.7206024993,
				"y": 1.2051835041,
				"z": -4.3599515318,
				"element": "O" 
			},
			{
				"x": 0.7307426512,
				"y": 3.3794115475,
				"z": -3.4129360819,
				"element": "O" 
			},
			{
				"x": -0.7470696038,
				"y": 1.4174981932,
				"z": -3.9226465535,
				"element": "N" 
			},
			{
				"x": -0.9636070491,
				"y": 0.0051146571,
				"z": -4.2998611225,
				"element": "C" 
			},
			{
				"x": -2.0862151282,
				"y": -0.6017769339,
				"z": -3.462845191,
				"element": "C" 
			},
			{
				"x": -3.3162408681,
				"y": 0.1085807118,
				"z": -3.596704042,
				"element": "O" 
			},
			{
				"x": -3.1738967138,
				"y": 1.5006362811,
				"z": -3.8665019249,
				"element": "C" 
			},
			{
				"x": -1.8925108905,
				"y": 2.0916086066,
				"z": -3.2873308089,
				"element": "C" 
			},
			{
				"x": 1.4245107089,
				"y": 3.3387641736,
				"z": 4.8285904239,
				"element": "H" 
			},
			{
				"x": 1.2697472197,
				"y": 2.7913542896,
				"z": 6.5016736644,
				"element": "H" 
			},
			{
				"x": 0.3400729479,
				"y": 2.0001563493,
				"z": 5.2318511807,
				"element": "H" 
			},
			{
				"x": 3.4039436004,
				"y": 1.9484548496,
				"z": 5.5831354767,
				"element": "H" 
			},
			{
				"x": 2.3377718132,
				"y": 0.5957213435,
				"z": 5.9018309663,
				"element": "H" 
			},
			{
				"x": 3.5957497827,
				"y": 0.4346786677,
				"z": 3.7178732346,
				"element": "H" 
			},
			{
				"x": 2.7775954743,
				"y": 1.8771145157,
				"z": 3.1416599069,
				"element": "H" 
			},
			{
				"x": 0.5610827563,
				"y": 0.6755919679,
				"z": 3.3160987967,
				"element": "H" 
			},
			{
				"x": 1.38909053,
				"y": -0.7491618359,
				"z": 3.9139644615,
				"element": "H" 
			},
			{
				"x": 3.5448587503,
				"y": -3.129050471,
				"z": 1.8604831684,
				"element": "H" 
			},
			{
				"x": 3.1844751386,
				"y": -2.1705625365,
				"z": 3.2973692466,
				"element": "H" 
			},
			{
				"x": 0.7916660903,
				"y": -3.0552688161,
				"z": 3.2485234462,
				"element": "H" 
			},
			{
				"x": 2.0241722569,
				"y": -4.3181930674,
				"z": 3.4408046772,
				"element": "H" 
			},
			{
				"x": 1.5478332787,
				"y": -5.4392117158,
				"z": 0.1579637073,
				"element": "H" 
			},
			{
				"x": 0.5101816419,
				"y": 2.2990762025,
				"z": 1.4238845997,
				"element": "H" 
			},
			{
				"x": 0.2421205202,
				"y": 3.1005000875,
				"z": -0.9204551979,
				"element": "H" 
			},
			{
				"x": 2.0394380612,
				"y": -0.5022612444,
				"z": -2.4716901659,
				"element": "H" 
			},
			{
				"x": -1.2180879693,
				"y": -0.0451495726,
				"z": -5.3653983442,
				"element": "H" 
			},
			{
				"x": -0.0402141001,
				"y": -0.5623631988,
				"z": -4.1658203003,
				"element": "H" 
			},
			{
				"x": -2.2785264836,
				"y": -1.6303208637,
				"z": -3.7858247914,
				"element": "H" 
			},
			{
				"x": -1.7794621232,
				"y": -0.6348734212,
				"z": -2.4064023143,
				"element": "H" 
			},
			{
				"x": -3.1970654181,
				"y": 1.6839099219,
				"z": -4.9514822225,
				"element": "H" 
			},
			{
				"x": -4.0410249507,
				"y": 2.0009643283,
				"z": -3.4231345207,
				"element": "H" 
			},
			{
				"x": -1.837726693,
				"y": 3.161066986,
				"z": -3.5024283788,
				"element": "H" 
			},
			{
				"x": -1.8930940087,
				"y": 1.9594792656,
				"z": -2.1941724067,
				"element": "H" 
			}
		],
		 "valence_orbital": [ 
			{
				"type": "occ",
				"energy": -0.27888,
				"method": "rhf"
			},
			{
				"type": "occ",
				"energy": -0.259,
				"method": "rhf"
			},
			{
				"type": "occ",
				"energy": -0.25025,
				"method": "rhf"
			},
			{
				"type": "occ",
				"energy": -0.23778,
				"method": "rhf"
			},
			{
				"type": "occ",
				"energy": -0.23268,
				"method": "rhf"
			},
			{
				"type": "unocc",
				"energy": -0.03575,
				"method": "rhf"
			},
			{
				"type": "unocc",
				"energy": -0.01384,
				"method": "rhf"
			},
			{
				"type": "unocc",
				"energy": 0.00042,
				"method": "rhf"
			},
			{
				"type": "unocc",
				"energy": 0.03183,
				"method": "rhf"
			},
			{
				"type": "unocc",
				"energy": 0.05305,
				"method": "rhf"
			}
		],
		"cosmo_sigma_profile": { 
			"-0.025": 0.0,
			"-0.024": 0.0,
			"-0.023": 0.0,
			"-0.022": 0.0,
			"-0.021": 0.0,
			"-0.02": 0.0,
			"-0.019": 0.0372273751515,
			"-0.018": 0.695294896062,
			"-0.017": 0.984805250156,
			"-0.016": 1.08780639323,
			"-0.015": 0.668416371137,
			"-0.014": 0.37468248483,
			"-0.013": 0.723583966052,
			"-0.012": 0.422602536836,
			"-0.011": 0.985776551611,
			"-0.01": 0.762252745209,
			"-0.009": 0.476272607207,
			"-0.008": 2.05996504723,
			"-0.007": 11.9163222211,
			"-0.006": 28.6227569127,
			"-0.005": 38.4004173898,
			"-0.004": 42.4146345441,
			"-0.003": 44.8148918941,
			"-0.002": 35.3885614307,
			"-0.001": 32.1269444288,
			"0.0": 28.105470975,
			"0.001": 24.6980583505,
			"0.002": 19.5063893727,
			"0.003": 17.1368023661,
			"0.004": 10.3278106946,
			"0.005": 10.3204607927,
			"0.006": 10.8372269443,
			"0.007": 9.53726120488,
			"0.008": 8.95430062364,
			"0.009": 8.20299588461,
			"0.01": 9.13202002489,
			"0.011": 14.3420628655,
			"0.012": 12.6226825198,
			"0.013": 3.43778133168,
			"0.014": 1.05480115806,
			"0.015": 0.567344875895,
			"0.016": 0.765593187325,
			"0.017": 0.213500758965,
			"0.018": 0.0,
			"0.019": 0.0,
			"0.02": 0.0,
			"0.021": 0.0,
			"0.022": 0.0,
			"0.023": 0.0,
			"0.024": 0.0,
			"0.025": 0.0
		}
	}
}
