{
	 "smiles": "COC1=CC=C(NCCCC(O)=O)C=C1", 
	 "Tm": 478.15, 
	 "num_atms": 30, 
	 "gaussian": { 
		 "optdone": 1, 
		 "sigma_profile": "yes", 
		 "theory": "DFT", 
		 "functional": "B3LYP", 
		 "basiset": "6-31G**", 
		 "properties": { 
			 "R2extent": 6141.1886, 
			 "electric_dipole_moment_norm": 3.72434058727, 
			 "electric_quadrupole_moment_norm": 21.5520788213, 
			 "total_energy": -708.626759533, 
			 "HOMO_LUMO_gap": 0.18198, 
			 "cosmo_polarized_energy": -20.17, 
			 "cosmo_cavitation_energy": 33.6, 
			 "cosmo_dispersion_energy": -24.16, 
			 "cosmo_repulsion_energy": 1.91, 
			 "cosmo_total_nonelectrostatic_energy": 11.34, 
			 "SMD_solvation_energy": 6.38 
		},
		"coords": [
			{
				"x": 1.7914937655,
				"y": -4.9555148723,
				"z": 2.8343516411,
				"element": "C" 
			},
			{
				"x": 2.1188923075,
				"y": -4.2738670071,
				"z": 1.6382902272,
				"element": "O" 
			},
			{
				"x": 1.3176296018,
				"y": -3.2270228744,
				"z": 1.2577576512,
				"element": "C" 
			},
			{
				"x": 1.6740347861,
				"y": -2.5770920494,
				"z": 0.0716586107,
				"element": "C" 
			},
			{
				"x": 0.9313681285,
				"y": -1.5022987404,
				"z": -0.407248344,
				"element": "C" 
			},
			{
				"x": -0.2008266227,
				"y": -1.0391941163,
				"z": 0.2899324433,
				"element": "C" 
			},
			{
				"x": -0.960649087,
				"y": 0.0569611942,
				"z": -0.1378192882,
				"element": "N" 
			},
			{
				"x": -0.8770776885,
				"y": 0.5875509725,
				"z": -1.4889393609,
				"element": "C" 
			},
			{
				"x": 0.1838168358,
				"y": 1.6944079642,
				"z": -1.623236853,
				"element": "C" 
			},
			{
				"x": 0.2892702741,
				"y": 2.2565104399,
				"z": -3.0555056899,
				"element": "C" 
			},
			{
				"x": -0.9965059726,
				"y": 2.9163705837,
				"z": -3.5380013944,
				"element": "C" 
			},
			{
				"x": -1.3791649658,
				"y": 4.0291633443,
				"z": -2.8479678223,
				"element": "O" 
			},
			{
				"x": -1.6764373798,
				"y": 2.5114545183,
				"z": -4.4468571775,
				"element": "O" 
			},
			{
				"x": -0.5474153013,
				"y": -1.6999848098,
				"z": 1.4791180102,
				"element": "C" 
			},
			{
				"x": 0.1943834212,
				"y": -2.7784057752,
				"z": 1.9613131028,
				"element": "C" 
			},
			{
				"x": 2.5424950436,
				"y": -5.7385212066,
				"z": 2.9541563738,
				"element": "H" 
			},
			{
				"x": 0.7965544498,
				"y": -5.4187151734,
				"z": 2.7820355819,
				"element": "H" 
			},
			{
				"x": 1.8260155516,
				"y": -4.2893576943,
				"z": 3.7074174064,
				"element": "H" 
			},
			{
				"x": 2.5452308255,
				"y": -2.9306489041,
				"z": -0.470666583,
				"element": "H" 
			},
			{
				"x": 1.241899036,
				"y": -1.0271825216,
				"z": -1.3312578582,
				"element": "H" 
			},
			{
				"x": -1.8870499217,
				"y": 0.0807332812,
				"z": 0.2613995211,
				"element": "H" 
			},
			{
				"x": -0.6726495957,
				"y": -0.2092081814,
				"z": -2.2206784358,
				"element": "H" 
			},
			{
				"x": -1.8583842256,
				"y": 0.9967518446,
				"z": -1.7511515445,
				"element": "H" 
			},
			{
				"x": 1.1619575979,
				"y": 1.3044201974,
				"z": -1.3240086082,
				"element": "H" 
			},
			{
				"x": -0.0526795166,
				"y": 2.4897073885,
				"z": -0.9043877281,
				"element": "H" 
			},
			{
				"x": 0.5210970452,
				"y": 1.45914316,
				"z": -3.7656723343,
				"element": "H" 
			},
			{
				"x": 1.1052476609,
				"y": 2.9893133245,
				"z": -3.1046005102,
				"element": "H" 
			},
			{
				"x": -0.7294929267,
				"y": 4.2373057528,
				"z": -2.1616177518,
				"element": "H" 
			},
			{
				"x": -1.4162190163,
				"y": -1.3638419973,
				"z": 2.0408968562,
				"element": "H" 
			},
			{
				"x": -0.1171341106,
				"y": -3.2574380423,
				"z": 2.8822898586,
				"element": "H" 
			}
		],
		 "valence_orbital": [ 
			{
				"type": "occ",
				"energy": -0.31599,
				"method": "rhf"
			},
			{
				"type": "occ",
				"energy": -0.26951,
				"method": "rhf"
			},
			{
				"type": "occ",
				"energy": -0.2658,
				"method": "rhf"
			},
			{
				"type": "occ",
				"energy": -0.24671,
				"method": "rhf"
			},
			{
				"type": "occ",
				"energy": -0.18193,
				"method": "rhf"
			},
			{
				"type": "unocc",
				"energy": 5e-05,
				"method": "rhf"
			},
			{
				"type": "unocc",
				"energy": 0.00664,
				"method": "rhf"
			},
			{
				"type": "unocc",
				"energy": 0.03109,
				"method": "rhf"
			},
			{
				"type": "unocc",
				"energy": 0.04415,
				"method": "rhf"
			},
			{
				"type": "unocc",
				"energy": 0.07774,
				"method": "rhf"
			}
		],
		"cosmo_sigma_profile": { 
			"-0.025": 0.0,
			"-0.024": 0.0,
			"-0.023": 0.0,
			"-0.022": 0.0,
			"-0.021": 0.0,
			"-0.02": 0.0,
			"-0.019": 0.0571226743872,
			"-0.018": 0.681740967442,
			"-0.017": 1.48333466723,
			"-0.016": 0.551328840255,
			"-0.015": 1.23279889245,
			"-0.014": 0.989785542904,
			"-0.013": 1.54095198245,
			"-0.012": 2.20065986249,
			"-0.011": 2.28723324559,
			"-0.01": 2.88429845443,
			"-0.009": 2.63922678004,
			"-0.008": 2.6797947076,
			"-0.007": 4.9326485861,
			"-0.006": 10.5551306084,
			"-0.005": 22.871805797,
			"-0.004": 27.1310690085,
			"-0.003": 25.7271304804,
			"-0.002": 19.6725568926,
			"-0.001": 14.6004897154,
			"0.0": 10.333708998,
			"0.001": 9.64552210362,
			"0.002": 9.05347964292,
			"0.003": 9.30249879659,
			"0.004": 9.81367407929,
			"0.005": 12.5208214722,
			"0.006": 13.6034535682,
			"0.007": 12.299593356,
			"0.008": 4.5723030221,
			"0.009": 4.90496895418,
			"0.01": 6.50698710657,
			"0.011": 7.73417442102,
			"0.012": 6.05153335479,
			"0.013": 3.06669697389,
			"0.014": 0.175604106907,
			"0.015": 0.0,
			"0.016": 0.0,
			"0.017": 0.0,
			"0.018": 0.0,
			"0.019": 0.0,
			"0.02": 0.0,
			"0.021": 0.0,
			"0.022": 0.0,
			"0.023": 0.0,
			"0.024": 0.0,
			"0.025": 0.0
		}
	}
}
