{
	 "smiles": "CC1=CC=C(NC(=O)C2=CC=CC3=C2C=CC=C3)C=C1", 
	 "Tm": 447.15, 
	 "num_atms": 35, 
	 "gaussian": { 
		 "optdone": 1, 
		 "sigma_profile": "yes", 
		 "theory": "DFT", 
		 "functional": "B3LYP", 
		 "basiset": "6-31G**", 
		 "properties": { 
			 "R2extent": 5937.2158, 
			 "electric_dipole_moment_norm": 3.7077590658, 
			 "electric_quadrupole_moment_norm": 18.7271402294, 
			 "total_energy": -824.960293084, 
			 "HOMO_LUMO_gap": 0.16823, 
			 "cosmo_polarized_energy": -13.24, 
			 "cosmo_cavitation_energy": 38.46, 
			 "cosmo_dispersion_energy": -26.44, 
			 "cosmo_repulsion_energy": 2.04, 
			 "cosmo_total_nonelectrostatic_energy": 14.06, 
			 "SMD_solvation_energy": 6.94 
		},
		"coords": [
			{
				"x": -4.1965936255,
				"y": 1.0948393832,
				"z": -0.6957996092,
				"element": "C" 
			},
			{
				"x": -2.7677268181,
				"y": 0.9927887302,
				"z": -0.2167929891,
				"element": "C" 
			},
			{
				"x": -2.3472019054,
				"y": -0.0701260854,
				"z": 0.5923401471,
				"element": "C" 
			},
			{
				"x": -1.0427264331,
				"y": -0.1554643241,
				"z": 1.075364791,
				"element": "C" 
			},
			{
				"x": -0.1028528708,
				"y": 0.8229153053,
				"z": 0.7273183896,
				"element": "C" 
			},
			{
				"x": 1.234118439,
				"y": 0.8135521227,
				"z": 1.1968412446,
				"element": "N" 
			},
			{
				"x": 2.0672981305,
				"y": -0.2120950913,
				"z": 1.6068932024,
				"element": "C" 
			},
			{
				"x": 3.0662285324,
				"y": 0.0525118364,
				"z": 2.2666904623,
				"element": "O" 
			},
			{
				"x": 1.7438556858,
				"y": -1.6351124641,
				"z": 1.2364331447,
				"element": "C" 
			},
			{
				"x": 1.7406768681,
				"y": -2.5485930916,
				"z": 2.2754151127,
				"element": "C" 
			},
			{
				"x": 1.4792743725,
				"y": -3.9170289958,
				"z": 2.0460705377,
				"element": "C" 
			},
			{
				"x": 1.2571104256,
				"y": -4.3686794269,
				"z": 0.7657402119,
				"element": "C" 
			},
			{
				"x": 1.3023872745,
				"y": -3.4767975347,
				"z": -0.3385411227,
				"element": "C" 
			},
			{
				"x": 1.5528855686,
				"y": -2.0807320686,
				"z": -0.1124921655,
				"element": "C" 
			},
			{
				"x": 1.636561449,
				"y": -1.2215874582,
				"z": -1.2435244577,
				"element": "C" 
			},
			{
				"x": 1.4636735176,
				"y": -1.7087925141,
				"z": -2.5195939655,
				"element": "C" 
			},
			{
				"x": 1.1962743603,
				"y": -3.0811999151,
				"z": -2.7380576929,
				"element": "C" 
			},
			{
				"x": 1.120487817,
				"y": -3.9430651117,
				"z": -1.6690241058,
				"element": "C" 
			},
			{
				"x": -0.5088317589,
				"y": 1.8911943448,
				"z": -0.0846163017,
				"element": "C" 
			},
			{
				"x": -1.8219575534,
				"y": 1.9743804137,
				"z": -0.5399144009,
				"element": "C" 
			},
			{
				"x": -4.6482352374,
				"y": 0.1061060601,
				"z": -0.8211223973,
				"element": "H" 
			},
			{
				"x": -4.8192788499,
				"y": 1.6480924749,
				"z": 0.0188413665,
				"element": "H" 
			},
			{
				"x": -4.2608939007,
				"y": 1.618863855,
				"z": -1.6543569703,
				"element": "H" 
			},
			{
				"x": -3.0585785748,
				"y": -0.8450241672,
				"z": 0.8673096769,
				"element": "H" 
			},
			{
				"x": -0.7582678752,
				"y": -0.9779072848,
				"z": 1.7204604722,
				"element": "H" 
			},
			{
				"x": 1.6288426865,
				"y": 1.7159263348,
				"z": 1.4357912393,
				"element": "H" 
			},
			{
				"x": 1.939773427,
				"y": -2.1951510458,
				"z": 3.2820732805,
				"element": "H" 
			},
			{
				"x": 1.4608420873,
				"y": -4.6071816591,
				"z": 2.8841685305,
				"element": "H" 
			},
			{
				"x": 1.0569861081,
				"y": -5.4204890398,
				"z": 0.5779828195,
				"element": "H" 
			},
			{
				"x": 1.8470009202,
				"y": -0.1690785968,
				"z": -1.0939694958,
				"element": "H" 
			},
			{
				"x": 1.5352035183,
				"y": -1.0339480944,
				"z": -3.3676106665,
				"element": "H" 
			},
			{
				"x": 1.0590953147,
				"y": -3.4505844819,
				"z": -3.7501410097,
				"element": "H" 
			},
			{
				"x": 0.92818353,
				"y": -5.0014135824,
				"z": -1.8257431152,
				"element": "H" 
			},
			{
				"x": 0.2136067144,
				"y": 2.653848477,
				"z": -0.3642057273,
				"element": "H" 
			},
			{
				"x": -2.1124213441,
				"y": 2.8131326956,
				"z": -1.1678284362,
				"element": "H" 
			}
		],
		 "valence_orbital": [ 
			{
				"type": "occ",
				"energy": -0.2548,
				"method": "rhf"
			},
			{
				"type": "occ",
				"energy": -0.25305,
				"method": "rhf"
			},
			{
				"type": "occ",
				"energy": -0.24562,
				"method": "rhf"
			},
			{
				"type": "occ",
				"energy": -0.21803,
				"method": "rhf"
			},
			{
				"type": "occ",
				"energy": -0.21691,
				"method": "rhf"
			},
			{
				"type": "unocc",
				"energy": -0.04868,
				"method": "rhf"
			},
			{
				"type": "unocc",
				"energy": -0.01545,
				"method": "rhf"
			},
			{
				"type": "unocc",
				"energy": -0.01391,
				"method": "rhf"
			},
			{
				"type": "unocc",
				"energy": -0.00392,
				"method": "rhf"
			},
			{
				"type": "unocc",
				"energy": 0.02042,
				"method": "rhf"
			}
		],
		"cosmo_sigma_profile": { 
			"-0.025": 0.0,
			"-0.024": 0.0,
			"-0.023": 0.0,
			"-0.022": 0.0,
			"-0.021": 0.0,
			"-0.02": 0.0,
			"-0.019": 0.0,
			"-0.018": 0.0,
			"-0.017": 0.0,
			"-0.016": 0.0,
			"-0.015": 0.0223915420137,
			"-0.014": 0.79943428874,
			"-0.013": 0.568581383468,
			"-0.012": 1.37903229614,
			"-0.011": 0.924788670293,
			"-0.01": 1.31514332286,
			"-0.009": 1.2907031344,
			"-0.008": 0.906130715961,
			"-0.007": 3.67245359313,
			"-0.006": 14.4216389162,
			"-0.005": 21.1451059032,
			"-0.004": 30.835691292,
			"-0.003": 28.6306939929,
			"-0.002": 23.599185733,
			"-0.001": 22.4297606287,
			"0.0": 23.5444923308,
			"0.001": 20.1399887568,
			"0.002": 18.3541977751,
			"0.003": 24.8702648504,
			"0.004": 24.2226220332,
			"0.005": 18.7231165602,
			"0.006": 7.12038246664,
			"0.007": 1.55589166548,
			"0.008": 1.43495866985,
			"0.009": 1.59328553742,
			"0.01": 1.42360934077,
			"0.011": 1.72821752282,
			"0.012": 2.6580092707,
			"0.013": 5.7403688628,
			"0.014": 2.05210842191,
			"0.015": 0.166864189133,
			"0.016": 0.0,
			"0.017": 0.0,
			"0.018": 0.0,
			"0.019": 0.0,
			"0.02": 0.0,
			"0.021": 0.0,
			"0.022": 0.0,
			"0.023": 0.0,
			"0.024": 0.0,
			"0.025": 0.0
		}
	}
}
