{
	 "smiles": "OC(=O)C1=C(Cl)C=C(S)C=C1", 
	 "Tm": 458.15, 
	 "num_atms": 16, 
	 "gaussian": { 
		 "optdone": 1, 
		 "sigma_profile": "yes", 
		 "theory": "DFT", 
		 "functional": "B3LYP", 
		 "basiset": "6-31G**", 
		 "properties": { 
			 "R2extent": 3137.4866, 
			 "electric_dipole_moment_norm": 1.5520342071, 
			 "electric_quadrupole_moment_norm": 6.0607030904, 
			 "total_energy": -1278.59251868, 
			 "HOMO_LUMO_gap": 0.18106, 
			 "cosmo_polarized_energy": -11.32, 
			 "cosmo_cavitation_energy": 24.27, 
			 "cosmo_dispersion_energy": -18.73, 
			 "cosmo_repulsion_energy": 1.45, 
			 "cosmo_total_nonelectrostatic_energy": 6.99, 
			 "SMD_solvation_energy": 4.69 
		},
		"coords": [
			{
				"x": -1.263110268,
				"y": -0.3941782161,
				"z": 3.2055129899,
				"element": "O" 
			},
			{
				"x": -0.9194240649,
				"y": -1.4786957715,
				"z": 2.4836123204,
				"element": "C" 
			},
			{
				"x": -1.3700236823,
				"y": -2.5816215871,
				"z": 2.7344237402,
				"element": "O" 
			},
			{
				"x": 0.0423675804,
				"y": -1.230839335,
				"z": 1.3683107856,
				"element": "C" 
			},
			{
				"x": 0.6322441976,
				"y": -0.0132908089,
				"z": 0.9750078714,
				"element": "C" 
			},
			{
				"x": 0.3281967673,
				"y": 1.5207076543,
				"z": 1.7672081013,
				"element": "Cl" 
			},
			{
				"x": 1.5194563587,
				"y": 0.0395248112,
				"z": -0.1021832043,
				"element": "C" 
			},
			{
				"x": 1.8434031021,
				"y": -1.1174945787,
				"z": -0.8164435415,
				"element": "C" 
			},
			{
				"x": 2.9657006941,
				"y": -1.1126227292,
				"z": -2.1955962184,
				"element": "S" 
			},
			{
				"x": 1.2664453663,
				"y": -2.3397665388,
				"z": -0.4403425996,
				"element": "C" 
			},
			{
				"x": 0.3886361316,
				"y": -2.3782821853,
				"z": 0.6289322882,
				"element": "C" 
			},
			{
				"x": -1.8836004227,
				"y": -0.7209902242,
				"z": 3.878876298,
				"element": "H" 
			},
			{
				"x": 1.9500906733,
				"y": 0.9973539514,
				"z": -0.3708385672,
				"element": "H" 
			},
			{
				"x": 3.2444741648,
				"y": 0.2045684256,
				"z": -2.1762122071,
				"element": "H" 
			},
			{
				"x": 1.5042497648,
				"y": -3.2499887332,
				"z": -0.981476711,
				"element": "H" 
			},
			{
				"x": -0.0671063628,
				"y": -3.3134841344,
				"z": 0.9340086541,
				"element": "H" 
			}
		],
		 "valence_orbital": [ 
			{
				"type": "occ",
				"energy": -0.3126,
				"method": "rhf"
			},
			{
				"type": "occ",
				"energy": -0.30497,
				"method": "rhf"
			},
			{
				"type": "occ",
				"energy": -0.28336,
				"method": "rhf"
			},
			{
				"type": "occ",
				"energy": -0.26412,
				"method": "rhf"
			},
			{
				"type": "occ",
				"energy": -0.24097,
				"method": "rhf"
			},
			{
				"type": "unocc",
				"energy": -0.05991,
				"method": "rhf"
			},
			{
				"type": "unocc",
				"energy": -0.02734,
				"method": "rhf"
			},
			{
				"type": "unocc",
				"energy": -0.00686,
				"method": "rhf"
			},
			{
				"type": "unocc",
				"energy": 0.03013,
				"method": "rhf"
			},
			{
				"type": "unocc",
				"energy": 0.04305,
				"method": "rhf"
			}
		],
		"cosmo_sigma_profile": { 
			"-0.025": 0.0,
			"-0.024": 0.0,
			"-0.023": 0.0,
			"-0.022": 0.0,
			"-0.021": 0.0,
			"-0.02": 0.0,
			"-0.019": 0.0769273630348,
			"-0.018": 0.941237153909,
			"-0.017": 0.713197217055,
			"-0.016": 0.632861442887,
			"-0.015": 0.876304939745,
			"-0.014": 1.05807203277,
			"-0.013": 0.638891032938,
			"-0.012": 2.11163348329,
			"-0.011": 4.04289178737,
			"-0.01": 2.67170191194,
			"-0.009": 2.62565809529,
			"-0.008": 4.1996942753,
			"-0.007": 5.87746580183,
			"-0.006": 7.00448327392,
			"-0.005": 6.24354764322,
			"-0.004": 5.83158520308,
			"-0.003": 8.92876562163,
			"-0.002": 11.0858621837,
			"-0.001": 12.3406368942,
			"0.0": 16.7813269433,
			"0.001": 22.3725235496,
			"0.002": 20.7357626471,
			"0.003": 14.2116611959,
			"0.004": 12.3602389209,
			"0.005": 7.21712197501,
			"0.006": 5.78974580562,
			"0.007": 6.02430884558,
			"0.008": 4.34432867525,
			"0.009": 2.84464802954,
			"0.01": 1.77373496378,
			"0.011": 4.08011009675,
			"0.012": 2.96658255631,
			"0.013": 0.0240179762317,
			"0.014": 0.0,
			"0.015": 0.0,
			"0.016": 0.0,
			"0.017": 0.0,
			"0.018": 0.0,
			"0.019": 0.0,
			"0.02": 0.0,
			"0.021": 0.0,
			"0.022": 0.0,
			"0.023": 0.0,
			"0.024": 0.0,
			"0.025": 0.0
		}
	}
}
