{
	 "smiles": "CCC1=C2NC3=C(CCOC3(CC)CC(O)=O)C2=CC=C1", 
	 "Tm": 419.15, 
	 "num_atms": 42, 
	 "gaussian": { 
		 "optdone": 1, 
		 "sigma_profile": "yes", 
		 "theory": "DFT", 
		 "functional": "B3LYP", 
		 "basiset": "6-31G**", 
		 "properties": { 
			 "R2extent": 6194.5833, 
			 "electric_dipole_moment_norm": 2.46342870812, 
			 "electric_quadrupole_moment_norm": 10.444293844, 
			 "total_energy": -940.920268847, 
			 "HOMO_LUMO_gap": 0.18842, 
			 "cosmo_polarized_energy": -15.18, 
			 "cosmo_cavitation_energy": 42.32, 
			 "cosmo_dispersion_energy": -28.38, 
			 "cosmo_repulsion_energy": 2.17, 
			 "cosmo_total_nonelectrostatic_energy": 16.1, 
			 "SMD_solvation_energy": 7.4 
		},
		"coords": [
			{
				"x": 2.2411782053,
				"y": 2.9249475793,
				"z": 1.5992137437,
				"element": "C" 
			},
			{
				"x": 3.2011154369,
				"y": 1.735055971,
				"z": 1.4036018086,
				"element": "C" 
			},
			{
				"x": 2.722187469,
				"y": 0.4617889754,
				"z": 2.0644542406,
				"element": "C" 
			},
			{
				"x": 1.7083205903,
				"y": -0.3270544255,
				"z": 1.4960601529,
				"element": "C" 
			},
			{
				"x": 1.0305674312,
				"y": -0.1576481152,
				"z": 0.2990049223,
				"element": "N" 
			},
			{
				"x": 0.0837003771,
				"y": -1.1664069661,
				"z": 0.1737903384,
				"element": "C" 
			},
			{
				"x": 0.1661898638,
				"y": -2.0116472069,
				"z": 1.2513065571,
				"element": "C" 
			},
			{
				"x": -0.7902796529,
				"y": -3.1539950838,
				"z": 1.4087188701,
				"element": "C" 
			},
			{
				"x": -2.0564705784,
				"y": -2.793114189,
				"z": 0.6255913211,
				"element": "C" 
			},
			{
				"x": -1.7515008436,
				"y": -2.4338219363,
				"z": -0.7286523822,
				"element": "O" 
			},
			{
				"x": -0.8758880469,
				"y": -1.3255687811,
				"z": -0.9787594351,
				"element": "C" 
			},
			{
				"x": -0.1653490438,
				"y": -1.7516448063,
				"z": -2.2948142761,
				"element": "C" 
			},
			{
				"x": 0.8807250958,
				"y": -0.8042570415,
				"z": -2.8884690604,
				"element": "C" 
			},
			{
				"x": -1.7285260849,
				"y": -0.038641909,
				"z": -1.2497134841,
				"element": "C" 
			},
			{
				"x": -2.250918485,
				"y": 0.6578343005,
				"z": -0.0137204488,
				"element": "C" 
			},
			{
				"x": -1.4943247394,
				"y": 1.7434992231,
				"z": 0.305294961,
				"element": "O" 
			},
			{
				"x": -3.2155077489,
				"y": 0.3349314887,
				"z": 0.6433240292,
				"element": "O" 
			},
			{
				"x": 1.2035220696,
				"y": -1.5052277737,
				"z": 2.1110245423,
				"element": "C" 
			},
			{
				"x": 1.7457780648,
				"y": -1.9181619924,
				"z": 3.3403057665,
				"element": "C" 
			},
			{
				"x": 2.7532891115,
				"y": -1.1533879335,
				"z": 3.9133606928,
				"element": "C" 
			},
			{
				"x": 3.2286298609,
				"y": 0.015219929,
				"z": 3.2848189909,
				"element": "C" 
			},
			{
				"x": 1.2428113922,
				"y": 2.7082042837,
				"z": 1.2035816874,
				"element": "H" 
			},
			{
				"x": 2.1274722544,
				"y": 3.1569229728,
				"z": 2.6627437187,
				"element": "H" 
			},
			{
				"x": 2.6171101655,
				"y": 3.8206177639,
				"z": 1.0933005017,
				"element": "H" 
			},
			{
				"x": 3.3490063536,
				"y": 1.56152167,
				"z": 0.3283256889,
				"element": "H" 
			},
			{
				"x": 4.1860095063,
				"y": 1.9983913213,
				"z": 1.8047271989,
				"element": "H" 
			},
			{
				"x": 1.0315141582,
				"y": 0.6926315618,
				"z": -0.2397101883,
				"element": "H" 
			},
			{
				"x": -0.3706542246,
				"y": -4.0972230278,
				"z": 1.0330358544,
				"element": "H" 
			},
			{
				"x": -1.04502541,
				"y": -3.3149831475,
				"z": 2.4637189879,
				"element": "H" 
			},
			{
				"x": -2.594447971,
				"y": -1.9811378883,
				"z": 1.1263228818,
				"element": "H" 
			},
			{
				"x": -2.7303515688,
				"y": -3.6495196282,
				"z": 0.5325599876,
				"element": "H" 
			},
			{
				"x": -0.9592278089,
				"y": -1.9416022097,
				"z": -3.0273852305,
				"element": "H" 
			},
			{
				"x": 0.2960857817,
				"y": -2.7208112029,
				"z": -2.0818214381,
				"element": "H" 
			},
			{
				"x": 1.2897075157,
				"y": -1.2378700508,
				"z": -3.8064199385,
				"element": "H" 
			},
			{
				"x": 0.4638418841,
				"y": 0.1723875113,
				"z": -3.1590250784,
				"element": "H" 
			},
			{
				"x": 1.7176110942,
				"y": -0.6424030626,
				"z": -2.2032786454,
				"element": "H" 
			},
			{
				"x": -2.5847550088,
				"y": -0.3577720225,
				"z": -1.8484236213,
				"element": "H" 
			},
			{
				"x": -1.1443646551,
				"y": 0.6816156457,
				"z": -1.8270340176,
				"element": "H" 
			},
			{
				"x": -1.8749619438,
				"y": 2.1064510445,
				"z": 1.1233429992,
				"element": "H" 
			},
			{
				"x": 1.3853613071,
				"y": -2.8181809561,
				"z": 3.8305393391,
				"element": "H" 
			},
			{
				"x": 3.1879300579,
				"y": -1.4572080785,
				"z": 4.8613746883,
				"element": "H" 
			},
			{
				"x": 4.0186887677,
				"y": 0.5895681932,
				"z": 3.7628827736,
				"element": "H" 
			}
		],
		 "valence_orbital": [ 
			{
				"type": "occ",
				"energy": -0.27819,
				"method": "rhf"
			},
			{
				"type": "occ",
				"energy": -0.26006,
				"method": "rhf"
			},
			{
				"type": "occ",
				"energy": -0.25245,
				"method": "rhf"
			},
			{
				"type": "occ",
				"energy": -0.21364,
				"method": "rhf"
			},
			{
				"type": "occ",
				"energy": -0.19489,
				"method": "rhf"
			},
			{
				"type": "unocc",
				"energy": -0.00647,
				"method": "rhf"
			},
			{
				"type": "unocc",
				"energy": -0.00173,
				"method": "rhf"
			},
			{
				"type": "unocc",
				"energy": 0.02771,
				"method": "rhf"
			},
			{
				"type": "unocc",
				"energy": 0.0531,
				"method": "rhf"
			},
			{
				"type": "unocc",
				"energy": 0.06771,
				"method": "rhf"
			}
		],
		"cosmo_sigma_profile": { 
			"-0.025": 0.0,
			"-0.024": 0.0,
			"-0.023": 0.0,
			"-0.022": 0.0,
			"-0.021": 0.0,
			"-0.02": 0.0,
			"-0.019": 0.00769395548249,
			"-0.018": 0.54577862691,
			"-0.017": 0.804339303078,
			"-0.016": 1.07606219016,
			"-0.015": 0.676400385049,
			"-0.014": 0.337751650053,
			"-0.013": 1.08228598588,
			"-0.012": 0.905501355559,
			"-0.011": 2.21856051304,
			"-0.01": 2.40585725442,
			"-0.009": 2.09120646546,
			"-0.008": 2.3826168842,
			"-0.007": 2.95357434079,
			"-0.006": 5.41062855374,
			"-0.005": 11.4090952666,
			"-0.004": 23.2717420968,
			"-0.003": 35.0876531902,
			"-0.002": 36.475163396,
			"-0.001": 36.855292304,
			"0.0": 36.609996375,
			"0.001": 28.0110028527,
			"0.002": 16.0445800525,
			"0.003": 12.2294020404,
			"0.004": 12.7319112092,
			"0.005": 14.1298378804,
			"0.006": 12.9836306836,
			"0.007": 11.3744826843,
			"0.008": 5.51306770535,
			"0.009": 3.23813470756,
			"0.01": 3.57196645834,
			"0.011": 4.29266795061,
			"0.012": 4.07121519734,
			"0.013": 0.567873278101,
			"0.014": 0.0,
			"0.015": 0.0,
			"0.016": 0.0,
			"0.017": 0.0,
			"0.018": 0.0,
			"0.019": 0.0,
			"0.02": 0.0,
			"0.021": 0.0,
			"0.022": 0.0,
			"0.023": 0.0,
			"0.024": 0.0,
			"0.025": 0.0
		}
	}
}
