{
	 "smiles": "CC1=NC2=C(C=NN2C=C1)C(O)=O", 
	 "Tm": 530.15, 
	 "num_atms": 20, 
	 "gaussian": { 
		 "optdone": 1, 
		 "sigma_profile": "yes", 
		 "theory": "DFT", 
		 "functional": "B3LYP", 
		 "basiset": "6-31G**", 
		 "properties": { 
			 "R2extent": 2485.7234, 
			 "electric_dipole_moment_norm": 8.17853420486, 
			 "electric_quadrupole_moment_norm": 12.0334090174, 
			 "total_energy": -623.767564912, 
			 "HOMO_LUMO_gap": 0.16373, 
			 "cosmo_polarized_energy": -17.5, 
			 "cosmo_cavitation_energy": 24.89, 
			 "cosmo_dispersion_energy": -18.58, 
			 "cosmo_repulsion_energy": 1.45, 
			 "cosmo_total_nonelectrostatic_energy": 7.76, 
			 "SMD_solvation_energy": 4.19 
		},
		"coords": [
			{
				"x": -2.5780519889,
				"y": 1.5587519222,
				"z": 0.8686357241,
				"element": "C" 
			},
			{
				"x": -1.5196784105,
				"y": 0.4889265725,
				"z": 0.8994767326,
				"element": "C" 
			},
			{
				"x": -0.8835636786,
				"y": 0.2269088831,
				"z": -0.2343202894,
				"element": "N" 
			},
			{
				"x": 0.0660312393,
				"y": -0.7284129417,
				"z": -0.2203647153,
				"element": "C" 
			},
			{
				"x": 0.8989667494,
				"y": -1.2312179786,
				"z": -1.2219832316,
				"element": "C" 
			},
			{
				"x": 1.6680619407,
				"y": -2.2171077523,
				"z": -0.5686436846,
				"element": "C" 
			},
			{
				"x": 1.3770221556,
				"y": -2.3546937432,
				"z": 0.728480058,
				"element": "N" 
			},
			{
				"x": 0.3934908825,
				"y": -1.4389174621,
				"z": 0.936917177,
				"element": "N" 
			},
			{
				"x": -0.2466632206,
				"y": -1.1839571977,
				"z": 2.1041724423,
				"element": "C" 
			},
			{
				"x": -1.2160346178,
				"y": -0.2139556801,
				"z": 2.1058141416,
				"element": "C" 
			},
			{
				"x": 0.9552202006,
				"y": -0.8198887263,
				"z": -2.636892489,
				"element": "C" 
			},
			{
				"x": 0.0915523269,
				"y": 0.162216163,
				"z": -2.9909866227,
				"element": "O" 
			},
			{
				"x": 1.7142864462,
				"y": -1.3132042181,
				"z": -3.442144339,
				"element": "O" 
			},
			{
				"x": -3.0413837302,
				"y": 1.6992500388,
				"z": 1.8473057431,
				"element": "H" 
			},
			{
				"x": -3.3572232025,
				"y": 1.2982433222,
				"z": 0.1453490217,
				"element": "H" 
			},
			{
				"x": -2.1437859252,
				"y": 2.5102364452,
				"z": 0.5458279972,
				"element": "H" 
			},
			{
				"x": 2.4340954483,
				"y": -2.8365006423,
				"z": -1.0148138857,
				"element": "H" 
			},
			{
				"x": 0.058628967,
				"y": -1.772855234,
				"z": 2.9607226978,
				"element": "H" 
			},
			{
				"x": -1.7461687056,
				"y": 0.01389468,
				"z": 3.0218808094,
				"element": "H" 
			},
			{
				"x": -0.4443028765,
				"y": 0.4448835495,
				"z": -2.2233332874,
				"element": "H" 
			}
		],
		 "valence_orbital": [ 
			{
				"type": "occ",
				"energy": -0.29842,
				"method": "rhf"
			},
			{
				"type": "occ",
				"energy": -0.29675,
				"method": "rhf"
			},
			{
				"type": "occ",
				"energy": -0.28081,
				"method": "rhf"
			},
			{
				"type": "occ",
				"energy": -0.25872,
				"method": "rhf"
			},
			{
				"type": "occ",
				"energy": -0.2443,
				"method": "rhf"
			},
			{
				"type": "unocc",
				"energy": -0.08057,
				"method": "rhf"
			},
			{
				"type": "unocc",
				"energy": -0.03735,
				"method": "rhf"
			},
			{
				"type": "unocc",
				"energy": -0.00183,
				"method": "rhf"
			},
			{
				"type": "unocc",
				"energy": 0.06648,
				"method": "rhf"
			},
			{
				"type": "unocc",
				"energy": 0.07689,
				"method": "rhf"
			}
		],
		"cosmo_sigma_profile": { 
			"-0.025": 0.0,
			"-0.024": 0.0,
			"-0.023": 0.0,
			"-0.022": 0.0,
			"-0.021": 0.0,
			"-0.02": 0.0,
			"-0.019": 0.0,
			"-0.018": 0.0,
			"-0.017": 0.0,
			"-0.016": 0.0,
			"-0.015": 0.0,
			"-0.014": 0.0,
			"-0.013": 0.0,
			"-0.012": 0.148988412963,
			"-0.011": 1.92989142534,
			"-0.01": 1.66496086589,
			"-0.009": 4.51332843442,
			"-0.008": 7.15773553397,
			"-0.007": 5.52488717371,
			"-0.006": 9.79524295551,
			"-0.005": 12.5484322264,
			"-0.004": 16.2008149487,
			"-0.003": 19.1882887623,
			"-0.002": 20.7370681481,
			"-0.001": 17.8129468612,
			"0.0": 12.7769111397,
			"0.001": 11.2140460852,
			"0.002": 5.76135758824,
			"0.003": 5.85462728155,
			"0.004": 4.9001141718,
			"0.005": 3.53405903211,
			"0.006": 3.14048785847,
			"0.007": 3.62965693524,
			"0.008": 3.45418040484,
			"0.009": 3.76560559694,
			"0.01": 5.00074429261,
			"0.011": 5.64394616906,
			"0.012": 7.37456463112,
			"0.013": 5.25519325695,
			"0.014": 1.85135532567,
			"0.015": 0.0218780050208,
			"0.016": 0.0,
			"0.017": 0.0,
			"0.018": 0.0,
			"0.019": 0.0,
			"0.02": 0.0,
			"0.021": 0.0,
			"0.022": 0.0,
			"0.023": 0.0,
			"0.024": 0.0,
			"0.025": 0.0
		}
	}
}
