{
	 "smiles": "CC(CO)(CO)CO", 
	 "Tm": 477.15, 
	 "num_atms": 20, 
	 "gaussian": { 
		 "optdone": 1, 
		 "sigma_profile": "yes", 
		 "theory": "DFT", 
		 "functional": "B3LYP", 
		 "basiset": "6-31G**", 
		 "properties": { 
			 "R2extent": 1358.4808, 
			 "electric_dipole_moment_norm": 1.35581509433, 
			 "electric_quadrupole_moment_norm": 10.4343351753, 
			 "total_energy": -423.406023561, 
			 "HOMO_LUMO_gap": 0.32875, 
			 "cosmo_polarized_energy": -13.08, 
			 "cosmo_cavitation_energy": 21.51, 
			 "cosmo_dispersion_energy": -15.88, 
			 "cosmo_repulsion_energy": 1.34, 
			 "cosmo_total_nonelectrostatic_energy": 6.97, 
			 "SMD_solvation_energy": 4.12 
		},
		"coords": [
			{
				"x": 0.2237355771,
				"y": 0.2403054151,
				"z": -1.0075038133,
				"element": "C" 
			},
			{
				"x": 0.4442314341,
				"y": -0.9806257755,
				"z": -0.0968844688,
				"element": "C" 
			},
			{
				"x": -0.7993595042,
				"y": -1.8832385161,
				"z": -0.1046932898,
				"element": "C" 
			},
			{
				"x": -1.059983858,
				"y": -2.3165262129,
				"z": -1.4379182846,
				"element": "O" 
			},
			{
				"x": 0.7109860212,
				"y": -0.5348024838,
				"z": 1.3600204904,
				"element": "C" 
			},
			{
				"x": -0.3649068281,
				"y": 0.1948185374,
				"z": 1.9440559772,
				"element": "O" 
			},
			{
				"x": 1.6512081402,
				"y": -1.796535766,
				"z": -0.5898955035,
				"element": "C" 
			},
			{
				"x": 2.8136717821,
				"y": -0.9706499718,
				"z": -0.5632802122,
				"element": "O" 
			},
			{
				"x": -0.0379516722,
				"y": -0.0815342503,
				"z": -2.0183438675,
				"element": "H" 
			},
			{
				"x": -0.6032818932,
				"y": 0.8583526317,
				"z": -0.6393889489,
				"element": "H" 
			},
			{
				"x": 1.1291209206,
				"y": 0.8507938241,
				"z": -1.0588524517,
				"element": "H" 
			},
			{
				"x": -0.6246516358,
				"y": -2.7469428424,
				"z": 0.5595476873,
				"element": "H" 
			},
			{
				"x": -1.6427889499,
				"y": -1.3153518812,
				"z": 0.310046775,
				"element": "H" 
			},
			{
				"x": -1.8976553832,
				"y": -2.7945035131,
				"z": -1.4382622727,
				"element": "H" 
			},
			{
				"x": 1.6485658861,
				"y": 0.0337120864,
				"z": 1.3936902904,
				"element": "H" 
			},
			{
				"x": 0.8427075463,
				"y": -1.4206274174,
				"z": 1.993283045,
				"element": "H" 
			},
			{
				"x": -0.3629963626,
				"y": 1.0792987615,
				"z": 1.5582917938,
				"element": "H" 
			},
			{
				"x": 1.4409513105,
				"y": -2.1635104274,
				"z": -1.6029678033,
				"element": "H" 
			},
			{
				"x": 1.7822411735,
				"y": -2.6770082025,
				"z": 0.0626623257,
				"element": "H" 
			},
			{
				"x": 3.5374562954,
				"y": -1.460323996,
				"z": -0.9711074683,
				"element": "H" 
			}
		],
		 "valence_orbital": [ 
			{
				"type": "occ",
				"energy": -0.3165,
				"method": "rhf"
			},
			{
				"type": "occ",
				"energy": -0.30297,
				"method": "rhf"
			},
			{
				"type": "occ",
				"energy": -0.27119,
				"method": "rhf"
			},
			{
				"type": "occ",
				"energy": -0.26087,
				"method": "rhf"
			},
			{
				"type": "occ",
				"energy": -0.25434,
				"method": "rhf"
			},
			{
				"type": "unocc",
				"energy": 0.07441,
				"method": "rhf"
			},
			{
				"type": "unocc",
				"energy": 0.07607,
				"method": "rhf"
			},
			{
				"type": "unocc",
				"energy": 0.07957,
				"method": "rhf"
			},
			{
				"type": "unocc",
				"energy": 0.11626,
				"method": "rhf"
			},
			{
				"type": "unocc",
				"energy": 0.15013,
				"method": "rhf"
			}
		],
		"cosmo_sigma_profile": { 
			"-0.025": 0.0,
			"-0.024": 0.0,
			"-0.023": 0.0,
			"-0.022": 0.0,
			"-0.021": 0.0,
			"-0.02": 0.0,
			"-0.019": 0.0,
			"-0.018": 0.0,
			"-0.017": 0.0,
			"-0.016": 0.596930498043,
			"-0.015": 2.46503455131,
			"-0.014": 3.06235351479,
			"-0.013": 2.81772530245,
			"-0.012": 2.09099091499,
			"-0.011": 3.11174897145,
			"-0.01": 2.17675280969,
			"-0.009": 2.45672466769,
			"-0.008": 2.2117699643,
			"-0.007": 2.97607781205,
			"-0.006": 3.59880813338,
			"-0.005": 3.90951637924,
			"-0.004": 7.67742809632,
			"-0.003": 16.5667765654,
			"-0.002": 13.1966193624,
			"-0.001": 12.9520083404,
			"0.0": 12.6440025955,
			"0.001": 11.7480138869,
			"0.002": 9.05128380295,
			"0.003": 4.36170319298,
			"0.004": 3.49652933849,
			"0.005": 4.68687687437,
			"0.006": 5.06354004993,
			"0.007": 4.83075416415,
			"0.008": 4.18869907257,
			"0.009": 5.20642655346,
			"0.01": 4.25164977093,
			"0.011": 4.2736776785,
			"0.012": 4.45587535571,
			"0.013": 2.10682053441,
			"0.014": 1.85664557932,
			"0.015": 0.604111687894,
			"0.016": 0.0,
			"0.017": 0.0,
			"0.018": 0.0,
			"0.019": 0.0,
			"0.02": 0.0,
			"0.021": 0.0,
			"0.022": 0.0,
			"0.023": 0.0,
			"0.024": 0.0,
			"0.025": 0.0
		}
	}
}
