{
	 "smiles": "COC(=O)C1=CC=CC(Br)=C1", 
	 "Tm": 305.65, 
	 "num_atms": 18, 
	 "gaussian": { 
		 "optdone": 1, 
		 "sigma_profile": "yes", 
		 "theory": "DFT", 
		 "functional": "B3LYP", 
		 "basiset": "6-31G**", 
		 "properties": { 
			 "R2extent": 4551.0551, 
			 "electric_dipole_moment_norm": 3.15353396684, 
			 "electric_quadrupole_moment_norm": 6.25646777983, 
			 "total_energy": -3030.9325487, 
			 "HOMO_LUMO_gap": 0.19454, 
			 "cosmo_polarized_energy": -7.22, 
			 "cosmo_cavitation_energy": 25.1, 
			 "cosmo_dispersion_energy": -18.89, 
			 "cosmo_repulsion_energy": 1.52, 
			 "cosmo_total_nonelectrostatic_energy": 7.73, 
			 "SMD_solvation_energy": 4.81 
		},
		"coords": [
			{
				"x": -1.8495864717,
				"y": -2.478903941,
				"z": 0.449254507,
				"element": "C" 
			},
			{
				"x": -1.7981862654,
				"y": -1.0532680536,
				"z": 0.2799731515,
				"element": "O" 
			},
			{
				"x": -0.566876004,
				"y": -0.5061293654,
				"z": 0.3842092529,
				"element": "C" 
			},
			{
				"x": 0.4354240123,
				"y": -1.156694963,
				"z": 0.6046005275,
				"element": "O" 
			},
			{
				"x": -0.5862910775,
				"y": 0.9750788984,
				"z": 0.1980914549,
				"element": "C" 
			},
			{
				"x": -1.7656198146,
				"y": 1.6877183532,
				"z": -0.0542538482,
				"element": "C" 
			},
			{
				"x": -1.7136928206,
				"y": 3.070969916,
				"z": -0.2182916182,
				"element": "C" 
			},
			{
				"x": -0.4971227276,
				"y": 3.7506364544,
				"z": -0.1331791691,
				"element": "C" 
			},
			{
				"x": 0.6691856505,
				"y": 3.0267229192,
				"z": 0.1187377621,
				"element": "C" 
			},
			{
				"x": 2.3369830775,
				"y": 3.9529849429,
				"z": 0.2359129767,
				"element": "Br" 
			},
			{
				"x": 0.6399917491,
				"y": 1.6472551547,
				"z": 0.2855036613,
				"element": "C" 
			},
			{
				"x": -1.4832310925,
				"y": -2.7617042159,
				"z": 1.4392496979,
				"element": "H" 
			},
			{
				"x": -1.2388664819,
				"y": -2.9778875679,
				"z": -0.3072580342,
				"element": "H" 
			},
			{
				"x": -2.898871343,
				"y": -2.7505627848,
				"z": 0.3360744484,
				"element": "H" 
			},
			{
				"x": -2.7080248615,
				"y": 1.1573774117,
				"z": -0.1197235396,
				"element": "H" 
			},
			{
				"x": -2.6239888142,
				"y": 3.6295381226,
				"z": -0.414126804,
				"element": "H" 
			},
			{
				"x": -0.4524942971,
				"y": 4.8263792871,
				"z": -0.260211487,
				"element": "H" 
			},
			{
				"x": 1.5413675821,
				"y": 1.0792894313,
				"z": 0.4812370602,
				"element": "H" 
			}
		],
		 "valence_orbital": [ 
			{
				"type": "occ",
				"energy": -0.30801,
				"method": "rhf"
			},
			{
				"type": "occ",
				"energy": -0.29048,
				"method": "rhf"
			},
			{
				"type": "occ",
				"energy": -0.28027,
				"method": "rhf"
			},
			{
				"type": "occ",
				"energy": -0.27132,
				"method": "rhf"
			},
			{
				"type": "occ",
				"energy": -0.24997,
				"method": "rhf"
			},
			{
				"type": "unocc",
				"energy": -0.05543,
				"method": "rhf"
			},
			{
				"type": "unocc",
				"energy": -0.02078,
				"method": "rhf"
			},
			{
				"type": "unocc",
				"energy": 0.00366,
				"method": "rhf"
			},
			{
				"type": "unocc",
				"energy": 0.04771,
				"method": "rhf"
			},
			{
				"type": "unocc",
				"energy": 0.10142,
				"method": "rhf"
			}
		],
		"cosmo_sigma_profile": { 
			"-0.025": 0.0,
			"-0.024": 0.0,
			"-0.023": 0.0,
			"-0.022": 0.0,
			"-0.021": 0.0,
			"-0.02": 0.0,
			"-0.019": 0.0,
			"-0.018": 0.0,
			"-0.017": 0.0,
			"-0.016": 0.0,
			"-0.015": 0.0,
			"-0.014": 0.0,
			"-0.013": 0.0,
			"-0.012": 0.0,
			"-0.011": 0.0,
			"-0.01": 0.0,
			"-0.009": 0.00238650724837,
			"-0.008": 1.06838453719,
			"-0.007": 5.73299534704,
			"-0.006": 12.2055873706,
			"-0.005": 13.7779402638,
			"-0.004": 15.1248807519,
			"-0.003": 17.7437871581,
			"-0.002": 13.4556127926,
			"-0.001": 12.9388210563,
			"0.0": 18.2116501752,
			"0.001": 20.7581629407,
			"0.002": 23.6317704831,
			"0.003": 13.8174287318,
			"0.004": 13.8619852575,
			"0.005": 7.51998580183,
			"0.006": 1.57303290379,
			"0.007": 1.07251922528,
			"0.008": 2.08039762339,
			"0.009": 1.7563882053,
			"0.01": 1.32000519807,
			"0.011": 3.76277505767,
			"0.012": 3.10939755287,
			"0.013": 0.017244113673,
			"0.014": 0.0,
			"0.015": 0.0,
			"0.016": 0.0,
			"0.017": 0.0,
			"0.018": 0.0,
			"0.019": 0.0,
			"0.02": 0.0,
			"0.021": 0.0,
			"0.022": 0.0,
			"0.023": 0.0,
			"0.024": 0.0,
			"0.025": 0.0
		}
	}
}
