{
	 "smiles": "CN1C(=O)C(C2=NNC(=O)C2=C2C3=C(C=CC=C3)C3=C2C=CC=C3)=C(O)C2=CC=CC=C12", 
	 "Tm": 568.15, 
	 "num_atms": 49, 
	 "gaussian": { 
		 "optdone": 1, 
		 "sigma_profile": "yes", 
		 "theory": "DFT", 
		 "functional": "B3LYP", 
		 "basiset": "6-31G**", 
		 "properties": { 
			 "R2extent": 13752.4999, 
			 "electric_dipole_moment_norm": 3.86949732911, 
			 "electric_quadrupole_moment_norm": 12.6745610508, 
			 "total_energy": -1390.95038676, 
			 "HOMO_LUMO_gap": 0.0991, 
			 "cosmo_polarized_energy": -19.58, 
			 "cosmo_cavitation_energy": 51.15, 
			 "cosmo_dispersion_energy": -35.77, 
			 "cosmo_repulsion_energy": 2.58, 
			 "cosmo_total_nonelectrostatic_energy": 17.97, 
			 "SMD_solvation_energy": 8.28 
		},
		"coords": [
			{
				"x": 0.8035418121,
				"y": 2.3373559509,
				"z": 2.3050969057,
				"element": "C" 
			},
			{
				"x": 1.3492269544,
				"y": 1.7029714187,
				"z": 1.1057650928,
				"element": "N" 
			},
			{
				"x": 1.3833737126,
				"y": 0.2918798837,
				"z": 1.0943477635,
				"element": "C" 
			},
			{
				"x": 1.0055527762,
				"y": -0.3407499331,
				"z": 2.0799701024,
				"element": "O" 
			},
			{
				"x": 1.8858636234,
				"y": -0.3426295666,
				"z": -0.1249773821,
				"element": "C" 
			},
			{
				"x": 1.8698650824,
				"y": -1.8105655191,
				"z": -0.2402610834,
				"element": "C" 
			},
			{
				"x": 2.8388097236,
				"y": -2.3687504345,
				"z": -0.9410236403,
				"element": "N" 
			},
			{
				"x": 2.6841549486,
				"y": -3.7275945882,
				"z": -0.8801815339,
				"element": "N" 
			},
			{
				"x": 1.7350348172,
				"y": -4.1223659436,
				"z": 0.0577901452,
				"element": "C" 
			},
			{
				"x": 1.5536081799,
				"y": -5.2863990309,
				"z": 0.390093088,
				"element": "O" 
			},
			{
				"x": 1.0313739995,
				"y": -2.837995626,
				"z": 0.3828777175,
				"element": "C" 
			},
			{
				"x": -0.232887305,
				"y": -2.7618455884,
				"z": 0.9333926476,
				"element": "C" 
			},
			{
				"x": -0.8605952079,
				"y": -3.6997860653,
				"z": 1.8893283189,
				"element": "C" 
			},
			{
				"x": -2.1458120689,
				"y": -3.2029883068,
				"z": 2.2333680161,
				"element": "C" 
			},
			{
				"x": -2.9288099989,
				"y": -3.8353677482,
				"z": 3.1882706557,
				"element": "C" 
			},
			{
				"x": -2.4283679695,
				"y": -4.9841688575,
				"z": 3.8166667595,
				"element": "C" 
			},
			{
				"x": -1.1613262415,
				"y": -5.4727773545,
				"z": 3.4949811195,
				"element": "C" 
			},
			{
				"x": -0.363172751,
				"y": -4.834247975,
				"z": 2.5381129947,
				"element": "C" 
			},
			{
				"x": -2.4088141195,
				"y": -1.9999476874,
				"z": 1.4339624745,
				"element": "C" 
			},
			{
				"x": -1.2604366395,
				"y": -1.7306955554,
				"z": 0.6517833077,
				"element": "C" 
			},
			{
				"x": -1.3070423205,
				"y": -0.7244450199,
				"z": -0.3138861944,
				"element": "C" 
			},
			{
				"x": -2.4610588152,
				"y": 0.05863498,
				"z": -0.4308300476,
				"element": "C" 
			},
			{
				"x": -3.5697424467,
				"y": -0.1785391922,
				"z": 0.3848855307,
				"element": "C" 
			},
			{
				"x": -3.5557730131,
				"y": -1.225123376,
				"z": 1.3158027225,
				"element": "C" 
			},
			{
				"x": 2.4914418595,
				"y": 0.4254625331,
				"z": -1.1066537707,
				"element": "C" 
			},
			{
				"x": 3.1267161318,
				"y": -0.0944259417,
				"z": -2.1625357888,
				"element": "O" 
			},
			{
				"x": 2.4437040087,
				"y": 1.868187059,
				"z": -1.0519271469,
				"element": "C" 
			},
			{
				"x": 2.9761993766,
				"y": 2.6582201476,
				"z": -2.0871741501,
				"element": "C" 
			},
			{
				"x": 2.9067773863,
				"y": 4.0409430849,
				"z": -2.0315408708,
				"element": "C" 
			},
			{
				"x": 2.3050219391,
				"y": 4.6524160423,
				"z": -0.9230654419,
				"element": "C" 
			},
			{
				"x": 1.7820005758,
				"y": 3.8944979825,
				"z": 0.116652224,
				"element": "C" 
			},
			{
				"x": 1.8428209871,
				"y": 2.4866527171,
				"z": 0.0723464169,
				"element": "C" 
			},
			{
				"x": 0.5142845475,
				"y": 1.5393818732,
				"z": 2.9847477542,
				"element": "H" 
			},
			{
				"x": 1.555881452,
				"y": 2.972503258,
				"z": 2.7832011042,
				"element": "H" 
			},
			{
				"x": -0.0725792044,
				"y": 2.9440285671,
				"z": 2.055039099,
				"element": "H" 
			},
			{
				"x": 3.4619998919,
				"y": -4.3118671756,
				"z": -1.150423269,
				"element": "H" 
			},
			{
				"x": -3.9075491414,
				"y": -3.4462257659,
				"z": 3.4539046537,
				"element": "H" 
			},
			{
				"x": -3.0303707118,
				"y": -5.4928458145,
				"z": 4.5643401485,
				"element": "H" 
			},
			{
				"x": -0.784479437,
				"y": -6.3615025564,
				"z": 3.9920495889,
				"element": "H" 
			},
			{
				"x": 0.6098630811,
				"y": -5.2285134532,
				"z": 2.2823215635,
				"element": "H" 
			},
			{
				"x": -0.4687919845,
				"y": -0.5439293535,
				"z": -0.9747974077,
				"element": "H" 
			},
			{
				"x": -2.4958189023,
				"y": 0.8506433088,
				"z": -1.1728288222,
				"element": "H" 
			},
			{
				"x": -4.4591013683,
				"y": 0.4361405551,
				"z": 0.2793051543,
				"element": "H" 
			},
			{
				"x": -4.4353601192,
				"y": -1.4360999291,
				"z": 1.9171985223,
				"element": "H" 
			},
			{
				"x": 3.2258051187,
				"y": -1.0685172758,
				"z": -1.9986644235,
				"element": "H" 
			},
			{
				"x": 3.4382910029,
				"y": 2.1545638587,
				"z": -2.9282372719,
				"element": "H" 
			},
			{
				"x": 3.3163536196,
				"y": 4.6433395911,
				"z": -2.8358794838,
				"element": "H" 
			},
			{
				"x": 2.245865826,
				"y": 5.7356016041,
				"z": -0.8668586661,
				"element": "H" 
			},
			{
				"x": 1.3283573318,
				"y": 4.3946862184,
				"z": 0.9623448031,
				"element": "H" 
			}
		],
		 "valence_orbital": [ 
			{
				"type": "occ",
				"energy": -0.25022,
				"method": "rhf"
			},
			{
				"type": "occ",
				"energy": -0.22974,
				"method": "rhf"
			},
			{
				"type": "occ",
				"energy": -0.22319,
				"method": "rhf"
			},
			{
				"type": "occ",
				"energy": -0.2191,
				"method": "rhf"
			},
			{
				"type": "occ",
				"energy": -0.20674,
				"method": "rhf"
			},
			{
				"type": "unocc",
				"energy": -0.10764,
				"method": "rhf"
			},
			{
				"type": "unocc",
				"energy": -0.05339,
				"method": "rhf"
			},
			{
				"type": "unocc",
				"energy": -0.03192,
				"method": "rhf"
			},
			{
				"type": "unocc",
				"energy": -0.00903,
				"method": "rhf"
			},
			{
				"type": "unocc",
				"energy": 0.00117,
				"method": "rhf"
			}
		],
		"cosmo_sigma_profile": { 
			"-0.025": 0.0,
			"-0.024": 0.0,
			"-0.023": 0.0,
			"-0.022": 0.0,
			"-0.021": 0.0,
			"-0.02": 0.0,
			"-0.019": 0.0,
			"-0.018": 0.0,
			"-0.017": 0.109295712898,
			"-0.016": 1.3744958291,
			"-0.015": 1.02239990441,
			"-0.014": 1.16781795694,
			"-0.013": 0.770893628823,
			"-0.012": 0.761923892819,
			"-0.011": 0.82394279897,
			"-0.01": 0.79101792807,
			"-0.009": 0.746935438673,
			"-0.008": 0.791109010347,
			"-0.007": 9.50492857749,
			"-0.006": 26.8501869251,
			"-0.005": 29.3468982804,
			"-0.004": 32.2438339839,
			"-0.003": 27.6906109724,
			"-0.002": 29.812572326,
			"-0.001": 29.9429200964,
			"0.0": 31.2814652041,
			"0.001": 30.1354567738,
			"0.002": 33.2970258819,
			"0.003": 38.00216631,
			"0.004": 35.4529777899,
			"0.005": 10.0709041162,
			"0.006": 6.64740840677,
			"0.007": 6.2934259567,
			"0.008": 5.49636633167,
			"0.009": 3.41793965855,
			"0.01": 3.6835215114,
			"0.011": 4.27387201863,
			"0.012": 5.20777577004,
			"0.013": 4.31630279192,
			"0.014": 1.19596308867,
			"0.015": 0.0,
			"0.016": 0.0,
			"0.017": 0.0,
			"0.018": 0.0,
			"0.019": 0.0,
			"0.02": 0.0,
			"0.021": 0.0,
			"0.022": 0.0,
			"0.023": 0.0,
			"0.024": 0.0,
			"0.025": 0.0
		}
	}
}
