{
	 "smiles": "CC1=CC=C(C=C1)C1(C)NC(=O)N(CC(O)=O)C1=O", 
	 "Tm": 480.15, 
	 "num_atms": 33, 
	 "gaussian": { 
		 "optdone": 1, 
		 "sigma_profile": "yes", 
		 "theory": "DFT", 
		 "functional": "B3LYP", 
		 "basiset": "6-31G**", 
		 "properties": { 
			 "R2extent": 6162.0797, 
			 "electric_dipole_moment_norm": 4.15927514959, 
			 "electric_quadrupole_moment_norm": 13.3037791495, 
			 "total_energy": -914.284678224, 
			 "HOMO_LUMO_gap": 0.22062, 
			 "cosmo_polarized_energy": -20.1, 
			 "cosmo_cavitation_energy": 37.53, 
			 "cosmo_dispersion_energy": -25.67, 
			 "cosmo_repulsion_energy": 1.99, 
			 "cosmo_total_nonelectrostatic_energy": 13.86, 
			 "SMD_solvation_energy": 9.12 
		},
		"coords": [
			{
				"x": -4.9150848108,
				"y": -1.1172337814,
				"z": -2.3524580533,
				"element": "C" 
			},
			{
				"x": -3.6839147862,
				"y": -0.8661986642,
				"z": -1.5145282002,
				"element": "C" 
			},
			{
				"x": -2.8390097426,
				"y": 0.2207542457,
				"z": -1.7831044212,
				"element": "C" 
			},
			{
				"x": -1.7169480742,
				"y": 0.4766292123,
				"z": -1.0001748269,
				"element": "C" 
			},
			{
				"x": -1.3968475097,
				"y": -0.356971559,
				"z": 0.0825006954,
				"element": "C" 
			},
			{
				"x": -2.2235031793,
				"y": -1.4524892219,
				"z": 0.3447903116,
				"element": "C" 
			},
			{
				"x": -3.3513487536,
				"y": -1.6983010564,
				"z": -0.4412233523,
				"element": "C" 
			},
			{
				"x": -0.1709651341,
				"y": -0.0479370685,
				"z": 0.9485497264,
				"element": "C" 
			},
			{
				"x": -0.2760776575,
				"y": 1.3414878255,
				"z": 1.6125858195,
				"element": "C" 
			},
			{
				"x": 0.1075096457,
				"y": -1.0868327054,
				"z": 1.9398625595,
				"element": "N" 
			},
			{
				"x": 1.367576027,
				"y": -1.6162076024,
				"z": 1.8465076484,
				"element": "C" 
			},
			{
				"x": 1.9172203292,
				"y": -2.4093870109,
				"z": 2.5835136806,
				"element": "O" 
			},
			{
				"x": 1.9364138446,
				"y": -1.0609093803,
				"z": 0.6763598817,
				"element": "N" 
			},
			{
				"x": 3.2931239158,
				"y": -1.328903394,
				"z": 0.2663022057,
				"element": "C" 
			},
			{
				"x": 4.3198776632,
				"y": -0.2877982885,
				"z": 0.6993482287,
				"element": "C" 
			},
			{
				"x": 3.8384853357,
				"y": 0.588771899,
				"z": 1.6057850515,
				"element": "O" 
			},
			{
				"x": 5.4549995972,
				"y": -0.2720221209,
				"z": 0.2860135027,
				"element": "O" 
			},
			{
				"x": 1.1291859655,
				"y": -0.0988128511,
				"z": 0.1069595601,
				"element": "C" 
			},
			{
				"x": 1.4078871139,
				"y": 0.5885452641,
				"z": -0.8542839013,
				"element": "O" 
			},
			{
				"x": -4.7065473675,
				"y": -0.9850950618,
				"z": -3.4191958936,
				"element": "H" 
			},
			{
				"x": -5.7208467079,
				"y": -0.4192794587,
				"z": -2.0931615667,
				"element": "H" 
			},
			{
				"x": -5.2990627998,
				"y": -2.1307353404,
				"z": -2.2061373251,
				"element": "H" 
			},
			{
				"x": -3.0600915638,
				"y": 0.8752149851,
				"z": -2.6229056455,
				"element": "H" 
			},
			{
				"x": -1.0656002272,
				"y": 1.306602345,
				"z": -1.2518236346,
				"element": "H" 
			},
			{
				"x": -1.981355538,
				"y": -2.129757137,
				"z": 1.1568142203,
				"element": "H" 
			},
			{
				"x": -3.9780798096,
				"y": -2.5576811988,
				"z": -0.2158642571,
				"element": "H" 
			},
			{
				"x": -1.1582141913,
				"y": 1.379932215,
				"z": 2.2590719462,
				"element": "H" 
			},
			{
				"x": 0.6166756199,
				"y": 1.5457188695,
				"z": 2.2111974075,
				"element": "H" 
			},
			{
				"x": -0.3711920207,
				"y": 2.1195245358,
				"z": 0.8529267001,
				"element": "H" 
			},
			{
				"x": -0.3958043392,
				"y": -1.1718466618,
				"z": 2.8099242639,
				"element": "H" 
			},
			{
				"x": 3.5891275342,
				"y": -2.286606985,
				"z": 0.7035986519,
				"element": "H" 
			},
			{
				"x": 3.346407726,
				"y": -1.405553742,
				"z": -0.821757895,
				"element": "H" 
			},
			{
				"x": 4.572903895,
				"y": 1.1902788936,
				"z": 1.8153069112,
				"element": "H" 
			}
		],
		 "valence_orbital": [ 
			{
				"type": "occ",
				"energy": -0.27806,
				"method": "rhf"
			},
			{
				"type": "occ",
				"energy": -0.27098,
				"method": "rhf"
			},
			{
				"type": "occ",
				"energy": -0.26627,
				"method": "rhf"
			},
			{
				"type": "occ",
				"energy": -0.25371,
				"method": "rhf"
			},
			{
				"type": "occ",
				"energy": -0.24138,
				"method": "rhf"
			},
			{
				"type": "unocc",
				"energy": -0.02076,
				"method": "rhf"
			},
			{
				"type": "unocc",
				"energy": -0.00671,
				"method": "rhf"
			},
			{
				"type": "unocc",
				"energy": 0.00085,
				"method": "rhf"
			},
			{
				"type": "unocc",
				"energy": 0.00223,
				"method": "rhf"
			},
			{
				"type": "unocc",
				"energy": 0.05031,
				"method": "rhf"
			}
		],
		"cosmo_sigma_profile": { 
			"-0.025": 0.0,
			"-0.024": 0.0,
			"-0.023": 0.0,
			"-0.022": 0.0,
			"-0.021": 0.0,
			"-0.02": 0.0,
			"-0.019": 0.527006485877,
			"-0.018": 0.940004583768,
			"-0.017": 0.979405517967,
			"-0.016": 0.846354322052,
			"-0.015": 1.86390397423,
			"-0.014": 2.81748503478,
			"-0.013": 1.54178896255,
			"-0.012": 1.6078960961,
			"-0.011": 1.55076455495,
			"-0.01": 1.60211899018,
			"-0.009": 3.13152970239,
			"-0.008": 6.02807905682,
			"-0.007": 5.45958842799,
			"-0.006": 7.55727229191,
			"-0.005": 16.3160145241,
			"-0.004": 27.4068916576,
			"-0.003": 25.7535567193,
			"-0.002": 22.9112478991,
			"-0.001": 24.4415926901,
			"0.0": 21.8481868682,
			"0.001": 16.2378307933,
			"0.002": 11.7956363835,
			"0.003": 13.3353854611,
			"0.004": 14.5067628585,
			"0.005": 14.8247382551,
			"0.006": 9.91948767415,
			"0.007": 3.86282994314,
			"0.008": 4.03149767296,
			"0.009": 4.37631428804,
			"0.01": 6.18184616707,
			"0.011": 11.5631396521,
			"0.012": 8.81951206932,
			"0.013": 2.36358516169,
			"0.014": 0.0553151461773,
			"0.015": 0.0,
			"0.016": 0.0,
			"0.017": 0.0,
			"0.018": 0.0,
			"0.019": 0.0,
			"0.02": 0.0,
			"0.021": 0.0,
			"0.022": 0.0,
			"0.023": 0.0,
			"0.024": 0.0,
			"0.025": 0.0
		}
	}
}
