{
	 "smiles": "CCCCC1=CC=CC2=CC=CC=C12", 
	 "Tm": 253.35, 
	 "num_atms": 30, 
	 "gaussian": { 
		 "optdone": 1, 
		 "sigma_profile": "yes", 
		 "theory": "DFT", 
		 "functional": "B3LYP", 
		 "basiset": "6-31G**", 
		 "properties": { 
			 "R2extent": 4399.8855, 
			 "electric_dipole_moment_norm": 0.383738465625, 
			 "electric_quadrupole_moment_norm": 7.51917288337, 
			 "total_energy": -543.160524169, 
			 "HOMO_LUMO_gap": 0.1735, 
			 "cosmo_polarized_energy": -4.52, 
			 "cosmo_cavitation_energy": 31.69, 
			 "cosmo_dispersion_energy": -22.81, 
			 "cosmo_repulsion_energy": 1.79, 
			 "cosmo_total_nonelectrostatic_energy": 10.67, 
			 "SMD_solvation_energy": 4.73 
		},
		"coords": [
			{
				"x": -1.6463625769,
				"y": 0.3176773443,
				"z": -2.823608837,
				"element": "C" 
			},
			{
				"x": -1.9234113932,
				"y": 1.0536870533,
				"z": -1.5071109647,
				"element": "C" 
			},
			{
				"x": -0.8068155011,
				"y": 0.9299882862,
				"z": -0.4577687276,
				"element": "C" 
			},
			{
				"x": -0.5923381269,
				"y": -0.5046172069,
				"z": 0.0729353477,
				"element": "C" 
			},
			{
				"x": 0.4692011675,
				"y": -0.5940012522,
				"z": 1.150477014,
				"element": "C" 
			},
			{
				"x": 1.74940004,
				"y": -0.993412127,
				"z": 0.8148225884,
				"element": "C" 
			},
			{
				"x": 2.789481143,
				"y": -1.0593626396,
				"z": 1.7710083345,
				"element": "C" 
			},
			{
				"x": 2.5439247652,
				"y": -0.7250817918,
				"z": 3.0810879548,
				"element": "C" 
			},
			{
				"x": 1.2460712829,
				"y": -0.3134535232,
				"z": 3.4862667804,
				"element": "C" 
			},
			{
				"x": 0.9709062587,
				"y": 0.0291342769,
				"z": 4.8379708116,
				"element": "C" 
			},
			{
				"x": -0.2871588379,
				"y": 0.4251257891,
				"z": 5.2297986463,
				"element": "C" 
			},
			{
				"x": -1.3317810863,
				"y": 0.4926635014,
				"z": 4.2782775071,
				"element": "C" 
			},
			{
				"x": -1.0979561837,
				"y": 0.1676262188,
				"z": 2.960013968,
				"element": "C" 
			},
			{
				"x": 0.1902400441,
				"y": -0.2436951703,
				"z": 2.5147653699,
				"element": "C" 
			},
			{
				"x": -2.4484992173,
				"y": 0.4922768364,
				"z": -3.5482068032,
				"element": "H" 
			},
			{
				"x": -0.7091961922,
				"y": 0.6613130103,
				"z": -3.2770554702,
				"element": "H" 
			},
			{
				"x": -1.5671195438,
				"y": -0.7649316499,
				"z": -2.6801913813,
				"element": "H" 
			},
			{
				"x": -2.8667655288,
				"y": 0.689693434,
				"z": -1.0764789911,
				"element": "H" 
			},
			{
				"x": -2.0808849354,
				"y": 2.1184430649,
				"z": -1.7214633857,
				"element": "H" 
			},
			{
				"x": 0.1388181582,
				"y": 1.2935441492,
				"z": -0.8817194906,
				"element": "H" 
			},
			{
				"x": -1.033176685,
				"y": 1.591956111,
				"z": 0.3866004908,
				"element": "H" 
			},
			{
				"x": -1.5483074823,
				"y": -0.8982301022,
				"z": 0.4414854983,
				"element": "H" 
			},
			{
				"x": -0.2977888474,
				"y": -1.1570076305,
				"z": -0.7558639609,
				"element": "H" 
			},
			{
				"x": 1.9633241741,
				"y": -1.2657746403,
				"z": -0.2160326356,
				"element": "H" 
			},
			{
				"x": 3.7809059251,
				"y": -1.3785018642,
				"z": 1.4622054353,
				"element": "H" 
			},
			{
				"x": 3.3349503516,
				"y": -0.7730347189,
				"z": 3.8250559958,
				"element": "H" 
			},
			{
				"x": 1.7799458896,
				"y": -0.0288785964,
				"z": 5.5619577607,
				"element": "H" 
			},
			{
				"x": -0.4821690058,
				"y": 0.6838206273,
				"z": 6.266575171,
				"element": "H" 
			},
			{
				"x": -2.3250977961,
				"y": 0.8022332269,
				"z": 4.5907530157,
				"element": "H" 
			},
			{
				"x": -1.91444026,
				"y": 0.2256999834,
				"z": 2.2484429579,
				"element": "H" 
			}
		],
		 "valence_orbital": [ 
			{
				"type": "occ",
				"energy": -0.31486,
				"method": "rhf"
			},
			{
				"type": "occ",
				"energy": -0.3109,
				"method": "rhf"
			},
			{
				"type": "occ",
				"energy": -0.27179,
				"method": "rhf"
			},
			{
				"type": "occ",
				"energy": -0.23818,
				"method": "rhf"
			},
			{
				"type": "occ",
				"energy": -0.20766,
				"method": "rhf"
			},
			{
				"type": "unocc",
				"energy": -0.03416,
				"method": "rhf"
			},
			{
				"type": "unocc",
				"energy": -0.00427,
				"method": "rhf"
			},
			{
				"type": "unocc",
				"energy": 0.03644,
				"method": "rhf"
			},
			{
				"type": "unocc",
				"energy": 0.08489,
				"method": "rhf"
			},
			{
				"type": "unocc",
				"energy": 0.0987,
				"method": "rhf"
			}
		],
		"cosmo_sigma_profile": { 
			"-0.025": 0.0,
			"-0.024": 0.0,
			"-0.023": 0.0,
			"-0.022": 0.0,
			"-0.021": 0.0,
			"-0.02": 0.0,
			"-0.019": 0.0,
			"-0.018": 0.0,
			"-0.017": 0.0,
			"-0.016": 0.0,
			"-0.015": 0.0,
			"-0.014": 0.0,
			"-0.013": 0.0,
			"-0.012": 0.0,
			"-0.011": 0.0,
			"-0.01": 0.0,
			"-0.009": 0.0,
			"-0.008": 0.0,
			"-0.007": 0.0,
			"-0.006": 4.44643060104,
			"-0.005": 14.2493101893,
			"-0.004": 18.0670447122,
			"-0.003": 22.0805645787,
			"-0.002": 28.0309862424,
			"-0.001": 28.8899208768,
			"0.0": 31.7984980181,
			"0.001": 26.584811153,
			"0.002": 17.7792856469,
			"0.003": 11.4428653246,
			"0.004": 17.271899231,
			"0.005": 20.4562630304,
			"0.006": 8.79797121569,
			"0.007": 0.0014180146971,
			"0.008": 0.0,
			"0.009": 0.0,
			"0.01": 0.0,
			"0.011": 0.0,
			"0.012": 0.0,
			"0.013": 0.0,
			"0.014": 0.0,
			"0.015": 0.0,
			"0.016": 0.0,
			"0.017": 0.0,
			"0.018": 0.0,
			"0.019": 0.0,
			"0.02": 0.0,
			"0.021": 0.0,
			"0.022": 0.0,
			"0.023": 0.0,
			"0.024": 0.0,
			"0.025": 0.0
		}
	}
}
