{
	 "smiles": "NS(=O)(=O)C1=C(F)C=CC(Cl)=C1", 
	 "Tm": 408.15, 
	 "num_atms": 17, 
	 "gaussian": { 
		 "optdone": 1, 
		 "sigma_profile": "yes", 
		 "theory": "DFT", 
		 "functional": "B3LYP", 
		 "basiset": "6-31G**", 
		 "properties": { 
			 "R2extent": 3620.9761, 
			 "electric_dipole_moment_norm": 5.64421266077, 
			 "electric_quadrupole_moment_norm": 10.7476298262, 
			 "total_energy": -1394.98875111, 
			 "HOMO_LUMO_gap": 0.20874, 
			 "cosmo_polarized_energy": -16.85, 
			 "cosmo_cavitation_energy": 25.13, 
			 "cosmo_dispersion_energy": -19.21, 
			 "cosmo_repulsion_energy": 1.47, 
			 "cosmo_total_nonelectrostatic_energy": 7.39, 
			 "SMD_solvation_energy": 4.02 
		},
		"coords": [
			{
				"x": -0.1268268103,
				"y": 2.3209715265,
				"z": -1.4161121198,
				"element": "N" 
			},
			{
				"x": -1.3505139877,
				"y": 1.2064481931,
				"z": -1.6416372964,
				"element": "S" 
			},
			{
				"x": -1.528027687,
				"y": 1.0725397717,
				"z": -3.0853091839,
				"element": "O" 
			},
			{
				"x": -2.4348556408,
				"y": 1.5870276764,
				"z": -0.7450367553,
				"element": "O" 
			},
			{
				"x": -0.7000303604,
				"y": -0.3754965064,
				"z": -1.0642404492,
				"element": "C" 
			},
			{
				"x": -0.1875251965,
				"y": -0.5197654909,
				"z": 0.224724743,
				"element": "C" 
			},
			{
				"x": -0.1075968328,
				"y": 0.561716152,
				"z": 1.0300212229,
				"element": "F" 
			},
			{
				"x": 0.2674124532,
				"y": -1.7442316059,
				"z": 0.6918249147,
				"element": "C" 
			},
			{
				"x": 0.2025589965,
				"y": -2.8564131681,
				"z": -0.1481536216,
				"element": "C" 
			},
			{
				"x": -0.3076914501,
				"y": -2.7178980943,
				"z": -1.4403499239,
				"element": "C" 
			},
			{
				"x": -0.37918185,
				"y": -4.1162601817,
				"z": -2.4935128814,
				"element": "Cl" 
			},
			{
				"x": -0.7609968257,
				"y": -1.4848585605,
				"z": -1.9080931759,
				"element": "C" 
			},
			{
				"x": 0.6618287082,
				"y": 2.174801723,
				"z": -2.0379802448,
				"element": "H" 
			},
			{
				"x": 0.1316826042,
				"y": 2.4246706635,
				"z": -0.4397449204,
				"element": "H" 
			},
			{
				"x": 0.6631244253,
				"y": -1.8177672544,
				"z": 1.698700308,
				"element": "H" 
			},
			{
				"x": 0.5495460791,
				"y": -3.8234733622,
				"z": 0.1974568984,
				"element": "H" 
			},
			{
				"x": -1.1565066251,
				"y": -1.3686114819,
				"z": -2.9103575144,
				"element": "H" 
			}
		],
		 "valence_orbital": [ 
			{
				"type": "occ",
				"energy": -0.3276,
				"method": "rhf"
			},
			{
				"type": "occ",
				"energy": -0.31589,
				"method": "rhf"
			},
			{
				"type": "occ",
				"energy": -0.31185,
				"method": "rhf"
			},
			{
				"type": "occ",
				"energy": -0.29167,
				"method": "rhf"
			},
			{
				"type": "occ",
				"energy": -0.26715,
				"method": "rhf"
			},
			{
				"type": "unocc",
				"energy": -0.05841,
				"method": "rhf"
			},
			{
				"type": "unocc",
				"energy": -0.03882,
				"method": "rhf"
			},
			{
				"type": "unocc",
				"energy": 0.00486,
				"method": "rhf"
			},
			{
				"type": "unocc",
				"energy": 0.05143,
				"method": "rhf"
			},
			{
				"type": "unocc",
				"energy": 0.05459,
				"method": "rhf"
			}
		],
		"cosmo_sigma_profile": { 
			"-0.025": 0.0,
			"-0.024": 0.0,
			"-0.023": 0.0,
			"-0.022": 0.0,
			"-0.021": 0.0,
			"-0.02": 0.0,
			"-0.019": 0.0,
			"-0.018": 0.0,
			"-0.017": 0.0,
			"-0.016": 0.943587673003,
			"-0.015": 1.61677585979,
			"-0.014": 2.26259242844,
			"-0.013": 2.40321659759,
			"-0.012": 2.84735702817,
			"-0.011": 1.78339846646,
			"-0.01": 1.79867255311,
			"-0.009": 5.23258850641,
			"-0.008": 7.66315703356,
			"-0.007": 6.12224272716,
			"-0.006": 5.85347765071,
			"-0.005": 6.57550428159,
			"-0.004": 6.71623749606,
			"-0.003": 9.07250664241,
			"-0.002": 13.5800225513,
			"-0.001": 17.992341147,
			"0.0": 20.1397885109,
			"0.001": 12.8702821806,
			"0.002": 11.0551804237,
			"0.003": 13.4765191707,
			"0.004": 12.878606253,
			"0.005": 3.92896038714,
			"0.006": 3.48290071296,
			"0.007": 3.76584213855,
			"0.008": 5.47889172817,
			"0.009": 5.57471966327,
			"0.01": 10.4277250149,
			"0.011": 8.31510768973,
			"0.012": 0.473587669645,
			"0.013": 0.0,
			"0.014": 0.0,
			"0.015": 0.0,
			"0.016": 0.0,
			"0.017": 0.0,
			"0.018": 0.0,
			"0.019": 0.0,
			"0.02": 0.0,
			"0.021": 0.0,
			"0.022": 0.0,
			"0.023": 0.0,
			"0.024": 0.0,
			"0.025": 0.0
		}
	}
}
