{
	 "smiles": "COP(=S)(OC)OC1=CC=C(C(C)=C1)[N+]([O-])=O", 
	 "Tm": 276.55, 
	 "num_atms": 29, 
	 "gaussian": { 
		 "optdone": 1, 
		 "sigma_profile": "yes", 
		 "theory": "DFT", 
		 "functional": "B3LYP", 
		 "basiset": "6-31G**", 
		 "properties": { 
			 "R2extent": 6485.9779, 
			 "electric_dipole_moment_norm": 4.14914529632, 
			 "electric_quadrupole_moment_norm": 33.1888175796, 
			 "total_energy": -1520.55822909, 
			 "HOMO_LUMO_gap": 0.1682, 
			 "cosmo_polarized_energy": -14.11, 
			 "cosmo_cavitation_energy": 36.97, 
			 "cosmo_dispersion_energy": -25.97, 
			 "cosmo_repulsion_energy": 1.97, 
			 "cosmo_total_nonelectrostatic_energy": 12.97, 
			 "SMD_solvation_energy": 9.86 
		},
		"coords": [
			{
				"x": 2.5017826646,
				"y": 1.4439852227,
				"z": 2.6511451647,
				"element": "C" 
			},
			{
				"x": 1.9570981675,
				"y": 1.5123627567,
				"z": 1.3174028778,
				"element": "O" 
			},
			{
				"x": 2.515531099,
				"y": 0.5607789557,
				"z": 0.1355307472,
				"element": "P" 
			},
			{
				"x": 4.4217159671,
				"y": 0.2883358739,
				"z": 0.0321120956,
				"element": "S" 
			},
			{
				"x": 1.7586806393,
				"y": 1.2088786457,
				"z": -1.1302485657,
				"element": "O" 
			},
			{
				"x": 2.2571552214,
				"y": 2.425097649,
				"z": -1.7264739797,
				"element": "C" 
			},
			{
				"x": 1.6994915644,
				"y": -0.8427441712,
				"z": 0.2900764009,
				"element": "O" 
			},
			{
				"x": 0.3888757826,
				"y": -1.0258213166,
				"z": 0.6999138988,
				"element": "C" 
			},
			{
				"x": 0.146848422,
				"y": -2.1663472985,
				"z": 1.4684767501,
				"element": "C" 
			},
			{
				"x": -1.1504750669,
				"y": -2.4296909645,
				"z": 1.8765030266,
				"element": "C" 
			},
			{
				"x": -2.1916670445,
				"y": -1.5625568782,
				"z": 1.5282508312,
				"element": "C" 
			},
			{
				"x": -1.9706037998,
				"y": -0.408863499,
				"z": 0.7459734759,
				"element": "C" 
			},
			{
				"x": -3.0326930107,
				"y": 0.5698317504,
				"z": 0.3065671224,
				"element": "C" 
			},
			{
				"x": -0.6508011268,
				"y": -0.1709910451,
				"z": 0.3375297097,
				"element": "C" 
			},
			{
				"x": -3.5272364395,
				"y": -1.9272222778,
				"z": 2.0242642085,
				"element": "N" 
			},
			{
				"x": -4.4605473122,
				"y": -1.1460695141,
				"z": 1.830162085,
				"element": "O" 
			},
			{
				"x": -3.6446005824,
				"y": -3.0007448199,
				"z": 2.6174199182,
				"element": "O" 
			},
			{
				"x": 2.0817185432,
				"y": 2.292689549,
				"z": 3.1915878432,
				"element": "H" 
			},
			{
				"x": 2.2009752933,
				"y": 0.5115694017,
				"z": 3.1377751736,
				"element": "H" 
			},
			{
				"x": 3.5920064445,
				"y": 1.5139284473,
				"z": 2.6237588244,
				"element": "H" 
			},
			{
				"x": 1.647245024,
				"y": 2.5962162664,
				"z": -2.6136685446,
				"element": "H" 
			},
			{
				"x": 3.3060479332,
				"y": 2.3064199125,
				"z": -2.0095236486,
				"element": "H" 
			},
			{
				"x": 2.1471728383,
				"y": 3.2608681132,
				"z": -1.0299366053,
				"element": "H" 
			},
			{
				"x": 0.9690465295,
				"y": -2.8234364583,
				"z": 1.7275624805,
				"element": "H" 
			},
			{
				"x": -1.3841903263,
				"y": -3.3029660519,
				"z": 2.4712359257,
				"element": "H" 
			},
			{
				"x": -3.8394028373,
				"y": 0.0719998614,
				"z": -0.2364296687,
				"element": "H" 
			},
			{
				"x": -2.586213151,
				"y": 1.3311154622,
				"z": -0.3378847367,
				"element": "H" 
			},
			{
				"x": -3.5022899433,
				"y": 1.0598034694,
				"z": 1.1629437942,
				"element": "H" 
			},
			{
				"x": -0.4372714932,
				"y": 0.690572958,
				"z": -0.2823266049,
				"element": "H" 
			}
		],
		 "valence_orbital": [ 
			{
				"type": "occ",
				"energy": -0.28691,
				"method": "rhf"
			},
			{
				"type": "occ",
				"energy": -0.27642,
				"method": "rhf"
			},
			{
				"type": "occ",
				"energy": -0.26999,
				"method": "rhf"
			},
			{
				"type": "occ",
				"energy": -0.25686,
				"method": "rhf"
			},
			{
				"type": "occ",
				"energy": -0.25505,
				"method": "rhf"
			},
			{
				"type": "unocc",
				"energy": -0.08685,
				"method": "rhf"
			},
			{
				"type": "unocc",
				"energy": -0.02947,
				"method": "rhf"
			},
			{
				"type": "unocc",
				"energy": -0.00414,
				"method": "rhf"
			},
			{
				"type": "unocc",
				"energy": 0.02708,
				"method": "rhf"
			},
			{
				"type": "unocc",
				"energy": 0.03681,
				"method": "rhf"
			}
		],
		"cosmo_sigma_profile": { 
			"-0.025": 0.0,
			"-0.024": 0.0,
			"-0.023": 0.0,
			"-0.022": 0.0,
			"-0.021": 0.0,
			"-0.02": 0.0,
			"-0.019": 0.0,
			"-0.018": 0.0,
			"-0.017": 0.0,
			"-0.016": 0.0,
			"-0.015": 0.0,
			"-0.014": 0.0,
			"-0.013": 0.0,
			"-0.012": 0.0,
			"-0.011": 0.0,
			"-0.01": 0.0,
			"-0.009": 0.0266570942498,
			"-0.008": 2.2177488525,
			"-0.007": 9.85764460967,
			"-0.006": 18.6808992451,
			"-0.005": 24.0237666144,
			"-0.004": 31.1736772521,
			"-0.003": 20.8857518287,
			"-0.002": 19.4037030285,
			"-0.001": 23.8100244429,
			"0.0": 28.5774434576,
			"0.001": 19.4944491494,
			"0.002": 13.9518463741,
			"0.003": 10.692107307,
			"0.004": 10.4713570437,
			"0.005": 9.495464924,
			"0.006": 12.3228142063,
			"0.007": 14.7224008317,
			"0.008": 14.289508038,
			"0.009": 7.30399169199,
			"0.01": 3.87918250904,
			"0.011": 0.612619575115,
			"0.012": 0.0,
			"0.013": 0.0,
			"0.014": 0.0,
			"0.015": 0.0,
			"0.016": 0.0,
			"0.017": 0.0,
			"0.018": 0.0,
			"0.019": 0.0,
			"0.02": 0.0,
			"0.021": 0.0,
			"0.022": 0.0,
			"0.023": 0.0,
			"0.024": 0.0,
			"0.025": 0.0
		}
	}
}
