{
	 "smiles": "CC1=CC(=C(N)C=C1Cl)[N+]([O-])=O", 
	 "Tm": 434.15, 
	 "num_atms": 19, 
	 "gaussian": { 
		 "optdone": 1, 
		 "sigma_profile": "yes", 
		 "theory": "DFT", 
		 "functional": "B3LYP", 
		 "basiset": "6-31G**", 
		 "properties": { 
			 "R2extent": 2649.1998, 
			 "electric_dipole_moment_norm": 3.28282279449, 
			 "electric_quadrupole_moment_norm": 18.5163414453, 
			 "total_energy": -991.023492997, 
			 "HOMO_LUMO_gap": 0.1405, 
			 "cosmo_polarized_energy": -10.68, 
			 "cosmo_cavitation_energy": 25.01, 
			 "cosmo_dispersion_energy": -18.89, 
			 "cosmo_repulsion_energy": 1.5, 
			 "cosmo_total_nonelectrostatic_energy": 7.63, 
			 "SMD_solvation_energy": 6.05 
		},
		"coords": [
			{
				"x": -1.5022135108,
				"y": -1.755515158,
				"z": 1.7089634415,
				"element": "C" 
			},
			{
				"x": -0.6658944183,
				"y": -1.0647202186,
				"z": 0.6636924943,
				"element": "C" 
			},
			{
				"x": -0.9956735506,
				"y": 0.1919403752,
				"z": 0.1823169179,
				"element": "C" 
			},
			{
				"x": -0.2342454508,
				"y": 0.8580821592,
				"z": -0.7909252306,
				"element": "C" 
			},
			{
				"x": 0.9354583035,
				"y": 0.2645883883,
				"z": -1.3412911516,
				"element": "C" 
			},
			{
				"x": 1.7167925439,
				"y": 0.8482658107,
				"z": -2.2823135546,
				"element": "N" 
			},
			{
				"x": 1.2715601636,
				"y": -1.0198077311,
				"z": -0.8485036629,
				"element": "C" 
			},
			{
				"x": 0.4985785482,
				"y": -1.6453888438,
				"z": 0.1099045314,
				"element": "C" 
			},
			{
				"x": 1.0045671843,
				"y": -3.2377466377,
				"z": 0.652505135,
				"element": "Cl" 
			},
			{
				"x": -0.6938398992,
				"y": 2.1668925544,
				"z": -1.2026700547,
				"element": "N" 
			},
			{
				"x": -1.7149733462,
				"y": 2.6233584659,
				"z": -0.6867293539,
				"element": "O" 
			},
			{
				"x": -0.0419490273,
				"y": 2.7882453049,
				"z": -2.0647145291,
				"element": "O" 
			},
			{
				"x": -0.920241633,
				"y": -1.9711858592,
				"z": 2.611544958,
				"element": "H" 
			},
			{
				"x": -2.3509869992,
				"y": -1.1289752311,
				"z": 1.9927428499,
				"element": "H" 
			},
			{
				"x": -1.8910481314,
				"y": -2.7126185251,
				"z": 1.3448331205,
				"element": "H" 
			},
			{
				"x": -1.8733400007,
				"y": 0.7050069437,
				"z": 0.5557891215,
				"element": "H" 
			},
			{
				"x": 2.5325427572,
				"y": 0.3705694755,
				"z": -2.6257106491,
				"element": "H" 
			},
			{
				"x": 1.4585023752,
				"y": 1.7649989028,
				"z": -2.6174467904,
				"element": "H" 
			},
			{
				"x": 2.1546040917,
				"y": -1.516790176,
				"z": -1.2353875932,
				"element": "H" 
			}
		],
		 "valence_orbital": [ 
			{
				"type": "occ",
				"energy": -0.30615,
				"method": "rhf"
			},
			{
				"type": "occ",
				"energy": -0.30367,
				"method": "rhf"
			},
			{
				"type": "occ",
				"energy": -0.28752,
				"method": "rhf"
			},
			{
				"type": "occ",
				"energy": -0.26899,
				"method": "rhf"
			},
			{
				"type": "occ",
				"energy": -0.22615,
				"method": "rhf"
			},
			{
				"type": "unocc",
				"energy": -0.08565,
				"method": "rhf"
			},
			{
				"type": "unocc",
				"energy": -0.01224,
				"method": "rhf"
			},
			{
				"type": "unocc",
				"energy": 0.00142,
				"method": "rhf"
			},
			{
				"type": "unocc",
				"energy": 0.01862,
				"method": "rhf"
			},
			{
				"type": "unocc",
				"energy": 0.07375,
				"method": "rhf"
			}
		],
		"cosmo_sigma_profile": { 
			"-0.025": 0.0,
			"-0.024": 0.0,
			"-0.023": 0.0,
			"-0.022": 0.0,
			"-0.021": 0.0,
			"-0.02": 0.0,
			"-0.019": 0.0,
			"-0.018": 0.0,
			"-0.017": 0.0,
			"-0.016": 0.0,
			"-0.015": 0.951416604546,
			"-0.014": 1.64278944776,
			"-0.013": 1.52620189775,
			"-0.012": 1.44128020159,
			"-0.011": 1.71686043295,
			"-0.01": 3.45635738456,
			"-0.009": 1.77483405158,
			"-0.008": 2.58586297145,
			"-0.007": 3.32033588841,
			"-0.006": 4.26394911381,
			"-0.005": 7.42332128371,
			"-0.004": 10.2207085204,
			"-0.003": 11.7208930479,
			"-0.002": 14.7212275247,
			"-0.001": 18.7285465687,
			"0.0": 22.276577312,
			"0.001": 23.3078680224,
			"0.002": 18.9865706506,
			"0.003": 12.5064433095,
			"0.004": 10.6690216207,
			"0.005": 3.62867184914,
			"0.006": 2.67135779793,
			"0.007": 3.83575318413,
			"0.008": 6.11136647849,
			"0.009": 5.08416756307,
			"0.01": 4.13480914364,
			"0.011": 2.89874942726,
			"0.012": 0.136868081288,
			"0.013": 0.0,
			"0.014": 0.0,
			"0.015": 0.0,
			"0.016": 0.0,
			"0.017": 0.0,
			"0.018": 0.0,
			"0.019": 0.0,
			"0.02": 0.0,
			"0.021": 0.0,
			"0.022": 0.0,
			"0.023": 0.0,
			"0.024": 0.0,
			"0.025": 0.0
		}
	}
}
