{
	 "smiles": "OC(=O)C1=CC(O)=C(Br)C(O)=C1", 
	 "Tm": 543.15, 
	 "num_atms": 17, 
	 "gaussian": { 
		 "optdone": 1, 
		 "sigma_profile": "yes", 
		 "theory": "DFT", 
		 "functional": "B3LYP", 
		 "basiset": "6-31G**", 
		 "properties": { 
			 "R2extent": 3541.4932, 
			 "electric_dipole_moment_norm": 2.56987760409, 
			 "electric_quadrupole_moment_norm": 12.9809111976, 
			 "total_energy": -3142.06204428, 
			 "HOMO_LUMO_gap": 0.17903, 
			 "cosmo_polarized_energy": -18.87, 
			 "cosmo_cavitation_energy": 24.64, 
			 "cosmo_dispersion_energy": -18.84, 
			 "cosmo_repulsion_energy": 1.51, 
			 "cosmo_total_nonelectrostatic_energy": 7.3, 
			 "SMD_solvation_energy": 5.26 
		},
		"coords": [
			{
				"x": -2.3113557406,
				"y": -2.113806968,
				"z": 2.0012728141,
				"element": "O" 
			},
			{
				"x": -2.2350759761,
				"y": -2.2549059617,
				"z": 0.6540297005,
				"element": "C" 
			},
			{
				"x": -2.9280303054,
				"y": -3.0473545247,
				"z": 0.0472059396,
				"element": "O" 
			},
			{
				"x": -1.2317186032,
				"y": -1.352552833,
				"z": 0.0297672136,
				"element": "C" 
			},
			{
				"x": -0.4655494819,
				"y": -0.4632261428,
				"z": 0.7876021608,
				"element": "C" 
			},
			{
				"x": 0.4649592338,
				"y": 0.3641834526,
				"z": 0.1521576139,
				"element": "C" 
			},
			{
				"x": 1.2359343422,
				"y": 1.2465573516,
				"z": 0.8377148908,
				"element": "O" 
			},
			{
				"x": 0.6242546696,
				"y": 0.2972006044,
				"z": -1.2408171405,
				"element": "C" 
			},
			{
				"x": 1.8844488223,
				"y": 1.4168153194,
				"z": -2.1025830953,
				"element": "Br" 
			},
			{
				"x": -0.1491740959,
				"y": -0.598852555,
				"z": -1.9963382893,
				"element": "C" 
			},
			{
				"x": 0.0410151268,
				"y": -0.6267585948,
				"z": -3.3395976282,
				"element": "O" 
			},
			{
				"x": -1.0768825197,
				"y": -1.4226833521,
				"z": -1.3562137874,
				"element": "C" 
			},
			{
				"x": -2.9890339339,
				"y": -2.7448944643,
				"z": 2.2942743249,
				"element": "H" 
			},
			{
				"x": -0.593364912,
				"y": -0.41630347,
				"z": 1.8639250238,
				"element": "H" 
			},
			{
				"x": 1.0224223092,
				"y": 1.1858422277,
				"z": 1.7780304615,
				"element": "H" 
			},
			{
				"x": -0.5529182852,
				"y": -1.2834691055,
				"z": -3.7265703341,
				"element": "H" 
			},
			{
				"x": -1.68673065,
				"y": -2.1237909838,
				"z": -1.9178598687,
				"element": "H" 
			}
		],
		 "valence_orbital": [ 
			{
				"type": "occ",
				"energy": -0.31307,
				"method": "rhf"
			},
			{
				"type": "occ",
				"energy": -0.28578,
				"method": "rhf"
			},
			{
				"type": "occ",
				"energy": -0.27936,
				"method": "rhf"
			},
			{
				"type": "occ",
				"energy": -0.23604,
				"method": "rhf"
			},
			{
				"type": "occ",
				"energy": -0.23544,
				"method": "rhf"
			},
			{
				"type": "unocc",
				"energy": -0.05641,
				"method": "rhf"
			},
			{
				"type": "unocc",
				"energy": 0.00094,
				"method": "rhf"
			},
			{
				"type": "unocc",
				"energy": 0.00989,
				"method": "rhf"
			},
			{
				"type": "unocc",
				"energy": 0.05342,
				"method": "rhf"
			},
			{
				"type": "unocc",
				"energy": 0.05474,
				"method": "rhf"
			}
		],
		"cosmo_sigma_profile": { 
			"-0.025": 0.0,
			"-0.024": 0.0,
			"-0.023": 0.0,
			"-0.022": 0.0,
			"-0.021": 0.0,
			"-0.02": 0.0137495374104,
			"-0.019": 1.24760563883,
			"-0.018": 3.21278112916,
			"-0.017": 2.83619310956,
			"-0.016": 3.41445711387,
			"-0.015": 2.99606337592,
			"-0.014": 2.25370287179,
			"-0.013": 2.4564525804,
			"-0.012": 2.18826645054,
			"-0.011": 2.82018799036,
			"-0.01": 3.27163003818,
			"-0.009": 2.33797159557,
			"-0.008": 2.44383615025,
			"-0.007": 3.58642200524,
			"-0.006": 3.42296130463,
			"-0.005": 4.42859213419,
			"-0.004": 4.61307055729,
			"-0.003": 6.15995423086,
			"-0.002": 8.59808736445,
			"-0.001": 8.27098623484,
			"0.0": 9.04441484868,
			"0.001": 24.8632801687,
			"0.002": 20.3447712122,
			"0.003": 11.7749086564,
			"0.004": 12.6187496876,
			"0.005": 10.2878755156,
			"0.006": 7.69136744741,
			"0.007": 6.93186893922,
			"0.008": 4.31512298176,
			"0.009": 6.23288494525,
			"0.01": 6.48401558191,
			"0.011": 6.43786575033,
			"0.012": 2.38982476055,
			"0.013": 0.0,
			"0.014": 0.0,
			"0.015": 0.0,
			"0.016": 0.0,
			"0.017": 0.0,
			"0.018": 0.0,
			"0.019": 0.0,
			"0.02": 0.0,
			"0.021": 0.0,
			"0.022": 0.0,
			"0.023": 0.0,
			"0.024": 0.0,
			"0.025": 0.0
		}
	}
}
