{
	 "smiles": "COC(=O)C1=CC(=CC(Br)=C1)S(N)(=O)=O", 
	 "Tm": 412.15, 
	 "num_atms": 23, 
	 "gaussian": { 
		 "optdone": 1, 
		 "sigma_profile": "yes", 
		 "theory": "DFT", 
		 "functional": "B3LYP", 
		 "basiset": "6-31G**", 
		 "properties": { 
			 "R2extent": 6525.3953, 
			 "electric_dipole_moment_norm": 3.47016287082, 
			 "electric_quadrupole_moment_norm": 22.2683965269, 
			 "total_energy": -3634.85020668, 
			 "HOMO_LUMO_gap": 0.19254, 
			 "cosmo_polarized_energy": -16.72, 
			 "cosmo_cavitation_energy": 32.25, 
			 "cosmo_dispersion_energy": -24.18, 
			 "cosmo_repulsion_energy": 1.88, 
			 "cosmo_total_nonelectrostatic_energy": 9.95, 
			 "SMD_solvation_energy": 5.63 
		},
		"coords": [
			{
				"x": -4.0672495994,
				"y": 1.5544155792,
				"z": -1.3959054284,
				"element": "C" 
			},
			{
				"x": -2.8580026429,
				"y": 1.2499252349,
				"z": -0.6790961523,
				"element": "O" 
			},
			{
				"x": -1.7474650091,
				"y": 1.8612172158,
				"z": -1.1359941813,
				"element": "C" 
			},
			{
				"x": -1.7344735228,
				"y": 2.6155530667,
				"z": -2.0875793202,
				"element": "O" 
			},
			{
				"x": -0.535400003,
				"y": 1.5018138932,
				"z": -0.3369631735,
				"element": "C" 
			},
			{
				"x": -0.5924345814,
				"y": 0.6292640244,
				"z": 0.7550952813,
				"element": "C" 
			},
			{
				"x": 0.5833864889,
				"y": 0.3485767893,
				"z": 1.446611585,
				"element": "C" 
			},
			{
				"x": 1.8048694146,
				"y": 0.9235959769,
				"z": 1.0945583239,
				"element": "C" 
			},
			{
				"x": 1.8353083343,
				"y": 1.7896723596,
				"z": 0.0022585035,
				"element": "C" 
			},
			{
				"x": 3.4890278308,
				"y": 2.5916916073,
				"z": -0.5045709926,
				"element": "Br" 
			},
			{
				"x": 0.6810317031,
				"y": 2.0820932549,
				"z": -0.717581557,
				"element": "C" 
			},
			{
				"x": 0.5297397844,
				"y": -0.7762572818,
				"z": 2.848301021,
				"element": "S" 
			},
			{
				"x": 0.7817509295,
				"y": -2.2902553943,
				"z": 2.1355933267,
				"element": "N" 
			},
			{
				"x": 1.6966224555,
				"y": -0.4880364298,
				"z": 3.6857298527,
				"element": "O" 
			},
			{
				"x": -0.8398121878,
				"y": -0.7653153332,
				"z": 3.3673833349,
				"element": "O" 
			},
			{
				"x": -4.8529199446,
				"y": 0.9872382279,
				"z": -0.8979898262,
				"element": "H" 
			},
			{
				"x": -4.2775516014,
				"y": 2.6256256559,
				"z": -1.3521024257,
				"element": "H" 
			},
			{
				"x": -3.9770824862,
				"y": 1.2535701399,
				"z": -2.4424004954,
				"element": "H" 
			},
			{
				"x": -1.5328695677,
				"y": 0.1932763824,
				"z": 1.0671834233,
				"element": "H" 
			},
			{
				"x": 2.6978118257,
				"y": 0.7108854371,
				"z": 1.6696667068,
				"element": "H" 
			},
			{
				"x": 0.6990178327,
				"y": 2.756631387,
				"z": -1.5651063228,
				"element": "H" 
			},
			{
				"x": -0.0222962239,
				"y": -2.8865715229,
				"z": 2.3126376439,
				"element": "H" 
			},
			{
				"x": 1.6388907708,
				"y": -2.6994102703,
				"z": 2.4980708723,
				"element": "H" 
			}
		],
		 "valence_orbital": [ 
			{
				"type": "occ",
				"energy": -0.3095,
				"method": "rhf"
			},
			{
				"type": "occ",
				"energy": -0.30079,
				"method": "rhf"
			},
			{
				"type": "occ",
				"energy": -0.2902,
				"method": "rhf"
			},
			{
				"type": "occ",
				"energy": -0.28301,
				"method": "rhf"
			},
			{
				"type": "occ",
				"energy": -0.26414,
				"method": "rhf"
			},
			{
				"type": "unocc",
				"energy": -0.0716,
				"method": "rhf"
			},
			{
				"type": "unocc",
				"energy": -0.04931,
				"method": "rhf"
			},
			{
				"type": "unocc",
				"energy": -0.00992,
				"method": "rhf"
			},
			{
				"type": "unocc",
				"energy": 0.02512,
				"method": "rhf"
			},
			{
				"type": "unocc",
				"energy": 0.05048,
				"method": "rhf"
			}
		],
		"cosmo_sigma_profile": { 
			"-0.025": 0.0,
			"-0.024": 0.0,
			"-0.023": 0.0,
			"-0.022": 0.0,
			"-0.021": 0.0,
			"-0.02": 0.0,
			"-0.019": 0.0,
			"-0.018": 0.0,
			"-0.017": 0.0,
			"-0.016": 0.0598943520309,
			"-0.015": 1.7029170711,
			"-0.014": 2.97998798356,
			"-0.013": 1.71392095492,
			"-0.012": 2.62449744733,
			"-0.011": 2.51628638979,
			"-0.01": 1.84211891299,
			"-0.009": 1.77179307618,
			"-0.008": 2.72693296141,
			"-0.007": 6.11488718298,
			"-0.006": 12.7242783227,
			"-0.005": 14.193401556,
			"-0.004": 18.9435501293,
			"-0.003": 20.0069128452,
			"-0.002": 17.1073004606,
			"-0.001": 26.2684246319,
			"0.0": 22.1835151339,
			"0.001": 12.6536470218,
			"0.002": 13.3246246691,
			"0.003": 16.0410873279,
			"0.004": 12.5684173974,
			"0.005": 5.14689750826,
			"0.006": 4.97366615669,
			"0.007": 4.29093649538,
			"0.008": 5.07450065615,
			"0.009": 6.56847230208,
			"0.01": 11.436402848,
			"0.011": 12.0248978413,
			"0.012": 1.75795773712,
			"0.013": 0.0,
			"0.014": 0.0,
			"0.015": 0.0,
			"0.016": 0.0,
			"0.017": 0.0,
			"0.018": 0.0,
			"0.019": 0.0,
			"0.02": 0.0,
			"0.021": 0.0,
			"0.022": 0.0,
			"0.023": 0.0,
			"0.024": 0.0,
			"0.025": 0.0
		}
	}
}
