{
	 "smiles": "OC(=O)C1=C(F)C=CC=C1F", 
	 "Tm": 431.15, 
	 "num_atms": 15, 
	 "gaussian": { 
		 "optdone": 1, 
		 "sigma_profile": "yes", 
		 "theory": "DFT", 
		 "functional": "B3LYP", 
		 "basiset": "6-31G**", 
		 "properties": { 
			 "R2extent": 2147.4154, 
			 "electric_dipole_moment_norm": 2.63613117655, 
			 "electric_quadrupole_moment_norm": 7.05416681189, 
			 "total_energy": -619.276992291, 
			 "HOMO_LUMO_gap": 0.20557, 
			 "cosmo_polarized_energy": -10.25, 
			 "cosmo_cavitation_energy": 20.98, 
			 "cosmo_dispersion_energy": -15.38, 
			 "cosmo_repulsion_energy": 1.2, 
			 "cosmo_total_nonelectrostatic_energy": 6.8, 
			 "SMD_solvation_energy": 5.83 
		},
		"coords": [
			{
				"x": -2.0193766691,
				"y": -1.2801132647,
				"z": 2.801287036,
				"element": "O" 
			},
			{
				"x": -1.6110168789,
				"y": -1.0789188284,
				"z": 1.5280118372,
				"element": "C" 
			},
			{
				"x": -2.2249745317,
				"y": -1.4981824076,
				"z": 0.5711950655,
				"element": "O" 
			},
			{
				"x": -0.3346361716,
				"y": -0.3101595393,
				"z": 1.4466573686,
				"element": "C" 
			},
			{
				"x": 0.5576288232,
				"y": -0.5336776915,
				"z": 0.3836756338,
				"element": "C" 
			},
			{
				"x": 0.2771978005,
				"y": -1.4808666229,
				"z": -0.5193113476,
				"element": "F" 
			},
			{
				"x": 1.748357521,
				"y": 0.1680335596,
				"z": 0.2419783507,
				"element": "C" 
			},
			{
				"x": 2.0702007294,
				"y": 1.1457889362,
				"z": 1.1823063437,
				"element": "C" 
			},
			{
				"x": 1.215270591,
				"y": 1.4125446862,
				"z": 2.2505123472,
				"element": "C" 
			},
			{
				"x": 0.0380943407,
				"y": 0.6831189213,
				"z": 2.3669603834,
				"element": "C" 
			},
			{
				"x": -0.7771649552,
				"y": 0.9747259038,
				"z": 3.3912544821,
				"element": "F" 
			},
			{
				"x": -2.8565176766,
				"y": -1.7696695977,
				"z": 2.7310919364,
				"element": "H" 
			},
			{
				"x": 2.3973541955,
				"y": -0.0633318729,
				"z": -0.5944631527,
				"element": "H" 
			},
			{
				"x": 2.9946502786,
				"y": 1.7053554776,
				"z": 1.0810894578,
				"element": "H" 
			},
			{
				"x": 1.4371326032,
				"y": 2.1725523403,
				"z": 2.990554258,
				"element": "H" 
			}
		],
		 "valence_orbital": [ 
			{
				"type": "occ",
				"energy": -0.3654,
				"method": "rhf"
			},
			{
				"type": "occ",
				"energy": -0.32116,
				"method": "rhf"
			},
			{
				"type": "occ",
				"energy": -0.28526,
				"method": "rhf"
			},
			{
				"type": "occ",
				"energy": -0.27082,
				"method": "rhf"
			},
			{
				"type": "occ",
				"energy": -0.25894,
				"method": "rhf"
			},
			{
				"type": "unocc",
				"energy": -0.05337,
				"method": "rhf"
			},
			{
				"type": "unocc",
				"energy": -0.01313,
				"method": "rhf"
			},
			{
				"type": "unocc",
				"energy": 0.03425,
				"method": "rhf"
			},
			{
				"type": "unocc",
				"energy": 0.06818,
				"method": "rhf"
			},
			{
				"type": "unocc",
				"energy": 0.08238,
				"method": "rhf"
			}
		],
		"cosmo_sigma_profile": { 
			"-0.025": 0.0,
			"-0.024": 0.0,
			"-0.023": 0.0,
			"-0.022": 0.0,
			"-0.021": 0.0,
			"-0.02": 0.0,
			"-0.019": 0.247056282085,
			"-0.018": 0.804014054911,
			"-0.017": 1.06163570786,
			"-0.016": 0.721230494828,
			"-0.015": 0.860849842135,
			"-0.014": 0.730503897677,
			"-0.013": 0.288343063461,
			"-0.012": 0.738029029354,
			"-0.011": 0.959097743132,
			"-0.01": 0.905580594962,
			"-0.009": 0.52987629746,
			"-0.008": 5.54405590845,
			"-0.007": 7.18523242228,
			"-0.006": 7.12789145234,
			"-0.005": 6.25359795784,
			"-0.004": 6.70439554836,
			"-0.003": 8.0314867412,
			"-0.002": 9.1112667319,
			"-0.001": 16.0973105579,
			"0.0": 16.9282609705,
			"0.001": 12.3997047338,
			"0.002": 12.4766037582,
			"0.003": 14.091644323,
			"0.004": 10.1865568005,
			"0.005": 4.22210478507,
			"0.006": 4.23944786944,
			"0.007": 2.76630549366,
			"0.008": 3.96476786716,
			"0.009": 3.2047375482,
			"0.01": 3.28498152248,
			"0.011": 5.14774915662,
			"0.012": 2.26843108121,
			"0.013": 0.0,
			"0.014": 0.0,
			"0.015": 0.0,
			"0.016": 0.0,
			"0.017": 0.0,
			"0.018": 0.0,
			"0.019": 0.0,
			"0.02": 0.0,
			"0.021": 0.0,
			"0.022": 0.0,
			"0.023": 0.0,
			"0.024": 0.0,
			"0.025": 0.0
		}
	}
}
