{
	 "smiles": "CCCCCCNC(=O)CCl", 
	 "Tm": 303.15, 
	 "num_atms": 27, 
	 "gaussian": { 
		 "optdone": 1, 
		 "sigma_profile": "yes", 
		 "theory": "DFT", 
		 "functional": "B3LYP", 
		 "basiset": "6-31G**", 
		 "properties": { 
			 "R2extent": 4537.4162, 
			 "electric_dipole_moment_norm": 5.72256325959, 
			 "electric_quadrupole_moment_norm": 22.6049497546, 
			 "total_energy": -904.682675062, 
			 "HOMO_LUMO_gap": 0.27113, 
			 "cosmo_polarized_energy": -14.97, 
			 "cosmo_cavitation_energy": 30.5, 
			 "cosmo_dispersion_energy": -21.59, 
			 "cosmo_repulsion_energy": 1.78, 
			 "cosmo_total_nonelectrostatic_energy": 10.69, 
			 "SMD_solvation_energy": 4.75 
		},
		"coords": [
			{
				"x": -1.3813925205,
				"y": 0.2434138247,
				"z": -2.7105445679,
				"element": "C" 
			},
			{
				"x": -2.0244191246,
				"y": -0.9655467339,
				"z": -2.0171987325,
				"element": "C" 
			},
			{
				"x": -1.0751430797,
				"y": -1.8306155603,
				"z": -1.1598873895,
				"element": "C" 
			},
			{
				"x": -0.8943491259,
				"y": -1.4060723018,
				"z": 0.3112925481,
				"element": "C" 
			},
			{
				"x": -0.1969607042,
				"y": -0.0635016466,
				"z": 0.5894376178,
				"element": "C" 
			},
			{
				"x": 1.2517135056,
				"y": 0.0352408099,
				"z": 0.0779409872,
				"element": "C" 
			},
			{
				"x": 2.1585446744,
				"y": -0.9683790246,
				"z": 0.6278615244,
				"element": "N" 
			},
			{
				"x": 2.9236528202,
				"y": -0.9135387612,
				"z": 1.7653534979,
				"element": "C" 
			},
			{
				"x": 3.5457801945,
				"y": -1.8785509007,
				"z": 2.1713126709,
				"element": "O" 
			},
			{
				"x": 2.9588443019,
				"y": 0.4641097476,
				"z": 2.4497472731,
				"element": "C" 
			},
			{
				"x": 3.9231163658,
				"y": 0.4531901242,
				"z": 3.9562302983,
				"element": "Cl" 
			},
			{
				"x": -0.5508528988,
				"y": -0.0709614201,
				"z": -3.3534774551,
				"element": "H" 
			},
			{
				"x": -0.9900390444,
				"y": 0.9781376835,
				"z": -2.0005601084,
				"element": "H" 
			},
			{
				"x": -2.1083792478,
				"y": 0.761315033,
				"z": -3.3450236045,
				"element": "H" 
			},
			{
				"x": -2.8685886886,
				"y": -0.632703723,
				"z": -1.3978732782,
				"element": "H" 
			},
			{
				"x": -2.4616233313,
				"y": -1.6037606618,
				"z": -2.795022189,
				"element": "H" 
			},
			{
				"x": -1.4671433701,
				"y": -2.8549947706,
				"z": -1.1418850753,
				"element": "H" 
			},
			{
				"x": -0.1002903483,
				"y": -1.9041664149,
				"z": -1.6633517125,
				"element": "H" 
			},
			{
				"x": -0.3390159206,
				"y": -2.1961366288,
				"z": 0.8334993803,
				"element": "H" 
			},
			{
				"x": -1.8836561928,
				"y": -1.3794571066,
				"z": 0.7861390217,
				"element": "H" 
			},
			{
				"x": -0.1982814869,
				"y": 0.1057754118,
				"z": 1.6741747335,
				"element": "H" 
			},
			{
				"x": -0.7687387556,
				"y": 0.764181353,
				"z": 0.153196543,
				"element": "H" 
			},
			{
				"x": 1.2744087588,
				"y": -0.0652117209,
				"z": -1.0121710982,
				"element": "H" 
			},
			{
				"x": 1.650551586,
				"y": 1.0309914537,
				"z": 0.2928411461,
				"element": "H" 
			},
			{
				"x": 2.1465112735,
				"y": -1.8933585337,
				"z": 0.2181432309,
				"element": "H" 
			},
			{
				"x": 1.9517204147,
				"y": 0.7976005507,
				"z": 2.7077497921,
				"element": "H" 
			},
			{
				"x": 3.4045299445,
				"y": 1.2046999173,
				"z": 1.7809749456,
				"element": "H" 
			}
		],
		 "valence_orbital": [ 
			{
				"type": "occ",
				"energy": -0.32178,
				"method": "rhf"
			},
			{
				"type": "occ",
				"energy": -0.29451,
				"method": "rhf"
			},
			{
				"type": "occ",
				"energy": -0.29413,
				"method": "rhf"
			},
			{
				"type": "occ",
				"energy": -0.25842,
				"method": "rhf"
			},
			{
				"type": "occ",
				"energy": -0.25464,
				"method": "rhf"
			},
			{
				"type": "unocc",
				"energy": 0.01649,
				"method": "rhf"
			},
			{
				"type": "unocc",
				"energy": 0.02531,
				"method": "rhf"
			},
			{
				"type": "unocc",
				"energy": 0.06443,
				"method": "rhf"
			},
			{
				"type": "unocc",
				"energy": 0.07281,
				"method": "rhf"
			},
			{
				"type": "unocc",
				"energy": 0.09092,
				"method": "rhf"
			}
		],
		"cosmo_sigma_profile": { 
			"-0.025": 0.0,
			"-0.024": 0.0,
			"-0.023": 0.0,
			"-0.022": 0.0,
			"-0.021": 0.0,
			"-0.02": 0.0,
			"-0.019": 0.0,
			"-0.018": 0.0,
			"-0.017": 0.0,
			"-0.016": 0.0,
			"-0.015": 0.0,
			"-0.014": 0.0,
			"-0.013": 0.403854310882,
			"-0.012": 0.63968045031,
			"-0.011": 0.929094469218,
			"-0.01": 0.91534266935,
			"-0.009": 4.48524579733,
			"-0.008": 7.06584563891,
			"-0.007": 8.46973524938,
			"-0.006": 6.69858823562,
			"-0.005": 6.68178245555,
			"-0.004": 10.6710476145,
			"-0.003": 15.4921666834,
			"-0.002": 27.9837923063,
			"-0.001": 30.8665898317,
			"0.0": 31.7122602217,
			"0.001": 24.2909742352,
			"0.002": 12.4007969731,
			"0.003": 5.70941599754,
			"0.004": 4.78522097179,
			"0.005": 6.94801711712,
			"0.006": 7.94839816639,
			"0.007": 3.31775635833,
			"0.008": 2.42036556682,
			"0.009": 1.33565207086,
			"0.01": 0.870384169383,
			"0.011": 2.3500951868,
			"0.012": 2.93654494604,
			"0.013": 4.85958014415,
			"0.014": 4.44650862151,
			"0.015": 1.24416349277,
			"0.016": 0.0,
			"0.017": 0.0,
			"0.018": 0.0,
			"0.019": 0.0,
			"0.02": 0.0,
			"0.021": 0.0,
			"0.022": 0.0,
			"0.023": 0.0,
			"0.024": 0.0,
			"0.025": 0.0
		}
	}
}
