{
	 "smiles": "OC(C1CCCCC1)(C1CCCCC1)C1CCCCC1", 
	 "Tm": 368.15, 
	 "num_atms": 54, 
	 "gaussian": { 
		 "optdone": 1, 
		 "sigma_profile": "yes", 
		 "theory": "DFT", 
		 "functional": "B3LYP", 
		 "basiset": "6-31G**", 
		 "properties": { 
			 "R2extent": 6496.6369, 
			 "electric_dipole_moment_norm": 1.27380401161, 
			 "electric_quadrupole_moment_norm": 3.20161547816, 
			 "total_energy": -819.744659553, 
			 "HOMO_LUMO_gap": 0.30991, 
			 "cosmo_polarized_energy": -4.71, 
			 "cosmo_cavitation_energy": 44.6, 
			 "cosmo_dispersion_energy": -31.59, 
			 "cosmo_repulsion_energy": 2.41, 
			 "cosmo_total_nonelectrostatic_energy": 15.42, 
			 "SMD_solvation_energy": 5.02 
		},
		"coords": [
			{
				"x": 1.130910263,
				"y": -0.7186472786,
				"z": -1.0863218354,
				"element": "O" 
			},
			{
				"x": -0.0099584662,
				"y": -0.4219000749,
				"z": -0.2544967486,
				"element": "C" 
			},
			{
				"x": 0.265609161,
				"y": -1.2885238905,
				"z": 1.0168576381,
				"element": "C" 
			},
			{
				"x": 0.4884331066,
				"y": -2.8045161513,
				"z": 0.6872749423,
				"element": "C" 
			},
			{
				"x": -0.4985244818,
				"y": -3.7405159139,
				"z": 1.4006097901,
				"element": "C" 
			},
			{
				"x": -0.4760409983,
				"y": -3.5477421197,
				"z": 2.9280206423,
				"element": "C" 
			},
			{
				"x": -0.4345423914,
				"y": -2.046618904,
				"z": 3.3285370288,
				"element": "C" 
			},
			{
				"x": -0.7683632609,
				"y": -1.1186359587,
				"z": 2.1491606013,
				"element": "C" 
			},
			{
				"x": 0.0189161127,
				"y": 1.1087992711,
				"z": 0.0777491314,
				"element": "C" 
			},
			{
				"x": 1.2422889443,
				"y": 1.5206395447,
				"z": 0.9371266628,
				"element": "C" 
			},
			{
				"x": 1.4549163452,
				"y": 3.0416595244,
				"z": 0.919406826,
				"element": "C" 
			},
			{
				"x": 1.8485571269,
				"y": 3.5474909041,
				"z": -0.4885488079,
				"element": "C" 
			},
			{
				"x": 1.3127751863,
				"y": 2.6123568695,
				"z": -1.5920457227,
				"element": "C" 
			},
			{
				"x": -0.0469314421,
				"y": 2.0085557872,
				"z": -1.2026070439,
				"element": "C" 
			},
			{
				"x": -1.3555474711,
				"y": -0.9069082619,
				"z": -0.9635539257,
				"element": "C" 
			},
			{
				"x": -2.6291831424,
				"y": -0.0581057064,
				"z": -0.682799698,
				"element": "C" 
			},
			{
				"x": -3.7882316265,
				"y": -0.3781909435,
				"z": -1.6624281502,
				"element": "C" 
			},
			{
				"x": -3.7313523066,
				"y": -1.8258159757,
				"z": -2.1604787339,
				"element": "C" 
			},
			{
				"x": -2.4277405095,
				"y": -2.0741816206,
				"z": -2.9554426722,
				"element": "C" 
			},
			{
				"x": -1.2614341585,
				"y": -1.1697383874,
				"z": -2.4845032161,
				"element": "C" 
			},
			{
				"x": 1.0294008324,
				"y": -0.2369079876,
				"z": -1.9163786064,
				"element": "H" 
			},
			{
				"x": 1.2175750779,
				"y": -0.9215257998,
				"z": 1.4113973059,
				"element": "H" 
			},
			{
				"x": 1.5064160206,
				"y": -3.0818208797,
				"z": 0.9865027843,
				"element": "H" 
			},
			{
				"x": 0.4527944541,
				"y": -2.9670753311,
				"z": -0.3928647834,
				"element": "H" 
			},
			{
				"x": -1.5148394909,
				"y": -3.5621539062,
				"z": 1.0255135946,
				"element": "H" 
			},
			{
				"x": -0.2681594073,
				"y": -4.7834667491,
				"z": 1.1522597462,
				"element": "H" 
			},
			{
				"x": 0.3981590849,
				"y": -4.0621310776,
				"z": 3.3452699616,
				"element": "H" 
			},
			{
				"x": -1.3535972264,
				"y": -4.0358496058,
				"z": 3.3681160574,
				"element": "H" 
			},
			{
				"x": -1.1208459216,
				"y": -1.8542271429,
				"z": 4.1608184695,
				"element": "H" 
			},
			{
				"x": 0.5668200535,
				"y": -1.7872609431,
				"z": 3.6958794463,
				"element": "H" 
			},
			{
				"x": -1.7810638498,
				"y": -1.3399079384,
				"z": 1.792104145,
				"element": "H" 
			},
			{
				"x": -0.7878380931,
				"y": -0.0795050519,
				"z": 2.4958498312,
				"element": "H" 
			},
			{
				"x": -0.8715852997,
				"y": 1.329050289,
				"z": 0.6758952748,
				"element": "H" 
			},
			{
				"x": 2.1408213843,
				"y": 1.0173092428,
				"z": 0.561176399,
				"element": "H" 
			},
			{
				"x": 1.1052690424,
				"y": 1.1873136407,
				"z": 1.9705883652,
				"element": "H" 
			},
			{
				"x": 2.2187346208,
				"y": 3.3257436938,
				"z": 1.6519773943,
				"element": "H" 
			},
			{
				"x": 0.5270394633,
				"y": 3.5304229759,
				"z": 1.2458493737,
				"element": "H" 
			},
			{
				"x": 1.4602039931,
				"y": 4.5623062135,
				"z": -0.6377096182,
				"element": "H" 
			},
			{
				"x": 2.9391830045,
				"y": 3.620959785,
				"z": -0.5732145434,
				"element": "H" 
			},
			{
				"x": 2.0315283514,
				"y": 1.8022620222,
				"z": -1.7636228518,
				"element": "H" 
			},
			{
				"x": 1.2265977181,
				"y": 3.1539966826,
				"z": -2.5412202036,
				"element": "H" 
			},
			{
				"x": -0.7514520775,
				"y": 2.8318854253,
				"z": -1.0275543017,
				"element": "H" 
			},
			{
				"x": -0.4599739773,
				"y": 1.4551730878,
				"z": -2.0516161472,
				"element": "H" 
			},
			{
				"x": -1.5520637375,
				"y": -1.8954329402,
				"z": -0.5334749313,
				"element": "H" 
			},
			{
				"x": -2.4137907907,
				"y": 1.0108590764,
				"z": -0.752801893,
				"element": "H" 
			},
			{
				"x": -2.9627812596,
				"y": -0.2329210303,
				"z": 0.3462304338,
				"element": "H" 
			},
			{
				"x": -3.7346268664,
				"y": 0.2929380424,
				"z": -2.5298620178,
				"element": "H" 
			},
			{
				"x": -4.7492792071,
				"y": -0.1690072162,
				"z": -1.1789401786,
				"element": "H" 
			},
			{
				"x": -4.6047906956,
				"y": -2.0578597843,
				"z": -2.7803181328,
				"element": "H" 
			},
			{
				"x": -3.7820532257,
				"y": -2.5039038208,
				"z": -1.2987442317,
				"element": "H" 
			},
			{
				"x": -2.6031801149,
				"y": -1.9008104973,
				"z": -4.023988522,
				"element": "H" 
			},
			{
				"x": -2.1360398344,
				"y": -3.126967118,
				"z": -2.8599666846,
				"element": "H" 
			},
			{
				"x": -1.2922079469,
				"y": -0.2217014756,
				"z": -3.0384638571,
				"element": "H" 
			},
			{
				"x": -0.3132300695,
				"y": -1.6516445956,
				"z": -2.7350037864,
				"element": "H" 
			}
		],
		 "valence_orbital": [ 
			{
				"type": "occ",
				"energy": -0.2906,
				"method": "rhf"
			},
			{
				"type": "occ",
				"energy": -0.28818,
				"method": "rhf"
			},
			{
				"type": "occ",
				"energy": -0.28674,
				"method": "rhf"
			},
			{
				"type": "occ",
				"energy": -0.2672,
				"method": "rhf"
			},
			{
				"type": "occ",
				"energy": -0.24767,
				"method": "rhf"
			},
			{
				"type": "unocc",
				"energy": 0.06224,
				"method": "rhf"
			},
			{
				"type": "unocc",
				"energy": 0.0743,
				"method": "rhf"
			},
			{
				"type": "unocc",
				"energy": 0.08282,
				"method": "rhf"
			},
			{
				"type": "unocc",
				"energy": 0.09552,
				"method": "rhf"
			},
			{
				"type": "unocc",
				"energy": 0.09959,
				"method": "rhf"
			}
		],
		"cosmo_sigma_profile": { 
			"-0.025": 0.0,
			"-0.024": 0.0,
			"-0.023": 0.0,
			"-0.022": 0.0,
			"-0.021": 0.0,
			"-0.02": 0.0,
			"-0.019": 0.0,
			"-0.018": 0.0,
			"-0.017": 0.0,
			"-0.016": 0.0,
			"-0.015": 0.0,
			"-0.014": 0.0,
			"-0.013": 0.0,
			"-0.012": 0.369135930441,
			"-0.011": 0.846057487186,
			"-0.01": 0.851460211367,
			"-0.009": 1.1331974572,
			"-0.008": 0.776260424997,
			"-0.007": 1.08531579136,
			"-0.006": 1.02583965271,
			"-0.005": 1.41992518916,
			"-0.004": 1.35108929422,
			"-0.003": 4.62436389063,
			"-0.002": 49.1182203246,
			"-0.001": 78.8301271458,
			"0.0": 87.0200906893,
			"0.001": 61.915242678,
			"0.002": 31.7375500265,
			"0.003": 2.8135101422,
			"0.004": 2.40208421756,
			"0.005": 1.55388395003,
			"0.006": 1.29519184726,
			"0.007": 1.08784485958,
			"0.008": 1.3115040644,
			"0.009": 1.12819881106,
			"0.01": 1.33820866167,
			"0.011": 1.11593587904,
			"0.012": 1.01811663861,
			"0.013": 1.02805676775,
			"0.014": 1.21636814613,
			"0.015": 0.157854831358,
			"0.016": 0.0,
			"0.017": 0.0,
			"0.018": 0.0,
			"0.019": 0.0,
			"0.02": 0.0,
			"0.021": 0.0,
			"0.022": 0.0,
			"0.023": 0.0,
			"0.024": 0.0,
			"0.025": 0.0
		}
	}
}
