{
	 "smiles": "CC1=C(C=NN1C1=CC=C(F)C=C1)C(O)=O", 
	 "Tm": 439.15, 
	 "num_atms": 25, 
	 "gaussian": { 
		 "optdone": 1, 
		 "sigma_profile": "yes", 
		 "theory": "DFT", 
		 "functional": "B3LYP", 
		 "basiset": "6-31G**", 
		 "properties": { 
			 "R2extent": 4811.2612, 
			 "electric_dipole_moment_norm": 3.39913947051, 
			 "electric_quadrupole_moment_norm": 12.5109644984, 
			 "total_energy": -784.382234074, 
			 "HOMO_LUMO_gap": 0.20327, 
			 "cosmo_polarized_energy": -13.28, 
			 "cosmo_cavitation_energy": 30.42, 
			 "cosmo_dispersion_energy": -21.88, 
			 "cosmo_repulsion_energy": 1.66, 
			 "cosmo_total_nonelectrostatic_energy": 10.21, 
			 "SMD_solvation_energy": 6.36 
		},
		"coords": [
			{
				"x": 0.8242300744,
				"y": 0.9748160498,
				"z": 1.031786949,
				"element": "C" 
			},
			{
				"x": 0.5899465471,
				"y": -0.4332162949,
				"z": 0.583152313,
				"element": "C" 
			},
			{
				"x": 0.8150637568,
				"y": -1.6469873012,
				"z": 1.2376948224,
				"element": "C" 
			},
			{
				"x": 0.4747794894,
				"y": -2.6475096584,
				"z": 0.292358643,
				"element": "C" 
			},
			{
				"x": 0.0667990593,
				"y": -2.1297314963,
				"z": -0.8504182413,
				"element": "N" 
			},
			{
				"x": 0.1302266116,
				"y": -0.772379011,
				"z": -0.6597000009,
				"element": "N" 
			},
			{
				"x": -0.2293134946,
				"y": 0.0736303866,
				"z": -1.7483918845,
				"element": "C" 
			},
			{
				"x": -1.0327571235,
				"y": 1.2010523981,
				"z": -1.5509729688,
				"element": "C" 
			},
			{
				"x": -1.3744286497,
				"y": 2.0118747916,
				"z": -2.6330527544,
				"element": "C" 
			},
			{
				"x": -0.9240318788,
				"y": 1.6644602211,
				"z": -3.9009774236,
				"element": "C" 
			},
			{
				"x": -1.2575642717,
				"y": 2.442390094,
				"z": -4.9492099392,
				"element": "F" 
			},
			{
				"x": -0.1448763807,
				"y": 0.5323710827,
				"z": -4.1205525154,
				"element": "C" 
			},
			{
				"x": 0.2065651528,
				"y": -0.2645788269,
				"z": -3.0351129301,
				"element": "C" 
			},
			{
				"x": 1.3027099358,
				"y": -1.9347254317,
				"z": 2.5851748336,
				"element": "C" 
			},
			{
				"x": 1.5477309886,
				"y": -0.8207072101,
				"z": 3.3318832014,
				"element": "O" 
			},
			{
				"x": 1.480923506,
				"y": -3.0526902097,
				"z": 3.0306060815,
				"element": "O" 
			},
			{
				"x": 1.6268498778,
				"y": 0.9917146747,
				"z": 1.7685663289,
				"element": "H" 
			},
			{
				"x": -0.063991756,
				"y": 1.3994907622,
				"z": 1.5142633765,
				"element": "H" 
			},
			{
				"x": 1.0896264787,
				"y": 1.6194613071,
				"z": 0.1903436419,
				"element": "H" 
			},
			{
				"x": 0.5188551182,
				"y": -3.718719683,
				"z": 0.431156227,
				"element": "H" 
			},
			{
				"x": -1.410429423,
				"y": 1.4356424663,
				"z": -0.5626464038,
				"element": "H" 
			},
			{
				"x": -1.9962664263,
				"y": 2.8908960385,
				"z": -2.505735045,
				"element": "H" 
			},
			{
				"x": 0.179878266,
				"y": 0.2917396319,
				"z": -5.1267475652,
				"element": "H" 
			},
			{
				"x": 0.8066956149,
				"y": -1.156371686,
				"z": -3.1703509744,
				"element": "H" 
			},
			{
				"x": 1.8670789269,
				"y": -1.1523230953,
				"z": 4.1875822284,
				"element": "H" 
			}
		],
		 "valence_orbital": [ 
			{
				"type": "occ",
				"energy": -0.28844,
				"method": "rhf"
			},
			{
				"type": "occ",
				"energy": -0.27648,
				"method": "rhf"
			},
			{
				"type": "occ",
				"energy": -0.27423,
				"method": "rhf"
			},
			{
				"type": "occ",
				"energy": -0.25442,
				"method": "rhf"
			},
			{
				"type": "occ",
				"energy": -0.23995,
				"method": "rhf"
			},
			{
				"type": "unocc",
				"energy": -0.03668,
				"method": "rhf"
			},
			{
				"type": "unocc",
				"energy": -0.02709,
				"method": "rhf"
			},
			{
				"type": "unocc",
				"energy": -0.00913,
				"method": "rhf"
			},
			{
				"type": "unocc",
				"energy": 0.02203,
				"method": "rhf"
			},
			{
				"type": "unocc",
				"energy": 0.07215,
				"method": "rhf"
			}
		],
		"cosmo_sigma_profile": { 
			"-0.025": 0.0,
			"-0.024": 0.0,
			"-0.023": 0.0,
			"-0.022": 0.0,
			"-0.021": 0.0,
			"-0.02": 0.0,
			"-0.019": 0.0,
			"-0.018": 0.44521825333,
			"-0.017": 0.846045514041,
			"-0.016": 1.05043051683,
			"-0.015": 0.669172013951,
			"-0.014": 0.728301604908,
			"-0.013": 0.716086292442,
			"-0.012": 0.419849569545,
			"-0.011": 0.691027865066,
			"-0.01": 1.371253351,
			"-0.009": 0.514272074764,
			"-0.008": 5.86495892407,
			"-0.007": 8.99574029217,
			"-0.006": 13.2343641266,
			"-0.005": 12.7460119216,
			"-0.004": 11.4929002704,
			"-0.003": 14.4426060855,
			"-0.002": 17.1276073999,
			"-0.001": 19.4729259808,
			"0.0": 20.7446321872,
			"0.001": 21.8521194019,
			"0.002": 22.1589596271,
			"0.003": 17.0599477059,
			"0.004": 15.5408695104,
			"0.005": 6.4408684227,
			"0.006": 4.83333506195,
			"0.007": 3.05633311688,
			"0.008": 2.69309034594,
			"0.009": 3.44238436854,
			"0.01": 2.50349327757,
			"0.011": 3.76149152752,
			"0.012": 6.59501939608,
			"0.013": 1.92406654903,
			"0.014": 0.652618952545,
			"0.015": 0.0678331068928,
			"0.016": 0.0,
			"0.017": 0.0,
			"0.018": 0.0,
			"0.019": 0.0,
			"0.02": 0.0,
			"0.021": 0.0,
			"0.022": 0.0,
			"0.023": 0.0,
			"0.024": 0.0,
			"0.025": 0.0
		}
	}
}
