{
	 "smiles": "CC1=NC2=C(C=CC=C2[N+]([O-])=O)C(Cl)=C1", 
	 "Tm": 383.15, 
	 "num_atms": 22, 
	 "gaussian": { 
		 "optdone": 1, 
		 "sigma_profile": "yes", 
		 "theory": "DFT", 
		 "functional": "B3LYP", 
		 "basiset": "6-31G**", 
		 "properties": { 
			 "R2extent": 3541.3342, 
			 "electric_dipole_moment_norm": 3.99100737158, 
			 "electric_quadrupole_moment_norm": 19.0442648377, 
			 "total_energy": -1105.32760437, 
			 "HOMO_LUMO_gap": 0.17247, 
			 "cosmo_polarized_energy": -11.14, 
			 "cosmo_cavitation_energy": 29.29, 
			 "cosmo_dispersion_energy": -21.0, 
			 "cosmo_repulsion_energy": 1.65, 
			 "cosmo_total_nonelectrostatic_energy": 9.93, 
			 "SMD_solvation_energy": 6.21 
		},
		"coords": [
			{
				"x": 1.291547113,
				"y": 3.4833947719,
				"z": 1.0478322669,
				"element": "C" 
			},
			{
				"x": 0.9648805049,
				"y": 2.0320459338,
				"z": 0.8115886537,
				"element": "C" 
			},
			{
				"x": -0.2211619073,
				"y": 1.7409673185,
				"z": 0.312456951,
				"element": "N" 
			},
			{
				"x": -0.5273780876,
				"y": 0.4352298156,
				"z": 0.0950302526,
				"element": "C" 
			},
			{
				"x": 0.3542685872,
				"y": -0.6587628273,
				"z": 0.3717677592,
				"element": "C" 
			},
			{
				"x": -0.0646765899,
				"y": -1.9864666012,
				"z": 0.1073010493,
				"element": "C" 
			},
			{
				"x": -1.3157517636,
				"y": -2.2330715624,
				"z": -0.4148808209,
				"element": "C" 
			},
			{
				"x": -2.2027658374,
				"y": -1.1694518271,
				"z": -0.6959682482,
				"element": "C" 
			},
			{
				"x": -1.8018414749,
				"y": 0.1179931125,
				"z": -0.4416473317,
				"element": "C" 
			},
			{
				"x": -2.7234157705,
				"y": 1.233184519,
				"z": -0.7329018927,
				"element": "N" 
			},
			{
				"x": -3.4841901452,
				"y": 1.5714106764,
				"z": 0.1664344975,
				"element": "O" 
			},
			{
				"x": -2.6690762725,
				"y": 1.7163243353,
				"z": -1.8578958391,
				"element": "O" 
			},
			{
				"x": 1.6209620299,
				"y": -0.2883171454,
				"z": 0.9091513191,
				"element": "C" 
			},
			{
				"x": 2.8032867997,
				"y": -1.5214490116,
				"z": 1.297215857,
				"element": "Cl" 
			},
			{
				"x": 1.928120178,
				"y": 1.0294762868,
				"z": 1.1278030274,
				"element": "C" 
			},
			{
				"x": 0.4447896689,
				"y": 4.1029380852,
				"z": 0.7510751436,
				"element": "H" 
			},
			{
				"x": 2.174136493,
				"y": 3.7848581757,
				"z": 0.4722146994,
				"element": "H" 
			},
			{
				"x": 1.5159382306,
				"y": 3.6672513535,
				"z": 2.1047288726,
				"element": "H" 
			},
			{
				"x": 0.6125435668,
				"y": -2.8051899493,
				"z": 0.3214163923,
				"element": "H" 
			},
			{
				"x": -1.6300272799,
				"y": -3.252120993,
				"z": -0.614956389,
				"element": "H" 
			},
			{
				"x": -3.1878202859,
				"y": -1.3634103264,
				"z": -1.1071048025,
				"element": "H" 
			},
			{
				"x": 2.8922322427,
				"y": 1.3100658594,
				"z": 1.5367385826,
				"element": "H" 
			}
		],
		 "valence_orbital": [ 
			{
				"type": "occ",
				"energy": -0.30257,
				"method": "rhf"
			},
			{
				"type": "occ",
				"energy": -0.29021,
				"method": "rhf"
			},
			{
				"type": "occ",
				"energy": -0.27752,
				"method": "rhf"
			},
			{
				"type": "occ",
				"energy": -0.27394,
				"method": "rhf"
			},
			{
				"type": "occ",
				"energy": -0.25056,
				"method": "rhf"
			},
			{
				"type": "unocc",
				"energy": -0.07809,
				"method": "rhf"
			},
			{
				"type": "unocc",
				"energy": -0.06561,
				"method": "rhf"
			},
			{
				"type": "unocc",
				"energy": -0.0437,
				"method": "rhf"
			},
			{
				"type": "unocc",
				"energy": -0.00312,
				"method": "rhf"
			},
			{
				"type": "unocc",
				"energy": 0.01158,
				"method": "rhf"
			}
		],
		"cosmo_sigma_profile": { 
			"-0.025": 0.0,
			"-0.024": 0.0,
			"-0.023": 0.0,
			"-0.022": 0.0,
			"-0.021": 0.0,
			"-0.02": 0.0,
			"-0.019": 0.0,
			"-0.018": 0.0,
			"-0.017": 0.0,
			"-0.016": 0.0,
			"-0.015": 0.0,
			"-0.014": 0.0,
			"-0.013": 0.0,
			"-0.012": 0.0,
			"-0.011": 0.312854110184,
			"-0.01": 1.36961929272,
			"-0.009": 2.57714685407,
			"-0.008": 5.1153356987,
			"-0.007": 8.55311892984,
			"-0.006": 10.3281755192,
			"-0.005": 13.4307998766,
			"-0.004": 11.8596378846,
			"-0.003": 12.6888582612,
			"-0.002": 19.8013576566,
			"-0.001": 30.3279428548,
			"0.0": 24.3329435784,
			"0.001": 17.8357113927,
			"0.002": 15.6119763364,
			"0.003": 11.9813047005,
			"0.004": 7.36957212682,
			"0.005": 5.86049074453,
			"0.006": 9.87468351403,
			"0.007": 14.0296883118,
			"0.008": 8.65161423108,
			"0.009": 4.97871164357,
			"0.01": 0.919429526726,
			"0.011": 0.0,
			"0.012": 0.0,
			"0.013": 0.0,
			"0.014": 0.0,
			"0.015": 0.0,
			"0.016": 0.0,
			"0.017": 0.0,
			"0.018": 0.0,
			"0.019": 0.0,
			"0.02": 0.0,
			"0.021": 0.0,
			"0.022": 0.0,
			"0.023": 0.0,
			"0.024": 0.0,
			"0.025": 0.0
		}
	}
}
