{
	 "smiles": "O=CC1=CN(CCC#N)N=C1C1=CC=CC=C1", 
	 "Tm": 348.15, 
	 "num_atms": 28, 
	 "gaussian": { 
		 "optdone": 1, 
		 "sigma_profile": "yes", 
		 "theory": "DFT", 
		 "functional": "B3LYP", 
		 "basiset": "6-31G**", 
		 "properties": { 
			 "R2extent": 5151.9765, 
			 "electric_dipole_moment_norm": 3.52391670872, 
			 "electric_quadrupole_moment_norm": 33.2041136557, 
			 "total_energy": -741.446674886, 
			 "HOMO_LUMO_gap": 0.18401, 
			 "cosmo_polarized_energy": -22.61, 
			 "cosmo_cavitation_energy": 34.38, 
			 "cosmo_dispersion_energy": -23.27, 
			 "cosmo_repulsion_energy": 1.83, 
			 "cosmo_total_nonelectrostatic_energy": 12.94, 
			 "SMD_solvation_energy": 7.4 
		},
		"coords": [
			{
				"x": 2.4426363817,
				"y": 2.744843631,
				"z": -1.1445211361,
				"element": "O" 
			},
			{
				"x": 2.3077484971,
				"y": 1.6595239208,
				"z": -0.6009428849,
				"element": "C" 
			},
			{
				"x": 1.2585366498,
				"y": 1.3730048983,
				"z": 0.3776620238,
				"element": "C" 
			},
			{
				"x": 0.4024054412,
				"y": 2.3330490235,
				"z": 0.9028302394,
				"element": "C" 
			},
			{
				"x": -0.335559185,
				"y": 1.7227567098,
				"z": 1.8531418093,
				"element": "N" 
			},
			{
				"x": -1.4136275463,
				"y": 2.2848203808,
				"z": 2.6465287204,
				"element": "C" 
			},
			{
				"x": -2.7889646693,
				"y": 2.2375855604,
				"z": 1.9447828713,
				"element": "C" 
			},
			{
				"x": -3.3189671587,
				"y": 0.8859408817,
				"z": 1.7489034854,
				"element": "C" 
			},
			{
				"x": -3.7674084346,
				"y": -0.1728809698,
				"z": 1.5962405333,
				"element": "N" 
			},
			{
				"x": -0.0310019882,
				"y": 0.4042927361,
				"z": 1.9851229242,
				"element": "N" 
			},
			{
				"x": 0.9359996474,
				"y": 0.1728074197,
				"z": 1.0949326107,
				"element": "C" 
			},
			{
				"x": 1.5191917924,
				"y": -1.1763758994,
				"z": 0.9776058607,
				"element": "C" 
			},
			{
				"x": 1.6462749012,
				"y": -1.983234773,
				"z": 2.120613656,
				"element": "C" 
			},
			{
				"x": 2.1877856775,
				"y": -3.2627927649,
				"z": 2.0257933175,
				"element": "C" 
			},
			{
				"x": 2.6114572368,
				"y": -3.7583636756,
				"z": 0.7899627254,
				"element": "C" 
			},
			{
				"x": 2.4787156233,
				"y": -2.969243305,
				"z": -0.3533325257,
				"element": "C" 
			},
			{
				"x": 1.9325195949,
				"y": -1.6890439763,
				"z": -0.2625658317,
				"element": "C" 
			},
			{
				"x": 3.0053404773,
				"y": 0.826021555,
				"z": -0.8163503809,
				"element": "H" 
			},
			{
				"x": 0.3127430184,
				"y": 3.3839145721,
				"z": 0.66887683,
				"element": "H" 
			},
			{
				"x": -1.171022979,
				"y": 3.3288699459,
				"z": 2.8625507727,
				"element": "H" 
			},
			{
				"x": -1.4424143532,
				"y": 1.7304373949,
				"z": 3.5857331481,
				"element": "H" 
			},
			{
				"x": -3.5064786735,
				"y": 2.803518052,
				"z": 2.550687312,
				"element": "H" 
			},
			{
				"x": -2.7270570987,
				"y": 2.7370321656,
				"z": 0.9713911047,
				"element": "H" 
			},
			{
				"x": 1.3176063784,
				"y": -1.5921948596,
				"z": 3.0776233542,
				"element": "H" 
			},
			{
				"x": 2.2827931375,
				"y": -3.8740246243,
				"z": 2.9186610417,
				"element": "H" 
			},
			{
				"x": 3.0359965267,
				"y": -4.755484463,
				"z": 0.7181615755,
				"element": "H" 
			},
			{
				"x": 2.7892896778,
				"y": -3.3533220027,
				"z": -1.3206062054,
				"element": "H" 
			},
			{
				"x": 1.7957614272,
				"y": -1.0995575339,
				"z": -1.1635869517,
				"element": "H" 
			}
		],
		 "valence_orbital": [ 
			{
				"type": "occ",
				"energy": -0.29291,
				"method": "rhf"
			},
			{
				"type": "occ",
				"energy": -0.26462,
				"method": "rhf"
			},
			{
				"type": "occ",
				"energy": -0.25683,
				"method": "rhf"
			},
			{
				"type": "occ",
				"energy": -0.24906,
				"method": "rhf"
			},
			{
				"type": "occ",
				"energy": -0.23594,
				"method": "rhf"
			},
			{
				"type": "unocc",
				"energy": -0.05193,
				"method": "rhf"
			},
			{
				"type": "unocc",
				"energy": -0.02806,
				"method": "rhf"
			},
			{
				"type": "unocc",
				"energy": -0.00572,
				"method": "rhf"
			},
			{
				"type": "unocc",
				"energy": 0.01642,
				"method": "rhf"
			},
			{
				"type": "unocc",
				"energy": 0.02584,
				"method": "rhf"
			}
		],
		"cosmo_sigma_profile": { 
			"-0.025": 0.0,
			"-0.024": 0.0,
			"-0.023": 0.0,
			"-0.022": 0.0,
			"-0.021": 0.0,
			"-0.02": 0.0,
			"-0.019": 0.0,
			"-0.018": 0.0,
			"-0.017": 0.0,
			"-0.016": 0.0,
			"-0.015": 0.0,
			"-0.014": 0.0,
			"-0.013": 0.0,
			"-0.012": 0.00331635800012,
			"-0.011": 1.79276979878,
			"-0.01": 4.66054559573,
			"-0.009": 13.5429311035,
			"-0.008": 12.3093482497,
			"-0.007": 9.89826993907,
			"-0.006": 18.1315963866,
			"-0.005": 18.1858023565,
			"-0.004": 17.7005256367,
			"-0.003": 14.5222530906,
			"-0.002": 11.6129376639,
			"-0.001": 14.7952018415,
			"0.0": 13.1116968995,
			"0.001": 18.6530875741,
			"0.002": 13.1301599384,
			"0.003": 12.8819506161,
			"0.004": 14.4218153194,
			"0.005": 15.7839718584,
			"0.006": 6.8051022014,
			"0.007": 5.00337701112,
			"0.008": 6.75448619179,
			"0.009": 7.62118624462,
			"0.01": 6.27356570219,
			"0.011": 7.05605659907,
			"0.012": 7.50528114874,
			"0.013": 4.08560773709,
			"0.014": 0.364266826391,
			"0.015": 0.0,
			"0.016": 0.0,
			"0.017": 0.0,
			"0.018": 0.0,
			"0.019": 0.0,
			"0.02": 0.0,
			"0.021": 0.0,
			"0.022": 0.0,
			"0.023": 0.0,
			"0.024": 0.0,
			"0.025": 0.0
		}
	}
}
