{
	 "smiles": "CC(OC1=CC=C(O)C=C1)C(O)=O", 
	 "Tm": 418.15, 
	 "num_atms": 23, 
	 "gaussian": { 
		 "optdone": 1, 
		 "sigma_profile": "yes", 
		 "theory": "DFT", 
		 "functional": "B3LYP", 
		 "basiset": "6-31G**", 
		 "properties": { 
			 "R2extent": 2991.5942, 
			 "electric_dipole_moment_norm": 3.95717564179, 
			 "electric_quadrupole_moment_norm": 21.5195520139, 
			 "total_energy": -649.866755456, 
			 "HOMO_LUMO_gap": 0.19455, 
			 "cosmo_polarized_energy": -22.94, 
			 "cosmo_cavitation_energy": 27.58, 
			 "cosmo_dispersion_energy": -19.76, 
			 "cosmo_repulsion_energy": 1.59, 
			 "cosmo_total_nonelectrostatic_energy": 9.41, 
			 "SMD_solvation_energy": 6.3 
		},
		"coords": [
			{
				"x": -3.1725760954,
				"y": -0.4517462801,
				"z": 1.6216293316,
				"element": "C" 
			},
			{
				"x": -1.6977915669,
				"y": -0.717896573,
				"z": 1.3062082362,
				"element": "C" 
			},
			{
				"x": -1.2587030131,
				"y": 0.3452504239,
				"z": 0.4955348008,
				"element": "O" 
			},
			{
				"x": -0.047083618,
				"y": 0.2418196594,
				"z": -0.1539529357,
				"element": "C" 
			},
			{
				"x": 0.2681590228,
				"y": 1.3043501848,
				"z": -1.0062709695,
				"element": "C" 
			},
			{
				"x": 1.4570979026,
				"y": 1.2982171816,
				"z": -1.7285826678,
				"element": "C" 
			},
			{
				"x": 2.3493154041,
				"y": 0.2257232143,
				"z": -1.6095985301,
				"element": "C" 
			},
			{
				"x": 3.532662935,
				"y": 0.1621267301,
				"z": -2.296827516,
				"element": "O" 
			},
			{
				"x": 2.0361425551,
				"y": -0.8331220546,
				"z": -0.7568361144,
				"element": "C" 
			},
			{
				"x": 0.8444358703,
				"y": -0.8282982066,
				"z": -0.0295351356,
				"element": "C" 
			},
			{
				"x": -0.8947221456,
				"y": -0.7959485947,
				"z": 2.6217170684,
				"element": "C" 
			},
			{
				"x": -0.9401496579,
				"y": -2.0076052799,
				"z": 3.2438272843,
				"element": "O" 
			},
			{
				"x": -0.3078136759,
				"y": 0.128410161,
				"z": 3.1137400519,
				"element": "O" 
			},
			{
				"x": -3.5867561756,
				"y": -1.2379324831,
				"z": 2.2598658564,
				"element": "H" 
			},
			{
				"x": -3.7465256447,
				"y": -0.4102962021,
				"z": 0.6930778844,
				"element": "H" 
			},
			{
				"x": -3.2679760043,
				"y": 0.5060095363,
				"z": 2.1390156592,
				"element": "H" 
			},
			{
				"x": -1.5998500674,
				"y": -1.6733957084,
				"z": 0.7639087565,
				"element": "H" 
			},
			{
				"x": -0.4312470852,
				"y": 2.1293249537,
				"z": -1.0905432964,
				"element": "H" 
			},
			{
				"x": 1.6902925833,
				"y": 2.1316526263,
				"z": -2.3880308,
				"element": "H" 
			},
			{
				"x": 3.6323816809,
				"y": 0.9630569821,
				"z": -2.8267471299,
				"element": "H" 
			},
			{
				"x": 2.736635223,
				"y": -1.6560002252,
				"z": -0.6620372248,
				"element": "H" 
			},
			{
				"x": 0.642756588,
				"y": -1.6589301928,
				"z": 0.6369525472,
				"element": "H" 
			},
			{
				"x": -1.4255850153,
				"y": -2.6497698531,
				"z": 2.7057848432,
				"element": "H" 
			}
		],
		 "valence_orbital": [ 
			{
				"type": "occ",
				"energy": -0.32285,
				"method": "rhf"
			},
			{
				"type": "occ",
				"energy": -0.30501,
				"method": "rhf"
			},
			{
				"type": "occ",
				"energy": -0.27385,
				"method": "rhf"
			},
			{
				"type": "occ",
				"energy": -0.25452,
				"method": "rhf"
			},
			{
				"type": "occ",
				"energy": -0.20375,
				"method": "rhf"
			},
			{
				"type": "unocc",
				"energy": -0.0092,
				"method": "rhf"
			},
			{
				"type": "unocc",
				"energy": 0.00348,
				"method": "rhf"
			},
			{
				"type": "unocc",
				"energy": 0.02316,
				"method": "rhf"
			},
			{
				"type": "unocc",
				"energy": 0.03885,
				"method": "rhf"
			},
			{
				"type": "unocc",
				"energy": 0.07107,
				"method": "rhf"
			}
		],
		"cosmo_sigma_profile": { 
			"-0.025": 0.0,
			"-0.024": 0.0,
			"-0.023": 0.0,
			"-0.022": 0.0,
			"-0.021": 0.0,
			"-0.02": 0.267479718273,
			"-0.019": 1.08282266275,
			"-0.018": 1.618194406,
			"-0.017": 2.51604794017,
			"-0.016": 2.00716005855,
			"-0.015": 1.54878285698,
			"-0.014": 2.00956734271,
			"-0.013": 2.64351242475,
			"-0.012": 3.22282962891,
			"-0.011": 2.50940079739,
			"-0.01": 1.4897972353,
			"-0.009": 2.72647011994,
			"-0.008": 4.00746560905,
			"-0.007": 4.87778962756,
			"-0.006": 9.24027555452,
			"-0.005": 13.2000920799,
			"-0.004": 14.9748650325,
			"-0.003": 12.1944524151,
			"-0.002": 10.4660300507,
			"-0.001": 12.5276048329,
			"0.0": 8.21128936413,
			"0.001": 6.92663552307,
			"0.002": 7.55387697022,
			"0.003": 11.1808542277,
			"0.004": 15.1912444162,
			"0.005": 16.3591757164,
			"0.006": 7.02508489408,
			"0.007": 5.71050605828,
			"0.008": 5.62951759386,
			"0.009": 7.13082535174,
			"0.01": 7.73850890102,
			"0.011": 8.09942487573,
			"0.012": 5.69796535141,
			"0.013": 0.683775312232,
			"0.014": 0.0,
			"0.015": 0.0,
			"0.016": 0.0,
			"0.017": 0.0,
			"0.018": 0.0,
			"0.019": 0.0,
			"0.02": 0.0,
			"0.021": 0.0,
			"0.022": 0.0,
			"0.023": 0.0,
			"0.024": 0.0,
			"0.025": 0.0
		}
	}
}
