{
	 "smiles": "NC(=S)NC1=CC=C(C=C1)C(O)=O", 
	 "Tm": 528.15, 
	 "num_atms": 21, 
	 "gaussian": { 
		 "optdone": 1, 
		 "sigma_profile": "yes", 
		 "theory": "DFT", 
		 "functional": "B3LYP", 
		 "basiset": "6-31G**", 
		 "properties": { 
			 "R2extent": 4577.8259, 
			 "electric_dipole_moment_norm": 3.85144238176, 
			 "electric_quadrupole_moment_norm": 24.9845452806, 
			 "total_energy": -967.848653443, 
			 "HOMO_LUMO_gap": 0.1501, 
			 "cosmo_polarized_energy": -21.92, 
			 "cosmo_cavitation_energy": 27.79, 
			 "cosmo_dispersion_energy": -21.03, 
			 "cosmo_repulsion_energy": 1.63, 
			 "cosmo_total_nonelectrostatic_energy": 8.39, 
			 "SMD_solvation_energy": 5.14 
		},
		"coords": [
			{
				"x": -4.2918662698,
				"y": -0.0546483319,
				"z": 0.2668178057,
				"element": "N" 
			},
			{
				"x": -3.7054516115,
				"y": -1.0919402054,
				"z": 0.9225253225,
				"element": "C" 
			},
			{
				"x": -4.588269531,
				"y": -2.2349841459,
				"z": 1.7753366007,
				"element": "S" 
			},
			{
				"x": -2.334491402,
				"y": -1.1759445917,
				"z": 0.864271819,
				"element": "N" 
			},
			{
				"x": -1.3732479551,
				"y": -0.299571704,
				"z": 0.3274219202,
				"element": "C" 
			},
			{
				"x": -0.1827286481,
				"y": -0.8596899523,
				"z": -0.1722894929,
				"element": "C" 
			},
			{
				"x": 0.8171034528,
				"y": -0.0443981382,
				"z": -0.6798063758,
				"element": "C" 
			},
			{
				"x": 0.6534155222,
				"y": 1.3484384517,
				"z": -0.7093627933,
				"element": "C" 
			},
			{
				"x": -0.5247978692,
				"y": 1.9081947614,
				"z": -0.1993820743,
				"element": "C" 
			},
			{
				"x": -1.5283959049,
				"y": 1.0984999666,
				"z": 0.3244810537,
				"element": "C" 
			},
			{
				"x": 1.7506180497,
				"y": 2.171405307,
				"z": -1.2743815769,
				"element": "C" 
			},
			{
				"x": 1.4802918073,
				"y": 3.5013898843,
				"z": -1.2570094973,
				"element": "O" 
			},
			{
				"x": 2.7936995189,
				"y": 1.7293239114,
				"z": -1.7151459801,
				"element": "O" 
			},
			{
				"x": -3.8043203722,
				"y": 0.4190378153,
				"z": -0.4815445311,
				"element": "H" 
			},
			{
				"x": -5.2979332625,
				"y": -0.098468375,
				"z": 0.2113180596,
				"element": "H" 
			},
			{
				"x": -1.9903539014,
				"y": -2.0428982599,
				"z": 1.2547576789,
				"element": "H" 
			},
			{
				"x": -0.0585881369,
				"y": -1.9389556908,
				"z": -0.1678605761,
				"element": "H" 
			},
			{
				"x": 1.7356426728,
				"y": -0.4680607271,
				"z": -1.0713966803,
				"element": "H" 
			},
			{
				"x": -0.6465669303,
				"y": 2.9854179539,
				"z": -0.1945021175,
				"element": "H" 
			},
			{
				"x": -2.4085197805,
				"y": 1.5496262551,
				"z": 0.7668829043,
				"element": "H" 
			},
			{
				"x": 2.2598605517,
				"y": 3.9341258156,
				"z": -1.642031469,
				"element": "H" 
			}
		],
		 "valence_orbital": [ 
			{
				"type": "occ",
				"energy": -0.28489,
				"method": "rhf"
			},
			{
				"type": "occ",
				"energy": -0.28014,
				"method": "rhf"
			},
			{
				"type": "occ",
				"energy": -0.25819,
				"method": "rhf"
			},
			{
				"type": "occ",
				"energy": -0.22116,
				"method": "rhf"
			},
			{
				"type": "occ",
				"energy": -0.21514,
				"method": "rhf"
			},
			{
				"type": "unocc",
				"energy": -0.06504,
				"method": "rhf"
			},
			{
				"type": "unocc",
				"energy": -0.03054,
				"method": "rhf"
			},
			{
				"type": "unocc",
				"energy": -0.00825,
				"method": "rhf"
			},
			{
				"type": "unocc",
				"energy": 0.0477,
				"method": "rhf"
			},
			{
				"type": "unocc",
				"energy": 0.06173,
				"method": "rhf"
			}
		],
		"cosmo_sigma_profile": { 
			"-0.025": 0.0,
			"-0.024": 0.0,
			"-0.023": 0.0,
			"-0.022": 0.0,
			"-0.021": 0.0,
			"-0.02": 0.0,
			"-0.019": 0.00382787250543,
			"-0.018": 0.552012417652,
			"-0.017": 1.26321983138,
			"-0.016": 0.748591571383,
			"-0.015": 1.88635156721,
			"-0.014": 4.04337688622,
			"-0.013": 3.92733903519,
			"-0.012": 4.09388302431,
			"-0.011": 4.54683462449,
			"-0.01": 3.87036016941,
			"-0.009": 4.15442947632,
			"-0.008": 3.79732107394,
			"-0.007": 7.47816825233,
			"-0.006": 9.45180701781,
			"-0.005": 9.0104078994,
			"-0.004": 8.42758913248,
			"-0.003": 9.1018185816,
			"-0.002": 11.1818566124,
			"-0.001": 12.4702651286,
			"0.0": 14.6354456037,
			"0.001": 15.6672385143,
			"0.002": 16.402296573,
			"0.003": 13.0002295079,
			"0.004": 6.23402165645,
			"0.005": 6.64473743516,
			"0.006": 7.07548056084,
			"0.007": 6.02323602789,
			"0.008": 5.41331155475,
			"0.009": 6.55293786414,
			"0.01": 7.99361158158,
			"0.011": 11.4023839585,
			"0.012": 7.49020740038,
			"0.013": 0.189045396743,
			"0.014": 0.0,
			"0.015": 0.0,
			"0.016": 0.0,
			"0.017": 0.0,
			"0.018": 0.0,
			"0.019": 0.0,
			"0.02": 0.0,
			"0.021": 0.0,
			"0.022": 0.0,
			"0.023": 0.0,
			"0.024": 0.0,
			"0.025": 0.0
		}
	}
}
