{
	 "smiles": "CCCC1C2=C(OC(=O)C1(C)C)C1=CC=C(OC)C=C1CC2", 
	 "Tm": 402.15, 
	 "num_atms": 46, 
	 "gaussian": { 
		 "optdone": 1, 
		 "sigma_profile": "yes", 
		 "theory": "DFT", 
		 "functional": "B3LYP", 
		 "basiset": "6-31G**", 
		 "properties": { 
			 "R2extent": 8132.5649, 
			 "electric_dipole_moment_norm": 5.27203008337, 
			 "electric_quadrupole_moment_norm": 16.2487295771, 
			 "total_energy": -964.170672886, 
			 "HOMO_LUMO_gap": 0.16837, 
			 "cosmo_polarized_energy": -12.4, 
			 "cosmo_cavitation_energy": 44.66, 
			 "cosmo_dispersion_energy": -30.76, 
			 "cosmo_repulsion_energy": 2.34, 
			 "cosmo_total_nonelectrostatic_energy": 16.23, 
			 "SMD_solvation_energy": 8.44 
		},
		"coords": [
			{
				"x": -0.870715792,
				"y": -0.501101863,
				"z": -2.8146513624,
				"element": "C" 
			},
			{
				"x": 0.3403361862,
				"y": -1.4329867261,
				"z": -2.674985747,
				"element": "C" 
			},
			{
				"x": 0.3682765467,
				"y": -2.2504146147,
				"z": -1.3634271878,
				"element": "C" 
			},
			{
				"x": 1.1932388204,
				"y": -1.6475173385,
				"z": -0.1902279882,
				"element": "C" 
			},
			{
				"x": 0.8386859493,
				"y": -0.2102145817,
				"z": 0.1299683352,
				"element": "C" 
			},
			{
				"x": -0.1222158766,
				"y": 0.0423299816,
				"z": 1.0361399024,
				"element": "C" 
			},
			{
				"x": -0.8124686856,
				"y": -0.9751587291,
				"z": 1.6907309001,
				"element": "O" 
			},
			{
				"x": -0.3250936529,
				"y": -2.2597247445,
				"z": 1.7255853208,
				"element": "C" 
			},
			{
				"x": -0.9984398396,
				"y": -3.1050202674,
				"z": 2.2599800415,
				"element": "O" 
			},
			{
				"x": 1.0630948824,
				"y": -2.4927507727,
				"z": 1.1184201115,
				"element": "C" 
			},
			{
				"x": 1.2506963271,
				"y": -4.0014344668,
				"z": 0.8839219934,
				"element": "C" 
			},
			{
				"x": 2.1119696873,
				"y": -2.0336843968,
				"z": 2.1656818378,
				"element": "C" 
			},
			{
				"x": -0.5826850333,
				"y": 1.3872677024,
				"z": 1.3939436771,
				"element": "C" 
			},
			{
				"x": -1.7857981657,
				"y": 1.618093729,
				"z": 2.0803065895,
				"element": "C" 
			},
			{
				"x": -2.1959583532,
				"y": 2.9108941331,
				"z": 2.3736562881,
				"element": "C" 
			},
			{
				"x": -1.4059197213,
				"y": 4.0027240811,
				"z": 1.9858966587,
				"element": "C" 
			},
			{
				"x": -1.8951871737,
				"y": 5.2340728792,
				"z": 2.3109840494,
				"element": "O" 
			},
			{
				"x": -1.1395487603,
				"y": 6.3786903423,
				"z": 1.9497917383,
				"element": "C" 
			},
			{
				"x": -0.197082508,
				"y": 3.782470535,
				"z": 1.3109712518,
				"element": "C" 
			},
			{
				"x": 0.2174634952,
				"y": 2.4824444152,
				"z": 1.0163774362,
				"element": "C" 
			},
			{
				"x": 1.5596108348,
				"y": 2.2007516084,
				"z": 0.3730462066,
				"element": "C" 
			},
			{
				"x": 1.5231698966,
				"y": 0.964604553,
				"z": -0.5391350997,
				"element": "C" 
			},
			{
				"x": -1.8010113649,
				"y": -1.0801216106,
				"z": -2.8247985372,
				"element": "H" 
			},
			{
				"x": -0.8264529871,
				"y": 0.0693360754,
				"z": -3.7487109988,
				"element": "H" 
			},
			{
				"x": -0.9419159854,
				"y": 0.2096350632,
				"z": -1.9866249516,
				"element": "H" 
			},
			{
				"x": 0.3306638166,
				"y": -2.1329859947,
				"z": -3.5192749358,
				"element": "H" 
			},
			{
				"x": 1.2719051391,
				"y": -0.8622370594,
				"z": -2.7803125589,
				"element": "H" 
			},
			{
				"x": -0.6644501327,
				"y": -2.4218331911,
				"z": -1.0300273116,
				"element": "H" 
			},
			{
				"x": 0.7843862384,
				"y": -3.2393983732,
				"z": -1.5785467615,
				"element": "H" 
			},
			{
				"x": 2.2509942502,
				"y": -1.6829347861,
				"z": -0.4889505073,
				"element": "H" 
			},
			{
				"x": 2.2108828148,
				"y": -4.185820829,
				"z": 0.3898062407,
				"element": "H" 
			},
			{
				"x": 0.4546548991,
				"y": -4.4293303916,
				"z": 0.272447545,
				"element": "H" 
			},
			{
				"x": 1.2447150883,
				"y": -4.5338820675,
				"z": 1.8373658394,
				"element": "H" 
			},
			{
				"x": 3.1180110949,
				"y": -2.2465082658,
				"z": 1.7881325165,
				"element": "H" 
			},
			{
				"x": 1.9792672966,
				"y": -2.5830339553,
				"z": 3.1022826184,
				"element": "H" 
			},
			{
				"x": 2.0484202693,
				"y": -0.964978612,
				"z": 2.3800542683,
				"element": "H" 
			},
			{
				"x": -2.3970398849,
				"y": 0.7732881282,
				"z": 2.3776079722,
				"element": "H" 
			},
			{
				"x": -3.1257519834,
				"y": 3.1027764026,
				"z": 2.8985770765,
				"element": "H" 
			},
			{
				"x": -1.7111448143,
				"y": 7.2397837347,
				"z": 2.2995572558,
				"element": "H" 
			},
			{
				"x": -1.0077301898,
				"y": 6.4516070745,
				"z": 0.8624290521,
				"element": "H" 
			},
			{
				"x": -0.1527457405,
				"y": 6.3823485543,
				"z": 2.4307413823,
				"element": "H" 
			},
			{
				"x": 0.4335847947,
				"y": 4.6136727693,
				"z": 1.0155400148,
				"element": "H" 
			},
			{
				"x": 1.9106210992,
				"y": 3.0754657763,
				"z": -0.1846496142,
				"element": "H" 
			},
			{
				"x": 2.293686028,
				"y": 2.0256588112,
				"z": 1.1745281776,
				"element": "H" 
			},
			{
				"x": 2.5459847743,
				"y": 0.6874128998,
				"z": -0.8197642374,
				"element": "H" 
			},
			{
				"x": 1.0085364157,
				"y": 1.218244388,
				"z": -1.4778844986,
				"element": "H" 
			}
		],
		 "valence_orbital": [ 
			{
				"type": "occ",
				"energy": -0.30729,
				"method": "rhf"
			},
			{
				"type": "occ",
				"energy": -0.26293,
				"method": "rhf"
			},
			{
				"type": "occ",
				"energy": -0.2486,
				"method": "rhf"
			},
			{
				"type": "occ",
				"energy": -0.24676,
				"method": "rhf"
			},
			{
				"type": "occ",
				"energy": -0.19604,
				"method": "rhf"
			},
			{
				"type": "unocc",
				"energy": -0.02767,
				"method": "rhf"
			},
			{
				"type": "unocc",
				"energy": -0.00103,
				"method": "rhf"
			},
			{
				"type": "unocc",
				"energy": 0.01181,
				"method": "rhf"
			},
			{
				"type": "unocc",
				"energy": 0.06716,
				"method": "rhf"
			},
			{
				"type": "unocc",
				"energy": 0.07655,
				"method": "rhf"
			}
		],
		"cosmo_sigma_profile": { 
			"-0.025": 0.0,
			"-0.024": 0.0,
			"-0.023": 0.0,
			"-0.022": 0.0,
			"-0.021": 0.0,
			"-0.02": 0.0,
			"-0.019": 0.0,
			"-0.018": 0.0,
			"-0.017": 0.0,
			"-0.016": 0.0,
			"-0.015": 0.0,
			"-0.014": 0.0,
			"-0.013": 0.0,
			"-0.012": 0.0,
			"-0.011": 0.0,
			"-0.01": 0.0,
			"-0.009": 0.0,
			"-0.008": 0.0,
			"-0.007": 0.0808909970399,
			"-0.006": 5.60307091127,
			"-0.005": 14.8823543697,
			"-0.004": 30.4586698057,
			"-0.003": 47.6689641113,
			"-0.002": 52.0599462684,
			"-0.001": 43.1262037178,
			"0.0": 38.163343577,
			"0.001": 28.6342142682,
			"0.002": 15.6294096932,
			"0.003": 11.4684696842,
			"0.004": 15.315022195,
			"0.005": 13.9337293248,
			"0.006": 5.39879319783,
			"0.007": 3.89195598401,
			"0.008": 3.41069108981,
			"0.009": 4.00224752937,
			"0.01": 4.06060502379,
			"0.011": 5.19576231532,
			"0.012": 4.48432712227,
			"0.013": 1.41578879492,
			"0.014": 0.0166470640446,
			"0.015": 0.0,
			"0.016": 0.0,
			"0.017": 0.0,
			"0.018": 0.0,
			"0.019": 0.0,
			"0.02": 0.0,
			"0.021": 0.0,
			"0.022": 0.0,
			"0.023": 0.0,
			"0.024": 0.0,
			"0.025": 0.0
		}
	}
}
