{
	 "smiles": "COC1=CC=C(C(=O)CBr)C(OC)=C1", 
	 "Tm": 376.65, 
	 "num_atms": 25, 
	 "gaussian": { 
		 "optdone": 1, 
		 "sigma_profile": "yes", 
		 "theory": "DFT", 
		 "functional": "B3LYP", 
		 "basiset": "6-31G**", 
		 "properties": { 
			 "R2extent": 4900.8065, 
			 "electric_dipole_moment_norm": 4.87306482103, 
			 "electric_quadrupole_moment_norm": 15.5506779855, 
			 "total_energy": -3184.7438705, 
			 "HOMO_LUMO_gap": 0.16994, 
			 "cosmo_polarized_energy": -11.69, 
			 "cosmo_cavitation_energy": 30.99, 
			 "cosmo_dispersion_energy": -22.49, 
			 "cosmo_repulsion_energy": 1.77, 
			 "cosmo_total_nonelectrostatic_energy": 10.26, 
			 "SMD_solvation_energy": 6.37 
		},
		"coords": [
			{
				"x": 0.6525483517,
				"y": -3.7256580856,
				"z": 2.1871016463,
				"element": "C" 
			},
			{
				"x": 0.5169900463,
				"y": -3.2887216213,
				"z": 0.8402249184,
				"element": "O" 
			},
			{
				"x": 0.2701954749,
				"y": -1.9740474585,
				"z": 0.6078285845,
				"element": "C" 
			},
			{
				"x": 0.1378574581,
				"y": -0.9986432148,
				"z": 1.6053972332,
				"element": "C" 
			},
			{
				"x": -0.1118679508,
				"y": 0.3115843738,
				"z": 1.2196914008,
				"element": "C" 
			},
			{
				"x": -0.2285950216,
				"y": 0.7073554579,
				"z": -0.121206561,
				"element": "C" 
			},
			{
				"x": -0.4798599085,
				"y": 2.1577788753,
				"z": -0.3520981534,
				"element": "C" 
			},
			{
				"x": -0.7716615334,
				"y": 2.8974117218,
				"z": 0.5799304094,
				"element": "O" 
			},
			{
				"x": -0.375140009,
				"y": 2.7908658073,
				"z": -1.7344802978,
				"element": "C" 
			},
			{
				"x": 1.51690772,
				"y": 2.8678428616,
				"z": -2.323520698,
				"element": "Br" 
			},
			{
				"x": -0.108031952,
				"y": -0.3038138802,
				"z": -1.1137303519,
				"element": "C" 
			},
			{
				"x": -0.2703555613,
				"y": 0.0662393485,
				"z": -2.4114206678,
				"element": "O" 
			},
			{
				"x": -0.04155804,
				"y": -0.8881284072,
				"z": -3.4406863051,
				"element": "C" 
			},
			{
				"x": 0.1427734597,
				"y": -1.6239928766,
				"z": -0.743820051,
				"element": "C" 
			},
			{
				"x": 1.494517376,
				"y": -3.2318931338,
				"z": 2.6869990298,
				"element": "H" 
			},
			{
				"x": 0.8429281586,
				"y": -4.798363156,
				"z": 2.1351632038,
				"element": "H" 
			},
			{
				"x": -0.2644052973,
				"y": -3.5475905708,
				"z": 2.7617205229,
				"element": "H" 
			},
			{
				"x": 0.2302970678,
				"y": -1.2450872873,
				"z": 2.655446518,
				"element": "H" 
			},
			{
				"x": -0.2181688453,
				"y": 1.0892664068,
				"z": 1.9682282294,
				"element": "H" 
			},
			{
				"x": -0.8985396253,
				"y": 2.2360602574,
				"z": -2.5074483438,
				"element": "H" 
			},
			{
				"x": -0.7071077574,
				"y": 3.8233192487,
				"z": -1.6611711238,
				"element": "H" 
			},
			{
				"x": -0.7690372153,
				"y": -1.7075520827,
				"z": -3.3972614633,
				"element": "H" 
			},
			{
				"x": -0.1622368579,
				"y": -0.3462874378,
				"z": -4.3792693379,
				"element": "H" 
			},
			{
				"x": 0.973613579,
				"y": -1.2971918587,
				"z": -3.3851013003,
				"element": "H" 
			},
			{
				"x": 0.2375368828,
				"y": -2.4145532877,
				"z": -1.4761170415,
				"element": "H" 
			}
		],
		 "valence_orbital": [ 
			{
				"type": "occ",
				"energy": -0.27872,
				"method": "rhf"
			},
			{
				"type": "occ",
				"energy": -0.26789,
				"method": "rhf"
			},
			{
				"type": "occ",
				"energy": -0.24596,
				"method": "rhf"
			},
			{
				"type": "occ",
				"energy": -0.24212,
				"method": "rhf"
			},
			{
				"type": "occ",
				"energy": -0.22673,
				"method": "rhf"
			},
			{
				"type": "unocc",
				"energy": -0.05679,
				"method": "rhf"
			},
			{
				"type": "unocc",
				"energy": -0.00118,
				"method": "rhf"
			},
			{
				"type": "unocc",
				"energy": 0.00428,
				"method": "rhf"
			},
			{
				"type": "unocc",
				"energy": 0.06233,
				"method": "rhf"
			},
			{
				"type": "unocc",
				"energy": 0.0861,
				"method": "rhf"
			}
		],
		"cosmo_sigma_profile": { 
			"-0.025": 0.0,
			"-0.024": 0.0,
			"-0.023": 0.0,
			"-0.022": 0.0,
			"-0.021": 0.0,
			"-0.02": 0.0,
			"-0.019": 0.0,
			"-0.018": 0.0,
			"-0.017": 0.0,
			"-0.016": 0.0,
			"-0.015": 0.0,
			"-0.014": 0.0,
			"-0.013": 0.0,
			"-0.012": 0.0,
			"-0.011": 0.0,
			"-0.01": 0.0,
			"-0.009": 0.0,
			"-0.008": 0.305784467643,
			"-0.007": 6.77067871469,
			"-0.006": 21.4090175458,
			"-0.005": 24.9162955108,
			"-0.004": 24.3900358312,
			"-0.003": 20.155828306,
			"-0.002": 13.1239450537,
			"-0.001": 12.2525706897,
			"0.0": 10.5652321558,
			"0.001": 14.1123648856,
			"0.002": 19.6008372451,
			"0.003": 22.7973190434,
			"0.004": 16.3773050157,
			"0.005": 15.7120526064,
			"0.006": 7.93210529437,
			"0.007": 3.31788232042,
			"0.008": 3.14184165593,
			"0.009": 3.05893921103,
			"0.01": 2.44787798514,
			"0.011": 3.25778658364,
			"0.012": 3.45614835857,
			"0.013": 0.58987987541,
			"0.014": 0.0,
			"0.015": 0.0,
			"0.016": 0.0,
			"0.017": 0.0,
			"0.018": 0.0,
			"0.019": 0.0,
			"0.02": 0.0,
			"0.021": 0.0,
			"0.022": 0.0,
			"0.023": 0.0,
			"0.024": 0.0,
			"0.025": 0.0
		}
	}
}
