{
	 "smiles": "FC1=CC=C(C=C1)C1=CC=C(F)C=C1", 
	 "Tm": 367.65, 
	 "num_atms": 22, 
	 "gaussian": { 
		 "optdone": 1, 
		 "sigma_profile": "yes", 
		 "theory": "DFT", 
		 "functional": "B3LYP", 
		 "basiset": "6-31G**", 
		 "properties": { 
			 "R2extent": 4853.3478, 
			 "electric_dipole_moment_norm": 0.0001, 
			 "electric_quadrupole_moment_norm": 12.2016856336, 
			 "total_energy": -661.773845642, 
			 "HOMO_LUMO_gap": 0.19538, 
			 "cosmo_polarized_energy": -5.24, 
			 "cosmo_cavitation_energy": 27.38, 
			 "cosmo_dispersion_energy": -19.8, 
			 "cosmo_repulsion_energy": 1.48, 
			 "cosmo_total_nonelectrostatic_energy": 9.06, 
			 "SMD_solvation_energy": 5.51 
		},
		"coords": [
			{
				"x": -2.522616016,
				"y": -2.5328984835,
				"z": -0.3070654673,
				"element": "F" 
			},
			{
				"x": -1.6086696097,
				"y": -1.6771925446,
				"z": 0.1970419762,
				"element": "C" 
			},
			{
				"x": -0.9112504102,
				"y": -0.8441972138,
				"z": -0.6699961431,
				"element": "C" 
			},
			{
				"x": 0.0321436952,
				"y": 0.0346972679,
				"z": -0.1413410882,
				"element": "C" 
			},
			{
				"x": 0.2833214678,
				"y": 0.0942992464,
				"z": 1.2406079581,
				"element": "C" 
			},
			{
				"x": -0.4460274296,
				"y": -0.7641874448,
				"z": 2.0817184741,
				"element": "C" 
			},
			{
				"x": -1.3898319314,
				"y": -1.6523015435,
				"z": 1.5694587193,
				"element": "C" 
			},
			{
				"x": 1.2888701006,
				"y": 1.0357763421,
				"z": 1.7953113547,
				"element": "C" 
			},
			{
				"x": 1.4338157768,
				"y": 2.3320616334,
				"z": 1.2708539334,
				"element": "C" 
			},
			{
				"x": 2.3762994133,
				"y": 3.221081166,
				"z": 1.7839835311,
				"element": "C" 
			},
			{
				"x": 3.1807951092,
				"y": 2.8071549609,
				"z": 2.8391992422,
				"element": "C" 
			},
			{
				"x": 4.0946920319,
				"y": 3.6628260668,
				"z": 3.3434610236,
				"element": "F" 
			},
			{
				"x": 3.0690637368,
				"y": 1.5353885138,
				"z": 3.3888935085,
				"element": "C" 
			},
			{
				"x": 2.1244233774,
				"y": 0.6575187631,
				"z": 2.8607757094,
				"element": "C" 
			},
			{
				"x": -1.1022613554,
				"y": -0.8996743468,
				"z": -1.7362808705,
				"element": "H" 
			},
			{
				"x": 0.600659541,
				"y": 0.6674523512,
				"z": -0.8159688404,
				"element": "H" 
			},
			{
				"x": -0.2911209642,
				"y": -0.7195819652,
				"z": 3.1553629935,
				"element": "H" 
			},
			{
				"x": -1.9609537177,
				"y": -2.3104448579,
				"z": 2.2153662465,
				"element": "H" 
			},
			{
				"x": 0.7828684224,
				"y": 2.6591092368,
				"z": 0.4658605108,
				"element": "H" 
			},
			{
				"x": 2.4858115999,
				"y": 4.2250170377,
				"z": 1.3882022926,
				"element": "H" 
			},
			{
				"x": 3.7216346186,
				"y": 1.2450259935,
				"z": 4.2052046229,
				"element": "H" 
			},
			{
				"x": 2.0519325432,
				"y": -0.3468301794,
				"z": 3.2666503128,
				"element": "H" 
			}
		],
		 "valence_orbital": [ 
			{
				"type": "occ",
				"energy": -0.34059,
				"method": "rhf"
			},
			{
				"type": "occ",
				"energy": -0.27009,
				"method": "rhf"
			},
			{
				"type": "occ",
				"energy": -0.26429,
				"method": "rhf"
			},
			{
				"type": "occ",
				"energy": -0.26386,
				"method": "rhf"
			},
			{
				"type": "occ",
				"energy": -0.22329,
				"method": "rhf"
			},
			{
				"type": "unocc",
				"energy": -0.02791,
				"method": "rhf"
			},
			{
				"type": "unocc",
				"energy": -0.01709,
				"method": "rhf"
			},
			{
				"type": "unocc",
				"energy": -0.01362,
				"method": "rhf"
			},
			{
				"type": "unocc",
				"energy": 0.02862,
				"method": "rhf"
			},
			{
				"type": "unocc",
				"energy": 0.0858,
				"method": "rhf"
			}
		],
		"cosmo_sigma_profile": { 
			"-0.025": 0.0,
			"-0.024": 0.0,
			"-0.023": 0.0,
			"-0.022": 0.0,
			"-0.021": 0.0,
			"-0.02": 0.0,
			"-0.019": 0.0,
			"-0.018": 0.0,
			"-0.017": 0.0,
			"-0.016": 0.0,
			"-0.015": 0.0,
			"-0.014": 0.0,
			"-0.013": 0.0,
			"-0.012": 0.0,
			"-0.011": 0.0,
			"-0.01": 0.0,
			"-0.009": 0.0,
			"-0.008": 0.546823367393,
			"-0.007": 7.08536562425,
			"-0.006": 15.9083280975,
			"-0.005": 15.5228949191,
			"-0.004": 14.6767584343,
			"-0.003": 11.2437610016,
			"-0.002": 9.83848848805,
			"-0.001": 11.9166157746,
			"0.0": 14.0182755742,
			"0.001": 23.1853413805,
			"0.002": 23.4277091356,
			"0.003": 24.7882262407,
			"0.004": 38.3602989108,
			"0.005": 10.2150013144,
			"0.006": 0.0,
			"0.007": 0.0,
			"0.008": 0.0,
			"0.009": 0.0,
			"0.01": 0.0,
			"0.011": 0.0,
			"0.012": 0.0,
			"0.013": 0.0,
			"0.014": 0.0,
			"0.015": 0.0,
			"0.016": 0.0,
			"0.017": 0.0,
			"0.018": 0.0,
			"0.019": 0.0,
			"0.02": 0.0,
			"0.021": 0.0,
			"0.022": 0.0,
			"0.023": 0.0,
			"0.024": 0.0,
			"0.025": 0.0
		}
	}
}
