{
	 "smiles": "OC1CCCC1N1C=CC=N1", 
	 "Tm": 322.15, 
	 "num_atms": 23, 
	 "gaussian": { 
		 "optdone": 1, 
		 "sigma_profile": "yes", 
		 "theory": "DFT", 
		 "functional": "B3LYP", 
		 "basiset": "6-31G**", 
		 "properties": { 
			 "R2extent": 1844.4439, 
			 "electric_dipole_moment_norm": 3.691162512, 
			 "electric_quadrupole_moment_norm": 8.0607107106, 
			 "total_energy": -496.776392489, 
			 "HOMO_LUMO_gap": 0.25626, 
			 "cosmo_polarized_energy": -12.13, 
			 "cosmo_cavitation_energy": 24.59, 
			 "cosmo_dispersion_energy": -18.18, 
			 "cosmo_repulsion_energy": 1.44, 
			 "cosmo_total_nonelectrostatic_energy": 7.85, 
			 "SMD_solvation_energy": 3.05 
		},
		"coords": [
			{
				"x": 0.7108920743,
				"y": -2.9787231919,
				"z": -1.6076336347,
				"element": "O" 
			},
			{
				"x": 0.4841801957,
				"y": -1.5802840026,
				"z": -1.4623069075,
				"element": "C" 
			},
			{
				"x": 1.7839041252,
				"y": -0.7776650594,
				"z": -1.2865548383,
				"element": "C" 
			},
			{
				"x": 2.1158700476,
				"y": -0.8580825557,
				"z": 0.2313838641,
				"element": "C" 
			},
			{
				"x": 0.8017795696,
				"y": -1.3297555261,
				"z": 0.9270494858,
				"element": "C" 
			},
			{
				"x": -0.2961240989,
				"y": -1.2894285876,
				"z": -0.1529009255,
				"element": "C" 
			},
			{
				"x": -0.9808728362,
				"y": 0.0037215391,
				"z": -0.2248388684,
				"element": "N" 
			},
			{
				"x": -0.6136235383,
				"y": 1.2211701586,
				"z": 0.2666382972,
				"element": "C" 
			},
			{
				"x": -1.5688215942,
				"y": 2.1295449966,
				"z": -0.1502468385,
				"element": "C" 
			},
			{
				"x": -2.4796184358,
				"y": 1.3580745621,
				"z": -0.9020432033,
				"element": "C" 
			},
			{
				"x": -2.1211690995,
				"y": 0.0751174913,
				"z": -0.9501652112,
				"element": "N" 
			},
			{
				"x": 1.3966073242,
				"y": -3.2467693486,
				"z": -0.9824203805,
				"element": "H" 
			},
			{
				"x": -0.0986039894,
				"y": -1.280578091,
				"z": -2.3359691868,
				"element": "H" 
			},
			{
				"x": 2.5783446124,
				"y": -1.1679178183,
				"z": -1.929145185,
				"element": "H" 
			},
			{
				"x": 1.6091512024,
				"y": 0.2618954167,
				"z": -1.5804288501,
				"element": "H" 
			},
			{
				"x": 2.4515171097,
				"y": 0.1109708618,
				"z": 0.6118905073,
				"element": "H" 
			},
			{
				"x": 2.9319624355,
				"y": -1.5598805635,
				"z": 0.4316494478,
				"element": "H" 
			},
			{
				"x": 0.5405832219,
				"y": -0.7445127458,
				"z": 1.8121662682,
				"element": "H" 
			},
			{
				"x": 0.8999925962,
				"y": -2.3657249781,
				"z": 1.2660659143,
				"element": "H" 
			},
			{
				"x": -1.0723416639,
				"y": -2.0423937859,
				"z": -0.0051032395,
				"element": "H" 
			},
			{
				"x": 0.2724786295,
				"y": 1.3540605367,
				"z": 0.8678253156,
				"element": "H" 
			},
			{
				"x": -1.6021748839,
				"y": 3.1869217427,
				"z": 0.0659939618,
				"element": "H" 
			},
			{
				"x": -3.3833130042,
				"y": 1.678638949,
				"z": -1.4035057927,
				"element": "H" 
			}
		],
		 "valence_orbital": [ 
			{
				"type": "occ",
				"energy": -0.32175,
				"method": "rhf"
			},
			{
				"type": "occ",
				"energy": -0.28111,
				"method": "rhf"
			},
			{
				"type": "occ",
				"energy": -0.27662,
				"method": "rhf"
			},
			{
				"type": "occ",
				"energy": -0.24205,
				"method": "rhf"
			},
			{
				"type": "occ",
				"energy": -0.23532,
				"method": "rhf"
			},
			{
				"type": "unocc",
				"energy": 0.02094,
				"method": "rhf"
			},
			{
				"type": "unocc",
				"energy": 0.04887,
				"method": "rhf"
			},
			{
				"type": "unocc",
				"energy": 0.07132,
				"method": "rhf"
			},
			{
				"type": "unocc",
				"energy": 0.08128,
				"method": "rhf"
			},
			{
				"type": "unocc",
				"energy": 0.10727,
				"method": "rhf"
			}
		],
		"cosmo_sigma_profile": { 
			"-0.025": 0.0,
			"-0.024": 0.0,
			"-0.023": 0.0,
			"-0.022": 0.0,
			"-0.021": 0.0,
			"-0.02": 0.0,
			"-0.019": 0.0,
			"-0.018": 0.0,
			"-0.017": 0.0,
			"-0.016": 0.0,
			"-0.015": 0.374247804109,
			"-0.014": 0.883159326687,
			"-0.013": 0.825428497379,
			"-0.012": 1.07253238474,
			"-0.011": 1.18738945009,
			"-0.01": 1.21835076686,
			"-0.009": 0.827110264987,
			"-0.008": 2.2968886559,
			"-0.007": 5.58546850002,
			"-0.006": 7.32153702496,
			"-0.005": 10.2671255616,
			"-0.004": 15.7922313527,
			"-0.003": 21.0077320206,
			"-0.002": 19.7643983786,
			"-0.001": 18.6145186272,
			"0.0": 17.4424216192,
			"0.001": 8.89750897941,
			"0.002": 6.30949748332,
			"0.003": 6.98790584786,
			"0.004": 6.17117831331,
			"0.005": 8.27060015239,
			"0.006": 8.23666339736,
			"0.007": 3.50183392688,
			"0.008": 3.02534844355,
			"0.009": 3.14785286838,
			"0.01": 1.367027489,
			"0.011": 1.82376516701,
			"0.012": 2.94321739025,
			"0.013": 2.70782979803,
			"0.014": 2.9446567143,
			"0.015": 1.09789782203,
			"0.016": 0.62666300695,
			"0.017": 0.119217011323,
			"0.018": 0.0,
			"0.019": 0.0,
			"0.02": 0.0,
			"0.021": 0.0,
			"0.022": 0.0,
			"0.023": 0.0,
			"0.024": 0.0,
			"0.025": 0.0
		}
	}
}
