{
	 "smiles": "CC[N+]([O-])=O", 
	 "Tm": 183.95, 
	 "num_atms": 10, 
	 "gaussian": { 
		 "optdone": 1, 
		 "sigma_profile": "yes", 
		 "theory": "DFT", 
		 "functional": "B3LYP", 
		 "basiset": "6-31G**", 
		 "properties": { 
			 "R2extent": 861.1404, 
			 "electric_dipole_moment_norm": 3.66705853512, 
			 "electric_quadrupole_moment_norm": 10.7960941141, 
			 "total_energy": -284.328606863, 
			 "HOMO_LUMO_gap": 0.22474, 
			 "cosmo_polarized_energy": -7.65, 
			 "cosmo_cavitation_energy": 14.17, 
			 "cosmo_dispersion_energy": -10.31, 
			 "cosmo_repulsion_energy": 0.94, 
			 "cosmo_total_nonelectrostatic_energy": 4.8, 
			 "SMD_solvation_energy": 5.01 
		},
		"coords": [
			{
				"x": -0.7924925302,
				"y": 0.615870868,
				"z": 0.0162289724,
				"element": "C" 
			},
			{
				"x": 0.053604603,
				"y": 1.6125308236,
				"z": -0.7716149179,
				"element": "C" 
			},
			{
				"x": 0.4869972617,
				"y": 0.9850004157,
				"z": -2.0719635189,
				"element": "N" 
			},
			{
				"x": 1.538367249,
				"y": 0.3512061448,
				"z": -2.0635044435,
				"element": "O" 
			},
			{
				"x": -0.264773225,
				"y": 1.1161300467,
				"z": -3.0336253682,
				"element": "O" 
			},
			{
				"x": -1.1060306753,
				"y": 1.0723698628,
				"z": 0.9589313321,
				"element": "H" 
			},
			{
				"x": -1.6856962805,
				"y": 0.3374216923,
				"z": -0.5488632508,
				"element": "H" 
			},
			{
				"x": -0.2163516043,
				"y": -0.2852635255,
				"z": 0.2413675155,
				"element": "H" 
			},
			{
				"x": 0.9707049575,
				"y": 1.8776859585,
				"z": -0.2448574553,
				"element": "H" 
			},
			{
				"x": -0.510729756,
				"y": 2.5055477131,
				"z": -1.0415988655,
				"element": "H" 
			}
		],
		 "valence_orbital": [ 
			{
				"type": "occ",
				"energy": -0.40434,
				"method": "rhf"
			},
			{
				"type": "occ",
				"energy": -0.39007,
				"method": "rhf"
			},
			{
				"type": "occ",
				"energy": -0.31043,
				"method": "rhf"
			},
			{
				"type": "occ",
				"energy": -0.29971,
				"method": "rhf"
			},
			{
				"type": "occ",
				"energy": -0.29032,
				"method": "rhf"
			},
			{
				"type": "unocc",
				"energy": -0.06558,
				"method": "rhf"
			},
			{
				"type": "unocc",
				"energy": 0.08976,
				"method": "rhf"
			},
			{
				"type": "unocc",
				"energy": 0.11066,
				"method": "rhf"
			},
			{
				"type": "unocc",
				"energy": 0.1244,
				"method": "rhf"
			},
			{
				"type": "unocc",
				"energy": 0.14061,
				"method": "rhf"
			}
		],
		"cosmo_sigma_profile": { 
			"-0.025": 0.0,
			"-0.024": 0.0,
			"-0.023": 0.0,
			"-0.022": 0.0,
			"-0.021": 0.0,
			"-0.02": 0.0,
			"-0.019": 0.0,
			"-0.018": 0.0,
			"-0.017": 0.0,
			"-0.016": 0.0,
			"-0.015": 0.0,
			"-0.014": 0.0,
			"-0.013": 0.0,
			"-0.012": 0.0,
			"-0.011": 0.0,
			"-0.01": 0.0,
			"-0.009": 0.0,
			"-0.008": 2.92991803457,
			"-0.007": 6.54230429718,
			"-0.006": 8.14942155888,
			"-0.005": 12.4598466593,
			"-0.004": 11.8034038849,
			"-0.003": 9.05086536288,
			"-0.002": 9.01333447232,
			"-0.001": 7.36768744551,
			"0.0": 2.52123655163,
			"0.001": 2.09228653104,
			"0.002": 2.62728501676,
			"0.003": 1.53575175747,
			"0.004": 2.07220891428,
			"0.005": 3.24121389427,
			"0.006": 2.46068748925,
			"0.007": 6.8812564535,
			"0.008": 10.6116222646,
			"0.009": 6.77920935468,
			"0.01": 2.90724665172,
			"0.011": 0.370503493256,
			"0.012": 0.0,
			"0.013": 0.0,
			"0.014": 0.0,
			"0.015": 0.0,
			"0.016": 0.0,
			"0.017": 0.0,
			"0.018": 0.0,
			"0.019": 0.0,
			"0.02": 0.0,
			"0.021": 0.0,
			"0.022": 0.0,
			"0.023": 0.0,
			"0.024": 0.0,
			"0.025": 0.0
		}
	}
}
