{
	 "smiles": "OC1C(O)C(O)C(O)C(O)C1O", 
	 "Tm": 503.15, 
	 "num_atms": 24, 
	 "gaussian": { 
		 "optdone": 1, 
		 "sigma_profile": "yes", 
		 "theory": "DFT", 
		 "functional": "B3LYP", 
		 "basiset": "6-31G**", 
		 "properties": { 
			 "R2extent": 2400.4737, 
			 "electric_dipole_moment_norm": 6.03471086051, 
			 "electric_quadrupole_moment_norm": 12.4257141513, 
			 "total_energy": -687.161943682, 
			 "HOMO_LUMO_gap": 0.28366, 
			 "cosmo_polarized_energy": -24.92, 
			 "cosmo_cavitation_energy": 24.76, 
			 "cosmo_dispersion_energy": -18.85, 
			 "cosmo_repulsion_energy": 1.51, 
			 "cosmo_total_nonelectrostatic_energy": 7.42, 
			 "SMD_solvation_energy": 3.81 
		},
		"coords": [
			{
				"x": -1.5030703002,
				"y": 1.5927904715,
				"z": -0.8391334773,
				"element": "O" 
			},
			{
				"x": -1.586825992,
				"y": 0.5706726019,
				"z": 0.1512126353,
				"element": "C" 
			},
			{
				"x": -0.4654099142,
				"y": -0.4899791146,
				"z": -0.0130526796,
				"element": "C" 
			},
			{
				"x": -0.93197654,
				"y": -1.8018305715,
				"z": 0.3754323087,
				"element": "O" 
			},
			{
				"x": 0.7338956526,
				"y": -0.1989072162,
				"z": 0.8863473313,
				"element": "C" 
			},
			{
				"x": 1.8216516631,
				"y": -1.0816103336,
				"z": 0.6341665139,
				"element": "O" 
			},
			{
				"x": 0.3327996388,
				"y": -0.233716345,
				"z": 2.375307866,
				"element": "C" 
			},
			{
				"x": 1.2945898471,
				"y": 0.4473642682,
				"z": 3.1620629714,
				"element": "O" 
			},
			{
				"x": -1.0720854681,
				"y": 0.3655890359,
				"z": 2.6349541449,
				"element": "C" 
			},
			{
				"x": -2.0521679232,
				"y": -0.6551116867,
				"z": 2.806507117,
				"element": "O" 
			},
			{
				"x": -1.5206723755,
				"y": 1.3153556822,
				"z": 1.5127074193,
				"element": "C" 
			},
			{
				"x": -0.6010617463,
				"y": 2.3902740648,
				"z": 1.4512184641,
				"element": "O" 
			},
			{
				"x": -1.6455564918,
				"y": 1.2084333013,
				"z": -1.712492888,
				"element": "H" 
			},
			{
				"x": -2.5524843705,
				"y": 0.0471861568,
				"z": 0.0878700517,
				"element": "H" 
			},
			{
				"x": -0.1307848964,
				"y": -0.5136476357,
				"z": -1.0601321546,
				"element": "H" 
			},
			{
				"x": -1.5399020761,
				"y": -2.1309012606,
				"z": -0.2992277239,
				"element": "H" 
			},
			{
				"x": 1.0915218065,
				"y": 0.8084903757,
				"z": 0.6641953483,
				"element": "H" 
			},
			{
				"x": 1.4690445611,
				"y": -1.9789326167,
				"z": 0.7283456766,
				"element": "H" 
			},
			{
				"x": 0.2736874399,
				"y": -1.2900706303,
				"z": 2.685866918,
				"element": "H" 
			},
			{
				"x": 2.1591106236,
				"y": 0.1077181169,
				"z": 2.8898234746,
				"element": "H" 
			},
			{
				"x": -1.0222386417,
				"y": 0.9266622706,
				"z": 3.571882271,
				"element": "H" 
			},
			{
				"x": -1.8909200512,
				"y": -1.3166419713,
				"z": 2.1145637777,
				"element": "H" 
			},
			{
				"x": -2.5318770073,
				"y": 1.6782933891,
				"z": 1.7492458644,
				"element": "H" 
			},
			{
				"x": -0.7510674383,
				"y": 2.8271196472,
				"z": 0.5997287693,
				"element": "H" 
			}
		],
		 "valence_orbital": [ 
			{
				"type": "occ",
				"energy": -0.29568,
				"method": "rhf"
			},
			{
				"type": "occ",
				"energy": -0.2777,
				"method": "rhf"
			},
			{
				"type": "occ",
				"energy": -0.2664,
				"method": "rhf"
			},
			{
				"type": "occ",
				"energy": -0.25525,
				"method": "rhf"
			},
			{
				"type": "occ",
				"energy": -0.24822,
				"method": "rhf"
			},
			{
				"type": "unocc",
				"energy": 0.03544,
				"method": "rhf"
			},
			{
				"type": "unocc",
				"energy": 0.04481,
				"method": "rhf"
			},
			{
				"type": "unocc",
				"energy": 0.08502,
				"method": "rhf"
			},
			{
				"type": "unocc",
				"energy": 0.10091,
				"method": "rhf"
			},
			{
				"type": "unocc",
				"energy": 0.11144,
				"method": "rhf"
			}
		],
		"cosmo_sigma_profile": { 
			"-0.025": 0.0,
			"-0.024": 0.0,
			"-0.023": 0.0,
			"-0.022": 0.0,
			"-0.021": 0.0,
			"-0.02": 0.0,
			"-0.019": 0.0,
			"-0.018": 0.0,
			"-0.017": 1.2198788506,
			"-0.016": 2.64289586636,
			"-0.015": 2.11140048619,
			"-0.014": 2.59521553489,
			"-0.013": 3.75542597004,
			"-0.012": 4.70479796555,
			"-0.011": 3.121081589,
			"-0.01": 3.17475304889,
			"-0.009": 4.10535134708,
			"-0.008": 5.60434429459,
			"-0.007": 5.43917672403,
			"-0.006": 6.74678687438,
			"-0.005": 7.14868913416,
			"-0.004": 11.6066996715,
			"-0.003": 12.6399706255,
			"-0.002": 12.3438008173,
			"-0.001": 8.74580711385,
			"0.0": 8.11177545507,
			"0.001": 7.03216469317,
			"0.002": 7.24988419129,
			"0.003": 7.32618237592,
			"0.004": 6.82134791204,
			"0.005": 5.33387468091,
			"0.006": 4.55800637322,
			"0.007": 5.81681997454,
			"0.008": 6.67642311866,
			"0.009": 4.52000092629,
			"0.01": 4.72110093616,
			"0.011": 5.06221282507,
			"0.012": 3.57109868806,
			"0.013": 7.31143349202,
			"0.014": 6.13652114275,
			"0.015": 1.95721110479,
			"0.016": 0.0501355771343,
			"0.017": 0.0,
			"0.018": 0.0,
			"0.019": 0.0,
			"0.02": 0.0,
			"0.021": 0.0,
			"0.022": 0.0,
			"0.023": 0.0,
			"0.024": 0.0,
			"0.025": 0.0
		}
	}
}
