{
	 "smiles": "COS(=O)(=O)C1=CC(=CC=C1C=CC1=C(C=C(C=C1)[N+]([O-])=O)S(=O)(=O)OC)[N+]([O-])=O", 
	 "Tm": 501.15, 
	 "num_atms": 44, 
	 "gaussian": { 
		 "optdone": 1, 
		 "sigma_profile": "yes", 
		 "theory": "DFT", 
		 "functional": "B3LYP", 
		 "basiset": "6-31G**", 
		 "properties": { 
			 "R2extent": 15528.2281, 
			 "electric_dipole_moment_norm": 6.34258473653, 
			 "electric_quadrupole_moment_norm": 23.1622688075, 
			 "total_energy": -2275.87373807, 
			 "HOMO_LUMO_gap": 0.15884, 
			 "cosmo_polarized_energy": -23.74, 
			 "cosmo_cavitation_energy": 53.6, 
			 "cosmo_dispersion_energy": -36.54, 
			 "cosmo_repulsion_energy": 2.67, 
			 "cosmo_total_nonelectrostatic_energy": 19.73, 
			 "SMD_solvation_energy": 13.26 
		},
		"coords": [
			{
				"x": 3.236702802,
				"y": 0.0959064087,
				"z": 5.0789887274,
				"element": "C" 
			},
			{
				"x": 1.9943324441,
				"y": 0.2172994501,
				"z": 4.3385966057,
				"element": "O" 
			},
			{
				"x": 2.0791215266,
				"y": -0.2735686207,
				"z": 2.783837712,
				"element": "S" 
			},
			{
				"x": 2.9653641672,
				"y": 0.628307926,
				"z": 2.0429605581,
				"element": "O" 
			},
			{
				"x": 2.3427876909,
				"y": -1.7118773515,
				"z": 2.7515050508,
				"element": "O" 
			},
			{
				"x": 0.3776042704,
				"y": 0.059128547,
				"z": 2.3196089512,
				"element": "C" 
			},
			{
				"x": -0.4359635424,
				"y": 0.8419591498,
				"z": 3.1337109485,
				"element": "C" 
			},
			{
				"x": -1.7117499587,
				"y": 1.1554267186,
				"z": 2.675859317,
				"element": "C" 
			},
			{
				"x": -2.1801406116,
				"y": 0.730367382,
				"z": 1.4361767861,
				"element": "C" 
			},
			{
				"x": -1.3457533559,
				"y": -0.0422948994,
				"z": 0.6344067535,
				"element": "C" 
			},
			{
				"x": -0.0507019072,
				"y": -0.3952129007,
				"z": 1.0532669433,
				"element": "C" 
			},
			{
				"x": 0.7656822807,
				"y": -1.280500815,
				"z": 0.1877232742,
				"element": "C" 
			},
			{
				"x": 1.1039124886,
				"y": -1.0214139842,
				"z": -1.0833372395,
				"element": "C" 
			},
			{
				"x": 0.949278302,
				"y": 0.2813335542,
				"z": -1.7717005587,
				"element": "C" 
			},
			{
				"x": 0.3048048295,
				"y": 0.4265659078,
				"z": -3.0191915904,
				"element": "C" 
			},
			{
				"x": 0.2351119705,
				"y": 1.6475041163,
				"z": -3.6823837475,
				"element": "C" 
			},
			{
				"x": 0.836969255,
				"y": 2.7504034346,
				"z": -3.0854963882,
				"element": "C" 
			},
			{
				"x": 1.4856921034,
				"y": 2.6599503782,
				"z": -1.8574841478,
				"element": "C" 
			},
			{
				"x": 1.5411632377,
				"y": 1.4277680289,
				"z": -1.2117606256,
				"element": "C" 
			},
			{
				"x": 0.7811987376,
				"y": 4.0503532899,
				"z": -3.7771142566,
				"element": "N" 
			},
			{
				"x": 1.3145734951,
				"y": 5.0083307417,
				"z": -3.2210857974,
				"element": "O" 
			},
			{
				"x": 0.206324562,
				"y": 4.0902926214,
				"z": -4.8624303796,
				"element": "O" 
			},
			{
				"x": -0.6057669112,
				"y": -0.926159964,
				"z": -3.7616255345,
				"element": "S" 
			},
			{
				"x": -1.2063241665,
				"y": -0.4783516825,
				"z": -5.0154201753,
				"element": "O" 
			},
			{
				"x": -1.4416226508,
				"y": -1.5726602516,
				"z": -2.7478173471,
				"element": "O" 
			},
			{
				"x": 0.6715603468,
				"y": -1.8986683774,
				"z": -4.0968645452,
				"element": "O" 
			},
			{
				"x": 0.3356153204,
				"y": -3.1204551595,
				"z": -4.8048685441,
				"element": "C" 
			},
			{
				"x": -2.5873468774,
				"y": 1.9707740397,
				"z": 3.5366536313,
				"element": "N" 
			},
			{
				"x": -2.1417431314,
				"y": 2.3244633505,
				"z": 4.626584525,
				"element": "O" 
			},
			{
				"x": -3.7058934414,
				"y": 2.2433097359,
				"z": 3.1067200881,
				"element": "O" 
			},
			{
				"x": 3.0034701972,
				"y": 0.4631260137,
				"z": 6.0775244382,
				"element": "H" 
			},
			{
				"x": 4.0116071684,
				"y": 0.7126932695,
				"z": 4.617934122,
				"element": "H" 
			},
			{
				"x": 3.5477606123,
				"y": -0.9503775227,
				"z": 5.1204924559,
				"element": "H" 
			},
			{
				"x": -0.1032426373,
				"y": 1.2042638221,
				"z": 4.0957730959,
				"element": "H" 
			},
			{
				"x": -3.1813120684,
				"y": 0.9987980599,
				"z": 1.1225757598,
				"element": "H" 
			},
			{
				"x": -1.6962120319,
				"y": -0.4071237584,
				"z": -0.3258725166,
				"element": "H" 
			},
			{
				"x": 1.0547143607,
				"y": -2.2345270273,
				"z": 0.620188217,
				"element": "H" 
			},
			{
				"x": 1.5802784072,
				"y": -1.8077160428,
				"z": -1.6633233485,
				"element": "H" 
			},
			{
				"x": -0.2771159369,
				"y": 1.742439247,
				"z": -4.6315177178,
				"element": "H" 
			},
			{
				"x": 1.943392556,
				"y": 3.5437859323,
				"z": -1.4305774542,
				"element": "H" 
			},
			{
				"x": 2.0719000512,
				"y": 1.3354084016,
				"z": -0.2693048134,
				"element": "H" 
			},
			{
				"x": -0.3412190335,
				"y": -3.7336043714,
				"z": -4.2045808493,
				"element": "H" 
			},
			{
				"x": 1.285946844,
				"y": -3.6341961294,
				"z": -4.946100147,
				"element": "H" 
			},
			{
				"x": -0.1146617652,
				"y": -2.8833506688,
				"z": -5.7714302368,
				"element": "H" 
			}
		],
		 "valence_orbital": [ 
			{
				"type": "occ",
				"energy": -0.30702,
				"method": "rhf"
			},
			{
				"type": "occ",
				"energy": -0.30511,
				"method": "rhf"
			},
			{
				"type": "occ",
				"energy": -0.30359,
				"method": "rhf"
			},
			{
				"type": "occ",
				"energy": -0.29963,
				"method": "rhf"
			},
			{
				"type": "occ",
				"energy": -0.27344,
				"method": "rhf"
			},
			{
				"type": "unocc",
				"energy": -0.1146,
				"method": "rhf"
			},
			{
				"type": "unocc",
				"energy": -0.1046,
				"method": "rhf"
			},
			{
				"type": "unocc",
				"energy": -0.07043,
				"method": "rhf"
			},
			{
				"type": "unocc",
				"energy": -0.06214,
				"method": "rhf"
			},
			{
				"type": "unocc",
				"energy": -0.04363,
				"method": "rhf"
			}
		],
		"cosmo_sigma_profile": { 
			"-0.025": 0.0,
			"-0.024": 0.0,
			"-0.023": 0.0,
			"-0.022": 0.0,
			"-0.021": 0.0,
			"-0.02": 0.0,
			"-0.019": 0.0,
			"-0.018": 0.0,
			"-0.017": 0.0,
			"-0.016": 0.0,
			"-0.015": 0.0,
			"-0.014": 0.0,
			"-0.013": 0.0,
			"-0.012": 0.0,
			"-0.011": 0.0,
			"-0.01": 0.0415893492237,
			"-0.009": 2.57180916523,
			"-0.008": 9.46130539671,
			"-0.007": 20.3915026861,
			"-0.006": 24.9509208888,
			"-0.005": 35.6711043509,
			"-0.004": 34.9026922185,
			"-0.003": 39.4052527596,
			"-0.002": 46.3355327431,
			"-0.001": 29.0915038668,
			"0.0": 22.6818438511,
			"0.001": 15.9349459439,
			"0.002": 15.5091700256,
			"0.003": 12.2526817656,
			"0.004": 11.7670197822,
			"0.005": 13.3449571441,
			"0.006": 18.1567529652,
			"0.007": 26.665134797,
			"0.008": 17.7993541018,
			"0.009": 20.5571637395,
			"0.01": 11.9918598416,
			"0.011": 1.11525372857,
			"0.012": 0.0,
			"0.013": 0.0,
			"0.014": 0.0,
			"0.015": 0.0,
			"0.016": 0.0,
			"0.017": 0.0,
			"0.018": 0.0,
			"0.019": 0.0,
			"0.02": 0.0,
			"0.021": 0.0,
			"0.022": 0.0,
			"0.023": 0.0,
			"0.024": 0.0,
			"0.025": 0.0
		}
	}
}
