{
	 "smiles": "CCOC1=CC=C(C=C1)C1(C)NC(=O)NC1=O", 
	 "Tm": 464.15, 
	 "num_atms": 31, 
	 "gaussian": { 
		 "optdone": 1, 
		 "sigma_profile": "yes", 
		 "theory": "DFT", 
		 "functional": "B3LYP", 
		 "basiset": "6-31G**", 
		 "properties": { 
			 "R2extent": 5288.301, 
			 "electric_dipole_moment_norm": 3.13576282745, 
			 "electric_quadrupole_moment_norm": 15.2339047453, 
			 "total_energy": -800.928189655, 
			 "HOMO_LUMO_gap": 0.20479, 
			 "cosmo_polarized_energy": -18.14, 
			 "cosmo_cavitation_energy": 34.47, 
			 "cosmo_dispersion_energy": -24.6, 
			 "cosmo_repulsion_energy": 1.93, 
			 "cosmo_total_nonelectrostatic_energy": 11.8, 
			 "SMD_solvation_energy": 7.99 
		},
		"coords": [
			{
				"x": 4.6917904819,
				"y": -1.5225496411,
				"z": -0.865319456,
				"element": "C" 
			},
			{
				"x": 4.0246707095,
				"y": -0.6839197544,
				"z": -1.9507940221,
				"element": "C" 
			},
			{
				"x": 3.4006008285,
				"y": 0.4928611186,
				"z": -1.4301720266,
				"element": "O" 
			},
			{
				"x": 2.1689718096,
				"y": 0.4115820048,
				"z": -0.8495263048,
				"element": "C" 
			},
			{
				"x": 1.3908981182,
				"y": -0.74712538,
				"z": -0.7519409574,
				"element": "C" 
			},
			{
				"x": 0.1300062548,
				"y": -0.6888267782,
				"z": -0.15012739,
				"element": "C" 
			},
			{
				"x": -0.3832205516,
				"y": 0.5055991566,
				"z": 0.3560577261,
				"element": "C" 
			},
			{
				"x": 0.4145974479,
				"y": 1.6597975189,
				"z": 0.2645900414,
				"element": "C" 
			},
			{
				"x": 1.6691741128,
				"y": 1.6148436548,
				"z": -0.325789858,
				"element": "C" 
			},
			{
				"x": -1.775487208,
				"y": 0.5817126671,
				"z": 0.9916468356,
				"element": "C" 
			},
			{
				"x": -2.6856281672,
				"y": 1.5846913632,
				"z": 0.2527459173,
				"element": "C" 
			},
			{
				"x": -2.4181430028,
				"y": -0.7259338923,
				"z": 1.117901513,
				"element": "N" 
			},
			{
				"x": -2.7538869024,
				"y": -1.0626006258,
				"z": 2.4059477185,
				"element": "C" 
			},
			{
				"x": -3.3722504469,
				"y": -2.0293238663,
				"z": 2.7991581751,
				"element": "O" 
			},
			{
				"x": -2.2246072413,
				"y": -0.0320984793,
				"z": 3.2104016978,
				"element": "N" 
			},
			{
				"x": -1.668861014,
				"y": 0.9981990344,
				"z": 2.4850197376,
				"element": "C" 
			},
			{
				"x": -1.2082647053,
				"y": 2.0331664986,
				"z": 2.9181040916,
				"element": "O" 
			},
			{
				"x": 5.4240448932,
				"y": -0.9208463382,
				"z": -0.3195912451,
				"element": "H" 
			},
			{
				"x": 5.2121347288,
				"y": -2.3742010834,
				"z": -1.3163452375,
				"element": "H" 
			},
			{
				"x": 3.964358148,
				"y": -1.9083630187,
				"z": -0.1461212728,
				"element": "H" 
			},
			{
				"x": 4.774524671,
				"y": -0.30556517,
				"z": -2.6512684296,
				"element": "H" 
			},
			{
				"x": 3.303020523,
				"y": -1.2728964534,
				"z": -2.531134255,
				"element": "H" 
			},
			{
				"x": 1.7483696783,
				"y": -1.6981347133,
				"z": -1.1280756823,
				"element": "H" 
			},
			{
				"x": -0.4502677526,
				"y": -1.6015435799,
				"z": -0.0664953943,
				"element": "H" 
			},
			{
				"x": 0.0622240355,
				"y": 2.5937379297,
				"z": 0.6885691071,
				"element": "H" 
			},
			{
				"x": 2.2880338266,
				"y": 2.5035276171,
				"z": -0.39370541,
				"element": "H" 
			},
			{
				"x": -3.6753253403,
				"y": 1.6223773134,
				"z": 0.7183027685,
				"element": "H" 
			},
			{
				"x": -2.2507176082,
				"y": 2.5855054097,
				"z": 0.2815690989,
				"element": "H" 
			},
			{
				"x": -2.796435731,
				"y": 1.2865460394,
				"z": -0.7942791096,
				"element": "H" 
			},
			{
				"x": -2.8739769249,
				"y": -1.1983699491,
				"z": 0.3522318782,
				"element": "H" 
			},
			{
				"x": -2.3159476712,
				"y": -0.0338486029,
				"z": 4.2162397444,
				"element": "H" 
			}
		],
		 "valence_orbital": [ 
			{
				"type": "occ",
				"energy": -0.28763,
				"method": "rhf"
			},
			{
				"type": "occ",
				"energy": -0.27062,
				"method": "rhf"
			},
			{
				"type": "occ",
				"energy": -0.26227,
				"method": "rhf"
			},
			{
				"type": "occ",
				"energy": -0.2538,
				"method": "rhf"
			},
			{
				"type": "occ",
				"energy": -0.21896,
				"method": "rhf"
			},
			{
				"type": "unocc",
				"energy": -0.01417,
				"method": "rhf"
			},
			{
				"type": "unocc",
				"energy": -0.00615,
				"method": "rhf"
			},
			{
				"type": "unocc",
				"energy": 0.01196,
				"method": "rhf"
			},
			{
				"type": "unocc",
				"energy": 0.06041,
				"method": "rhf"
			},
			{
				"type": "unocc",
				"energy": 0.07398,
				"method": "rhf"
			}
		],
		"cosmo_sigma_profile": { 
			"-0.025": 0.0,
			"-0.024": 0.0,
			"-0.023": 0.0,
			"-0.022": 0.0,
			"-0.021": 0.0,
			"-0.02": 0.0,
			"-0.019": 0.0,
			"-0.018": 0.0,
			"-0.017": 0.484374478751,
			"-0.016": 1.46016509372,
			"-0.015": 1.54752327386,
			"-0.014": 2.41135067036,
			"-0.013": 1.91805260621,
			"-0.012": 1.80853427638,
			"-0.011": 1.61787047472,
			"-0.01": 2.48616918568,
			"-0.009": 1.90984545218,
			"-0.008": 1.95251974856,
			"-0.007": 4.34724998034,
			"-0.006": 9.07589332141,
			"-0.005": 18.2554389684,
			"-0.004": 24.1853561237,
			"-0.003": 26.4949349327,
			"-0.002": 24.6791769707,
			"-0.001": 22.9240379774,
			"0.0": 17.699721934,
			"0.001": 14.433668149,
			"0.002": 9.36106306517,
			"0.003": 11.4936865148,
			"0.004": 12.7823121025,
			"0.005": 14.3861068997,
			"0.006": 6.84113812086,
			"0.007": 3.87489013846,
			"0.008": 3.57130531966,
			"0.009": 4.40316607147,
			"0.01": 4.76111117833,
			"0.011": 5.85939678134,
			"0.012": 8.52842736153,
			"0.013": 6.3116531894,
			"0.014": 0.647929283656,
			"0.015": 0.0,
			"0.016": 0.0,
			"0.017": 0.0,
			"0.018": 0.0,
			"0.019": 0.0,
			"0.02": 0.0,
			"0.021": 0.0,
			"0.022": 0.0,
			"0.023": 0.0,
			"0.024": 0.0,
			"0.025": 0.0
		}
	}
}
