{
	 "smiles": "COC1=CC=C(C=C1)C(=O)OC(=O)C1=CC=C(OC)C=C1", 
	 "Tm": 368.95, 
	 "num_atms": 35, 
	 "gaussian": { 
		 "optdone": 1, 
		 "sigma_profile": "yes", 
		 "theory": "DFT", 
		 "functional": "B3LYP", 
		 "basiset": "6-31G**", 
		 "properties": { 
			 "R2extent": 10794.4524, 
			 "electric_dipole_moment_norm": 5.62873988562, 
			 "electric_quadrupole_moment_norm": 43.66105116, 
			 "total_energy": -994.260728972, 
			 "HOMO_LUMO_gap": 0.17985, 
			 "cosmo_polarized_energy": -17.14, 
			 "cosmo_cavitation_energy": 41.15, 
			 "cosmo_dispersion_energy": -29.38, 
			 "cosmo_repulsion_energy": 2.22, 
			 "cosmo_total_nonelectrostatic_energy": 13.99, 
			 "SMD_solvation_energy": 10.28 
		},
		"coords": [
			{
				"x": -6.0145257653,
				"y": 1.1984796497,
				"z": 2.100492071,
				"element": "C" 
			},
			{
				"x": -5.9752366021,
				"y": 0.3344433899,
				"z": 0.9723645535,
				"element": "O" 
			},
			{
				"x": -4.7860251418,
				"y": 0.129481825,
				"z": 0.3502015732,
				"element": "C" 
			},
			{
				"x": -4.8231654076,
				"y": -0.7334278634,
				"z": -0.7604567964,
				"element": "C" 
			},
			{
				"x": -3.6637074387,
				"y": -1.0069115068,
				"z": -1.463077761,
				"element": "C" 
			},
			{
				"x": -2.4388864856,
				"y": -0.430111623,
				"z": -1.0777802206,
				"element": "C" 
			},
			{
				"x": -2.4098342009,
				"y": 0.4277041555,
				"z": 0.0280796499,
				"element": "C" 
			},
			{
				"x": -3.5719092813,
				"y": 0.7116932672,
				"z": 0.7430076788,
				"element": "C" 
			},
			{
				"x": -1.2388902246,
				"y": -0.7567802212,
				"z": -1.8760348913,
				"element": "C" 
			},
			{
				"x": -1.2183062973,
				"y": -1.4460124572,
				"z": -2.8648125955,
				"element": "O" 
			},
			{
				"x": -0.0794431022,
				"y": -0.2231932466,
				"z": -1.3097016183,
				"element": "O" 
			},
			{
				"x": 1.0043775049,
				"y": 0.1175905856,
				"z": -2.1195135481,
				"element": "C" 
			},
			{
				"x": 0.8703773157,
				"y": 0.5016041035,
				"z": -3.2545557489,
				"element": "O" 
			},
			{
				"x": 2.2853835965,
				"y": 0.0147863303,
				"z": -1.3889038737,
				"element": "C" 
			},
			{
				"x": 2.3862193037,
				"y": -0.4944802223,
				"z": -0.081622308,
				"element": "C" 
			},
			{
				"x": 3.6180115268,
				"y": -0.5732145659,
				"z": 0.5473306247,
				"element": "C" 
			},
			{
				"x": 4.7797336023,
				"y": -0.1432308124,
				"z": -0.1174998225,
				"element": "C" 
			},
			{
				"x": 5.9352373538,
				"y": -0.261741232,
				"z": 0.585500108,
				"element": "O" 
			},
			{
				"x": 7.1510742539,
				"y": 0.1472689835,
				"z": -0.0278752277,
				"element": "C" 
			},
			{
				"x": 4.6907447675,
				"y": 0.366064039,
				"z": -1.4225167613,
				"element": "C" 
			},
			{
				"x": 3.4482750825,
				"y": 0.4398397372,
				"z": -2.0441091833,
				"element": "C" 
			},
			{
				"x": -5.381933781,
				"y": 0.825655507,
				"z": 2.9155163305,
				"element": "H" 
			},
			{
				"x": -7.0541679608,
				"y": 1.2132671131,
				"z": 2.4298587372,
				"element": "H" 
			},
			{
				"x": -5.7032869325,
				"y": 2.217181363,
				"z": 1.838404814,
				"element": "H" 
			},
			{
				"x": -5.7751491643,
				"y": -1.169372074,
				"z": -1.0441412696,
				"element": "H" 
			},
			{
				"x": -3.6779420249,
				"y": -1.667843769,
				"z": -2.3230667151,
				"element": "H" 
			},
			{
				"x": -1.4716808385,
				"y": 0.8794301853,
				"z": 0.3293009548,
				"element": "H" 
			},
			{
				"x": -3.5235318195,
				"y": 1.3808006415,
				"z": 1.5934505762,
				"element": "H" 
			},
			{
				"x": 1.4930417855,
				"y": -0.8304103776,
				"z": 0.4322495457,
				"element": "H" 
			},
			{
				"x": 3.7152254438,
				"y": -0.9656758121,
				"z": 1.5539780528,
				"element": "H" 
			},
			{
				"x": 7.1362894196,
				"y": 1.2150479563,
				"z": -0.2786674191,
				"element": "H" 
			},
			{
				"x": 7.3601276594,
				"y": -0.4341038175,
				"z": -0.9341961491,
				"element": "H" 
			},
			{
				"x": 7.9343718855,
				"y": -0.0388066615,
				"z": 0.707906798,
				"element": "H" 
			},
			{
				"x": 5.5738840007,
				"y": 0.7011723727,
				"z": -1.9526759529,
				"element": "H" 
			},
			{
				"x": 3.3608479667,
				"y": 0.8282050572,
				"z": -3.0533342061,
				"element": "H" 
			}
		],
		 "valence_orbital": [ 
			{
				"type": "occ",
				"energy": -0.265,
				"method": "rhf"
			},
			{
				"type": "occ",
				"energy": -0.26346,
				"method": "rhf"
			},
			{
				"type": "occ",
				"energy": -0.26273,
				"method": "rhf"
			},
			{
				"type": "occ",
				"energy": -0.23359,
				"method": "rhf"
			},
			{
				"type": "occ",
				"energy": -0.23229,
				"method": "rhf"
			},
			{
				"type": "unocc",
				"energy": -0.05244,
				"method": "rhf"
			},
			{
				"type": "unocc",
				"energy": -0.03478,
				"method": "rhf"
			},
			{
				"type": "unocc",
				"energy": -0.01102,
				"method": "rhf"
			},
			{
				"type": "unocc",
				"energy": -0.01036,
				"method": "rhf"
			},
			{
				"type": "unocc",
				"energy": 0.05203,
				"method": "rhf"
			}
		],
		"cosmo_sigma_profile": { 
			"-0.025": 0.0,
			"-0.024": 0.0,
			"-0.023": 0.0,
			"-0.022": 0.0,
			"-0.021": 0.0,
			"-0.02": 0.0,
			"-0.019": 0.0,
			"-0.018": 0.0,
			"-0.017": 0.0,
			"-0.016": 0.0,
			"-0.015": 0.0,
			"-0.014": 0.0,
			"-0.013": 0.0,
			"-0.012": 0.0,
			"-0.011": 0.0,
			"-0.01": 0.0,
			"-0.009": 0.0,
			"-0.008": 0.300495669388,
			"-0.007": 9.053521898,
			"-0.006": 28.6766570382,
			"-0.005": 29.0613392195,
			"-0.004": 28.4331272815,
			"-0.003": 24.1866205493,
			"-0.002": 20.6207157452,
			"-0.001": 22.7917512811,
			"0.0": 23.1903764217,
			"0.001": 24.5588835556,
			"0.002": 28.5175944669,
			"0.003": 30.7061651446,
			"0.004": 12.4484565166,
			"0.005": 6.06865511769,
			"0.006": 3.48243157889,
			"0.007": 5.40377423757,
			"0.008": 5.68525442501,
			"0.009": 6.85359778722,
			"0.01": 6.36201292563,
			"0.011": 9.31252222084,
			"0.012": 3.30682729423,
			"0.013": 0.596277085289,
			"0.014": 0.0,
			"0.015": 0.0,
			"0.016": 0.0,
			"0.017": 0.0,
			"0.018": 0.0,
			"0.019": 0.0,
			"0.02": 0.0,
			"0.021": 0.0,
			"0.022": 0.0,
			"0.023": 0.0,
			"0.024": 0.0,
			"0.025": 0.0
		}
	}
}
