{
	 "smiles": "ClCC1=NN=C(O1)C1=CC=C(Cl)C=C1", 
	 "Tm": 356.15, 
	 "num_atms": 20, 
	 "gaussian": { 
		 "optdone": 1, 
		 "sigma_profile": "yes", 
		 "theory": "DFT", 
		 "functional": "B3LYP", 
		 "basiset": "6-31G**", 
		 "properties": { 
			 "R2extent": 5780.7437, 
			 "electric_dipole_moment_norm": 2.4518164083, 
			 "electric_quadrupole_moment_norm": 12.4448016264, 
			 "total_energy": -1451.66110837, 
			 "HOMO_LUMO_gap": 0.17863, 
			 "cosmo_polarized_energy": -11.25, 
			 "cosmo_cavitation_energy": 29.41, 
			 "cosmo_dispersion_energy": -21.83, 
			 "cosmo_repulsion_energy": 1.73, 
			 "cosmo_total_nonelectrostatic_energy": 9.31, 
			 "SMD_solvation_energy": 2.81 
		},
		"coords": [
			{
				"x": -3.6589261853,
				"y": 2.476256165,
				"z": -2.7998662451,
				"element": "Cl" 
			},
			{
				"x": -2.0057491601,
				"y": 2.1127307343,
				"z": -3.4729489173,
				"element": "C" 
			},
			{
				"x": -1.4690600707,
				"y": 0.8279260606,
				"z": -2.9757019719,
				"element": "C" 
			},
			{
				"x": -1.2738585915,
				"y": -0.2631736833,
				"z": -3.6485096421,
				"element": "N" 
			},
			{
				"x": -0.7436418905,
				"y": -1.1855011756,
				"z": -2.7558322633,
				"element": "N" 
			},
			{
				"x": -0.6618329562,
				"y": -0.5835112012,
				"z": -1.6025041096,
				"element": "C" 
			},
			{
				"x": -1.1030797248,
				"y": 0.7077631247,
				"z": -1.6687405801,
				"element": "O" 
			},
			{
				"x": -0.1773603005,
				"y": -1.1145135609,
				"z": -0.3357554947,
				"element": "C" 
			},
			{
				"x": 0.2946796673,
				"y": -2.4364427293,
				"z": -0.2846686455,
				"element": "C" 
			},
			{
				"x": 0.7625194248,
				"y": -2.9684076401,
				"z": 0.9112866948,
				"element": "C" 
			},
			{
				"x": 0.7576049879,
				"y": -2.1739373673,
				"z": 2.0605617622,
				"element": "C" 
			},
			{
				"x": 1.3475862592,
				"y": -2.8414029622,
				"z": 3.5701807342,
				"element": "Cl" 
			},
			{
				"x": 0.2914332767,
				"y": -0.8590999228,
				"z": 2.0289492434,
				"element": "C" 
			},
			{
				"x": -0.1760137503,
				"y": -0.3317102348,
				"z": 0.8283190799,
				"element": "C" 
			},
			{
				"x": -2.0973975528,
				"y": 2.056666696,
				"z": -4.5560813628,
				"element": "H" 
			},
			{
				"x": -1.3696798222,
				"y": 2.951344097,
				"z": -3.1876978586,
				"element": "H" 
			},
			{
				"x": 0.2893863802,
				"y": -3.0356462368,
				"z": -1.1886819942,
				"element": "H" 
			},
			{
				"x": 1.12825174,
				"y": -3.9878828667,
				"z": 0.9572500749,
				"element": "H" 
			},
			{
				"x": 0.2942688588,
				"y": -0.259344711,
				"z": 2.9319518143,
				"element": "H" 
			},
			{
				"x": -0.5426305899,
				"y": 0.6884874146,
				"z": 0.7949896816,
				"element": "H" 
			}
		],
		 "valence_orbital": [ 
			{
				"type": "occ",
				"energy": -0.31389,
				"method": "rhf"
			},
			{
				"type": "occ",
				"energy": -0.304,
				"method": "rhf"
			},
			{
				"type": "occ",
				"energy": -0.29102,
				"method": "rhf"
			},
			{
				"type": "occ",
				"energy": -0.28211,
				"method": "rhf"
			},
			{
				"type": "occ",
				"energy": -0.24937,
				"method": "rhf"
			},
			{
				"type": "unocc",
				"energy": -0.07074,
				"method": "rhf"
			},
			{
				"type": "unocc",
				"energy": -0.03368,
				"method": "rhf"
			},
			{
				"type": "unocc",
				"energy": -0.02781,
				"method": "rhf"
			},
			{
				"type": "unocc",
				"energy": 0.018,
				"method": "rhf"
			},
			{
				"type": "unocc",
				"energy": 0.03257,
				"method": "rhf"
			}
		],
		"cosmo_sigma_profile": { 
			"-0.025": 0.0,
			"-0.024": 0.0,
			"-0.023": 0.0,
			"-0.022": 0.0,
			"-0.021": 0.0,
			"-0.02": 0.0,
			"-0.019": 0.0,
			"-0.018": 0.0,
			"-0.017": 0.0,
			"-0.016": 0.0,
			"-0.015": 0.0,
			"-0.014": 0.0,
			"-0.013": 0.0,
			"-0.012": 0.0,
			"-0.011": 0.192635791618,
			"-0.01": 3.95936268023,
			"-0.009": 3.56832410463,
			"-0.008": 7.16486629455,
			"-0.007": 11.9335199527,
			"-0.006": 11.8476629267,
			"-0.005": 11.5374423508,
			"-0.004": 10.2008308555,
			"-0.003": 11.6460306071,
			"-0.002": 15.0086476476,
			"-0.001": 17.8715711632,
			"0.0": 20.3554977653,
			"0.001": 25.2638399235,
			"0.002": 24.162011745,
			"0.003": 15.0854647507,
			"0.004": 17.3510136529,
			"0.005": 12.7207277106,
			"0.006": 3.96834797233,
			"0.007": 1.57174643944,
			"0.008": 2.60006652746,
			"0.009": 2.1400148283,
			"0.01": 2.77026036175,
			"0.011": 3.54266807377,
			"0.012": 2.20638097267,
			"0.013": 2.14579289236,
			"0.014": 1.12296094024,
			"0.015": 0.0285458761751,
			"0.016": 0.0,
			"0.017": 0.0,
			"0.018": 0.0,
			"0.019": 0.0,
			"0.02": 0.0,
			"0.021": 0.0,
			"0.022": 0.0,
			"0.023": 0.0,
			"0.024": 0.0,
			"0.025": 0.0
		}
	}
}
