{
	 "smiles": "CC(=O)NC1=CC=CC(Cl)=C1", 
	 "Tm": 351.65, 
	 "num_atms": 19, 
	 "gaussian": { 
		 "optdone": 1, 
		 "sigma_profile": "yes", 
		 "theory": "DFT", 
		 "functional": "B3LYP", 
		 "basiset": "6-31G**", 
		 "properties": { 
			 "R2extent": 2986.5727, 
			 "electric_dipole_moment_norm": 2.51945526851, 
			 "electric_quadrupole_moment_norm": 20.3944575871, 
			 "total_energy": -899.863078049, 
			 "HOMO_LUMO_gap": 0.2073, 
			 "cosmo_polarized_energy": -12.13, 
			 "cosmo_cavitation_energy": 25.03, 
			 "cosmo_dispersion_energy": -18.76, 
			 "cosmo_repulsion_energy": 1.51, 
			 "cosmo_total_nonelectrostatic_energy": 7.78, 
			 "SMD_solvation_energy": 4.83 
		},
		"coords": [
			{
				"x": -3.199104547,
				"y": -0.0170987096,
				"z": 3.109544308,
				"element": "C" 
			},
			{
				"x": -1.9263282478,
				"y": -0.2809498473,
				"z": 2.3174581757,
				"element": "C" 
			},
			{
				"x": -0.9463230284,
				"y": -0.7949100212,
				"z": 2.8351349952,
				"element": "O" 
			},
			{
				"x": -1.9866977907,
				"y": 0.1101630475,
				"z": 0.9943620921,
				"element": "N" 
			},
			{
				"x": -0.9934410896,
				"y": 0.014381184,
				"z": -0.0009531466,
				"element": "C" 
			},
			{
				"x": 0.2807524678,
				"y": -0.5287294027,
				"z": 0.2284010061,
				"element": "C" 
			},
			{
				"x": 1.1956468993,
				"y": -0.5796898505,
				"z": -0.8223875761,
				"element": "C" 
			},
			{
				"x": 0.8821655539,
				"y": -0.1063290602,
				"z": -2.0968961553,
				"element": "C" 
			},
			{
				"x": -0.3880861115,
				"y": 0.4285782192,
				"z": -2.3021478568,
				"element": "C" 
			},
			{
				"x": -0.826991721,
				"y": 1.0375819936,
				"z": -3.8939232763,
				"element": "Cl" 
			},
			{
				"x": -1.3258335347,
				"y": 0.4955254489,
				"z": -1.2779380728,
				"element": "C" 
			},
			{
				"x": -4.0136775199,
				"y": 0.4185523053,
				"z": 2.5243919085,
				"element": "H" 
			},
			{
				"x": -3.5391911819,
				"y": -0.9607785043,
				"z": 3.5440019769,
				"element": "H" 
			},
			{
				"x": -2.9601827005,
				"y": 0.6549264492,
				"z": 3.9384529437,
				"element": "H" 
			},
			{
				"x": -2.8565699917,
				"y": 0.5226461344,
				"z": 0.6911317239,
				"element": "H" 
			},
			{
				"x": 0.5306392048,
				"y": -0.8971847633,
				"z": 1.2124099719,
				"element": "H" 
			},
			{
				"x": 2.1803279839,
				"y": -1.0005017495,
				"z": -0.6412088661,
				"element": "H" 
			},
			{
				"x": 1.598372678,
				"y": -0.1491566438,
				"z": -2.9090232063,
				"element": "H" 
			},
			{
				"x": -2.3066773228,
				"y": 0.9185737703,
				"z": -1.4726109457,
				"element": "H" 
			}
		],
		 "valence_orbital": [ 
			{
				"type": "occ",
				"energy": -0.31415,
				"method": "rhf"
			},
			{
				"type": "occ",
				"energy": -0.30637,
				"method": "rhf"
			},
			{
				"type": "occ",
				"energy": -0.26023,
				"method": "rhf"
			},
			{
				"type": "occ",
				"energy": -0.25175,
				"method": "rhf"
			},
			{
				"type": "occ",
				"energy": -0.22981,
				"method": "rhf"
			},
			{
				"type": "unocc",
				"energy": -0.02251,
				"method": "rhf"
			},
			{
				"type": "unocc",
				"energy": -0.01314,
				"method": "rhf"
			},
			{
				"type": "unocc",
				"energy": 0.02615,
				"method": "rhf"
			},
			{
				"type": "unocc",
				"energy": 0.0368,
				"method": "rhf"
			},
			{
				"type": "unocc",
				"energy": 0.05957,
				"method": "rhf"
			}
		],
		"cosmo_sigma_profile": { 
			"-0.025": 0.0,
			"-0.024": 0.0,
			"-0.023": 0.0,
			"-0.022": 0.0,
			"-0.021": 0.0,
			"-0.02": 0.0,
			"-0.019": 0.0,
			"-0.018": 0.0,
			"-0.017": 0.0,
			"-0.016": 0.384320550851,
			"-0.015": 1.40930780742,
			"-0.014": 1.65801111192,
			"-0.013": 1.87735549042,
			"-0.012": 1.41312108789,
			"-0.011": 0.933203233495,
			"-0.01": 2.05213236794,
			"-0.009": 1.80582178104,
			"-0.008": 1.69158537335,
			"-0.007": 4.46147686474,
			"-0.006": 9.46474346748,
			"-0.005": 10.5541588132,
			"-0.004": 12.6670080989,
			"-0.003": 12.6871303847,
			"-0.002": 15.9254201307,
			"-0.001": 11.1576129869,
			"0.0": 11.1532810186,
			"0.001": 15.4886992413,
			"0.002": 17.6725399548,
			"0.003": 20.2034494294,
			"0.004": 20.2296867555,
			"0.005": 10.1709877049,
			"0.006": 1.62549403568,
			"0.007": 2.67221612448,
			"0.008": 0.909200023836,
			"0.009": 1.12450000017,
			"0.01": 1.92105884419,
			"0.011": 1.80334470836,
			"0.012": 2.48605053276,
			"0.013": 2.96547276774,
			"0.014": 1.63296236339,
			"0.015": 0.129105738969,
			"0.016": 0.0,
			"0.017": 0.0,
			"0.018": 0.0,
			"0.019": 0.0,
			"0.02": 0.0,
			"0.021": 0.0,
			"0.022": 0.0,
			"0.023": 0.0,
			"0.024": 0.0,
			"0.025": 0.0
		}
	}
}
