{
	 "smiles": "FC(F)(F)C(F)(F)C(F)(F)C(F)(F)C(F)(F)C(F)(F)C(F)(F)C(F)(F)C(=O)N(CC1=CC=CC=C1)CC1=CC=CC=C1", 
	 "Tm": 322.15, 
	 "num_atms": 56, 
	 "gaussian": { 
		 "optdone": 1, 
		 "sigma_profile": "yes", 
		 "theory": "DFT", 
		 "functional": "B3LYP", 
		 "basiset": "6-31G**", 
		 "properties": { 
			 "R2extent": 33575.999, 
			 "electric_dipole_moment_norm": 4.62773224053, 
			 "electric_quadrupole_moment_norm": 11.862878324, 
			 "total_energy": -2712.081239, 
			 "HOMO_LUMO_gap": 0.22315, 
			 "cosmo_polarized_energy": -9.84, 
			 "cosmo_cavitation_energy": 64.45, 
			 "cosmo_dispersion_energy": -41.08, 
			 "cosmo_repulsion_energy": 2.74, 
			 "cosmo_total_nonelectrostatic_energy": 26.11, 
			 "SMD_solvation_energy": 15.68 
		},
		"coords": [
			{
				"x": 3.3678329346,
				"y": -5.1963387166,
				"z": 6.2865483032,
				"element": "F" 
			},
			{
				"x": 3.4755946703,
				"y": -3.963003494,
				"z": 6.7923822524,
				"element": "C" 
			},
			{
				"x": 2.3287499074,
				"y": -3.6297972893,
				"z": 7.3975475016,
				"element": "F" 
			},
			{
				"x": 4.4581416379,
				"y": -3.964114316,
				"z": 7.7017443724,
				"element": "F" 
			},
			{
				"x": 3.8324889915,
				"y": -2.9439307298,
				"z": 5.675269419,
				"element": "C" 
			},
			{
				"x": 4.3607209035,
				"y": -1.8556313025,
				"z": 6.2826808399,
				"element": "F" 
			},
			{
				"x": 4.7723618097,
				"y": -3.5085985392,
				"z": 4.885665041,
				"element": "F" 
			},
			{
				"x": 2.6858440746,
				"y": -2.3925368076,
				"z": 4.7698219848,
				"element": "C" 
			},
			{
				"x": 1.819086767,
				"y": -1.7122852197,
				"z": 5.5501352255,
				"element": "F" 
			},
			{
				"x": 3.2921072963,
				"y": -1.5323660935,
				"z": 3.9160998251,
				"element": "F" 
			},
			{
				"x": 1.9119297788,
				"y": -3.4308673755,
				"z": 3.9218169197,
				"element": "C" 
			},
			{
				"x": 1.4177751022,
				"y": -4.3746088992,
				"z": 4.7651570566,
				"element": "F" 
			},
			{
				"x": 2.7874388308,
				"y": -4.0183002191,
				"z": 3.0790011283,
				"element": "F" 
			},
			{
				"x": 0.6669740835,
				"y": -2.9244213193,
				"z": 3.1205207084,
				"element": "C" 
			},
			{
				"x": -0.2540427054,
				"y": -2.5413555142,
				"z": 4.0376577547,
				"element": "F" 
			},
			{
				"x": 0.1848182819,
				"y": -3.9979954873,
				"z": 2.4544466243,
				"element": "F" 
			},
			{
				"x": 0.7817594595,
				"y": -1.7281127555,
				"z": 2.1205376569,
				"element": "C" 
			},
			{
				"x": -0.4757189202,
				"y": -1.5744882956,
				"z": 1.6191705117,
				"element": "F" 
			},
			{
				"x": 1.0938768704,
				"y": -0.6378073066,
				"z": 2.8416429176,
				"element": "F" 
			},
			{
				"x": 1.7691377742,
				"y": -1.8934962296,
				"z": 0.9154204207,
				"element": "C" 
			},
			{
				"x": 2.9377214864,
				"y": -1.2944360148,
				"z": 1.2067136218,
				"element": "F" 
			},
			{
				"x": 2.0074479539,
				"y": -3.221434579,
				"z": 0.7307376313,
				"element": "F" 
			},
			{
				"x": 1.2531660085,
				"y": -1.3891924721,
				"z": -0.4688581188,
				"element": "C" 
			},
			{
				"x": 2.2838768121,
				"y": -1.59809421,
				"z": -1.3415148339,
				"element": "F" 
			},
			{
				"x": 0.2330939068,
				"y": -2.2162376795,
				"z": -0.8413936201,
				"element": "F" 
			},
			{
				"x": 0.8436985344,
				"y": 0.0992007213,
				"z": -0.5051837604,
				"element": "C" 
			},
			{
				"x": 1.0870598761,
				"y": 0.7734446394,
				"z": 0.4920012969,
				"element": "O" 
			},
			{
				"x": 0.2465435195,
				"y": 0.5728766991,
				"z": -1.6271730042,
				"element": "N" 
			},
			{
				"x": -0.1596937832,
				"y": 1.9947537464,
				"z": -1.6310068539,
				"element": "C" 
			},
			{
				"x": 0.8252418409,
				"y": 2.8945166814,
				"z": -2.3518873639,
				"element": "C" 
			},
			{
				"x": 2.0712225897,
				"y": 3.1860939649,
				"z": -1.7758183921,
				"element": "C" 
			},
			{
				"x": 2.979174581,
				"y": 4.0092137282,
				"z": -2.4400027368,
				"element": "C" 
			},
			{
				"x": 2.6549302467,
				"y": 4.5544540523,
				"z": -3.685802784,
				"element": "C" 
			},
			{
				"x": 1.4171878888,
				"y": 4.2731791316,
				"z": -4.2638009512,
				"element": "C" 
			},
			{
				"x": 0.5083262833,
				"y": 3.4459951145,
				"z": -3.5988375075,
				"element": "C" 
			},
			{
				"x": 0.0794823433,
				"y": -0.1500367885,
				"z": -2.8974592571,
				"element": "C" 
			},
			{
				"x": -1.3754821841,
				"y": -0.3472275276,
				"z": -3.2900804264,
				"element": "C" 
			},
			{
				"x": -2.2945264789,
				"y": -0.9190967935,
				"z": -2.3993124153,
				"element": "C" 
			},
			{
				"x": -3.6193497128,
				"y": -1.1195559849,
				"z": -2.7847455192,
				"element": "C" 
			},
			{
				"x": -4.043222039,
				"y": -0.7573711882,
				"z": -4.0661483656,
				"element": "C" 
			},
			{
				"x": -3.1346269451,
				"y": -0.1901011843,
				"z": -4.9595089887,
				"element": "C" 
			},
			{
				"x": -1.8093869406,
				"y": 0.01685346,
				"z": -4.5697291831,
				"element": "C" 
			},
			{
				"x": -0.2626602367,
				"y": 2.2930123453,
				"z": -0.5870295271,
				"element": "H" 
			},
			{
				"x": -1.1427134966,
				"y": 2.047387493,
				"z": -2.1071643503,
				"element": "H" 
			},
			{
				"x": 2.3175190639,
				"y": 2.7681907304,
				"z": -0.8039155524,
				"element": "H" 
			},
			{
				"x": 3.9393964339,
				"y": 4.2311818591,
				"z": -1.9830814268,
				"element": "H" 
			},
			{
				"x": 3.3631021779,
				"y": 5.1980005059,
				"z": -4.1998474473,
				"element": "H" 
			},
			{
				"x": 1.1566370856,
				"y": 4.6965875969,
				"z": -5.2297046273,
				"element": "H" 
			},
			{
				"x": -0.4589410701,
				"y": 3.2329456373,
				"z": -4.048229388,
				"element": "H" 
			},
			{
				"x": 0.5928644198,
				"y": 0.4281625518,
				"z": -3.6741878849,
				"element": "H" 
			},
			{
				"x": 0.5904012265,
				"y": -1.1086701294,
				"z": -2.8343106175,
				"element": "H" 
			},
			{
				"x": -1.9696926145,
				"y": -1.2080605702,
				"z": -1.4049870182,
				"element": "H" 
			},
			{
				"x": -4.3218947486,
				"y": -1.5627937013,
				"z": -2.0848145748,
				"element": "H" 
			},
			{
				"x": -5.0756382747,
				"y": -0.9154979412,
				"z": -4.3640612742,
				"element": "H" 
			},
			{
				"x": -3.4556345792,
				"y": 0.0974640444,
				"z": -5.9565859047,
				"element": "H" 
			},
			{
				"x": -1.1044087239,
				"y": 0.4629479716,
				"z": -5.2674353384,
				"element": "H" 
			}
		],
		 "valence_orbital": [ 
			{
				"type": "occ",
				"energy": -0.2694,
				"method": "rhf"
			},
			{
				"type": "occ",
				"energy": -0.26081,
				"method": "rhf"
			},
			{
				"type": "occ",
				"energy": -0.2569,
				"method": "rhf"
			},
			{
				"type": "occ",
				"energy": -0.25639,
				"method": "rhf"
			},
			{
				"type": "occ",
				"energy": -0.25032,
				"method": "rhf"
			},
			{
				"type": "unocc",
				"energy": -0.02717,
				"method": "rhf"
			},
			{
				"type": "unocc",
				"energy": -0.01734,
				"method": "rhf"
			},
			{
				"type": "unocc",
				"energy": -0.01289,
				"method": "rhf"
			},
			{
				"type": "unocc",
				"energy": -0.01106,
				"method": "rhf"
			},
			{
				"type": "unocc",
				"energy": -0.00541,
				"method": "rhf"
			}
		],
		"cosmo_sigma_profile": { 
			"-0.025": 0.0,
			"-0.024": 0.0,
			"-0.023": 0.0,
			"-0.022": 0.0,
			"-0.021": 0.0,
			"-0.02": 0.0,
			"-0.019": 0.0,
			"-0.018": 0.0,
			"-0.017": 0.0,
			"-0.016": 0.0,
			"-0.015": 0.0,
			"-0.014": 0.0,
			"-0.013": 0.0,
			"-0.012": 0.0,
			"-0.011": 0.0,
			"-0.01": 0.0,
			"-0.009": 0.0,
			"-0.008": 0.0,
			"-0.007": 0.618139882465,
			"-0.006": 13.6259642162,
			"-0.005": 24.6673142398,
			"-0.004": 36.8479938893,
			"-0.003": 36.3686789414,
			"-0.002": 33.7868676198,
			"-0.001": 45.019390844,
			"0.0": 75.1338600666,
			"0.001": 133.824483562,
			"0.002": 42.9861523015,
			"0.003": 17.044675495,
			"0.004": 18.3570325548,
			"0.005": 19.9717368887,
			"0.006": 8.93348191474,
			"0.007": 1.46687489763,
			"0.008": 2.09129826014,
			"0.009": 2.10758304695,
			"0.01": 2.02063186095,
			"0.011": 1.60466266792,
			"0.012": 0.246425663186,
			"0.013": 0.0,
			"0.014": 0.0,
			"0.015": 0.0,
			"0.016": 0.0,
			"0.017": 0.0,
			"0.018": 0.0,
			"0.019": 0.0,
			"0.02": 0.0,
			"0.021": 0.0,
			"0.022": 0.0,
			"0.023": 0.0,
			"0.024": 0.0,
			"0.025": 0.0
		}
	}
}
