{
	 "smiles": "CS(=O)(=O)C1CSCCN1", 
	 "Tm": 389.15, 
	 "num_atms": 21, 
	 "gaussian": { 
		 "optdone": 1, 
		 "sigma_profile": "yes", 
		 "theory": "DFT", 
		 "functional": "B3LYP", 
		 "basiset": "6-31G**", 
		 "properties": { 
			 "R2extent": 2670.978, 
			 "electric_dipole_moment_norm": 4.29677198953, 
			 "electric_quadrupole_moment_norm": 18.8287636217, 
			 "total_energy": -1198.65688352, 
			 "HOMO_LUMO_gap": 0.24929, 
			 "cosmo_polarized_energy": -19.28, 
			 "cosmo_cavitation_energy": 25.44, 
			 "cosmo_dispersion_energy": -19.69, 
			 "cosmo_repulsion_energy": 1.49, 
			 "cosmo_total_nonelectrostatic_energy": 7.23, 
			 "SMD_solvation_energy": 1.32 
		},
		"coords": [
			{
				"x": 0.5549149206,
				"y": 2.7742693292,
				"z": 1.1460949011,
				"element": "C" 
			},
			{
				"x": 2.039203542,
				"y": 2.0443266671,
				"z": 0.4136678286,
				"element": "S" 
			},
			{
				"x": 2.4225727957,
				"y": 2.8704094623,
				"z": -0.7397133768,
				"element": "O" 
			},
			{
				"x": 3.0031472825,
				"y": 1.7766926658,
				"z": 1.4959688015,
				"element": "O" 
			},
			{
				"x": 1.4723307635,
				"y": 0.3984806679,
				"z": -0.2413620254,
				"element": "C" 
			},
			{
				"x": 1.5802524956,
				"y": -0.709619975,
				"z": 0.8242464116,
				"element": "C" 
			},
			{
				"x": 0.5129149816,
				"y": -2.1529237359,
				"z": 0.3626248732,
				"element": "S" 
			},
			{
				"x": 0.5331260071,
				"y": -1.9208441468,
				"z": -1.459306828,
				"element": "C" 
			},
			{
				"x": -0.0394158597,
				"y": -0.5376647114,
				"z": -1.8684572905,
				"element": "C" 
			},
			{
				"x": 0.1711722652,
				"y": 0.5235925003,
				"z": -0.8671082151,
				"element": "N" 
			},
			{
				"x": -0.1978001543,
				"y": 2.8946967625,
				"z": 0.3676551461,
				"element": "H" 
			},
			{
				"x": 0.868703577,
				"y": 3.7451943269,
				"z": 1.5335226216,
				"element": "H" 
			},
			{
				"x": 0.197597056,
				"y": 2.1463553067,
				"z": 1.9645293565,
				"element": "H" 
			},
			{
				"x": 2.2169229603,
				"y": 0.2400823657,
				"z": -1.0285225072,
				"element": "H" 
			},
			{
				"x": 1.2152922432,
				"y": -0.3685443282,
				"z": 1.7971574661,
				"element": "H" 
			},
			{
				"x": 2.6182727315,
				"y": -1.0199614894,
				"z": 0.9544161162,
				"element": "H" 
			},
			{
				"x": 1.5562372602,
				"y": -2.0552071193,
				"z": -1.8227030389,
				"element": "H" 
			},
			{
				"x": -0.0657756502,
				"y": -2.7350141352,
				"z": -1.8751976902,
				"element": "H" 
			},
			{
				"x": 0.4211235942,
				"y": -0.2243481765,
				"z": -2.8133630065,
				"element": "H" 
			},
			{
				"x": -1.1173669907,
				"y": -0.6092994603,
				"z": -2.0373570949,
				"element": "H" 
			},
			{
				"x": -0.5412258213,
				"y": 0.4126272236,
				"z": -0.148492449,
				"element": "H" 
			}
		],
		 "valence_orbital": [ 
			{
				"type": "occ",
				"energy": -0.30784,
				"method": "rhf"
			},
			{
				"type": "occ",
				"energy": -0.29408,
				"method": "rhf"
			},
			{
				"type": "occ",
				"energy": -0.29052,
				"method": "rhf"
			},
			{
				"type": "occ",
				"energy": -0.25611,
				"method": "rhf"
			},
			{
				"type": "occ",
				"energy": -0.23795,
				"method": "rhf"
			},
			{
				"type": "unocc",
				"energy": 0.01134,
				"method": "rhf"
			},
			{
				"type": "unocc",
				"energy": 0.03943,
				"method": "rhf"
			},
			{
				"type": "unocc",
				"energy": 0.04996,
				"method": "rhf"
			},
			{
				"type": "unocc",
				"energy": 0.06459,
				"method": "rhf"
			},
			{
				"type": "unocc",
				"energy": 0.078,
				"method": "rhf"
			}
		],
		"cosmo_sigma_profile": { 
			"-0.025": 0.0,
			"-0.024": 0.0,
			"-0.023": 0.0,
			"-0.022": 0.0,
			"-0.021": 0.0,
			"-0.02": 0.0,
			"-0.019": 0.0,
			"-0.018": 0.0,
			"-0.017": 0.0,
			"-0.016": 0.0,
			"-0.015": 0.0,
			"-0.014": 0.000175579839737,
			"-0.013": 0.274800534017,
			"-0.012": 0.804429966613,
			"-0.011": 1.4821964434,
			"-0.01": 2.22650958893,
			"-0.009": 7.04267600521,
			"-0.008": 9.00529230009,
			"-0.007": 10.3892240838,
			"-0.006": 16.3748029314,
			"-0.005": 18.3987948735,
			"-0.004": 17.5125630258,
			"-0.003": 15.237532057,
			"-0.002": 10.8206257635,
			"-0.001": 7.01875833812,
			"0.0": 5.97280067306,
			"0.001": 4.86179234513,
			"0.002": 5.12725523492,
			"0.003": 5.29771793246,
			"0.004": 3.98484921245,
			"0.005": 6.40774284689,
			"0.006": 6.71683216163,
			"0.007": 4.58982083132,
			"0.008": 4.69862490781,
			"0.009": 5.89799709339,
			"0.01": 5.98697344324,
			"0.011": 9.36988300904,
			"0.012": 12.5834277758,
			"0.013": 2.76526971695,
			"0.014": 0.119278360631,
			"0.015": 0.0,
			"0.016": 0.0,
			"0.017": 0.0,
			"0.018": 0.0,
			"0.019": 0.0,
			"0.02": 0.0,
			"0.021": 0.0,
			"0.022": 0.0,
			"0.023": 0.0,
			"0.024": 0.0,
			"0.025": 0.0
		}
	}
}
