{
	 "smiles": "NC1=NN=C(N1)C1=NC=CC=C1", 
	 "Tm": 473.15, 
	 "num_atms": 19, 
	 "gaussian": { 
		 "optdone": 1, 
		 "sigma_profile": "yes", 
		 "theory": "DFT", 
		 "functional": "B3LYP", 
		 "basiset": "6-31G**", 
		 "properties": { 
			 "R2extent": 2549.4674, 
			 "electric_dipole_moment_norm": 4.01872810103, 
			 "electric_quadrupole_moment_norm": 20.6126036092, 
			 "total_energy": -544.708505697, 
			 "HOMO_LUMO_gap": 0.16804, 
			 "cosmo_polarized_energy": -19.93, 
			 "cosmo_cavitation_energy": 24.04, 
			 "cosmo_dispersion_energy": -18.22, 
			 "cosmo_repulsion_energy": 1.45, 
			 "cosmo_total_nonelectrostatic_energy": 7.27, 
			 "SMD_solvation_energy": 0.94 
		},
		"coords": [
			{
				"x": -2.2785977508,
				"y": -0.7666549464,
				"z": 2.3291368291,
				"element": "N" 
			},
			{
				"x": -1.0937101804,
				"y": -1.0004606246,
				"z": 1.6507161467,
				"element": "C" 
			},
			{
				"x": -0.1245168814,
				"y": -1.805162721,
				"z": 2.0468826107,
				"element": "N" 
			},
			{
				"x": 0.9052502342,
				"y": -1.6793262423,
				"z": 1.1373760904,
				"element": "N" 
			},
			{
				"x": 0.5251548303,
				"y": -0.8212099338,
				"z": 0.2174604575,
				"element": "C" 
			},
			{
				"x": -0.7401081641,
				"y": -0.3580289102,
				"z": 0.5010518957,
				"element": "N" 
			},
			{
				"x": 1.269071032,
				"y": -0.3729086442,
				"z": -0.9555163363,
				"element": "C" 
			},
			{
				"x": 0.6400881539,
				"y": 0.5270928526,
				"z": -1.7362439861,
				"element": "N" 
			},
			{
				"x": 1.2890215761,
				"y": 0.9655325906,
				"z": -2.8205329918,
				"element": "C" 
			},
			{
				"x": 2.5690982992,
				"y": 0.5422981049,
				"z": -3.1781456805,
				"element": "C" 
			},
			{
				"x": 3.2108006356,
				"y": -0.3911736169,
				"z": -2.3594747574,
				"element": "C" 
			},
			{
				"x": 2.5557153454,
				"y": -0.8608842037,
				"z": -1.2274890337,
				"element": "C" 
			},
			{
				"x": -3.1099454436,
				"y": -0.8098582229,
				"z": 1.7507357688,
				"element": "H" 
			},
			{
				"x": -2.3559578672,
				"y": -1.3937639556,
				"z": 3.1214495701,
				"element": "H" 
			},
			{
				"x": -1.2200445679,
				"y": 0.3544376651,
				"z": -0.0293877558,
				"element": "H" 
			},
			{
				"x": 0.7579400245,
				"y": 1.6920272787,
				"z": -3.4329791659,
				"element": "H" 
			},
			{
				"x": 3.0465336091,
				"y": 0.9337156372,
				"z": -4.0704705455,
				"element": "H" 
			},
			{
				"x": 4.208089513,
				"y": -0.7463764262,
				"z": -2.6023105577,
				"element": "H" 
			},
			{
				"x": 3.0026176019,
				"y": -1.5841956812,
				"z": -0.5548585583,
				"element": "H" 
			}
		],
		 "valence_orbital": [ 
			{
				"type": "occ",
				"energy": -0.2898,
				"method": "rhf"
			},
			{
				"type": "occ",
				"energy": -0.27571,
				"method": "rhf"
			},
			{
				"type": "occ",
				"energy": -0.26938,
				"method": "rhf"
			},
			{
				"type": "occ",
				"energy": -0.24746,
				"method": "rhf"
			},
			{
				"type": "occ",
				"energy": -0.21154,
				"method": "rhf"
			},
			{
				"type": "unocc",
				"energy": -0.0435,
				"method": "rhf"
			},
			{
				"type": "unocc",
				"energy": -0.02387,
				"method": "rhf"
			},
			{
				"type": "unocc",
				"energy": 0.0508,
				"method": "rhf"
			},
			{
				"type": "unocc",
				"energy": 0.07082,
				"method": "rhf"
			},
			{
				"type": "unocc",
				"energy": 0.0737,
				"method": "rhf"
			}
		],
		"cosmo_sigma_profile": { 
			"-0.025": 0.0,
			"-0.024": 0.0,
			"-0.023": 0.0,
			"-0.022": 0.0,
			"-0.021": 0.0,
			"-0.02": 0.0,
			"-0.019": 0.0,
			"-0.018": 0.0,
			"-0.017": 0.104268491058,
			"-0.016": 0.912255116958,
			"-0.015": 1.47373071287,
			"-0.014": 3.46436969105,
			"-0.013": 3.33341426712,
			"-0.012": 3.35749016609,
			"-0.011": 3.12228114321,
			"-0.01": 3.21829349387,
			"-0.009": 2.42949206275,
			"-0.008": 2.33700221675,
			"-0.007": 7.71370554571,
			"-0.006": 11.2648175425,
			"-0.005": 10.255301353,
			"-0.004": 8.46890624394,
			"-0.003": 7.98623518506,
			"-0.002": 6.87293100053,
			"-0.001": 9.79526548107,
			"0.0": 15.8357201779,
			"0.001": 17.6942377259,
			"0.002": 18.6459282296,
			"0.003": 7.54506407855,
			"0.004": 4.7428734045,
			"0.005": 4.21103227282,
			"0.006": 4.77085783976,
			"0.007": 4.01040533789,
			"0.008": 3.5708530664,
			"0.009": 3.04100952502,
			"0.01": 3.40862113183,
			"0.011": 2.81821071794,
			"0.012": 2.91016321519,
			"0.013": 3.19164131219,
			"0.014": 3.87949747602,
			"0.015": 2.80212459994,
			"0.016": 2.33336759751,
			"0.017": 1.12216439611,
			"0.018": 0.274833772471,
			"0.019": 0.0,
			"0.02": 0.0,
			"0.021": 0.0,
			"0.022": 0.0,
			"0.023": 0.0,
			"0.024": 0.0,
			"0.025": 0.0
		}
	}
}
