{
	 "smiles": "COC(=O)C(=CC1=CC=C(C=C1)[N+]([O-])=O)C1=C(C=CC=C1)C(=O)OC", 
	 "Tm": 394.15, 
	 "num_atms": 40, 
	 "gaussian": { 
		 "optdone": 1, 
		 "sigma_profile": "yes", 
		 "theory": "DFT", 
		 "functional": "B3LYP", 
		 "basiset": "6-31G**", 
		 "properties": { 
			 "R2extent": 12205.1378, 
			 "electric_dipole_moment_norm": 4.37175304884, 
			 "electric_quadrupole_moment_norm": 44.8851905911, 
			 "total_energy": -1200.95451271, 
			 "HOMO_LUMO_gap": 0.14418, 
			 "cosmo_polarized_energy": -18.04, 
			 "cosmo_cavitation_energy": 46.21, 
			 "cosmo_dispersion_energy": -31.01, 
			 "cosmo_repulsion_energy": 2.39, 
			 "cosmo_total_nonelectrostatic_energy": 17.59, 
			 "SMD_solvation_energy": 12.98 
		},
		"coords": [
			{
				"x": -4.6374140608,
				"y": 0.1201895068,
				"z": -1.6386245981,
				"element": "C" 
			},
			{
				"x": -3.4304375393,
				"y": -0.6335254368,
				"z": -1.4499217949,
				"element": "O" 
			},
			{
				"x": -2.3411099223,
				"y": 0.101291967,
				"z": -1.1362898465,
				"element": "C" 
			},
			{
				"x": -2.3706349706,
				"y": 1.3087595624,
				"z": -1.0064558076,
				"element": "O" 
			},
			{
				"x": -1.1058996294,
				"y": -0.7281870713,
				"z": -0.9444877089,
				"element": "C" 
			},
			{
				"x": -1.200428638,
				"y": -2.0767235758,
				"z": -0.9173835174,
				"element": "C" 
			},
			{
				"x": -0.1449629798,
				"y": -3.088537156,
				"z": -0.7861210096,
				"element": "C" 
			},
			{
				"x": -0.5108812293,
				"y": -4.3627907425,
				"z": -0.304696354,
				"element": "C" 
			},
			{
				"x": 0.4229809708,
				"y": -5.3817008847,
				"z": -0.1651801535,
				"element": "C" 
			},
			{
				"x": 1.7431223779,
				"y": -5.1294653641,
				"z": -0.5337650646,
				"element": "C" 
			},
			{
				"x": 2.140148079,
				"y": -3.8921918504,
				"z": -1.0412012148,
				"element": "C" 
			},
			{
				"x": 1.1975577852,
				"y": -2.8795916757,
				"z": -1.1643287205,
				"element": "C" 
			},
			{
				"x": 2.7399917132,
				"y": -6.199170618,
				"z": -0.3960915734,
				"element": "N" 
			},
			{
				"x": 3.8984817384,
				"y": -5.9474424159,
				"z": -0.7288306172,
				"element": "O" 
			},
			{
				"x": 2.3577726069,
				"y": -7.2833562181,
				"z": 0.0453520772,
				"element": "O" 
			},
			{
				"x": 0.1288215591,
				"y": 0.0579887945,
				"z": -0.6544466495,
				"element": "C" 
			},
			{
				"x": 0.7278988276,
				"y": 0.9423930688,
				"z": -1.5806981637,
				"element": "C" 
			},
			{
				"x": 1.8580107359,
				"y": 1.6832990835,
				"z": -1.2055548463,
				"element": "C" 
			},
			{
				"x": 2.4027508401,
				"y": 1.5593190257,
				"z": 0.0697168154,
				"element": "C" 
			},
			{
				"x": 1.8140615847,
				"y": 0.6907541657,
				"z": 0.9888671372,
				"element": "C" 
			},
			{
				"x": 0.6879646104,
				"y": -0.0465900126,
				"z": 0.6266357512,
				"element": "C" 
			},
			{
				"x": 0.1829861248,
				"y": 1.058555897,
				"z": -2.9651121787,
				"element": "C" 
			},
			{
				"x": -0.6634193545,
				"y": 0.3294520781,
				"z": -3.4475816578,
				"element": "O" 
			},
			{
				"x": 0.7511997702,
				"y": 2.0706860094,
				"z": -3.6567998964,
				"element": "O" 
			},
			{
				"x": 0.2780850817,
				"y": 2.2336487605,
				"z": -5.0029878621,
				"element": "C" 
			},
			{
				"x": -4.8996064669,
				"y": 0.665513766,
				"z": -0.7283686006,
				"element": "H" 
			},
			{
				"x": -4.5165217023,
				"y": 0.8355060348,
				"z": -2.4556542345,
				"element": "H" 
			},
			{
				"x": -5.4063269634,
				"y": -0.6130828477,
				"z": -1.8819216211,
				"element": "H" 
			},
			{
				"x": -2.2023234706,
				"y": -2.4848876972,
				"z": -1.0138098039,
				"element": "H" 
			},
			{
				"x": -1.545512923,
				"y": -4.5476970514,
				"z": -0.0307009577,
				"element": "H" 
			},
			{
				"x": 0.1518644948,
				"y": -6.3589868854,
				"z": 0.213816921,
				"element": "H" 
			},
			{
				"x": 3.1718407074,
				"y": -3.7456380718,
				"z": -1.3353111495,
				"element": "H" 
			},
			{
				"x": 1.4980222112,
				"y": -1.9243980396,
				"z": -1.5755195327,
				"element": "H" 
			},
			{
				"x": 2.3051385439,
				"y": 2.3548660985,
				"z": -1.9284282772,
				"element": "H" 
			},
			{
				"x": 3.2790242149,
				"y": 2.1387213367,
				"z": 0.3438344439,
				"element": "H" 
			},
			{
				"x": 2.2254553237,
				"y": 0.5893889286,
				"z": 1.9888781353,
				"element": "H" 
			},
			{
				"x": 0.2208881258,
				"y": -0.7110013945,
				"z": 1.3465552852,
				"element": "H" 
			},
			{
				"x": -0.7953125314,
				"y": 2.4375906144,
				"z": -5.0090010882,
				"element": "H" 
			},
			{
				"x": 0.4693609061,
				"y": 1.3324110251,
				"z": -5.590843446,
				"element": "H" 
			},
			{
				"x": 0.831863448,
				"y": 3.0807292858,
				"z": -5.4073386197,
				"element": "H" 
			}
		],
		 "valence_orbital": [ 
			{
				"type": "occ",
				"energy": -0.27967,
				"method": "rhf"
			},
			{
				"type": "occ",
				"energy": -0.2746,
				"method": "rhf"
			},
			{
				"type": "occ",
				"energy": -0.26785,
				"method": "rhf"
			},
			{
				"type": "occ",
				"energy": -0.2662,
				"method": "rhf"
			},
			{
				"type": "occ",
				"energy": -0.24134,
				"method": "rhf"
			},
			{
				"type": "unocc",
				"energy": -0.09716,
				"method": "rhf"
			},
			{
				"type": "unocc",
				"energy": -0.05604,
				"method": "rhf"
			},
			{
				"type": "unocc",
				"energy": -0.04702,
				"method": "rhf"
			},
			{
				"type": "unocc",
				"energy": -0.02534,
				"method": "rhf"
			},
			{
				"type": "unocc",
				"energy": -0.01834,
				"method": "rhf"
			}
		],
		"cosmo_sigma_profile": { 
			"-0.025": 0.0,
			"-0.024": 0.0,
			"-0.023": 0.0,
			"-0.022": 0.0,
			"-0.021": 0.0,
			"-0.02": 0.0,
			"-0.019": 0.0,
			"-0.018": 0.0,
			"-0.017": 0.0,
			"-0.016": 0.0,
			"-0.015": 0.0,
			"-0.014": 0.0,
			"-0.013": 0.0,
			"-0.012": 0.0,
			"-0.011": 0.0,
			"-0.01": 0.0,
			"-0.009": 0.123166721414,
			"-0.008": 3.45454579182,
			"-0.007": 11.8081333279,
			"-0.006": 25.680077498,
			"-0.005": 30.9704208269,
			"-0.004": 32.5351274177,
			"-0.003": 32.8376494414,
			"-0.002": 27.6630100327,
			"-0.001": 26.3142095238,
			"0.0": 25.6826203986,
			"0.001": 30.8380224214,
			"0.002": 23.1871026226,
			"0.003": 16.7257285629,
			"0.004": 12.899390102,
			"0.005": 9.43667127638,
			"0.006": 10.2283161678,
			"0.007": 11.7509167325,
			"0.008": 11.8983810116,
			"0.009": 8.16359975714,
			"0.01": 6.76447890385,
			"0.011": 5.51536028707,
			"0.012": 5.23238011116,
			"0.013": 0.203327402286,
			"0.014": 0.0,
			"0.015": 0.0,
			"0.016": 0.0,
			"0.017": 0.0,
			"0.018": 0.0,
			"0.019": 0.0,
			"0.02": 0.0,
			"0.021": 0.0,
			"0.022": 0.0,
			"0.023": 0.0,
			"0.024": 0.0,
			"0.025": 0.0
		}
	}
}
