{
	 "smiles": "OCCNC1=CC=C(C=C1)C(O)=O", 
	 "Tm": 470.15, 
	 "num_atms": 24, 
	 "gaussian": { 
		 "optdone": 1, 
		 "sigma_profile": "yes", 
		 "theory": "DFT", 
		 "functional": "B3LYP", 
		 "basiset": "6-31G**", 
		 "properties": { 
			 "R2extent": 3848.4029, 
			 "electric_dipole_moment_norm": 3.01967479872, 
			 "electric_quadrupole_moment_norm": 19.7401917701, 
			 "total_energy": -630.020024208, 
			 "HOMO_LUMO_gap": 0.17667, 
			 "cosmo_polarized_energy": -18.44, 
			 "cosmo_cavitation_energy": 28.32, 
			 "cosmo_dispersion_energy": -20.68, 
			 "cosmo_repulsion_energy": 1.66, 
			 "cosmo_total_nonelectrostatic_energy": 9.29, 
			 "SMD_solvation_energy": 5.31 
		},
		"coords": [
			{
				"x": 4.0515311092,
				"y": 1.0600582468,
				"z": -2.8900313828,
				"element": "O" 
			},
			{
				"x": 2.9111554873,
				"y": 1.4456178614,
				"z": -2.1387107297,
				"element": "C" 
			},
			{
				"x": 1.6299576252,
				"y": 1.4076329261,
				"z": -2.9914435666,
				"element": "C" 
			},
			{
				"x": 0.4390903372,
				"y": 1.8585252236,
				"z": -2.2973610035,
				"element": "N" 
			},
			{
				"x": -0.2681462741,
				"y": 1.1321118435,
				"z": -1.3630936544,
				"element": "C" 
			},
			{
				"x": -0.0361174086,
				"y": -0.2414232996,
				"z": -1.130756667,
				"element": "C" 
			},
			{
				"x": -0.8033162236,
				"y": -0.9394914942,
				"z": -0.2071388106,
				"element": "C" 
			},
			{
				"x": -1.818324386,
				"y": -0.301798841,
				"z": 0.5204243073,
				"element": "C" 
			},
			{
				"x": -2.048500887,
				"y": 1.0661740243,
				"z": 0.2941006005,
				"element": "C" 
			},
			{
				"x": -1.293304875,
				"y": 1.7701972753,
				"z": -0.6252545505,
				"element": "C" 
			},
			{
				"x": -2.6528721191,
				"y": -1.0015822441,
				"z": 1.5140123555,
				"element": "C" 
			},
			{
				"x": -2.3380196247,
				"y": -2.3201974098,
				"z": 1.649015442,
				"element": "O" 
			},
			{
				"x": -3.5440968653,
				"y": -0.4918965948,
				"z": 2.1699968815,
				"element": "O" 
			},
			{
				"x": 3.9971702974,
				"y": 0.1097587165,
				"z": -3.0531134975,
				"element": "H" 
			},
			{
				"x": 2.7819385244,
				"y": 0.8312901506,
				"z": -1.2355232081,
				"element": "H" 
			},
			{
				"x": 3.0956243733,
				"y": 2.4727323758,
				"z": -1.8068733617,
				"element": "H" 
			},
			{
				"x": 1.4660198368,
				"y": 0.3912036702,
				"z": -3.3711980242,
				"element": "H" 
			},
			{
				"x": 1.7778819648,
				"y": 2.0421865558,
				"z": -3.8707753396,
				"element": "H" 
			},
			{
				"x": 0.2779223199,
				"y": 2.8543496729,
				"z": -2.289655777,
				"element": "H" 
			},
			{
				"x": 0.7435831206,
				"y": -0.7644124758,
				"z": -1.6729413199,
				"element": "H" 
			},
			{
				"x": -0.612619095,
				"y": -1.9941776167,
				"z": -0.0418236711,
				"element": "H" 
			},
			{
				"x": -2.8335697524,
				"y": 1.5584821717,
				"z": 0.858507935,
				"element": "H" 
			},
			{
				"x": -1.486720903,
				"y": 2.8273317992,
				"z": -0.7920120615,
				"element": "H" 
			},
			{
				"x": -2.9501665821,
				"y": -2.6605725377,
				"z": 2.3212491039,
				"element": "H" 
			}
		],
		 "valence_orbital": [ 
			{
				"type": "occ",
				"energy": -0.30226,
				"method": "rhf"
			},
			{
				"type": "occ",
				"energy": -0.28065,
				"method": "rhf"
			},
			{
				"type": "occ",
				"energy": -0.26325,
				"method": "rhf"
			},
			{
				"type": "occ",
				"energy": -0.25661,
				"method": "rhf"
			},
			{
				"type": "occ",
				"energy": -0.20582,
				"method": "rhf"
			},
			{
				"type": "unocc",
				"energy": -0.02915,
				"method": "rhf"
			},
			{
				"type": "unocc",
				"energy": -0.00446,
				"method": "rhf"
			},
			{
				"type": "unocc",
				"energy": 0.05529,
				"method": "rhf"
			},
			{
				"type": "unocc",
				"energy": 0.06658,
				"method": "rhf"
			},
			{
				"type": "unocc",
				"energy": 0.07588,
				"method": "rhf"
			}
		],
		"cosmo_sigma_profile": { 
			"-0.025": 0.0,
			"-0.024": 0.0,
			"-0.023": 0.0,
			"-0.022": 0.0,
			"-0.021": 0.0,
			"-0.02": 0.0,
			"-0.019": 0.0,
			"-0.018": 0.195769499077,
			"-0.017": 0.830297376263,
			"-0.016": 1.30201044676,
			"-0.015": 2.07013190397,
			"-0.014": 1.87680964226,
			"-0.013": 3.59305836224,
			"-0.012": 2.33071806314,
			"-0.011": 3.11829420052,
			"-0.01": 3.19724428773,
			"-0.009": 3.53231084356,
			"-0.008": 4.48488234124,
			"-0.007": 5.59191930211,
			"-0.006": 7.96044987928,
			"-0.005": 13.590835905,
			"-0.004": 13.6705326874,
			"-0.003": 12.5056788608,
			"-0.002": 12.0281623793,
			"-0.001": 13.4565360571,
			"0.0": 12.0075625691,
			"0.001": 10.7210968508,
			"0.002": 13.1261945912,
			"0.003": 13.8272137843,
			"0.004": 15.7897848898,
			"0.005": 14.6388091141,
			"0.006": 5.24791554077,
			"0.007": 5.14774070819,
			"0.008": 4.61557304541,
			"0.009": 3.30440668176,
			"0.01": 2.79007449869,
			"0.011": 3.09032586452,
			"0.012": 5.70362110669,
			"0.013": 5.32012434921,
			"0.014": 2.42277076711,
			"0.015": 0.320393450414,
			"0.016": 0.0,
			"0.017": 0.0,
			"0.018": 0.0,
			"0.019": 0.0,
			"0.02": 0.0,
			"0.021": 0.0,
			"0.022": 0.0,
			"0.023": 0.0,
			"0.024": 0.0,
			"0.025": 0.0
		}
	}
}
