{
	 "smiles": "CON=C(C(O)=O)C1=CSC(N)=N1", 
	 "Tm": 452.15, 
	 "num_atms": 20, 
	 "gaussian": { 
		 "optdone": 1, 
		 "sigma_profile": "yes", 
		 "theory": "DFT", 
		 "functional": "B3LYP", 
		 "basiset": "6-31G**", 
		 "properties": { 
			 "R2extent": 3072.1512, 
			 "electric_dipole_moment_norm": 2.72997588817, 
			 "electric_quadrupole_moment_norm": 13.9678781399, 
			 "total_energy": -1020.89983668, 
			 "HOMO_LUMO_gap": 0.15117, 
			 "cosmo_polarized_energy": -17.92, 
			 "cosmo_cavitation_energy": 27.46, 
			 "cosmo_dispersion_energy": -20.68, 
			 "cosmo_repulsion_energy": 1.66, 
			 "cosmo_total_nonelectrostatic_energy": 8.44, 
			 "SMD_solvation_energy": 5.5 
		},
		"coords": [
			{
				"x": -3.3101244753,
				"y": 1.3988350606,
				"z": 0.0128177374,
				"element": "C" 
			},
			{
				"x": -1.9212482719,
				"y": 1.0563362968,
				"z": 0.0063407791,
				"element": "O" 
			},
			{
				"x": -1.7647287256,
				"y": -0.1753949241,
				"z": 0.572976308,
				"element": "N" 
			},
			{
				"x": -0.5424609215,
				"y": -0.6035110461,
				"z": 0.6228556797,
				"element": "C" 
			},
			{
				"x": -0.4315419371,
				"y": -2.0051144168,
				"z": 1.1529254535,
				"element": "C" 
			},
			{
				"x": -1.5605219017,
				"y": -2.4522919287,
				"z": 1.7396813354,
				"element": "O" 
			},
			{
				"x": 0.5651415639,
				"y": -2.6977606552,
				"z": 1.0677752865,
				"element": "O" 
			},
			{
				"x": 0.6882428385,
				"y": 0.0996193811,
				"z": 0.2082965173,
				"element": "C" 
			},
			{
				"x": 1.8263496125,
				"y": -0.5238800768,
				"z": -0.2345820934,
				"element": "C" 
			},
			{
				"x": 3.051033872,
				"y": 0.6513431603,
				"z": -0.6108328413,
				"element": "S" 
			},
			{
				"x": 1.9047066471,
				"y": 1.9179903412,
				"z": -0.1329942491,
				"element": "C" 
			},
			{
				"x": 2.2817539393,
				"y": 3.2435284994,
				"z": -0.1143716456,
				"element": "N" 
			},
			{
				"x": 0.7468826184,
				"y": 1.4862098456,
				"z": 0.2590359615,
				"element": "N" 
			},
			{
				"x": -3.6894487769,
				"y": 1.4654986603,
				"z": 1.0371827856,
				"element": "H" 
			},
			{
				"x": -3.3673385434,
				"y": 2.3747744678,
				"z": -0.4723117592,
				"element": "H" 
			},
			{
				"x": -3.8960043007,
				"y": 0.6638013373,
				"z": -0.5480870844,
				"element": "H" 
			},
			{
				"x": -1.3578385875,
				"y": -3.3626605144,
				"z": 2.0124508577,
				"element": "H" 
			},
			{
				"x": 2.0093162202,
				"y": -1.5805355053,
				"z": -0.3360147683,
				"element": "H" 
			},
			{
				"x": 2.9412510348,
				"y": 3.5369619616,
				"z": -0.821066529,
				"element": "H" 
			},
			{
				"x": 1.4927780947,
				"y": 3.8687500554,
				"z": -0.0103777313,
				"element": "H" 
			}
		],
		 "valence_orbital": [ 
			{
				"type": "occ",
				"energy": -0.28425,
				"method": "rhf"
			},
			{
				"type": "occ",
				"energy": -0.27486,
				"method": "rhf"
			},
			{
				"type": "occ",
				"energy": -0.2629,
				"method": "rhf"
			},
			{
				"type": "occ",
				"energy": -0.25147,
				"method": "rhf"
			},
			{
				"type": "occ",
				"energy": -0.20833,
				"method": "rhf"
			},
			{
				"type": "unocc",
				"energy": -0.05716,
				"method": "rhf"
			},
			{
				"type": "unocc",
				"energy": -0.0038,
				"method": "rhf"
			},
			{
				"type": "unocc",
				"energy": 0.01279,
				"method": "rhf"
			},
			{
				"type": "unocc",
				"energy": 0.04601,
				"method": "rhf"
			},
			{
				"type": "unocc",
				"energy": 0.07234,
				"method": "rhf"
			}
		],
		"cosmo_sigma_profile": { 
			"-0.025": 0.0,
			"-0.024": 0.0,
			"-0.023": 0.0,
			"-0.022": 0.0,
			"-0.021": 0.0,
			"-0.02": 0.0,
			"-0.019": 0.335077572768,
			"-0.018": 0.764517226719,
			"-0.017": 0.75187595343,
			"-0.016": 1.37764138115,
			"-0.015": 1.00420397026,
			"-0.014": 2.52705562427,
			"-0.013": 2.96731005955,
			"-0.012": 3.78436382476,
			"-0.011": 4.0170345248,
			"-0.01": 3.1436500216,
			"-0.009": 1.67222526717,
			"-0.008": 3.82913082327,
			"-0.007": 4.56359387315,
			"-0.006": 8.18742468409,
			"-0.005": 10.2867370148,
			"-0.004": 13.4363341979,
			"-0.003": 16.5890023823,
			"-0.002": 11.6453929781,
			"-0.001": 10.3012640497,
			"0.0": 12.7419687461,
			"0.001": 15.9267409,
			"0.002": 16.5405511304,
			"0.003": 14.3298286867,
			"0.004": 9.90123506597,
			"0.005": 6.841531611,
			"0.006": 6.96312283172,
			"0.007": 5.30511807757,
			"0.008": 5.60716476741,
			"0.009": 5.60252458921,
			"0.01": 5.53471859253,
			"0.011": 5.80997198752,
			"0.012": 3.47642788486,
			"0.013": 1.55628427511,
			"0.014": 2.28016071975,
			"0.015": 0.985898911451,
			"0.016": 0.663055913228,
			"0.017": 0.115430686728,
			"0.018": 0.0,
			"0.019": 0.0,
			"0.02": 0.0,
			"0.021": 0.0,
			"0.022": 0.0,
			"0.023": 0.0,
			"0.024": 0.0,
			"0.025": 0.0
		}
	}
}
