{
	 "smiles": "COC1=NC(NC(C)C)=NC(NC(C)C)=N1", 
	 "Tm": 364.65, 
	 "num_atms": 35, 
	 "gaussian": { 
		 "optdone": 1, 
		 "sigma_profile": "yes", 
		 "theory": "DFT", 
		 "functional": "B3LYP", 
		 "basiset": "6-31G**", 
		 "properties": { 
			 "R2extent": 4838.5379, 
			 "electric_dipole_moment_norm": 2.34457256872, 
			 "electric_quadrupole_moment_norm": 11.0781791207, 
			 "total_energy": -741.555633406, 
			 "HOMO_LUMO_gap": 0.23545, 
			 "cosmo_polarized_energy": -12.39, 
			 "cosmo_cavitation_energy": 37.33, 
			 "cosmo_dispersion_energy": -26.02, 
			 "cosmo_repulsion_energy": 2.1, 
			 "cosmo_total_nonelectrostatic_energy": 13.41, 
			 "SMD_solvation_energy": 4.35 
		},
		"coords": [
			{
				"x": -3.6211395357,
				"y": 2.7453754573,
				"z": 1.0122562259,
				"element": "C" 
			},
			{
				"x": -2.5753824113,
				"y": 2.1977419428,
				"z": 1.8180431474,
				"element": "O" 
			},
			{
				"x": -1.6406120717,
				"y": 1.4549166152,
				"z": 1.203545255,
				"element": "C" 
			},
			{
				"x": -1.7367526107,
				"y": 1.275687422,
				"z": -0.1172026976,
				"element": "N" 
			},
			{
				"x": -0.7499706059,
				"y": 0.5100048976,
				"z": -0.6273742851,
				"element": "C" 
			},
			{
				"x": -0.7734358818,
				"y": 0.2443443625,
				"z": -1.958031727,
				"element": "N" 
			},
			{
				"x": -1.7033392169,
				"y": 0.8325613672,
				"z": -2.9200936415,
				"element": "C" 
			},
			{
				"x": -1.8918633495,
				"y": -0.1379637919,
				"z": -4.0897309193,
				"element": "C" 
			},
			{
				"x": -1.2362707218,
				"y": 2.2196132635,
				"z": -3.3873335067,
				"element": "C" 
			},
			{
				"x": 0.2632191993,
				"y": -0.0356047036,
				"z": 0.0699334133,
				"element": "N" 
			},
			{
				"x": 0.2312578649,
				"y": 0.233480207,
				"z": 1.3865143313,
				"element": "C" 
			},
			{
				"x": 1.2030783972,
				"y": -0.264648766,
				"z": 2.1909654125,
				"element": "N" 
			},
			{
				"x": 2.3479044557,
				"y": -1.105059391,
				"z": 1.8184261962,
				"element": "C" 
			},
			{
				"x": 3.3198583342,
				"y": -0.3804353951,
				"z": 0.874767938,
				"element": "C" 
			},
			{
				"x": 1.9130168351,
				"y": -2.4725866318,
				"z": 1.26973352,
				"element": "C" 
			},
			{
				"x": -0.70515633,
				"y": 0.9793728796,
				"z": 2.0171988169,
				"element": "N" 
			},
			{
				"x": -4.1960055785,
				"y": 1.9567510892,
				"z": 0.5187664705,
				"element": "H" 
			},
			{
				"x": -3.2221961686,
				"y": 3.4170411786,
				"z": 0.246995294,
				"element": "H" 
			},
			{
				"x": -4.2569572074,
				"y": 3.2984616341,
				"z": 1.7052312484,
				"element": "H" 
			},
			{
				"x": 0.0335461765,
				"y": -0.2575128616,
				"z": -2.3007140525,
				"element": "H" 
			},
			{
				"x": -2.6532217055,
				"y": 0.9488566797,
				"z": -2.3907956686,
				"element": "H" 
			},
			{
				"x": -0.9464419655,
				"y": -0.3005712229,
				"z": -4.6226692617,
				"element": "H" 
			},
			{
				"x": -2.6090097409,
				"y": 0.2656908749,
				"z": -4.810497258,
				"element": "H" 
			},
			{
				"x": -2.2593604181,
				"y": -1.1077100348,
				"z": -3.7416665618,
				"element": "H" 
			},
			{
				"x": -1.9651242679,
				"y": 2.663680842,
				"z": -4.0742133801,
				"element": "H" 
			},
			{
				"x": -1.1196648664,
				"y": 2.8884260295,
				"z": -2.5305657842,
				"element": "H" 
			},
			{
				"x": -0.274483106,
				"y": 2.1534994554,
				"z": -3.9090640705,
				"element": "H" 
			},
			{
				"x": 1.0873472928,
				"y": -0.0052030015,
				"z": 3.1589339644,
				"element": "H" 
			},
			{
				"x": 2.8704766564,
				"y": -1.2772347496,
				"z": 2.7670970335,
				"element": "H" 
			},
			{
				"x": 2.8386906265,
				"y": -0.1754696105,
				"z": -0.0835992662,
				"element": "H" 
			},
			{
				"x": 3.6463231054,
				"y": 0.5689954941,
				"z": 1.3102342268,
				"element": "H" 
			},
			{
				"x": 4.205525862,
				"y": -1.0002392295,
				"z": 0.6985858676,
				"element": "H" 
			},
			{
				"x": 1.3752405307,
				"y": -2.3518779948,
				"z": 0.3272788951,
				"element": "H" 
			},
			{
				"x": 1.2573480799,
				"y": -2.9839721719,
				"z": 1.9812062223,
				"element": "H" 
			},
			{
				"x": 2.7906543437,
				"y": -3.1044121356,
				"z": 1.0960386018,
				"element": "H" 
			}
		],
		 "valence_orbital": [ 
			{
				"type": "occ",
				"energy": -0.26215,
				"method": "rhf"
			},
			{
				"type": "occ",
				"energy": -0.25276,
				"method": "rhf"
			},
			{
				"type": "occ",
				"energy": -0.24949,
				"method": "rhf"
			},
			{
				"type": "occ",
				"energy": -0.22797,
				"method": "rhf"
			},
			{
				"type": "occ",
				"energy": -0.22099,
				"method": "rhf"
			},
			{
				"type": "unocc",
				"energy": 0.01446,
				"method": "rhf"
			},
			{
				"type": "unocc",
				"energy": 0.01984,
				"method": "rhf"
			},
			{
				"type": "unocc",
				"energy": 0.08314,
				"method": "rhf"
			},
			{
				"type": "unocc",
				"energy": 0.08403,
				"method": "rhf"
			},
			{
				"type": "unocc",
				"energy": 0.10495,
				"method": "rhf"
			}
		],
		"cosmo_sigma_profile": { 
			"-0.025": 0.0,
			"-0.024": 0.0,
			"-0.023": 0.0,
			"-0.022": 0.0,
			"-0.021": 0.0,
			"-0.02": 0.0,
			"-0.019": 0.0,
			"-0.018": 0.0,
			"-0.017": 0.0,
			"-0.016": 0.0,
			"-0.015": 0.0,
			"-0.014": 0.0549081897727,
			"-0.013": 0.997386236604,
			"-0.012": 1.68438839473,
			"-0.011": 1.99683907503,
			"-0.01": 2.30928082157,
			"-0.009": 1.39043811365,
			"-0.008": 1.81309840013,
			"-0.007": 2.77195541068,
			"-0.006": 4.30565000333,
			"-0.005": 9.66906622285,
			"-0.004": 15.5603209716,
			"-0.003": 35.1191946194,
			"-0.002": 30.7480404468,
			"-0.001": 32.3628497696,
			"0.0": 33.651254482,
			"0.001": 35.6145112156,
			"0.002": 20.623970048,
			"0.003": 12.8615160508,
			"0.004": 9.68925165997,
			"0.005": 9.02990984461,
			"0.006": 6.65969564484,
			"0.007": 5.30489757688,
			"0.008": 3.98678955139,
			"0.009": 2.12493583394,
			"0.01": 1.82645095688,
			"0.011": 2.20630489449,
			"0.012": 2.08741409655,
			"0.013": 1.6933576697,
			"0.014": 1.31860303816,
			"0.015": 1.28803373384,
			"0.016": 0.722445537872,
			"0.017": 0.114542448532,
			"0.018": 0.0,
			"0.019": 0.0,
			"0.02": 0.0,
			"0.021": 0.0,
			"0.022": 0.0,
			"0.023": 0.0,
			"0.024": 0.0,
			"0.025": 0.0
		}
	}
}
