{
	 "smiles": "NC(=O)C1=C(C=CC(=C1)C(F)(F)F)N1CCCC1", 
	 "Tm": 481.15, 
	 "num_atms": 31, 
	 "gaussian": { 
		 "optdone": 1, 
		 "sigma_profile": "yes", 
		 "theory": "DFT", 
		 "functional": "B3LYP", 
		 "basiset": "6-31G**", 
		 "properties": { 
			 "R2extent": 6289.2989, 
			 "electric_dipole_moment_norm": 7.02808609011, 
			 "electric_quadrupole_moment_norm": 14.422932499, 
			 "total_energy": -949.383149854, 
			 "HOMO_LUMO_gap": 0.18797, 
			 "cosmo_polarized_energy": -13.14, 
			 "cosmo_cavitation_energy": 34.44, 
			 "cosmo_dispersion_energy": -24.42, 
			 "cosmo_repulsion_energy": 1.83, 
			 "cosmo_total_nonelectrostatic_energy": 11.85, 
			 "SMD_solvation_energy": 7.22 
		},
		"coords": [
			{
				"x": -0.1762500136,
				"y": 2.8874075079,
				"z": 1.4667392879,
				"element": "N" 
			},
			{
				"x": 0.9247626129,
				"y": 2.7549704446,
				"z": 0.677112636,
				"element": "C" 
			},
			{
				"x": 1.6244638184,
				"y": 3.7129699452,
				"z": 0.3636835273,
				"element": "O" 
			},
			{
				"x": 1.2096371381,
				"y": 1.3686287158,
				"z": 0.1315696448,
				"element": "C" 
			},
			{
				"x": 0.6744144294,
				"y": 0.142101823,
				"z": 0.6073644572,
				"element": "C" 
			},
			{
				"x": 0.916630134,
				"y": -1.0260956794,
				"z": -0.135853066,
				"element": "C" 
			},
			{
				"x": 1.6985440696,
				"y": -1.006314299,
				"z": -1.286149194,
				"element": "C" 
			},
			{
				"x": 2.2741937867,
				"y": 0.1897057909,
				"z": -1.7153712234,
				"element": "C" 
			},
			{
				"x": 2.0239430733,
				"y": 1.3609028801,
				"z": -1.0046278753,
				"element": "C" 
			},
			{
				"x": 3.1846965519,
				"y": 0.2080391003,
				"z": -2.9110439913,
				"element": "C" 
			},
			{
				"x": 2.8689619089,
				"y": -0.7670833389,
				"z": -3.7955212823,
				"element": "F" 
			},
			{
				"x": 4.4776184192,
				"y": 0.0096298152,
				"z": -2.5596006582,
				"element": "F" 
			},
			{
				"x": 3.1343694196,
				"y": 1.3858652698,
				"z": -3.5686080956,
				"element": "F" 
			},
			{
				"x": -0.0943777418,
				"y": 0.0988692757,
				"z": 1.8033631717,
				"element": "N" 
			},
			{
				"x": 0.6428304991,
				"y": 0.3128198355,
				"z": 3.0742199573,
				"element": "C" 
			},
			{
				"x": -0.4219010647,
				"y": 0.061223465,
				"z": 4.1624443654,
				"element": "C" 
			},
			{
				"x": -1.5421418051,
				"y": -0.7462058781,
				"z": 3.4468560421,
				"element": "C" 
			},
			{
				"x": -0.9533771594,
				"y": -1.0635476087,
				"z": 2.0643715744,
				"element": "C" 
			},
			{
				"x": -0.7462184164,
				"y": 2.0800265948,
				"z": 1.6883834963,
				"element": "H" 
			},
			{
				"x": -0.4329705,
				"y": 3.819670548,
				"z": 1.7521875667,
				"element": "H" 
			},
			{
				"x": 0.4990112904,
				"y": -1.969779006,
				"z": 0.1932496903,
				"element": "H" 
			},
			{
				"x": 1.8655373959,
				"y": -1.9217905306,
				"z": -1.8437445848,
				"element": "H" 
			},
			{
				"x": 2.4284460742,
				"y": 2.3117773006,
				"z": -1.3318877981,
				"element": "H" 
			},
			{
				"x": 1.0677363231,
				"y": 1.3166450513,
				"z": 3.1102377577,
				"element": "H" 
			},
			{
				"x": 1.4680940756,
				"y": -0.4122403651,
				"z": 3.1562387925,
				"element": "H" 
			},
			{
				"x": -0.8116643577,
				"y": 1.0046759512,
				"z": 4.5546937235,
				"element": "H" 
			},
			{
				"x": 0.0078396326,
				"y": -0.4859889358,
				"z": 5.0054515155,
				"element": "H" 
			},
			{
				"x": -2.4449087977,
				"y": -0.1377484308,
				"z": 3.3402960532,
				"element": "H" 
			},
			{
				"x": -1.8206098755,
				"y": -1.6557216806,
				"z": 3.9853861969,
				"element": "H" 
			},
			{
				"x": -0.3739941142,
				"y": -2.0013451551,
				"z": 2.116357974,
				"element": "H" 
			},
			{
				"x": -1.7039168069,
				"y": -1.1720684066,
				"z": 1.276300338,
				"element": "H" 
			}
		],
		 "valence_orbital": [ 
			{
				"type": "occ",
				"energy": -0.28865,
				"method": "rhf"
			},
			{
				"type": "occ",
				"energy": -0.26782,
				"method": "rhf"
			},
			{
				"type": "occ",
				"energy": -0.26096,
				"method": "rhf"
			},
			{
				"type": "occ",
				"energy": -0.249,
				"method": "rhf"
			},
			{
				"type": "occ",
				"energy": -0.23113,
				"method": "rhf"
			},
			{
				"type": "unocc",
				"energy": -0.04316,
				"method": "rhf"
			},
			{
				"type": "unocc",
				"energy": -0.0207,
				"method": "rhf"
			},
			{
				"type": "unocc",
				"energy": 0.05406,
				"method": "rhf"
			},
			{
				"type": "unocc",
				"energy": 0.06303,
				"method": "rhf"
			},
			{
				"type": "unocc",
				"energy": 0.08556,
				"method": "rhf"
			}
		],
		"cosmo_sigma_profile": { 
			"-0.025": 0.0,
			"-0.024": 0.0,
			"-0.023": 0.0,
			"-0.022": 0.0,
			"-0.021": 0.0,
			"-0.02": 0.0,
			"-0.019": 0.0,
			"-0.018": 0.0,
			"-0.017": 0.0,
			"-0.016": 0.0,
			"-0.015": 0.0,
			"-0.014": 0.461181475842,
			"-0.013": 1.28225844359,
			"-0.012": 0.884439557471,
			"-0.011": 1.02036904121,
			"-0.01": 0.768401134773,
			"-0.009": 1.11465362193,
			"-0.008": 1.94663737773,
			"-0.007": 4.69734647829,
			"-0.006": 5.74942264988,
			"-0.005": 8.37142427297,
			"-0.004": 18.5520501447,
			"-0.003": 32.4285330342,
			"-0.002": 31.3302990989,
			"-0.001": 24.903898243,
			"0.0": 24.2123923541,
			"0.001": 20.5584236363,
			"0.002": 28.0528539494,
			"0.003": 38.693922814,
			"0.004": 6.60581647133,
			"0.005": 1.71288161976,
			"0.006": 1.70341974386,
			"0.007": 1.02769945556,
			"0.008": 1.85932213853,
			"0.009": 0.966324699161,
			"0.01": 1.02319073281,
			"0.011": 1.70904860685,
			"0.012": 1.86533284095,
			"0.013": 3.79917782928,
			"0.014": 4.56233388158,
			"0.015": 0.733410206128,
			"0.016": 0.0,
			"0.017": 0.0,
			"0.018": 0.0,
			"0.019": 0.0,
			"0.02": 0.0,
			"0.021": 0.0,
			"0.022": 0.0,
			"0.023": 0.0,
			"0.024": 0.0,
			"0.025": 0.0
		}
	}
}
