{
	 "smiles": "OCC1=CC(=O)C(OCC2=CC=CC=C2)=CO1", 
	 "Tm": 370.15, 
	 "num_atms": 29, 
	 "gaussian": { 
		 "optdone": 1, 
		 "sigma_profile": "yes", 
		 "theory": "DFT", 
		 "functional": "B3LYP", 
		 "basiset": "6-31G**", 
		 "properties": { 
			 "R2extent": 6011.0056, 
			 "electric_dipole_moment_norm": 3.72927965967, 
			 "electric_quadrupole_moment_norm": 10.6343229535, 
			 "total_energy": -803.455470265, 
			 "HOMO_LUMO_gap": 0.18632, 
			 "cosmo_polarized_energy": -15.41, 
			 "cosmo_cavitation_energy": 33.55, 
			 "cosmo_dispersion_energy": -23.72, 
			 "cosmo_repulsion_energy": 1.86, 
			 "cosmo_total_nonelectrostatic_energy": 11.7, 
			 "SMD_solvation_energy": 7.36 
		},
		"coords": [
			{
				"x": -4.4755906835,
				"y": 2.7037314657,
				"z": 2.9765236501,
				"element": "O" 
			},
			{
				"x": -3.3392246222,
				"y": 3.5313960256,
				"z": 2.8700438705,
				"element": "C" 
			},
			{
				"x": -2.4772873234,
				"y": 3.2037729423,
				"z": 1.6734155561,
				"element": "C" 
			},
			{
				"x": -2.8150616497,
				"y": 2.3965920499,
				"z": 0.6439749715,
				"element": "C" 
			},
			{
				"x": -1.9202399312,
				"y": 2.1548213963,
				"z": -0.4841165258,
				"element": "C" 
			},
			{
				"x": -2.2221584589,
				"y": 1.4370856872,
				"z": -1.4434699756,
				"element": "O" 
			},
			{
				"x": -0.6284021251,
				"y": 2.8649813238,
				"z": -0.3625726405,
				"element": "C" 
			},
			{
				"x": 0.3185912574,
				"y": 2.8656625108,
				"z": -1.3380502637,
				"element": "O" 
			},
			{
				"x": 0.6529440498,
				"y": 1.606088488,
				"z": -1.9896923402,
				"element": "C" 
			},
			{
				"x": 1.2434949355,
				"y": 0.596238144,
				"z": -1.0363391984,
				"element": "C" 
			},
			{
				"x": 0.5022237955,
				"y": -0.5232580361,
				"z": -0.6387459587,
				"element": "C" 
			},
			{
				"x": 1.0459541685,
				"y": -1.4536468014,
				"z": 0.2500702429,
				"element": "C" 
			},
			{
				"x": 2.3331114416,
				"y": -1.2683860218,
				"z": 0.756170282,
				"element": "C" 
			},
			{
				"x": 3.0774384167,
				"y": -0.1495534893,
				"z": 0.3708309548,
				"element": "C" 
			},
			{
				"x": 2.5347349485,
				"y": 0.7751291912,
				"z": -0.5199887655,
				"element": "C" 
			},
			{
				"x": -0.3839017468,
				"y": 3.634044112,
				"z": 0.7269679322,
				"element": "C" 
			},
			{
				"x": -1.2769917391,
				"y": 3.8289625973,
				"z": 1.7360598277,
				"element": "O" 
			},
			{
				"x": -4.1737966329,
				"y": 1.8008596849,
				"z": 3.1440480027,
				"element": "H" 
			},
			{
				"x": -2.7057473348,
				"y": 3.5066135306,
				"z": 3.7706244456,
				"element": "H" 
			},
			{
				"x": -3.7122794457,
				"y": 4.5581057486,
				"z": 2.7764260689,
				"element": "H" 
			},
			{
				"x": -3.7965779091,
				"y": 1.938715412,
				"z": 0.6281164176,
				"element": "H" 
			},
			{
				"x": 1.3878354242,
				"y": 1.9113360211,
				"z": -2.7387869843,
				"element": "H" 
			},
			{
				"x": -0.2353523228,
				"y": 1.2126368744,
				"z": -2.4821637701,
				"element": "H" 
			},
			{
				"x": -0.5040584915,
				"y": -0.6556367091,
				"z": -1.026403312,
				"element": "H" 
			},
			{
				"x": 0.4640364038,
				"y": -2.3219257334,
				"z": 0.5465558312,
				"element": "H" 
			},
			{
				"x": 2.7574504293,
				"y": -1.9926091936,
				"z": 1.445972945,
				"element": "H" 
			},
			{
				"x": 4.0811349901,
				"y": -0.0033178898,
				"z": 0.7602889019,
				"element": "H" 
			},
			{
				"x": 3.1148779414,
				"y": 1.6435271409,
				"z": -0.8229029523,
				"element": "H" 
			},
			{
				"x": 0.5368422145,
				"y": 4.1822335279,
				"z": 0.8762427865,
				"element": "H" 
			}
		],
		 "valence_orbital": [ 
			{
				"type": "occ",
				"energy": -0.26863,
				"method": "rhf"
			},
			{
				"type": "occ",
				"energy": -0.25079,
				"method": "rhf"
			},
			{
				"type": "occ",
				"energy": -0.2498,
				"method": "rhf"
			},
			{
				"type": "occ",
				"energy": -0.23922,
				"method": "rhf"
			},
			{
				"type": "occ",
				"energy": -0.22763,
				"method": "rhf"
			},
			{
				"type": "unocc",
				"energy": -0.04131,
				"method": "rhf"
			},
			{
				"type": "unocc",
				"energy": -0.01059,
				"method": "rhf"
			},
			{
				"type": "unocc",
				"energy": -0.01005,
				"method": "rhf"
			},
			{
				"type": "unocc",
				"energy": 0.00102,
				"method": "rhf"
			},
			{
				"type": "unocc",
				"energy": 0.06162,
				"method": "rhf"
			}
		],
		"cosmo_sigma_profile": { 
			"-0.025": 0.0,
			"-0.024": 0.0,
			"-0.023": 0.0,
			"-0.022": 0.0,
			"-0.021": 0.0,
			"-0.02": 0.0,
			"-0.019": 0.0,
			"-0.018": 0.0,
			"-0.017": 0.147463751515,
			"-0.016": 1.28077988639,
			"-0.015": 0.708496755872,
			"-0.014": 0.936515114884,
			"-0.013": 1.36719960445,
			"-0.012": 0.401053169062,
			"-0.011": 1.08933809494,
			"-0.01": 2.01603771256,
			"-0.009": 2.75181684408,
			"-0.008": 3.16043778683,
			"-0.007": 6.39051697256,
			"-0.006": 14.8455425234,
			"-0.005": 18.9339845889,
			"-0.004": 20.5832092796,
			"-0.003": 21.9146855652,
			"-0.002": 18.7386976405,
			"-0.001": 18.277510902,
			"0.0": 16.7848144821,
			"0.001": 19.4261732361,
			"0.002": 16.1636246101,
			"0.003": 15.0081985713,
			"0.004": 14.1735361855,
			"0.005": 14.9019758202,
			"0.006": 8.36394889486,
			"0.007": 3.35723787493,
			"0.008": 4.33537414633,
			"0.009": 3.39692744765,
			"0.01": 3.97150217716,
			"0.011": 3.09590568213,
			"0.012": 3.60946749915,
			"0.013": 4.45223306989,
			"0.014": 2.2109449055,
			"0.015": 0.706435061265,
			"0.016": 0.0,
			"0.017": 0.0,
			"0.018": 0.0,
			"0.019": 0.0,
			"0.02": 0.0,
			"0.021": 0.0,
			"0.022": 0.0,
			"0.023": 0.0,
			"0.024": 0.0,
			"0.025": 0.0
		}
	}
}
