{
	 "smiles": "ClS(=O)(=O)C1=CC=CC2=C1N=CC=C2", 
	 "Tm": 402.15, 
	 "num_atms": 20, 
	 "gaussian": { 
		 "optdone": 1, 
		 "sigma_profile": "yes", 
		 "theory": "DFT", 
		 "functional": "B3LYP", 
		 "basiset": "6-31G**", 
		 "properties": { 
			 "R2extent": 3830.2111, 
			 "electric_dipole_moment_norm": 7.50691291278, 
			 "electric_quadrupole_moment_norm": 14.3189362157, 
			 "total_energy": -1410.07873022, 
			 "HOMO_LUMO_gap": 0.17914, 
			 "cosmo_polarized_energy": -14.98, 
			 "cosmo_cavitation_energy": 27.69, 
			 "cosmo_dispersion_energy": -21.05, 
			 "cosmo_repulsion_energy": 1.58, 
			 "cosmo_total_nonelectrostatic_energy": 8.23, 
			 "SMD_solvation_energy": 2.55 
		},
		"coords": [
			{
				"x": -1.615224214,
				"y": -0.2723359819,
				"z": -4.1079898747,
				"element": "Cl" 
			},
			{
				"x": -0.4465850767,
				"y": -1.2588511634,
				"z": -2.5764796663,
				"element": "S" 
			},
			{
				"x": -1.335598991,
				"y": -2.2617843214,
				"z": -2.0117988359,
				"element": "O" 
			},
			{
				"x": 0.8127503189,
				"y": -1.5951296522,
				"z": -3.2215335024,
				"element": "O" 
			},
			{
				"x": -0.1915428301,
				"y": 0.0827420601,
				"z": -1.3843087886,
				"element": "C" 
			},
			{
				"x": -0.6810481201,
				"y": 1.3565461677,
				"z": -1.5534090036,
				"element": "C" 
			},
			{
				"x": -0.431139464,
				"y": 2.3417261132,
				"z": -0.5666560636,
				"element": "C" 
			},
			{
				"x": 0.2965623601,
				"y": 2.0375188751,
				"z": 0.5598490261,
				"element": "C" 
			},
			{
				"x": 0.8107604267,
				"y": 0.7292302461,
				"z": 0.7538262052,
				"element": "C" 
			},
			{
				"x": 0.5692531038,
				"y": -0.2787702603,
				"z": -0.2307642813,
				"element": "C" 
			},
			{
				"x": 1.0297169116,
				"y": -1.5499374073,
				"z": -0.1121245921,
				"element": "N" 
			},
			{
				"x": 1.7285933196,
				"y": -1.8579078333,
				"z": 0.9611270347,
				"element": "C" 
			},
			{
				"x": 2.0282515561,
				"y": -0.9405482274,
				"z": 1.9993714662,
				"element": "C" 
			},
			{
				"x": 1.5683568914,
				"y": 0.350134529,
				"z": 1.8923211025,
				"element": "C" 
			},
			{
				"x": -1.2555354479,
				"y": 1.6120604072,
				"z": -2.4341219623,
				"element": "H" 
			},
			{
				"x": -0.8239963645,
				"y": 3.3422868257,
				"z": -0.7143326346,
				"element": "H" 
			},
			{
				"x": 0.4869430226,
				"y": 2.7948698079,
				"z": 1.3154029132,
				"element": "H" 
			},
			{
				"x": 2.0832959633,
				"y": -2.8849042413,
				"z": 1.0261952038,
				"element": "H" 
			},
			{
				"x": 2.6102034749,
				"y": -1.2654354532,
				"z": 2.8554075908,
				"element": "H" 
			},
			{
				"x": 1.7736831593,
				"y": 1.0875895098,
				"z": 2.6636186629,
				"element": "H" 
			}
		],
		 "valence_orbital": [ 
			{
				"type": "occ",
				"energy": -0.32082,
				"method": "rhf"
			},
			{
				"type": "occ",
				"energy": -0.3039,
				"method": "rhf"
			},
			{
				"type": "occ",
				"energy": -0.28225,
				"method": "rhf"
			},
			{
				"type": "occ",
				"energy": -0.27773,
				"method": "rhf"
			},
			{
				"type": "occ",
				"energy": -0.26632,
				"method": "rhf"
			},
			{
				"type": "unocc",
				"energy": -0.08718,
				"method": "rhf"
			},
			{
				"type": "unocc",
				"energy": -0.07757,
				"method": "rhf"
			},
			{
				"type": "unocc",
				"energy": -0.04628,
				"method": "rhf"
			},
			{
				"type": "unocc",
				"energy": -0.02058,
				"method": "rhf"
			},
			{
				"type": "unocc",
				"energy": 0.04019,
				"method": "rhf"
			}
		],
		"cosmo_sigma_profile": { 
			"-0.025": 0.0,
			"-0.024": 0.0,
			"-0.023": 0.0,
			"-0.022": 0.0,
			"-0.021": 0.0,
			"-0.02": 0.0,
			"-0.019": 0.0,
			"-0.018": 0.0,
			"-0.017": 0.0,
			"-0.016": 0.0,
			"-0.015": 0.0,
			"-0.014": 0.0,
			"-0.013": 0.0,
			"-0.012": 0.0,
			"-0.011": 0.0,
			"-0.01": 0.000704334202721,
			"-0.009": 2.14838420297,
			"-0.008": 11.1224497175,
			"-0.007": 13.6230297979,
			"-0.006": 13.3820968311,
			"-0.005": 9.70592169792,
			"-0.004": 10.1463221247,
			"-0.003": 9.69646894564,
			"-0.002": 14.2005536357,
			"-0.001": 22.3636177074,
			"0.0": 25.8282308044,
			"0.001": 18.2502589552,
			"0.002": 11.5502797378,
			"0.003": 10.8254611488,
			"0.004": 11.4601974509,
			"0.005": 2.99113536418,
			"0.006": 4.7721714891,
			"0.007": 6.07557755546,
			"0.008": 13.9650858212,
			"0.009": 8.97070267383,
			"0.01": 3.23497477026,
			"0.011": 1.97556424136,
			"0.012": 0.0309829035895,
			"0.013": 0.0,
			"0.014": 0.0,
			"0.015": 0.0,
			"0.016": 0.0,
			"0.017": 0.0,
			"0.018": 0.0,
			"0.019": 0.0,
			"0.02": 0.0,
			"0.021": 0.0,
			"0.022": 0.0,
			"0.023": 0.0,
			"0.024": 0.0,
			"0.025": 0.0
		}
	}
}
