{
	 "smiles": "OC1=C(OC2=NC=CC=C2)C=CC=C1", 
	 "Tm": 384.15, 
	 "num_atms": 23, 
	 "gaussian": { 
		 "optdone": 1, 
		 "sigma_profile": "yes", 
		 "theory": "DFT", 
		 "functional": "B3LYP", 
		 "basiset": "6-31G**", 
		 "properties": { 
			 "R2extent": 3274.234, 
			 "electric_dipole_moment_norm": 1.37063572476, 
			 "electric_quadrupole_moment_norm": 8.85760671005, 
			 "total_energy": -629.7763495, 
			 "HOMO_LUMO_gap": 0.19783, 
			 "cosmo_polarized_energy": -13.26, 
			 "cosmo_cavitation_energy": 27.78, 
			 "cosmo_dispersion_energy": -20.25, 
			 "cosmo_repulsion_energy": 1.61, 
			 "cosmo_total_nonelectrostatic_energy": 9.14, 
			 "SMD_solvation_energy": 4.52 
		},
		"coords": [
			{
				"x": 1.7113957866,
				"y": -0.3739737065,
				"z": 2.6632486834,
				"element": "O" 
			},
			{
				"x": 1.8936940387,
				"y": -1.012331194,
				"z": 1.4729488025,
				"element": "C" 
			},
			{
				"x": 1.3070224172,
				"y": -0.4406779316,
				"z": 0.3322500626,
				"element": "C" 
			},
			{
				"x": 0.6419750838,
				"y": 0.7750300073,
				"z": 0.4253133075,
				"element": "O" 
			},
			{
				"x": -0.5816838869,
				"y": 0.8253613075,
				"z": 1.033721263,
				"element": "C" 
			},
			{
				"x": -1.1920453533,
				"y": -0.3010218207,
				"z": 1.368335004,
				"element": "N" 
			},
			{
				"x": -2.4015508399,
				"y": -0.1971610968,
				"z": 1.9414821734,
				"element": "C" 
			},
			{
				"x": -3.0365758807,
				"y": 1.0142640432,
				"z": 2.1910409855,
				"element": "C" 
			},
			{
				"x": -2.3705752381,
				"y": 2.1905935301,
				"z": 1.823646902,
				"element": "C" 
			},
			{
				"x": -1.1178830357,
				"y": 2.1070693571,
				"z": 1.2341734173,
				"element": "C" 
			},
			{
				"x": 1.4768508506,
				"y": -1.0253390278,
				"z": -0.9158478843,
				"element": "C" 
			},
			{
				"x": 2.2277931379,
				"y": -2.1962343848,
				"z": -1.0503798787,
				"element": "C" 
			},
			{
				"x": 2.8023045992,
				"y": -2.776409306,
				"z": 0.0791404527,
				"element": "C" 
			},
			{
				"x": 2.636727941,
				"y": -2.1867981226,
				"z": 1.3345073435,
				"element": "C" 
			},
			{
				"x": 2.1179207106,
				"y": -0.8982046587,
				"z": 3.3649779993,
				"element": "H" 
			},
			{
				"x": -2.8793417921,
				"y": -1.1382690452,
				"z": 2.207956183,
				"element": "H" 
			},
			{
				"x": -4.0165202042,
				"y": 1.0392533283,
				"z": 2.6553748882,
				"element": "H" 
			},
			{
				"x": -2.825423157,
				"y": 3.1613845643,
				"z": 1.9989920369,
				"element": "H" 
			},
			{
				"x": -0.5534267019,
				"y": 2.9819902619,
				"z": 0.9329920366,
				"element": "H" 
			},
			{
				"x": 1.0145427309,
				"y": -0.5479224179,
				"z": -1.7737253725,
				"element": "H" 
			},
			{
				"x": 2.3564018763,
				"y": -2.6484465244,
				"z": -2.02844775,
				"element": "H" 
			},
			{
				"x": 3.3863120918,
				"y": -3.6875965264,
				"z": -0.0089829883,
				"element": "H" 
			},
			{
				"x": 3.0917848251,
				"y": -2.6351606364,
				"z": 2.2155823324,
				"element": "H" 
			}
		],
		 "valence_orbital": [ 
			{
				"type": "occ",
				"energy": -0.28092,
				"method": "rhf"
			},
			{
				"type": "occ",
				"energy": -0.26162,
				"method": "rhf"
			},
			{
				"type": "occ",
				"energy": -0.24448,
				"method": "rhf"
			},
			{
				"type": "occ",
				"energy": -0.23151,
				"method": "rhf"
			},
			{
				"type": "occ",
				"energy": -0.21472,
				"method": "rhf"
			},
			{
				"type": "unocc",
				"energy": -0.01689,
				"method": "rhf"
			},
			{
				"type": "unocc",
				"energy": -0.00077,
				"method": "rhf"
			},
			{
				"type": "unocc",
				"energy": 0.01102,
				"method": "rhf"
			},
			{
				"type": "unocc",
				"energy": 0.01634,
				"method": "rhf"
			},
			{
				"type": "unocc",
				"energy": 0.07055,
				"method": "rhf"
			}
		],
		"cosmo_sigma_profile": { 
			"-0.025": 0.0,
			"-0.024": 0.0,
			"-0.023": 0.0,
			"-0.022": 0.0,
			"-0.021": 0.0,
			"-0.02": 0.0,
			"-0.019": 0.00907277934623,
			"-0.018": 0.849945617845,
			"-0.017": 1.06059560824,
			"-0.016": 1.3818993083,
			"-0.015": 0.807937468181,
			"-0.014": 0.694830908943,
			"-0.013": 0.787862294596,
			"-0.012": 0.795066290834,
			"-0.011": 1.32472325399,
			"-0.01": 1.38070258594,
			"-0.009": 0.730065773751,
			"-0.008": 1.057878999,
			"-0.007": 7.22387090918,
			"-0.006": 14.1788346549,
			"-0.005": 17.9708480595,
			"-0.004": 16.0347752588,
			"-0.003": 12.4267353428,
			"-0.002": 10.9657687861,
			"-0.001": 9.16393285593,
			"0.0": 12.1567090171,
			"0.001": 14.7017406991,
			"0.002": 17.7455808857,
			"0.003": 22.5003032227,
			"0.004": 12.9091403302,
			"0.005": 11.6606838823,
			"0.006": 7.94561188915,
			"0.007": 5.13297568163,
			"0.008": 5.09670530093,
			"0.009": 5.68056784423,
			"0.01": 3.47805464081,
			"0.011": 2.17691679826,
			"0.012": 1.17790504867,
			"0.013": 0.939165881845,
			"0.014": 0.69810128254,
			"0.015": 0.119517698591,
			"0.016": 0.0,
			"0.017": 0.0,
			"0.018": 0.0,
			"0.019": 0.0,
			"0.02": 0.0,
			"0.021": 0.0,
			"0.022": 0.0,
			"0.023": 0.0,
			"0.024": 0.0,
			"0.025": 0.0
		}
	}
}
