{
	 "smiles": "CC(C)=C1C2CCC1C1=CC=CC=C21", 
	 "Tm": 363.15, 
	 "num_atms": 30, 
	 "gaussian": { 
		 "optdone": 1, 
		 "sigma_profile": "yes", 
		 "theory": "DFT", 
		 "functional": "B3LYP", 
		 "basiset": "6-31G**", 
		 "properties": { 
			 "R2extent": 2879.7879, 
			 "electric_dipole_moment_norm": 0.716604277129, 
			 "electric_quadrupole_moment_norm": 4.21030705056, 
			 "total_energy": -543.116418498, 
			 "HOMO_LUMO_gap": 0.22175, 
			 "cosmo_polarized_energy": -3.93, 
			 "cosmo_cavitation_energy": 30.81, 
			 "cosmo_dispersion_energy": -22.07, 
			 "cosmo_repulsion_energy": 1.76, 
			 "cosmo_total_nonelectrostatic_energy": 10.5, 
			 "SMD_solvation_energy": 4.7 
		},
		"coords": [
			{
				"x": 1.849624691,
				"y": -2.3297373072,
				"z": 2.1452667204,
				"element": "C" 
			},
			{
				"x": 0.5694698978,
				"y": -1.5298265582,
				"z": 2.0827762234,
				"element": "C" 
			},
			{
				"x": -0.6185548807,
				"y": -2.2025768419,
				"z": 2.7297266222,
				"element": "C" 
			},
			{
				"x": 0.4925303179,
				"y": -0.3305972033,
				"z": 1.4967909802,
				"element": "C" 
			},
			{
				"x": -0.6715207234,
				"y": 0.6482807075,
				"z": 1.3209155408,
				"element": "C" 
			},
			{
				"x": -0.0706777693,
				"y": 1.9114003571,
				"z": 2.0293626131,
				"element": "C" 
			},
			{
				"x": 1.4496431581,
				"y": 1.8329926122,
				"z": 1.6697617294,
				"element": "C" 
			},
			{
				"x": 1.5443087333,
				"y": 0.5341055976,
				"z": 0.7966517856,
				"element": "C" 
			},
			{
				"x": 0.8050503338,
				"y": 0.8283898552,
				"z": -0.4990285573,
				"element": "C" 
			},
			{
				"x": 1.2406400182,
				"y": 1.050486201,
				"z": -1.7982079839,
				"element": "C" 
			},
			{
				"x": 0.2833758621,
				"y": 1.3305510952,
				"z": -2.78560297,
				"element": "C" 
			},
			{
				"x": -1.0737826881,
				"y": 1.4006298864,
				"z": -2.4644937028,
				"element": "C" 
			},
			{
				"x": -1.5109656902,
				"y": 1.1925000054,
				"z": -1.1471851995,
				"element": "C" 
			},
			{
				"x": -0.5646050687,
				"y": 0.8990268934,
				"z": -0.1749768259,
				"element": "C" 
			},
			{
				"x": 1.7264638868,
				"y": -3.3000049422,
				"z": 1.645795141,
				"element": "H" 
			},
			{
				"x": 2.1219542272,
				"y": -2.5495803554,
				"z": 3.1862574105,
				"element": "H" 
			},
			{
				"x": 2.6930429129,
				"y": -1.8177428139,
				"z": 1.6780324841,
				"element": "H" 
			},
			{
				"x": -0.4162581303,
				"y": -2.4189805517,
				"z": 3.7872719405,
				"element": "H" 
			},
			{
				"x": -0.827050396,
				"y": -3.1683779903,
				"z": 2.2503326478,
				"element": "H" 
			},
			{
				"x": -1.5275339194,
				"y": -1.6001964717,
				"z": 2.6777317197,
				"element": "H" 
			},
			{
				"x": -1.6562004931,
				"y": 0.3537124017,
				"z": 1.6850529873,
				"element": "H" 
			},
			{
				"x": -0.2237207998,
				"y": 1.842694668,
				"z": 3.1108409567,
				"element": "H" 
			},
			{
				"x": -0.542091605,
				"y": 2.8340987917,
				"z": 1.6794341747,
				"element": "H" 
			},
			{
				"x": 1.8024274639,
				"y": 2.7132723706,
				"z": 1.1250622324,
				"element": "H" 
			},
			{
				"x": 2.0622766511,
				"y": 1.7245352097,
				"z": 2.5701240354,
				"element": "H" 
			},
			{
				"x": 2.5540198799,
				"y": 0.1367960473,
				"z": 0.6889417481,
				"element": "H" 
			},
			{
				"x": 2.2959642028,
				"y": 0.9990977798,
				"z": -2.0543436014,
				"element": "H" 
			},
			{
				"x": 0.601436354,
				"y": 1.4905104242,
				"z": -3.8121883574,
				"element": "H" 
			},
			{
				"x": -1.7998808798,
				"y": 1.6144996564,
				"z": -3.2440239414,
				"element": "H" 
			},
			{
				"x": -2.5688855472,
				"y": 1.2501404754,
				"z": -0.9033785535,
				"element": "H" 
			}
		],
		 "valence_orbital": [ 
			{
				"type": "occ",
				"energy": -0.31547,
				"method": "rhf"
			},
			{
				"type": "occ",
				"energy": -0.29348,
				"method": "rhf"
			},
			{
				"type": "occ",
				"energy": -0.23827,
				"method": "rhf"
			},
			{
				"type": "occ",
				"energy": -0.23333,
				"method": "rhf"
			},
			{
				"type": "occ",
				"energy": -0.2181,
				"method": "rhf"
			},
			{
				"type": "unocc",
				"energy": 0.00365,
				"method": "rhf"
			},
			{
				"type": "unocc",
				"energy": 0.01013,
				"method": "rhf"
			},
			{
				"type": "unocc",
				"energy": 0.04269,
				"method": "rhf"
			},
			{
				"type": "unocc",
				"energy": 0.09036,
				"method": "rhf"
			},
			{
				"type": "unocc",
				"energy": 0.1071,
				"method": "rhf"
			}
		],
		"cosmo_sigma_profile": { 
			"-0.025": 0.0,
			"-0.024": 0.0,
			"-0.023": 0.0,
			"-0.022": 0.0,
			"-0.021": 0.0,
			"-0.02": 0.0,
			"-0.019": 0.0,
			"-0.018": 0.0,
			"-0.017": 0.0,
			"-0.016": 0.0,
			"-0.015": 0.0,
			"-0.014": 0.0,
			"-0.013": 0.0,
			"-0.012": 0.0,
			"-0.011": 0.0,
			"-0.01": 0.0,
			"-0.009": 0.0,
			"-0.008": 0.0,
			"-0.007": 0.0,
			"-0.006": 0.544009259627,
			"-0.005": 9.13893805461,
			"-0.004": 14.468573526,
			"-0.003": 28.9743895205,
			"-0.002": 31.1954303113,
			"-0.001": 31.8694960539,
			"0.0": 33.3556391705,
			"0.001": 31.7945761938,
			"0.002": 14.414307709,
			"0.003": 9.93848034368,
			"0.004": 10.3102026288,
			"0.005": 9.14009614664,
			"0.006": 10.3472074923,
			"0.007": 6.51607646859,
			"0.008": 0.283963029708,
			"0.009": 0.0,
			"0.01": 0.0,
			"0.011": 0.0,
			"0.012": 0.0,
			"0.013": 0.0,
			"0.014": 0.0,
			"0.015": 0.0,
			"0.016": 0.0,
			"0.017": 0.0,
			"0.018": 0.0,
			"0.019": 0.0,
			"0.02": 0.0,
			"0.021": 0.0,
			"0.022": 0.0,
			"0.023": 0.0,
			"0.024": 0.0,
			"0.025": 0.0
		}
	}
}
