{
	 "smiles": "NC1=C(C=CC(Cl)=C1)N1C=NN=N1", 
	 "Tm": 404.15, 
	 "num_atms": 19, 
	 "gaussian": { 
		 "optdone": 1, 
		 "sigma_profile": "yes", 
		 "theory": "DFT", 
		 "functional": "B3LYP", 
		 "basiset": "6-31G**", 
		 "properties": { 
			 "R2extent": 3516.7419, 
			 "electric_dipole_moment_norm": 4.58405560394, 
			 "electric_quadrupole_moment_norm": 26.9757058912, 
			 "total_energy": -1004.25076312, 
			 "HOMO_LUMO_gap": 0.19026, 
			 "cosmo_polarized_energy": -17.52, 
			 "cosmo_cavitation_energy": 25.96, 
			 "cosmo_dispersion_energy": -19.19, 
			 "cosmo_repulsion_energy": 1.5, 
			 "cosmo_total_nonelectrostatic_energy": 8.27, 
			 "SMD_solvation_energy": 2.82 
		},
		"coords": [
			{
				"x": -0.0823950554,
				"y": 1.7757315756,
				"z": 1.4391711535,
				"element": "N" 
			},
			{
				"x": 0.0874716958,
				"y": 0.9256607103,
				"z": 0.3501536149,
				"element": "C" 
			},
			{
				"x": 1.3424131827,
				"y": 0.3553558469,
				"z": 0.0469650185,
				"element": "C" 
			},
			{
				"x": 1.5063680768,
				"y": -0.483572396,
				"z": -1.0552062047,
				"element": "C" 
			},
			{
				"x": 0.4387471711,
				"y": -0.7640474893,
				"z": -1.9016016605,
				"element": "C" 
			},
			{
				"x": -0.7952639466,
				"y": -0.1757526048,
				"z": -1.6207367459,
				"element": "C" 
			},
			{
				"x": -2.1600425452,
				"y": -0.4956792181,
				"z": -2.6760630406,
				"element": "Cl" 
			},
			{
				"x": -0.9815976758,
				"y": 0.6516170493,
				"z": -0.5189656998,
				"element": "C" 
			},
			{
				"x": 2.4659641007,
				"y": 0.6199145232,
				"z": 0.8851806097,
				"element": "N" 
			},
			{
				"x": 2.9933749088,
				"y": 1.7935907218,
				"z": 1.3119350246,
				"element": "C" 
			},
			{
				"x": 4.081417972,
				"y": 1.5493119321,
				"z": 2.0094399125,
				"element": "N" 
			},
			{
				"x": 4.2275820828,
				"y": 0.1935845067,
				"z": 1.9991605534,
				"element": "N" 
			},
			{
				"x": 3.2789604686,
				"y": -0.3782263658,
				"z": 1.3371573177,
				"element": "N" 
			},
			{
				"x": 0.498019006,
				"y": 1.575094872,
				"z": 2.2437304948,
				"element": "H" 
			},
			{
				"x": -1.0457079468,
				"y": 1.9328629573,
				"z": 1.7026662748,
				"element": "H" 
			},
			{
				"x": 2.4842618586,
				"y": -0.9149758562,
				"z": -1.2377152347,
				"element": "H" 
			},
			{
				"x": 0.5607194309,
				"y": -1.4127511642,
				"z": -2.7600384998,
				"element": "H" 
			},
			{
				"x": -1.9589768116,
				"y": 1.0786901916,
				"z": -0.3210336061,
				"element": "H" 
			},
			{
				"x": 2.5644840266,
				"y": 2.7598902075,
				"z": 1.0962007176,
				"element": "H" 
			}
		],
		 "valence_orbital": [ 
			{
				"type": "occ",
				"energy": -0.30976,
				"method": "rhf"
			},
			{
				"type": "occ",
				"energy": -0.30264,
				"method": "rhf"
			},
			{
				"type": "occ",
				"energy": -0.29184,
				"method": "rhf"
			},
			{
				"type": "occ",
				"energy": -0.26541,
				"method": "rhf"
			},
			{
				"type": "occ",
				"energy": -0.23853,
				"method": "rhf"
			},
			{
				"type": "unocc",
				"energy": -0.04827,
				"method": "rhf"
			},
			{
				"type": "unocc",
				"energy": -0.02431,
				"method": "rhf"
			},
			{
				"type": "unocc",
				"energy": -0.00804,
				"method": "rhf"
			},
			{
				"type": "unocc",
				"energy": 0.01326,
				"method": "rhf"
			},
			{
				"type": "unocc",
				"energy": 0.01565,
				"method": "rhf"
			}
		],
		"cosmo_sigma_profile": { 
			"-0.025": 0.0,
			"-0.024": 0.0,
			"-0.023": 0.0,
			"-0.022": 0.0,
			"-0.021": 0.0,
			"-0.02": 0.0,
			"-0.019": 0.0,
			"-0.018": 0.0,
			"-0.017": 0.0,
			"-0.016": 0.0,
			"-0.015": 0.0,
			"-0.014": 1.31466859891,
			"-0.013": 3.60333995157,
			"-0.012": 3.89059138923,
			"-0.011": 5.3010636,
			"-0.01": 4.72995677694,
			"-0.009": 4.11445910543,
			"-0.008": 5.68779976457,
			"-0.007": 8.51500797798,
			"-0.006": 7.40841503154,
			"-0.005": 9.21811209892,
			"-0.004": 8.86396936077,
			"-0.003": 8.99689868254,
			"-0.002": 9.12704641068,
			"-0.001": 9.1894036549,
			"0.0": 11.2056034165,
			"0.001": 16.1337970215,
			"0.002": 21.4696694894,
			"0.003": 15.3035801492,
			"0.004": 14.7925177898,
			"0.005": 7.16069758878,
			"0.006": 3.11490479464,
			"0.007": 4.56681166523,
			"0.008": 5.79951981301,
			"0.009": 5.4124512008,
			"0.01": 5.51617952802,
			"0.011": 3.56455550132,
			"0.012": 3.09452059492,
			"0.013": 2.37895955186,
			"0.014": 1.42556581156,
			"0.015": 0.481241500473,
			"0.016": 0.0,
			"0.017": 0.0,
			"0.018": 0.0,
			"0.019": 0.0,
			"0.02": 0.0,
			"0.021": 0.0,
			"0.022": 0.0,
			"0.023": 0.0,
			"0.024": 0.0,
			"0.025": 0.0
		}
	}
}
