{
	 "smiles": "CC(C)(C)OC(=O)N1C(=O)N(CC#N)C(C)(C)C1=O", 
	 "Tm": 423.15, 
	 "num_atms": 36, 
	 "gaussian": { 
		 "optdone": 1, 
		 "sigma_profile": "yes", 
		 "theory": "DFT", 
		 "functional": "B3LYP", 
		 "basiset": "6-31G**", 
		 "properties": { 
			 "R2extent": 7184.2188, 
			 "electric_dipole_moment_norm": 4.88018397297, 
			 "electric_quadrupole_moment_norm": 28.8844242899, 
			 "total_energy": -932.711966176, 
			 "HOMO_LUMO_gap": 0.24382, 
			 "cosmo_polarized_energy": -21.37, 
			 "cosmo_cavitation_energy": 40.1, 
			 "cosmo_dispersion_energy": -25.99, 
			 "cosmo_repulsion_energy": 2.0, 
			 "cosmo_total_nonelectrostatic_energy": 16.12, 
			 "SMD_solvation_energy": 10.87 
		},
		"coords": [
			{
				"x": -1.2313220509,
				"y": 1.6638014036,
				"z": 2.9948532268,
				"element": "C" 
			},
			{
				"x": -1.4420603108,
				"y": 2.1599541711,
				"z": 1.562364409,
				"element": "C" 
			},
			{
				"x": -2.8369176656,
				"y": 2.7486906334,
				"z": 1.3396590427,
				"element": "C" 
			},
			{
				"x": -0.3470881221,
				"y": 3.1453909219,
				"z": 1.1529983013,
				"element": "C" 
			},
			{
				"x": -1.2211926608,
				"y": 1.0383440042,
				"z": 0.6126572648,
				"element": "O" 
			},
			{
				"x": -1.9387479115,
				"y": -0.0744852126,
				"z": 0.6895590824,
				"element": "C" 
			},
			{
				"x": -2.9077168049,
				"y": -0.3094607445,
				"z": 1.3666189759,
				"element": "O" 
			},
			{
				"x": -1.3812644995,
				"y": -1.0457780395,
				"z": -0.2110310125,
				"element": "N" 
			},
			{
				"x": -2.2006828321,
				"y": -1.9589022956,
				"z": -0.9380764185,
				"element": "C" 
			},
			{
				"x": -3.4083301939,
				"y": -1.9430913973,
				"z": -1.012851746,
				"element": "O" 
			},
			{
				"x": -1.3385286091,
				"y": -2.8209914133,
				"z": -1.5799279252,
				"element": "N" 
			},
			{
				"x": -1.8663597264,
				"y": -3.7707409024,
				"z": -2.5361526343,
				"element": "C" 
			},
			{
				"x": -1.6702358277,
				"y": -5.1798335155,
				"z": -2.1458526885,
				"element": "C" 
			},
			{
				"x": -1.5054896123,
				"y": -6.2923096833,
				"z": -1.8610518194,
				"element": "N" 
			},
			{
				"x": 0.0812018788,
				"y": -2.5044477579,
				"z": -1.3695668602,
				"element": "C" 
			},
			{
				"x": 0.7822309659,
				"y": -2.0550132485,
				"z": -2.6636220288,
				"element": "C" 
			},
			{
				"x": 0.8541432124,
				"y": -3.6399194109,
				"z": -0.6779871326,
				"element": "C" 
			},
			{
				"x": -0.0187624896,
				"y": -1.3054357717,
				"z": -0.4066833396,
				"element": "C" 
			},
			{
				"x": 0.9200425869,
				"y": -0.7369782224,
				"z": 0.0986939956,
				"element": "O" 
			},
			{
				"x": -0.2500654862,
				"y": 1.1897121216,
				"z": 3.0916283775,
				"element": "H" 
			},
			{
				"x": -1.268190064,
				"y": 2.5160335096,
				"z": 3.6804868407,
				"element": "H" 
			},
			{
				"x": -2.0030037772,
				"y": 0.9508445218,
				"z": 3.2883479857,
				"element": "H" 
			},
			{
				"x": -2.9657450839,
				"y": 3.0411456094,
				"z": 0.2931162003,
				"element": "H" 
			},
			{
				"x": -3.6158169465,
				"y": 2.03340694,
				"z": 1.605947697,
				"element": "H" 
			},
			{
				"x": -2.9545217943,
				"y": 3.6436460636,
				"z": 1.9589400375,
				"element": "H" 
			},
			{
				"x": -0.3856703606,
				"y": 4.0312717561,
				"z": 1.7935233179,
				"element": "H" 
			},
			{
				"x": 0.6391091048,
				"y": 2.6836485061,
				"z": 1.2491219687,
				"element": "H" 
			},
			{
				"x": -0.4805718545,
				"y": 3.4623228094,
				"z": 0.1147854577,
				"element": "H" 
			},
			{
				"x": -1.4231004427,
				"y": -3.6230627095,
				"z": -3.528564752,
				"element": "H" 
			},
			{
				"x": -2.9405302756,
				"y": -3.5721623279,
				"z": -2.6124883221,
				"element": "H" 
			},
			{
				"x": 1.7710939132,
				"y": -1.6612643085,
				"z": -2.4170152577,
				"element": "H" 
			},
			{
				"x": 0.9124823797,
				"y": -2.8974136155,
				"z": -3.3499210595,
				"element": "H" 
			},
			{
				"x": 0.2134059236,
				"y": -1.2701478843,
				"z": -3.1712110315,
				"element": "H" 
			},
			{
				"x": 0.3306637648,
				"y": -3.978506957,
				"z": 0.2198682913,
				"element": "H" 
			},
			{
				"x": 0.9742812326,
				"y": -4.4949941178,
				"z": -1.3479542553,
				"element": "H" 
			},
			{
				"x": 1.8428604398,
				"y": -3.2743734359,
				"z": -0.3902121893,
				"element": "H" 
			}
		],
		 "valence_orbital": [ 
			{
				"type": "occ",
				"energy": -0.30926,
				"method": "rhf"
			},
			{
				"type": "occ",
				"energy": -0.3,
				"method": "rhf"
			},
			{
				"type": "occ",
				"energy": -0.28744,
				"method": "rhf"
			},
			{
				"type": "occ",
				"energy": -0.27873,
				"method": "rhf"
			},
			{
				"type": "occ",
				"energy": -0.27565,
				"method": "rhf"
			},
			{
				"type": "unocc",
				"energy": -0.03183,
				"method": "rhf"
			},
			{
				"type": "unocc",
				"energy": -0.00747,
				"method": "rhf"
			},
			{
				"type": "unocc",
				"energy": 0.01177,
				"method": "rhf"
			},
			{
				"type": "unocc",
				"energy": 0.02386,
				"method": "rhf"
			},
			{
				"type": "unocc",
				"energy": 0.05465,
				"method": "rhf"
			}
		],
		"cosmo_sigma_profile": { 
			"-0.025": 0.0,
			"-0.024": 0.0,
			"-0.023": 0.0,
			"-0.022": 0.0,
			"-0.021": 0.0,
			"-0.02": 0.0,
			"-0.019": 0.0,
			"-0.018": 0.0,
			"-0.017": 0.0,
			"-0.016": 0.0,
			"-0.015": 0.0,
			"-0.014": 0.0,
			"-0.013": 0.0,
			"-0.012": 0.0,
			"-0.011": 0.343371965815,
			"-0.01": 4.06773292306,
			"-0.009": 6.40237638609,
			"-0.008": 7.46505823601,
			"-0.007": 8.6301959166,
			"-0.006": 10.7557197885,
			"-0.005": 20.4965818324,
			"-0.004": 30.3866012971,
			"-0.003": 30.0077407298,
			"-0.002": 31.7992910576,
			"-0.001": 34.2905502113,
			"0.0": 27.5462147098,
			"0.001": 11.8391861053,
			"0.002": 7.94741491855,
			"0.003": 7.23075563296,
			"0.004": 6.49943953593,
			"0.005": 7.71341619235,
			"0.006": 6.09065025642,
			"0.007": 7.17997520944,
			"0.008": 7.81455430153,
			"0.009": 9.16164262944,
			"0.01": 11.789012306,
			"0.011": 11.5955906944,
			"0.012": 6.1566142299,
			"0.013": 2.49986914954,
			"0.014": 0.332451935134,
			"0.015": 0.0,
			"0.016": 0.0,
			"0.017": 0.0,
			"0.018": 0.0,
			"0.019": 0.0,
			"0.02": 0.0,
			"0.021": 0.0,
			"0.022": 0.0,
			"0.023": 0.0,
			"0.024": 0.0,
			"0.025": 0.0
		}
	}
}
