{
	 "smiles": "OC1=CC=CC2=C1CCCC2", 
	 "Tm": 343.15, 
	 "num_atms": 23, 
	 "gaussian": { 
		 "optdone": 1, 
		 "sigma_profile": "yes", 
		 "theory": "DFT", 
		 "functional": "B3LYP", 
		 "basiset": "6-31G**", 
		 "properties": { 
			 "R2extent": 1893.0274, 
			 "electric_dipole_moment_norm": 0.748760342166, 
			 "electric_quadrupole_moment_norm": 7.98357842324, 
			 "total_energy": -463.531201038, 
			 "HOMO_LUMO_gap": 0.21831, 
			 "cosmo_polarized_energy": -7.19, 
			 "cosmo_cavitation_energy": 24.4, 
			 "cosmo_dispersion_energy": -18.56, 
			 "cosmo_repulsion_energy": 1.49, 
			 "cosmo_total_nonelectrostatic_energy": 7.33, 
			 "SMD_solvation_energy": 3.66 
		},
		"coords": [
			{
				"x": -0.2373684663,
				"y": 2.862967547,
				"z": 0.7961972657,
				"element": "O" 
			},
			{
				"x": 0.1206538094,
				"y": 1.6402157328,
				"z": 0.2873702544,
				"element": "C" 
			},
			{
				"x": 1.4114919621,
				"y": 1.3875098533,
				"z": -0.1893468415,
				"element": "C" 
			},
			{
				"x": 1.7300543266,
				"y": 0.1283910255,
				"z": -0.6979722543,
				"element": "C" 
			},
			{
				"x": 0.7676500062,
				"y": -0.8801089421,
				"z": -0.7322425962,
				"element": "C" 
			},
			{
				"x": -0.5211955088,
				"y": -0.6281968295,
				"z": -0.2507255354,
				"element": "C" 
			},
			{
				"x": -0.8575374762,
				"y": 0.6357695629,
				"z": 0.2607172324,
				"element": "C" 
			},
			{
				"x": -2.2721327628,
				"y": 0.8428305168,
				"z": 0.7442766158,
				"element": "C" 
			},
			{
				"x": -3.2954709,
				"y": 0.3083957843,
				"z": -0.285358941,
				"element": "C" 
			},
			{
				"x": -2.9266853976,
				"y": -1.0933093809,
				"z": -0.8520677753,
				"element": "C" 
			},
			{
				"x": -1.6204834132,
				"y": -1.6629992673,
				"z": -0.2525494253,
				"element": "C" 
			},
			{
				"x": 0.5203036469,
				"y": 3.4584529203,
				"z": 0.7358649106,
				"element": "H" 
			},
			{
				"x": 2.1620233897,
				"y": 2.1754364297,
				"z": -0.1619864876,
				"element": "H" 
			},
			{
				"x": 2.733432195,
				"y": -0.0605157678,
				"z": -1.0690001396,
				"element": "H" 
			},
			{
				"x": 1.014263683,
				"y": -1.8604968289,
				"z": -1.1307689208,
				"element": "H" 
			},
			{
				"x": -2.4094214829,
				"y": 0.3086136812,
				"z": 1.6961854656,
				"element": "H" 
			},
			{
				"x": -2.4592673905,
				"y": 1.8982587751,
				"z": 0.9535750038,
				"element": "H" 
			},
			{
				"x": -3.3586751846,
				"y": 1.0267662997,
				"z": -1.1096062335,
				"element": "H" 
			},
			{
				"x": -4.2874657048,
				"y": 0.2849694975,
				"z": 0.1789869628,
				"element": "H" 
			},
			{
				"x": -2.8040860215,
				"y": -1.0261937753,
				"z": -1.9384446391,
				"element": "H" 
			},
			{
				"x": -3.7405477587,
				"y": -1.8055410188,
				"z": -0.6773445585,
				"element": "H" 
			},
			{
				"x": -1.8149859685,
				"y": -1.9834141722,
				"z": 0.7816854283,
				"element": "H" 
			},
			{
				"x": -1.3098495822,
				"y": -2.559201643,
				"z": -0.7998447912,
				"element": "H" 
			}
		],
		 "valence_orbital": [ 
			{
				"type": "occ",
				"energy": -0.3149,
				"method": "rhf"
			},
			{
				"type": "occ",
				"energy": -0.30975,
				"method": "rhf"
			},
			{
				"type": "occ",
				"energy": -0.29918,
				"method": "rhf"
			},
			{
				"type": "occ",
				"energy": -0.23042,
				"method": "rhf"
			},
			{
				"type": "occ",
				"energy": -0.21096,
				"method": "rhf"
			},
			{
				"type": "unocc",
				"energy": 0.00735,
				"method": "rhf"
			},
			{
				"type": "unocc",
				"energy": 0.02198,
				"method": "rhf"
			},
			{
				"type": "unocc",
				"energy": 0.0727,
				"method": "rhf"
			},
			{
				"type": "unocc",
				"energy": 0.09613,
				"method": "rhf"
			},
			{
				"type": "unocc",
				"energy": 0.10766,
				"method": "rhf"
			}
		],
		"cosmo_sigma_profile": { 
			"-0.025": 0.0,
			"-0.024": 0.0,
			"-0.023": 0.0,
			"-0.022": 0.0,
			"-0.021": 0.0,
			"-0.02": 0.0,
			"-0.019": 0.0,
			"-0.018": 0.0,
			"-0.017": 0.923636239763,
			"-0.016": 0.818996137375,
			"-0.015": 1.22967291995,
			"-0.014": 1.36173750449,
			"-0.013": 0.869700791704,
			"-0.012": 0.819447807032,
			"-0.011": 0.649547256536,
			"-0.01": 0.74349923405,
			"-0.009": 1.51325184165,
			"-0.008": 1.04031441289,
			"-0.007": 0.920584086151,
			"-0.006": 2.05396971894,
			"-0.005": 4.27296127075,
			"-0.004": 7.57656230293,
			"-0.003": 17.0690956608,
			"-0.002": 22.671180125,
			"-0.001": 26.449656548,
			"0.0": 22.7886271627,
			"0.001": 18.0894036766,
			"0.002": 9.49498756063,
			"0.003": 7.35836268871,
			"0.004": 10.0143173963,
			"0.005": 8.61397777178,
			"0.006": 9.17982956762,
			"0.007": 7.40507159837,
			"0.008": 2.50815097183,
			"0.009": 1.37623829418,
			"0.01": 2.40772476169,
			"0.011": 0.964508139601,
			"0.012": 0.0,
			"0.013": 0.0,
			"0.014": 0.0,
			"0.015": 0.0,
			"0.016": 0.0,
			"0.017": 0.0,
			"0.018": 0.0,
			"0.019": 0.0,
			"0.02": 0.0,
			"0.021": 0.0,
			"0.022": 0.0,
			"0.023": 0.0,
			"0.024": 0.0,
			"0.025": 0.0
		}
	}
}
