{
	 "smiles": "OC1=C(F)C=C(C=C1)[N+]([O-])=O", 
	 "Tm": 393.15, 
	 "num_atms": 15, 
	 "gaussian": { 
		 "optdone": 1, 
		 "sigma_profile": "yes", 
		 "theory": "DFT", 
		 "functional": "B3LYP", 
		 "basiset": "6-31G**", 
		 "properties": { 
			 "R2extent": 2537.5679, 
			 "electric_dipole_moment_norm": 4.25420973625, 
			 "electric_quadrupole_moment_norm": 11.3386518793, 
			 "total_energy": -611.199812507, 
			 "HOMO_LUMO_gap": 0.1695, 
			 "cosmo_polarized_energy": -10.33, 
			 "cosmo_cavitation_energy": 20.91, 
			 "cosmo_dispersion_energy": -15.57, 
			 "cosmo_repulsion_energy": 1.22, 
			 "cosmo_total_nonelectrostatic_energy": 6.56, 
			 "SMD_solvation_energy": 6.83 
		},
		"coords": [
			{
				"x": 1.9894683101,
				"y": -2.5101755213,
				"z": -1.4452918413,
				"element": "O" 
			},
			{
				"x": 1.7754200185,
				"y": -1.4383112291,
				"z": -0.6516943922,
				"element": "C" 
			},
			{
				"x": 2.0902328782,
				"y": -0.1417838051,
				"z": -1.0879180181,
				"element": "C" 
			},
			{
				"x": 2.614018385,
				"y": -0.0365923932,
				"z": -2.335850947,
				"element": "F" 
			},
			{
				"x": 1.8865178932,
				"y": 0.9752776042,
				"z": -0.3076044223,
				"element": "C" 
			},
			{
				"x": 1.3430306829,
				"y": 0.7764163897,
				"z": 0.9645404769,
				"element": "C" 
			},
			{
				"x": 1.0154601728,
				"y": -0.4941984916,
				"z": 1.4382319315,
				"element": "C" 
			},
			{
				"x": 1.2328548546,
				"y": -1.602988894,
				"z": 0.6268658563,
				"element": "C" 
			},
			{
				"x": 1.1141874654,
				"y": 1.9431485254,
				"z": 1.8185875352,
				"element": "N" 
			},
			{
				"x": 0.6343743122,
				"y": 1.7485209035,
				"z": 2.9358569813,
				"element": "O" 
			},
			{
				"x": 1.4151757731,
				"y": 3.0491243218,
				"z": 1.3671751302,
				"element": "O" 
			},
			{
				"x": 2.3662587152,
				"y": -2.1993481333,
				"z": -2.2826368087,
				"element": "H" 
			},
			{
				"x": 2.1351606013,
				"y": 1.9677403625,
				"z": -0.6600073261,
				"element": "H" 
			},
			{
				"x": 0.5968535461,
				"y": -0.5948563001,
				"z": 2.4313147355,
				"element": "H" 
			},
			{
				"x": 0.9897863914,
				"y": -2.6045733395,
				"z": 0.9635311087,
				"element": "H" 
			}
		],
		 "valence_orbital": [ 
			{
				"type": "occ",
				"energy": -0.31034,
				"method": "rhf"
			},
			{
				"type": "occ",
				"energy": -0.30901,
				"method": "rhf"
			},
			{
				"type": "occ",
				"energy": -0.29157,
				"method": "rhf"
			},
			{
				"type": "occ",
				"energy": -0.2842,
				"method": "rhf"
			},
			{
				"type": "occ",
				"energy": -0.25863,
				"method": "rhf"
			},
			{
				"type": "unocc",
				"energy": -0.08913,
				"method": "rhf"
			},
			{
				"type": "unocc",
				"energy": -0.03263,
				"method": "rhf"
			},
			{
				"type": "unocc",
				"energy": 0.00539,
				"method": "rhf"
			},
			{
				"type": "unocc",
				"energy": 0.04533,
				"method": "rhf"
			},
			{
				"type": "unocc",
				"energy": 0.08292,
				"method": "rhf"
			}
		],
		"cosmo_sigma_profile": { 
			"-0.025": 0.0,
			"-0.024": 0.0,
			"-0.023": 0.0,
			"-0.022": 0.0,
			"-0.021": 0.0,
			"-0.02": 0.0,
			"-0.019": 0.0,
			"-0.018": 0.235518320637,
			"-0.017": 0.672971303874,
			"-0.016": 0.658916961399,
			"-0.015": 1.14221680374,
			"-0.014": 0.594931674591,
			"-0.013": 0.358196039314,
			"-0.012": 0.821220010051,
			"-0.011": 1.78017303586,
			"-0.01": 0.692754513117,
			"-0.009": 1.8932802785,
			"-0.008": 5.0070771201,
			"-0.007": 5.31381507619,
			"-0.006": 6.93984596508,
			"-0.005": 7.11338532491,
			"-0.004": 7.15420738965,
			"-0.003": 9.34773643599,
			"-0.002": 12.919312062,
			"-0.001": 17.3572099163,
			"0.0": 16.7726523444,
			"0.001": 11.3348521853,
			"0.002": 9.37354243377,
			"0.003": 9.47907787961,
			"0.004": 4.12735690783,
			"0.005": 3.64701023072,
			"0.006": 4.81330130627,
			"0.007": 7.97758650066,
			"0.008": 10.3330757219,
			"0.009": 6.21802213044,
			"0.01": 3.96022127641,
			"0.011": 0.441950992369,
			"0.012": 0.0,
			"0.013": 0.0,
			"0.014": 0.0,
			"0.015": 0.0,
			"0.016": 0.0,
			"0.017": 0.0,
			"0.018": 0.0,
			"0.019": 0.0,
			"0.02": 0.0,
			"0.021": 0.0,
			"0.022": 0.0,
			"0.023": 0.0,
			"0.024": 0.0,
			"0.025": 0.0
		}
	}
}
