{
	 "smiles": "OC1(CCCCC1)C#C", 
	 "Tm": 305.35, 
	 "num_atms": 21, 
	 "gaussian": { 
		 "optdone": 1, 
		 "sigma_profile": "yes", 
		 "theory": "DFT", 
		 "functional": "B3LYP", 
		 "basiset": "6-31G**", 
		 "properties": { 
			 "R2extent": 1368.5115, 
			 "electric_dipole_moment_norm": 1.20499773859, 
			 "electric_quadrupole_moment_norm": 5.86907182611, 
			 "total_energy": -387.231951603, 
			 "HOMO_LUMO_gap": 0.2963, 
			 "cosmo_polarized_energy": -6.88, 
			 "cosmo_cavitation_energy": 23.0, 
			 "cosmo_dispersion_energy": -16.4, 
			 "cosmo_repulsion_energy": 1.34, 
			 "cosmo_total_nonelectrostatic_energy": 7.94, 
			 "SMD_solvation_energy": 4.71 
		},
		"coords": [
			{
				"x": 0.658553191,
				"y": -2.5574506926,
				"z": 0.1590602433,
				"element": "O" 
			},
			{
				"x": 0.3076282058,
				"y": -1.1644340308,
				"z": 0.1393551793,
				"element": "C" 
			},
			{
				"x": 1.0931955761,
				"y": -0.5720542652,
				"z": -1.0645689564,
				"element": "C" 
			},
			{
				"x": 0.3253572124,
				"y": 0.5654442473,
				"z": -1.7454432806,
				"element": "C" 
			},
			{
				"x": -1.0000730619,
				"y": 0.055500679,
				"z": -2.3603949022,
				"element": "C" 
			},
			{
				"x": -1.5956501438,
				"y": -1.1189888252,
				"z": -1.5467789334,
				"element": "C" 
			},
			{
				"x": -1.2273331443,
				"y": -0.9947450728,
				"z": -0.0658268338,
				"element": "C" 
			},
			{
				"x": 0.708328335,
				"y": -0.5299030931,
				"z": 1.4095522583,
				"element": "C" 
			},
			{
				"x": 1.0155476767,
				"y": -0.0273486961,
				"z": 2.4650472697,
				"element": "C" 
			},
			{
				"x": 0.3251819599,
				"y": -2.9293770341,
				"z": 0.9874242194,
				"element": "H" 
			},
			{
				"x": 1.2432402813,
				"y": -1.3978303578,
				"z": -1.7688836088,
				"element": "H" 
			},
			{
				"x": 2.0839069861,
				"y": -0.2499771772,
				"z": -0.7331499821,
				"element": "H" 
			},
			{
				"x": 0.1227916232,
				"y": 1.3509578728,
				"z": -1.0064547166,
				"element": "H" 
			},
			{
				"x": 0.9486948683,
				"y": 1.0298074754,
				"z": -2.5169862275,
				"element": "H" 
			},
			{
				"x": -0.8312618968,
				"y": -0.268383838,
				"z": -3.3940938178,
				"element": "H" 
			},
			{
				"x": -1.7194937561,
				"y": 0.8813362482,
				"z": -2.4099961972,
				"element": "H" 
			},
			{
				"x": -1.2069731509,
				"y": -2.0743547526,
				"z": -1.9178199935,
				"element": "H" 
			},
			{
				"x": -2.6833130696,
				"y": -1.1577523929,
				"z": -1.6696491129,
				"element": "H" 
			},
			{
				"x": -1.5426319112,
				"y": -0.0180659666,
				"z": 0.3193539007,
				"element": "H" 
			},
			{
				"x": -1.7368510679,
				"y": -1.7508183968,
				"z": 0.5428749014,
				"element": "H" 
			},
			{
				"x": 1.2977552867,
				"y": 0.4172380692,
				"z": 3.3912785904,
				"element": "H" 
			}
		],
		 "valence_orbital": [ 
			{
				"type": "occ",
				"energy": -0.31489,
				"method": "rhf"
			},
			{
				"type": "occ",
				"energy": -0.3047,
				"method": "rhf"
			},
			{
				"type": "occ",
				"energy": -0.28207,
				"method": "rhf"
			},
			{
				"type": "occ",
				"energy": -0.26707,
				"method": "rhf"
			},
			{
				"type": "occ",
				"energy": -0.25852,
				"method": "rhf"
			},
			{
				"type": "unocc",
				"energy": 0.03778,
				"method": "rhf"
			},
			{
				"type": "unocc",
				"energy": 0.056,
				"method": "rhf"
			},
			{
				"type": "unocc",
				"energy": 0.07929,
				"method": "rhf"
			},
			{
				"type": "unocc",
				"energy": 0.10845,
				"method": "rhf"
			},
			{
				"type": "unocc",
				"energy": 0.11237,
				"method": "rhf"
			}
		],
		"cosmo_sigma_profile": { 
			"-0.025": 0.0,
			"-0.024": 0.0,
			"-0.023": 0.0,
			"-0.022": 0.0,
			"-0.021": 0.0,
			"-0.02": 0.0,
			"-0.019": 0.0,
			"-0.018": 0.0,
			"-0.017": 0.0,
			"-0.016": 0.0,
			"-0.015": 0.691334867826,
			"-0.014": 0.971723703929,
			"-0.013": 0.726569144059,
			"-0.012": 1.00191527906,
			"-0.011": 2.33713367045,
			"-0.01": 1.7518142201,
			"-0.009": 1.78518143358,
			"-0.008": 2.52453233277,
			"-0.007": 2.10569202551,
			"-0.006": 1.56611354913,
			"-0.005": 2.35725235312,
			"-0.004": 4.37409242504,
			"-0.003": 12.9342705969,
			"-0.002": 23.687441156,
			"-0.001": 29.2090625742,
			"0.0": 24.845367586,
			"0.001": 18.3937305835,
			"0.002": 6.73846531057,
			"0.003": 5.22343759164,
			"0.004": 5.58848318512,
			"0.005": 7.51821863522,
			"0.006": 8.03212604835,
			"0.007": 5.49843278666,
			"0.008": 2.05949112957,
			"0.009": 1.02544837725,
			"0.01": 1.39109347045,
			"0.011": 1.14874135379,
			"0.012": 1.54022403844,
			"0.013": 1.65617102408,
			"0.014": 0.538813584743,
			"0.015": 0.0,
			"0.016": 0.0,
			"0.017": 0.0,
			"0.018": 0.0,
			"0.019": 0.0,
			"0.02": 0.0,
			"0.021": 0.0,
			"0.022": 0.0,
			"0.023": 0.0,
			"0.024": 0.0,
			"0.025": 0.0
		}
	}
}
