{
	 "smiles": "CCN(CC)S(=O)(=O)C1=CC(=CC=C1)C(=O)NN", 
	 "Tm": 407.15, 
	 "num_atms": 35, 
	 "gaussian": { 
		 "optdone": 1, 
		 "sigma_profile": "yes", 
		 "theory": "DFT", 
		 "functional": "B3LYP", 
		 "basiset": "6-31G**", 
		 "properties": { 
			 "R2extent": 6086.8614, 
			 "electric_dipole_moment_norm": 5.31370434349, 
			 "electric_quadrupole_moment_norm": 15.8448747022, 
			 "total_energy": -1217.44674909, 
			 "HOMO_LUMO_gap": 0.18969, 
			 "cosmo_polarized_energy": -21.32, 
			 "cosmo_cavitation_energy": 38.93, 
			 "cosmo_dispersion_energy": -27.15, 
			 "cosmo_repulsion_energy": 2.08, 
			 "cosmo_total_nonelectrostatic_energy": 13.87, 
			 "SMD_solvation_energy": 6.37 
		},
		"coords": [
			{
				"x": 1.0607398202,
				"y": 2.363928426,
				"z": 3.0101653387,
				"element": "C" 
			},
			{
				"x": 0.2234092906,
				"y": 1.1937980196,
				"z": 3.5390685773,
				"element": "C" 
			},
			{
				"x": -0.6278979535,
				"y": 0.5200427128,
				"z": 2.5423459603,
				"element": "N" 
			},
			{
				"x": -1.6611072905,
				"y": 1.3046109942,
				"z": 1.841794105,
				"element": "C" 
			},
			{
				"x": -2.7057960077,
				"y": 1.8713705014,
				"z": 2.8048891513,
				"element": "C" 
			},
			{
				"x": -0.0589537003,
				"y": -0.8738165017,
				"z": 1.8045602388,
				"element": "S" 
			},
			{
				"x": -1.2087092282,
				"y": -1.5065747555,
				"z": 1.1549386603,
				"element": "O" 
			},
			{
				"x": 0.7536816094,
				"y": -1.5767055948,
				"z": 2.8018821095,
				"element": "O" 
			},
			{
				"x": 1.0698980136,
				"y": -0.381953009,
				"z": 0.4824365152,
				"element": "C" 
			},
			{
				"x": 0.5538851862,
				"y": 0.0443864003,
				"z": -0.7396322483,
				"element": "C" 
			},
			{
				"x": 1.4288224104,
				"y": 0.4425479069,
				"z": -1.7569986031,
				"element": "C" 
			},
			{
				"x": 2.8120988293,
				"y": 0.4212101924,
				"z": -1.5279149789,
				"element": "C" 
			},
			{
				"x": 3.3171240319,
				"y": -0.0175170514,
				"z": -0.3032104975,
				"element": "C" 
			},
			{
				"x": 2.4487134499,
				"y": -0.4267298979,
				"z": 0.7090738227,
				"element": "C" 
			},
			{
				"x": 0.8158640676,
				"y": 0.9032018246,
				"z": -3.0478997557,
				"element": "C" 
			},
			{
				"x": -0.3358848579,
				"y": 1.3209191927,
				"z": -3.1157640476,
				"element": "O" 
			},
			{
				"x": 1.6242629881,
				"y": 0.8282194734,
				"z": -4.1577441436,
				"element": "N" 
			},
			{
				"x": 1.0852698996,
				"y": 1.0899921955,
				"z": -5.4375001482,
				"element": "N" 
			},
			{
				"x": 1.6457627128,
				"y": 2.7943180588,
				"z": 3.8296878628,
				"element": "H" 
			},
			{
				"x": 1.756952896,
				"y": 2.0417156599,
				"z": 2.2308413997,
				"element": "H" 
			},
			{
				"x": 0.436206751,
				"y": 3.16263904,
				"z": 2.5980390997,
				"element": "H" 
			},
			{
				"x": 0.862185127,
				"y": 0.4277176071,
				"z": 3.9806864703,
				"element": "H" 
			},
			{
				"x": -0.4379730422,
				"y": 1.5418680104,
				"z": 4.3399154563,
				"element": "H" 
			},
			{
				"x": -2.154555937,
				"y": 0.6286423586,
				"z": 1.1426937604,
				"element": "H" 
			},
			{
				"x": -1.204906371,
				"y": 2.1157616938,
				"z": 1.2563694095,
				"element": "H" 
			},
			{
				"x": -3.4918568263,
				"y": 2.3733794412,
				"z": 2.2321040837,
				"element": "H" 
			},
			{
				"x": -3.162512897,
				"y": 1.0694632798,
				"z": 3.3915373656,
				"element": "H" 
			},
			{
				"x": -2.2821625628,
				"y": 2.607730147,
				"z": 3.4945952336,
				"element": "H" 
			},
			{
				"x": -0.5131739421,
				"y": 0.0579510051,
				"z": -0.9288405602,
				"element": "H" 
			},
			{
				"x": 3.4967222531,
				"y": 0.7693205973,
				"z": -2.2954407994,
				"element": "H" 
			},
			{
				"x": 4.389651492,
				"y": -0.0384759574,
				"z": -0.1358314411,
				"element": "H" 
			},
			{
				"x": 2.8216943525,
				"y": -0.7900610193,
				"z": 1.6602396849,
				"element": "H" 
			},
			{
				"x": 2.3773509877,
				"y": 0.1545172338,
				"z": -4.166256134,
				"element": "H" 
			},
			{
				"x": 1.1354926011,
				"y": 2.0973555114,
				"z": -5.5859880867,
				"element": "H" 
			},
			{
				"x": 0.0879018468,
				"y": 0.8755263032,
				"z": -5.3806428611,
				"element": "H" 
			}
		],
		 "valence_orbital": [ 
			{
				"type": "occ",
				"energy": -0.28449,
				"method": "rhf"
			},
			{
				"type": "occ",
				"energy": -0.28004,
				"method": "rhf"
			},
			{
				"type": "occ",
				"energy": -0.26813,
				"method": "rhf"
			},
			{
				"type": "occ",
				"energy": -0.26282,
				"method": "rhf"
			},
			{
				"type": "occ",
				"energy": -0.24748,
				"method": "rhf"
			},
			{
				"type": "unocc",
				"energy": -0.05779,
				"method": "rhf"
			},
			{
				"type": "unocc",
				"energy": -0.04032,
				"method": "rhf"
			},
			{
				"type": "unocc",
				"energy": 0.03083,
				"method": "rhf"
			},
			{
				"type": "unocc",
				"energy": 0.05787,
				"method": "rhf"
			},
			{
				"type": "unocc",
				"energy": 0.0712,
				"method": "rhf"
			}
		],
		"cosmo_sigma_profile": { 
			"-0.025": 0.0,
			"-0.024": 0.0,
			"-0.023": 0.0,
			"-0.022": 0.0,
			"-0.021": 0.0,
			"-0.02": 0.0,
			"-0.019": 0.0,
			"-0.018": 0.0,
			"-0.017": 0.0,
			"-0.016": 0.0,
			"-0.015": 0.234749180447,
			"-0.014": 0.913215235825,
			"-0.013": 1.20120509532,
			"-0.012": 2.0522957179,
			"-0.011": 3.03039988128,
			"-0.01": 3.04478973055,
			"-0.009": 4.11025758574,
			"-0.008": 4.68091162546,
			"-0.007": 7.70213514056,
			"-0.006": 10.2900614653,
			"-0.005": 13.1833307838,
			"-0.004": 28.1800949067,
			"-0.003": 33.136387633,
			"-0.002": 29.8891119181,
			"-0.001": 26.7187265037,
			"0.0": 26.9607499015,
			"0.001": 22.9908777598,
			"0.002": 14.498956062,
			"0.003": 6.19198961414,
			"0.004": 6.56201809148,
			"0.005": 7.07474277783,
			"0.006": 5.33399714065,
			"0.007": 4.79292054008,
			"0.008": 5.99007708571,
			"0.009": 5.36851360186,
			"0.01": 8.2137919786,
			"0.011": 9.87382160591,
			"0.012": 7.59231975365,
			"0.013": 4.67512629892,
			"0.014": 1.08361661426,
			"0.015": 0.771677502999,
			"0.016": 0.438259773702,
			"0.017": 0.203650066366,
			"0.018": 0.0,
			"0.019": 0.0,
			"0.02": 0.0,
			"0.021": 0.0,
			"0.022": 0.0,
			"0.023": 0.0,
			"0.024": 0.0,
			"0.025": 0.0
		}
	}
}
