{
	 "smiles": "NC1=C2C=CC=CC2=NC=C1C(O)=O", 
	 "Tm": 577.15, 
	 "num_atms": 22, 
	 "gaussian": { 
		 "optdone": 1, 
		 "sigma_profile": "yes", 
		 "theory": "DFT", 
		 "functional": "B3LYP", 
		 "basiset": "6-31G**", 
		 "properties": { 
			 "R2extent": 3343.9584, 
			 "electric_dipole_moment_norm": 6.59125697572, 
			 "electric_quadrupole_moment_norm": 13.6909211582, 
			 "total_energy": -645.85697747, 
			 "HOMO_LUMO_gap": 0.16732, 
			 "cosmo_polarized_energy": -20.45, 
			 "cosmo_cavitation_energy": 25.93, 
			 "cosmo_dispersion_energy": -19.8, 
			 "cosmo_repulsion_energy": 1.51, 
			 "cosmo_total_nonelectrostatic_energy": 7.64, 
			 "SMD_solvation_energy": 3.84 
		},
		"coords": [
			{
				"x": 0.1984778151,
				"y": 1.5261134376,
				"z": -1.0275242574,
				"element": "N" 
			},
			{
				"x": -0.6934797616,
				"y": 0.5130251844,
				"z": -0.6748649606,
				"element": "C" 
			},
			{
				"x": -0.2753804843,
				"y": -0.8608606491,
				"z": -0.6703576475,
				"element": "C" 
			},
			{
				"x": 1.0315115995,
				"y": -1.2889044796,
				"z": -1.0250860874,
				"element": "C" 
			},
			{
				"x": 1.3712016139,
				"y": -2.6244213696,
				"z": -0.9997123549,
				"element": "C" 
			},
			{
				"x": 0.419117642,
				"y": -3.5948394851,
				"z": -0.6121194683,
				"element": "C" 
			},
			{
				"x": -0.8559593802,
				"y": -3.2115459997,
				"z": -0.2612658667,
				"element": "C" 
			},
			{
				"x": -1.2388889304,
				"y": -1.8458021666,
				"z": -0.2829065839,
				"element": "C" 
			},
			{
				"x": -2.5215948352,
				"y": -1.5415510154,
				"z": 0.0822854166,
				"element": "N" 
			},
			{
				"x": -2.8690252532,
				"y": -0.2771336621,
				"z": 0.0415535649,
				"element": "C" 
			},
			{
				"x": -2.0232650258,
				"y": 0.7955380459,
				"z": -0.3541471304,
				"element": "C" 
			},
			{
				"x": -2.6477443822,
				"y": 2.1525716095,
				"z": -0.3942570066,
				"element": "C" 
			},
			{
				"x": -2.0793718066,
				"y": 3.0711184308,
				"z": -1.2280108086,
				"element": "O" 
			},
			{
				"x": -3.6254551098,
				"y": 2.4520350582,
				"z": 0.2505834628,
				"element": "O" 
			},
			{
				"x": 1.1671721036,
				"y": 1.247885794,
				"z": -1.0887318878,
				"element": "H" 
			},
			{
				"x": 0.0952594649,
				"y": 2.3888230481,
				"z": -0.5072239386,
				"element": "H" 
			},
			{
				"x": 1.7843774889,
				"y": -0.5726727876,
				"z": -1.342278673,
				"element": "H" 
			},
			{
				"x": 2.373942885,
				"y": -2.9323459798,
				"z": -1.2797351853,
				"element": "H" 
			},
			{
				"x": 0.6982976741,
				"y": -4.6441301215,
				"z": -0.5930830565,
				"element": "H" 
			},
			{
				"x": -1.6102923211,
				"y": -3.930815109,
				"z": 0.039502857,
				"element": "H" 
			},
			{
				"x": -3.8885810358,
				"y": -0.0258595296,
				"z": 0.3253343029,
				"element": "H" 
			},
			{
				"x": -1.4106199608,
				"y": 2.646571746,
				"z": -1.7919546909,
				"element": "H" 
			}
		],
		 "valence_orbital": [ 
			{
				"type": "occ",
				"energy": -0.28292,
				"method": "rhf"
			},
			{
				"type": "occ",
				"energy": -0.27934,
				"method": "rhf"
			},
			{
				"type": "occ",
				"energy": -0.26242,
				"method": "rhf"
			},
			{
				"type": "occ",
				"energy": -0.2575,
				"method": "rhf"
			},
			{
				"type": "occ",
				"energy": -0.23465,
				"method": "rhf"
			},
			{
				"type": "unocc",
				"energy": -0.06733,
				"method": "rhf"
			},
			{
				"type": "unocc",
				"energy": -0.03924,
				"method": "rhf"
			},
			{
				"type": "unocc",
				"energy": 0.0094,
				"method": "rhf"
			},
			{
				"type": "unocc",
				"energy": 0.0267,
				"method": "rhf"
			},
			{
				"type": "unocc",
				"energy": 0.04684,
				"method": "rhf"
			}
		],
		"cosmo_sigma_profile": { 
			"-0.025": 0.0,
			"-0.024": 0.0,
			"-0.023": 0.0,
			"-0.022": 0.0,
			"-0.021": 0.0,
			"-0.02": 0.0,
			"-0.019": 0.0,
			"-0.018": 0.0,
			"-0.017": 0.0,
			"-0.016": 0.212538374193,
			"-0.015": 1.33108632526,
			"-0.014": 3.23903035235,
			"-0.013": 2.90720197575,
			"-0.012": 4.14041830248,
			"-0.011": 4.36395404462,
			"-0.01": 3.43083748864,
			"-0.009": 3.32615629736,
			"-0.008": 3.34474465799,
			"-0.007": 5.16043114143,
			"-0.006": 10.4376823391,
			"-0.005": 10.6169859585,
			"-0.004": 10.2271081087,
			"-0.003": 10.4501874122,
			"-0.002": 9.7103771631,
			"-0.001": 10.9057641043,
			"0.0": 15.5010386755,
			"0.001": 13.0815269994,
			"0.002": 15.6933343433,
			"0.003": 15.8624268767,
			"0.004": 10.9779492911,
			"0.005": 5.03008820899,
			"0.006": 3.70359252497,
			"0.007": 3.89700365608,
			"0.008": 4.16577801034,
			"0.009": 3.78990514,
			"0.01": 5.15397818575,
			"0.011": 6.76830331498,
			"0.012": 6.22206943473,
			"0.013": 2.35751105848,
			"0.014": 0.581448957288,
			"0.015": 0.986043431555,
			"0.016": 0.733084567137,
			"0.017": 0.113935363668,
			"0.018": 0.0,
			"0.019": 0.0,
			"0.02": 0.0,
			"0.021": 0.0,
			"0.022": 0.0,
			"0.023": 0.0,
			"0.024": 0.0,
			"0.025": 0.0
		}
	}
}
