{
	 "smiles": "ClC1=NC=C(C=C1)S(=O)(=O)N1CCC(CC2=CC=CC=C2)CC1", 
	 "Tm": 428.15, 
	 "num_atms": 42, 
	 "gaussian": { 
		 "optdone": 1, 
		 "sigma_profile": "yes", 
		 "theory": "DFT", 
		 "functional": "B3LYP", 
		 "basiset": "6-31G**", 
		 "properties": { 
			 "R2extent": 12639.9496, 
			 "electric_dipole_moment_norm": 4.47268265921, 
			 "electric_quadrupole_moment_norm": 24.2524846511, 
			 "total_energy": -1777.51610858, 
			 "HOMO_LUMO_gap": 0.18874, 
			 "cosmo_polarized_energy": -15.78, 
			 "cosmo_cavitation_energy": 46.63, 
			 "cosmo_dispersion_energy": -32.32, 
			 "cosmo_repulsion_energy": 2.43, 
			 "cosmo_total_nonelectrostatic_energy": 16.74, 
			 "SMD_solvation_energy": 3.88 
		},
		"coords": [
			{
				"x": 3.5972884477,
				"y": -4.4481645473,
				"z": -4.7557465282,
				"element": "Cl" 
			},
			{
				"x": 3.3870858072,
				"y": -2.9914180742,
				"z": -3.7963613664,
				"element": "C" 
			},
			{
				"x": 4.1442429956,
				"y": -2.8816390664,
				"z": -2.7153660955,
				"element": "N" 
			},
			{
				"x": 3.9954238795,
				"y": -1.7822613746,
				"z": -1.9689107704,
				"element": "C" 
			},
			{
				"x": 3.0811696373,
				"y": -0.7763123525,
				"z": -2.287277443,
				"element": "C" 
			},
			{
				"x": 2.2998183487,
				"y": -0.9017600089,
				"z": -3.4363150379,
				"element": "C" 
			},
			{
				"x": 2.4513780785,
				"y": -2.042784314,
				"z": -4.2188856959,
				"element": "C" 
			},
			{
				"x": 2.9478399309,
				"y": 0.686853424,
				"z": -1.2521380294,
				"element": "S" 
			},
			{
				"x": 2.0283562501,
				"y": 1.595386655,
				"z": -1.9502839171,
				"element": "O" 
			},
			{
				"x": 4.3056526531,
				"y": 1.111624998,
				"z": -0.8977098196,
				"element": "O" 
			},
			{
				"x": 2.2416115021,
				"y": 0.06707062,
				"z": 0.1408289431,
				"element": "N" 
			},
			{
				"x": 2.8008064317,
				"y": 0.4796776683,
				"z": 1.4550496992,
				"element": "C" 
			},
			{
				"x": 1.7287901793,
				"y": 1.1584911548,
				"z": 2.309823823,
				"element": "C" 
			},
			{
				"x": 0.566639368,
				"y": 0.1910325224,
				"z": 2.6222549456,
				"element": "C" 
			},
			{
				"x": -0.6916021472,
				"y": 0.9177681529,
				"z": 3.1761355009,
				"element": "C" 
			},
			{
				"x": -1.4249070353,
				"y": 1.8357552191,
				"z": 2.2182358011,
				"element": "C" 
			},
			{
				"x": -2.4979932583,
				"y": 1.3634510119,
				"z": 1.4466476437,
				"element": "C" 
			},
			{
				"x": -3.1671972798,
				"y": 2.1994833384,
				"z": 0.5513739985,
				"element": "C" 
			},
			{
				"x": -2.7802839895,
				"y": 3.5335638967,
				"z": 0.4153882652,
				"element": "C" 
			},
			{
				"x": -1.7281681048,
				"y": 4.0254092203,
				"z": 1.1894644229,
				"element": "C" 
			},
			{
				"x": -1.0626689786,
				"y": 3.1852489062,
				"z": 2.0833321619,
				"element": "C" 
			},
			{
				"x": 0.2830475667,
				"y": -0.7205418775,
				"z": 1.393747349,
				"element": "C" 
			},
			{
				"x": 0.7728561265,
				"y": -0.117202533,
				"z": 0.0749941973,
				"element": "C" 
			},
			{
				"x": 4.6312186373,
				"y": -1.6989441161,
				"z": -1.0917761979,
				"element": "H" 
			},
			{
				"x": 1.6025376744,
				"y": -0.1152368767,
				"z": -3.7043574219,
				"element": "H" 
			},
			{
				"x": 1.874032253,
				"y": -2.1962263093,
				"z": -5.1224664026,
				"element": "H" 
			},
			{
				"x": 3.1828117014,
				"y": -0.4142373601,
				"z": 1.9661190565,
				"element": "H" 
			},
			{
				"x": 3.6502476148,
				"y": 1.1403962009,
				"z": 1.280676663,
				"element": "H" 
			},
			{
				"x": 2.1821713608,
				"y": 1.5168433136,
				"z": 3.241546767,
				"element": "H" 
			},
			{
				"x": 1.3619917083,
				"y": 2.0413284365,
				"z": 1.7750765765,
				"element": "H" 
			},
			{
				"x": 0.9043585868,
				"y": -0.4634853045,
				"z": 3.4365205476,
				"element": "H" 
			},
			{
				"x": -0.3835751619,
				"y": 1.4912823718,
				"z": 4.0596731256,
				"element": "H" 
			},
			{
				"x": -1.3881245692,
				"y": 0.150711758,
				"z": 3.5358035479,
				"element": "H" 
			},
			{
				"x": -2.825016206,
				"y": 0.332730583,
				"z": 1.5609343373,
				"element": "H" 
			},
			{
				"x": -3.9963222725,
				"y": 1.8102419499,
				"z": -0.0329965582,
				"element": "H" 
			},
			{
				"x": -3.3006310266,
				"y": 4.1865642201,
				"z": -0.2790909152,
				"element": "H" 
			},
			{
				"x": -1.427992807,
				"y": 5.065812935,
				"z": 1.1029359576,
				"element": "H" 
			},
			{
				"x": -0.2588016955,
				"y": 3.5861243001,
				"z": 2.6955170148,
				"element": "H" 
			},
			{
				"x": -0.7873121607,
				"y": -0.9269449144,
				"z": 1.2985079349,
				"element": "H" 
			},
			{
				"x": 0.7750188746,
				"y": -1.6898716862,
				"z": 1.5316668257,
				"element": "H" 
			},
			{
				"x": 0.2635537585,
				"y": 0.8308557885,
				"z": -0.1316746292,
				"element": "H" 
			},
			{
				"x": 0.5482473203,
				"y": -0.7986779299,
				"z": -0.7528982771,
				"element": "H" 
			}
		],
		 "valence_orbital": [ 
			{
				"type": "occ",
				"energy": -0.28516,
				"method": "rhf"
			},
			{
				"type": "occ",
				"energy": -0.27781,
				"method": "rhf"
			},
			{
				"type": "occ",
				"energy": -0.2543,
				"method": "rhf"
			},
			{
				"type": "occ",
				"energy": -0.24895,
				"method": "rhf"
			},
			{
				"type": "occ",
				"energy": -0.24393,
				"method": "rhf"
			},
			{
				"type": "unocc",
				"energy": -0.05519,
				"method": "rhf"
			},
			{
				"type": "unocc",
				"energy": -0.0494,
				"method": "rhf"
			},
			{
				"type": "unocc",
				"energy": -0.00743,
				"method": "rhf"
			},
			{
				"type": "unocc",
				"energy": -0.00655,
				"method": "rhf"
			},
			{
				"type": "unocc",
				"energy": 0.02465,
				"method": "rhf"
			}
		],
		"cosmo_sigma_profile": { 
			"-0.025": 0.0,
			"-0.024": 0.0,
			"-0.023": 0.0,
			"-0.022": 0.0,
			"-0.021": 0.0,
			"-0.02": 0.0,
			"-0.019": 0.0,
			"-0.018": 0.0,
			"-0.017": 0.0,
			"-0.016": 0.0,
			"-0.015": 0.0,
			"-0.014": 0.0,
			"-0.013": 0.0,
			"-0.012": 0.0,
			"-0.011": 0.0,
			"-0.01": 0.170728965447,
			"-0.009": 2.99596927871,
			"-0.008": 5.58143743949,
			"-0.007": 4.53654233646,
			"-0.006": 5.58664122744,
			"-0.005": 19.2344587844,
			"-0.004": 32.9481827696,
			"-0.003": 50.9284813619,
			"-0.002": 49.9110468841,
			"-0.001": 37.8401973196,
			"0.0": 26.5761078247,
			"0.001": 19.2359127218,
			"0.002": 17.1747379558,
			"0.003": 21.0167680006,
			"0.004": 19.0774741252,
			"0.005": 13.3393292546,
			"0.006": 11.0555720542,
			"0.007": 5.30044051364,
			"0.008": 4.55762431944,
			"0.009": 5.09652949033,
			"0.01": 8.31301594486,
			"0.011": 7.95068375501,
			"0.012": 2.49759941181,
			"0.013": 0.77487570592,
			"0.014": 0.142982238872,
			"0.015": 0.0,
			"0.016": 0.0,
			"0.017": 0.0,
			"0.018": 0.0,
			"0.019": 0.0,
			"0.02": 0.0,
			"0.021": 0.0,
			"0.022": 0.0,
			"0.023": 0.0,
			"0.024": 0.0,
			"0.025": 0.0
		}
	}
}
