{
	 "smiles": "COC(=O)C1=NN2CCCNC2=N1", 
	 "Tm": 447.15, 
	 "num_atms": 23, 
	 "gaussian": { 
		 "optdone": 1, 
		 "sigma_profile": "yes", 
		 "theory": "DFT", 
		 "functional": "B3LYP", 
		 "basiset": "6-31G**", 
		 "properties": { 
			 "R2extent": 3842.0374, 
			 "electric_dipole_moment_norm": 5.68603711296, 
			 "electric_quadrupole_moment_norm": 18.4029068457, 
			 "total_energy": -642.220040455, 
			 "HOMO_LUMO_gap": 0.19821, 
			 "cosmo_polarized_energy": -20.3, 
			 "cosmo_cavitation_energy": 26.9, 
			 "cosmo_dispersion_energy": -20.43, 
			 "cosmo_repulsion_energy": 1.64, 
			 "cosmo_total_nonelectrostatic_energy": 8.11, 
			 "SMD_solvation_energy": 1.9 
		},
		"coords": [
			{
				"x": -2.8384515715,
				"y": -3.6795357413,
				"z": -2.9746458472,
				"element": "C" 
			},
			{
				"x": -1.859044818,
				"y": -2.9018152447,
				"z": -2.272921338,
				"element": "O" 
			},
			{
				"x": -1.6336081672,
				"y": -1.6775645288,
				"z": -2.7924255416,
				"element": "C" 
			},
			{
				"x": -2.1987602279,
				"y": -1.2403807217,
				"z": -3.7725214174,
				"element": "O" 
			},
			{
				"x": -0.6084603592,
				"y": -0.9377222698,
				"z": -2.0101988538,
				"element": "C" 
			},
			{
				"x": -0.2592156746,
				"y": 0.2916260152,
				"z": -2.3723815661,
				"element": "N" 
			},
			{
				"x": 0.6753120309,
				"y": 0.6028257519,
				"z": -1.4351688148,
				"element": "N" 
			},
			{
				"x": 1.3447395847,
				"y": 1.8925557543,
				"z": -1.3540604464,
				"element": "C" 
			},
			{
				"x": 2.5669101165,
				"y": 1.7423653871,
				"z": -0.4353693741,
				"element": "C" 
			},
			{
				"x": 2.2213911833,
				"y": 0.9441930206,
				"z": 0.8307885507,
				"element": "C" 
			},
			{
				"x": 1.7521709166,
				"y": -0.3863960483,
				"z": 0.4431190073,
				"element": "N" 
			},
			{
				"x": 0.828994285,
				"y": -0.439378648,
				"z": -0.5737971288,
				"element": "C" 
			},
			{
				"x": 0.0307733001,
				"y": -1.43896362,
				"z": -0.9058948658,
				"element": "N" 
			},
			{
				"x": -3.8076483582,
				"y": -3.1735504773,
				"z": -2.9748659258,
				"element": "H" 
			},
			{
				"x": -2.5314342528,
				"y": -3.8457845964,
				"z": -4.0106844486,
				"element": "H" 
			},
			{
				"x": -2.9008865636,
				"y": -4.625989605,
				"z": -2.4374391277,
				"element": "H" 
			},
			{
				"x": 0.643495017,
				"y": 2.6402732419,
				"z": -0.9639121516,
				"element": "H" 
			},
			{
				"x": 1.6339072243,
				"y": 2.1989895441,
				"z": -2.3626020751,
				"element": "H" 
			},
			{
				"x": 2.9364058853,
				"y": 2.734245439,
				"z": -0.1600094106,
				"element": "H" 
			},
			{
				"x": 3.3690952362,
				"y": 1.2228898866,
				"z": -0.9701165752,
				"element": "H" 
			},
			{
				"x": 1.4685355169,
				"y": 1.4922418563,
				"z": 1.4212034436,
				"element": "H" 
			},
			{
				"x": 3.1112274193,
				"y": 0.8275230672,
				"z": 1.4554327504,
				"element": "H" 
			},
			{
				"x": 1.582652277,
				"y": -1.0570474628,
				"z": 1.1801711565,
				"element": "H" 
			}
		],
		 "valence_orbital": [ 
			{
				"type": "occ",
				"energy": -0.28703,
				"method": "rhf"
			},
			{
				"type": "occ",
				"energy": -0.27703,
				"method": "rhf"
			},
			{
				"type": "occ",
				"energy": -0.27463,
				"method": "rhf"
			},
			{
				"type": "occ",
				"energy": -0.25816,
				"method": "rhf"
			},
			{
				"type": "occ",
				"energy": -0.22004,
				"method": "rhf"
			},
			{
				"type": "unocc",
				"energy": -0.02183,
				"method": "rhf"
			},
			{
				"type": "unocc",
				"energy": 0.03983,
				"method": "rhf"
			},
			{
				"type": "unocc",
				"energy": 0.06519,
				"method": "rhf"
			},
			{
				"type": "unocc",
				"energy": 0.09572,
				"method": "rhf"
			},
			{
				"type": "unocc",
				"energy": 0.11499,
				"method": "rhf"
			}
		],
		"cosmo_sigma_profile": { 
			"-0.025": 0.0,
			"-0.024": 0.0,
			"-0.023": 0.0,
			"-0.022": 0.0,
			"-0.021": 0.0,
			"-0.02": 0.0,
			"-0.019": 0.0,
			"-0.018": 0.0,
			"-0.017": 0.0,
			"-0.016": 0.0,
			"-0.015": 0.194957053916,
			"-0.014": 1.12923961238,
			"-0.013": 1.43034987101,
			"-0.012": 0.87339832202,
			"-0.011": 0.812388356661,
			"-0.01": 1.01733808648,
			"-0.009": 1.23189698015,
			"-0.008": 1.13613392203,
			"-0.007": 3.37090277933,
			"-0.006": 19.5916673058,
			"-0.005": 26.1489178662,
			"-0.004": 27.4793355804,
			"-0.003": 22.5353551605,
			"-0.002": 13.476961901,
			"-0.001": 9.42866771906,
			"0.0": 8.00744092683,
			"0.001": 7.11527964548,
			"0.002": 5.52854589225,
			"0.003": 5.32479401804,
			"0.004": 4.67786300039,
			"0.005": 5.79850410175,
			"0.006": 4.64930018177,
			"0.007": 4.65275532683,
			"0.008": 3.91716304967,
			"0.009": 4.27639991443,
			"0.01": 4.44895845405,
			"0.011": 6.04300536675,
			"0.012": 6.32867522809,
			"0.013": 4.25245556237,
			"0.014": 3.63562575049,
			"0.015": 2.29599832436,
			"0.016": 1.30591910544,
			"0.017": 0.690116844162,
			"0.018": 0.0,
			"0.019": 0.0,
			"0.02": 0.0,
			"0.021": 0.0,
			"0.022": 0.0,
			"0.023": 0.0,
			"0.024": 0.0,
			"0.025": 0.0
		}
	}
}
