{
	 "smiles": "CCOC(=O)C1CN(CCN1)C(=O)OC(C)(C)C", 
	 "Tm": 329.15, 
	 "num_atms": 40, 
	 "gaussian": { 
		 "optdone": 1, 
		 "sigma_profile": "yes", 
		 "theory": "DFT", 
		 "functional": "B3LYP", 
		 "basiset": "6-31G**", 
		 "properties": { 
			 "R2extent": 7379.9235, 
			 "electric_dipole_moment_norm": 3.89294619922, 
			 "electric_quadrupole_moment_norm": 15.1400250773, 
			 "total_energy": -880.979837972, 
			 "HOMO_LUMO_gap": 0.23319, 
			 "cosmo_polarized_energy": -13.28, 
			 "cosmo_cavitation_energy": 40.9, 
			 "cosmo_dispersion_energy": -28.51, 
			 "cosmo_repulsion_energy": 2.25, 
			 "cosmo_total_nonelectrostatic_energy": 14.65, 
			 "SMD_solvation_energy": 6.39 
		},
		"coords": [
			{
				"x": 3.191174204,
				"y": -4.1823590428,
				"z": 3.1435343272,
				"element": "C" 
			},
			{
				"x": 2.2386686401,
				"y": -3.1727892126,
				"z": 3.7648019055,
				"element": "C" 
			},
			{
				"x": 1.2361688502,
				"y": -2.7390959865,
				"z": 2.8103202017,
				"element": "O" 
			},
			{
				"x": 1.5792151493,
				"y": -1.7219193316,
				"z": 1.9889136187,
				"element": "C" 
			},
			{
				"x": 2.6439132797,
				"y": -1.1452101441,
				"z": 2.0253087719,
				"element": "O" 
			},
			{
				"x": 0.4277818651,
				"y": -1.3729361491,
				"z": 1.0533295864,
				"element": "C" 
			},
			{
				"x": 0.9007448266,
				"y": -0.4413811323,
				"z": -0.0684827883,
				"element": "C" 
			},
			{
				"x": -0.2077665554,
				"y": -0.1827441964,
				"z": -0.9820935773,
				"element": "N" 
			},
			{
				"x": -0.8618256618,
				"y": -1.371713766,
				"z": -1.5247004846,
				"element": "C" 
			},
			{
				"x": -1.2957384905,
				"y": -2.2861813921,
				"z": -0.3761296414,
				"element": "C" 
			},
			{
				"x": -0.1390697561,
				"y": -2.5894504601,
				"z": 0.4660752036,
				"element": "N" 
			},
			{
				"x": -0.4688536869,
				"y": 1.108692458,
				"z": -1.3671400489,
				"element": "C" 
			},
			{
				"x": 0.1310168157,
				"y": 2.0811332053,
				"z": -0.9302849431,
				"element": "O" 
			},
			{
				"x": -1.4747521725,
				"y": 1.152675993,
				"z": -2.2771703986,
				"element": "O" 
			},
			{
				"x": -1.9418133679,
				"y": 2.4366982087,
				"z": -2.8205725339,
				"element": "C" 
			},
			{
				"x": -2.5018068539,
				"y": 3.3144775098,
				"z": -1.6959421415,
				"element": "C" 
			},
			{
				"x": -3.0575977027,
				"y": 2.0049336208,
				"z": -3.776531906,
				"element": "C" 
			},
			{
				"x": -0.8090667399,
				"y": 3.1275748613,
				"z": -3.5877366656,
				"element": "C" 
			},
			{
				"x": 2.6435899072,
				"y": -5.0384156916,
				"z": 2.7386115354,
				"element": "H" 
			},
			{
				"x": 3.8897082861,
				"y": -4.54845791,
				"z": 3.9032858636,
				"element": "H" 
			},
			{
				"x": 3.7699327508,
				"y": -3.7205087649,
				"z": 2.340096915,
				"element": "H" 
			},
			{
				"x": 1.6616484413,
				"y": -3.6124425142,
				"z": 4.581727655,
				"element": "H" 
			},
			{
				"x": 2.775380812,
				"y": -2.2940859256,
				"z": 4.1296824046,
				"element": "H" 
			},
			{
				"x": -0.3159620646,
				"y": -0.8185977983,
				"z": 1.6622566881,
				"element": "H" 
			},
			{
				"x": 1.7285861811,
				"y": -0.9246932785,
				"z": -0.6041056396,
				"element": "H" 
			},
			{
				"x": 1.2524313092,
				"y": 0.5079813467,
				"z": 0.3294399329,
				"element": "H" 
			},
			{
				"x": -0.1573407261,
				"y": -1.9169669546,
				"z": -2.1696113001,
				"element": "H" 
			},
			{
				"x": -1.7186508895,
				"y": -1.0672851379,
				"z": -2.1218694203,
				"element": "H" 
			},
			{
				"x": -2.1118995028,
				"y": -1.7873342453,
				"z": 0.1797632437,
				"element": "H" 
			},
			{
				"x": -1.6888117377,
				"y": -3.2234374637,
				"z": -0.7845251891,
				"element": "H" 
			},
			{
				"x": -0.3888310231,
				"y": -3.2359601114,
				"z": 1.207955118,
				"element": "H" 
			},
			{
				"x": -2.9529438335,
				"y": 4.2159335727,
				"z": -2.123530947,
				"element": "H" 
			},
			{
				"x": -3.2790973592,
				"y": 2.7750993805,
				"z": -1.1449635292,
				"element": "H" 
			},
			{
				"x": -1.7140713873,
				"y": 3.6075381538,
				"z": -1.001999851,
				"element": "H" 
			},
			{
				"x": -3.8471858867,
				"y": 1.4749566822,
				"z": -3.2354492422,
				"element": "H" 
			},
			{
				"x": -3.4985712933,
				"y": 2.8816039421,
				"z": -4.2602204114,
				"element": "H" 
			},
			{
				"x": -2.6657989113,
				"y": 1.3416342336,
				"z": -4.5533226052,
				"element": "H" 
			},
			{
				"x": -0.407943642,
				"y": 2.4582350071,
				"z": -4.3555613272,
				"element": "H" 
			},
			{
				"x": -1.1954786356,
				"y": 4.0227641817,
				"z": -4.0860388593,
				"element": "H" 
			},
			{
				"x": -0.0025834381,
				"y": 3.4172342521,
				"z": -2.9142195206,
				"element": "H" 
			}
		],
		 "valence_orbital": [ 
			{
				"type": "occ",
				"energy": -0.28274,
				"method": "rhf"
			},
			{
				"type": "occ",
				"energy": -0.27718,
				"method": "rhf"
			},
			{
				"type": "occ",
				"energy": -0.25513,
				"method": "rhf"
			},
			{
				"type": "occ",
				"energy": -0.24023,
				"method": "rhf"
			},
			{
				"type": "occ",
				"energy": -0.22721,
				"method": "rhf"
			},
			{
				"type": "unocc",
				"energy": 0.00598,
				"method": "rhf"
			},
			{
				"type": "unocc",
				"energy": 0.05809,
				"method": "rhf"
			},
			{
				"type": "unocc",
				"energy": 0.08277,
				"method": "rhf"
			},
			{
				"type": "unocc",
				"energy": 0.09362,
				"method": "rhf"
			},
			{
				"type": "unocc",
				"energy": 0.10363,
				"method": "rhf"
			}
		],
		"cosmo_sigma_profile": { 
			"-0.025": 0.0,
			"-0.024": 0.0,
			"-0.023": 0.0,
			"-0.022": 0.0,
			"-0.021": 0.0,
			"-0.02": 0.0,
			"-0.019": 0.0,
			"-0.018": 0.0,
			"-0.017": 0.0,
			"-0.016": 0.0,
			"-0.015": 0.0,
			"-0.014": 0.0,
			"-0.013": 0.0,
			"-0.012": 0.0,
			"-0.011": 0.0,
			"-0.01": 0.538661119219,
			"-0.009": 0.581333952567,
			"-0.008": 1.40244104361,
			"-0.007": 0.744164691691,
			"-0.006": 4.76582698227,
			"-0.005": 13.1955306164,
			"-0.004": 35.3921954527,
			"-0.003": 43.6139815072,
			"-0.002": 37.9045876126,
			"-0.001": 35.0572114958,
			"0.0": 40.2179316254,
			"0.001": 29.8310256182,
			"0.002": 12.4668371588,
			"0.003": 9.74958615107,
			"0.004": 8.78594486066,
			"0.005": 7.18149006257,
			"0.006": 5.32817155405,
			"0.007": 3.92638430661,
			"0.008": 4.82136108884,
			"0.009": 3.34141833511,
			"0.01": 3.29147884575,
			"0.011": 5.75402044146,
			"0.012": 4.29579982017,
			"0.013": 3.53143776767,
			"0.014": 1.42439377842,
			"0.015": 0.307976267854,
			"0.016": 0.344663832321,
			"0.017": 0.0,
			"0.018": 0.0,
			"0.019": 0.0,
			"0.02": 0.0,
			"0.021": 0.0,
			"0.022": 0.0,
			"0.023": 0.0,
			"0.024": 0.0,
			"0.025": 0.0
		}
	}
}
