{
	 "smiles": "CCCCCCCCCC1CCCC1", 
	 "Tm": 244.15, 
	 "num_atms": 42, 
	 "gaussian": { 
		 "optdone": 1, 
		 "sigma_profile": "yes", 
		 "theory": "DFT", 
		 "functional": "B3LYP", 
		 "basiset": "6-31G**", 
		 "properties": { 
			 "R2extent": 4831.5966, 
			 "electric_dipole_moment_norm": 0.0747182708579, 
			 "electric_quadrupole_moment_norm": 0.751324204322, 
			 "total_energy": -550.399957857, 
			 "HOMO_LUMO_gap": 0.35204, 
			 "cosmo_polarized_energy": -0.9, 
			 "cosmo_cavitation_energy": 39.68, 
			 "cosmo_dispersion_energy": -26.88, 
			 "cosmo_repulsion_energy": 2.19, 
			 "cosmo_total_nonelectrostatic_energy": 14.99, 
			 "SMD_solvation_energy": 4.97 
		},
		"coords": [
			{
				"x": 1.5435496493,
				"y": -3.0909284901,
				"z": -3.4537667819,
				"element": "C" 
			},
			{
				"x": 1.3908213258,
				"y": -1.6657720115,
				"z": -2.9085156821,
				"element": "C" 
			},
			{
				"x": -0.059475162,
				"y": -1.2431021618,
				"z": -2.6166788585,
				"element": "C" 
			},
			{
				"x": -0.729106852,
				"y": -2.0168126267,
				"z": -1.4714817548,
				"element": "C" 
			},
			{
				"x": -2.1884871917,
				"y": -1.6105338424,
				"z": -1.1949946525,
				"element": "C" 
			},
			{
				"x": -2.4149102733,
				"y": -0.1604226439,
				"z": -0.7310426317,
				"element": "C" 
			},
			{
				"x": -1.7553577785,
				"y": 0.1949950167,
				"z": 0.6095806178,
				"element": "C" 
			},
			{
				"x": -2.0838445082,
				"y": 1.6236207015,
				"z": 1.0674103751,
				"element": "C" 
			},
			{
				"x": -1.5978484468,
				"y": 2.0380889848,
				"z": 2.4700102991,
				"element": "C" 
			},
			{
				"x": -0.0781378213,
				"y": 2.1048059596,
				"z": 2.7406538474,
				"element": "C" 
			},
			{
				"x": 0.6387531678,
				"y": 0.7452501418,
				"z": 3.0280956691,
				"element": "C" 
			},
			{
				"x": 2.0318193673,
				"y": 0.8348364211,
				"z": 2.3468844366,
				"element": "C" 
			},
			{
				"x": 2.2143250745,
				"y": 2.3258755316,
				"z": 1.9996472934,
				"element": "C" 
			},
			{
				"x": 0.7884986048,
				"y": 2.7799851806,
				"z": 1.6543480899,
				"element": "C" 
			},
			{
				"x": 1.2058678049,
				"y": -3.8440977504,
				"z": -2.734644237,
				"element": "H" 
			},
			{
				"x": 0.9601944849,
				"y": -3.2256046594,
				"z": -4.3723190256,
				"element": "H" 
			},
			{
				"x": 2.5897327595,
				"y": -3.3115582635,
				"z": -3.6905530288,
				"element": "H" 
			},
			{
				"x": 1.8216647568,
				"y": -0.9620534619,
				"z": -3.6323362557,
				"element": "H" 
			},
			{
				"x": 1.9881854076,
				"y": -1.5592794648,
				"z": -1.9922396099,
				"element": "H" 
			},
			{
				"x": -0.0663779513,
				"y": -0.1705957707,
				"z": -2.3845463158,
				"element": "H" 
			},
			{
				"x": -0.6604633278,
				"y": -1.3586721241,
				"z": -3.5308263078,
				"element": "H" 
			},
			{
				"x": -0.1284913794,
				"y": -1.8998743688,
				"z": -0.5589624783,
				"element": "H" 
			},
			{
				"x": -0.7161096875,
				"y": -3.0896616135,
				"z": -1.7002464936,
				"element": "H" 
			},
			{
				"x": -2.6019905652,
				"y": -2.2888321297,
				"z": -0.4359570212,
				"element": "H" 
			},
			{
				"x": -2.778389589,
				"y": -1.7827556034,
				"z": -2.1058425595,
				"element": "H" 
			},
			{
				"x": -3.4972795181,
				"y": 0.008251445,
				"z": -0.6467756806,
				"element": "H" 
			},
			{
				"x": -2.0662630822,
				"y": 0.5393603499,
				"z": -1.5024715345,
				"element": "H" 
			},
			{
				"x": -2.0872411175,
				"y": -0.5208019837,
				"z": 1.3759526291,
				"element": "H" 
			},
			{
				"x": -0.6693090614,
				"y": 0.0715991898,
				"z": 0.5267121345,
				"element": "H" 
			},
			{
				"x": -1.7022982446,
				"y": 2.334278294,
				"z": 0.3219689798,
				"element": "H" 
			},
			{
				"x": -3.1759860676,
				"y": 1.7457670458,
				"z": 1.0527167972,
				"element": "H" 
			},
			{
				"x": -2.0521299884,
				"y": 1.3715286524,
				"z": 3.2169201911,
				"element": "H" 
			},
			{
				"x": -2.0185994782,
				"y": 3.0324771999,
				"z": 2.6714310168,
				"element": "H" 
			},
			{
				"x": 0.0364614149,
				"y": 2.7137239966,
				"z": 3.6483094127,
				"element": "H" 
			},
			{
				"x": 0.7334700514,
				"y": 0.5928864235,
				"z": 4.1086909837,
				"element": "H" 
			},
			{
				"x": 0.0676170618,
				"y": -0.1056392189,
				"z": 2.6483189903,
				"element": "H" 
			},
			{
				"x": 2.8382256266,
				"y": 0.4424956994,
				"z": 2.9745174021,
				"element": "H" 
			},
			{
				"x": 2.0361195067,
				"y": 0.244872534,
				"z": 1.4220422636,
				"element": "H" 
			},
			{
				"x": 2.577546767,
				"y": 2.8774760317,
				"z": 2.8767547852,
				"element": "H" 
			},
			{
				"x": 2.9330897848,
				"y": 2.4926146046,
				"z": 1.1904930994,
				"element": "H" 
			},
			{
				"x": 0.6683139442,
				"y": 3.8689166873,
				"z": 1.6344777328,
				"element": "H" 
			},
			{
				"x": 0.5217405315,
				"y": 2.4062920977,
				"z": 0.6575638629,
				"element": "H" 
			}
		],
		 "valence_orbital": [ 
			{
				"type": "occ",
				"energy": -0.30815,
				"method": "rhf"
			},
			{
				"type": "occ",
				"energy": -0.30199,
				"method": "rhf"
			},
			{
				"type": "occ",
				"energy": -0.30022,
				"method": "rhf"
			},
			{
				"type": "occ",
				"energy": -0.29569,
				"method": "rhf"
			},
			{
				"type": "occ",
				"energy": -0.28703,
				"method": "rhf"
			},
			{
				"type": "unocc",
				"energy": 0.06501,
				"method": "rhf"
			},
			{
				"type": "unocc",
				"energy": 0.08622,
				"method": "rhf"
			},
			{
				"type": "unocc",
				"energy": 0.09605,
				"method": "rhf"
			},
			{
				"type": "unocc",
				"energy": 0.10449,
				"method": "rhf"
			},
			{
				"type": "unocc",
				"energy": 0.10872,
				"method": "rhf"
			}
		],
		"cosmo_sigma_profile": { 
			"-0.025": 0.0,
			"-0.024": 0.0,
			"-0.023": 0.0,
			"-0.022": 0.0,
			"-0.021": 0.0,
			"-0.02": 0.0,
			"-0.019": 0.0,
			"-0.018": 0.0,
			"-0.017": 0.0,
			"-0.016": 0.0,
			"-0.015": 0.0,
			"-0.014": 0.0,
			"-0.013": 0.0,
			"-0.012": 0.0,
			"-0.011": 0.0,
			"-0.01": 0.0,
			"-0.009": 0.0,
			"-0.008": 0.0,
			"-0.007": 0.0,
			"-0.006": 0.0,
			"-0.005": 0.0,
			"-0.004": 0.0,
			"-0.003": 2.08143463216,
			"-0.002": 33.241211783,
			"-0.001": 73.7892099088,
			"0.0": 84.7800769522,
			"0.001": 71.7460571012,
			"0.002": 35.1954472552,
			"0.003": 1.96690293135,
			"0.004": 0.0,
			"0.005": 0.0,
			"0.006": 0.0,
			"0.007": 0.0,
			"0.008": 0.0,
			"0.009": 0.0,
			"0.01": 0.0,
			"0.011": 0.0,
			"0.012": 0.0,
			"0.013": 0.0,
			"0.014": 0.0,
			"0.015": 0.0,
			"0.016": 0.0,
			"0.017": 0.0,
			"0.018": 0.0,
			"0.019": 0.0,
			"0.02": 0.0,
			"0.021": 0.0,
			"0.022": 0.0,
			"0.023": 0.0,
			"0.024": 0.0,
			"0.025": 0.0
		}
	}
}
