{
	 "smiles": "CCOC(=O)C1=C(C)C(CO)=C(C)N1", 
	 "Tm": 494.15, 
	 "num_atms": 29, 
	 "gaussian": { 
		 "optdone": 1, 
		 "sigma_profile": "yes", 
		 "theory": "DFT", 
		 "functional": "B3LYP", 
		 "basiset": "6-31G**", 
		 "properties": { 
			 "R2extent": 3727.4291, 
			 "electric_dipole_moment_norm": 1.23398225676, 
			 "electric_quadrupole_moment_norm": 16.4726998491, 
			 "total_energy": -670.549413265, 
			 "HOMO_LUMO_gap": 0.19226, 
			 "cosmo_polarized_energy": -12.55, 
			 "cosmo_cavitation_energy": 32.21, 
			 "cosmo_dispersion_energy": -22.83, 
			 "cosmo_repulsion_energy": 1.85, 
			 "cosmo_total_nonelectrostatic_energy": 11.23, 
			 "SMD_solvation_energy": 6.7 
		},
		"coords": [
			{
				"x": -1.2539154762,
				"y": -3.3947349878,
				"z": 2.5459330844,
				"element": "C" 
			},
			{
				"x": -0.6297150192,
				"y": -3.2035777941,
				"z": 1.1765585509,
				"element": "C" 
			},
			{
				"x": -0.4933516689,
				"y": -1.7825032373,
				"z": 0.956344583,
				"element": "O" 
			},
			{
				"x": 0.0574757474,
				"y": -1.4260600997,
				"z": -0.2264135346,
				"element": "C" 
			},
			{
				"x": 0.4288579024,
				"y": -2.23487097,
				"z": -1.0672618161,
				"element": "O" 
			},
			{
				"x": 0.1730295013,
				"y": 0.0148079419,
				"z": -0.4088098585,
				"element": "C" 
			},
			{
				"x": -0.1663735279,
				"y": 1.1459359476,
				"z": 0.3295649015,
				"element": "C" 
			},
			{
				"x": -0.8019108068,
				"y": 1.2141939901,
				"z": 1.6876734519,
				"element": "C" 
			},
			{
				"x": 0.2215437103,
				"y": 2.2747857516,
				"z": -0.4559066807,
				"element": "C" 
			},
			{
				"x": 0.025006413,
				"y": 3.7106095774,
				"z": -0.0688911341,
				"element": "C" 
			},
			{
				"x": -1.3506612761,
				"y": 4.0684567078,
				"z": 0.1080443526,
				"element": "O" 
			},
			{
				"x": 0.7769251154,
				"y": 1.7998250739,
				"z": -1.6469623609,
				"element": "C" 
			},
			{
				"x": 1.3657693915,
				"y": 2.5203394852,
				"z": -2.8193119543,
				"element": "C" 
			},
			{
				"x": 0.7419961351,
				"y": 0.4409811826,
				"z": -1.5956977845,
				"element": "N" 
			},
			{
				"x": -1.3710778777,
				"y": -4.4628164171,
				"z": 2.7544630693,
				"element": "H" 
			},
			{
				"x": -2.2404811815,
				"y": -2.9248059007,
				"z": 2.5961410164,
				"element": "H" 
			},
			{
				"x": -0.6245539011,
				"y": -2.9586590657,
				"z": 3.3270492095,
				"element": "H" 
			},
			{
				"x": 0.3583700514,
				"y": -3.6695489386,
				"z": 1.1071660793,
				"element": "H" 
			},
			{
				"x": -1.2483601704,
				"y": -3.6295689018,
				"z": 0.3800940308,
				"element": "H" 
			},
			{
				"x": -0.0429316032,
				"y": 1.3190933377,
				"z": 2.4742275167,
				"element": "H" 
			},
			{
				"x": -1.4592065601,
				"y": 2.0852157106,
				"z": 1.7486778085,
				"element": "H" 
			},
			{
				"x": -1.3720048313,
				"y": 0.3107599507,
				"z": 1.9069827063,
				"element": "H" 
			},
			{
				"x": 0.5074863345,
				"y": 4.3707366365,
				"z": -0.8060500541,
				"element": "H" 
			},
			{
				"x": 0.4958548198,
				"y": 3.9233825481,
				"z": 0.897412208,
				"element": "H" 
			},
			{
				"x": -1.8327218448,
				"y": 3.7053515345,
				"z": -0.6467141632,
				"element": "H" 
			},
			{
				"x": 1.0115612065,
				"y": 2.0971301185,
				"z": -3.7662201486,
				"element": "H" 
			},
			{
				"x": 2.4616137468,
				"y": 2.4653158003,
				"z": -2.8244230543,
				"element": "H" 
			},
			{
				"x": 1.0915580373,
				"y": 3.5772715766,
				"z": -2.8051632324,
				"element": "H" 
			},
			{
				"x": 1.0588176325,
				"y": -0.2140465588,
				"z": -2.2961067929,
				"element": "H" 
			}
		],
		 "valence_orbital": [ 
			{
				"type": "occ",
				"energy": -0.29283,
				"method": "rhf"
			},
			{
				"type": "occ",
				"energy": -0.27189,
				"method": "rhf"
			},
			{
				"type": "occ",
				"energy": -0.26359,
				"method": "rhf"
			},
			{
				"type": "occ",
				"energy": -0.2344,
				"method": "rhf"
			},
			{
				"type": "occ",
				"energy": -0.21224,
				"method": "rhf"
			},
			{
				"type": "unocc",
				"energy": -0.01998,
				"method": "rhf"
			},
			{
				"type": "unocc",
				"energy": 0.04318,
				"method": "rhf"
			},
			{
				"type": "unocc",
				"energy": 0.08627,
				"method": "rhf"
			},
			{
				"type": "unocc",
				"energy": 0.09881,
				"method": "rhf"
			},
			{
				"type": "unocc",
				"energy": 0.10134,
				"method": "rhf"
			}
		],
		"cosmo_sigma_profile": { 
			"-0.025": 0.0,
			"-0.024": 0.0,
			"-0.023": 0.0,
			"-0.022": 0.0,
			"-0.021": 0.0,
			"-0.02": 0.0,
			"-0.019": 0.0,
			"-0.018": 0.0,
			"-0.017": 0.0,
			"-0.016": 0.0,
			"-0.015": 0.157828641479,
			"-0.014": 1.43537580552,
			"-0.013": 1.66441170355,
			"-0.012": 1.55820739123,
			"-0.011": 1.72188390648,
			"-0.01": 1.57173979463,
			"-0.009": 2.00991075665,
			"-0.008": 1.4881022873,
			"-0.007": 1.68386772263,
			"-0.006": 3.5255022318,
			"-0.005": 13.5714258276,
			"-0.004": 21.7337722449,
			"-0.003": 26.2884891519,
			"-0.002": 26.047988424,
			"-0.001": 28.1236496449,
			"0.0": 24.9490482002,
			"0.001": 19.6339356281,
			"0.002": 13.1999781941,
			"0.003": 11.7171199544,
			"0.004": 10.5947856758,
			"0.005": 9.54411944824,
			"0.006": 5.78765831951,
			"0.007": 2.49156824737,
			"0.008": 2.30050871209,
			"0.009": 2.54246847816,
			"0.01": 2.91961062095,
			"0.011": 2.42501840581,
			"0.012": 5.01605985197,
			"0.013": 3.91784027946,
			"0.014": 2.27524980371,
			"0.015": 0.749607835593,
			"0.016": 0.0,
			"0.017": 0.0,
			"0.018": 0.0,
			"0.019": 0.0,
			"0.02": 0.0,
			"0.021": 0.0,
			"0.022": 0.0,
			"0.023": 0.0,
			"0.024": 0.0,
			"0.025": 0.0
		}
	}
}
