{
	 "smiles": "CN1C2=C3C=CC=CC3=CN2C2=C(C=CC=C2)C1=O", 
	 "Tm": 438.15, 
	 "num_atms": 31, 
	 "gaussian": { 
		 "optdone": 1, 
		 "sigma_profile": "yes", 
		 "theory": "DFT", 
		 "functional": "B3LYP", 
		 "basiset": "6-31G**", 
		 "properties": { 
			 "R2extent": 5056.3748, 
			 "electric_dipole_moment_norm": 2.30796619559, 
			 "electric_quadrupole_moment_norm": 19.4534180552, 
			 "total_energy": -801.676113297, 
			 "HOMO_LUMO_gap": 0.12472, 
			 "cosmo_polarized_energy": -11.49, 
			 "cosmo_cavitation_energy": 33.55, 
			 "cosmo_dispersion_energy": -25.21, 
			 "cosmo_repulsion_energy": 1.83, 
			 "cosmo_total_nonelectrostatic_energy": 10.17, 
			 "SMD_solvation_energy": 6.08 
		},
		"coords": [
			{
				"x": -1.6880047186,
				"y": -2.0452179134,
				"z": 1.0349606506,
				"element": "C" 
			},
			{
				"x": -0.4535387248,
				"y": -1.5699652321,
				"z": 0.4150320401,
				"element": "N" 
			},
			{
				"x": -0.4237998285,
				"y": -0.2925505987,
				"z": -0.1398872654,
				"element": "C" 
			},
			{
				"x": -1.3933252616,
				"y": 0.7149768312,
				"z": -0.2419177789,
				"element": "C" 
			},
			{
				"x": -2.7555684313,
				"y": 0.8518768015,
				"z": 0.1605175121,
				"element": "C" 
			},
			{
				"x": -3.4218841291,
				"y": 2.0201654776,
				"z": -0.1126684555,
				"element": "C" 
			},
			{
				"x": -2.7827645296,
				"y": 3.1049969628,
				"z": -0.7919348989,
				"element": "C" 
			},
			{
				"x": -1.476789196,
				"y": 3.0178281987,
				"z": -1.1965252299,
				"element": "C" 
			},
			{
				"x": -0.7478579259,
				"y": 1.8218838975,
				"z": -0.9326152394,
				"element": "C" 
			},
			{
				"x": 0.554876073,
				"y": 1.4563082627,
				"z": -1.2171078352,
				"element": "C" 
			},
			{
				"x": 0.7419455602,
				"y": 0.1706767324,
				"z": -0.7316978258,
				"element": "N" 
			},
			{
				"x": 1.904762307,
				"y": -0.6092371807,
				"z": -0.7921078915,
				"element": "C" 
			},
			{
				"x": 1.863733341,
				"y": -1.8968260608,
				"z": -0.2289354658,
				"element": "C" 
			},
			{
				"x": 3.0074643193,
				"y": -2.706263519,
				"z": -0.2703003956,
				"element": "C" 
			},
			{
				"x": 4.1760838855,
				"y": -2.2471532667,
				"z": -0.8613061554,
				"element": "C" 
			},
			{
				"x": 4.2075997513,
				"y": -0.9623414756,
				"z": -1.4200553178,
				"element": "C" 
			},
			{
				"x": 3.0851393647,
				"y": -0.1433235297,
				"z": -1.3899271493,
				"element": "C" 
			},
			{
				"x": 0.6419999489,
				"y": -2.429789635,
				"z": 0.4113997136,
				"element": "C" 
			},
			{
				"x": 0.5881090031,
				"y": -3.5529018619,
				"z": 0.9090229918,
				"element": "O" 
			},
			{
				"x": -2.4989901163,
				"y": -2.0652354759,
				"z": 0.3014921044,
				"element": "H" 
			},
			{
				"x": -1.9685238446,
				"y": -1.3972445241,
				"z": 1.8701443451,
				"element": "H" 
			},
			{
				"x": -1.4937453939,
				"y": -3.0521778829,
				"z": 1.3980798804,
				"element": "H" 
			},
			{
				"x": -3.2722453746,
				"y": 0.052250269,
				"z": 0.676577104,
				"element": "H" 
			},
			{
				"x": -4.4585415935,
				"y": 2.1275373761,
				"z": 0.192235315,
				"element": "H" 
			},
			{
				"x": -3.3501962452,
				"y": 4.0106490014,
				"z": -0.9865459073,
				"element": "H" 
			},
			{
				"x": -0.9939866519,
				"y": 3.8432341956,
				"z": -1.7121771556,
				"element": "H" 
			},
			{
				"x": 1.3445882103,
				"y": 1.992942478,
				"z": -1.7131182322,
				"element": "H" 
			},
			{
				"x": 2.9371873861,
				"y": -3.692827386,
				"z": 0.1743788867,
				"element": "H" 
			},
			{
				"x": 5.0591487023,
				"y": -2.8772559761,
				"z": -0.8910831553,
				"element": "H" 
			},
			{
				"x": 5.1176315251,
				"y": -0.594463882,
				"z": -1.8846863554,
				"element": "H" 
			},
			{
				"x": 3.1278925873,
				"y": 0.846848916,
				"z": -1.8267428337,
				"element": "H" 
			}
		],
		 "valence_orbital": [ 
			{
				"type": "occ",
				"energy": -0.26874,
				"method": "rhf"
			},
			{
				"type": "occ",
				"energy": -0.2624,
				"method": "rhf"
			},
			{
				"type": "occ",
				"energy": -0.25708,
				"method": "rhf"
			},
			{
				"type": "occ",
				"energy": -0.22736,
				"method": "rhf"
			},
			{
				"type": "occ",
				"energy": -0.1726,
				"method": "rhf"
			},
			{
				"type": "unocc",
				"energy": -0.04788,
				"method": "rhf"
			},
			{
				"type": "unocc",
				"energy": -0.04549,
				"method": "rhf"
			},
			{
				"type": "unocc",
				"energy": 0.002,
				"method": "rhf"
			},
			{
				"type": "unocc",
				"energy": 0.03445,
				"method": "rhf"
			},
			{
				"type": "unocc",
				"energy": 0.05263,
				"method": "rhf"
			}
		],
		"cosmo_sigma_profile": { 
			"-0.025": 0.0,
			"-0.024": 0.0,
			"-0.023": 0.0,
			"-0.022": 0.0,
			"-0.021": 0.0,
			"-0.02": 0.0,
			"-0.019": 0.0,
			"-0.018": 0.0,
			"-0.017": 0.0,
			"-0.016": 0.0,
			"-0.015": 0.0,
			"-0.014": 0.0,
			"-0.013": 0.0,
			"-0.012": 0.0,
			"-0.011": 0.151225716399,
			"-0.01": 1.21951059743,
			"-0.009": 1.87907179709,
			"-0.008": 2.07810633341,
			"-0.007": 5.73235940553,
			"-0.006": 15.7766008314,
			"-0.005": 22.5041511462,
			"-0.004": 21.4903829759,
			"-0.003": 24.7073692575,
			"-0.002": 20.0233093847,
			"-0.001": 18.9654424155,
			"0.0": 20.1211349375,
			"0.001": 16.2879004189,
			"0.002": 20.1533360117,
			"0.003": 19.8867619437,
			"0.004": 13.3589199221,
			"0.005": 12.7097821166,
			"0.006": 14.1869483072,
			"0.007": 5.7617481525,
			"0.008": 1.19396523236,
			"0.009": 1.24083437812,
			"0.01": 1.36926428642,
			"0.011": 2.00229281634,
			"0.012": 2.16182286939,
			"0.013": 4.75244209063,
			"0.014": 0.659075444427,
			"0.015": 0.0,
			"0.016": 0.0,
			"0.017": 0.0,
			"0.018": 0.0,
			"0.019": 0.0,
			"0.02": 0.0,
			"0.021": 0.0,
			"0.022": 0.0,
			"0.023": 0.0,
			"0.024": 0.0,
			"0.025": 0.0
		}
	}
}
