{
	 "smiles": "CC(C=C(/C)C1=CC=C(C=C1)C1=CC=CC=C1)=NNC1=CC=C(C=C1[N+]([O-])=O)[N+]([O-])=O", 
	 "Tm": 473.15, 
	 "num_atms": 51, 
	 "gaussian": { 
		 "optdone": 1, 
		 "sigma_profile": "yes", 
		 "theory": "DFT", 
		 "functional": "B3LYP", 
		 "basiset": "6-31G**", 
		 "properties": { 
			 "R2extent": 26423.5263, 
			 "electric_dipole_moment_norm": 8.2349740801, 
			 "electric_quadrupole_moment_norm": 59.4457991339, 
			 "total_energy": -1408.16546681, 
			 "HOMO_LUMO_gap": 0.11311, 
			 "cosmo_polarized_energy": -24.05, 
			 "cosmo_cavitation_energy": 56.45, 
			 "cosmo_dispersion_energy": -39.4, 
			 "cosmo_repulsion_energy": 2.89, 
			 "cosmo_total_nonelectrostatic_energy": 19.93, 
			 "SMD_solvation_energy": 13.3 
		},
		"coords": [
			{
				"x": 3.9511667063,
				"y": -0.8299556639,
				"z": 0.4110033771,
				"element": "C" 
			},
			{
				"x": 2.5930370901,
				"y": -0.6566097641,
				"z": -0.2440717038,
				"element": "C" 
			},
			{
				"x": 1.5517327043,
				"y": -0.0235264454,
				"z": 0.552669231,
				"element": "C" 
			},
			{
				"x": 0.235581012,
				"y": 0.181518923,
				"z": 0.2648631543,
				"element": "C" 
			},
			{
				"x": -0.4026805271,
				"y": -0.2390751706,
				"z": -1.0332431749,
				"element": "C" 
			},
			{
				"x": -0.6157360536,
				"y": 0.8478419115,
				"z": 1.2808135153,
				"element": "C" 
			},
			{
				"x": -0.4405430185,
				"y": 0.6189318639,
				"z": 2.658939079,
				"element": "C" 
			},
			{
				"x": -1.2281157585,
				"y": 1.2637751021,
				"z": 3.6058262916,
				"element": "C" 
			},
			{
				"x": -2.2295954624,
				"y": 2.1736395046,
				"z": 3.2242762524,
				"element": "C" 
			},
			{
				"x": -2.410460068,
				"y": 2.3992127324,
				"z": 1.8490683624,
				"element": "C" 
			},
			{
				"x": -1.6312928966,
				"y": 1.7451485815,
				"z": 0.9006637632,
				"element": "C" 
			},
			{
				"x": -3.0697149745,
				"y": 2.8618040024,
				"z": 4.2350070054,
				"element": "C" 
			},
			{
				"x": -4.4316716441,
				"y": 3.1129939798,
				"z": 3.9935926164,
				"element": "C" 
			},
			{
				"x": -5.2200937724,
				"y": 3.7608150743,
				"z": 4.9432899143,
				"element": "C" 
			},
			{
				"x": -4.6650054674,
				"y": 4.1715220202,
				"z": 6.1568309185,
				"element": "C" 
			},
			{
				"x": -3.3138608161,
				"y": 3.9285469093,
				"z": 6.4115231564,
				"element": "C" 
			},
			{
				"x": -2.5254038106,
				"y": 3.2815022494,
				"z": 5.4613481528,
				"element": "C" 
			},
			{
				"x": 2.3536102074,
				"y": -1.0392027244,
				"z": -1.4661068977,
				"element": "N" 
			},
			{
				"x": 3.3918350506,
				"y": -1.5925351648,
				"z": -2.156910882,
				"element": "N" 
			},
			{
				"x": 3.2655672836,
				"y": -2.0024514819,
				"z": -3.4576592704,
				"element": "C" 
			},
			{
				"x": 4.4365307122,
				"y": -2.0565420753,
				"z": -4.2538793502,
				"element": "C" 
			},
			{
				"x": 4.3903928733,
				"y": -2.3746589258,
				"z": -5.5958780448,
				"element": "C" 
			},
			{
				"x": 3.1512919988,
				"y": -2.632753928,
				"z": -6.1950900099,
				"element": "C" 
			},
			{
				"x": 1.9804991599,
				"y": -2.6171504332,
				"z": -5.4498268743,
				"element": "C" 
			},
			{
				"x": 2.0422624166,
				"y": -2.3466133203,
				"z": -4.0876923003,
				"element": "C" 
			},
			{
				"x": 0.8000695431,
				"y": -2.5641806625,
				"z": -3.3401117749,
				"element": "N" 
			},
			{
				"x": -0.2458907355,
				"y": -2.1618338641,
				"z": -3.8488228343,
				"element": "O" 
			},
			{
				"x": 0.8795538907,
				"y": -3.1911673439,
				"z": -2.2860116118,
				"element": "O" 
			},
			{
				"x": 3.0889627878,
				"y": -2.9384259057,
				"z": -7.6200688248,
				"element": "N" 
			},
			{
				"x": 4.1526684228,
				"y": -2.9585078827,
				"z": -8.2436768075,
				"element": "O" 
			},
			{
				"x": 1.9811904213,
				"y": -3.1565155894,
				"z": -8.1127261867,
				"element": "O" 
			},
			{
				"x": 3.9281039016,
				"y": -0.5131824639,
				"z": 1.4539046806,
				"element": "H" 
			},
			{
				"x": 4.2693421158,
				"y": -1.8793451665,
				"z": 0.3864449635,
				"element": "H" 
			},
			{
				"x": 4.7268169571,
				"y": -0.233158419,
				"z": -0.0896974701,
				"element": "H" 
			},
			{
				"x": 1.9067669726,
				"y": 0.3476405927,
				"z": 1.5095691098,
				"element": "H" 
			},
			{
				"x": -0.2725745984,
				"y": -1.3157038532,
				"z": -1.1854806977,
				"element": "H" 
			},
			{
				"x": -1.4714498191,
				"y": -0.021750042,
				"z": -1.046975362,
				"element": "H" 
			},
			{
				"x": 0.0739294419,
				"y": 0.2418696958,
				"z": -1.8930838596,
				"element": "H" 
			},
			{
				"x": 0.2930614451,
				"y": -0.1104842086,
				"z": 2.9880594542,
				"element": "H" 
			},
			{
				"x": -1.092387163,
				"y": 1.0295150128,
				"z": 4.6574980995,
				"element": "H" 
			},
			{
				"x": -3.1548661937,
				"y": 3.1176405453,
				"z": 1.5191166669,
				"element": "H" 
			},
			{
				"x": -1.7900402764,
				"y": 1.9640526211,
				"z": -0.1505480535,
				"element": "H" 
			},
			{
				"x": -4.8807442378,
				"y": 2.7730187953,
				"z": 3.0651025715,
				"element": "H" 
			},
			{
				"x": -6.2723861357,
				"y": 3.9366909311,
				"z": 4.7384842298,
				"element": "H" 
			},
			{
				"x": -5.2794508944,
				"y": 4.6758026661,
				"z": 6.8969384454,
				"element": "H" 
			},
			{
				"x": -2.8697103661,
				"y": 4.2514384276,
				"z": 7.3489371205,
				"element": "H" 
			},
			{
				"x": -1.4694069855,
				"y": 3.1220894459,
				"z": 5.658747239,
				"element": "H" 
			},
			{
				"x": 4.3408826369,
				"y": -1.4561448545,
				"z": -1.8245830444,
				"element": "H" 
			},
			{
				"x": 5.3888601333,
				"y": -1.8053209545,
				"z": -3.7950413799,
				"element": "H" 
			},
			{
				"x": 5.2877140979,
				"y": -2.4029153759,
				"z": -6.201047423,
				"element": "H" 
			},
			{
				"x": 1.0301516925,
				"y": -2.845399904,
				"z": -5.9143835322,
				"element": "H" 
			}
		],
		 "valence_orbital": [ 
			{
				"type": "occ",
				"energy": -0.26568,
				"method": "rhf"
			},
			{
				"type": "occ",
				"energy": -0.25779,
				"method": "rhf"
			},
			{
				"type": "occ",
				"energy": -0.25402,
				"method": "rhf"
			},
			{
				"type": "occ",
				"energy": -0.23562,
				"method": "rhf"
			},
			{
				"type": "occ",
				"energy": -0.20731,
				"method": "rhf"
			},
			{
				"type": "unocc",
				"energy": -0.0942,
				"method": "rhf"
			},
			{
				"type": "unocc",
				"energy": -0.08261,
				"method": "rhf"
			},
			{
				"type": "unocc",
				"energy": -0.05966,
				"method": "rhf"
			},
			{
				"type": "unocc",
				"energy": -0.03065,
				"method": "rhf"
			},
			{
				"type": "unocc",
				"energy": -0.0212,
				"method": "rhf"
			}
		],
		"cosmo_sigma_profile": { 
			"-0.025": 0.0,
			"-0.024": 0.0,
			"-0.023": 0.0,
			"-0.022": 0.0,
			"-0.021": 0.0,
			"-0.02": 0.0,
			"-0.019": 0.0,
			"-0.018": 0.0,
			"-0.017": 0.00522885750386,
			"-0.016": 0.843397055561,
			"-0.015": 1.18774186429,
			"-0.014": 1.37287510277,
			"-0.013": 1.52476779326,
			"-0.012": 1.88440883447,
			"-0.011": 1.63168582275,
			"-0.01": 1.80978706346,
			"-0.009": 2.56635291592,
			"-0.008": 5.69339096538,
			"-0.007": 8.26650745328,
			"-0.006": 19.037878208,
			"-0.005": 33.8871756688,
			"-0.004": 33.8717190098,
			"-0.003": 33.4654194504,
			"-0.002": 36.9815972009,
			"-0.001": 39.7529800618,
			"0.0": 29.936197778,
			"0.001": 27.4686815597,
			"0.002": 25.2338959994,
			"0.003": 27.3528925336,
			"0.004": 30.1029925782,
			"0.005": 26.4097019198,
			"0.006": 14.9964053496,
			"0.007": 13.5250135615,
			"0.008": 19.3747715291,
			"0.009": 8.72757095789,
			"0.01": 4.58223169183,
			"0.011": 0.615751824211,
			"0.012": 0.0,
			"0.013": 0.0,
			"0.014": 0.0,
			"0.015": 0.0,
			"0.016": 0.0,
			"0.017": 0.0,
			"0.018": 0.0,
			"0.019": 0.0,
			"0.02": 0.0,
			"0.021": 0.0,
			"0.022": 0.0,
			"0.023": 0.0,
			"0.024": 0.0,
			"0.025": 0.0
		}
	}
}
