{
	 "smiles": "[O-][N+](=O)C1=CC(=C(C=C/C2=CC=C3OCOC3=C2)C=C1C=CC1=CC2=C(OCO2)C=C1)[N+]([O-])=O", 
	 "Tm": 488.15, 
	 "num_atms": 50, 
	 "gaussian": { 
		 "optdone": 1, 
		 "sigma_profile": "yes", 
		 "theory": "DFT", 
		 "functional": "B3LYP", 
		 "basiset": "6-31G**", 
		 "properties": { 
			 "R2extent": 25604.7347, 
			 "electric_dipole_moment_norm": 6.430988805, 
			 "electric_quadrupole_moment_norm": 31.3881223295, 
			 "total_energy": -1635.19755054, 
			 "HOMO_LUMO_gap": 0.10264, 
			 "cosmo_polarized_energy": -21.84, 
			 "cosmo_cavitation_energy": 57.15, 
			 "cosmo_dispersion_energy": -39.85, 
			 "cosmo_repulsion_energy": 2.94, 
			 "cosmo_total_nonelectrostatic_energy": 20.25, 
			 "SMD_solvation_energy": 14.94 
		},
		"coords": [
			{
				"x": -2.1817795259,
				"y": -1.9918226723,
				"z": -2.7938989214,
				"element": "O" 
			},
			{
				"x": -1.1389555992,
				"y": -1.5400250372,
				"z": -2.321384439,
				"element": "N" 
			},
			{
				"x": -0.1784947628,
				"y": -1.1751032136,
				"z": -3.0030564674,
				"element": "O" 
			},
			{
				"x": -1.0596448165,
				"y": -1.4126280814,
				"z": -0.8569324747,
				"element": "C" 
			},
			{
				"x": -2.2873268393,
				"y": -1.4088838374,
				"z": -0.1996180897,
				"element": "C" 
			},
			{
				"x": -2.344311715,
				"y": -1.3101454266,
				"z": 1.1802142121,
				"element": "C" 
			},
			{
				"x": -1.1724130173,
				"y": -1.1701712975,
				"z": 1.9570970844,
				"element": "C" 
			},
			{
				"x": -1.1094836111,
				"y": -0.9888070345,
				"z": 3.424306034,
				"element": "C" 
			},
			{
				"x": -1.7408974178,
				"y": -0.0877582993,
				"z": 4.1997446876,
				"element": "C" 
			},
			{
				"x": -2.6500060693,
				"y": 1.0045694968,
				"z": 3.8240212452,
				"element": "C" 
			},
			{
				"x": -2.5119069881,
				"y": 1.7244108234,
				"z": 2.6252401228,
				"element": "C" 
			},
			{
				"x": -3.3787258327,
				"y": 2.7739685778,
				"z": 2.2822866828,
				"element": "C" 
			},
			{
				"x": -4.3849356131,
				"y": 3.0740142136,
				"z": 3.1796981273,
				"element": "C" 
			},
			{
				"x": -5.3393731574,
				"y": 4.0537154295,
				"z": 3.0968483006,
				"element": "O" 
			},
			{
				"x": -6.2041953923,
				"y": 3.8491192867,
				"z": 4.2224601488,
				"element": "C" 
			},
			{
				"x": -5.5736566627,
				"y": 2.9063560496,
				"z": 5.0963904234,
				"element": "O" 
			},
			{
				"x": -4.5237719939,
				"y": 2.3817905544,
				"z": 4.3828472738,
				"element": "C" 
			},
			{
				"x": -3.6733258773,
				"y": 1.3603457798,
				"z": 4.7404301015,
				"element": "C" 
			},
			{
				"x": 0.0379610239,
				"y": -1.2021029275,
				"z": 1.2572377076,
				"element": "C" 
			},
			{
				"x": 0.1645468792,
				"y": -1.3364625721,
				"z": -0.1422265443,
				"element": "C" 
			},
			{
				"x": 1.4949024773,
				"y": -1.3911907403,
				"z": -0.7501308749,
				"element": "C" 
			},
			{
				"x": 2.5955606227,
				"y": -1.8452541811,
				"z": -0.1061281543,
				"element": "C" 
			},
			{
				"x": 3.9516926243,
				"y": -1.9182287895,
				"z": -0.6392705411,
				"element": "C" 
			},
			{
				"x": 4.2898599435,
				"y": -1.4315738326,
				"z": -1.9319580232,
				"element": "C" 
			},
			{
				"x": 5.5980374191,
				"y": -1.5567703562,
				"z": -2.332144876,
				"element": "C" 
			},
			{
				"x": 6.5790764259,
				"y": -2.1325620165,
				"z": -1.5190425826,
				"element": "C" 
			},
			{
				"x": 7.7843372235,
				"y": -2.1153111526,
				"z": -2.1634399979,
				"element": "O" 
			},
			{
				"x": 7.5341312745,
				"y": -1.5635071706,
				"z": -3.4652996902,
				"element": "C" 
			},
			{
				"x": 6.1632434843,
				"y": -1.1562985652,
				"z": -3.5167013834,
				"element": "O" 
			},
			{
				"x": 6.2853436226,
				"y": -2.6112846594,
				"z": -0.2574235429,
				"element": "C" 
			},
			{
				"x": 4.9527911039,
				"y": -2.4929865448,
				"z": 0.1652795693,
				"element": "C" 
			},
			{
				"x": -3.686580797,
				"y": -1.4101283247,
				"z": 1.7767142553,
				"element": "N" 
			},
			{
				"x": -3.7902699979,
				"y": -1.9767183266,
				"z": 2.8607251357,
				"element": "O" 
			},
			{
				"x": -4.6244961611,
				"y": -0.953953334,
				"z": 1.1226536953,
				"element": "O" 
			},
			{
				"x": -3.2000935537,
				"y": -1.5040604862,
				"z": -0.7712054627,
				"element": "H" 
			},
			{
				"x": -0.4157527498,
				"y": -1.6660482304,
				"z": 3.9187875329,
				"element": "H" 
			},
			{
				"x": -1.5624480802,
				"y": -0.1791195581,
				"z": 5.2705332203,
				"element": "H" 
			},
			{
				"x": -1.696083803,
				"y": 1.4844942268,
				"z": 1.9533517209,
				"element": "H" 
			},
			{
				"x": -3.2610665236,
				"y": 3.3308458419,
				"z": 1.3598835821,
				"element": "H" 
			},
			{
				"x": -7.1655484853,
				"y": 3.4450686232,
				"z": 3.8756802833,
				"element": "H" 
			},
			{
				"x": -6.3450632521,
				"y": 4.7976466128,
				"z": 4.7491260541,
				"element": "H" 
			},
			{
				"x": -3.7944807277,
				"y": 0.8317561122,
				"z": 5.6795189303,
				"element": "H" 
			},
			{
				"x": 0.9453384472,
				"y": -1.0629292726,
				"z": 1.8340296196,
				"element": "H" 
			},
			{
				"x": 1.5595345884,
				"y": -1.0803869366,
				"z": -1.7821238429,
				"element": "H" 
			},
			{
				"x": 2.4918485827,
				"y": -2.2308353581,
				"z": 0.9067573365,
				"element": "H" 
			},
			{
				"x": 3.5548221108,
				"y": -0.9766821579,
				"z": -2.5847048409,
				"element": "H" 
			},
			{
				"x": 8.1818702018,
				"y": -0.6940741309,
				"z": -3.6210348232,
				"element": "H" 
			},
			{
				"x": 7.7203157206,
				"y": -2.3313682034,
				"z": -4.2269936052,
				"element": "H" 
			},
			{
				"x": 7.0484948559,
				"y": -3.0551323992,
				"z": 0.3712037175,
				"element": "H" 
			},
			{
				"x": 4.682880391,
				"y": -2.8617865015,
				"z": 1.1504523728,
				"element": "H" 
			}
		],
		 "valence_orbital": [ 
			{
				"type": "occ",
				"energy": -0.26718,
				"method": "rhf"
			},
			{
				"type": "occ",
				"energy": -0.24893,
				"method": "rhf"
			},
			{
				"type": "occ",
				"energy": -0.24556,
				"method": "rhf"
			},
			{
				"type": "occ",
				"energy": -0.21222,
				"method": "rhf"
			},
			{
				"type": "occ",
				"energy": -0.207,
				"method": "rhf"
			},
			{
				"type": "unocc",
				"energy": -0.10436,
				"method": "rhf"
			},
			{
				"type": "unocc",
				"energy": -0.08252,
				"method": "rhf"
			},
			{
				"type": "unocc",
				"energy": -0.05478,
				"method": "rhf"
			},
			{
				"type": "unocc",
				"energy": -0.03826,
				"method": "rhf"
			},
			{
				"type": "unocc",
				"energy": -0.01626,
				"method": "rhf"
			}
		],
		"cosmo_sigma_profile": { 
			"-0.025": 0.0,
			"-0.024": 0.0,
			"-0.023": 0.0,
			"-0.022": 0.0,
			"-0.021": 0.0,
			"-0.02": 0.0,
			"-0.019": 0.0,
			"-0.018": 0.0,
			"-0.017": 0.0,
			"-0.016": 0.0,
			"-0.015": 0.0,
			"-0.014": 0.0,
			"-0.013": 0.0,
			"-0.012": 0.0,
			"-0.011": 0.0,
			"-0.01": 0.0,
			"-0.009": 0.493859775365,
			"-0.008": 14.847067316,
			"-0.007": 32.3412403629,
			"-0.006": 33.324472466,
			"-0.005": 29.7593896647,
			"-0.004": 24.709135006,
			"-0.003": 22.4662725034,
			"-0.002": 28.6901835982,
			"-0.001": 30.622114326,
			"0.0": 28.2045395429,
			"0.001": 29.6669043903,
			"0.002": 37.7829611897,
			"0.003": 36.7467945658,
			"0.004": 23.0412334864,
			"0.005": 12.4418857263,
			"0.006": 14.8227239437,
			"0.007": 19.645800781,
			"0.008": 20.4006292219,
			"0.009": 15.0229671422,
			"0.01": 5.19356669998,
			"0.011": 0.0434726132069,
			"0.012": 0.0,
			"0.013": 0.0,
			"0.014": 0.0,
			"0.015": 0.0,
			"0.016": 0.0,
			"0.017": 0.0,
			"0.018": 0.0,
			"0.019": 0.0,
			"0.02": 0.0,
			"0.021": 0.0,
			"0.022": 0.0,
			"0.023": 0.0,
			"0.024": 0.0,
			"0.025": 0.0
		}
	}
}
