{
	 "smiles": "CCN(CC)S(=O)(=O)C1=CC(C(O)=O)=C(Br)C=C1", 
	 "Tm": 416.15, 
	 "num_atms": 32, 
	 "gaussian": { 
		 "optdone": 1, 
		 "sigma_profile": "yes", 
		 "theory": "DFT", 
		 "functional": "B3LYP", 
		 "basiset": "6-31G**", 
		 "properties": { 
			 "R2extent": 8526.2462, 
			 "electric_dipole_moment_norm": 4.499686898, 
			 "electric_quadrupole_moment_norm": 30.8256233201, 
			 "total_energy": -3752.78160979, 
			 "HOMO_LUMO_gap": 0.17673, 
			 "cosmo_polarized_energy": -17.83, 
			 "cosmo_cavitation_energy": 38.29, 
			 "cosmo_dispersion_energy": -26.97, 
			 "cosmo_repulsion_energy": 2.03, 
			 "cosmo_total_nonelectrostatic_energy": 13.35, 
			 "SMD_solvation_energy": 5.8 
		},
		"coords": [
			{
				"x": -1.1240212441,
				"y": 1.662707295,
				"z": 2.2028894111,
				"element": "C" 
			},
			{
				"x": -1.6092269814,
				"y": 0.2194700563,
				"z": 2.0483751419,
				"element": "C" 
			},
			{
				"x": -0.62964924,
				"y": -0.6789807765,
				"z": 1.4085416979,
				"element": "N" 
			},
			{
				"x": 0.5646285772,
				"y": -1.1014601677,
				"z": 2.1650461901,
				"element": "C" 
			},
			{
				"x": 1.8632579217,
				"y": -0.3987054034,
				"z": 1.7600038663,
				"element": "C" 
			},
			{
				"x": -0.9953248035,
				"y": -1.4455780128,
				"z": -0.0236055513,
				"element": "S" 
			},
			{
				"x": -0.3188560157,
				"y": -2.7468796602,
				"z": -0.0271156775,
				"element": "O" 
			},
			{
				"x": -2.4375541445,
				"y": -1.3203846803,
				"z": -0.2466199124,
				"element": "O" 
			},
			{
				"x": -0.1981919684,
				"y": -0.4783827287,
				"z": -1.3257617504,
				"element": "C" 
			},
			{
				"x": -0.6431194692,
				"y": 0.8097174713,
				"z": -1.5929460467,
				"element": "C" 
			},
			{
				"x": -0.0510855599,
				"y": 1.600404967,
				"z": -2.5898462562,
				"element": "C" 
			},
			{
				"x": -0.6457732088,
				"y": 2.9958771402,
				"z": -2.6902863367,
				"element": "C" 
			},
			{
				"x": -0.4347289372,
				"y": 3.7308428511,
				"z": -3.7920773827,
				"element": "O" 
			},
			{
				"x": -1.329160297,
				"y": 3.4324534166,
				"z": -1.7912270252,
				"element": "O" 
			},
			{
				"x": 1.0026339845,
				"y": 1.020704638,
				"z": -3.3199882597,
				"element": "C" 
			},
			{
				"x": 1.9490385505,
				"y": 1.9460496183,
				"z": -4.7172504087,
				"element": "Br" 
			},
			{
				"x": 1.4471025889,
				"y": -0.2766311435,
				"z": -3.062554029,
				"element": "C" 
			},
			{
				"x": 0.8471809597,
				"y": -1.0355501877,
				"z": -2.0605162039,
				"element": "C" 
			},
			{
				"x": -0.9141103243,
				"y": 2.124728963,
				"z": 1.2338077051,
				"element": "H" 
			},
			{
				"x": -1.898847428,
				"y": 2.2573563705,
				"z": 2.6983389709,
				"element": "H" 
			},
			{
				"x": -0.2194150761,
				"y": 1.7235304559,
				"z": 2.8161741082,
				"element": "H" 
			},
			{
				"x": -1.8544877074,
				"y": -0.2018977446,
				"z": 3.0325549009,
				"element": "H" 
			},
			{
				"x": -2.5247918097,
				"y": 0.1829186726,
				"z": 1.4571270944,
				"element": "H" 
			},
			{
				"x": 0.3397747834,
				"y": -0.8989934489,
				"z": 3.2176259482,
				"element": "H" 
			},
			{
				"x": 0.6753105928,
				"y": -2.183738412,
				"z": 2.0643459033,
				"element": "H" 
			},
			{
				"x": 1.7791588615,
				"y": 0.6878800657,
				"z": 1.8495740314,
				"element": "H" 
			},
			{
				"x": 2.6833313215,
				"y": -0.7342447715,
				"z": 2.4040293436,
				"element": "H" 
			},
			{
				"x": 2.1345517545,
				"y": -0.6342708255,
				"z": 0.7269346442,
				"element": "H" 
			},
			{
				"x": -1.4642787306,
				"y": 1.2480673017,
				"z": -1.0385020189,
				"element": "H" 
			},
			{
				"x": 0.1534314843,
				"y": 3.2812445832,
				"z": -4.4231884513,
				"element": "H" 
			},
			{
				"x": 2.2619276705,
				"y": -0.6890561972,
				"z": -3.6459730071,
				"element": "H" 
			},
			{
				"x": 1.1759938947,
				"y": -2.0474997059,
				"z": -1.8520106398,
				"element": "H" 
			}
		],
		 "valence_orbital": [ 
			{
				"type": "occ",
				"energy": -0.30728,
				"method": "rhf"
			},
			{
				"type": "occ",
				"energy": -0.29691,
				"method": "rhf"
			},
			{
				"type": "occ",
				"energy": -0.28589,
				"method": "rhf"
			},
			{
				"type": "occ",
				"energy": -0.28446,
				"method": "rhf"
			},
			{
				"type": "occ",
				"energy": -0.25201,
				"method": "rhf"
			},
			{
				"type": "unocc",
				"energy": -0.07528,
				"method": "rhf"
			},
			{
				"type": "unocc",
				"energy": -0.05659,
				"method": "rhf"
			},
			{
				"type": "unocc",
				"energy": -0.0348,
				"method": "rhf"
			},
			{
				"type": "unocc",
				"energy": 0.02265,
				"method": "rhf"
			},
			{
				"type": "unocc",
				"energy": 0.05512,
				"method": "rhf"
			}
		],
		"cosmo_sigma_profile": { 
			"-0.025": 0.0,
			"-0.024": 0.0,
			"-0.023": 0.0,
			"-0.022": 0.0,
			"-0.021": 0.0,
			"-0.02": 0.0,
			"-0.019": 0.0,
			"-0.018": 0.0,
			"-0.017": 0.0,
			"-0.016": 0.0,
			"-0.015": 0.0,
			"-0.014": 0.04047658459,
			"-0.013": 0.294313966337,
			"-0.012": 1.11787603609,
			"-0.011": 1.41488794529,
			"-0.01": 0.956809084899,
			"-0.009": 2.79411419386,
			"-0.008": 5.19930244769,
			"-0.007": 5.92575799421,
			"-0.006": 9.93452958452,
			"-0.005": 15.7706808442,
			"-0.004": 25.7406955978,
			"-0.003": 31.3962530105,
			"-0.002": 33.8959542526,
			"-0.001": 34.9278709246,
			"0.0": 35.9723948352,
			"0.001": 22.9944137231,
			"0.002": 10.7152177082,
			"0.003": 6.92185707227,
			"0.004": 4.84074571485,
			"0.005": 4.35148807361,
			"0.006": 5.69076768725,
			"0.007": 5.35135356032,
			"0.008": 6.46983318583,
			"0.009": 7.55475558757,
			"0.01": 11.1134223074,
			"0.011": 11.0445524098,
			"0.012": 4.40910531022,
			"0.013": 0.52044165619,
			"0.014": 0.0,
			"0.015": 0.0,
			"0.016": 0.0,
			"0.017": 0.0,
			"0.018": 0.0,
			"0.019": 0.0,
			"0.02": 0.0,
			"0.021": 0.0,
			"0.022": 0.0,
			"0.023": 0.0,
			"0.024": 0.0,
			"0.025": 0.0
		}
	}
}
