{
	 "smiles": "[O-][N+](=O)C1=CC=C(CC2=CC=CC=N2)C(=C1)[N+]([O-])=O", 
	 "Tm": 365.15, 
	 "num_atms": 28, 
	 "gaussian": { 
		 "optdone": 1, 
		 "sigma_profile": "yes", 
		 "theory": "DFT", 
		 "functional": "B3LYP", 
		 "basiset": "6-31G**", 
		 "properties": { 
			 "R2extent": 6088.6844, 
			 "electric_dipole_moment_norm": 5.14134477447, 
			 "electric_quadrupole_moment_norm": 15.8250173077, 
			 "total_energy": -927.645689105, 
			 "HOMO_LUMO_gap": 0.16115, 
			 "cosmo_polarized_energy": -12.45, 
			 "cosmo_cavitation_energy": 34.0, 
			 "cosmo_dispersion_energy": -24.31, 
			 "cosmo_repulsion_energy": 1.85, 
			 "cosmo_total_nonelectrostatic_energy": 11.53, 
			 "SMD_solvation_energy": 8.99 
		},
		"coords": [
			{
				"x": 3.8031531536,
				"y": 1.8570916576,
				"z": 3.3338648977,
				"element": "O" 
			},
			{
				"x": 3.7934563985,
				"y": 1.2049589114,
				"z": 2.2921963188,
				"element": "N" 
			},
			{
				"x": 4.746639518,
				"y": 0.5694749097,
				"z": 1.845212907,
				"element": "O" 
			},
			{
				"x": 2.5426056591,
				"y": 1.1799897237,
				"z": 1.5157461131,
				"element": "C" 
			},
			{
				"x": 2.4822328831,
				"y": 0.4385133007,
				"z": 0.336263694,
				"element": "C" 
			},
			{
				"x": 1.2980820575,
				"y": 0.4350724046,
				"z": -0.3883559341,
				"element": "C" 
			},
			{
				"x": 0.1535629757,
				"y": 1.1347238618,
				"z": 0.0374171493,
				"element": "C" 
			},
			{
				"x": -1.0760137599,
				"y": 1.0777608945,
				"z": -0.854539713,
				"element": "C" 
			},
			{
				"x": -1.7524445734,
				"y": -0.2876514335,
				"z": -0.8054025426,
				"element": "C" 
			},
			{
				"x": -2.8752883197,
				"y": -0.5217073461,
				"z": -0.0034221539,
				"element": "C" 
			},
			{
				"x": -3.4470450157,
				"y": -1.792987593,
				"z": -0.0092851704,
				"element": "C" 
			},
			{
				"x": -2.8779453006,
				"y": -2.7860388224,
				"z": -0.805494453,
				"element": "C" 
			},
			{
				"x": -1.7530811996,
				"y": -2.4578610393,
				"z": -1.562203053,
				"element": "C" 
			},
			{
				"x": -1.196928009,
				"y": -1.2404237893,
				"z": -1.5702643518,
				"element": "N" 
			},
			{
				"x": 0.2685972241,
				"y": 1.8525095165,
				"z": 1.2431539409,
				"element": "C" 
			},
			{
				"x": 1.453472666,
				"y": 1.9005054722,
				"z": 1.977709277,
				"element": "C" 
			},
			{
				"x": -0.8561824954,
				"y": 2.6154664439,
				"z": 1.821270211,
				"element": "N" 
			},
			{
				"x": -2.0036516298,
				"y": 2.223930404,
				"z": 1.5997603458,
				"element": "O" 
			},
			{
				"x": -0.5765246736,
				"y": 3.5885569322,
				"z": 2.5157367105,
				"element": "O" 
			},
			{
				"x": 3.3547473068,
				"y": -0.1110518786,
				"z": 0.0056263648,
				"element": "H" 
			},
			{
				"x": 1.2266471019,
				"y": -0.1367137844,
				"z": -1.3073829238,
				"element": "H" 
			},
			{
				"x": -0.7408061191,
				"y": 1.2364596187,
				"z": -1.8837096253,
				"element": "H" 
			},
			{
				"x": -1.7865623189,
				"y": 1.8589869523,
				"z": -0.5960768378,
				"element": "H" 
			},
			{
				"x": -3.278663658,
				"y": 0.2760430308,
				"z": 0.6095085247,
				"element": "H" 
			},
			{
				"x": -4.322188333,
				"y": -2.0033398323,
				"z": 0.5988324474,
				"element": "H" 
			},
			{
				"x": -3.2910905155,
				"y": -3.7889007509,
				"z": -0.8419183519,
				"element": "H" 
			},
			{
				"x": -1.2773440921,
				"y": -3.2042802713,
				"z": -2.1958464968,
				"element": "H" 
			},
			{
				"x": 1.5176630689,
				"y": 2.4821125062,
				"z": 2.8870027055,
				"element": "H" 
			}
		],
		 "valence_orbital": [ 
			{
				"type": "occ",
				"energy": -0.29892,
				"method": "rhf"
			},
			{
				"type": "occ",
				"energy": -0.29397,
				"method": "rhf"
			},
			{
				"type": "occ",
				"energy": -0.29276,
				"method": "rhf"
			},
			{
				"type": "occ",
				"energy": -0.27038,
				"method": "rhf"
			},
			{
				"type": "occ",
				"energy": -0.26795,
				"method": "rhf"
			},
			{
				"type": "unocc",
				"energy": -0.1068,
				"method": "rhf"
			},
			{
				"type": "unocc",
				"energy": -0.09845,
				"method": "rhf"
			},
			{
				"type": "unocc",
				"energy": -0.04153,
				"method": "rhf"
			},
			{
				"type": "unocc",
				"energy": -0.02972,
				"method": "rhf"
			},
			{
				"type": "unocc",
				"energy": -0.02482,
				"method": "rhf"
			}
		],
		"cosmo_sigma_profile": { 
			"-0.025": 0.0,
			"-0.024": 0.0,
			"-0.023": 0.0,
			"-0.022": 0.0,
			"-0.021": 0.0,
			"-0.02": 0.0,
			"-0.019": 0.0,
			"-0.018": 0.0,
			"-0.017": 0.0,
			"-0.016": 0.0,
			"-0.015": 0.0,
			"-0.014": 0.0,
			"-0.013": 0.0,
			"-0.012": 0.0,
			"-0.011": 0.0,
			"-0.01": 0.212323481419,
			"-0.009": 1.61013657429,
			"-0.008": 3.94197837741,
			"-0.007": 11.2988800824,
			"-0.006": 16.7622812781,
			"-0.005": 20.764852834,
			"-0.004": 20.4644556695,
			"-0.003": 22.6662545255,
			"-0.002": 26.3702034277,
			"-0.001": 17.6734250534,
			"0.0": 16.4633729752,
			"0.001": 15.0593907652,
			"0.002": 17.8258459803,
			"0.003": 17.4769966144,
			"0.004": 7.7766246364,
			"0.005": 8.70724215517,
			"0.006": 9.87955473178,
			"0.007": 16.8911750708,
			"0.008": 10.6155974514,
			"0.009": 7.65741061281,
			"0.01": 1.91790328028,
			"0.011": 0.650561119032,
			"0.012": 0.470729769499,
			"0.013": 0.636812021742,
			"0.014": 0.133062607249,
			"0.015": 0.0,
			"0.016": 0.0,
			"0.017": 0.0,
			"0.018": 0.0,
			"0.019": 0.0,
			"0.02": 0.0,
			"0.021": 0.0,
			"0.022": 0.0,
			"0.023": 0.0,
			"0.024": 0.0,
			"0.025": 0.0
		}
	}
}
