{
	 "smiles": "CSC1=NC2=C(N1C)C(=O)N(C1=CC=C(F)C=C1)C(SC)=N2", 
	 "Tm": 451.15, 
	 "num_atms": 35, 
	 "gaussian": { 
		 "optdone": 1, 
		 "sigma_profile": "yes", 
		 "theory": "DFT", 
		 "functional": "B3LYP", 
		 "basiset": "6-31G**", 
		 "properties": { 
			 "R2extent": 9798.2514, 
			 "electric_dipole_moment_norm": 1.77971348256, 
			 "electric_quadrupole_moment_norm": 7.70058647572, 
			 "total_energy": -1731.78469787, 
			 "HOMO_LUMO_gap": 0.17889, 
			 "cosmo_polarized_energy": -16.0, 
			 "cosmo_cavitation_energy": 43.02, 
			 "cosmo_dispersion_energy": -30.92, 
			 "cosmo_repulsion_energy": 2.27, 
			 "cosmo_total_nonelectrostatic_energy": 14.37, 
			 "SMD_solvation_energy": 6.29 
		},
		"coords": [
			{
				"x": -0.9493458951,
				"y": -5.7959249798,
				"z": -1.5737932511,
				"element": "C" 
			},
			{
				"x": -1.5077626009,
				"y": -4.4965220377,
				"z": -2.7297031786,
				"element": "S" 
			},
			{
				"x": -0.8798752884,
				"y": -3.0851548327,
				"z": -1.8834340098,
				"element": "C" 
			},
			{
				"x": -0.2105608749,
				"y": -3.1090836562,
				"z": -0.738959297,
				"element": "N" 
			},
			{
				"x": 0.0621358696,
				"y": -1.7917424469,
				"z": -0.4828671146,
				"element": "C" 
			},
			{
				"x": -0.4507800109,
				"y": -0.9760713514,
				"z": -1.4860327414,
				"element": "C" 
			},
			{
				"x": -1.0627612471,
				"y": -1.8271910909,
				"z": -2.3943252293,
				"element": "N" 
			},
			{
				"x": -1.7499166229,
				"y": -1.4528293343,
				"z": -3.6254885807,
				"element": "C" 
			},
			{
				"x": -0.3141192024,
				"y": 0.442421802,
				"z": -1.4782928904,
				"element": "C" 
			},
			{
				"x": -0.7193085323,
				"y": 1.2607798591,
				"z": -2.2990254922,
				"element": "O" 
			},
			{
				"x": 0.41222872,
				"y": 0.8625601602,
				"z": -0.3067285558,
				"element": "N" 
			},
			{
				"x": 0.625373571,
				"y": 2.2833380615,
				"z": -0.1678011533,
				"element": "C" 
			},
			{
				"x": 1.7599402941,
				"y": 2.8722145118,
				"z": -0.7307304852,
				"element": "C" 
			},
			{
				"x": 1.9630390232,
				"y": 4.2452540669,
				"z": -0.6122028919,
				"element": "C" 
			},
			{
				"x": 1.0144820254,
				"y": 5.0034466971,
				"z": 0.0662700432,
				"element": "C" 
			},
			{
				"x": 1.2065997755,
				"y": 6.3315291997,
				"z": 0.1841090902,
				"element": "F" 
			},
			{
				"x": -0.1262782826,
				"y": 4.4376165265,
				"z": 0.6260583616,
				"element": "C" 
			},
			{
				"x": -0.3199701797,
				"y": 3.0637034014,
				"z": 0.5017343039,
				"element": "C" 
			},
			{
				"x": 0.8904807596,
				"y": -0.0300953104,
				"z": 0.6492890223,
				"element": "C" 
			},
			{
				"x": 1.7628590298,
				"y": 0.7104876465,
				"z": 2.0171838143,
				"element": "S" 
			},
			{
				"x": 2.1760727757,
				"y": -0.7971996377,
				"z": 2.9574847321,
				"element": "C" 
			},
			{
				"x": 0.7432206364,
				"y": -1.3205125153,
				"z": 0.6028771348,
				"element": "N" 
			},
			{
				"x": 0.1370473959,
				"y": -5.7845554597,
				"z": -1.4907403355,
				"element": "H" 
			},
			{
				"x": -1.2896001668,
				"y": -6.7397483858,
				"z": -2.0037767695,
				"element": "H" 
			},
			{
				"x": -1.3943087684,
				"y": -5.6423175892,
				"z": -0.5911022632,
				"element": "H" 
			},
			{
				"x": -1.6995790733,
				"y": -0.3678949165,
				"z": -3.713827165,
				"element": "H" 
			},
			{
				"x": -1.2635468108,
				"y": -1.917158182,
				"z": -4.4888454924,
				"element": "H" 
			},
			{
				"x": -2.7958121688,
				"y": -1.7728248949,
				"z": -3.589905788,
				"element": "H" 
			},
			{
				"x": 2.4782012884,
				"y": 2.254079961,
				"z": -1.2586020422,
				"element": "H" 
			},
			{
				"x": 2.834787161,
				"y": 4.7303607719,
				"z": -1.0366183252,
				"element": "H" 
			},
			{
				"x": -0.8410677464,
				"y": 5.0687525775,
				"z": 1.1419457857,
				"element": "H" 
			},
			{
				"x": -1.2021439785,
				"y": 2.592957785,
				"z": 0.9222250185,
				"element": "H" 
			},
			{
				"x": 1.2694470305,
				"y": -1.3213616594,
				"z": 3.2585997871,
				"element": "H" 
			},
			{
				"x": 2.7240249721,
				"y": -0.4474251787,
				"z": 3.8353205871,
				"element": "H" 
			},
			{
				"x": 2.7988971224,
				"y": -1.4625895688,
				"z": 2.3602053714,
				"element": "H" 
			}
		],
		 "valence_orbital": [ 
			{
				"type": "occ",
				"energy": -0.26314,
				"method": "rhf"
			},
			{
				"type": "occ",
				"energy": -0.25905,
				"method": "rhf"
			},
			{
				"type": "occ",
				"energy": -0.25044,
				"method": "rhf"
			},
			{
				"type": "occ",
				"energy": -0.24289,
				"method": "rhf"
			},
			{
				"type": "occ",
				"energy": -0.20475,
				"method": "rhf"
			},
			{
				"type": "unocc",
				"energy": -0.02586,
				"method": "rhf"
			},
			{
				"type": "unocc",
				"energy": -0.0202,
				"method": "rhf"
			},
			{
				"type": "unocc",
				"energy": -0.01717,
				"method": "rhf"
			},
			{
				"type": "unocc",
				"energy": -0.00311,
				"method": "rhf"
			},
			{
				"type": "unocc",
				"energy": 0.0174,
				"method": "rhf"
			}
		],
		"cosmo_sigma_profile": { 
			"-0.025": 0.0,
			"-0.024": 0.0,
			"-0.023": 0.0,
			"-0.022": 0.0,
			"-0.021": 0.0,
			"-0.02": 0.0,
			"-0.019": 0.0,
			"-0.018": 0.0,
			"-0.017": 0.0,
			"-0.016": 0.0,
			"-0.015": 0.0,
			"-0.014": 0.0,
			"-0.013": 0.0,
			"-0.012": 0.0,
			"-0.011": 0.0,
			"-0.01": 0.0,
			"-0.009": 0.0,
			"-0.008": 5.56069737736,
			"-0.007": 15.8086809313,
			"-0.006": 20.8245848968,
			"-0.005": 24.0469051979,
			"-0.004": 27.9325330189,
			"-0.003": 29.2218869648,
			"-0.002": 29.1177997792,
			"-0.001": 25.8725281923,
			"0.0": 27.0887378818,
			"0.001": 22.0852170304,
			"0.002": 20.4620971919,
			"0.003": 21.3693988377,
			"0.004": 24.1880265175,
			"0.005": 10.8595663813,
			"0.006": 9.30774066538,
			"0.007": 7.1177158537,
			"0.008": 3.82740708707,
			"0.009": 3.10365894032,
			"0.01": 4.13088304107,
			"0.011": 4.36891036307,
			"0.012": 5.35218423332,
			"0.013": 5.09461128046,
			"0.014": 0.950007831837,
			"0.015": 0.589157570711,
			"0.016": 0.0,
			"0.017": 0.0,
			"0.018": 0.0,
			"0.019": 0.0,
			"0.02": 0.0,
			"0.021": 0.0,
			"0.022": 0.0,
			"0.023": 0.0,
			"0.024": 0.0,
			"0.025": 0.0
		}
	}
}
