{
	 "smiles": "CC(=CC1=CC(OCC2=CC=CC=C2)=C(OCC2=CC=CC=C2)C=C1)C(O)=O", 
	 "Tm": 412.15, 
	 "num_atms": 50, 
	 "gaussian": { 
		 "optdone": 1, 
		 "sigma_profile": "yes", 
		 "theory": "DFT", 
		 "functional": "B3LYP", 
		 "basiset": "6-31G**", 
		 "properties": { 
			 "R2extent": 13955.6381, 
			 "electric_dipole_moment_norm": 2.26677385065, 
			 "electric_quadrupole_moment_norm": 14.3658508084, 
			 "total_energy": -1228.6864088, 
			 "HOMO_LUMO_gap": 0.16396, 
			 "cosmo_polarized_energy": -16.5, 
			 "cosmo_cavitation_energy": 55.24, 
			 "cosmo_dispersion_energy": -36.08, 
			 "cosmo_repulsion_energy": 2.79, 
			 "cosmo_total_nonelectrostatic_energy": 21.95, 
			 "SMD_solvation_energy": 10.4 
		},
		"coords": [
			{
				"x": -3.9290447132,
				"y": -4.1680647819,
				"z": 2.7207291037,
				"element": "C" 
			},
			{
				"x": -2.7778478976,
				"y": -3.3053996644,
				"z": 2.256859055,
				"element": "C" 
			},
			{
				"x": -2.9615761274,
				"y": -2.3582501827,
				"z": 1.3085136357,
				"element": "C" 
			},
			{
				"x": -2.0922116662,
				"y": -1.3071624176,
				"z": 0.75674748,
				"element": "C" 
			},
			{
				"x": -1.1378374748,
				"y": -0.6041134997,
				"z": 1.5118670395,
				"element": "C" 
			},
			{
				"x": -0.3837076638,
				"y": 0.4184989889,
				"z": 0.9471486053,
				"element": "C" 
			},
			{
				"x": 0.5534610917,
				"y": 1.0647979962,
				"z": 1.727586069,
				"element": "O" 
			},
			{
				"x": 0.2117950666,
				"y": 2.4184722462,
				"z": 2.0828936018,
				"element": "C" 
			},
			{
				"x": 1.3020196204,
				"y": 2.9938081561,
				"z": 2.9529694498,
				"element": "C" 
			},
			{
				"x": 1.636210978,
				"y": 4.3488417391,
				"z": 2.8502059679,
				"element": "C" 
			},
			{
				"x": 2.6044122299,
				"y": 4.9080033942,
				"z": 3.6862010088,
				"element": "C" 
			},
			{
				"x": 3.2588629769,
				"y": 4.1119776962,
				"z": 4.6272019528,
				"element": "C" 
			},
			{
				"x": 2.9374247571,
				"y": 2.7562893652,
				"z": 4.7284893585,
				"element": "C" 
			},
			{
				"x": 1.9623855951,
				"y": 2.2010049219,
				"z": 3.9001040542,
				"element": "C" 
			},
			{
				"x": -0.5575356049,
				"y": 0.7618253842,
				"z": -0.4091963407,
				"element": "C" 
			},
			{
				"x": 0.1480257661,
				"y": 1.7909094299,
				"z": -0.9868343963,
				"element": "O" 
			},
			{
				"x": 1.5753396615,
				"y": 1.5795107964,
				"z": -1.1379327177,
				"element": "C" 
			},
			{
				"x": 1.9004739412,
				"y": 0.6059258681,
				"z": -2.245995032,
				"element": "C" 
			},
			{
				"x": 1.5370779956,
				"y": 0.8953601726,
				"z": -3.5692084718,
				"element": "C" 
			},
			{
				"x": 1.8327755122,
				"y": 0.0022783666,
				"z": -4.5971210026,
				"element": "C" 
			},
			{
				"x": 2.5003706178,
				"y": -1.1936223326,
				"z": -4.3153754978,
				"element": "C" 
			},
			{
				"x": 2.8648377909,
				"y": -1.4910683469,
				"z": -3.0024011132,
				"element": "C" 
			},
			{
				"x": 2.5615457242,
				"y": -0.5960262074,
				"z": -1.9733799986,
				"element": "C" 
			},
			{
				"x": -1.5257244795,
				"y": 0.0916046306,
				"z": -1.1579032927,
				"element": "C" 
			},
			{
				"x": -2.2955001008,
				"y": -0.9127728405,
				"z": -0.5779849105,
				"element": "C" 
			},
			{
				"x": -1.5019504618,
				"y": -3.6328654623,
				"z": 2.9533887377,
				"element": "C" 
			},
			{
				"x": -0.3751215054,
				"y": -3.3097490371,
				"z": 2.2739928877,
				"element": "O" 
			},
			{
				"x": -1.4550592564,
				"y": -4.2086531517,
				"z": 4.0252147198,
				"element": "O" 
			},
			{
				"x": -4.0981845797,
				"y": -4.0326383708,
				"z": 3.7937327988,
				"element": "H" 
			},
			{
				"x": -4.8480335572,
				"y": -3.9195031343,
				"z": 2.1847352967,
				"element": "H" 
			},
			{
				"x": -3.7145292655,
				"y": -5.2327537382,
				"z": 2.5749597626,
				"element": "H" 
			},
			{
				"x": -3.9598044637,
				"y": -2.3483658783,
				"z": 0.8689086879,
				"element": "H" 
			},
			{
				"x": -0.9771404553,
				"y": -0.8301172157,
				"z": 2.5586806535,
				"element": "H" 
			},
			{
				"x": 0.0779084898,
				"y": 3.0221582469,
				"z": 1.1784077165,
				"element": "H" 
			},
			{
				"x": -0.7472063665,
				"y": 2.4038673233,
				"z": 2.622667215,
				"element": "H" 
			},
			{
				"x": 1.1372383032,
				"y": 4.9704602431,
				"z": 2.1103814591,
				"element": "H" 
			},
			{
				"x": 2.8531665037,
				"y": 5.9615708105,
				"z": 3.5949781338,
				"element": "H" 
			},
			{
				"x": 4.0172771083,
				"y": 4.5432769335,
				"z": 5.2743302979,
				"element": "H" 
			},
			{
				"x": 3.4466725519,
				"y": 2.1300184946,
				"z": 5.455777797,
				"element": "H" 
			},
			{
				"x": 1.7159084775,
				"y": 1.1467796458,
				"z": 3.9717125378,
				"element": "H" 
			},
			{
				"x": 1.9621247422,
				"y": 2.5761095491,
				"z": -1.3702597,
				"element": "H" 
			},
			{
				"x": 2.0047160566,
				"y": 1.2543655198,
				"z": -0.1861931004,
				"element": "H" 
			},
			{
				"x": 1.0164998606,
				"y": 1.8244204194,
				"z": -3.7870002688,
				"element": "H" 
			},
			{
				"x": 1.5480047485,
				"y": 0.2382769295,
				"z": -5.6186947857,
				"element": "H" 
			},
			{
				"x": 2.734050964,
				"y": -1.8885219335,
				"z": -5.117001831,
				"element": "H" 
			},
			{
				"x": 3.3802370912,
				"y": -2.4202623025,
				"z": -2.7765791874,
				"element": "H" 
			},
			{
				"x": 2.8406400267,
				"y": -0.8322333003,
				"z": -0.9496270305,
				"element": "H" 
			},
			{
				"x": -1.6602722494,
				"y": 0.3754914751,
				"z": -2.1961218237,
				"element": "H" 
			},
			{
				"x": -3.0492522571,
				"y": -1.4194395661,
				"z": -1.1744132298,
				"element": "H" 
			},
			{
				"x": 0.3594758964,
				"y": -3.6005213786,
				"z": 2.8401386472,
				"element": "H" 
			}
		],
		 "valence_orbital": [ 
			{
				"type": "occ",
				"energy": -0.25002,
				"method": "rhf"
			},
			{
				"type": "occ",
				"energy": -0.24819,
				"method": "rhf"
			},
			{
				"type": "occ",
				"energy": -0.24509,
				"method": "rhf"
			},
			{
				"type": "occ",
				"energy": -0.24083,
				"method": "rhf"
			},
			{
				"type": "occ",
				"energy": -0.21853,
				"method": "rhf"
			},
			{
				"type": "unocc",
				"energy": -0.05457,
				"method": "rhf"
			},
			{
				"type": "unocc",
				"energy": -0.01061,
				"method": "rhf"
			},
			{
				"type": "unocc",
				"energy": -0.00584,
				"method": "rhf"
			},
			{
				"type": "unocc",
				"energy": -0.00272,
				"method": "rhf"
			},
			{
				"type": "unocc",
				"energy": -0.00129,
				"method": "rhf"
			}
		],
		"cosmo_sigma_profile": { 
			"-0.025": 0.0,
			"-0.024": 0.0,
			"-0.023": 0.0,
			"-0.022": 0.0,
			"-0.021": 0.0,
			"-0.02": 0.0,
			"-0.019": 0.0,
			"-0.018": 0.370556871238,
			"-0.017": 0.908985508837,
			"-0.016": 0.87965256051,
			"-0.015": 0.560758120612,
			"-0.014": 1.00826107803,
			"-0.013": 0.701233002989,
			"-0.012": 0.457367647687,
			"-0.011": 0.645331148483,
			"-0.01": 0.990812291822,
			"-0.009": 0.753058134676,
			"-0.008": 0.361761094491,
			"-0.007": 2.29448315895,
			"-0.006": 21.2155484433,
			"-0.005": 37.7295497704,
			"-0.004": 40.3548470826,
			"-0.003": 40.5121737965,
			"-0.002": 33.4201505869,
			"-0.001": 31.9846885831,
			"0.0": 32.6624370216,
			"0.001": 30.1075506003,
			"0.002": 27.3642220978,
			"0.003": 29.6790630699,
			"0.004": 30.5422840286,
			"0.005": 27.3017823818,
			"0.006": 19.1766308149,
			"0.007": 4.98681152882,
			"0.008": 4.6605100165,
			"0.009": 4.73216154865,
			"0.01": 3.90389855138,
			"0.011": 3.42298682253,
			"0.012": 5.3582657121,
			"0.013": 0.81632037594,
			"0.014": 0.0,
			"0.015": 0.0,
			"0.016": 0.0,
			"0.017": 0.0,
			"0.018": 0.0,
			"0.019": 0.0,
			"0.02": 0.0,
			"0.021": 0.0,
			"0.022": 0.0,
			"0.023": 0.0,
			"0.024": 0.0,
			"0.025": 0.0
		}
	}
}
