{
	 "smiles": "CC(=O)C1=CC(Br)=CC=C1O", 
	 "Tm": 332.65, 
	 "num_atms": 18, 
	 "gaussian": { 
		 "optdone": 1, 
		 "sigma_profile": "yes", 
		 "theory": "DFT", 
		 "functional": "B3LYP", 
		 "basiset": "6-31G**", 
		 "properties": { 
			 "R2extent": 3391.835, 
			 "electric_dipole_moment_norm": 5.19481544427, 
			 "electric_quadrupole_moment_norm": 7.10758635544, 
			 "total_energy": -3030.91821334, 
			 "HOMO_LUMO_gap": 0.17428, 
			 "cosmo_polarized_energy": -12.77, 
			 "cosmo_cavitation_energy": 24.59, 
			 "cosmo_dispersion_energy": -18.63, 
			 "cosmo_repulsion_energy": 1.49, 
			 "cosmo_total_nonelectrostatic_energy": 7.46, 
			 "SMD_solvation_energy": 4.15 
		},
		"coords": [
			{
				"x": 1.109778915,
				"y": -3.1345212136,
				"z": -1.7257172133,
				"element": "C" 
			},
			{
				"x": 0.5483510346,
				"y": -1.7581685116,
				"z": -2.0133041169,
				"element": "C" 
			},
			{
				"x": 0.0221195973,
				"y": -1.5248446304,
				"z": -3.0918219223,
				"element": "O" 
			},
			{
				"x": 0.6268976478,
				"y": -0.6579541465,
				"z": -0.9830892575,
				"element": "C" 
			},
			{
				"x": 0.0717096674,
				"y": 0.5760987778,
				"z": -1.3633512564,
				"element": "C" 
			},
			{
				"x": 0.0812973916,
				"y": 1.6645363434,
				"z": -0.5064767272,
				"element": "C" 
			},
			{
				"x": -0.6835046764,
				"y": 3.3264208574,
				"z": -1.0593419642,
				"element": "Br" 
			},
			{
				"x": 0.6477257801,
				"y": 1.5589012323,
				"z": 0.7650098016,
				"element": "C" 
			},
			{
				"x": 1.2019838834,
				"y": 0.3473971207,
				"z": 1.1601326164,
				"element": "C" 
			},
			{
				"x": 1.1987537773,
				"y": -0.7618248136,
				"z": 0.3026986851,
				"element": "C" 
			},
			{
				"x": 1.7462210421,
				"y": -1.9452210949,
				"z": 0.7029178047,
				"element": "O" 
			},
			{
				"x": 0.6298958076,
				"y": -3.5779490248,
				"z": -0.8483148141,
				"element": "H" 
			},
			{
				"x": 2.1781858679,
				"y": -3.0819197122,
				"z": -1.4966346456,
				"element": "H" 
			},
			{
				"x": 0.941735527,
				"y": -3.7583672991,
				"z": -2.6043832803,
				"element": "H" 
			},
			{
				"x": -0.3630601364,
				"y": 0.638556773,
				"z": -2.3538249875,
				"element": "H" 
			},
			{
				"x": 0.6559118685,
				"y": 2.4099376388,
				"z": 1.4365130385,
				"element": "H" 
			},
			{
				"x": 1.6454652373,
				"y": 0.2572282191,
				"z": 2.1496705816,
				"element": "H" 
			},
			{
				"x": 2.089631768,
				"y": -1.8466065157,
				"z": 1.6007176575,
				"element": "H" 
			}
		],
		 "valence_orbital": [ 
			{
				"type": "occ",
				"energy": -0.30064,
				"method": "rhf"
			},
			{
				"type": "occ",
				"energy": -0.28834,
				"method": "rhf"
			},
			{
				"type": "occ",
				"energy": -0.27187,
				"method": "rhf"
			},
			{
				"type": "occ",
				"energy": -0.25028,
				"method": "rhf"
			},
			{
				"type": "occ",
				"energy": -0.23398,
				"method": "rhf"
			},
			{
				"type": "unocc",
				"energy": -0.0597,
				"method": "rhf"
			},
			{
				"type": "unocc",
				"energy": -0.01216,
				"method": "rhf"
			},
			{
				"type": "unocc",
				"energy": 0.00481,
				"method": "rhf"
			},
			{
				"type": "unocc",
				"energy": 0.03002,
				"method": "rhf"
			},
			{
				"type": "unocc",
				"energy": 0.04979,
				"method": "rhf"
			}
		],
		"cosmo_sigma_profile": { 
			"-0.025": 0.0,
			"-0.024": 0.0,
			"-0.023": 0.0,
			"-0.022": 0.0,
			"-0.021": 0.0,
			"-0.02": 0.0601011255781,
			"-0.019": 0.674946072826,
			"-0.018": 0.926550561319,
			"-0.017": 1.35757643108,
			"-0.016": 1.25874642522,
			"-0.015": 0.551785547586,
			"-0.014": 0.791556169658,
			"-0.013": 1.17028350803,
			"-0.012": 1.21775086312,
			"-0.011": 1.16183505466,
			"-0.01": 1.15440499692,
			"-0.009": 1.14011430608,
			"-0.008": 2.4173057996,
			"-0.007": 4.29952798802,
			"-0.006": 4.79870650118,
			"-0.005": 8.33506420417,
			"-0.004": 10.4420936034,
			"-0.003": 12.0868690703,
			"-0.002": 12.1621146627,
			"-0.001": 17.0649490162,
			"0.0": 15.4726767038,
			"0.001": 19.7882709929,
			"0.002": 23.5819335874,
			"0.003": 15.2821498662,
			"0.004": 12.9434566682,
			"0.005": 11.5330877839,
			"0.006": 3.60077141898,
			"0.007": 1.49483797855,
			"0.008": 0.807430662215,
			"0.009": 1.92558289915,
			"0.01": 2.15385829139,
			"0.011": 3.05876534139,
			"0.012": 3.35736163013,
			"0.013": 1.55319431869,
			"0.014": 0.131312629417,
			"0.015": 0.0,
			"0.016": 0.0,
			"0.017": 0.0,
			"0.018": 0.0,
			"0.019": 0.0,
			"0.02": 0.0,
			"0.021": 0.0,
			"0.022": 0.0,
			"0.023": 0.0,
			"0.024": 0.0,
			"0.025": 0.0
		}
	}
}
