{
	 "smiles": "CC(C)CC1=CC=C(C=C1)C(=O)CBr", 
	 "Tm": 311.15, 
	 "num_atms": 29, 
	 "gaussian": { 
		 "optdone": 1, 
		 "sigma_profile": "yes", 
		 "theory": "DFT", 
		 "functional": "B3LYP", 
		 "basiset": "6-31G**", 
		 "properties": { 
			 "R2extent": 6375.8865, 
			 "electric_dipole_moment_norm": 3.65498987823, 
			 "electric_quadrupole_moment_norm": 10.6894767515, 
			 "total_energy": -3112.9625696, 
			 "HOMO_LUMO_gap": 0.18096, 
			 "cosmo_polarized_energy": -8.54, 
			 "cosmo_cavitation_energy": 33.69, 
			 "cosmo_dispersion_energy": -23.95, 
			 "cosmo_repulsion_energy": 1.9, 
			 "cosmo_total_nonelectrostatic_energy": 11.64, 
			 "SMD_solvation_energy": 4.91 
		},
		"coords": [
			{
				"x": 2.871634014,
				"y": 0.6721668618,
				"z": -2.2909803183,
				"element": "C" 
			},
			{
				"x": 3.6036260498,
				"y": 0.5260906413,
				"z": -0.9498089319,
				"element": "C" 
			},
			{
				"x": 3.5214985273,
				"y": 1.8208791964,
				"z": -0.1295530633,
				"element": "C" 
			},
			{
				"x": 3.1325874125,
				"y": -0.7212170483,
				"z": -0.1458591937,
				"element": "C" 
			},
			{
				"x": 1.6829628545,
				"y": -0.7185258515,
				"z": 0.2884103362,
				"element": "C" 
			},
			{
				"x": 1.2974645721,
				"y": -0.1703692025,
				"z": 1.5239677004,
				"element": "C" 
			},
			{
				"x": -0.0340166205,
				"y": -0.1563890367,
				"z": 1.9197190131,
				"element": "C" 
			},
			{
				"x": -1.0313364842,
				"y": -0.6972109843,
				"z": 1.0917127079,
				"element": "C" 
			},
			{
				"x": -0.6548722072,
				"y": -1.2586757627,
				"z": -0.1382798207,
				"element": "C" 
			},
			{
				"x": 0.6820294936,
				"y": -1.2677148188,
				"z": -0.5277900233,
				"element": "C" 
			},
			{
				"x": -2.4423151616,
				"y": -0.6275988319,
				"z": 1.5641021055,
				"element": "C" 
			},
			{
				"x": -2.7396145359,
				"y": -0.1273413238,
				"z": 2.6382325487,
				"element": "O" 
			},
			{
				"x": -3.5703244216,
				"y": -1.1434005913,
				"z": 0.6729195219,
				"element": "C" 
			},
			{
				"x": -3.6195721614,
				"y": -3.1237940032,
				"z": 0.6513245089,
				"element": "Br" 
			},
			{
				"x": 1.8043355639,
				"y": 0.8695484543,
				"z": -2.1446784018,
				"element": "H" 
			},
			{
				"x": 3.28637518,
				"y": 1.5052304849,
				"z": -2.8684443414,
				"element": "H" 
			},
			{
				"x": 2.9648962221,
				"y": -0.2337636444,
				"z": -2.900625235,
				"element": "H" 
			},
			{
				"x": 4.6644624532,
				"y": 0.3413842774,
				"z": -1.1706832838,
				"element": "H" 
			},
			{
				"x": 3.9410146971,
				"y": 2.6615298975,
				"z": -0.6924006292,
				"element": "H" 
			},
			{
				"x": 4.080320924,
				"y": 1.7379387367,
				"z": 0.8094854334,
				"element": "H" 
			},
			{
				"x": 2.4849351897,
				"y": 2.0727864973,
				"z": 0.1184680365,
				"element": "H" 
			},
			{
				"x": 3.7695830857,
				"y": -0.8134394654,
				"z": 0.7422001644,
				"element": "H" 
			},
			{
				"x": 3.3192025585,
				"y": -1.6111261026,
				"z": -0.759177567,
				"element": "H" 
			},
			{
				"x": 2.0563123051,
				"y": 0.2428613633,
				"z": 2.1828839555,
				"element": "H" 
			},
			{
				"x": -0.3315695323,
				"y": 0.2677228738,
				"z": 2.8728626032,
				"element": "H" 
			},
			{
				"x": -1.3953848505,
				"y": -1.7160393546,
				"z": -0.78566482,
				"element": "H" 
			},
			{
				"x": 0.9567968844,
				"y": -1.719375689,
				"z": -1.4769761716,
				"element": "H" 
			},
			{
				"x": -3.476106964,
				"y": -0.8333634779,
				"z": -0.3674330283,
				"element": "H" 
			},
			{
				"x": -4.5197250483,
				"y": -0.8232940958,
				"z": 1.0942661937,
				"element": "H" 
			}
		],
		 "valence_orbital": [ 
			{
				"type": "occ",
				"energy": -0.29176,
				"method": "rhf"
			},
			{
				"type": "occ",
				"energy": -0.28259,
				"method": "rhf"
			},
			{
				"type": "occ",
				"energy": -0.26157,
				"method": "rhf"
			},
			{
				"type": "occ",
				"energy": -0.25632,
				"method": "rhf"
			},
			{
				"type": "occ",
				"energy": -0.25262,
				"method": "rhf"
			},
			{
				"type": "unocc",
				"energy": -0.07166,
				"method": "rhf"
			},
			{
				"type": "unocc",
				"energy": -0.01323,
				"method": "rhf"
			},
			{
				"type": "unocc",
				"energy": -0.0105,
				"method": "rhf"
			},
			{
				"type": "unocc",
				"energy": 0.04553,
				"method": "rhf"
			},
			{
				"type": "unocc",
				"energy": 0.07679,
				"method": "rhf"
			}
		],
		"cosmo_sigma_profile": { 
			"-0.025": 0.0,
			"-0.024": 0.0,
			"-0.023": 0.0,
			"-0.022": 0.0,
			"-0.021": 0.0,
			"-0.02": 0.0,
			"-0.019": 0.0,
			"-0.018": 0.0,
			"-0.017": 0.0,
			"-0.016": 0.0,
			"-0.015": 0.0,
			"-0.014": 0.0,
			"-0.013": 0.0,
			"-0.012": 0.0,
			"-0.011": 0.0,
			"-0.01": 0.0669715752399,
			"-0.009": 2.27099203075,
			"-0.008": 4.37457827973,
			"-0.007": 4.75202168188,
			"-0.006": 6.65001950112,
			"-0.005": 12.2373398915,
			"-0.004": 15.1700387605,
			"-0.003": 21.7856204239,
			"-0.002": 28.560764094,
			"-0.001": 28.7894184776,
			"0.0": 29.8521558938,
			"0.001": 29.5604851521,
			"0.002": 21.702543127,
			"0.003": 16.2895790784,
			"0.004": 19.7312597068,
			"0.005": 10.2056132945,
			"0.006": 2.84784106012,
			"0.007": 0.955202153889,
			"0.008": 1.80661501787,
			"0.009": 2.15522119074,
			"0.01": 2.38629863665,
			"0.011": 4.0313264903,
			"0.012": 1.90719259313,
			"0.013": 0.102534259459,
			"0.014": 0.0,
			"0.015": 0.0,
			"0.016": 0.0,
			"0.017": 0.0,
			"0.018": 0.0,
			"0.019": 0.0,
			"0.02": 0.0,
			"0.021": 0.0,
			"0.022": 0.0,
			"0.023": 0.0,
			"0.024": 0.0,
			"0.025": 0.0
		}
	}
}
