{
	 "smiles": "NC1=C(Cl)N=CC(=C1)C(O)=O", 
	 "Tm": 473.15, 
	 "num_atms": 16, 
	 "gaussian": { 
		 "optdone": 1, 
		 "sigma_profile": "yes", 
		 "theory": "DFT", 
		 "functional": "B3LYP", 
		 "basiset": "6-31G**", 
		 "properties": { 
			 "R2extent": 3372.0036, 
			 "electric_dipole_moment_norm": 5.80347823378, 
			 "electric_quadrupole_moment_norm": 24.5925955167, 
			 "total_energy": -951.799418025, 
			 "HOMO_LUMO_gap": 0.17246, 
			 "cosmo_polarized_energy": -20.59, 
			 "cosmo_cavitation_energy": 22.83, 
			 "cosmo_dispersion_energy": -17.3, 
			 "cosmo_repulsion_energy": 1.39, 
			 "cosmo_total_nonelectrostatic_energy": 6.92, 
			 "SMD_solvation_energy": 3.49 
		},
		"coords": [
			{
				"x": 3.3389882077,
				"y": 1.2570813752,
				"z": -0.3062026362,
				"element": "N" 
			},
			{
				"x": 2.4435754504,
				"y": 0.5169972595,
				"z": 0.4331665723,
				"element": "C" 
			},
			{
				"x": 1.9723088515,
				"y": 0.9364468925,
				"z": 1.7010713262,
				"element": "C" 
			},
			{
				"x": 2.6145286327,
				"y": 2.4423651259,
				"z": 2.3664429624,
				"element": "Cl" 
			},
			{
				"x": 1.1009829422,
				"y": 0.2870433499,
				"z": 2.4381182952,
				"element": "N" 
			},
			{
				"x": 0.5987087429,
				"y": -0.8630942989,
				"z": 1.9785516515,
				"element": "C" 
			},
			{
				"x": 0.9603157185,
				"y": -1.3848735127,
				"z": 0.7320983117,
				"element": "C" 
			},
			{
				"x": 1.8966678346,
				"y": -0.6863698052,
				"z": -0.0362844593,
				"element": "C" 
			},
			{
				"x": 0.3493098803,
				"y": -2.6825872366,
				"z": 0.2998876508,
				"element": "C" 
			},
			{
				"x": 0.2981236365,
				"y": -2.9127055519,
				"z": -1.0407601286,
				"element": "O" 
			},
			{
				"x": -0.0816997259,
				"y": -3.5013032455,
				"z": 1.0749285157,
				"element": "O" 
			},
			{
				"x": 3.8687974331,
				"y": 1.9550089228,
				"z": 0.1956315562,
				"element": "H" 
			},
			{
				"x": 3.8585942671,
				"y": 0.7671031618,
				"z": -1.0191134814,
				"element": "H" 
			},
			{
				"x": -0.1118172467,
				"y": -1.3888615897,
				"z": 2.6076303156,
				"element": "H" 
			},
			{
				"x": 2.2448452155,
				"y": -1.0790252409,
				"z": -0.989200686,
				"element": "H" 
			},
			{
				"x": 0.4949701597,
				"y": -2.1003256062,
				"z": -1.5275657661,
				"element": "H" 
			}
		],
		 "valence_orbital": [ 
			{
				"type": "occ",
				"energy": -0.32579,
				"method": "rhf"
			},
			{
				"type": "occ",
				"energy": -0.29869,
				"method": "rhf"
			},
			{
				"type": "occ",
				"energy": -0.29012,
				"method": "rhf"
			},
			{
				"type": "occ",
				"energy": -0.27677,
				"method": "rhf"
			},
			{
				"type": "occ",
				"energy": -0.23835,
				"method": "rhf"
			},
			{
				"type": "unocc",
				"energy": -0.06589,
				"method": "rhf"
			},
			{
				"type": "unocc",
				"energy": -0.03554,
				"method": "rhf"
			},
			{
				"type": "unocc",
				"energy": 0.01914,
				"method": "rhf"
			},
			{
				"type": "unocc",
				"energy": 0.03386,
				"method": "rhf"
			},
			{
				"type": "unocc",
				"energy": 0.0551,
				"method": "rhf"
			}
		],
		"cosmo_sigma_profile": { 
			"-0.025": 0.0,
			"-0.024": 0.0,
			"-0.023": 0.0,
			"-0.022": 0.0,
			"-0.021": 0.0,
			"-0.02": 0.0,
			"-0.019": 0.286001795194,
			"-0.018": 1.2484898554,
			"-0.017": 0.952680619378,
			"-0.016": 1.35914694732,
			"-0.015": 1.06202715877,
			"-0.014": 3.23334970484,
			"-0.013": 3.9492226876,
			"-0.012": 3.60481249085,
			"-0.011": 4.14906733343,
			"-0.01": 3.59332852348,
			"-0.009": 3.09855910809,
			"-0.008": 3.29809189536,
			"-0.007": 4.36510116821,
			"-0.006": 5.50271840996,
			"-0.005": 5.23497428515,
			"-0.004": 4.7976635056,
			"-0.003": 7.44878424795,
			"-0.002": 9.05968784375,
			"-0.001": 14.1659880148,
			"0.0": 15.3134792152,
			"0.001": 11.9078972899,
			"0.002": 9.94224503461,
			"0.003": 9.48207353464,
			"0.004": 10.2384075356,
			"0.005": 6.71594606642,
			"0.006": 5.69494618385,
			"0.007": 4.86093018078,
			"0.008": 5.09543866231,
			"0.009": 5.32167963948,
			"0.01": 7.20067694362,
			"0.011": 6.93815048276,
			"0.012": 3.93358027605,
			"0.013": 1.71466763724,
			"0.014": 0.483556188373,
			"0.015": 0.0,
			"0.016": 0.0,
			"0.017": 0.0,
			"0.018": 0.0,
			"0.019": 0.0,
			"0.02": 0.0,
			"0.021": 0.0,
			"0.022": 0.0,
			"0.023": 0.0,
			"0.024": 0.0,
			"0.025": 0.0
		}
	}
}
