{
	 "smiles": "CC1=C(C)C=C(C=C1)S(=O)(=O)NC1=CC=C(C=C1)C(O)=O", 
	 "Tm": 493.15, 
	 "num_atms": 36, 
	 "gaussian": { 
		 "optdone": 1, 
		 "sigma_profile": "yes", 
		 "theory": "DFT", 
		 "functional": "B3LYP", 
		 "basiset": "6-31G**", 
		 "properties": { 
			 "R2extent": 8607.4952, 
			 "electric_dipole_moment_norm": 4.25542208247, 
			 "electric_quadrupole_moment_norm": 41.4809616611, 
			 "total_energy": -1334.42697866, 
			 "HOMO_LUMO_gap": 0.18624, 
			 "cosmo_polarized_energy": -24.93, 
			 "cosmo_cavitation_energy": 41.73, 
			 "cosmo_dispersion_energy": -29.36, 
			 "cosmo_repulsion_energy": 2.21, 
			 "cosmo_total_nonelectrostatic_energy": 14.57, 
			 "SMD_solvation_energy": 7.39 
		},
		"coords": [
			{
				"x": 3.4770313722,
				"y": 3.6788618922,
				"z": -2.528612776,
				"element": "C" 
			},
			{
				"x": 3.1373865777,
				"y": 2.4980347266,
				"z": -1.6533414351,
				"element": "C" 
			},
			{
				"x": 3.7868193189,
				"y": 2.3116257762,
				"z": -0.4106610123,
				"element": "C" 
			},
			{
				"x": 4.8408540169,
				"y": 3.2810901488,
				"z": 0.0672053279,
				"element": "C" 
			},
			{
				"x": 3.4459055525,
				"y": 1.207879394,
				"z": 0.3743608817,
				"element": "C" 
			},
			{
				"x": 2.4802635511,
				"y": 0.2985186313,
				"z": -0.0646005295,
				"element": "C" 
			},
			{
				"x": 1.8402301355,
				"y": 0.4629645178,
				"z": -1.2917355434,
				"element": "C" 
			},
			{
				"x": 2.1785202402,
				"y": 1.5675904207,
				"z": -2.0714566613,
				"element": "C" 
			},
			{
				"x": 2.0461097161,
				"y": -1.082481199,
				"z": 0.9876509674,
				"element": "S" 
			},
			{
				"x": 1.4818701017,
				"y": -2.1345271831,
				"z": 0.143680618,
				"element": "O" 
			},
			{
				"x": 3.1478717339,
				"y": -1.3233426738,
				"z": 1.9181402552,
				"element": "O" 
			},
			{
				"x": 0.7933514272,
				"y": -0.5294436791,
				"z": 2.0073823242,
				"element": "N" 
			},
			{
				"x": -0.4713329629,
				"y": -0.0763283552,
				"z": 1.5758461167,
				"element": "C" 
			},
			{
				"x": -1.0161831905,
				"y": 1.0785910338,
				"z": 2.1632056087,
				"element": "C" 
			},
			{
				"x": -2.2804635844,
				"y": 1.5212428488,
				"z": 1.801832425,
				"element": "C" 
			},
			{
				"x": -3.0346535266,
				"y": 0.8272376591,
				"z": 0.8453673236,
				"element": "C" 
			},
			{
				"x": -2.477462981,
				"y": -0.3144666029,
				"z": 0.2515567532,
				"element": "C" 
			},
			{
				"x": -1.2159501519,
				"y": -0.7766845843,
				"z": 0.6133891963,
				"element": "C" 
			},
			{
				"x": -4.3807414839,
				"y": 1.3740628311,
				"z": 0.4902163557,
				"element": "C" 
			},
			{
				"x": -5.2459912656,
				"y": 0.5264672901,
				"z": -0.1308995792,
				"element": "O" 
			},
			{
				"x": -4.7192491273,
				"y": 2.5107215956,
				"z": 0.7272977579,
				"element": "O" 
			},
			{
				"x": 4.5369672795,
				"y": 3.6787198617,
				"z": -2.8093729412,
				"element": "H" 
			},
			{
				"x": 3.2880108546,
				"y": 4.6280444095,
				"z": -2.0133042799,
				"element": "H" 
			},
			{
				"x": 2.886604363,
				"y": 3.6731966432,
				"z": -3.4478045692,
				"element": "H" 
			},
			{
				"x": 5.6821518376,
				"y": 3.3381349709,
				"z": -0.6335022326,
				"element": "H" 
			},
			{
				"x": 5.2376513129,
				"y": 2.9839891427,
				"z": 1.0408886496,
				"element": "H" 
			},
			{
				"x": 4.440061101,
				"y": 4.2971776365,
				"z": 0.1631025058,
				"element": "H" 
			},
			{
				"x": 3.9487485268,
				"y": 1.0362930376,
				"z": 1.3208979483,
				"element": "H" 
			},
			{
				"x": 1.1132028961,
				"y": -0.2638897702,
				"z": -1.6340230386,
				"element": "H" 
			},
			{
				"x": 1.6902590954,
				"y": 1.7075237789,
				"z": -3.0319358223,
				"element": "H" 
			},
			{
				"x": 1.1941032615,
				"y": -0.021402339,
				"z": 2.7889212297,
				"element": "H" 
			},
			{
				"x": -0.4394979042,
				"y": 1.6289189114,
				"z": 2.9022185293,
				"element": "H" 
			},
			{
				"x": -2.7036215268,
				"y": 2.4169890546,
				"z": 2.2432814697,
				"element": "H" 
			},
			{
				"x": -3.0136451881,
				"y": -0.8555013369,
				"z": -0.5247742985,
				"element": "H" 
			},
			{
				"x": -0.8044677953,
				"y": -1.6726657965,
				"z": 0.1659892412,
				"element": "H" 
			},
			{
				"x": -4.9094135837,
				"y": -0.379442693,
				"z": -0.0977067659,
				"element": "H" 
			}
		],
		 "valence_orbital": [ 
			{
				"type": "occ",
				"energy": -0.27766,
				"method": "rhf"
			},
			{
				"type": "occ",
				"energy": -0.27442,
				"method": "rhf"
			},
			{
				"type": "occ",
				"energy": -0.27198,
				"method": "rhf"
			},
			{
				"type": "occ",
				"energy": -0.26442,
				"method": "rhf"
			},
			{
				"type": "occ",
				"energy": -0.24301,
				"method": "rhf"
			},
			{
				"type": "unocc",
				"energy": -0.05677,
				"method": "rhf"
			},
			{
				"type": "unocc",
				"energy": -0.04,
				"method": "rhf"
			},
			{
				"type": "unocc",
				"energy": -0.02887,
				"method": "rhf"
			},
			{
				"type": "unocc",
				"energy": -0.02181,
				"method": "rhf"
			},
			{
				"type": "unocc",
				"energy": 0.03731,
				"method": "rhf"
			}
		],
		"cosmo_sigma_profile": { 
			"-0.025": 0.0,
			"-0.024": 0.0,
			"-0.023": 0.0,
			"-0.022": 0.0,
			"-0.021": 0.0,
			"-0.02": 0.0,
			"-0.019": 0.350967636323,
			"-0.018": 0.629814175122,
			"-0.017": 1.26637225375,
			"-0.016": 1.52651297693,
			"-0.015": 1.87829732653,
			"-0.014": 2.13361076544,
			"-0.013": 2.24982269147,
			"-0.012": 2.99036655424,
			"-0.011": 2.59704902048,
			"-0.01": 1.95619021395,
			"-0.009": 3.28996396074,
			"-0.008": 3.46206444799,
			"-0.007": 6.15853552608,
			"-0.006": 14.359117975,
			"-0.005": 20.2440725855,
			"-0.004": 23.9486480589,
			"-0.003": 22.1503098764,
			"-0.002": 22.7709471473,
			"-0.001": 28.0664783924,
			"0.0": 27.003335856,
			"0.001": 19.7880048823,
			"0.002": 25.3143556303,
			"0.003": 25.7098959256,
			"0.004": 9.84843054087,
			"0.005": 6.38107961837,
			"0.006": 5.68870095413,
			"0.007": 5.56036261475,
			"0.008": 6.37870463473,
			"0.009": 7.88510648222,
			"0.01": 11.4097423963,
			"0.011": 11.8922926542,
			"0.012": 5.72318608482,
			"0.013": 1.84432272093,
			"0.014": 0.16549185093,
			"0.015": 0.0,
			"0.016": 0.0,
			"0.017": 0.0,
			"0.018": 0.0,
			"0.019": 0.0,
			"0.02": 0.0,
			"0.021": 0.0,
			"0.022": 0.0,
			"0.023": 0.0,
			"0.024": 0.0,
			"0.025": 0.0
		}
	}
}
