{
	 "smiles": "COC1=CC=C(C=C1)C(=O)CC#N", 
	 "Tm": 403.15, 
	 "num_atms": 22, 
	 "gaussian": { 
		 "optdone": 1, 
		 "sigma_profile": "yes", 
		 "theory": "DFT", 
		 "functional": "B3LYP", 
		 "basiset": "6-31G**", 
		 "properties": { 
			 "R2extent": 4157.2125, 
			 "electric_dipole_moment_norm": 7.73248592433, 
			 "electric_quadrupole_moment_norm": 35.9931076918, 
			 "total_energy": -591.654153357, 
			 "HOMO_LUMO_gap": 0.17971, 
			 "cosmo_polarized_energy": -17.9, 
			 "cosmo_cavitation_energy": 27.71, 
			 "cosmo_dispersion_energy": -19.67, 
			 "cosmo_repulsion_energy": 1.55, 
			 "cosmo_total_nonelectrostatic_energy": 9.59, 
			 "SMD_solvation_energy": 7.57 
		},
		"coords": [
			{
				"x": -3.1785655236,
				"y": -0.6824730773,
				"z": -1.1748648912,
				"element": "C" 
			},
			{
				"x": -2.7824700508,
				"y": 0.3178139595,
				"z": -0.242945918,
				"element": "O" 
			},
			{
				"x": -1.4602655747,
				"y": 0.511043157,
				"z": -0.0172920612,
				"element": "C" 
			},
			{
				"x": -0.4297206046,
				"y": -0.210643435,
				"z": -0.6415430737,
				"element": "C" 
			},
			{
				"x": 0.8934570002,
				"y": 0.0774328562,
				"z": -0.3288530055,
				"element": "C" 
			},
			{
				"x": 1.225608098,
				"y": 1.0761142619,
				"z": 0.5994906693,
				"element": "C" 
			},
			{
				"x": 0.1803924821,
				"y": 1.7905197885,
				"z": 1.2165176055,
				"element": "C" 
			},
			{
				"x": -1.143493838,
				"y": 1.5145835591,
				"z": 0.914866476,
				"element": "C" 
			},
			{
				"x": 2.6651453142,
				"y": 1.3175619309,
				"z": 0.8737870146,
				"element": "C" 
			},
			{
				"x": 3.55011306,
				"y": 0.6854715674,
				"z": 0.3254992826,
				"element": "O" 
			},
			{
				"x": 3.0146482161,
				"y": 2.4209606316,
				"z": 1.8989732281,
				"element": "C" 
			},
			{
				"x": 4.4527476402,
				"y": 2.5812641708,
				"z": 2.0980355634,
				"element": "C" 
			},
			{
				"x": 5.5865726251,
				"y": 2.738342951,
				"z": 2.2831594767,
				"element": "N" 
			},
			{
				"x": -2.8427662093,
				"y": -1.6782757649,
				"z": -0.8615565139,
				"element": "H" 
			},
			{
				"x": -2.7950005261,
				"y": -0.4690736535,
				"z": -2.17979912,
				"element": "H" 
			},
			{
				"x": -4.2686016844,
				"y": -0.6584989359,
				"z": -1.1923811235,
				"element": "H" 
			},
			{
				"x": -0.6513657309,
				"y": -0.9880375043,
				"z": -1.3626931242,
				"element": "H" 
			},
			{
				"x": 1.7025366278,
				"y": -0.4697188101,
				"z": -0.8012051438,
				"element": "H" 
			},
			{
				"x": 0.3924130783,
				"y": 2.571068352,
				"z": 1.9402867429,
				"element": "H" 
			},
			{
				"x": -1.9562442195,
				"y": 2.0585306086,
				"z": 1.384061524,
				"element": "H" 
			},
			{
				"x": 2.5902004034,
				"y": 3.3766631493,
				"z": 1.5677803974,
				"element": "H" 
			},
			{
				"x": 2.5434594167,
				"y": 2.1889502371,
				"z": 2.8619759945,
				"element": "H" 
			}
		],
		 "valence_orbital": [ 
			{
				"type": "occ",
				"energy": -0.32342,
				"method": "rhf"
			},
			{
				"type": "occ",
				"energy": -0.32135,
				"method": "rhf"
			},
			{
				"type": "occ",
				"energy": -0.27612,
				"method": "rhf"
			},
			{
				"type": "occ",
				"energy": -0.26565,
				"method": "rhf"
			},
			{
				"type": "occ",
				"energy": -0.24363,
				"method": "rhf"
			},
			{
				"type": "unocc",
				"energy": -0.06392,
				"method": "rhf"
			},
			{
				"type": "unocc",
				"energy": -0.02396,
				"method": "rhf"
			},
			{
				"type": "unocc",
				"energy": 0.03022,
				"method": "rhf"
			},
			{
				"type": "unocc",
				"energy": 0.03548,
				"method": "rhf"
			},
			{
				"type": "unocc",
				"energy": 0.04648,
				"method": "rhf"
			}
		],
		"cosmo_sigma_profile": { 
			"-0.025": 0.0,
			"-0.024": 0.0,
			"-0.023": 0.0,
			"-0.022": 0.0,
			"-0.021": 0.0,
			"-0.02": 0.0,
			"-0.019": 0.0,
			"-0.018": 0.0,
			"-0.017": 0.0,
			"-0.016": 0.0,
			"-0.015": 0.0,
			"-0.014": 0.0,
			"-0.013": 0.0,
			"-0.012": 0.0,
			"-0.011": 0.546843555806,
			"-0.01": 7.07611442618,
			"-0.009": 7.95683747728,
			"-0.008": 5.03341173693,
			"-0.007": 7.98418325309,
			"-0.006": 17.6796842814,
			"-0.005": 18.2948170582,
			"-0.004": 14.8136364965,
			"-0.003": 12.1108464923,
			"-0.002": 9.57100793903,
			"-0.001": 9.11742617578,
			"0.0": 10.278367095,
			"0.001": 11.1820637499,
			"0.002": 14.9549079878,
			"0.003": 17.035381463,
			"0.004": 8.76754410607,
			"0.005": 4.92628501509,
			"0.006": 5.30301939775,
			"0.007": 5.69678413516,
			"0.008": 7.49010465021,
			"0.009": 7.10375267191,
			"0.01": 6.66524342778,
			"0.011": 7.01554928583,
			"0.012": 4.20521237833,
			"0.013": 1.6012162053,
			"0.014": 0.0601751614157,
			"0.015": 0.0,
			"0.016": 0.0,
			"0.017": 0.0,
			"0.018": 0.0,
			"0.019": 0.0,
			"0.02": 0.0,
			"0.021": 0.0,
			"0.022": 0.0,
			"0.023": 0.0,
			"0.024": 0.0,
			"0.025": 0.0
		}
	}
}
