{
	 "smiles": "OC1=CC=C(SC2=C3C=CC(Cl)=CC3=NC=C2)C=C1", 
	 "Tm": 505.15, 
	 "num_atms": 29, 
	 "gaussian": { 
		 "optdone": 1, 
		 "sigma_profile": "yes", 
		 "theory": "DFT", 
		 "functional": "B3LYP", 
		 "basiset": "6-31G**", 
		 "properties": { 
			 "R2extent": 7223.177, 
			 "electric_dipole_moment_norm": 3.8093757612, 
			 "electric_quadrupole_moment_norm": 15.098782078, 
			 "total_energy": -1565.97543099, 
			 "HOMO_LUMO_gap": 0.14921, 
			 "cosmo_polarized_energy": -12.98, 
			 "cosmo_cavitation_energy": 37.08, 
			 "cosmo_dispersion_energy": -26.79, 
			 "cosmo_repulsion_energy": 2.02, 
			 "cosmo_total_nonelectrostatic_energy": 12.31, 
			 "SMD_solvation_energy": 4.21 
		},
		"coords": [
			{
				"x": 0.2711234646,
				"y": -1.2190251723,
				"z": 4.6193181176,
				"element": "O" 
			},
			{
				"x": 0.4351343526,
				"y": -1.227769735,
				"z": 3.265506342,
				"element": "C" 
			},
			{
				"x": 1.1384431721,
				"y": -0.1578781157,
				"z": 2.6961771271,
				"element": "C" 
			},
			{
				"x": 1.3487373224,
				"y": -0.1159668682,
				"z": 1.3230498328,
				"element": "C" 
			},
			{
				"x": 0.8357365982,
				"y": -1.1230841548,
				"z": 0.4923339028,
				"element": "C" 
			},
			{
				"x": 1.1536186226,
				"y": -1.1577872449,
				"z": -1.275879101,
				"element": "S" 
			},
			{
				"x": 0.8270195776,
				"y": 0.5256914886,
				"z": -1.802684114,
				"element": "C" 
			},
			{
				"x": -0.4475181716,
				"y": 1.1648842377,
				"z": -1.6766932856,
				"element": "C" 
			},
			{
				"x": -1.5913656928,
				"y": 0.567778201,
				"z": -1.0863843931,
				"element": "C" 
			},
			{
				"x": -2.7839461871,
				"y": 1.248996314,
				"z": -0.9974904092,
				"element": "C" 
			},
			{
				"x": -2.8755538471,
				"y": 2.567343582,
				"z": -1.5012662585,
				"element": "C" 
			},
			{
				"x": -4.4091588664,
				"y": 3.4128854771,
				"z": -1.3663785162,
				"element": "Cl" 
			},
			{
				"x": -1.8008508193,
				"y": 3.1852679759,
				"z": -2.0930072381,
				"element": "C" 
			},
			{
				"x": -0.5639877372,
				"y": 2.4955910969,
				"z": -2.2008001242,
				"element": "C" 
			},
			{
				"x": 0.4597695005,
				"y": 3.1489478987,
				"z": -2.8253408768,
				"element": "N" 
			},
			{
				"x": 1.6037714356,
				"y": 2.5091471167,
				"z": -2.9426661209,
				"element": "C" 
			},
			{
				"x": 1.8433132568,
				"y": 1.20539344,
				"z": -2.4441023386,
				"element": "C" 
			},
			{
				"x": 0.1273378115,
				"y": -2.1846681014,
				"z": 1.0649675723,
				"element": "C" 
			},
			{
				"x": -0.0640297996,
				"y": -2.2446184018,
				"z": 2.4457643047,
				"element": "C" 
			},
			{
				"x": -0.2219213271,
				"y": -2.0052235454,
				"z": 4.8876937698,
				"element": "H" 
			},
			{
				"x": 1.5222266841,
				"y": 0.6215943203,
				"z": 3.3459544358,
				"element": "H" 
			},
			{
				"x": 1.9095207758,
				"y": 0.7071988566,
				"z": 0.8920042062,
				"element": "H" 
			},
			{
				"x": -1.5216164498,
				"y": -0.441656068,
				"z": -0.7002208969,
				"element": "H" 
			},
			{
				"x": -3.6554006763,
				"y": 0.7865348312,
				"z": -0.5478427089,
				"element": "H" 
			},
			{
				"x": -1.8617834749,
				"y": 4.1903003761,
				"z": -2.4926845363,
				"element": "H" 
			},
			{
				"x": 2.4096732671,
				"y": 3.0416144725,
				"z": -3.4466631047,
				"element": "H" 
			},
			{
				"x": 2.8227777757,
				"y": 0.7533164099,
				"z": -2.5567856834,
				"element": "H" 
			},
			{
				"x": -0.278236615,
				"y": -2.9686714794,
				"z": 0.432503035,
				"element": "H" 
			},
			{
				"x": -0.613333953,
				"y": -3.0769372085,
				"z": 2.88061706,
				"element": "H" 
			}
		],
		 "valence_orbital": [ 
			{
				"type": "occ",
				"energy": -0.26725,
				"method": "rhf"
			},
			{
				"type": "occ",
				"energy": -0.26095,
				"method": "rhf"
			},
			{
				"type": "occ",
				"energy": -0.25491,
				"method": "rhf"
			},
			{
				"type": "occ",
				"energy": -0.23919,
				"method": "rhf"
			},
			{
				"type": "occ",
				"energy": -0.21724,
				"method": "rhf"
			},
			{
				"type": "unocc",
				"energy": -0.06803,
				"method": "rhf"
			},
			{
				"type": "unocc",
				"energy": -0.02923,
				"method": "rhf"
			},
			{
				"type": "unocc",
				"energy": -0.0189,
				"method": "rhf"
			},
			{
				"type": "unocc",
				"energy": -0.01133,
				"method": "rhf"
			},
			{
				"type": "unocc",
				"energy": 0.00311,
				"method": "rhf"
			}
		],
		"cosmo_sigma_profile": { 
			"-0.025": 0.0,
			"-0.024": 0.0,
			"-0.023": 0.0,
			"-0.022": 0.0,
			"-0.021": 0.0,
			"-0.02": 0.0,
			"-0.019": 0.0,
			"-0.018": 0.63744404221,
			"-0.017": 1.22644095895,
			"-0.016": 0.948206188202,
			"-0.015": 1.22734564343,
			"-0.014": 1.08108555977,
			"-0.013": 1.2651070575,
			"-0.012": 0.604881005005,
			"-0.011": 0.759318695,
			"-0.01": 0.968008104277,
			"-0.009": 1.56616665803,
			"-0.008": 2.52100885399,
			"-0.007": 10.6470739586,
			"-0.006": 15.3295167848,
			"-0.005": 15.4504583455,
			"-0.004": 14.0902628007,
			"-0.003": 15.5121447251,
			"-0.002": 15.8169909074,
			"-0.001": 22.8298635567,
			"0.0": 25.7939793425,
			"0.001": 33.8929454233,
			"0.002": 30.5661685195,
			"0.003": 26.1906574879,
			"0.004": 29.0381018722,
			"0.005": 11.4164514022,
			"0.006": 5.44809478884,
			"0.007": 3.77102146064,
			"0.008": 2.47476619268,
			"0.009": 3.23742347529,
			"0.01": 2.62749675485,
			"0.011": 2.52422586633,
			"0.012": 0.758841079853,
			"0.013": 0.927746663456,
			"0.014": 0.912332278161,
			"0.015": 0.662642301076,
			"0.016": 0.0627023910892,
			"0.017": 0.0,
			"0.018": 0.0,
			"0.019": 0.0,
			"0.02": 0.0,
			"0.021": 0.0,
			"0.022": 0.0,
			"0.023": 0.0,
			"0.024": 0.0,
			"0.025": 0.0
		}
	}
}
