{
	 "smiles": "OC(=O)C1CC2=CC=CC=C2O1", 
	 "Tm": 391.15, 
	 "num_atms": 20, 
	 "gaussian": { 
		 "optdone": 1, 
		 "sigma_profile": "yes", 
		 "theory": "DFT", 
		 "functional": "B3LYP", 
		 "basiset": "6-31G**", 
		 "properties": { 
			 "R2extent": 2710.9112, 
			 "electric_dipole_moment_norm": 4.50548128062, 
			 "electric_quadrupole_moment_norm": 18.5159963629, 
			 "total_energy": -573.441675511, 
			 "HOMO_LUMO_gap": 0.20989, 
			 "cosmo_polarized_energy": -18.76, 
			 "cosmo_cavitation_energy": 24.18, 
			 "cosmo_dispersion_energy": -17.85, 
			 "cosmo_repulsion_energy": 1.43, 
			 "cosmo_total_nonelectrostatic_energy": 7.77, 
			 "SMD_solvation_energy": 5.14 
		},
		"coords": [
			{
				"x": -3.1484991756,
				"y": 0.8943282068,
				"z": -2.0004884779,
				"element": "O" 
			},
			{
				"x": -2.0782524462,
				"y": 1.6784326883,
				"z": -1.6869356046,
				"element": "C" 
			},
			{
				"x": -2.2278257753,
				"y": 2.817693633,
				"z": -1.3426838199,
				"element": "O" 
			},
			{
				"x": -0.7254328759,
				"y": 0.9560254716,
				"z": -1.7872314486,
				"element": "C" 
			},
			{
				"x": -0.5368750402,
				"y": -0.0660511097,
				"z": -0.6181489874,
				"element": "C" 
			},
			{
				"x": 0.4379430736,
				"y": 0.6810533831,
				"z": 0.2627152067,
				"element": "C" 
			},
			{
				"x": 0.9276756651,
				"y": 0.4207476776,
				"z": 1.5368191194,
				"element": "C" 
			},
			{
				"x": 1.8742267219,
				"y": 1.294506886,
				"z": 2.0877667847,
				"element": "C" 
			},
			{
				"x": 2.3180017715,
				"y": 2.404600623,
				"z": 1.3627126737,
				"element": "C" 
			},
			{
				"x": 1.8317704141,
				"y": 2.6762850816,
				"z": 0.0788119886,
				"element": "C" 
			},
			{
				"x": 0.8915759892,
				"y": 1.7966386712,
				"z": -0.4411942148,
				"element": "C" 
			},
			{
				"x": 0.3342550657,
				"y": 1.9104434626,
				"z": -1.690261801,
				"element": "O" 
			},
			{
				"x": -2.8600358383,
				"y": 0.0161187611,
				"z": -2.2892639917,
				"element": "H" 
			},
			{
				"x": -0.6503001819,
				"y": 0.4790239977,
				"z": -2.7716957363,
				"element": "H" 
			},
			{
				"x": -0.1134661079,
				"y": -1.0098603594,
				"z": -0.982703751,
				"element": "H" 
			},
			{
				"x": -1.4835806974,
				"y": -0.2998098877,
				"z": -0.1199451366,
				"element": "H" 
			},
			{
				"x": 0.5845892078,
				"y": -0.4437669576,
				"z": 2.0986568449,
				"element": "H" 
			},
			{
				"x": 2.2634247243,
				"y": 1.1089761065,
				"z": 3.0839345715,
				"element": "H" 
			},
			{
				"x": 3.050256026,
				"y": 3.0750218038,
				"z": 1.8031381766,
				"element": "H" 
			},
			{
				"x": 2.1606494795,
				"y": 3.5384918606,
				"z": -0.4903023963,
				"element": "H" 
			}
		],
		 "valence_orbital": [ 
			{
				"type": "occ",
				"energy": -0.32699,
				"method": "rhf"
			},
			{
				"type": "occ",
				"energy": -0.32403,
				"method": "rhf"
			},
			{
				"type": "occ",
				"energy": -0.27851,
				"method": "rhf"
			},
			{
				"type": "occ",
				"energy": -0.25239,
				"method": "rhf"
			},
			{
				"type": "occ",
				"energy": -0.22049,
				"method": "rhf"
			},
			{
				"type": "unocc",
				"energy": -0.0106,
				"method": "rhf"
			},
			{
				"type": "unocc",
				"energy": -7e-05,
				"method": "rhf"
			},
			{
				"type": "unocc",
				"energy": 0.01124,
				"method": "rhf"
			},
			{
				"type": "unocc",
				"energy": 0.04248,
				"method": "rhf"
			},
			{
				"type": "unocc",
				"energy": 0.0837,
				"method": "rhf"
			}
		],
		"cosmo_sigma_profile": { 
			"-0.025": 0.0,
			"-0.024": 0.0,
			"-0.023": 0.0,
			"-0.022": 0.0,
			"-0.021": 0.0,
			"-0.02": 0.319841047444,
			"-0.019": 1.2433237047,
			"-0.018": 1.19572142786,
			"-0.017": 1.23686239651,
			"-0.016": 1.41341359377,
			"-0.015": 0.82742863088,
			"-0.014": 0.884192704258,
			"-0.013": 1.0367362932,
			"-0.012": 1.30213464746,
			"-0.011": 1.58603940403,
			"-0.01": 1.51049543301,
			"-0.009": 2.80082248063,
			"-0.008": 2.97679262584,
			"-0.007": 4.6870757493,
			"-0.006": 12.5864489374,
			"-0.005": 13.6292995121,
			"-0.004": 15.0886282624,
			"-0.003": 13.2145272081,
			"-0.002": 8.83091708988,
			"-0.001": 8.04193158778,
			"0.0": 7.18340404522,
			"0.001": 7.65673915233,
			"0.002": 8.78437184134,
			"0.003": 10.4577628754,
			"0.004": 10.6138467527,
			"0.005": 12.4328140211,
			"0.006": 8.98949261736,
			"0.007": 3.62327837838,
			"0.008": 3.59492417122,
			"0.009": 5.90628177638,
			"0.01": 7.06794282925,
			"0.011": 6.8451809841,
			"0.012": 4.42000417287,
			"0.013": 0.741392977913,
			"0.014": 0.0,
			"0.015": 0.0,
			"0.016": 0.0,
			"0.017": 0.0,
			"0.018": 0.0,
			"0.019": 0.0,
			"0.02": 0.0,
			"0.021": 0.0,
			"0.022": 0.0,
			"0.023": 0.0,
			"0.024": 0.0,
			"0.025": 0.0
		}
	}
}
