{
	 "smiles": "FC(F)(F)C1=CC=CC(=C1)C(=O)CBr", 
	 "Tm": 295.15, 
	 "num_atms": 20, 
	 "gaussian": { 
		 "optdone": 1, 
		 "sigma_profile": "yes", 
		 "theory": "DFT", 
		 "functional": "B3LYP", 
		 "basiset": "6-31G**", 
		 "properties": { 
			 "R2extent": 5617.9132, 
			 "electric_dipole_moment_norm": 3.65185833515, 
			 "electric_quadrupole_moment_norm": 6.44037565752, 
			 "total_energy": -3292.72698077, 
			 "HOMO_LUMO_gap": 0.1824, 
			 "cosmo_polarized_energy": -8.88, 
			 "cosmo_cavitation_energy": 28.5, 
			 "cosmo_dispersion_energy": -20.4, 
			 "cosmo_repulsion_energy": 1.55, 
			 "cosmo_total_nonelectrostatic_energy": 9.66, 
			 "SMD_solvation_energy": 5.49 
		},
		"coords": [
			{
				"x": 2.6536859944,
				"y": 0.0167040568,
				"z": -2.5645648562,
				"element": "F" 
			},
			{
				"x": 1.5054828904,
				"y": -0.6964687591,
				"z": -2.5367623002,
				"element": "C" 
			},
			{
				"x": 1.8519086657,
				"y": -1.9997261086,
				"z": -2.6456499541,
				"element": "F" 
			},
			{
				"x": 0.7985881587,
				"y": -0.3785560605,
				"z": -3.6398309294,
				"element": "F" 
			},
			{
				"x": 0.7266928621,
				"y": -0.4394243183,
				"z": -1.2724731329,
				"element": "C" 
			},
			{
				"x": 1.4138376209,
				"y": -0.2503657023,
				"z": -0.0672746559,
				"element": "C" 
			},
			{
				"x": 0.6999478658,
				"y": -0.0608096581,
				"z": 1.1140390461,
				"element": "C" 
			},
			{
				"x": -0.6949027246,
				"y": -0.0613408465,
				"z": 1.0983926441,
				"element": "C" 
			},
			{
				"x": -1.3875017538,
				"y": -0.2519331617,
				"z": -0.1062122522,
				"element": "C" 
			},
			{
				"x": -0.6639855239,
				"y": -0.4394602557,
				"z": -1.2935227353,
				"element": "C" 
			},
			{
				"x": -2.8802469888,
				"y": -0.2885269634,
				"z": -0.1988197151,
				"element": "C" 
			},
			{
				"x": -3.4473541408,
				"y": -0.4559298795,
				"z": -1.2654412753,
				"element": "O" 
			},
			{
				"x": -3.7255653734,
				"y": -0.1653883373,
				"z": 1.0650751589,
				"element": "C" 
			},
			{
				"x": -3.7369190676,
				"y": 1.6972786811,
				"z": 1.7347122722,
				"element": "Br" 
			},
			{
				"x": 2.4987088094,
				"y": -0.2419694299,
				"z": -0.0613455352,
				"element": "H" 
			},
			{
				"x": 1.2304874631,
				"y": 0.094852938,
				"z": 2.0479574954,
				"element": "H" 
			},
			{
				"x": -1.235039589,
				"y": 0.1114875158,
				"z": 2.0225788371,
				"element": "H" 
			},
			{
				"x": -1.2104363781,
				"y": -0.5795369226,
				"z": -2.2188873613,
				"element": "H" 
			},
			{
				"x": -4.7562866991,
				"y": -0.4062845822,
				"z": 0.8181453184,
				"element": "H" 
			},
			{
				"x": -3.3639020913,
				"y": -0.7822022058,
				"z": 1.8875839308,
				"element": "H" 
			}
		],
		 "valence_orbital": [ 
			{
				"type": "occ",
				"energy": -0.30324,
				"method": "rhf"
			},
			{
				"type": "occ",
				"energy": -0.29475,
				"method": "rhf"
			},
			{
				"type": "occ",
				"energy": -0.28247,
				"method": "rhf"
			},
			{
				"type": "occ",
				"energy": -0.28018,
				"method": "rhf"
			},
			{
				"type": "occ",
				"energy": -0.26964,
				"method": "rhf"
			},
			{
				"type": "unocc",
				"energy": -0.08724,
				"method": "rhf"
			},
			{
				"type": "unocc",
				"energy": -0.03945,
				"method": "rhf"
			},
			{
				"type": "unocc",
				"energy": -0.02444,
				"method": "rhf"
			},
			{
				"type": "unocc",
				"energy": 0.03062,
				"method": "rhf"
			},
			{
				"type": "unocc",
				"energy": 0.07961,
				"method": "rhf"
			}
		],
		"cosmo_sigma_profile": { 
			"-0.025": 0.0,
			"-0.024": 0.0,
			"-0.023": 0.0,
			"-0.022": 0.0,
			"-0.021": 0.0,
			"-0.02": 0.0,
			"-0.019": 0.0,
			"-0.018": 0.0,
			"-0.017": 0.0,
			"-0.016": 0.0,
			"-0.015": 0.0,
			"-0.014": 0.0,
			"-0.013": 0.0,
			"-0.012": 0.0,
			"-0.011": 0.0,
			"-0.01": 0.85349221429,
			"-0.009": 4.72730377062,
			"-0.008": 6.21238564221,
			"-0.007": 9.58983063194,
			"-0.006": 10.8052915993,
			"-0.005": 10.6494738174,
			"-0.004": 9.31678016423,
			"-0.003": 9.71646417482,
			"-0.002": 11.7960350789,
			"-0.001": 16.22431711,
			"0.0": 20.4988600493,
			"0.001": 25.8461408381,
			"0.002": 32.7679221646,
			"0.003": 31.4983429943,
			"0.004": 10.3245647532,
			"0.005": 8.08294124477,
			"0.006": 1.50055455371,
			"0.007": 1.02101500307,
			"0.008": 1.88352030421,
			"0.009": 2.38437171577,
			"0.01": 3.48136169705,
			"0.011": 2.58258109463,
			"0.012": 0.463527478616,
			"0.013": 0.0,
			"0.014": 0.0,
			"0.015": 0.0,
			"0.016": 0.0,
			"0.017": 0.0,
			"0.018": 0.0,
			"0.019": 0.0,
			"0.02": 0.0,
			"0.021": 0.0,
			"0.022": 0.0,
			"0.023": 0.0,
			"0.024": 0.0,
			"0.025": 0.0
		}
	}
}
