{
	 "smiles": "[O-][N+](=O)C1=CC(Cl)=C(OC2=C(F)C=C(C=O)C=C2)C=C1", 
	 "Tm": 355.15, 
	 "num_atms": 27, 
	 "gaussian": { 
		 "optdone": 1, 
		 "sigma_profile": "yes", 
		 "theory": "DFT", 
		 "functional": "B3LYP", 
		 "basiset": "6-31G**", 
		 "properties": { 
			 "R2extent": 7984.4832, 
			 "electric_dipole_moment_norm": 2.95111175153, 
			 "electric_quadrupole_moment_norm": 26.4031879725, 
			 "total_energy": -1415.14756039, 
			 "HOMO_LUMO_gap": 0.1642, 
			 "cosmo_polarized_energy": -14.4, 
			 "cosmo_cavitation_energy": 36.38, 
			 "cosmo_dispersion_energy": -25.54, 
			 "cosmo_repulsion_energy": 1.93, 
			 "cosmo_total_nonelectrostatic_energy": 12.77, 
			 "SMD_solvation_energy": 9.96 
		},
		"coords": [
			{
				"x": 2.7551496103,
				"y": 4.2457354433,
				"z": 2.2130217728,
				"element": "O" 
			},
			{
				"x": 2.9474442596,
				"y": 3.079990448,
				"z": 1.8691678581,
				"element": "N" 
			},
			{
				"x": 3.9773706598,
				"y": 2.4422444505,
				"z": 2.0869706957,
				"element": "O" 
			},
			{
				"x": 1.869282626,
				"y": 2.3975983674,
				"z": 1.1444288562,
				"element": "C" 
			},
			{
				"x": 0.6900576689,
				"y": 3.0938338752,
				"z": 0.8853719043,
				"element": "C" 
			},
			{
				"x": -0.3312137719,
				"y": 2.447925431,
				"z": 0.2018850338,
				"element": "C" 
			},
			{
				"x": -1.8186582937,
				"y": 3.2918163928,
				"z": -0.1366422804,
				"element": "Cl" 
			},
			{
				"x": -0.1718628858,
				"y": 1.1133356234,
				"z": -0.2174507733,
				"element": "C" 
			},
			{
				"x": -1.2055436902,
				"y": 0.5659010746,
				"z": -0.923666438,
				"element": "O" 
			},
			{
				"x": -1.3128134389,
				"y": -0.7964938609,
				"z": -1.0923215851,
				"element": "C" 
			},
			{
				"x": -1.4397305278,
				"y": -1.658339161,
				"z": 0.0046025599,
				"element": "C" 
			},
			{
				"x": -1.357582062,
				"y": -1.1449764959,
				"z": 1.2446004788,
				"element": "F" 
			},
			{
				"x": -1.6392348218,
				"y": -3.016855777,
				"z": -0.1770040566,
				"element": "C" 
			},
			{
				"x": -1.731411948,
				"y": -3.5283797829,
				"z": -1.478581478,
				"element": "C" 
			},
			{
				"x": -1.9510747827,
				"y": -4.9808951436,
				"z": -1.6822590574,
				"element": "C" 
			},
			{
				"x": -2.0390397888,
				"y": -5.5113496404,
				"z": -2.7716681966,
				"element": "O" 
			},
			{
				"x": -1.6191476401,
				"y": -2.6693478339,
				"z": -2.581540022,
				"element": "C" 
			},
			{
				"x": -1.4093495017,
				"y": -1.3086563951,
				"z": -2.3885272298,
				"element": "C" 
			},
			{
				"x": 1.026251427,
				"y": 0.4410071734,
				"z": 0.0477258147,
				"element": "C" 
			},
			{
				"x": 2.0521363112,
				"y": 1.0797922708,
				"z": 0.7334843187,
				"element": "C" 
			},
			{
				"x": 0.5810982463,
				"y": 4.1177559795,
				"z": 1.2178726388,
				"element": "H" 
			},
			{
				"x": -1.7322252602,
				"y": -3.6602567516,
				"z": 0.6930732755,
				"element": "H" 
			},
			{
				"x": -2.032673811,
				"y": -5.5745757801,
				"z": -0.7453718799,
				"element": "H" 
			},
			{
				"x": -1.6969796178,
				"y": -3.0910429626,
				"z": -3.5777742952,
				"element": "H" 
			},
			{
				"x": -1.3236989831,
				"y": -0.6199539045,
				"z": -3.222293965,
				"element": "H" 
			},
			{
				"x": 1.1528687796,
				"y": -0.5799468713,
				"z": -0.2933629233,
				"element": "H" 
			},
			{
				"x": 2.9868812368,
				"y": 0.5781338312,
				"z": 0.9483589733,
				"element": "H" 
			}
		],
		 "valence_orbital": [ 
			{
				"type": "occ",
				"energy": -0.29408,
				"method": "rhf"
			},
			{
				"type": "occ",
				"energy": -0.28746,
				"method": "rhf"
			},
			{
				"type": "occ",
				"energy": -0.27832,
				"method": "rhf"
			},
			{
				"type": "occ",
				"energy": -0.27475,
				"method": "rhf"
			},
			{
				"type": "occ",
				"energy": -0.26092,
				"method": "rhf"
			},
			{
				"type": "unocc",
				"energy": -0.09672,
				"method": "rhf"
			},
			{
				"type": "unocc",
				"energy": -0.08414,
				"method": "rhf"
			},
			{
				"type": "unocc",
				"energy": -0.04672,
				"method": "rhf"
			},
			{
				"type": "unocc",
				"energy": -0.03703,
				"method": "rhf"
			},
			{
				"type": "unocc",
				"energy": -0.00685,
				"method": "rhf"
			}
		],
		"cosmo_sigma_profile": { 
			"-0.025": 0.0,
			"-0.024": 0.0,
			"-0.023": 0.0,
			"-0.022": 0.0,
			"-0.021": 0.0,
			"-0.02": 0.0,
			"-0.019": 0.0,
			"-0.018": 0.0,
			"-0.017": 0.0,
			"-0.016": 0.0,
			"-0.015": 0.0,
			"-0.014": 0.0,
			"-0.013": 0.0,
			"-0.012": 0.0,
			"-0.011": 0.0,
			"-0.01": 0.388177796292,
			"-0.009": 5.44243900666,
			"-0.008": 10.0245602461,
			"-0.007": 12.9040300152,
			"-0.006": 13.4544650094,
			"-0.005": 13.5561210707,
			"-0.004": 13.9100529673,
			"-0.003": 17.9933852513,
			"-0.002": 26.5901696595,
			"-0.001": 32.4162508515,
			"0.0": 28.3178010365,
			"0.001": 20.9958346765,
			"0.002": 18.4870586987,
			"0.003": 18.4902463465,
			"0.004": 11.5459769786,
			"0.005": 6.55979229168,
			"0.006": 7.38325809254,
			"0.007": 11.3422073149,
			"0.008": 8.78080785106,
			"0.009": 6.53722913772,
			"0.01": 4.85895267828,
			"0.011": 4.31869476215,
			"0.012": 1.80287063114,
			"0.013": 0.254692419788,
			"0.014": 0.0,
			"0.015": 0.0,
			"0.016": 0.0,
			"0.017": 0.0,
			"0.018": 0.0,
			"0.019": 0.0,
			"0.02": 0.0,
			"0.021": 0.0,
			"0.022": 0.0,
			"0.023": 0.0,
			"0.024": 0.0,
			"0.025": 0.0
		}
	}
}
