{
	 "smiles": "CCOC(=O)C1=CC=CC=C1S(=O)(=O)NC(=O)NC1=NC(OC)=CC(Cl)=N1", 
	 "Tm": 454.15, 
	 "num_atms": 42, 
	 "gaussian": { 
		 "optdone": 1, 
		 "sigma_profile": "yes", 
		 "theory": "DFT", 
		 "functional": "B3LYP", 
		 "basiset": "6-31G**", 
		 "properties": { 
			 "R2extent": 14631.2694, 
			 "electric_dipole_moment_norm": 3.92603677135, 
			 "electric_quadrupole_moment_norm": 38.2107598094, 
			 "total_energy": -2109.33301384, 
			 "HOMO_LUMO_gap": 0.17215, 
			 "cosmo_polarized_energy": -23.37, 
			 "cosmo_cavitation_energy": 51.25, 
			 "cosmo_dispersion_energy": -35.23, 
			 "cosmo_repulsion_energy": 2.67, 
			 "cosmo_total_nonelectrostatic_energy": 18.69, 
			 "SMD_solvation_energy": 8.37 
		},
		"coords": [
			{
				"x": -2.8227491386,
				"y": -3.8998628862,
				"z": 1.8566924612,
				"element": "C" 
			},
			{
				"x": -2.6126657906,
				"y": -2.4957251083,
				"z": 2.3968209112,
				"element": "C" 
			},
			{
				"x": -1.3300519095,
				"y": -1.9541483459,
				"z": 1.9590686127,
				"element": "O" 
			},
			{
				"x": -0.2668428156,
				"y": -2.2032143366,
				"z": 2.7507838629,
				"element": "C" 
			},
			{
				"x": -0.3031850402,
				"y": -2.9329416979,
				"z": 3.7179350654,
				"element": "O" 
			},
			{
				"x": 1.0032618525,
				"y": -1.5519588898,
				"z": 2.2781833597,
				"element": "C" 
			},
			{
				"x": 2.1634019066,
				"y": -2.3060342005,
				"z": 2.4982608221,
				"element": "C" 
			},
			{
				"x": 3.4168825197,
				"y": -1.8421788422,
				"z": 2.1042179685,
				"element": "C" 
			},
			{
				"x": 3.5355168901,
				"y": -0.5932423571,
				"z": 1.498886575,
				"element": "C" 
			},
			{
				"x": 2.3992435253,
				"y": 0.1907366222,
				"z": 1.2965433991,
				"element": "C" 
			},
			{
				"x": 1.141634658,
				"y": -0.2839221693,
				"z": 1.6745126094,
				"element": "C" 
			},
			{
				"x": -0.2280878536,
				"y": 0.8759486593,
				"z": 1.4417801371,
				"element": "S" 
			},
			{
				"x": 0.3509286759,
				"y": 2.1442131824,
				"z": 0.9742198121,
				"element": "O" 
			},
			{
				"x": -1.077195859,
				"y": 0.8382834459,
				"z": 2.6254043673,
				"element": "O" 
			},
			{
				"x": -1.1307787081,
				"y": 0.2637950814,
				"z": 0.1507360804,
				"element": "N" 
			},
			{
				"x": -0.9737181934,
				"y": 0.3945564451,
				"z": -1.2642975454,
				"element": "C" 
			},
			{
				"x": -1.457656916,
				"y": -0.4555942836,
				"z": -1.9763821465,
				"element": "O" 
			},
			{
				"x": -0.3173633483,
				"y": 1.543685091,
				"z": -1.65046108,
				"element": "N" 
			},
			{
				"x": -0.0063647965,
				"y": 1.9626614946,
				"z": -2.9390656829,
				"element": "C" 
			},
			{
				"x": 0.5473188576,
				"y": 3.1890640772,
				"z": -2.9699754606,
				"element": "N" 
			},
			{
				"x": 0.874054532,
				"y": 3.6498110114,
				"z": -4.1729418219,
				"element": "C" 
			},
			{
				"x": 1.4284801344,
				"y": 4.8623713795,
				"z": -4.2937815958,
				"element": "O" 
			},
			{
				"x": 1.6333406619,
				"y": 5.621835446,
				"z": -3.0927630274,
				"element": "C" 
			},
			{
				"x": 0.6633585414,
				"y": 2.9163120686,
				"z": -5.3550538756,
				"element": "C" 
			},
			{
				"x": 0.0916471821,
				"y": 1.6716589618,
				"z": -5.1596291912,
				"element": "C" 
			},
			{
				"x": -0.2152588841,
				"y": 0.6524914973,
				"z": -6.5545087048,
				"element": "Cl" 
			},
			{
				"x": -0.2497020301,
				"y": 1.168563614,
				"z": -3.9787654456,
				"element": "N" 
			},
			{
				"x": -2.0867205287,
				"y": -4.5893766468,
				"z": 2.2768672704,
				"element": "H" 
			},
			{
				"x": -3.8211714718,
				"y": -4.252170287,
				"z": 2.1356190873,
				"element": "H" 
			},
			{
				"x": -2.7466719246,
				"y": -3.9169314102,
				"z": 0.7656620088,
				"element": "H" 
			},
			{
				"x": -3.3466642149,
				"y": -1.7904050569,
				"z": 2.001660115,
				"element": "H" 
			},
			{
				"x": -2.6373382794,
				"y": -2.4723869986,
				"z": 3.4872188027,
				"element": "H" 
			},
			{
				"x": 2.0566006341,
				"y": -3.2665702208,
				"z": 2.9898139227,
				"element": "H" 
			},
			{
				"x": 4.2965967373,
				"y": -2.4538217545,
				"z": 2.2780660231,
				"element": "H" 
			},
			{
				"x": 4.5076465503,
				"y": -0.2171380083,
				"z": 1.1960537406,
				"element": "H" 
			},
			{
				"x": 2.4787715003,
				"y": 1.1813957451,
				"z": 0.8653628147,
				"element": "H" 
			},
			{
				"x": -1.5477362028,
				"y": -0.6317109358,
				"z": 0.3924976787,
				"element": "H" 
			},
			{
				"x": -0.0414158823,
				"y": 2.1915177026,
				"z": -0.9157865799,
				"element": "H" 
			},
			{
				"x": 2.3053380929,
				"y": 5.0970598384,
				"z": -2.4089821304,
				"element": "H" 
			},
			{
				"x": 0.6850360821,
				"y": 5.807507301,
				"z": -2.5823142079,
				"element": "H" 
			},
			{
				"x": 2.0802102779,
				"y": 6.5599905645,
				"z": -3.4218375577,
				"element": "H" 
			},
			{
				"x": 0.9322699758,
				"y": 3.3071752069,
				"z": -6.3259214546,
				"element": "H" 
			}
		],
		 "valence_orbital": [ 
			{
				"type": "occ",
				"energy": -0.28639,
				"method": "rhf"
			},
			{
				"type": "occ",
				"energy": -0.28353,
				"method": "rhf"
			},
			{
				"type": "occ",
				"energy": -0.28178,
				"method": "rhf"
			},
			{
				"type": "occ",
				"energy": -0.26526,
				"method": "rhf"
			},
			{
				"type": "occ",
				"energy": -0.24834,
				"method": "rhf"
			},
			{
				"type": "unocc",
				"energy": -0.07619,
				"method": "rhf"
			},
			{
				"type": "unocc",
				"energy": -0.0475,
				"method": "rhf"
			},
			{
				"type": "unocc",
				"energy": -0.03665,
				"method": "rhf"
			},
			{
				"type": "unocc",
				"energy": -0.02649,
				"method": "rhf"
			},
			{
				"type": "unocc",
				"energy": 0.01888,
				"method": "rhf"
			}
		],
		"cosmo_sigma_profile": { 
			"-0.025": 0.0,
			"-0.024": 0.0,
			"-0.023": 0.0,
			"-0.022": 0.0,
			"-0.021": 0.0,
			"-0.02": 0.0,
			"-0.019": 0.0,
			"-0.018": 0.0,
			"-0.017": 0.0,
			"-0.016": 0.0,
			"-0.015": 0.0,
			"-0.014": 0.0,
			"-0.013": 0.0,
			"-0.012": 0.0,
			"-0.011": 0.486670461345,
			"-0.01": 0.917446611521,
			"-0.009": 2.21991797606,
			"-0.008": 6.75796286,
			"-0.007": 16.2422345756,
			"-0.006": 22.0220942214,
			"-0.005": 25.8835279756,
			"-0.004": 35.3183125946,
			"-0.003": 38.5696914598,
			"-0.002": 35.0478162677,
			"-0.001": 36.9774147002,
			"0.0": 35.8361375383,
			"0.001": 29.2249422756,
			"0.002": 19.4307678898,
			"0.003": 18.0436646309,
			"0.004": 15.7514138223,
			"0.005": 10.2825694244,
			"0.006": 10.4029285156,
			"0.007": 7.58965230799,
			"0.008": 9.64018663983,
			"0.009": 9.3699568209,
			"0.01": 10.001359835,
			"0.011": 7.58477446637,
			"0.012": 4.3605677987,
			"0.013": 1.6791657861,
			"0.014": 1.20047674683,
			"0.015": 1.03304788891,
			"0.016": 0.962699528531,
			"0.017": 0.528305352964,
			"0.018": 0.0273826992002,
			"0.019": 0.0,
			"0.02": 0.0,
			"0.021": 0.0,
			"0.022": 0.0,
			"0.023": 0.0,
			"0.024": 0.0,
			"0.025": 0.0
		}
	}
}
