{
	 "smiles": "CC(CO)C1=C(O)C(=O)C2=C(C[C@@H](O)[C@H]3C(C)(C)CCC[C@]23C)C1=O", 
	 "Tm": 459.15, 
	 "num_atms": 53, 
	 "gaussian": { 
		 "optdone": 1, 
		 "sigma_profile": "yes", 
		 "theory": "DFT", 
		 "functional": "B3LYP", 
		 "basiset": "6-31G**", 
		 "properties": { 
			 "R2extent": 9721.7452, 
			 "electric_dipole_moment_norm": 1.54419211564, 
			 "electric_quadrupole_moment_norm": 13.9863578687, 
			 "total_energy": -1155.10313671, 
			 "HOMO_LUMO_gap": 0.12523, 
			 "cosmo_polarized_energy": -17.25, 
			 "cosmo_cavitation_energy": 47.63, 
			 "cosmo_dispersion_energy": -33.79, 
			 "cosmo_repulsion_energy": 2.52, 
			 "cosmo_total_nonelectrostatic_energy": 16.35, 
			 "SMD_solvation_energy": 8.73 
		},
		"coords": [
			{
				"x": -1.5974235255,
				"y": 4.3739147726,
				"z": -2.1263252191,
				"element": "C" 
			},
			{
				"x": -0.8419919249,
				"y": 3.2781277434,
				"z": -2.8983586496,
				"element": "C" 
			},
			{
				"x": 0.4067622495,
				"y": 3.8386118314,
				"z": -3.6019876866,
				"element": "C" 
			},
			{
				"x": 1.3515884621,
				"y": 4.2490079392,
				"z": -2.6238791459,
				"element": "O" 
			},
			{
				"x": -0.4919597329,
				"y": 2.0315834894,
				"z": -2.1000798541,
				"element": "C" 
			},
			{
				"x": -0.5340781128,
				"y": 0.8110115772,
				"z": -2.6862087493,
				"element": "C" 
			},
			{
				"x": -0.9106957602,
				"y": 0.6213417102,
				"z": -3.9620097167,
				"element": "O" 
			},
			{
				"x": -0.1912164251,
				"y": -0.4708033574,
				"z": -1.9842462645,
				"element": "C" 
			},
			{
				"x": -0.3802520251,
				"y": -1.4960329103,
				"z": -2.6474588108,
				"element": "O" 
			},
			{
				"x": 0.3301048664,
				"y": -0.4413189951,
				"z": -0.5995478141,
				"element": "C" 
			},
			{
				"x": 0.3393537479,
				"y": 0.7713483526,
				"z": 0.0087246611,
				"element": "C" 
			},
			{
				"x": 0.7779791005,
				"y": 0.9739112547,
				"z": 1.4320814789,
				"element": "C" 
			},
			{
				"x": 0.9090898277,
				"y": -0.3177544605,
				"z": 2.241705718,
				"element": "C" 
			},
			{
				"x": -0.3589781358,
				"y": -0.7761555706,
				"z": 2.721618356,
				"element": "O" 
			},
			{
				"x": 1.5766864975,
				"y": -1.3980414524,
				"z": 1.3759687077,
				"element": "C" 
			},
			{
				"x": 2.2243292362,
				"y": -2.5958212127,
				"z": 2.1606022076,
				"element": "C" 
			},
			{
				"x": 3.2226414484,
				"y": -2.0375721666,
				"z": 3.2024785958,
				"element": "C" 
			},
			{
				"x": 1.2333203494,
				"y": -3.5002310911,
				"z": 2.9283123472,
				"element": "C" 
			},
			{
				"x": 3.0497295504,
				"y": -3.4277009061,
				"z": 1.1448542557,
				"element": "C" 
			},
			{
				"x": 2.2820536942,
				"y": -3.8081330376,
				"z": -0.1236158732,
				"element": "C" 
			},
			{
				"x": 1.6916610515,
				"y": -2.5816201492,
				"z": -0.8320673904,
				"element": "C" 
			},
			{
				"x": 0.7425693393,
				"y": -1.7562143203,
				"z": 0.0904071468,
				"element": "C" 
			},
			{
				"x": -0.5730310152,
				"y": -2.5501603921,
				"z": 0.3282090148,
				"element": "C" 
			},
			{
				"x": -0.0723572797,
				"y": 2.0568628199,
				"z": -0.6892473445,
				"element": "C" 
			},
			{
				"x": -0.0502450015,
				"y": 3.0898620642,
				"z": -0.0247298176,
				"element": "O" 
			},
			{
				"x": -0.954396008,
				"y": 4.8585898269,
				"z": -1.3941945209,
				"element": "H" 
			},
			{
				"x": -1.963002867,
				"y": 5.1249722907,
				"z": -2.8357751252,
				"element": "H" 
			},
			{
				"x": -2.4637549645,
				"y": 3.9608429686,
				"z": -1.6007985822,
				"element": "H" 
			},
			{
				"x": -1.4915760973,
				"y": 2.9339350167,
				"z": -3.7125470205,
				"element": "H" 
			},
			{
				"x": 0.8257734504,
				"y": 3.0620684456,
				"z": -4.2607410975,
				"element": "H" 
			},
			{
				"x": 0.0957773082,
				"y": 4.683558937,
				"z": -4.23842167,
				"element": "H" 
			},
			{
				"x": 2.1086700955,
				"y": 4.6341960358,
				"z": -3.0812555377,
				"element": "H" 
			},
			{
				"x": -0.8982841167,
				"y": -0.3539351917,
				"z": -4.0779368108,
				"element": "H" 
			},
			{
				"x": 1.7425567008,
				"y": 1.5009916492,
				"z": 1.423466954,
				"element": "H" 
			},
			{
				"x": 0.0915943205,
				"y": 1.6754514367,
				"z": 1.9194379489,
				"element": "H" 
			},
			{
				"x": 1.5583765353,
				"y": -0.1002921706,
				"z": 3.1000507277,
				"element": "H" 
			},
			{
				"x": -0.734269029,
				"y": -0.0779512054,
				"z": 3.2736374458,
				"element": "H" 
			},
			{
				"x": 2.4544058075,
				"y": -0.8715611754,
				"z": 0.9671554573,
				"element": "H" 
			},
			{
				"x": 3.8889204466,
				"y": -1.2832863084,
				"z": 2.7670889596,
				"element": "H" 
			},
			{
				"x": 3.8497765708,
				"y": -2.8507318585,
				"z": 3.584301121,
				"element": "H" 
			},
			{
				"x": 2.7190767096,
				"y": -1.5908051007,
				"z": 4.0654573548,
				"element": "H" 
			},
			{
				"x": 1.7902025134,
				"y": -4.1432273969,
				"z": 3.6200245206,
				"element": "H" 
			},
			{
				"x": 0.6602269421,
				"y": -4.1589499118,
				"z": 2.2738438075,
				"element": "H" 
			},
			{
				"x": 0.5218664409,
				"y": -2.9053717165,
				"z": 3.5050433307,
				"element": "H" 
			},
			{
				"x": 3.9326147957,
				"y": -2.8400305517,
				"z": 0.8531066709,
				"element": "H" 
			},
			{
				"x": 3.4318137506,
				"y": -4.3270815494,
				"z": 1.6450571131,
				"element": "H" 
			},
			{
				"x": 1.4853463106,
				"y": -4.5228804797,
				"z": 0.1138473199,
				"element": "H" 
			},
			{
				"x": 2.9535327631,
				"y": -4.3309347546,
				"z": -0.8156551617,
				"element": "H" 
			},
			{
				"x": 1.1548380695,
				"y": -2.8924398244,
				"z": -1.7287433309,
				"element": "H" 
			},
			{
				"x": 2.5155539337,
				"y": -1.9320210652,
				"z": -1.1617865406,
				"element": "H" 
			},
			{
				"x": -1.090757322,
				"y": -2.6815449051,
				"z": -0.624767787,
				"element": "H" 
			},
			{
				"x": -0.3806904731,
				"y": -3.5441787742,
				"z": 0.730692022,
				"element": "H" 
			},
			{
				"x": -1.2235330697,
				"y": -2.0254061998,
				"z": 1.0263122778,
				"element": "H" 
			}
		],
		 "valence_orbital": [ 
			{
				"type": "occ",
				"energy": -0.2697,
				"method": "rhf"
			},
			{
				"type": "occ",
				"energy": -0.26551,
				"method": "rhf"
			},
			{
				"type": "occ",
				"energy": -0.26278,
				"method": "rhf"
			},
			{
				"type": "occ",
				"energy": -0.24767,
				"method": "rhf"
			},
			{
				"type": "occ",
				"energy": -0.23637,
				"method": "rhf"
			},
			{
				"type": "unocc",
				"energy": -0.11114,
				"method": "rhf"
			},
			{
				"type": "unocc",
				"energy": 0.0049,
				"method": "rhf"
			},
			{
				"type": "unocc",
				"energy": 0.02209,
				"method": "rhf"
			},
			{
				"type": "unocc",
				"energy": 0.05725,
				"method": "rhf"
			},
			{
				"type": "unocc",
				"energy": 0.07743,
				"method": "rhf"
			}
		],
		"cosmo_sigma_profile": { 
			"-0.025": 0.0,
			"-0.024": 0.0,
			"-0.023": 0.0,
			"-0.022": 0.0,
			"-0.021": 0.0,
			"-0.02": 0.0,
			"-0.019": 0.0,
			"-0.018": 0.0,
			"-0.017": 0.0,
			"-0.016": 0.342576141769,
			"-0.015": 1.87069302984,
			"-0.014": 2.71261951793,
			"-0.013": 2.3056472004,
			"-0.012": 1.73685949141,
			"-0.011": 2.58281502873,
			"-0.01": 3.19122469098,
			"-0.009": 2.17808395161,
			"-0.008": 3.39356688031,
			"-0.007": 2.59787451131,
			"-0.006": 2.65985860766,
			"-0.005": 10.0052263549,
			"-0.004": 18.0758482789,
			"-0.003": 37.80299784,
			"-0.002": 45.750625975,
			"-0.001": 41.862086053,
			"0.0": 41.1940816121,
			"0.001": 42.223868568,
			"0.002": 30.1161882249,
			"0.003": 11.3165389292,
			"0.004": 7.79473017545,
			"0.005": 8.75713037656,
			"0.006": 8.5871569782,
			"0.007": 8.23653361084,
			"0.008": 7.31544889618,
			"0.009": 6.32003510351,
			"0.01": 5.56596165984,
			"0.011": 5.09054650618,
			"0.012": 3.28362009422,
			"0.013": 1.48224934769,
			"0.014": 1.32660610304,
			"0.015": 0.734573590629,
			"0.016": 0.0783184766631,
			"0.017": 0.0,
			"0.018": 0.0,
			"0.019": 0.0,
			"0.02": 0.0,
			"0.021": 0.0,
			"0.022": 0.0,
			"0.023": 0.0,
			"0.024": 0.0,
			"0.025": 0.0
		}
	}
}
