{
	 "smiles": "IC1=CC=CC=C1CN1CCOCC1", 
	 "Tm": 320.15, 
	 "num_atms": 28, 
	 "gaussian": { 
		 "optdone": 1, 
		 "sigma_profile": "no", 
		 "theory": "DFT", 
		 "functional": "B3LYP", 
		 "basiset": "6-31G**", 
		 "properties": { 
			 "R2extent": 3916.4428, 
			 "electric_dipole_moment_norm": 1.46368061407, 
			 "electric_quadrupole_moment_norm": 10.5113663579, 
			 "total_energy": -568.948027591, 
			 "HOMO_LUMO_gap": 0.18666, 
			 "cosmo_polarized_energy": -87506.68, 
			 "cosmo_cavitation_energy": 32.36, 
			 "cosmo_dispersion_energy": -24.79, 
			 "cosmo_repulsion_energy": 1.93, 
			 "cosmo_total_nonelectrostatic_energy": 9.5, 
			 "SMD_solvation_energy": 3.25 
		},
		"coords": [
			{
				"x": 2.2271335015,
				"y": 0.2319095753,
				"z": -2.0535542468,
				"element": "I" 
			},
			{
				"x": 1.5671840559,
				"y": 0.5844611639,
				"z": -0.0514838902,
				"element": "C" 
			},
			{
				"x": 2.4334539455,
				"y": 1.3074552686,
				"z": 0.7728185371,
				"element": "C" 
			},
			{
				"x": 2.0804218154,
				"y": 1.5524644674,
				"z": 2.0994630815,
				"element": "C" 
			},
			{
				"x": 0.8705508555,
				"y": 1.0651814664,
				"z": 2.5932246393,
				"element": "C" 
			},
			{
				"x": 0.0201144612,
				"y": 0.3441631907,
				"z": 1.7586642576,
				"element": "C" 
			},
			{
				"x": 0.3398595061,
				"y": 0.0913215839,
				"z": 0.4153638782,
				"element": "C" 
			},
			{
				"x": -0.609936826,
				"y": -0.7320128969,
				"z": -0.4427147182,
				"element": "C" 
			},
			{
				"x": -1.9877731803,
				"y": -0.7195726703,
				"z": 0.0396392031,
				"element": "N" 
			},
			{
				"x": -2.6790571538,
				"y": 0.5332403064,
				"z": -0.284615926,
				"element": "C" 
			},
			{
				"x": -4.0894378385,
				"y": 0.5137646927,
				"z": 0.29927898,
				"element": "C" 
			},
			{
				"x": -4.8305212397,
				"y": -0.6021707562,
				"z": -0.1747766277,
				"element": "O" 
			},
			{
				"x": -4.1699647054,
				"y": -1.8186416645,
				"z": 0.1445116629,
				"element": "C" 
			},
			{
				"x": -2.7640312614,
				"y": -1.8611063414,
				"z": -0.4507175354,
				"element": "C" 
			},
			{
				"x": 3.3745691242,
				"y": 1.6764361618,
				"z": 0.3810548334,
				"element": "H" 
			},
			{
				"x": 2.7526441538,
				"y": 2.1187579485,
				"z": 2.7373468007,
				"element": "H" 
			},
			{
				"x": 0.5889865961,
				"y": 1.2438632986,
				"z": 3.6268950689,
				"element": "H" 
			},
			{
				"x": -0.9244385924,
				"y": -0.0455665121,
				"z": 2.1244425091,
				"element": "H" 
			},
			{
				"x": -0.5432148527,
				"y": -0.396499833,
				"z": -1.4917158892,
				"element": "H" 
			},
			{
				"x": -0.260759606,
				"y": -1.7734371033,
				"z": -0.4392280316,
				"element": "H" 
			},
			{
				"x": -2.1163995652,
				"y": 1.3735205554,
				"z": 0.1357320697,
				"element": "H" 
			},
			{
				"x": -2.7415193682,
				"y": 0.6834875794,
				"z": -1.3795341524,
				"element": "H" 
			},
			{
				"x": -4.0309365431,
				"y": 0.4913827677,
				"z": 1.4000905614,
				"element": "H" 
			},
			{
				"x": -4.6426735095,
				"y": 1.4077949168,
				"z": -0.0026753266,
				"element": "H" 
			},
			{
				"x": -4.7853194816,
				"y": -2.625895847,
				"z": -0.2633710618,
				"element": "H" 
			},
			{
				"x": -4.1053824152,
				"y": -1.9415148463,
				"z": 1.2382564202,
				"element": "H" 
			},
			{
				"x": -2.2650657919,
				"y": -2.7895460309,
				"z": -0.1486394772,
				"element": "H" 
			},
			{
				"x": -2.8413860841,
				"y": -1.8632404417,
				"z": -1.5549556201,
				"element": "H" 
			}
		],
		 "valence_orbital": [ 
			{
				"type": "occ",
				"energy": -0.26841,
				"method": "rhf"
			},
			{
				"type": "occ",
				"energy": -0.256,
				"method": "rhf"
			},
			{
				"type": "occ",
				"energy": -0.25451,
				"method": "rhf"
			},
			{
				"type": "occ",
				"energy": -0.23826,
				"method": "rhf"
			},
			{
				"type": "occ",
				"energy": -0.22388,
				"method": "rhf"
			},
			{
				"type": "unocc",
				"energy": -0.03722,
				"method": "rhf"
			},
			{
				"type": "unocc",
				"energy": -0.01545,
				"method": "rhf"
			},
			{
				"type": "unocc",
				"energy": -0.01193,
				"method": "rhf"
			},
			{
				"type": "unocc",
				"energy": 0.03986,
				"method": "rhf"
			},
			{
				"type": "unocc",
				"energy": 0.04838,
				"method": "rhf"
			}
		],
		"cosmo_sigma_profile": { 
			"0.0": 0.0,
			"0.0": 0.0,
			"0.0": 0.0,
			"0.0": 0.0,
			"0.0": 0.0,
			"0.0": 0.0,
			"0.0": 0.0,
			"0.0": 0.0,
			"0.0": 0.0,
			"0.0": 0.0,
			"0.0": 0.0,
			"0.0": 0.0,
			"0.0": 0.0,
			"0.0": 0.0,
			"0.0": 0.0,
			"0.0": 0.0,
			"0.0": 0.0,
			"0.0": 0.0,
			"0.0": 0.0,
			"0.0": 0.0,
			"0.0": 0.0,
			"0.0": 0.0,
			"0.0": 0.0,
			"0.0": 0.0,
			"0.0": 0.0,
			"0.0": 0.0,
			"0.0": 0.0,
			"0.0": 0.0,
			"0.0": 0.0,
			"0.0": 0.0,
			"0.0": 0.0,
			"0.0": 0.0,
			"0.0": 0.0,
			"0.0": 0.0,
			"0.0": 0.0,
			"0.0": 0.0,
			"0.0": 0.0,
			"0.0": 0.0,
			"0.0": 0.0,
			"0.0": 0.0,
			"0.0": 0.0,
			"0.0": 0.0,
			"0.0": 0.0,
			"0.0": 0.0,
			"0.0": 0.0,
			"0.0": 0.0,
			"0.0": 0.0,
			"0.0": 0.0,
			"0.0": 0.0,
			"0.0": 0.0,
			"0.0": 0.0
		}
	}
}
