{
	 "smiles": "COC1=CC=C(C=C1)C(=O)C(=O)C1=CC=C(OC)C=C1", 
	 "Tm": 405.15, 
	 "num_atms": 34, 
	 "gaussian": { 
		 "optdone": 1, 
		 "sigma_profile": "yes", 
		 "theory": "DFT", 
		 "functional": "B3LYP", 
		 "basiset": "6-31G**", 
		 "properties": { 
			 "R2extent": 9295.7028, 
			 "electric_dipole_moment_norm": 3.92299635228, 
			 "electric_quadrupole_moment_norm": 35.7688390921, 
			 "total_energy": -919.007792141, 
			 "HOMO_LUMO_gap": 0.15077, 
			 "cosmo_polarized_energy": -14.36, 
			 "cosmo_cavitation_energy": 39.06, 
			 "cosmo_dispersion_energy": -28.32, 
			 "cosmo_repulsion_energy": 2.14, 
			 "cosmo_total_nonelectrostatic_energy": 12.89, 
			 "SMD_solvation_energy": 9.12 
		},
		"coords": [
			{
				"x": -6.0696229735,
				"y": 0.8964250145,
				"z": -2.5839992438,
				"element": "C" 
			},
			{
				"x": -5.3228095037,
				"y": -0.3061652925,
				"z": -2.718052858,
				"element": "O" 
			},
			{
				"x": -4.274593849,
				"y": -0.5178777545,
				"z": -1.8825984309,
				"element": "C" 
			},
			{
				"x": -3.8580699653,
				"y": 0.3753923326,
				"z": -0.8853518994,
				"element": "C" 
			},
			{
				"x": -2.7657314508,
				"y": 0.053649123,
				"z": -0.082168281,
				"element": "C" 
			},
			{
				"x": -2.0721179202,
				"y": -1.153887129,
				"z": -0.2562306732,
				"element": "C" 
			},
			{
				"x": -2.5039674787,
				"y": -2.0394244938,
				"z": -1.2661670946,
				"element": "C" 
			},
			{
				"x": -3.5865912074,
				"y": -1.7322233931,
				"z": -2.0674462562,
				"element": "C" 
			},
			{
				"x": -0.8819267972,
				"y": -1.5433697938,
				"z": 0.5345615506,
				"element": "C" 
			},
			{
				"x": -0.2892945586,
				"y": -2.6021017731,
				"z": 0.3484843737,
				"element": "O" 
			},
			{
				"x": -0.3930749781,
				"y": -0.6266900517,
				"z": 1.6746964599,
				"element": "C" 
			},
			{
				"x": -1.2258733009,
				"y": -0.1892718176,
				"z": 2.463279649,
				"element": "O" 
			},
			{
				"x": 1.054677779,
				"y": -0.3497554673,
				"z": 1.8193131293,
				"element": "C" 
			},
			{
				"x": 2.0335426505,
				"y": -0.8199385661,
				"z": 0.9303240687,
				"element": "C" 
			},
			{
				"x": 3.3768179225,
				"y": -0.4924697854,
				"z": 1.104161541,
				"element": "C" 
			},
			{
				"x": 3.7608705229,
				"y": 0.3175312606,
				"z": 2.1822805167,
				"element": "C" 
			},
			{
				"x": 5.0371756014,
				"y": 0.6960054213,
				"z": 2.4456256771,
				"element": "O" 
			},
			{
				"x": 6.0741962218,
				"y": 0.2433638511,
				"z": 1.5844414347,
				"element": "C" 
			},
			{
				"x": 2.7881529995,
				"y": 0.79599853,
				"z": 3.0806330113,
				"element": "C" 
			},
			{
				"x": 1.4592891847,
				"y": 0.4660337903,
				"z": 2.8970094366,
				"element": "C" 
			},
			{
				"x": -5.4446259973,
				"y": 1.7801232941,
				"z": -2.7619416355,
				"element": "H" 
			},
			{
				"x": -6.5316671933,
				"y": 0.9742922638,
				"z": -1.5923299584,
				"element": "H" 
			},
			{
				"x": -6.8512040612,
				"y": 0.8491094679,
				"z": -3.3432527458,
				"element": "H" 
			},
			{
				"x": -4.3763528179,
				"y": 1.3129354762,
				"z": -0.7248871037,
				"element": "H" 
			},
			{
				"x": -2.4648170283,
				"y": 0.7412793241,
				"z": 0.6983221061,
				"element": "H" 
			},
			{
				"x": -1.9625090404,
				"y": -2.9703206427,
				"z": -1.3973260993,
				"element": "H" 
			},
			{
				"x": -3.9283765004,
				"y": -2.4061027129,
				"z": -2.846090095,
				"element": "H" 
			},
			{
				"x": 1.7502246744,
				"y": -1.4626471052,
				"z": 0.1061751402,
				"element": "H" 
			},
			{
				"x": 4.1104167787,
				"y": -0.8735473097,
				"z": 0.4041854212,
				"element": "H" 
			},
			{
				"x": 6.1430605943,
				"y": -0.8512513059,
				"z": 1.5789096259,
				"element": "H" 
			},
			{
				"x": 5.9297411933,
				"y": 0.6016372537,
				"z": 0.5578060293,
				"element": "H" 
			},
			{
				"x": 6.9988165024,
				"y": 0.6608040873,
				"z": 1.9849365332,
				"element": "H" 
			},
			{
				"x": 3.1109373462,
				"y": 1.4213058433,
				"z": 3.9064774166,
				"element": "H" 
			},
			{
				"x": 0.6978066507,
				"y": 0.8281580604,
				"z": 3.5796192537,
				"element": "H" 
			}
		],
		 "valence_orbital": [ 
			{
				"type": "occ",
				"energy": -0.25993,
				"method": "rhf"
			},
			{
				"type": "occ",
				"energy": -0.25947,
				"method": "rhf"
			},
			{
				"type": "occ",
				"energy": -0.23464,
				"method": "rhf"
			},
			{
				"type": "occ",
				"energy": -0.22919,
				"method": "rhf"
			},
			{
				"type": "occ",
				"energy": -0.22312,
				"method": "rhf"
			},
			{
				"type": "unocc",
				"energy": -0.07235,
				"method": "rhf"
			},
			{
				"type": "unocc",
				"energy": -0.03783,
				"method": "rhf"
			},
			{
				"type": "unocc",
				"energy": -0.00701,
				"method": "rhf"
			},
			{
				"type": "unocc",
				"energy": -0.00614,
				"method": "rhf"
			},
			{
				"type": "unocc",
				"energy": 0.03486,
				"method": "rhf"
			}
		],
		"cosmo_sigma_profile": { 
			"-0.025": 0.0,
			"-0.024": 0.0,
			"-0.023": 0.0,
			"-0.022": 0.0,
			"-0.021": 0.0,
			"-0.02": 0.0,
			"-0.019": 0.0,
			"-0.018": 0.0,
			"-0.017": 0.0,
			"-0.016": 0.0,
			"-0.015": 0.0,
			"-0.014": 0.0,
			"-0.013": 0.0,
			"-0.012": 0.0,
			"-0.011": 0.0,
			"-0.01": 0.0,
			"-0.009": 0.0,
			"-0.008": 0.187982317977,
			"-0.007": 7.31972093868,
			"-0.006": 25.7785415064,
			"-0.005": 32.7024423913,
			"-0.004": 30.4633797425,
			"-0.003": 22.2266550972,
			"-0.002": 17.0409240144,
			"-0.001": 15.3792384759,
			"0.0": 17.9362072226,
			"0.001": 21.5084272532,
			"0.002": 28.0931095214,
			"0.003": 33.6008151595,
			"0.004": 15.7177179056,
			"0.005": 6.69438882378,
			"0.006": 6.04310467752,
			"0.007": 6.20179989128,
			"0.008": 5.67459473023,
			"0.009": 6.43413928455,
			"0.01": 5.21140259496,
			"0.011": 6.75230301086,
			"0.012": 1.89025885622,
			"0.013": 0.0,
			"0.014": 0.0,
			"0.015": 0.0,
			"0.016": 0.0,
			"0.017": 0.0,
			"0.018": 0.0,
			"0.019": 0.0,
			"0.02": 0.0,
			"0.021": 0.0,
			"0.022": 0.0,
			"0.023": 0.0,
			"0.024": 0.0,
			"0.025": 0.0
		}
	}
}
