{
	 "smiles": "CC1=C(CC(O)=O)N=NN1C1=CC=C(C)C=C1", 
	 "Tm": 468.15, 
	 "num_atms": 30, 
	 "gaussian": { 
		 "optdone": 1, 
		 "sigma_profile": "yes", 
		 "theory": "DFT", 
		 "functional": "B3LYP", 
		 "basiset": "6-31G**", 
		 "properties": { 
			 "R2extent": 7240.0885, 
			 "electric_dipole_moment_norm": 4.150202783, 
			 "electric_quadrupole_moment_norm": 21.7324195666, 
			 "total_energy": -779.807168061, 
			 "HOMO_LUMO_gap": 0.20701, 
			 "cosmo_polarized_energy": -17.5, 
			 "cosmo_cavitation_energy": 34.57, 
			 "cosmo_dispersion_energy": -24.54, 
			 "cosmo_repulsion_energy": 1.91, 
			 "cosmo_total_nonelectrostatic_energy": 11.94, 
			 "SMD_solvation_energy": 5.47 
		},
		"coords": [
			{
				"x": 0.0045271667,
				"y": -1.6960425816,
				"z": 2.00056588,
				"element": "C" 
			},
			{
				"x": 0.9057574056,
				"y": -0.6153934572,
				"z": 2.500805242,
				"element": "C" 
			},
			{
				"x": 1.9063806692,
				"y": -0.637864529,
				"z": 3.4555215155,
				"element": "C" 
			},
			{
				"x": 2.4333096847,
				"y": -1.7719393089,
				"z": 4.2737368641,
				"element": "C" 
			},
			{
				"x": 3.0542791997,
				"y": -2.8946929306,
				"z": 3.4592580883,
				"element": "C" 
			},
			{
				"x": 3.828815379,
				"y": -3.6862131114,
				"z": 4.2376949859,
				"element": "O" 
			},
			{
				"x": 2.8766499168,
				"y": -3.110943029,
				"z": 2.2808249875,
				"element": "O" 
			},
			{
				"x": 2.4145771356,
				"y": 0.6204260388,
				"z": 3.5965722503,
				"element": "N" 
			},
			{
				"x": 1.798236642,
				"y": 1.4305235899,
				"z": 2.7895040233,
				"element": "N" 
			},
			{
				"x": 0.874130517,
				"y": 0.694307564,
				"z": 2.1034651734,
				"element": "N" 
			},
			{
				"x": 0.039386855,
				"y": 1.343380064,
				"z": 1.1494721055,
				"element": "C" 
			},
			{
				"x": -0.2141137571,
				"y": 0.7623160892,
				"z": -0.0949753716,
				"element": "C" 
			},
			{
				"x": -1.0288064667,
				"y": 1.4267568884,
				"z": -1.0116406555,
				"element": "C" 
			},
			{
				"x": -1.5858072872,
				"y": 2.6774466471,
				"z": -0.7191930156,
				"element": "C" 
			},
			{
				"x": -2.4834302596,
				"y": 3.3834674941,
				"z": -1.7072977036,
				"element": "C" 
			},
			{
				"x": -1.2972456682,
				"y": 3.2510311996,
				"z": 0.5282537029,
				"element": "C" 
			},
			{
				"x": -0.5000860618,
				"y": 2.5954767897,
				"z": 1.4614082651,
				"element": "C" 
			},
			{
				"x": 0.4459531195,
				"y": -2.2242524631,
				"z": 1.1496925537,
				"element": "H" 
			},
			{
				"x": -0.1516351731,
				"y": -2.4388441205,
				"z": 2.7875617441,
				"element": "H" 
			},
			{
				"x": -0.9702139756,
				"y": -1.3016292946,
				"z": 1.7020027919,
				"element": "H" 
			},
			{
				"x": 3.1767142892,
				"y": -1.3880340551,
				"z": 4.9772586634,
				"element": "H" 
			},
			{
				"x": 1.6453791561,
				"y": -2.2348675888,
				"z": 4.8855998344,
				"element": "H" 
			},
			{
				"x": 4.1635182816,
				"y": -4.3920283082,
				"z": 3.6590645182,
				"element": "H" 
			},
			{
				"x": 0.2406835009,
				"y": -0.1866240628,
				"z": -0.3566278422,
				"element": "H" 
			},
			{
				"x": -1.2192859551,
				"y": 0.9685579297,
				"z": -1.9785369135,
				"element": "H" 
			},
			{
				"x": -3.5415093123,
				"y": 3.2333117715,
				"z": -1.4588178185,
				"element": "H" 
			},
			{
				"x": -2.3302623723,
				"y": 3.0111536477,
				"z": -2.7241542185,
				"element": "H" 
			},
			{
				"x": -2.3029267721,
				"y": 4.4629639475,
				"z": -1.710812888,
				"element": "H" 
			},
			{
				"x": -1.7079728407,
				"y": 4.2264474181,
				"z": 0.7760218504,
				"element": "H" 
			},
			{
				"x": -0.2773030168,
				"y": 3.0423017617,
				"z": 2.4233713874,
				"element": "H" 
			}
		],
		 "valence_orbital": [ 
			{
				"type": "occ",
				"energy": -0.28084,
				"method": "rhf"
			},
			{
				"type": "occ",
				"energy": -0.26252,
				"method": "rhf"
			},
			{
				"type": "occ",
				"energy": -0.25759,
				"method": "rhf"
			},
			{
				"type": "occ",
				"energy": -0.24582,
				"method": "rhf"
			},
			{
				"type": "occ",
				"energy": -0.23356,
				"method": "rhf"
			},
			{
				"type": "unocc",
				"energy": -0.02655,
				"method": "rhf"
			},
			{
				"type": "unocc",
				"energy": -0.01322,
				"method": "rhf"
			},
			{
				"type": "unocc",
				"energy": 0.00583,
				"method": "rhf"
			},
			{
				"type": "unocc",
				"energy": 0.02176,
				"method": "rhf"
			},
			{
				"type": "unocc",
				"energy": 0.05246,
				"method": "rhf"
			}
		],
		"cosmo_sigma_profile": { 
			"-0.025": 0.0,
			"-0.024": 0.0,
			"-0.023": 0.0,
			"-0.022": 0.0,
			"-0.021": 0.0,
			"-0.02": 0.0,
			"-0.019": 0.0,
			"-0.018": 0.897664999088,
			"-0.017": 0.859825387283,
			"-0.016": 0.793868316122,
			"-0.015": 0.815796241524,
			"-0.014": 0.470056799985,
			"-0.013": 0.814243445028,
			"-0.012": 0.956907008174,
			"-0.011": 0.834298707334,
			"-0.01": 0.780566705138,
			"-0.009": 0.583686954695,
			"-0.008": 2.7067541133,
			"-0.007": 8.6551153408,
			"-0.006": 13.605256457,
			"-0.005": 20.0884872179,
			"-0.004": 24.4112532483,
			"-0.003": 21.8599195741,
			"-0.002": 24.3494336304,
			"-0.001": 23.6972841696,
			"0.0": 19.5092185468,
			"0.001": 15.0406099365,
			"0.002": 12.6756866264,
			"0.003": 12.3435449125,
			"0.004": 16.0172039671,
			"0.005": 8.28069240126,
			"0.006": 4.71696800302,
			"0.007": 5.01190683767,
			"0.008": 5.65459321359,
			"0.009": 6.09105950012,
			"0.01": 5.00113421851,
			"0.011": 7.01099499835,
			"0.012": 4.46086235371,
			"0.013": 2.51570132974,
			"0.014": 1.58071052979,
			"0.015": 0.98928415558,
			"0.016": 0.460260510445,
			"0.017": 0.0,
			"0.018": 0.0,
			"0.019": 0.0,
			"0.02": 0.0,
			"0.021": 0.0,
			"0.022": 0.0,
			"0.023": 0.0,
			"0.024": 0.0,
			"0.025": 0.0
		}
	}
}
