{
	 "smiles": "CC(O)C1=C(C)N=C(S1)C1=CC=C(Cl)C=C1", 
	 "Tm": 393.15, 
	 "num_atms": 28, 
	 "gaussian": { 
		 "optdone": 1, 
		 "sigma_profile": "yes", 
		 "theory": "DFT", 
		 "functional": "B3LYP", 
		 "basiset": "6-31G**", 
		 "properties": { 
			 "R2extent": 6782.7759, 
			 "electric_dipole_moment_norm": 1.91060317963, 
			 "electric_quadrupole_moment_norm": 8.73131104417, 
			 "total_energy": -1452.869178, 
			 "HOMO_LUMO_gap": 0.15842, 
			 "cosmo_polarized_energy": -9.57, 
			 "cosmo_cavitation_energy": 34.88, 
			 "cosmo_dispersion_energy": -25.9, 
			 "cosmo_repulsion_energy": 1.98, 
			 "cosmo_total_nonelectrostatic_energy": 10.97, 
			 "SMD_solvation_energy": 4.13 
		},
		"coords": [
			{
				"x": -1.7370776181,
				"y": -4.2818831072,
				"z": -1.5245941732,
				"element": "C" 
			},
			{
				"x": -1.1522416917,
				"y": -3.3255704822,
				"z": -2.5665964058,
				"element": "C" 
			},
			{
				"x": -0.037831554,
				"y": -3.926297099,
				"z": -3.2379263027,
				"element": "O" 
			},
			{
				"x": -0.792565492,
				"y": -1.9554359372,
				"z": -2.0271605918,
				"element": "C" 
			},
			{
				"x": -0.2911166042,
				"y": -0.8818417319,
				"z": -2.7308523703,
				"element": "C" 
			},
			{
				"x": -0.0218355444,
				"y": -0.8505373929,
				"z": -4.2087937622,
				"element": "C" 
			},
			{
				"x": -0.0389346237,
				"y": 0.2471549685,
				"z": -1.9892517262,
				"element": "N" 
			},
			{
				"x": -0.3282920809,
				"y": 0.0889356587,
				"z": -0.7235946271,
				"element": "C" 
			},
			{
				"x": -0.9503258804,
				"y": -1.5131012103,
				"z": -0.3423609544,
				"element": "S" 
			},
			{
				"x": -0.1546198233,
				"y": 1.1369408069,
				"z": 0.2900220894,
				"element": "C" 
			},
			{
				"x": -0.4744818558,
				"y": 0.937327208,
				"z": 1.6424148425,
				"element": "C" 
			},
			{
				"x": -0.2983864495,
				"y": 1.9529033805,
				"z": 2.5783584055,
				"element": "C" 
			},
			{
				"x": 0.203989973,
				"y": 3.1848127664,
				"z": 2.1596755609,
				"element": "C" 
			},
			{
				"x": 0.4290861137,
				"y": 4.4705297748,
				"z": 3.3343416476,
				"element": "Cl" 
			},
			{
				"x": 0.5302468462,
				"y": 3.410139399,
				"z": 0.8210977043,
				"element": "C" 
			},
			{
				"x": 0.3502221062,
				"y": 2.388731353,
				"z": -0.1050944348,
				"element": "C" 
			},
			{
				"x": -2.662242392,
				"y": -3.8892970007,
				"z": -1.0906476231,
				"element": "H" 
			},
			{
				"x": -1.9557519427,
				"y": -5.240152018,
				"z": -2.001794291,
				"element": "H" 
			},
			{
				"x": -1.0254062694,
				"y": -4.4620561193,
				"z": -0.7106759393,
				"element": "H" 
			},
			{
				"x": -1.8935885311,
				"y": -3.1910604337,
				"z": -3.3638918357,
				"element": "H" 
			},
			{
				"x": 0.7108505916,
				"y": -3.9098300984,
				"z": -2.625390389,
				"element": "H" 
			},
			{
				"x": 0.0376092465,
				"y": -1.8592513943,
				"z": -4.6190193474,
				"element": "H" 
			},
			{
				"x": 0.9219990695,
				"y": -0.3325580932,
				"z": -4.4022222082,
				"element": "H" 
			},
			{
				"x": -0.8078709277,
				"y": -0.2957193227,
				"z": -4.735149898,
				"element": "H" 
			},
			{
				"x": -0.8664867704,
				"y": -0.0188190419,
				"z": 1.9773400709,
				"element": "H" 
			},
			{
				"x": -0.5474722982,
				"y": 1.7925860762,
				"z": 3.6212864725,
				"element": "H" 
			},
			{
				"x": 0.9197444537,
				"y": 4.3737937952,
				"z": 0.5119578404,
				"element": "H" 
			},
			{
				"x": 0.597079949,
				"y": 2.5425552958,
				"z": -1.149477754,
				"element": "H" 
			}
		],
		 "valence_orbital": [ 
			{
				"type": "occ",
				"energy": -0.28144,
				"method": "rhf"
			},
			{
				"type": "occ",
				"energy": -0.27237,
				"method": "rhf"
			},
			{
				"type": "occ",
				"energy": -0.26926,
				"method": "rhf"
			},
			{
				"type": "occ",
				"energy": -0.26639,
				"method": "rhf"
			},
			{
				"type": "occ",
				"energy": -0.21819,
				"method": "rhf"
			},
			{
				"type": "unocc",
				"energy": -0.05977,
				"method": "rhf"
			},
			{
				"type": "unocc",
				"energy": -0.01806,
				"method": "rhf"
			},
			{
				"type": "unocc",
				"energy": 0.0096,
				"method": "rhf"
			},
			{
				"type": "unocc",
				"energy": 0.01441,
				"method": "rhf"
			},
			{
				"type": "unocc",
				"energy": 0.0298,
				"method": "rhf"
			}
		],
		"cosmo_sigma_profile": { 
			"-0.025": 0.0,
			"-0.024": 0.0,
			"-0.023": 0.0,
			"-0.022": 0.0,
			"-0.021": 0.0,
			"-0.02": 0.0,
			"-0.019": 0.0,
			"-0.018": 0.0,
			"-0.017": 0.0,
			"-0.016": 0.102949000188,
			"-0.015": 0.811422400648,
			"-0.014": 0.893616842404,
			"-0.013": 0.626873122697,
			"-0.012": 1.09705953116,
			"-0.011": 0.678539407716,
			"-0.01": 0.996371234817,
			"-0.009": 0.628426672717,
			"-0.008": 2.49307505456,
			"-0.007": 6.27201144917,
			"-0.006": 8.65362262783,
			"-0.005": 13.1116866656,
			"-0.004": 18.6780126181,
			"-0.003": 18.0893898071,
			"-0.002": 23.231525858,
			"-0.001": 26.0188639901,
			"0.0": 29.2894905518,
			"0.001": 28.9612676239,
			"0.002": 31.1665039762,
			"0.003": 27.6778682338,
			"0.004": 14.9669143995,
			"0.005": 7.93242973263,
			"0.006": 2.82576277667,
			"0.007": 3.78473994242,
			"0.008": 2.61857022037,
			"0.009": 1.65190625688,
			"0.01": 2.30584005893,
			"0.011": 2.25252798325,
			"0.012": 1.54678343897,
			"0.013": 1.46428328234,
			"0.014": 0.900291148598,
			"0.015": 0.0,
			"0.016": 0.0,
			"0.017": 0.0,
			"0.018": 0.0,
			"0.019": 0.0,
			"0.02": 0.0,
			"0.021": 0.0,
			"0.022": 0.0,
			"0.023": 0.0,
			"0.024": 0.0,
			"0.025": 0.0
		}
	}
}
