{
	 "smiles": "ClC1=CN2C=C(C=O)N=C2C=C1", 
	 "Tm": 457.15, 
	 "num_atms": 17, 
	 "gaussian": { 
		 "optdone": 1, 
		 "sigma_profile": "yes", 
		 "theory": "DFT", 
		 "functional": "B3LYP", 
		 "basiset": "6-31G**", 
		 "properties": { 
			 "R2extent": 4158.694, 
			 "electric_dipole_moment_norm": 3.46383003192, 
			 "electric_quadrupole_moment_norm": 12.4477584673, 
			 "total_energy": -952.760842011, 
			 "HOMO_LUMO_gap": 0.16283, 
			 "cosmo_polarized_energy": -11.92, 
			 "cosmo_cavitation_energy": 24.31, 
			 "cosmo_dispersion_energy": -18.08, 
			 "cosmo_repulsion_energy": 1.42, 
			 "cosmo_total_nonelectrostatic_energy": 7.65, 
			 "SMD_solvation_energy": 3.73 
		},
		"coords": [
			{
				"x": -2.6907308778,
				"y": 4.0944622993,
				"z": 1.3741443751,
				"element": "Cl" 
			},
			{
				"x": -2.0399325692,
				"y": 2.4969098438,
				"z": 1.0865519659,
				"element": "C" 
			},
			{
				"x": -1.6853784817,
				"y": 1.7238514179,
				"z": 2.154732423,
				"element": "C" 
			},
			{
				"x": -1.174448928,
				"y": 0.4682771288,
				"z": 1.9114435694,
				"element": "N" 
			},
			{
				"x": -0.7429083013,
				"y": -0.5078288669,
				"z": 2.7702279498,
				"element": "C" 
			},
			{
				"x": -0.3364704629,
				"y": -1.5557942894,
				"z": 1.9552859459,
				"element": "C" 
			},
			{
				"x": 0.2111329619,
				"y": -2.8453377654,
				"z": 2.4019708947,
				"element": "C" 
			},
			{
				"x": 0.3726183782,
				"y": -3.1426033311,
				"z": 3.5717764158,
				"element": "O" 
			},
			{
				"x": -0.49977492,
				"y": -1.266159169,
				"z": 0.6282282211,
				"element": "N" 
			},
			{
				"x": -1.0065928157,
				"y": -0.041916837,
				"z": 0.601053363,
				"element": "C" 
			},
			{
				"x": -1.3831981207,
				"y": 0.7829400814,
				"z": -0.4869108618,
				"element": "C" 
			},
			{
				"x": -1.8926334642,
				"y": 2.0339971089,
				"z": -0.2549595639,
				"element": "C" 
			},
			{
				"x": -1.7800946274,
				"y": 2.0349171393,
				"z": 3.1865002956,
				"element": "H" 
			},
			{
				"x": -0.7535684788,
				"y": -0.3969801352,
				"z": 3.8426386194,
				"element": "H" 
			},
			{
				"x": 0.4695691999,
				"y": -3.5354797116,
				"z": 1.57322735,
				"element": "H" 
			},
			{
				"x": -1.2545607284,
				"y": 0.3920831448,
				"z": -1.4893123739,
				"element": "H" 
			},
			{
				"x": -2.1870277639,
				"y": 2.6814619414,
				"z": -1.072298589,
				"element": "H" 
			}
		],
		 "valence_orbital": [ 
			{
				"type": "occ",
				"energy": -0.32853,
				"method": "rhf"
			},
			{
				"type": "occ",
				"energy": -0.29694,
				"method": "rhf"
			},
			{
				"type": "occ",
				"energy": -0.25903,
				"method": "rhf"
			},
			{
				"type": "occ",
				"energy": -0.25629,
				"method": "rhf"
			},
			{
				"type": "occ",
				"energy": -0.23572,
				"method": "rhf"
			},
			{
				"type": "unocc",
				"energy": -0.07289,
				"method": "rhf"
			},
			{
				"type": "unocc",
				"energy": -0.04003,
				"method": "rhf"
			},
			{
				"type": "unocc",
				"energy": -0.01029,
				"method": "rhf"
			},
			{
				"type": "unocc",
				"energy": 0.00583,
				"method": "rhf"
			},
			{
				"type": "unocc",
				"energy": 0.09473,
				"method": "rhf"
			}
		],
		"cosmo_sigma_profile": { 
			"-0.025": 0.0,
			"-0.024": 0.0,
			"-0.023": 0.0,
			"-0.022": 0.0,
			"-0.021": 0.0,
			"-0.02": 0.0,
			"-0.019": 0.0,
			"-0.018": 0.0,
			"-0.017": 0.0,
			"-0.016": 0.0,
			"-0.015": 0.0,
			"-0.014": 0.0,
			"-0.013": 0.0385066277949,
			"-0.012": 1.18527323057,
			"-0.011": 3.24166185141,
			"-0.01": 3.06160707915,
			"-0.009": 3.26611124372,
			"-0.008": 6.62667693361,
			"-0.007": 5.90814619027,
			"-0.006": 9.11249118204,
			"-0.005": 7.1705920493,
			"-0.004": 9.92587547073,
			"-0.003": 13.6453992556,
			"-0.002": 15.1369482635,
			"-0.001": 15.1325654432,
			"0.0": 21.5628397824,
			"0.001": 19.0801185923,
			"0.002": 10.8663216755,
			"0.003": 11.7262807456,
			"0.004": 10.6610434546,
			"0.005": 4.21659809816,
			"0.006": 1.99426259429,
			"0.007": 2.9093543597,
			"0.008": 3.44935833777,
			"0.009": 2.37962454195,
			"0.01": 3.86102622756,
			"0.011": 5.35520073775,
			"0.012": 3.49446905525,
			"0.013": 1.92307322457,
			"0.014": 0.804380076304,
			"0.015": 0.661845956782,
			"0.016": 0.6749606372,
			"0.017": 0.093808021359,
			"0.018": 0.0,
			"0.019": 0.0,
			"0.02": 0.0,
			"0.021": 0.0,
			"0.022": 0.0,
			"0.023": 0.0,
			"0.024": 0.0,
			"0.025": 0.0
		}
	}
}
