{
	 "smiles": "CC12CCC(O)CC1CCC1C3CC[C@@](O)(C#CC4=CC=CC=C4)C3CCC21", 
	 "Tm": 395.15, 
	 "num_atms": 62, 
	 "gaussian": { 
		 "optdone": 1, 
		 "sigma_profile": "yes", 
		 "theory": "DFT", 
		 "functional": "B3LYP", 
		 "basiset": "6-31G**", 
		 "properties": { 
			 "R2extent": 17273.5544, 
			 "electric_dipole_moment_norm": 2.45248579812, 
			 "electric_quadrupole_moment_norm": 13.1460702079, 
			 "total_energy": -1161.65432112, 
			 "HOMO_LUMO_gap": 0.19514, 
			 "cosmo_polarized_energy": -13.04, 
			 "cosmo_cavitation_energy": 55.33, 
			 "cosmo_dispersion_energy": -38.93, 
			 "cosmo_repulsion_energy": 2.89, 
			 "cosmo_total_nonelectrostatic_energy": 19.28, 
			 "SMD_solvation_energy": 7.7 
		},
		"coords": [
			{
				"x": 0.4783043644,
				"y": -2.2107940204,
				"z": -1.1384625874,
				"element": "C" 
			},
			{
				"x": -1.03697436,
				"y": -2.0878873967,
				"z": -0.8665561251,
				"element": "C" 
			},
			{
				"x": -1.7808540411,
				"y": -2.2653522377,
				"z": -2.2364930172,
				"element": "C" 
			},
			{
				"x": -2.1163132919,
				"y": -3.7259867055,
				"z": -2.5598000697,
				"element": "C" 
			},
			{
				"x": -3.0970724496,
				"y": -4.3231972969,
				"z": -1.5362269495,
				"element": "C" 
			},
			{
				"x": -2.8229197679,
				"y": -5.726451302,
				"z": -1.4993825532,
				"element": "O" 
			},
			{
				"x": -2.9194522316,
				"y": -3.6652725408,
				"z": -0.1496813607,
				"element": "C" 
			},
			{
				"x": -1.4507123701,
				"y": -3.271691665,
				"z": 0.0829178164,
				"element": "C" 
			},
			{
				"x": -1.1059673992,
				"y": -3.0062639907,
				"z": 1.5586806383,
				"element": "C" 
			},
			{
				"x": -1.6902818115,
				"y": -1.6927840076,
				"z": 2.0853841498,
				"element": "C" 
			},
			{
				"x": -1.2269781468,
				"y": -0.4756067166,
				"z": 1.2624094847,
				"element": "C" 
			},
			{
				"x": 0.2081817485,
				"y": -0.0181208371,
				"z": 1.6247208006,
				"element": "C" 
			},
			{
				"x": 0.26794298,
				"y": 0.5820747342,
				"z": 3.0688411166,
				"element": "C" 
			},
			{
				"x": 0.7917238651,
				"y": 2.0281170418,
				"z": 2.9295366831,
				"element": "C" 
			},
			{
				"x": 0.4426926591,
				"y": 2.4267721618,
				"z": 1.4772072846,
				"element": "C" 
			},
			{
				"x": -0.9679628726,
				"y": 2.6778600966,
				"z": 1.3464411822,
				"element": "O" 
			},
			{
				"x": 1.2048006414,
				"y": 3.5880568916,
				"z": 1.0000032141,
				"element": "C" 
			},
			{
				"x": 1.8112174109,
				"y": 4.5689099628,
				"z": 0.6199521693,
				"element": "C" 
			},
			{
				"x": 2.528198904,
				"y": 5.7205024408,
				"z": 0.1693822597,
				"element": "C" 
			},
			{
				"x": 3.5889921772,
				"y": 6.2479925273,
				"z": 0.9314091801,
				"element": "C" 
			},
			{
				"x": 4.2846010226,
				"y": 7.3701524219,
				"z": 0.4881223713,
				"element": "C" 
			},
			{
				"x": 3.9353257055,
				"y": 7.9853077126,
				"z": -0.7165724097,
				"element": "C" 
			},
			{
				"x": 2.8842060249,
				"y": 7.4704228383,
				"z": -1.4793765738,
				"element": "C" 
			},
			{
				"x": 2.1847853451,
				"y": 6.3474074837,
				"z": -1.0444728564,
				"element": "C" 
			},
			{
				"x": 0.7593422976,
				"y": 1.1167155642,
				"z": 0.7072884188,
				"element": "C" 
			},
			{
				"x": 0.3376895238,
				"y": 1.0745568877,
				"z": -0.7721010738,
				"element": "C" 
			},
			{
				"x": -1.0884140564,
				"y": 0.5592836759,
				"z": -1.0351771841,
				"element": "C" 
			},
			{
				"x": -1.4913550493,
				"y": -0.711998181,
				"z": -0.2501284436,
				"element": "C" 
			},
			{
				"x": 1.0821470051,
				"y": -2.1172979866,
				"z": -0.2317227769,
				"element": "H" 
			},
			{
				"x": 0.8265357109,
				"y": -1.4612190822,
				"z": -1.8527361327,
				"element": "H" 
			},
			{
				"x": 0.6977427863,
				"y": -3.1932114332,
				"z": -1.5729066313,
				"element": "H" 
			},
			{
				"x": -1.1752579816,
				"y": -1.8404055068,
				"z": -3.0446485347,
				"element": "H" 
			},
			{
				"x": -2.7147137299,
				"y": -1.6878511406,
				"z": -2.2295632442,
				"element": "H" 
			},
			{
				"x": -1.2091197463,
				"y": -4.3406959458,
				"z": -2.5392884797,
				"element": "H" 
			},
			{
				"x": -2.5253963147,
				"y": -3.8167900306,
				"z": -3.5715381631,
				"element": "H" 
			},
			{
				"x": -4.1320515681,
				"y": -4.15749231,
				"z": -1.8779887562,
				"element": "H" 
			},
			{
				"x": -3.4696030965,
				"y": -6.1379242814,
				"z": -0.911292967,
				"element": "H" 
			},
			{
				"x": -3.5769885849,
				"y": -2.7907674679,
				"z": -0.0736290414,
				"element": "H" 
			},
			{
				"x": -3.2583474508,
				"y": -4.3687049083,
				"z": 0.6232260906,
				"element": "H" 
			},
			{
				"x": -0.8635203407,
				"y": -4.1488991948,
				"z": -0.2195861134,
				"element": "H" 
			},
			{
				"x": -1.4612881986,
				"y": -3.8480768435,
				"z": 2.1671547589,
				"element": "H" 
			},
			{
				"x": -0.0149120002,
				"y": -2.9942578323,
				"z": 1.677347275,
				"element": "H" 
			},
			{
				"x": -2.7867916631,
				"y": -1.7437984557,
				"z": 2.0481429246,
				"element": "H" 
			},
			{
				"x": -1.4319351011,
				"y": -1.564596345,
				"z": 3.1435568913,
				"element": "H" 
			},
			{
				"x": -1.8721692702,
				"y": 0.3703647974,
				"z": 1.5299708695,
				"element": "H" 
			},
			{
				"x": 0.8859102805,
				"y": -0.8757614292,
				"z": 1.5560751281,
				"element": "H" 
			},
			{
				"x": -0.7330672851,
				"y": 0.5891485344,
				"z": 3.5106300995,
				"element": "H" 
			},
			{
				"x": 0.9038939639,
				"y": -0.0051134292,
				"z": 3.738097054,
				"element": "H" 
			},
			{
				"x": 1.8787528251,
				"y": 2.0714782375,
				"z": 3.0568161458,
				"element": "H" 
			},
			{
				"x": 0.3522697215,
				"y": 2.7229545014,
				"z": 3.6530375793,
				"element": "H" 
			},
			{
				"x": -1.1484999977,
				"y": 3.5322358682,
				"z": 1.7613610528,
				"element": "H" 
			},
			{
				"x": 3.8570627239,
				"y": 5.7680888814,
				"z": 1.8672365932,
				"element": "H" 
			},
			{
				"x": 5.1013401705,
				"y": 7.7663442937,
				"z": 1.0846641526,
				"element": "H" 
			},
			{
				"x": 4.4793996328,
				"y": 8.8606390974,
				"z": -1.0591844869,
				"element": "H" 
			},
			{
				"x": 2.6091937059,
				"y": 7.9446591084,
				"z": -2.4171047937,
				"element": "H" 
			},
			{
				"x": 1.3690927393,
				"y": 5.9430036735,
				"z": -1.6351703474,
				"element": "H" 
			},
			{
				"x": 1.8543681795,
				"y": 1.0538952366,
				"z": 0.7372617057,
				"element": "H" 
			},
			{
				"x": 1.0613135352,
				"y": 0.4551107168,
				"z": -1.3088132977,
				"element": "H" 
			},
			{
				"x": 0.4398666421,
				"y": 2.080765871,
				"z": -1.1960787431,
				"element": "H" 
			},
			{
				"x": -1.2202802507,
				"y": 0.4062796095,
				"z": -2.1128663161,
				"element": "H" 
			},
			{
				"x": -1.7885688777,
				"y": 1.3501801352,
				"z": -0.7462869533,
				"element": "H" 
			},
			{
				"x": -2.588224987,
				"y": -0.7542104821,
				"z": -0.3178381074,
				"element": "H" 
			}
		],
		 "valence_orbital": [ 
			{
				"type": "occ",
				"energy": -0.26325,
				"method": "rhf"
			},
			{
				"type": "occ",
				"energy": -0.25743,
				"method": "rhf"
			},
			{
				"type": "occ",
				"energy": -0.25597,
				"method": "rhf"
			},
			{
				"type": "occ",
				"energy": -0.25239,
				"method": "rhf"
			},
			{
				"type": "occ",
				"energy": -0.22537,
				"method": "rhf"
			},
			{
				"type": "unocc",
				"energy": -0.03023,
				"method": "rhf"
			},
			{
				"type": "unocc",
				"energy": -0.00487,
				"method": "rhf"
			},
			{
				"type": "unocc",
				"energy": 0.04736,
				"method": "rhf"
			},
			{
				"type": "unocc",
				"energy": 0.06388,
				"method": "rhf"
			},
			{
				"type": "unocc",
				"energy": 0.07668,
				"method": "rhf"
			}
		],
		"cosmo_sigma_profile": { 
			"-0.025": 0.0,
			"-0.024": 0.0,
			"-0.023": 0.0,
			"-0.022": 0.0,
			"-0.021": 0.0,
			"-0.02": 0.0,
			"-0.019": 0.0,
			"-0.018": 0.0,
			"-0.017": 0.0,
			"-0.016": 0.0794085569824,
			"-0.015": 1.08185345319,
			"-0.014": 1.94265517341,
			"-0.013": 1.57730394706,
			"-0.012": 1.8513193141,
			"-0.011": 1.25748426471,
			"-0.01": 1.88498799275,
			"-0.009": 1.84360714028,
			"-0.008": 0.9404212237,
			"-0.007": 2.73696464207,
			"-0.006": 11.1750719725,
			"-0.005": 12.3904643138,
			"-0.004": 16.8974504478,
			"-0.003": 27.8773840512,
			"-0.002": 53.2356171436,
			"-0.001": 59.9509464082,
			"0.0": 57.0534168743,
			"0.001": 53.8129250553,
			"0.002": 31.5692022377,
			"0.003": 20.7506208688,
			"0.004": 22.4360465942,
			"0.005": 18.3286854431,
			"0.006": 6.62914710884,
			"0.007": 3.57170521061,
			"0.008": 3.96462428342,
			"0.009": 3.78818404305,
			"0.01": 2.83890954799,
			"0.011": 1.37044775628,
			"0.012": 1.13343853582,
			"0.013": 1.37073979908,
			"0.014": 1.90187552059,
			"0.015": 1.23846974509,
			"0.016": 0.0252138503685,
			"0.017": 0.0,
			"0.018": 0.0,
			"0.019": 0.0,
			"0.02": 0.0,
			"0.021": 0.0,
			"0.022": 0.0,
			"0.023": 0.0,
			"0.024": 0.0,
			"0.025": 0.0
		}
	}
}
