{
	 "smiles": "CC1=NN(C2=C1C=C(Br)C=N2)C1=CC(Cl)=CC=C1", 
	 "Tm": 388.15, 
	 "num_atms": 27, 
	 "gaussian": { 
		 "optdone": 1, 
		 "sigma_profile": "yes", 
		 "theory": "DFT", 
		 "functional": "B3LYP", 
		 "basiset": "6-31G**", 
		 "properties": { 
			 "R2extent": 10063.9722, 
			 "electric_dipole_moment_norm": 2.48474130243, 
			 "electric_quadrupole_moment_norm": 17.6898985034, 
			 "total_energy": -3696.65445468, 
			 "HOMO_LUMO_gap": 0.1566, 
			 "cosmo_polarized_energy": -7.49, 
			 "cosmo_cavitation_energy": 35.86, 
			 "cosmo_dispersion_energy": -26.87, 
			 "cosmo_repulsion_energy": 2.06, 
			 "cosmo_total_nonelectrostatic_energy": 11.05, 
			 "SMD_solvation_energy": 3.0 
		},
		"coords": [
			{
				"x": 1.0985351551,
				"y": -0.0028802225,
				"z": -3.4991969494,
				"element": "C" 
			},
			{
				"x": 0.2404592593,
				"y": -0.1704274106,
				"z": -2.2863657405,
				"element": "C" 
			},
			{
				"x": -0.4565030716,
				"y": 0.8360446795,
				"z": -1.7982404588,
				"element": "N" 
			},
			{
				"x": -1.1410910924,
				"y": 0.3902961879,
				"z": -0.6948757045,
				"element": "N" 
			},
			{
				"x": -0.8700826986,
				"y": -0.9444700788,
				"z": -0.4743684538,
				"element": "C" 
			},
			{
				"x": 0.0286469033,
				"y": -1.3453740034,
				"z": -1.4939522389,
				"element": "C" 
			},
			{
				"x": 0.4696819707,
				"y": -2.6731446594,
				"z": -1.5025334074,
				"element": "C" 
			},
			{
				"x": -0.0196421669,
				"y": -3.492506757,
				"z": -0.4962512501,
				"element": "C" 
			},
			{
				"x": 0.5044544531,
				"y": -5.3231388017,
				"z": -0.3968132937,
				"element": "Br" 
			},
			{
				"x": -0.9139244067,
				"y": -2.9903266757,
				"z": 0.4734579206,
				"element": "C" 
			},
			{
				"x": -1.3446886797,
				"y": -1.7315680936,
				"z": 0.4983905335,
				"element": "N" 
			},
			{
				"x": -1.9726671049,
				"y": 1.2967692412,
				"z": 0.0154301612,
				"element": "C" 
			},
			{
				"x": -2.0605936271,
				"y": 2.618638223,
				"z": -0.4439056495,
				"element": "C" 
			},
			{
				"x": -2.8719608633,
				"y": 3.5130131327,
				"z": 0.2447161784,
				"element": "C" 
			},
			{
				"x": -2.981312738,
				"y": 5.1714679255,
				"z": -0.3329877243,
				"element": "Cl" 
			},
			{
				"x": -3.5977529882,
				"y": 3.135714439,
				"z": 1.3739648797,
				"element": "C" 
			},
			{
				"x": -3.493795746,
				"y": 1.8159062502,
				"z": 1.8111194131,
				"element": "C" 
			},
			{
				"x": -2.6908050059,
				"y": 0.889032711,
				"z": 1.1477973963,
				"element": "C" 
			},
			{
				"x": 0.7824125647,
				"y": -0.6747692317,
				"z": -4.3051140096,
				"element": "H" 
			},
			{
				"x": 2.147907423,
				"y": -0.2274318395,
				"z": -3.2772382305,
				"element": "H" 
			},
			{
				"x": 1.0324165676,
				"y": 1.0256246804,
				"z": -3.8589658823,
				"element": "H" 
			},
			{
				"x": 1.1570767401,
				"y": -3.0506820019,
				"z": -2.2516099084,
				"element": "H" 
			},
			{
				"x": -1.2842612212,
				"y": -3.6507610739,
				"z": 1.2525898145,
				"element": "H" 
			},
			{
				"x": -1.5038388118,
				"y": 2.9258668155,
				"z": -1.3179290541,
				"element": "H" 
			},
			{
				"x": -4.2224850895,
				"y": 3.8547743268,
				"z": 1.8909084061,
				"element": "H" 
			},
			{
				"x": -4.0500023499,
				"y": 1.499456421,
				"z": 2.6884090558,
				"element": "H" 
			},
			{
				"x": -2.617083375,
				"y": -0.1322241838,
				"z": 1.4949641967,
				"element": "H" 
			}
		],
		 "valence_orbital": [ 
			{
				"type": "occ",
				"energy": -0.28205,
				"method": "rhf"
			},
			{
				"type": "occ",
				"energy": -0.27804,
				"method": "rhf"
			},
			{
				"type": "occ",
				"energy": -0.26159,
				"method": "rhf"
			},
			{
				"type": "occ",
				"energy": -0.24837,
				"method": "rhf"
			},
			{
				"type": "occ",
				"energy": -0.22354,
				"method": "rhf"
			},
			{
				"type": "unocc",
				"energy": -0.06694,
				"method": "rhf"
			},
			{
				"type": "unocc",
				"energy": -0.03425,
				"method": "rhf"
			},
			{
				"type": "unocc",
				"energy": -0.01322,
				"method": "rhf"
			},
			{
				"type": "unocc",
				"energy": -0.00576,
				"method": "rhf"
			},
			{
				"type": "unocc",
				"energy": 0.00586,
				"method": "rhf"
			}
		],
		"cosmo_sigma_profile": { 
			"-0.025": 0.0,
			"-0.024": 0.0,
			"-0.023": 0.0,
			"-0.022": 0.0,
			"-0.021": 0.0,
			"-0.02": 0.0,
			"-0.019": 0.0,
			"-0.018": 0.0,
			"-0.017": 0.0,
			"-0.016": 0.0,
			"-0.015": 0.0,
			"-0.014": 0.0,
			"-0.013": 0.0,
			"-0.012": 0.0,
			"-0.011": 0.0,
			"-0.01": 0.0,
			"-0.009": 0.932927739947,
			"-0.008": 3.41609732,
			"-0.007": 5.81019557581,
			"-0.006": 9.9317562629,
			"-0.005": 18.4080510804,
			"-0.004": 15.8879265414,
			"-0.003": 16.6974102069,
			"-0.002": 23.4282679799,
			"-0.001": 32.1269328133,
			"0.0": 30.9910018901,
			"0.001": 27.779909248,
			"0.002": 29.3652161679,
			"0.003": 31.5744909141,
			"0.004": 26.6217359708,
			"0.005": 12.016965534,
			"0.006": 3.70877101804,
			"0.007": 2.9243181607,
			"0.008": 2.01495054882,
			"0.009": 1.34384142551,
			"0.01": 0.0666934694402,
			"0.011": 0.0,
			"0.012": 0.0,
			"0.013": 0.0,
			"0.014": 0.0,
			"0.015": 0.0,
			"0.016": 0.0,
			"0.017": 0.0,
			"0.018": 0.0,
			"0.019": 0.0,
			"0.02": 0.0,
			"0.021": 0.0,
			"0.022": 0.0,
			"0.023": 0.0,
			"0.024": 0.0,
			"0.025": 0.0
		}
	}
}
