{
	 "smiles": "NC1=C(Cl)C=CC(=C1)C(=O)N1CCCC1", 
	 "Tm": 411.15, 
	 "num_atms": 28, 
	 "gaussian": { 
		 "optdone": 1, 
		 "sigma_profile": "yes", 
		 "theory": "DFT", 
		 "functional": "B3LYP", 
		 "basiset": "6-31G**", 
		 "properties": { 
			 "R2extent": 4984.6145, 
			 "electric_dipole_moment_norm": 3.99555390403, 
			 "electric_quadrupole_moment_norm": 17.5796948372, 
			 "total_energy": -1071.94483873, 
			 "HOMO_LUMO_gap": 0.18465, 
			 "cosmo_polarized_energy": -14.23, 
			 "cosmo_cavitation_energy": 32.13, 
			 "cosmo_dispersion_energy": -23.82, 
			 "cosmo_repulsion_energy": 1.89, 
			 "cosmo_total_nonelectrostatic_energy": 10.2, 
			 "SMD_solvation_energy": 4.35 
		},
		"coords": [
			{
				"x": -1.9462020079,
				"y": 4.0436474733,
				"z": 0.378632305,
				"element": "N" 
			},
			{
				"x": -0.9902922891,
				"y": 3.0712352698,
				"z": 0.1438747681,
				"element": "C" 
			},
			{
				"x": 0.1303033332,
				"y": 3.3092269922,
				"z": -0.6774686756,
				"element": "C" 
			},
			{
				"x": 0.2759243521,
				"y": 4.8644572258,
				"z": -1.4977374767,
				"element": "Cl" 
			},
			{
				"x": 1.1266883795,
				"y": 2.3544666228,
				"z": -0.8534523662,
				"element": "C" 
			},
			{
				"x": 1.0196561041,
				"y": 1.1108968674,
				"z": -0.234683664,
				"element": "C" 
			},
			{
				"x": -0.0924357342,
				"y": 0.8347347026,
				"z": 0.5730613422,
				"element": "C" 
			},
			{
				"x": -1.0654070458,
				"y": 1.8150362155,
				"z": 0.7693287707,
				"element": "C" 
			},
			{
				"x": -0.2512856151,
				"y": -0.4497789766,
				"z": 1.3455251021,
				"element": "C" 
			},
			{
				"x": -0.6115671424,
				"y": -0.4198307323,
				"z": 2.5222618574,
				"element": "O" 
			},
			{
				"x": 0.0212768291,
				"y": -1.6308085834,
				"z": 0.7006587441,
				"element": "N" 
			},
			{
				"x": -0.2072518279,
				"y": -2.8975299338,
				"z": 1.422648771,
				"element": "C" 
			},
			{
				"x": -0.7305608185,
				"y": -3.8495696485,
				"z": 0.3418383802,
				"element": "C" 
			},
			{
				"x": -0.0041874108,
				"y": -3.3657690232,
				"z": -0.9221722456,
				"element": "C" 
			},
			{
				"x": 0.0215377999,
				"y": -1.8359268795,
				"z": -0.7647315078,
				"element": "C" 
			},
			{
				"x": -2.0049725553,
				"y": 4.7888237014,
				"z": -0.3000209479,
				"element": "H" 
			},
			{
				"x": -2.8407982648,
				"y": 3.7137828047,
				"z": 0.708388078,
				"element": "H" 
			},
			{
				"x": 1.9835427813,
				"y": 2.5930552295,
				"z": -1.4742078095,
				"element": "H" 
			},
			{
				"x": 1.8142485979,
				"y": 0.3828903437,
				"z": -0.351382517,
				"element": "H" 
			},
			{
				"x": -1.8902718996,
				"y": 1.602802383,
				"z": 1.443002137,
				"element": "H" 
			},
			{
				"x": 0.7362469089,
				"y": -3.2602096493,
				"z": 1.8522185965,
				"element": "H" 
			},
			{
				"x": -0.9018996713,
				"y": -2.7222702623,
				"z": 2.2455326654,
				"element": "H" 
			},
			{
				"x": -1.8138187141,
				"y": -3.7264377202,
				"z": 0.2268595014,
				"element": "H" 
			},
			{
				"x": -0.5356297434,
				"y": -4.899823879,
				"z": 0.5751361865,
				"element": "H" 
			},
			{
				"x": -0.4892520617,
				"y": -3.6735398895,
				"z": -1.8525783957,
				"element": "H" 
			},
			{
				"x": 1.0202260952,
				"y": -3.7552602529,
				"z": -0.9368301055,
				"element": "H" 
			},
			{
				"x": 0.9003277248,
				"y": -1.3965526926,
				"z": -1.2413284536,
				"element": "H" 
			},
			{
				"x": -0.8644461041,
				"y": -1.3716477086,
				"z": -1.2161730404,
				"element": "H" 
			}
		],
		 "valence_orbital": [ 
			{
				"type": "occ",
				"energy": -0.31508,
				"method": "rhf"
			},
			{
				"type": "occ",
				"energy": -0.25601,
				"method": "rhf"
			},
			{
				"type": "occ",
				"energy": -0.23604,
				"method": "rhf"
			},
			{
				"type": "occ",
				"energy": -0.23339,
				"method": "rhf"
			},
			{
				"type": "occ",
				"energy": -0.21095,
				"method": "rhf"
			},
			{
				"type": "unocc",
				"energy": -0.0263,
				"method": "rhf"
			},
			{
				"type": "unocc",
				"energy": 0.00131,
				"method": "rhf"
			},
			{
				"type": "unocc",
				"energy": 0.02965,
				"method": "rhf"
			},
			{
				"type": "unocc",
				"energy": 0.05199,
				"method": "rhf"
			},
			{
				"type": "unocc",
				"energy": 0.07677,
				"method": "rhf"
			}
		],
		"cosmo_sigma_profile": { 
			"-0.025": 0.0,
			"-0.024": 0.0,
			"-0.023": 0.0,
			"-0.022": 0.0,
			"-0.021": 0.0,
			"-0.02": 0.0,
			"-0.019": 0.0,
			"-0.018": 0.0,
			"-0.017": 0.0,
			"-0.016": 0.0,
			"-0.015": 0.0,
			"-0.014": 0.135502753392,
			"-0.013": 1.33934955318,
			"-0.012": 1.66567986936,
			"-0.011": 2.55849331292,
			"-0.01": 2.84007576077,
			"-0.009": 2.6325276366,
			"-0.008": 2.2935473737,
			"-0.007": 4.64515974404,
			"-0.006": 6.77160595058,
			"-0.005": 8.04370760114,
			"-0.004": 19.3408152841,
			"-0.003": 29.9583212867,
			"-0.002": 29.8940173646,
			"-0.001": 23.0999111365,
			"0.0": 19.8862359934,
			"0.001": 12.6926435332,
			"0.002": 15.2311136119,
			"0.003": 18.033671664,
			"0.004": 18.4517796269,
			"0.005": 9.75404770657,
			"0.006": 3.61446727637,
			"0.007": 2.20104930639,
			"0.008": 2.23840770436,
			"0.009": 2.14663013584,
			"0.01": 2.50670595013,
			"0.011": 2.20230495801,
			"0.012": 2.83964419935,
			"0.013": 2.82515994818,
			"0.014": 4.96384241827,
			"0.015": 1.04642709951,
			"0.016": 0.0,
			"0.017": 0.0,
			"0.018": 0.0,
			"0.019": 0.0,
			"0.02": 0.0,
			"0.021": 0.0,
			"0.022": 0.0,
			"0.023": 0.0,
			"0.024": 0.0,
			"0.025": 0.0
		}
	}
}
