{
	 "smiles": "FC1=C(Cl)C(CBr)=CC=C1", 
	 "Tm": 313.15, 
	 "num_atms": 15, 
	 "gaussian": { 
		 "optdone": 1, 
		 "sigma_profile": "yes", 
		 "theory": "DFT", 
		 "functional": "B3LYP", 
		 "basiset": "6-31G**", 
		 "properties": { 
			 "R2extent": 3112.9213, 
			 "electric_dipole_moment_norm": 3.19374620469, 
			 "electric_quadrupole_moment_norm": 10.6528889471, 
			 "total_energy": -3401.1894807, 
			 "HOMO_LUMO_gap": 0.2042, 
			 "cosmo_polarized_energy": -6.63, 
			 "cosmo_cavitation_energy": 23.56, 
			 "cosmo_dispersion_energy": -17.52, 
			 "cosmo_repulsion_energy": 1.4, 
			 "cosmo_total_nonelectrostatic_energy": 7.44, 
			 "SMD_solvation_energy": 3.06 
		},
		"coords": [
			{
				"x": 0.2609680545,
				"y": 2.0071800199,
				"z": 3.3820197368,
				"element": "F" 
			},
			{
				"x": 0.8691817655,
				"y": 0.993218933,
				"z": 2.7490843591,
				"element": "C" 
			},
			{
				"x": 0.3586864104,
				"y": 0.5416743116,
				"z": 1.5297910154,
				"element": "C" 
			},
			{
				"x": -1.0636776158,
				"y": 1.3232857042,
				"z": 0.8868123361,
				"element": "Cl" 
			},
			{
				"x": 0.9914484756,
				"y": -0.5166580844,
				"z": 0.8554464275,
				"element": "C" 
			},
			{
				"x": 0.4962870343,
				"y": -1.0260793313,
				"z": -0.4583611669,
				"element": "C" 
			},
			{
				"x": -0.8824677842,
				"y": -2.4591089381,
				"z": -0.2359343141,
				"element": "Br" 
			},
			{
				"x": 2.1292341547,
				"y": -1.0915223906,
				"z": 1.4416198586,
				"element": "C" 
			},
			{
				"x": 2.6277033879,
				"y": -0.6336803563,
				"z": 2.658402946,
				"element": "C" 
			},
			{
				"x": 1.9960365439,
				"y": 0.4175427827,
				"z": 3.3217704165,
				"element": "C" 
			},
			{
				"x": 0.0018940775,
				"y": -0.2622362228,
				"z": -1.0526752492,
				"element": "H" 
			},
			{
				"x": 1.2905879813,
				"y": -1.499837393,
				"z": -1.0308674502,
				"element": "H" 
			},
			{
				"x": 2.6192638162,
				"y": -1.9139237277,
				"z": 0.9291704714,
				"element": "H" 
			},
			{
				"x": 3.5095425511,
				"y": -1.0930046959,
				"z": 3.0929626158,
				"element": "H" 
			},
			{
				"x": 2.355011147,
				"y": 0.8021493887,
				"z": 4.2700579972,
				"element": "H" 
			}
		],
		 "valence_orbital": [ 
			{
				"type": "occ",
				"energy": -0.32449,
				"method": "rhf"
			},
			{
				"type": "occ",
				"energy": -0.28034,
				"method": "rhf"
			},
			{
				"type": "occ",
				"energy": -0.27393,
				"method": "rhf"
			},
			{
				"type": "occ",
				"energy": -0.26218,
				"method": "rhf"
			},
			{
				"type": "occ",
				"energy": -0.25631,
				"method": "rhf"
			},
			{
				"type": "unocc",
				"energy": -0.05211,
				"method": "rhf"
			},
			{
				"type": "unocc",
				"energy": -0.02066,
				"method": "rhf"
			},
			{
				"type": "unocc",
				"energy": 0.01495,
				"method": "rhf"
			},
			{
				"type": "unocc",
				"energy": 0.02168,
				"method": "rhf"
			},
			{
				"type": "unocc",
				"energy": 0.09053,
				"method": "rhf"
			}
		],
		"cosmo_sigma_profile": { 
			"-0.025": 0.0,
			"-0.024": 0.0,
			"-0.023": 0.0,
			"-0.022": 0.0,
			"-0.021": 0.0,
			"-0.02": 0.0,
			"-0.019": 0.0,
			"-0.018": 0.0,
			"-0.017": 0.0,
			"-0.016": 0.0,
			"-0.015": 0.0,
			"-0.014": 0.0,
			"-0.013": 0.0,
			"-0.012": 0.0,
			"-0.011": 0.0,
			"-0.01": 0.0,
			"-0.009": 1.33247913928,
			"-0.008": 5.5817312648,
			"-0.007": 10.0379213562,
			"-0.006": 9.81709914323,
			"-0.005": 9.88376744601,
			"-0.004": 8.65218420108,
			"-0.003": 8.33142342892,
			"-0.002": 8.37230561517,
			"-0.001": 16.2231821789,
			"0.0": 15.6359431611,
			"0.001": 17.4953133272,
			"0.002": 18.3892046028,
			"0.003": 22.9043910297,
			"0.004": 18.5117711888,
			"0.005": 11.4871722179,
			"0.006": 11.1377973067,
			"0.007": 0.867320661239,
			"0.008": 0.0,
			"0.009": 0.0,
			"0.01": 0.0,
			"0.011": 0.0,
			"0.012": 0.0,
			"0.013": 0.0,
			"0.014": 0.0,
			"0.015": 0.0,
			"0.016": 0.0,
			"0.017": 0.0,
			"0.018": 0.0,
			"0.019": 0.0,
			"0.02": 0.0,
			"0.021": 0.0,
			"0.022": 0.0,
			"0.023": 0.0,
			"0.024": 0.0,
			"0.025": 0.0
		}
	}
}
