{
	 "smiles": "CN(C)CCOC1=C(C=CC=C1)C(O)=O", 
	 "Tm": 381.15, 
	 "num_atms": 30, 
	 "gaussian": { 
		 "optdone": 1, 
		 "sigma_profile": "yes", 
		 "theory": "DFT", 
		 "functional": "B3LYP", 
		 "basiset": "6-31G**", 
		 "properties": { 
			 "R2extent": 4750.087, 
			 "electric_dipole_moment_norm": 3.32425465029, 
			 "electric_quadrupole_moment_norm": 15.1782640664, 
			 "total_energy": -708.624492421, 
			 "HOMO_LUMO_gap": 0.16971, 
			 "cosmo_polarized_energy": -12.68, 
			 "cosmo_cavitation_energy": 32.7, 
			 "cosmo_dispersion_energy": -23.11, 
			 "cosmo_repulsion_energy": 1.81, 
			 "cosmo_total_nonelectrostatic_energy": 11.4, 
			 "SMD_solvation_energy": 4.86 
		},
		"coords": [
			{
				"x": 1.9048314534,
				"y": 0.3422966068,
				"z": -0.6711642434,
				"element": "C" 
			},
			{
				"x": 1.5788703827,
				"y": -1.0088467959,
				"z": -1.1260776624,
				"element": "N" 
			},
			{
				"x": 1.5263997647,
				"y": -1.0641120534,
				"z": -2.5819392133,
				"element": "C" 
			},
			{
				"x": 0.3506422784,
				"y": -1.5334084449,
				"z": -0.5344232483,
				"element": "C" 
			},
			{
				"x": 0.4886420548,
				"y": -1.8967365034,
				"z": 0.947538809,
				"element": "C" 
			},
			{
				"x": 0.4491992384,
				"y": -0.778059963,
				"z": 1.8404738669,
				"element": "O" 
			},
			{
				"x": -0.7280480245,
				"y": -0.2311536152,
				"z": 2.2292098992,
				"element": "C" 
			},
			{
				"x": -0.6802766729,
				"y": 0.8804645347,
				"z": 3.1114275948,
				"element": "C" 
			},
			{
				"x": -1.8868101019,
				"y": 1.4406291214,
				"z": 3.5605844467,
				"element": "C" 
			},
			{
				"x": -3.1213591473,
				"y": 0.9469132219,
				"z": 3.1587802732,
				"element": "C" 
			},
			{
				"x": -3.1581424988,
				"y": -0.1379348836,
				"z": 2.2822580778,
				"element": "C" 
			},
			{
				"x": -1.9804058558,
				"y": -0.7207178162,
				"z": 1.8202362882,
				"element": "C" 
			},
			{
				"x": 0.5515655338,
				"y": 1.5378089938,
				"z": 3.6332628881,
				"element": "C" 
			},
			{
				"x": 1.7230689692,
				"y": 1.0836017342,
				"z": 3.1307389489,
				"element": "O" 
			},
			{
				"x": 0.5316967649,
				"y": 2.4404751408,
				"z": 4.4522586531,
				"element": "O" 
			},
			{
				"x": 1.1437889467,
				"y": 1.0888209677,
				"z": -0.9719459119,
				"element": "H" 
			},
			{
				"x": 1.9940464969,
				"y": 0.3721198931,
				"z": 0.4153723589,
				"element": "H" 
			},
			{
				"x": 2.8624819541,
				"y": 0.6451394548,
				"z": -1.1068938915,
				"element": "H" 
			},
			{
				"x": 2.4837036473,
				"y": -0.7296932033,
				"z": -2.9941493761,
				"element": "H" 
			},
			{
				"x": 0.7315801684,
				"y": -0.4286822033,
				"z": -3.0194443715,
				"element": "H" 
			},
			{
				"x": 1.3577151342,
				"y": -2.0940525854,
				"z": -2.9137742632,
				"element": "H" 
			},
			{
				"x": -0.5116430393,
				"y": -0.8527145543,
				"z": -0.6754344881,
				"element": "H" 
			},
			{
				"x": 0.1042378597,
				"y": -2.4636042838,
				"z": -1.0616812103,
				"element": "H" 
			},
			{
				"x": 1.4739445517,
				"y": -2.3403885967,
				"z": 1.109162962,
				"element": "H" 
			},
			{
				"x": -0.2700340154,
				"y": -2.6338621763,
				"z": 1.2356926052,
				"element": "H" 
			},
			{
				"x": -1.8140328759,
				"y": 2.2826976593,
				"z": 4.2398503372,
				"element": "H" 
			},
			{
				"x": -4.0387396265,
				"y": 1.4008905144,
				"z": 3.5186326102,
				"element": "H" 
			},
			{
				"x": -4.1107131064,
				"y": -0.5396533068,
				"z": 1.947776228,
				"element": "H" 
			},
			{
				"x": -2.0425114393,
				"y": -1.556551322,
				"z": 1.1354923103,
				"element": "H" 
			},
			{
				"x": 2.4015012047,
				"y": 1.6238144645,
				"z": 3.5705787225,
				"element": "H" 
			}
		],
		 "valence_orbital": [ 
			{
				"type": "occ",
				"energy": -0.30795,
				"method": "rhf"
			},
			{
				"type": "occ",
				"energy": -0.26966,
				"method": "rhf"
			},
			{
				"type": "occ",
				"energy": -0.25867,
				"method": "rhf"
			},
			{
				"type": "occ",
				"energy": -0.23044,
				"method": "rhf"
			},
			{
				"type": "occ",
				"energy": -0.21196,
				"method": "rhf"
			},
			{
				"type": "unocc",
				"energy": -0.04225,
				"method": "rhf"
			},
			{
				"type": "unocc",
				"energy": 0.00322,
				"method": "rhf"
			},
			{
				"type": "unocc",
				"energy": 0.05925,
				"method": "rhf"
			},
			{
				"type": "unocc",
				"energy": 0.08123,
				"method": "rhf"
			},
			{
				"type": "unocc",
				"energy": 0.08686,
				"method": "rhf"
			}
		],
		"cosmo_sigma_profile": { 
			"-0.025": 0.0,
			"-0.024": 0.0,
			"-0.023": 0.0,
			"-0.022": 0.0,
			"-0.021": 0.0,
			"-0.02": 0.0,
			"-0.019": 0.0,
			"-0.018": 0.314908560337,
			"-0.017": 0.947867369609,
			"-0.016": 0.75872762213,
			"-0.015": 0.864437835818,
			"-0.014": 0.767195013154,
			"-0.013": 0.298328531274,
			"-0.012": 0.340537255773,
			"-0.011": 0.950329677433,
			"-0.01": 1.22021982012,
			"-0.009": 0.418686294729,
			"-0.008": 2.05890116474,
			"-0.007": 4.32953027602,
			"-0.006": 9.11940707269,
			"-0.005": 15.961331191,
			"-0.004": 19.3124940305,
			"-0.003": 18.5714627599,
			"-0.002": 22.6776494838,
			"-0.001": 29.2658934304,
			"0.0": 26.7937926511,
			"0.001": 18.5887513292,
			"0.002": 16.6655412857,
			"0.003": 15.8267985249,
			"0.004": 14.0698926879,
			"0.005": 7.86387919009,
			"0.006": 4.45275388675,
			"0.007": 2.81739818979,
			"0.008": 2.89640234429,
			"0.009": 3.81024757502,
			"0.01": 3.03847264322,
			"0.011": 3.58887464118,
			"0.012": 6.4464163169,
			"0.013": 1.83858843256,
			"0.014": 0.137965488987,
			"0.015": 0.218909518054,
			"0.016": 0.384836606987,
			"0.017": 0.0268230789589,
			"0.018": 0.0,
			"0.019": 0.0,
			"0.02": 0.0,
			"0.021": 0.0,
			"0.022": 0.0,
			"0.023": 0.0,
			"0.024": 0.0,
			"0.025": 0.0
		}
	}
}
