{
	 "smiles": "NC1=CC(CN2CCCC2)=CC=C1", 
	 "Tm": 346.15, 
	 "num_atms": 29, 
	 "gaussian": { 
		 "optdone": 1, 
		 "sigma_profile": "yes", 
		 "theory": "DFT", 
		 "functional": "B3LYP", 
		 "basiset": "6-31G**", 
		 "properties": { 
			 "R2extent": 3053.5288, 
			 "electric_dipole_moment_norm": 2.06047902198, 
			 "electric_quadrupole_moment_norm": 11.4575186088, 
			 "total_energy": -538.312682809, 
			 "HOMO_LUMO_gap": 0.20304, 
			 "cosmo_polarized_energy": -8.93, 
			 "cosmo_cavitation_energy": 30.05, 
			 "cosmo_dispersion_energy": -21.9, 
			 "cosmo_repulsion_energy": 1.76, 
			 "cosmo_total_nonelectrostatic_energy": 9.91, 
			 "SMD_solvation_energy": 1.83 
		},
		"coords": [
			{
				"x": -1.2349229022,
				"y": 2.3094270521,
				"z": -3.6183176894,
				"element": "N" 
			},
			{
				"x": -1.1674393798,
				"y": 1.1994242359,
				"z": -2.7706904516,
				"element": "C" 
			},
			{
				"x": -1.2188677541,
				"y": 1.3606854072,
				"z": -1.3758925811,
				"element": "C" 
			},
			{
				"x": -1.2147516707,
				"y": 0.2608507166,
				"z": -0.5122853199,
				"element": "C" 
			},
			{
				"x": -1.2318983691,
				"y": 0.4697421071,
				"z": 0.9976118429,
				"element": "C" 
			},
			{
				"x": 0.0666843613,
				"y": 0.5794740357,
				"z": 1.6645163014,
				"element": "N" 
			},
			{
				"x": 0.9119472545,
				"y": 1.7134295875,
				"z": 1.2976212041,
				"element": "C" 
			},
			{
				"x": 2.2127993913,
				"y": 1.4521324925,
				"z": 2.0834275666,
				"element": "C" 
			},
			{
				"x": 2.2335844066,
				"y": -0.090348315,
				"z": 2.2971427905,
				"element": "C" 
			},
			{
				"x": 0.9425923239,
				"y": -0.5900784133,
				"z": 1.6177945431,
				"element": "C" 
			},
			{
				"x": -1.1667822477,
				"y": -1.0305114716,
				"z": -1.0565467144,
				"element": "C" 
			},
			{
				"x": -1.1157988109,
				"y": -1.2013025499,
				"z": -2.4407766566,
				"element": "C" 
			},
			{
				"x": -1.1126985633,
				"y": -0.1025341976,
				"z": -3.2963184245,
				"element": "C" 
			},
			{
				"x": -0.8465045296,
				"y": 2.1652103289,
				"z": -4.5404533859,
				"element": "H" 
			},
			{
				"x": -0.9134662097,
				"y": 3.1768270953,
				"z": -3.2105366055,
				"element": "H" 
			},
			{
				"x": -1.2800907579,
				"y": 2.3657586638,
				"z": -0.9619870927,
				"element": "H" 
			},
			{
				"x": -1.7939740439,
				"y": 1.3830417964,
				"z": 1.2298521205,
				"element": "H" 
			},
			{
				"x": -1.7683264325,
				"y": -0.3633465956,
				"z": 1.4684787889,
				"element": "H" 
			},
			{
				"x": 1.1241974361,
				"y": 1.7498817499,
				"z": 0.2131198726,
				"element": "H" 
			},
			{
				"x": 0.4242394244,
				"y": 2.6576149205,
				"z": 1.5693016669,
				"element": "H" 
			},
			{
				"x": 3.0898424401,
				"y": 1.8118939372,
				"z": 1.5377089318,
				"element": "H" 
			},
			{
				"x": 2.1907193704,
				"y": 1.9706388239,
				"z": 3.0459381252,
				"element": "H" 
			},
			{
				"x": 2.2229980946,
				"y": -0.3277742155,
				"z": 3.3645046091,
				"element": "H" 
			},
			{
				"x": 3.1213488979,
				"y": -0.5615241977,
				"z": 1.8656713962,
				"element": "H" 
			},
			{
				"x": 1.1582623759,
				"y": -0.9159803352,
				"z": 0.5839898857,
				"element": "H" 
			},
			{
				"x": 0.4784813734,
				"y": -1.4359470373,
				"z": 2.1391228698,
				"element": "H" 
			},
			{
				"x": -1.1820546452,
				"y": -1.8955953024,
				"z": -0.3993827067,
				"element": "H" 
			},
			{
				"x": -1.0814736775,
				"y": -2.2026534908,
				"z": -2.8618928255,
				"element": "H" 
			},
			{
				"x": -1.0807471565,
				"y": -0.2461368287,
				"z": -4.3737220614,
				"element": "H" 
			}
		],
		 "valence_orbital": [ 
			{
				"type": "occ",
				"energy": -0.3121,
				"method": "rhf"
			},
			{
				"type": "occ",
				"energy": -0.2992,
				"method": "rhf"
			},
			{
				"type": "occ",
				"energy": -0.23794,
				"method": "rhf"
			},
			{
				"type": "occ",
				"energy": -0.19992,
				"method": "rhf"
			},
			{
				"type": "occ",
				"energy": -0.19751,
				"method": "rhf"
			},
			{
				"type": "unocc",
				"energy": 0.00553,
				"method": "rhf"
			},
			{
				"type": "unocc",
				"energy": 0.02043,
				"method": "rhf"
			},
			{
				"type": "unocc",
				"energy": 0.08267,
				"method": "rhf"
			},
			{
				"type": "unocc",
				"energy": 0.09024,
				"method": "rhf"
			},
			{
				"type": "unocc",
				"energy": 0.10838,
				"method": "rhf"
			}
		],
		"cosmo_sigma_profile": { 
			"-0.025": 0.0,
			"-0.024": 0.0,
			"-0.023": 0.0,
			"-0.022": 0.0,
			"-0.021": 0.0,
			"-0.02": 0.0,
			"-0.019": 0.0,
			"-0.018": 0.0,
			"-0.017": 0.0,
			"-0.016": 0.0,
			"-0.015": 0.0,
			"-0.014": 0.0,
			"-0.013": 0.0351541322046,
			"-0.012": 1.76398367251,
			"-0.011": 2.61173519186,
			"-0.01": 2.92790799192,
			"-0.009": 2.943457992,
			"-0.008": 3.17998686789,
			"-0.007": 3.10560151121,
			"-0.006": 2.70763722865,
			"-0.005": 6.4436572093,
			"-0.004": 10.4854279833,
			"-0.003": 23.6865746873,
			"-0.002": 26.3963263974,
			"-0.001": 29.3151697343,
			"0.0": 30.7942815711,
			"0.001": 22.3457267032,
			"0.002": 10.6405959661,
			"0.003": 8.16903236376,
			"0.004": 7.99471625724,
			"0.005": 7.0908717307,
			"0.006": 9.99511705041,
			"0.007": 8.78758871645,
			"0.008": 3.93904729276,
			"0.009": 1.38738516923,
			"0.01": 1.49587485811,
			"0.011": 0.877541301595,
			"0.012": 1.25054578907,
			"0.013": 1.489817144,
			"0.014": 1.28095478027,
			"0.015": 0.737767260489,
			"0.016": 0.426929733446,
			"0.017": 0.000181209375304,
			"0.018": 0.0,
			"0.019": 0.0,
			"0.02": 0.0,
			"0.021": 0.0,
			"0.022": 0.0,
			"0.023": 0.0,
			"0.024": 0.0,
			"0.025": 0.0
		}
	}
}
