{
	 "smiles": "[O-][N+](=O)C1=C(C=CN=C1Cl)C#N", 
	 "Tm": 348.15, 
	 "num_atms": 14, 
	 "gaussian": { 
		 "optdone": 1, 
		 "sigma_profile": "yes", 
		 "theory": "DFT", 
		 "functional": "B3LYP", 
		 "basiset": "6-31G**", 
		 "properties": { 
			 "R2extent": 2876.4963, 
			 "electric_dipole_moment_norm": 4.72415127721, 
			 "electric_quadrupole_moment_norm": 5.06945313126, 
			 "total_energy": -1004.58240686, 
			 "HOMO_LUMO_gap": 0.1886, 
			 "cosmo_polarized_energy": -11.99, 
			 "cosmo_cavitation_energy": 23.49, 
			 "cosmo_dispersion_energy": -16.1, 
			 "cosmo_repulsion_energy": 1.29, 
			 "cosmo_total_nonelectrostatic_energy": 8.68, 
			 "SMD_solvation_energy": 6.52 
		},
		"coords": [
			{
				"x": -1.7281510808,
				"y": -1.3349156104,
				"z": -2.5861851546,
				"element": "O" 
			},
			{
				"x": -0.8122762973,
				"y": -1.6366218346,
				"z": -1.8326516611,
				"element": "N" 
			},
			{
				"x": 0.2066920245,
				"y": -2.253442418,
				"z": -2.1135690616,
				"element": "O" 
			},
			{
				"x": -0.9488449113,
				"y": -1.2026223511,
				"z": -0.4299768154,
				"element": "C" 
			},
			{
				"x": -0.4522087484,
				"y": 0.0442224999,
				"z": -0.0344608981,
				"element": "C" 
			},
			{
				"x": -0.6037597237,
				"y": 0.4164165227,
				"z": 1.3093766265,
				"element": "C" 
			},
			{
				"x": -1.2377548168,
				"y": -0.4725070083,
				"z": 2.1719462377,
				"element": "C" 
			},
			{
				"x": -1.7101847849,
				"y": -1.6640731866,
				"z": 1.78518774,
				"element": "N" 
			},
			{
				"x": -1.5697935249,
				"y": -2.0188348133,
				"z": 0.5208488846,
				"element": "C" 
			},
			{
				"x": -2.1941716033,
				"y": -3.5747857535,
				"z": 0.047113037,
				"element": "Cl" 
			},
			{
				"x": 0.1931651238,
				"y": 0.9214472941,
				"z": -0.9665795593,
				"element": "C" 
			},
			{
				"x": 0.7201270533,
				"y": 1.6503859393,
				"z": -1.7019795061,
				"element": "N" 
			},
			{
				"x": -0.2337371225,
				"y": 1.3731265802,
				"z": 1.6579421686,
				"element": "H" 
			},
			{
				"x": -1.3751015878,
				"y": -0.2222958604,
				"z": 3.2202879616,
				"element": "H" 
			}
		],
		 "valence_orbital": [ 
			{
				"type": "occ",
				"energy": -0.34126,
				"method": "rhf"
			},
			{
				"type": "occ",
				"energy": -0.34115,
				"method": "rhf"
			},
			{
				"type": "occ",
				"energy": -0.31972,
				"method": "rhf"
			},
			{
				"type": "occ",
				"energy": -0.31564,
				"method": "rhf"
			},
			{
				"type": "occ",
				"energy": -0.298,
				"method": "rhf"
			},
			{
				"type": "unocc",
				"energy": -0.1094,
				"method": "rhf"
			},
			{
				"type": "unocc",
				"energy": -0.10045,
				"method": "rhf"
			},
			{
				"type": "unocc",
				"energy": -0.07311,
				"method": "rhf"
			},
			{
				"type": "unocc",
				"energy": -0.01299,
				"method": "rhf"
			},
			{
				"type": "unocc",
				"energy": 0.00582,
				"method": "rhf"
			}
		],
		"cosmo_sigma_profile": { 
			"-0.025": 0.0,
			"-0.024": 0.0,
			"-0.023": 0.0,
			"-0.022": 0.0,
			"-0.021": 0.0,
			"-0.02": 0.0,
			"-0.019": 0.0,
			"-0.018": 0.0,
			"-0.017": 0.0,
			"-0.016": 0.0,
			"-0.015": 0.0,
			"-0.014": 0.0,
			"-0.013": 0.0,
			"-0.012": 0.0324039322965,
			"-0.011": 1.96646812118,
			"-0.01": 4.75604489604,
			"-0.009": 5.59532876307,
			"-0.008": 3.58823575622,
			"-0.007": 5.32381260079,
			"-0.006": 9.31759139371,
			"-0.005": 13.0611176466,
			"-0.004": 11.9023162684,
			"-0.003": 15.289037026,
			"-0.002": 12.1242491182,
			"-0.001": 10.296564402,
			"0.0": 10.6344413503,
			"0.001": 10.8937558969,
			"0.002": 13.170198571,
			"0.003": 10.0395542606,
			"0.004": 6.51302958523,
			"0.005": 13.033027618,
			"0.006": 13.3953721963,
			"0.007": 8.88624247565,
			"0.008": 5.44077206629,
			"0.009": 3.08175503286,
			"0.01": 2.93429462699,
			"0.011": 2.33240493622,
			"0.012": 0.275866632147,
			"0.013": 0.0,
			"0.014": 0.0,
			"0.015": 0.0,
			"0.016": 0.0,
			"0.017": 0.0,
			"0.018": 0.0,
			"0.019": 0.0,
			"0.02": 0.0,
			"0.021": 0.0,
			"0.022": 0.0,
			"0.023": 0.0,
			"0.024": 0.0,
			"0.025": 0.0
		}
	}
}
