{
	 "smiles": "CNC(=O)OC1=CC(C)=C(SC)C=C1", 
	 "Tm": 391.15, 
	 "num_atms": 27, 
	 "gaussian": { 
		 "optdone": 1, 
		 "sigma_profile": "yes", 
		 "theory": "DFT", 
		 "functional": "B3LYP", 
		 "basiset": "6-31G**", 
		 "properties": { 
			 "R2extent": 4811.7988, 
			 "electric_dipole_moment_norm": 3.35313368955, 
			 "electric_quadrupole_moment_norm": 20.6520779068, 
			 "total_energy": -992.307348431, 
			 "HOMO_LUMO_gap": 0.20627, 
			 "cosmo_polarized_energy": -12.13, 
			 "cosmo_cavitation_energy": 32.5, 
			 "cosmo_dispersion_energy": -23.59, 
			 "cosmo_repulsion_energy": 1.84, 
			 "cosmo_total_nonelectrostatic_energy": 10.75, 
			 "SMD_solvation_energy": 6.63 
		},
		"coords": [
			{
				"x": -4.3519974452,
				"y": 0.1583635467,
				"z": 0.8749596708,
				"element": "C" 
			},
			{
				"x": -3.2709369374,
				"y": 0.5461623407,
				"z": 1.7675393969,
				"element": "N" 
			},
			{
				"x": -1.9721900883,
				"y": 0.7521528621,
				"z": 1.4165836567,
				"element": "C" 
			},
			{
				"x": -1.103758724,
				"y": 1.1523964989,
				"z": 2.1648116033,
				"element": "O" 
			},
			{
				"x": -1.7962940504,
				"y": 0.4194551379,
				"z": 0.0919124859,
				"element": "O" 
			},
			{
				"x": -0.5542088159,
				"y": 0.5478059612,
				"z": -0.519284708,
				"element": "C" 
			},
			{
				"x": -0.2427144944,
				"y": -0.4439450542,
				"z": -1.4486568728,
				"element": "C" 
			},
			{
				"x": 0.937879081,
				"y": -0.3939522031,
				"z": -2.1967812722,
				"element": "C" 
			},
			{
				"x": 1.2292753556,
				"y": -1.4826492288,
				"z": -3.2013426777,
				"element": "C" 
			},
			{
				"x": 1.8194800647,
				"y": 0.687356665,
				"z": -1.9759198554,
				"element": "C" 
			},
			{
				"x": 3.3464018796,
				"y": 0.8700427277,
				"z": -2.907579958,
				"element": "S" 
			},
			{
				"x": 4.4889975754,
				"y": -0.1817197921,
				"z": -1.9297225886,
				"element": "C" 
			},
			{
				"x": 1.4849668875,
				"y": 1.6783677536,
				"z": -1.0444009332,
				"element": "C" 
			},
			{
				"x": 0.3019468824,
				"y": 1.6268797225,
				"z": -0.3089924547,
				"element": "C" 
			},
			{
				"x": -4.0717967982,
				"y": -0.722147784,
				"z": 0.2927995818,
				"element": "H" 
			},
			{
				"x": -5.2260002023,
				"y": -0.0905413356,
				"z": 1.4804920227,
				"element": "H" 
			},
			{
				"x": -4.6261127511,
				"y": 0.9590327249,
				"z": 0.1776300237,
				"element": "H" 
			},
			{
				"x": -3.4823630057,
				"y": 0.8340610748,
				"z": 2.7099643936,
				"element": "H" 
			},
			{
				"x": -0.945106813,
				"y": -1.2598899749,
				"z": -1.588712354,
				"element": "H" 
			},
			{
				"x": 2.0957191901,
				"y": -2.0843281894,
				"z": -2.9041717395,
				"element": "H" 
			},
			{
				"x": 0.3751899536,
				"y": -2.157688324,
				"z": -3.3012839096,
				"element": "H" 
			},
			{
				"x": 1.4616171761,
				"y": -1.0637080415,
				"z": -4.1844661257,
				"element": "H" 
			},
			{
				"x": 4.1708745958,
				"y": -1.2266511735,
				"z": -1.9289529103,
				"element": "H" 
			},
			{
				"x": 5.4665387317,
				"y": -0.1085645236,
				"z": -2.4126446072,
				"element": "H" 
			},
			{
				"x": 4.566948088,
				"y": 0.1823729608,
				"z": -0.9033162491,
				"element": "H" 
			},
			{
				"x": 2.1674385844,
				"y": 2.5094566864,
				"z": -0.8978751889,
				"element": "H" 
			},
			{
				"x": 0.0613060801,
				"y": 2.3909789615,
				"z": 0.4170115697,
				"element": "H" 
			}
		],
		 "valence_orbital": [ 
			{
				"type": "occ",
				"energy": -0.27598,
				"method": "rhf"
			},
			{
				"type": "occ",
				"energy": -0.26029,
				"method": "rhf"
			},
			{
				"type": "occ",
				"energy": -0.24654,
				"method": "rhf"
			},
			{
				"type": "occ",
				"energy": -0.23311,
				"method": "rhf"
			},
			{
				"type": "occ",
				"energy": -0.22071,
				"method": "rhf"
			},
			{
				"type": "unocc",
				"energy": -0.01444,
				"method": "rhf"
			},
			{
				"type": "unocc",
				"energy": -0.00101,
				"method": "rhf"
			},
			{
				"type": "unocc",
				"energy": 0.04721,
				"method": "rhf"
			},
			{
				"type": "unocc",
				"energy": 0.0604,
				"method": "rhf"
			},
			{
				"type": "unocc",
				"energy": 0.0753,
				"method": "rhf"
			}
		],
		"cosmo_sigma_profile": { 
			"-0.025": 0.0,
			"-0.024": 0.0,
			"-0.023": 0.0,
			"-0.022": 0.0,
			"-0.021": 0.0,
			"-0.02": 0.0,
			"-0.019": 0.0,
			"-0.018": 0.0,
			"-0.017": 0.0,
			"-0.016": 0.0,
			"-0.015": 0.310184578274,
			"-0.014": 1.41209189115,
			"-0.013": 1.02932113445,
			"-0.012": 0.727184747476,
			"-0.011": 1.29577540678,
			"-0.01": 1.38433516417,
			"-0.009": 0.57171924033,
			"-0.008": 0.969000650601,
			"-0.007": 1.96504216347,
			"-0.006": 9.69206655786,
			"-0.005": 17.4319607545,
			"-0.004": 21.6880422428,
			"-0.003": 21.8983673097,
			"-0.002": 26.2932423758,
			"-0.001": 25.7387813595,
			"0.0": 22.545409514,
			"0.001": 18.2821642283,
			"0.002": 16.0732162054,
			"0.003": 17.2989751357,
			"0.004": 14.5988934185,
			"0.005": 7.89339835104,
			"0.006": 5.80496990161,
			"0.007": 4.2924594555,
			"0.008": 4.07448703188,
			"0.009": 3.77015336813,
			"0.01": 1.86836333007,
			"0.011": 1.65319644296,
			"0.012": 3.55302560066,
			"0.013": 4.76423274197,
			"0.014": 0.315776727517,
			"0.015": 0.0,
			"0.016": 0.0,
			"0.017": 0.0,
			"0.018": 0.0,
			"0.019": 0.0,
			"0.02": 0.0,
			"0.021": 0.0,
			"0.022": 0.0,
			"0.023": 0.0,
			"0.024": 0.0,
			"0.025": 0.0
		}
	}
}
