{
	 "smiles": "OC(=O)C1CSCN1", 
	 "Tm": 469.15, 
	 "num_atms": 15, 
	 "gaussian": { 
		 "optdone": 1, 
		 "sigma_profile": "yes", 
		 "theory": "DFT", 
		 "functional": "B3LYP", 
		 "basiset": "6-31G**", 
		 "properties": { 
			 "R2extent": 1276.6173, 
			 "electric_dipole_moment_norm": 4.52490019779, 
			 "electric_quadrupole_moment_norm": 10.3133532476, 
			 "total_energy": -760.033707537, 
			 "HOMO_LUMO_gap": 0.2333, 
			 "cosmo_polarized_energy": -15.12, 
			 "cosmo_cavitation_energy": 19.3, 
			 "cosmo_dispersion_energy": -15.32, 
			 "cosmo_repulsion_energy": 1.22, 
			 "cosmo_total_nonelectrostatic_energy": 5.2, 
			 "SMD_solvation_energy": 2.77 
		},
		"coords": [
			{
				"x": 0.7005305334,
				"y": 0.8467523897,
				"z": -1.5446737982,
				"element": "O" 
			},
			{
				"x": 0.1013086057,
				"y": -0.3523602578,
				"z": -1.6208677079,
				"element": "C" 
			},
			{
				"x": 0.4919439287,
				"y": -1.2431709087,
				"z": -2.3348710906,
				"element": "O" 
			},
			{
				"x": -1.1721584809,
				"y": -0.4588103772,
				"z": -0.7482456202,
				"element": "C" 
			},
			{
				"x": -1.3709115425,
				"y": -1.8911413972,
				"z": -0.1870959748,
				"element": "C" 
			},
			{
				"x": -0.9072883242,
				"y": -1.8336905398,
				"z": 1.5990186287,
				"element": "S" 
			},
			{
				"x": -0.366443319,
				"y": -0.0592472028,
				"z": 1.4429906947,
				"element": "C" 
			},
			{
				"x": -1.1029345658,
				"y": 0.5348041643,
				"z": 0.3350751709,
				"element": "N" 
			},
			{
				"x": 0.1997314006,
				"y": 1.3494461661,
				"z": -0.8648725586,
				"element": "H" 
			},
			{
				"x": -2.0046239348,
				"y": -0.1932852809,
				"z": -1.4101311668,
				"element": "H" 
			},
			{
				"x": -0.7449981383,
				"y": -2.5947917345,
				"z": -0.7375227251,
				"element": "H" 
			},
			{
				"x": -2.4134787979,
				"y": -2.2059483804,
				"z": -0.2598012273,
				"element": "H" 
			},
			{
				"x": -0.5628723645,
				"y": 0.4703538023,
				"z": 2.3760720525,
				"element": "H" 
			},
			{
				"x": 0.7052386913,
				"y": -0.0254660421,
				"z": 1.2299101193,
				"element": "H" 
			},
			{
				"x": -2.0425436918,
				"y": 0.7756555991,
				"z": 0.6397152033,
				"element": "H" 
			}
		],
		 "valence_orbital": [ 
			{
				"type": "occ",
				"energy": -0.34203,
				"method": "rhf"
			},
			{
				"type": "occ",
				"energy": -0.31509,
				"method": "rhf"
			},
			{
				"type": "occ",
				"energy": -0.29184,
				"method": "rhf"
			},
			{
				"type": "occ",
				"energy": -0.26647,
				"method": "rhf"
			},
			{
				"type": "occ",
				"energy": -0.2335,
				"method": "rhf"
			},
			{
				"type": "unocc",
				"energy": -0.0002,
				"method": "rhf"
			},
			{
				"type": "unocc",
				"energy": 0.01062,
				"method": "rhf"
			},
			{
				"type": "unocc",
				"energy": 0.05276,
				"method": "rhf"
			},
			{
				"type": "unocc",
				"energy": 0.07078,
				"method": "rhf"
			},
			{
				"type": "unocc",
				"energy": 0.10078,
				"method": "rhf"
			}
		],
		"cosmo_sigma_profile": { 
			"-0.025": 0.0,
			"-0.024": 0.0,
			"-0.023": 0.0,
			"-0.022": 0.0,
			"-0.021": 0.0,
			"-0.02": 0.0,
			"-0.019": 0.0,
			"-0.018": 0.0,
			"-0.017": 0.0,
			"-0.016": 0.0,
			"-0.015": 0.0,
			"-0.014": 0.0543620429113,
			"-0.013": 1.56356406713,
			"-0.012": 1.79577204652,
			"-0.011": 2.45068921034,
			"-0.01": 2.35876536251,
			"-0.009": 6.41395215235,
			"-0.008": 6.75831077097,
			"-0.007": 7.17654670061,
			"-0.006": 10.8240959876,
			"-0.005": 9.87922644136,
			"-0.004": 9.15604545738,
			"-0.003": 8.91972057052,
			"-0.002": 8.3887895765,
			"-0.001": 6.40847337542,
			"0.0": 6.0914256487,
			"0.001": 4.09193073324,
			"0.002": 4.99593724577,
			"0.003": 5.28769930316,
			"0.004": 5.11601433523,
			"0.005": 6.00161698192,
			"0.006": 5.17135455916,
			"0.007": 5.11434082167,
			"0.008": 4.52195110949,
			"0.009": 6.43099774615,
			"0.01": 6.73318000306,
			"0.011": 6.23830795144,
			"0.012": 4.55103945038,
			"0.013": 1.55793583057,
			"0.014": 0.0314676249618,
			"0.015": 0.0,
			"0.016": 0.0,
			"0.017": 0.0,
			"0.018": 0.0,
			"0.019": 0.0,
			"0.02": 0.0,
			"0.021": 0.0,
			"0.022": 0.0,
			"0.023": 0.0,
			"0.024": 0.0,
			"0.025": 0.0
		}
	}
}
