{
	 "smiles": "C1CN(N=C1)C1=CC=CC=C1", 
	 "Tm": 325.15, 
	 "num_atms": 21, 
	 "gaussian": { 
		 "optdone": 1, 
		 "sigma_profile": "yes", 
		 "theory": "DFT", 
		 "functional": "B3LYP", 
		 "basiset": "6-31G**", 
		 "properties": { 
			 "R2extent": 2099.4812, 
			 "electric_dipole_moment_norm": 2.85931107961, 
			 "electric_quadrupole_moment_norm": 7.99451729437, 
			 "total_energy": -458.447516231, 
			 "HOMO_LUMO_gap": 0.1784, 
			 "cosmo_polarized_energy": -7.78, 
			 "cosmo_cavitation_energy": 23.93, 
			 "cosmo_dispersion_energy": -18.15, 
			 "cosmo_repulsion_energy": 1.45, 
			 "cosmo_total_nonelectrostatic_energy": 7.22, 
			 "SMD_solvation_energy": 2.96 
		},
		"coords": [
			{
				"x": 1.2622410755,
				"y": -2.5116355531,
				"z": -1.6421374803,
				"element": "C" 
			},
			{
				"x": 0.5664919572,
				"y": -1.1678381347,
				"z": -1.3288069007,
				"element": "C" 
			},
			{
				"x": 0.914388506,
				"y": -0.9544869861,
				"z": 0.0877603,
				"element": "N" 
			},
			{
				"x": 1.4374715815,
				"y": -2.0881181931,
				"z": 0.6619365825,
				"element": "N" 
			},
			{
				"x": 1.638242408,
				"y": -2.9688316796,
				"z": -0.2501149449,
				"element": "C" 
			},
			{
				"x": 0.3749035144,
				"y": 0.0531765589,
				"z": 0.8871686369,
				"element": "C" 
			},
			{
				"x": 0.5625674188,
				"y": 0.0469964081,
				"z": 2.2831581264,
				"element": "C" 
			},
			{
				"x": 0.0393246905,
				"y": 1.0758025272,
				"z": 3.0585452903,
				"element": "C" 
			},
			{
				"x": -0.6766135744,
				"y": 2.1277116033,
				"z": 2.4776665648,
				"element": "C" 
			},
			{
				"x": -0.8615913551,
				"y": 2.1327882379,
				"z": 1.096080979,
				"element": "C" 
			},
			{
				"x": -0.3451405002,
				"y": 1.1095537372,
				"z": 0.3002916135,
				"element": "C" 
			},
			{
				"x": 0.6082857379,
				"y": -3.2188196974,
				"z": -2.1616335861,
				"element": "H" 
			},
			{
				"x": 2.1561581936,
				"y": -2.3805932637,
				"z": -2.2655052411,
				"element": "H" 
			},
			{
				"x": 0.931157405,
				"y": -0.3433251113,
				"z": -1.9479089546,
				"element": "H" 
			},
			{
				"x": -0.5246666208,
				"y": -1.2278363067,
				"z": -1.4487576495,
				"element": "H" 
			},
			{
				"x": 2.0803779938,
				"y": -3.9246924944,
				"z": 0.004577562,
				"element": "H" 
			},
			{
				"x": 1.1132410283,
				"y": -0.7685838438,
				"z": 2.7346952627,
				"element": "H" 
			},
			{
				"x": 0.1926208349,
				"y": 1.0533349952,
				"z": 4.1342451084,
				"element": "H" 
			},
			{
				"x": -1.0811247213,
				"y": 2.9260636377,
				"z": 3.0919849784,
				"element": "H" 
			},
			{
				"x": -1.4150613523,
				"y": 2.9394004146,
				"z": 0.6228352085,
				"element": "H" 
			},
			{
				"x": -0.5000742214,
				"y": 1.1390331439,
				"z": -0.7727814561,
				"element": "H" 
			}
		],
		 "valence_orbital": [ 
			{
				"type": "occ",
				"energy": -0.33262,
				"method": "rhf"
			},
			{
				"type": "occ",
				"energy": -0.28714,
				"method": "rhf"
			},
			{
				"type": "occ",
				"energy": -0.26561,
				"method": "rhf"
			},
			{
				"type": "occ",
				"energy": -0.23927,
				"method": "rhf"
			},
			{
				"type": "occ",
				"energy": -0.18428,
				"method": "rhf"
			},
			{
				"type": "unocc",
				"energy": -0.00588,
				"method": "rhf"
			},
			{
				"type": "unocc",
				"energy": 0.01143,
				"method": "rhf"
			},
			{
				"type": "unocc",
				"energy": 0.03315,
				"method": "rhf"
			},
			{
				"type": "unocc",
				"energy": 0.08818,
				"method": "rhf"
			},
			{
				"type": "unocc",
				"energy": 0.10238,
				"method": "rhf"
			}
		],
		"cosmo_sigma_profile": { 
			"-0.025": 0.0,
			"-0.024": 0.0,
			"-0.023": 0.0,
			"-0.022": 0.0,
			"-0.021": 0.0,
			"-0.02": 0.0,
			"-0.019": 0.0,
			"-0.018": 0.0,
			"-0.017": 0.0,
			"-0.016": 0.0,
			"-0.015": 0.0,
			"-0.014": 0.0,
			"-0.013": 0.0,
			"-0.012": 0.0,
			"-0.011": 0.0,
			"-0.01": 0.0,
			"-0.009": 0.0,
			"-0.008": 0.785485306416,
			"-0.007": 1.98847182496,
			"-0.006": 6.22818075097,
			"-0.005": 20.0046863544,
			"-0.004": 24.1005595559,
			"-0.003": 22.1093363678,
			"-0.002": 17.9990365545,
			"-0.001": 10.9151083007,
			"0.0": 8.73379668855,
			"0.001": 7.60593372184,
			"0.002": 8.28926872323,
			"0.003": 9.53422360144,
			"0.004": 10.2987942884,
			"0.005": 13.016485876,
			"0.006": 12.1650899061,
			"0.007": 9.79002830185,
			"0.008": 2.4729353236,
			"0.009": 1.30008634694,
			"0.01": 1.41279537178,
			"0.011": 1.1868634336,
			"0.012": 0.682661208068,
			"0.013": 0.0,
			"0.014": 0.0,
			"0.015": 0.0,
			"0.016": 0.0,
			"0.017": 0.0,
			"0.018": 0.0,
			"0.019": 0.0,
			"0.02": 0.0,
			"0.021": 0.0,
			"0.022": 0.0,
			"0.023": 0.0,
			"0.024": 0.0,
			"0.025": 0.0
		}
	}
}
