{
	 "smiles": "CC1=C(C=C(C(O)=O)C(=O)N1)C1=CC=C(O)C=C1", 
	 "Tm": 570.15, 
	 "num_atms": 29, 
	 "gaussian": { 
		 "optdone": 1, 
		 "sigma_profile": "yes", 
		 "theory": "DFT", 
		 "functional": "B3LYP", 
		 "basiset": "6-31G**", 
		 "properties": { 
			 "R2extent": 5711.5063, 
			 "electric_dipole_moment_norm": 6.78280844857, 
			 "electric_quadrupole_moment_norm": 25.3238818371, 
			 "total_energy": -857.686193958, 
			 "HOMO_LUMO_gap": 0.14719, 
			 "cosmo_polarized_energy": -28.39, 
			 "cosmo_cavitation_energy": 34.17, 
			 "cosmo_dispersion_energy": -24.56, 
			 "cosmo_repulsion_energy": 1.9, 
			 "cosmo_total_nonelectrostatic_energy": 11.52, 
			 "SMD_solvation_energy": 7.87 
		},
		"coords": [
			{
				"x": -1.4657471531,
				"y": -2.3314952113,
				"z": 0.0189797704,
				"element": "C" 
			},
			{
				"x": -1.3486482031,
				"y": -0.8323075993,
				"z": 0.0309614828,
				"element": "C" 
			},
			{
				"x": -0.1892497658,
				"y": -0.1104606611,
				"z": 0.2683711137,
				"element": "C" 
			},
			{
				"x": -0.2864570824,
				"y": 1.3069700065,
				"z": 0.179174374,
				"element": "C" 
			},
			{
				"x": -1.4475770427,
				"y": 1.9922246661,
				"z": -0.1054329055,
				"element": "C" 
			},
			{
				"x": -1.4602389277,
				"y": 3.4720781156,
				"z": -0.1738191533,
				"element": "C" 
			},
			{
				"x": -0.2202547102,
				"y": 4.0066294754,
				"z": 0.0525824121,
				"element": "O" 
			},
			{
				"x": -2.4177985152,
				"y": 4.1791239542,
				"z": -0.3993728538,
				"element": "O" 
			},
			{
				"x": -2.6883465556,
				"y": 1.2538514717,
				"z": -0.335496024,
				"element": "C" 
			},
			{
				"x": -3.8072295009,
				"y": 1.6705158783,
				"z": -0.5906532946,
				"element": "O" 
			},
			{
				"x": -2.4960356603,
				"y": -0.1504504683,
				"z": -0.239956118,
				"element": "N" 
			},
			{
				"x": 1.1197002496,
				"y": -0.7393377131,
				"z": 0.588962534,
				"element": "C" 
			},
			{
				"x": 2.2705754,
				"y": -0.389565259,
				"z": -0.1348429948,
				"element": "C" 
			},
			{
				"x": 3.5144882761,
				"y": -0.9392046509,
				"z": 0.1685777862,
				"element": "C" 
			},
			{
				"x": 3.6348824699,
				"y": -1.8627379031,
				"z": 1.2125400364,
				"element": "C" 
			},
			{
				"x": 4.8215567866,
				"y": -2.4408272094,
				"z": 1.5581478775,
				"element": "O" 
			},
			{
				"x": 2.5019341831,
				"y": -2.221726614,
				"z": 1.9512329738,
				"element": "C" 
			},
			{
				"x": 1.2676619456,
				"y": -1.6592679718,
				"z": 1.6426265279,
				"element": "C" 
			},
			{
				"x": -1.9466798112,
				"y": -2.6977715149,
				"z": 0.9340168949,
				"element": "H" 
			},
			{
				"x": -0.485429251,
				"y": -2.8007300808,
				"z": -0.0578219768,
				"element": "H" 
			},
			{
				"x": -2.0787152676,
				"y": -2.6584445281,
				"z": -0.8280434218,
				"element": "H" 
			},
			{
				"x": 0.6124936467,
				"y": 1.8864794165,
				"z": 0.3595915724,
				"element": "H" 
			},
			{
				"x": -0.3496985575,
				"y": 4.9664597146,
				"z": -0.0115934781,
				"element": "H" 
			},
			{
				"x": -3.3500817125,
				"y": -0.6656434645,
				"z": -0.4218706521,
				"element": "H" 
			},
			{
				"x": 2.1903502089,
				"y": 0.3148895546,
				"z": -0.9579788475,
				"element": "H" 
			},
			{
				"x": 4.3899878888,
				"y": -0.6553575836,
				"z": -0.4118059765,
				"element": "H" 
			},
			{
				"x": 5.5207540423,
				"y": -2.1024387167,
				"z": 0.983808244,
				"element": "H" 
			},
			{
				"x": 2.6104674166,
				"y": -2.9265902488,
				"z": 2.7688540677,
				"element": "H" 
			},
			{
				"x": 0.4044352025,
				"y": -1.922064855,
				"z": 2.2471600291,
				"element": "H" 
			}
		],
		 "valence_orbital": [ 
			{
				"type": "occ",
				"energy": -0.27168,
				"method": "rhf"
			},
			{
				"type": "occ",
				"energy": -0.26542,
				"method": "rhf"
			},
			{
				"type": "occ",
				"energy": -0.24346,
				"method": "rhf"
			},
			{
				"type": "occ",
				"energy": -0.24024,
				"method": "rhf"
			},
			{
				"type": "occ",
				"energy": -0.21123,
				"method": "rhf"
			},
			{
				"type": "unocc",
				"energy": -0.06404,
				"method": "rhf"
			},
			{
				"type": "unocc",
				"energy": -0.01648,
				"method": "rhf"
			},
			{
				"type": "unocc",
				"energy": -0.01461,
				"method": "rhf"
			},
			{
				"type": "unocc",
				"energy": 0.01749,
				"method": "rhf"
			},
			{
				"type": "unocc",
				"energy": 0.04889,
				"method": "rhf"
			}
		],
		"cosmo_sigma_profile": { 
			"-0.025": 0.0,
			"-0.024": 0.0,
			"-0.023": 0.0,
			"-0.022": 0.0,
			"-0.021": 0.0,
			"-0.02": 0.0,
			"-0.019": 0.0,
			"-0.018": 0.53747508179,
			"-0.017": 2.47582388968,
			"-0.016": 1.75751033323,
			"-0.015": 2.66842511017,
			"-0.014": 3.58538409649,
			"-0.013": 2.67138917627,
			"-0.012": 2.45864580641,
			"-0.011": 2.83506254319,
			"-0.01": 3.21843615474,
			"-0.009": 3.28748372578,
			"-0.008": 2.24051592261,
			"-0.007": 6.37543779895,
			"-0.006": 14.3283624437,
			"-0.005": 16.9467951211,
			"-0.004": 16.238797071,
			"-0.003": 14.8498173192,
			"-0.002": 21.626105636,
			"-0.001": 21.5911164055,
			"0.0": 17.6940867467,
			"0.001": 16.2506768092,
			"0.002": 10.4954547083,
			"0.003": 12.6270914658,
			"0.004": 13.3316422524,
			"0.005": 12.0384278594,
			"0.006": 5.34244629751,
			"0.007": 5.70707709385,
			"0.008": 4.19518389792,
			"0.009": 2.69958499411,
			"0.01": 4.52637404503,
			"0.011": 5.65972615273,
			"0.012": 5.8695655414,
			"0.013": 5.74740481861,
			"0.014": 4.6447891268,
			"0.015": 2.01124445908,
			"0.016": 1.60990668015,
			"0.017": 1.17938654684,
			"0.018": 1.02639333919,
			"0.019": 0.0619110032056,
			"0.02": 0.0,
			"0.021": 0.0,
			"0.022": 0.0,
			"0.023": 0.0,
			"0.024": 0.0,
			"0.025": 0.0
		}
	}
}
