{
	 "smiles": "CN(C)C(=O)NC1=CC(OC(=O)NC(C)(C)C)=CC=C1", 
	 "Tm": 449.15, 
	 "num_atms": 41, 
	 "gaussian": { 
		 "optdone": 1, 
		 "sigma_profile": "yes", 
		 "theory": "DFT", 
		 "functional": "B3LYP", 
		 "basiset": "6-31G**", 
		 "properties": { 
			 "R2extent": 7225.986, 
			 "electric_dipole_moment_norm": 4.47242615814, 
			 "electric_quadrupole_moment_norm": 17.0573377545, 
			 "total_energy": -936.122639574, 
			 "HOMO_LUMO_gap": 0.20832, 
			 "cosmo_polarized_energy": -16.16, 
			 "cosmo_cavitation_energy": 42.76, 
			 "cosmo_dispersion_energy": -29.04, 
			 "cosmo_repulsion_energy": 2.23, 
			 "cosmo_total_nonelectrostatic_energy": 15.95, 
			 "SMD_solvation_energy": 9.59 
		},
		"coords": [
			{
				"x": -1.4002583551,
				"y": -0.5032722466,
				"z": 3.2091224418,
				"element": "C" 
			},
			{
				"x": -0.8911487541,
				"y": 0.859424269,
				"z": 3.3619034486,
				"element": "N" 
			},
			{
				"x": -1.8964974873,
				"y": 1.8901275108,
				"z": 3.581109979,
				"element": "C" 
			},
			{
				"x": 0.4083754458,
				"y": 1.1676360427,
				"z": 3.6820119065,
				"element": "C" 
			},
			{
				"x": 0.7401783932,
				"y": 2.2043706236,
				"z": 4.2499106557,
				"element": "O" 
			},
			{
				"x": 1.3875975291,
				"y": 0.2063826557,
				"z": 3.3571641953,
				"element": "N" 
			},
			{
				"x": 1.5701363135,
				"y": -0.4880573806,
				"z": 2.1411234745,
				"element": "C" 
			},
			{
				"x": 0.7994451493,
				"y": -0.2260785052,
				"z": 1.0005873042,
				"element": "C" 
			},
			{
				"x": 1.02157399,
				"y": -0.9717049289,
				"z": -0.154093314,
				"element": "C" 
			},
			{
				"x": 0.321568756,
				"y": -0.7123265001,
				"z": -1.3323572833,
				"element": "O" 
			},
			{
				"x": -1.0506313174,
				"y": -0.6102787299,
				"z": -1.3089199134,
				"element": "C" 
			},
			{
				"x": -1.7413282716,
				"y": -0.7837639024,
				"z": -0.321553737,
				"element": "O" 
			},
			{
				"x": -1.5465716818,
				"y": -0.2951959744,
				"z": -2.5359763907,
				"element": "N" 
			},
			{
				"x": -0.870893379,
				"y": -0.0587747358,
				"z": -3.8359657982,
				"element": "C" 
			},
			{
				"x": -1.9999483165,
				"y": 0.2703165389,
				"z": -4.8280974698,
				"element": "C" 
			},
			{
				"x": -0.1295183875,
				"y": -1.3248405257,
				"z": -4.3042327249,
				"element": "C" 
			},
			{
				"x": 0.0922793169,
				"y": 1.1391171431,
				"z": -3.7403477462,
				"element": "C" 
			},
			{
				"x": 2.0210626239,
				"y": -1.9385429128,
				"z": -0.2275862889,
				"element": "C" 
			},
			{
				"x": 2.8089626548,
				"y": -2.1639086854,
				"z": 0.9021904611,
				"element": "C" 
			},
			{
				"x": 2.5838387441,
				"y": -1.4595756519,
				"z": 2.081228402,
				"element": "C" 
			},
			{
				"x": -0.6185738718,
				"y": -1.2254027118,
				"z": 3.4408711273,
				"element": "H" 
			},
			{
				"x": -1.7624712642,
				"y": -0.6887369504,
				"z": 2.1926963091,
				"element": "H" 
			},
			{
				"x": -2.2247136557,
				"y": -0.6560331207,
				"z": 3.916874661,
				"element": "H" 
			},
			{
				"x": -1.4169282777,
				"y": 2.8675460568,
				"z": 3.5650229566,
				"element": "H" 
			},
			{
				"x": -2.6533413184,
				"y": 1.8329394538,
				"z": 2.7917926832,
				"element": "H" 
			},
			{
				"x": -2.3960706178,
				"y": 1.7650658194,
				"z": 4.5520697977,
				"element": "H" 
			},
			{
				"x": 2.2478919439,
				"y": 0.4425972659,
				"z": 3.8349009016,
				"element": "H" 
			},
			{
				"x": 0.0305075901,
				"y": 0.5324117274,
				"z": 1.0170338008,
				"element": "H" 
			},
			{
				"x": -2.5542701997,
				"y": -0.2381283436,
				"z": -2.5220319822,
				"element": "H" 
			},
			{
				"x": -2.5500062323,
				"y": 1.1650657693,
				"z": -4.5164196722,
				"element": "H" 
			},
			{
				"x": -2.7067055571,
				"y": -0.5628285643,
				"z": -4.9120428458,
				"element": "H" 
			},
			{
				"x": -1.5848784748,
				"y": 0.459685283,
				"z": -5.821419675,
				"element": "H" 
			},
			{
				"x": -0.8211409073,
				"y": -2.1699836228,
				"z": -4.3784151745,
				"element": "H" 
			},
			{
				"x": 0.6690519818,
				"y": -1.5908849825,
				"z": -3.609861698,
				"element": "H" 
			},
			{
				"x": 0.3145059986,
				"y": -1.1572518499,
				"z": -5.290986583,
				"element": "H" 
			},
			{
				"x": -0.4421832101,
				"y": 2.035901633,
				"z": -3.4114559122,
				"element": "H" 
			},
			{
				"x": 0.9010573957,
				"y": 0.9404524609,
				"z": -3.0352934062,
				"element": "H" 
			},
			{
				"x": 0.5336473203,
				"y": 1.3438665575,
				"z": -4.7212563409,
				"element": "H" 
			},
			{
				"x": 2.1697891015,
				"y": -2.492390115,
				"z": -1.147635008,
				"element": "H" 
			},
			{
				"x": 3.5973194642,
				"y": -2.9098774307,
				"z": 0.8666226287,
				"element": "H" 
			},
			{
				"x": 3.1812898246,
				"y": -1.6622684397,
				"z": 2.9655118297,
				"element": "H" 
			}
		],
		 "valence_orbital": [ 
			{
				"type": "occ",
				"energy": -0.25858,
				"method": "rhf"
			},
			{
				"type": "occ",
				"energy": -0.2558,
				"method": "rhf"
			},
			{
				"type": "occ",
				"energy": -0.2425,
				"method": "rhf"
			},
			{
				"type": "occ",
				"energy": -0.22786,
				"method": "rhf"
			},
			{
				"type": "occ",
				"energy": -0.21264,
				"method": "rhf"
			},
			{
				"type": "unocc",
				"energy": -0.00432,
				"method": "rhf"
			},
			{
				"type": "unocc",
				"energy": -0.0008,
				"method": "rhf"
			},
			{
				"type": "unocc",
				"energy": 0.04891,
				"method": "rhf"
			},
			{
				"type": "unocc",
				"energy": 0.05822,
				"method": "rhf"
			},
			{
				"type": "unocc",
				"energy": 0.06652,
				"method": "rhf"
			}
		],
		"cosmo_sigma_profile": { 
			"-0.025": 0.0,
			"-0.024": 0.0,
			"-0.023": 0.0,
			"-0.022": 0.0,
			"-0.021": 0.0,
			"-0.02": 0.0,
			"-0.019": 0.0,
			"-0.018": 0.0,
			"-0.017": 0.0,
			"-0.016": 0.0,
			"-0.015": 0.0,
			"-0.014": 0.358532764988,
			"-0.013": 1.50675788455,
			"-0.012": 1.84932268216,
			"-0.011": 1.80308702096,
			"-0.01": 1.93003511001,
			"-0.009": 2.0047871305,
			"-0.008": 2.12418108426,
			"-0.007": 3.80929106521,
			"-0.006": 6.94259737347,
			"-0.005": 13.0621889575,
			"-0.004": 29.4681856599,
			"-0.003": 36.5629278123,
			"-0.002": 35.6351927603,
			"-0.001": 38.5770439538,
			"0.0": 35.4589633088,
			"0.001": 33.8674795924,
			"0.002": 18.0987336152,
			"0.003": 13.8910018697,
			"0.004": 13.1595197431,
			"0.005": 10.0263038418,
			"0.006": 3.99329969162,
			"0.007": 3.12869059043,
			"0.008": 3.34431811717,
			"0.009": 3.75719803932,
			"0.01": 2.70664589413,
			"0.011": 3.02945951632,
			"0.012": 3.76927977553,
			"0.013": 4.70403821784,
			"0.014": 6.22181133128,
			"0.015": 1.01148749146,
			"0.016": 0.0,
			"0.017": 0.0,
			"0.018": 0.0,
			"0.019": 0.0,
			"0.02": 0.0,
			"0.021": 0.0,
			"0.022": 0.0,
			"0.023": 0.0,
			"0.024": 0.0,
			"0.025": 0.0
		}
	}
}
