{
	 "smiles": "CCOC(=O)C1=CC=C(C=C1)N1C(C)=CC=C1C", 
	 "Tm": 362.15, 
	 "num_atms": 35, 
	 "gaussian": { 
		 "optdone": 1, 
		 "sigma_profile": "yes", 
		 "theory": "DFT", 
		 "functional": "B3LYP", 
		 "basiset": "6-31G**", 
		 "properties": { 
			 "R2extent": 6690.4805, 
			 "electric_dipole_moment_norm": 2.00747538217, 
			 "electric_quadrupole_moment_norm": 10.130925893, 
			 "total_energy": -787.062787613, 
			 "HOMO_LUMO_gap": 0.13847, 
			 "cosmo_polarized_energy": -9.11, 
			 "cosmo_cavitation_energy": 38.51, 
			 "cosmo_dispersion_energy": -26.78, 
			 "cosmo_repulsion_energy": 2.09, 
			 "cosmo_total_nonelectrostatic_energy": 13.82, 
			 "SMD_solvation_energy": 7.82 
		},
		"coords": [
			{
				"x": -0.5138316259,
				"y": 0.1437813955,
				"z": -5.3471888816,
				"element": "C" 
			},
			{
				"x": -1.0960843034,
				"y": -0.9941167185,
				"z": -4.5221462988,
				"element": "C" 
			},
			{
				"x": -0.6174580795,
				"y": -0.9537782031,
				"z": -3.1566125397,
				"element": "O" 
			},
			{
				"x": -1.2969416948,
				"y": -0.1548025212,
				"z": -2.3026263456,
				"element": "C" 
			},
			{
				"x": -2.2681283559,
				"y": 0.5044318318,
				"z": -2.6232524386,
				"element": "O" 
			},
			{
				"x": -0.7233503957,
				"y": -0.1799695,
				"z": -0.9266654495,
				"element": "C" 
			},
			{
				"x": 0.4035458118,
				"y": -0.9437341339,
				"z": -0.5928777392,
				"element": "C" 
			},
			{
				"x": 0.9009632259,
				"y": -0.9245405699,
				"z": 0.7071127166,
				"element": "C" 
			},
			{
				"x": 0.270321624,
				"y": -0.1530772339,
				"z": 1.6923338607,
				"element": "C" 
			},
			{
				"x": -0.8606036679,
				"y": 0.6057644402,
				"z": 1.3607340374,
				"element": "C" 
			},
			{
				"x": -1.3481546658,
				"y": 0.5966094258,
				"z": 0.0583965963,
				"element": "C" 
			},
			{
				"x": 0.7757951777,
				"y": -0.1401661272,
				"z": 3.0222280937,
				"element": "N" 
			},
			{
				"x": 1.3008485973,
				"y": 0.9776844017,
				"z": 3.6747742116,
				"element": "C" 
			},
			{
				"x": 1.4480469725,
				"y": 2.3113906437,
				"z": 3.0129534105,
				"element": "C" 
			},
			{
				"x": 1.6798096043,
				"y": 0.5718711368,
				"z": 4.9336763884,
				"element": "C" 
			},
			{
				"x": 1.3748173028,
				"y": -0.813748243,
				"z": 5.0631621289,
				"element": "C" 
			},
			{
				"x": 0.8239453267,
				"y": -1.2432827517,
				"z": 3.8777737091,
				"element": "C" 
			},
			{
				"x": 0.2817936384,
				"y": -2.5867686518,
				"z": 3.5041867431,
				"element": "C" 
			},
			{
				"x": -0.8310486931,
				"y": 0.0449682649,
				"z": -6.3906967106,
				"element": "H" 
			},
			{
				"x": 0.579646848,
				"y": 0.127668707,
				"z": -5.3176149661,
				"element": "H" 
			},
			{
				"x": -0.8649874916,
				"y": 1.1080679375,
				"z": -4.9722029772,
				"element": "H" 
			},
			{
				"x": -0.7690221907,
				"y": -1.9678619594,
				"z": -4.8946181035,
				"element": "H" 
			},
			{
				"x": -2.1878057656,
				"y": -0.9556136222,
				"z": -4.512907595,
				"element": "H" 
			},
			{
				"x": 0.8915363076,
				"y": -1.5384909685,
				"z": -1.3561289096,
				"element": "H" 
			},
			{
				"x": 1.7883407573,
				"y": -1.4924357207,
				"z": 0.9662443447,
				"element": "H" 
			},
			{
				"x": -1.3565498437,
				"y": 1.1844578806,
				"z": 2.1328750976,
				"element": "H" 
			},
			{
				"x": -2.2230861881,
				"y": 1.1761322683,
				"z": -0.2155810679,
				"element": "H" 
			},
			{
				"x": 2.0009544997,
				"y": 2.9791749977,
				"z": 3.6782075389,
				"element": "H" 
			},
			{
				"x": 2.0022336684,
				"y": 2.2464894537,
				"z": 2.0686778849,
				"element": "H" 
			},
			{
				"x": 0.4879524717,
				"y": 2.7911611483,
				"z": 2.7881063399,
				"element": "H" 
			},
			{
				"x": 2.1383125443,
				"y": 1.2087268699,
				"z": 5.6781185576,
				"element": "H" 
			},
			{
				"x": 1.5305079396,
				"y": -1.4347609712,
				"z": 5.9350073091,
				"element": "H" 
			},
			{
				"x": -0.760042487,
				"y": -2.5335045676,
				"z": 3.1655211246,
				"element": "H" 
			},
			{
				"x": 0.8528158904,
				"y": -3.0774054616,
				"z": 2.7067859625,
				"element": "H" 
			},
			{
				"x": 0.3141072406,
				"y": -3.2392228778,
				"z": 4.3802439667,
				"element": "H" 
			}
		],
		 "valence_orbital": [ 
			{
				"type": "occ",
				"energy": -0.27588,
				"method": "rhf"
			},
			{
				"type": "occ",
				"energy": -0.26955,
				"method": "rhf"
			},
			{
				"type": "occ",
				"energy": -0.26662,
				"method": "rhf"
			},
			{
				"type": "occ",
				"energy": -0.22542,
				"method": "rhf"
			},
			{
				"type": "occ",
				"energy": -0.19079,
				"method": "rhf"
			},
			{
				"type": "unocc",
				"energy": -0.05232,
				"method": "rhf"
			},
			{
				"type": "unocc",
				"energy": -0.01673,
				"method": "rhf"
			},
			{
				"type": "unocc",
				"energy": 0.0355,
				"method": "rhf"
			},
			{
				"type": "unocc",
				"energy": 0.05949,
				"method": "rhf"
			},
			{
				"type": "unocc",
				"energy": 0.08702,
				"method": "rhf"
			}
		],
		"cosmo_sigma_profile": { 
			"-0.025": 0.0,
			"-0.024": 0.0,
			"-0.023": 0.0,
			"-0.022": 0.0,
			"-0.021": 0.0,
			"-0.02": 0.0,
			"-0.019": 0.0,
			"-0.018": 0.0,
			"-0.017": 0.0,
			"-0.016": 0.0,
			"-0.015": 0.0,
			"-0.014": 0.0,
			"-0.013": 0.0,
			"-0.012": 0.0,
			"-0.011": 0.0,
			"-0.01": 0.0,
			"-0.009": 0.0,
			"-0.008": 0.0170665601578,
			"-0.007": 2.66559224583,
			"-0.006": 8.79414171461,
			"-0.005": 16.7801956899,
			"-0.004": 28.9462237605,
			"-0.003": 30.7862266348,
			"-0.002": 33.3536452335,
			"-0.001": 32.8437672353,
			"0.0": 38.4582093992,
			"0.001": 26.6732316479,
			"0.002": 19.7393702144,
			"0.003": 17.3554022066,
			"0.004": 8.03851597369,
			"0.005": 8.96085246049,
			"0.006": 6.39573284959,
			"0.007": 5.61117966235,
			"0.008": 5.26472748285,
			"0.009": 5.6326664076,
			"0.01": 2.24574908241,
			"0.011": 2.4519242411,
			"0.012": 3.77783098436,
			"0.013": 0.157000551912,
			"0.014": 0.0,
			"0.015": 0.0,
			"0.016": 0.0,
			"0.017": 0.0,
			"0.018": 0.0,
			"0.019": 0.0,
			"0.02": 0.0,
			"0.021": 0.0,
			"0.022": 0.0,
			"0.023": 0.0,
			"0.024": 0.0,
			"0.025": 0.0
		}
	}
}
