{
	 "smiles": "OC1=CC=C2C(OC3=C(C=CC(O)=C3Br)C22OC(=O)C3=CC=CC=C23)=C1Br", 
	 "Tm": 558.15, 
	 "num_atms": 37, 
	 "gaussian": { 
		 "optdone": 1, 
		 "sigma_profile": "yes", 
		 "theory": "DFT", 
		 "functional": "B3LYP", 
		 "basiset": "6-31G**", 
		 "properties": { 
			 "R2extent": 15564.5968, 
			 "electric_dipole_moment_norm": 4.78046519284, 
			 "electric_quadrupole_moment_norm": 18.2157908692, 
			 "total_energy": -6287.08833683, 
			 "HOMO_LUMO_gap": 0.17867, 
			 "cosmo_polarized_energy": -17.83, 
			 "cosmo_cavitation_energy": 46.0, 
			 "cosmo_dispersion_energy": -32.65, 
			 "cosmo_repulsion_energy": 2.43, 
			 "cosmo_total_nonelectrostatic_energy": 15.78, 
			 "SMD_solvation_energy": 7.34 
		},
		"coords": [
			{
				"x": 4.3266145271,
				"y": -3.075014408,
				"z": 1.8834467841,
				"element": "O" 
			},
			{
				"x": 3.3296477659,
				"y": -2.3472105747,
				"z": 1.3366418181,
				"element": "C" 
			},
			{
				"x": 2.5682820813,
				"y": -1.5276748085,
				"z": 2.1855300073,
				"element": "C" 
			},
			{
				"x": 1.53405211,
				"y": -0.7690983791,
				"z": 1.6676839833,
				"element": "C" 
			},
			{
				"x": 1.2102034741,
				"y": -0.7864155797,
				"z": 0.3014337621,
				"element": "C" 
			},
			{
				"x": 1.9730951347,
				"y": -1.5986336817,
				"z": -0.5401667061,
				"element": "C" 
			},
			{
				"x": 1.7524035277,
				"y": -1.699329384,
				"z": -1.8834308638,
				"element": "O" 
			},
			{
				"x": 0.7264336921,
				"y": -1.0004643691,
				"z": -2.4510200294,
				"element": "C" 
			},
			{
				"x": -0.1131916745,
				"y": -0.1513861912,
				"z": -1.7270986591,
				"element": "C" 
			},
			{
				"x": -1.1354854644,
				"y": 0.5121391493,
				"z": -2.4245697751,
				"element": "C" 
			},
			{
				"x": -1.3257846242,
				"y": 0.3413382141,
				"z": -3.783924243,
				"element": "C" 
			},
			{
				"x": -0.4825793942,
				"y": -0.5175670214,
				"z": -4.50724967,
				"element": "C" 
			},
			{
				"x": -0.7058201316,
				"y": -0.6596195743,
				"z": -5.831114139,
				"element": "O" 
			},
			{
				"x": 0.5411794015,
				"y": -1.1866802582,
				"z": -3.8290350957,
				"element": "C" 
			},
			{
				"x": 1.6828950881,
				"y": -2.355324247,
				"z": -4.811712653,
				"element": "Br" 
			},
			{
				"x": 0.1063940011,
				"y": 0.092268563,
				"z": -0.2487304991,
				"element": "C" 
			},
			{
				"x": 0.512420394,
				"y": 1.5041231104,
				"z": -0.0717196494,
				"element": "O" 
			},
			{
				"x": -0.3687591471,
				"y": 2.1974829642,
				"z": 0.7201287993,
				"element": "C" 
			},
			{
				"x": -0.2263730196,
				"y": 3.3638406014,
				"z": 0.9920325502,
				"element": "O" 
			},
			{
				"x": -1.4409033661,
				"y": 1.2583999672,
				"z": 1.1255392442,
				"element": "C" 
			},
			{
				"x": -2.5586148874,
				"y": 1.4890225257,
				"z": 1.9267709144,
				"element": "C" 
			},
			{
				"x": -3.4216596687,
				"y": 0.4179956428,
				"z": 2.1547902219,
				"element": "C" 
			},
			{
				"x": -3.1604525259,
				"y": -0.8412261231,
				"z": 1.5905877924,
				"element": "C" 
			},
			{
				"x": -2.0364739948,
				"y": -1.0594643422,
				"z": 0.7890788752,
				"element": "C" 
			},
			{
				"x": -1.1791890769,
				"y": 0.0146912263,
				"z": 0.5657505337,
				"element": "C" 
			},
			{
				"x": 3.0214388321,
				"y": -2.3768949328,
				"z": -0.0271355845,
				"element": "C" 
			},
			{
				"x": 4.0535184957,
				"y": -3.4929503833,
				"z": -1.177892599,
				"element": "Br" 
			},
			{
				"x": 4.7640216134,
				"y": -3.5824963971,
				"z": 1.1793534524,
				"element": "H" 
			},
			{
				"x": 2.8154128296,
				"y": -1.5085417185,
				"z": 3.240811843,
				"element": "H" 
			},
			{
				"x": 0.956313806,
				"y": -0.1372487941,
				"z": 2.3341855283,
				"element": "H" 
			},
			{
				"x": -1.791756495,
				"y": 1.1818131794,
				"z": -1.8786030928,
				"element": "H" 
			},
			{
				"x": -2.1151580906,
				"y": 0.8580835363,
				"z": -4.31770606,
				"element": "H" 
			},
			{
				"x": -0.045817688,
				"y": -1.2738612785,
				"z": -6.1940377322,
				"element": "H" 
			},
			{
				"x": -2.7365067837,
				"y": 2.4724003085,
				"z": 2.3503810482,
				"element": "H" 
			},
			{
				"x": -4.3039161665,
				"y": 0.5539817865,
				"z": 2.7728428826,
				"element": "H" 
			},
			{
				"x": -3.8462221095,
				"y": -1.6616583998,
				"z": 1.7813520279,
				"element": "H" 
			},
			{
				"x": -1.8422624659,
				"y": -2.036419929,
				"z": 0.356804983,
				"element": "H" 
			}
		],
		 "valence_orbital": [ 
			{
				"type": "occ",
				"energy": -0.27342,
				"method": "rhf"
			},
			{
				"type": "occ",
				"energy": -0.26819,
				"method": "rhf"
			},
			{
				"type": "occ",
				"energy": -0.24283,
				"method": "rhf"
			},
			{
				"type": "occ",
				"energy": -0.23522,
				"method": "rhf"
			},
			{
				"type": "occ",
				"energy": -0.23374,
				"method": "rhf"
			},
			{
				"type": "unocc",
				"energy": -0.05507,
				"method": "rhf"
			},
			{
				"type": "unocc",
				"energy": -0.03476,
				"method": "rhf"
			},
			{
				"type": "unocc",
				"energy": -0.03411,
				"method": "rhf"
			},
			{
				"type": "unocc",
				"energy": -0.02434,
				"method": "rhf"
			},
			{
				"type": "unocc",
				"energy": -0.01363,
				"method": "rhf"
			}
		],
		"cosmo_sigma_profile": { 
			"-0.025": 0.0,
			"-0.024": 0.0,
			"-0.023": 0.0,
			"-0.022": 0.0,
			"-0.021": 0.0,
			"-0.02": 0.0,
			"-0.019": 0.0,
			"-0.018": 0.0,
			"-0.017": 0.0,
			"-0.016": 0.0,
			"-0.015": 0.635471070097,
			"-0.014": 1.41687272684,
			"-0.013": 1.14832768377,
			"-0.012": 1.19053851643,
			"-0.011": 1.58632516265,
			"-0.01": 1.95097214617,
			"-0.009": 2.16526209502,
			"-0.008": 3.2368259285,
			"-0.007": 17.773716159,
			"-0.006": 22.3913376867,
			"-0.005": 22.6357487001,
			"-0.004": 19.4417307857,
			"-0.003": 18.6520616688,
			"-0.002": 21.2560139777,
			"-0.001": 26.3339376393,
			"0.0": 38.1142674719,
			"0.001": 39.7792628407,
			"0.002": 34.9783713572,
			"0.003": 33.8443922589,
			"0.004": 16.68507944,
			"0.005": 8.54420657238,
			"0.006": 7.78472117553,
			"0.007": 5.1438163961,
			"0.008": 5.93883352267,
			"0.009": 7.21370916485,
			"0.01": 7.33203349857,
			"0.011": 5.25241134158,
			"0.012": 4.57047549852,
			"0.013": 0.810196856062,
			"0.014": 0.0,
			"0.015": 0.0,
			"0.016": 0.0,
			"0.017": 0.0,
			"0.018": 0.0,
			"0.019": 0.0,
			"0.02": 0.0,
			"0.021": 0.0,
			"0.022": 0.0,
			"0.023": 0.0,
			"0.024": 0.0,
			"0.025": 0.0
		}
	}
}
