{
	 "smiles": "OC1=CC2=C(C=C1)C(=CC(=O)O2)C(F)(F)F", 
	 "Tm": 453.15, 
	 "num_atms": 21, 
	 "gaussian": { 
		 "optdone": 1, 
		 "sigma_profile": "yes", 
		 "theory": "DFT", 
		 "functional": "B3LYP", 
		 "basiset": "6-31G**", 
		 "properties": { 
			 "R2extent": 4171.9541, 
			 "electric_dipole_moment_norm": 5.40447793131, 
			 "electric_quadrupole_moment_norm": 9.62272761747, 
			 "total_energy": -909.272129022, 
			 "HOMO_LUMO_gap": 0.15737, 
			 "cosmo_polarized_energy": -13.91, 
			 "cosmo_cavitation_energy": 27.4, 
			 "cosmo_dispersion_energy": -20.03, 
			 "cosmo_repulsion_energy": 1.47, 
			 "cosmo_total_nonelectrostatic_energy": 8.84, 
			 "SMD_solvation_energy": 7.36 
		},
		"coords": [
			{
				"x": 1.8917344832,
				"y": -1.5778004663,
				"z": 3.4588376395,
				"element": "O" 
			},
			{
				"x": 1.7207444646,
				"y": -1.1457061691,
				"z": 2.1838373525,
				"element": "C" 
			},
			{
				"x": 0.730217628,
				"y": -0.1901725832,
				"z": 1.9611458068,
				"element": "C" 
			},
			{
				"x": 0.5241086719,
				"y": 0.2781416569,
				"z": 0.6674744752,
				"element": "C" 
			},
			{
				"x": 1.2883220235,
				"y": -0.1853870908,
				"z": -0.4276408922,
				"element": "C" 
			},
			{
				"x": 2.2815586619,
				"y": -1.1512774295,
				"z": -0.168200193,
				"element": "C" 
			},
			{
				"x": 2.4983683863,
				"y": -1.6267950094,
				"z": 1.1134745825,
				"element": "C" 
			},
			{
				"x": 0.9785036319,
				"y": 0.3783619872,
				"z": -1.7236336998,
				"element": "C" 
			},
			{
				"x": 0.0004856082,
				"y": 1.3040959521,
				"z": -1.860809457,
				"element": "C" 
			},
			{
				"x": -0.7804596785,
				"y": 1.7736244015,
				"z": -0.721846808,
				"element": "C" 
			},
			{
				"x": -1.6659139866,
				"y": 2.5930888467,
				"z": -0.760669413,
				"element": "O" 
			},
			{
				"x": -0.4581838976,
				"y": 1.2117015949,
				"z": 0.5119218069,
				"element": "O" 
			},
			{
				"x": 1.7549480004,
				"y": -0.0702811593,
				"z": -2.9421854288,
				"element": "C" 
			},
			{
				"x": 3.0754781372,
				"y": 0.1806899778,
				"z": -2.7961898496,
				"element": "F" 
			},
			{
				"x": 1.3473376423,
				"y": 0.5463085584,
				"z": -4.064688212,
				"element": "F" 
			},
			{
				"x": 1.6240609084,
				"y": -1.4016341022,
				"z": -3.1382391441,
				"element": "F" 
			},
			{
				"x": 2.6009996394,
				"y": -2.2335696303,
				"z": 3.4874457342,
				"element": "H" 
			},
			{
				"x": 0.127898911,
				"y": 0.1848107708,
				"z": 2.7795520579,
				"element": "H" 
			},
			{
				"x": 2.886859878,
				"y": -1.5297747538,
				"z": -0.9821890331,
				"element": "H" 
			},
			{
				"x": 3.2690348364,
				"y": -2.3717281233,
				"z": 1.2940895248,
				"element": "H" 
			},
			{
				"x": -0.2500039499,
				"y": 1.7403027707,
				"z": -2.8182868497,
				"element": "H" 
			}
		],
		 "valence_orbital": [ 
			{
				"type": "occ",
				"energy": -0.35719,
				"method": "rhf"
			},
			{
				"type": "occ",
				"energy": -0.31273,
				"method": "rhf"
			},
			{
				"type": "occ",
				"energy": -0.28358,
				"method": "rhf"
			},
			{
				"type": "occ",
				"energy": -0.26266,
				"method": "rhf"
			},
			{
				"type": "occ",
				"energy": -0.2387,
				"method": "rhf"
			},
			{
				"type": "unocc",
				"energy": -0.08133,
				"method": "rhf"
			},
			{
				"type": "unocc",
				"energy": -0.0238,
				"method": "rhf"
			},
			{
				"type": "unocc",
				"energy": -0.00762,
				"method": "rhf"
			},
			{
				"type": "unocc",
				"energy": 0.04943,
				"method": "rhf"
			},
			{
				"type": "unocc",
				"energy": 0.07416,
				"method": "rhf"
			}
		],
		"cosmo_sigma_profile": { 
			"-0.025": 0.0,
			"-0.024": 0.0,
			"-0.023": 0.0,
			"-0.022": 0.0,
			"-0.021": 0.0,
			"-0.02": 0.0,
			"-0.019": 0.650114854386,
			"-0.018": 1.03028496489,
			"-0.017": 1.10162838829,
			"-0.016": 1.42112262758,
			"-0.015": 1.03191327998,
			"-0.014": 0.953248007712,
			"-0.013": 0.335081990889,
			"-0.012": 1.20064028641,
			"-0.011": 1.64664389688,
			"-0.01": 1.04003463052,
			"-0.009": 1.52917240528,
			"-0.008": 4.04165049115,
			"-0.007": 6.02993787452,
			"-0.006": 6.99702421979,
			"-0.005": 8.53959269706,
			"-0.004": 11.0408895865,
			"-0.003": 12.0338702799,
			"-0.002": 15.0804764992,
			"-0.001": 15.0236105574,
			"0.0": 18.2280816894,
			"0.001": 28.9500103402,
			"0.002": 37.3541242546,
			"0.003": 8.67236717545,
			"0.004": 3.83690480595,
			"0.005": 3.56903054997,
			"0.006": 2.74424565801,
			"0.007": 3.5948178362,
			"0.008": 4.10552200838,
			"0.009": 4.55823872827,
			"0.01": 4.09006398308,
			"0.011": 5.7090835628,
			"0.012": 4.45174672125,
			"0.013": 0.540580119973,
			"0.014": 0.0,
			"0.015": 0.0,
			"0.016": 0.0,
			"0.017": 0.0,
			"0.018": 0.0,
			"0.019": 0.0,
			"0.02": 0.0,
			"0.021": 0.0,
			"0.022": 0.0,
			"0.023": 0.0,
			"0.024": 0.0,
			"0.025": 0.0
		}
	}
}
