{
	 "smiles": "CC(C)(C)OC(=O)OC1=CC=C(N)C=C1", 
	 "Tm": 386.15, 
	 "num_atms": 30, 
	 "gaussian": { 
		 "optdone": 1, 
		 "sigma_profile": "yes", 
		 "theory": "DFT", 
		 "functional": "B3LYP", 
		 "basiset": "6-31G**", 
		 "properties": { 
			 "R2extent": 4964.7293, 
			 "electric_dipole_moment_norm": 1.32706494566, 
			 "electric_quadrupole_moment_norm": 22.6742502516, 
			 "total_energy": -708.66143583, 
			 "HOMO_LUMO_gap": 0.20039, 
			 "cosmo_polarized_energy": -13.94, 
			 "cosmo_cavitation_energy": 33.6, 
			 "cosmo_dispersion_energy": -23.8, 
			 "cosmo_repulsion_energy": 1.9, 
			 "cosmo_total_nonelectrostatic_energy": 11.7, 
			 "SMD_solvation_energy": 7.27 
		},
		"coords": [
			{
				"x": 2.3239103759,
				"y": -0.2553286409,
				"z": -3.2635452588,
				"element": "C" 
			},
			{
				"x": 2.7622136549,
				"y": -0.3111459861,
				"z": -1.7969493237,
				"element": "C" 
			},
			{
				"x": 2.8073877267,
				"y": -1.7432661645,
				"z": -1.2555055572,
				"element": "C" 
			},
			{
				"x": 4.1075146188,
				"y": 0.3911135556,
				"z": -1.6004826208,
				"element": "C" 
			},
			{
				"x": 1.8552679489,
				"y": 0.5095664256,
				"z": -0.970533902,
				"element": "O" 
			},
			{
				"x": 0.5575549224,
				"y": 0.2055918801,
				"z": -0.8834608782,
				"element": "C" 
			},
			{
				"x": -0.0373986445,
				"y": -0.7046941658,
				"z": -1.4144880357,
				"element": "O" 
			},
			{
				"x": 0.0007483035,
				"y": 1.1345370387,
				"z": -0.0614460165,
				"element": "O" 
			},
			{
				"x": -1.3747922057,
				"y": 1.022198585,
				"z": 0.1867426443,
				"element": "C" 
			},
			{
				"x": -2.2779987513,
				"y": 1.7058438625,
				"z": -0.6205228034,
				"element": "C" 
			},
			{
				"x": -3.6386237674,
				"y": 1.6568833599,
				"z": -0.3290880322,
				"element": "C" 
			},
			{
				"x": -4.1114496393,
				"y": 0.9238546515,
				"z": 0.773211989,
				"element": "C" 
			},
			{
				"x": -5.4713990748,
				"y": 0.9214261194,
				"z": 1.0989931033,
				"element": "N" 
			},
			{
				"x": -3.1792975806,
				"y": 0.2457484043,
				"z": 1.5777098425,
				"element": "C" 
			},
			{
				"x": -1.8186985827,
				"y": 0.2948076134,
				"z": 1.2861460294,
				"element": "C" 
			},
			{
				"x": 2.26013851,
				"y": 0.7836038621,
				"z": -3.6019054856,
				"element": "H" 
			},
			{
				"x": 3.0628210376,
				"y": -0.7703031974,
				"z": -3.8857494276,
				"element": "H" 
			},
			{
				"x": 1.3542604589,
				"y": -0.7344567741,
				"z": -3.4028010713,
				"element": "H" 
			},
			{
				"x": 1.8429311246,
				"y": -2.2385728061,
				"z": -1.3723853745,
				"element": "H" 
			},
			{
				"x": 3.0806678796,
				"y": -1.7404515596,
				"z": -0.1956705321,
				"element": "H" 
			},
			{
				"x": 3.5648436037,
				"y": -2.3161554153,
				"z": -1.7999226739,
				"element": "H" 
			},
			{
				"x": 4.8861984471,
				"y": -0.1246368092,
				"z": -2.1701506726,
				"element": "H" 
			},
			{
				"x": 4.0548473747,
				"y": 1.428373569,
				"z": -1.943065022,
				"element": "H" 
			},
			{
				"x": 4.3916200551,
				"y": 0.3919328867,
				"z": -0.5443906857,
				"element": "H" 
			},
			{
				"x": -1.9141417905,
				"y": 2.2730135883,
				"z": -1.4710800831,
				"element": "H" 
			},
			{
				"x": -4.3436009227,
				"y": 2.1943810466,
				"z": -0.9580975031,
				"element": "H" 
			},
			{
				"x": -5.7763627199,
				"y": 0.1242946031,
				"z": 1.641012077,
				"element": "H" 
			},
			{
				"x": -6.0939183315,
				"y": 1.1001798585,
				"z": 0.322637924,
				"element": "H" 
			},
			{
				"x": -3.5252361062,
				"y": -0.3197885155,
				"z": 2.4391293549,
				"element": "H" 
			},
			{
				"x": -1.1000079252,
				"y": -0.2281508759,
				"z": 1.9086579955,
				"element": "H" 
			}
		],
		 "valence_orbital": [ 
			{
				"type": "occ",
				"energy": -0.30107,
				"method": "rhf"
			},
			{
				"type": "occ",
				"energy": -0.29418,
				"method": "rhf"
			},
			{
				"type": "occ",
				"energy": -0.27178,
				"method": "rhf"
			},
			{
				"type": "occ",
				"energy": -0.24967,
				"method": "rhf"
			},
			{
				"type": "occ",
				"energy": -0.20107,
				"method": "rhf"
			},
			{
				"type": "unocc",
				"energy": -0.00068,
				"method": "rhf"
			},
			{
				"type": "unocc",
				"energy": 0.01867,
				"method": "rhf"
			},
			{
				"type": "unocc",
				"energy": 0.04669,
				"method": "rhf"
			},
			{
				"type": "unocc",
				"energy": 0.07778,
				"method": "rhf"
			},
			{
				"type": "unocc",
				"energy": 0.08661,
				"method": "rhf"
			}
		],
		"cosmo_sigma_profile": { 
			"-0.025": 0.0,
			"-0.024": 0.0,
			"-0.023": 0.0,
			"-0.022": 0.0,
			"-0.021": 0.0,
			"-0.02": 0.0,
			"-0.019": 0.0,
			"-0.018": 0.0,
			"-0.017": 0.0,
			"-0.016": 0.0,
			"-0.015": 0.0,
			"-0.014": 0.0,
			"-0.013": 0.390398780346,
			"-0.012": 2.91819530037,
			"-0.011": 2.62924257856,
			"-0.01": 2.66229590242,
			"-0.009": 4.04199341893,
			"-0.008": 2.69546413692,
			"-0.007": 4.81472117895,
			"-0.006": 8.54569915281,
			"-0.005": 12.0419331296,
			"-0.004": 24.0271968069,
			"-0.003": 23.7653022896,
			"-0.002": 21.3603367437,
			"-0.001": 23.8489341134,
			"0.0": 28.7916417025,
			"0.001": 16.9844997223,
			"0.002": 8.55606556685,
			"0.003": 10.2675686232,
			"0.004": 12.4566366692,
			"0.005": 13.468644495,
			"0.006": 10.2511994596,
			"0.007": 4.08288392041,
			"0.008": 5.46930690669,
			"0.009": 5.41410892072,
			"0.01": 5.22583270636,
			"0.011": 4.20019866249,
			"0.012": 3.67319005545,
			"0.013": 0.935340146547,
			"0.014": 0.453051687821,
			"0.015": 0.266342892539,
			"0.016": 0.0,
			"0.017": 0.0,
			"0.018": 0.0,
			"0.019": 0.0,
			"0.02": 0.0,
			"0.021": 0.0,
			"0.022": 0.0,
			"0.023": 0.0,
			"0.024": 0.0,
			"0.025": 0.0
		}
	}
}
