{
	 "smiles": "NS(=O)(=O)C1=CC2=C(CCN2)C=C1", 
	 "Tm": 438.15, 
	 "num_atms": 23, 
	 "gaussian": { 
		 "optdone": 1, 
		 "sigma_profile": "yes", 
		 "theory": "DFT", 
		 "functional": "B3LYP", 
		 "basiset": "6-31G**", 
		 "properties": { 
			 "R2extent": 3757.8374, 
			 "electric_dipole_moment_norm": 7.82565205845, 
			 "electric_quadrupole_moment_norm": 23.3268831178, 
			 "total_energy": -968.947437598, 
			 "HOMO_LUMO_gap": 0.17928, 
			 "cosmo_polarized_energy": -21.31, 
			 "cosmo_cavitation_energy": 27.63, 
			 "cosmo_dispersion_energy": -21.22, 
			 "cosmo_repulsion_energy": 1.64, 
			 "cosmo_total_nonelectrostatic_energy": 8.06, 
			 "SMD_solvation_energy": 2.72 
		},
		"coords": [
			{
				"x": -2.7970331511,
				"y": -0.8494958735,
				"z": -2.4851393138,
				"element": "N" 
			},
			{
				"x": -2.73996385,
				"y": -1.8741667417,
				"z": -1.1461627042,
				"element": "S" 
			},
			{
				"x": -4.0708467253,
				"y": -1.8029141263,
				"z": -0.5451959529,
				"element": "O" 
			},
			{
				"x": -2.1556213711,
				"y": -3.1220961193,
				"z": -1.6368566984,
				"element": "O" 
			},
			{
				"x": -1.5732973312,
				"y": -1.1416083418,
				"z": 0.0108297636,
				"element": "C" 
			},
			{
				"x": -0.2299729634,
				"y": -1.531656215,
				"z": -0.0630143615,
				"element": "C" 
			},
			{
				"x": 0.6627743329,
				"y": -0.9159760019,
				"z": 0.813963154,
				"element": "C" 
			},
			{
				"x": 0.2226516744,
				"y": 0.0608855223,
				"z": 1.7299424632,
				"element": "C" 
			},
			{
				"x": 1.4116782684,
				"y": 0.4967651749,
				"z": 2.5605863152,
				"element": "C" 
			},
			{
				"x": 2.6082550873,
				"y": -0.0314368729,
				"z": 1.7301341886,
				"element": "C" 
			},
			{
				"x": 2.0261270473,
				"y": -1.1551182463,
				"z": 0.9736346152,
				"element": "N" 
			},
			{
				"x": -1.1156862696,
				"y": 0.4164172413,
				"z": 1.7920237926,
				"element": "C" 
			},
			{
				"x": -2.0333461218,
				"y": -0.1874205892,
				"z": 0.9198345939,
				"element": "C" 
			},
			{
				"x": -1.9058196718,
				"y": -0.8004401835,
				"z": -2.9694162045,
				"element": "H" 
			},
			{
				"x": -3.1630606891,
				"y": 0.0682800938,
				"z": -2.2505258464,
				"element": "H" 
			},
			{
				"x": 0.0785122323,
				"y": -2.3029996415,
				"z": -0.7604127503,
				"element": "H" 
			},
			{
				"x": 1.3828306709,
				"y": 0.0124570991,
				"z": 3.5455116671,
				"element": "H" 
			},
			{
				"x": 1.4649484311,
				"y": 1.5762166046,
				"z": 2.7271891795,
				"element": "H" 
			},
			{
				"x": 3.4416790658,
				"y": -0.3688423725,
				"z": 2.3521167878,
				"element": "H" 
			},
			{
				"x": 2.9799314927,
				"y": 0.7559178067,
				"z": 1.0558634049,
				"element": "H" 
			},
			{
				"x": 2.5410142682,
				"y": -1.4853818031,
				"z": 0.168324371,
				"element": "H" 
			},
			{
				"x": -1.4582779198,
				"y": 1.1571216747,
				"z": 2.5095946002,
				"element": "H" 
			},
			{
				"x": -3.0888765072,
				"y": 0.0557919113,
				"z": 0.9609749352,
				"element": "H" 
			}
		],
		 "valence_orbital": [ 
			{
				"type": "occ",
				"energy": -0.29835,
				"method": "rhf"
			},
			{
				"type": "occ",
				"energy": -0.29591,
				"method": "rhf"
			},
			{
				"type": "occ",
				"energy": -0.29469,
				"method": "rhf"
			},
			{
				"type": "occ",
				"energy": -0.26005,
				"method": "rhf"
			},
			{
				"type": "occ",
				"energy": -0.21114,
				"method": "rhf"
			},
			{
				"type": "unocc",
				"energy": -0.03186,
				"method": "rhf"
			},
			{
				"type": "unocc",
				"energy": -0.00478,
				"method": "rhf"
			},
			{
				"type": "unocc",
				"energy": 0.0576,
				"method": "rhf"
			},
			{
				"type": "unocc",
				"energy": 0.07471,
				"method": "rhf"
			},
			{
				"type": "unocc",
				"energy": 0.08508,
				"method": "rhf"
			}
		],
		"cosmo_sigma_profile": { 
			"-0.025": 0.0,
			"-0.024": 0.0,
			"-0.023": 0.0,
			"-0.022": 0.0,
			"-0.021": 0.0,
			"-0.02": 0.0,
			"-0.019": 0.0,
			"-0.018": 0.0,
			"-0.017": 0.0,
			"-0.016": 0.0,
			"-0.015": 1.2631289791,
			"-0.014": 2.49778013617,
			"-0.013": 3.82443109025,
			"-0.012": 3.8182552336,
			"-0.011": 4.15528090824,
			"-0.01": 3.52931485369,
			"-0.009": 3.50035020066,
			"-0.008": 4.02307628949,
			"-0.007": 4.18132175567,
			"-0.006": 6.4869476812,
			"-0.005": 11.1022207972,
			"-0.004": 19.0668095554,
			"-0.003": 20.4089514465,
			"-0.002": 17.2161390985,
			"-0.001": 12.1702427966,
			"0.0": 6.43209774811,
			"0.001": 8.15801844702,
			"0.002": 8.76755829637,
			"0.003": 11.1174938196,
			"0.004": 13.4588467296,
			"0.005": 7.02833863521,
			"0.006": 2.82898719175,
			"0.007": 5.48854692982,
			"0.008": 5.72510735396,
			"0.009": 5.62038442773,
			"0.01": 7.44293285661,
			"0.011": 10.1134440806,
			"0.012": 8.67710477011,
			"0.013": 0.776182551178,
			"0.014": 0.0,
			"0.015": 0.0,
			"0.016": 0.0,
			"0.017": 0.0,
			"0.018": 0.0,
			"0.019": 0.0,
			"0.02": 0.0,
			"0.021": 0.0,
			"0.022": 0.0,
			"0.023": 0.0,
			"0.024": 0.0,
			"0.025": 0.0
		}
	}
}
