{
	 "smiles": "CCCCCCCCCCCCOC(=O)C1=CC=C(O)C=C1", 
	 "Tm": 328.15, 
	 "num_atms": 52, 
	 "gaussian": { 
		 "optdone": 1, 
		 "sigma_profile": "yes", 
		 "theory": "DFT", 
		 "functional": "B3LYP", 
		 "basiset": "6-31G**", 
		 "properties": { 
			 "R2extent": 10641.1186, 
			 "electric_dipole_moment_norm": 3.45600389612, 
			 "electric_quadrupole_moment_norm": 19.0794639946, 
			 "total_energy": -967.823190806, 
			 "HOMO_LUMO_gap": 0.19674, 
			 "cosmo_polarized_energy": -12.14, 
			 "cosmo_cavitation_energy": 52.58, 
			 "cosmo_dispersion_energy": -33.78, 
			 "cosmo_repulsion_energy": 2.62, 
			 "cosmo_total_nonelectrostatic_energy": 21.42, 
			 "SMD_solvation_energy": 8.29 
		},
		"coords": [
			{
				"x": 3.0266846872,
				"y": -1.8711983463,
				"z": 0.6237960024,
				"element": "C" 
			},
			{
				"x": 4.0666758709,
				"y": -0.7912634193,
				"z": 0.301998377,
				"element": "C" 
			},
			{
				"x": 4.0449052323,
				"y": 0.4106012686,
				"z": 1.2631681604,
				"element": "C" 
			},
			{
				"x": 2.7715020655,
				"y": 1.2750018019,
				"z": 1.2299986818,
				"element": "C" 
			},
			{
				"x": 2.5362733939,
				"y": 2.0047644594,
				"z": -0.1006138034,
				"element": "C" 
			},
			{
				"x": 1.3432088607,
				"y": 2.9703461129,
				"z": -0.0520871035,
				"element": "C" 
			},
			{
				"x": 1.0813138676,
				"y": 3.7146061036,
				"z": -1.376313629,
				"element": "C" 
			},
			{
				"x": 0.4841363728,
				"y": 2.8681080201,
				"z": -2.5258303932,
				"element": "C" 
			},
			{
				"x": -1.0486671229,
				"y": 2.9457670105,
				"z": -2.6671004903,
				"element": "C" 
			},
			{
				"x": -1.8792818874,
				"y": 2.4186696445,
				"z": -1.4846170462,
				"element": "C" 
			},
			{
				"x": -1.7507573485,
				"y": 0.9070515007,
				"z": -1.2486688655,
				"element": "C" 
			},
			{
				"x": -2.5636518332,
				"y": 0.457172432,
				"z": -0.0391209588,
				"element": "C" 
			},
			{
				"x": -2.5101763275,
				"y": -0.9750162888,
				"z": 0.1481281588,
				"element": "O" 
			},
			{
				"x": -1.4404434231,
				"y": -1.4592325833,
				"z": 0.8223940297,
				"element": "C" 
			},
			{
				"x": -0.5445829834,
				"y": -0.7515078364,
				"z": 1.252800405,
				"element": "O" 
			},
			{
				"x": -1.4929357463,
				"y": -2.9335133051,
				"z": 0.9811651392,
				"element": "C" 
			},
			{
				"x": -0.4683335569,
				"y": -3.5629379275,
				"z": 1.7071567827,
				"element": "C" 
			},
			{
				"x": -0.4674934018,
				"y": -4.9378747364,
				"z": 1.8896874429,
				"element": "C" 
			},
			{
				"x": -1.5019152148,
				"y": -5.7099254471,
				"z": 1.3421691566,
				"element": "C" 
			},
			{
				"x": -1.4544982238,
				"y": -7.0541989008,
				"z": 1.5488448067,
				"element": "O" 
			},
			{
				"x": -2.5301951306,
				"y": -5.0937147582,
				"z": 0.6162299252,
				"element": "C" 
			},
			{
				"x": -2.5239237223,
				"y": -3.7140780401,
				"z": 0.4397027088,
				"element": "C" 
			},
			{
				"x": 3.1769674569,
				"y": -2.2653673451,
				"z": 1.6365329757,
				"element": "H" 
			},
			{
				"x": 3.1038988227,
				"y": -2.7132249836,
				"z": -0.0727159481,
				"element": "H" 
			},
			{
				"x": 2.0035426516,
				"y": -1.4868557922,
				"z": 0.5704357458,
				"element": "H" 
			},
			{
				"x": 3.9279173503,
				"y": -0.4445565665,
				"z": -0.7302386694,
				"element": "H" 
			},
			{
				"x": 5.0684010525,
				"y": -1.2397943087,
				"z": 0.3320230398,
				"element": "H" 
			},
			{
				"x": 4.1928362543,
				"y": 0.0404699774,
				"z": 2.2873133748,
				"element": "H" 
			},
			{
				"x": 4.9106051332,
				"y": 1.0520950945,
				"z": 1.0457996158,
				"element": "H" 
			},
			{
				"x": 1.8909621283,
				"y": 0.6653253348,
				"z": 1.4680271518,
				"element": "H" 
			},
			{
				"x": 2.8451650003,
				"y": 2.023623445,
				"z": 2.031263027,
				"element": "H" 
			},
			{
				"x": 3.4410905088,
				"y": 2.5683641279,
				"z": -0.3736960665,
				"element": "H" 
			},
			{
				"x": 2.3845374896,
				"y": 1.2707949672,
				"z": -0.9024495497,
				"element": "H" 
			},
			{
				"x": 0.4487640564,
				"y": 2.4177193228,
				"z": 0.2618170877,
				"element": "H" 
			},
			{
				"x": 1.5291591339,
				"y": 3.7127197425,
				"z": 0.7362637925,
				"element": "H" 
			},
			{
				"x": 0.4181464316,
				"y": 4.5697199084,
				"z": -1.1861800438,
				"element": "H" 
			},
			{
				"x": 2.032808641,
				"y": 4.1503505054,
				"z": -1.7088960745,
				"element": "H" 
			},
			{
				"x": 0.7999291699,
				"y": 1.8222790314,
				"z": -2.4247897065,
				"element": "H" 
			},
			{
				"x": 0.9108067882,
				"y": 3.208004952,
				"z": -3.477557935,
				"element": "H" 
			},
			{
				"x": -1.32418472,
				"y": 3.9949264821,
				"z": -2.8403636658,
				"element": "H" 
			},
			{
				"x": -1.3461292958,
				"y": 2.4022938221,
				"z": -3.5747328037,
				"element": "H" 
			},
			{
				"x": -1.6021523697,
				"y": 2.9581521598,
				"z": -0.5696638147,
				"element": "H" 
			},
			{
				"x": -2.9353117895,
				"y": 2.661582563,
				"z": -1.6667724153,
				"element": "H" 
			},
			{
				"x": -0.7052447095,
				"y": 0.631135934,
				"z": -1.0815329754,
				"element": "H" 
			},
			{
				"x": -2.0929583773,
				"y": 0.3594215293,
				"z": -2.1361694971,
				"element": "H" 
			},
			{
				"x": -3.6271170279,
				"y": 0.6754333574,
				"z": -0.1714310597,
				"element": "H" 
			},
			{
				"x": -2.2059956337,
				"y": 0.9454128068,
				"z": 0.8715308064,
				"element": "H" 
			},
			{
				"x": 0.3229513182,
				"y": -2.9496971612,
				"z": 2.1241170089,
				"element": "H" 
			},
			{
				"x": 0.3177826966,
				"y": -5.4353514992,
				"z": 2.4486727617,
				"element": "H" 
			},
			{
				"x": -2.2168611378,
				"y": -7.4709552776,
				"z": 1.1258730281,
				"element": "H" 
			},
			{
				"x": -3.3317827274,
				"y": -5.6951536844,
				"z": 0.1925733093,
				"element": "H" 
			},
			{
				"x": -3.3184787243,
				"y": -3.23539521,
				"z": -0.1207399872,
				"element": "H" 
			}
		],
		 "valence_orbital": [ 
			{
				"type": "occ",
				"energy": -0.2906,
				"method": "rhf"
			},
			{
				"type": "occ",
				"energy": -0.2889,
				"method": "rhf"
			},
			{
				"type": "occ",
				"energy": -0.26962,
				"method": "rhf"
			},
			{
				"type": "occ",
				"energy": -0.26141,
				"method": "rhf"
			},
			{
				"type": "occ",
				"energy": -0.23284,
				"method": "rhf"
			},
			{
				"type": "unocc",
				"energy": -0.0361,
				"method": "rhf"
			},
			{
				"type": "unocc",
				"energy": -0.00972,
				"method": "rhf"
			},
			{
				"type": "unocc",
				"energy": 0.06162,
				"method": "rhf"
			},
			{
				"type": "unocc",
				"energy": 0.0642,
				"method": "rhf"
			},
			{
				"type": "unocc",
				"energy": 0.07982,
				"method": "rhf"
			}
		],
		"cosmo_sigma_profile": { 
			"-0.025": 0.0,
			"-0.024": 0.0,
			"-0.023": 0.0,
			"-0.022": 0.0,
			"-0.021": 0.0,
			"-0.02": 0.0,
			"-0.019": 0.0422381392479,
			"-0.018": 1.03430717347,
			"-0.017": 1.13688602098,
			"-0.016": 1.28110989234,
			"-0.015": 0.631757103484,
			"-0.014": 1.19783891474,
			"-0.013": 0.919565646711,
			"-0.012": 1.09556113219,
			"-0.011": 1.10411211285,
			"-0.01": 1.11249064413,
			"-0.009": 0.740249340751,
			"-0.008": 1.49153137554,
			"-0.007": 2.89530866645,
			"-0.006": 5.08903366152,
			"-0.005": 8.21098495916,
			"-0.004": 11.3147061931,
			"-0.003": 17.5925199634,
			"-0.002": 45.1797782341,
			"-0.001": 63.1900050321,
			"0.0": 67.6317402381,
			"0.001": 64.1485094753,
			"0.002": 42.5499839503,
			"0.003": 21.9984440378,
			"0.004": 16.9902026009,
			"0.005": 8.98590170711,
			"0.006": 6.33006664189,
			"0.007": 3.40389101911,
			"0.008": 2.46612362482,
			"0.009": 2.7067757783,
			"0.01": 3.24072899714,
			"0.011": 2.47128224694,
			"0.012": 0.238155954109,
			"0.013": 0.0,
			"0.014": 0.0,
			"0.015": 0.0,
			"0.016": 0.0,
			"0.017": 0.0,
			"0.018": 0.0,
			"0.019": 0.0,
			"0.02": 0.0,
			"0.021": 0.0,
			"0.022": 0.0,
			"0.023": 0.0,
			"0.024": 0.0,
			"0.025": 0.0
		}
	}
}
