{
	 "smiles": "ClCC1=COC(=N1)C1=CC=CC=C1", 
	 "Tm": 326.15, 
	 "num_atms": 21, 
	 "gaussian": { 
		 "optdone": 1, 
		 "sigma_profile": "yes", 
		 "theory": "DFT", 
		 "functional": "B3LYP", 
		 "basiset": "6-31G**", 
		 "properties": { 
			 "R2extent": 3865.9905, 
			 "electric_dipole_moment_norm": 2.98588527074, 
			 "electric_quadrupole_moment_norm": 13.4708261102, 
			 "total_energy": -976.048445178, 
			 "HOMO_LUMO_gap": 0.18161, 
			 "cosmo_polarized_energy": -9.56, 
			 "cosmo_cavitation_energy": 27.74, 
			 "cosmo_dispersion_energy": -20.55, 
			 "cosmo_repulsion_energy": 1.64, 
			 "cosmo_total_nonelectrostatic_energy": 8.83, 
			 "SMD_solvation_energy": 3.65 
		},
		"coords": [
			{
				"x": 4.8676044745,
				"y": -0.5624896353,
				"z": 0.6345198385,
				"element": "Cl" 
			},
			{
				"x": 3.9191036613,
				"y": 0.9241129484,
				"z": 0.1288840336,
				"element": "C" 
			},
			{
				"x": 2.5675474523,
				"y": 0.5924230298,
				"z": -0.383886805,
				"element": "C" 
			},
			{
				"x": 2.1464329024,
				"y": 0.4763953491,
				"z": -1.6731980804,
				"element": "C" 
			},
			{
				"x": 0.8177153193,
				"y": 0.1651025814,
				"z": -1.6569090707,
				"element": "O" 
			},
			{
				"x": 0.4882359255,
				"y": 0.1041247927,
				"z": -0.3291709487,
				"element": "C" 
			},
			{
				"x": 1.4938434005,
				"y": 0.3519450694,
				"z": 0.4611084955,
				"element": "N" 
			},
			{
				"x": -0.890942281,
				"y": -0.2113481723,
				"z": 0.0307907158,
				"element": "C" 
			},
			{
				"x": -1.8675294654,
				"y": -0.4363337359,
				"z": -0.9521074293,
				"element": "C" 
			},
			{
				"x": -3.1757268359,
				"y": -0.7359002593,
				"z": -0.5775287309,
				"element": "C" 
			},
			{
				"x": -3.5207124313,
				"y": -0.8135476213,
				"z": 0.7735890803,
				"element": "C" 
			},
			{
				"x": -2.5495019143,
				"y": -0.590260956,
				"z": 1.7540202192,
				"element": "C" 
			},
			{
				"x": -1.2403931798,
				"y": -0.2907561839,
				"z": 1.3890239643,
				"element": "C" 
			},
			{
				"x": 3.8522494559,
				"y": 1.5445458709,
				"z": 1.0219348204,
				"element": "H" 
			},
			{
				"x": 4.5267183365,
				"y": 1.4221679293,
				"z": -0.6261571298,
				"element": "H" 
			},
			{
				"x": 2.6157468582,
				"y": 0.5706036151,
				"z": -2.6391900223,
				"element": "H" 
			},
			{
				"x": -1.5975278792,
				"y": -0.3758601531,
				"z": -2.0009269629,
				"element": "H" 
			},
			{
				"x": -3.9270836011,
				"y": -0.9092588667,
				"z": -1.3422657084,
				"element": "H" 
			},
			{
				"x": -4.5413779478,
				"y": -1.0475617453,
				"z": 1.0618089544,
				"element": "H" 
			},
			{
				"x": -2.8138460016,
				"y": -0.6509326044,
				"z": 2.8056098173,
				"element": "H" 
			},
			{
				"x": -0.4754562489,
				"y": -0.1168712526,
				"z": 2.1381509493,
				"element": "H" 
			}
		],
		 "valence_orbital": [ 
			{
				"type": "occ",
				"energy": -0.29559,
				"method": "rhf"
			},
			{
				"type": "occ",
				"energy": -0.29132,
				"method": "rhf"
			},
			{
				"type": "occ",
				"energy": -0.28454,
				"method": "rhf"
			},
			{
				"type": "occ",
				"energy": -0.25968,
				"method": "rhf"
			},
			{
				"type": "occ",
				"energy": -0.22906,
				"method": "rhf"
			},
			{
				"type": "unocc",
				"energy": -0.04745,
				"method": "rhf"
			},
			{
				"type": "unocc",
				"energy": -0.01382,
				"method": "rhf"
			},
			{
				"type": "unocc",
				"energy": -0.00702,
				"method": "rhf"
			},
			{
				"type": "unocc",
				"energy": 0.0487,
				"method": "rhf"
			},
			{
				"type": "unocc",
				"energy": 0.07405,
				"method": "rhf"
			}
		],
		"cosmo_sigma_profile": { 
			"-0.025": 0.0,
			"-0.024": 0.0,
			"-0.023": 0.0,
			"-0.022": 0.0,
			"-0.021": 0.0,
			"-0.02": 0.0,
			"-0.019": 0.0,
			"-0.018": 0.0,
			"-0.017": 0.0,
			"-0.016": 0.0,
			"-0.015": 0.0,
			"-0.014": 0.0,
			"-0.013": 0.0,
			"-0.012": 0.0,
			"-0.011": 0.505185772308,
			"-0.01": 2.17577717159,
			"-0.009": 3.37490608389,
			"-0.008": 5.91718789388,
			"-0.007": 5.59375431181,
			"-0.006": 13.3314714824,
			"-0.005": 14.6809749603,
			"-0.004": 15.0584155222,
			"-0.003": 10.3167982147,
			"-0.002": 13.2171755564,
			"-0.001": 14.3916542096,
			"0.0": 18.5062202645,
			"0.001": 17.920513221,
			"0.002": 15.9981547302,
			"0.003": 16.9514853037,
			"0.004": 18.7285780907,
			"0.005": 13.6669114981,
			"0.006": 11.962481322,
			"0.007": 7.01608356972,
			"0.008": 1.20798711943,
			"0.009": 0.934817441374,
			"0.01": 1.38948487197,
			"0.011": 0.93458611941,
			"0.012": 0.781797751422,
			"0.013": 0.756956516859,
			"0.014": 0.15743846553,
			"0.015": 0.0,
			"0.016": 0.0,
			"0.017": 0.0,
			"0.018": 0.0,
			"0.019": 0.0,
			"0.02": 0.0,
			"0.021": 0.0,
			"0.022": 0.0,
			"0.023": 0.0,
			"0.024": 0.0,
			"0.025": 0.0
		}
	}
}
