{
	 "smiles": "NC1=CN=C(C=C1)N1CCCC1", 
	 "Tm": 357.15, 
	 "num_atms": 25, 
	 "gaussian": { 
		 "optdone": 1, 
		 "sigma_profile": "yes", 
		 "theory": "DFT", 
		 "functional": "B3LYP", 
		 "basiset": "6-31G**", 
		 "properties": { 
			 "R2extent": 3342.0161, 
			 "electric_dipole_moment_norm": 1.76650046419, 
			 "electric_quadrupole_moment_norm": 11.3817970466, 
			 "total_energy": -515.049072242, 
			 "HOMO_LUMO_gap": 0.16272, 
			 "cosmo_polarized_energy": -10.84, 
			 "cosmo_cavitation_energy": 26.94, 
			 "cosmo_dispersion_energy": -20.42, 
			 "cosmo_repulsion_energy": 1.64, 
			 "cosmo_total_nonelectrostatic_energy": 8.15, 
			 "SMD_solvation_energy": 2.28 
		},
		"coords": [
			{
				"x": 2.5007805339,
				"y": -4.3553421699,
				"z": -0.9763166441,
				"element": "N" 
			},
			{
				"x": 2.1460583902,
				"y": -2.9956107554,
				"z": -0.87054139,
				"element": "C" 
			},
			{
				"x": 1.9182088489,
				"y": -2.2013378265,
				"z": -1.9995430533,
				"element": "C" 
			},
			{
				"x": 1.5228535703,
				"y": -0.9260022365,
				"z": -1.9647773478,
				"element": "N" 
			},
			{
				"x": 1.323282362,
				"y": -0.3442085699,
				"z": -0.7685805618,
				"element": "C" 
			},
			{
				"x": 1.5218547719,
				"y": -1.0578144556,
				"z": 0.4370384192,
				"element": "C" 
			},
			{
				"x": 1.9312566613,
				"y": -2.3807772683,
				"z": 0.3732593412,
				"element": "C" 
			},
			{
				"x": 0.9191215275,
				"y": 0.9707789455,
				"z": -0.7797739326,
				"element": "N" 
			},
			{
				"x": 0.6253328517,
				"y": 1.6929170176,
				"z": -2.0173718321,
				"element": "C" 
			},
			{
				"x": -0.1162904874,
				"y": 2.9441699979,
				"z": -1.5235536198,
				"element": "C" 
			},
			{
				"x": 0.4895517572,
				"y": 3.1903211372,
				"z": -0.1314329212,
				"element": "C" 
			},
			{
				"x": 0.7015971895,
				"y": 1.7696104418,
				"z": 0.4184997008,
				"element": "C" 
			},
			{
				"x": 2.9202257538,
				"y": -4.5887768459,
				"z": -1.8681894778,
				"element": "H" 
			},
			{
				"x": 3.0967228035,
				"y": -4.6764336294,
				"z": -0.2229956637,
				"element": "H" 
			},
			{
				"x": 2.0648164927,
				"y": -2.6260275074,
				"z": -2.9942255374,
				"element": "H" 
			},
			{
				"x": 1.349735915,
				"y": -0.5892573051,
				"z": 1.3991516432,
				"element": "H" 
			},
			{
				"x": 2.0781137719,
				"y": -2.9464936179,
				"z": 1.2907282906,
				"element": "H" 
			},
			{
				"x": 1.5501459957,
				"y": 1.952606126,
				"z": -2.5542476982,
				"element": "H" 
			},
			{
				"x": 0.0294867093,
				"y": 1.0739310252,
				"z": -2.6944156776,
				"element": "H" 
			},
			{
				"x": -1.1881601501,
				"y": 2.732514733,
				"z": -1.4343416215,
				"element": "H" 
			},
			{
				"x": 0.0004871867,
				"y": 3.7955970742,
				"z": -2.1998476344,
				"element": "H" 
			},
			{
				"x": 1.4559695038,
				"y": 3.6982805137,
				"z": -0.2269650629,
				"element": "H" 
			},
			{
				"x": -0.1446238503,
				"y": 3.7992259109,
				"z": 0.5188789045,
				"element": "H" 
			},
			{
				"x": -0.1804093883,
				"y": 1.4223231541,
				"z": 0.9826013848,
				"element": "H" 
			},
			{
				"x": 1.5618812796,
				"y": 1.7169061108,
				"z": 1.0994619917,
				"element": "H" 
			}
		],
		 "valence_orbital": [ 
			{
				"type": "occ",
				"energy": -0.32001,
				"method": "rhf"
			},
			{
				"type": "occ",
				"energy": -0.26209,
				"method": "rhf"
			},
			{
				"type": "occ",
				"energy": -0.2437,
				"method": "rhf"
			},
			{
				"type": "occ",
				"energy": -0.23777,
				"method": "rhf"
			},
			{
				"type": "occ",
				"energy": -0.16567,
				"method": "rhf"
			},
			{
				"type": "unocc",
				"energy": -0.00295,
				"method": "rhf"
			},
			{
				"type": "unocc",
				"energy": 0.03603,
				"method": "rhf"
			},
			{
				"type": "unocc",
				"energy": 0.08736,
				"method": "rhf"
			},
			{
				"type": "unocc",
				"energy": 0.08859,
				"method": "rhf"
			},
			{
				"type": "unocc",
				"energy": 0.11373,
				"method": "rhf"
			}
		],
		"cosmo_sigma_profile": { 
			"-0.025": 0.0,
			"-0.024": 0.0,
			"-0.023": 0.0,
			"-0.022": 0.0,
			"-0.021": 0.0,
			"-0.02": 0.0,
			"-0.019": 0.0,
			"-0.018": 0.0,
			"-0.017": 0.0,
			"-0.016": 0.0,
			"-0.015": 0.0,
			"-0.014": 0.0,
			"-0.013": 0.0,
			"-0.012": 1.13207305589,
			"-0.011": 3.008839245,
			"-0.01": 2.49411097258,
			"-0.009": 3.17003662107,
			"-0.008": 3.26060953689,
			"-0.007": 3.63908934704,
			"-0.006": 5.26377430943,
			"-0.005": 6.44855904867,
			"-0.004": 11.0962654034,
			"-0.003": 23.6865952167,
			"-0.002": 29.3650133756,
			"-0.001": 25.9431716583,
			"0.0": 17.1388602997,
			"0.001": 8.89007143352,
			"0.002": 6.49768335288,
			"0.003": 7.97244166187,
			"0.004": 10.7174906621,
			"0.005": 13.8419140069,
			"0.006": 7.35542824245,
			"0.007": 3.58100627029,
			"0.008": 2.63400894822,
			"0.009": 2.40494525589,
			"0.01": 2.42124109899,
			"0.011": 2.14754857985,
			"0.012": 2.02718838477,
			"0.013": 1.76090644059,
			"0.014": 1.03199633676,
			"0.015": 1.37312278544,
			"0.016": 0.923433189205,
			"0.017": 0.0,
			"0.018": 0.0,
			"0.019": 0.0,
			"0.02": 0.0,
			"0.021": 0.0,
			"0.022": 0.0,
			"0.023": 0.0,
			"0.024": 0.0,
			"0.025": 0.0
		}
	}
}
