{
	 "smiles": "CC1=C(Cl)C=C(C=C1)N1N=C(C=CC1=O)C(O)=O", 
	 "Tm": 514.15, 
	 "num_atms": 27, 
	 "gaussian": { 
		 "optdone": 1, 
		 "sigma_profile": "yes", 
		 "theory": "DFT", 
		 "functional": "B3LYP", 
		 "basiset": "6-31G**", 
		 "properties": { 
			 "R2extent": 6337.6668, 
			 "electric_dipole_moment_norm": 2.4927467922, 
			 "electric_quadrupole_moment_norm": 22.1782502734, 
			 "total_energy": -1258.06117978, 
			 "HOMO_LUMO_gap": 0.1494, 
			 "cosmo_polarized_energy": -15.93, 
			 "cosmo_cavitation_energy": 34.25, 
			 "cosmo_dispersion_energy": -24.75, 
			 "cosmo_repulsion_energy": 1.89, 
			 "cosmo_total_nonelectrostatic_energy": 11.4, 
			 "SMD_solvation_energy": 7.24 
		},
		"coords": [
			{
				"x": 0.5647834553,
				"y": -0.181403518,
				"z": -4.4658086061,
				"element": "C" 
			},
			{
				"x": 0.4229338925,
				"y": 0.0915564428,
				"z": -2.9920197068,
				"element": "C" 
			},
			{
				"x": 0.294595455,
				"y": 1.3917510731,
				"z": -2.4782400149,
				"element": "C" 
			},
			{
				"x": 0.2845210009,
				"y": 2.7634333487,
				"z": -3.5799789776,
				"element": "Cl" 
			},
			{
				"x": 0.1676584691,
				"y": 1.6566053257,
				"z": -1.1173292879,
				"element": "C" 
			},
			{
				"x": 0.1657962247,
				"y": 0.584526252,
				"z": -0.221952667,
				"element": "C" 
			},
			{
				"x": 0.2952049328,
				"y": -0.7244127194,
				"z": -0.6909844839,
				"element": "C" 
			},
			{
				"x": 0.4178292839,
				"y": -0.9531177328,
				"z": -2.057808313,
				"element": "C" 
			},
			{
				"x": 0.0032788239,
				"y": 0.8063084421,
				"z": 1.1909544858,
				"element": "N" 
			},
			{
				"x": -0.7764681576,
				"y": -0.087660714,
				"z": 1.8136295754,
				"element": "N" 
			},
			{
				"x": -0.9344080788,
				"y": -0.0132562884,
				"z": 3.1109136029,
				"element": "C" 
			},
			{
				"x": -0.3043601969,
				"y": 0.983982453,
				"z": 3.9158156972,
				"element": "C" 
			},
			{
				"x": 0.4863723289,
				"y": 1.8951109063,
				"z": 3.2982515908,
				"element": "C" 
			},
			{
				"x": 0.6962484639,
				"y": 1.8750464599,
				"z": 1.8576779912,
				"element": "C" 
			},
			{
				"x": 1.3880119252,
				"y": 2.6669108376,
				"z": 1.2373330521,
				"element": "O" 
			},
			{
				"x": -1.8335435766,
				"y": -1.0457080797,
				"z": 3.7291485706,
				"element": "C" 
			},
			{
				"x": -2.3947694105,
				"y": -1.9067466349,
				"z": 2.8636646928,
				"element": "O" 
			},
			{
				"x": -2.0314825773,
				"y": -1.0914562691,
				"z": 4.9214791391,
				"element": "O" 
			},
			{
				"x": 1.4486835019,
				"y": 0.3165580986,
				"z": -4.8782570004,
				"element": "H" 
			},
			{
				"x": -0.2987493379,
				"y": 0.1954081154,
				"z": -5.0242285267,
				"element": "H" 
			},
			{
				"x": 0.6547778002,
				"y": -1.2538264881,
				"z": -4.6540374043,
				"element": "H" 
			},
			{
				"x": 0.0841695447,
				"y": 2.6748111178,
				"z": -0.7669450809,
				"element": "H" 
			},
			{
				"x": 0.302743995,
				"y": -1.5510175608,
				"z": 0.0095946548,
				"element": "H" 
			},
			{
				"x": 0.521713214,
				"y": -1.9731507332,
				"z": -2.4161816808,
				"element": "H" 
			},
			{
				"x": -0.4809864912,
				"y": 0.9764853619,
				"z": 4.9855162438,
				"element": "H" 
			},
			{
				"x": 1.0067523057,
				"y": 2.6819342824,
				"z": 3.8325851944,
				"element": "H" 
			},
			{
				"x": -2.0981067907,
				"y": -1.6642717789,
				"z": 1.9670072595,
				"element": "H" 
			}
		],
		 "valence_orbital": [ 
			{
				"type": "occ",
				"energy": -0.29285,
				"method": "rhf"
			},
			{
				"type": "occ",
				"energy": -0.28274,
				"method": "rhf"
			},
			{
				"type": "occ",
				"energy": -0.27523,
				"method": "rhf"
			},
			{
				"type": "occ",
				"energy": -0.26198,
				"method": "rhf"
			},
			{
				"type": "occ",
				"energy": -0.24748,
				"method": "rhf"
			},
			{
				"type": "unocc",
				"energy": -0.09808,
				"method": "rhf"
			},
			{
				"type": "unocc",
				"energy": -0.05476,
				"method": "rhf"
			},
			{
				"type": "unocc",
				"energy": -0.0274,
				"method": "rhf"
			},
			{
				"type": "unocc",
				"energy": -0.02176,
				"method": "rhf"
			},
			{
				"type": "unocc",
				"energy": 0.02163,
				"method": "rhf"
			}
		],
		"cosmo_sigma_profile": { 
			"-0.025": 0.0,
			"-0.024": 0.0,
			"-0.023": 0.0,
			"-0.022": 0.0,
			"-0.021": 0.0,
			"-0.02": 0.0,
			"-0.019": 0.0,
			"-0.018": 0.0,
			"-0.017": 0.0,
			"-0.016": 0.0,
			"-0.015": 0.257784756221,
			"-0.014": 0.464285548639,
			"-0.013": 0.585786760971,
			"-0.012": 0.625553499541,
			"-0.011": 1.10028034371,
			"-0.01": 0.663787631407,
			"-0.009": 2.55155534781,
			"-0.008": 5.38829316222,
			"-0.007": 10.1467104825,
			"-0.006": 16.200382187,
			"-0.005": 18.885781179,
			"-0.004": 21.0904759138,
			"-0.003": 20.9870540758,
			"-0.002": 19.3848145076,
			"-0.001": 25.4670330885,
			"0.0": 19.2126976946,
			"0.001": 16.8207035516,
			"0.002": 21.4656884336,
			"0.003": 16.4923460761,
			"0.004": 11.0958135533,
			"0.005": 7.28042148544,
			"0.006": 4.59746096546,
			"0.007": 4.32218773197,
			"0.008": 3.73134628865,
			"0.009": 6.28334491645,
			"0.01": 7.30771980451,
			"0.011": 7.20043613049,
			"0.012": 5.98426738204,
			"0.013": 1.86745463333,
			"0.014": 0.0118143607319,
			"0.015": 0.0,
			"0.016": 0.0,
			"0.017": 0.0,
			"0.018": 0.0,
			"0.019": 0.0,
			"0.02": 0.0,
			"0.021": 0.0,
			"0.022": 0.0,
			"0.023": 0.0,
			"0.024": 0.0,
			"0.025": 0.0
		}
	}
}
