{
	 "smiles": "CCC1=NC(C)=CN1", 
	 "Tm": 321.95, 
	 "num_atms": 18, 
	 "gaussian": { 
		 "optdone": 1, 
		 "sigma_profile": "yes", 
		 "theory": "DFT", 
		 "functional": "B3LYP", 
		 "basiset": "6-31G**", 
		 "properties": { 
			 "R2extent": 1169.5454, 
			 "electric_dipole_moment_norm": 3.15514946239, 
			 "electric_quadrupole_moment_norm": 4.06437918876, 
			 "total_energy": -344.180920392, 
			 "HOMO_LUMO_gap": 0.24467, 
			 "cosmo_polarized_energy": -11.12, 
			 "cosmo_cavitation_energy": 21.22, 
			 "cosmo_dispersion_energy": -15.66, 
			 "cosmo_repulsion_energy": 1.34, 
			 "cosmo_total_nonelectrostatic_energy": 6.89, 
			 "SMD_solvation_energy": 2.21 
		},
		"coords": [
			{
				"x": -0.524139913,
				"y": 1.8227314514,
				"z": -1.6932277372,
				"element": "C" 
			},
			{
				"x": -0.3244913115,
				"y": 0.2961902702,
				"z": -1.7300346384,
				"element": "C" 
			},
			{
				"x": -0.0361068854,
				"y": -0.2947178604,
				"z": -0.3829253048,
				"element": "C" 
			},
			{
				"x": 1.1551534491,
				"y": -0.4097071308,
				"z": 0.1714725378,
				"element": "N" 
			},
			{
				"x": 0.9489196175,
				"y": -0.9550549224,
				"z": 1.4250475604,
				"element": "C" 
			},
			{
				"x": 2.0893071866,
				"y": -1.2390640882,
				"z": 2.3517200241,
				"element": "C" 
			},
			{
				"x": -0.3926899721,
				"y": -1.1703338167,
				"z": 1.6270144696,
				"element": "C" 
			},
			{
				"x": -1.0131848168,
				"y": -0.7440922529,
				"z": 0.4658236239,
				"element": "N" 
			},
			{
				"x": 0.3646472783,
				"y": 2.3121929056,
				"z": -1.2853976234,
				"element": "H" 
			},
			{
				"x": -0.7042078773,
				"y": 2.2167577455,
				"z": -2.6987822043,
				"element": "H" 
			},
			{
				"x": -1.3773554013,
				"y": 2.098077997,
				"z": -1.0641596037,
				"element": "H" 
			},
			{
				"x": -1.2106592101,
				"y": -0.184622166,
				"z": -2.1641104893,
				"element": "H" 
			},
			{
				"x": 0.5200348451,
				"y": 0.0539701876,
				"z": -2.381902455,
				"element": "H" 
			},
			{
				"x": 1.73588684,
				"y": -1.6695250835,
				"z": 3.2932140411,
				"element": "H" 
			},
			{
				"x": 2.7985038562,
				"y": -1.9414045965,
				"z": 1.8996699916,
				"element": "H" 
			},
			{
				"x": 2.6468310998,
				"y": -0.324400599,
				"z": 2.5823216895,
				"element": "H" 
			},
			{
				"x": -0.9460031497,
				"y": -1.5832042372,
				"z": 2.4566869775,
				"element": "H" 
			},
			{
				"x": -2.0034456354,
				"y": -0.7679938034,
				"z": 0.2772691407,
				"element": "H" 
			}
		],
		 "valence_orbital": [ 
			{
				"type": "occ",
				"energy": -0.3511,
				"method": "rhf"
			},
			{
				"type": "occ",
				"energy": -0.34447,
				"method": "rhf"
			},
			{
				"type": "occ",
				"energy": -0.26163,
				"method": "rhf"
			},
			{
				"type": "occ",
				"energy": -0.25269,
				"method": "rhf"
			},
			{
				"type": "occ",
				"energy": -0.20597,
				"method": "rhf"
			},
			{
				"type": "unocc",
				"energy": 0.0387,
				"method": "rhf"
			},
			{
				"type": "unocc",
				"energy": 0.07288,
				"method": "rhf"
			},
			{
				"type": "unocc",
				"energy": 0.07842,
				"method": "rhf"
			},
			{
				"type": "unocc",
				"energy": 0.12171,
				"method": "rhf"
			},
			{
				"type": "unocc",
				"energy": 0.12935,
				"method": "rhf"
			}
		],
		"cosmo_sigma_profile": { 
			"-0.025": 0.0,
			"-0.024": 0.0,
			"-0.023": 0.0,
			"-0.022": 0.0,
			"-0.021": 0.0,
			"-0.02": 0.0,
			"-0.019": 0.0,
			"-0.018": 0.0,
			"-0.017": 0.0,
			"-0.016": 0.627702794145,
			"-0.015": 1.34458855327,
			"-0.014": 1.05028894873,
			"-0.013": 1.47340830751,
			"-0.012": 1.09598486223,
			"-0.011": 1.05880087973,
			"-0.01": 1.47596288327,
			"-0.009": 1.31214850145,
			"-0.008": 1.64076191969,
			"-0.007": 3.63702643742,
			"-0.006": 3.28365720693,
			"-0.005": 3.81586554928,
			"-0.004": 9.92720700394,
			"-0.003": 16.1358038968,
			"-0.002": 15.5272002263,
			"-0.001": 20.0711989703,
			"0.0": 19.5098826698,
			"0.001": 16.4258939658,
			"0.002": 7.81772997494,
			"0.003": 4.81490325305,
			"0.004": 5.57856879704,
			"0.005": 5.79066363804,
			"0.006": 6.12702977072,
			"0.007": 3.12084500843,
			"0.008": 2.21419228863,
			"0.009": 1.50309284409,
			"0.01": 1.67209783998,
			"0.011": 1.06498181627,
			"0.012": 0.732272053879,
			"0.013": 1.32424119085,
			"0.014": 1.23885102108,
			"0.015": 0.887006595352,
			"0.016": 0.85999652728,
			"0.017": 0.691034201356,
			"0.018": 0.769485349363,
			"0.019": 0.904537661651,
			"0.02": 0.0612579234949,
			"0.021": 0.0,
			"0.022": 0.0,
			"0.023": 0.0,
			"0.024": 0.0,
			"0.025": 0.0
		}
	}
}
