{
	 "smiles": "[O-][N+](=O)C1=CC(=CC(=C1)[N+]([O-])=O)C(F)(F)F", 
	 "Tm": 324.15, 
	 "num_atms": 19, 
	 "gaussian": { 
		 "optdone": 1, 
		 "sigma_profile": "yes", 
		 "theory": "DFT", 
		 "functional": "B3LYP", 
		 "basiset": "6-31G**", 
		 "properties": { 
			 "R2extent": 3806.1937, 
			 "electric_dipole_moment_norm": 1.89298720809, 
			 "electric_quadrupole_moment_norm": 10.8511439369, 
			 "total_energy": -978.267299463, 
			 "HOMO_LUMO_gap": 0.19377, 
			 "cosmo_polarized_energy": -10.87, 
			 "cosmo_cavitation_energy": 27.54, 
			 "cosmo_dispersion_energy": -19.31, 
			 "cosmo_repulsion_energy": 1.44, 
			 "cosmo_total_nonelectrostatic_energy": 9.67, 
			 "SMD_solvation_energy": 10.53 
		},
		"coords": [
			{
				"x": 1.9895468922,
				"y": -2.9111705959,
				"z": -1.4503751302,
				"element": "O" 
			},
			{
				"x": 0.8398686525,
				"y": -2.4835364556,
				"z": -1.4892616019,
				"element": "N" 
			},
			{
				"x": -0.0879796657,
				"y": -2.9828891959,
				"z": -2.1199712924,
				"element": "O" 
			},
			{
				"x": 0.5460012028,
				"y": -1.2623083429,
				"z": -0.7096537295,
				"element": "C" 
			},
			{
				"x": -0.7475387236,
				"y": -0.7485823885,
				"z": -0.7307924888,
				"element": "C" 
			},
			{
				"x": -1.0226714492,
				"y": 0.401960747,
				"z": 0.0094367735,
				"element": "C" 
			},
			{
				"x": -0.0200667498,
				"y": 1.0202609649,
				"z": 0.7576789888,
				"element": "C" 
			},
			{
				"x": 1.2576634676,
				"y": 0.4680747966,
				"z": 0.7465229115,
				"element": "C" 
			},
			{
				"x": 1.5720952031,
				"y": -0.6750620896,
				"z": 0.0211559586,
				"element": "C" 
			},
			{
				"x": 2.3211179065,
				"y": 1.1180126551,
				"z": 1.5416217989,
				"element": "N" 
			},
			{
				"x": 3.4368220625,
				"y": 0.6077631658,
				"z": 1.5100579607,
				"element": "O" 
			},
			{
				"x": 2.0120074176,
				"y": 2.1230479428,
				"z": 2.1759764971,
				"element": "O" 
			},
			{
				"x": -2.4046643269,
				"y": 1.0119987619,
				"z": -0.0402423754,
				"element": "C" 
			},
			{
				"x": -2.5032336304,
				"y": 1.9004189086,
				"z": -1.0501786476,
				"element": "F" 
			},
			{
				"x": -3.3485647697,
				"y": 0.070846407,
				"z": -0.2354911941,
				"element": "F" 
			},
			{
				"x": -2.6932803574,
				"y": 1.6644591081,
				"z": 1.1024795573,
				"element": "F" 
			},
			{
				"x": -1.5135175015,
				"y": -1.2488462305,
				"z": -1.3096865401,
				"element": "H" 
			},
			{
				"x": -0.2153723154,
				"y": 1.9075743106,
				"z": 1.3464348957,
				"element": "H" 
			},
			{
				"x": 2.5705666847,
				"y": -1.0910224697,
				"z": 0.027487658,
				"element": "H" 
			}
		],
		 "valence_orbital": [ 
			{
				"type": "occ",
				"energy": -0.33329,
				"method": "rhf"
			},
			{
				"type": "occ",
				"energy": -0.32736,
				"method": "rhf"
			},
			{
				"type": "occ",
				"energy": -0.32406,
				"method": "rhf"
			},
			{
				"type": "occ",
				"energy": -0.3213,
				"method": "rhf"
			},
			{
				"type": "occ",
				"energy": -0.32039,
				"method": "rhf"
			},
			{
				"type": "unocc",
				"energy": -0.12662,
				"method": "rhf"
			},
			{
				"type": "unocc",
				"energy": -0.11616,
				"method": "rhf"
			},
			{
				"type": "unocc",
				"energy": -0.06227,
				"method": "rhf"
			},
			{
				"type": "unocc",
				"energy": -0.02368,
				"method": "rhf"
			},
			{
				"type": "unocc",
				"energy": 0.05776,
				"method": "rhf"
			}
		],
		"cosmo_sigma_profile": { 
			"-0.025": 0.0,
			"-0.024": 0.0,
			"-0.023": 0.0,
			"-0.022": 0.0,
			"-0.021": 0.0,
			"-0.02": 0.0,
			"-0.019": 0.0,
			"-0.018": 0.0,
			"-0.017": 0.0,
			"-0.016": 0.0,
			"-0.015": 0.0,
			"-0.014": 0.0,
			"-0.013": 0.0,
			"-0.012": 0.0,
			"-0.011": 0.0,
			"-0.01": 0.0377550042926,
			"-0.009": 3.53672938204,
			"-0.008": 6.5378667286,
			"-0.007": 9.2803235397,
			"-0.006": 8.63430053279,
			"-0.005": 18.1695598503,
			"-0.004": 24.8962359346,
			"-0.003": 14.3771735393,
			"-0.002": 8.07839958326,
			"-0.001": 9.69779563986,
			"0.0": 10.0684435289,
			"0.001": 15.5804297733,
			"0.002": 28.6006269119,
			"0.003": 9.43553052832,
			"0.004": 6.7372095951,
			"0.005": 7.65248576341,
			"0.006": 15.3256635768,
			"0.007": 13.3568423292,
			"0.008": 8.27562289677,
			"0.009": 4.35189890804,
			"0.01": 0.065310075445,
			"0.011": 0.0,
			"0.012": 0.0,
			"0.013": 0.0,
			"0.014": 0.0,
			"0.015": 0.0,
			"0.016": 0.0,
			"0.017": 0.0,
			"0.018": 0.0,
			"0.019": 0.0,
			"0.02": 0.0,
			"0.021": 0.0,
			"0.022": 0.0,
			"0.023": 0.0,
			"0.024": 0.0,
			"0.025": 0.0
		}
	}
}
