{
	 "smiles": "BrC1=C2C=CNC2=CC(=C1)C#N", 
	 "Tm": 413.15, 
	 "num_atms": 17, 
	 "gaussian": { 
		 "optdone": 1, 
		 "sigma_profile": "yes", 
		 "theory": "DFT", 
		 "functional": "B3LYP", 
		 "basiset": "6-31G**", 
		 "properties": { 
			 "R2extent": 3721.4594, 
			 "electric_dipole_moment_norm": 6.31882222095, 
			 "electric_quadrupole_moment_norm": 17.8639599541, 
			 "total_energy": -3026.86534142, 
			 "HOMO_LUMO_gap": 0.17296, 
			 "cosmo_polarized_energy": -14.52, 
			 "cosmo_cavitation_energy": 25.01, 
			 "cosmo_dispersion_energy": -18.42, 
			 "cosmo_repulsion_energy": 1.45, 
			 "cosmo_total_nonelectrostatic_energy": 8.05, 
			 "SMD_solvation_energy": 4.53 
		},
		"coords": [
			{
				"x": 2.5584437061,
				"y": 2.2265786745,
				"z": 1.1932057813,
				"element": "Br" 
			},
			{
				"x": 1.4710321512,
				"y": 1.1626909293,
				"z": 0.0444153342,
				"element": "C" 
			},
			{
				"x": 1.8231990668,
				"y": -0.175655526,
				"z": -0.1987730108,
				"element": "C" 
			},
			{
				"x": 2.8831441601,
				"y": -1.034791664,
				"z": 0.2275979923,
				"element": "C" 
			},
			{
				"x": 2.6699893598,
				"y": -2.2525102381,
				"z": -0.3662845275,
				"element": "C" 
			},
			{
				"x": 1.5305289226,
				"y": -2.2005326473,
				"z": -1.1432904775,
				"element": "N" 
			},
			{
				"x": 0.9826538017,
				"y": -0.9380290169,
				"z": -1.064572514,
				"element": "C" 
			},
			{
				"x": -0.1572354114,
				"y": -0.4126325422,
				"z": -1.6688323839,
				"element": "C" 
			},
			{
				"x": -0.4666990413,
				"y": 0.9244133398,
				"z": -1.3963605832,
				"element": "C" 
			},
			{
				"x": 0.3459139181,
				"y": 1.7128333878,
				"z": -0.5405078463,
				"element": "C" 
			},
			{
				"x": -1.6281996178,
				"y": 1.5146050525,
				"z": -1.9920922482,
				"element": "C" 
			},
			{
				"x": -2.5726425242,
				"y": 1.9903684779,
				"z": -2.4780177566,
				"element": "N" 
			},
			{
				"x": 3.6949799881,
				"y": -0.7751262617,
				"z": 0.8895253334,
				"element": "H" 
			},
			{
				"x": 3.2446479702,
				"y": -3.1649740196,
				"z": -0.2983542826,
				"element": "H" 
			},
			{
				"x": 1.1574658644,
				"y": -2.9647252634,
				"z": -1.6831624724,
				"element": "H" 
			},
			{
				"x": -0.7880817762,
				"y": -1.0022370809,
				"z": -2.325012262,
				"element": "H" 
			},
			{
				"x": 0.0765594619,
				"y": 2.7444243982,
				"z": -0.3515840763,
				"element": "H" 
			}
		],
		 "valence_orbital": [ 
			{
				"type": "occ",
				"energy": -0.31069,
				"method": "rhf"
			},
			{
				"type": "occ",
				"energy": -0.29448,
				"method": "rhf"
			},
			{
				"type": "occ",
				"energy": -0.28315,
				"method": "rhf"
			},
			{
				"type": "occ",
				"energy": -0.25099,
				"method": "rhf"
			},
			{
				"type": "occ",
				"energy": -0.22725,
				"method": "rhf"
			},
			{
				"type": "unocc",
				"energy": -0.05429,
				"method": "rhf"
			},
			{
				"type": "unocc",
				"energy": -0.01703,
				"method": "rhf"
			},
			{
				"type": "unocc",
				"energy": 0.00079,
				"method": "rhf"
			},
			{
				"type": "unocc",
				"energy": 0.0376,
				"method": "rhf"
			},
			{
				"type": "unocc",
				"energy": 0.04189,
				"method": "rhf"
			}
		],
		"cosmo_sigma_profile": { 
			"-0.025": 0.0,
			"-0.024": 0.0,
			"-0.023": 0.0,
			"-0.022": 0.0,
			"-0.021": 0.0,
			"-0.02": 0.0,
			"-0.019": 0.0,
			"-0.018": 0.0,
			"-0.017": 0.658820524406,
			"-0.016": 1.99877705837,
			"-0.015": 1.3619427867,
			"-0.014": 1.4912726972,
			"-0.013": 1.66873914243,
			"-0.012": 0.928573976948,
			"-0.011": 1.88317061146,
			"-0.01": 1.81649731603,
			"-0.009": 4.37625440511,
			"-0.008": 6.5292677606,
			"-0.007": 5.55261264007,
			"-0.006": 7.15472979646,
			"-0.005": 6.56712972986,
			"-0.004": 7.88808828373,
			"-0.003": 8.49868244498,
			"-0.002": 9.51217551808,
			"-0.001": 11.1669946075,
			"0.0": 13.8117095931,
			"0.001": 20.4054217712,
			"0.002": 30.2898704395,
			"0.003": 16.8136529246,
			"0.004": 16.2783247186,
			"0.005": 6.54093352505,
			"0.006": 2.38635804657,
			"0.007": 2.98373286406,
			"0.008": 3.10879413083,
			"0.009": 3.70677775626,
			"0.01": 3.21254203373,
			"0.011": 2.91086483936,
			"0.012": 2.46388146849,
			"0.013": 2.05380889843,
			"0.014": 0.230805430288,
			"0.015": 0.0,
			"0.016": 0.0,
			"0.017": 0.0,
			"0.018": 0.0,
			"0.019": 0.0,
			"0.02": 0.0,
			"0.021": 0.0,
			"0.022": 0.0,
			"0.023": 0.0,
			"0.024": 0.0,
			"0.025": 0.0
		}
	}
}
