{
	 "smiles": "CCOC(=O)C1=CC2=C(N1)C=CC(F)=C2", 
	 "Tm": 422.65, 
	 "num_atms": 25, 
	 "gaussian": { 
		 "optdone": 1, 
		 "sigma_profile": "yes", 
		 "theory": "DFT", 
		 "functional": "B3LYP", 
		 "basiset": "6-31G**", 
		 "properties": { 
			 "R2extent": 5361.8829, 
			 "electric_dipole_moment_norm": 1.84158833076, 
			 "electric_quadrupole_moment_norm": 13.1832779092, 
			 "total_energy": -730.257214934, 
			 "HOMO_LUMO_gap": 0.16531, 
			 "cosmo_polarized_energy": -9.33, 
			 "cosmo_cavitation_energy": 30.26, 
			 "cosmo_dispersion_energy": -22.06, 
			 "cosmo_repulsion_energy": 1.71, 
			 "cosmo_total_nonelectrostatic_energy": 9.9, 
			 "SMD_solvation_energy": 6.4 
		},
		"coords": [
			{
				"x": 0.8697853655,
				"y": -0.8526061971,
				"z": -3.709683407,
				"element": "C" 
			},
			{
				"x": -0.2154105844,
				"y": -1.7264994272,
				"z": -3.099063411,
				"element": "C" 
			},
			{
				"x": -0.3502148389,
				"y": -1.4826335844,
				"z": -1.6776618566,
				"element": "O" 
			},
			{
				"x": -1.151044441,
				"y": -0.4602474192,
				"z": -1.3185687778,
				"element": "C" 
			},
			{
				"x": -1.7627987676,
				"y": 0.2537791532,
				"z": -2.098078104,
				"element": "O" 
			},
			{
				"x": -1.219921439,
				"y": -0.2905887629,
				"z": 0.1355246029,
				"element": "C" 
			},
			{
				"x": -0.6266473987,
				"y": -0.965108648,
				"z": 1.1834272235,
				"element": "C" 
			},
			{
				"x": -1.0738458043,
				"y": -0.3380061625,
				"z": 2.3857458347,
				"element": "C" 
			},
			{
				"x": -1.9482021207,
				"y": 0.7247235788,
				"z": 2.0011938254,
				"element": "C" 
			},
			{
				"x": -2.0140445435,
				"y": 0.7257530152,
				"z": 0.6301495452,
				"element": "N" 
			},
			{
				"x": -2.5711021229,
				"y": 1.5536238689,
				"z": 2.9448075137,
				"element": "C" 
			},
			{
				"x": -2.3126162583,
				"y": 1.3123613392,
				"z": 4.2856057099,
				"element": "C" 
			},
			{
				"x": -1.4503781715,
				"y": 0.2644699257,
				"z": 4.6616650115,
				"element": "C" 
			},
			{
				"x": -1.2351602755,
				"y": 0.0757970634,
				"z": 5.9848884603,
				"element": "F" 
			},
			{
				"x": -0.8252709888,
				"y": -0.5652480711,
				"z": 3.7551416317,
				"element": "C" 
			},
			{
				"x": 1.8240449707,
				"y": -0.9993806082,
				"z": -3.1954693045,
				"element": "H" 
			},
			{
				"x": 0.5925900328,
				"y": 0.2025932809,
				"z": -3.6489812867,
				"element": "H" 
			},
			{
				"x": 1.0039626434,
				"y": -1.1121154595,
				"z": -4.7651135735,
				"element": "H" 
			},
			{
				"x": 0.0372829888,
				"y": -2.7871164539,
				"z": -3.1671101021,
				"element": "H" 
			},
			{
				"x": -1.1808651998,
				"y": -1.5509473431,
				"z": -3.5792965767,
				"element": "H" 
			},
			{
				"x": 0.0451437186,
				"y": -1.8048833743,
				"z": 1.0878661399,
				"element": "H" 
			},
			{
				"x": -2.5408022005,
				"y": 1.3420202227,
				"z": 0.029866682,
				"element": "H" 
			},
			{
				"x": -3.2339313852,
				"y": 2.3582783776,
				"z": 2.642088654,
				"element": "H" 
			},
			{
				"x": -2.7634388673,
				"y": 1.9180443894,
				"z": 5.0639550155,
				"element": "H" 
			},
			{
				"x": -0.1705143117,
				"y": -1.3577627035,
				"z": 4.1005005496,
				"element": "H" 
			}
		],
		 "valence_orbital": [ 
			{
				"type": "occ",
				"energy": -0.30307,
				"method": "rhf"
			},
			{
				"type": "occ",
				"energy": -0.29039,
				"method": "rhf"
			},
			{
				"type": "occ",
				"energy": -0.28261,
				"method": "rhf"
			},
			{
				"type": "occ",
				"energy": -0.22625,
				"method": "rhf"
			},
			{
				"type": "occ",
				"energy": -0.21693,
				"method": "rhf"
			},
			{
				"type": "unocc",
				"energy": -0.05162,
				"method": "rhf"
			},
			{
				"type": "unocc",
				"energy": 0.01305,
				"method": "rhf"
			},
			{
				"type": "unocc",
				"energy": 0.02836,
				"method": "rhf"
			},
			{
				"type": "unocc",
				"energy": 0.09054,
				"method": "rhf"
			},
			{
				"type": "unocc",
				"energy": 0.09852,
				"method": "rhf"
			}
		],
		"cosmo_sigma_profile": { 
			"-0.025": 0.0,
			"-0.024": 0.0,
			"-0.023": 0.0,
			"-0.022": 0.0,
			"-0.021": 0.0,
			"-0.02": 0.0,
			"-0.019": 0.0,
			"-0.018": 0.0,
			"-0.017": 0.0,
			"-0.016": 0.0960381464658,
			"-0.015": 0.718665081719,
			"-0.014": 1.0797361322,
			"-0.013": 0.791068367494,
			"-0.012": 1.05017055123,
			"-0.011": 0.843924870518,
			"-0.01": 1.08390013845,
			"-0.009": 1.0877738727,
			"-0.008": 1.69099797258,
			"-0.007": 6.47184425813,
			"-0.006": 9.13919975024,
			"-0.005": 12.3680501954,
			"-0.004": 18.7548875073,
			"-0.003": 16.7240012167,
			"-0.002": 19.7866475129,
			"-0.001": 17.8290994294,
			"0.0": 18.1678458805,
			"0.001": 15.5885574462,
			"0.002": 20.9570842447,
			"0.003": 23.4568098511,
			"0.004": 24.2707613997,
			"0.005": 13.7407473729,
			"0.006": 2.98327085363,
			"0.007": 2.68042404538,
			"0.008": 1.40396632045,
			"0.009": 1.60780869248,
			"0.01": 1.82984592494,
			"0.011": 2.65917407771,
			"0.012": 2.8142695772,
			"0.013": 0.0344534457075,
			"0.014": 0.0,
			"0.015": 0.0,
			"0.016": 0.0,
			"0.017": 0.0,
			"0.018": 0.0,
			"0.019": 0.0,
			"0.02": 0.0,
			"0.021": 0.0,
			"0.022": 0.0,
			"0.023": 0.0,
			"0.024": 0.0,
			"0.025": 0.0
		}
	}
}
