{
	 "smiles": "NC1=CC=C(C=C1)S(=O)(=O)NCC(F)(F)F", 
	 "Tm": 402.15, 
	 "num_atms": 25, 
	 "gaussian": { 
		 "optdone": 1, 
		 "sigma_profile": "yes", 
		 "theory": "DFT", 
		 "functional": "B3LYP", 
		 "basiset": "6-31G**", 
		 "properties": { 
			 "R2extent": 6223.311, 
			 "electric_dipole_moment_norm": 7.05797052487, 
			 "electric_quadrupole_moment_norm": 17.5484634447, 
			 "total_energy": -1267.87511981, 
			 "HOMO_LUMO_gap": 0.19958, 
			 "cosmo_polarized_energy": -20.03, 
			 "cosmo_cavitation_energy": 32.17, 
			 "cosmo_dispersion_energy": -23.05, 
			 "cosmo_repulsion_energy": 1.7, 
			 "cosmo_total_nonelectrostatic_energy": 10.81, 
			 "SMD_solvation_energy": 5.33 
		},
		"coords": [
			{
				"x": 0.9935660575,
				"y": 3.4723638076,
				"z": 1.9750812939,
				"element": "N" 
			},
			{
				"x": 0.4857137058,
				"y": 2.3983035507,
				"z": 1.2665092519,
				"element": "C" 
			},
			{
				"x": 0.5756223751,
				"y": 1.0898668373,
				"z": 1.787578933,
				"element": "C" 
			},
			{
				"x": 0.1114577381,
				"y": 0.00596942,
				"z": 1.0586521857,
				"element": "C" 
			},
			{
				"x": -0.4491779657,
				"y": 0.2083544949,
				"z": -0.2075738194,
				"element": "C" 
			},
			{
				"x": -0.5542964012,
				"y": 1.496966583,
				"z": -0.7367613262,
				"element": "C" 
			},
			{
				"x": -0.0888886697,
				"y": 2.5830045955,
				"z": -0.0059418264,
				"element": "C" 
			},
			{
				"x": -1.0693714637,
				"y": -1.1776509383,
				"z": -1.1337717376,
				"element": "S" 
			},
			{
				"x": -1.686670513,
				"y": -2.1386906139,
				"z": -0.2132735237,
				"element": "O" 
			},
			{
				"x": -1.7951456639,
				"y": -0.644189007,
				"z": -2.2911405187,
				"element": "O" 
			},
			{
				"x": 0.3759829004,
				"y": -1.9276874333,
				"z": -1.6564327651,
				"element": "N" 
			},
			{
				"x": 0.431429439,
				"y": -3.3814001198,
				"z": -1.6978549391,
				"element": "C" 
			},
			{
				"x": -0.0994925624,
				"y": -3.9878056191,
				"z": -2.9887077414,
				"element": "C" 
			},
			{
				"x": 0.1114645485,
				"y": -5.3205147599,
				"z": -2.9975930807,
				"element": "F" 
			},
			{
				"x": -1.4132475229,
				"y": -3.7706063379,
				"z": -3.1597145833,
				"element": "F" 
			},
			{
				"x": 0.5436037301,
				"y": -3.4617334919,
				"z": -4.0610325165,
				"element": "F" 
			},
			{
				"x": 1.1110378838,
				"y": 3.3487618769,
				"z": 2.9698705061,
				"element": "H" 
			},
			{
				"x": 0.6550006326,
				"y": 4.3883348438,
				"z": 1.7199198067,
				"element": "H" 
			},
			{
				"x": 1.0109500736,
				"y": 0.9344456392,
				"z": 2.7711067462,
				"element": "H" 
			},
			{
				"x": 0.1694342621,
				"y": -0.9951690636,
				"z": 1.4722872625,
				"element": "H" 
			},
			{
				"x": -1.0124942951,
				"y": 1.6394280086,
				"z": -1.7092379434,
				"element": "H" 
			},
			{
				"x": -0.1708959705,
				"y": 3.5857193976,
				"z": -0.4167210499,
				"element": "H" 
			},
			{
				"x": 0.7046851285,
				"y": -1.4873583317,
				"z": -2.5126243247,
				"element": "H" 
			},
			{
				"x": 1.4729731709,
				"y": -3.7019260926,
				"z": -1.5925263551,
				"element": "H" 
			},
			{
				"x": -0.1435406183,
				"y": -3.7807872462,
				"z": -0.8607979348,
				"element": "H" 
			}
		],
		 "valence_orbital": [ 
			{
				"type": "occ",
				"energy": -0.30919,
				"method": "rhf"
			},
			{
				"type": "occ",
				"energy": -0.30095,
				"method": "rhf"
			},
			{
				"type": "occ",
				"energy": -0.27401,
				"method": "rhf"
			},
			{
				"type": "occ",
				"energy": -0.2695,
				"method": "rhf"
			},
			{
				"type": "occ",
				"energy": -0.22453,
				"method": "rhf"
			},
			{
				"type": "unocc",
				"energy": -0.02495,
				"method": "rhf"
			},
			{
				"type": "unocc",
				"energy": -0.01752,
				"method": "rhf"
			},
			{
				"type": "unocc",
				"energy": 0.05588,
				"method": "rhf"
			},
			{
				"type": "unocc",
				"energy": 0.06529,
				"method": "rhf"
			},
			{
				"type": "unocc",
				"energy": 0.08617,
				"method": "rhf"
			}
		],
		"cosmo_sigma_profile": { 
			"-0.025": 0.0,
			"-0.024": 0.0,
			"-0.023": 0.0,
			"-0.022": 0.0,
			"-0.021": 0.0,
			"-0.02": 0.0,
			"-0.019": 0.0,
			"-0.018": 0.0,
			"-0.017": 0.0,
			"-0.016": 0.0,
			"-0.015": 0.325189247257,
			"-0.014": 1.05516253387,
			"-0.013": 4.0419577854,
			"-0.012": 3.28872342801,
			"-0.011": 4.02042174183,
			"-0.01": 5.18756795734,
			"-0.009": 4.69724446562,
			"-0.008": 8.93731879534,
			"-0.007": 10.08115287,
			"-0.006": 12.3969635949,
			"-0.005": 11.79640798,
			"-0.004": 11.320290321,
			"-0.003": 8.41597535832,
			"-0.002": 10.3873483787,
			"-0.001": 10.0817532789,
			"0.0": 11.1493239726,
			"0.001": 15.6057106184,
			"0.002": 26.9250406855,
			"0.003": 32.4952807887,
			"0.004": 18.0641352201,
			"0.005": 6.26233865037,
			"0.006": 6.00804333263,
			"0.007": 4.87661625828,
			"0.008": 4.67766237981,
			"0.009": 5.3897465329,
			"0.01": 7.98034162539,
			"0.011": 8.31319616654,
			"0.012": 2.26509981121,
			"0.013": 0.0,
			"0.014": 0.0,
			"0.015": 0.0,
			"0.016": 0.0,
			"0.017": 0.0,
			"0.018": 0.0,
			"0.019": 0.0,
			"0.02": 0.0,
			"0.021": 0.0,
			"0.022": 0.0,
			"0.023": 0.0,
			"0.024": 0.0,
			"0.025": 0.0
		}
	}
}
