{
	 "smiles": "IC1=CC(I)=C(NC(=O)CN2CCCC2)C(I)=C1", 
	 "Tm": 458.15, 
	 "num_atms": 31, 
	 "gaussian": { 
		 "optdone": 1, 
		 "sigma_profile": "yes", 
		 "theory": "DFT", 
		 "functional": "B3LYP", 
		 "basiset": "6-31G**", 
		 "properties": { 
			 "R2extent": 6183.2904, 
			 "electric_dipole_moment_norm": 4.22844198849, 
			 "electric_quadrupole_moment_norm": 13.8180609852, 
			 "total_energy": -683.994118879, 
			 "HOMO_LUMO_gap": 0.15606, 
			 "cosmo_polarized_energy": -12.3, 
			 "cosmo_cavitation_energy": 42.94, 
			 "cosmo_dispersion_energy": -32.91, 
			 "cosmo_repulsion_energy": 2.49, 
			 "cosmo_total_nonelectrostatic_energy": 12.51, 
			 "SMD_solvation_energy": 4.22 
		},
		"coords": [
			{
				"x": 1.1548021522,
				"y": -3.626286655,
				"z": 5.6531894172,
				"element": "I" 
			},
			{
				"x": 0.842264504,
				"y": -2.5842381746,
				"z": 3.8375881033,
				"element": "C" 
			},
			{
				"x": -0.4206437423,
				"y": -2.0687723022,
				"z": 3.5518553894,
				"element": "C" 
			},
			{
				"x": -0.6146982337,
				"y": -1.4034384913,
				"z": 2.3416007389,
				"element": "C" 
			},
			{
				"x": -2.5624872466,
				"y": -0.660921563,
				"z": 1.9500540926,
				"element": "I" 
			},
			{
				"x": 0.4221806233,
				"y": -1.2163399678,
				"z": 1.406045306,
				"element": "C" 
			},
			{
				"x": 0.2071512243,
				"y": -0.5409159243,
				"z": 0.1914824757,
				"element": "N" 
			},
			{
				"x": 0.2873032947,
				"y": -1.141469189,
				"z": -1.0496220251,
				"element": "C" 
			},
			{
				"x": 0.5544969716,
				"y": -2.315350559,
				"z": -1.2310532394,
				"element": "O" 
			},
			{
				"x": 0.0952506144,
				"y": -0.1505004232,
				"z": -2.2030051288,
				"element": "C" 
			},
			{
				"x": -0.7168254012,
				"y": 1.006326463,
				"z": -1.854250135,
				"element": "N" 
			},
			{
				"x": -0.4331546487,
				"y": 2.2265478122,
				"z": -2.6231856796,
				"element": "C" 
			},
			{
				"x": -1.5880851231,
				"y": 3.1699843025,
				"z": -2.2421714169,
				"element": "C" 
			},
			{
				"x": -2.7533485459,
				"y": 2.2161610689,
				"z": -1.8435848089,
				"element": "C" 
			},
			{
				"x": -2.1656348741,
				"y": 0.8026285197,
				"z": -2.0065501455,
				"element": "C" 
			},
			{
				"x": 1.6931128982,
				"y": -1.7153385049,
				"z": 1.7614741108,
				"element": "C" 
			},
			{
				"x": 3.393921197,
				"y": -1.3501538834,
				"z": 0.5569061221,
				"element": "I" 
			},
			{
				"x": 1.9046416465,
				"y": -2.4119481663,
				"z": 2.9525389359,
				"element": "C" 
			},
			{
				"x": -1.241465005,
				"y": -2.1931778803,
				"z": 4.245932955,
				"element": "H" 
			},
			{
				"x": -0.1861546404,
				"y": 0.3975130905,
				"z": 0.1767406943,
				"element": "H" 
			},
			{
				"x": 1.1035502846,
				"y": 0.1903119382,
				"z": -2.4695819922,
				"element": "H" 
			},
			{
				"x": -0.2916522172,
				"y": -0.7186701314,
				"z": -3.0631628293,
				"element": "H" 
			},
			{
				"x": 0.5555288964,
				"y": 2.6203839887,
				"z": -2.3663040738,
				"element": "H" 
			},
			{
				"x": -0.4436746444,
				"y": 2.0264302283,
				"z": -3.710553568,
				"element": "H" 
			},
			{
				"x": -1.8517540656,
				"y": 3.8338057341,
				"z": -3.0696676079,
				"element": "H" 
			},
			{
				"x": -1.303195475,
				"y": 3.8001966729,
				"z": -1.3951990512,
				"element": "H" 
			},
			{
				"x": -3.6392573446,
				"y": 2.3519370258,
				"z": -2.4695004022,
				"element": "H" 
			},
			{
				"x": -3.0559300624,
				"y": 2.3920879521,
				"z": -0.8074919647,
				"element": "H" 
			},
			{
				"x": -2.3988380004,
				"y": 0.3987078822,
				"z": -3.0094355706,
				"element": "H" 
			},
			{
				"x": -2.5360727613,
				"y": 0.0870079492,
				"z": -1.2669875309,
				"element": "H" 
			},
			{
				"x": 2.8891677249,
				"y": -2.7925088124,
				"z": 3.1910988287,
				"element": "H" 
			}
		],
		 "valence_orbital": [ 
			{
				"type": "occ",
				"energy": -0.26894,
				"method": "rhf"
			},
			{
				"type": "occ",
				"energy": -0.25995,
				"method": "rhf"
			},
			{
				"type": "occ",
				"energy": -0.2484,
				"method": "rhf"
			},
			{
				"type": "occ",
				"energy": -0.24516,
				"method": "rhf"
			},
			{
				"type": "occ",
				"energy": -0.23203,
				"method": "rhf"
			},
			{
				"type": "unocc",
				"energy": -0.07597,
				"method": "rhf"
			},
			{
				"type": "unocc",
				"energy": -0.04205,
				"method": "rhf"
			},
			{
				"type": "unocc",
				"energy": -0.03996,
				"method": "rhf"
			},
			{
				"type": "unocc",
				"energy": -0.03582,
				"method": "rhf"
			},
			{
				"type": "unocc",
				"energy": -0.03097,
				"method": "rhf"
			}
		],
		"cosmo_sigma_profile": { 
			"-0.025": 0.0,
			"-0.024": 0.0,
			"-0.023": 0.0,
			"-0.022": 0.0,
			"-0.021": 0.0,
			"-0.02": 0.0,
			"-0.019": 0.0,
			"-0.018": 0.0,
			"-0.017": 0.0,
			"-0.016": 0.0,
			"-0.015": 0.0,
			"-0.014": 0.0,
			"-0.013": 0.0,
			"-0.012": 0.0,
			"-0.011": 0.312118384826,
			"-0.01": 0.787266422275,
			"-0.009": 0.807754601061,
			"-0.008": 3.94723521362,
			"-0.007": 8.13691083861,
			"-0.006": 9.62518252539,
			"-0.005": 12.9834714532,
			"-0.004": 17.1752870189,
			"-0.003": 29.4058279101,
			"-0.002": 44.8090697361,
			"-0.001": 43.7550762341,
			"0.0": 43.2576486972,
			"0.001": 39.9361768523,
			"0.002": 22.4000848995,
			"0.003": 26.8594867491,
			"0.004": 25.4960317742,
			"0.005": 3.5357997099,
			"0.006": 1.65680038198,
			"0.007": 2.72113350481,
			"0.008": 2.06491897313,
			"0.009": 1.75568617576,
			"0.01": 1.28034123355,
			"0.011": 2.28108512925,
			"0.012": 2.33585448783,
			"0.013": 4.27609907252,
			"0.014": 3.33757854276,
			"0.015": 0.240985643963,
			"0.016": 0.0,
			"0.017": 0.0,
			"0.018": 0.0,
			"0.019": 0.0,
			"0.02": 0.0,
			"0.021": 0.0,
			"0.022": 0.0,
			"0.023": 0.0,
			"0.024": 0.0,
			"0.025": 0.0
		}
	}
}
