{
	 "smiles": "COC1=CC(C)=C(C=C1)C(O)C1CC1", 
	 "Tm": 313.15, 
	 "num_atms": 30, 
	 "gaussian": { 
		 "optdone": 1, 
		 "sigma_profile": "yes", 
		 "theory": "DFT", 
		 "functional": "B3LYP", 
		 "basiset": "6-31G**", 
		 "properties": { 
			 "R2extent": 3852.3335, 
			 "electric_dipole_moment_norm": 2.34834282846, 
			 "electric_quadrupole_moment_norm": 12.1551929837, 
			 "total_energy": -617.321348722, 
			 "HOMO_LUMO_gap": 0.21384, 
			 "cosmo_polarized_energy": -10.33, 
			 "cosmo_cavitation_energy": 31.36, 
			 "cosmo_dispersion_energy": -22.47, 
			 "cosmo_repulsion_energy": 1.78, 
			 "cosmo_total_nonelectrostatic_energy": 10.67, 
			 "SMD_solvation_energy": 5.74 
		},
		"coords": [
			{
				"x": 0.0541898362,
				"y": 2.0220011969,
				"z": 3.6453113303,
				"element": "C" 
			},
			{
				"x": -0.1097055226,
				"y": 0.623513717,
				"z": 3.4855263898,
				"element": "O" 
			},
			{
				"x": 0.1243451476,
				"y": 0.0794632206,
				"z": 2.253464067,
				"element": "C" 
			},
			{
				"x": 0.5247603302,
				"y": 0.8066551495,
				"z": 1.1280301178,
				"element": "C" 
			},
			{
				"x": 0.7437141231,
				"y": 0.1715026974,
				"z": -0.1042245892,
				"element": "C" 
			},
			{
				"x": 1.1460367498,
				"y": 1.0148430827,
				"z": -1.2954610409,
				"element": "C" 
			},
			{
				"x": 0.5664086359,
				"y": -1.2218292983,
				"z": -0.2052535649,
				"element": "C" 
			},
			{
				"x": 0.1507230804,
				"y": -1.9337650673,
				"z": 0.929778287,
				"element": "C" 
			},
			{
				"x": -0.0674706484,
				"y": -1.3029478942,
				"z": 2.1473262859,
				"element": "C" 
			},
			{
				"x": 0.8105184767,
				"y": -1.9609618101,
				"z": -1.5092039652,
				"element": "C" 
			},
			{
				"x": -0.0620711896,
				"y": -3.0969920327,
				"z": -1.5482375727,
				"element": "O" 
			},
			{
				"x": 2.2577846226,
				"y": -2.4087739279,
				"z": -1.7334718299,
				"element": "C" 
			},
			{
				"x": 3.0148072491,
				"y": -3.1829838109,
				"z": -0.6803552817,
				"element": "C" 
			},
			{
				"x": 3.4555131361,
				"y": -1.7911298884,
				"z": -1.0516912721,
				"element": "C" 
			},
			{
				"x": -0.181449266,
				"y": 2.2367721455,
				"z": 4.6890783608,
				"element": "H" 
			},
			{
				"x": 1.0851060788,
				"y": 2.3379007207,
				"z": 3.437477432,
				"element": "H" 
			},
			{
				"x": -0.6287958776,
				"y": 2.5886761679,
				"z": 2.9987662041,
				"element": "H" 
			},
			{
				"x": 0.6648532614,
				"y": 1.8801073014,
				"z": 1.1881584222,
				"element": "H" 
			},
			{
				"x": 1.2621206879,
				"y": 2.0636691666,
				"z": -1.009285116,
				"element": "H" 
			},
			{
				"x": 0.3910303226,
				"y": 0.9717909668,
				"z": -2.0901471114,
				"element": "H" 
			},
			{
				"x": 2.091165717,
				"y": 0.6816258837,
				"z": -1.7364971718,
				"element": "H" 
			},
			{
				"x": -0.025065446,
				"y": -2.9991224762,
				"z": 0.8324539721,
				"element": "H" 
			},
			{
				"x": -0.3921730796,
				"y": -1.8557336461,
				"z": 3.0228213045,
				"element": "H" 
			},
			{
				"x": 0.5492462437,
				"y": -1.2892931615,
				"z": -2.3416667912,
				"element": "H" 
			},
			{
				"x": 0.3388597865,
				"y": -3.7486072759,
				"z": -2.1368817117,
				"element": "H" 
			},
			{
				"x": 2.4316380777,
				"y": -2.7283369115,
				"z": -2.7619854068,
				"element": "H" 
			},
			{
				"x": 2.5384133556,
				"y": -3.3095516093,
				"z": 0.2866994744,
				"element": "H" 
			},
			{
				"x": 3.6208606508,
				"y": -4.0261262564,
				"z": -0.9983348469,
				"element": "H" 
			},
			{
				"x": 3.2761883693,
				"y": -1.0064369691,
				"z": -0.3237945954,
				"element": "H" 
			},
			{
				"x": 4.3629470909,
				"y": -1.668429381,
				"z": -1.6355997801,
				"element": "H" 
			}
		],
		 "valence_orbital": [ 
			{
				"type": "occ",
				"energy": -0.29382,
				"method": "rhf"
			},
			{
				"type": "occ",
				"energy": -0.28379,
				"method": "rhf"
			},
			{
				"type": "occ",
				"energy": -0.26103,
				"method": "rhf"
			},
			{
				"type": "occ",
				"energy": -0.23711,
				"method": "rhf"
			},
			{
				"type": "occ",
				"energy": -0.20683,
				"method": "rhf"
			},
			{
				"type": "unocc",
				"energy": 0.00701,
				"method": "rhf"
			},
			{
				"type": "unocc",
				"energy": 0.01634,
				"method": "rhf"
			},
			{
				"type": "unocc",
				"energy": 0.07942,
				"method": "rhf"
			},
			{
				"type": "unocc",
				"energy": 0.09719,
				"method": "rhf"
			},
			{
				"type": "unocc",
				"energy": 0.10337,
				"method": "rhf"
			}
		],
		"cosmo_sigma_profile": { 
			"-0.025": 0.0,
			"-0.024": 0.0,
			"-0.023": 0.0,
			"-0.022": 0.0,
			"-0.021": 0.0,
			"-0.02": 0.0,
			"-0.019": 0.0,
			"-0.018": 0.0,
			"-0.017": 0.0,
			"-0.016": 0.0,
			"-0.015": 0.274993196197,
			"-0.014": 0.711519297224,
			"-0.013": 1.16584309226,
			"-0.012": 0.834468760732,
			"-0.011": 0.591989127043,
			"-0.01": 0.631000169734,
			"-0.009": 0.802205843219,
			"-0.008": 1.27472757656,
			"-0.007": 1.05055388545,
			"-0.006": 4.27762546016,
			"-0.005": 16.1347179661,
			"-0.004": 24.0837276499,
			"-0.003": 28.4702757153,
			"-0.002": 25.3404005709,
			"-0.001": 21.3984068657,
			"0.0": 22.6660138622,
			"0.001": 18.7146662258,
			"0.002": 12.3207830858,
			"0.003": 10.9218373155,
			"0.004": 12.5779216786,
			"0.005": 12.0135911628,
			"0.006": 11.1577321454,
			"0.007": 4.066455656,
			"0.008": 2.96355371398,
			"0.009": 2.41060548909,
			"0.01": 2.91815949329,
			"0.011": 2.42931549379,
			"0.012": 0.889832250383,
			"0.013": 1.25404405049,
			"0.014": 1.06737133442,
			"0.015": 0.693727425054,
			"0.016": 0.0033405509985,
			"0.017": 0.0,
			"0.018": 0.0,
			"0.019": 0.0,
			"0.02": 0.0,
			"0.021": 0.0,
			"0.022": 0.0,
			"0.023": 0.0,
			"0.024": 0.0,
			"0.025": 0.0
		}
	}
}
