{
	 "smiles": "COC1=CC(CO)=NC(C)=C1", 
	 "Tm": 343.15, 
	 "num_atms": 22, 
	 "gaussian": { 
		 "optdone": 1, 
		 "sigma_profile": "yes", 
		 "theory": "DFT", 
		 "functional": "B3LYP", 
		 "basiset": "6-31G**", 
		 "properties": { 
			 "R2extent": 2192.0902, 
			 "electric_dipole_moment_norm": 5.20164009039, 
			 "electric_quadrupole_moment_norm": 5.66017043118, 
			 "total_energy": -516.669688883, 
			 "HOMO_LUMO_gap": 0.21977, 
			 "cosmo_polarized_energy": -9.82, 
			 "cosmo_cavitation_energy": 25.27, 
			 "cosmo_dispersion_energy": -18.85, 
			 "cosmo_repulsion_energy": 1.54, 
			 "cosmo_total_nonelectrostatic_energy": 7.95, 
			 "SMD_solvation_energy": 4.48 
		},
		"coords": [
			{
				"x": 1.6736374421,
				"y": -1.3199776623,
				"z": 3.2973490416,
				"element": "C" 
			},
			{
				"x": 0.4325880432,
				"y": -1.3760637735,
				"z": 2.60400343,
				"element": "O" 
			},
			{
				"x": 0.3877595065,
				"y": -0.943430574,
				"z": 1.3201907947,
				"element": "C" 
			},
			{
				"x": -0.8572484592,
				"y": -1.0197060265,
				"z": 0.6832778969,
				"element": "C" 
			},
			{
				"x": -0.9518498275,
				"y": -0.5876419626,
				"z": -0.6330527407,
				"element": "C" 
			},
			{
				"x": -2.2616212057,
				"y": -0.6311550417,
				"z": -1.4094769927,
				"element": "C" 
			},
			{
				"x": -2.1181334847,
				"y": -0.1451098075,
				"z": -2.7181891472,
				"element": "O" 
			},
			{
				"x": 0.0935270424,
				"y": -0.1011722554,
				"z": -1.3214482873,
				"element": "N" 
			},
			{
				"x": 1.2874000274,
				"y": -0.0259407166,
				"z": -0.7167368531,
				"element": "C" 
			},
			{
				"x": 2.4346752454,
				"y": 0.5268635545,
				"z": -1.5269782803,
				"element": "C" 
			},
			{
				"x": 1.4811168696,
				"y": -0.4371335152,
				"z": 0.607390333,
				"element": "C" 
			},
			{
				"x": 2.042679217,
				"y": -0.2903601181,
				"z": 3.3785071788,
				"element": "H" 
			},
			{
				"x": 1.4755136227,
				"y": -1.7116807614,
				"z": 4.2956283884,
				"element": "H" 
			},
			{
				"x": 2.4353352042,
				"y": -1.939967794,
				"z": 2.8091738866,
				"element": "H" 
			},
			{
				"x": -1.7138167388,
				"y": -1.4099291956,
				"z": 1.2231230365,
				"element": "H" 
			},
			{
				"x": -3.0160482759,
				"y": -0.0433379991,
				"z": -0.860696063,
				"element": "H" 
			},
			{
				"x": -2.6288350683,
				"y": -1.6707812686,
				"z": -1.4226799122,
				"element": "H" 
			},
			{
				"x": -1.176359077,
				"y": 0.1023999924,
				"z": -2.7859416604,
				"element": "H" 
			},
			{
				"x": 2.857390663,
				"y": 1.4216256487,
				"z": -1.056258919,
				"element": "H" 
			},
			{
				"x": 2.0871262448,
				"y": 0.7895290892,
				"z": -2.527173978,
				"element": "H" 
			},
			{
				"x": 3.2446380993,
				"y": -0.2056064271,
				"z": -1.6181524463,
				"element": "H" 
			},
			{
				"x": 2.4648249097,
				"y": -0.3572233856,
				"z": 1.0537412939,
				"element": "H" 
			}
		],
		 "valence_orbital": [ 
			{
				"type": "occ",
				"energy": -0.31461,
				"method": "rhf"
			},
			{
				"type": "occ",
				"energy": -0.2682,
				"method": "rhf"
			},
			{
				"type": "occ",
				"energy": -0.26177,
				"method": "rhf"
			},
			{
				"type": "occ",
				"energy": -0.25268,
				"method": "rhf"
			},
			{
				"type": "occ",
				"energy": -0.23555,
				"method": "rhf"
			},
			{
				"type": "unocc",
				"energy": -0.01578,
				"method": "rhf"
			},
			{
				"type": "unocc",
				"energy": -0.00707,
				"method": "rhf"
			},
			{
				"type": "unocc",
				"energy": 0.0875,
				"method": "rhf"
			},
			{
				"type": "unocc",
				"energy": 0.10031,
				"method": "rhf"
			},
			{
				"type": "unocc",
				"energy": 0.11997,
				"method": "rhf"
			}
		],
		"cosmo_sigma_profile": { 
			"-0.025": 0.0,
			"-0.024": 0.0,
			"-0.023": 0.0,
			"-0.022": 0.0,
			"-0.021": 0.0,
			"-0.02": 0.0,
			"-0.019": 0.0,
			"-0.018": 0.0,
			"-0.017": 0.0,
			"-0.016": 0.0,
			"-0.015": 0.0,
			"-0.014": 0.0,
			"-0.013": 0.0,
			"-0.012": 0.0,
			"-0.011": 0.0,
			"-0.01": 0.0,
			"-0.009": 0.0,
			"-0.008": 0.0155157299609,
			"-0.007": 3.28396719075,
			"-0.006": 11.7303390169,
			"-0.005": 17.230354544,
			"-0.004": 23.493030963,
			"-0.003": 20.7958602903,
			"-0.002": 14.6776233825,
			"-0.001": 14.3649580716,
			"0.0": 14.1028304857,
			"0.001": 12.2298567923,
			"0.002": 15.7561954713,
			"0.003": 14.9004722202,
			"0.004": 7.31285114465,
			"0.005": 4.8557041074,
			"0.006": 4.67075182474,
			"0.007": 3.44758969429,
			"0.008": 3.37230130697,
			"0.009": 3.13005187056,
			"0.01": 1.72291904927,
			"0.011": 0.808620320503,
			"0.012": 1.76509669841,
			"0.013": 1.47200373971,
			"0.014": 1.9358077757,
			"0.015": 2.35274669004,
			"0.016": 0.034510853388,
			"0.017": 0.0,
			"0.018": 0.0,
			"0.019": 0.0,
			"0.02": 0.0,
			"0.021": 0.0,
			"0.022": 0.0,
			"0.023": 0.0,
			"0.024": 0.0,
			"0.025": 0.0
		}
	}
}
