{
	 "smiles": "NC1=C(C=CC=C1)C1=CC=C(C=C1)C1=CC=CC=C1", 
	 "Tm": 437.15, 
	 "num_atms": 34, 
	 "gaussian": { 
		 "optdone": 1, 
		 "sigma_profile": "yes", 
		 "theory": "DFT", 
		 "functional": "B3LYP", 
		 "basiset": "6-31G**", 
		 "properties": { 
			 "R2extent": 7424.4009, 
			 "electric_dipole_moment_norm": 1.5479059726, 
			 "electric_quadrupole_moment_norm": 8.22957407829, 
			 "total_energy": -749.726972674, 
			 "HOMO_LUMO_gap": 0.16168, 
			 "cosmo_polarized_energy": -9.92, 
			 "cosmo_cavitation_energy": 37.31, 
			 "cosmo_dispersion_energy": -27.21, 
			 "cosmo_repulsion_energy": 2.07, 
			 "cosmo_total_nonelectrostatic_energy": 12.17, 
			 "SMD_solvation_energy": 5.8 
		},
		"coords": [
			{
				"x": -3.0768121977,
				"y": 0.5750623573,
				"z": -1.7541725751,
				"element": "N" 
			},
			{
				"x": -3.2358567807,
				"y": -0.5637181148,
				"z": -0.9588214845,
				"element": "C" 
			},
			{
				"x": -2.1729121681,
				"y": -1.0741912568,
				"z": -0.1691561494,
				"element": "C" 
			},
			{
				"x": -2.4028341524,
				"y": -2.2316414813,
				"z": 0.5912715956,
				"element": "C" 
			},
			{
				"x": -3.6280824507,
				"y": -2.8940046203,
				"z": 0.5834032505,
				"element": "C" 
			},
			{
				"x": -4.6640953102,
				"y": -2.3886829775,
				"z": -0.2041304543,
				"element": "C" 
			},
			{
				"x": -4.4690799193,
				"y": -1.2383462246,
				"z": -0.9612651454,
				"element": "C" 
			},
			{
				"x": -0.840876758,
				"y": -0.4131392218,
				"z": -0.1090597442,
				"element": "C" 
			},
			{
				"x": -0.1386270628,
				"y": -0.0398548061,
				"z": -1.2697455667,
				"element": "C" 
			},
			{
				"x": 1.1238927354,
				"y": 0.5431738454,
				"z": -1.1920352607,
				"element": "C" 
			},
			{
				"x": 1.7450482713,
				"y": 0.7787717654,
				"z": 0.0457621933,
				"element": "C" 
			},
			{
				"x": 1.0449027573,
				"y": 0.4040356758,
				"z": 1.2050881523,
				"element": "C" 
			},
			{
				"x": -0.2179647007,
				"y": -0.1757302742,
				"z": 1.1290374528,
				"element": "C" 
			},
			{
				"x": 3.0901438777,
				"y": 1.4018280753,
				"z": 0.1263950978,
				"element": "C" 
			},
			{
				"x": 3.4047194484,
				"y": 2.31357118,
				"z": 1.1490826616,
				"element": "C" 
			},
			{
				"x": 4.6681602027,
				"y": 2.8979543793,
				"z": 1.2256431395,
				"element": "C" 
			},
			{
				"x": 5.6464749654,
				"y": 2.5854833384,
				"z": 0.2798087709,
				"element": "C" 
			},
			{
				"x": 5.3490919423,
				"y": 1.6821563644,
				"z": -0.7424572621,
				"element": "C" 
			},
			{
				"x": 4.086121075,
				"y": 1.096673568,
				"z": -0.8175957951,
				"element": "C" 
			},
			{
				"x": -3.9407545161,
				"y": 1.0515509439,
				"z": -1.9750426164,
				"element": "H" 
			},
			{
				"x": -2.3578977843,
				"y": 1.2160407614,
				"z": -1.4453531603,
				"element": "H" 
			},
			{
				"x": -1.5828262148,
				"y": -2.6250720334,
				"z": 1.1856547605,
				"element": "H" 
			},
			{
				"x": -3.768609606,
				"y": -3.7928229821,
				"z": 1.1754432348,
				"element": "H" 
			},
			{
				"x": -5.6289917618,
				"y": -2.8875377982,
				"z": -0.2287360887,
				"element": "H" 
			},
			{
				"x": -5.2808118493,
				"y": -0.8430654619,
				"z": -1.5679027025,
				"element": "H" 
			},
			{
				"x": -0.5861788771,
				"y": -0.2163247761,
				"z": -2.2429296179,
				"element": "H" 
			},
			{
				"x": 1.6298648438,
				"y": 0.8356246325,
				"z": -2.1076063708,
				"element": "H" 
			},
			{
				"x": 1.5044524574,
				"y": 0.5523071025,
				"z": 2.1780076254,
				"element": "H" 
			},
			{
				"x": -0.7378021615,
				"y": -0.4477883394,
				"z": 2.0432104839,
				"element": "H" 
			},
			{
				"x": 2.6431694111,
				"y": 2.5845945271,
				"z": 1.8744504968,
				"element": "H" 
			},
			{
				"x": 4.8856738563,
				"y": 3.6057961429,
				"z": 2.0206828989,
				"element": "H" 
			},
			{
				"x": 6.6306759994,
				"y": 3.0410792884,
				"z": 0.3388942282,
				"element": "H" 
			},
			{
				"x": 6.1054044053,
				"y": 1.4247144361,
				"z": -1.4787474729,
				"element": "H" 
			},
			{
				"x": 3.8750180225,
				"y": 0.3744019843,
				"z": -1.600678576,
				"element": "H" 
			}
		],
		 "valence_orbital": [ 
			{
				"type": "occ",
				"energy": -0.25075,
				"method": "rhf"
			},
			{
				"type": "occ",
				"energy": -0.24954,
				"method": "rhf"
			},
			{
				"type": "occ",
				"energy": -0.24505,
				"method": "rhf"
			},
			{
				"type": "occ",
				"energy": -0.21916,
				"method": "rhf"
			},
			{
				"type": "occ",
				"energy": -0.1951,
				"method": "rhf"
			},
			{
				"type": "unocc",
				"energy": -0.03342,
				"method": "rhf"
			},
			{
				"type": "unocc",
				"energy": -0.00464,
				"method": "rhf"
			},
			{
				"type": "unocc",
				"energy": 0.0003,
				"method": "rhf"
			},
			{
				"type": "unocc",
				"energy": 0.00541,
				"method": "rhf"
			},
			{
				"type": "unocc",
				"energy": 0.01844,
				"method": "rhf"
			}
		],
		"cosmo_sigma_profile": { 
			"-0.025": 0.0,
			"-0.024": 0.0,
			"-0.023": 0.0,
			"-0.022": 0.0,
			"-0.021": 0.0,
			"-0.02": 0.0,
			"-0.019": 0.0,
			"-0.018": 0.0,
			"-0.017": 0.0,
			"-0.016": 0.0,
			"-0.015": 0.0,
			"-0.014": 0.0,
			"-0.013": 0.15450282949,
			"-0.012": 1.1667094093,
			"-0.011": 1.72203354937,
			"-0.01": 2.11573101183,
			"-0.009": 2.68621165344,
			"-0.008": 2.6949388098,
			"-0.007": 2.37477461845,
			"-0.006": 8.63438362106,
			"-0.005": 25.7738525834,
			"-0.004": 27.1712691331,
			"-0.003": 28.0809961676,
			"-0.002": 19.6043382524,
			"-0.001": 20.045623183,
			"0.0": 16.8675300451,
			"0.001": 17.5736509497,
			"0.002": 19.3747676813,
			"0.003": 24.469340792,
			"0.004": 24.265876861,
			"0.005": 25.6795167225,
			"0.006": 17.3549203013,
			"0.007": 6.58144888112,
			"0.008": 0.807702335471,
			"0.009": 0.886759126335,
			"0.01": 0.757830248436,
			"0.011": 0.669524472705,
			"0.012": 0.484528214808,
			"0.013": 0.384366296582,
			"0.014": 0.174627637508,
			"0.015": 0.0,
			"0.016": 0.0,
			"0.017": 0.0,
			"0.018": 0.0,
			"0.019": 0.0,
			"0.02": 0.0,
			"0.021": 0.0,
			"0.022": 0.0,
			"0.023": 0.0,
			"0.024": 0.0,
			"0.025": 0.0
		}
	}
}
