{
	 "smiles": "CC(=O)NC1=CC=C(C=C1)N1C(=O)C2=C(C=C(C=C2)C(O)=O)C1=O", 
	 "Tm": 653.15, 
	 "num_atms": 36, 
	 "gaussian": { 
		 "optdone": 1, 
		 "sigma_profile": "yes", 
		 "theory": "DFT", 
		 "functional": "B3LYP", 
		 "basiset": "6-31G**", 
		 "properties": { 
			 "R2extent": 13339.3534, 
			 "electric_dipole_moment_norm": 3.9689300334, 
			 "electric_quadrupole_moment_norm": 21.793629583, 
			 "total_energy": -1140.72687785, 
			 "HOMO_LUMO_gap": 0.12072, 
			 "cosmo_polarized_energy": -22.92, 
			 "cosmo_cavitation_energy": 42.7, 
			 "cosmo_dispersion_energy": -30.49, 
			 "cosmo_repulsion_energy": 2.27, 
			 "cosmo_total_nonelectrostatic_energy": 14.47, 
			 "SMD_solvation_energy": 10.45 
		},
		"coords": [
			{
				"x": 0.9046176588,
				"y": -5.993422729,
				"z": -0.420925259,
				"element": "C" 
			},
			{
				"x": 1.6708283367,
				"y": -5.8596327375,
				"z": 0.8807846993,
				"element": "C" 
			},
			{
				"x": 2.3216835792,
				"y": -6.782962187,
				"z": 1.3470232162,
				"element": "O" 
			},
			{
				"x": 1.6464388158,
				"y": -4.6451137523,
				"z": 1.5522931589,
				"element": "N" 
			},
			{
				"x": 1.0239744352,
				"y": -3.4140650576,
				"z": 1.2609722046,
				"element": "C" 
			},
			{
				"x": 1.7146535303,
				"y": -2.2286136559,
				"z": 1.5583426614,
				"element": "C" 
			},
			{
				"x": 1.1402513097,
				"y": -0.9854027151,
				"z": 1.322093733,
				"element": "C" 
			},
			{
				"x": -0.1480419657,
				"y": -0.902938353,
				"z": 0.7797579805,
				"element": "C" 
			},
			{
				"x": -0.8519025284,
				"y": -2.0774592281,
				"z": 0.4945465183,
				"element": "C" 
			},
			{
				"x": -0.2748299739,
				"y": -3.3202810859,
				"z": 0.7408473303,
				"element": "C" 
			},
			{
				"x": -0.741786799,
				"y": 0.3689569214,
				"z": 0.5271443812,
				"element": "N" 
			},
			{
				"x": -1.5381352559,
				"y": 0.6684265202,
				"z": -0.6068016894,
				"element": "C" 
			},
			{
				"x": -1.826626863,
				"y": -0.0975766017,
				"z": -1.5017638437,
				"element": "O" 
			},
			{
				"x": -1.938017705,
				"y": 2.0976055448,
				"z": -0.4569206402,
				"element": "C" 
			},
			{
				"x": -1.3868545895,
				"y": 2.5901470586,
				"z": 0.7247208406,
				"element": "C" 
			},
			{
				"x": -1.5891908236,
				"y": 3.8986092661,
				"z": 1.1338169547,
				"element": "C" 
			},
			{
				"x": -2.3766285255,
				"y": 4.7155863649,
				"z": 0.3038103365,
				"element": "C" 
			},
			{
				"x": -2.9296927118,
				"y": 4.2163328408,
				"z": -0.8884168244,
				"element": "C" 
			},
			{
				"x": -2.7164465447,
				"y": 2.8937702075,
				"z": -1.2862101887,
				"element": "C" 
			},
			{
				"x": -2.6599316603,
				"y": 6.1403713358,
				"z": 0.6457086501,
				"element": "C" 
			},
			{
				"x": -2.0843866158,
				"y": 6.5241055499,
				"z": 1.8083271253,
				"element": "O" 
			},
			{
				"x": -3.331405179,
				"y": 6.8903411019,
				"z": -0.0326116894,
				"element": "O" 
			},
			{
				"x": -0.6111982391,
				"y": 1.4983844988,
				"z": 1.3780147555,
				"element": "C" 
			},
			{
				"x": 0.0133049497,
				"y": 1.5402497457,
				"z": 2.4163493622,
				"element": "O" 
			},
			{
				"x": 0.8833410871,
				"y": -5.0697073509,
				"z": -1.0032065203,
				"element": "H" 
			},
			{
				"x": -0.1290861227,
				"y": -6.2968040772,
				"z": -0.2234195077,
				"element": "H" 
			},
			{
				"x": 1.3814378748,
				"y": -6.7889697572,
				"z": -0.9944346342,
				"element": "H" 
			},
			{
				"x": 2.292070196,
				"y": -4.6496458019,
				"z": 2.3329792481,
				"element": "H" 
			},
			{
				"x": 2.7206467379,
				"y": -2.2848816319,
				"z": 1.964535742,
				"element": "H" 
			},
			{
				"x": 1.6879079577,
				"y": -0.0830222493,
				"z": 1.5609587994,
				"element": "H" 
			},
			{
				"x": -1.852890114,
				"y": -2.023121556,
				"z": 0.0864120163,
				"element": "H" 
			},
			{
				"x": -0.8544632457,
				"y": -4.2158232447,
				"z": 0.554495858,
				"element": "H" 
			},
			{
				"x": -1.1592881314,
				"y": 4.2772630296,
				"z": 2.0535031735,
				"element": "H" 
			},
			{
				"x": -3.5286695243,
				"y": 4.8910608997,
				"z": -1.4905102071,
				"element": "H" 
			},
			{
				"x": -3.1394114409,
				"y": 2.4991237929,
				"z": -2.2039248016,
				"element": "H" 
			},
			{
				"x": -2.3275719097,
				"y": 7.4558090936,
				"z": 1.9371070601,
				"element": "H" 
			}
		],
		 "valence_orbital": [ 
			{
				"type": "occ",
				"energy": -0.28299,
				"method": "rhf"
			},
			{
				"type": "occ",
				"energy": -0.28051,
				"method": "rhf"
			},
			{
				"type": "occ",
				"energy": -0.26678,
				"method": "rhf"
			},
			{
				"type": "occ",
				"energy": -0.25471,
				"method": "rhf"
			},
			{
				"type": "occ",
				"energy": -0.22453,
				"method": "rhf"
			},
			{
				"type": "unocc",
				"energy": -0.10381,
				"method": "rhf"
			},
			{
				"type": "unocc",
				"energy": -0.0678,
				"method": "rhf"
			},
			{
				"type": "unocc",
				"energy": -0.02685,
				"method": "rhf"
			},
			{
				"type": "unocc",
				"energy": -0.01757,
				"method": "rhf"
			},
			{
				"type": "unocc",
				"energy": -0.01673,
				"method": "rhf"
			}
		],
		"cosmo_sigma_profile": { 
			"-0.025": 0.0,
			"-0.024": 0.0,
			"-0.023": 0.0,
			"-0.022": 0.0,
			"-0.021": 0.0,
			"-0.02": 0.0,
			"-0.019": 0.378285947464,
			"-0.018": 0.807039080634,
			"-0.017": 1.17204939943,
			"-0.016": 0.506384366007,
			"-0.015": 1.15567624819,
			"-0.014": 1.43608110654,
			"-0.013": 1.52434508738,
			"-0.012": 1.9275368359,
			"-0.011": 2.29394010529,
			"-0.01": 1.45873284657,
			"-0.009": 2.13980174895,
			"-0.008": 7.09601378349,
			"-0.007": 14.1320696867,
			"-0.006": 16.4143844543,
			"-0.005": 21.6925140012,
			"-0.004": 24.7032872098,
			"-0.003": 24.325585407,
			"-0.002": 29.3575682352,
			"-0.001": 30.6141695265,
			"0.0": 25.5987663452,
			"0.001": 17.3684879449,
			"0.002": 14.7850685326,
			"0.003": 17.3630091226,
			"0.004": 12.5256541143,
			"0.005": 8.02276440744,
			"0.006": 7.31812806267,
			"0.007": 7.10374305119,
			"0.008": 7.35488238684,
			"0.009": 6.92243804953,
			"0.01": 11.1860353144,
			"0.011": 11.5411196825,
			"0.012": 3.53494298092,
			"0.013": 5.66577909911,
			"0.014": 3.2225224743,
			"0.015": 0.448746087906,
			"0.016": 0.0,
			"0.017": 0.0,
			"0.018": 0.0,
			"0.019": 0.0,
			"0.02": 0.0,
			"0.021": 0.0,
			"0.022": 0.0,
			"0.023": 0.0,
			"0.024": 0.0,
			"0.025": 0.0
		}
	}
}
