{
	 "smiles": "NC1=C(OC2=C(C=CC=N2)C#N)C=CC=C1", 
	 "Tm": 445.15, 
	 "num_atms": 25, 
	 "gaussian": { 
		 "optdone": 1, 
		 "sigma_profile": "yes", 
		 "theory": "DFT", 
		 "functional": "B3LYP", 
		 "basiset": "6-31G**", 
		 "properties": { 
			 "R2extent": 3498.1825, 
			 "electric_dipole_moment_norm": 4.55797800455, 
			 "electric_quadrupole_moment_norm": 20.6070364633, 
			 "total_energy": -702.147168834, 
			 "HOMO_LUMO_gap": 0.13026, 
			 "cosmo_polarized_energy": -14.33, 
			 "cosmo_cavitation_energy": 30.2, 
			 "cosmo_dispersion_energy": -21.41, 
			 "cosmo_repulsion_energy": 1.65, 
			 "cosmo_total_nonelectrostatic_energy": 10.44, 
			 "SMD_solvation_energy": 5.59 
		},
		"coords": [
			{
				"x": -1.7063869882,
				"y": 0.8742082355,
				"z": -0.8124960885,
				"element": "N" 
			},
			{
				"x": -0.5499056033,
				"y": 0.4206457145,
				"z": -1.4296014164,
				"element": "C" 
			},
			{
				"x": 0.7069751022,
				"y": 0.5335330307,
				"z": -0.8009066578,
				"element": "C" 
			},
			{
				"x": 0.7978529696,
				"y": 1.2505227627,
				"z": 0.4115517628,
				"element": "O" 
			},
			{
				"x": 0.3035335838,
				"y": 0.721599616,
				"z": 1.5681869439,
				"element": "C" 
			},
			{
				"x": 0.9687008045,
				"y": -0.3246708123,
				"z": 2.2491482775,
				"element": "C" 
			},
			{
				"x": 0.4278966122,
				"y": -0.7634126253,
				"z": 3.4672709078,
				"element": "C" 
			},
			{
				"x": -0.7182996854,
				"y": -0.152207534,
				"z": 3.9627699737,
				"element": "C" 
			},
			{
				"x": -1.2787838029,
				"y": 0.8871878846,
				"z": 3.221882413,
				"element": "C" 
			},
			{
				"x": -0.7830695713,
				"y": 1.3111883027,
				"z": 2.0531822142,
				"element": "N" 
			},
			{
				"x": 2.1865223944,
				"y": -0.898189581,
				"z": 1.7664124889,
				"element": "C" 
			},
			{
				"x": 3.1910444244,
				"y": -1.3760073942,
				"z": 1.42666104,
				"element": "N" 
			},
			{
				"x": 1.8742782495,
				"y": 0.0815764585,
				"z": -1.4036064103,
				"element": "C" 
			},
			{
				"x": 1.8190570902,
				"y": -0.5350626148,
				"z": -2.6541594505,
				"element": "C" 
			},
			{
				"x": 0.5827863163,
				"y": -0.6806909737,
				"z": -3.2867389371,
				"element": "C" 
			},
			{
				"x": -0.5821319328,
				"y": -0.2103051449,
				"z": -2.6866137455,
				"element": "C" 
			},
			{
				"x": -1.5806185435,
				"y": 1.5493109254,
				"z": -0.0675401929,
				"element": "H" 
			},
			{
				"x": -2.4741513108,
				"y": 1.0846927762,
				"z": -1.4332431182,
				"element": "H" 
			},
			{
				"x": 0.9197813599,
				"y": -1.5639674155,
				"z": 4.0098682413,
				"element": "H" 
			},
			{
				"x": -1.161237554,
				"y": -0.4650400784,
				"z": 4.9015993234,
				"element": "H" 
			},
			{
				"x": -2.1679108114,
				"y": 1.4037429419,
				"z": 3.5765368316,
				"element": "H" 
			},
			{
				"x": 2.8149318215,
				"y": 0.2175262565,
				"z": -0.8827867267,
				"element": "H" 
			},
			{
				"x": 2.7290398081,
				"y": -0.8949311181,
				"z": -3.1223276297,
				"element": "H" 
			},
			{
				"x": 0.5220451337,
				"y": -1.1589460352,
				"z": -4.2601762196,
				"element": "H" 
			},
			{
				"x": -1.5396498667,
				"y": -0.3200035778,
				"z": -3.189973825,
				"element": "H" 
			}
		],
		 "valence_orbital": [ 
			{
				"type": "occ",
				"energy": -0.30443,
				"method": "rhf"
			},
			{
				"type": "occ",
				"energy": -0.29336,
				"method": "rhf"
			},
			{
				"type": "occ",
				"energy": -0.27038,
				"method": "rhf"
			},
			{
				"type": "occ",
				"energy": -0.24037,
				"method": "rhf"
			},
			{
				"type": "occ",
				"energy": -0.19928,
				"method": "rhf"
			},
			{
				"type": "unocc",
				"energy": -0.06902,
				"method": "rhf"
			},
			{
				"type": "unocc",
				"energy": -0.04211,
				"method": "rhf"
			},
			{
				"type": "unocc",
				"energy": 0.00538,
				"method": "rhf"
			},
			{
				"type": "unocc",
				"energy": 0.01667,
				"method": "rhf"
			},
			{
				"type": "unocc",
				"energy": 0.02815,
				"method": "rhf"
			}
		],
		"cosmo_sigma_profile": { 
			"-0.025": 0.0,
			"-0.024": 0.0,
			"-0.023": 0.0,
			"-0.022": 0.0,
			"-0.021": 0.0,
			"-0.02": 0.0,
			"-0.019": 0.0,
			"-0.018": 0.0,
			"-0.017": 0.0,
			"-0.016": 0.0,
			"-0.015": 0.0,
			"-0.014": 0.0,
			"-0.013": 0.554825017869,
			"-0.012": 1.70164700154,
			"-0.011": 0.810278597414,
			"-0.01": 1.89187699689,
			"-0.009": 5.03172814145,
			"-0.008": 10.1288040328,
			"-0.007": 10.1531865245,
			"-0.006": 9.89336960861,
			"-0.005": 12.8507406101,
			"-0.004": 12.9612430683,
			"-0.003": 19.5019219208,
			"-0.002": 17.6741524167,
			"-0.001": 17.5904174669,
			"0.0": 18.2591604815,
			"0.001": 11.5991259176,
			"0.002": 10.8002146499,
			"0.003": 13.7790442335,
			"0.004": 11.9965162588,
			"0.005": 14.8319497434,
			"0.006": 13.5938210941,
			"0.007": 5.80329413457,
			"0.008": 6.11786508113,
			"0.009": 5.01137443292,
			"0.01": 4.31483447447,
			"0.011": 3.23402951258,
			"0.012": 2.86855228807,
			"0.013": 0.849881651677,
			"0.014": 0.0558994361357,
			"0.015": 0.0,
			"0.016": 0.0,
			"0.017": 0.0,
			"0.018": 0.0,
			"0.019": 0.0,
			"0.02": 0.0,
			"0.021": 0.0,
			"0.022": 0.0,
			"0.023": 0.0,
			"0.024": 0.0,
			"0.025": 0.0
		}
	}
}
