{
	 "smiles": "COC1=CC=CC2=C1OC(=O)C(=C2)C(O)=O", 
	 "Tm": 488.15, 
	 "num_atms": 24, 
	 "gaussian": { 
		 "optdone": 1, 
		 "sigma_profile": "yes", 
		 "theory": "DFT", 
		 "functional": "B3LYP", 
		 "basiset": "6-31G**", 
		 "properties": { 
			 "R2extent": 3959.6423, 
			 "electric_dipole_moment_norm": 5.44458010686, 
			 "electric_quadrupole_moment_norm": 15.1897116447, 
			 "total_energy": -800.103838668, 
			 "HOMO_LUMO_gap": 0.14659, 
			 "cosmo_polarized_energy": -18.61, 
			 "cosmo_cavitation_energy": 29.44, 
			 "cosmo_dispersion_energy": -21.54, 
			 "cosmo_repulsion_energy": 1.66, 
			 "cosmo_total_nonelectrostatic_energy": 9.56, 
			 "SMD_solvation_energy": 8.13 
		},
		"coords": [
			{
				"x": 3.529434454,
				"y": 0.5302445182,
				"z": 0.6414322776,
				"element": "C" 
			},
			{
				"x": 3.1338434952,
				"y": -0.3019334395,
				"z": 1.7432065574,
				"element": "O" 
			},
			{
				"x": 1.8216110812,
				"y": -0.3846393115,
				"z": 2.089090103,
				"element": "C" 
			},
			{
				"x": 1.5196218874,
				"y": -0.3848372318,
				"z": 3.4529674278,
				"element": "C" 
			},
			{
				"x": 0.2056102927,
				"y": -0.5240965913,
				"z": 3.9188245079,
				"element": "C" 
			},
			{
				"x": -0.8400331501,
				"y": -0.6530948652,
				"z": 3.0192992398,
				"element": "C" 
			},
			{
				"x": -0.5701780764,
				"y": -0.6624696802,
				"z": 1.636109795,
				"element": "C" 
			},
			{
				"x": 0.7562452611,
				"y": -0.5404533815,
				"z": 1.1778291034,
				"element": "C" 
			},
			{
				"x": 1.0402905883,
				"y": -0.586523181,
				"z": -0.1510411188,
				"element": "O" 
			},
			{
				"x": 0.0757947575,
				"y": -0.7194836286,
				"z": -1.1678525855,
				"element": "C" 
			},
			{
				"x": 0.4844948346,
				"y": -0.7217124517,
				"z": -2.2977258336,
				"element": "O" 
			},
			{
				"x": -1.3124742496,
				"y": -0.841431132,
				"z": -0.6939141185,
				"element": "C" 
			},
			{
				"x": -1.5893792538,
				"y": -0.8134799916,
				"z": 0.6413461127,
				"element": "C" 
			},
			{
				"x": -2.3995026958,
				"y": -0.9937329349,
				"z": -1.6996179693,
				"element": "C" 
			},
			{
				"x": -3.6209046078,
				"y": -1.1092991665,
				"z": -1.1016266614,
				"element": "O" 
			},
			{
				"x": -2.2721901687,
				"y": -1.017375223,
				"z": -2.9020759551,
				"element": "O" 
			},
			{
				"x": 4.6044993341,
				"y": 0.6749823302,
				"z": 0.7617674625,
				"element": "H" 
			},
			{
				"x": 3.3200782104,
				"y": 0.0573314389,
				"z": -0.3190257372,
				"element": "H" 
			},
			{
				"x": 3.0266069412,
				"y": 1.5030202777,
				"z": 0.6862985069,
				"element": "H" 
			},
			{
				"x": 2.348643966,
				"y": -0.2737003565,
				"z": 4.1441834619,
				"element": "H" 
			},
			{
				"x": 0.0135378192,
				"y": -0.5188518909,
				"z": 4.9867641995,
				"element": "H" 
			},
			{
				"x": -1.8661114681,
				"y": -0.7530701368,
				"z": 3.3595940016,
				"element": "H" 
			},
			{
				"x": -2.6203455774,
				"y": -0.9090347413,
				"z": 0.966237873,
				"element": "H" 
			},
			{
				"x": -4.2540936753,
				"y": -1.2018592291,
				"z": -1.8317706506,
				"element": "H" 
			}
		],
		 "valence_orbital": [ 
			{
				"type": "occ",
				"energy": -0.30615,
				"method": "rhf"
			},
			{
				"type": "occ",
				"energy": -0.29469,
				"method": "rhf"
			},
			{
				"type": "occ",
				"energy": -0.26601,
				"method": "rhf"
			},
			{
				"type": "occ",
				"energy": -0.25092,
				"method": "rhf"
			},
			{
				"type": "occ",
				"energy": -0.23796,
				"method": "rhf"
			},
			{
				"type": "unocc",
				"energy": -0.09137,
				"method": "rhf"
			},
			{
				"type": "unocc",
				"energy": -0.02074,
				"method": "rhf"
			},
			{
				"type": "unocc",
				"energy": -0.00239,
				"method": "rhf"
			},
			{
				"type": "unocc",
				"energy": 0.01161,
				"method": "rhf"
			},
			{
				"type": "unocc",
				"energy": 0.06983,
				"method": "rhf"
			}
		],
		"cosmo_sigma_profile": { 
			"-0.025": 0.0,
			"-0.024": 0.0,
			"-0.023": 0.0,
			"-0.022": 0.0,
			"-0.021": 0.0,
			"-0.02": 0.0,
			"-0.019": 0.0835231686886,
			"-0.018": 0.874099994566,
			"-0.017": 0.817893717081,
			"-0.016": 1.06196212553,
			"-0.015": 0.998389905432,
			"-0.014": 0.353168705667,
			"-0.013": 0.551158215333,
			"-0.012": 0.254082028269,
			"-0.011": 1.07108633885,
			"-0.01": 1.63551818201,
			"-0.009": 2.08033832185,
			"-0.008": 3.56429266878,
			"-0.007": 7.9756533092,
			"-0.006": 12.7750207385,
			"-0.005": 15.7346365842,
			"-0.004": 18.4825513819,
			"-0.003": 22.1574482899,
			"-0.002": 20.9336857633,
			"-0.001": 13.0085016728,
			"0.0": 15.5542217379,
			"0.001": 15.4221551862,
			"0.002": 14.9083148751,
			"0.003": 10.9851555743,
			"0.004": 6.00158842082,
			"0.005": 6.33688430958,
			"0.006": 5.20907830685,
			"0.007": 3.64350578657,
			"0.008": 3.84378417026,
			"0.009": 4.63088165872,
			"0.01": 5.34613204828,
			"0.011": 9.56336566591,
			"0.012": 5.20143410356,
			"0.013": 1.83008773732,
			"0.014": 1.55060492489,
			"0.015": 1.30589667347,
			"0.016": 0.685395019643,
			"0.017": 0.0573459715776,
			"0.018": 0.0,
			"0.019": 0.0,
			"0.02": 0.0,
			"0.021": 0.0,
			"0.022": 0.0,
			"0.023": 0.0,
			"0.024": 0.0,
			"0.025": 0.0
		}
	}
}
