{
	 "smiles": "COC1=CC=C2N3CCN(C)C4=NCCC(C2=C1)=C34", 
	 "Tm": 437.15, 
	 "num_atms": 36, 
	 "gaussian": { 
		 "optdone": 1, 
		 "sigma_profile": "yes", 
		 "theory": "DFT", 
		 "functional": "B3LYP", 
		 "basiset": "6-31G**", 
		 "properties": { 
			 "R2extent": 5980.8064, 
			 "electric_dipole_moment_norm": 1.58163741104, 
			 "electric_quadrupole_moment_norm": 21.2737791133, 
			 "total_energy": -821.308111751, 
			 "HOMO_LUMO_gap": 0.16182, 
			 "cosmo_polarized_energy": -12.25, 
			 "cosmo_cavitation_energy": 36.92, 
			 "cosmo_dispersion_energy": -27.37, 
			 "cosmo_repulsion_energy": 2.08, 
			 "cosmo_total_nonelectrostatic_energy": 11.63, 
			 "SMD_solvation_energy": 1.95 
		},
		"coords": [
			{
				"x": -2.5428068114,
				"y": -3.5771060917,
				"z": 2.8825834429,
				"element": "C" 
			},
			{
				"x": -1.3110235574,
				"y": -2.9358935305,
				"z": 3.1566651885,
				"element": "O" 
			},
			{
				"x": -0.7763655161,
				"y": -2.1308939944,
				"z": 2.1839675294,
				"element": "C" 
			},
			{
				"x": 0.4542193744,
				"y": -1.5247408959,
				"z": 2.5390109839,
				"element": "C" 
			},
			{
				"x": 1.1235995817,
				"y": -0.686133365,
				"z": 1.662789492,
				"element": "C" 
			},
			{
				"x": 0.5456523598,
				"y": -0.4465790733,
				"z": 0.4102512509,
				"element": "C" 
			},
			{
				"x": 0.9894167173,
				"y": 0.3250079562,
				"z": -0.6528145981,
				"element": "N" 
			},
			{
				"x": 1.9812160656,
				"y": 1.3852815238,
				"z": -0.6922774903,
				"element": "C" 
			},
			{
				"x": 2.2659688074,
				"y": 1.7422608998,
				"z": -2.1572090145,
				"element": "C" 
			},
			{
				"x": 1.0410487302,
				"y": 2.0211373637,
				"z": -2.9126638436,
				"element": "N" 
			},
			{
				"x": 1.2202330878,
				"y": 2.7225808646,
				"z": -4.1757377361,
				"element": "C" 
			},
			{
				"x": 0.058159677,
				"y": 1.030683962,
				"z": -2.8660393762,
				"element": "C" 
			},
			{
				"x": -0.8038519212,
				"y": 0.8548029303,
				"z": -3.8067428819,
				"element": "N" 
			},
			{
				"x": -1.7324724947,
				"y": -0.2743269492,
				"z": -3.6506713929,
				"element": "C" 
			},
			{
				"x": -2.1767832372,
				"y": -0.6668748095,
				"z": -2.2142104068,
				"element": "C" 
			},
			{
				"x": -0.9992058234,
				"y": -0.5806094683,
				"z": -1.287174014,
				"element": "C" 
			},
			{
				"x": -0.6981981731,
				"y": -1.0431208605,
				"z": 0.0368522916,
				"element": "C" 
			},
			{
				"x": -1.3578356144,
				"y": -1.9007909389,
				"z": 0.9418205861,
				"element": "C" 
			},
			{
				"x": 0.0353420969,
				"y": 0.2449463108,
				"z": -1.6442842579,
				"element": "C" 
			},
			{
				"x": -2.7879853389,
				"y": -4.158928201,
				"z": 3.7729331901,
				"element": "H" 
			},
			{
				"x": -3.3459557896,
				"y": -2.8519275519,
				"z": 2.6936800837,
				"element": "H" 
			},
			{
				"x": -2.4666445495,
				"y": -4.253253331,
				"z": 2.0202310797,
				"element": "H" 
			},
			{
				"x": 0.8570950549,
				"y": -1.7399068542,
				"z": 3.5229600511,
				"element": "H" 
			},
			{
				"x": 2.0658348791,
				"y": -0.2293898184,
				"z": 1.9505940243,
				"element": "H" 
			},
			{
				"x": 1.6139299494,
				"y": 2.2702161385,
				"z": -0.1538761002,
				"element": "H" 
			},
			{
				"x": 2.90800578,
				"y": 1.0534191025,
				"z": -0.2127667956,
				"element": "H" 
			},
			{
				"x": 2.8894062753,
				"y": 2.6412227605,
				"z": -2.1784718376,
				"element": "H" 
			},
			{
				"x": 2.8479331432,
				"y": 0.9285334142,
				"z": -2.6231417103,
				"element": "H" 
			},
			{
				"x": 1.7664105653,
				"y": 3.6536671111,
				"z": -3.996328287,
				"element": "H" 
			},
			{
				"x": 1.7723352317,
				"y": 2.1230604026,
				"z": -4.9162778458,
				"element": "H" 
			},
			{
				"x": 0.2391042436,
				"y": 2.945727617,
				"z": -4.5939419571,
				"element": "H" 
			},
			{
				"x": -2.6201158966,
				"y": -0.0637869094,
				"z": -4.2561940444,
				"element": "H" 
			},
			{
				"x": -1.2496694698,
				"y": -1.1517317853,
				"z": -4.1097515798,
				"element": "H" 
			},
			{
				"x": -2.9719827896,
				"y": 0.0081628111,
				"z": -1.8625588871,
				"element": "H" 
			},
			{
				"x": -2.61811179,
				"y": -1.6704395022,
				"z": -2.2446145828,
				"element": "H" 
			},
			{
				"x": -2.2984028478,
				"y": -2.3599772381,
				"z": 0.6619094458,
				"element": "H" 
			}
		],
		 "valence_orbital": [ 
			{
				"type": "occ",
				"energy": -0.26653,
				"method": "rhf"
			},
			{
				"type": "occ",
				"energy": -0.23501,
				"method": "rhf"
			},
			{
				"type": "occ",
				"energy": -0.21622,
				"method": "rhf"
			},
			{
				"type": "occ",
				"energy": -0.19623,
				"method": "rhf"
			},
			{
				"type": "occ",
				"energy": -0.18972,
				"method": "rhf"
			},
			{
				"type": "unocc",
				"energy": -0.0279,
				"method": "rhf"
			},
			{
				"type": "unocc",
				"energy": 0.02948,
				"method": "rhf"
			},
			{
				"type": "unocc",
				"energy": 0.03791,
				"method": "rhf"
			},
			{
				"type": "unocc",
				"energy": 0.07833,
				"method": "rhf"
			},
			{
				"type": "unocc",
				"energy": 0.09912,
				"method": "rhf"
			}
		],
		"cosmo_sigma_profile": { 
			"-0.025": 0.0,
			"-0.024": 0.0,
			"-0.023": 0.0,
			"-0.022": 0.0,
			"-0.021": 0.0,
			"-0.02": 0.0,
			"-0.019": 0.0,
			"-0.018": 0.0,
			"-0.017": 0.0,
			"-0.016": 0.0,
			"-0.015": 0.0,
			"-0.014": 0.0,
			"-0.013": 0.0,
			"-0.012": 0.0,
			"-0.011": 0.0,
			"-0.01": 0.0,
			"-0.009": 0.0,
			"-0.008": 0.0,
			"-0.007": 2.00555821702,
			"-0.006": 13.060441457,
			"-0.005": 24.579150074,
			"-0.004": 29.7322137255,
			"-0.003": 38.402430063,
			"-0.002": 31.0039509018,
			"-0.001": 25.8720095896,
			"0.0": 17.0180292381,
			"0.001": 13.227518075,
			"0.002": 14.2483600865,
			"0.003": 11.3905023677,
			"0.004": 15.6232782321,
			"0.005": 20.3689408892,
			"0.006": 13.0261110333,
			"0.007": 4.24925105792,
			"0.008": 3.56304944186,
			"0.009": 3.67338847591,
			"0.01": 2.26798411337,
			"0.011": 2.99259097149,
			"0.012": 1.55558368771,
			"0.013": 0.430314331643,
			"0.014": 1.16742753985,
			"0.015": 0.885279981992,
			"0.016": 0.969668310655,
			"0.017": 0.0856847916326,
			"0.018": 0.0,
			"0.019": 0.0,
			"0.02": 0.0,
			"0.021": 0.0,
			"0.022": 0.0,
			"0.023": 0.0,
			"0.024": 0.0,
			"0.025": 0.0
		}
	}
}
