{
	 "smiles": "CCS(=O)(=O)NC1=NC=C(C=C1)C(O)=O", 
	 "Tm": 510.15, 
	 "num_atms": 25, 
	 "gaussian": { 
		 "optdone": 1, 
		 "sigma_profile": "yes", 
		 "theory": "DFT", 
		 "functional": "B3LYP", 
		 "basiset": "6-31G**", 
		 "properties": { 
			 "R2extent": 4792.4017, 
			 "electric_dipole_moment_norm": 3.86325432505, 
			 "electric_quadrupole_moment_norm": 23.2832503944, 
			 "total_energy": -1119.4250245, 
			 "HOMO_LUMO_gap": 0.19258, 
			 "cosmo_polarized_energy": -29.94, 
			 "cosmo_cavitation_energy": 31.41, 
			 "cosmo_dispersion_energy": -22.91, 
			 "cosmo_repulsion_energy": 1.75, 
			 "cosmo_total_nonelectrostatic_energy": 10.24, 
			 "SMD_solvation_energy": 4.58 
		},
		"coords": [
			{
				"x": -0.6649294785,
				"y": 3.9554409454,
				"z": -1.7187282679,
				"element": "C" 
			},
			{
				"x": -1.0841782475,
				"y": 2.6233484819,
				"z": -2.330217711,
				"element": "C" 
			},
			{
				"x": -2.3190538153,
				"y": 1.7319403433,
				"z": -1.3377663323,
				"element": "S" 
			},
			{
				"x": -3.3803952878,
				"y": 2.6585432933,
				"z": -0.9503281155,
				"element": "O" 
			},
			{
				"x": -2.5984124822,
				"y": 0.4708484109,
				"z": -2.0236713974,
				"element": "O" 
			},
			{
				"x": -1.5302828076,
				"y": 1.376854499,
				"z": 0.1221561276,
				"element": "N" 
			},
			{
				"x": -0.3918379994,
				"y": 0.5797743794,
				"z": 0.3003162442,
				"element": "C" 
			},
			{
				"x": 0.356225896,
				"y": 0.9470622788,
				"z": 1.3524305933,
				"element": "N" 
			},
			{
				"x": 1.4449396948,
				"y": 0.2266824742,
				"z": 1.6210252408,
				"element": "C" 
			},
			{
				"x": 1.8583225631,
				"y": -0.8696178573,
				"z": 0.8547833938,
				"element": "C" 
			},
			{
				"x": 1.0620899433,
				"y": -1.2372985892,
				"z": -0.2400122773,
				"element": "C" 
			},
			{
				"x": -0.0879040319,
				"y": -0.5169588123,
				"z": -0.5262748789,
				"element": "C" 
			},
			{
				"x": 3.097578482,
				"y": -1.5808109206,
				"z": 1.2421074413,
				"element": "C" 
			},
			{
				"x": 3.3826310315,
				"y": -2.6237515592,
				"z": 0.4218700273,
				"element": "O" 
			},
			{
				"x": 3.8033057272,
				"y": -1.2844756359,
				"z": 2.1860531983,
				"element": "O" 
			},
			{
				"x": -1.5315658874,
				"y": 4.60175281,
				"z": -1.5627097864,
				"element": "H" 
			},
			{
				"x": 0.0288079136,
				"y": 4.4629407065,
				"z": -2.3951072124,
				"element": "H" 
			},
			{
				"x": -0.154697957,
				"y": 3.8138695114,
				"z": -0.761642232,
				"element": "H" 
			},
			{
				"x": -0.2472597095,
				"y": 1.9306854627,
				"z": -2.4578235686,
				"element": "H" 
			},
			{
				"x": -1.5732197012,
				"y": 2.7466606113,
				"z": -3.3012929097,
				"element": "H" 
			},
			{
				"x": -1.627794855,
				"y": 2.1095883791,
				"z": 0.8184273276,
				"element": "H" 
			},
			{
				"x": 2.0356253142,
				"y": 0.5281963878,
				"z": 2.4820127872,
				"element": "H" 
			},
			{
				"x": 1.3394294834,
				"y": -2.0910630606,
				"z": -0.8483270653,
				"element": "H" 
			},
			{
				"x": -0.748500776,
				"y": -0.7932519345,
				"z": -1.3382305071,
				"element": "H" 
			},
			{
				"x": 4.2023769871,
				"y": -3.0155606055,
				"z": 0.7654498803,
				"element": "H" 
			}
		],
		 "valence_orbital": [ 
			{
				"type": "occ",
				"energy": -0.31554,
				"method": "rhf"
			},
			{
				"type": "occ",
				"energy": -0.3064,
				"method": "rhf"
			},
			{
				"type": "occ",
				"energy": -0.29271,
				"method": "rhf"
			},
			{
				"type": "occ",
				"energy": -0.28017,
				"method": "rhf"
			},
			{
				"type": "occ",
				"energy": -0.25396,
				"method": "rhf"
			},
			{
				"type": "unocc",
				"energy": -0.06138,
				"method": "rhf"
			},
			{
				"type": "unocc",
				"energy": -0.0411,
				"method": "rhf"
			},
			{
				"type": "unocc",
				"energy": 0.03115,
				"method": "rhf"
			},
			{
				"type": "unocc",
				"energy": 0.05689,
				"method": "rhf"
			},
			{
				"type": "unocc",
				"energy": 0.06251,
				"method": "rhf"
			}
		],
		"cosmo_sigma_profile": { 
			"-0.025": -12.1357287637,
			"-0.024": 0.0331088006609,
			"-0.023": 0.22698319624,
			"-0.022": 0.472847870653,
			"-0.021": 0.185974058571,
			"-0.02": 0.862137918266,
			"-0.019": 0.534014860771,
			"-0.018": 1.13372652565,
			"-0.017": 1.50040456686,
			"-0.016": 1.63422530116,
			"-0.015": 1.59604688163,
			"-0.014": 2.33995386104,
			"-0.013": 2.76980640757,
			"-0.012": 2.53998007898,
			"-0.011": 2.69363812881,
			"-0.01": 2.36563526865,
			"-0.009": 1.8735973868,
			"-0.008": 3.09122934823,
			"-0.007": 6.29362220896,
			"-0.006": 8.57297332207,
			"-0.005": 10.7447885412,
			"-0.004": 13.3788038989,
			"-0.003": 16.8745864289,
			"-0.002": 15.2421654603,
			"-0.001": 16.8221838901,
			"0.0": 20.5216672125,
			"0.001": 17.6093575417,
			"0.002": 11.669082432,
			"0.003": 9.41913801945,
			"0.004": 8.28320339905,
			"0.005": 6.4037491877,
			"0.006": 6.20780188491,
			"0.007": 8.29171774957,
			"0.008": 6.72223159276,
			"0.009": 5.68093430911,
			"0.01": 7.99082202345,
			"0.011": 14.474812058,
			"0.012": 11.4939208308,
			"0.013": -0.0766179237353,
			"0.014": 0.402964346045,
			"0.015": 1.49817275154,
			"0.016": -1.44454666514,
			"0.017": 0.0836877646205,
			"0.018": 0.0774548137977,
			"0.019": 0.015347828501,
			"0.02": 0.0708280311353,
			"0.021": 9.41587889835,
			"0.022": -9.02026392463,
			"0.023": 0.417794579501,
			"0.024": 8.98651341769,
			"0.025": -8.66679121398
		}
	}
}
