{
	 "smiles": "COC1=CC(=CC=C1)N1C(=O)C=CC1=O", 
	 "Tm": 337.15, 
	 "num_atms": 24, 
	 "gaussian": { 
		 "optdone": 1, 
		 "sigma_profile": "yes", 
		 "theory": "DFT", 
		 "functional": "B3LYP", 
		 "basiset": "6-31G**", 
		 "properties": { 
			 "R2extent": 3288.7009, 
			 "electric_dipole_moment_norm": 2.32269936281, 
			 "electric_quadrupole_moment_norm": 13.7933163007, 
			 "total_energy": -705.00181381, 
			 "HOMO_LUMO_gap": 0.11706, 
			 "cosmo_polarized_energy": -12.03, 
			 "cosmo_cavitation_energy": 28.98, 
			 "cosmo_dispersion_energy": -20.91, 
			 "cosmo_repulsion_energy": 1.62, 
			 "cosmo_total_nonelectrostatic_energy": 9.69, 
			 "SMD_solvation_energy": 7.35 
		},
		"coords": [
			{
				"x": 0.6415527983,
				"y": 2.7747596955,
				"z": 2.4997626475,
				"element": "C" 
			},
			{
				"x": 1.1700994456,
				"y": 1.5067817794,
				"z": 2.8583242245,
				"element": "O" 
			},
			{
				"x": 0.9970685864,
				"y": 0.4653917876,
				"z": 1.9948132475,
				"element": "C" 
			},
			{
				"x": 0.3544767511,
				"y": 0.5740979824,
				"z": 0.7583953556,
				"element": "C" 
			},
			{
				"x": 0.2164530357,
				"y": -0.5674059168,
				"z": -0.0440092989,
				"element": "C" 
			},
			{
				"x": 0.722145502,
				"y": -1.8020462192,
				"z": 0.3668053171,
				"element": "C" 
			},
			{
				"x": 1.3797995811,
				"y": -1.8825403165,
				"z": 1.5971293206,
				"element": "C" 
			},
			{
				"x": 1.5184874902,
				"y": -0.7675341882,
				"z": 2.4135077665,
				"element": "C" 
			},
			{
				"x": -0.4530530046,
				"y": -0.4531935876,
				"z": -1.3019933623,
				"element": "N" 
			},
			{
				"x": -1.5834017021,
				"y": 0.3533363817,
				"z": -1.5554942264,
				"element": "C" 
			},
			{
				"x": -2.149690041,
				"y": 1.0765125618,
				"z": -0.7631904963,
				"element": "O" 
			},
			{
				"x": -1.9373739879,
				"y": 0.1434310766,
				"z": -2.9973871355,
				"element": "C" 
			},
			{
				"x": -1.0692528445,
				"y": -0.7152766373,
				"z": -3.5354352754,
				"element": "C" 
			},
			{
				"x": -0.0860043143,
				"y": -1.1355893814,
				"z": -2.4840700814,
				"element": "C" 
			},
			{
				"x": 0.8398580878,
				"y": -1.9060931922,
				"z": -2.61655544,
				"element": "O" 
			},
			{
				"x": -0.445145029,
				"y": 2.7337760251,
				"z": 2.3538798173,
				"element": "H" 
			},
			{
				"x": 0.8690887102,
				"y": 3.4413242983,
				"z": 3.3330237026,
				"element": "H" 
			},
			{
				"x": 1.1109522552,
				"y": 3.1660475073,
				"z": 1.5878274248,
				"element": "H" 
			},
			{
				"x": -0.0582635987,
				"y": 1.5130802284,
				"z": 0.4214313829,
				"element": "H" 
			},
			{
				"x": 0.620319837,
				"y": -2.6739893368,
				"z": -0.2648160533,
				"element": "H" 
			},
			{
				"x": 1.7831743359,
				"y": -2.8369321502,
				"z": 1.9220434779,
				"element": "H" 
			},
			{
				"x": 2.0190771508,
				"y": -0.8220470028,
				"z": 3.3742271006,
				"element": "H" 
			},
			{
				"x": -2.7797180009,
				"y": 0.6497042919,
				"z": -3.4499105881,
				"element": "H" 
			},
			{
				"x": -1.0100510441,
				"y": -1.0963956872,
				"z": -4.546308828,
				"element": "H" 
			}
		],
		 "valence_orbital": [ 
			{
				"type": "occ",
				"energy": -0.29995,
				"method": "rhf"
			},
			{
				"type": "occ",
				"energy": -0.29576,
				"method": "rhf"
			},
			{
				"type": "occ",
				"energy": -0.27461,
				"method": "rhf"
			},
			{
				"type": "occ",
				"energy": -0.24193,
				"method": "rhf"
			},
			{
				"type": "occ",
				"energy": -0.21792,
				"method": "rhf"
			},
			{
				"type": "unocc",
				"energy": -0.10086,
				"method": "rhf"
			},
			{
				"type": "unocc",
				"energy": -0.01128,
				"method": "rhf"
			},
			{
				"type": "unocc",
				"energy": 0.01041,
				"method": "rhf"
			},
			{
				"type": "unocc",
				"energy": 0.06062,
				"method": "rhf"
			},
			{
				"type": "unocc",
				"energy": 0.0614,
				"method": "rhf"
			}
		],
		"cosmo_sigma_profile": { 
			"-0.025": 0.0,
			"-0.024": 0.0,
			"-0.023": 0.0,
			"-0.022": 0.0,
			"-0.021": 0.0,
			"-0.02": 0.0,
			"-0.019": 0.0,
			"-0.018": 0.0,
			"-0.017": 0.0,
			"-0.016": 0.0,
			"-0.015": 0.0,
			"-0.014": 0.0,
			"-0.013": 0.0,
			"-0.012": 0.0,
			"-0.011": 0.0,
			"-0.01": 2.19869164124,
			"-0.009": 4.11012065124,
			"-0.008": 3.37812189249,
			"-0.007": 3.54062871272,
			"-0.006": 13.7856603393,
			"-0.005": 23.3080167193,
			"-0.004": 24.2075703847,
			"-0.003": 23.2291884582,
			"-0.002": 15.5208459434,
			"-0.001": 12.4573373446,
			"0.0": 11.0846027947,
			"0.001": 9.189255499,
			"0.002": 9.98937373174,
			"0.003": 12.650297109,
			"0.004": 14.8867733749,
			"0.005": 10.7843053909,
			"0.006": 6.05452310248,
			"0.007": 4.72710796472,
			"0.008": 6.06720342514,
			"0.009": 6.25036401957,
			"0.01": 8.88831183339,
			"0.011": 6.19284231354,
			"0.012": 0.592546709708,
			"0.013": 0.0,
			"0.014": 0.0,
			"0.015": 0.0,
			"0.016": 0.0,
			"0.017": 0.0,
			"0.018": 0.0,
			"0.019": 0.0,
			"0.02": 0.0,
			"0.021": 0.0,
			"0.022": 0.0,
			"0.023": 0.0,
			"0.024": 0.0,
			"0.025": 0.0
		}
	}
}
