{
	 "smiles": "CCNC=C(C(=O)OCC)C(=O)C1=CC(F)=C(Cl)N=C1", 
	 "Tm": 396.15, 
	 "num_atms": 34, 
	 "gaussian": { 
		 "optdone": 1, 
		 "sigma_profile": "yes", 
		 "theory": "DFT", 
		 "functional": "B3LYP", 
		 "basiset": "6-31G**", 
		 "properties": { 
			 "R2extent": 9900.0615, 
			 "electric_dipole_moment_norm": 9.2258971954, 
			 "electric_quadrupole_moment_norm": 10.1473847616, 
			 "total_energy": -1399.02941206, 
			 "HOMO_LUMO_gap": 0.17081, 
			 "cosmo_polarized_energy": -17.53, 
			 "cosmo_cavitation_energy": 41.33, 
			 "cosmo_dispersion_energy": -28.59, 
			 "cosmo_repulsion_energy": 2.25, 
			 "cosmo_total_nonelectrostatic_energy": 14.99, 
			 "SMD_solvation_energy": 6.93 
		},
		"coords": [
			{
				"x": -3.2354149257,
				"y": 2.646867797,
				"z": 1.5967125357,
				"element": "C" 
			},
			{
				"x": -3.3469323098,
				"y": 1.5767562019,
				"z": 0.5079415792,
				"element": "C" 
			},
			{
				"x": -2.0494339638,
				"y": 1.1899477862,
				"z": -0.0354199028,
				"element": "N" 
			},
			{
				"x": -1.4743924888,
				"y": 0.0041019456,
				"z": 0.156643266,
				"element": "C" 
			},
			{
				"x": -0.2322449242,
				"y": -0.4511647425,
				"z": -0.2642957304,
				"element": "C" 
			},
			{
				"x": 0.6723422645,
				"y": 0.2970888627,
				"z": -1.1409284453,
				"element": "C" 
			},
			{
				"x": 1.6688947083,
				"y": -0.1382059499,
				"z": -1.6883244921,
				"element": "O" 
			},
			{
				"x": 0.2598984224,
				"y": 1.5991234857,
				"z": -1.3373753074,
				"element": "O" 
			},
			{
				"x": 1.0695894771,
				"y": 2.3968920188,
				"z": -2.2376755138,
				"element": "C" 
			},
			{
				"x": 2.2485978205,
				"y": 3.0293477684,
				"z": -1.5144738163,
				"element": "C" 
			},
			{
				"x": 0.0473518631,
				"y": -1.8565096681,
				"z": 0.11746468,
				"element": "C" 
			},
			{
				"x": -0.8675000834,
				"y": -2.6248411029,
				"z": 0.422431151,
				"element": "O" 
			},
			{
				"x": 1.4524189155,
				"y": -2.3812120324,
				"z": 0.2243433906,
				"element": "C" 
			},
			{
				"x": 1.6584480307,
				"y": -3.7529683508,
				"z": 0.0362075383,
				"element": "C" 
			},
			{
				"x": 2.9279967618,
				"y": -4.2668371443,
				"z": 0.2290108584,
				"element": "C" 
			},
			{
				"x": 3.167514521,
				"y": -5.5709178156,
				"z": 0.0360468104,
				"element": "F" 
			},
			{
				"x": 3.9528768179,
				"y": -3.408087296,
				"z": 0.6426828679,
				"element": "C" 
			},
			{
				"x": 5.557214927,
				"y": -4.0617408726,
				"z": 0.8969581364,
				"element": "Cl" 
			},
			{
				"x": 3.7622020731,
				"y": -2.1205229229,
				"z": 0.8592499635,
				"element": "N" 
			},
			{
				"x": 2.5434548286,
				"y": -1.613059679,
				"z": 0.6463905238,
				"element": "C" 
			},
			{
				"x": -2.647983512,
				"y": 2.2822355873,
				"z": 2.444294352,
				"element": "H" 
			},
			{
				"x": -2.754416376,
				"y": 3.5526090347,
				"z": 1.2128711267,
				"element": "H" 
			},
			{
				"x": -4.2308222843,
				"y": 2.9235532903,
				"z": 1.9578926098,
				"element": "H" 
			},
			{
				"x": -3.9772557941,
				"y": 1.9379465773,
				"z": -0.3138996582,
				"element": "H" 
			},
			{
				"x": -3.8231389659,
				"y": 0.6743705609,
				"z": 0.9025363429,
				"element": "H" 
			},
			{
				"x": -1.5083884968,
				"y": 1.8704294512,
				"z": -0.5592131395,
				"element": "H" 
			},
			{
				"x": -2.0653868422,
				"y": -0.7174798579,
				"z": 0.7173753492,
				"element": "H" 
			},
			{
				"x": 1.4062720074,
				"y": 1.7612078743,
				"z": -3.0588822923,
				"element": "H" 
			},
			{
				"x": 0.3820727921,
				"y": 3.1544082153,
				"z": -2.6234566143,
				"element": "H" 
			},
			{
				"x": 2.936403266,
				"y": 2.2589092424,
				"z": -1.1589534335,
				"element": "H" 
			},
			{
				"x": 2.7943237741,
				"y": 3.6864829535,
				"z": -2.1998019977,
				"element": "H" 
			},
			{
				"x": 1.9117938881,
				"y": 3.627376992,
				"z": -0.6621609624,
				"element": "H" 
			},
			{
				"x": 0.8376512307,
				"y": -4.4009847379,
				"z": -0.2494976221,
				"element": "H" 
			},
			{
				"x": 2.4345925768,
				"y": -0.5513234725,
				"z": 0.8401058465,
				"element": "H" 
			}
		],
		 "valence_orbital": [ 
			{
				"type": "occ",
				"energy": -0.28074,
				"method": "rhf"
			},
			{
				"type": "occ",
				"energy": -0.27611,
				"method": "rhf"
			},
			{
				"type": "occ",
				"energy": -0.25096,
				"method": "rhf"
			},
			{
				"type": "occ",
				"energy": -0.24406,
				"method": "rhf"
			},
			{
				"type": "occ",
				"energy": -0.23166,
				"method": "rhf"
			},
			{
				"type": "unocc",
				"energy": -0.06085,
				"method": "rhf"
			},
			{
				"type": "unocc",
				"energy": -0.03282,
				"method": "rhf"
			},
			{
				"type": "unocc",
				"energy": -0.02208,
				"method": "rhf"
			},
			{
				"type": "unocc",
				"energy": 0.0195,
				"method": "rhf"
			},
			{
				"type": "unocc",
				"energy": 0.03815,
				"method": "rhf"
			}
		],
		"cosmo_sigma_profile": { 
			"-0.025": 0.0,
			"-0.024": 0.0,
			"-0.023": 0.0,
			"-0.022": 0.0,
			"-0.021": 0.0,
			"-0.02": 0.0,
			"-0.019": 0.0,
			"-0.018": 0.0,
			"-0.017": 0.0,
			"-0.016": 0.0,
			"-0.015": 0.0,
			"-0.014": 0.0,
			"-0.013": 0.0,
			"-0.012": 0.520958583164,
			"-0.011": 1.03519072249,
			"-0.01": 0.766091298149,
			"-0.009": 2.6199115128,
			"-0.008": 4.25512801218,
			"-0.007": 6.61407872673,
			"-0.006": 9.58083582882,
			"-0.005": 15.3898519314,
			"-0.004": 27.9866173589,
			"-0.003": 37.3596780755,
			"-0.002": 36.1075568962,
			"-0.001": 33.0240968279,
			"0.0": 33.3694963734,
			"0.001": 22.8992283379,
			"0.002": 15.0283042777,
			"0.003": 22.6568357757,
			"0.004": 15.2850459301,
			"0.005": 7.74636583559,
			"0.006": 5.37038644388,
			"0.007": 4.47743210628,
			"0.008": 5.01646657222,
			"0.009": 4.08128263208,
			"0.01": 4.01821072052,
			"0.011": 4.80864607792,
			"0.012": 7.74735179777,
			"0.013": 3.25112039217,
			"0.014": 0.297475702435,
			"0.015": 0.0,
			"0.016": 0.0,
			"0.017": 0.0,
			"0.018": 0.0,
			"0.019": 0.0,
			"0.02": 0.0,
			"0.021": 0.0,
			"0.022": 0.0,
			"0.023": 0.0,
			"0.024": 0.0,
			"0.025": 0.0
		}
	}
}
