{
	 "smiles": "NC1=NC=C(CC2=CC(=CC=C2)C(F)(F)F)S1", 
	 "Tm": 348.15, 
	 "num_atms": 26, 
	 "gaussian": { 
		 "optdone": 1, 
		 "sigma_profile": "yes", 
		 "theory": "DFT", 
		 "functional": "B3LYP", 
		 "basiset": "6-31G**", 
		 "properties": { 
			 "R2extent": 7812.8055, 
			 "electric_dipole_moment_norm": 2.73808294067, 
			 "electric_quadrupole_moment_norm": 19.2640940023, 
			 "total_energy": -1231.81265965, 
			 "HOMO_LUMO_gap": 0.18265, 
			 "cosmo_polarized_energy": -12.16, 
			 "cosmo_cavitation_energy": 33.94, 
			 "cosmo_dispersion_energy": -24.05, 
			 "cosmo_repulsion_energy": 1.79, 
			 "cosmo_total_nonelectrostatic_energy": 11.68, 
			 "SMD_solvation_energy": 4.68 
		},
		"coords": [
			{
				"x": 1.7564469147,
				"y": -2.9296960118,
				"z": -4.8754179011,
				"element": "N" 
			},
			{
				"x": 1.059037227,
				"y": -2.1142692658,
				"z": -4.0126778201,
				"element": "C" 
			},
			{
				"x": 0.8640278954,
				"y": -0.842552389,
				"z": -4.2111740661,
				"element": "N" 
			},
			{
				"x": 0.0649685403,
				"y": -0.3203788548,
				"z": -3.21549848,
				"element": "C" 
			},
			{
				"x": -0.3606971848,
				"y": -1.1636794812,
				"z": -2.2336651527,
				"element": "C" 
			},
			{
				"x": -1.2200535075,
				"y": -0.8641742122,
				"z": -1.0398015228,
				"element": "C" 
			},
			{
				"x": -0.5377866402,
				"y": -1.0396104294,
				"z": 0.3110912887,
				"element": "C" 
			},
			{
				"x": -1.1644125218,
				"y": -1.7549035607,
				"z": 1.334238709,
				"element": "C" 
			},
			{
				"x": -0.5562207715,
				"y": -1.8874114047,
				"z": 2.5863198314,
				"element": "C" 
			},
			{
				"x": 0.688207613,
				"y": -1.3054330742,
				"z": 2.831364612,
				"element": "C" 
			},
			{
				"x": 1.3200582272,
				"y": -0.5913665228,
				"z": 1.8124665274,
				"element": "C" 
			},
			{
				"x": 0.7144558313,
				"y": -0.4625518452,
				"z": 0.5639939739,
				"element": "C" 
			},
			{
				"x": -1.2225826599,
				"y": -2.714585996,
				"z": 3.6521029825,
				"element": "C" 
			},
			{
				"x": -0.8795521972,
				"y": -2.3088152773,
				"z": 4.8949596197,
				"element": "F" 
			},
			{
				"x": -0.8795807892,
				"y": -4.0212683987,
				"z": 3.5582529815,
				"element": "F" 
			},
			{
				"x": -2.5709791989,
				"y": -2.6592815011,
				"z": 3.5646559507,
				"element": "F" 
			},
			{
				"x": 0.2710580062,
				"y": -2.7771745218,
				"z": -2.5720024298,
				"element": "S" 
			},
			{
				"x": 2.2417948479,
				"y": -3.7170427007,
				"z": -4.4696971964,
				"element": "H" 
			},
			{
				"x": 2.3069413978,
				"y": -2.4087555428,
				"z": -5.5459315,
				"element": "H" 
			},
			{
				"x": -0.1887395763,
				"y": 0.734359166,
				"z": -3.2505972252,
				"element": "H" 
			},
			{
				"x": -2.1306753599,
				"y": -1.475553472,
				"z": -1.0585521215,
				"element": "H" 
			},
			{
				"x": -1.5540669182,
				"y": 0.1769036965,
				"z": -1.142397463,
				"element": "H" 
			},
			{
				"x": -2.1368857356,
				"y": -2.2064855292,
				"z": 1.1629224932,
				"element": "H" 
			},
			{
				"x": 1.1510144187,
				"y": -1.4061228914,
				"z": 3.806924063,
				"element": "H" 
			},
			{
				"x": 2.2876229569,
				"y": -0.1332775539,
				"z": 1.9947364628,
				"element": "H" 
			},
			{
				"x": 1.2148991843,
				"y": 0.0859275743,
				"z": -0.2293166171,
				"element": "H" 
			}
		],
		 "valence_orbital": [ 
			{
				"type": "occ",
				"energy": -0.27674,
				"method": "rhf"
			},
			{
				"type": "occ",
				"energy": -0.2736,
				"method": "rhf"
			},
			{
				"type": "occ",
				"energy": -0.26592,
				"method": "rhf"
			},
			{
				"type": "occ",
				"energy": -0.25701,
				"method": "rhf"
			},
			{
				"type": "occ",
				"energy": -0.21084,
				"method": "rhf"
			},
			{
				"type": "unocc",
				"energy": -0.02819,
				"method": "rhf"
			},
			{
				"type": "unocc",
				"energy": -0.01714,
				"method": "rhf"
			},
			{
				"type": "unocc",
				"energy": -0.00571,
				"method": "rhf"
			},
			{
				"type": "unocc",
				"energy": 0.01048,
				"method": "rhf"
			},
			{
				"type": "unocc",
				"energy": 0.06284,
				"method": "rhf"
			}
		],
		"cosmo_sigma_profile": { 
			"-0.025": 0.0,
			"-0.024": 0.0,
			"-0.023": 0.0,
			"-0.022": 0.0,
			"-0.021": 0.0,
			"-0.02": 0.0,
			"-0.019": 0.0,
			"-0.018": 0.0,
			"-0.017": 0.0,
			"-0.016": 0.0,
			"-0.015": 0.262655561008,
			"-0.014": 1.78656266812,
			"-0.013": 2.80822430913,
			"-0.012": 2.18298915746,
			"-0.011": 2.61304440613,
			"-0.01": 2.44270399208,
			"-0.009": 2.41296915387,
			"-0.008": 1.61587623081,
			"-0.007": 5.65667765243,
			"-0.006": 13.9073228791,
			"-0.005": 15.784490452,
			"-0.004": 14.9710974202,
			"-0.003": 14.4094031852,
			"-0.002": 16.0335847485,
			"-0.001": 13.2314998756,
			"0.0": 15.667987282,
			"0.001": 21.4487412678,
			"0.002": 31.3778597374,
			"0.003": 49.3478758899,
			"0.004": 20.660638675,
			"0.005": 6.48661347446,
			"0.006": 2.75271389953,
			"0.007": 2.68141289222,
			"0.008": 2.69766314084,
			"0.009": 2.00434668018,
			"0.01": 1.55018135784,
			"0.011": 2.0975772426,
			"0.012": 1.01695418141,
			"0.013": 1.12192157995,
			"0.014": 0.919819579775,
			"0.015": 0.971157227165,
			"0.016": 0.575894136054,
			"0.017": 0.0212041730967,
			"0.018": 0.0,
			"0.019": 0.0,
			"0.02": 0.0,
			"0.021": 0.0,
			"0.022": 0.0,
			"0.023": 0.0,
			"0.024": 0.0,
			"0.025": 0.0
		}
	}
}
