{
	 "smiles": "COC1=CC=C(CC(O)=O)C(Br)=C1", 
	 "Tm": 402.15, 
	 "num_atms": 22, 
	 "gaussian": { 
		 "optdone": 1, 
		 "sigma_profile": "yes", 
		 "theory": "DFT", 
		 "functional": "B3LYP", 
		 "basiset": "6-31G**", 
		 "properties": { 
			 "R2extent": 4541.0766, 
			 "electric_dipole_moment_norm": 1.33562498854, 
			 "electric_quadrupole_moment_norm": 14.4804365922, 
			 "total_energy": -3145.4616255, 
			 "HOMO_LUMO_gap": 0.21025, 
			 "cosmo_polarized_energy": -13.03, 
			 "cosmo_cavitation_energy": 28.85, 
			 "cosmo_dispersion_energy": -20.95, 
			 "cosmo_repulsion_energy": 1.68, 
			 "cosmo_total_nonelectrostatic_energy": 9.59, 
			 "SMD_solvation_energy": 5.79 
		},
		"coords": [
			{
				"x": 0.5423480575,
				"y": -2.3608638103,
				"z": -3.6754506287,
				"element": "C" 
			},
			{
				"x": -0.0474709895,
				"y": -1.171444079,
				"z": -3.1709610884,
				"element": "O" 
			},
			{
				"x": -0.1286645713,
				"y": -1.0106900738,
				"z": -1.8214977346,
				"element": "C" 
			},
			{
				"x": -0.705420113,
				"y": 0.1870880172,
				"z": -1.376086371,
				"element": "C" 
			},
			{
				"x": -0.8272331523,
				"y": 0.4280668778,
				"z": -0.0159603036,
				"element": "C" 
			},
			{
				"x": -0.3906852663,
				"y": -0.4903609871,
				"z": 0.9530969026,
				"element": "C" 
			},
			{
				"x": -0.543970017,
				"y": -0.1842660433,
				"z": 2.4193323432,
				"element": "C" 
			},
			{
				"x": 0.7319991773,
				"y": 0.3199530881,
				"z": 3.0802335284,
				"element": "C" 
			},
			{
				"x": 0.5790482817,
				"y": 0.3756378502,
				"z": 4.4268406314,
				"element": "O" 
			},
			{
				"x": 1.74842351,
				"y": 0.6590964439,
				"z": 2.5216579385,
				"element": "O" 
			},
			{
				"x": 0.1778540602,
				"y": -1.6730576359,
				"z": 0.4742692263,
				"element": "C" 
			},
			{
				"x": 0.8099560317,
				"y": -3.005437074,
				"z": 1.7022316753,
				"element": "Br" 
			},
			{
				"x": 0.3164229475,
				"y": -1.9510146079,
				"z": -0.8865045973,
				"element": "C" 
			},
			{
				"x": 0.5114515057,
				"y": -2.2736023899,
				"z": -4.7623544065,
				"element": "H" 
			},
			{
				"x": 1.5854335323,
				"y": -2.4633310689,
				"z": -3.350587207,
				"element": "H" 
			},
			{
				"x": -0.0196831014,
				"y": -3.25228005,
				"z": -3.3689507448,
				"element": "H" 
			},
			{
				"x": -1.0474834087,
				"y": 0.9072268437,
				"z": -2.1112968,
				"element": "H" 
			},
			{
				"x": -1.2741058468,
				"y": 1.3611441778,
				"z": 0.3166455123,
				"element": "H" 
			},
			{
				"x": -1.3033073239,
				"y": 0.5930148891,
				"z": 2.5660439588,
				"element": "H" 
			},
			{
				"x": -0.8875190845,
				"y": -1.0564489833,
				"z": 2.9835983279,
				"element": "H" 
			},
			{
				"x": 1.416940078,
				"y": 0.7216191935,
				"z": 4.7772871296,
				"element": "H" 
			},
			{
				"x": 0.765065693,
				"y": -2.8860505777,
				"z": -1.1922872924,
				"element": "H" 
			}
		],
		 "valence_orbital": [ 
			{
				"type": "occ",
				"energy": -0.29933,
				"method": "rhf"
			},
			{
				"type": "occ",
				"energy": -0.28735,
				"method": "rhf"
			},
			{
				"type": "occ",
				"energy": -0.27378,
				"method": "rhf"
			},
			{
				"type": "occ",
				"energy": -0.2484,
				"method": "rhf"
			},
			{
				"type": "occ",
				"energy": -0.2244,
				"method": "rhf"
			},
			{
				"type": "unocc",
				"energy": -0.01415,
				"method": "rhf"
			},
			{
				"type": "unocc",
				"energy": -0.00135,
				"method": "rhf"
			},
			{
				"type": "unocc",
				"energy": 0.00597,
				"method": "rhf"
			},
			{
				"type": "unocc",
				"energy": 0.01522,
				"method": "rhf"
			},
			{
				"type": "unocc",
				"energy": 0.08171,
				"method": "rhf"
			}
		],
		"cosmo_sigma_profile": { 
			"-0.025": 0.0,
			"-0.024": 0.0,
			"-0.023": 0.0,
			"-0.022": 0.0,
			"-0.021": 0.0,
			"-0.02": 0.0,
			"-0.019": 0.0,
			"-0.018": 0.683900629217,
			"-0.017": 0.836368308872,
			"-0.016": 0.952426666073,
			"-0.015": 1.03231334244,
			"-0.014": 0.61614633866,
			"-0.013": 0.379439013312,
			"-0.012": 0.797355028474,
			"-0.011": 0.80460819531,
			"-0.01": 0.844677980351,
			"-0.009": 0.516443350624,
			"-0.008": 2.97518971089,
			"-0.007": 8.31788010354,
			"-0.006": 14.848215238,
			"-0.005": 17.1916828255,
			"-0.004": 17.6367383705,
			"-0.003": 16.9249811042,
			"-0.002": 12.341394993,
			"-0.001": 12.2901929501,
			"0.0": 11.2055236114,
			"0.001": 13.5569491702,
			"0.002": 17.8796348043,
			"0.003": 20.9060105898,
			"0.004": 18.0444086284,
			"0.005": 9.15811600841,
			"0.006": 3.99061145161,
			"0.007": 5.30537232764,
			"0.008": 4.92479923018,
			"0.009": 4.5696129391,
			"0.01": 4.31530357917,
			"0.011": 4.28668749124,
			"0.012": 3.9961634312,
			"0.013": 0.315153297326,
			"0.014": 0.0,
			"0.015": 0.0,
			"0.016": 0.0,
			"0.017": 0.0,
			"0.018": 0.0,
			"0.019": 0.0,
			"0.02": 0.0,
			"0.021": 0.0,
			"0.022": 0.0,
			"0.023": 0.0,
			"0.024": 0.0,
			"0.025": 0.0
		}
	}
}
