{
	 "smiles": "OC1=CC=C2C=CC=CC2=C1Br", 
	 "Tm": 357.15, 
	 "num_atms": 19, 
	 "gaussian": { 
		 "optdone": 1, 
		 "sigma_profile": "yes", 
		 "theory": "DFT", 
		 "functional": "B3LYP", 
		 "basiset": "6-31G**", 
		 "properties": { 
			 "R2extent": 2734.8175, 
			 "electric_dipole_moment_norm": 1.02166180314, 
			 "electric_quadrupole_moment_norm": 7.66878534059, 
			 "total_energy": -3031.92088189, 
			 "HOMO_LUMO_gap": 0.1682, 
			 "cosmo_polarized_energy": -6.05, 
			 "cosmo_cavitation_energy": 24.64, 
			 "cosmo_dispersion_energy": -19.19, 
			 "cosmo_repulsion_energy": 1.49, 
			 "cosmo_total_nonelectrostatic_energy": 6.94, 
			 "SMD_solvation_energy": 3.27 
		},
		"coords": [
			{
				"x": -3.2614187799,
				"y": 0.0670302808,
				"z": 0.2374312385,
				"element": "O" 
			},
			{
				"x": -1.9619716017,
				"y": 0.1963812471,
				"z": 0.5927638386,
				"element": "C" 
			},
			{
				"x": -1.7025870722,
				"y": 0.8830184814,
				"z": 1.8085060094,
				"element": "C" 
			},
			{
				"x": -0.415674304,
				"y": 1.0596302798,
				"z": 2.2444696424,
				"element": "C" 
			},
			{
				"x": 0.6915750361,
				"y": 0.5663721088,
				"z": 1.5017660036,
				"element": "C" 
			},
			{
				"x": 2.0266158701,
				"y": 0.745713337,
				"z": 1.9472818155,
				"element": "C" 
			},
			{
				"x": 3.0911036935,
				"y": 0.2635974645,
				"z": 1.2195428682,
				"element": "C" 
			},
			{
				"x": 2.8559199753,
				"y": -0.4230640982,
				"z": 0.0062220474,
				"element": "C" 
			},
			{
				"x": 1.5731593601,
				"y": -0.6164888313,
				"z": -0.4584130366,
				"element": "C" 
			},
			{
				"x": 0.4541744728,
				"y": -0.1315437954,
				"z": 0.2686862943,
				"element": "C" 
			},
			{
				"x": -0.8973852008,
				"y": -0.2918917414,
				"z": -0.1456188569,
				"element": "C" 
			},
			{
				"x": -1.3192139013,
				"y": -1.2117982931,
				"z": -1.7818355149,
				"element": "Br" 
			},
			{
				"x": -3.304174299,
				"y": -0.4163270432,
				"z": -0.6042989358,
				"element": "H" 
			},
			{
				"x": -2.5549932006,
				"y": 1.2550309311,
				"z": 2.3668105066,
				"element": "H" 
			},
			{
				"x": -0.2262185302,
				"y": 1.5861481467,
				"z": 3.1757365368,
				"element": "H" 
			},
			{
				"x": 2.191616133,
				"y": 1.2756391126,
				"z": 2.88198425,
				"element": "H" 
			},
			{
				"x": 4.107570908,
				"y": 0.4081911695,
				"z": 1.5726802476,
				"element": "H" 
			},
			{
				"x": 3.6961123639,
				"y": -0.8032943434,
				"z": -0.5675829535,
				"element": "H" 
			},
			{
				"x": 1.4052890771,
				"y": -1.1445444133,
				"z": -1.3901320013,
				"element": "H" 
			}
		],
		 "valence_orbital": [ 
			{
				"type": "occ",
				"energy": -0.31283,
				"method": "rhf"
			},
			{
				"type": "occ",
				"energy": -0.30467,
				"method": "rhf"
			},
			{
				"type": "occ",
				"energy": -0.27356,
				"method": "rhf"
			},
			{
				"type": "occ",
				"energy": -0.23891,
				"method": "rhf"
			},
			{
				"type": "occ",
				"energy": -0.21271,
				"method": "rhf"
			},
			{
				"type": "unocc",
				"energy": -0.04451,
				"method": "rhf"
			},
			{
				"type": "unocc",
				"energy": -0.01056,
				"method": "rhf"
			},
			{
				"type": "unocc",
				"energy": -0.0002,
				"method": "rhf"
			},
			{
				"type": "unocc",
				"energy": 0.02699,
				"method": "rhf"
			},
			{
				"type": "unocc",
				"energy": 0.08901,
				"method": "rhf"
			}
		],
		"cosmo_sigma_profile": { 
			"-0.025": 0.0,
			"-0.024": 0.0,
			"-0.023": 0.0,
			"-0.022": 0.0,
			"-0.021": 0.0,
			"-0.02": 0.0,
			"-0.019": 0.0,
			"-0.018": 0.0,
			"-0.017": 0.0,
			"-0.016": 0.0,
			"-0.015": 0.0117718957306,
			"-0.014": 0.426903596899,
			"-0.013": 0.642982358369,
			"-0.012": 1.00220427399,
			"-0.011": 0.236305362285,
			"-0.01": 0.666410862181,
			"-0.009": 1.2798341983,
			"-0.008": 0.754584313859,
			"-0.007": 4.3860643776,
			"-0.006": 11.5422605999,
			"-0.005": 12.000839838,
			"-0.004": 14.0943664052,
			"-0.003": 12.5871096432,
			"-0.002": 11.1173350101,
			"-0.001": 13.0252633806,
			"0.0": 11.9739646702,
			"0.001": 16.9090909773,
			"0.002": 25.6600751164,
			"0.003": 25.4457667029,
			"0.004": 19.9950674894,
			"0.005": 9.2845834977,
			"0.006": 1.35744462732,
			"0.007": 1.62273997105,
			"0.008": 1.59357422956,
			"0.009": 1.40534306059,
			"0.01": 1.8485923378,
			"0.011": 0.52768709954,
			"0.012": 0.0,
			"0.013": 0.0,
			"0.014": 0.0,
			"0.015": 0.0,
			"0.016": 0.0,
			"0.017": 0.0,
			"0.018": 0.0,
			"0.019": 0.0,
			"0.02": 0.0,
			"0.021": 0.0,
			"0.022": 0.0,
			"0.023": 0.0,
			"0.024": 0.0,
			"0.025": 0.0
		}
	}
}
