{
	 "smiles": "CC1=C(OC2=C1C=C(Br)C=C2)C(O)=O", 
	 "Tm": 523.15, 
	 "num_atms": 21, 
	 "gaussian": { 
		 "optdone": 1, 
		 "sigma_profile": "yes", 
		 "theory": "DFT", 
		 "functional": "B3LYP", 
		 "basiset": "6-31G**", 
		 "properties": { 
			 "R2extent": 6541.2177, 
			 "electric_dipole_moment_norm": 3.08738154753, 
			 "electric_quadrupole_moment_norm": 17.87223784, 
			 "total_energy": -3182.36675065, 
			 "HOMO_LUMO_gap": 0.17557, 
			 "cosmo_polarized_energy": -12.03, 
			 "cosmo_cavitation_energy": 28.38, 
			 "cosmo_dispersion_energy": -21.3, 
			 "cosmo_repulsion_energy": 1.67, 
			 "cosmo_total_nonelectrostatic_energy": 8.74, 
			 "SMD_solvation_energy": 5.11 
		},
		"coords": [
			{
				"x": -1.580067763,
				"y": 0.6986056568,
				"z": 0.9810549927,
				"element": "C" 
			},
			{
				"x": -0.643339544,
				"y": 0.282766408,
				"z": -0.1109941869,
				"element": "C" 
			},
			{
				"x": -0.3691469306,
				"y": -0.9895462417,
				"z": -0.5304892028,
				"element": "C" 
			},
			{
				"x": 0.5516690896,
				"y": -1.0153351,
				"z": -1.5705425888,
				"element": "O" 
			},
			{
				"x": 0.8736266606,
				"y": 0.2874287052,
				"z": -1.8201141458,
				"element": "C" 
			},
			{
				"x": 0.166524701,
				"y": 1.1370125563,
				"z": -0.9494382971,
				"element": "C" 
			},
			{
				"x": 0.3561134882,
				"y": 2.5255291059,
				"z": -1.0424346869,
				"element": "C" 
			},
			{
				"x": 1.2443688286,
				"y": 2.9881424977,
				"z": -2.0031840395,
				"element": "C" 
			},
			{
				"x": 1.5382489036,
				"y": 4.8704921722,
				"z": -2.1706872138,
				"element": "Br" 
			},
			{
				"x": 1.9436826881,
				"y": 2.1228931323,
				"z": -2.8664313291,
				"element": "C" 
			},
			{
				"x": 1.7644840082,
				"y": 0.7447266558,
				"z": -2.7842651647,
				"element": "C" 
			},
			{
				"x": -0.8843342405,
				"y": -2.2852635365,
				"z": -0.0619268831,
				"element": "C" 
			},
			{
				"x": -0.4015298029,
				"y": -3.375136217,
				"z": -0.7027912697,
				"element": "O" 
			},
			{
				"x": -1.6906047491,
				"y": -2.3783924752,
				"z": 0.8375712233,
				"element": "O" 
			},
			{
				"x": -2.5976763038,
				"y": 0.3544439556,
				"z": 0.7757292218,
				"element": "H" 
			},
			{
				"x": -1.2895628154,
				"y": 0.2525159102,
				"z": 1.9364226784,
				"element": "H" 
			},
			{
				"x": -1.5937630964,
				"y": 1.7853959181,
				"z": 1.0918722539,
				"element": "H" 
			},
			{
				"x": -0.1679179321,
				"y": 3.215995652,
				"z": -0.3920061456,
				"element": "H" 
			},
			{
				"x": 2.6254500883,
				"y": 2.5390342261,
				"z": -3.5985379668,
				"element": "H" 
			},
			{
				"x": 2.2938494224,
				"y": 0.062635363,
				"z": -3.4400634654,
				"element": "H" 
			},
			{
				"x": 0.2276252991,
				"y": -3.098744345,
				"z": -1.388043784,
				"element": "H" 
			}
		],
		 "valence_orbital": [ 
			{
				"type": "occ",
				"energy": -0.30949,
				"method": "rhf"
			},
			{
				"type": "occ",
				"energy": -0.29656,
				"method": "rhf"
			},
			{
				"type": "occ",
				"energy": -0.28255,
				"method": "rhf"
			},
			{
				"type": "occ",
				"energy": -0.24937,
				"method": "rhf"
			},
			{
				"type": "occ",
				"energy": -0.24637,
				"method": "rhf"
			},
			{
				"type": "unocc",
				"energy": -0.0708,
				"method": "rhf"
			},
			{
				"type": "unocc",
				"energy": -0.01968,
				"method": "rhf"
			},
			{
				"type": "unocc",
				"energy": -0.00372,
				"method": "rhf"
			},
			{
				"type": "unocc",
				"energy": 0.0022,
				"method": "rhf"
			},
			{
				"type": "unocc",
				"energy": 0.07596,
				"method": "rhf"
			}
		],
		"cosmo_sigma_profile": { 
			"-0.025": 0.0,
			"-0.024": 0.0,
			"-0.023": 0.0,
			"-0.022": 0.0,
			"-0.021": 0.0,
			"-0.02": 0.0,
			"-0.019": 0.0,
			"-0.018": 0.0,
			"-0.017": 0.09089494875,
			"-0.016": 0.647764984231,
			"-0.015": 1.01829433095,
			"-0.014": 0.802757913512,
			"-0.013": 0.271855899748,
			"-0.012": 0.638319387328,
			"-0.011": 1.0879859428,
			"-0.01": 0.854480170489,
			"-0.009": 1.31300538819,
			"-0.008": 5.12008001539,
			"-0.007": 8.44214896352,
			"-0.006": 8.79062386122,
			"-0.005": 10.0987120771,
			"-0.004": 13.5909308639,
			"-0.003": 13.6197195102,
			"-0.002": 18.4134920653,
			"-0.001": 23.6654799313,
			"0.0": 21.4814720618,
			"0.001": 20.671138044,
			"0.002": 22.8043089647,
			"0.003": 11.6261838676,
			"0.004": 12.6809757521,
			"0.005": 7.45069584469,
			"0.006": 2.19606172293,
			"0.007": 3.0721072199,
			"0.008": 2.94197986299,
			"0.009": 3.47571489281,
			"0.01": 5.25631718806,
			"0.011": 4.30119404499,
			"0.012": 3.56280021381,
			"0.013": 1.24474597059,
			"0.014": 0.00752808009698,
			"0.015": 0.0,
			"0.016": 0.0,
			"0.017": 0.0,
			"0.018": 0.0,
			"0.019": 0.0,
			"0.02": 0.0,
			"0.021": 0.0,
			"0.022": 0.0,
			"0.023": 0.0,
			"0.024": 0.0,
			"0.025": 0.0
		}
	}
}
