{
	 "smiles": "NC1=C(Cl)C=C(Br)C=C1Br", 
	 "Tm": 373.15, 
	 "num_atms": 14, 
	 "gaussian": { 
		 "optdone": 1, 
		 "sigma_profile": "yes", 
		 "theory": "DFT", 
		 "functional": "B3LYP", 
		 "basiset": "6-31G**", 
		 "properties": { 
			 "R2extent": 4053.1363, 
			 "electric_dipole_moment_norm": 2.00626786347, 
			 "electric_quadrupole_moment_norm": 6.87363205591, 
			 "total_energy": -5888.80454342, 
			 "HOMO_LUMO_gap": 0.18786, 
			 "cosmo_polarized_energy": -5.92, 
			 "cosmo_cavitation_energy": 24.41, 
			 "cosmo_dispersion_energy": -19.35, 
			 "cosmo_repulsion_energy": 1.57, 
			 "cosmo_total_nonelectrostatic_energy": 6.62, 
			 "SMD_solvation_energy": 1.56 
		},
		"coords": [
			{
				"x": -2.3927260726,
				"y": -0.8512684328,
				"z": -0.6196932842,
				"element": "N" 
			},
			{
				"x": -1.183044541,
				"y": -0.3763374587,
				"z": -0.1776879086,
				"element": "C" 
			},
			{
				"x": -1.0012486567,
				"y": 0.0952877548,
				"z": 1.1418741131,
				"element": "C" 
			},
			{
				"x": -2.3938939794,
				"y": 0.1358884593,
				"z": 2.2176010529,
				"element": "Cl" 
			},
			{
				"x": 0.2261041441,
				"y": 0.5313827137,
				"z": 1.6262324548,
				"element": "C" 
			},
			{
				"x": 1.3327027668,
				"y": 0.5100933434,
				"z": 0.7815565248,
				"element": "C" 
			},
			{
				"x": 3.0269418884,
				"y": 1.1023682792,
				"z": 1.4278328489,
				"element": "Br" 
			},
			{
				"x": 1.2125243901,
				"y": 0.0625762097,
				"z": -0.5311892713,
				"element": "C" 
			},
			{
				"x": -0.027644916,
				"y": -0.3666704736,
				"z": -0.9889014139,
				"element": "C" 
			},
			{
				"x": -0.1697793568,
				"y": -0.9665456622,
				"z": -2.8010653198,
				"element": "Br" 
			},
			{
				"x": -2.5110550874,
				"y": -0.9269167653,
				"z": -1.6189658563,
				"element": "H" 
			},
			{
				"x": -3.2099637849,
				"y": -0.578048389,
				"z": -0.0955222073,
				"element": "H" 
			},
			{
				"x": 0.3097353698,
				"y": 0.882325192,
				"z": 2.6469259609,
				"element": "H" 
			},
			{
				"x": 2.0687478357,
				"y": 0.0491652295,
				"z": -1.1929976941,
				"element": "H" 
			}
		],
		 "valence_orbital": [ 
			{
				"type": "occ",
				"energy": -0.30702,
				"method": "rhf"
			},
			{
				"type": "occ",
				"energy": -0.29282,
				"method": "rhf"
			},
			{
				"type": "occ",
				"energy": -0.28928,
				"method": "rhf"
			},
			{
				"type": "occ",
				"energy": -0.2576,
				"method": "rhf"
			},
			{
				"type": "occ",
				"energy": -0.2189,
				"method": "rhf"
			},
			{
				"type": "unocc",
				"energy": -0.03104,
				"method": "rhf"
			},
			{
				"type": "unocc",
				"energy": -0.03078,
				"method": "rhf"
			},
			{
				"type": "unocc",
				"energy": -0.01308,
				"method": "rhf"
			},
			{
				"type": "unocc",
				"energy": 0.02058,
				"method": "rhf"
			},
			{
				"type": "unocc",
				"energy": 0.03642,
				"method": "rhf"
			}
		],
		"cosmo_sigma_profile": { 
			"-0.025": 0.0,
			"-0.024": 0.0,
			"-0.023": 0.0,
			"-0.022": 0.0,
			"-0.021": 0.0,
			"-0.02": 0.0,
			"-0.019": 0.0,
			"-0.018": 0.0,
			"-0.017": 0.0,
			"-0.016": 0.0,
			"-0.015": 0.0,
			"-0.014": 0.0,
			"-0.013": 0.49493738683,
			"-0.012": 1.79637937477,
			"-0.011": 2.04594357449,
			"-0.01": 1.90493745075,
			"-0.009": 2.26412042844,
			"-0.008": 3.85969372167,
			"-0.007": 4.89264914081,
			"-0.006": 4.73423289293,
			"-0.005": 6.65006520213,
			"-0.004": 8.08983489979,
			"-0.003": 10.1736866003,
			"-0.002": 11.4300375304,
			"-0.001": 13.4171916905,
			"0.0": 18.4036865597,
			"0.001": 28.4949175005,
			"0.002": 31.1719771458,
			"0.003": 22.001833012,
			"0.004": 22.8580278633,
			"0.005": 6.52892063359,
			"0.006": 1.07552516507,
			"0.007": 0.744305711282,
			"0.008": 0.455066504878,
			"0.009": 0.350263832152,
			"0.01": 0.920935372503,
			"0.011": 0.157101537553,
			"0.012": 0.0,
			"0.013": 0.0,
			"0.014": 0.0,
			"0.015": 0.0,
			"0.016": 0.0,
			"0.017": 0.0,
			"0.018": 0.0,
			"0.019": 0.0,
			"0.02": 0.0,
			"0.021": 0.0,
			"0.022": 0.0,
			"0.023": 0.0,
			"0.024": 0.0,
			"0.025": 0.0
		}
	}
}
