{
	 "smiles": "O=C(CCC1=CC=CC=C1)CCC1=CC=CC=C1", 
	 "Tm": 286.65, 
	 "num_atms": 36, 
	 "gaussian": { 
		 "optdone": 1, 
		 "sigma_profile": "yes", 
		 "theory": "DFT", 
		 "functional": "B3LYP", 
		 "basiset": "6-31G**", 
		 "properties": { 
			 "R2extent": 4815.663, 
			 "electric_dipole_moment_norm": 2.43669547749, 
			 "electric_quadrupole_moment_norm": 12.5006645803, 
			 "total_energy": -733.893037176, 
			 "HOMO_LUMO_gap": 0.21531, 
			 "cosmo_polarized_energy": -11.68, 
			 "cosmo_cavitation_energy": 39.52, 
			 "cosmo_dispersion_energy": -25.36, 
			 "cosmo_repulsion_energy": 1.95, 
			 "cosmo_total_nonelectrostatic_energy": 16.1, 
			 "SMD_solvation_energy": 6.09 
		},
		"coords": [
			{
				"x": -2.1019400705,
				"y": 1.2097012914,
				"z": 0.6614748295,
				"element": "O" 
			},
			{
				"x": -1.2563838932,
				"y": 1.752387728,
				"z": 1.3487619797,
				"element": "C" 
			},
			{
				"x": -0.9976774957,
				"y": 1.3178612583,
				"z": 2.7866005527,
				"element": "C" 
			},
			{
				"x": 0.2822221956,
				"y": 0.451646026,
				"z": 2.9541594336,
				"element": "C" 
			},
			{
				"x": 0.1906524308,
				"y": -0.9215262867,
				"z": 2.3219937608,
				"element": "C" 
			},
			{
				"x": -0.4175635338,
				"y": -1.9798328459,
				"z": 3.0116368299,
				"element": "C" 
			},
			{
				"x": -0.5203588743,
				"y": -3.2456500339,
				"z": 2.4352242059,
				"element": "C" 
			},
			{
				"x": -0.0123965305,
				"y": -3.4743041884,
				"z": 1.1544859485,
				"element": "C" 
			},
			{
				"x": 0.5969256817,
				"y": -2.4294116472,
				"z": 0.4589889904,
				"element": "C" 
			},
			{
				"x": 0.6981287685,
				"y": -1.1639601711,
				"z": 1.0395646233,
				"element": "C" 
			},
			{
				"x": -0.4356690755,
				"y": 2.9335413651,
				"z": 0.8334504647,
				"element": "C" 
			},
			{
				"x": -0.4938349028,
				"y": 3.1318721041,
				"z": -0.691397734,
				"element": "C" 
			},
			{
				"x": 0.3403164614,
				"y": 2.1341344672,
				"z": -1.4710375314,
				"element": "C" 
			},
			{
				"x": -0.2305656695,
				"y": 0.9712822536,
				"z": -2.0067175905,
				"element": "C" 
			},
			{
				"x": 0.5487421985,
				"y": 0.0557587348,
				"z": -2.7170089301,
				"element": "C" 
			},
			{
				"x": 1.9143793512,
				"y": 0.2836232245,
				"z": -2.8982001092,
				"element": "C" 
			},
			{
				"x": 2.4960725089,
				"y": 1.4363996042,
				"z": -2.3658560861,
				"element": "C" 
			},
			{
				"x": 1.7129347787,
				"y": 2.352445437,
				"z": -1.6619354686,
				"element": "C" 
			},
			{
				"x": -0.8933456208,
				"y": 2.2117387799,
				"z": 3.4155113152,
				"element": "H" 
			},
			{
				"x": -1.8708783609,
				"y": 0.7538434485,
				"z": 3.1256949297,
				"element": "H" 
			},
			{
				"x": 1.1448640876,
				"y": 0.9913921667,
				"z": 2.5464991874,
				"element": "H" 
			},
			{
				"x": 0.4658424481,
				"y": 0.3462634639,
				"z": 4.029561796,
				"element": "H" 
			},
			{
				"x": -0.810512398,
				"y": -1.810632106,
				"z": 4.0119770367,
				"element": "H" 
			},
			{
				"x": -0.992446968,
				"y": -4.0539221829,
				"z": 2.9869447196,
				"element": "H" 
			},
			{
				"x": -0.0894240788,
				"y": -4.4599989058,
				"z": 0.7043797046,
				"element": "H" 
			},
			{
				"x": 0.9952021636,
				"y": -2.5930282143,
				"z": -0.5381667298,
				"element": "H" 
			},
			{
				"x": 1.1752821405,
				"y": -0.3597498977,
				"z": 0.4859969377,
				"element": "H" 
			},
			{
				"x": -0.8381576259,
				"y": 3.823113064,
				"z": 1.3420887376,
				"element": "H" 
			},
			{
				"x": 0.6010646967,
				"y": 2.8447748802,
				"z": 1.1814049625,
				"element": "H" 
			},
			{
				"x": -1.5396698929,
				"y": 3.0671021224,
				"z": -1.0050126577,
				"element": "H" 
			},
			{
				"x": -0.147580768,
				"y": 4.1465396696,
				"z": -0.918918797,
				"element": "H" 
			},
			{
				"x": -1.2876716205,
				"y": 0.7825038679,
				"z": -1.8491366327,
				"element": "H" 
			},
			{
				"x": 0.0860379019,
				"y": -0.8364386248,
				"z": -3.1300074986,
				"element": "H" 
			},
			{
				"x": 2.5197203058,
				"y": -0.4273748827,
				"z": -3.4534591633,
				"element": "H" 
			},
			{
				"x": 3.5566386858,
				"y": 1.6268702228,
				"z": -2.5061361516,
				"element": "H" 
			},
			{
				"x": 2.1710505743,
				"y": 3.2552348071,
				"z": -1.2628098652,
				"element": "H" 
			}
		],
		 "valence_orbital": [ 
			{
				"type": "occ",
				"energy": -0.24715,
				"method": "rhf"
			},
			{
				"type": "occ",
				"energy": -0.24606,
				"method": "rhf"
			},
			{
				"type": "occ",
				"energy": -0.24047,
				"method": "rhf"
			},
			{
				"type": "occ",
				"energy": -0.2388,
				"method": "rhf"
			},
			{
				"type": "occ",
				"energy": -0.23141,
				"method": "rhf"
			},
			{
				"type": "unocc",
				"energy": -0.0161,
				"method": "rhf"
			},
			{
				"type": "unocc",
				"energy": -5e-05,
				"method": "rhf"
			},
			{
				"type": "unocc",
				"energy": 0.0029,
				"method": "rhf"
			},
			{
				"type": "unocc",
				"energy": 0.00546,
				"method": "rhf"
			},
			{
				"type": "unocc",
				"energy": 0.00941,
				"method": "rhf"
			}
		],
		"cosmo_sigma_profile": { 
			"-0.025": 0.0,
			"-0.024": 0.0,
			"-0.023": 0.0,
			"-0.022": 0.0,
			"-0.021": 0.0,
			"-0.02": 0.0,
			"-0.019": 0.0,
			"-0.018": 0.0,
			"-0.017": 0.0,
			"-0.016": 0.0,
			"-0.015": 0.0,
			"-0.014": 0.0,
			"-0.013": 0.0,
			"-0.012": 0.0,
			"-0.011": 0.0,
			"-0.01": 0.0,
			"-0.009": 0.0,
			"-0.008": 0.0,
			"-0.007": 0.347793302912,
			"-0.006": 7.84346484568,
			"-0.005": 27.0114055999,
			"-0.004": 35.1276238429,
			"-0.003": 38.0694924128,
			"-0.002": 31.2307982839,
			"-0.001": 26.572966907,
			"0.0": 20.5657117713,
			"0.001": 20.6309708148,
			"0.002": 21.1729953003,
			"0.003": 16.225040314,
			"0.004": 17.5221290896,
			"0.005": 14.0644837005,
			"0.006": 16.0158028642,
			"0.007": 7.06097502021,
			"0.008": 2.02975806303,
			"0.009": 2.38194835486,
			"0.01": 1.80671211138,
			"0.011": 2.17912757079,
			"0.012": 2.70722328677,
			"0.013": 1.31955341314,
			"0.014": 0.143694773844,
			"0.015": 0.0,
			"0.016": 0.0,
			"0.017": 0.0,
			"0.018": 0.0,
			"0.019": 0.0,
			"0.02": 0.0,
			"0.021": 0.0,
			"0.022": 0.0,
			"0.023": 0.0,
			"0.024": 0.0,
			"0.025": 0.0
		}
	}
}
