{
	 "smiles": "ClS(=O)(=O)C1=CC=C(C=C1)S(=O)(=O)NC1CC1", 
	 "Tm": 400.15, 
	 "num_atms": 27, 
	 "gaussian": { 
		 "optdone": 1, 
		 "sigma_profile": "yes", 
		 "theory": "DFT", 
		 "functional": "B3LYP", 
		 "basiset": "6-31G**", 
		 "properties": { 
			 "R2extent": 7303.5086, 
			 "electric_dipole_moment_norm": 4.89276221576, 
			 "electric_quadrupole_moment_norm": 24.038624897, 
			 "total_energy": -1961.02218432, 
			 "HOMO_LUMO_gap": 0.17806, 
			 "cosmo_polarized_energy": -16.81, 
			 "cosmo_cavitation_energy": 36.37, 
			 "cosmo_dispersion_energy": -26.2, 
			 "cosmo_repulsion_energy": 1.97, 
			 "cosmo_total_nonelectrostatic_energy": 12.14, 
			 "SMD_solvation_energy": 3.32 
		},
		"coords": [
			{
				"x": -1.683669209,
				"y": -0.9492403857,
				"z": -4.806559514,
				"element": "Cl" 
			},
			{
				"x": -1.8566260443,
				"y": 1.0224653574,
				"z": -4.0145311295,
				"element": "S" 
			},
			{
				"x": -3.2791432514,
				"y": 1.3356836772,
				"z": -4.0032402006,
				"element": "O" 
			},
			{
				"x": -0.8789430061,
				"y": 1.836143406,
				"z": -4.7243366925,
				"element": "O" 
			},
			{
				"x": -1.296784332,
				"y": 0.7597298029,
				"z": -2.3324303002,
				"element": "C" 
			},
			{
				"x": -2.2401802248,
				"y": 0.4231073273,
				"z": -1.3591429548,
				"element": "C" 
			},
			{
				"x": -1.8032622658,
				"y": 0.2307608608,
				"z": -0.0512535148,
				"element": "C" 
			},
			{
				"x": -0.4446855888,
				"y": 0.3755051904,
				"z": 0.2413408356,
				"element": "C" 
			},
			{
				"x": 0.4876560527,
				"y": 0.7301967302,
				"z": -0.7337770826,
				"element": "C" 
			},
			{
				"x": 0.0579469045,
				"y": 0.9241188074,
				"z": -2.046789543,
				"element": "C" 
			},
			{
				"x": 0.1105655141,
				"y": 0.136465603,
				"z": 1.9396732857,
				"element": "S" 
			},
			{
				"x": 1.4701983757,
				"y": 0.6772440921,
				"z": 2.021760337,
				"element": "O" 
			},
			{
				"x": -0.9599009636,
				"y": 0.5869050953,
				"z": 2.8329616443,
				"element": "O" 
			},
			{
				"x": 0.1219470985,
				"y": -1.5498436481,
				"z": 2.0937350347,
				"element": "N" 
			},
			{
				"x": 1.3522495337,
				"y": -2.2523135907,
				"z": 1.797040956,
				"element": "C" 
			},
			{
				"x": 1.5574188121,
				"y": -2.753232936,
				"z": 0.3880043646,
				"element": "C" 
			},
			{
				"x": 1.2208231975,
				"y": -3.722090665,
				"z": 1.4913047637,
				"element": "C" 
			},
			{
				"x": -3.287923784,
				"y": 0.3292814533,
				"z": -1.6210456857,
				"element": "H" 
			},
			{
				"x": -2.5061851906,
				"y": -0.0121841306,
				"z": 0.7377475458,
				"element": "H" 
			},
			{
				"x": 1.5274138436,
				"y": 0.8655230852,
				"z": -0.4587094099,
				"element": "H" 
			},
			{
				"x": 0.7526345842,
				"y": 1.2092407443,
				"z": -2.8286617646,
				"element": "H" 
			},
			{
				"x": -0.2793042109,
				"y": -1.7627185579,
				"z": 3.0056270273,
				"element": "H" 
			},
			{
				"x": 2.2340807643,
				"y": -1.92478235,
				"z": 2.3431140152,
				"element": "H" 
			},
			{
				"x": 0.7802072359,
				"y": -2.5363364999,
				"z": -0.3365432163,
				"element": "H" 
			},
			{
				"x": 2.5684808101,
				"y": -2.739255435,
				"z": -0.0057121103,
				"element": "H" 
			},
			{
				"x": 0.2206799415,
				"y": -4.1431476865,
				"z": 1.497914422,
				"element": "H" 
			},
			{
				"x": 1.9961054027,
				"y": -4.3815253475,
				"z": 1.8676088869,
				"element": "H" 
			}
		],
		 "valence_orbital": [ 
			{
				"type": "occ",
				"energy": -0.32266,
				"method": "rhf"
			},
			{
				"type": "occ",
				"energy": -0.30957,
				"method": "rhf"
			},
			{
				"type": "occ",
				"energy": -0.3083,
				"method": "rhf"
			},
			{
				"type": "occ",
				"energy": -0.30365,
				"method": "rhf"
			},
			{
				"type": "occ",
				"energy": -0.28205,
				"method": "rhf"
			},
			{
				"type": "unocc",
				"energy": -0.10399,
				"method": "rhf"
			},
			{
				"type": "unocc",
				"energy": -0.06627,
				"method": "rhf"
			},
			{
				"type": "unocc",
				"energy": -0.05345,
				"method": "rhf"
			},
			{
				"type": "unocc",
				"energy": 0.02902,
				"method": "rhf"
			},
			{
				"type": "unocc",
				"energy": 0.04644,
				"method": "rhf"
			}
		],
		"cosmo_sigma_profile": { 
			"-0.025": 0.0,
			"-0.024": 0.0,
			"-0.023": 0.0,
			"-0.022": 0.0,
			"-0.021": 0.0,
			"-0.02": 0.0,
			"-0.019": 0.0,
			"-0.018": 0.0,
			"-0.017": 0.0,
			"-0.016": 0.0,
			"-0.015": 0.259979614089,
			"-0.014": 1.25333136838,
			"-0.013": 0.846928836234,
			"-0.012": 0.473370750643,
			"-0.011": 1.32023593373,
			"-0.01": 1.73870820968,
			"-0.009": 6.86029893505,
			"-0.008": 7.59776616761,
			"-0.007": 7.58096837904,
			"-0.006": 10.9740082719,
			"-0.005": 16.708054127,
			"-0.004": 19.1510843663,
			"-0.003": 19.7359465096,
			"-0.002": 26.4072977671,
			"-0.001": 31.4100092351,
			"0.0": 21.1787905821,
			"0.001": 14.3741318627,
			"0.002": 16.453901264,
			"0.003": 19.5435163713,
			"0.004": 11.2360347229,
			"0.005": 6.49776701985,
			"0.006": 6.56342918237,
			"0.007": 11.1048623891,
			"0.008": 12.3563048405,
			"0.009": 6.40715457406,
			"0.01": 8.54311944232,
			"0.011": 6.41964878048,
			"0.012": 0.300966096765,
			"0.013": 0.0,
			"0.014": 0.0,
			"0.015": 0.0,
			"0.016": 0.0,
			"0.017": 0.0,
			"0.018": 0.0,
			"0.019": 0.0,
			"0.02": 0.0,
			"0.021": 0.0,
			"0.022": 0.0,
			"0.023": 0.0,
			"0.024": 0.0,
			"0.025": 0.0
		}
	}
}
