{
	 "smiles": "BrC1=CC=C(C=C1)C(=O)NC1=NC=CC=C1", 
	 "Tm": 408.15, 
	 "num_atms": 25, 
	 "gaussian": { 
		 "optdone": 1, 
		 "sigma_profile": "yes", 
		 "theory": "DFT", 
		 "functional": "B3LYP", 
		 "basiset": "6-31G**", 
		 "properties": { 
			 "R2extent": 10181.6953, 
			 "electric_dipole_moment_norm": 4.33574664389, 
			 "electric_quadrupole_moment_norm": 10.3272836777, 
			 "total_energy": -3218.84218251, 
			 "HOMO_LUMO_gap": 0.18258, 
			 "cosmo_polarized_energy": -18.86, 
			 "cosmo_cavitation_energy": 32.82, 
			 "cosmo_dispersion_energy": -24.41, 
			 "cosmo_repulsion_energy": 1.89, 
			 "cosmo_total_nonelectrostatic_energy": 10.3, 
			 "SMD_solvation_energy": 3.92 
		},
		"coords": [
			{
				"x": 4.3947868514,
				"y": -4.7938184276,
				"z": 1.7753612746,
				"element": "Br" 
			},
			{
				"x": 3.0598055999,
				"y": -3.621452498,
				"z": 1.0771727315,
				"element": "C" 
			},
			{
				"x": 3.401578878,
				"y": -2.7107769036,
				"z": 0.0760220171,
				"element": "C" 
			},
			{
				"x": 2.4221713874,
				"y": -1.8605376358,
				"z": -0.4281085057,
				"element": "C" 
			},
			{
				"x": 1.1119417552,
				"y": -1.8999303192,
				"z": 0.0675650487,
				"element": "C" 
			},
			{
				"x": 0.7889091997,
				"y": -2.833344491,
				"z": 1.0621182744,
				"element": "C" 
			},
			{
				"x": 1.7585184257,
				"y": -3.6973246683,
				"z": 1.5708403778,
				"element": "C" 
			},
			{
				"x": 0.117803638,
				"y": -0.9474378797,
				"z": -0.5417943287,
				"element": "C" 
			},
			{
				"x": 0.2937516701,
				"y": -0.457266997,
				"z": -1.6421119472,
				"element": "O" 
			},
			{
				"x": -0.977451432,
				"y": -0.6679708263,
				"z": 0.2737924333,
				"element": "N" 
			},
			{
				"x": -2.0936394256,
				"y": 0.126601047,
				"z": -0.0506374879,
				"element": "C" 
			},
			{
				"x": -2.5287077983,
				"y": 0.1120733004,
				"z": -1.3109832166,
				"element": "N" 
			},
			{
				"x": -3.6045030594,
				"y": 0.8519578542,
				"z": -1.6005081558,
				"element": "C" 
			},
			{
				"x": -4.3078002937,
				"y": 1.608302247,
				"z": -0.6639863423,
				"element": "C" 
			},
			{
				"x": -3.8521975405,
				"y": 1.598615124,
				"z": 0.6558502939,
				"element": "C" 
			},
			{
				"x": -2.7221591777,
				"y": 0.8552009285,
				"z": 0.9743993444,
				"element": "C" 
			},
			{
				"x": 4.4167839873,
				"y": -2.6723472737,
				"z": -0.301989107,
				"element": "H" 
			},
			{
				"x": 2.6533053227,
				"y": -1.1528181649,
				"z": -1.2170335313,
				"element": "H" 
			},
			{
				"x": -0.231553903,
				"y": -2.924902751,
				"z": 1.4228884897,
				"element": "H" 
			},
			{
				"x": 1.5051746896,
				"y": -4.4259138117,
				"z": 2.3322992701,
				"element": "H" 
			},
			{
				"x": -0.8575572517,
				"y": -0.8659305347,
				"z": 1.256166329,
				"element": "H" 
			},
			{
				"x": -3.9264670507,
				"y": 0.8256684633,
				"z": -2.6400787265,
				"element": "H" 
			},
			{
				"x": -5.1811365575,
				"y": 2.1803749831,
				"z": -0.9585009605,
				"element": "H" 
			},
			{
				"x": -4.3625774252,
				"y": 2.1707774051,
				"z": 1.4251623457,
				"element": "H" 
			},
			{
				"x": -2.3257804895,
				"y": 0.8435018299,
				"z": 1.9858940792,
				"element": "H" 
			}
		],
		 "valence_orbital": [ 
			{
				"type": "occ",
				"energy": -0.276,
				"method": "rhf"
			},
			{
				"type": "occ",
				"energy": -0.27336,
				"method": "rhf"
			},
			{
				"type": "occ",
				"energy": -0.25157,
				"method": "rhf"
			},
			{
				"type": "occ",
				"energy": -0.24427,
				"method": "rhf"
			},
			{
				"type": "occ",
				"energy": -0.23631,
				"method": "rhf"
			},
			{
				"type": "unocc",
				"energy": -0.05373,
				"method": "rhf"
			},
			{
				"type": "unocc",
				"energy": -0.02554,
				"method": "rhf"
			},
			{
				"type": "unocc",
				"energy": -0.02432,
				"method": "rhf"
			},
			{
				"type": "unocc",
				"energy": -0.00845,
				"method": "rhf"
			},
			{
				"type": "unocc",
				"energy": 0.00074,
				"method": "rhf"
			}
		],
		"cosmo_sigma_profile": { 
			"-0.025": 0.0,
			"-0.024": 0.0,
			"-0.023": 0.0,
			"-0.022": 0.0,
			"-0.021": 0.0,
			"-0.02": 0.0,
			"-0.019": 0.0,
			"-0.018": 0.0,
			"-0.017": 0.0,
			"-0.016": 0.0995843267218,
			"-0.015": 0.945575449986,
			"-0.014": 1.36242583886,
			"-0.013": 1.78699138412,
			"-0.012": 1.55279279403,
			"-0.011": 1.27587154534,
			"-0.01": 2.01106374978,
			"-0.009": 1.75749708127,
			"-0.008": 4.38423798916,
			"-0.007": 11.986545291,
			"-0.006": 15.8837796265,
			"-0.005": 17.2137390052,
			"-0.004": 13.7477342173,
			"-0.003": 14.0572370182,
			"-0.002": 14.5884597061,
			"-0.001": 16.4109934725,
			"0.0": 16.8282166721,
			"0.001": 25.8482390735,
			"0.002": 33.6429014896,
			"0.003": 23.533313631,
			"0.004": 15.8178823545,
			"0.005": 5.12489287048,
			"0.006": 2.09375244597,
			"0.007": 2.82179477586,
			"0.008": 1.97300099776,
			"0.009": 2.0291360804,
			"0.01": 2.05038832224,
			"0.011": 2.56647450432,
			"0.012": 3.33495601971,
			"0.013": 4.2869428381,
			"0.014": 1.89046396411,
			"0.015": 1.62007841252,
			"0.016": 1.03771687406,
			"0.017": 1.22575631813,
			"0.018": 0.801873758237,
			"0.019": 0.128885275258,
			"0.02": 0.0,
			"0.021": 0.0,
			"0.022": 0.0,
			"0.023": 0.0,
			"0.024": 0.0,
			"0.025": 0.0
		}
	}
}
