{
	 "smiles": "C1CC2CCC1C2", 
	 "Tm": 360.65, 
	 "num_atms": 19, 
	 "gaussian": { 
		 "optdone": 1, 
		 "sigma_profile": "yes", 
		 "theory": "DFT", 
		 "functional": "B3LYP", 
		 "basiset": "6-31G**", 
		 "properties": { 
			 "R2extent": 720.2722, 
			 "electric_dipole_moment_norm": 0.0565061058648, 
			 "electric_quadrupole_moment_norm": 0.302522015728, 
			 "total_energy": -273.980547595, 
			 "HOMO_LUMO_gap": 0.36362, 
			 "cosmo_polarized_energy": -0.52, 
			 "cosmo_cavitation_energy": 18.79, 
			 "cosmo_dispersion_energy": -14.82, 
			 "cosmo_repulsion_energy": 1.24, 
			 "cosmo_total_nonelectrostatic_energy": 5.2, 
			 "SMD_solvation_energy": 2.2 
		},
		"coords": [
			{
				"x": -0.9509749597,
				"y": -1.3282124209,
				"z": -0.4580876022,
				"element": "C" 
			},
			{
				"x": -1.2556602733,
				"y": -0.697458167,
				"z": 0.9413225215,
				"element": "C" 
			},
			{
				"x": -1.0486737625,
				"y": 0.8164480282,
				"z": 0.6965262075,
				"element": "C" 
			},
			{
				"x": 0.4648142115,
				"y": 1.0822444835,
				"z": 0.5140077742,
				"element": "C" 
			},
			{
				"x": 0.7697983557,
				"y": 0.4511737746,
				"z": -0.885216978,
				"element": "C" 
			},
			{
				"x": -0.6069968459,
				"y": -0.0972774451,
				"z": -1.3304814963,
				"element": "C" 
			},
			{
				"x": -1.5650315164,
				"y": 0.9679422562,
				"z": -0.7518399998,
				"element": "C" 
			},
			{
				"x": -1.827993686,
				"y": -1.8521778906,
				"z": -0.853363386,
				"element": "H" 
			},
			{
				"x": -0.1291891777,
				"y": -2.0513795111,
				"z": -0.4269511222,
				"element": "H" 
			},
			{
				"x": -2.2859691046,
				"y": -0.9040797427,
				"z": 1.2506988255,
				"element": "H" 
			},
			{
				"x": -0.5986600686,
				"y": -1.0789450409,
				"z": 1.7300531437,
				"element": "H" 
			},
			{
				"x": -1.521915942,
				"y": 1.4544932107,
				"z": 1.4482800854,
				"element": "H" 
			},
			{
				"x": 1.0594506915,
				"y": 0.6365565307,
				"z": 1.31840445,
				"element": "H" 
			},
			{
				"x": 0.6737761401,
				"y": 2.1575476193,
				"z": 0.5151616105,
				"element": "H" 
			},
			{
				"x": 1.1326153138,
				"y": 1.2086803089,
				"z": -1.5884162663,
				"element": "H" 
			},
			{
				"x": 1.5292687009,
				"y": -0.336402168,
				"z": -0.8382362525,
				"element": "H" 
			},
			{
				"x": -0.6821303878,
				"y": -0.2827672281,
				"z": -2.4057223755,
				"element": "H" 
			},
			{
				"x": -2.6232715866,
				"y": 0.7066301352,
				"z": -0.8646442666,
				"element": "H" 
			},
			{
				"x": -1.4029561024,
				"y": 1.9687832671,
				"z": -1.1676948729,
				"element": "H" 
			}
		],
		 "valence_orbital": [ 
			{
				"type": "occ",
				"energy": -0.32454,
				"method": "rhf"
			},
			{
				"type": "occ",
				"energy": -0.32448,
				"method": "rhf"
			},
			{
				"type": "occ",
				"energy": -0.30882,
				"method": "rhf"
			},
			{
				"type": "occ",
				"energy": -0.29702,
				"method": "rhf"
			},
			{
				"type": "occ",
				"energy": -0.28435,
				"method": "rhf"
			},
			{
				"type": "unocc",
				"energy": 0.07927,
				"method": "rhf"
			},
			{
				"type": "unocc",
				"energy": 0.10831,
				"method": "rhf"
			},
			{
				"type": "unocc",
				"energy": 0.13419,
				"method": "rhf"
			},
			{
				"type": "unocc",
				"energy": 0.14701,
				"method": "rhf"
			},
			{
				"type": "unocc",
				"energy": 0.15318,
				"method": "rhf"
			}
		],
		"cosmo_sigma_profile": { 
			"-0.025": 0.0,
			"-0.024": 0.0,
			"-0.023": 0.0,
			"-0.022": 0.0,
			"-0.021": 0.0,
			"-0.02": 0.0,
			"-0.019": 0.0,
			"-0.018": 0.0,
			"-0.017": 0.0,
			"-0.016": 0.0,
			"-0.015": 0.0,
			"-0.014": 0.0,
			"-0.013": 0.0,
			"-0.012": 0.0,
			"-0.011": 0.0,
			"-0.01": 0.0,
			"-0.009": 0.0,
			"-0.008": 0.0,
			"-0.007": 0.0,
			"-0.006": 0.0,
			"-0.005": 0.0,
			"-0.004": 0.0,
			"-0.003": 2.29164839778,
			"-0.002": 22.3187705494,
			"-0.001": 31.5572184742,
			"0.0": 32.2293868299,
			"0.001": 30.0229106343,
			"0.002": 23.1949452161,
			"0.003": 2.6628370184,
			"0.004": 0.0,
			"0.005": 0.0,
			"0.006": 0.0,
			"0.007": 0.0,
			"0.008": 0.0,
			"0.009": 0.0,
			"0.01": 0.0,
			"0.011": 0.0,
			"0.012": 0.0,
			"0.013": 0.0,
			"0.014": 0.0,
			"0.015": 0.0,
			"0.016": 0.0,
			"0.017": 0.0,
			"0.018": 0.0,
			"0.019": 0.0,
			"0.02": 0.0,
			"0.021": 0.0,
			"0.022": 0.0,
			"0.023": 0.0,
			"0.024": 0.0,
			"0.025": 0.0
		}
	}
}
