{
	 "smiles": "COC1=CC(=CC(OC)=C1OC)C1=NN=C(CCl)O1", 
	 "Tm": 395.15, 
	 "num_atms": 32, 
	 "gaussian": { 
		 "optdone": 1, 
		 "sigma_profile": "yes", 
		 "theory": "DFT", 
		 "functional": "B3LYP", 
		 "basiset": "6-31G**", 
		 "properties": { 
			 "R2extent": 9987.2343, 
			 "electric_dipole_moment_norm": 4.78795987452, 
			 "electric_quadrupole_moment_norm": 23.308225113, 
			 "total_energy": -1335.62528164, 
			 "HOMO_LUMO_gap": 0.17426, 
			 "cosmo_polarized_energy": -14.23, 
			 "cosmo_cavitation_energy": 39.02, 
			 "cosmo_dispersion_energy": -27.44, 
			 "cosmo_repulsion_energy": 2.16, 
			 "cosmo_total_nonelectrostatic_energy": 13.75, 
			 "SMD_solvation_energy": 7.09 
		},
		"coords": [
			{
				"x": -3.5327845554,
				"y": 1.4973269807,
				"z": -1.4134220735,
				"element": "C" 
			},
			{
				"x": -3.0465388489,
				"y": 2.1686134132,
				"z": -0.2436836119,
				"element": "O" 
			},
			{
				"x": -1.8516030731,
				"y": 1.6998803807,
				"z": 0.2464322304,
				"element": "C" 
			},
			{
				"x": -1.8361600672,
				"y": 1.0517454071,
				"z": 1.4771570335,
				"element": "C" 
			},
			{
				"x": -0.6165747455,
				"y": 0.6247735363,
				"z": 2.0240546358,
				"element": "C" 
			},
			{
				"x": 0.5801462325,
				"y": 0.830016198,
				"z": 1.3249735487,
				"element": "C" 
			},
			{
				"x": 0.5672088932,
				"y": 1.4865416565,
				"z": 0.0941180129,
				"element": "C" 
			},
			{
				"x": 1.7658191288,
				"y": 1.7462662871,
				"z": -0.5168337382,
				"element": "O" 
			},
			{
				"x": 1.978163781,
				"y": 1.1175651588,
				"z": -1.7865058404,
				"element": "C" 
			},
			{
				"x": -0.6499238274,
				"y": 1.9351998088,
				"z": -0.4514177768,
				"element": "C" 
			},
			{
				"x": -0.6557944263,
				"y": 2.5870309362,
				"z": -1.660644137,
				"element": "O" 
			},
			{
				"x": -0.8281368311,
				"y": 4.0105184472,
				"z": -1.5621706327,
				"element": "C" 
			},
			{
				"x": -0.621774669,
				"y": -0.0460618649,
				"z": 3.316972193,
				"element": "C" 
			},
			{
				"x": -1.6378954621,
				"y": -0.31801917,
				"z": 4.0881388701,
				"element": "N" 
			},
			{
				"x": -1.1262341263,
				"y": -0.9587801968,
				"z": 5.2090438756,
				"element": "N" 
			},
			{
				"x": 0.1564980368,
				"y": -1.0335204756,
				"z": 5.0349889139,
				"element": "C" 
			},
			{
				"x": 1.1561793978,
				"y": -1.6420351318,
				"z": 5.9378979727,
				"element": "C" 
			},
			{
				"x": 2.2358239824,
				"y": -0.39705027,
				"z": 6.7171906557,
				"element": "Cl" 
			},
			{
				"x": 0.5566983341,
				"y": -0.4797296451,
				"z": 3.8568430022,
				"element": "O" 
			},
			{
				"x": -4.4767501833,
				"y": 1.9816159415,
				"z": -1.6701421112,
				"element": "H" 
			},
			{
				"x": -2.83033118,
				"y": 1.5905129098,
				"z": -2.2470022094,
				"element": "H" 
			},
			{
				"x": -3.7163910042,
				"y": 0.436634884,
				"z": -1.2022129517,
				"element": "H" 
			},
			{
				"x": -2.7665787272,
				"y": 0.8912546453,
				"z": 2.0090358719,
				"element": "H" 
			},
			{
				"x": 1.5321559035,
				"y": 0.509080196,
				"z": 1.7310562661,
				"element": "H" 
			},
			{
				"x": 1.2406524664,
				"y": 1.4461575807,
				"z": -2.5232693859,
				"element": "H" 
			},
			{
				"x": 2.978338835,
				"y": 1.4164987416,
				"z": -2.1058821727,
				"element": "H" 
			},
			{
				"x": 1.942744298,
				"y": 0.0249978458,
				"z": -1.6889381453,
				"element": "H" 
			},
			{
				"x": -1.7809853039,
				"y": 4.2544308204,
				"z": -1.0827270669,
				"element": "H" 
			},
			{
				"x": -0.8218069902,
				"y": 4.3890455953,
				"z": -2.5859721643,
				"element": "H" 
			},
			{
				"x": -0.00119669,
				"y": 4.4595157766,
				"z": -1.0008846937,
				"element": "H" 
			},
			{
				"x": 0.6329565673,
				"y": -2.1656125748,
				"z": 6.7358700192,
				"element": "H" 
			},
			{
				"x": 1.8177748541,
				"y": -2.3247138184,
				"z": 5.4037356099,
				"element": "H" 
			}
		],
		 "valence_orbital": [ 
			{
				"type": "occ",
				"energy": -0.28338,
				"method": "rhf"
			},
			{
				"type": "occ",
				"energy": -0.28057,
				"method": "rhf"
			},
			{
				"type": "occ",
				"energy": -0.27191,
				"method": "rhf"
			},
			{
				"type": "occ",
				"energy": -0.24438,
				"method": "rhf"
			},
			{
				"type": "occ",
				"energy": -0.23373,
				"method": "rhf"
			},
			{
				"type": "unocc",
				"energy": -0.05947,
				"method": "rhf"
			},
			{
				"type": "unocc",
				"energy": -0.02285,
				"method": "rhf"
			},
			{
				"type": "unocc",
				"energy": -0.00792,
				"method": "rhf"
			},
			{
				"type": "unocc",
				"energy": 0.04139,
				"method": "rhf"
			},
			{
				"type": "unocc",
				"energy": 0.05573,
				"method": "rhf"
			}
		],
		"cosmo_sigma_profile": { 
			"-0.025": 0.0,
			"-0.024": 0.0,
			"-0.023": 0.0,
			"-0.022": 0.0,
			"-0.021": 0.0,
			"-0.02": 0.0,
			"-0.019": 0.0,
			"-0.018": 0.0,
			"-0.017": 0.0,
			"-0.016": 0.0,
			"-0.015": 0.0,
			"-0.014": 0.0,
			"-0.013": 0.0,
			"-0.012": 0.0,
			"-0.011": 0.0,
			"-0.01": 3.0882093595,
			"-0.009": 5.03509009825,
			"-0.008": 3.31585983274,
			"-0.007": 5.74725177561,
			"-0.006": 10.4876807119,
			"-0.005": 18.7840672929,
			"-0.004": 26.157231425,
			"-0.003": 33.8035984565,
			"-0.002": 32.3677611832,
			"-0.001": 23.909928877,
			"0.0": 23.3427634732,
			"0.001": 22.0653207584,
			"0.002": 23.9058572924,
			"0.003": 13.8426023622,
			"0.004": 14.0416068293,
			"0.005": 15.9277203027,
			"0.006": 6.35019727,
			"0.007": 5.54349449103,
			"0.008": 4.33777470188,
			"0.009": 4.69122574336,
			"0.01": 5.28402585147,
			"0.011": 5.20502308561,
			"0.012": 2.83403019532,
			"0.013": 2.13849759559,
			"0.014": 1.38505239684,
			"0.015": 0.0725795310465,
			"0.016": 0.0,
			"0.017": 0.0,
			"0.018": 0.0,
			"0.019": 0.0,
			"0.02": 0.0,
			"0.021": 0.0,
			"0.022": 0.0,
			"0.023": 0.0,
			"0.024": 0.0,
			"0.025": 0.0
		}
	}
}
