{
	 "smiles": "CC1=C(C=NO1)C(=O)NC1=CC(O)=C(C=C1)C(O)=O", 
	 "Tm": 488.15, 
	 "num_atms": 29, 
	 "gaussian": { 
		 "optdone": 1, 
		 "sigma_profile": "yes", 
		 "theory": "DFT", 
		 "functional": "B3LYP", 
		 "basiset": "6-31G**", 
		 "properties": { 
			 "R2extent": 8165.0348, 
			 "electric_dipole_moment_norm": 5.46236943002, 
			 "electric_quadrupole_moment_norm": 40.4450029418, 
			 "total_energy": -948.91002452, 
			 "HOMO_LUMO_gap": 0.17707, 
			 "cosmo_polarized_energy": -27.26, 
			 "cosmo_cavitation_energy": 34.8, 
			 "cosmo_dispersion_energy": -25.71, 
			 "cosmo_repulsion_energy": 1.94, 
			 "cosmo_total_nonelectrostatic_energy": 11.02, 
			 "SMD_solvation_energy": 7.85 
		},
		"coords": [
			{
				"x": 0.8633056943,
				"y": -1.0342414041,
				"z": 5.5141876145,
				"element": "C" 
			},
			{
				"x": 0.9369923582,
				"y": 0.2771806158,
				"z": 4.8165921122,
				"element": "C" 
			},
			{
				"x": 0.629865818,
				"y": 0.6900716032,
				"z": 3.5377627507,
				"element": "C" 
			},
			{
				"x": 0.9464651774,
				"y": 2.0829777567,
				"z": 3.5603639508,
				"element": "C" 
			},
			{
				"x": 1.3971439023,
				"y": 2.4783694748,
				"z": 4.7232362787,
				"element": "N" 
			},
			{
				"x": 1.3896070929,
				"y": 1.3232555103,
				"z": 5.522145077,
				"element": "O" 
			},
			{
				"x": 0.1032620834,
				"y": -0.1959163926,
				"z": 2.4816151363,
				"element": "C" 
			},
			{
				"x": -0.098793236,
				"y": -1.3907470086,
				"z": 2.6891731708,
				"element": "O" 
			},
			{
				"x": -0.1373111624,
				"y": 0.4194076654,
				"z": 1.2677196692,
				"element": "N" 
			},
			{
				"x": -0.6325580671,
				"y": -0.1432455917,
				"z": 0.0806645123,
				"element": "C" 
			},
			{
				"x": -0.973040704,
				"y": -1.4958192945,
				"z": -0.0380235984,
				"element": "C" 
			},
			{
				"x": -1.458787559,
				"y": -1.975795974,
				"z": -1.2540408072,
				"element": "C" 
			},
			{
				"x": -1.7947734353,
				"y": -3.3027437696,
				"z": -1.3763339866,
				"element": "O" 
			},
			{
				"x": -1.6207410051,
				"y": -1.1432175899,
				"z": -2.3762121935,
				"element": "C" 
			},
			{
				"x": -1.270298041,
				"y": 0.2067287854,
				"z": -2.22329352,
				"element": "C" 
			},
			{
				"x": -0.7859321221,
				"y": 0.7095267401,
				"z": -1.0281740111,
				"element": "C" 
			},
			{
				"x": -2.134125893,
				"y": -1.5625677325,
				"z": -3.7254384786,
				"element": "C" 
			},
			{
				"x": -2.4775823064,
				"y": -2.8542313579,
				"z": -3.8998575207,
				"element": "O" 
			},
			{
				"x": -2.2407857327,
				"y": -0.7716599927,
				"z": -4.638589804,
				"element": "O" 
			},
			{
				"x": 1.2039370619,
				"y": -0.9275044889,
				"z": 6.5456923047,
				"element": "H" 
			},
			{
				"x": 1.4783824272,
				"y": -1.7747498281,
				"z": 4.9958974923,
				"element": "H" 
			},
			{
				"x": -0.1615232729,
				"y": -1.4145410608,
				"z": 5.4995538234,
				"element": "H" 
			},
			{
				"x": 0.8653220617,
				"y": 2.8236168984,
				"z": 2.773109408,
				"element": "H" 
			},
			{
				"x": 0.0658086039,
				"y": 1.4064402635,
				"z": 1.2101132923,
				"element": "H" 
			},
			{
				"x": -0.8551042532,
				"y": -2.151929222,
				"z": 0.8148035231,
				"element": "H" 
			},
			{
				"x": -1.6394034385,
				"y": -3.768197463,
				"z": -0.5443070083,
				"element": "H" 
			},
			{
				"x": -1.3954992833,
				"y": 0.847812296,
				"z": -3.0888962514,
				"element": "H" 
			},
			{
				"x": -0.5243331775,
				"y": 1.7612114861,
				"z": -0.9460035392,
				"element": "H" 
			},
			{
				"x": -2.3354995914,
				"y": -3.3581909248,
				"z": -3.0792593972,
				"element": "H" 
			}
		],
		 "valence_orbital": [ 
			{
				"type": "occ",
				"energy": -0.28468,
				"method": "rhf"
			},
			{
				"type": "occ",
				"energy": -0.2796,
				"method": "rhf"
			},
			{
				"type": "occ",
				"energy": -0.26196,
				"method": "rhf"
			},
			{
				"type": "occ",
				"energy": -0.25961,
				"method": "rhf"
			},
			{
				"type": "occ",
				"energy": -0.23985,
				"method": "rhf"
			},
			{
				"type": "unocc",
				"energy": -0.06278,
				"method": "rhf"
			},
			{
				"type": "unocc",
				"energy": -0.03274,
				"method": "rhf"
			},
			{
				"type": "unocc",
				"energy": -0.01724,
				"method": "rhf"
			},
			{
				"type": "unocc",
				"energy": -0.01349,
				"method": "rhf"
			},
			{
				"type": "unocc",
				"energy": 0.03851,
				"method": "rhf"
			}
		],
		"cosmo_sigma_profile": { 
			"-0.025": 0.0,
			"-0.024": 0.0,
			"-0.023": 0.0,
			"-0.022": 0.0,
			"-0.021": 0.0,
			"-0.02": 0.199787015802,
			"-0.019": 1.05256862506,
			"-0.018": 1.30289135343,
			"-0.017": 2.28264505466,
			"-0.016": 2.69124053184,
			"-0.015": 1.80326641676,
			"-0.014": 2.45031987592,
			"-0.013": 1.94732929714,
			"-0.012": 3.71082035753,
			"-0.011": 2.42105420356,
			"-0.01": 2.35529905364,
			"-0.009": 5.00444227458,
			"-0.008": 3.5137325596,
			"-0.007": 4.58519546515,
			"-0.006": 11.9461819611,
			"-0.005": 13.1904063851,
			"-0.004": 14.8911718595,
			"-0.003": 18.3164112922,
			"-0.002": 21.2238882908,
			"-0.001": 18.9350253787,
			"0.0": 18.7767465703,
			"0.001": 17.2715105753,
			"0.002": 19.869227026,
			"0.003": 16.5570068384,
			"0.004": 9.24485957003,
			"0.005": 6.45656204379,
			"0.006": 7.17236653936,
			"0.007": 8.09019016584,
			"0.008": 6.22429638353,
			"0.009": 6.50031905357,
			"0.01": 6.53237220024,
			"0.011": 8.41964274487,
			"0.012": 8.26703614475,
			"0.013": 4.76485562391,
			"0.014": 1.42573761399,
			"0.015": 0.0,
			"0.016": 0.0,
			"0.017": 0.0,
			"0.018": 0.0,
			"0.019": 0.0,
			"0.02": 0.0,
			"0.021": 0.0,
			"0.022": 0.0,
			"0.023": 0.0,
			"0.024": 0.0,
			"0.025": 0.0
		}
	}
}
