{
	 "smiles": "O=S1(=O)CCN(CC#C)CC1", 
	 "Tm": 388.15, 
	 "num_atms": 22, 
	 "gaussian": { 
		 "optdone": 1, 
		 "sigma_profile": "yes", 
		 "theory": "DFT", 
		 "functional": "B3LYP", 
		 "basiset": "6-31G**", 
		 "properties": { 
			 "R2extent": 2493.9179, 
			 "electric_dipole_moment_norm": 4.88502062022, 
			 "electric_quadrupole_moment_norm": 13.9816390126, 
			 "total_energy": -876.612454552, 
			 "HOMO_LUMO_gap": 0.26681, 
			 "cosmo_polarized_energy": -17.33, 
			 "cosmo_cavitation_energy": 26.12, 
			 "cosmo_dispersion_energy": -19.26, 
			 "cosmo_repulsion_energy": 1.48, 
			 "cosmo_total_nonelectrostatic_energy": 8.33, 
			 "SMD_solvation_energy": 2.34 
		},
		"coords": [
			{
				"x": 2.3747297493,
				"y": 1.0721100271,
				"z": -0.9178960961,
				"element": "O" 
			},
			{
				"x": 1.2334740746,
				"y": 0.8146339909,
				"z": -1.8153195282,
				"element": "S" 
			},
			{
				"x": 1.101976886,
				"y": 1.5341828041,
				"z": -3.0909055559,
				"element": "O" 
			},
			{
				"x": 1.1650550113,
				"y": -0.9723703957,
				"z": -2.1208224723,
				"element": "C" 
			},
			{
				"x": 0.9586829634,
				"y": -1.739498417,
				"z": -0.8118759189,
				"element": "C" 
			},
			{
				"x": -0.3102275945,
				"y": -1.379255102,
				"z": -0.1717421221,
				"element": "N" 
			},
			{
				"x": -0.6387420628,
				"y": -2.3320925494,
				"z": 0.8990083702,
				"element": "C" 
			},
			{
				"x": -1.9935386155,
				"y": -2.1541504319,
				"z": 1.4269862624,
				"element": "C" 
			},
			{
				"x": -3.1022803729,
				"y": -2.0178471111,
				"z": 1.8844577278,
				"element": "C" 
			},
			{
				"x": -0.3217489859,
				"y": 0.0072107051,
				"z": 0.3109045175,
				"element": "C" 
			},
			{
				"x": -0.2880536785,
				"y": 1.0067030617,
				"z": -0.8474147474,
				"element": "C" 
			},
			{
				"x": 2.116510496,
				"y": -1.2281446598,
				"z": -2.594867496,
				"element": "H" 
			},
			{
				"x": 0.3457563194,
				"y": -1.1458032275,
				"z": -2.8227607517,
				"element": "H" 
			},
			{
				"x": 1.828129066,
				"y": -1.5686767408,
				"z": -0.1522545334,
				"element": "H" 
			},
			{
				"x": 0.9330140532,
				"y": -2.8086899748,
				"z": -1.0496553428,
				"element": "H" 
			},
			{
				"x": 0.0820078077,
				"y": -2.2788930903,
				"z": 1.7385775526,
				"element": "H" 
			},
			{
				"x": -0.5527933008,
				"y": -3.3434509641,
				"z": 0.4830434049,
				"element": "H" 
			},
			{
				"x": -4.0852677814,
				"y": -1.9034620725,
				"z": 2.2796935869,
				"element": "H" 
			},
			{
				"x": 0.5198964982,
				"y": 0.2158688626,
				"z": 0.995044075,
				"element": "H" 
			},
			{
				"x": -1.2497091525,
				"y": 0.1625309141,
				"z": 0.8683409449,
				"element": "H" 
			},
			{
				"x": -1.1254043281,
				"y": 0.8584234689,
				"z": -1.5336768106,
				"element": "H" 
			},
			{
				"x": -0.2835670524,
				"y": 2.0400709023,
				"z": -0.4902650671,
				"element": "H" 
			}
		],
		 "valence_orbital": [ 
			{
				"type": "occ",
				"energy": -0.29261,
				"method": "rhf"
			},
			{
				"type": "occ",
				"energy": -0.28743,
				"method": "rhf"
			},
			{
				"type": "occ",
				"energy": -0.28096,
				"method": "rhf"
			},
			{
				"type": "occ",
				"energy": -0.27768,
				"method": "rhf"
			},
			{
				"type": "occ",
				"energy": -0.24503,
				"method": "rhf"
			},
			{
				"type": "unocc",
				"energy": 0.02178,
				"method": "rhf"
			},
			{
				"type": "unocc",
				"energy": 0.04192,
				"method": "rhf"
			},
			{
				"type": "unocc",
				"energy": 0.0671,
				"method": "rhf"
			},
			{
				"type": "unocc",
				"energy": 0.07294,
				"method": "rhf"
			},
			{
				"type": "unocc",
				"energy": 0.08207,
				"method": "rhf"
			}
		],
		"cosmo_sigma_profile": { 
			"-0.025": 0.0,
			"-0.024": 0.0,
			"-0.023": 0.0,
			"-0.022": 0.0,
			"-0.021": 0.0,
			"-0.02": 0.0,
			"-0.019": 0.0,
			"-0.018": 0.0,
			"-0.017": 0.0,
			"-0.016": 0.0,
			"-0.015": 0.0,
			"-0.014": 0.0,
			"-0.013": 0.0,
			"-0.012": 0.510754383391,
			"-0.011": 1.26390059417,
			"-0.01": 1.04568136944,
			"-0.009": 3.63268575198,
			"-0.008": 11.4306100166,
			"-0.007": 12.1418011789,
			"-0.006": 14.4023251855,
			"-0.005": 21.4581951424,
			"-0.004": 21.4125858223,
			"-0.003": 14.0729974814,
			"-0.002": 8.15169362772,
			"-0.001": 5.91346629713,
			"0.0": 6.69631508457,
			"0.001": 5.74906819385,
			"0.002": 7.21317070493,
			"0.003": 7.02750993754,
			"0.004": 7.49219095214,
			"0.005": 6.72525269238,
			"0.006": 7.99124960215,
			"0.007": 6.55739740324,
			"0.008": 3.81280585103,
			"0.009": 3.75318786661,
			"0.01": 4.48742931364,
			"0.011": 9.04566258846,
			"0.012": 11.0697841692,
			"0.013": 3.19565528216,
			"0.014": 0.0,
			"0.015": 0.0,
			"0.016": 0.0,
			"0.017": 0.0,
			"0.018": 0.0,
			"0.019": 0.0,
			"0.02": 0.0,
			"0.021": 0.0,
			"0.022": 0.0,
			"0.023": 0.0,
			"0.024": 0.0,
			"0.025": 0.0
		}
	}
}
