{
	 "smiles": "COC(=O)C1=NN2C(=N1)N=CC1=C2C(=O)OCC1", 
	 "Tm": 471.15, 
	 "num_atms": 26, 
	 "gaussian": { 
		 "optdone": 1, 
		 "sigma_profile": "yes", 
		 "theory": "DFT", 
		 "functional": "B3LYP", 
		 "basiset": "6-31G**", 
		 "properties": { 
			 "R2extent": 5306.1446, 
			 "electric_dipole_moment_norm": 6.31485793189, 
			 "electric_quadrupole_moment_norm": 25.6942040667, 
			 "total_energy": -905.756868859, 
			 "HOMO_LUMO_gap": 0.16589, 
			 "cosmo_polarized_energy": -28.95, 
			 "cosmo_cavitation_energy": 31.83, 
			 "cosmo_dispersion_energy": -23.75, 
			 "cosmo_repulsion_energy": 1.82, 
			 "cosmo_total_nonelectrostatic_energy": 9.91, 
			 "SMD_solvation_energy": 3.88 
		},
		"coords": [
			{
				"x": 5.1109897507,
				"y": -3.0610235534,
				"z": -0.8946259418,
				"element": "C" 
			},
			{
				"x": 4.2544364471,
				"y": -1.9448296566,
				"z": -0.6025879856,
				"element": "O" 
			},
			{
				"x": 2.9623986806,
				"y": -2.2589964317,
				"z": -0.415475389,
				"element": "C" 
			},
			{
				"x": 2.5042168572,
				"y": -3.3777842211,
				"z": -0.4765103307,
				"element": "O" 
			},
			{
				"x": 2.1489366865,
				"y": -1.0390478956,
				"z": -0.1198964969,
				"element": "C" 
			},
			{
				"x": 0.837811824,
				"y": -1.1788109259,
				"z": 0.140273865,
				"element": "N" 
			},
			{
				"x": 0.4641541832,
				"y": 0.0940386025,
				"z": 0.3430238802,
				"element": "N" 
			},
			{
				"x": 1.5766970601,
				"y": 0.9534655812,
				"z": 0.1864859939,
				"element": "C" 
			},
			{
				"x": 2.6424663787,
				"y": 0.2183488853,
				"z": -0.1028743741,
				"element": "N" 
			},
			{
				"x": 1.4747680681,
				"y": 2.2869634625,
				"z": 0.3151765558,
				"element": "N" 
			},
			{
				"x": 0.2775804457,
				"y": 2.7653544665,
				"z": 0.5797037762,
				"element": "C" 
			},
			{
				"x": -0.8889051982,
				"y": 1.9657068001,
				"z": 0.7444829952,
				"element": "C" 
			},
			{
				"x": -0.7792221299,
				"y": 0.5933643642,
				"z": 0.6361615518,
				"element": "C" 
			},
			{
				"x": -1.9326863189,
				"y": -0.3200582432,
				"z": 0.9367208026,
				"element": "C" 
			},
			{
				"x": -1.8150528925,
				"y": -1.4808217023,
				"z": 1.2287966573,
				"element": "O" 
			},
			{
				"x": -3.1546684168,
				"y": 0.2741861091,
				"z": 0.9449636815,
				"element": "O" 
			},
			{
				"x": -3.3037830483,
				"y": 1.6151743494,
				"z": 0.4368206794,
				"element": "C" 
			},
			{
				"x": -2.2513219151,
				"y": 2.5440498475,
				"z": 1.0261096679,
				"element": "C" 
			},
			{
				"x": 6.1081589764,
				"y": -2.639105969,
				"z": -1.0151082821,
				"element": "H" 
			},
			{
				"x": 4.7899638069,
				"y": -3.5617086592,
				"z": -1.8115987032,
				"element": "H" 
			},
			{
				"x": 5.0934061819,
				"y": -3.7832350249,
				"z": -0.0744939552,
				"element": "H" 
			},
			{
				"x": 0.1935850991,
				"y": 3.8473776487,
				"z": 0.6712750585,
				"element": "H" 
			},
			{
				"x": -4.3166562373,
				"y": 1.9114801661,
				"z": 0.7136311537,
				"element": "H" 
			},
			{
				"x": -3.2305288833,
				"y": 1.5931639752,
				"z": -0.6575317105,
				"element": "H" 
			},
			{
				"x": -2.3453328218,
				"y": 3.5419975524,
				"z": 0.584694782,
				"element": "H" 
			},
			{
				"x": -2.4110125842,
				"y": 2.6525504722,
				"z": 2.1069820681,
				"element": "H" 
			}
		],
		 "valence_orbital": [ 
			{
				"type": "occ",
				"energy": -0.3013,
				"method": "rhf"
			},
			{
				"type": "occ",
				"energy": -0.28503,
				"method": "rhf"
			},
			{
				"type": "occ",
				"energy": -0.28117,
				"method": "rhf"
			},
			{
				"type": "occ",
				"energy": -0.2752,
				"method": "rhf"
			},
			{
				"type": "occ",
				"energy": -0.2736,
				"method": "rhf"
			},
			{
				"type": "unocc",
				"energy": -0.10771,
				"method": "rhf"
			},
			{
				"type": "unocc",
				"energy": -0.0499,
				"method": "rhf"
			},
			{
				"type": "unocc",
				"energy": -0.02794,
				"method": "rhf"
			},
			{
				"type": "unocc",
				"energy": 0.02595,
				"method": "rhf"
			},
			{
				"type": "unocc",
				"energy": 0.07019,
				"method": "rhf"
			}
		],
		"cosmo_sigma_profile": { 
			"-0.025": 0.0,
			"-0.024": 0.0,
			"-0.023": 0.0,
			"-0.022": 0.0,
			"-0.021": 0.0,
			"-0.02": 0.0,
			"-0.019": 0.0,
			"-0.018": 0.0,
			"-0.017": 0.0,
			"-0.016": 0.0,
			"-0.015": 0.0,
			"-0.014": 0.0,
			"-0.013": 0.0,
			"-0.012": 0.0,
			"-0.011": 0.0,
			"-0.01": 1.59628635673,
			"-0.009": 5.71609770801,
			"-0.008": 13.6716411826,
			"-0.007": 24.6716770043,
			"-0.006": 25.3489037539,
			"-0.005": 23.2068603055,
			"-0.004": 22.5807057546,
			"-0.003": 14.1571349718,
			"-0.002": 9.04747351061,
			"-0.001": 8.75865426347,
			"0.0": 6.82996627298,
			"0.001": 6.58220651182,
			"0.002": 5.65028543728,
			"0.003": 5.94419226462,
			"0.004": 6.91021459389,
			"0.005": 6.20860894012,
			"0.006": 5.25544653887,
			"0.007": 7.08403219728,
			"0.008": 8.33867548032,
			"0.009": 8.92830052486,
			"0.01": 10.662492309,
			"0.011": 12.4021976304,
			"0.012": 7.06066229297,
			"0.013": 4.25843645299,
			"0.014": 3.14147972645,
			"0.015": 1.80642321047,
			"0.016": 0.151077015336,
			"0.017": 0.0,
			"0.018": 0.0,
			"0.019": 0.0,
			"0.02": 0.0,
			"0.021": 0.0,
			"0.022": 0.0,
			"0.023": 0.0,
			"0.024": 0.0,
			"0.025": 0.0
		}
	}
}
