{
	 "smiles": "SC1=NN=C(N1CC1=CC2=C(OCO2)C=C1)C1=CC=CC=C1", 
	 "Tm": 392.15, 
	 "num_atms": 35, 
	 "gaussian": { 
		 "optdone": 1, 
		 "sigma_profile": "yes", 
		 "theory": "DFT", 
		 "functional": "B3LYP", 
		 "basiset": "6-31G**", 
		 "properties": { 
			 "R2extent": 7980.6705, 
			 "electric_dipole_moment_norm": 4.91646655028, 
			 "electric_quadrupole_moment_norm": 19.1772156337, 
			 "total_energy": -1330.37442278, 
			 "HOMO_LUMO_gap": 0.18719, 
			 "cosmo_polarized_energy": -19.89, 
			 "cosmo_cavitation_energy": 41.14, 
			 "cosmo_dispersion_energy": -29.24, 
			 "cosmo_repulsion_energy": 2.19, 
			 "cosmo_total_nonelectrostatic_energy": 14.09, 
			 "SMD_solvation_energy": 4.81 
		},
		"coords": [
			{
				"x": -1.633862015,
				"y": 0.6110128388,
				"z": 3.0030323615,
				"element": "S" 
			},
			{
				"x": -1.5396565236,
				"y": -0.6566648577,
				"z": 1.773337528,
				"element": "C" 
			},
			{
				"x": -2.5656303454,
				"y": -1.2038921167,
				"z": 1.1636071615,
				"element": "N" 
			},
			{
				"x": -2.0602799952,
				"y": -2.1534175348,
				"z": 0.3028706397,
				"element": "N" 
			},
			{
				"x": -0.7484731447,
				"y": -2.1541569658,
				"z": 0.4154555988,
				"element": "C" 
			},
			{
				"x": -0.3549828021,
				"y": -1.2111309785,
				"z": 1.3546137885,
				"element": "N" 
			},
			{
				"x": 0.9966174277,
				"y": -0.7568862435,
				"z": 1.7086860309,
				"element": "C" 
			},
			{
				"x": 1.3557992047,
				"y": 0.6037168365,
				"z": 1.1426800763,
				"element": "C" 
			},
			{
				"x": 1.3328803423,
				"y": 0.8041663344,
				"z": -0.2567826133,
				"element": "C" 
			},
			{
				"x": 1.6934578759,
				"y": 2.0512319338,
				"z": -0.7177074349,
				"element": "C" 
			},
			{
				"x": 2.077278281,
				"y": 3.0800929094,
				"z": 0.1445931031,
				"element": "C" 
			},
			{
				"x": 2.4015899588,
				"y": 4.1961801837,
				"z": -0.5838352023,
				"element": "O" 
			},
			{
				"x": 2.080161456,
				"y": 3.883558036,
				"z": -1.9453081118,
				"element": "C" 
			},
			{
				"x": 1.7681919321,
				"y": 2.4873122922,
				"z": -2.016708848,
				"element": "O" 
			},
			{
				"x": 2.1148615463,
				"y": 2.9049694926,
				"z": 1.5117338509,
				"element": "C" 
			},
			{
				"x": 1.7396660266,
				"y": 1.6377639105,
				"z": 1.9983013494,
				"element": "C" 
			},
			{
				"x": 0.1427063424,
				"y": -3.0325263353,
				"z": -0.36135878,
				"element": "C" 
			},
			{
				"x": 1.1870741392,
				"y": -3.7621693832,
				"z": 0.2310189397,
				"element": "C" 
			},
			{
				"x": 1.9871239932,
				"y": -4.6041643236,
				"z": -0.541499842,
				"element": "C" 
			},
			{
				"x": 1.7465590693,
				"y": -4.7405161609,
				"z": -1.909702837,
				"element": "C" 
			},
			{
				"x": 0.6944899166,
				"y": -4.037734638,
				"z": -2.5018624864,
				"element": "C" 
			},
			{
				"x": -0.1023191086,
				"y": -3.1893477121,
				"z": -1.7357249872,
				"element": "C" 
			},
			{
				"x": -2.945614351,
				"y": 0.3923788187,
				"z": 3.2163727184,
				"element": "H" 
			},
			{
				"x": 1.6873567328,
				"y": -1.5154601466,
				"z": 1.3369632015,
				"element": "H" 
			},
			{
				"x": 1.0772043621,
				"y": -0.7445535541,
				"z": 2.8001640656,
				"element": "H" 
			},
			{
				"x": 1.0426984453,
				"y": 0.0145661558,
				"z": -0.9414197269,
				"element": "H" 
			},
			{
				"x": 1.2072228334,
				"y": 4.4718373383,
				"z": -2.260111015,
				"element": "H" 
			},
			{
				"x": 2.9445371914,
				"y": 4.0971046253,
				"z": -2.5819420302,
				"element": "H" 
			},
			{
				"x": 2.4125615418,
				"y": 3.7068307618,
				"z": 2.1773581242,
				"element": "H" 
			},
			{
				"x": 1.7481368037,
				"y": 1.4652967868,
				"z": 3.0705304948,
				"element": "H" 
			},
			{
				"x": 1.351438266,
				"y": -3.7021717061,
				"z": 1.3028282336,
				"element": "H" 
			},
			{
				"x": 2.7888450871,
				"y": -5.1651038223,
				"z": -0.0701356028,
				"element": "H" 
			},
			{
				"x": 2.3695021607,
				"y": -5.3977980134,
				"z": -2.509229221,
				"element": "H" 
			},
			{
				"x": 0.4952227426,
				"y": -4.1485004677,
				"z": -3.5637363946,
				"element": "H" 
			},
			{
				"x": -0.9260653932,
				"y": -2.6446242946,
				"z": -2.1846821328,
				"element": "H" 
			}
		],
		 "valence_orbital": [ 
			{
				"type": "occ",
				"energy": -0.26069,
				"method": "rhf"
			},
			{
				"type": "occ",
				"energy": -0.2545,
				"method": "rhf"
			},
			{
				"type": "occ",
				"energy": -0.24886,
				"method": "rhf"
			},
			{
				"type": "occ",
				"energy": -0.21993,
				"method": "rhf"
			},
			{
				"type": "occ",
				"energy": -0.21636,
				"method": "rhf"
			},
			{
				"type": "unocc",
				"energy": -0.02917,
				"method": "rhf"
			},
			{
				"type": "unocc",
				"energy": -0.01887,
				"method": "rhf"
			},
			{
				"type": "unocc",
				"energy": -0.01073,
				"method": "rhf"
			},
			{
				"type": "unocc",
				"energy": -0.00135,
				"method": "rhf"
			},
			{
				"type": "unocc",
				"energy": 0.01515,
				"method": "rhf"
			}
		],
		"cosmo_sigma_profile": { 
			"-0.025": 0.0,
			"-0.024": 0.0,
			"-0.023": 0.0,
			"-0.022": 0.0,
			"-0.021": 0.0,
			"-0.02": 0.0,
			"-0.019": 0.0,
			"-0.018": 0.0,
			"-0.017": 0.0,
			"-0.016": 0.0,
			"-0.015": 0.0,
			"-0.014": 0.0,
			"-0.013": 0.034021644546,
			"-0.012": 1.1449234781,
			"-0.011": 1.56841806939,
			"-0.01": 1.16812226175,
			"-0.009": 1.35223139882,
			"-0.008": 6.37347473994,
			"-0.007": 17.9745788198,
			"-0.006": 24.8717262475,
			"-0.005": 27.6469678825,
			"-0.004": 24.7741361777,
			"-0.003": 20.4671071348,
			"-0.002": 17.8355417267,
			"-0.001": 19.0843318673,
			"0.0": 18.6357723896,
			"0.001": 19.2561276585,
			"0.002": 25.2048638407,
			"0.003": 24.9205097782,
			"0.004": 24.4106740671,
			"0.005": 12.9338357359,
			"0.006": 6.7120251205,
			"0.007": 6.90757516393,
			"0.008": 5.11764852828,
			"0.009": 5.34531309817,
			"0.01": 2.52337841738,
			"0.011": 2.90708754105,
			"0.012": 2.04118400683,
			"0.013": 3.77824359191,
			"0.014": 2.84939819964,
			"0.015": 2.41295936665,
			"0.016": 2.11689795718,
			"0.017": 0.350348292756,
			"0.018": 0.0,
			"0.019": 0.0,
			"0.02": 0.0,
			"0.021": 0.0,
			"0.022": 0.0,
			"0.023": 0.0,
			"0.024": 0.0,
			"0.025": 0.0
		}
	}
}
