{
	 "smiles": "CCOC(=O)C1=NN(C(=N1)C(Cl)(Cl)Cl)C1=CC=C(Cl)C=C1Cl", 
	 "Tm": 383.15, 
	 "num_atms": 30, 
	 "gaussian": { 
		 "optdone": 1, 
		 "sigma_profile": "yes", 
		 "theory": "DFT", 
		 "functional": "B3LYP", 
		 "basiset": "6-31G**", 
		 "properties": { 
			 "R2extent": 11857.3454, 
			 "electric_dipole_moment_norm": 1.49125305029, 
			 "electric_quadrupole_moment_norm": 22.7410680294, 
			 "total_energy": -3077.72141108, 
			 "HOMO_LUMO_gap": 0.20426, 
			 "cosmo_polarized_energy": -14.43, 
			 "cosmo_cavitation_energy": 44.9, 
			 "cosmo_dispersion_energy": -30.91, 
			 "cosmo_repulsion_energy": 2.43, 
			 "cosmo_total_nonelectrostatic_energy": 16.42, 
			 "SMD_solvation_energy": 5.32 
		},
		"coords": [
			{
				"x": 2.0206432729,
				"y": -5.3209417444,
				"z": -0.6193610316,
				"element": "C" 
			},
			{
				"x": 1.671624892,
				"y": -4.2247590404,
				"z": -1.6070123083,
				"element": "C" 
			},
			{
				"x": 1.226975422,
				"y": -3.0788360572,
				"z": -0.8415711956,
				"element": "O" 
			},
			{
				"x": 0.8765389665,
				"y": -2.0036850544,
				"z": -1.5626174685,
				"element": "C" 
			},
			{
				"x": 0.9057881352,
				"y": -1.9321672784,
				"z": -2.771486321,
				"element": "O" 
			},
			{
				"x": 0.4365279263,
				"y": -0.8840017244,
				"z": -0.6783454241,
				"element": "C" 
			},
			{
				"x": 0.0713631715,
				"y": 0.2815744654,
				"z": -1.1978417272,
				"element": "N" 
			},
			{
				"x": -0.2526076877,
				"y": 1.0130763189,
				"z": -0.1080740562,
				"element": "N" 
			},
			{
				"x": -0.0604096172,
				"y": 0.2488691612,
				"z": 1.0195347337,
				"element": "C" 
			},
			{
				"x": 0.3673541277,
				"y": -0.9464208961,
				"z": 0.6805889286,
				"element": "N" 
			},
			{
				"x": -0.3588719215,
				"y": 0.6670205253,
				"z": 2.4404000731,
				"element": "C" 
			},
			{
				"x": 0.3008675796,
				"y": -0.5279653983,
				"z": 3.587308627,
				"element": "Cl" 
			},
			{
				"x": 0.3542842142,
				"y": 2.2828313888,
				"z": 2.8071477102,
				"element": "Cl" 
			},
			{
				"x": -2.1613960675,
				"y": 0.7606911866,
				"z": 2.6743442727,
				"element": "Cl" 
			},
			{
				"x": -0.6882160928,
				"y": 2.3638310783,
				"z": -0.2996586739,
				"element": "C" 
			},
			{
				"x": -2.0520338811,
				"y": 2.6573122953,
				"z": -0.288001685,
				"element": "C" 
			},
			{
				"x": -2.5017023969,
				"y": 3.9546706803,
				"z": -0.5166565709,
				"element": "C" 
			},
			{
				"x": -1.5655565408,
				"y": 4.9562256661,
				"z": -0.7717896415,
				"element": "C" 
			},
			{
				"x": -2.1101232871,
				"y": 6.5931600475,
				"z": -1.0631489808,
				"element": "Cl" 
			},
			{
				"x": -0.1983486767,
				"y": 4.6835060183,
				"z": -0.8053056535,
				"element": "C" 
			},
			{
				"x": 0.2388066523,
				"y": 3.3808693066,
				"z": -0.5712354074,
				"element": "C" 
			},
			{
				"x": 1.9470284883,
				"y": 3.0460795927,
				"z": -0.6116979249,
				"element": "Cl" 
			},
			{
				"x": 2.3628096642,
				"y": -6.2092671999,
				"z": -1.1593659834,
				"element": "H" 
			},
			{
				"x": 1.1501112202,
				"y": -5.5962317371,
				"z": -0.0175337238,
				"element": "H" 
			},
			{
				"x": 2.817931501,
				"y": -4.9986476235,
				"z": 0.0560930164,
				"element": "H" 
			},
			{
				"x": 2.5304112649,
				"y": -3.9269126429,
				"z": -2.216815934,
				"element": "H" 
			},
			{
				"x": 0.8699887835,
				"y": -4.5220073626,
				"z": -2.2905389906,
				"element": "H" 
			},
			{
				"x": -2.7594258938,
				"y": 1.8578876129,
				"z": -0.1015257208,
				"element": "H" 
			},
			{
				"x": -3.5605308618,
				"y": 4.1837321043,
				"z": -0.5052379221,
				"element": "H" 
			},
			{
				"x": 0.5185676424,
				"y": 5.468506311,
				"z": -1.0107950169,
				"element": "H" 
			}
		],
		 "valence_orbital": [ 
			{
				"type": "occ",
				"energy": -0.30245,
				"method": "rhf"
			},
			{
				"type": "occ",
				"energy": -0.2903,
				"method": "rhf"
			},
			{
				"type": "occ",
				"energy": -0.28401,
				"method": "rhf"
			},
			{
				"type": "occ",
				"energy": -0.27956,
				"method": "rhf"
			},
			{
				"type": "occ",
				"energy": -0.2715,
				"method": "rhf"
			},
			{
				"type": "unocc",
				"energy": -0.06724,
				"method": "rhf"
			},
			{
				"type": "unocc",
				"energy": -0.05894,
				"method": "rhf"
			},
			{
				"type": "unocc",
				"energy": -0.04865,
				"method": "rhf"
			},
			{
				"type": "unocc",
				"energy": -0.04758,
				"method": "rhf"
			},
			{
				"type": "unocc",
				"energy": -0.03988,
				"method": "rhf"
			}
		],
		"cosmo_sigma_profile": { 
			"-0.025": 0.0,
			"-0.024": 0.0,
			"-0.023": 0.0,
			"-0.022": 0.0,
			"-0.021": 0.0,
			"-0.02": 0.0,
			"-0.019": 0.0,
			"-0.018": 0.0,
			"-0.017": 0.0,
			"-0.016": 0.0,
			"-0.015": 0.0,
			"-0.014": 0.0,
			"-0.013": 0.0,
			"-0.012": 0.0,
			"-0.011": 0.0,
			"-0.01": 0.213325135555,
			"-0.009": 4.49746906323,
			"-0.008": 6.06948507783,
			"-0.007": 6.45774504082,
			"-0.006": 8.50125299266,
			"-0.005": 19.9915099847,
			"-0.004": 28.2814988103,
			"-0.003": 31.6711891494,
			"-0.002": 29.4664082039,
			"-0.001": 40.0766658373,
			"0.0": 42.4605215318,
			"0.001": 34.6660516025,
			"0.002": 40.1407385818,
			"0.003": 27.0470547266,
			"0.004": 11.4495703166,
			"0.005": 5.06347852704,
			"0.006": 3.39376029675,
			"0.007": 3.89796915894,
			"0.008": 4.1693276232,
			"0.009": 4.45673375949,
			"0.01": 4.57783714558,
			"0.011": 8.18470329363,
			"0.012": 4.54963167652,
			"0.013": 1.62851897397,
			"0.014": 0.121095216872,
			"0.015": 0.0,
			"0.016": 0.0,
			"0.017": 0.0,
			"0.018": 0.0,
			"0.019": 0.0,
			"0.02": 0.0,
			"0.021": 0.0,
			"0.022": 0.0,
			"0.023": 0.0,
			"0.024": 0.0,
			"0.025": 0.0
		}
	}
}
