{
	 "smiles": "ClC1=CC=C(C=C1)C(=O)C1=NC=CC=N1", 
	 "Tm": 365.15, 
	 "num_atms": 22, 
	 "gaussian": { 
		 "optdone": 1, 
		 "sigma_profile": "yes", 
		 "theory": "DFT", 
		 "functional": "B3LYP", 
		 "basiset": "6-31G**", 
		 "properties": { 
			 "R2extent": 4716.6775, 
			 "electric_dipole_moment_norm": 4.32992299816, 
			 "electric_quadrupole_moment_norm": 15.4180454329, 
			 "total_energy": -1068.291548, 
			 "HOMO_LUMO_gap": 0.17193, 
			 "cosmo_polarized_energy": -13.14, 
			 "cosmo_cavitation_energy": 29.45, 
			 "cosmo_dispersion_energy": -21.68, 
			 "cosmo_repulsion_energy": 1.68, 
			 "cosmo_total_nonelectrostatic_energy": 9.46, 
			 "SMD_solvation_energy": 3.23 
		},
		"coords": [
			{
				"x": 1.7257730919,
				"y": 2.9394046605,
				"z": -3.8368241266,
				"element": "Cl" 
			},
			{
				"x": 1.5343197249,
				"y": 1.9281433784,
				"z": -2.4162142154,
				"element": "C" 
			},
			{
				"x": 2.6451359919,
				"y": 1.6599335786,
				"z": -1.612056193,
				"element": "C" 
			},
			{
				"x": 2.4835807298,
				"y": 0.8558651924,
				"z": -0.4907906969,
				"element": "C" 
			},
			{
				"x": 1.2267600484,
				"y": 0.3238113143,
				"z": -0.155662831,
				"element": "C" 
			},
			{
				"x": 0.1274360545,
				"y": 0.6075373168,
				"z": -0.980735155,
				"element": "C" 
			},
			{
				"x": 0.2769684524,
				"y": 1.4068887367,
				"z": -2.1122336132,
				"element": "C" 
			},
			{
				"x": 1.1649762865,
				"y": -0.5632529959,
				"z": 1.0447899208,
				"element": "C" 
			},
			{
				"x": 2.1762990144,
				"y": -0.893325727,
				"z": 1.6431857661,
				"element": "O" 
			},
			{
				"x": -0.1687251871,
				"y": -1.0821470481,
				"z": 1.5671795086,
				"element": "C" 
			},
			{
				"x": -1.1937591249,
				"y": -0.2214310966,
				"z": 1.6288541926,
				"element": "N" 
			},
			{
				"x": -2.3143043086,
				"y": -0.6735311103,
				"z": 2.2069843886,
				"element": "C" 
			},
			{
				"x": -2.4261550846,
				"y": -1.9732659843,
				"z": 2.6915225693,
				"element": "C" 
			},
			{
				"x": -1.3040233105,
				"y": -2.7896670641,
				"z": 2.5417749104,
				"element": "C" 
			},
			{
				"x": -0.1673844672,
				"y": -2.3520756333,
				"z": 1.9951848662,
				"element": "N" 
			},
			{
				"x": 3.6141205889,
				"y": 2.073901503,
				"z": -1.8677023248,
				"element": "H" 
			},
			{
				"x": 3.3280213519,
				"y": 0.6204652783,
				"z": 0.1479215406,
				"element": "H" 
			},
			{
				"x": -0.8518449466,
				"y": 0.2165364748,
				"z": -0.7361501587,
				"element": "H" 
			},
			{
				"x": -0.5707503218,
				"y": 1.6264536011,
				"z": -2.7514628173,
				"element": "H" 
			},
			{
				"x": -3.1425864236,
				"y": 0.0293808707,
				"z": 2.2746016879,
				"element": "H" 
			},
			{
				"x": -3.3384546615,
				"y": -2.3346937035,
				"z": 3.1532572908,
				"element": "H" 
			},
			{
				"x": -1.3147034989,
				"y": -3.8264315425,
				"z": 2.8739754901,
				"element": "H" 
			}
		],
		 "valence_orbital": [ 
			{
				"type": "occ",
				"energy": -0.29999,
				"method": "rhf"
			},
			{
				"type": "occ",
				"energy": -0.27142,
				"method": "rhf"
			},
			{
				"type": "occ",
				"energy": -0.26549,
				"method": "rhf"
			},
			{
				"type": "occ",
				"energy": -0.25797,
				"method": "rhf"
			},
			{
				"type": "occ",
				"energy": -0.25185,
				"method": "rhf"
			},
			{
				"type": "unocc",
				"energy": -0.07992,
				"method": "rhf"
			},
			{
				"type": "unocc",
				"energy": -0.05534,
				"method": "rhf"
			},
			{
				"type": "unocc",
				"energy": -0.03628,
				"method": "rhf"
			},
			{
				"type": "unocc",
				"energy": -0.0177,
				"method": "rhf"
			},
			{
				"type": "unocc",
				"energy": 0.02603,
				"method": "rhf"
			}
		],
		"cosmo_sigma_profile": { 
			"-0.025": 0.0,
			"-0.024": 0.0,
			"-0.023": 0.0,
			"-0.022": 0.0,
			"-0.021": 0.0,
			"-0.02": 0.0,
			"-0.019": 0.0,
			"-0.018": 0.0,
			"-0.017": 0.0,
			"-0.016": 0.0,
			"-0.015": 0.0,
			"-0.014": 0.0,
			"-0.013": 0.0,
			"-0.012": 0.0,
			"-0.011": 0.0,
			"-0.01": 0.0,
			"-0.009": 1.74217234015,
			"-0.008": 10.1182464682,
			"-0.007": 12.8746802653,
			"-0.006": 12.1892511663,
			"-0.005": 13.5420251382,
			"-0.004": 11.4138299031,
			"-0.003": 13.086982823,
			"-0.002": 19.6306208344,
			"-0.001": 23.1751144238,
			"0.0": 19.2553648149,
			"0.001": 20.2614508514,
			"0.002": 23.3820805693,
			"0.003": 12.4535867187,
			"0.004": 13.5367889348,
			"0.005": 4.9857335014,
			"0.006": 2.51174567965,
			"0.007": 2.64603965812,
			"0.008": 3.91812621074,
			"0.009": 3.75947973169,
			"0.01": 3.64604583094,
			"0.011": 5.03676392615,
			"0.012": 2.78384089026,
			"0.013": 1.81335338092,
			"0.014": 1.66935431995,
			"0.015": 1.25151594131,
			"0.016": 0.112015854316,
			"0.017": 0.0,
			"0.018": 0.0,
			"0.019": 0.0,
			"0.02": 0.0,
			"0.021": 0.0,
			"0.022": 0.0,
			"0.023": 0.0,
			"0.024": 0.0,
			"0.025": 0.0
		}
	}
}
