{
	 "smiles": "CC1=NN(C(C)=C1C(O)=O)C1=CC=C(Br)C=C1", 
	 "Tm": 505.15, 
	 "num_atms": 28, 
	 "gaussian": { 
		 "optdone": 1, 
		 "sigma_profile": "yes", 
		 "theory": "DFT", 
		 "functional": "B3LYP", 
		 "basiset": "6-31G**", 
		 "properties": { 
			 "R2extent": 9024.9682, 
			 "electric_dipole_moment_norm": 2.8070077271, 
			 "electric_quadrupole_moment_norm": 22.4550593484, 
			 "total_energy": -3295.26737938, 
			 "HOMO_LUMO_gap": 0.19603, 
			 "cosmo_polarized_energy": -15.91, 
			 "cosmo_cavitation_energy": 34.36, 
			 "cosmo_dispersion_energy": -25.4, 
			 "cosmo_repulsion_energy": 1.95, 
			 "cosmo_total_nonelectrostatic_energy": 10.91, 
			 "SMD_solvation_energy": 4.9 
		},
		"coords": [
			{
				"x": -2.9662085416,
				"y": 2.2369688685,
				"z": -1.0643507215,
				"element": "C" 
			},
			{
				"x": -1.7313517385,
				"y": 1.4349034493,
				"z": -0.772890437,
				"element": "C" 
			},
			{
				"x": -1.8132196525,
				"y": 0.4351795305,
				"z": 0.0901729362,
				"element": "N" 
			},
			{
				"x": -0.5515820708,
				"y": -0.0912401081,
				"z": 0.1612131896,
				"element": "N" 
			},
			{
				"x": 0.3299307814,
				"y": 0.5503835996,
				"z": -0.6599924995,
				"element": "C" 
			},
			{
				"x": 1.7574383053,
				"y": 0.1483743271,
				"z": -0.8458353174,
				"element": "C" 
			},
			{
				"x": -0.4013749994,
				"y": 1.5660346957,
				"z": -1.2834203545,
				"element": "C" 
			},
			{
				"x": 0.1696659429,
				"y": 2.5088695616,
				"z": -2.2647191193,
				"element": "C" 
			},
			{
				"x": -0.6755458147,
				"y": 3.4257655973,
				"z": -2.8113805822,
				"element": "O" 
			},
			{
				"x": 1.3342274749,
				"y": 2.5119183313,
				"z": -2.6064072027,
				"element": "O" 
			},
			{
				"x": -0.3451438984,
				"y": -1.2162362054,
				"z": 1.0089012675,
				"element": "C" 
			},
			{
				"x": 0.7987808371,
				"y": -1.3208812087,
				"z": 1.805575682,
				"element": "C" 
			},
			{
				"x": 0.9747443353,
				"y": -2.431909296,
				"z": 2.6301452526,
				"element": "C" 
			},
			{
				"x": -0.0062493992,
				"y": -3.4204044372,
				"z": 2.6668613119,
				"element": "C" 
			},
			{
				"x": 0.2299194986,
				"y": -4.9382338841,
				"z": 3.7992694811,
				"element": "Br" 
			},
			{
				"x": -1.162458799,
				"y": -3.3125181356,
				"z": 1.8932995598,
				"element": "C" 
			},
			{
				"x": -1.3294288548,
				"y": -2.2094524424,
				"z": 1.0609899458,
				"element": "C" 
			},
			{
				"x": -3.2609052333,
				"y": 2.1718506341,
				"z": -2.1199519638,
				"element": "H" 
			},
			{
				"x": -2.8412748059,
				"y": 3.2953541118,
				"z": -0.8024408716,
				"element": "H" 
			},
			{
				"x": -3.7944725391,
				"y": 1.8473565801,
				"z": -0.4694457858,
				"element": "H" 
			},
			{
				"x": 1.8870202801,
				"y": -0.929227725,
				"z": -0.7180981663,
				"element": "H" 
			},
			{
				"x": 2.0825794095,
				"y": 0.4544276448,
				"z": -1.8394756571,
				"element": "H" 
			},
			{
				"x": 2.4138903324,
				"y": 0.6573285471,
				"z": -0.1301837568,
				"element": "H" 
			},
			{
				"x": -1.572575144,
				"y": 3.3254111774,
				"z": -2.4675108066,
				"element": "H" 
			},
			{
				"x": 1.5416209865,
				"y": -0.5321674346,
				"z": 1.8049352343,
				"element": "H" 
			},
			{
				"x": 1.8601744976,
				"y": -2.5170523272,
				"z": 3.2492002521,
				"element": "H" 
			},
			{
				"x": -1.9213417632,
				"y": -4.0851310873,
				"z": 1.9359736638,
				"element": "H" 
			},
			{
				"x": -2.2210594272,
				"y": -2.1023723645,
				"z": 0.4549654654,
				"element": "H" 
			}
		],
		 "valence_orbital": [ 
			{
				"type": "occ",
				"energy": -0.28129,
				"method": "rhf"
			},
			{
				"type": "occ",
				"energy": -0.28016,
				"method": "rhf"
			},
			{
				"type": "occ",
				"energy": -0.26677,
				"method": "rhf"
			},
			{
				"type": "occ",
				"energy": -0.25753,
				"method": "rhf"
			},
			{
				"type": "occ",
				"energy": -0.24115,
				"method": "rhf"
			},
			{
				"type": "unocc",
				"energy": -0.04512,
				"method": "rhf"
			},
			{
				"type": "unocc",
				"energy": -0.03028,
				"method": "rhf"
			},
			{
				"type": "unocc",
				"energy": -0.0148,
				"method": "rhf"
			},
			{
				"type": "unocc",
				"energy": -0.00301,
				"method": "rhf"
			},
			{
				"type": "unocc",
				"energy": 0.01483,
				"method": "rhf"
			}
		],
		"cosmo_sigma_profile": { 
			"-0.025": 0.0,
			"-0.024": 0.0,
			"-0.023": 0.0,
			"-0.022": 0.0,
			"-0.021": 0.0,
			"-0.02": 0.0,
			"-0.019": 0.0,
			"-0.018": 0.0,
			"-0.017": 0.0,
			"-0.016": 0.0,
			"-0.015": 0.0162321844902,
			"-0.014": 0.830621394549,
			"-0.013": 1.19967461181,
			"-0.012": 2.14030905912,
			"-0.011": 1.81373042174,
			"-0.01": 1.56471980885,
			"-0.009": 1.83847162115,
			"-0.008": 5.99071449161,
			"-0.007": 11.4298549764,
			"-0.006": 13.5067967661,
			"-0.005": 14.6387553218,
			"-0.004": 15.8276065919,
			"-0.003": 19.0819305239,
			"-0.002": 21.7652450566,
			"-0.001": 23.2417298406,
			"0.0": 19.9611919951,
			"0.001": 22.3461754532,
			"0.002": 26.4674719229,
			"0.003": 15.600418892,
			"0.004": 15.5423982168,
			"0.005": 8.11815565252,
			"0.006": 3.96201004521,
			"0.007": 4.19792160181,
			"0.008": 2.96314212881,
			"0.009": 4.19620630802,
			"0.01": 4.67473389787,
			"0.011": 5.3728119764,
			"0.012": 5.49357410324,
			"0.013": 3.26145562005,
			"0.014": 1.27466041621,
			"0.015": 0.00390800531087,
			"0.016": 0.0,
			"0.017": 0.0,
			"0.018": 0.0,
			"0.019": 0.0,
			"0.02": 0.0,
			"0.021": 0.0,
			"0.022": 0.0,
			"0.023": 0.0,
			"0.024": 0.0,
			"0.025": 0.0
		}
	}
}
