{
	 "smiles": "[O-][N+](=O)C1=C(Cl)C=CC(=C1)S(=O)(=O)NC1=C(Cl)N=C2C=CC=CC2=N1", 
	 "Tm": 454.15, 
	 "num_atms": 33, 
	 "gaussian": { 
		 "optdone": 1, 
		 "sigma_profile": "yes", 
		 "theory": "DFT", 
		 "functional": "B3LYP", 
		 "basiset": "6-31G**", 
		 "properties": { 
			 "R2extent": 12463.6761, 
			 "electric_dipole_moment_norm": 3.51216003052, 
			 "electric_quadrupole_moment_norm": 26.8719848472, 
			 "total_energy": -2376.60415655, 
			 "HOMO_LUMO_gap": 0.14224, 
			 "cosmo_polarized_energy": -17.33, 
			 "cosmo_cavitation_energy": 44.15, 
			 "cosmo_dispersion_energy": -31.4, 
			 "cosmo_repulsion_energy": 2.3, 
			 "cosmo_total_nonelectrostatic_energy": 15.05, 
			 "SMD_solvation_energy": 5.96 
		},
		"coords": [
			{
				"x": 3.4523150399,
				"y": 1.2100783968,
				"z": -0.9534673584,
				"element": "O" 
			},
			{
				"x": 3.7979578558,
				"y": 2.2558776459,
				"z": -0.4016590645,
				"element": "N" 
			},
			{
				"x": 4.8350873615,
				"y": 2.864899186,
				"z": -0.6305953124,
				"element": "O" 
			},
			{
				"x": 2.8980083493,
				"y": 2.7832564129,
				"z": 0.6415252869,
				"element": "C" 
			},
			{
				"x": 2.7609133374,
				"y": 4.154607475,
				"z": 0.9192069416,
				"element": "C" 
			},
			{
				"x": 3.5532946549,
				"y": 5.4036468453,
				"z": 0.00921143,
				"element": "Cl" 
			},
			{
				"x": 1.9023283975,
				"y": 4.5534456122,
				"z": 1.9501409976,
				"element": "C" 
			},
			{
				"x": 1.1991127861,
				"y": 3.61232072,
				"z": 2.6952363848,
				"element": "C" 
			},
			{
				"x": 1.3379758166,
				"y": 2.2588057367,
				"z": 2.3862487089,
				"element": "C" 
			},
			{
				"x": 2.1780825681,
				"y": 1.8348084398,
				"z": 1.3651248795,
				"element": "C" 
			},
			{
				"x": 0.4480363463,
				"y": 1.0358882713,
				"z": 3.348872082,
				"element": "S" 
			},
			{
				"x": 0.1425571194,
				"y": 1.6160753329,
				"z": 4.6564173608,
				"element": "O" 
			},
			{
				"x": 1.1388289076,
				"y": -0.2391836926,
				"z": 3.2035201032,
				"element": "O" 
			},
			{
				"x": -1.0900137577,
				"y": 0.9756752946,
				"z": 2.6102807913,
				"element": "N" 
			},
			{
				"x": -1.3647652836,
				"y": 0.337539633,
				"z": 1.4043250452,
				"element": "C" 
			},
			{
				"x": -2.6996496316,
				"y": -0.1220857714,
				"z": 1.1095037237,
				"element": "C" 
			},
			{
				"x": -3.9685764412,
				"y": 0.1114574075,
				"z": 2.3166700983,
				"element": "Cl" 
			},
			{
				"x": -3.0133664129,
				"y": -0.6955875071,
				"z": -0.0027472997,
				"element": "N" 
			},
			{
				"x": -2.0267346559,
				"y": -0.8662429749,
				"z": -0.9357180666,
				"element": "C" 
			},
			{
				"x": -2.3200615747,
				"y": -1.4920001895,
				"z": -2.1692625645,
				"element": "C" 
			},
			{
				"x": -1.3202268487,
				"y": -1.6470224606,
				"z": -3.1064620935,
				"element": "C" 
			},
			{
				"x": -0.0083595396,
				"y": -1.1816594365,
				"z": -2.8439800116,
				"element": "C" 
			},
			{
				"x": 0.3038831522,
				"y": -0.5707499225,
				"z": -1.6468313179,
				"element": "C" 
			},
			{
				"x": -0.7024864427,
				"y": -0.4071974322,
				"z": -0.6650974218,
				"element": "C" 
			},
			{
				"x": -0.4062599356,
				"y": 0.1948986622,
				"z": 0.5232721538,
				"element": "N" 
			},
			{
				"x": 1.7955868842,
				"y": 5.6114196187,
				"z": 2.1597555539,
				"element": "H" 
			},
			{
				"x": 0.5550277554,
				"y": 3.9222804887,
				"z": 3.5106939519,
				"element": "H" 
			},
			{
				"x": 2.2792281852,
				"y": 0.7844368501,
				"z": 1.1283766593,
				"element": "H" 
			},
			{
				"x": -1.8324548089,
				"y": 1.0325128455,
				"z": 3.3000176875,
				"element": "H" 
			},
			{
				"x": -3.3347702885,
				"y": -1.8335369785,
				"z": -2.3444196553,
				"element": "H" 
			},
			{
				"x": -1.537190512,
				"y": -2.1261954886,
				"z": -4.0561704931,
				"element": "H" 
			},
			{
				"x": 0.7620436953,
				"y": -1.3075173988,
				"z": -3.598738858,
				"element": "H" 
			},
			{
				"x": 1.3011479208,
				"y": -0.1988516219,
				"z": -1.4358503231,
				"element": "H" 
			}
		],
		 "valence_orbital": [ 
			{
				"type": "occ",
				"energy": -0.29906,
				"method": "rhf"
			},
			{
				"type": "occ",
				"energy": -0.2929,
				"method": "rhf"
			},
			{
				"type": "occ",
				"energy": -0.27841,
				"method": "rhf"
			},
			{
				"type": "occ",
				"energy": -0.26088,
				"method": "rhf"
			},
			{
				"type": "occ",
				"energy": -0.25046,
				"method": "rhf"
			},
			{
				"type": "unocc",
				"energy": -0.10822,
				"method": "rhf"
			},
			{
				"type": "unocc",
				"energy": -0.08622,
				"method": "rhf"
			},
			{
				"type": "unocc",
				"energy": -0.07116,
				"method": "rhf"
			},
			{
				"type": "unocc",
				"energy": -0.03937,
				"method": "rhf"
			},
			{
				"type": "unocc",
				"energy": -0.03831,
				"method": "rhf"
			}
		],
		"cosmo_sigma_profile": { 
			"-0.025": 0.0,
			"-0.024": 0.0,
			"-0.023": 0.0,
			"-0.022": 0.0,
			"-0.021": 0.0,
			"-0.02": 0.0,
			"-0.019": 0.0,
			"-0.018": 0.0,
			"-0.017": 0.0,
			"-0.016": 0.0,
			"-0.015": 0.0,
			"-0.014": 0.188944278324,
			"-0.013": 0.97334540535,
			"-0.012": 0.920541637822,
			"-0.011": 1.31611624341,
			"-0.01": 2.6097627736,
			"-0.009": 6.47986691653,
			"-0.008": 7.68992022477,
			"-0.007": 11.12728073,
			"-0.006": 15.4383870932,
			"-0.005": 19.3109368681,
			"-0.004": 20.4529794405,
			"-0.003": 27.3016724855,
			"-0.002": 29.0609996752,
			"-0.001": 28.4001637104,
			"0.0": 25.4172024188,
			"0.001": 32.4315937077,
			"0.002": 29.8486860743,
			"0.003": 28.2693459599,
			"0.004": 11.2885104652,
			"0.005": 9.92535137773,
			"0.006": 10.0098571552,
			"0.007": 12.471455355,
			"0.008": 9.23209097969,
			"0.009": 12.730024527,
			"0.01": 7.82631915878,
			"0.011": 0.952052820511,
			"0.012": 0.398541572424,
			"0.013": 0.0,
			"0.014": 0.0,
			"0.015": 0.0,
			"0.016": 0.0,
			"0.017": 0.0,
			"0.018": 0.0,
			"0.019": 0.0,
			"0.02": 0.0,
			"0.021": 0.0,
			"0.022": 0.0,
			"0.023": 0.0,
			"0.024": 0.0,
			"0.025": 0.0
		}
	}
}
