{
	 "smiles": "COP(=O)(OC)OC(Br)C(Cl)(Cl)Br", 
	 "Tm": 300.15, 
	 "num_atms": 20, 
	 "gaussian": { 
		 "optdone": 1, 
		 "sigma_profile": "yes", 
		 "theory": "DFT", 
		 "functional": "B3LYP", 
		 "basiset": "6-31G**", 
		 "properties": { 
			 "R2extent": 6894.0007, 
			 "electric_dipole_moment_norm": 3.94576159949, 
			 "electric_quadrupole_moment_norm": 11.9782741921, 
			 "total_energy": -6862.1197533, 
			 "HOMO_LUMO_gap": 0.22183, 
			 "cosmo_polarized_energy": -12.28, 
			 "cosmo_cavitation_energy": 33.66, 
			 "cosmo_dispersion_energy": -23.76, 
			 "cosmo_repulsion_energy": 1.88, 
			 "cosmo_total_nonelectrostatic_energy": 11.78, 
			 "SMD_solvation_energy": 5.98 
		},
		"coords": [
			{
				"x": -0.1044407728,
				"y": -3.2711949724,
				"z": -0.1211061547,
				"element": "C" 
			},
			{
				"x": 0.0790037363,
				"y": -1.947265977,
				"z": 0.4312813026,
				"element": "O" 
			},
			{
				"x": 1.1473319409,
				"y": -0.9525876133,
				"z": -0.2355648359,
				"element": "P" 
			},
			{
				"x": 2.4150936135,
				"y": -1.553922516,
				"z": -0.6814644671,
				"element": "O" 
			},
			{
				"x": 1.1657279178,
				"y": 0.238003525,
				"z": 0.8343521241,
				"element": "O" 
			},
			{
				"x": 1.7854754606,
				"y": 0.0190256611,
				"z": 2.1201850472,
				"element": "C" 
			},
			{
				"x": 0.3744326305,
				"y": -0.2119522535,
				"z": -1.4733788718,
				"element": "O" 
			},
			{
				"x": -0.7542281239,
				"y": 0.5799500643,
				"z": -1.3176405703,
				"element": "C" 
			},
			{
				"x": -2.3950788256,
				"y": -0.5113367081,
				"z": -1.5869054683,
				"element": "Br" 
			},
			{
				"x": -0.677171241,
				"y": 1.754069165,
				"z": -2.3320222158,
				"element": "C" 
			},
			{
				"x": -0.6082093895,
				"y": 1.1814275367,
				"z": -4.015450979,
				"element": "Cl" 
			},
			{
				"x": 0.8062821638,
				"y": 2.6972983569,
				"z": -1.9478652941,
				"element": "Cl" 
			},
			{
				"x": -2.2385549111,
				"y": 2.933314882,
				"z": -2.0702420854,
				"element": "Br" 
			},
			{
				"x": 0.8608345453,
				"y": -3.7167497562,
				"z": -0.3714033079,
				"element": "H" 
			},
			{
				"x": -0.7389608857,
				"y": -3.2119266282,
				"z": -1.0089801337,
				"element": "H" 
			},
			{
				"x": -0.6033208665,
				"y": -3.8575135305,
				"z": 0.6509791799,
				"element": "H" 
			},
			{
				"x": 1.1995819785,
				"y": -0.6972037799,
				"z": 2.7023511262,
				"element": "H" 
			},
			{
				"x": 1.7968306677,
				"y": 0.9867904456,
				"z": 2.621395505,
				"element": "H" 
			},
			{
				"x": 2.807807237,
				"y": -0.3448953299,
				"z": 1.9903443537,
				"element": "H" 
			},
			{
				"x": -0.8481368756,
				"y": 0.9958694283,
				"z": -0.3151642548,
				"element": "H" 
			}
		],
		 "valence_orbital": [ 
			{
				"type": "occ",
				"energy": -0.31054,
				"method": "rhf"
			},
			{
				"type": "occ",
				"energy": -0.30427,
				"method": "rhf"
			},
			{
				"type": "occ",
				"energy": -0.29868,
				"method": "rhf"
			},
			{
				"type": "occ",
				"energy": -0.29182,
				"method": "rhf"
			},
			{
				"type": "occ",
				"energy": -0.28333,
				"method": "rhf"
			},
			{
				"type": "unocc",
				"energy": -0.0615,
				"method": "rhf"
			},
			{
				"type": "unocc",
				"energy": -0.04462,
				"method": "rhf"
			},
			{
				"type": "unocc",
				"energy": -0.01584,
				"method": "rhf"
			},
			{
				"type": "unocc",
				"energy": 0.0183,
				"method": "rhf"
			},
			{
				"type": "unocc",
				"energy": 0.04109,
				"method": "rhf"
			}
		],
		"cosmo_sigma_profile": { 
			"-0.025": 0.0,
			"-0.024": 0.0,
			"-0.023": 0.0,
			"-0.022": 0.0,
			"-0.021": 0.0,
			"-0.02": 0.0,
			"-0.019": 0.0,
			"-0.018": 0.0,
			"-0.017": 0.0,
			"-0.016": 0.0,
			"-0.015": 0.0,
			"-0.014": 0.0,
			"-0.013": 0.0,
			"-0.012": 0.0,
			"-0.011": 0.379500100231,
			"-0.01": 1.39296510732,
			"-0.009": 1.13147631789,
			"-0.008": 1.65850772233,
			"-0.007": 8.38826335455,
			"-0.006": 14.1401110724,
			"-0.005": 20.7665549385,
			"-0.004": 26.135399607,
			"-0.003": 17.5224804282,
			"-0.002": 14.440409682,
			"-0.001": 17.9641679769,
			"0.0": 18.5181527445,
			"0.001": 22.8296229099,
			"0.002": 36.5624647262,
			"0.003": 29.3916634114,
			"0.004": 16.3654921805,
			"0.005": 6.11654923637,
			"0.006": 3.742637052,
			"0.007": 2.33684088676,
			"0.008": 1.4408443434,
			"0.009": 1.8247660285,
			"0.01": 1.19514504249,
			"0.011": 1.70279948957,
			"0.012": 2.52014254715,
			"0.013": 6.40076595479,
			"0.014": 0.671655216306,
			"0.015": 0.0,
			"0.016": 0.0,
			"0.017": 0.0,
			"0.018": 0.0,
			"0.019": 0.0,
			"0.02": 0.0,
			"0.021": 0.0,
			"0.022": 0.0,
			"0.023": 0.0,
			"0.024": 0.0,
			"0.025": 0.0
		}
	}
}
