{
	 "smiles": "CC1=CC(C(O)=O)=C(Cl)C=C1", 
	 "Tm": 422.15, 
	 "num_atms": 18, 
	 "gaussian": { 
		 "optdone": 1, 
		 "sigma_profile": "yes", 
		 "theory": "DFT", 
		 "functional": "B3LYP", 
		 "basiset": "6-31G**", 
		 "properties": { 
			 "R2extent": 2347.3697, 
			 "electric_dipole_moment_norm": 3.74019804422, 
			 "electric_quadrupole_moment_norm": 12.3949805607, 
			 "total_energy": -919.727978711, 
			 "HOMO_LUMO_gap": 0.18979, 
			 "cosmo_polarized_energy": -10.25, 
			 "cosmo_cavitation_energy": 24.06, 
			 "cosmo_dispersion_energy": -17.99, 
			 "cosmo_repulsion_energy": 1.45, 
			 "cosmo_total_nonelectrostatic_energy": 7.51, 
			 "SMD_solvation_energy": 5.17 
		},
		"coords": [
			{
				"x": 0.2559055506,
				"y": 2.767503791,
				"z": -0.8129937083,
				"element": "C" 
			},
			{
				"x": -0.1432953201,
				"y": 1.3148946545,
				"z": -0.7085742706,
				"element": "C" 
			},
			{
				"x": -0.0324408062,
				"y": 0.6169329589,
				"z": 0.4921584498,
				"element": "C" 
			},
			{
				"x": -0.3963251893,
				"y": -0.7375717528,
				"z": 0.6235864148,
				"element": "C" 
			},
			{
				"x": -0.2430159557,
				"y": -1.399957687,
				"z": 1.9524434429,
				"element": "C" 
			},
			{
				"x": 0.2673595772,
				"y": -0.552649454,
				"z": 2.889369067,
				"element": "O" 
			},
			{
				"x": -0.520426119,
				"y": -2.5467950585,
				"z": 2.2292257323,
				"element": "O" 
			},
			{
				"x": -0.890910627,
				"y": -1.4007563755,
				"z": -0.51569813,
				"element": "C" 
			},
			{
				"x": -1.3843489937,
				"y": -3.0792774477,
				"z": -0.5215072178,
				"element": "Cl" 
			},
			{
				"x": -1.0079193343,
				"y": -0.7150915499,
				"z": -1.7279438585,
				"element": "C" 
			},
			{
				"x": -0.6397600854,
				"y": 0.6217753744,
				"z": -1.8216133144,
				"element": "C" 
			},
			{
				"x": 0.6221048313,
				"y": 3.1497242333,
				"z": 0.1432033679,
				"element": "H" 
			},
			{
				"x": -0.5907352814,
				"y": 3.3914350797,
				"z": -1.1212199199,
				"element": "H" 
			},
			{
				"x": 1.0483897093,
				"y": 2.9097294929,
				"z": -1.5564989644,
				"element": "H" 
			},
			{
				"x": 0.3480217443,
				"y": 1.1252214259,
				"z": 1.3700035503,
				"element": "H" 
			},
			{
				"x": 0.3222802148,
				"y": -1.0803267871,
				"z": 3.7025635719,
				"element": "H" 
			},
			{
				"x": -1.3905624151,
				"y": -1.2431639381,
				"z": -2.5941378277,
				"element": "H" 
			},
			{
				"x": -0.7407215004,
				"y": 1.1323730398,
				"z": -2.7761663854,
				"element": "H" 
			}
		],
		 "valence_orbital": [ 
			{
				"type": "occ",
				"energy": -0.31873,
				"method": "rhf"
			},
			{
				"type": "occ",
				"energy": -0.31542,
				"method": "rhf"
			},
			{
				"type": "occ",
				"energy": -0.27138,
				"method": "rhf"
			},
			{
				"type": "occ",
				"energy": -0.26675,
				"method": "rhf"
			},
			{
				"type": "occ",
				"energy": -0.2459,
				"method": "rhf"
			},
			{
				"type": "unocc",
				"energy": -0.05611,
				"method": "rhf"
			},
			{
				"type": "unocc",
				"energy": -0.01619,
				"method": "rhf"
			},
			{
				"type": "unocc",
				"energy": 0.03249,
				"method": "rhf"
			},
			{
				"type": "unocc",
				"energy": 0.04765,
				"method": "rhf"
			},
			{
				"type": "unocc",
				"energy": 0.08099,
				"method": "rhf"
			}
		],
		"cosmo_sigma_profile": { 
			"-0.025": 0.0,
			"-0.024": 0.0,
			"-0.023": 0.0,
			"-0.022": 0.0,
			"-0.021": 0.0,
			"-0.02": 0.0,
			"-0.019": 0.00380915491777,
			"-0.018": 0.658683459061,
			"-0.017": 1.07840244444,
			"-0.016": 0.561173126287,
			"-0.015": 0.658192504703,
			"-0.014": 1.00485431395,
			"-0.013": 0.499848535682,
			"-0.012": 0.669427076814,
			"-0.011": 1.11775774056,
			"-0.01": 0.703143363039,
			"-0.009": 0.244014069007,
			"-0.008": 0.758248350663,
			"-0.007": 4.36275400689,
			"-0.006": 7.56110541295,
			"-0.005": 10.0947999648,
			"-0.004": 10.8862898663,
			"-0.003": 13.9003264963,
			"-0.002": 15.9236324657,
			"-0.001": 17.4170945921,
			"0.0": 18.0455468052,
			"0.001": 18.0954276949,
			"0.002": 19.4801802121,
			"0.003": 13.2591403559,
			"0.004": 8.7234093246,
			"0.005": 6.39258963964,
			"0.006": 3.87849499709,
			"0.007": 3.76855150042,
			"0.008": 1.90779765336,
			"0.009": 1.78526391682,
			"0.01": 1.9342840628,
			"0.011": 4.15355812263,
			"0.012": 4.53201493699,
			"0.013": 0.108976097324,
			"0.014": 0.0,
			"0.015": 0.0,
			"0.016": 0.0,
			"0.017": 0.0,
			"0.018": 0.0,
			"0.019": 0.0,
			"0.02": 0.0,
			"0.021": 0.0,
			"0.022": 0.0,
			"0.023": 0.0,
			"0.024": 0.0,
			"0.025": 0.0
		}
	}
}
