{
	 "smiles": "CC(C)(C)C(O)C(CC1=CC=C(Cl)C=C1Cl)N1C=NC=N1", 
	 "Tm": 421.15, 
	 "num_atms": 40, 
	 "gaussian": { 
		 "optdone": 1, 
		 "sigma_profile": "yes", 
		 "theory": "DFT", 
		 "functional": "B3LYP", 
		 "basiset": "6-31G**", 
		 "properties": { 
			 "R2extent": 9926.4791, 
			 "electric_dipole_moment_norm": 3.67296347654, 
			 "electric_quadrupole_moment_norm": 11.6727593516, 
			 "total_energy": -1742.90014728, 
			 "HOMO_LUMO_gap": 0.22366, 
			 "cosmo_polarized_energy": -13.21, 
			 "cosmo_cavitation_energy": 43.59, 
			 "cosmo_dispersion_energy": -29.6, 
			 "cosmo_repulsion_energy": 2.24, 
			 "cosmo_total_nonelectrostatic_energy": 16.24, 
			 "SMD_solvation_energy": 5.28 
		},
		"coords": [
			{
				"x": -2.2875810787,
				"y": -1.0667841039,
				"z": -0.8385687226,
				"element": "C" 
			},
			{
				"x": -1.9876342386,
				"y": 0.1439104703,
				"z": -1.7424768563,
				"element": "C" 
			},
			{
				"x": -0.9727145212,
				"y": -0.2611849217,
				"z": -2.830438024,
				"element": "C" 
			},
			{
				"x": -3.3082369288,
				"y": 0.5590702684,
				"z": -2.4365817736,
				"element": "C" 
			},
			{
				"x": -1.507869029,
				"y": 1.375789333,
				"z": -0.9041890915,
				"element": "C" 
			},
			{
				"x": -1.0668180987,
				"y": 2.4453606775,
				"z": -1.7452515877,
				"element": "O" 
			},
			{
				"x": -0.3644412994,
				"y": 1.2653512845,
				"z": 0.1437970807,
				"element": "C" 
			},
			{
				"x": -0.7493179591,
				"y": 0.6157729664,
				"z": 1.4917341129,
				"element": "C" 
			},
			{
				"x": 0.1808071878,
				"y": 0.9968021507,
				"z": 2.6238556416,
				"element": "C" 
			},
			{
				"x": 1.226201602,
				"y": 0.1413737324,
				"z": 3.0025076798,
				"element": "C" 
			},
			{
				"x": 2.1009347644,
				"y": 0.450435236,
				"z": 4.0414237067,
				"element": "C" 
			},
			{
				"x": 1.9311541896,
				"y": 1.6497803136,
				"z": 4.7301322892,
				"element": "C" 
			},
			{
				"x": 3.0159725296,
				"y": 2.0617413395,
				"z": 6.0471249959,
				"element": "Cl" 
			},
			{
				"x": 0.9096384054,
				"y": 2.5340290712,
				"z": 4.3922834082,
				"element": "C" 
			},
			{
				"x": 0.0542695608,
				"y": 2.1942069359,
				"z": 3.3445652563,
				"element": "C" 
			},
			{
				"x": -1.2272569175,
				"y": 3.3413339917,
				"z": 2.9487475073,
				"element": "Cl" 
			},
			{
				"x": 0.8747558814,
				"y": 0.6880632099,
				"z": -0.3862455856,
				"element": "N" 
			},
			{
				"x": 1.8308562148,
				"y": 1.3013691261,
				"z": -1.1197456589,
				"element": "C" 
			},
			{
				"x": 2.7829546012,
				"y": 0.4460942941,
				"z": -1.4588167014,
				"element": "N" 
			},
			{
				"x": 2.3480539282,
				"y": -0.7118097576,
				"z": -0.8937985326,
				"element": "C" 
			},
			{
				"x": 1.1984994967,
				"y": -0.6255698737,
				"z": -0.2348512603,
				"element": "N" 
			},
			{
				"x": -1.3706434561,
				"y": -1.4875509301,
				"z": -0.4193507955,
				"element": "H" 
			},
			{
				"x": -2.9665706239,
				"y": -0.8066967316,
				"z": -0.0181266611,
				"element": "H" 
			},
			{
				"x": -2.7730660717,
				"y": -1.8544251202,
				"z": -1.42491839,
				"element": "H" 
			},
			{
				"x": -0.6804391612,
				"y": 0.5971141648,
				"z": -3.441050631,
				"element": "H" 
			},
			{
				"x": -0.0697173348,
				"y": -0.6995037279,
				"z": -2.4030568201,
				"element": "H" 
			},
			{
				"x": -1.4218196557,
				"y": -1.0098496908,
				"z": -3.4922752215,
				"element": "H" 
			},
			{
				"x": -4.0703126031,
				"y": 0.8605722138,
				"z": -1.7089239089,
				"element": "H" 
			},
			{
				"x": -3.710137902,
				"y": -0.2791099662,
				"z": -3.0142664856,
				"element": "H" 
			},
			{
				"x": -3.1727996398,
				"y": 1.3859428515,
				"z": -3.1458135921,
				"element": "H" 
			},
			{
				"x": -2.3788166293,
				"y": 1.7114607703,
				"z": -0.3159132051,
				"element": "H" 
			},
			{
				"x": -1.730333942,
				"y": 2.5925640522,
				"z": -2.4303205532,
				"element": "H" 
			},
			{
				"x": -0.1256136563,
				"y": 2.3144146838,
				"z": 0.3428295091,
				"element": "H" 
			},
			{
				"x": -0.75875429,
				"y": -0.4685529732,
				"z": 1.3915336033,
				"element": "H" 
			},
			{
				"x": -1.7668025786,
				"y": 0.9346640106,
				"z": 1.7325828194,
				"element": "H" 
			},
			{
				"x": 1.3572127202,
				"y": -0.7831285582,
				"z": 2.4496167603,
				"element": "H" 
			},
			{
				"x": 2.9016982273,
				"y": -0.2275771304,
				"z": 4.3135202985,
				"element": "H" 
			},
			{
				"x": 0.7787350444,
				"y": 3.4646548446,
				"z": 4.9301998928,
				"element": "H" 
			},
			{
				"x": 1.7763296878,
				"y": 2.347532455,
				"z": -1.3833890489,
				"element": "H" 
			},
			{
				"x": 2.8908235736,
				"y": -1.6450609622,
				"z": -0.9605854542,
				"element": "H" 
			}
		],
		 "valence_orbital": [ 
			{
				"type": "occ",
				"energy": -0.27918,
				"method": "rhf"
			},
			{
				"type": "occ",
				"energy": -0.27472,
				"method": "rhf"
			},
			{
				"type": "occ",
				"energy": -0.26586,
				"method": "rhf"
			},
			{
				"type": "occ",
				"energy": -0.26269,
				"method": "rhf"
			},
			{
				"type": "occ",
				"energy": -0.24962,
				"method": "rhf"
			},
			{
				"type": "unocc",
				"energy": -0.02596,
				"method": "rhf"
			},
			{
				"type": "unocc",
				"energy": -0.02487,
				"method": "rhf"
			},
			{
				"type": "unocc",
				"energy": 0.00246,
				"method": "rhf"
			},
			{
				"type": "unocc",
				"energy": 0.0063,
				"method": "rhf"
			},
			{
				"type": "unocc",
				"energy": 0.04709,
				"method": "rhf"
			}
		],
		"cosmo_sigma_profile": { 
			"-0.025": 0.0,
			"-0.024": 0.0,
			"-0.023": 0.0,
			"-0.022": 0.0,
			"-0.021": 0.0,
			"-0.02": 0.0,
			"-0.019": 0.0,
			"-0.018": 0.0,
			"-0.017": 0.0,
			"-0.016": 0.0,
			"-0.015": 0.162222314067,
			"-0.014": 0.738596130928,
			"-0.013": 1.10196095535,
			"-0.012": 0.625017706535,
			"-0.011": 0.702841710457,
			"-0.01": 1.48224673385,
			"-0.009": 2.69879264694,
			"-0.008": 6.31617417449,
			"-0.007": 8.40846945696,
			"-0.006": 10.0116664007,
			"-0.005": 14.5195293722,
			"-0.004": 17.8412894074,
			"-0.003": 26.1009460227,
			"-0.002": 30.6950460438,
			"-0.001": 29.4466400784,
			"0.0": 34.491053254,
			"0.001": 47.480261214,
			"0.002": 38.7440189467,
			"0.003": 21.1273501017,
			"0.004": 21.9680375056,
			"0.005": 8.29557297632,
			"0.006": 4.09562901625,
			"0.007": 4.4892137911,
			"0.008": 2.66830351822,
			"0.009": 2.48151627372,
			"0.01": 3.16050286262,
			"0.011": 1.89663954389,
			"0.012": 1.48550251368,
			"0.013": 1.20706383986,
			"0.014": 1.34640972952,
			"0.015": 1.19832750403,
			"0.016": 0.913214940912,
			"0.017": 0.457376237137,
			"0.018": 0.0,
			"0.019": 0.0,
			"0.02": 0.0,
			"0.021": 0.0,
			"0.022": 0.0,
			"0.023": 0.0,
			"0.024": 0.0,
			"0.025": 0.0
		}
	}
}
