{
	 "smiles": "CNS(=O)(=O)C1=C(OC)C=C(N)C=C1", 
	 "Tm": 461.15, 
	 "num_atms": 26, 
	 "gaussian": { 
		 "optdone": 1, 
		 "sigma_profile": "yes", 
		 "theory": "DFT", 
		 "functional": "B3LYP", 
		 "basiset": "6-31G**", 
		 "properties": { 
			 "R2extent": 3103.8731, 
			 "electric_dipole_moment_norm": 7.0841635646, 
			 "electric_quadrupole_moment_norm": 15.6126216235, 
			 "total_energy": -1045.3645959, 
			 "HOMO_LUMO_gap": 0.2047, 
			 "cosmo_polarized_energy": -20.37, 
			 "cosmo_cavitation_energy": 30.29, 
			 "cosmo_dispersion_energy": -22.25, 
			 "cosmo_repulsion_energy": 1.71, 
			 "cosmo_total_nonelectrostatic_energy": 9.76, 
			 "SMD_solvation_energy": 4.75 
		},
		"coords": [
			{
				"x": -2.2887978624,
				"y": -1.6000247053,
				"z": -1.9965575277,
				"element": "C" 
			},
			{
				"x": -1.5371194692,
				"y": -2.2629503129,
				"z": -0.9259273406,
				"element": "N" 
			},
			{
				"x": -1.4132051098,
				"y": -1.4577779662,
				"z": 0.5441201595,
				"element": "S" 
			},
			{
				"x": -2.7557019291,
				"y": -0.9808100259,
				"z": 0.8869872466,
				"element": "O" 
			},
			{
				"x": -0.672791253,
				"y": -2.3575405228,
				"z": 1.4329330997,
				"element": "O" 
			},
			{
				"x": -0.40523035,
				"y": -0.0083546389,
				"z": 0.2445800285,
				"element": "C" 
			},
			{
				"x": 0.8994551542,
				"y": -0.1343583918,
				"z": -0.2593132458,
				"element": "C" 
			},
			{
				"x": 1.3664460225,
				"y": -1.3747689191,
				"z": -0.6373898012,
				"element": "O" 
			},
			{
				"x": 2.300579385,
				"y": -1.9833672185,
				"z": 0.2719950307,
				"element": "C" 
			},
			{
				"x": 1.6912011429,
				"y": 0.9941422559,
				"z": -0.4444405436,
				"element": "C" 
			},
			{
				"x": 1.1985926185,
				"y": 2.2728001352,
				"z": -0.1228694574,
				"element": "C" 
			},
			{
				"x": 1.9699443488,
				"y": 3.3999048921,
				"z": -0.3543040082,
				"element": "N" 
			},
			{
				"x": -0.114337698,
				"y": 2.3906782392,
				"z": 0.3750279368,
				"element": "C" 
			},
			{
				"x": -0.9031266219,
				"y": 1.2617163088,
				"z": 0.5491631903,
				"element": "C" 
			},
			{
				"x": -3.288044624,
				"y": -1.366552511,
				"z": -1.6273222627,
				"element": "H" 
			},
			{
				"x": -1.8163783911,
				"y": -0.6776698341,
				"z": -2.3628373951,
				"element": "H" 
			},
			{
				"x": -2.380594659,
				"y": -2.3038407937,
				"z": -2.8275271431,
				"element": "H" 
			},
			{
				"x": -0.6000165425,
				"y": -2.5538296031,
				"z": -1.1981743977,
				"element": "H" 
			},
			{
				"x": 1.8081383666,
				"y": -2.2123048469,
				"z": 1.2209243314,
				"element": "H" 
			},
			{
				"x": 2.6303581768,
				"y": -2.9068532071,
				"z": -0.2068545538,
				"element": "H" 
			},
			{
				"x": 3.1655464523,
				"y": -1.3307133109,
				"z": 0.4368959685,
				"element": "H" 
			},
			{
				"x": 2.6858732826,
				"y": 0.8755887186,
				"z": -0.8644648145,
				"element": "H" 
			},
			{
				"x": 1.7050930675,
				"y": 4.2369808875,
				"z": 0.143773602,
				"element": "H" 
			},
			{
				"x": 2.9687931695,
				"y": 3.2644884973,
				"z": -0.4062119176,
				"element": "H" 
			},
			{
				"x": -0.5111226485,
				"y": 3.3728011832,
				"z": 0.6163816796,
				"element": "H" 
			},
			{
				"x": -1.9144540287,
				"y": 1.3444156905,
				"z": 0.9324121352,
				"element": "H" 
			}
		],
		 "valence_orbital": [ 
			{
				"type": "occ",
				"energy": -0.29118,
				"method": "rhf"
			},
			{
				"type": "occ",
				"energy": -0.28694,
				"method": "rhf"
			},
			{
				"type": "occ",
				"energy": -0.26561,
				"method": "rhf"
			},
			{
				"type": "occ",
				"energy": -0.2555,
				"method": "rhf"
			},
			{
				"type": "occ",
				"energy": -0.22154,
				"method": "rhf"
			},
			{
				"type": "unocc",
				"energy": -0.01684,
				"method": "rhf"
			},
			{
				"type": "unocc",
				"energy": -0.01464,
				"method": "rhf"
			},
			{
				"type": "unocc",
				"energy": 0.06084,
				"method": "rhf"
			},
			{
				"type": "unocc",
				"energy": 0.07787,
				"method": "rhf"
			},
			{
				"type": "unocc",
				"energy": 0.0835,
				"method": "rhf"
			}
		],
		"cosmo_sigma_profile": { 
			"-0.025": 0.0,
			"-0.024": 0.0,
			"-0.023": 0.0,
			"-0.022": 0.0,
			"-0.021": 0.0,
			"-0.02": 0.0,
			"-0.019": 0.0,
			"-0.018": 0.0,
			"-0.017": 0.0,
			"-0.016": 0.0,
			"-0.015": 0.0,
			"-0.014": 0.366272264309,
			"-0.013": 2.64930844304,
			"-0.012": 2.83766504504,
			"-0.011": 4.22569277937,
			"-0.01": 4.26423781062,
			"-0.009": 3.69405218328,
			"-0.008": 3.75109777973,
			"-0.007": 5.71938398225,
			"-0.006": 11.8681138786,
			"-0.005": 15.2966515698,
			"-0.004": 18.3898143657,
			"-0.003": 21.5636949846,
			"-0.002": 20.4557398811,
			"-0.001": 11.539204386,
			"0.0": 10.0439928581,
			"0.001": 10.901879873,
			"0.002": 10.9846588849,
			"0.003": 14.6968337393,
			"0.004": 13.2096224204,
			"0.005": 7.04210319249,
			"0.006": 4.62753652303,
			"0.007": 4.94076259326,
			"0.008": 6.21646723176,
			"0.009": 5.7420359555,
			"0.01": 7.52274721008,
			"0.011": 8.35041953989,
			"0.012": 7.87437314752,
			"0.013": 0.904747986269,
			"0.014": 0.0,
			"0.015": 0.0,
			"0.016": 0.0,
			"0.017": 0.0,
			"0.018": 0.0,
			"0.019": 0.0,
			"0.02": 0.0,
			"0.021": 0.0,
			"0.022": 0.0,
			"0.023": 0.0,
			"0.024": 0.0,
			"0.025": 0.0
		}
	}
}
