{
	 "smiles": "O=S(=O)(SS(=O)(=O)C1=CC=CC=C1)C1=CC=CC=C1", 
	 "Tm": 405.15, 
	 "num_atms": 29, 
	 "gaussian": { 
		 "optdone": 1, 
		 "sigma_profile": "yes", 
		 "theory": "DFT", 
		 "functional": "B3LYP", 
		 "basiset": "6-31G**", 
		 "properties": { 
			 "R2extent": 7922.0469, 
			 "electric_dipole_moment_norm": 1.50975272479, 
			 "electric_quadrupole_moment_norm": 30.5813181866, 
			 "total_energy": -1958.61708375, 
			 "HOMO_LUMO_gap": 0.18635, 
			 "cosmo_polarized_energy": -13.72, 
			 "cosmo_cavitation_energy": 37.63, 
			 "cosmo_dispersion_energy": -27.86, 
			 "cosmo_repulsion_energy": 2.01, 
			 "cosmo_total_nonelectrostatic_energy": 11.78, 
			 "SMD_solvation_energy": 4.2 
		},
		"coords": [
			{
				"x": 2.9008030448,
				"y": 2.7041410921,
				"z": 0.3693768143,
				"element": "O" 
			},
			{
				"x": 1.6045721613,
				"y": 2.5091189947,
				"z": -0.2861157768,
				"element": "S" 
			},
			{
				"x": 0.3574085378,
				"y": 3.0158293715,
				"z": 0.2946489281,
				"element": "O" 
			},
			{
				"x": 1.4937945565,
				"y": 0.3359156272,
				"z": -0.4240109701,
				"element": "S" 
			},
			{
				"x": -0.6065442228,
				"y": -0.1281869376,
				"z": -0.7808186381,
				"element": "S" 
			},
			{
				"x": -1.2083740586,
				"y": 0.9514443068,
				"z": -1.5692941935,
				"element": "O" 
			},
			{
				"x": -0.5301103827,
				"y": -1.5037897118,
				"z": -1.2806362756,
				"element": "O" 
			},
			{
				"x": -1.377465833,
				"y": -0.1589039239,
				"z": 0.8357632875,
				"element": "C" 
			},
			{
				"x": -1.4378980105,
				"y": -1.377013646,
				"z": 1.5157471217,
				"element": "C" 
			},
			{
				"x": -2.056109306,
				"y": -1.4102878845,
				"z": 2.7649501397,
				"element": "C" 
			},
			{
				"x": -2.5946250431,
				"y": -0.2427015297,
				"z": 3.3118128585,
				"element": "C" 
			},
			{
				"x": -2.5226177074,
				"y": 0.9653744754,
				"z": 2.6139020917,
				"element": "C" 
			},
			{
				"x": -1.9102942234,
				"y": 1.0191738753,
				"z": 1.3620239174,
				"element": "C" 
			},
			{
				"x": 1.7337096807,
				"y": 3.095474515,
				"z": -1.9737603523,
				"element": "C" 
			},
			{
				"x": 3.0083206407,
				"y": 3.2772483194,
				"z": -2.5142310806,
				"element": "C" 
			},
			{
				"x": 3.1140960641,
				"y": 3.7538583236,
				"z": -3.8201892471,
				"element": "C" 
			},
			{
				"x": 1.9620976931,
				"y": 4.0347920369,
				"z": -4.5592667078,
				"element": "C" 
			},
			{
				"x": 0.6966451986,
				"y": 3.8450859872,
				"z": -3.9985549826,
				"element": "C" 
			},
			{
				"x": 0.5695271006,
				"y": 3.3714141248,
				"z": -2.6930038325,
				"element": "C" 
			},
			{
				"x": -1.0221144946,
				"y": -2.2717932968,
				"z": 1.0666851057,
				"element": "H" 
			},
			{
				"x": -2.1192286105,
				"y": -2.3480391033,
				"z": 3.3081222387,
				"element": "H" 
			},
			{
				"x": -3.0730728825,
				"y": -0.274811764,
				"z": 4.2861887584,
				"element": "H" 
			},
			{
				"x": -2.9429328588,
				"y": 1.8695621241,
				"z": 3.042823286,
				"element": "H" 
			},
			{
				"x": -1.8336958128,
				"y": 1.9478556943,
				"z": 0.8106350788,
				"element": "H" 
			},
			{
				"x": 3.887667186,
				"y": 3.0620256129,
				"z": -1.9179197997,
				"element": "H" 
			},
			{
				"x": 4.0954954759,
				"y": 3.9080468996,
				"z": -4.2577714814,
				"element": "H" 
			},
			{
				"x": 2.0512005046,
				"y": 4.4037618106,
				"z": -5.576751517,
				"element": "H" 
			},
			{
				"x": -0.195256924,
				"y": 4.0651981179,
				"z": -4.5767044292,
				"element": "H" 
			},
			{
				"x": -0.4020974736,
				"y": 3.2062064884,
				"z": -2.2446503422,
				"element": "H" 
			}
		],
		 "valence_orbital": [ 
			{
				"type": "occ",
				"energy": -0.29771,
				"method": "rhf"
			},
			{
				"type": "occ",
				"energy": -0.28313,
				"method": "rhf"
			},
			{
				"type": "occ",
				"energy": -0.27624,
				"method": "rhf"
			},
			{
				"type": "occ",
				"energy": -0.27522,
				"method": "rhf"
			},
			{
				"type": "occ",
				"energy": -0.26686,
				"method": "rhf"
			},
			{
				"type": "unocc",
				"energy": -0.08051,
				"method": "rhf"
			},
			{
				"type": "unocc",
				"energy": -0.07776,
				"method": "rhf"
			},
			{
				"type": "unocc",
				"energy": -0.03581,
				"method": "rhf"
			},
			{
				"type": "unocc",
				"energy": -0.03063,
				"method": "rhf"
			},
			{
				"type": "unocc",
				"energy": -0.02559,
				"method": "rhf"
			}
		],
		"cosmo_sigma_profile": { 
			"-0.025": 0.0,
			"-0.024": 0.0,
			"-0.023": 0.0,
			"-0.022": 0.0,
			"-0.021": 0.0,
			"-0.02": 0.0,
			"-0.019": 0.0,
			"-0.018": 0.0,
			"-0.017": 0.0,
			"-0.016": 0.0,
			"-0.015": 0.0,
			"-0.014": 0.0,
			"-0.013": 0.0,
			"-0.012": 0.0,
			"-0.011": 0.0,
			"-0.01": 0.0,
			"-0.009": 0.0,
			"-0.008": 3.09271541236,
			"-0.007": 19.3993610662,
			"-0.006": 23.0089505935,
			"-0.005": 20.2855155861,
			"-0.004": 15.1716865577,
			"-0.003": 16.8860314477,
			"-0.002": 17.451262072,
			"-0.001": 18.9541206199,
			"0.0": 26.0459116388,
			"0.001": 30.198510799,
			"0.002": 36.8408371883,
			"0.003": 20.5318916739,
			"0.004": 9.62205771825,
			"0.005": 7.62355027203,
			"0.006": 6.46820686036,
			"0.007": 6.16116551285,
			"0.008": 10.8518250018,
			"0.009": 13.5971855014,
			"0.01": 3.66110370581,
			"0.011": 0.0,
			"0.012": 0.0,
			"0.013": 0.0,
			"0.014": 0.0,
			"0.015": 0.0,
			"0.016": 0.0,
			"0.017": 0.0,
			"0.018": 0.0,
			"0.019": 0.0,
			"0.02": 0.0,
			"0.021": 0.0,
			"0.022": 0.0,
			"0.023": 0.0,
			"0.024": 0.0,
			"0.025": 0.0
		}
	}
}
