{
	 "smiles": "BrC1=CC=C(NN=C2/SC(=N)NC2=O)C=C1", 
	 "Tm": 557.15, 
	 "num_atms": 23, 
	 "gaussian": { 
		 "optdone": 1, 
		 "sigma_profile": "yes", 
		 "theory": "DFT", 
		 "functional": "B3LYP", 
		 "basiset": "6-31G**", 
		 "properties": { 
			 "R2extent": 9711.6406, 
			 "electric_dipole_moment_norm": 3.72944384728, 
			 "electric_quadrupole_moment_norm": 14.3305953006, 
			 "total_energy": -3610.97083197, 
			 "HOMO_LUMO_gap": 0.14307, 
			 "cosmo_polarized_energy": -19.31, 
			 "cosmo_cavitation_energy": 33.28, 
			 "cosmo_dispersion_energy": -25.28, 
			 "cosmo_repulsion_energy": 1.93, 
			 "cosmo_total_nonelectrostatic_energy": 9.93, 
			 "SMD_solvation_energy": 3.77 
		},
		"coords": [
			{
				"x": -4.8178654675,
				"y": 0.5179666824,
				"z": 2.7588051139,
				"element": "Br" 
			},
			{
				"x": -3.3028656801,
				"y": -0.0273809589,
				"z": 1.7313629187,
				"element": "C" 
			},
			{
				"x": -3.1585181386,
				"y": -1.3666837,
				"z": 1.374234499,
				"element": "C" 
			},
			{
				"x": -2.0527821552,
				"y": -1.7611157737,
				"z": 0.6252535936,
				"element": "C" 
			},
			{
				"x": -1.0934192019,
				"y": -0.8178732472,
				"z": 0.2342709734,
				"element": "C" 
			},
			{
				"x": 0.0064466793,
				"y": -1.2510749766,
				"z": -0.5191402769,
				"element": "N" 
			},
			{
				"x": 0.9473401453,
				"y": -0.4048593341,
				"z": -0.9165322225,
				"element": "N" 
			},
			{
				"x": 1.9513860944,
				"y": -0.806431835,
				"z": -1.6049162736,
				"element": "C" 
			},
			{
				"x": 2.3122656694,
				"y": -2.4779412305,
				"z": -2.161602419,
				"element": "S" 
			},
			{
				"x": 3.8376902042,
				"y": -1.9121027777,
				"z": -2.9686359574,
				"element": "C" 
			},
			{
				"x": 4.6815748885,
				"y": -2.5969081291,
				"z": -3.6172346994,
				"element": "N" 
			},
			{
				"x": 3.9655881357,
				"y": -0.549241697,
				"z": -2.7696949181,
				"element": "N" 
			},
			{
				"x": 3.0062704077,
				"y": 0.153540131,
				"z": -2.0478949179,
				"element": "C" 
			},
			{
				"x": 3.0446738617,
				"y": 1.3459439785,
				"z": -1.8296026888,
				"element": "O" 
			},
			{
				"x": -1.2453191911,
				"y": 0.5274385892,
				"z": 0.5970748905,
				"element": "C" 
			},
			{
				"x": -2.3517516311,
				"y": 0.9178958242,
				"z": 1.3457470908,
				"element": "C" 
			},
			{
				"x": -3.9003965214,
				"y": -2.0967153655,
				"z": 1.6765074867,
				"element": "H" 
			},
			{
				"x": -1.9388132236,
				"y": -2.8056541842,
				"z": 0.3459919541,
				"element": "H" 
			},
			{
				"x": 0.0678468888,
				"y": -2.2383957767,
				"z": -0.7553289416,
				"element": "H" 
			},
			{
				"x": 4.4364414561,
				"y": -3.5836939904,
				"z": -3.6690330287,
				"element": "H" 
			},
			{
				"x": 4.7677737994,
				"y": -0.0695338933,
				"z": -3.1574206283,
				"element": "H" 
			},
			{
				"x": -0.4990251838,
				"y": 1.2503962296,
				"z": 0.2907146803,
				"element": "H" 
			},
			{
				"x": -2.4731418361,
				"y": 1.9573254349,
				"z": 1.6285737714,
				"element": "H" 
			}
		],
		 "valence_orbital": [ 
			{
				"type": "occ",
				"energy": -0.28077,
				"method": "rhf"
			},
			{
				"type": "occ",
				"energy": -0.27822,
				"method": "rhf"
			},
			{
				"type": "occ",
				"energy": -0.27319,
				"method": "rhf"
			},
			{
				"type": "occ",
				"energy": -0.26445,
				"method": "rhf"
			},
			{
				"type": "occ",
				"energy": -0.21613,
				"method": "rhf"
			},
			{
				"type": "unocc",
				"energy": -0.07306,
				"method": "rhf"
			},
			{
				"type": "unocc",
				"energy": -0.02944,
				"method": "rhf"
			},
			{
				"type": "unocc",
				"energy": -0.02287,
				"method": "rhf"
			},
			{
				"type": "unocc",
				"energy": -0.0069,
				"method": "rhf"
			},
			{
				"type": "unocc",
				"energy": 0.00444,
				"method": "rhf"
			}
		],
		"cosmo_sigma_profile": { 
			"-0.025": 0.0,
			"-0.024": 0.0,
			"-0.023": 0.0,
			"-0.022": 0.0,
			"-0.021": 0.0,
			"-0.02": 0.0,
			"-0.019": 0.0,
			"-0.018": 0.0,
			"-0.017": 0.53079168146,
			"-0.016": 1.90210058592,
			"-0.015": 2.19741679995,
			"-0.014": 2.37076052567,
			"-0.013": 2.34281764986,
			"-0.012": 4.18932665733,
			"-0.011": 4.1524686003,
			"-0.01": 2.64508124055,
			"-0.009": 3.17195977848,
			"-0.008": 4.57621445823,
			"-0.007": 8.66957784738,
			"-0.006": 9.33414472672,
			"-0.005": 11.9046109915,
			"-0.004": 12.7485511791,
			"-0.003": 12.2844571443,
			"-0.002": 17.440539529,
			"-0.001": 16.7228946874,
			"0.0": 18.3210098061,
			"0.001": 21.3820107039,
			"0.002": 23.995408546,
			"0.003": 27.6527267523,
			"0.004": 19.1325614792,
			"0.005": 12.2615484659,
			"0.006": 3.08486385854,
			"0.007": 3.10104254372,
			"0.008": 3.10534131134,
			"0.009": 2.9376551388,
			"0.01": 3.10150739994,
			"0.011": 5.6001535755,
			"0.012": 7.12641474749,
			"0.013": 3.19739040592,
			"0.014": 1.13773595157,
			"0.015": 0.822306348655,
			"0.016": 0.171257518024,
			"0.017": 0.0,
			"0.018": 0.0,
			"0.019": 0.0,
			"0.02": 0.0,
			"0.021": 0.0,
			"0.022": 0.0,
			"0.023": 0.0,
			"0.024": 0.0,
			"0.025": 0.0
		}
	}
}
