{
	 "smiles": "CCCC1=NN(C)C(=O)C1", 
	 "Tm": 388.15, 
	 "num_atms": 22, 
	 "gaussian": { 
		 "optdone": 1, 
		 "sigma_profile": "yes", 
		 "theory": "DFT", 
		 "functional": "B3LYP", 
		 "basiset": "6-31G**", 
		 "properties": { 
			 "R2extent": 2265.3008, 
			 "electric_dipole_moment_norm": 2.81119590388, 
			 "electric_quadrupole_moment_norm": 14.5393052035, 
			 "total_energy": -458.695000218, 
			 "HOMO_LUMO_gap": 0.20088, 
			 "cosmo_polarized_energy": -10.28, 
			 "cosmo_cavitation_energy": 24.92, 
			 "cosmo_dispersion_energy": -18.03, 
			 "cosmo_repulsion_energy": 1.5, 
			 "cosmo_total_nonelectrostatic_energy": 8.39, 
			 "SMD_solvation_energy": 4.06 
		},
		"coords": [
			{
				"x": 1.5354782914,
				"y": -0.0402050324,
				"z": 1.4301790725,
				"element": "C" 
			},
			{
				"x": 0.0687033729,
				"y": 0.2767632003,
				"z": 1.737474557,
				"element": "C" 
			},
			{
				"x": -0.5933972178,
				"y": 1.3026957392,
				"z": 0.7877759202,
				"element": "C" 
			},
			{
				"x": -0.7062453147,
				"y": 0.8558381013,
				"z": -0.6420257519,
				"element": "C" 
			},
			{
				"x": -1.7438321109,
				"y": 0.2107200761,
				"z": -1.0610385601,
				"element": "N" 
			},
			{
				"x": -1.5631352849,
				"y": -0.0747426848,
				"z": -2.4121685747,
				"element": "N" 
			},
			{
				"x": -2.58327598,
				"y": -0.7856525787,
				"z": -3.1466518084,
				"element": "C" 
			},
			{
				"x": -0.3781313547,
				"y": 0.403889589,
				"z": -2.9331615253,
				"element": "C" 
			},
			{
				"x": 0.0054835933,
				"y": 0.2899876606,
				"z": -4.0849621228,
				"element": "O" 
			},
			{
				"x": 0.2984136229,
				"y": 1.0860783289,
				"z": -1.7418317891,
				"element": "C" 
			},
			{
				"x": 2.1463869311,
				"y": 0.8699986071,
				"z": 1.4118386023,
				"element": "H" 
			},
			{
				"x": 1.9569102173,
				"y": -0.7051961313,
				"z": 2.1907375503,
				"element": "H" 
			},
			{
				"x": 1.6510125617,
				"y": -0.5414265121,
				"z": 0.4636029737,
				"element": "H" 
			},
			{
				"x": -0.0084969385,
				"y": 0.6726934702,
				"z": 2.7576404701,
				"element": "H" 
			},
			{
				"x": -0.5228414782,
				"y": -0.6460359548,
				"z": 1.716298283,
				"element": "H" 
			},
			{
				"x": -1.6046993312,
				"y": 1.5096006755,
				"z": 1.1531272019,
				"element": "H" 
			},
			{
				"x": -0.0330006332,
				"y": 2.2458583741,
				"z": 0.8260387129,
				"element": "H" 
			},
			{
				"x": -2.750441182,
				"y": -1.7793743511,
				"z": -2.7191160705,
				"element": "H" 
			},
			{
				"x": -3.5278603968,
				"y": -0.2322877681,
				"z": -3.1379510431,
				"element": "H" 
			},
			{
				"x": -2.2250103031,
				"y": -0.883489295,
				"z": -4.1727769868,
				"element": "H" 
			},
			{
				"x": 1.2810286416,
				"y": 0.6446696113,
				"z": -1.545578497,
				"element": "H" 
			},
			{
				"x": 0.4633502936,
				"y": 2.1499168748,
				"z": -1.9493506142,
				"element": "H" 
			}
		],
		 "valence_orbital": [ 
			{
				"type": "occ",
				"energy": -0.34203,
				"method": "rhf"
			},
			{
				"type": "occ",
				"energy": -0.33482,
				"method": "rhf"
			},
			{
				"type": "occ",
				"energy": -0.30683,
				"method": "rhf"
			},
			{
				"type": "occ",
				"energy": -0.24613,
				"method": "rhf"
			},
			{
				"type": "occ",
				"energy": -0.22264,
				"method": "rhf"
			},
			{
				"type": "unocc",
				"energy": -0.02176,
				"method": "rhf"
			},
			{
				"type": "unocc",
				"energy": 0.04134,
				"method": "rhf"
			},
			{
				"type": "unocc",
				"energy": 0.0829,
				"method": "rhf"
			},
			{
				"type": "unocc",
				"energy": 0.1089,
				"method": "rhf"
			},
			{
				"type": "unocc",
				"energy": 0.11845,
				"method": "rhf"
			}
		],
		"cosmo_sigma_profile": { 
			"-0.025": 0.0,
			"-0.024": 0.0,
			"-0.023": 0.0,
			"-0.022": 0.0,
			"-0.021": 0.0,
			"-0.02": 0.0,
			"-0.019": 0.0,
			"-0.018": 0.0,
			"-0.017": 0.0,
			"-0.016": 0.0,
			"-0.015": 0.0,
			"-0.014": 0.0,
			"-0.013": 0.0,
			"-0.012": 0.0,
			"-0.011": 0.0,
			"-0.01": 0.0,
			"-0.009": 0.0672554997933,
			"-0.008": 2.10526937507,
			"-0.007": 4.41123881292,
			"-0.006": 6.82067014504,
			"-0.005": 13.2413495653,
			"-0.004": 16.7152246585,
			"-0.003": 24.1265527849,
			"-0.002": 27.206128943,
			"-0.001": 23.5081538367,
			"0.0": 19.2064544751,
			"0.001": 13.4080309641,
			"0.002": 5.32815423288,
			"0.003": 3.81496400897,
			"0.004": 3.42205772628,
			"0.005": 3.06916209674,
			"0.006": 3.16761186443,
			"0.007": 2.40568171801,
			"0.008": 2.2353267609,
			"0.009": 2.07367639678,
			"0.01": 2.20222902868,
			"0.011": 2.53787622948,
			"0.012": 3.76116912791,
			"0.013": 6.37681441676,
			"0.014": 3.44764013588,
			"0.015": 0.600462022034,
			"0.016": 0.0,
			"0.017": 0.0,
			"0.018": 0.0,
			"0.019": 0.0,
			"0.02": 0.0,
			"0.021": 0.0,
			"0.022": 0.0,
			"0.023": 0.0,
			"0.024": 0.0,
			"0.025": 0.0
		}
	}
}
