{
	 "smiles": "CCC(C)(OC(=O)C1=C(C=CC=C1)C(O)=O)C#C", 
	 "Tm": 370.15, 
	 "num_atms": 32, 
	 "gaussian": { 
		 "optdone": 1, 
		 "sigma_profile": "yes", 
		 "theory": "DFT", 
		 "functional": "B3LYP", 
		 "basiset": "6-31G**", 
		 "properties": { 
			 "R2extent": 5443.8604, 
			 "electric_dipole_moment_norm": 3.12440384714, 
			 "electric_quadrupole_moment_norm": 12.1373280144, 
			 "total_energy": -842.775311424, 
			 "HOMO_LUMO_gap": 0.2031, 
			 "cosmo_polarized_energy": -14.38, 
			 "cosmo_cavitation_energy": 37.07, 
			 "cosmo_dispersion_energy": -24.72, 
			 "cosmo_repulsion_energy": 1.93, 
			 "cosmo_total_nonelectrostatic_energy": 14.27, 
			 "SMD_solvation_energy": 9.57 
		},
		"coords": [
			{
				"x": -2.2539196117,
				"y": 0.1890950055,
				"z": 3.1065514802,
				"element": "C" 
			},
			{
				"x": -1.6483077065,
				"y": 0.296464882,
				"z": 1.703343283,
				"element": "C" 
			},
			{
				"x": -0.1051640371,
				"y": 0.4285952304,
				"z": 1.6823108401,
				"element": "C" 
			},
			{
				"x": 0.6297139685,
				"y": -0.7956748579,
				"z": 2.2534546495,
				"element": "C" 
			},
			{
				"x": 0.3434322247,
				"y": 0.6837479869,
				"z": 0.2982480404,
				"element": "O" 
			},
			{
				"x": 0.1555756115,
				"y": -0.226624611,
				"z": -0.6805366545,
				"element": "C" 
			},
			{
				"x": -0.3570997517,
				"y": -1.3192091654,
				"z": -0.5408787669,
				"element": "O" 
			},
			{
				"x": 0.6215505432,
				"y": 0.3066869465,
				"z": -2.0021873999,
				"element": "C" 
			},
			{
				"x": 1.0112708958,
				"y": -0.5715099591,
				"z": -3.033954687,
				"element": "C" 
			},
			{
				"x": 1.2636505825,
				"y": -0.0640262724,
				"z": -4.3120358924,
				"element": "C" 
			},
			{
				"x": 1.1724462389,
				"y": 1.3042193018,
				"z": -4.5654574872,
				"element": "C" 
			},
			{
				"x": 0.8204801365,
				"y": 2.1785139393,
				"z": -3.5372797217,
				"element": "C" 
			},
			{
				"x": 0.541967257,
				"y": 1.6800585821,
				"z": -2.2651473716,
				"element": "C" 
			},
			{
				"x": 1.2207331714,
				"y": -2.0449491122,
				"z": -2.8542846916,
				"element": "C" 
			},
			{
				"x": 1.9749817321,
				"y": -2.3376914666,
				"z": -1.7723468745,
				"element": "O" 
			},
			{
				"x": 0.8448916007,
				"y": -2.8847562591,
				"z": -3.6436756672,
				"element": "O" 
			},
			{
				"x": 0.3161048369,
				"y": 1.6437417861,
				"z": 2.3977754297,
				"element": "C" 
			},
			{
				"x": 0.6467775392,
				"y": 2.6246762966,
				"z": 3.0182973818,
				"element": "C" 
			},
			{
				"x": -3.3454379155,
				"y": 0.1575968813,
				"z": 3.0375608814,
				"element": "H" 
			},
			{
				"x": -1.9327022274,
				"y": -0.7223830828,
				"z": 3.6201317862,
				"element": "H" 
			},
			{
				"x": -1.9796814026,
				"y": 1.045856073,
				"z": 3.7289753777,
				"element": "H" 
			},
			{
				"x": -1.9119167371,
				"y": -0.5811542666,
				"z": 1.109621439,
				"element": "H" 
			},
			{
				"x": -2.0540427089,
				"y": 1.1766912232,
				"z": 1.1923053105,
				"element": "H" 
			},
			{
				"x": 1.7067655738,
				"y": -0.6756705875,
				"z": 2.1131934584,
				"element": "H" 
			},
			{
				"x": 0.4332502355,
				"y": -0.8761341389,
				"z": 3.3250455473,
				"element": "H" 
			},
			{
				"x": 0.2987781349,
				"y": -1.7044974699,
				"z": 1.7510039165,
				"element": "H" 
			},
			{
				"x": 1.5425986774,
				"y": -0.7564639615,
				"z": -5.0992709664,
				"element": "H" 
			},
			{
				"x": 1.3780937466,
				"y": 1.6840689604,
				"z": -5.5617070863,
				"element": "H" 
			},
			{
				"x": 0.7498335957,
				"y": 3.2455361626,
				"z": -3.7258218074,
				"element": "H" 
			},
			{
				"x": 0.2428799102,
				"y": 2.3484572021,
				"z": -1.4661456976,
				"element": "H" 
			},
			{
				"x": 2.0287219233,
				"y": -3.3075293632,
				"z": -1.7383121754,
				"element": "H" 
			},
			{
				"x": 0.9466739621,
				"y": 3.4929681142,
				"z": 3.558324126,
				"element": "H" 
			}
		],
		 "valence_orbital": [ 
			{
				"type": "occ",
				"energy": -0.28281,
				"method": "rhf"
			},
			{
				"type": "occ",
				"energy": -0.2738,
				"method": "rhf"
			},
			{
				"type": "occ",
				"energy": -0.2732,
				"method": "rhf"
			},
			{
				"type": "occ",
				"energy": -0.26443,
				"method": "rhf"
			},
			{
				"type": "occ",
				"energy": -0.25915,
				"method": "rhf"
			},
			{
				"type": "unocc",
				"energy": -0.05605,
				"method": "rhf"
			},
			{
				"type": "unocc",
				"energy": -0.02731,
				"method": "rhf"
			},
			{
				"type": "unocc",
				"energy": 0.02463,
				"method": "rhf"
			},
			{
				"type": "unocc",
				"energy": 0.03053,
				"method": "rhf"
			},
			{
				"type": "unocc",
				"energy": 0.04136,
				"method": "rhf"
			}
		],
		"cosmo_sigma_profile": { 
			"-0.025": 0.0,
			"-0.024": 0.0,
			"-0.023": 0.0,
			"-0.022": 0.0,
			"-0.021": 0.0,
			"-0.02": 0.0,
			"-0.019": 0.040173697458,
			"-0.018": 1.07073929157,
			"-0.017": 0.595995554602,
			"-0.016": 0.989069031374,
			"-0.015": 0.405719647653,
			"-0.014": 1.59704205718,
			"-0.013": 0.421370418055,
			"-0.012": 1.44816989808,
			"-0.011": 1.68935222753,
			"-0.01": 1.54532445683,
			"-0.009": 2.00123491863,
			"-0.008": 2.58659527547,
			"-0.007": 6.77522358767,
			"-0.006": 10.2802939843,
			"-0.005": 13.525867516,
			"-0.004": 17.5858409068,
			"-0.003": 22.2672039642,
			"-0.002": 26.6059375305,
			"-0.001": 28.7945348514,
			"0.0": 27.4236952643,
			"0.001": 22.3110757625,
			"0.002": 25.1198109832,
			"0.003": 18.0946722668,
			"0.004": 9.2287243838,
			"0.005": 11.7692891233,
			"0.006": 10.5346485827,
			"0.007": 8.2381023979,
			"0.008": 4.21608843453,
			"0.009": 3.78821613681,
			"0.01": 4.19730469332,
			"0.011": 6.67679146232,
			"0.012": 3.13136090773,
			"0.013": 0.199497539523,
			"0.014": 0.0,
			"0.015": 0.0,
			"0.016": 0.0,
			"0.017": 0.0,
			"0.018": 0.0,
			"0.019": 0.0,
			"0.02": 0.0,
			"0.021": 0.0,
			"0.022": 0.0,
			"0.023": 0.0,
			"0.024": 0.0,
			"0.025": 0.0
		}
	}
}
