{
	 "smiles": "OC(=O)C1=CC=CC=C1C(F)(F)F", 
	 "Tm": 383.15, 
	 "num_atms": 18, 
	 "gaussian": { 
		 "optdone": 1, 
		 "sigma_profile": "yes", 
		 "theory": "DFT", 
		 "functional": "B3LYP", 
		 "basiset": "6-31G**", 
		 "properties": { 
			 "R2extent": 2190.934, 
			 "electric_dipole_moment_norm": 6.07816585822, 
			 "electric_quadrupole_moment_norm": 9.90648396607, 
			 "total_energy": -757.839150648, 
			 "HOMO_LUMO_gap": 0.21416, 
			 "cosmo_polarized_energy": -14.91, 
			 "cosmo_cavitation_energy": 23.92, 
			 "cosmo_dispersion_energy": -17.14, 
			 "cosmo_repulsion_energy": 1.3, 
			 "cosmo_total_nonelectrostatic_energy": 8.08, 
			 "SMD_solvation_energy": 6.18 
		},
		"coords": [
			{
				"x": -1.8731396949,
				"y": 0.1278221828,
				"z": 2.2264747098,
				"element": "O" 
			},
			{
				"x": -0.7792287812,
				"y": 0.5439298671,
				"z": 1.5325295871,
				"element": "C" 
			},
			{
				"x": 0.2790792765,
				"y": 0.6928061236,
				"z": 2.0856264538,
				"element": "O" 
			},
			{
				"x": -1.0313470405,
				"y": 0.8582316917,
				"z": 0.0786225706,
				"element": "C" 
			},
			{
				"x": -2.133726762,
				"y": 1.6611907046,
				"z": -0.2439144532,
				"element": "C" 
			},
			{
				"x": -2.3731744928,
				"y": 2.0570829089,
				"z": -1.5600583244,
				"element": "C" 
			},
			{
				"x": -1.5170343207,
				"y": 1.6341203334,
				"z": -2.5737471809,
				"element": "C" 
			},
			{
				"x": -0.4253255632,
				"y": 0.8199578925,
				"z": -2.2677262403,
				"element": "C" 
			},
			{
				"x": -0.1690321058,
				"y": 0.434205854,
				"z": -0.9512152835,
				"element": "C" 
			},
			{
				"x": 1.026086384,
				"y": -0.4568400007,
				"z": -0.6761338562,
				"element": "C" 
			},
			{
				"x": 1.4710779811,
				"y": -1.0335122568,
				"z": -1.8186017721,
				"element": "F" 
			},
			{
				"x": 0.7106697595,
				"y": -1.4591947574,
				"z": 0.1716007022,
				"element": "F" 
			},
			{
				"x": 2.0588264964,
				"y": 0.2223122302,
				"z": -0.1519923926,
				"element": "F" 
			},
			{
				"x": -2.5990355618,
				"y": -0.0599714019,
				"z": 1.6143037122,
				"element": "H" 
			},
			{
				"x": -2.7902363053,
				"y": 2.0065315007,
				"z": 0.549819235,
				"element": "H" 
			},
			{
				"x": -3.2233686675,
				"y": 2.6927833443,
				"z": -1.7874502489,
				"element": "H" 
			},
			{
				"x": -1.6965180394,
				"y": 1.9297006683,
				"z": -3.6026808302,
				"element": "H" 
			},
			{
				"x": 0.2306274375,
				"y": 0.4709431146,
				"z": -3.0562563884,
				"element": "H" 
			}
		],
		 "valence_orbital": [ 
			{
				"type": "occ",
				"energy": -0.37009,
				"method": "rhf"
			},
			{
				"type": "occ",
				"energy": -0.32376,
				"method": "rhf"
			},
			{
				"type": "occ",
				"energy": -0.29204,
				"method": "rhf"
			},
			{
				"type": "occ",
				"energy": -0.28768,
				"method": "rhf"
			},
			{
				"type": "occ",
				"energy": -0.27343,
				"method": "rhf"
			},
			{
				"type": "unocc",
				"energy": -0.05927,
				"method": "rhf"
			},
			{
				"type": "unocc",
				"energy": -0.04154,
				"method": "rhf"
			},
			{
				"type": "unocc",
				"energy": 0.02191,
				"method": "rhf"
			},
			{
				"type": "unocc",
				"energy": 0.06385,
				"method": "rhf"
			},
			{
				"type": "unocc",
				"energy": 0.0807,
				"method": "rhf"
			}
		],
		"cosmo_sigma_profile": { 
			"-0.025": 0.0,
			"-0.024": 0.0,
			"-0.023": 0.0,
			"-0.022": 0.0,
			"-0.021": 0.0,
			"-0.02": 0.0,
			"-0.019": 0.239621361978,
			"-0.018": 1.08411854874,
			"-0.017": 0.976775903191,
			"-0.016": 0.5228070705,
			"-0.015": 0.820583373437,
			"-0.014": 1.1358290531,
			"-0.013": 1.14504599367,
			"-0.012": 1.08795668962,
			"-0.011": 1.22682996171,
			"-0.01": 1.11325421654,
			"-0.009": 0.987629709654,
			"-0.008": 4.37796143214,
			"-0.007": 9.74396865767,
			"-0.006": 10.4718737561,
			"-0.005": 8.27436195503,
			"-0.004": 7.52442093321,
			"-0.003": 8.18391140166,
			"-0.002": 9.118113836,
			"-0.001": 10.7091055021,
			"0.0": 11.135755312,
			"0.001": 18.1852145168,
			"0.002": 28.0629020884,
			"0.003": 20.0862063242,
			"0.004": 4.49895650145,
			"0.005": 2.9297575808,
			"0.006": 2.87336741507,
			"0.007": 3.80877048583,
			"0.008": 3.95934166113,
			"0.009": 4.33122210553,
			"0.01": 6.22493507215,
			"0.011": 5.13601818056,
			"0.012": 2.05066662501,
			"0.013": 0.187333563029,
			"0.014": 0.0,
			"0.015": 0.0,
			"0.016": 0.0,
			"0.017": 0.0,
			"0.018": 0.0,
			"0.019": 0.0,
			"0.02": 0.0,
			"0.021": 0.0,
			"0.022": 0.0,
			"0.023": 0.0,
			"0.024": 0.0,
			"0.025": 0.0
		}
	}
}
