{
	 "smiles": "BrCC(=O)C1=CC2=C(OCO2)C=C1", 
	 "Tm": 365.15, 
	 "num_atms": 20, 
	 "gaussian": { 
		 "optdone": 1, 
		 "sigma_profile": "yes", 
		 "theory": "DFT", 
		 "functional": "B3LYP", 
		 "basiset": "6-31G**", 
		 "properties": { 
			 "R2extent": 5994.4783, 
			 "electric_dipole_moment_norm": 5.42990763181, 
			 "electric_quadrupole_moment_norm": 9.41705298913, 
			 "total_energy": -3144.22000699, 
			 "HOMO_LUMO_gap": 0.16497, 
			 "cosmo_polarized_energy": -13.58, 
			 "cosmo_cavitation_energy": 26.86, 
			 "cosmo_dispersion_energy": -20.73, 
			 "cosmo_repulsion_energy": 1.64, 
			 "cosmo_total_nonelectrostatic_energy": 7.77, 
			 "SMD_solvation_energy": 4.61 
		},
		"coords": [
			{
				"x": 0.6337845507,
				"y": 5.1080422738,
				"z": -1.6671740092,
				"element": "Br" 
			},
			{
				"x": -0.1531178741,
				"y": 3.4917988732,
				"z": -0.9085408788,
				"element": "C" 
			},
			{
				"x": 0.6301874975,
				"y": 2.2176560623,
				"z": -1.2442141328,
				"element": "C" 
			},
			{
				"x": 1.6414376246,
				"y": 2.2427257091,
				"z": -1.9201418053,
				"element": "O" 
			},
			{
				"x": 0.0829084722,
				"y": 0.9394730448,
				"z": -0.6939701752,
				"element": "C" 
			},
			{
				"x": -1.0931413233,
				"y": 0.888622594,
				"z": 0.0965867498,
				"element": "C" 
			},
			{
				"x": -1.4941294344,
				"y": -0.3503365076,
				"z": 0.5440087137,
				"element": "C" 
			},
			{
				"x": -0.7855227382,
				"y": -1.5136184445,
				"z": 0.2414053433,
				"element": "C" 
			},
			{
				"x": -1.4017440323,
				"y": -2.591986629,
				"z": 0.8088599249,
				"element": "O" 
			},
			{
				"x": -2.5521091813,
				"y": -2.0819222779,
				"z": 1.5010095998,
				"element": "C" 
			},
			{
				"x": -2.5855110425,
				"y": -0.6620127796,
				"z": 1.3163108878,
				"element": "O" 
			},
			{
				"x": 0.3645818012,
				"y": -1.4904889341,
				"z": -0.5278888753,
				"element": "C" 
			},
			{
				"x": 0.786138344,
				"y": -0.2381586742,
				"z": -0.9908647521,
				"element": "C" 
			},
			{
				"x": -0.1994920849,
				"y": 3.6407118774,
				"z": 0.1719541884,
				"element": "H" 
			},
			{
				"x": -1.1733206926,
				"y": 3.4277052313,
				"z": -1.291766539,
				"element": "H" 
			},
			{
				"x": -1.6674702036,
				"y": 1.7711636744,
				"z": 0.3506428058,
				"element": "H" 
			},
			{
				"x": -2.4646217177,
				"y": -2.3127029401,
				"z": 2.5692248252,
				"element": "H" 
			},
			{
				"x": -3.458595483,
				"y": -2.5301392145,
				"z": 1.077481072,
				"element": "H" 
			},
			{
				"x": 0.9076603597,
				"y": -2.4000560377,
				"z": -0.7571346269,
				"element": "H" 
			},
			{
				"x": 1.6794771581,
				"y": -0.1494769011,
				"z": -1.5985883162,
				"element": "H" 
			}
		],
		 "valence_orbital": [ 
			{
				"type": "occ",
				"energy": -0.27349,
				"method": "rhf"
			},
			{
				"type": "occ",
				"energy": -0.27111,
				"method": "rhf"
			},
			{
				"type": "occ",
				"energy": -0.26589,
				"method": "rhf"
			},
			{
				"type": "occ",
				"energy": -0.26111,
				"method": "rhf"
			},
			{
				"type": "occ",
				"energy": -0.22555,
				"method": "rhf"
			},
			{
				"type": "unocc",
				"energy": -0.06058,
				"method": "rhf"
			},
			{
				"type": "unocc",
				"energy": -0.01506,
				"method": "rhf"
			},
			{
				"type": "unocc",
				"energy": 0.00337,
				"method": "rhf"
			},
			{
				"type": "unocc",
				"energy": 0.03823,
				"method": "rhf"
			},
			{
				"type": "unocc",
				"energy": 0.08378,
				"method": "rhf"
			}
		],
		"cosmo_sigma_profile": { 
			"-0.025": 0.0,
			"-0.024": 0.0,
			"-0.023": 0.0,
			"-0.022": 0.0,
			"-0.021": 0.0,
			"-0.02": 0.0,
			"-0.019": 0.0,
			"-0.018": 0.0,
			"-0.017": 0.0,
			"-0.016": 0.0,
			"-0.015": 0.0,
			"-0.014": 0.0,
			"-0.013": 0.0,
			"-0.012": 0.0,
			"-0.011": 0.0,
			"-0.01": 1.46509651308,
			"-0.009": 7.77201531131,
			"-0.008": 12.8207276723,
			"-0.007": 13.4271112931,
			"-0.006": 12.4815330367,
			"-0.005": 10.1438414177,
			"-0.004": 8.74515689537,
			"-0.003": 10.1971473248,
			"-0.002": 10.5742622248,
			"-0.001": 10.7660440032,
			"0.0": 12.4149560829,
			"0.001": 17.671267234,
			"0.002": 17.6354605358,
			"0.003": 14.8815440619,
			"0.004": 8.73957312655,
			"0.005": 12.1288293213,
			"0.006": 11.0390940976,
			"0.007": 4.53855157129,
			"0.008": 5.43877390734,
			"0.009": 4.75813995948,
			"0.01": 3.14320018153,
			"0.011": 3.75060145629,
			"0.012": 2.97430292511,
			"0.013": 1.28614314269,
			"0.014": 0.0,
			"0.015": 0.0,
			"0.016": 0.0,
			"0.017": 0.0,
			"0.018": 0.0,
			"0.019": 0.0,
			"0.02": 0.0,
			"0.021": 0.0,
			"0.022": 0.0,
			"0.023": 0.0,
			"0.024": 0.0,
			"0.025": 0.0
		}
	}
}
