{
	 "smiles": "CNC1=C(C=C(C=O)C=C1)[N+]([O-])=O", 
	 "Tm": 392.15, 
	 "num_atms": 21, 
	 "gaussian": { 
		 "optdone": 1, 
		 "sigma_profile": "yes", 
		 "theory": "DFT", 
		 "functional": "B3LYP", 
		 "basiset": "6-31G**", 
		 "properties": { 
			 "R2extent": 2673.095, 
			 "electric_dipole_moment_norm": 7.07136738262, 
			 "electric_quadrupole_moment_norm": 5.17048995744, 
			 "total_energy": -644.745458509, 
			 "HOMO_LUMO_gap": 0.13928, 
			 "cosmo_polarized_energy": -14.71, 
			 "cosmo_cavitation_energy": 25.93, 
			 "cosmo_dispersion_energy": -19.08, 
			 "cosmo_repulsion_energy": 1.5, 
			 "cosmo_total_nonelectrostatic_energy": 8.35, 
			 "SMD_solvation_energy": 7.05 
		},
		"coords": [
			{
				"x": 2.0130639939,
				"y": 2.4433493712,
				"z": 1.9246053208,
				"element": "C" 
			},
			{
				"x": 1.5857840657,
				"y": 1.1025803024,
				"z": 1.5808202058,
				"element": "N" 
			},
			{
				"x": 0.9275024419,
				"y": 0.7733496426,
				"z": 0.4485542978,
				"element": "C" 
			},
			{
				"x": 0.5201261206,
				"y": -0.5710696994,
				"z": 0.1437423261,
				"element": "C" 
			},
			{
				"x": -0.1576193222,
				"y": -0.8726810741,
				"z": -1.0342199546,
				"element": "C" 
			},
			{
				"x": -0.4645553811,
				"y": 0.1217402797,
				"z": -1.9599888486,
				"element": "C" 
			},
			{
				"x": -1.1823892902,
				"y": -0.2101718581,
				"z": -3.2032036226,
				"element": "C" 
			},
			{
				"x": -1.5522827413,
				"y": -1.3272811204,
				"z": -3.5153102669,
				"element": "O" 
			},
			{
				"x": -0.0731310866,
				"y": 1.4456892188,
				"z": -1.6786489919,
				"element": "C" 
			},
			{
				"x": 0.5987255858,
				"y": 1.7655260418,
				"z": -0.5179742954,
				"element": "C" 
			},
			{
				"x": 0.7914932686,
				"y": -1.6826967245,
				"z": 1.0425273231,
				"element": "N" 
			},
			{
				"x": 0.415187774,
				"y": -2.8060034344,
				"z": 0.7192251328,
				"element": "O" 
			},
			{
				"x": 1.3965577093,
				"y": -1.4587600012,
				"z": 2.1103821678,
				"element": "O" 
			},
			{
				"x": 1.1651408329,
				"y": 3.1346193287,
				"z": 2.0088449179,
				"element": "H" 
			},
			{
				"x": 2.5162402245,
				"y": 2.4035794974,
				"z": 2.8916786907,
				"element": "H" 
			},
			{
				"x": 2.7184164224,
				"y": 2.8498488491,
				"z": 1.1889737224,
				"element": "H" 
			},
			{
				"x": 1.7734880689,
				"y": 0.3266417827,
				"z": 2.2053949924,
				"element": "H" 
			},
			{
				"x": -0.4494615064,
				"y": -1.8970802407,
				"z": -1.2312032436,
				"element": "H" 
			},
			{
				"x": -1.3741841348,
				"y": 0.6616012786,
				"z": -3.8690365408,
				"element": "H" 
			},
			{
				"x": -0.306152384,
				"y": 2.2325484218,
				"z": -2.3927783599,
				"element": "H" 
			},
			{
				"x": 0.8863493381,
				"y": 2.792470138,
				"z": -0.3298849735,
				"element": "H" 
			}
		],
		 "valence_orbital": [ 
			{
				"type": "occ",
				"energy": -0.31192,
				"method": "rhf"
			},
			{
				"type": "occ",
				"energy": -0.29508,
				"method": "rhf"
			},
			{
				"type": "occ",
				"energy": -0.28913,
				"method": "rhf"
			},
			{
				"type": "occ",
				"energy": -0.25599,
				"method": "rhf"
			},
			{
				"type": "occ",
				"energy": -0.23177,
				"method": "rhf"
			},
			{
				"type": "unocc",
				"energy": -0.09249,
				"method": "rhf"
			},
			{
				"type": "unocc",
				"energy": -0.06092,
				"method": "rhf"
			},
			{
				"type": "unocc",
				"energy": -0.00831,
				"method": "rhf"
			},
			{
				"type": "unocc",
				"energy": 0.04258,
				"method": "rhf"
			},
			{
				"type": "unocc",
				"energy": 0.07398,
				"method": "rhf"
			}
		],
		"cosmo_sigma_profile": { 
			"-0.025": 0.0,
			"-0.024": 0.0,
			"-0.023": 0.0,
			"-0.022": 0.0,
			"-0.021": 0.0,
			"-0.02": 0.0,
			"-0.019": 0.0,
			"-0.018": 0.0,
			"-0.017": 0.0,
			"-0.016": 0.0,
			"-0.015": 0.0,
			"-0.014": 0.0,
			"-0.013": 0.0,
			"-0.012": 0.220568444836,
			"-0.011": 0.647013964084,
			"-0.01": 0.74731441839,
			"-0.009": 1.02149256147,
			"-0.008": 4.70147377757,
			"-0.007": 8.65086080418,
			"-0.006": 15.4561565282,
			"-0.005": 15.5474909343,
			"-0.004": 14.8197627891,
			"-0.003": 17.2367938798,
			"-0.002": 16.6734339725,
			"-0.001": 15.9397428406,
			"0.0": 17.1275527891,
			"0.001": 14.5228799009,
			"0.002": 9.17147766469,
			"0.003": 6.84509092366,
			"0.004": 3.49612048583,
			"0.005": 4.09328579951,
			"0.006": 4.92367363043,
			"0.007": 5.55642996292,
			"0.008": 7.9917323542,
			"0.009": 6.46577052954,
			"0.01": 5.67600349348,
			"0.011": 4.76551120827,
			"0.012": 3.88094486059,
			"0.013": 1.36490666416,
			"0.014": 0.060609357671,
			"0.015": 0.0,
			"0.016": 0.0,
			"0.017": 0.0,
			"0.018": 0.0,
			"0.019": 0.0,
			"0.02": 0.0,
			"0.021": 0.0,
			"0.022": 0.0,
			"0.023": 0.0,
			"0.024": 0.0,
			"0.025": 0.0
		}
	}
}
