{
	 "smiles": "O=CNNC=O", 
	 "Tm": 429.15, 
	 "num_atms": 10, 
	 "gaussian": { 
		 "optdone": 1, 
		 "sigma_profile": "yes", 
		 "theory": "DFT", 
		 "functional": "B3LYP", 
		 "basiset": "6-31G**", 
		 "properties": { 
			 "R2extent": 720.7457, 
			 "electric_dipole_moment_norm": 0.00989747442533, 
			 "electric_quadrupole_moment_norm": 15.5103540646, 
			 "total_energy": -338.545487628, 
			 "HOMO_LUMO_gap": 0.23311, 
			 "cosmo_polarized_energy": -14.38, 
			 "cosmo_cavitation_energy": 14.84, 
			 "cosmo_dispersion_energy": -11.11, 
			 "cosmo_repulsion_energy": 0.98, 
			 "cosmo_total_nonelectrostatic_energy": 4.71, 
			 "SMD_solvation_energy": 6.07 
		},
		"coords": [
			{
				"x": 1.9100859614,
				"y": 0.5935276319,
				"z": -0.1040642292,
				"element": "O" 
			},
			{
				"x": 1.3023804073,
				"y": -0.3286724166,
				"z": 0.4231720348,
				"element": "C" 
			},
			{
				"x": -0.0155131155,
				"y": -0.261890284,
				"z": 0.7307864249,
				"element": "N" 
			},
			{
				"x": -0.7123841562,
				"y": 0.8932168287,
				"z": 0.415903431,
				"element": "N" 
			},
			{
				"x": -2.0448769902,
				"y": 0.9334189351,
				"z": 0.6583409778,
				"element": "C" 
			},
			{
				"x": -2.6581421792,
				"y": 0.0010824394,
				"z": 1.1607278365,
				"element": "O" 
			},
			{
				"x": 1.7502646792,
				"y": -1.2956897385,
				"z": 0.70676007,
				"element": "H" 
			},
			{
				"x": -0.592896609,
				"y": -0.9893374123,
				"z": 1.1332428683,
				"element": "H" 
			},
			{
				"x": -0.1436319065,
				"y": 1.6049630676,
				"z": -0.0250712474,
				"element": "H" 
			},
			{
				"x": -2.4965860913,
				"y": 1.8934809488,
				"z": 0.3577018332,
				"element": "H" 
			}
		],
		 "valence_orbital": [ 
			{
				"type": "occ",
				"energy": -0.40425,
				"method": "rhf"
			},
			{
				"type": "occ",
				"energy": -0.33458,
				"method": "rhf"
			},
			{
				"type": "occ",
				"energy": -0.28469,
				"method": "rhf"
			},
			{
				"type": "occ",
				"energy": -0.27494,
				"method": "rhf"
			},
			{
				"type": "occ",
				"energy": -0.24113,
				"method": "rhf"
			},
			{
				"type": "unocc",
				"energy": -0.00802,
				"method": "rhf"
			},
			{
				"type": "unocc",
				"energy": 0.0307,
				"method": "rhf"
			},
			{
				"type": "unocc",
				"energy": 0.06958,
				"method": "rhf"
			},
			{
				"type": "unocc",
				"energy": 0.10526,
				"method": "rhf"
			},
			{
				"type": "unocc",
				"energy": 0.10587,
				"method": "rhf"
			}
		],
		"cosmo_sigma_profile": { 
			"-0.025": 0.0,
			"-0.024": 0.0,
			"-0.023": 0.0,
			"-0.022": 0.0,
			"-0.021": 0.0,
			"-0.02": 0.0,
			"-0.019": 0.0,
			"-0.018": 0.0,
			"-0.017": 0.256007581136,
			"-0.016": 1.58733622072,
			"-0.015": 1.57385263878,
			"-0.014": 1.8316280243,
			"-0.013": 2.52314294634,
			"-0.012": 1.25229744518,
			"-0.011": 1.69252881687,
			"-0.01": 2.63886005924,
			"-0.009": 5.95877374418,
			"-0.008": 6.56430379901,
			"-0.007": 4.39456476114,
			"-0.006": 3.86072090838,
			"-0.005": 4.12290040026,
			"-0.004": 4.58931777032,
			"-0.003": 5.41237205896,
			"-0.002": 5.71275577562,
			"-0.001": 7.51478383885,
			"0.0": 8.08207785698,
			"0.001": 5.54987557928,
			"0.002": 2.63260483692,
			"0.003": 1.55886829241,
			"0.004": 2.84902595137,
			"0.005": 2.65701046979,
			"0.006": 1.91386542619,
			"0.007": 2.57584865375,
			"0.008": 2.51508532654,
			"0.009": 2.45615727308,
			"0.01": 3.18225453274,
			"0.011": 3.51092753671,
			"0.012": 7.64823843426,
			"0.013": 6.63027983759,
			"0.014": 2.94177017435,
			"0.015": 0.175041424757,
			"0.016": 0.0,
			"0.017": 0.0,
			"0.018": 0.0,
			"0.019": 0.0,
			"0.02": 0.0,
			"0.021": 0.0,
			"0.022": 0.0,
			"0.023": 0.0,
			"0.024": 0.0,
			"0.025": 0.0
		}
	}
}
