{
	 "smiles": "NC1=CC2=C(OC(=N2)C2=C(F)C=CC=C2)C=C1", 
	 "Tm": 440.15, 
	 "num_atms": 26, 
	 "gaussian": { 
		 "optdone": 1, 
		 "sigma_profile": "yes", 
		 "theory": "DFT", 
		 "functional": "B3LYP", 
		 "basiset": "6-31G**", 
		 "properties": { 
			 "R2extent": 5133.4081, 
			 "electric_dipole_moment_norm": 1.33662887893, 
			 "electric_quadrupole_moment_norm": 24.6118914358, 
			 "total_energy": -785.374308637, 
			 "HOMO_LUMO_gap": 0.14529, 
			 "cosmo_polarized_energy": -12.11, 
			 "cosmo_cavitation_energy": 31.31, 
			 "cosmo_dispersion_energy": -23.38, 
			 "cosmo_repulsion_energy": 1.76, 
			 "cosmo_total_nonelectrostatic_energy": 9.69, 
			 "SMD_solvation_energy": 4.2 
		},
		"coords": [
			{
				"x": -1.2444761274,
				"y": 4.0570198158,
				"z": -3.4812340904,
				"element": "N" 
			},
			{
				"x": -0.7835164929,
				"y": 3.1240253026,
				"z": -2.5429380222,
				"element": "C" 
			},
			{
				"x": -1.297241977,
				"y": 1.8197298566,
				"z": -2.525470158,
				"element": "C" 
			},
			{
				"x": -0.7532335297,
				"y": 0.9169056163,
				"z": -1.6088958761,
				"element": "C" 
			},
			{
				"x": 0.2694207842,
				"y": 1.3167646232,
				"z": -0.7395537405,
				"element": "C" 
			},
			{
				"x": 0.5991241853,
				"y": 0.2349533452,
				"z": 0.0422279365,
				"element": "O" 
			},
			{
				"x": -0.2396576338,
				"y": -0.759709341,
				"z": -0.3947632692,
				"element": "C" 
			},
			{
				"x": -1.0513798609,
				"y": -0.417287734,
				"z": -1.3570029845,
				"element": "N" 
			},
			{
				"x": -0.1645457752,
				"y": -2.0800136337,
				"z": 0.2253517522,
				"element": "C" 
			},
			{
				"x": 0.7152226135,
				"y": -2.4157575377,
				"z": 1.2655773298,
				"element": "C" 
			},
			{
				"x": 1.564500478,
				"y": -1.4961985873,
				"z": 1.7588612695,
				"element": "F" 
			},
			{
				"x": 0.7472802362,
				"y": -3.6895316311,
				"z": 1.8224429541,
				"element": "C" 
			},
			{
				"x": -0.1170453613,
				"y": -4.6696934559,
				"z": 1.3396660174,
				"element": "C" 
			},
			{
				"x": -1.0066936236,
				"y": -4.3671792813,
				"z": 0.3033474683,
				"element": "C" 
			},
			{
				"x": -1.0274923971,
				"y": -3.0902546148,
				"z": -0.2435156544,
				"element": "C" 
			},
			{
				"x": 0.7974691965,
				"y": 2.5981009476,
				"z": -0.7302855219,
				"element": "C" 
			},
			{
				"x": 0.2531701606,
				"y": 3.4944500967,
				"z": -1.6485837621,
				"element": "C" 
			},
			{
				"x": -2.1715265143,
				"y": 3.87034858,
				"z": -3.8388807634,
				"element": "H" 
			},
			{
				"x": -1.1482604837,
				"y": 5.0229225845,
				"z": -3.1985296306,
				"element": "H" 
			},
			{
				"x": -2.0887135979,
				"y": 1.5147063964,
				"z": -3.2028822838,
				"element": "H" 
			},
			{
				"x": 1.450196624,
				"y": -3.8871739647,
				"z": 2.6243388535,
				"element": "H" 
			},
			{
				"x": -0.0949768251,
				"y": -5.6655135584,
				"z": 1.7717251946,
				"element": "H" 
			},
			{
				"x": -1.6818413382,
				"y": -5.1273875999,
				"z": -0.076295793,
				"element": "H" 
			},
			{
				"x": -1.7087791813,
				"y": -2.8349956742,
				"z": -1.0474437414,
				"element": "H" 
			},
			{
				"x": 1.5883535383,
				"y": 2.8921690926,
				"z": -0.049371109,
				"element": "H" 
			},
			{
				"x": 0.6377429025,
				"y": 4.5100003565,
				"z": -1.6892923753,
				"element": "H" 
			}
		],
		 "valence_orbital": [ 
			{
				"type": "occ",
				"energy": -0.28336,
				"method": "rhf"
			},
			{
				"type": "occ",
				"energy": -0.2705,
				"method": "rhf"
			},
			{
				"type": "occ",
				"energy": -0.25224,
				"method": "rhf"
			},
			{
				"type": "occ",
				"energy": -0.22291,
				"method": "rhf"
			},
			{
				"type": "occ",
				"energy": -0.1976,
				"method": "rhf"
			},
			{
				"type": "unocc",
				"energy": -0.05231,
				"method": "rhf"
			},
			{
				"type": "unocc",
				"energy": -0.00561,
				"method": "rhf"
			},
			{
				"type": "unocc",
				"energy": 0.0084,
				"method": "rhf"
			},
			{
				"type": "unocc",
				"energy": 0.02883,
				"method": "rhf"
			},
			{
				"type": "unocc",
				"energy": 0.06461,
				"method": "rhf"
			}
		],
		"cosmo_sigma_profile": { 
			"-0.025": 0.0,
			"-0.024": 0.0,
			"-0.023": 0.0,
			"-0.022": 0.0,
			"-0.021": 0.0,
			"-0.02": 0.0,
			"-0.019": 0.0,
			"-0.018": 0.0,
			"-0.017": 0.0,
			"-0.016": 0.0,
			"-0.015": 0.0,
			"-0.014": 0.0,
			"-0.013": 0.331640863778,
			"-0.012": 2.4010555584,
			"-0.011": 2.92152703544,
			"-0.01": 3.07434434097,
			"-0.009": 3.40591176691,
			"-0.008": 3.95021505451,
			"-0.007": 9.91187089079,
			"-0.006": 14.2432750877,
			"-0.005": 14.7846829072,
			"-0.004": 12.3193388465,
			"-0.003": 10.224435889,
			"-0.002": 13.3550301568,
			"-0.001": 16.0914093725,
			"0.0": 18.1153356599,
			"0.001": 19.8829696427,
			"0.002": 22.2158470387,
			"0.003": 23.9605804448,
			"0.004": 22.0417362024,
			"0.005": 15.262878488,
			"0.006": 5.44476954656,
			"0.007": 4.75056107625,
			"0.008": 3.47049275888,
			"0.009": 1.45448479675,
			"0.01": 2.19817216032,
			"0.011": 1.79433840432,
			"0.012": 1.96114278031,
			"0.013": 1.2892887918,
			"0.014": 0.911173637713,
			"0.015": 0.424975928069,
			"0.016": 0.0,
			"0.017": 0.0,
			"0.018": 0.0,
			"0.019": 0.0,
			"0.02": 0.0,
			"0.021": 0.0,
			"0.022": 0.0,
			"0.023": 0.0,
			"0.024": 0.0,
			"0.025": 0.0
		}
	}
}
