{
	 "smiles": "OC(=O)C=CC1=C(Cl)C=CC(Cl)=C1", 
	 "Tm": 466.15, 
	 "num_atms": 19, 
	 "gaussian": { 
		 "optdone": 1, 
		 "sigma_profile": "yes", 
		 "theory": "DFT", 
		 "functional": "B3LYP", 
		 "basiset": "6-31G**", 
		 "properties": { 
			 "R2extent": 5301.612, 
			 "electric_dipole_moment_norm": 4.97942729438, 
			 "electric_quadrupole_moment_norm": 7.33140327291, 
			 "total_energy": -1417.39486207, 
			 "HOMO_LUMO_gap": 0.17003, 
			 "cosmo_polarized_energy": -14.92, 
			 "cosmo_cavitation_energy": 28.14, 
			 "cosmo_dispersion_energy": -20.58, 
			 "cosmo_repulsion_energy": 1.64, 
			 "cosmo_total_nonelectrostatic_energy": 9.2, 
			 "SMD_solvation_energy": 5.61 
		},
		"coords": [
			{
				"x": -1.5507347991,
				"y": 1.2788604373,
				"z": 2.2887098154,
				"element": "O" 
			},
			{
				"x": -1.7714867108,
				"y": 1.4603595094,
				"z": 0.9585391961,
				"element": "C" 
			},
			{
				"x": -2.8130311637,
				"y": 1.9355899365,
				"z": 0.5710407277,
				"element": "O" 
			},
			{
				"x": -0.6843348223,
				"y": 1.0712546192,
				"z": 0.0186148238,
				"element": "C" 
			},
			{
				"x": 0.6182489983,
				"y": 1.0042851792,
				"z": 0.3443640695,
				"element": "C" 
			},
			{
				"x": 1.7253140304,
				"y": 0.7101005709,
				"z": -0.5739504521,
				"element": "C" 
			},
			{
				"x": 2.976057747,
				"y": 0.2612375237,
				"z": -0.103502793,
				"element": "C" 
			},
			{
				"x": 3.2558584522,
				"y": 0.0126095559,
				"z": 1.6154327706,
				"element": "Cl" 
			},
			{
				"x": 4.0276688557,
				"y": -0.0205209601,
				"z": -0.9740795212,
				"element": "C" 
			},
			{
				"x": 3.8621089083,
				"y": 0.1431101479,
				"z": -2.3464133969,
				"element": "C" 
			},
			{
				"x": 2.6324044795,
				"y": 0.5941371551,
				"z": -2.8292331693,
				"element": "C" 
			},
			{
				"x": 2.4128887884,
				"y": 0.8210826637,
				"z": -4.5533642369,
				"element": "Cl" 
			},
			{
				"x": 1.5834148053,
				"y": 0.8781337299,
				"z": -1.9646523197,
				"element": "C" 
			},
			{
				"x": -0.7639469571,
				"y": 0.733224981,
				"z": 2.4265438107,
				"element": "H" 
			},
			{
				"x": -1.0328601394,
				"y": 0.9133444198,
				"z": -0.9971740983,
				"element": "H" 
			},
			{
				"x": 0.9179503122,
				"y": 1.193565026,
				"z": 1.3723006973,
				"element": "H" 
			},
			{
				"x": 4.9733948861,
				"y": -0.3697203778,
				"z": -0.5755887741,
				"element": "H" 
			},
			{
				"x": 4.6760135268,
				"y": -0.0701374942,
				"z": -3.0297635212,
				"element": "H" 
			},
			{
				"x": 0.6512708021,
				"y": 1.2571833767,
				"z": -2.3662236284,
				"element": "H" 
			}
		],
		 "valence_orbital": [ 
			{
				"type": "occ",
				"energy": -0.32776,
				"method": "rhf"
			},
			{
				"type": "occ",
				"energy": -0.31732,
				"method": "rhf"
			},
			{
				"type": "occ",
				"energy": -0.28149,
				"method": "rhf"
			},
			{
				"type": "occ",
				"energy": -0.27192,
				"method": "rhf"
			},
			{
				"type": "occ",
				"energy": -0.25764,
				"method": "rhf"
			},
			{
				"type": "unocc",
				"energy": -0.08761,
				"method": "rhf"
			},
			{
				"type": "unocc",
				"energy": -0.0415,
				"method": "rhf"
			},
			{
				"type": "unocc",
				"energy": -0.00938,
				"method": "rhf"
			},
			{
				"type": "unocc",
				"energy": 0.0005,
				"method": "rhf"
			},
			{
				"type": "unocc",
				"energy": 0.01958,
				"method": "rhf"
			}
		],
		"cosmo_sigma_profile": { 
			"-0.025": 0.0,
			"-0.024": 0.0,
			"-0.023": 0.0,
			"-0.022": 0.0,
			"-0.021": 0.0,
			"-0.02": 0.0,
			"-0.019": 0.0169055582126,
			"-0.018": 0.794098403643,
			"-0.017": 1.1559589331,
			"-0.016": 0.792348306634,
			"-0.015": 1.18231390277,
			"-0.014": 1.03624862084,
			"-0.013": 0.810526745473,
			"-0.012": 1.1040619816,
			"-0.011": 1.09615098965,
			"-0.01": 1.96372889872,
			"-0.009": 3.99193092631,
			"-0.008": 6.73916142462,
			"-0.007": 7.5227552239,
			"-0.006": 8.53818944816,
			"-0.005": 7.25367815323,
			"-0.004": 9.21697674258,
			"-0.003": 10.8347109088,
			"-0.002": 13.5014352139,
			"-0.001": 18.1776991149,
			"0.0": 27.5199376216,
			"0.001": 28.5333311628,
			"0.002": 15.8405884564,
			"0.003": 14.1909932818,
			"0.004": 17.2500272469,
			"0.005": 3.92749334226,
			"0.006": 1.69127738113,
			"0.007": 2.80758825851,
			"0.008": 2.37569547562,
			"0.009": 3.09493986289,
			"0.01": 5.20325224898,
			"0.011": 5.15775598566,
			"0.012": 5.44158044418,
			"0.013": 2.25398392791,
			"0.014": 0.0883106552957,
			"0.015": 0.0,
			"0.016": 0.0,
			"0.017": 0.0,
			"0.018": 0.0,
			"0.019": 0.0,
			"0.02": 0.0,
			"0.021": 0.0,
			"0.022": 0.0,
			"0.023": 0.0,
			"0.024": 0.0,
			"0.025": 0.0
		}
	}
}
