{
	 "smiles": "CC1=NN(N=C1C(=O)NC1=NC(C)=CC=C1)C1=CC=CC=C1", 
	 "Tm": 409.15, 
	 "num_atms": 37, 
	 "gaussian": { 
		 "optdone": 1, 
		 "sigma_profile": "yes", 
		 "theory": "DFT", 
		 "functional": "B3LYP", 
		 "basiset": "6-31G**", 
		 "properties": { 
			 "R2extent": 7966.2126, 
			 "electric_dipole_moment_norm": 3.93024218847, 
			 "electric_quadrupole_moment_norm": 11.0079397282, 
			 "total_energy": -967.725466235, 
			 "HOMO_LUMO_gap": 0.16956, 
			 "cosmo_polarized_energy": -12.87, 
			 "cosmo_cavitation_energy": 42.18, 
			 "cosmo_dispersion_energy": -29.52, 
			 "cosmo_repulsion_energy": 2.27, 
			 "cosmo_total_nonelectrostatic_energy": 14.93, 
			 "SMD_solvation_energy": 5.27 
		},
		"coords": [
			{
				"x": 1.3227765147,
				"y": -3.5573198288,
				"z": -2.6616793576,
				"element": "C" 
			},
			{
				"x": 1.3679989228,
				"y": -2.4792322086,
				"z": -1.6301323228,
				"element": "C" 
			},
			{
				"x": 2.4910622109,
				"y": -1.8274847859,
				"z": -1.335703956,
				"element": "N" 
			},
			{
				"x": 2.1345214342,
				"y": -0.9675950472,
				"z": -0.3650843596,
				"element": "N" 
			},
			{
				"x": 0.8557337554,
				"y": -1.0106221518,
				"z": -0.0139494992,
				"element": "N" 
			},
			{
				"x": 0.3356155001,
				"y": -1.955779189,
				"z": -0.8045954094,
				"element": "C" 
			},
			{
				"x": -1.0526062756,
				"y": -2.4657131263,
				"z": -0.7138181511,
				"element": "C" 
			},
			{
				"x": -1.2979260947,
				"y": -3.6063829651,
				"z": -1.098356788,
				"element": "O" 
			},
			{
				"x": -2.0545779856,
				"y": -1.7118867931,
				"z": -0.1336280304,
				"element": "N" 
			},
			{
				"x": -2.2577312912,
				"y": -0.3440381216,
				"z": 0.1273955098,
				"element": "C" 
			},
			{
				"x": -3.2384394055,
				"y": -0.128646016,
				"z": 1.0100815948,
				"element": "N" 
			},
			{
				"x": -3.5747589549,
				"y": 1.1349634018,
				"z": 1.3171958709,
				"element": "C" 
			},
			{
				"x": -4.691978407,
				"y": 1.2991394351,
				"z": 2.3167658716,
				"element": "C" 
			},
			{
				"x": -2.9274548859,
				"y": 2.2325942268,
				"z": 0.743639861,
				"element": "C" 
			},
			{
				"x": -1.9233273721,
				"y": 1.9959380169,
				"z": -0.1970590361,
				"element": "C" 
			},
			{
				"x": -1.579039838,
				"y": 0.6928353751,
				"z": -0.531100001,
				"element": "C" 
			},
			{
				"x": 3.0659481176,
				"y": -0.0814112178,
				"z": 0.2458843094,
				"element": "C" 
			},
			{
				"x": 4.4062026885,
				"y": -0.1164592114,
				"z": -0.1493773299,
				"element": "C" 
			},
			{
				"x": 5.3115596671,
				"y": 0.7546398551,
				"z": 0.4540792295,
				"element": "C" 
			},
			{
				"x": 4.8887950977,
				"y": 1.6489716609,
				"z": 1.4396007136,
				"element": "C" 
			},
			{
				"x": 3.5456861688,
				"y": 1.6703099091,
				"z": 1.822518532,
				"element": "C" 
			},
			{
				"x": 2.6250178991,
				"y": 0.8082023222,
				"z": 1.2303076324,
				"element": "C" 
			},
			{
				"x": 2.3013255857,
				"y": -3.6592255044,
				"z": -3.1349394396,
				"element": "H" 
			},
			{
				"x": 0.5740933624,
				"y": -3.336221282,
				"z": -3.4283448302,
				"element": "H" 
			},
			{
				"x": 1.0315276034,
				"y": -4.5073260662,
				"z": -2.2067575923,
				"element": "H" 
			},
			{
				"x": -2.8626372154,
				"y": -2.2762489152,
				"z": 0.1044860955,
				"element": "H" 
			},
			{
				"x": -4.434082651,
				"y": 0.8088116468,
				"z": 3.2611316297,
				"element": "H" 
			},
			{
				"x": -4.904257136,
				"y": 2.3525048591,
				"z": 2.5160458576,
				"element": "H" 
			},
			{
				"x": -5.6060100093,
				"y": 0.8216144973,
				"z": 1.9485417025,
				"element": "H" 
			},
			{
				"x": -3.214377298,
				"y": 3.2432929873,
				"z": 1.0141699917,
				"element": "H" 
			},
			{
				"x": -1.4196007476,
				"y": 2.8269540624,
				"z": -0.6826884094,
				"element": "H" 
			},
			{
				"x": -0.8227372499,
				"y": 0.4872995076,
				"z": -1.2752568093,
				"element": "H" 
			},
			{
				"x": 4.7180975449,
				"y": -0.8167144239,
				"z": -0.9141341226,
				"element": "H" 
			},
			{
				"x": 6.353769256,
				"y": 0.7304929929,
				"z": 0.1502355194,
				"element": "H" 
			},
			{
				"x": 5.6000752091,
				"y": 2.3238404499,
				"z": 1.905838007,
				"element": "H" 
			},
			{
				"x": 3.207873192,
				"y": 2.3622143192,
				"z": 2.5882218435,
				"element": "H" 
			},
			{
				"x": 1.5802630874,
				"y": 0.8146873286,
				"z": 1.5158656725,
				"element": "H" 
			}
		],
		 "valence_orbital": [ 
			{
				"type": "occ",
				"energy": -0.27055,
				"method": "rhf"
			},
			{
				"type": "occ",
				"energy": -0.26255,
				"method": "rhf"
			},
			{
				"type": "occ",
				"energy": -0.25951,
				"method": "rhf"
			},
			{
				"type": "occ",
				"energy": -0.23429,
				"method": "rhf"
			},
			{
				"type": "occ",
				"energy": -0.22717,
				"method": "rhf"
			},
			{
				"type": "unocc",
				"energy": -0.05761,
				"method": "rhf"
			},
			{
				"type": "unocc",
				"energy": -0.02692,
				"method": "rhf"
			},
			{
				"type": "unocc",
				"energy": -0.01862,
				"method": "rhf"
			},
			{
				"type": "unocc",
				"energy": -0.01171,
				"method": "rhf"
			},
			{
				"type": "unocc",
				"energy": 0.01315,
				"method": "rhf"
			}
		],
		"cosmo_sigma_profile": { 
			"-0.025": 0.0,
			"-0.024": 0.0,
			"-0.023": 0.0,
			"-0.022": 0.0,
			"-0.021": 0.0,
			"-0.02": 0.0,
			"-0.019": 0.0,
			"-0.018": 0.0,
			"-0.017": 0.0,
			"-0.016": 0.0,
			"-0.015": 0.0,
			"-0.014": 0.184828648118,
			"-0.013": 0.731951135098,
			"-0.012": 0.485368746943,
			"-0.011": 0.592440661036,
			"-0.01": 0.71322510345,
			"-0.009": 0.857407382018,
			"-0.008": 1.00824804851,
			"-0.007": 4.44950578611,
			"-0.006": 17.4333782961,
			"-0.005": 25.8863395593,
			"-0.004": 27.3848463316,
			"-0.003": 25.1409096671,
			"-0.002": 27.6070669032,
			"-0.001": 33.0633967593,
			"0.0": 30.9482097083,
			"0.001": 25.8823570933,
			"0.002": 26.1480693906,
			"0.003": 26.5646839435,
			"0.004": 21.1071585516,
			"0.005": 8.54740962697,
			"0.006": 5.40557040858,
			"0.007": 5.99591569019,
			"0.008": 4.17345987491,
			"0.009": 3.47790849193,
			"0.01": 2.72430342285,
			"0.011": 3.51162769878,
			"0.012": 4.73778903779,
			"0.013": 2.65961119731,
			"0.014": 0.424508313608,
			"0.015": 0.0,
			"0.016": 0.0,
			"0.017": 0.0,
			"0.018": 0.0,
			"0.019": 0.0,
			"0.02": 0.0,
			"0.021": 0.0,
			"0.022": 0.0,
			"0.023": 0.0,
			"0.024": 0.0,
			"0.025": 0.0
		}
	}
}
