{
	 "smiles": "CN(C)C1=CC=C(C=C1)C1NN2C(S1)=NN=C2C1=CC=C(C=C1)[N+]([O-])=O", 
	 "Tm": 449.15, 
	 "num_atms": 42, 
	 "gaussian": { 
		 "optdone": 1, 
		 "sigma_profile": "yes", 
		 "theory": "DFT", 
		 "functional": "B3LYP", 
		 "basiset": "6-31G**", 
		 "properties": { 
			 "R2extent": 17002.4423, 
			 "electric_dipole_moment_norm": 11.6227356646, 
			 "electric_quadrupole_moment_norm": 36.2280906907, 
			 "total_energy": -1534.42561788, 
			 "HOMO_LUMO_gap": 0.12314, 
			 "cosmo_polarized_energy": -23.35, 
			 "cosmo_cavitation_energy": 48.27, 
			 "cosmo_dispersion_energy": -35.17, 
			 "cosmo_repulsion_energy": 2.56, 
			 "cosmo_total_nonelectrostatic_energy": 15.66, 
			 "SMD_solvation_energy": 6.99 
		},
		"coords": [
			{
				"x": -5.1387152659,
				"y": -0.4203964016,
				"z": -3.3452160724,
				"element": "C" 
			},
			{
				"x": -4.6271338851,
				"y": -1.1593016662,
				"z": -2.2022321695,
				"element": "N" 
			},
			{
				"x": -5.4612475156,
				"y": -2.173172189,
				"z": -1.5772554899,
				"element": "C" 
			},
			{
				"x": -3.3031801617,
				"y": -1.0339350436,
				"z": -1.8377491464,
				"element": "C" 
			},
			{
				"x": -2.7479232392,
				"y": -1.8177681725,
				"z": -0.7951245594,
				"element": "C" 
			},
			{
				"x": -1.4178729608,
				"y": -1.6771654147,
				"z": -0.4254239848,
				"element": "C" 
			},
			{
				"x": -0.5730797083,
				"y": -0.7570501119,
				"z": -1.0645254386,
				"element": "C" 
			},
			{
				"x": -1.1135416055,
				"y": 0.0090220617,
				"z": -2.1053423004,
				"element": "C" 
			},
			{
				"x": -2.4409056041,
				"y": -0.1199962814,
				"z": -2.4914694261,
				"element": "C" 
			},
			{
				"x": 0.8489345021,
				"y": -0.5558826313,
				"z": -0.6466197713,
				"element": "C" 
			},
			{
				"x": 0.9696354237,
				"y": 0.0747813788,
				"z": 0.6775333488,
				"element": "N" 
			},
			{
				"x": 2.264128773,
				"y": -0.2455138522,
				"z": 1.1330348374,
				"element": "N" 
			},
			{
				"x": 2.8633746778,
				"y": -1.3784081034,
				"z": 0.6472406954,
				"element": "C" 
			},
			{
				"x": 1.8728172965,
				"y": -2.1866124564,
				"z": -0.5560875025,
				"element": "S" 
			},
			{
				"x": 4.0393570976,
				"y": -1.5567985383,
				"z": 1.198828749,
				"element": "N" 
			},
			{
				"x": 4.210056122,
				"y": -0.5126434828,
				"z": 2.0881626704,
				"element": "N" 
			},
			{
				"x": 3.1533120922,
				"y": 0.2841079049,
				"z": 2.0433236044,
				"element": "C" 
			},
			{
				"x": 2.9948492342,
				"y": 1.5059127543,
				"z": 2.8297687344,
				"element": "C" 
			},
			{
				"x": 1.9130314869,
				"y": 2.3857852984,
				"z": 2.6455652775,
				"element": "C" 
			},
			{
				"x": 1.8083130492,
				"y": 3.5403078238,
				"z": 3.4141248984,
				"element": "C" 
			},
			{
				"x": 2.7890325925,
				"y": 3.8095220953,
				"z": 4.3661011669,
				"element": "C" 
			},
			{
				"x": 3.8753116502,
				"y": 2.9555444812,
				"z": 4.5661719968,
				"element": "C" 
			},
			{
				"x": 3.9745592908,
				"y": 1.8055047888,
				"z": 3.7968131011,
				"element": "C" 
			},
			{
				"x": 2.6761270122,
				"y": 5.0261748923,
				"z": 5.1807444595,
				"element": "N" 
			},
			{
				"x": 3.5582051261,
				"y": 5.2413113325,
				"z": 6.0122488425,
				"element": "O" 
			},
			{
				"x": 1.7055462042,
				"y": 5.7586976681,
				"z": 4.9838956885,
				"element": "O" 
			},
			{
				"x": -5.0351632217,
				"y": 0.6623464641,
				"z": -3.2016862653,
				"element": "H" 
			},
			{
				"x": -6.2002781838,
				"y": -0.6377161645,
				"z": -3.4662016618,
				"element": "H" 
			},
			{
				"x": -4.6271915858,
				"y": -0.6898215962,
				"z": -4.280458858,
				"element": "H" 
			},
			{
				"x": -5.095450743,
				"y": -3.1926094315,
				"z": -1.7670245461,
				"element": "H" 
			},
			{
				"x": -5.5192731248,
				"y": -2.0301217478,
				"z": -0.4911864793,
				"element": "H" 
			},
			{
				"x": -6.473830867,
				"y": -2.0983457118,
				"z": -1.9746210402,
				"element": "H" 
			},
			{
				"x": -3.3548123017,
				"y": -2.5509036716,
				"z": -0.2791846793,
				"element": "H" 
			},
			{
				"x": -1.0239484792,
				"y": -2.3169004665,
				"z": 0.3602724471,
				"element": "H" 
			},
			{
				"x": -0.4833874961,
				"y": 0.7253407689,
				"z": -2.6265358832,
				"element": "H" 
			},
			{
				"x": -2.8068157376,
				"y": 0.4922412281,
				"z": -3.3058206298,
				"element": "H" 
			},
			{
				"x": 1.3882361553,
				"y": 0.0688685599,
				"z": -1.3612913674,
				"element": "H" 
			},
			{
				"x": 0.2999568588,
				"y": -0.36455943,
				"z": 1.314877812,
				"element": "H" 
			},
			{
				"x": 1.162257814,
				"y": 2.1699290781,
				"z": 1.8938751811,
				"element": "H" 
			},
			{
				"x": 0.9857399996,
				"y": 4.2329280507,
				"z": 3.2881382757,
				"element": "H" 
			},
			{
				"x": 4.6163887931,
				"y": 3.2034744549,
				"z": 5.3155525277,
				"element": "H" 
			},
			{
				"x": 4.8055804346,
				"y": 1.1215214804,
				"z": 3.9250829571,
				"element": "H" 
			}
		],
		 "valence_orbital": [ 
			{
				"type": "occ",
				"energy": -0.27303,
				"method": "rhf"
			},
			{
				"type": "occ",
				"energy": -0.27048,
				"method": "rhf"
			},
			{
				"type": "occ",
				"energy": -0.25936,
				"method": "rhf"
			},
			{
				"type": "occ",
				"energy": -0.22633,
				"method": "rhf"
			},
			{
				"type": "occ",
				"energy": -0.21412,
				"method": "rhf"
			},
			{
				"type": "unocc",
				"energy": -0.09098,
				"method": "rhf"
			},
			{
				"type": "unocc",
				"energy": -0.03711,
				"method": "rhf"
			},
			{
				"type": "unocc",
				"energy": -0.02458,
				"method": "rhf"
			},
			{
				"type": "unocc",
				"energy": -0.02262,
				"method": "rhf"
			},
			{
				"type": "unocc",
				"energy": -0.02099,
				"method": "rhf"
			}
		],
		"cosmo_sigma_profile": { 
			"-0.025": 0.0,
			"-0.024": 0.0,
			"-0.023": 0.0,
			"-0.022": 0.0,
			"-0.021": 0.0,
			"-0.02": 0.0,
			"-0.019": 0.0,
			"-0.018": 0.0,
			"-0.017": 0.0,
			"-0.016": 0.0,
			"-0.015": 0.400990169275,
			"-0.014": 1.12784292806,
			"-0.013": 1.63734923113,
			"-0.012": 1.39650949553,
			"-0.011": 1.5726053641,
			"-0.01": 1.28674709852,
			"-0.009": 2.07217931673,
			"-0.008": 6.74980311096,
			"-0.007": 11.4655668916,
			"-0.006": 18.5339713538,
			"-0.005": 22.8534358935,
			"-0.004": 30.4647300354,
			"-0.003": 32.0596484108,
			"-0.002": 35.7230430874,
			"-0.001": 31.6519855409,
			"0.0": 30.4934444992,
			"0.001": 31.241974183,
			"0.002": 19.4052840395,
			"0.003": 16.3733198046,
			"0.004": 17.6712280484,
			"0.005": 16.9010229056,
			"0.006": 12.9069975052,
			"0.007": 9.1083610896,
			"0.008": 10.4089308553,
			"0.009": 6.31974265652,
			"0.01": 4.8166892054,
			"0.011": 2.54741141921,
			"0.012": 3.08095178389,
			"0.013": 3.81754768776,
			"0.014": 2.27320461178,
			"0.015": 1.70112361312,
			"0.016": 0.646234461741,
			"0.017": 0.0295017897422,
			"0.018": 0.0,
			"0.019": 0.0,
			"0.02": 0.0,
			"0.021": 0.0,
			"0.022": 0.0,
			"0.023": 0.0,
			"0.024": 0.0,
			"0.025": 0.0
		}
	}
}
