{
	 "smiles": "CC(C)(O)C#C[Si](C)(C)C", 
	 "Tm": 296.65, 
	 "num_atms": 26, 
	 "gaussian": { 
		 "optdone": 1, 
		 "sigma_profile": "yes", 
		 "theory": "DFT", 
		 "functional": "B3LYP", 
		 "basiset": "6-31G**", 
		 "properties": { 
			 "R2extent": 2904.8568, 
			 "electric_dipole_moment_norm": 1.37873300171, 
			 "electric_quadrupole_moment_norm": 6.22131437801, 
			 "total_energy": -679.208586827, 
			 "HOMO_LUMO_gap": 0.27106, 
			 "cosmo_polarized_energy": -7.29, 
			 "cosmo_cavitation_energy": 30.99, 
			 "cosmo_dispersion_energy": -18.98, 
			 "cosmo_repulsion_energy": 1.75, 
			 "cosmo_total_nonelectrostatic_energy": 13.77, 
			 "SMD_solvation_energy": 8.03 
		},
		"coords": [
			{
				"x": 2.5033267014,
				"y": -1.8287192621,
				"z": 0.2471702172,
				"element": "C" 
			},
			{
				"x": 1.1475703786,
				"y": -1.3867961181,
				"z": 0.8163038034,
				"element": "C" 
			},
			{
				"x": 1.3101606596,
				"y": -0.7564283275,
				"z": 2.21315332,
				"element": "C" 
			},
			{
				"x": 0.3690159796,
				"y": -2.5898142611,
				"z": 0.9106831962,
				"element": "O" 
			},
			{
				"x": 0.4884831356,
				"y": -0.4277357656,
				"z": -0.0941534595,
				"element": "C" 
			},
			{
				"x": -0.0841853512,
				"y": 0.3618520621,
				"z": -0.8255030977,
				"element": "C" 
			},
			{
				"x": -0.9406980367,
				"y": 1.5438586635,
				"z": -1.9473575399,
				"element": "Si" 
			},
			{
				"x": -0.0893989876,
				"y": 1.5128992034,
				"z": -3.6333939111,
				"element": "C" 
			},
			{
				"x": -2.746358171,
				"y": 1.0134747521,
				"z": -2.1189718578,
				"element": "C" 
			},
			{
				"x": -0.840712478,
				"y": 3.2762673318,
				"z": -1.1992728019,
				"element": "C" 
			},
			{
				"x": 2.9517395631,
				"y": -2.5658683954,
				"z": 0.9196629342,
				"element": "H" 
			},
			{
				"x": 3.1791493617,
				"y": -0.9756066268,
				"z": 0.1484035969,
				"element": "H" 
			},
			{
				"x": 2.364646215,
				"y": -2.2882494268,
				"z": -0.7338666446,
				"element": "H" 
			},
			{
				"x": 1.7704867654,
				"y": -1.4858311052,
				"z": 2.8859670617,
				"element": "H" 
			},
			{
				"x": 0.3354153826,
				"y": -0.4698739158,
				"z": 2.6209137657,
				"element": "H" 
			},
			{
				"x": 1.9360404796,
				"y": 0.1399965724,
				"z": 2.1737372869,
				"element": "H" 
			},
			{
				"x": -0.5345132708,
				"y": -2.3330267866,
				"z": 1.1399838333,
				"element": "H" 
			},
			{
				"x": -0.5767777319,
				"y": 2.2067099102,
				"z": -4.327998685,
				"element": "H" 
			},
			{
				"x": 0.9629219428,
				"y": 1.8041398362,
				"z": -3.5526021891,
				"element": "H" 
			},
			{
				"x": -0.1256215987,
				"y": 0.5128966133,
				"z": -4.0775422788,
				"element": "H" 
			},
			{
				"x": -3.2882334464,
				"y": 1.6927085295,
				"z": -2.7870734737,
				"element": "H" 
			},
			{
				"x": -2.8259296465,
				"y": 0.0030027233,
				"z": -2.5328315128,
				"element": "H" 
			},
			{
				"x": -3.2572001602,
				"y": 1.0196474019,
				"z": -1.1505359339,
				"element": "H" 
			},
			{
				"x": -1.3397575682,
				"y": 4.007700138,
				"z": -1.845287937,
				"element": "H" 
			},
			{
				"x": 0.1989390509,
				"y": 3.595788768,
				"z": -1.0735375484,
				"element": "H" 
			},
			{
				"x": -1.3226091687,
				"y": 3.3138074855,
				"z": -0.2168501444,
				"element": "H" 
			}
		],
		 "valence_orbital": [ 
			{
				"type": "occ",
				"energy": -0.30715,
				"method": "rhf"
			},
			{
				"type": "occ",
				"energy": -0.30593,
				"method": "rhf"
			},
			{
				"type": "occ",
				"energy": -0.28042,
				"method": "rhf"
			},
			{
				"type": "occ",
				"energy": -0.25666,
				"method": "rhf"
			},
			{
				"type": "occ",
				"energy": -0.25359,
				"method": "rhf"
			},
			{
				"type": "unocc",
				"energy": 0.01747,
				"method": "rhf"
			},
			{
				"type": "unocc",
				"energy": 0.02738,
				"method": "rhf"
			},
			{
				"type": "unocc",
				"energy": 0.07453,
				"method": "rhf"
			},
			{
				"type": "unocc",
				"energy": 0.08017,
				"method": "rhf"
			},
			{
				"type": "unocc",
				"energy": 0.11513,
				"method": "rhf"
			}
		],
		"cosmo_sigma_profile": { 
			"-0.025": 0.0,
			"-0.024": 0.0,
			"-0.023": 0.0,
			"-0.022": 0.0,
			"-0.021": 0.0,
			"-0.02": 0.0,
			"-0.019": 0.0,
			"-0.018": 0.0,
			"-0.017": 0.0,
			"-0.016": 0.122312608977,
			"-0.015": 0.804453694777,
			"-0.014": 0.843423493724,
			"-0.013": 0.845129448288,
			"-0.012": 0.585407983205,
			"-0.011": 0.823287227567,
			"-0.01": 0.840401511117,
			"-0.009": 0.753518729941,
			"-0.008": 0.703811847264,
			"-0.007": 0.987782120422,
			"-0.006": 1.35864284804,
			"-0.005": 2.07627636202,
			"-0.004": 17.4911305379,
			"-0.003": 30.4131998563,
			"-0.002": 29.1132547388,
			"-0.001": 28.9410282777,
			"0.0": 31.851027165,
			"0.001": 29.5878587398,
			"0.002": 14.7606254547,
			"0.003": 9.26986461176,
			"0.004": 4.64182279754,
			"0.005": 6.23258150164,
			"0.006": 7.59818749594,
			"0.007": 6.9823092848,
			"0.008": 2.14554363334,
			"0.009": 1.59902306069,
			"0.01": 1.55029390386,
			"0.011": 0.749336814161,
			"0.012": 1.75941664328,
			"0.013": 2.11913915009,
			"0.014": 0.837245801414,
			"0.015": 0.0,
			"0.016": 0.0,
			"0.017": 0.0,
			"0.018": 0.0,
			"0.019": 0.0,
			"0.02": 0.0,
			"0.021": 0.0,
			"0.022": 0.0,
			"0.023": 0.0,
			"0.024": 0.0,
			"0.025": 0.0
		}
	}
}
