{
	 "smiles": "COC1=CC=C(C=C1Br)[N+]([O-])=O", 
	 "Tm": 378.65, 
	 "num_atms": 18, 
	 "gaussian": { 
		 "optdone": 1, 
		 "sigma_profile": "yes", 
		 "theory": "DFT", 
		 "functional": "B3LYP", 
		 "basiset": "6-31G**", 
		 "properties": { 
			 "R2extent": 3996.3356, 
			 "electric_dipole_moment_norm": 5.83910346372, 
			 "electric_quadrupole_moment_norm": 7.91180895877, 
			 "total_energy": -3122.07242527, 
			 "HOMO_LUMO_gap": 0.16257, 
			 "cosmo_polarized_energy": -10.83, 
			 "cosmo_cavitation_energy": 25.46, 
			 "cosmo_dispersion_energy": -19.15, 
			 "cosmo_repulsion_energy": 1.53, 
			 "cosmo_total_nonelectrostatic_energy": 7.85, 
			 "SMD_solvation_energy": 6.46 
		},
		"coords": [
			{
				"x": -1.3179459804,
				"y": 2.887406546,
				"z": -1.4911640982,
				"element": "C" 
			},
			{
				"x": -1.3488584639,
				"y": 1.5145459194,
				"z": -1.8709533566,
				"element": "O" 
			},
			{
				"x": -0.5611475798,
				"y": 0.6372030081,
				"z": -1.2191365947,
				"element": "C" 
			},
			{
				"x": 0.3081430392,
				"y": 0.9799299612,
				"z": -0.1702069182,
				"element": "C" 
			},
			{
				"x": 1.0886277582,
				"y": 0.0102205516,
				"z": 0.4504165597,
				"element": "C" 
			},
			{
				"x": 0.9990839094,
				"y": -1.3092516447,
				"z": 0.0195277147,
				"element": "C" 
			},
			{
				"x": 0.1452556101,
				"y": -1.6831479143,
				"z": -1.0201369795,
				"element": "C" 
			},
			{
				"x": -0.6286639439,
				"y": -0.7128581992,
				"z": -1.6333635587,
				"element": "C" 
			},
			{
				"x": -1.7966545929,
				"y": -1.2029821537,
				"z": -3.0503798289,
				"element": "Br" 
			},
			{
				"x": 1.8176507463,
				"y": -2.3353638857,
				"z": 0.6681689246,
				"element": "N" 
			},
			{
				"x": 1.713176774,
				"y": -3.4928785638,
				"z": 0.2612929115,
				"element": "O" 
			},
			{
				"x": 2.5620143085,
				"y": -1.9775272989,
				"z": 1.5822121265,
				"element": "O" 
			},
			{
				"x": -1.631054433,
				"y": 3.0203898904,
				"z": -0.4490730413,
				"element": "H" 
			},
			{
				"x": -2.026751807,
				"y": 3.3892945154,
				"z": -2.1496906813,
				"element": "H" 
			},
			{
				"x": -0.3200547689,
				"y": 3.3184095169,
				"z": -1.633042102,
				"element": "H" 
			},
			{
				"x": 0.3772192515,
				"y": 2.0072884945,
				"z": 0.1645216226,
				"element": "H" 
			},
			{
				"x": 1.7622353551,
				"y": 0.2617930433,
				"z": 1.2596848916,
				"element": "H" 
			},
			{
				"x": 0.0986248175,
				"y": -2.7179717865,
				"z": -1.3319775916,
				"element": "H" 
			}
		],
		 "valence_orbital": [ 
			{
				"type": "occ",
				"energy": -0.30791,
				"method": "rhf"
			},
			{
				"type": "occ",
				"energy": -0.29424,
				"method": "rhf"
			},
			{
				"type": "occ",
				"energy": -0.28957,
				"method": "rhf"
			},
			{
				"type": "occ",
				"energy": -0.27392,
				"method": "rhf"
			},
			{
				"type": "occ",
				"energy": -0.24959,
				"method": "rhf"
			},
			{
				"type": "unocc",
				"energy": -0.08702,
				"method": "rhf"
			},
			{
				"type": "unocc",
				"energy": -0.03709,
				"method": "rhf"
			},
			{
				"type": "unocc",
				"energy": -0.00539,
				"method": "rhf"
			},
			{
				"type": "unocc",
				"energy": 0.00401,
				"method": "rhf"
			},
			{
				"type": "unocc",
				"energy": 0.07724,
				"method": "rhf"
			}
		],
		"cosmo_sigma_profile": { 
			"-0.025": 0.0,
			"-0.024": 0.0,
			"-0.023": 0.0,
			"-0.022": 0.0,
			"-0.021": 0.0,
			"-0.02": 0.0,
			"-0.019": 0.0,
			"-0.018": 0.0,
			"-0.017": 0.0,
			"-0.016": 0.0,
			"-0.015": 0.0,
			"-0.014": 0.0,
			"-0.013": 0.0,
			"-0.012": 0.0,
			"-0.011": 0.0,
			"-0.01": 0.0,
			"-0.009": 0.655257079396,
			"-0.008": 4.71968194581,
			"-0.007": 10.5720176729,
			"-0.006": 14.4206399185,
			"-0.005": 12.6720868729,
			"-0.004": 15.9134042497,
			"-0.003": 11.4344323669,
			"-0.002": 12.3737697268,
			"-0.001": 17.9408739319,
			"0.0": 20.5957426327,
			"0.001": 14.5510865915,
			"0.002": 9.42480102831,
			"0.003": 10.3573375415,
			"0.004": 12.3373926122,
			"0.005": 5.85189631453,
			"0.006": 4.99621710107,
			"0.007": 8.99128688428,
			"0.008": 10.0683376036,
			"0.009": 6.1210810857,
			"0.01": 3.13795916875,
			"0.011": 0.44130772002,
			"0.012": 0.0,
			"0.013": 0.0,
			"0.014": 0.0,
			"0.015": 0.0,
			"0.016": 0.0,
			"0.017": 0.0,
			"0.018": 0.0,
			"0.019": 0.0,
			"0.02": 0.0,
			"0.021": 0.0,
			"0.022": 0.0,
			"0.023": 0.0,
			"0.024": 0.0,
			"0.025": 0.0
		}
	}
}
