{
	 "smiles": "NC1=CC=C(OC2=NC=CC=C2)C=C1", 
	 "Tm": 336.15, 
	 "num_atms": 24, 
	 "gaussian": { 
		 "optdone": 1, 
		 "sigma_profile": "yes", 
		 "theory": "DFT", 
		 "functional": "B3LYP", 
		 "basiset": "6-31G**", 
		 "properties": { 
			 "R2extent": 3737.0165, 
			 "electric_dipole_moment_norm": 3.72312846139, 
			 "electric_quadrupole_moment_norm": 17.7601324294, 
			 "total_energy": -609.913833326, 
			 "HOMO_LUMO_gap": 0.18533, 
			 "cosmo_polarized_energy": -14.14, 
			 "cosmo_cavitation_energy": 28.64, 
			 "cosmo_dispersion_energy": -20.94, 
			 "cosmo_repulsion_energy": 1.65, 
			 "cosmo_total_nonelectrostatic_energy": 9.36, 
			 "SMD_solvation_energy": 3.61 
		},
		"coords": [
			{
				"x": -0.9874661093,
				"y": 3.2834909786,
				"z": -2.9603809801,
				"element": "N" 
			},
			{
				"x": -0.507481108,
				"y": 2.158011757,
				"z": -2.2847068646,
				"element": "C" 
			},
			{
				"x": 0.8185054934,
				"y": 1.7248631448,
				"z": -2.4609806557,
				"element": "C" 
			},
			{
				"x": 1.3144411815,
				"y": 0.6382249657,
				"z": -1.7448723478,
				"element": "C" 
			},
			{
				"x": 0.493224241,
				"y": -0.0325293149,
				"z": -0.8392387946,
				"element": "C" 
			},
			{
				"x": 0.9628210227,
				"y": -1.1684402414,
				"z": -0.1868296888,
				"element": "O" 
			},
			{
				"x": 1.5692701831,
				"y": -1.0475499867,
				"z": 1.0352238015,
				"element": "C" 
			},
			{
				"x": 1.9638786678,
				"y": -2.2144056777,
				"z": 1.5361166023,
				"element": "N" 
			},
			{
				"x": 2.5688933854,
				"y": -2.2021069166,
				"z": 2.7292665376,
				"element": "C" 
			},
			{
				"x": 2.8063479655,
				"y": -1.0453873421,
				"z": 3.4693867558,
				"element": "C" 
			},
			{
				"x": 2.3836939723,
				"y": 0.1687402483,
				"z": 2.9244371276,
				"element": "C" 
			},
			{
				"x": 1.7518757424,
				"y": 0.1837515207,
				"z": 1.6850854611,
				"element": "C" 
			},
			{
				"x": -0.8260831236,
				"y": 0.3796574283,
				"z": -0.6547994827,
				"element": "C" 
			},
			{
				"x": -1.3220007128,
				"y": 1.4663174114,
				"z": -1.3708990279,
				"element": "C" 
			},
			{
				"x": -1.991684098,
				"y": 3.3182602221,
				"z": -3.0710889269,
				"element": "H" 
			},
			{
				"x": -0.5109158397,
				"y": 3.4965389331,
				"z": -3.8260750258,
				"element": "H" 
			},
			{
				"x": 1.4630615071,
				"y": 2.2445787915,
				"z": -3.1654154666,
				"element": "H" 
			},
			{
				"x": 2.3342397255,
				"y": 0.2969941091,
				"z": -1.8918964789,
				"element": "H" 
			},
			{
				"x": 2.8790454114,
				"y": -3.1739561267,
				"z": 3.1102039696,
				"element": "H" 
			},
			{
				"x": 3.3020870378,
				"y": -1.0952087856,
				"z": 4.4328777312,
				"element": "H" 
			},
			{
				"x": 2.5434608659,
				"y": 1.1012516098,
				"z": 3.4587207504,
				"element": "H" 
			},
			{
				"x": 1.4120076848,
				"y": 1.1077905657,
				"z": 1.2347049764,
				"element": "H" 
			},
			{
				"x": -1.4601999977,
				"y": -0.1613402951,
				"z": 0.0403744608,
				"element": "H" 
			},
			{
				"x": -2.3511230984,
				"y": 1.7838530008,
				"z": -1.2230144338,
				"element": "H" 
			}
		],
		 "valence_orbital": [ 
			{
				"type": "occ",
				"energy": -0.27836,
				"method": "rhf"
			},
			{
				"type": "occ",
				"energy": -0.25545,
				"method": "rhf"
			},
			{
				"type": "occ",
				"energy": -0.2545,
				"method": "rhf"
			},
			{
				"type": "occ",
				"energy": -0.22956,
				"method": "rhf"
			},
			{
				"type": "occ",
				"energy": -0.20414,
				"method": "rhf"
			},
			{
				"type": "unocc",
				"energy": -0.01881,
				"method": "rhf"
			},
			{
				"type": "unocc",
				"energy": -0.00239,
				"method": "rhf"
			},
			{
				"type": "unocc",
				"energy": 0.00815,
				"method": "rhf"
			},
			{
				"type": "unocc",
				"energy": 0.01378,
				"method": "rhf"
			},
			{
				"type": "unocc",
				"energy": 0.0756,
				"method": "rhf"
			}
		],
		"cosmo_sigma_profile": { 
			"-0.025": 0.0,
			"-0.024": 0.0,
			"-0.023": 0.0,
			"-0.022": 0.0,
			"-0.021": 0.0,
			"-0.02": 0.0,
			"-0.019": 0.0,
			"-0.018": 0.0,
			"-0.017": 0.0,
			"-0.016": 0.0,
			"-0.015": 0.0,
			"-0.014": 0.0,
			"-0.013": 0.367559989063,
			"-0.012": 2.61620949362,
			"-0.011": 2.75482095573,
			"-0.01": 2.58443101939,
			"-0.009": 4.26974124558,
			"-0.008": 2.83210151018,
			"-0.007": 6.91993012278,
			"-0.006": 16.4854641048,
			"-0.005": 16.4777705235,
			"-0.004": 15.5185363346,
			"-0.003": 12.6582388742,
			"-0.002": 12.3527928988,
			"-0.001": 12.8333198707,
			"0.0": 13.0725389802,
			"0.001": 15.8619180982,
			"0.002": 15.2901242891,
			"0.003": 19.6013929708,
			"0.004": 14.5030069165,
			"0.005": 12.9942088879,
			"0.006": 5.6442791903,
			"0.007": 3.07241846505,
			"0.008": 2.85389236196,
			"0.009": 2.8352455795,
			"0.01": 2.70875155013,
			"0.011": 2.69920969946,
			"0.012": 2.65570695527,
			"0.013": 2.34513020475,
			"0.014": 1.51111839139,
			"0.015": 1.80332596971,
			"0.016": 0.886545946639,
			"0.017": 0.232511601196,
			"0.018": 0.0,
			"0.019": 0.0,
			"0.02": 0.0,
			"0.021": 0.0,
			"0.022": 0.0,
			"0.023": 0.0,
			"0.024": 0.0,
			"0.025": 0.0
		}
	}
}
