{
	 "smiles": "OC(=O)CSC1CCS(=O)(=O)C1", 
	 "Tm": 290.15, 
	 "num_atms": 22, 
	 "gaussian": { 
		 "optdone": 1, 
		 "sigma_profile": "yes", 
		 "theory": "DFT", 
		 "functional": "B3LYP", 
		 "basiset": "6-31G**", 
		 "properties": { 
			 "R2extent": 3712.8821, 
			 "electric_dipole_moment_norm": 6.03377185929, 
			 "electric_quadrupole_moment_norm": 23.3425562632, 
			 "total_energy": -1331.88188721, 
			 "HOMO_LUMO_gap": 0.22042, 
			 "cosmo_polarized_energy": -21.81, 
			 "cosmo_cavitation_energy": 27.89, 
			 "cosmo_dispersion_energy": -21.17, 
			 "cosmo_repulsion_energy": 1.61, 
			 "cosmo_total_nonelectrostatic_energy": 8.32, 
			 "SMD_solvation_energy": 4.52 
		},
		"coords": [
			{
				"x": 1.7294015387,
				"y": -1.6581743776,
				"z": 3.1736803505,
				"element": "O" 
			},
			{
				"x": 0.9691714368,
				"y": -1.5923213339,
				"z": 2.0626405361,
				"element": "C" 
			},
			{
				"x": -0.1044101635,
				"y": -2.1497144022,
				"z": 1.9568937964,
				"element": "O" 
			},
			{
				"x": 1.5938906245,
				"y": -0.7249166741,
				"z": 0.9929359761,
				"element": "C" 
			},
			{
				"x": 0.8257423464,
				"y": 0.9466722935,
				"z": 0.9710150546,
				"element": "S" 
			},
			{
				"x": -0.8627230326,
				"y": 0.5432755142,
				"z": 0.3152970605,
				"element": "C" 
			},
			{
				"x": -0.8682106153,
				"y": 0.2579398307,
				"z": -1.2073464236,
				"element": "C" 
			},
			{
				"x": -0.7306371766,
				"y": 1.5935451421,
				"z": -1.9364378624,
				"element": "C" 
			},
			{
				"x": -1.8435032949,
				"y": 2.7169514293,
				"z": -1.0150374494,
				"element": "S" 
			},
			{
				"x": -1.2211565033,
				"y": 4.0364164158,
				"z": -0.8343806562,
				"element": "O" 
			},
			{
				"x": -3.1995681933,
				"y": 2.5944835573,
				"z": -1.5760445185,
				"element": "O" 
			},
			{
				"x": -1.7864120114,
				"y": 1.7503223645,
				"z": 0.5586319229,
				"element": "C" 
			},
			{
				"x": 1.2358723959,
				"y": -2.1948249188,
				"z": 3.817474933,
				"element": "H" 
			},
			{
				"x": 2.6544559687,
				"y": -0.5602575495,
				"z": 1.1880975814,
				"element": "H" 
			},
			{
				"x": 1.4738580682,
				"y": -1.2102655724,
				"z": 0.0218941892,
				"element": "H" 
			},
			{
				"x": -1.2143437227,
				"y": -0.3272713558,
				"z": 0.8722168485,
				"element": "H" 
			},
			{
				"x": -0.0756564062,
				"y": -0.4378688181,
				"z": -1.4945400701,
				"element": "H" 
			},
			{
				"x": -1.8237040697,
				"y": -0.2120239492,
				"z": -1.4689771022,
				"element": "H" 
			},
			{
				"x": -1.067362384,
				"y": 1.5809731113,
				"z": -2.9739110292,
				"element": "H" 
			},
			{
				"x": 0.2782039392,
				"y": 2.0049849515,
				"z": -1.8657936749,
				"element": "H" 
			},
			{
				"x": -1.4574592974,
				"y": 2.4211831179,
				"z": 1.3538082489,
				"element": "H" 
			},
			{
				"x": -2.8143494476,
				"y": 1.4332912238,
				"z": 0.7464822883,
				"element": "H" 
			}
		],
		 "valence_orbital": [ 
			{
				"type": "occ",
				"energy": -0.30647,
				"method": "rhf"
			},
			{
				"type": "occ",
				"energy": -0.30164,
				"method": "rhf"
			},
			{
				"type": "occ",
				"energy": -0.29338,
				"method": "rhf"
			},
			{
				"type": "occ",
				"energy": -0.28037,
				"method": "rhf"
			},
			{
				"type": "occ",
				"energy": -0.25121,
				"method": "rhf"
			},
			{
				"type": "unocc",
				"energy": -0.03079,
				"method": "rhf"
			},
			{
				"type": "unocc",
				"energy": 0.01681,
				"method": "rhf"
			},
			{
				"type": "unocc",
				"energy": 0.03634,
				"method": "rhf"
			},
			{
				"type": "unocc",
				"energy": 0.05055,
				"method": "rhf"
			},
			{
				"type": "unocc",
				"energy": 0.06497,
				"method": "rhf"
			}
		],
		"cosmo_sigma_profile": { 
			"-0.025": 0.0,
			"-0.024": 0.0,
			"-0.023": 0.0,
			"-0.022": 0.0,
			"-0.021": 0.0,
			"-0.02": 0.0,
			"-0.019": 0.284792569117,
			"-0.018": 1.30315667631,
			"-0.017": 0.694580699,
			"-0.016": 0.535957549049,
			"-0.015": 0.490103968249,
			"-0.014": 0.958341802777,
			"-0.013": 0.396471024653,
			"-0.012": 0.984848606055,
			"-0.011": 1.15367197443,
			"-0.01": 0.418035135637,
			"-0.009": 3.53810652712,
			"-0.008": 11.8985915637,
			"-0.007": 15.4952277296,
			"-0.006": 17.7149112303,
			"-0.005": 18.993202736,
			"-0.004": 16.5234047348,
			"-0.003": 13.0123817048,
			"-0.002": 8.65620244553,
			"-0.001": 7.58019763853,
			"0.0": 7.73929555446,
			"0.001": 8.06200524227,
			"0.002": 5.99428941741,
			"0.003": 6.80838698833,
			"0.004": 7.015865765,
			"0.005": 6.85369274052,
			"0.006": 6.25574524559,
			"0.007": 7.07519970923,
			"0.008": 6.25282741182,
			"0.009": 4.7599844991,
			"0.01": 6.16083804337,
			"0.011": 14.5342619762,
			"0.012": 11.7925033707,
			"0.013": 1.61203113331,
			"0.014": 0.0,
			"0.015": 0.0,
			"0.016": 0.0,
			"0.017": 0.0,
			"0.018": 0.0,
			"0.019": 0.0,
			"0.02": 0.0,
			"0.021": 0.0,
			"0.022": 0.0,
			"0.023": 0.0,
			"0.024": 0.0,
			"0.025": 0.0
		}
	}
}
