{
	 "smiles": "NC1=C(C=CC=C1)C(=O)OCC=CC1=CC=CC=C1", 
	 "Tm": 334.15, 
	 "num_atms": 34, 
	 "gaussian": { 
		 "optdone": 1, 
		 "sigma_profile": "yes", 
		 "theory": "DFT", 
		 "functional": "B3LYP", 
		 "basiset": "6-31G**", 
		 "properties": { 
			 "R2extent": 8958.6579, 
			 "electric_dipole_moment_norm": 3.87374108195, 
			 "electric_quadrupole_moment_norm": 9.79993120996, 
			 "total_energy": -823.948611994, 
			 "HOMO_LUMO_gap": 0.1584, 
			 "cosmo_polarized_energy": -13.17, 
			 "cosmo_cavitation_energy": 38.86, 
			 "cosmo_dispersion_energy": -28.05, 
			 "cosmo_repulsion_energy": 2.16, 
			 "cosmo_total_nonelectrostatic_energy": 12.97, 
			 "SMD_solvation_energy": 7.25 
		},
		"coords": [
			{
				"x": -3.0476577347,
				"y": -0.8918480826,
				"z": 0.0949563523,
				"element": "N" 
			},
			{
				"x": -3.3242690257,
				"y": -1.6275511308,
				"z": 1.2207386478,
				"element": "C" 
			},
			{
				"x": -2.3242592475,
				"y": -2.1416720642,
				"z": 2.0967243326,
				"element": "C" 
			},
			{
				"x": -2.7137427796,
				"y": -2.9439766078,
				"z": 3.1882138117,
				"element": "C" 
			},
			{
				"x": -4.0407630364,
				"y": -3.2385601506,
				"z": 3.4502872351,
				"element": "C" 
			},
			{
				"x": -5.0246033644,
				"y": -2.721719324,
				"z": 2.5949643535,
				"element": "C" 
			},
			{
				"x": -4.6746257649,
				"y": -1.9383388082,
				"z": 1.5086413002,
				"element": "C" 
			},
			{
				"x": -0.864825694,
				"y": -1.909280743,
				"z": 1.9787561708,
				"element": "C" 
			},
			{
				"x": -0.0219971784,
				"y": -2.4251314319,
				"z": 2.6895679948,
				"element": "O" 
			},
			{
				"x": -0.5202895661,
				"y": -1.0310989996,
				"z": 0.987964068,
				"element": "O" 
			},
			{
				"x": 0.8998531904,
				"y": -0.7720139156,
				"z": 0.8321655391,
				"element": "C" 
			},
			{
				"x": 1.0550957966,
				"y": 0.4779930316,
				"z": 0.0300531195,
				"element": "C" 
			},
			{
				"x": 1.6969489761,
				"y": 0.5227538093,
				"z": -1.1471784597,
				"element": "C" 
			},
			{
				"x": 1.9432605163,
				"y": 1.7016786979,
				"z": -1.9902612537,
				"element": "C" 
			},
			{
				"x": 1.6612059289,
				"y": 3.0173471735,
				"z": -1.5766309926,
				"element": "C" 
			},
			{
				"x": 1.9011344989,
				"y": 4.0970952105,
				"z": -2.4212050678,
				"element": "C" 
			},
			{
				"x": 2.4338238484,
				"y": 3.8922618685,
				"z": -3.6978393331,
				"element": "C" 
			},
			{
				"x": 2.7274359882,
				"y": 2.5953329172,
				"z": -4.1201819237,
				"element": "C" 
			},
			{
				"x": 2.4864209472,
				"y": 1.5143810515,
				"z": -3.2734762114,
				"element": "C" 
			},
			{
				"x": -2.1199067314,
				"y": -0.5124894054,
				"z": -0.0098878382,
				"element": "H" 
			},
			{
				"x": -3.8089956829,
				"y": -0.3883173574,
				"z": -0.3307266485,
				"element": "H" 
			},
			{
				"x": -1.9217118808,
				"y": -3.3210354712,
				"z": 3.8260386876,
				"element": "H" 
			},
			{
				"x": -4.3125247978,
				"y": -3.8550481324,
				"z": 4.3006187053,
				"element": "H" 
			},
			{
				"x": -6.0743749311,
				"y": -2.9346849294,
				"z": 2.7788500794,
				"element": "H" 
			},
			{
				"x": -5.4455197466,
				"y": -1.5519971463,
				"z": 0.8461394431,
				"element": "H" 
			},
			{
				"x": 1.3661435307,
				"y": -1.6324273176,
				"z": 0.340820509,
				"element": "H" 
			},
			{
				"x": 1.3375652531,
				"y": -0.6806872376,
				"z": 1.8312623081,
				"element": "H" 
			},
			{
				"x": 0.6249020192,
				"y": 1.3765069835,
				"z": 0.4689298806,
				"element": "H" 
			},
			{
				"x": 2.0856888696,
				"y": -0.4140837461,
				"z": -1.547791609,
				"element": "H" 
			},
			{
				"x": 1.2620421905,
				"y": 3.1984102192,
				"z": -0.5833059416,
				"element": "H" 
			},
			{
				"x": 1.678050391,
				"y": 5.104557153,
				"z": -2.0814356502,
				"element": "H" 
			},
			{
				"x": 2.6226003486,
				"y": 4.7376143319,
				"z": -4.3530053973,
				"element": "H" 
			},
			{
				"x": 3.1455611074,
				"y": 2.424283009,
				"z": -5.1080170537,
				"element": "H" 
			},
			{
				"x": 2.7165337613,
				"y": 0.5058465453,
				"z": -3.6080491577,
				"element": "H" 
			}
		],
		 "valence_orbital": [ 
			{
				"type": "occ",
				"energy": -0.26989,
				"method": "rhf"
			},
			{
				"type": "occ",
				"energy": -0.25727,
				"method": "rhf"
			},
			{
				"type": "occ",
				"energy": -0.24866,
				"method": "rhf"
			},
			{
				"type": "occ",
				"energy": -0.22911,
				"method": "rhf"
			},
			{
				"type": "occ",
				"energy": -0.20153,
				"method": "rhf"
			},
			{
				"type": "unocc",
				"energy": -0.04313,
				"method": "rhf"
			},
			{
				"type": "unocc",
				"energy": -0.03231,
				"method": "rhf"
			},
			{
				"type": "unocc",
				"energy": -0.0066,
				"method": "rhf"
			},
			{
				"type": "unocc",
				"energy": 0.01668,
				"method": "rhf"
			},
			{
				"type": "unocc",
				"energy": 0.04738,
				"method": "rhf"
			}
		],
		"cosmo_sigma_profile": { 
			"-0.025": 0.0,
			"-0.024": 0.0,
			"-0.023": 0.0,
			"-0.022": 0.0,
			"-0.021": 0.0,
			"-0.02": 0.0,
			"-0.019": 0.0,
			"-0.018": 0.0,
			"-0.017": 0.0,
			"-0.016": 0.0,
			"-0.015": 0.0,
			"-0.014": 0.0287038457056,
			"-0.013": 1.18733820188,
			"-0.012": 1.17071799401,
			"-0.011": 1.65163393125,
			"-0.01": 1.55378091215,
			"-0.009": 1.60727551978,
			"-0.008": 2.70782854036,
			"-0.007": 4.36767723288,
			"-0.006": 19.095693908,
			"-0.005": 24.5781015632,
			"-0.004": 26.4289981159,
			"-0.003": 24.7585893761,
			"-0.002": 19.7909198841,
			"-0.001": 19.085124762,
			"0.0": 17.3960117681,
			"0.001": 20.6499720559,
			"0.002": 21.563025601,
			"0.003": 24.2203148165,
			"0.004": 25.4642304138,
			"0.005": 24.6714566185,
			"0.006": 11.700388516,
			"0.007": 1.93949309597,
			"0.008": 2.18946256321,
			"0.009": 2.6139721625,
			"0.01": 1.80530923995,
			"0.011": 2.74918705336,
			"0.012": 4.51231397215,
			"0.013": 1.11055098167,
			"0.014": 0.0,
			"0.015": 0.0,
			"0.016": 0.0,
			"0.017": 0.0,
			"0.018": 0.0,
			"0.019": 0.0,
			"0.02": 0.0,
			"0.021": 0.0,
			"0.022": 0.0,
			"0.023": 0.0,
			"0.024": 0.0,
			"0.025": 0.0
		}
	}
}
