{
	 "smiles": "COC1=C(NC(C)=O)C=C(C=C1)S(Cl)(=O)=O", 
	 "Tm": 419.15, 
	 "num_atms": 26, 
	 "gaussian": { 
		 "optdone": 1, 
		 "sigma_profile": "yes", 
		 "theory": "DFT", 
		 "functional": "B3LYP", 
		 "basiset": "6-31G**", 
		 "properties": { 
			 "R2extent": 5887.7992, 
			 "electric_dipole_moment_norm": 4.90663243885, 
			 "electric_quadrupole_moment_norm": 18.0272715157, 
			 "total_energy": -1562.93913573, 
			 "HOMO_LUMO_gap": 0.16394, 
			 "cosmo_polarized_energy": -16.86, 
			 "cosmo_cavitation_energy": 33.99, 
			 "cosmo_dispersion_energy": -24.07, 
			 "cosmo_repulsion_energy": 1.86, 
			 "cosmo_total_nonelectrostatic_energy": 11.78, 
			 "SMD_solvation_energy": 6.61 
		},
		"coords": [
			{
				"x": -3.1437470623,
				"y": 1.5057327248,
				"z": 0.6484002614,
				"element": "C" 
			},
			{
				"x": -2.2758277877,
				"y": 0.3875465609,
				"z": 0.9039976974,
				"element": "O" 
			},
			{
				"x": -1.0209946741,
				"y": 0.4641138562,
				"z": 0.3669957092,
				"element": "C" 
			},
			{
				"x": -0.0439947743,
				"y": 1.3572587171,
				"z": 0.8678255469,
				"element": "C" 
			},
			{
				"x": -0.3274331688,
				"y": 2.2469859276,
				"z": 1.9309830222,
				"element": "N" 
			},
			{
				"x": -0.6009786777,
				"y": 1.9474761161,
				"z": 3.2690398081,
				"element": "C" 
			},
			{
				"x": -0.7256734133,
				"y": 0.4870919383,
				"z": 3.6453239984,
				"element": "C" 
			},
			{
				"x": -0.7166705534,
				"y": 2.860784808,
				"z": 4.0676133922,
				"element": "O" 
			},
			{
				"x": 1.2157191869,
				"y": 1.3828185314,
				"z": 0.2604147604,
				"element": "C" 
			},
			{
				"x": 1.4879573861,
				"y": 0.5211413672,
				"z": -0.8001468535,
				"element": "C" 
			},
			{
				"x": 0.5506094852,
				"y": -0.3988282545,
				"z": -1.2712555025,
				"element": "C" 
			},
			{
				"x": -0.7051107309,
				"y": -0.4165479024,
				"z": -0.6741304328,
				"element": "C" 
			},
			{
				"x": 3.0950071098,
				"y": 0.595663969,
				"z": -1.5713156116,
				"element": "S" 
			},
			{
				"x": 4.1935873981,
				"y": -0.8145546036,
				"z": -0.4046374585,
				"element": "Cl" 
			},
			{
				"x": 3.0112833988,
				"y": 0.0319715825,
				"z": -2.9126126475,
				"element": "O" 
			},
			{
				"x": 3.6974346491,
				"y": 1.8960600874,
				"z": -1.3055055313,
				"element": "O" 
			},
			{
				"x": -3.3138290298,
				"y": 1.6170947852,
				"z": -0.4285955745,
				"element": "H" 
			},
			{
				"x": -4.0864004015,
				"y": 1.2705155961,
				"z": 1.1437428063,
				"element": "H" 
			},
			{
				"x": -2.7346171535,
				"y": 2.4332717628,
				"z": 1.0579340881,
				"element": "H" 
			},
			{
				"x": -0.071889741,
				"y": 3.2195284594,
				"z": 1.8058056543,
				"element": "H" 
			},
			{
				"x": 0.1446923057,
				"y": -0.0848371717,
				"z": 3.308117961,
				"element": "H" 
			},
			{
				"x": -0.8059334703,
				"y": 0.427879117,
				"z": 4.7301702408,
				"element": "H" 
			},
			{
				"x": -1.6118513007,
				"y": 0.0446697424,
				"z": 3.1828250268,
				"element": "H" 
			},
			{
				"x": 1.9758675208,
				"y": 2.0681809685,
				"z": 0.6197906374,
				"element": "H" 
			},
			{
				"x": 0.7932985469,
				"y": -1.0599565397,
				"z": -2.095091168,
				"element": "H" 
			},
			{
				"x": -1.477705048,
				"y": -1.0960621463,
				"z": -1.0174898308,
				"element": "H" 
			}
		],
		 "valence_orbital": [ 
			{
				"type": "occ",
				"energy": -0.31709,
				"method": "rhf"
			},
			{
				"type": "occ",
				"energy": -0.30806,
				"method": "rhf"
			},
			{
				"type": "occ",
				"energy": -0.28516,
				"method": "rhf"
			},
			{
				"type": "occ",
				"energy": -0.26893,
				"method": "rhf"
			},
			{
				"type": "occ",
				"energy": -0.25822,
				"method": "rhf"
			},
			{
				"type": "unocc",
				"energy": -0.09428,
				"method": "rhf"
			},
			{
				"type": "unocc",
				"energy": -0.0517,
				"method": "rhf"
			},
			{
				"type": "unocc",
				"energy": -0.04892,
				"method": "rhf"
			},
			{
				"type": "unocc",
				"energy": 0.01138,
				"method": "rhf"
			},
			{
				"type": "unocc",
				"energy": 0.04823,
				"method": "rhf"
			}
		],
		"cosmo_sigma_profile": { 
			"-0.025": 0.0,
			"-0.024": 0.0,
			"-0.023": 0.0,
			"-0.022": 0.0,
			"-0.021": 0.0,
			"-0.02": 0.0,
			"-0.019": 0.0,
			"-0.018": 0.0,
			"-0.017": 0.0,
			"-0.016": 0.0,
			"-0.015": 0.219104458732,
			"-0.014": 1.3901384377,
			"-0.013": 1.10964823753,
			"-0.012": 1.66659996563,
			"-0.011": 0.666950443221,
			"-0.01": 1.44453340682,
			"-0.009": 2.93746351346,
			"-0.008": 5.21598853001,
			"-0.007": 6.82736407175,
			"-0.006": 10.2452704272,
			"-0.005": 17.354754842,
			"-0.004": 21.443602129,
			"-0.003": 25.928621793,
			"-0.002": 25.2668102502,
			"-0.001": 24.9233926656,
			"0.0": 19.8810583564,
			"0.001": 15.2075712914,
			"0.002": 12.2133651078,
			"0.003": 17.5824478833,
			"0.004": 11.3472054868,
			"0.005": 4.69717067374,
			"0.006": 5.37896863102,
			"0.007": 8.34194158245,
			"0.008": 11.0366192986,
			"0.009": 6.53182763322,
			"0.01": 2.08600202646,
			"0.011": 2.00641061531,
			"0.012": 2.86217770768,
			"0.013": 5.42871718512,
			"0.014": 2.31756716221,
			"0.015": 0.0765961036594,
			"0.016": 0.0,
			"0.017": 0.0,
			"0.018": 0.0,
			"0.019": 0.0,
			"0.02": 0.0,
			"0.021": 0.0,
			"0.022": 0.0,
			"0.023": 0.0,
			"0.024": 0.0,
			"0.025": 0.0
		}
	}
}
