{
	 "smiles": "CC(=O)C1=CC=C(CC2=CC=CC=C2)C=C1", 
	 "Tm": 312.15, 
	 "num_atms": 30, 
	 "gaussian": { 
		 "optdone": 1, 
		 "sigma_profile": "yes", 
		 "theory": "DFT", 
		 "functional": "B3LYP", 
		 "basiset": "6-31G**", 
		 "properties": { 
			 "R2extent": 5233.5901, 
			 "electric_dipole_moment_norm": 3.26912948811, 
			 "electric_quadrupole_moment_norm": 14.7288065555, 
			 "total_energy": -655.270980291, 
			 "HOMO_LUMO_gap": 0.18769, 
			 "cosmo_polarized_energy": -10.1, 
			 "cosmo_cavitation_energy": 34.05, 
			 "cosmo_dispersion_energy": -24.0, 
			 "cosmo_repulsion_energy": 1.87, 
			 "cosmo_total_nonelectrostatic_energy": 11.91, 
			 "SMD_solvation_energy": 6.19 
		},
		"coords": [
			{
				"x": 3.8268103019,
				"y": -2.5293169233,
				"z": 0.3670781695,
				"element": "C" 
			},
			{
				"x": 3.7196408689,
				"y": -1.0866553897,
				"z": -0.1002129672,
				"element": "C" 
			},
			{
				"x": 4.6205404527,
				"y": -0.5784732526,
				"z": -0.751839823,
				"element": "O" 
			},
			{
				"x": 2.4933317553,
				"y": -0.3018604469,
				"z": 0.2518894958,
				"element": "C" 
			},
			{
				"x": 2.4058843123,
				"y": 1.0276696453,
				"z": -0.1853175191,
				"element": "C" 
			},
			{
				"x": 1.2876832345,
				"y": 1.7991766532,
				"z": 0.1143282101,
				"element": "C" 
			},
			{
				"x": 0.2239705886,
				"y": 1.269579032,
				"z": 0.8587295828,
				"element": "C" 
			},
			{
				"x": -0.9834657373,
				"y": 2.1239206561,
				"z": 1.2090451665,
				"element": "C" 
			},
			{
				"x": -2.3232691765,
				"y": 1.4979993032,
				"z": 0.8591890102,
				"element": "C" 
			},
			{
				"x": -2.6372196451,
				"y": 1.1841004826,
				"z": -0.4716489158,
				"element": "C" 
			},
			{
				"x": -3.8697431789,
				"y": 0.622763337,
				"z": -0.8004417514,
				"element": "C" 
			},
			{
				"x": -4.812233771,
				"y": 0.3615429122,
				"z": 0.198229949,
				"element": "C" 
			},
			{
				"x": -4.5109597443,
				"y": 0.6669220318,
				"z": 1.5249789897,
				"element": "C" 
			},
			{
				"x": -3.2744888412,
				"y": 1.2310488733,
				"z": 1.8503962919,
				"element": "C" 
			},
			{
				"x": 0.311613674,
				"y": -0.0615383121,
				"z": 1.2919294903,
				"element": "C" 
			},
			{
				"x": 1.4292860714,
				"y": -0.8365325592,
				"z": 0.9959586899,
				"element": "C" 
			},
			{
				"x": 3.7780309185,
				"y": -2.5937544124,
				"z": 1.459745315,
				"element": "H" 
			},
			{
				"x": 3.0052553309,
				"y": -3.1344020149,
				"z": -0.0320514639,
				"element": "H" 
			},
			{
				"x": 4.7773771789,
				"y": -2.9374011428,
				"z": 0.0226199503,
				"element": "H" 
			},
			{
				"x": 3.2309407218,
				"y": 1.4323030643,
				"z": -0.7621805453,
				"element": "H" 
			},
			{
				"x": 1.2360761515,
				"y": 2.8287724928,
				"z": -0.2313466783,
				"element": "H" 
			},
			{
				"x": -0.8869324438,
				"y": 3.0916716263,
				"z": 0.7020745412,
				"element": "H" 
			},
			{
				"x": -0.9658349236,
				"y": 2.3429316415,
				"z": 2.2843154253,
				"element": "H" 
			},
			{
				"x": -1.9064546522,
				"y": 1.3784748167,
				"z": -1.2527333469,
				"element": "H" 
			},
			{
				"x": -4.0963281265,
				"y": 0.3884471953,
				"z": -1.8368741351,
				"element": "H" 
			},
			{
				"x": -5.7726871286,
				"y": -0.0762237553,
				"z": -0.0580942021,
				"element": "H" 
			},
			{
				"x": -5.2360960999,
				"y": 0.4680326916,
				"z": 2.3092090395,
				"element": "H" 
			},
			{
				"x": -3.0480033155,
				"y": 1.4710228036,
				"z": 2.8866340297,
				"element": "H" 
			},
			{
				"x": -0.5087104674,
				"y": -0.4933243896,
				"z": 1.8585401449,
				"element": "H" 
			},
			{
				"x": 1.4671856906,
				"y": -1.86299666,
				"z": 1.3468498566,
				"element": "H" 
			}
		],
		 "valence_orbital": [ 
			{
				"type": "occ",
				"energy": -0.25855,
				"method": "rhf"
			},
			{
				"type": "occ",
				"energy": -0.25577,
				"method": "rhf"
			},
			{
				"type": "occ",
				"energy": -0.25164,
				"method": "rhf"
			},
			{
				"type": "occ",
				"energy": -0.24425,
				"method": "rhf"
			},
			{
				"type": "occ",
				"energy": -0.2398,
				"method": "rhf"
			},
			{
				"type": "unocc",
				"energy": -0.05211,
				"method": "rhf"
			},
			{
				"type": "unocc",
				"energy": -0.01052,
				"method": "rhf"
			},
			{
				"type": "unocc",
				"energy": -0.00643,
				"method": "rhf"
			},
			{
				"type": "unocc",
				"energy": 0.00099,
				"method": "rhf"
			},
			{
				"type": "unocc",
				"energy": 0.04088,
				"method": "rhf"
			}
		],
		"cosmo_sigma_profile": { 
			"-0.025": 0.0,
			"-0.024": 0.0,
			"-0.023": 0.0,
			"-0.022": 0.0,
			"-0.021": 0.0,
			"-0.02": 0.0,
			"-0.019": 0.0,
			"-0.018": 0.0,
			"-0.017": 0.0,
			"-0.016": 0.0,
			"-0.015": 0.0,
			"-0.014": 0.0,
			"-0.013": 0.0,
			"-0.012": 0.0,
			"-0.011": 0.0,
			"-0.01": 0.0,
			"-0.009": 0.0,
			"-0.008": 0.0,
			"-0.007": 0.433071531076,
			"-0.006": 13.2125891198,
			"-0.005": 28.5655055572,
			"-0.004": 26.7667485538,
			"-0.003": 28.7903863307,
			"-0.002": 22.8973998442,
			"-0.001": 22.405353632,
			"0.0": 18.111162736,
			"0.001": 15.1321371405,
			"0.002": 15.2630885466,
			"0.003": 18.6711818041,
			"0.004": 21.3741268279,
			"0.005": 12.3086867792,
			"0.006": 10.3333577017,
			"0.007": 2.43058023688,
			"0.008": 1.60452628383,
			"0.009": 1.29680200998,
			"0.01": 2.50996394933,
			"0.011": 2.6055987456,
			"0.012": 4.26171422006,
			"0.013": 1.86157844658,
			"0.014": 0.35869618101,
			"0.015": 0.0,
			"0.016": 0.0,
			"0.017": 0.0,
			"0.018": 0.0,
			"0.019": 0.0,
			"0.02": 0.0,
			"0.021": 0.0,
			"0.022": 0.0,
			"0.023": 0.0,
			"0.024": 0.0,
			"0.025": 0.0
		}
	}
}
