{
	 "smiles": "CC1=NC(O)=NC(N)=N1", 
	 "Tm": 573.15, 
	 "num_atms": 15, 
	 "gaussian": { 
		 "optdone": 1, 
		 "sigma_profile": "yes", 
		 "theory": "DFT", 
		 "functional": "B3LYP", 
		 "basiset": "6-31G**", 
		 "properties": { 
			 "R2extent": 1358.8694, 
			 "electric_dipole_moment_norm": 1.48948069138, 
			 "electric_quadrupole_moment_norm": 9.47563984541, 
			 "total_energy": -450.310761523, 
			 "HOMO_LUMO_gap": 0.23021, 
			 "cosmo_polarized_energy": -13.01, 
			 "cosmo_cavitation_energy": 19.59, 
			 "cosmo_dispersion_energy": -15.13, 
			 "cosmo_repulsion_energy": 1.28, 
			 "cosmo_total_nonelectrostatic_energy": 5.73, 
			 "SMD_solvation_energy": -0.28 
		},
		"coords": [
			{
				"x": 1.1599721427,
				"y": 3.239719408,
				"z": 1.0061684473,
				"element": "C" 
			},
			{
				"x": 0.4509161935,
				"y": 2.0063831658,
				"z": 0.5222858571,
				"element": "C" 
			},
			{
				"x": -0.4090575491,
				"y": 2.1597857773,
				"z": -0.4996118936,
				"element": "N" 
			},
			{
				"x": -1.0085319317,
				"y": 1.0252023471,
				"z": -0.8846963507,
				"element": "C" 
			},
			{
				"x": -1.8773647203,
				"y": 1.117004698,
				"z": -1.9003858157,
				"element": "O" 
			},
			{
				"x": -0.8397276174,
				"y": -0.1872997147,
				"z": -0.3724933568,
				"element": "N" 
			},
			{
				"x": 0.0432023475,
				"y": -0.2119245524,
				"z": 0.6415543166,
				"element": "C" 
			},
			{
				"x": 0.2790357461,
				"y": -1.4065320734,
				"z": 1.2253705615,
				"element": "N" 
			},
			{
				"x": 0.7194549743,
				"y": 0.8524552062,
				"z": 1.1328813967,
				"element": "N" 
			},
			{
				"x": 0.4292930776,
				"y": 3.9888673258,
				"z": 1.3274760364,
				"element": "H" 
			},
			{
				"x": 1.8263700265,
				"y": 2.9966577925,
				"z": 1.8339560634,
				"element": "H" 
			},
			{
				"x": 1.7346350903,
				"y": 3.6853800285,
				"z": 0.1878947601,
				"element": "H" 
			},
			{
				"x": -1.8850324282,
				"y": 2.0532046978,
				"z": -2.1558617731,
				"element": "H" 
			},
			{
				"x": 0.9337356563,
				"y": -1.4606509528,
				"z": 1.9869450876,
				"element": "H" 
			},
			{
				"x": -0.2031010081,
				"y": -2.2236531535,
				"z": 0.8906166631,
				"element": "H" 
			}
		],
		 "valence_orbital": [ 
			{
				"type": "occ",
				"energy": -0.3276,
				"method": "rhf"
			},
			{
				"type": "occ",
				"energy": -0.27845,
				"method": "rhf"
			},
			{
				"type": "occ",
				"energy": -0.26641,
				"method": "rhf"
			},
			{
				"type": "occ",
				"energy": -0.26133,
				"method": "rhf"
			},
			{
				"type": "occ",
				"energy": -0.24882,
				"method": "rhf"
			},
			{
				"type": "unocc",
				"energy": -0.01861,
				"method": "rhf"
			},
			{
				"type": "unocc",
				"energy": 0.00265,
				"method": "rhf"
			},
			{
				"type": "unocc",
				"energy": 0.08448,
				"method": "rhf"
			},
			{
				"type": "unocc",
				"energy": 0.09174,
				"method": "rhf"
			},
			{
				"type": "unocc",
				"energy": 0.12565,
				"method": "rhf"
			}
		],
		"cosmo_sigma_profile": { 
			"-0.025": 0.0,
			"-0.024": 0.0,
			"-0.023": 0.0,
			"-0.022": 0.0,
			"-0.021": 0.0,
			"-0.02": 0.0,
			"-0.019": 0.0,
			"-0.018": 0.316765273201,
			"-0.017": 0.947663432328,
			"-0.016": 1.04287244824,
			"-0.015": 1.01216371528,
			"-0.014": 2.46082698568,
			"-0.013": 2.72975439263,
			"-0.012": 2.60767320065,
			"-0.011": 2.30957943498,
			"-0.01": 3.2711944274,
			"-0.009": 1.61102529824,
			"-0.008": 2.95573372665,
			"-0.007": 2.16245159147,
			"-0.006": 3.59033946042,
			"-0.005": 6.63294028691,
			"-0.004": 6.895316231,
			"-0.003": 9.62801334347,
			"-0.002": 12.4814207403,
			"-0.001": 15.5901256269,
			"0.0": 9.61852138556,
			"0.001": 8.08121337005,
			"0.002": 8.2699782074,
			"0.003": 6.98286247782,
			"0.004": 6.57307623969,
			"0.005": 4.26891240076,
			"0.006": 3.98346576174,
			"0.007": 3.6767196877,
			"0.008": 4.45681038814,
			"0.009": 4.10639758687,
			"0.01": 5.64579297901,
			"0.011": 4.07721935893,
			"0.012": 3.04506613064,
			"0.013": 2.41130170941,
			"0.014": 1.74957910135,
			"0.015": 0.340553183186,
			"0.016": 0.0,
			"0.017": 0.0,
			"0.018": 0.0,
			"0.019": 0.0,
			"0.02": 0.0,
			"0.021": 0.0,
			"0.022": 0.0,
			"0.023": 0.0,
			"0.024": 0.0,
			"0.025": 0.0
		}
	}
}
