{
	 "smiles": "CNC(=O)C1=NC=CC(OC2=CC(O)=CC=C2)=C1", 
	 "Tm": 398.15, 
	 "num_atms": 30, 
	 "gaussian": { 
		 "optdone": 1, 
		 "sigma_profile": "yes", 
		 "theory": "DFT", 
		 "functional": "B3LYP", 
		 "basiset": "6-31G**", 
		 "properties": { 
			 "R2extent": 6797.9563, 
			 "electric_dipole_moment_norm": 5.16605120184, 
			 "electric_quadrupole_moment_norm": 21.3342458749, 
			 "total_energy": -837.784594861, 
			 "HOMO_LUMO_gap": 0.19502, 
			 "cosmo_polarized_energy": -17.66, 
			 "cosmo_cavitation_energy": 35.29, 
			 "cosmo_dispersion_energy": -25.49, 
			 "cosmo_repulsion_energy": 1.98, 
			 "cosmo_total_nonelectrostatic_energy": 11.78, 
			 "SMD_solvation_energy": 6.48 
		},
		"coords": [
			{
				"x": -0.5976433235,
				"y": -2.344264202,
				"z": -4.7403413604,
				"element": "C" 
			},
			{
				"x": -1.7177605845,
				"y": -2.2073406436,
				"z": -3.815249569,
				"element": "N" 
			},
			{
				"x": -1.8737038549,
				"y": -1.519305369,
				"z": -2.646685874,
				"element": "C" 
			},
			{
				"x": -2.9439769428,
				"y": -1.5685863129,
				"z": -2.03822998,
				"element": "O" 
			},
			{
				"x": -0.7368644255,
				"y": -0.6912179929,
				"z": -2.0883841712,
				"element": "C" 
			},
			{
				"x": 0.4345843048,
				"y": -0.6217938168,
				"z": -2.7429531069,
				"element": "N" 
			},
			{
				"x": 1.3941429916,
				"y": 0.1286678521,
				"z": -2.1939955375,
				"element": "C" 
			},
			{
				"x": 1.2582510727,
				"y": 0.8333861969,
				"z": -0.9985486708,
				"element": "C" 
			},
			{
				"x": 0.032929492,
				"y": 0.7457888419,
				"z": -0.3299414326,
				"element": "C" 
			},
			{
				"x": -0.2620843894,
				"y": 1.3967843564,
				"z": 0.8348649384,
				"element": "O" 
			},
			{
				"x": 0.7398032613,
				"y": 2.0374719879,
				"z": 1.5552270986,
				"element": "C" 
			},
			{
				"x": 1.6858659227,
				"y": 1.2852372485,
				"z": 2.2468207178,
				"element": "C" 
			},
			{
				"x": 2.636413356,
				"y": 1.9497851278,
				"z": 3.0290306133,
				"element": "C" 
			},
			{
				"x": 3.5456919582,
				"y": 1.1758328455,
				"z": 3.6882937264,
				"element": "O" 
			},
			{
				"x": 2.6258910615,
				"y": 3.3476034443,
				"z": 3.1159993508,
				"element": "C" 
			},
			{
				"x": 1.6613979004,
				"y": 4.0748159584,
				"z": 2.4184144238,
				"element": "C" 
			},
			{
				"x": 0.7100568941,
				"y": 3.4302689242,
				"z": 1.6277751835,
				"element": "C" 
			},
			{
				"x": -0.9854933007,
				"y": -0.0298553741,
				"z": -0.8854609903,
				"element": "C" 
			},
			{
				"x": -0.2979629418,
				"y": -1.3849056288,
				"z": -5.1675429523,
				"element": "H" 
			},
			{
				"x": -0.9255876165,
				"y": -3.0046395963,
				"z": -5.5476426483,
				"element": "H" 
			},
			{
				"x": 0.2803720789,
				"y": -2.7815905462,
				"z": -4.2602701916,
				"element": "H" 
			},
			{
				"x": -2.5670535297,
				"y": -2.70500115,
				"z": -4.0449718421,
				"element": "H" 
			},
			{
				"x": 2.3356716453,
				"y": 0.177538828,
				"z": -2.738484947,
				"element": "H" 
			},
			{
				"x": 2.0767028487,
				"y": 1.4258547168,
				"z": -0.6086636971,
				"element": "H" 
			},
			{
				"x": 1.6877061774,
				"y": 0.202502108,
				"z": 2.1956127532,
				"element": "H" 
			},
			{
				"x": 4.1299422871,
				"y": 1.7429705632,
				"z": 4.2080393076,
				"element": "H" 
			},
			{
				"x": 3.364204755,
				"y": 3.8603154441,
				"z": 3.7281155472,
				"element": "H" 
			},
			{
				"x": 1.6542300925,
				"y": 5.1580927111,
				"z": 2.4918727074,
				"element": "H" 
			},
			{
				"x": -0.0492244025,
				"y": 3.9791329678,
				"z": 1.0826885314,
				"element": "H" 
			},
			{
				"x": -1.9516027883,
				"y": -0.1259494905,
				"z": -0.4067879285,
				"element": "H" 
			}
		],
		 "valence_orbital": [ 
			{
				"type": "occ",
				"energy": -0.26145,
				"method": "rhf"
			},
			{
				"type": "occ",
				"energy": -0.24725,
				"method": "rhf"
			},
			{
				"type": "occ",
				"energy": -0.23891,
				"method": "rhf"
			},
			{
				"type": "occ",
				"energy": -0.23764,
				"method": "rhf"
			},
			{
				"type": "occ",
				"energy": -0.23495,
				"method": "rhf"
			},
			{
				"type": "unocc",
				"energy": -0.03993,
				"method": "rhf"
			},
			{
				"type": "unocc",
				"energy": -0.0163,
				"method": "rhf"
			},
			{
				"type": "unocc",
				"energy": -0.01423,
				"method": "rhf"
			},
			{
				"type": "unocc",
				"energy": 0.00306,
				"method": "rhf"
			},
			{
				"type": "unocc",
				"energy": 0.06044,
				"method": "rhf"
			}
		],
		"cosmo_sigma_profile": { 
			"-0.025": 0.0,
			"-0.024": 0.0,
			"-0.023": 0.0,
			"-0.022": 0.0,
			"-0.021": 0.0,
			"-0.02": 0.0,
			"-0.019": 0.0243168686393,
			"-0.018": 0.733677690797,
			"-0.017": 1.15597029685,
			"-0.016": 0.83740421557,
			"-0.015": 1.51682314268,
			"-0.014": 0.939950721351,
			"-0.013": 1.71748976491,
			"-0.012": 1.54454759361,
			"-0.011": 2.55649233025,
			"-0.01": 2.84673143059,
			"-0.009": 2.07204214303,
			"-0.008": 2.13051835283,
			"-0.007": 7.81803972135,
			"-0.006": 13.9457689275,
			"-0.005": 14.5694869385,
			"-0.004": 17.0373232868,
			"-0.003": 15.2925676587,
			"-0.002": 19.8772181688,
			"-0.001": 21.0467146174,
			"0.0": 20.5796079793,
			"0.001": 27.804467718,
			"0.002": 22.2863345487,
			"0.003": 20.6967340275,
			"0.004": 15.4729148983,
			"0.005": 10.3443669204,
			"0.006": 5.97758417969,
			"0.007": 5.63458980438,
			"0.008": 6.0625139418,
			"0.009": 2.71928185555,
			"0.01": 2.28045339651,
			"0.011": 3.5992775227,
			"0.012": 2.28992236554,
			"0.013": 2.66008965584,
			"0.014": 5.05950380668,
			"0.015": 0.678827080782,
			"0.016": 0.0,
			"0.017": 0.0,
			"0.018": 0.0,
			"0.019": 0.0,
			"0.02": 0.0,
			"0.021": 0.0,
			"0.022": 0.0,
			"0.023": 0.0,
			"0.024": 0.0,
			"0.025": 0.0
		}
	}
}
