{
	 "smiles": "COC1=C(Br)SC=C1C(Cl)=O", 
	 "Tm": 353.65, 
	 "num_atms": 15, 
	 "gaussian": { 
		 "optdone": 1, 
		 "sigma_profile": "yes", 
		 "theory": "DFT", 
		 "functional": "B3LYP", 
		 "basiset": "6-31G**", 
		 "properties": { 
			 "R2extent": 3616.0035, 
			 "electric_dipole_moment_norm": 3.00954699747, 
			 "electric_quadrupole_moment_norm": 13.9548068288, 
			 "total_energy": -3811.2367332, 
			 "HOMO_LUMO_gap": 0.16974, 
			 "cosmo_polarized_energy": -7.29, 
			 "cosmo_cavitation_energy": 25.45, 
			 "cosmo_dispersion_energy": -19.4, 
			 "cosmo_repulsion_energy": 1.51, 
			 "cosmo_total_nonelectrostatic_energy": 7.56, 
			 "SMD_solvation_energy": 4.62 
		},
		"coords": [
			{
				"x": -0.2317223668,
				"y": -1.9950062024,
				"z": 0.5195019347,
				"element": "C" 
			},
			{
				"x": 0.4002859333,
				"y": -0.7487307556,
				"z": 0.1844103103,
				"element": "O" 
			},
			{
				"x": -0.3898671647,
				"y": 0.3497458842,
				"z": 0.2636883395,
				"element": "C" 
			},
			{
				"x": -1.1922235074,
				"y": 0.7700999063,
				"z": -0.7689360506,
				"element": "C" 
			},
			{
				"x": -1.3988822641,
				"y": -0.0817647825,
				"z": -2.4306284972,
				"element": "Br" 
			},
			{
				"x": -2.0208654664,
				"y": 2.2585828447,
				"z": -0.4139314388,
				"element": "S" 
			},
			{
				"x": -1.2919604834,
				"y": 2.3329333647,
				"z": 1.1368863414,
				"element": "C" 
			},
			{
				"x": -0.4516043467,
				"y": 1.2684626848,
				"z": 1.3852106505,
				"element": "C" 
			},
			{
				"x": 0.2351822625,
				"y": 1.2531199625,
				"z": 2.6912596866,
				"element": "C" 
			},
			{
				"x": 1.3259664878,
				"y": -0.155407921,
				"z": 3.0146456599,
				"element": "Cl" 
			},
			{
				"x": 0.1146169304,
				"y": 2.0964703271,
				"z": 3.5331552517,
				"element": "O" 
			},
			{
				"x": 0.5299625612,
				"y": -2.7625884217,
				"z": 0.3784212357,
				"element": "H" 
			},
			{
				"x": -1.0806359636,
				"y": -2.1924630452,
				"z": -0.1431888372,
				"element": "H" 
			},
			{
				"x": -0.5614245828,
				"y": -1.9970783122,
				"z": 1.5635058032,
				"element": "H" 
			},
			{
				"x": -1.4987280295,
				"y": 3.1495244662,
				"z": 1.8138996102,
				"element": "H" 
			}
		],
		 "valence_orbital": [ 
			{
				"type": "occ",
				"energy": -0.31253,
				"method": "rhf"
			},
			{
				"type": "occ",
				"energy": -0.29632,
				"method": "rhf"
			},
			{
				"type": "occ",
				"energy": -0.29042,
				"method": "rhf"
			},
			{
				"type": "occ",
				"energy": -0.28109,
				"method": "rhf"
			},
			{
				"type": "occ",
				"energy": -0.24849,
				"method": "rhf"
			},
			{
				"type": "unocc",
				"energy": -0.07875,
				"method": "rhf"
			},
			{
				"type": "unocc",
				"energy": -0.02479,
				"method": "rhf"
			},
			{
				"type": "unocc",
				"energy": -0.01945,
				"method": "rhf"
			},
			{
				"type": "unocc",
				"energy": -0.00276,
				"method": "rhf"
			},
			{
				"type": "unocc",
				"energy": 0.02204,
				"method": "rhf"
			}
		],
		"cosmo_sigma_profile": { 
			"-0.025": 0.0,
			"-0.024": 0.0,
			"-0.023": 0.0,
			"-0.022": 0.0,
			"-0.021": 0.0,
			"-0.02": 0.0,
			"-0.019": 0.0,
			"-0.018": 0.0,
			"-0.017": 0.0,
			"-0.016": 0.0,
			"-0.015": 0.0,
			"-0.014": 0.0,
			"-0.013": 0.0,
			"-0.012": 0.0,
			"-0.011": 0.986048515123,
			"-0.01": 2.19559680698,
			"-0.009": 1.13536672555,
			"-0.008": 1.70347438577,
			"-0.007": 2.05139314986,
			"-0.006": 5.91551625367,
			"-0.005": 10.873194485,
			"-0.004": 13.9696715379,
			"-0.003": 20.1727066993,
			"-0.002": 18.4912285401,
			"-0.001": 25.7579081776,
			"0.0": 22.1549285361,
			"0.001": 18.8265118661,
			"0.002": 14.3559243089,
			"0.003": 13.7838193808,
			"0.004": 11.3633765056,
			"0.005": 7.30647680096,
			"0.006": 3.66723197806,
			"0.007": 4.92242880438,
			"0.008": 4.97261988969,
			"0.009": 4.8682457037,
			"0.01": 2.51776551951,
			"0.011": 0.410367956417,
			"0.012": 0.0,
			"0.013": 0.0,
			"0.014": 0.0,
			"0.015": 0.0,
			"0.016": 0.0,
			"0.017": 0.0,
			"0.018": 0.0,
			"0.019": 0.0,
			"0.02": 0.0,
			"0.021": 0.0,
			"0.022": 0.0,
			"0.023": 0.0,
			"0.024": 0.0,
			"0.025": 0.0
		}
	}
}
