{
	 "smiles": "NNC1=C(I)C=C(Cl)C=N1", 
	 "Tm": 410.15, 
	 "num_atms": 15, 
	 "gaussian": { 
		 "optdone": 1, 
		 "sigma_profile": "no", 
		 "theory": "DFT", 
		 "functional": "B3LYP", 
		 "basiset": "6-31G**", 
		 "properties": { 
			 "R2extent": 3307.9472, 
			 "electric_dipole_moment_norm": 0.633331469296, 
			 "electric_quadrupole_moment_norm": 7.02363348844, 
			 "total_energy": -829.342657948, 
			 "HOMO_LUMO_gap": 0.16761, 
			 "cosmo_polarized_energy": -87394.51, 
			 "cosmo_cavitation_energy": 24.28, 
			 "cosmo_dispersion_energy": -19.69, 
			 "cosmo_repulsion_energy": 1.58, 
			 "cosmo_total_nonelectrostatic_energy": 6.17, 
			 "SMD_solvation_energy": 2.48 
		},
		"coords": [
			{
				"x": -1.2306598779,
				"y": 0.5037104727,
				"z": -1.0880831536,
				"element": "N" 
			},
			{
				"x": -1.1615508727,
				"y": -0.5759726764,
				"z": -0.1888170865,
				"element": "N" 
			},
			{
				"x": -0.4406008383,
				"y": -0.5056130201,
				"z": 0.976616202,
				"element": "C" 
			},
			{
				"x": -0.5163500598,
				"y": -1.5060861531,
				"z": 1.981244157,
				"element": "C" 
			},
			{
				"x": -1.8022734937,
				"y": -3.1820269478,
				"z": 1.7766297587,
				"element": "I" 
			},
			{
				"x": 0.2621813645,
				"y": -1.3873900401,
				"z": 3.1203402343,
				"element": "C" 
			},
			{
				"x": 1.1038113348,
				"y": -0.2759562902,
				"z": 3.2431203143,
				"element": "C" 
			},
			{
				"x": 2.1127680764,
				"y": -0.0790914518,
				"z": 4.6623216123,
				"element": "Cl" 
			},
			{
				"x": 1.1206543704,
				"y": 0.6671452102,
				"z": 2.2230037433,
				"element": "C" 
			},
			{
				"x": 0.3678705704,
				"y": 0.5557933833,
				"z": 1.125632181,
				"element": "N" 
			},
			{
				"x": -0.3427617947,
				"y": 0.5454627011,
				"z": -1.5862722719,
				"element": "H" 
			},
			{
				"x": -1.276767365,
				"y": 1.3683514656,
				"z": -0.5470857146,
				"element": "H" 
			},
			{
				"x": -1.9563221722,
				"y": -1.1966359183,
				"z": -0.2262691343,
				"element": "H" 
			},
			{
				"x": 0.2252155208,
				"y": -2.1353027838,
				"z": 3.9035067138,
				"element": "H" 
			},
			{
				"x": 1.7591852371,
				"y": 1.5443120489,
				"z": 2.2922124442,
				"element": "H" 
			}
		],
		 "valence_orbital": [ 
			{
				"type": "occ",
				"energy": -0.29415,
				"method": "rhf"
			},
			{
				"type": "occ",
				"energy": -0.27917,
				"method": "rhf"
			},
			{
				"type": "occ",
				"energy": -0.27393,
				"method": "rhf"
			},
			{
				"type": "occ",
				"energy": -0.27015,
				"method": "rhf"
			},
			{
				"type": "occ",
				"energy": -0.22201,
				"method": "rhf"
			},
			{
				"type": "unocc",
				"energy": -0.0544,
				"method": "rhf"
			},
			{
				"type": "unocc",
				"energy": -0.04418,
				"method": "rhf"
			},
			{
				"type": "unocc",
				"energy": -0.01537,
				"method": "rhf"
			},
			{
				"type": "unocc",
				"energy": 0.02618,
				"method": "rhf"
			},
			{
				"type": "unocc",
				"energy": 0.0367,
				"method": "rhf"
			}
		],
		"cosmo_sigma_profile": { 
			"0.0": 0.0,
			"0.0": 0.0,
			"0.0": 0.0,
			"0.0": 0.0,
			"0.0": 0.0,
			"0.0": 0.0,
			"0.0": 0.0,
			"0.0": 0.0,
			"0.0": 0.0,
			"0.0": 0.0,
			"0.0": 0.0,
			"0.0": 0.0,
			"0.0": 0.0,
			"0.0": 0.0,
			"0.0": 0.0,
			"0.0": 0.0,
			"0.0": 0.0,
			"0.0": 0.0,
			"0.0": 0.0,
			"0.0": 0.0,
			"0.0": 0.0,
			"0.0": 0.0,
			"0.0": 0.0,
			"0.0": 0.0,
			"0.0": 0.0,
			"0.0": 0.0,
			"0.0": 0.0,
			"0.0": 0.0,
			"0.0": 0.0,
			"0.0": 0.0,
			"0.0": 0.0,
			"0.0": 0.0,
			"0.0": 0.0,
			"0.0": 0.0,
			"0.0": 0.0,
			"0.0": 0.0,
			"0.0": 0.0,
			"0.0": 0.0,
			"0.0": 0.0,
			"0.0": 0.0,
			"0.0": 0.0,
			"0.0": 0.0,
			"0.0": 0.0,
			"0.0": 0.0,
			"0.0": 0.0,
			"0.0": 0.0,
			"0.0": 0.0,
			"0.0": 0.0,
			"0.0": 0.0,
			"0.0": 0.0,
			"0.0": 0.0
		}
	}
}
