{
	 "smiles": "ClCC(=O)NC1=NN=C(O1)C1=CC=CO1", 
	 "Tm": 468.15, 
	 "num_atms": 21, 
	 "gaussian": { 
		 "optdone": 1, 
		 "sigma_profile": "yes", 
		 "theory": "DFT", 
		 "functional": "B3LYP", 
		 "basiset": "6-31G**", 
		 "properties": { 
			 "R2extent": 4921.0103, 
			 "electric_dipole_moment_norm": 4.7536130238, 
			 "electric_quadrupole_moment_norm": 9.9062955816, 
			 "total_energy": -1158.52731959, 
			 "HOMO_LUMO_gap": 0.17022, 
			 "cosmo_polarized_energy": -18.73, 
			 "cosmo_cavitation_energy": 29.57, 
			 "cosmo_dispersion_energy": -21.51, 
			 "cosmo_repulsion_energy": 1.69, 
			 "cosmo_total_nonelectrostatic_energy": 9.75, 
			 "SMD_solvation_energy": 4.95 
		},
		"coords": [
			{
				"x": -0.478786539,
				"y": -3.3049366709,
				"z": -2.1471314508,
				"element": "Cl" 
			},
			{
				"x": -1.0812934107,
				"y": -1.8619393113,
				"z": -1.2845037609,
				"element": "C" 
			},
			{
				"x": -2.6082279395,
				"y": -1.8281122613,
				"z": -1.2305239636,
				"element": "C" 
			},
			{
				"x": -3.333983393,
				"y": -2.6701594916,
				"z": -1.709482348,
				"element": "O" 
			},
			{
				"x": -3.1827528194,
				"y": -0.7322961687,
				"z": -0.572129884,
				"element": "N" 
			},
			{
				"x": -2.6537701531,
				"y": 0.3640457246,
				"z": 0.0616498939,
				"element": "C" 
			},
			{
				"x": -3.3328950411,
				"y": 1.3117696884,
				"z": 0.6356889356,
				"element": "N" 
			},
			{
				"x": -2.3839116657,
				"y": 2.2019156309,
				"z": 1.1381942696,
				"element": "N" 
			},
			{
				"x": -1.2178547418,
				"y": 1.7242999999,
				"z": 0.8299191725,
				"element": "C" 
			},
			{
				"x": -1.3105902526,
				"y": 0.5344872848,
				"z": 0.1310757253,
				"element": "O" 
			},
			{
				"x": 0.0853426589,
				"y": 2.2599962059,
				"z": 1.1154857118,
				"element": "C" 
			},
			{
				"x": 0.482753482,
				"y": 3.3937607443,
				"z": 1.774595372,
				"element": "C" 
			},
			{
				"x": 1.9093090168,
				"y": 3.3889403246,
				"z": 1.7386288464,
				"element": "C" 
			},
			{
				"x": 2.2725860161,
				"y": 2.2598107757,
				"z": 1.0645877257,
				"element": "C" 
			},
			{
				"x": 1.1727614436,
				"y": 1.5575599439,
				"z": 0.6761625291,
				"element": "O" 
			},
			{
				"x": -0.6996847333,
				"y": -0.9752670681,
				"z": -1.7933796628,
				"element": "H" 
			},
			{
				"x": -0.6657790367,
				"y": -1.8685069721,
				"z": -0.2755021269,
				"element": "H" 
			},
			{
				"x": -4.196398434,
				"y": -0.758554217,
				"z": -0.5645166081,
				"element": "H" 
			},
			{
				"x": -0.1710981176,
				"y": 4.1272120448,
				"z": 2.2221461448,
				"element": "H" 
			},
			{
				"x": 2.5749169612,
				"y": 4.1284261316,
				"z": 2.1590849257,
				"element": "H" 
			},
			{
				"x": 3.222656699,
				"y": 1.8296476617,
				"z": 0.7889505524,
				"element": "H" 
			}
		],
		 "valence_orbital": [ 
			{
				"type": "occ",
				"energy": -0.30625,
				"method": "rhf"
			},
			{
				"type": "occ",
				"energy": -0.2967,
				"method": "rhf"
			},
			{
				"type": "occ",
				"energy": -0.29191,
				"method": "rhf"
			},
			{
				"type": "occ",
				"energy": -0.2884,
				"method": "rhf"
			},
			{
				"type": "occ",
				"energy": -0.23088,
				"method": "rhf"
			},
			{
				"type": "unocc",
				"energy": -0.06066,
				"method": "rhf"
			},
			{
				"type": "unocc",
				"energy": -0.02706,
				"method": "rhf"
			},
			{
				"type": "unocc",
				"energy": 0.01273,
				"method": "rhf"
			},
			{
				"type": "unocc",
				"energy": 0.02537,
				"method": "rhf"
			},
			{
				"type": "unocc",
				"energy": 0.03971,
				"method": "rhf"
			}
		],
		"cosmo_sigma_profile": { 
			"-0.025": 0.0,
			"-0.024": 0.0,
			"-0.023": 0.0,
			"-0.022": 0.0,
			"-0.021": 0.0,
			"-0.02": 0.0,
			"-0.019": 0.0,
			"-0.018": 0.158885076778,
			"-0.017": 0.670079254671,
			"-0.016": 0.938540498714,
			"-0.015": 0.764616469897,
			"-0.014": 0.977138832449,
			"-0.013": 0.612374175548,
			"-0.012": 0.609164547022,
			"-0.011": 2.79193074117,
			"-0.01": 5.62310721925,
			"-0.009": 7.39517777699,
			"-0.008": 8.78927765663,
			"-0.007": 9.89321893898,
			"-0.006": 11.4540883977,
			"-0.005": 13.6354127334,
			"-0.004": 12.3464452505,
			"-0.003": 14.0436811007,
			"-0.002": 10.2356772953,
			"-0.001": 12.6206538403,
			"0.0": 14.3158029798,
			"0.001": 16.7267662588,
			"0.002": 13.7306772157,
			"0.003": 14.1347814838,
			"0.004": 10.6413301738,
			"0.005": 12.4649796175,
			"0.006": 8.22383566801,
			"0.007": 3.75666344564,
			"0.008": 4.35695536927,
			"0.009": 4.563612284,
			"0.01": 6.14690165535,
			"0.011": 8.34969791572,
			"0.012": 4.96266396191,
			"0.013": 2.93019204421,
			"0.014": 1.88304681493,
			"0.015": 0.209947823453,
			"0.016": 0.0,
			"0.017": 0.0,
			"0.018": 0.0,
			"0.019": 0.0,
			"0.02": 0.0,
			"0.021": 0.0,
			"0.022": 0.0,
			"0.023": 0.0,
			"0.024": 0.0,
			"0.025": 0.0
		}
	}
}
