{
	 "smiles": "ClS(=O)(=O)C1=CC2=C(CCNC2=O)C=C1", 
	 "Tm": 462.15, 
	 "num_atms": 23, 
	 "gaussian": { 
		 "optdone": 1, 
		 "sigma_profile": "yes", 
		 "theory": "DFT", 
		 "functional": "B3LYP", 
		 "basiset": "6-31G**", 
		 "properties": { 
			 "R2extent": 7470.4731, 
			 "electric_dipole_moment_norm": 8.59542491911, 
			 "electric_quadrupole_moment_norm": 19.1820661765, 
			 "total_energy": -1486.5386798, 
			 "HOMO_LUMO_gap": 0.17519, 
			 "cosmo_polarized_energy": -17.85, 
			 "cosmo_cavitation_energy": 30.37, 
			 "cosmo_dispersion_energy": -22.91, 
			 "cosmo_repulsion_energy": 1.75, 
			 "cosmo_total_nonelectrostatic_energy": 9.22, 
			 "SMD_solvation_energy": 3.37 
		},
		"coords": [
			{
				"x": -4.502874944,
				"y": -0.6216707236,
				"z": -3.7324258836,
				"element": "Cl" 
			},
			{
				"x": -3.3231247708,
				"y": -2.3326468534,
				"z": -3.2439902131,
				"element": "S" 
			},
			{
				"x": -2.9436714084,
				"y": -2.9371031086,
				"z": -4.5155528009,
				"element": "O" 
			},
			{
				"x": -4.0644902393,
				"y": -3.0614954896,
				"z": -2.2239852242,
				"element": "O" 
			},
			{
				"x": -1.8851187335,
				"y": -1.5677497933,
				"z": -2.5080123981,
				"element": "C" 
			},
			{
				"x": -1.8718306633,
				"y": -1.3290346912,
				"z": -1.1382635835,
				"element": "C" 
			},
			{
				"x": -0.7321781678,
				"y": -0.7520296297,
				"z": -0.5741207369,
				"element": "C" 
			},
			{
				"x": 0.3721401811,
				"y": -0.4112541397,
				"z": -1.3768224164,
				"element": "C" 
			},
			{
				"x": 1.5632713835,
				"y": 0.2533999517,
				"z": -0.7267542941,
				"element": "C" 
			},
			{
				"x": 1.7349159937,
				"y": -0.2226379853,
				"z": 0.7174225288,
				"element": "C" 
			},
			{
				"x": 0.4668390329,
				"y": -0.0953443332,
				"z": 1.4299018925,
				"element": "N" 
			},
			{
				"x": -0.7337092654,
				"y": -0.5015891302,
				"z": 0.9074422579,
				"element": "C" 
			},
			{
				"x": -1.741962433,
				"y": -0.6326076729,
				"z": 1.5907117793,
				"element": "O" 
			},
			{
				"x": 0.3235657461,
				"y": -0.6665356621,
				"z": -2.7528189708,
				"element": "C" 
			},
			{
				"x": -0.8020006004,
				"y": -1.2468503105,
				"z": -3.3308247135,
				"element": "C" 
			},
			{
				"x": -2.7109731005,
				"y": -1.5799840309,
				"z": -0.4989396825,
				"element": "H" 
			},
			{
				"x": 2.4760163728,
				"y": 0.0558071119,
				"z": -1.2974887935,
				"element": "H" 
			},
			{
				"x": 1.4092390035,
				"y": 1.3411873551,
				"z": -0.7294929042,
				"element": "H" 
			},
			{
				"x": 2.0943930208,
				"y": -1.2628944484,
				"z": 0.7277669864,
				"element": "H" 
			},
			{
				"x": 2.4830210307,
				"y": 0.3878866841,
				"z": 1.2302020663,
				"element": "H" 
			},
			{
				"x": 0.4750809841,
				"y": -0.0391380231,
				"z": 2.440041517,
				"element": "H" 
			},
			{
				"x": 1.1758294995,
				"y": -0.4138885442,
				"z": -3.3772136313,
				"element": "H" 
			},
			{
				"x": -0.8422779221,
				"y": -1.4605265326,
				"z": -4.3929827814,
				"element": "H" 
			}
		],
		 "valence_orbital": [ 
			{
				"type": "occ",
				"energy": -0.31098,
				"method": "rhf"
			},
			{
				"type": "occ",
				"energy": -0.29014,
				"method": "rhf"
			},
			{
				"type": "occ",
				"energy": -0.28618,
				"method": "rhf"
			},
			{
				"type": "occ",
				"energy": -0.2729,
				"method": "rhf"
			},
			{
				"type": "occ",
				"energy": -0.26464,
				"method": "rhf"
			},
			{
				"type": "unocc",
				"energy": -0.08945,
				"method": "rhf"
			},
			{
				"type": "unocc",
				"energy": -0.06507,
				"method": "rhf"
			},
			{
				"type": "unocc",
				"energy": -0.0447,
				"method": "rhf"
			},
			{
				"type": "unocc",
				"energy": 0.02727,
				"method": "rhf"
			},
			{
				"type": "unocc",
				"energy": 0.058,
				"method": "rhf"
			}
		],
		"cosmo_sigma_profile": { 
			"-0.025": 0.0,
			"-0.024": 0.0,
			"-0.023": 0.0,
			"-0.022": 0.0,
			"-0.021": 0.0,
			"-0.02": 0.0,
			"-0.019": 0.0,
			"-0.018": 0.0,
			"-0.017": 0.0,
			"-0.016": 0.0,
			"-0.015": 0.097764238057,
			"-0.014": 0.943154512335,
			"-0.013": 1.13901059793,
			"-0.012": 1.38059958105,
			"-0.011": 0.942280838219,
			"-0.01": 0.769439227634,
			"-0.009": 1.60713103533,
			"-0.008": 4.97340316821,
			"-0.007": 7.61345168002,
			"-0.006": 14.6725232845,
			"-0.005": 20.2337398051,
			"-0.004": 18.1941923958,
			"-0.003": 18.3577520366,
			"-0.002": 15.107858445,
			"-0.001": 16.709103145,
			"0.0": 21.7128124762,
			"0.001": 15.3222560332,
			"0.002": 11.6155249434,
			"0.003": 15.312894236,
			"0.004": 12.3914296742,
			"0.005": 5.62056781363,
			"0.006": 3.26664314196,
			"0.007": 8.24950903161,
			"0.008": 10.9943822961,
			"0.009": 5.23880408819,
			"0.01": 1.03536538599,
			"0.011": 2.08754302258,
			"0.012": 2.08544892741,
			"0.013": 5.11360328361,
			"0.014": 2.35202762852,
			"0.015": 0.0452569606124,
			"0.016": 0.0,
			"0.017": 0.0,
			"0.018": 0.0,
			"0.019": 0.0,
			"0.02": 0.0,
			"0.021": 0.0,
			"0.022": 0.0,
			"0.023": 0.0,
			"0.024": 0.0,
			"0.025": 0.0
		}
	}
}
