{
	 "smiles": "OC(=O)CN1CC2=C(C=CC=C2)C1=O", 
	 "Tm": 491.15, 
	 "num_atms": 23, 
	 "gaussian": { 
		 "optdone": 1, 
		 "sigma_profile": "yes", 
		 "theory": "DFT", 
		 "functional": "B3LYP", 
		 "basiset": "6-31G**", 
		 "properties": { 
			 "R2extent": 3458.5022, 
			 "electric_dipole_moment_norm": 4.32221414786, 
			 "electric_quadrupole_moment_norm": 10.4408118808, 
			 "total_energy": -666.943240479, 
			 "HOMO_LUMO_gap": 0.20674, 
			 "cosmo_polarized_energy": -16.67, 
			 "cosmo_cavitation_energy": 27.72, 
			 "cosmo_dispersion_energy": -20.03, 
			 "cosmo_repulsion_energy": 1.58, 
			 "cosmo_total_nonelectrostatic_energy": 9.27, 
			 "SMD_solvation_energy": 6.23 
		},
		"coords": [
			{
				"x": -2.3099771762,
				"y": -0.4914984087,
				"z": 1.4696650759,
				"element": "O" 
			},
			{
				"x": -1.6717551611,
				"y": -1.2193515073,
				"z": 2.4130562329,
				"element": "C" 
			},
			{
				"x": -2.2071627133,
				"y": -2.0961004692,
				"z": 3.051671005,
				"element": "O" 
			},
			{
				"x": -0.2157402739,
				"y": -0.8075219388,
				"z": 2.6066041377,
				"element": "C" 
			},
			{
				"x": 0.3638542655,
				"y": -0.0109232789,
				"z": 1.5623993765,
				"element": "N" 
			},
			{
				"x": 0.6177619048,
				"y": -0.4871926161,
				"z": 0.2079139012,
				"element": "C" 
			},
			{
				"x": 1.1766591824,
				"y": 0.7427834816,
				"z": -0.4702366747,
				"element": "C" 
			},
			{
				"x": 1.1963865112,
				"y": 1.8001076896,
				"z": 0.4407045754,
				"element": "C" 
			},
			{
				"x": 1.6606157847,
				"y": 3.0645832341,
				"z": 0.0894551491,
				"element": "C" 
			},
			{
				"x": 2.1138896796,
				"y": 3.2534910832,
				"z": -1.2168562539,
				"element": "C" 
			},
			{
				"x": 2.0970650669,
				"y": 2.1947384186,
				"z": -2.1360668833,
				"element": "C" 
			},
			{
				"x": 1.6283157683,
				"y": 0.9273565175,
				"z": -1.7733316713,
				"element": "C" 
			},
			{
				"x": 0.6653914176,
				"y": 1.3310531954,
				"z": 1.7474577519,
				"element": "C" 
			},
			{
				"x": 0.5184217593,
				"y": 1.9535586957,
				"z": 2.7890204365,
				"element": "O" 
			},
			{
				"x": -3.227100132,
				"y": -0.8144518825,
				"z": 1.4573079422,
				"element": "H" 
			},
			{
				"x": -0.1696558012,
				"y": -0.2032614411,
				"z": 3.5207225015,
				"element": "H" 
			},
			{
				"x": 0.3518629458,
				"y": -1.7276877302,
				"z": 2.7878079076,
				"element": "H" 
			},
			{
				"x": 1.3305298536,
				"y": -1.324640554,
				"z": 0.2076251849,
				"element": "H" 
			},
			{
				"x": -0.309236788,
				"y": -0.8340673621,
				"z": -0.2681424941,
				"element": "H" 
			},
			{
				"x": 1.6631705966,
				"y": 3.8671725182,
				"z": 0.8203397408,
				"element": "H" 
			},
			{
				"x": 2.4834864956,
				"y": 4.226164452,
				"z": -1.527642827,
				"element": "H" 
			},
			{
				"x": 2.45442394,
				"y": 2.3615100207,
				"z": -3.148236933,
				"element": "H" 
			},
			{
				"x": 1.6206928736,
				"y": 0.1156778822,
				"z": -2.4958371819,
				"element": "H" 
			}
		],
		 "valence_orbital": [ 
			{
				"type": "occ",
				"energy": -0.29275,
				"method": "rhf"
			},
			{
				"type": "occ",
				"energy": -0.26419,
				"method": "rhf"
			},
			{
				"type": "occ",
				"energy": -0.25845,
				"method": "rhf"
			},
			{
				"type": "occ",
				"energy": -0.25519,
				"method": "rhf"
			},
			{
				"type": "occ",
				"energy": -0.24502,
				"method": "rhf"
			},
			{
				"type": "unocc",
				"energy": -0.03828,
				"method": "rhf"
			},
			{
				"type": "unocc",
				"energy": -0.01577,
				"method": "rhf"
			},
			{
				"type": "unocc",
				"energy": 0.00153,
				"method": "rhf"
			},
			{
				"type": "unocc",
				"energy": 0.06083,
				"method": "rhf"
			},
			{
				"type": "unocc",
				"energy": 0.06556,
				"method": "rhf"
			}
		],
		"cosmo_sigma_profile": { 
			"-0.025": 0.0,
			"-0.024": 0.0,
			"-0.023": 0.0,
			"-0.022": 0.0,
			"-0.021": 0.0,
			"-0.02": 0.0,
			"-0.019": 0.270556515062,
			"-0.018": 0.867186896955,
			"-0.017": 1.45063977966,
			"-0.016": 0.423043378416,
			"-0.015": 0.24067520598,
			"-0.014": 0.724378611003,
			"-0.013": 1.00109294365,
			"-0.012": 1.09748621446,
			"-0.011": 0.502090185754,
			"-0.01": 0.732385467544,
			"-0.009": 0.589670000247,
			"-0.008": 2.39548009277,
			"-0.007": 9.96739387221,
			"-0.006": 19.2363734177,
			"-0.005": 19.5267433184,
			"-0.004": 17.4520209655,
			"-0.003": 12.2561900496,
			"-0.002": 11.8063568816,
			"-0.001": 9.8057268816,
			"0.0": 13.4397416094,
			"0.001": 12.4281834058,
			"0.002": 12.2680509982,
			"0.003": 13.5633999446,
			"0.004": 14.8532948802,
			"0.005": 7.21739843533,
			"0.006": 3.32107012506,
			"0.007": 3.76127257664,
			"0.008": 3.22085661548,
			"0.009": 3.46768516544,
			"0.01": 3.16912346509,
			"0.011": 6.90606022795,
			"0.012": 5.22197465333,
			"0.013": 5.53894262841,
			"0.014": 2.34896500224,
			"0.015": 0.0469344147281,
			"0.016": 0.0,
			"0.017": 0.0,
			"0.018": 0.0,
			"0.019": 0.0,
			"0.02": 0.0,
			"0.021": 0.0,
			"0.022": 0.0,
			"0.023": 0.0,
			"0.024": 0.0,
			"0.025": 0.0
		}
	}
}
