{
	 "smiles": "OC(CNCC1=CC=CC=C1)C(F)(F)F", 
	 "Tm": 332.15, 
	 "num_atms": 27, 
	 "gaussian": { 
		 "optdone": 1, 
		 "sigma_profile": "yes", 
		 "theory": "DFT", 
		 "functional": "B3LYP", 
		 "basiset": "6-31G**", 
		 "properties": { 
			 "R2extent": 3882.758, 
			 "electric_dipole_moment_norm": 4.2593261298, 
			 "electric_quadrupole_moment_norm": 12.7195303899, 
			 "total_energy": -817.787873271, 
			 "HOMO_LUMO_gap": 0.23463, 
			 "cosmo_polarized_energy": -10.52, 
			 "cosmo_cavitation_energy": 31.16, 
			 "cosmo_dispersion_energy": -21.21, 
			 "cosmo_repulsion_energy": 1.62, 
			 "cosmo_total_nonelectrostatic_energy": 11.57, 
			 "SMD_solvation_energy": 5.37 
		},
		"coords": [
			{
				"x": 1.0769700857,
				"y": 0.6690168142,
				"z": -1.6463800715,
				"element": "O" 
			},
			{
				"x": 0.8610849369,
				"y": 1.590956939,
				"z": -0.6088484545,
				"element": "C" 
			},
			{
				"x": -0.5712709903,
				"y": 2.1628968816,
				"z": -0.6997610546,
				"element": "C" 
			},
			{
				"x": -1.5243686111,
				"y": 1.0720461166,
				"z": -0.9375156474,
				"element": "N" 
			},
			{
				"x": -2.1679150526,
				"y": 0.5089084057,
				"z": 0.260743439,
				"element": "C" 
			},
			{
				"x": -1.2594953176,
				"y": -0.3974092637,
				"z": 1.0704750268,
				"element": "C" 
			},
			{
				"x": -1.0031566016,
				"y": -0.13195711,
				"z": 2.4200898627,
				"element": "C" 
			},
			{
				"x": -0.1829839647,
				"y": -0.9772300082,
				"z": 3.1719899306,
				"element": "C" 
			},
			{
				"x": 0.3927033699,
				"y": -2.0999457854,
				"z": 2.5777619981,
				"element": "C" 
			},
			{
				"x": 0.1422118977,
				"y": -2.3751066272,
				"z": 1.230340169,
				"element": "C" 
			},
			{
				"x": -0.6785426235,
				"y": -1.5312848122,
				"z": 0.4845263096,
				"element": "C" 
			},
			{
				"x": 1.8941256642,
				"y": 2.7022119868,
				"z": -0.7361901918,
				"element": "C" 
			},
			{
				"x": 1.7262504583,
				"y": 3.6004065509,
				"z": 0.2681891212,
				"element": "F" 
			},
			{
				"x": 1.7834122834,
				"y": 3.3761214529,
				"z": -1.8998943781,
				"element": "F" 
			},
			{
				"x": 3.1491904693,
				"y": 2.2296042265,
				"z": -0.6542755077,
				"element": "F" 
			},
			{
				"x": 0.1963251385,
				"y": 0.2739516295,
				"z": -1.7858082593,
				"element": "H" 
			},
			{
				"x": 1.0227850796,
				"y": 1.1344290073,
				"z": 0.3789712316,
				"element": "H" 
			},
			{
				"x": -0.806688915,
				"y": 2.7512399717,
				"z": 0.1984710416,
				"element": "H" 
			},
			{
				"x": -0.6035853965,
				"y": 2.8352652935,
				"z": -1.5620942503,
				"element": "H" 
			},
			{
				"x": -2.2436002768,
				"y": 1.3864483926,
				"z": -1.5791877306,
				"element": "H" 
			},
			{
				"x": -3.0312232165,
				"y": -0.0696930913,
				"z": -0.090446057,
				"element": "H" 
			},
			{
				"x": -2.5614459473,
				"y": 1.300369166,
				"z": 0.9204897621,
				"element": "H" 
			},
			{
				"x": -1.4478914978,
				"y": 0.743963451,
				"z": 2.8866378835,
				"element": "H" 
			},
			{
				"x": 0.0076483444,
				"y": -0.7547818831,
				"z": 4.2180098498,
				"element": "H" 
			},
			{
				"x": 1.0334606965,
				"y": -2.7572028201,
				"z": 3.1583697183,
				"element": "H" 
			},
			{
				"x": 0.5872163306,
				"y": -3.2481211832,
				"z": 0.7616579533,
				"element": "H" 
			},
			{
				"x": -0.8713163439,
				"y": -1.7486037014,
				"z": -0.5625216946,
				"element": "H" 
			}
		],
		 "valence_orbital": [ 
			{
				"type": "occ",
				"energy": -0.32958,
				"method": "rhf"
			},
			{
				"type": "occ",
				"energy": -0.27338,
				"method": "rhf"
			},
			{
				"type": "occ",
				"energy": -0.25826,
				"method": "rhf"
			},
			{
				"type": "occ",
				"energy": -0.25427,
				"method": "rhf"
			},
			{
				"type": "occ",
				"energy": -0.24706,
				"method": "rhf"
			},
			{
				"type": "unocc",
				"energy": -0.01243,
				"method": "rhf"
			},
			{
				"type": "unocc",
				"energy": -0.00637,
				"method": "rhf"
			},
			{
				"type": "unocc",
				"energy": 0.06475,
				"method": "rhf"
			},
			{
				"type": "unocc",
				"energy": 0.08999,
				"method": "rhf"
			},
			{
				"type": "unocc",
				"energy": 0.10364,
				"method": "rhf"
			}
		],
		"cosmo_sigma_profile": { 
			"-0.025": 0.0,
			"-0.024": 0.0,
			"-0.023": 0.0,
			"-0.022": 0.0,
			"-0.021": 0.0,
			"-0.02": 0.0,
			"-0.019": 0.0,
			"-0.018": 0.0,
			"-0.017": 0.0,
			"-0.016": 0.0,
			"-0.015": 0.0,
			"-0.014": 0.0,
			"-0.013": 0.0,
			"-0.012": 0.596768551465,
			"-0.011": 1.66840877012,
			"-0.01": 1.42545432395,
			"-0.009": 1.66186837815,
			"-0.008": 2.18615967093,
			"-0.007": 1.83477128799,
			"-0.006": 6.95116551033,
			"-0.005": 18.5800595957,
			"-0.004": 24.3756599333,
			"-0.003": 24.424996489,
			"-0.002": 19.4921178623,
			"-0.001": 15.4117557709,
			"0.0": 11.7397556248,
			"0.001": 13.2827407909,
			"0.002": 19.3699774155,
			"0.003": 37.4819369194,
			"0.004": 14.3081161265,
			"0.005": 11.481845112,
			"0.006": 7.50308043756,
			"0.007": 2.27708379333,
			"0.008": 1.8186531436,
			"0.009": 1.33848405167,
			"0.01": 1.57291493191,
			"0.011": 1.42972034487,
			"0.012": 1.73402992361,
			"0.013": 1.57832603115,
			"0.014": 0.269698988179,
			"0.015": 0.0,
			"0.016": 0.0,
			"0.017": 0.0,
			"0.018": 0.0,
			"0.019": 0.0,
			"0.02": 0.0,
			"0.021": 0.0,
			"0.022": 0.0,
			"0.023": 0.0,
			"0.024": 0.0,
			"0.025": 0.0
		}
	}
}
