{
	 "smiles": "CCCCCCCCCCCC(CCCCCCCC)C1=CC=CC=C1", 
	 "Tm": 291.05, 
	 "num_atms": 72, 
	 "gaussian": { 
		 "optdone": 1, 
		 "sigma_profile": "yes", 
		 "theory": "DFT", 
		 "functional": "B3LYP", 
		 "basiset": "6-31G**", 
		 "properties": { 
			 "R2extent": 13787.3591, 
			 "electric_dipole_moment_norm": 0.408084868624, 
			 "electric_quadrupole_moment_norm": 3.87518661099, 
			 "total_energy": -1018.52876303, 
			 "HOMO_LUMO_gap": 0.23438, 
			 "cosmo_polarized_energy": -4.02, 
			 "cosmo_cavitation_energy": 66.49, 
			 "cosmo_dispersion_energy": -39.96, 
			 "cosmo_repulsion_energy": 3.15, 
			 "cosmo_total_nonelectrostatic_energy": 29.68, 
			 "SMD_solvation_energy": 8.47 
		},
		"coords": [
			{
				"x": 6.8631747537,
				"y": -1.5240715769,
				"z": -0.4206825759,
				"element": "C" 
			},
			{
				"x": 6.0543021337,
				"y": -2.1141759175,
				"z": -1.5816285203,
				"element": "C" 
			},
			{
				"x": 5.0630294706,
				"y": -3.2328528395,
				"z": -1.2126847836,
				"element": "C" 
			},
			{
				"x": 3.8987376918,
				"y": -2.8302129164,
				"z": -0.2796314666,
				"element": "C" 
			},
			{
				"x": 4.1675501262,
				"y": -3.0306070602,
				"z": 1.2217155203,
				"element": "C" 
			},
			{
				"x": 2.9686146837,
				"y": -2.7092049372,
				"z": 2.13040288,
				"element": "C" 
			},
			{
				"x": 2.5878982877,
				"y": -1.221555361,
				"z": 2.1805049157,
				"element": "C" 
			},
			{
				"x": 1.5099247206,
				"y": -0.875236229,
				"z": 3.22343388,
				"element": "C" 
			},
			{
				"x": 0.1099212899,
				"y": -1.4993769271,
				"z": 3.0527624654,
				"element": "C" 
			},
			{
				"x": -0.7292192374,
				"y": -1.0042160164,
				"z": 1.8525420479,
				"element": "C" 
			},
			{
				"x": -0.5138638282,
				"y": -1.7949081772,
				"z": 0.5517396726,
				"element": "C" 
			},
			{
				"x": -1.3391476741,
				"y": -1.422829072,
				"z": -0.7078812878,
				"element": "C" 
			},
			{
				"x": -2.8985340926,
				"y": -1.4550845312,
				"z": -0.4901243034,
				"element": "C" 
			},
			{
				"x": -3.7526976639,
				"y": -0.165521353,
				"z": -0.4225429694,
				"element": "C" 
			},
			{
				"x": -3.7757332594,
				"y": 0.6753114352,
				"z": 0.8772400401,
				"element": "C" 
			},
			{
				"x": -2.9273193595,
				"y": 1.9561162179,
				"z": 0.8554976593,
				"element": "C" 
			},
			{
				"x": -3.1008171619,
				"y": 2.7989487135,
				"z": 2.1299143792,
				"element": "C" 
			},
			{
				"x": -2.4331245593,
				"y": 4.1930135237,
				"z": 2.109000157,
				"element": "C" 
			},
			{
				"x": -1.0029124072,
				"y": 4.2773287835,
				"z": 2.6708329775,
				"element": "C" 
			},
			{
				"x": 0.0624665267,
				"y": 3.4878473749,
				"z": 1.9030211099,
				"element": "C" 
			},
			{
				"x": -0.8393299361,
				"y": -0.2191069082,
				"z": -1.5062073103,
				"element": "C" 
			},
			{
				"x": 0.1654340437,
				"y": 0.6493444534,
				"z": -1.0601241418,
				"element": "C" 
			},
			{
				"x": 0.6191710603,
				"y": 1.7058588384,
				"z": -1.856726211,
				"element": "C" 
			},
			{
				"x": 0.0785844895,
				"y": 1.9176541875,
				"z": -3.1232030743,
				"element": "C" 
			},
			{
				"x": -0.9164477537,
				"y": 1.0553961536,
				"z": -3.5906575965,
				"element": "C" 
			},
			{
				"x": -1.3620023577,
				"y": 0.0032840398,
				"z": -2.7931658662,
				"element": "C" 
			},
			{
				"x": 7.4051512325,
				"y": -2.3051786923,
				"z": 0.1251666531,
				"element": "H" 
			},
			{
				"x": 6.2250026192,
				"y": -0.9990468233,
				"z": 0.2969328272,
				"element": "H" 
			},
			{
				"x": 7.6018021257,
				"y": -0.8029949956,
				"z": -0.7873552589,
				"element": "H" 
			},
			{
				"x": 5.5035726052,
				"y": -1.3066530242,
				"z": -2.0836124028,
				"element": "H" 
			},
			{
				"x": 6.7522484385,
				"y": -2.5111971439,
				"z": -2.3305681722,
				"element": "H" 
			},
			{
				"x": 5.612188395,
				"y": -4.0747900601,
				"z": -0.7669637735,
				"element": "H" 
			},
			{
				"x": 4.6419959643,
				"y": -3.6163438493,
				"z": -2.1506265934,
				"element": "H" 
			},
			{
				"x": 3.6218497101,
				"y": -1.7869780947,
				"z": -0.4820757667,
				"element": "H" 
			},
			{
				"x": 3.0143315914,
				"y": -3.4275221659,
				"z": -0.5403953934,
				"element": "H" 
			},
			{
				"x": 4.4571037863,
				"y": -4.0783985411,
				"z": 1.3807014558,
				"element": "H" 
			},
			{
				"x": 5.0292913017,
				"y": -2.4301712456,
				"z": 1.5387593081,
				"element": "H" 
			},
			{
				"x": 3.2016585329,
				"y": -3.0420960005,
				"z": 3.1515477398,
				"element": "H" 
			},
			{
				"x": 2.1057250012,
				"y": -3.3072706657,
				"z": 1.8077210494,
				"element": "H" 
			},
			{
				"x": 3.4894212788,
				"y": -0.6410629494,
				"z": 2.4228946504,
				"element": "H" 
			},
			{
				"x": 2.275108529,
				"y": -0.8772576283,
				"z": 1.1876757802,
				"element": "H" 
			},
			{
				"x": 1.3959201246,
				"y": 0.2170869527,
				"z": 3.2597233662,
				"element": "H" 
			},
			{
				"x": 1.8899010525,
				"y": -1.167643519,
				"z": 4.2125013853,
				"element": "H" 
			},
			{
				"x": -0.4477005848,
				"y": -1.2737061881,
				"z": 3.9705770368,
				"element": "H" 
			},
			{
				"x": 0.184709948,
				"y": -2.5946895374,
				"z": 3.0189768707,
				"element": "H" 
			},
			{
				"x": -0.5450833445,
				"y": 0.0659737771,
				"z": 1.7021359428,
				"element": "H" 
			},
			{
				"x": -1.7867662338,
				"y": -1.085489957,
				"z": 2.1247740685,
				"element": "H" 
			},
			{
				"x": -0.7467097094,
				"y": -2.8452649896,
				"z": 0.7751418687,
				"element": "H" 
			},
			{
				"x": 0.5456028038,
				"y": -1.7869438177,
				"z": 0.2735809721,
				"element": "H" 
			},
			{
				"x": -1.153139214,
				"y": -2.273525581,
				"z": -1.3790028712,
				"element": "H" 
			},
			{
				"x": -3.3152806983,
				"y": -2.0334160655,
				"z": -1.3235491474,
				"element": "H" 
			},
			{
				"x": -3.1021909319,
				"y": -2.0627037127,
				"z": 0.4012664238,
				"element": "H" 
			},
			{
				"x": -3.4990697426,
				"y": 0.4846770785,
				"z": -1.2675701858,
				"element": "H" 
			},
			{
				"x": -4.7801846039,
				"y": -0.4996221957,
				"z": -0.6140485007,
				"element": "H" 
			},
			{
				"x": -3.4944873763,
				"y": 0.0548776969,
				"z": 1.7373234258,
				"element": "H" 
			},
			{
				"x": -4.8148110293,
				"y": 0.9763581859,
				"z": 1.0683811716,
				"element": "H" 
			},
			{
				"x": -3.2330995334,
				"y": 2.5607605739,
				"z": -0.0101510702,
				"element": "H" 
			},
			{
				"x": -1.873513691,
				"y": 1.7134423204,
				"z": 0.6873844638,
				"element": "H" 
			},
			{
				"x": -4.1790328372,
				"y": 2.9337913303,
				"z": 2.2919870452,
				"element": "H" 
			},
			{
				"x": -2.7421495902,
				"y": 2.2326200187,
				"z": 3.0018927636,
				"element": "H" 
			},
			{
				"x": -3.0526039609,
				"y": 4.8840050476,
				"z": 2.6948809198,
				"element": "H" 
			},
			{
				"x": -2.4433004185,
				"y": 4.5834888124,
				"z": 1.0814014047,
				"element": "H" 
			},
			{
				"x": -1.0132103029,
				"y": 3.9445866675,
				"z": 3.718153932,
				"element": "H" 
			},
			{
				"x": -0.7086772342,
				"y": 5.3349939665,
				"z": 2.6955692457,
				"element": "H" 
			},
			{
				"x": 0.075214406,
				"y": 3.7607696971,
				"z": 0.8416748175,
				"element": "H" 
			},
			{
				"x": 1.0611886614,
				"y": 3.6801066799,
				"z": 2.3104267418,
				"element": "H" 
			},
			{
				"x": -0.112645461,
				"y": 2.4093050373,
				"z": 1.962670272,
				"element": "H" 
			},
			{
				"x": 0.6134566001,
				"y": 0.5063346904,
				"z": -0.0836401799,
				"element": "H" 
			},
			{
				"x": 1.4016957251,
				"y": 2.3597219899,
				"z": -1.4812435676,
				"element": "H" 
			},
			{
				"x": 0.4310007495,
				"y": 2.7375458812,
				"z": -3.7424038742,
				"element": "H" 
			},
			{
				"x": -1.3407715148,
				"y": 1.1979518342,
				"z": -4.5808815972,
				"element": "H" 
			},
			{
				"x": -2.1251731571,
				"y": -0.6680746936,
				"z": -3.1797828454,
				"element": "H" 
			}
		],
		 "valence_orbital": [ 
			{
				"type": "occ",
				"energy": -0.29586,
				"method": "rhf"
			},
			{
				"type": "occ",
				"energy": -0.29461,
				"method": "rhf"
			},
			{
				"type": "occ",
				"energy": -0.28531,
				"method": "rhf"
			},
			{
				"type": "occ",
				"energy": -0.24352,
				"method": "rhf"
			},
			{
				"type": "occ",
				"energy": -0.23374,
				"method": "rhf"
			},
			{
				"type": "unocc",
				"energy": 0.00064,
				"method": "rhf"
			},
			{
				"type": "unocc",
				"energy": 0.00514,
				"method": "rhf"
			},
			{
				"type": "unocc",
				"energy": 0.06207,
				"method": "rhf"
			},
			{
				"type": "unocc",
				"energy": 0.07732,
				"method": "rhf"
			},
			{
				"type": "unocc",
				"energy": 0.08604,
				"method": "rhf"
			}
		],
		"cosmo_sigma_profile": { 
			"-0.025": 0.0,
			"-0.024": 0.0,
			"-0.023": 0.0,
			"-0.022": 0.0,
			"-0.021": 0.0,
			"-0.02": 0.0,
			"-0.019": 0.0,
			"-0.018": 0.0,
			"-0.017": 0.0,
			"-0.016": 0.0,
			"-0.015": 0.0,
			"-0.014": 0.0,
			"-0.013": 0.0,
			"-0.012": 0.0,
			"-0.011": 0.0,
			"-0.01": 0.0,
			"-0.009": 0.0,
			"-0.008": 0.0,
			"-0.007": 0.0,
			"-0.006": 0.485654801794,
			"-0.005": 6.3607587883,
			"-0.004": 9.93326267017,
			"-0.003": 20.410048129,
			"-0.002": 60.4889636381,
			"-0.001": 108.539373333,
			"0.0": 121.833412714,
			"0.001": 100.853979172,
			"0.002": 46.4934065288,
			"0.003": 8.62066282777,
			"0.004": 7.68240029647,
			"0.005": 7.6050965324,
			"0.006": 7.80216336562,
			"0.007": 4.2763378561,
			"0.008": 0.00819983079068,
			"0.009": 0.0,
			"0.01": 0.0,
			"0.011": 0.0,
			"0.012": 0.0,
			"0.013": 0.0,
			"0.014": 0.0,
			"0.015": 0.0,
			"0.016": 0.0,
			"0.017": 0.0,
			"0.018": 0.0,
			"0.019": 0.0,
			"0.02": 0.0,
			"0.021": 0.0,
			"0.022": 0.0,
			"0.023": 0.0,
			"0.024": 0.0,
			"0.025": 0.0
		}
	}
}
