{
	 "smiles": "[H]OC(=O)C(ON=C(/C(=O)N([H])[C@]1([H])C(=O)N([C@@]1([H])C([H])([H])[H])S(=O)(=O)O[H])C1=C([H])SC(=N1)N([H])[H])(C([H])([H])[H])C([H])([H])[H]", 
	 "Tm": 550.15, 
	 "num_atms": 45, 
	 "gaussian": { 
		 "optdone": 1, 
		 "sigma_profile": "yes", 
		 "theory": "DFT", 
		 "functional": "B3LYP", 
		 "basiset": "6-31G**", 
		 "properties": { 
			 "R2extent": 13750.0524, 
			 "electric_dipole_moment_norm": 5.86626927698, 
			 "electric_quadrupole_moment_norm": 36.5399444098, 
			 "total_energy": -2177.42620499, 
			 "HOMO_LUMO_gap": 0.16376, 
			 "cosmo_polarized_energy": -35.87, 
			 "cosmo_cavitation_energy": 55.23, 
			 "cosmo_dispersion_energy": -34.95, 
			 "cosmo_repulsion_energy": 2.63, 
			 "cosmo_total_nonelectrostatic_energy": 22.92, 
			 "SMD_solvation_energy": 8.15 
		},
		"coords": [
			{
				"x": -3.6406813857,
				"y": 0.7035383645,
				"z": 2.9360134353,
				"element": "O" 
			},
			{
				"x": -3.6073822857,
				"y": -0.5367371799,
				"z": 2.4081360513,
				"element": "C" 
			},
			{
				"x": -4.5977439487,
				"y": -1.2150453757,
				"z": 2.247239655,
				"element": "O" 
			},
			{
				"x": -2.1739709481,
				"y": -1.0109502549,
				"z": 2.1148177566,
				"element": "C" 
			},
			{
				"x": -1.3725369519,
				"y": 0.0893527721,
				"z": 1.6305777184,
				"element": "O" 
			},
			{
				"x": -1.9285824781,
				"y": 0.6487861128,
				"z": 0.4807655572,
				"element": "N" 
			},
			{
				"x": -1.1804603981,
				"y": 1.5851543606,
				"z": 0.011578292,
				"element": "C" 
			},
			{
				"x": 0.0927897079,
				"y": 2.061632365,
				"z": 0.7023069163,
				"element": "C" 
			},
			{
				"x": 0.0995235821,
				"y": 3.1002406661,
				"z": 1.3353064449,
				"element": "O" 
			},
			{
				"x": 1.2097124512,
				"y": 1.2711318215,
				"z": 0.5718251559,
				"element": "N" 
			},
			{
				"x": 1.3108869976,
				"y": 0.062944819,
				"z": -0.1748594335,
				"element": "C" 
			},
			{
				"x": 1.9358962163,
				"y": -1.1816363092,
				"z": 0.4953653192,
				"element": "C" 
			},
			{
				"x": 1.8698670351,
				"y": -1.7749171601,
				"z": 1.5568906487,
				"element": "O" 
			},
			{
				"x": 2.756053518,
				"y": -1.4023414213,
				"z": -0.6008687961,
				"element": "N" 
			},
			{
				"x": 2.4564926826,
				"y": -0.0825031676,
				"z": -1.2436031601,
				"element": "C" 
			},
			{
				"x": 2.0854337079,
				"y": -0.1296969161,
				"z": -2.7108333753,
				"element": "C" 
			},
			{
				"x": 4.231984325,
				"y": -2.2882850197,
				"z": -0.5591162314,
				"element": "S" 
			},
			{
				"x": 4.443594948,
				"y": -2.9140920447,
				"z": -1.8459736937,
				"element": "O" 
			},
			{
				"x": 5.2368106517,
				"y": -1.4136590873,
				"z": 0.0258350019,
				"element": "O" 
			},
			{
				"x": 3.7552146133,
				"y": -3.4132887023,
				"z": 0.4779123586,
				"element": "O" 
			},
			{
				"x": -1.6111308195,
				"y": 2.3136132039,
				"z": -1.1878878767,
				"element": "C" 
			},
			{
				"x": -2.8968573481,
				"y": 2.4288009879,
				"z": -1.6347976552,
				"element": "C" 
			},
			{
				"x": -2.9281882708,
				"y": 3.3555222938,
				"z": -3.107833477,
				"element": "S" 
			},
			{
				"x": -1.1688616319,
				"y": 3.5244668198,
				"z": -2.984291106,
				"element": "C" 
			},
			{
				"x": -0.6360339393,
				"y": 2.934931175,
				"z": -1.9531108324,
				"element": "N" 
			},
			{
				"x": -0.447534218,
				"y": 4.1714163172,
				"z": -3.9584503401,
				"element": "N" 
			},
			{
				"x": -2.1857958886,
				"y": -2.1643976455,
				"z": 1.1139773416,
				"element": "C" 
			},
			{
				"x": -1.493454794,
				"y": -1.3960851522,
				"z": 3.4348905862,
				"element": "C" 
			},
			{
				"x": -4.5763140003,
				"y": 0.8929987407,
				"z": 3.1189565913,
				"element": "H" 
			},
			{
				"x": 2.0169626722,
				"y": 1.6122120142,
				"z": 1.0801059186,
				"element": "H" 
			},
			{
				"x": 0.3374545488,
				"y": -0.1824959757,
				"z": -0.6038229976,
				"element": "H" 
			},
			{
				"x": 3.2628313151,
				"y": 0.6315833215,
				"z": -1.0426473734,
				"element": "H" 
			},
			{
				"x": 1.6958090173,
				"y": 0.8471501745,
				"z": -3.0149660832,
				"element": "H" 
			},
			{
				"x": 1.3148742121,
				"y": -0.8846734474,
				"z": -2.8924399023,
				"element": "H" 
			},
			{
				"x": 2.9539136213,
				"y": -0.3694265889,
				"z": -3.3304644002,
				"element": "H" 
			},
			{
				"x": 3.1924918332,
				"y": -2.9972812161,
				"z": 1.1846265812,
				"element": "H" 
			},
			{
				"x": -3.7993114987,
				"y": 2.0460616179,
				"z": -1.1836175515,
				"element": "H" 
			},
			{
				"x": -0.9147335584,
				"y": 4.9114152583,
				"z": -4.462348528,
				"element": "H" 
			},
			{
				"x": 0.4944731791,
				"y": 4.4022864924,
				"z": -3.670420309,
				"element": "H" 
			},
			{
				"x": -2.5916289312,
				"y": -1.8356990951,
				"z": 0.1549499591,
				"element": "H" 
			},
			{
				"x": -2.8094530045,
				"y": -2.9788996015,
				"z": 1.4864164427,
				"element": "H" 
			},
			{
				"x": -1.1653645039,
				"y": -2.5307647913,
				"z": 0.9711618979,
				"element": "H" 
			},
			{
				"x": -0.4555688672,
				"y": -1.6735719373,
				"z": 3.2323535774,
				"element": "H" 
			},
			{
				"x": -1.5062572082,
				"y": -0.5547540634,
				"z": 4.1313348012,
				"element": "H" 
			},
			{
				"x": -2.009323957,
				"y": -2.2461375458,
				"z": 3.889009114,
				"element": "H" 
			}
		],
		 "valence_orbital": [ 
			{
				"type": "occ",
				"energy": -0.28425,
				"method": "rhf"
			},
			{
				"type": "occ",
				"energy": -0.27344,
				"method": "rhf"
			},
			{
				"type": "occ",
				"energy": -0.27144,
				"method": "rhf"
			},
			{
				"type": "occ",
				"energy": -0.2591,
				"method": "rhf"
			},
			{
				"type": "occ",
				"energy": -0.22348,
				"method": "rhf"
			},
			{
				"type": "unocc",
				"energy": -0.05972,
				"method": "rhf"
			},
			{
				"type": "unocc",
				"energy": -0.04535,
				"method": "rhf"
			},
			{
				"type": "unocc",
				"energy": -0.01549,
				"method": "rhf"
			},
			{
				"type": "unocc",
				"energy": -0.0041,
				"method": "rhf"
			},
			{
				"type": "unocc",
				"energy": -0.00241,
				"method": "rhf"
			}
		],
		"cosmo_sigma_profile": { 
			"-0.025": 0.0,
			"-0.024": 0.0,
			"-0.023": 0.0,
			"-0.022": 0.0,
			"-0.021": 0.0,
			"-0.02": 0.0,
			"-0.019": 0.28245909839,
			"-0.018": 0.929441508415,
			"-0.017": 1.39366058302,
			"-0.016": 2.29581672432,
			"-0.015": 4.147063568,
			"-0.014": 4.42489827096,
			"-0.013": 3.81269691195,
			"-0.012": 4.67043876377,
			"-0.011": 6.4561141882,
			"-0.01": 6.19085450659,
			"-0.009": 7.11913504367,
			"-0.008": 10.4649029891,
			"-0.007": 11.2874853003,
			"-0.006": 12.1834541897,
			"-0.005": 17.9311409061,
			"-0.004": 23.2669256661,
			"-0.003": 26.3581087929,
			"-0.002": 29.5846733592,
			"-0.001": 35.3071106848,
			"0.0": 27.4144494948,
			"0.001": 26.5463325827,
			"0.002": 23.6561948163,
			"0.003": 24.9866716257,
			"0.004": 19.8572810774,
			"0.005": 17.69951843,
			"0.006": 15.153499923,
			"0.007": 14.1402427116,
			"0.008": 18.0389623576,
			"0.009": 18.8103692217,
			"0.01": 7.90625372618,
			"0.011": 9.32314924126,
			"0.012": 7.38942186278,
			"0.013": 1.1607109575,
			"0.014": 0.0,
			"0.015": 0.0,
			"0.016": 0.0,
			"0.017": 0.0,
			"0.018": 0.0,
			"0.019": 0.0,
			"0.02": 0.0,
			"0.021": 0.0,
			"0.022": 0.0,
			"0.023": 0.0,
			"0.024": 0.0,
			"0.025": 0.0
		}
	}
}
