{
	 "smiles": "BrCCN1C(=O)CNC1=O", 
	 "Tm": 408.15, 
	 "num_atms": 17, 
	 "gaussian": { 
		 "optdone": 1, 
		 "sigma_profile": "yes", 
		 "theory": "DFT", 
		 "functional": "B3LYP", 
		 "basiset": "6-31G**", 
		 "properties": { 
			 "R2extent": 2332.1114, 
			 "electric_dipole_moment_norm": 2.42036176841, 
			 "electric_quadrupole_moment_norm": 16.6407970034, 
			 "total_energy": -3026.14684386, 
			 "HOMO_LUMO_gap": 0.2547, 
			 "cosmo_polarized_energy": -15.85, 
			 "cosmo_cavitation_energy": 23.25, 
			 "cosmo_dispersion_energy": -17.24, 
			 "cosmo_repulsion_energy": 1.43, 
			 "cosmo_total_nonelectrostatic_energy": 7.43, 
			 "SMD_solvation_energy": 3.51 
		},
		"coords": [
			{
				"x": 1.4244061913,
				"y": -2.250751269,
				"z": 0.7537371254,
				"element": "Br" 
			},
			{
				"x": 0.2204147167,
				"y": -2.5251071094,
				"z": -0.7890759527,
				"element": "C" 
			},
			{
				"x": 0.2494931389,
				"y": -1.3544335137,
				"z": -1.7640197449,
				"element": "C" 
			},
			{
				"x": -0.2092098681,
				"y": -0.1038003637,
				"z": -1.186712255,
				"element": "N" 
			},
			{
				"x": 0.5810498491,
				"y": 1.0238325599,
				"z": -1.0341508276,
				"element": "C" 
			},
			{
				"x": 1.7331670734,
				"y": 1.1579725757,
				"z": -1.384796896,
				"element": "O" 
			},
			{
				"x": -0.307484047,
				"y": 2.0669766033,
				"z": -0.3469157296,
				"element": "C" 
			},
			{
				"x": -1.5906672692,
				"y": 1.3944648468,
				"z": -0.2872600657,
				"element": "N" 
			},
			{
				"x": -1.5256633685,
				"y": 0.0924763167,
				"z": -0.7133216554,
				"element": "C" 
			},
			{
				"x": -2.4049430861,
				"y": -0.7480690567,
				"z": -0.7124142801,
				"element": "O" 
			},
			{
				"x": 0.5627816431,
				"y": -3.4360890661,
				"z": -1.2793789374,
				"element": "H" 
			},
			{
				"x": -0.7745946108,
				"y": -2.6695738947,
				"z": -0.374026355,
				"element": "H" 
			},
			{
				"x": 1.2594602794,
				"y": -1.1688931087,
				"z": -2.1353685701,
				"element": "H" 
			},
			{
				"x": -0.3974973953,
				"y": -1.614785189,
				"z": -2.6111961236,
				"element": "H" 
			},
			{
				"x": -0.3296143421,
				"y": 2.987164241,
				"z": -0.9407390293,
				"element": "H" 
			},
			{
				"x": 0.1067454947,
				"y": 2.3013105435,
				"z": 0.6416160879,
				"element": "H" 
			},
			{
				"x": -2.3782443994,
				"y": 1.7020048843,
				"z": 0.260723209,
				"element": "H" 
			}
		],
		 "valence_orbital": [ 
			{
				"type": "occ",
				"energy": -0.28802,
				"method": "rhf"
			},
			{
				"type": "occ",
				"energy": -0.27709,
				"method": "rhf"
			},
			{
				"type": "occ",
				"energy": -0.27467,
				"method": "rhf"
			},
			{
				"type": "occ",
				"energy": -0.27135,
				"method": "rhf"
			},
			{
				"type": "occ",
				"energy": -0.26835,
				"method": "rhf"
			},
			{
				"type": "unocc",
				"energy": -0.01365,
				"method": "rhf"
			},
			{
				"type": "unocc",
				"energy": 0.00099,
				"method": "rhf"
			},
			{
				"type": "unocc",
				"energy": 0.04787,
				"method": "rhf"
			},
			{
				"type": "unocc",
				"energy": 0.07531,
				"method": "rhf"
			},
			{
				"type": "unocc",
				"energy": 0.10426,
				"method": "rhf"
			}
		],
		"cosmo_sigma_profile": { 
			"-0.025": 0.0,
			"-0.024": 0.0,
			"-0.023": 0.0,
			"-0.022": 0.0,
			"-0.021": 0.0,
			"-0.02": 0.0,
			"-0.019": 0.0,
			"-0.018": 0.0,
			"-0.017": 0.0,
			"-0.016": 0.410100161532,
			"-0.015": 1.50524844176,
			"-0.014": 1.34581670702,
			"-0.013": 0.8592666506,
			"-0.012": 0.91708224848,
			"-0.011": 0.676263221344,
			"-0.01": 1.04788510469,
			"-0.009": 2.15765141718,
			"-0.008": 9.47471181404,
			"-0.007": 13.46245406,
			"-0.006": 14.6728432126,
			"-0.005": 12.9832206859,
			"-0.004": 11.6247483833,
			"-0.003": 8.52128035893,
			"-0.002": 8.85325973773,
			"-0.001": 7.56505820219,
			"0.0": 7.09605243446,
			"0.001": 7.37297421514,
			"0.002": 7.89253406985,
			"0.003": 7.49315972848,
			"0.004": 9.21266271123,
			"0.005": 10.3766474193,
			"0.006": 11.6848929257,
			"0.007": 2.95800279397,
			"0.008": 2.29361641426,
			"0.009": 3.25653083069,
			"0.01": 2.73173517604,
			"0.011": 5.98340583247,
			"0.012": 8.52512459937,
			"0.013": 4.13633342756,
			"0.014": 0.360537818234,
			"0.015": 0.0,
			"0.016": 0.0,
			"0.017": 0.0,
			"0.018": 0.0,
			"0.019": 0.0,
			"0.02": 0.0,
			"0.021": 0.0,
			"0.022": 0.0,
			"0.023": 0.0,
			"0.024": 0.0,
			"0.025": 0.0
		}
	}
}
