{
	 "smiles": "FC(F)(F)C1=CC(=CC=C1)C1=NN=C(Cl)C=C1", 
	 "Tm": 407.15, 
	 "num_atms": 23, 
	 "gaussian": { 
		 "optdone": 1, 
		 "sigma_profile": "yes", 
		 "theory": "DFT", 
		 "functional": "B3LYP", 
		 "basiset": "6-31G**", 
		 "properties": { 
			 "R2extent": 6634.9272, 
			 "electric_dipole_moment_norm": 2.12718681361, 
			 "electric_quadrupole_moment_norm": 22.5866209888, 
			 "total_energy": -1291.97228269, 
			 "HOMO_LUMO_gap": 0.17874, 
			 "cosmo_polarized_energy": -11.38, 
			 "cosmo_cavitation_energy": 31.61, 
			 "cosmo_dispersion_energy": -22.84, 
			 "cosmo_repulsion_energy": 1.69, 
			 "cosmo_total_nonelectrostatic_energy": 10.45, 
			 "SMD_solvation_energy": 4.57 
		},
		"coords": [
			{
				"x": -4.6702011197,
				"y": 1.0003195338,
				"z": -0.809844105,
				"element": "F" 
			},
			{
				"x": -3.6056492831,
				"y": 1.8344229726,
				"z": -0.8384565908,
				"element": "C" 
			},
			{
				"x": -4.0370704766,
				"y": 3.0364171634,
				"z": -0.3983484171,
				"element": "F" 
			},
			{
				"x": -3.2539259707,
				"y": 1.977760489,
				"z": -2.1365347873,
				"element": "F" 
			},
			{
				"x": -2.4679056192,
				"y": 1.3106110531,
				"z": -0.0027522093,
				"element": "C" 
			},
			{
				"x": -1.4802221612,
				"y": 0.5226458032,
				"z": -0.5934768614,
				"element": "C" 
			},
			{
				"x": -0.4462558021,
				"y": -0.0205895571,
				"z": 0.1817690585,
				"element": "C" 
			},
			{
				"x": -0.4333104477,
				"y": 0.2332771326,
				"z": 1.5638420022,
				"element": "C" 
			},
			{
				"x": -1.4207642476,
				"y": 1.0221892705,
				"z": 2.1480035053,
				"element": "C" 
			},
			{
				"x": -2.4419793744,
				"y": 1.5673372796,
				"z": 1.3701076799,
				"element": "C" 
			},
			{
				"x": 0.6215982133,
				"y": -0.8545791367,
				"z": -0.4263081295,
				"element": "C" 
			},
			{
				"x": 1.3250046317,
				"y": -1.6196599293,
				"z": 0.4251550655,
				"element": "N" 
			},
			{
				"x": 2.3067800405,
				"y": -2.403930835,
				"z": -0.0119886561,
				"element": "N" 
			},
			{
				"x": 2.582709339,
				"y": -2.4329680641,
				"z": -1.3066863148,
				"element": "C" 
			},
			{
				"x": 3.8779506532,
				"y": -3.4992773974,
				"z": -1.7992861775,
				"element": "Cl" 
			},
			{
				"x": 1.9147025602,
				"y": -1.6666871126,
				"z": -2.2695383333,
				"element": "C" 
			},
			{
				"x": 0.9061831454,
				"y": -0.8474753311,
				"z": -1.8070679854,
				"element": "C" 
			},
			{
				"x": -1.5377802372,
				"y": 0.3312007599,
				"z": -1.6587081933,
				"element": "H" 
			},
			{
				"x": 0.3614105411,
				"y": -0.1962834064,
				"z": 2.1623830324,
				"element": "H" 
			},
			{
				"x": -1.3919243926,
				"y": 1.2181282919,
				"z": 3.2153562479,
				"element": "H" 
			},
			{
				"x": -3.2086912785,
				"y": 2.1897029354,
				"z": 1.8187572651,
				"element": "H" 
			},
			{
				"x": 2.1929615117,
				"y": -1.7142603347,
				"z": -3.3159331906,
				"element": "H" 
			},
			{
				"x": 0.3643797744,
				"y": -0.2039015806,
				"z": -2.4910439056,
				"element": "H" 
			}
		],
		 "valence_orbital": [ 
			{
				"type": "occ",
				"energy": -0.32677,
				"method": "rhf"
			},
			{
				"type": "occ",
				"energy": -0.30503,
				"method": "rhf"
			},
			{
				"type": "occ",
				"energy": -0.27861,
				"method": "rhf"
			},
			{
				"type": "occ",
				"energy": -0.25752,
				"method": "rhf"
			},
			{
				"type": "occ",
				"energy": -0.25306,
				"method": "rhf"
			},
			{
				"type": "unocc",
				"energy": -0.07432,
				"method": "rhf"
			},
			{
				"type": "unocc",
				"energy": -0.06761,
				"method": "rhf"
			},
			{
				"type": "unocc",
				"energy": -0.03371,
				"method": "rhf"
			},
			{
				"type": "unocc",
				"energy": -0.00241,
				"method": "rhf"
			},
			{
				"type": "unocc",
				"energy": 0.01917,
				"method": "rhf"
			}
		],
		"cosmo_sigma_profile": { 
			"-0.025": 0.0,
			"-0.024": 0.0,
			"-0.023": 0.0,
			"-0.022": 0.0,
			"-0.021": 0.0,
			"-0.02": 0.0,
			"-0.019": 0.0,
			"-0.018": 0.0,
			"-0.017": 0.0,
			"-0.016": 0.0,
			"-0.015": 0.0,
			"-0.014": 0.0,
			"-0.013": 0.0,
			"-0.012": 0.0165364698294,
			"-0.011": 1.07353405879,
			"-0.01": 3.44427289557,
			"-0.009": 4.78033836307,
			"-0.008": 5.08034849332,
			"-0.007": 7.53114149204,
			"-0.006": 9.01224078286,
			"-0.005": 11.2172859388,
			"-0.004": 11.1033798646,
			"-0.003": 17.3475710436,
			"-0.002": 21.2630794546,
			"-0.001": 17.9078583055,
			"0.0": 18.1448718902,
			"0.001": 21.8410208236,
			"0.002": 36.8765189366,
			"0.003": 41.6723851814,
			"0.004": 8.432023676,
			"0.005": 3.11167860527,
			"0.006": 2.70077301512,
			"0.007": 2.28153247306,
			"0.008": 1.9087231788,
			"0.009": 1.97905635642,
			"0.01": 2.09695810318,
			"0.011": 1.94346466542,
			"0.012": 2.62826249116,
			"0.013": 1.96384377632,
			"0.014": 0.784417186767,
			"0.015": 0.0854521011977,
			"0.016": 0.0,
			"0.017": 0.0,
			"0.018": 0.0,
			"0.019": 0.0,
			"0.02": 0.0,
			"0.021": 0.0,
			"0.022": 0.0,
			"0.023": 0.0,
			"0.024": 0.0,
			"0.025": 0.0
		}
	}
}
