{
	 "smiles": "CN(CCO)CCC(O)=O", 
	 "Tm": 363.15, 
	 "num_atms": 23, 
	 "gaussian": { 
		 "optdone": 1, 
		 "sigma_profile": "yes", 
		 "theory": "DFT", 
		 "functional": "B3LYP", 
		 "basiset": "6-31G**", 
		 "properties": { 
			 "R2extent": 2556.606, 
			 "electric_dipole_moment_norm": 3.81532507265, 
			 "electric_quadrupole_moment_norm": 22.1137892368, 
			 "total_energy": -516.883668038, 
			 "HOMO_LUMO_gap": 0.24027, 
			 "cosmo_polarized_energy": -18.23, 
			 "cosmo_cavitation_energy": 25.6, 
			 "cosmo_dispersion_energy": -18.43, 
			 "cosmo_repulsion_energy": 1.53, 
			 "cosmo_total_nonelectrostatic_energy": 8.69, 
			 "SMD_solvation_energy": 5.29 
		},
		"coords": [
			{
				"x": 1.7702934633,
				"y": 0.5395409726,
				"z": 1.0388083737,
				"element": "C" 
			},
			{
				"x": 1.3938601068,
				"y": 0.6021399634,
				"z": -0.3739822748,
				"element": "N" 
			},
			{
				"x": 2.4999382841,
				"y": 1.1010020001,
				"z": -1.2088345091,
				"element": "C" 
			},
			{
				"x": 2.5964755579,
				"y": 2.6268169312,
				"z": -1.1037516547,
				"element": "C" 
			},
			{
				"x": 1.3444391385,
				"y": 3.2220338898,
				"z": -1.3770466933,
				"element": "O" 
			},
			{
				"x": 0.8546380301,
				"y": -0.672073804,
				"z": -0.8578310627,
				"element": "C" 
			},
			{
				"x": -0.5432208813,
				"y": -0.9646860453,
				"z": -0.3053013333,
				"element": "C" 
			},
			{
				"x": -1.1826872497,
				"y": -2.1689253672,
				"z": -0.9844528936,
				"element": "C" 
			},
			{
				"x": -2.4070321073,
				"y": -2.5236631393,
				"z": -0.508446928,
				"element": "O" 
			},
			{
				"x": -0.6821388539,
				"y": -2.7925931991,
				"z": -1.8862610681,
				"element": "O" 
			},
			{
				"x": 0.9001183526,
				"y": 0.3095594742,
				"z": 1.6596035854,
				"element": "H" 
			},
			{
				"x": 2.155273008,
				"y": 1.506865767,
				"z": 1.3695139079,
				"element": "H" 
			},
			{
				"x": 2.5452141297,
				"y": -0.2237882171,
				"z": 1.2351454356,
				"element": "H" 
			},
			{
				"x": 3.4663274245,
				"y": 0.6286116761,
				"z": -0.9561441787,
				"element": "H" 
			},
			{
				"x": 2.2706952605,
				"y": 0.8481015905,
				"z": -2.2485651498,
				"element": "H" 
			},
			{
				"x": 3.3179867843,
				"y": 2.9976271002,
				"z": -1.8405055358,
				"element": "H" 
			},
			{
				"x": 2.974722806,
				"y": 2.92292187,
				"z": -0.1100737562,
				"element": "H" 
			},
			{
				"x": 0.7017164783,
				"y": 2.6184898569,
				"z": -0.9676890822,
				"element": "H" 
			},
			{
				"x": 1.5227762225,
				"y": -1.520307206,
				"z": -0.6269565786,
				"element": "H" 
			},
			{
				"x": 0.779333913,
				"y": -0.6268338843,
				"z": -1.9468146751,
				"element": "H" 
			},
			{
				"x": -1.1861794908,
				"y": -0.0871698868,
				"z": -0.4579844971,
				"element": "H" 
			},
			{
				"x": -0.5234501098,
				"y": -1.1506922769,
				"z": 0.7762208147,
				"element": "H" 
			},
			{
				"x": -2.6760002671,
				"y": -1.927778066,
				"z": 0.2051497536,
				"element": "H" 
			}
		],
		 "valence_orbital": [ 
			{
				"type": "occ",
				"energy": -0.32155,
				"method": "rhf"
			},
			{
				"type": "occ",
				"energy": -0.31948,
				"method": "rhf"
			},
			{
				"type": "occ",
				"energy": -0.27873,
				"method": "rhf"
			},
			{
				"type": "occ",
				"energy": -0.25973,
				"method": "rhf"
			},
			{
				"type": "occ",
				"energy": -0.23594,
				"method": "rhf"
			},
			{
				"type": "unocc",
				"energy": 0.00433,
				"method": "rhf"
			},
			{
				"type": "unocc",
				"energy": 0.04838,
				"method": "rhf"
			},
			{
				"type": "unocc",
				"energy": 0.06771,
				"method": "rhf"
			},
			{
				"type": "unocc",
				"energy": 0.10304,
				"method": "rhf"
			},
			{
				"type": "unocc",
				"energy": 0.10948,
				"method": "rhf"
			}
		],
		"cosmo_sigma_profile": { 
			"-0.025": 0.0,
			"-0.024": 0.0,
			"-0.023": 0.0,
			"-0.022": 0.0,
			"-0.021": 0.0,
			"-0.02": 0.0,
			"-0.019": 0.584854220541,
			"-0.018": 1.24435498213,
			"-0.017": 0.800795964484,
			"-0.016": 1.25811141987,
			"-0.015": 1.227681885,
			"-0.014": 0.789308685599,
			"-0.013": 1.03938878385,
			"-0.012": 1.0467290772,
			"-0.011": 1.52348039952,
			"-0.01": 1.35056474941,
			"-0.009": 1.05531732537,
			"-0.008": 2.88154908292,
			"-0.007": 4.63674185664,
			"-0.006": 5.67837685236,
			"-0.005": 9.25792333367,
			"-0.004": 15.9851651364,
			"-0.003": 23.2013350398,
			"-0.002": 27.8578455555,
			"-0.001": 20.3849434238,
			"0.0": 11.4925135788,
			"0.001": 6.06837854257,
			"0.002": 4.49605851136,
			"0.003": 4.00622015071,
			"0.004": 4.08947618258,
			"0.005": 3.76741676348,
			"0.006": 4.11104883645,
			"0.007": 3.20608995949,
			"0.008": 2.79297359036,
			"0.009": 5.04958429907,
			"0.01": 5.78026259945,
			"0.011": 6.71257518855,
			"0.012": 6.97939680471,
			"0.013": 3.42256347296,
			"0.014": 1.91096730274,
			"0.015": 2.54969359462,
			"0.016": 0.265872385015,
			"0.017": 0.0,
			"0.018": 0.0,
			"0.019": 0.0,
			"0.02": 0.0,
			"0.021": 0.0,
			"0.022": 0.0,
			"0.023": 0.0,
			"0.024": 0.0,
			"0.025": 0.0
		}
	}
}
