{
	 "smiles": "CC1=CC=C(C=C1)C1=CSC(=N1)C(=N/NC1=CC(C)=CC=C1)C#N", 
	 "Tm": 405.15, 
	 "num_atms": 40, 
	 "gaussian": { 
		 "optdone": 1, 
		 "sigma_profile": "yes", 
		 "theory": "DFT", 
		 "functional": "B3LYP", 
		 "basiset": "6-31G**", 
		 "properties": { 
			 "R2extent": 12218.5055, 
			 "electric_dipole_moment_norm": 6.3466803559, 
			 "electric_quadrupole_moment_norm": 29.8680120778, 
			 "total_energy": -1350.82939876, 
			 "HOMO_LUMO_gap": 0.12633, 
			 "cosmo_polarized_energy": -13.18, 
			 "cosmo_cavitation_energy": 47.87, 
			 "cosmo_dispersion_energy": -33.3, 
			 "cosmo_repulsion_energy": 2.47, 
			 "cosmo_total_nonelectrostatic_energy": 17.04, 
			 "SMD_solvation_energy": 7.93 
		},
		"coords": [
			{
				"x": -3.5882908746,
				"y": -5.3786443475,
				"z": 1.2677499324,
				"element": "C" 
			},
			{
				"x": -2.8105239206,
				"y": -4.519542335,
				"z": 0.2999622783,
				"element": "C" 
			},
			{
				"x": -2.3599320853,
				"y": -5.0356002924,
				"z": -0.9233315098,
				"element": "C" 
			},
			{
				"x": -1.614872889,
				"y": -4.2577186425,
				"z": -1.804612969,
				"element": "C" 
			},
			{
				"x": -1.2991431703,
				"y": -2.9249242871,
				"z": -1.4961937932,
				"element": "C" 
			},
			{
				"x": -1.7480813515,
				"y": -2.4045372215,
				"z": -0.2726417057,
				"element": "C" 
			},
			{
				"x": -2.4910742118,
				"y": -3.1899348515,
				"z": 0.6051868286,
				"element": "C" 
			},
			{
				"x": -0.5296012776,
				"y": -2.0831298863,
				"z": -2.4310440451,
				"element": "C" 
			},
			{
				"x": -0.4368550259,
				"y": -2.2556684153,
				"z": -3.7919882454,
				"element": "C" 
			},
			{
				"x": 0.5550675946,
				"y": -1.0405273453,
				"z": -4.5157635506,
				"element": "S" 
			},
			{
				"x": 0.7961562439,
				"y": -0.3430142506,
				"z": -2.9171655297,
				"element": "C" 
			},
			{
				"x": 0.1728487853,
				"y": -0.993152523,
				"z": -1.9570233808,
				"element": "N" 
			},
			{
				"x": 1.6286649337,
				"y": 0.8309638315,
				"z": -2.6952004335,
				"element": "C" 
			},
			{
				"x": 1.9104505,
				"y": 1.3770430437,
				"z": -1.5289141324,
				"element": "N" 
			},
			{
				"x": 1.4246406163,
				"y": 0.8598599832,
				"z": -0.426247211,
				"element": "N" 
			},
			{
				"x": 1.7197063092,
				"y": 1.4150767728,
				"z": 0.829871802,
				"element": "C" 
			},
			{
				"x": 2.5139039575,
				"y": 2.5619232141,
				"z": 0.960589358,
				"element": "C" 
			},
			{
				"x": 2.7866418876,
				"y": 3.0892613913,
				"z": 2.2244532998,
				"element": "C" 
			},
			{
				"x": 3.6191901012,
				"y": 4.3421176454,
				"z": 2.3672909855,
				"element": "C" 
			},
			{
				"x": 2.2576822577,
				"y": 2.4508799758,
				"z": 3.3577846035,
				"element": "C" 
			},
			{
				"x": 1.4683746016,
				"y": 1.3096573278,
				"z": 3.2234439575,
				"element": "C" 
			},
			{
				"x": 1.1930383925,
				"y": 0.7832474232,
				"z": 1.9632628811,
				"element": "C" 
			},
			{
				"x": 2.2159884062,
				"y": 1.468295909,
				"z": -3.8366115451,
				"element": "C" 
			},
			{
				"x": 2.6710017093,
				"y": 1.9495012492,
				"z": -4.7940618489,
				"element": "N" 
			},
			{
				"x": -4.2212763211,
				"y": -6.1009199738,
				"z": 0.7432076305,
				"element": "H" 
			},
			{
				"x": -2.9149960703,
				"y": -5.9505183259,
				"z": 1.9188229896,
				"element": "H" 
			},
			{
				"x": -4.2291266327,
				"y": -4.7727007863,
				"z": 1.914959791,
				"element": "H" 
			},
			{
				"x": -2.5888705681,
				"y": -6.0655939637,
				"z": -1.1855347279,
				"element": "H" 
			},
			{
				"x": -1.2586628372,
				"y": -4.6966644408,
				"z": -2.7321144978,
				"element": "H" 
			},
			{
				"x": -1.529283493,
				"y": -1.3713046696,
				"z": -0.0240054596,
				"element": "H" 
			},
			{
				"x": -2.8356607568,
				"y": -2.7601905816,
				"z": 1.5426146947,
				"element": "H" 
			},
			{
				"x": -0.9214443482,
				"y": -3.0031877105,
				"z": -4.4023943575,
				"element": "H" 
			},
			{
				"x": 0.8283447121,
				"y": 0.0261528877,
				"z": -0.5018628548,
				"element": "H" 
			},
			{
				"x": 2.9117243023,
				"y": 3.0297846729,
				"z": 0.0673116908,
				"element": "H" 
			},
			{
				"x": 4.220099861,
				"y": 4.5281314284,
				"z": 1.4731311459,
				"element": "H" 
			},
			{
				"x": 2.9826172963,
				"y": 5.2214299395,
				"z": 2.5252415792,
				"element": "H" 
			},
			{
				"x": 4.2959817699,
				"y": 4.2750852152,
				"z": 3.2249828844,
				"element": "H" 
			},
			{
				"x": 2.4686080038,
				"y": 2.849947632,
				"z": 4.3462355239,
				"element": "H" 
			},
			{
				"x": 1.0665742224,
				"y": 0.8205867286,
				"z": 4.1060312142,
				"element": "H" 
			},
			{
				"x": 0.5850893696,
				"y": -0.111171421,
				"z": 1.8564767273,
				"element": "H" 
			}
		],
		 "valence_orbital": [ 
			{
				"type": "occ",
				"energy": -0.27247,
				"method": "rhf"
			},
			{
				"type": "occ",
				"energy": -0.26026,
				"method": "rhf"
			},
			{
				"type": "occ",
				"energy": -0.25144,
				"method": "rhf"
			},
			{
				"type": "occ",
				"energy": -0.23478,
				"method": "rhf"
			},
			{
				"type": "occ",
				"energy": -0.20678,
				"method": "rhf"
			},
			{
				"type": "unocc",
				"energy": -0.08045,
				"method": "rhf"
			},
			{
				"type": "unocc",
				"energy": -0.03922,
				"method": "rhf"
			},
			{
				"type": "unocc",
				"energy": -0.01295,
				"method": "rhf"
			},
			{
				"type": "unocc",
				"energy": -0.00678,
				"method": "rhf"
			},
			{
				"type": "unocc",
				"energy": -0.0032,
				"method": "rhf"
			}
		],
		"cosmo_sigma_profile": { 
			"-0.025": 0.0,
			"-0.024": 0.0,
			"-0.023": 0.0,
			"-0.022": 0.0,
			"-0.021": 0.0,
			"-0.02": 0.0,
			"-0.019": 0.0,
			"-0.018": 0.0,
			"-0.017": 0.0,
			"-0.016": 0.0,
			"-0.015": 0.0,
			"-0.014": 0.0,
			"-0.013": 0.0,
			"-0.012": 0.0,
			"-0.011": 0.0,
			"-0.01": 1.1093633636,
			"-0.009": 3.61478864267,
			"-0.008": 3.14690753961,
			"-0.007": 5.20413718525,
			"-0.006": 10.4184718309,
			"-0.005": 19.926820016,
			"-0.004": 33.9036215385,
			"-0.003": 32.5387030575,
			"-0.002": 33.8629324052,
			"-0.001": 37.2272342058,
			"0.0": 42.6747696593,
			"0.001": 36.9218795025,
			"0.002": 30.1658166802,
			"0.003": 23.6100675402,
			"0.004": 23.4720442908,
			"0.005": 22.6125003568,
			"0.006": 8.59054127398,
			"0.007": 2.76101232693,
			"0.008": 3.15645744006,
			"0.009": 3.18406060189,
			"0.01": 2.89752801564,
			"0.011": 2.76087785904,
			"0.012": 2.2678622094,
			"0.013": 0.9872136891,
			"0.014": 0.0,
			"0.015": 0.0,
			"0.016": 0.0,
			"0.017": 0.0,
			"0.018": 0.0,
			"0.019": 0.0,
			"0.02": 0.0,
			"0.021": 0.0,
			"0.022": 0.0,
			"0.023": 0.0,
			"0.024": 0.0,
			"0.025": 0.0
		}
	}
}
