{
	 "smiles": "CC(=O)NC1=CC(C)=CC=C1", 
	 "Tm": 338.35, 
	 "num_atms": 22, 
	 "gaussian": { 
		 "optdone": 1, 
		 "sigma_profile": "yes", 
		 "theory": "DFT", 
		 "functional": "B3LYP", 
		 "basiset": "6-31G**", 
		 "properties": { 
			 "R2extent": 2352.4505, 
			 "electric_dipole_moment_norm": 3.57426787608, 
			 "electric_quadrupole_moment_norm": 14.7607406173, 
			 "total_energy": -479.586785983, 
			 "HOMO_LUMO_gap": 0.21058, 
			 "cosmo_polarized_energy": -10.73, 
			 "cosmo_cavitation_energy": 25.54, 
			 "cosmo_dispersion_energy": -18.44, 
			 "cosmo_repulsion_energy": 1.49, 
			 "cosmo_total_nonelectrostatic_energy": 8.59, 
			 "SMD_solvation_energy": 5.34 
		},
		"coords": [
			{
				"x": 2.1014728026,
				"y": -1.6092383645,
				"z": 2.4658820191,
				"element": "C" 
			},
			{
				"x": 1.9607188111,
				"y": -2.5814059644,
				"z": 1.3097002868,
				"element": "C" 
			},
			{
				"x": 2.4977036936,
				"y": -3.6801092152,
				"z": 1.3212219196,
				"element": "O" 
			},
			{
				"x": 1.1863482763,
				"y": -2.2164775799,
				"z": 0.2202691196,
				"element": "N" 
			},
			{
				"x": 0.4349663314,
				"y": -1.051741605,
				"z": -0.0592672775,
				"element": "C" 
			},
			{
				"x": 0.9237226946,
				"y": 0.2358397572,
				"z": 0.1980929674,
				"element": "C" 
			},
			{
				"x": 0.1632158102,
				"y": 1.3724640687,
				"z": -0.1037180616,
				"element": "C" 
			},
			{
				"x": 0.7198283614,
				"y": 2.752713529,
				"z": 0.160220379,
				"element": "C" 
			},
			{
				"x": -1.0937145677,
				"y": 1.2063227643,
				"z": -0.6973138002,
				"element": "C" 
			},
			{
				"x": -1.5739100126,
				"y": -0.0720082569,
				"z": -0.9856898762,
				"element": "C" 
			},
			{
				"x": -0.822466095,
				"y": -1.1987702232,
				"z": -0.6648536616,
				"element": "C" 
			},
			{
				"x": 2.3130438118,
				"y": -2.1991796872,
				"z": 3.3584497428,
				"element": "H" 
			},
			{
				"x": 1.2121184555,
				"y": -0.9947585631,
				"z": 2.6205056146,
				"element": "H" 
			},
			{
				"x": 2.9527429383,
				"y": -0.9411963615,
				"z": 2.2969428183,
				"element": "H" 
			},
			{
				"x": 1.0699636663,
				"y": -2.9926299683,
				"z": -0.4201555038,
				"element": "H" 
			},
			{
				"x": 1.9170627359,
				"y": 0.3588002991,
				"z": 0.6158557738,
				"element": "H" 
			},
			{
				"x": 1.3521866997,
				"y": 2.767992462,
				"z": 1.0530990017,
				"element": "H" 
			},
			{
				"x": -0.0807558524,
				"y": 3.4849566144,
				"z": 0.2991427609,
				"element": "H" 
			},
			{
				"x": 1.335239245,
				"y": 3.0977711731,
				"z": -0.6799700504,
				"element": "H" 
			},
			{
				"x": -1.6935452552,
				"y": 2.0791645044,
				"z": -0.9402913017,
				"element": "H" 
			},
			{
				"x": -2.5483789838,
				"y": -0.1928320505,
				"z": -1.4502122617,
				"element": "H" 
			},
			{
				"x": -1.207363567,
				"y": -2.1948773326,
				"z": -0.865110609,
				"element": "H" 
			}
		],
		 "valence_orbital": [ 
			{
				"type": "occ",
				"energy": -0.34573,
				"method": "rhf"
			},
			{
				"type": "occ",
				"energy": -0.29276,
				"method": "rhf"
			},
			{
				"type": "occ",
				"energy": -0.25144,
				"method": "rhf"
			},
			{
				"type": "occ",
				"energy": -0.24939,
				"method": "rhf"
			},
			{
				"type": "occ",
				"energy": -0.22376,
				"method": "rhf"
			},
			{
				"type": "unocc",
				"energy": -0.01318,
				"method": "rhf"
			},
			{
				"type": "unocc",
				"energy": -0.00933,
				"method": "rhf"
			},
			{
				"type": "unocc",
				"energy": 0.03583,
				"method": "rhf"
			},
			{
				"type": "unocc",
				"energy": 0.08367,
				"method": "rhf"
			},
			{
				"type": "unocc",
				"energy": 0.10191,
				"method": "rhf"
			}
		],
		"cosmo_sigma_profile": { 
			"-0.025": 0.0,
			"-0.024": 0.0,
			"-0.023": 0.0,
			"-0.022": 0.0,
			"-0.021": 0.0,
			"-0.02": 0.0,
			"-0.019": 0.0,
			"-0.018": 0.0,
			"-0.017": 0.0,
			"-0.016": 0.0,
			"-0.015": 0.0,
			"-0.014": 0.272255744318,
			"-0.013": 0.916406315287,
			"-0.012": 1.35108050534,
			"-0.011": 0.76335666527,
			"-0.01": 1.19528000372,
			"-0.009": 1.44729229695,
			"-0.008": 1.38157299897,
			"-0.007": 3.81259977186,
			"-0.006": 7.29941221222,
			"-0.005": 12.1327294759,
			"-0.004": 19.6038874855,
			"-0.003": 19.9398055652,
			"-0.002": 19.5989932807,
			"-0.001": 20.6407068713,
			"0.0": 17.0865923128,
			"0.001": 11.7350137204,
			"0.002": 9.32369767033,
			"0.003": 10.6147004712,
			"0.004": 8.56423230372,
			"0.005": 9.51392169586,
			"0.006": 6.07139307545,
			"0.007": 1.2552768578,
			"0.008": 1.11561923244,
			"0.009": 1.22296659674,
			"0.01": 1.35395919795,
			"0.011": 1.66300055963,
			"0.012": 2.220453115,
			"0.013": 4.28681002073,
			"0.014": 4.73676913593,
			"0.015": 0.919908186458,
			"0.016": 0.0,
			"0.017": 0.0,
			"0.018": 0.0,
			"0.019": 0.0,
			"0.02": 0.0,
			"0.021": 0.0,
			"0.022": 0.0,
			"0.023": 0.0,
			"0.024": 0.0,
			"0.025": 0.0
		}
	}
}
