{
	 "smiles": "CC(C1=C(Cl)C=C(Cl)C=C1)S(N)(=O)=O", 
	 "Tm": 397.15, 
	 "num_atms": 23, 
	 "gaussian": { 
		 "optdone": 1, 
		 "sigma_profile": "yes", 
		 "theory": "DFT", 
		 "functional": "B3LYP", 
		 "basiset": "6-31G**", 
		 "properties": { 
			 "R2extent": 4497.7683, 
			 "electric_dipole_moment_norm": 4.05978993299, 
			 "electric_quadrupole_moment_norm": 17.2438141442, 
			 "total_energy": -1833.988435, 
			 "HOMO_LUMO_gap": 0.21436, 
			 "cosmo_polarized_energy": -16.09, 
			 "cosmo_cavitation_energy": 31.25, 
			 "cosmo_dispersion_energy": -22.87, 
			 "cosmo_repulsion_energy": 1.77, 
			 "cosmo_total_nonelectrostatic_energy": 10.15, 
			 "SMD_solvation_energy": 4.43 
		},
		"coords": [
			{
				"x": -1.8568744431,
				"y": -0.1376067126,
				"z": -2.7965794942,
				"element": "C" 
			},
			{
				"x": -1.5215373657,
				"y": -0.5549842784,
				"z": -1.3615849533,
				"element": "C" 
			},
			{
				"x": -0.9661345346,
				"y": 0.539626767,
				"z": -0.4795879646,
				"element": "C" 
			},
			{
				"x": -1.4245262466,
				"y": 0.7572914948,
				"z": 0.8320646141,
				"element": "C" 
			},
			{
				"x": -2.6911687651,
				"y": -0.2378015599,
				"z": 1.533405763,
				"element": "Cl" 
			},
			{
				"x": -0.9124594046,
				"y": 1.7771749604,
				"z": 1.6348312264,
				"element": "C" 
			},
			{
				"x": 0.0870188063,
				"y": 2.5997578132,
				"z": 1.1232911959,
				"element": "C" 
			},
			{
				"x": 0.7357449414,
				"y": 3.8827186203,
				"z": 2.1264240976,
				"element": "Cl" 
			},
			{
				"x": 0.5732519747,
				"y": 2.4192800126,
				"z": -0.1701426258,
				"element": "C" 
			},
			{
				"x": 0.0410812585,
				"y": 1.3971501511,
				"z": -0.9502548217,
				"element": "C" 
			},
			{
				"x": -0.4156957833,
				"y": -2.0320724159,
				"z": -1.368264283,
				"element": "S" 
			},
			{
				"x": 0.9800486227,
				"y": -1.4713097064,
				"z": -2.1653034005,
				"element": "N" 
			},
			{
				"x": -1.0332742809,
				"y": -3.03066284,
				"z": -2.2485985804,
				"element": "O" 
			},
			{
				"x": -0.0536383801,
				"y": -2.339024473,
				"z": 0.017692375,
				"element": "O" 
			},
			{
				"x": -2.2998347845,
				"y": -0.9764390099,
				"z": -3.3368744477,
				"element": "H" 
			},
			{
				"x": -2.5775988082,
				"y": 0.6845753237,
				"z": -2.7723648019,
				"element": "H" 
			},
			{
				"x": -0.9709419661,
				"y": 0.1959300573,
				"z": -3.3418842199,
				"element": "H" 
			},
			{
				"x": -2.414243707,
				"y": -0.9773722209,
				"z": -0.8931207323,
				"element": "H" 
			},
			{
				"x": -1.289059558,
				"y": 1.9219373644,
				"z": 2.6395925497,
				"element": "H" 
			},
			{
				"x": 1.3510349612,
				"y": 3.0668165403,
				"z": -0.5581438058,
				"element": "H" 
			},
			{
				"x": 0.4262210708,
				"y": 1.2491669272,
				"z": -1.9526427366,
				"element": "H" 
			},
			{
				"x": 1.7624840661,
				"y": -1.4861412507,
				"z": -1.5158775352,
				"element": "H" 
			},
			{
				"x": 1.1585023262,
				"y": -2.0750115647,
				"z": -2.964077419,
				"element": "H" 
			}
		],
		 "valence_orbital": [ 
			{
				"type": "occ",
				"energy": -0.31684,
				"method": "rhf"
			},
			{
				"type": "occ",
				"energy": -0.30607,
				"method": "rhf"
			},
			{
				"type": "occ",
				"energy": -0.29802,
				"method": "rhf"
			},
			{
				"type": "occ",
				"energy": -0.26976,
				"method": "rhf"
			},
			{
				"type": "occ",
				"energy": -0.25553,
				"method": "rhf"
			},
			{
				"type": "unocc",
				"energy": -0.04117,
				"method": "rhf"
			},
			{
				"type": "unocc",
				"energy": -0.03294,
				"method": "rhf"
			},
			{
				"type": "unocc",
				"energy": 0.00069,
				"method": "rhf"
			},
			{
				"type": "unocc",
				"energy": 0.04259,
				"method": "rhf"
			},
			{
				"type": "unocc",
				"energy": 0.04648,
				"method": "rhf"
			}
		],
		"cosmo_sigma_profile": { 
			"-0.025": 0.0,
			"-0.024": 0.0,
			"-0.023": 0.0,
			"-0.022": 0.0,
			"-0.021": 0.0,
			"-0.02": 0.0,
			"-0.019": 0.0,
			"-0.018": 0.0,
			"-0.017": 0.0,
			"-0.016": 0.0,
			"-0.015": 0.920296132061,
			"-0.014": 2.3064527101,
			"-0.013": 2.16800207073,
			"-0.012": 2.81148924233,
			"-0.011": 2.60840451539,
			"-0.01": 1.54993374024,
			"-0.009": 1.63922988458,
			"-0.008": 4.79913720594,
			"-0.007": 8.23163524064,
			"-0.006": 9.61161160504,
			"-0.005": 12.4604462105,
			"-0.004": 13.0237013759,
			"-0.003": 14.2484086193,
			"-0.002": 19.3040906775,
			"-0.001": 19.1184740751,
			"0.0": 20.904305813,
			"0.001": 24.754197246,
			"0.002": 18.5064482339,
			"0.003": 16.7653253833,
			"0.004": 17.3602298846,
			"0.005": 5.02187812966,
			"0.006": 3.84493451438,
			"0.007": 3.72991943258,
			"0.008": 4.03710307793,
			"0.009": 3.34917481828,
			"0.01": 6.835894762,
			"0.011": 9.224237152,
			"0.012": 3.98342372398,
			"0.013": 0.0,
			"0.014": 0.0,
			"0.015": 0.0,
			"0.016": 0.0,
			"0.017": 0.0,
			"0.018": 0.0,
			"0.019": 0.0,
			"0.02": 0.0,
			"0.021": 0.0,
			"0.022": 0.0,
			"0.023": 0.0,
			"0.024": 0.0,
			"0.025": 0.0
		}
	}
}
