{
	 "smiles": "COCCNC(N)=O", 
	 "Tm": 346.15, 
	 "num_atms": 18, 
	 "gaussian": { 
		 "optdone": 1, 
		 "sigma_profile": "yes", 
		 "theory": "DFT", 
		 "functional": "B3LYP", 
		 "basiset": "6-31G**", 
		 "properties": { 
			 "R2extent": 1554.4156, 
			 "electric_dipole_moment_norm": 3.51944508978, 
			 "electric_quadrupole_moment_norm": 10.1990284694, 
			 "total_energy": -418.406526996, 
			 "HOMO_LUMO_gap": 0.29108, 
			 "cosmo_polarized_energy": -16.11, 
			 "cosmo_cavitation_energy": 21.47, 
			 "cosmo_dispersion_energy": -15.56, 
			 "cosmo_repulsion_energy": 1.34, 
			 "cosmo_total_nonelectrostatic_energy": 7.24, 
			 "SMD_solvation_energy": 4.52 
		},
		"coords": [
			{
				"x": -0.0277170233,
				"y": -0.6767511184,
				"z": -3.7169028656,
				"element": "C" 
			},
			{
				"x": 0.6168946788,
				"y": 0.5388891182,
				"z": -3.3893364647,
				"element": "O" 
			},
			{
				"x": 0.9624663249,
				"y": 0.6646639045,
				"z": -2.0209063109,
				"element": "C" 
			},
			{
				"x": -0.202640965,
				"y": 1.2161218601,
				"z": -1.1787786135,
				"element": "C" 
			},
			{
				"x": 0.1401045313,
				"y": 1.4244108347,
				"z": 0.2219015626,
				"element": "N" 
			},
			{
				"x": 0.3700263893,
				"y": 0.4326857608,
				"z": 1.1607042938,
				"element": "C" 
			},
			{
				"x": -0.1916340999,
				"y": -0.8079372589,
				"z": 0.8732625208,
				"element": "N" 
			},
			{
				"x": 1.0319804092,
				"y": 0.6342465252,
				"z": 2.1696629917,
				"element": "O" 
			},
			{
				"x": 0.5961096279,
				"y": -1.5472933946,
				"z": -3.462808354,
				"element": "H" 
			},
			{
				"x": -1.0010467804,
				"y": -0.7936771375,
				"z": -3.2165612253,
				"element": "H" 
			},
			{
				"x": -0.1968242788,
				"y": -0.6674749823,
				"z": -4.7964373164,
				"element": "H" 
			},
			{
				"x": 1.8021891156,
				"y": 1.3671948819,
				"z": -1.9723964289,
				"element": "H" 
			},
			{
				"x": 1.3017075937,
				"y": -0.2944394705,
				"z": -1.6024564223,
				"element": "H" 
			},
			{
				"x": -1.0712304543,
				"y": 0.5526954252,
				"z": -1.2532143361,
				"element": "H" 
			},
			{
				"x": -0.5217768129,
				"y": 2.1750771092,
				"z": -1.5981906254,
				"element": "H" 
			},
			{
				"x": 0.6805252432,
				"y": 2.2512431404,
				"z": 0.43772088,
				"element": "H" 
			},
			{
				"x": -1.0629497353,
				"y": -0.8281704884,
				"z": 0.361667245,
				"element": "H" 
			},
			{
				"x": -0.1744837637,
				"y": -1.4171847096,
				"z": 1.679269469,
				"element": "H" 
			}
		],
		 "valence_orbital": [ 
			{
				"type": "occ",
				"energy": -0.31933,
				"method": "rhf"
			},
			{
				"type": "occ",
				"energy": -0.27995,
				"method": "rhf"
			},
			{
				"type": "occ",
				"energy": -0.27184,
				"method": "rhf"
			},
			{
				"type": "occ",
				"energy": -0.25064,
				"method": "rhf"
			},
			{
				"type": "occ",
				"energy": -0.2389,
				"method": "rhf"
			},
			{
				"type": "unocc",
				"energy": 0.05218,
				"method": "rhf"
			},
			{
				"type": "unocc",
				"energy": 0.06071,
				"method": "rhf"
			},
			{
				"type": "unocc",
				"energy": 0.08181,
				"method": "rhf"
			},
			{
				"type": "unocc",
				"energy": 0.09862,
				"method": "rhf"
			},
			{
				"type": "unocc",
				"energy": 0.12267,
				"method": "rhf"
			}
		],
		"cosmo_sigma_profile": { 
			"-0.025": 0.0,
			"-0.024": 0.0,
			"-0.023": 0.0,
			"-0.022": 0.0,
			"-0.021": 0.0,
			"-0.02": 0.0,
			"-0.019": 0.0,
			"-0.018": 0.0,
			"-0.017": 0.0,
			"-0.016": 0.0,
			"-0.015": 0.0,
			"-0.014": 0.348511871613,
			"-0.013": 2.47377179696,
			"-0.012": 3.67222289522,
			"-0.011": 3.94390638534,
			"-0.01": 3.65095525264,
			"-0.009": 3.16032000846,
			"-0.008": 3.4217106511,
			"-0.007": 3.73658192969,
			"-0.006": 5.56173755022,
			"-0.005": 10.2669203681,
			"-0.004": 13.4415281299,
			"-0.003": 15.5175704002,
			"-0.002": 18.514168764,
			"-0.001": 10.9628741297,
			"0.0": 7.6518270703,
			"0.001": 4.36781158227,
			"0.002": 5.002761931,
			"0.003": 5.57091256359,
			"0.004": 3.62370448337,
			"0.005": 4.56653676419,
			"0.006": 4.24904261563,
			"0.007": 3.77949933243,
			"0.008": 3.95892738123,
			"0.009": 2.71239309123,
			"0.01": 2.27701187796,
			"0.011": 3.19424916017,
			"0.012": 3.12649339127,
			"0.013": 3.5084075663,
			"0.014": 5.76344251939,
			"0.015": 4.83356332946,
			"0.016": 0.180441961104,
			"0.017": 0.0,
			"0.018": 0.0,
			"0.019": 0.0,
			"0.02": 0.0,
			"0.021": 0.0,
			"0.022": 0.0,
			"0.023": 0.0,
			"0.024": 0.0,
			"0.025": 0.0
		}
	}
}
