{
	 "smiles": "CC(NC(=O)CCl)C1=CC=C(F)C=C1", 
	 "Tm": 345.15, 
	 "num_atms": 25, 
	 "gaussian": { 
		 "optdone": 1, 
		 "sigma_profile": "yes", 
		 "theory": "DFT", 
		 "functional": "B3LYP", 
		 "basiset": "6-31G**", 
		 "properties": { 
			 "R2extent": 4043.6524, 
			 "electric_dipole_moment_norm": 4.02683101334, 
			 "electric_quadrupole_moment_norm": 16.4872657563, 
			 "total_energy": -1077.70500661, 
			 "HOMO_LUMO_gap": 0.22041, 
			 "cosmo_polarized_energy": -13.75, 
			 "cosmo_cavitation_energy": 30.38, 
			 "cosmo_dispersion_energy": -21.15, 
			 "cosmo_repulsion_energy": 1.66, 
			 "cosmo_total_nonelectrostatic_energy": 10.9, 
			 "SMD_solvation_energy": 6.09 
		},
		"coords": [
			{
				"x": 0.7718490861,
				"y": 1.5853752233,
				"z": -0.6669950601,
				"element": "C" 
			},
			{
				"x": -0.0644951669,
				"y": 1.1233787889,
				"z": 0.535534682,
				"element": "C" 
			},
			{
				"x": -1.408771139,
				"y": 1.732220358,
				"z": 0.5515553711,
				"element": "N" 
			},
			{
				"x": -2.5050843325,
				"y": 1.5581778084,
				"z": -0.2555145414,
				"element": "C" 
			},
			{
				"x": -3.5089637151,
				"y": 2.2404949816,
				"z": -0.1114756441,
				"element": "O" 
			},
			{
				"x": -2.4620827046,
				"y": 0.4676583348,
				"z": -1.3264145064,
				"element": "C" 
			},
			{
				"x": -2.12920901,
				"y": 1.190852803,
				"z": -2.9588878917,
				"element": "Cl" 
			},
			{
				"x": -0.1047062418,
				"y": -0.3922494957,
				"z": 0.7615519741,
				"element": "C" 
			},
			{
				"x": 0.6706122882,
				"y": -1.2868715859,
				"z": 0.0131423843,
				"element": "C" 
			},
			{
				"x": 0.6482541966,
				"y": -2.6593425128,
				"z": 0.2759803497,
				"element": "C" 
			},
			{
				"x": -0.1580134931,
				"y": -3.1309627707,
				"z": 1.3021375765,
				"element": "C" 
			},
			{
				"x": -0.186756145,
				"y": -4.4531370028,
				"z": 1.5628307802,
				"element": "F" 
			},
			{
				"x": -0.9413088898,
				"y": -2.2732952916,
				"z": 2.0692097378,
				"element": "C" 
			},
			{
				"x": -0.9071109364,
				"y": -0.9096691588,
				"z": 1.7918940634,
				"element": "C" 
			},
			{
				"x": 0.3912001665,
				"y": 1.1920866512,
				"z": -1.6129813549,
				"element": "H" 
			},
			{
				"x": 1.8158623207,
				"y": 1.2778844268,
				"z": -0.5548625364,
				"element": "H" 
			},
			{
				"x": 0.7467045371,
				"y": 2.6764048754,
				"z": -0.726915342,
				"element": "H" 
			},
			{
				"x": 0.4114575232,
				"y": 1.5484755241,
				"z": 1.4282757025,
				"element": "H" 
			},
			{
				"x": -1.5439164061,
				"y": 2.512737062,
				"z": 1.1813693589,
				"element": "H" 
			},
			{
				"x": -3.4548593052,
				"y": 0.0240824742,
				"z": -1.3828592925,
				"element": "H" 
			},
			{
				"x": -1.70995748,
				"y": -0.2993733051,
				"z": -1.1569138783,
				"element": "H" 
			},
			{
				"x": 1.302635179,
				"y": -0.9251424731,
				"z": -0.7901200264,
				"element": "H" 
			},
			{
				"x": 1.2431642286,
				"y": -3.3566014778,
				"z": -0.3038093161,
				"element": "H" 
			},
			{
				"x": -1.5601966699,
				"y": -2.6775550513,
				"z": 2.8629742461,
				"element": "H" 
			},
			{
				"x": -1.5220078907,
				"y": -0.2331291861,
				"z": 2.3779931636,
				"element": "H" 
			}
		],
		 "valence_orbital": [ 
			{
				"type": "occ",
				"energy": -0.30168,
				"method": "rhf"
			},
			{
				"type": "occ",
				"energy": -0.27428,
				"method": "rhf"
			},
			{
				"type": "occ",
				"energy": -0.26592,
				"method": "rhf"
			},
			{
				"type": "occ",
				"energy": -0.25768,
				"method": "rhf"
			},
			{
				"type": "occ",
				"energy": -0.24839,
				"method": "rhf"
			},
			{
				"type": "unocc",
				"energy": -0.02798,
				"method": "rhf"
			},
			{
				"type": "unocc",
				"energy": -0.02005,
				"method": "rhf"
			},
			{
				"type": "unocc",
				"energy": -0.01612,
				"method": "rhf"
			},
			{
				"type": "unocc",
				"energy": 0.05616,
				"method": "rhf"
			},
			{
				"type": "unocc",
				"energy": 0.06754,
				"method": "rhf"
			}
		],
		"cosmo_sigma_profile": { 
			"-0.025": 0.0,
			"-0.024": 0.0,
			"-0.023": 0.0,
			"-0.022": 0.0,
			"-0.021": 0.0,
			"-0.02": 0.0,
			"-0.019": 0.0,
			"-0.018": 0.0,
			"-0.017": 0.0,
			"-0.016": 0.0,
			"-0.015": 0.0,
			"-0.014": 0.695910761999,
			"-0.013": 1.55972807662,
			"-0.012": 1.19280885206,
			"-0.011": 0.696690056116,
			"-0.01": 1.55098448052,
			"-0.009": 1.69893379154,
			"-0.008": 3.58109930142,
			"-0.007": 8.1344650727,
			"-0.006": 12.216170563,
			"-0.005": 16.9643775042,
			"-0.004": 20.0943693004,
			"-0.003": 15.4459606823,
			"-0.002": 15.4119095886,
			"-0.001": 16.0237414328,
			"0.0": 16.5632349417,
			"0.001": 19.6945443366,
			"0.002": 16.4786796954,
			"0.003": 17.2544597184,
			"0.004": 20.1256667336,
			"0.005": 12.9448036412,
			"0.006": 5.94972243343,
			"0.007": 2.53647939548,
			"0.008": 1.52623003161,
			"0.009": 0.833167275877,
			"0.01": 1.0994301185,
			"0.011": 2.09484457534,
			"0.012": 2.20785774051,
			"0.013": 5.53221487424,
			"0.014": 3.07752681426,
			"0.015": 0.112475935677,
			"0.016": 0.0,
			"0.017": 0.0,
			"0.018": 0.0,
			"0.019": 0.0,
			"0.02": 0.0,
			"0.021": 0.0,
			"0.022": 0.0,
			"0.023": 0.0,
			"0.024": 0.0,
			"0.025": 0.0
		}
	}
}
