{
	 "smiles": "NC1=CC2=C(C=C1)C(=O)C1=C(C=CC=C1)C2=O", 
	 "Tm": 577.15, 
	 "num_atms": 26, 
	 "gaussian": { 
		 "optdone": 1, 
		 "sigma_profile": "yes", 
		 "theory": "DFT", 
		 "functional": "B3LYP", 
		 "basiset": "6-31G**", 
		 "properties": { 
			 "R2extent": 4466.98, 
			 "electric_dipole_moment_norm": 2.72500537981, 
			 "electric_quadrupole_moment_norm": 36.9932531027, 
			 "total_energy": -744.139643303, 
			 "HOMO_LUMO_gap": 0.12749, 
			 "cosmo_polarized_energy": -15.57, 
			 "cosmo_cavitation_energy": 30.45, 
			 "cosmo_dispersion_energy": -22.71, 
			 "cosmo_repulsion_energy": 1.7, 
			 "cosmo_total_nonelectrostatic_energy": 9.43, 
			 "SMD_solvation_energy": 5.71 
		},
		"coords": [
			{
				"x": 5.2564840612,
				"y": 1.7937467893,
				"z": 0.735087161,
				"element": "N" 
			},
			{
				"x": 4.1129157594,
				"y": 1.175743693,
				"z": 0.2692156786,
				"element": "C" 
			},
			{
				"x": 2.841096001,
				"y": 1.6436744267,
				"z": 0.6423133079,
				"element": "C" 
			},
			{
				"x": 1.688918574,
				"y": 1.0501087209,
				"z": 0.1346408921,
				"element": "C" 
			},
			{
				"x": 1.776477443,
				"y": -0.0331399282,
				"z": -0.7647160688,
				"element": "C" 
			},
			{
				"x": 3.0477764241,
				"y": -0.4973551766,
				"z": -1.1345894064,
				"element": "C" 
			},
			{
				"x": 4.1964392189,
				"y": 0.0903202216,
				"z": -0.6316852941,
				"element": "C" 
			},
			{
				"x": 0.5710282332,
				"y": -0.6843425749,
				"z": -1.3192975694,
				"element": "C" 
			},
			{
				"x": 0.644578624,
				"y": -1.6298935589,
				"z": -2.1018727913,
				"element": "O" 
			},
			{
				"x": -0.7574943091,
				"y": -0.1465884937,
				"z": -0.8906411449,
				"element": "C" 
			},
			{
				"x": -0.8557277454,
				"y": 0.9336641776,
				"z": 0.0081875257,
				"element": "C" 
			},
			{
				"x": -2.1163261549,
				"y": 1.4105251666,
				"z": 0.3880003601,
				"element": "C" 
			},
			{
				"x": -3.2698997909,
				"y": 0.8198865316,
				"z": -0.120879071,
				"element": "C" 
			},
			{
				"x": -3.1723088263,
				"y": -0.2537102109,
				"z": -1.0141547873,
				"element": "C" 
			},
			{
				"x": -1.9221070817,
				"y": -0.7341685113,
				"z": -1.3965578425,
				"element": "C" 
			},
			{
				"x": 0.3628147221,
				"y": 1.584798183,
				"z": 0.5690854797,
				"element": "C" 
			},
			{
				"x": 0.2803965387,
				"y": 2.5221692492,
				"z": 1.3565511705,
				"element": "O" 
			},
			{
				"x": 6.1186081419,
				"y": 1.27178521,
				"z": 0.6878172909,
				"element": "H" 
			},
			{
				"x": 5.1668376664,
				"y": 2.3693434971,
				"z": 1.5589417625,
				"element": "H" 
			},
			{
				"x": 2.7304847204,
				"y": 2.4760865568,
				"z": 1.3307617465,
				"element": "H" 
			},
			{
				"x": 3.1053002163,
				"y": -1.3320032736,
				"z": -1.8254851,
				"element": "H" 
			},
			{
				"x": 5.1739222255,
				"y": -0.2795106768,
				"z": -0.9311934336,
				"element": "H" 
			},
			{
				"x": -2.162583642,
				"y": 2.2433252261,
				"z": 1.0816764495,
				"element": "H" 
			},
			{
				"x": -4.2459537936,
				"y": 1.1927612459,
				"z": 0.1757222046,
				"element": "H" 
			},
			{
				"x": -4.0732855426,
				"y": -0.7133859686,
				"z": -1.410175068,
				"element": "H" 
			},
			{
				"x": -1.8175916839,
				"y": -1.5645405218,
				"z": -2.0867534522,
				"element": "H" 
			}
		],
		 "valence_orbital": [ 
			{
				"type": "occ",
				"energy": -0.263,
				"method": "rhf"
			},
			{
				"type": "occ",
				"energy": -0.26044,
				"method": "rhf"
			},
			{
				"type": "occ",
				"energy": -0.2594,
				"method": "rhf"
			},
			{
				"type": "occ",
				"energy": -0.24751,
				"method": "rhf"
			},
			{
				"type": "occ",
				"energy": -0.22034,
				"method": "rhf"
			},
			{
				"type": "unocc",
				"energy": -0.09285,
				"method": "rhf"
			},
			{
				"type": "unocc",
				"energy": -0.04813,
				"method": "rhf"
			},
			{
				"type": "unocc",
				"energy": -0.01177,
				"method": "rhf"
			},
			{
				"type": "unocc",
				"energy": -0.00219,
				"method": "rhf"
			},
			{
				"type": "unocc",
				"energy": 0.06,
				"method": "rhf"
			}
		],
		"cosmo_sigma_profile": { 
			"-0.025": 0.0,
			"-0.024": 0.0,
			"-0.023": 0.0,
			"-0.022": 0.0,
			"-0.021": 0.0,
			"-0.02": 0.0,
			"-0.019": 0.0,
			"-0.018": 0.0,
			"-0.017": 0.0,
			"-0.016": 0.0,
			"-0.015": 0.0,
			"-0.014": 1.15965101895,
			"-0.013": 3.20986314342,
			"-0.012": 3.17417629082,
			"-0.011": 2.50158295583,
			"-0.01": 3.035618895,
			"-0.009": 3.74251348097,
			"-0.008": 3.03900258168,
			"-0.007": 7.32349056999,
			"-0.006": 11.6702297928,
			"-0.005": 13.9718192075,
			"-0.004": 13.1704474829,
			"-0.003": 12.8106283796,
			"-0.002": 13.3804220204,
			"-0.001": 13.5034956068,
			"0.0": 15.5099372707,
			"0.001": 23.5575448464,
			"0.002": 28.7934919899,
			"0.003": 24.9525395852,
			"0.004": 7.17637131314,
			"0.005": 4.12594191506,
			"0.006": 4.48615604687,
			"0.007": 4.16104937994,
			"0.008": 4.11994918584,
			"0.009": 4.37791247336,
			"0.01": 5.05297979527,
			"0.011": 6.88260512977,
			"0.012": 5.65658527873,
			"0.013": 0.558232496225,
			"0.014": 0.0,
			"0.015": 0.0,
			"0.016": 0.0,
			"0.017": 0.0,
			"0.018": 0.0,
			"0.019": 0.0,
			"0.02": 0.0,
			"0.021": 0.0,
			"0.022": 0.0,
			"0.023": 0.0,
			"0.024": 0.0,
			"0.025": 0.0
		}
	}
}
