{
	 "smiles": "CN1C=NC2=C1C(=O)NC(=O)N2C", 
	 "Tm": 630.15, 
	 "num_atms": 21, 
	 "gaussian": { 
		 "optdone": 1, 
		 "sigma_profile": "yes", 
		 "theory": "DFT", 
		 "functional": "B3LYP", 
		 "basiset": "6-31G**", 
		 "properties": { 
			 "R2extent": 2233.1194, 
			 "electric_dipole_moment_norm": 4.2952732544, 
			 "electric_quadrupole_moment_norm": 8.47718578716, 
			 "total_energy": -641.066522467, 
			 "HOMO_LUMO_gap": 0.18808, 
			 "cosmo_polarized_energy": -16.17, 
			 "cosmo_cavitation_energy": 25.28, 
			 "cosmo_dispersion_energy": -18.8, 
			 "cosmo_repulsion_energy": 1.46, 
			 "cosmo_total_nonelectrostatic_energy": 7.94, 
			 "SMD_solvation_energy": 4.83 
		},
		"coords": [
			{
				"x": -0.9962478634,
				"y": -2.9046731331,
				"z": -1.9883364607,
				"element": "C" 
			},
			{
				"x": -0.5534148152,
				"y": -2.1579939128,
				"z": -0.8178628228,
				"element": "N" 
			},
			{
				"x": -0.1516590009,
				"y": -2.6501330695,
				"z": 0.3814750873,
				"element": "C" 
			},
			{
				"x": 0.1950008976,
				"y": -1.7096100031,
				"z": 1.2564826377,
				"element": "N" 
			},
			{
				"x": 0.0031215752,
				"y": -0.5493163873,
				"z": 0.5752240879,
				"element": "C" 
			},
			{
				"x": -0.4584201295,
				"y": -0.7801966728,
				"z": -0.7094841392,
				"element": "C" 
			},
			{
				"x": -0.7432554746,
				"y": 0.2736008453,
				"z": -1.6424133743,
				"element": "C" 
			},
			{
				"x": -1.1521773556,
				"y": 0.1803102122,
				"z": -2.7936205348,
				"element": "O" 
			},
			{
				"x": -0.4800001622,
				"y": 1.5192086436,
				"z": -1.040216783,
				"element": "N" 
			},
			{
				"x": -0.0148041772,
				"y": 1.823693269,
				"z": 0.2465798008,
				"element": "C" 
			},
			{
				"x": 0.1579088452,
				"y": 2.9785178082,
				"z": 0.6020692238,
				"element": "O" 
			},
			{
				"x": 0.227519534,
				"y": 0.7204053538,
				"z": 1.0643930478,
				"element": "N" 
			},
			{
				"x": 0.7152942743,
				"y": 0.9179062534,
				"z": 2.4280375783,
				"element": "C" 
			},
			{
				"x": -0.9582040108,
				"y": -3.9699957537,
				"z": -1.75512321,
				"element": "H" 
			},
			{
				"x": -0.3478780728,
				"y": -2.6905484901,
				"z": -2.8403285644,
				"element": "H" 
			},
			{
				"x": -2.0170369399,
				"y": -2.6215256861,
				"z": -2.2528096257,
				"element": "H" 
			},
			{
				"x": -0.1262367837,
				"y": -3.7136263669,
				"z": 0.5782801027,
				"element": "H" 
			},
			{
				"x": -0.6489147353,
				"y": 2.3349873509,
				"z": -1.6158130409,
				"element": "H" 
			},
			{
				"x": 0.8142142962,
				"y": 1.9901248045,
				"z": 2.5848030842,
				"element": "H" 
			},
			{
				"x": 1.682148334,
				"y": 0.4245553639,
				"z": 2.5562279199,
				"element": "H" 
			},
			{
				"x": 0.0082417646,
				"y": 0.4929095706,
				"z": 3.1450359854,
				"element": "H" 
			}
		],
		 "valence_orbital": [ 
			{
				"type": "occ",
				"energy": -0.28879,
				"method": "rhf"
			},
			{
				"type": "occ",
				"energy": -0.283,
				"method": "rhf"
			},
			{
				"type": "occ",
				"energy": -0.28027,
				"method": "rhf"
			},
			{
				"type": "occ",
				"energy": -0.26098,
				"method": "rhf"
			},
			{
				"type": "occ",
				"energy": -0.2224,
				"method": "rhf"
			},
			{
				"type": "unocc",
				"energy": -0.03432,
				"method": "rhf"
			},
			{
				"type": "unocc",
				"energy": 0.02268,
				"method": "rhf"
			},
			{
				"type": "unocc",
				"energy": 0.03438,
				"method": "rhf"
			},
			{
				"type": "unocc",
				"energy": 0.08533,
				"method": "rhf"
			},
			{
				"type": "unocc",
				"energy": 0.09582,
				"method": "rhf"
			}
		],
		"cosmo_sigma_profile": { 
			"-0.025": 0.0,
			"-0.024": 0.0,
			"-0.023": 0.0,
			"-0.022": 0.0,
			"-0.021": 0.0,
			"-0.02": 0.0,
			"-0.019": 0.0,
			"-0.018": 0.0,
			"-0.017": 0.0,
			"-0.016": 0.19733700779,
			"-0.015": 0.89872034662,
			"-0.014": 1.07251586552,
			"-0.013": 0.486137292546,
			"-0.012": 0.396008336237,
			"-0.011": 1.70352873947,
			"-0.01": 3.68405506449,
			"-0.009": 3.53815450944,
			"-0.008": 3.80475471291,
			"-0.007": 5.70212118669,
			"-0.006": 9.61837563902,
			"-0.005": 14.3514931894,
			"-0.004": 20.3578775513,
			"-0.003": 21.3939447995,
			"-0.002": 18.1336214663,
			"-0.001": 17.3990842268,
			"0.0": 9.78860509114,
			"0.001": 7.10116888378,
			"0.002": 5.42001905608,
			"0.003": 4.29789509261,
			"0.004": 5.06783264005,
			"0.005": 3.38853686286,
			"0.006": 3.53485481317,
			"0.007": 5.22043152256,
			"0.008": 2.77418345845,
			"0.009": 3.53808365324,
			"0.01": 4.35815308521,
			"0.011": 4.81607255124,
			"0.012": 8.32051771248,
			"0.013": 9.09333271239,
			"0.014": 1.68677748168,
			"0.015": 0.659310594632,
			"0.016": 0.0539436354503,
			"0.017": 0.0,
			"0.018": 0.0,
			"0.019": 0.0,
			"0.02": 0.0,
			"0.021": 0.0,
			"0.022": 0.0,
			"0.023": 0.0,
			"0.024": 0.0,
			"0.025": 0.0
		}
	}
}
