{
	 "smiles": "O=C1CCCC2=C1CC(CC#N)O2", 
	 "Tm": 378.15, 
	 "num_atms": 24, 
	 "gaussian": { 
		 "optdone": 1, 
		 "sigma_profile": "yes", 
		 "theory": "DFT", 
		 "functional": "B3LYP", 
		 "basiset": "6-31G**", 
		 "properties": { 
			 "R2extent": 2891.7875, 
			 "electric_dipole_moment_norm": 5.70313133463, 
			 "electric_quadrupole_moment_norm": 16.4781273284, 
			 "total_energy": -592.870273556, 
			 "HOMO_LUMO_gap": 0.19577, 
			 "cosmo_polarized_energy": -17.09, 
			 "cosmo_cavitation_energy": 27.77, 
			 "cosmo_dispersion_energy": -19.78, 
			 "cosmo_repulsion_energy": 1.6, 
			 "cosmo_total_nonelectrostatic_energy": 9.6, 
			 "SMD_solvation_energy": 6.11 
		},
		"coords": [
			{
				"x": -0.6198784985,
				"y": -0.1557459243,
				"z": -3.1431726454,
				"element": "O" 
			},
			{
				"x": -0.9489879384,
				"y": -0.152072334,
				"z": -1.9625297925,
				"element": "C" 
			},
			{
				"x": -2.4160873461,
				"y": -0.2579728673,
				"z": -1.5261020836,
				"element": "C" 
			},
			{
				"x": -2.6030956268,
				"y": -0.8858248567,
				"z": -0.133986606,
				"element": "C" 
			},
			{
				"x": -1.7525339502,
				"y": -0.1866636358,
				"z": 0.9451324991,
				"element": "C" 
			},
			{
				"x": -0.3679735854,
				"y": 0.0037231093,
				"z": 0.4248250312,
				"element": "C" 
			},
			{
				"x": 0.0039578594,
				"y": 0.0063488555,
				"z": -0.8735738752,
				"element": "C" 
			},
			{
				"x": 1.4898216974,
				"y": 0.252451011,
				"z": -0.9658976207,
				"element": "C" 
			},
			{
				"x": 1.8891590564,
				"y": 0.2997890998,
				"z": 0.5340469272,
				"element": "C" 
			},
			{
				"x": 2.7695684991,
				"y": -0.8731412183,
				"z": 1.0012738279,
				"element": "C" 
			},
			{
				"x": 4.1125753375,
				"y": -0.8199623601,
				"z": 0.4212552935,
				"element": "C" 
			},
			{
				"x": 5.1731122768,
				"y": -0.7575354062,
				"z": -0.0456500956,
				"element": "N" 
			},
			{
				"x": 0.6449161235,
				"y": 0.206720282,
				"z": 1.3028393396,
				"element": "O" 
			},
			{
				"x": -2.9547513495,
				"y": -0.8195692694,
				"z": -2.2943072855,
				"element": "H" 
			},
			{
				"x": -2.8278156005,
				"y": 0.7619923724,
				"z": -1.5356486453,
				"element": "H" 
			},
			{
				"x": -2.3123791636,
				"y": -1.942409903,
				"z": -0.1765260878,
				"element": "H" 
			},
			{
				"x": -3.6590185914,
				"y": -0.860191606,
				"z": 0.1536241354,
				"element": "H" 
			},
			{
				"x": -2.1764596741,
				"y": 0.7946948166,
				"z": 1.2027354408,
				"element": "H" 
			},
			{
				"x": -1.7265905824,
				"y": -0.7659175004,
				"z": 1.874596787,
				"element": "H" 
			},
			{
				"x": 2.0181432775,
				"y": -0.539434795,
				"z": -1.5083631018,
				"element": "H" 
			},
			{
				"x": 1.719050548,
				"y": 1.1915132996,
				"z": -1.4800798542,
				"element": "H" 
			},
			{
				"x": 2.3585207272,
				"y": 1.2457875323,
				"z": 0.8150349181,
				"element": "H" 
			},
			{
				"x": 2.8499606487,
				"y": -0.8564275142,
				"z": 2.0934728127,
				"element": "H" 
			},
			{
				"x": 2.2934858554,
				"y": -1.8197511878,
				"z": 0.7202006812,
				"element": "H" 
			}
		],
		 "valence_orbital": [ 
			{
				"type": "occ",
				"energy": -0.33962,
				"method": "rhf"
			},
			{
				"type": "occ",
				"energy": -0.33301,
				"method": "rhf"
			},
			{
				"type": "occ",
				"energy": -0.33172,
				"method": "rhf"
			},
			{
				"type": "occ",
				"energy": -0.23885,
				"method": "rhf"
			},
			{
				"type": "occ",
				"energy": -0.23609,
				"method": "rhf"
			},
			{
				"type": "unocc",
				"energy": -0.04032,
				"method": "rhf"
			},
			{
				"type": "unocc",
				"energy": 0.01946,
				"method": "rhf"
			},
			{
				"type": "unocc",
				"energy": 0.02784,
				"method": "rhf"
			},
			{
				"type": "unocc",
				"energy": 0.05331,
				"method": "rhf"
			},
			{
				"type": "unocc",
				"energy": 0.07562,
				"method": "rhf"
			}
		],
		"cosmo_sigma_profile": { 
			"-0.025": 0.0,
			"-0.024": 0.0,
			"-0.023": 0.0,
			"-0.022": 0.0,
			"-0.021": 0.0,
			"-0.02": 0.0,
			"-0.019": 0.0,
			"-0.018": 0.0,
			"-0.017": 0.0,
			"-0.016": 0.0,
			"-0.015": 0.0,
			"-0.014": 0.0,
			"-0.013": 0.0,
			"-0.012": 0.0,
			"-0.011": 0.0,
			"-0.01": 0.0543537410272,
			"-0.009": 3.55006924728,
			"-0.008": 8.76845257862,
			"-0.007": 8.61898376278,
			"-0.006": 11.8521052403,
			"-0.005": 19.3070523752,
			"-0.004": 21.8794006134,
			"-0.003": 24.8322182006,
			"-0.002": 20.7217837178,
			"-0.001": 15.6694083421,
			"0.0": 10.1530424066,
			"0.001": 7.33243382698,
			"0.002": 5.16013480227,
			"0.003": 4.44256360809,
			"0.004": 4.88521446063,
			"0.005": 5.15394334894,
			"0.006": 4.51981596941,
			"0.007": 5.40635833579,
			"0.008": 5.52744679988,
			"0.009": 6.56170906783,
			"0.01": 5.08650880093,
			"0.011": 4.4936057788,
			"0.012": 4.37167796575,
			"0.013": 6.43353943922,
			"0.014": 3.89091330131,
			"0.015": 0.89085390146,
			"0.016": 0.00547067791847,
			"0.017": 0.0,
			"0.018": 0.0,
			"0.019": 0.0,
			"0.02": 0.0,
			"0.021": 0.0,
			"0.022": 0.0,
			"0.023": 0.0,
			"0.024": 0.0,
			"0.025": 0.0
		}
	}
}
