{
	 "smiles": "CCCCCCCCCCCCCCCCC1CO1", 
	 "Tm": 305.65, 
	 "num_atms": 55, 
	 "gaussian": { 
		 "optdone": 1, 
		 "sigma_profile": "yes", 
		 "theory": "DFT", 
		 "functional": "B3LYP", 
		 "basiset": "6-31G**", 
		 "properties": { 
			 "R2extent": 8609.4715, 
			 "electric_dipole_moment_norm": 2.03600078094, 
			 "electric_quadrupole_moment_norm": 9.79420448837, 
			 "total_energy": -782.839260755, 
			 "HOMO_LUMO_gap": 0.31796, 
			 "cosmo_polarized_energy": -5.43, 
			 "cosmo_cavitation_energy": 53.01, 
			 "cosmo_dispersion_energy": -32.76, 
			 "cosmo_repulsion_energy": 2.59, 
			 "cosmo_total_nonelectrostatic_energy": 22.84, 
			 "SMD_solvation_energy": 6.63 
		},
		"coords": [
			{
				"x": 3.4427875191,
				"y": -1.2587124771,
				"z": 3.1056402168,
				"element": "C" 
			},
			{
				"x": 3.4727876626,
				"y": 0.0362031887,
				"z": 2.2848926777,
				"element": "C" 
			},
			{
				"x": 2.4549540059,
				"y": 0.0778419384,
				"z": 1.130977832,
				"element": "C" 
			},
			{
				"x": 0.9706209161,
				"y": 0.0380857717,
				"z": 1.5401289789,
				"element": "C" 
			},
			{
				"x": 0.4894731523,
				"y": 1.2635974248,
				"z": 2.3319921701,
				"element": "C" 
			},
			{
				"x": -0.9995232579,
				"y": 1.2325080946,
				"z": 2.7201921491,
				"element": "C" 
			},
			{
				"x": -1.9751227863,
				"y": 1.288527488,
				"z": 1.5349110217,
				"element": "C" 
			},
			{
				"x": -3.4466749996,
				"y": 1.3370987756,
				"z": 1.9701280218,
				"element": "C" 
			},
			{
				"x": -4.4848491148,
				"y": 1.5198159156,
				"z": 0.8468087446,
				"element": "C" 
			},
			{
				"x": -4.5884328261,
				"y": 0.3716401458,
				"z": -0.1818399212,
				"element": "C" 
			},
			{
				"x": -3.6737952583,
				"y": 0.5049983793,
				"z": -1.4100059074,
				"element": "C" 
			},
			{
				"x": -3.8036764524,
				"y": -0.6714868707,
				"z": -2.387708817,
				"element": "C" 
			},
			{
				"x": -2.9231937521,
				"y": -0.558343733,
				"z": -3.6462336912,
				"element": "C" 
			},
			{
				"x": -1.4033965407,
				"y": -0.54817837,
				"z": -3.4009253414,
				"element": "C" 
			},
			{
				"x": -0.8399040421,
				"y": -1.8547469485,
				"z": -2.8241664653,
				"element": "C" 
			},
			{
				"x": 0.6595312116,
				"y": -1.7648485925,
				"z": -2.5014454785,
				"element": "C" 
			},
			{
				"x": 1.2305356272,
				"y": -3.0706390839,
				"z": -1.9981826597,
				"element": "C" 
			},
			{
				"x": 1.2060534786,
				"y": -3.4401644214,
				"z": -0.5749638296,
				"element": "C" 
			},
			{
				"x": 2.4215568605,
				"y": -3.0013375691,
				"z": -1.1985767131,
				"element": "O" 
			},
			{
				"x": 3.5978526026,
				"y": -2.1338456907,
				"z": 2.4640444137,
				"element": "H" 
			},
			{
				"x": 4.2294704368,
				"y": -1.2610615966,
				"z": 3.8675671247,
				"element": "H" 
			},
			{
				"x": 2.4873482238,
				"y": -1.3935062249,
				"z": 3.6240718269,
				"element": "H" 
			},
			{
				"x": 3.3227888016,
				"y": 0.8955622075,
				"z": 2.9512730469,
				"element": "H" 
			},
			{
				"x": 4.4761671437,
				"y": 0.1621088065,
				"z": 1.8585685188,
				"element": "H" 
			},
			{
				"x": 2.628865635,
				"y": 0.9894291156,
				"z": 0.5421070609,
				"element": "H" 
			},
			{
				"x": 2.6567512477,
				"y": -0.7631573513,
				"z": 0.4541953826,
				"element": "H" 
			},
			{
				"x": 0.76644672,
				"y": -0.8696349397,
				"z": 2.1257412897,
				"element": "H" 
			},
			{
				"x": 0.3714699049,
				"y": -0.0559328265,
				"z": 0.6252603358,
				"element": "H" 
			},
			{
				"x": 1.0837983507,
				"y": 1.3598687466,
				"z": 3.2492197147,
				"element": "H" 
			},
			{
				"x": 0.6908952645,
				"y": 2.1716362168,
				"z": 1.744915255,
				"element": "H" 
			},
			{
				"x": -1.2070978081,
				"y": 2.0807018234,
				"z": 3.3868878625,
				"element": "H" 
			},
			{
				"x": -1.201186171,
				"y": 0.3280952918,
				"z": 3.3126308089,
				"element": "H" 
			},
			{
				"x": -1.8137290256,
				"y": 0.4178382339,
				"z": 0.8894654762,
				"element": "H" 
			},
			{
				"x": -1.746708202,
				"y": 2.1727478308,
				"z": 0.9217314157,
				"element": "H" 
			},
			{
				"x": -3.5709314555,
				"y": 2.1612314677,
				"z": 2.6865758092,
				"element": "H" 
			},
			{
				"x": -3.6852793116,
				"y": 0.4192296149,
				"z": 2.5269312167,
				"element": "H" 
			},
			{
				"x": -4.2896016741,
				"y": 2.4641116671,
				"z": 0.3187023502,
				"element": "H" 
			},
			{
				"x": -5.4633350215,
				"y": 1.6462714744,
				"z": 1.3269679315,
				"element": "H" 
			},
			{
				"x": -4.3893803539,
				"y": -0.5857805791,
				"z": 0.3215293199,
				"element": "H" 
			},
			{
				"x": -5.6250439441,
				"y": 0.3068231798,
				"z": -0.5387771814,
				"element": "H" 
			},
			{
				"x": -2.6323573626,
				"y": 0.6045828002,
				"z": -1.0866143864,
				"element": "H" 
			},
			{
				"x": -3.9157728568,
				"y": 1.44017588,
				"z": -1.9356370635,
				"element": "H" 
			},
			{
				"x": -3.5804353822,
				"y": -1.6076321837,
				"z": -1.8581253241,
				"element": "H" 
			},
			{
				"x": -4.8520565544,
				"y": -0.7556228781,
				"z": -2.7049427023,
				"element": "H" 
			},
			{
				"x": -3.1956625675,
				"y": 0.3601207051,
				"z": -4.1835952256,
				"element": "H" 
			},
			{
				"x": -3.1667475638,
				"y": -1.3878503944,
				"z": -4.3242277579,
				"element": "H" 
			},
			{
				"x": -1.1405916621,
				"y": 0.2832098785,
				"z": -2.7337871865,
				"element": "H" 
			},
			{
				"x": -0.8961889324,
				"y": -0.3359958195,
				"z": -4.3516337947,
				"element": "H" 
			},
			{
				"x": -1.3791881257,
				"y": -2.1278667832,
				"z": -1.9084211654,
				"element": "H" 
			},
			{
				"x": -1.0197091184,
				"y": -2.6717742201,
				"z": -3.5374956866,
				"element": "H" 
			},
			{
				"x": 1.2171995258,
				"y": -1.4517377274,
				"z": -3.3945351104,
				"element": "H" 
			},
			{
				"x": 0.833684472,
				"y": -0.9955049729,
				"z": -1.7395743648,
				"element": "H" 
			},
			{
				"x": 1.2405151817,
				"y": -3.8882873248,
				"z": -2.7237857981,
				"element": "H" 
			},
			{
				"x": 1.1830100172,
				"y": -4.4904900683,
				"z": -0.2837379562,
				"element": "H" 
			},
			{
				"x": 0.7801081617,
				"y": -2.747922416,
				"z": 0.1512815546,
				"element": "H" 
			}
		],
		 "valence_orbital": [ 
			{
				"type": "occ",
				"energy": -0.30106,
				"method": "rhf"
			},
			{
				"type": "occ",
				"energy": -0.29652,
				"method": "rhf"
			},
			{
				"type": "occ",
				"energy": -0.29581,
				"method": "rhf"
			},
			{
				"type": "occ",
				"energy": -0.29231,
				"method": "rhf"
			},
			{
				"type": "occ",
				"energy": -0.2615,
				"method": "rhf"
			},
			{
				"type": "unocc",
				"energy": 0.05646,
				"method": "rhf"
			},
			{
				"type": "unocc",
				"energy": 0.08422,
				"method": "rhf"
			},
			{
				"type": "unocc",
				"energy": 0.09058,
				"method": "rhf"
			},
			{
				"type": "unocc",
				"energy": 0.09704,
				"method": "rhf"
			},
			{
				"type": "unocc",
				"energy": 0.10177,
				"method": "rhf"
			}
		],
		"cosmo_sigma_profile": { 
			"-0.025": 0.0,
			"-0.024": 0.0,
			"-0.023": 0.0,
			"-0.022": 0.0,
			"-0.021": 0.0,
			"-0.02": 0.0,
			"-0.019": 0.0,
			"-0.018": 0.0,
			"-0.017": 0.0,
			"-0.016": 0.0,
			"-0.015": 0.0,
			"-0.014": 0.0,
			"-0.013": 0.0,
			"-0.012": 0.0,
			"-0.011": 0.0,
			"-0.01": 0.0,
			"-0.009": 0.0,
			"-0.008": 0.0,
			"-0.007": 0.00277065472999,
			"-0.006": 1.80804668414,
			"-0.005": 4.54400992823,
			"-0.004": 7.24570583761,
			"-0.003": 14.9639324672,
			"-0.002": 59.7741877536,
			"-0.001": 89.3207858798,
			"0.0": 96.4578760717,
			"0.001": 77.6237248389,
			"0.002": 30.7325857166,
			"0.003": 3.50947671946,
			"0.004": 2.43696867765,
			"0.005": 2.08428008166,
			"0.006": 2.17488570131,
			"0.007": 1.87106322485,
			"0.008": 1.57215783381,
			"0.009": 1.69057106616,
			"0.01": 1.91994410436,
			"0.011": 2.38276394079,
			"0.012": 2.48380443785,
			"0.013": 1.13852829475,
			"0.014": 0.0318388459538,
			"0.015": 0.0,
			"0.016": 0.0,
			"0.017": 0.0,
			"0.018": 0.0,
			"0.019": 0.0,
			"0.02": 0.0,
			"0.021": 0.0,
			"0.022": 0.0,
			"0.023": 0.0,
			"0.024": 0.0,
			"0.025": 0.0
		}
	}
}
