{
	 "smiles": "CCC1=CSC=C1", 
	 "Tm": 184.05, 
	 "num_atms": 15, 
	 "gaussian": { 
		 "optdone": 1, 
		 "sigma_profile": "yes", 
		 "theory": "DFT", 
		 "functional": "B3LYP", 
		 "basiset": "6-31G**", 
		 "properties": { 
			 "R2extent": 1481.6049, 
			 "electric_dipole_moment_norm": 0.951435615268, 
			 "electric_quadrupole_moment_norm": 6.13050250632, 
			 "total_energy": -631.639167855, 
			 "HOMO_LUMO_gap": 0.22274, 
			 "cosmo_polarized_energy": -3.34, 
			 "cosmo_cavitation_energy": 19.63, 
			 "cosmo_dispersion_energy": -15.11, 
			 "cosmo_repulsion_energy": 1.23, 
			 "cosmo_total_nonelectrostatic_energy": 5.75, 
			 "SMD_solvation_energy": 3.65 
		},
		"coords": [
			{
				"x": -1.362467687,
				"y": -0.6701472679,
				"z": 0.7944776091,
				"element": "C" 
			},
			{
				"x": -1.2839495765,
				"y": -0.7571960356,
				"z": -0.7395767764,
				"element": "C" 
			},
			{
				"x": 0.0580658804,
				"y": -0.3434219499,
				"z": -1.2937447683,
				"element": "C" 
			},
			{
				"x": 0.9671640828,
				"y": -1.2018884327,
				"z": -1.8545098315,
				"element": "C" 
			},
			{
				"x": 2.4152914622,
				"y": -0.3918822486,
				"z": -2.3650683734,
				"element": "S" 
			},
			{
				"x": 1.7987353609,
				"y": 1.1353994345,
				"z": -1.8194991055,
				"element": "C" 
			},
			{
				"x": 0.551165983,
				"y": 1.0061418742,
				"z": -1.2791458823,
				"element": "C" 
			},
			{
				"x": -2.354245016,
				"y": -0.965919573,
				"z": 1.1524169917,
				"element": "H" 
			},
			{
				"x": -1.1692270702,
				"y": 0.3490216661,
				"z": 1.1448810793,
				"element": "H" 
			},
			{
				"x": -0.6209645809,
				"y": -1.3263335451,
				"z": 1.2608903645,
				"element": "H" 
			},
			{
				"x": -2.0675537286,
				"y": -0.1237378509,
				"z": -1.1759398023,
				"element": "H" 
			},
			{
				"x": -1.50589179,
				"y": -1.7818544334,
				"z": -1.0582075422,
				"element": "H" 
			},
			{
				"x": 0.8674104938,
				"y": -2.2692384972,
				"z": -1.9992035584,
				"element": "H" 
			},
			{
				"x": 2.3907162743,
				"y": 2.0326245397,
				"z": -1.9355029116,
				"element": "H" 
			},
			{
				"x": -0.0132500881,
				"y": 1.8443323199,
				"z": -0.8837674926,
				"element": "H" 
			}
		],
		 "valence_orbital": [ 
			{
				"type": "occ",
				"energy": -0.35365,
				"method": "rhf"
			},
			{
				"type": "occ",
				"energy": -0.33869,
				"method": "rhf"
			},
			{
				"type": "occ",
				"energy": -0.32815,
				"method": "rhf"
			},
			{
				"type": "occ",
				"energy": -0.24032,
				"method": "rhf"
			},
			{
				"type": "occ",
				"energy": -0.22702,
				"method": "rhf"
			},
			{
				"type": "unocc",
				"energy": -0.00428,
				"method": "rhf"
			},
			{
				"type": "unocc",
				"energy": 0.03747,
				"method": "rhf"
			},
			{
				"type": "unocc",
				"energy": 0.06595,
				"method": "rhf"
			},
			{
				"type": "unocc",
				"energy": 0.09829,
				"method": "rhf"
			},
			{
				"type": "unocc",
				"energy": 0.11177,
				"method": "rhf"
			}
		],
		"cosmo_sigma_profile": { 
			"-0.025": 0.0,
			"-0.024": 0.0,
			"-0.023": 0.0,
			"-0.022": 0.0,
			"-0.021": 0.0,
			"-0.02": 0.0,
			"-0.019": 0.0,
			"-0.018": 0.0,
			"-0.017": 0.0,
			"-0.016": 0.0,
			"-0.015": 0.0,
			"-0.014": 0.0,
			"-0.013": 0.0,
			"-0.012": 0.0,
			"-0.011": 0.0,
			"-0.01": 0.0,
			"-0.009": 0.0,
			"-0.008": 1.6407343064,
			"-0.007": 3.81819470793,
			"-0.006": 4.9255983294,
			"-0.005": 5.67742547773,
			"-0.004": 8.43400701209,
			"-0.003": 15.8905702899,
			"-0.002": 15.2884480041,
			"-0.001": 16.9108569522,
			"0.0": 17.0214017456,
			"0.001": 15.8319017594,
			"0.002": 10.6029804665,
			"0.003": 9.66668945376,
			"0.004": 8.82530636712,
			"0.005": 14.1784486781,
			"0.006": 8.12865186859,
			"0.007": 0.749697424259,
			"0.008": 0.0,
			"0.009": 0.0,
			"0.01": 0.0,
			"0.011": 0.0,
			"0.012": 0.0,
			"0.013": 0.0,
			"0.014": 0.0,
			"0.015": 0.0,
			"0.016": 0.0,
			"0.017": 0.0,
			"0.018": 0.0,
			"0.019": 0.0,
			"0.02": 0.0,
			"0.021": 0.0,
			"0.022": 0.0,
			"0.023": 0.0,
			"0.024": 0.0,
			"0.025": 0.0
		}
	}
}
