{
	 "smiles": "CC1=NC2=C(C=CC=C2)C(=O)N1C1=CC=C(C=C1)C(O)=O", 
	 "Tm": 494.15, 
	 "num_atms": 33, 
	 "gaussian": { 
		 "optdone": 1, 
		 "sigma_profile": "yes", 
		 "theory": "DFT", 
		 "functional": "B3LYP", 
		 "basiset": "6-31G**", 
		 "properties": { 
			 "R2extent": 7763.5247, 
			 "electric_dipole_moment_norm": 2.28519042751, 
			 "electric_quadrupole_moment_norm": 14.9197423088, 
			 "total_energy": -952.160226483, 
			 "HOMO_LUMO_gap": 0.16725, 
			 "cosmo_polarized_energy": -17.85, 
			 "cosmo_cavitation_energy": 38.24, 
			 "cosmo_dispersion_energy": -27.08, 
			 "cosmo_repulsion_energy": 2.04, 
			 "cosmo_total_nonelectrostatic_energy": 13.2, 
			 "SMD_solvation_energy": 6.99 
		},
		"coords": [
			{
				"x": -1.5715475444,
				"y": -1.2791037711,
				"z": -2.1041964967,
				"element": "C" 
			},
			{
				"x": -1.2075626548,
				"y": 0.1290279761,
				"z": -1.7185403078,
				"element": "C" 
			},
			{
				"x": -1.5722603062,
				"y": 1.100717848,
				"z": -2.4925832492,
				"element": "N" 
			},
			{
				"x": -1.2376234631,
				"y": 2.3977194099,
				"z": -2.133324221,
				"element": "C" 
			},
			{
				"x": -0.5191315195,
				"y": 2.6938804818,
				"z": -0.9548064712,
				"element": "C" 
			},
			{
				"x": -0.2012469871,
				"y": 4.0219540259,
				"z": -0.6262466807,
				"element": "C" 
			},
			{
				"x": -0.5948175265,
				"y": 5.053048465,
				"z": -1.4650486745,
				"element": "C" 
			},
			{
				"x": -1.3111176533,
				"y": 4.7649407563,
				"z": -2.6415180602,
				"element": "C" 
			},
			{
				"x": -1.6302370342,
				"y": 3.4574715448,
				"z": -2.9746792896,
				"element": "C" 
			},
			{
				"x": -0.1041424757,
				"y": 1.6028281207,
				"z": -0.071228463,
				"element": "C" 
			},
			{
				"x": 0.5170763268,
				"y": 1.7271404516,
				"z": 0.9738620299,
				"element": "O" 
			},
			{
				"x": -0.4915286123,
				"y": 0.3149717246,
				"z": -0.5336989026,
				"element": "N" 
			},
			{
				"x": -0.104319265,
				"y": -0.8029632109,
				"z": 0.2935737332,
				"element": "C" 
			},
			{
				"x": 1.1058187349,
				"y": -1.4578815939,
				"z": 0.051673749,
				"element": "C" 
			},
			{
				"x": 1.473840012,
				"y": -2.5388496038,
				"z": 0.845998429,
				"element": "C" 
			},
			{
				"x": 0.6382813455,
				"y": -2.9637662465,
				"z": 1.8870671363,
				"element": "C" 
			},
			{
				"x": -0.5680699616,
				"y": -2.2942832657,
				"z": 2.1325469902,
				"element": "C" 
			},
			{
				"x": -0.9375343086,
				"y": -1.2132944502,
				"z": 1.336329706,
				"element": "C" 
			},
			{
				"x": 1.0808441117,
				"y": -4.1269987419,
				"z": 2.7033847573,
				"element": "C" 
			},
			{
				"x": 0.2052922234,
				"y": -4.4476447217,
				"z": 3.6875387811,
				"element": "O" 
			},
			{
				"x": 2.1123615471,
				"y": -4.7437980946,
				"z": 2.5270694538,
				"element": "O" 
			},
			{
				"x": -0.6816384964,
				"y": -1.9004437135,
				"z": -2.2456294491,
				"element": "H" 
			},
			{
				"x": -2.1805259299,
				"y": -1.7617500801,
				"z": -1.3332696394,
				"element": "H" 
			},
			{
				"x": -2.1336932292,
				"y": -1.2350761278,
				"z": -3.0361970985,
				"element": "H" 
			},
			{
				"x": 0.3520788306,
				"y": 4.2070077618,
				"z": 0.2884450775,
				"element": "H" 
			},
			{
				"x": -0.3517313561,
				"y": 6.0815838452,
				"z": -1.2165295884,
				"element": "H" 
			},
			{
				"x": -1.6175574788,
				"y": 5.5761607847,
				"z": -3.2959746609,
				"element": "H" 
			},
			{
				"x": -2.1820171485,
				"y": 3.2165269362,
				"z": -3.8772572323,
				"element": "H" 
			},
			{
				"x": 1.7507458832,
				"y": -1.1127266826,
				"z": -0.7499791989,
				"element": "H" 
			},
			{
				"x": 2.4067115142,
				"y": -3.0659855968,
				"z": 0.6788821859,
				"element": "H" 
			},
			{
				"x": -1.2082212533,
				"y": -2.6198061294,
				"z": 2.9441155378,
				"element": "H" 
			},
			{
				"x": -1.8644127846,
				"y": -0.6803195207,
				"z": 1.5215755967,
				"element": "H" 
			},
			{
				"x": 0.5937864597,
				"y": -5.2076885813,
				"z": 4.1510445203,
				"element": "H" 
			}
		],
		 "valence_orbital": [ 
			{
				"type": "occ",
				"energy": -0.2746,
				"method": "rhf"
			},
			{
				"type": "occ",
				"energy": -0.26552,
				"method": "rhf"
			},
			{
				"type": "occ",
				"energy": -0.2623,
				"method": "rhf"
			},
			{
				"type": "occ",
				"energy": -0.25974,
				"method": "rhf"
			},
			{
				"type": "occ",
				"energy": -0.22866,
				"method": "rhf"
			},
			{
				"type": "unocc",
				"energy": -0.06141,
				"method": "rhf"
			},
			{
				"type": "unocc",
				"energy": -0.04204,
				"method": "rhf"
			},
			{
				"type": "unocc",
				"energy": -0.03441,
				"method": "rhf"
			},
			{
				"type": "unocc",
				"energy": -0.02429,
				"method": "rhf"
			},
			{
				"type": "unocc",
				"energy": 0.03024,
				"method": "rhf"
			}
		],
		"cosmo_sigma_profile": { 
			"-0.025": 0.0,
			"-0.024": 0.0,
			"-0.023": 0.0,
			"-0.022": 0.0,
			"-0.021": 0.0,
			"-0.02": 0.0,
			"-0.019": 0.0969555642659,
			"-0.018": 0.814286561341,
			"-0.017": 1.08748587214,
			"-0.016": 0.540997992318,
			"-0.015": 1.01287499866,
			"-0.014": 0.723670951738,
			"-0.013": 0.777297371831,
			"-0.012": 0.80413496355,
			"-0.011": 0.554850855159,
			"-0.01": 0.767724451643,
			"-0.009": 0.255754466148,
			"-0.008": 2.9915640379,
			"-0.007": 9.82008125278,
			"-0.006": 21.7047584355,
			"-0.005": 23.1150872527,
			"-0.004": 23.4259107692,
			"-0.003": 20.1816640459,
			"-0.002": 23.3844036147,
			"-0.001": 20.7252107312,
			"0.0": 21.3985149578,
			"0.001": 22.0051534622,
			"0.002": 23.9428903406,
			"0.003": 19.8046832018,
			"0.004": 13.1707845599,
			"0.005": 7.24128023533,
			"0.006": 6.66687352118,
			"0.007": 5.16816282304,
			"0.008": 5.44823625287,
			"0.009": 4.05266985691,
			"0.01": 4.89596156259,
			"0.011": 8.00391799871,
			"0.012": 7.42258066747,
			"0.013": 3.97643187146,
			"0.014": 0.797006501774,
			"0.015": 0.169960711757,
			"0.016": 0.0,
			"0.017": 0.0,
			"0.018": 0.0,
			"0.019": 0.0,
			"0.02": 0.0,
			"0.021": 0.0,
			"0.022": 0.0,
			"0.023": 0.0,
			"0.024": 0.0,
			"0.025": 0.0
		}
	}
}
