{
	 "smiles": "COC1=CC(C(C)N)=C(O)C=C1", 
	 "Tm": 397.15, 
	 "num_atms": 25, 
	 "gaussian": { 
		 "optdone": 1, 
		 "sigma_profile": "yes", 
		 "theory": "DFT", 
		 "functional": "B3LYP", 
		 "basiset": "6-31G**", 
		 "properties": { 
			 "R2extent": 2512.3436, 
			 "electric_dipole_moment_norm": 1.76416446512, 
			 "electric_quadrupole_moment_norm": 8.86489977383, 
			 "total_energy": -555.969861207, 
			 "HOMO_LUMO_gap": 0.19529, 
			 "cosmo_polarized_energy": -14.5, 
			 "cosmo_cavitation_energy": 27.62, 
			 "cosmo_dispersion_energy": -20.29, 
			 "cosmo_repulsion_energy": 1.64, 
			 "cosmo_total_nonelectrostatic_energy": 8.98, 
			 "SMD_solvation_energy": 5.08 
		},
		"coords": [
			{
				"x": 1.7228161241,
				"y": 1.9783924648,
				"z": 3.4828141702,
				"element": "C" 
			},
			{
				"x": 0.7934016318,
				"y": 1.0667258966,
				"z": 2.9274303958,
				"element": "O" 
			},
			{
				"x": 0.816683263,
				"y": 0.8798396714,
				"z": 1.5691217595,
				"element": "C" 
			},
			{
				"x": -0.1205663236,
				"y": -0.0320077318,
				"z": 1.063128973,
				"element": "C" 
			},
			{
				"x": -0.2215949691,
				"y": -0.3280729587,
				"z": -0.2948740483,
				"element": "C" 
			},
			{
				"x": -1.2590100813,
				"y": -1.3485630152,
				"z": -0.7488373574,
				"element": "C" 
			},
			{
				"x": -2.2488817346,
				"y": -0.7988582292,
				"z": -1.7861323812,
				"element": "C" 
			},
			{
				"x": -0.5808202855,
				"y": -2.5310538642,
				"z": -1.3056039301,
				"element": "N" 
			},
			{
				"x": 0.6674934577,
				"y": 0.3240974645,
				"z": -1.1799004176,
				"element": "C" 
			},
			{
				"x": 0.5804478167,
				"y": 0.0570063167,
				"z": -2.5210835707,
				"element": "O" 
			},
			{
				"x": 1.6013834885,
				"y": 1.2302592217,
				"z": -0.680212501,
				"element": "C" 
			},
			{
				"x": 1.688064828,
				"y": 1.5164197245,
				"z": 0.686713055,
				"element": "C" 
			},
			{
				"x": 1.5807051658,
				"y": 2.9951248935,
				"z": 3.0916116776,
				"element": "H" 
			},
			{
				"x": 2.7601301843,
				"y": 1.6687723736,
				"z": 3.2953377238,
				"element": "H" 
			},
			{
				"x": 1.54072304,
				"y": 1.981777054,
				"z": 4.5589843438,
				"element": "H" 
			},
			{
				"x": -0.7863139324,
				"y": -0.5171915154,
				"z": 1.7711941276,
				"element": "H" 
			},
			{
				"x": -1.8473387363,
				"y": -1.5939160722,
				"z": 0.1538952056,
				"element": "H" 
			},
			{
				"x": -1.7324893616,
				"y": -0.5363209957,
				"z": -2.7100520229,
				"element": "H" 
			},
			{
				"x": -3.0113905639,
				"y": -1.5538783564,
				"z": -2.0129470915,
				"element": "H" 
			},
			{
				"x": -2.7609260452,
				"y": 0.0863974115,
				"z": -1.396910654,
				"element": "H" 
			},
			{
				"x": -1.2769764534,
				"y": -3.2270602797,
				"z": -1.5651461254,
				"element": "H" 
			},
			{
				"x": 0.0053723683,
				"y": -2.9562502362,
				"z": -0.5909753762,
				"element": "H" 
			},
			{
				"x": 1.2480614634,
				"y": 0.5800260144,
				"z": -2.9827591943,
				"element": "H" 
			},
			{
				"x": 2.2798492072,
				"y": 1.729764059,
				"z": -1.3697867308,
				"element": "H" 
			},
			{
				"x": 2.428976448,
				"y": 2.2269706886,
				"z": 1.0330899697,
				"element": "H" 
			}
		],
		 "valence_orbital": [ 
			{
				"type": "occ",
				"energy": -0.31497,
				"method": "rhf"
			},
			{
				"type": "occ",
				"energy": -0.28749,
				"method": "rhf"
			},
			{
				"type": "occ",
				"energy": -0.2426,
				"method": "rhf"
			},
			{
				"type": "occ",
				"energy": -0.22185,
				"method": "rhf"
			},
			{
				"type": "occ",
				"energy": -0.19302,
				"method": "rhf"
			},
			{
				"type": "unocc",
				"energy": 0.00227,
				"method": "rhf"
			},
			{
				"type": "unocc",
				"energy": 0.02928,
				"method": "rhf"
			},
			{
				"type": "unocc",
				"energy": 0.07583,
				"method": "rhf"
			},
			{
				"type": "unocc",
				"energy": 0.09408,
				"method": "rhf"
			},
			{
				"type": "unocc",
				"energy": 0.09724,
				"method": "rhf"
			}
		],
		"cosmo_sigma_profile": { 
			"-0.025": 0.0,
			"-0.024": 0.0,
			"-0.023": 0.0,
			"-0.022": 0.0,
			"-0.021": 0.0,
			"-0.02": 0.0,
			"-0.019": 0.0,
			"-0.018": 0.0108236592879,
			"-0.017": 0.826898809543,
			"-0.016": 1.12472857947,
			"-0.015": 0.715138145075,
			"-0.014": 1.56156939415,
			"-0.013": 0.68646848491,
			"-0.012": 1.22536790033,
			"-0.011": 0.221236294379,
			"-0.01": 1.15821691496,
			"-0.009": 3.97020112029,
			"-0.008": 3.43087289772,
			"-0.007": 4.4105170415,
			"-0.006": 7.4969858509,
			"-0.005": 15.6857531851,
			"-0.004": 17.8865225819,
			"-0.003": 19.7610991242,
			"-0.002": 18.1860892472,
			"-0.001": 14.1972664769,
			"0.0": 12.4240739527,
			"0.001": 11.8148045507,
			"0.002": 11.6883428489,
			"0.003": 9.26941733011,
			"0.004": 10.8910913139,
			"0.005": 13.9166252261,
			"0.006": 11.149603917,
			"0.007": 4.45136564384,
			"0.008": 2.63886184142,
			"0.009": 2.43573957155,
			"0.01": 2.45837093589,
			"0.011": 2.46677046728,
			"0.012": 0.960775634077,
			"0.013": 1.06359787836,
			"0.014": 0.770552406449,
			"0.015": 1.07757587681,
			"0.016": 0.496438035261,
			"0.017": 0.75570590611,
			"0.018": 0.900551388733,
			"0.019": 1.10567462112,
			"0.02": 0.430411116621,
			"0.021": 0.593563550081,
			"0.022": 0.0128181192583,
			"0.023": 0.0,
			"0.024": 0.0,
			"0.025": 0.0
		}
	}
}
