{
	 "smiles": "O=C(CCC(=O)OC1=CC=CC=C1)OC1=CC=CC=C1", 
	 "Tm": 394.15, 
	 "num_atms": 34, 
	 "gaussian": { 
		 "optdone": 1, 
		 "sigma_profile": "yes", 
		 "theory": "DFT", 
		 "functional": "B3LYP", 
		 "basiset": "6-31G**", 
		 "properties": { 
			 "R2extent": 12380.7551, 
			 "electric_dipole_moment_norm": 0.748763474002, 
			 "electric_quadrupole_moment_norm": 18.5836703108, 
			 "total_energy": -919.05355397, 
			 "HOMO_LUMO_gap": 0.22576, 
			 "cosmo_polarized_energy": -12.49, 
			 "cosmo_cavitation_energy": 40.08, 
			 "cosmo_dispersion_energy": -28.93, 
			 "cosmo_repulsion_energy": 2.24, 
			 "cosmo_total_nonelectrostatic_energy": 13.39, 
			 "SMD_solvation_energy": 8.57 
		},
		"coords": [
			{
				"x": 0.3622518938,
				"y": 0.2605708884,
				"z": 3.1569126083,
				"element": "O" 
			},
			{
				"x": -0.6021631727,
				"y": -0.1038611298,
				"z": 2.5270687789,
				"element": "C" 
			},
			{
				"x": -0.9814363065,
				"y": 0.3701095059,
				"z": 1.1403370732,
				"element": "C" 
			},
			{
				"x": 0.1536453203,
				"y": 1.1342590043,
				"z": 0.4649480614,
				"element": "C" 
			},
			{
				"x": -0.3194736476,
				"y": 1.8992918962,
				"z": -0.7525755285,
				"element": "C" 
			},
			{
				"x": -1.4716683342,
				"y": 2.1107166498,
				"z": -1.0480918626,
				"element": "O" 
			},
			{
				"x": 0.7609797895,
				"y": 2.3391466802,
				"z": -1.4622882382,
				"element": "O" 
			},
			{
				"x": 0.6126793771,
				"y": 3.1300671448,
				"z": -2.606388427,
				"element": "C" 
			},
			{
				"x": 1.5061222916,
				"y": 4.1938205695,
				"z": -2.7218575191,
				"element": "C" 
			},
			{
				"x": 1.4786190187,
				"y": 4.9888829605,
				"z": -3.8673794962,
				"element": "C" 
			},
			{
				"x": 0.5623664729,
				"y": 4.7201763418,
				"z": -4.8861135164,
				"element": "C" 
			},
			{
				"x": -0.323048572,
				"y": 3.648700177,
				"z": -4.7551325978,
				"element": "C" 
			},
			{
				"x": -0.305237042,
				"y": 2.8413344956,
				"z": -3.6163235199,
				"element": "C" 
			},
			{
				"x": -1.530560733,
				"y": -1.0006052656,
				"z": 2.9726234001,
				"element": "O" 
			},
			{
				"x": -1.4403932155,
				"y": -1.5762327852,
				"z": 4.2440332726,
				"element": "C" 
			},
			{
				"x": -1.7407400553,
				"y": -2.9357519881,
				"z": 4.3113485973,
				"element": "C" 
			},
			{
				"x": -1.7495155236,
				"y": -3.5738805056,
				"z": 5.5514550271,
				"element": "C" 
			},
			{
				"x": -1.4578390572,
				"y": -2.855180771,
				"z": 6.7124142509,
				"element": "C" 
			},
			{
				"x": -1.1621737442,
				"y": -1.4933546639,
				"z": 6.6268525958,
				"element": "C" 
			},
			{
				"x": -1.1531768149,
				"y": -0.8397386414,
				"z": 5.3933791653,
				"element": "C" 
			},
			{
				"x": -1.3060620558,
				"y": -0.4889530134,
				"z": 0.5454049345,
				"element": "H" 
			},
			{
				"x": -1.8654380448,
				"y": 1.0125808125,
				"z": 1.2293294976,
				"element": "H" 
			},
			{
				"x": 0.5951384965,
				"y": 1.8499763288,
				"z": 1.1682239428,
				"element": "H" 
			},
			{
				"x": 0.9743240434,
				"y": 0.4721174771,
				"z": 0.1722980764,
				"element": "H" 
			},
			{
				"x": 2.210867994,
				"y": 4.3804353056,
				"z": -1.9182906245,
				"element": "H" 
			},
			{
				"x": 2.1740726426,
				"y": 5.8176922995,
				"z": -3.9609022889,
				"element": "H" 
			},
			{
				"x": 0.5393620341,
				"y": 5.3404257137,
				"z": -5.7769752413,
				"element": "H" 
			},
			{
				"x": -1.0369271074,
				"y": 3.4335363174,
				"z": -5.5448174596,
				"element": "H" 
			},
			{
				"x": -0.9952939262,
				"y": 2.0149125339,
				"z": -3.5101562715,
				"element": "H" 
			},
			{
				"x": -1.9677847016,
				"y": -3.4718985044,
				"z": 3.3958022501,
				"element": "H" 
			},
			{
				"x": -1.9844685837,
				"y": -4.6326584022,
				"z": 5.6073289176,
				"element": "H" 
			},
			{
				"x": -1.4624932907,
				"y": -3.3522830379,
				"z": 7.6776713152,
				"element": "H" 
			},
			{
				"x": -0.9362702249,
				"y": -0.9283717726,
				"z": 7.5264397591,
				"element": "H" 
			},
			{
				"x": -0.9174652206,
				"y": 0.2140173787,
				"z": 5.3249210673,
				"element": "H" 
			}
		],
		 "valence_orbital": [ 
			{
				"type": "occ",
				"energy": -0.28064,
				"method": "rhf"
			},
			{
				"type": "occ",
				"energy": -0.25544,
				"method": "rhf"
			},
			{
				"type": "occ",
				"energy": -0.25502,
				"method": "rhf"
			},
			{
				"type": "occ",
				"energy": -0.24322,
				"method": "rhf"
			},
			{
				"type": "occ",
				"energy": -0.24281,
				"method": "rhf"
			},
			{
				"type": "unocc",
				"energy": -0.01705,
				"method": "rhf"
			},
			{
				"type": "unocc",
				"energy": -0.01278,
				"method": "rhf"
			},
			{
				"type": "unocc",
				"energy": -0.00626,
				"method": "rhf"
			},
			{
				"type": "unocc",
				"energy": -0.00614,
				"method": "rhf"
			},
			{
				"type": "unocc",
				"energy": 0.01353,
				"method": "rhf"
			}
		],
		"cosmo_sigma_profile": { 
			"-0.025": 0.0,
			"-0.024": 0.0,
			"-0.023": 0.0,
			"-0.022": 0.0,
			"-0.021": 0.0,
			"-0.02": 0.0,
			"-0.019": 0.0,
			"-0.018": 0.0,
			"-0.017": 0.0,
			"-0.016": 0.0,
			"-0.015": 0.0,
			"-0.014": 0.0,
			"-0.013": 0.0,
			"-0.012": 0.0,
			"-0.011": 0.0,
			"-0.01": 0.0,
			"-0.009": 0.0,
			"-0.008": 0.108826266557,
			"-0.007": 8.11077778714,
			"-0.006": 29.6953404213,
			"-0.005": 30.2665679503,
			"-0.004": 29.1835437057,
			"-0.003": 22.3365979852,
			"-0.002": 21.089122558,
			"-0.001": 17.5588796468,
			"0.0": 17.2579594437,
			"0.001": 19.8556893186,
			"0.002": 21.284679418,
			"0.003": 23.2735652081,
			"0.004": 25.4341476595,
			"0.005": 21.6667107673,
			"0.006": 6.50325065623,
			"0.007": 5.86981357197,
			"0.008": 3.23979612877,
			"0.009": 4.11927834156,
			"0.01": 5.41527889143,
			"0.011": 7.74872727355,
			"0.012": 0.691361860207,
			"0.013": 0.0,
			"0.014": 0.0,
			"0.015": 0.0,
			"0.016": 0.0,
			"0.017": 0.0,
			"0.018": 0.0,
			"0.019": 0.0,
			"0.02": 0.0,
			"0.021": 0.0,
			"0.022": 0.0,
			"0.023": 0.0,
			"0.024": 0.0,
			"0.025": 0.0
		}
	}
}
