{
	 "smiles": "CCOC(=O)C1=C(N)SC2=C1CCN(C2)C(C)C", 
	 "Tm": 355.15, 
	 "num_atms": 38, 
	 "gaussian": { 
		 "optdone": 1, 
		 "sigma_profile": "yes", 
		 "theory": "DFT", 
		 "functional": "B3LYP", 
		 "basiset": "6-31G**", 
		 "properties": { 
			 "R2extent": 6734.2793, 
			 "electric_dipole_moment_norm": 1.3273460212, 
			 "electric_quadrupole_moment_norm": 9.6951086389, 
			 "total_energy": -1165.59259295, 
			 "HOMO_LUMO_gap": 0.17351, 
			 "cosmo_polarized_energy": -10.74, 
			 "cosmo_cavitation_energy": 39.97, 
			 "cosmo_dispersion_energy": -29.04, 
			 "cosmo_repulsion_energy": 2.22, 
			 "cosmo_total_nonelectrostatic_energy": 13.15, 
			 "SMD_solvation_energy": 4.91 
		},
		"coords": [
			{
				"x": -0.2066949094,
				"y": -3.7801290081,
				"z": -3.2331933977,
				"element": "C" 
			},
			{
				"x": 0.1031492908,
				"y": -2.4277000855,
				"z": -3.8476263734,
				"element": "C" 
			},
			{
				"x": 0.2903647266,
				"y": -1.4922362793,
				"z": -2.7644969255,
				"element": "O" 
			},
			{
				"x": 0.5619243556,
				"y": -0.2149610395,
				"z": -3.1275372744,
				"element": "C" 
			},
			{
				"x": 0.6437992357,
				"y": 0.1105206854,
				"z": -4.3135943682,
				"element": "O" 
			},
			{
				"x": 0.7364411103,
				"y": 0.6967508255,
				"z": -2.0054387912,
				"element": "C" 
			},
			{
				"x": 0.98520894,
				"y": 2.047030425,
				"z": -2.26144746,
				"element": "C" 
			},
			{
				"x": 1.0247131643,
				"y": 2.6615424844,
				"z": -3.4732746937,
				"element": "N" 
			},
			{
				"x": 1.1742724583,
				"y": 2.9582985015,
				"z": -0.7791952733,
				"element": "S" 
			},
			{
				"x": 0.9287795061,
				"y": 1.5047937186,
				"z": 0.1900729931,
				"element": "C" 
			},
			{
				"x": 0.7168737659,
				"y": 0.4067444951,
				"z": -0.5802897342,
				"element": "C" 
			},
			{
				"x": 0.510829332,
				"y": -0.9302172032,
				"z": 0.0875413912,
				"element": "C" 
			},
			{
				"x": 0.9689129781,
				"y": -0.8736451597,
				"z": 1.5512888325,
				"element": "C" 
			},
			{
				"x": 0.4024942252,
				"y": 0.2967796967,
				"z": 2.2237079467,
				"element": "N" 
			},
			{
				"x": 0.9612823095,
				"y": 1.5380778849,
				"z": 1.6922021706,
				"element": "C" 
			},
			{
				"x": 0.3900330814,
				"y": 0.2551966487,
				"z": 3.6981566961,
				"element": "C" 
			},
			{
				"x": -0.6804445051,
				"y": -0.7217501354,
				"z": 4.203192249,
				"element": "C" 
			},
			{
				"x": 1.7566293907,
				"y": -0.0245099382,
				"z": 4.3567992631,
				"element": "C" 
			},
			{
				"x": -0.3631271202,
				"y": -4.5201588053,
				"z": -4.0243891345,
				"element": "H" 
			},
			{
				"x": 0.6180139044,
				"y": -4.1228536128,
				"z": -2.601333061,
				"element": "H" 
			},
			{
				"x": -1.1124837764,
				"y": -3.7337065398,
				"z": -2.6217456041,
				"element": "H" 
			},
			{
				"x": 1.0110256611,
				"y": -2.4534568868,
				"z": -4.4588610175,
				"element": "H" 
			},
			{
				"x": -0.7105891369,
				"y": -2.0726742026,
				"z": -4.4878501487,
				"element": "H" 
			},
			{
				"x": 1.500124512,
				"y": 3.5450948795,
				"z": -3.565303356,
				"element": "H" 
			},
			{
				"x": 1.0244406454,
				"y": 2.0152959275,
				"z": -4.2586564639,
				"element": "H" 
			},
			{
				"x": 1.0641607729,
				"y": -1.7107882827,
				"z": -0.441999598,
				"element": "H" 
			},
			{
				"x": -0.5484461735,
				"y": -1.2120561664,
				"z": 0.0372593844,
				"element": "H" 
			},
			{
				"x": 0.6336638834,
				"y": -1.7768512101,
				"z": 2.0681597737,
				"element": "H" 
			},
			{
				"x": 2.0753031238,
				"y": -0.876374798,
				"z": 1.58148298,
				"element": "H" 
			},
			{
				"x": 0.3583407377,
				"y": 2.3755577522,
				"z": 2.0691695288,
				"element": "H" 
			},
			{
				"x": 2.0009341355,
				"y": 1.7235637271,
				"z": 2.035416466,
				"element": "H" 
			},
			{
				"x": 0.0747298941,
				"y": 1.2612076834,
				"z": 4.0065888076,
				"element": "H" 
			},
			{
				"x": -1.6431773166,
				"y": -0.5074614418,
				"z": 3.7315676025,
				"element": "H" 
			},
			{
				"x": -0.7937208939,
				"y": -0.6348834458,
				"z": 5.288922579,
				"element": "H" 
			},
			{
				"x": -0.4187118286,
				"y": -1.7634564048,
				"z": 3.9877988619,
				"element": "H" 
			},
			{
				"x": 2.0987544257,
				"y": -1.0442939497,
				"z": 4.1501762733,
				"element": "H" 
			},
			{
				"x": 1.6852926779,
				"y": 0.084980636,
				"z": 5.4440734568,
				"element": "H" 
			},
			{
				"x": 2.5283034164,
				"y": 0.667728624,
				"z": 4.004955419,
				"element": "H" 
			}
		],
		 "valence_orbital": [ 
			{
				"type": "occ",
				"energy": -0.28963,
				"method": "rhf"
			},
			{
				"type": "occ",
				"energy": -0.2661,
				"method": "rhf"
			},
			{
				"type": "occ",
				"energy": -0.24244,
				"method": "rhf"
			},
			{
				"type": "occ",
				"energy": -0.20431,
				"method": "rhf"
			},
			{
				"type": "occ",
				"energy": -0.18716,
				"method": "rhf"
			},
			{
				"type": "unocc",
				"energy": -0.01365,
				"method": "rhf"
			},
			{
				"type": "unocc",
				"energy": 0.01451,
				"method": "rhf"
			},
			{
				"type": "unocc",
				"energy": 0.02573,
				"method": "rhf"
			},
			{
				"type": "unocc",
				"energy": 0.08023,
				"method": "rhf"
			},
			{
				"type": "unocc",
				"energy": 0.09298,
				"method": "rhf"
			}
		],
		"cosmo_sigma_profile": { 
			"-0.025": 0.0,
			"-0.024": 0.0,
			"-0.023": 0.0,
			"-0.022": 0.0,
			"-0.021": 0.0,
			"-0.02": 0.0,
			"-0.019": 0.0,
			"-0.018": 0.0,
			"-0.017": 0.0,
			"-0.016": 0.0,
			"-0.015": 0.553485287084,
			"-0.014": 1.28705677149,
			"-0.013": 1.23046182506,
			"-0.012": 1.18067594884,
			"-0.011": 1.02023933498,
			"-0.01": 1.80527398037,
			"-0.009": 2.3039471721,
			"-0.008": 1.75487174626,
			"-0.007": 1.23882837222,
			"-0.006": 1.5339502121,
			"-0.005": 7.70570080331,
			"-0.004": 19.9402233481,
			"-0.003": 34.0226653743,
			"-0.002": 39.7299068829,
			"-0.001": 39.768864742,
			"0.0": 33.986694603,
			"0.001": 31.9965711005,
			"0.002": 22.7281593417,
			"0.003": 17.9262189659,
			"0.004": 16.4927590732,
			"0.005": 10.4263489247,
			"0.006": 6.03424493085,
			"0.007": 3.62508710841,
			"0.008": 2.6756359399,
			"0.009": 3.81134715662,
			"0.01": 2.19215297158,
			"0.011": 2.26065233573,
			"0.012": 2.72259348854,
			"0.013": 1.69493281349,
			"0.014": 0.374759752967,
			"0.015": 0.262665092782,
			"0.016": 0.0,
			"0.017": 0.0,
			"0.018": 0.0,
			"0.019": 0.0,
			"0.02": 0.0,
			"0.021": 0.0,
			"0.022": 0.0,
			"0.023": 0.0,
			"0.024": 0.0,
			"0.025": 0.0
		}
	}
}
