{
	 "smiles": "OC(=O)CCN1C(=O)OC2=C1C=CC(Cl)=C2", 
	 "Tm": 434.15, 
	 "num_atms": 24, 
	 "gaussian": { 
		 "optdone": 1, 
		 "sigma_profile": "yes", 
		 "theory": "DFT", 
		 "functional": "B3LYP", 
		 "basiset": "6-31G**", 
		 "properties": { 
			 "R2extent": 6156.1085, 
			 "electric_dipole_moment_norm": 3.91890332619, 
			 "electric_quadrupole_moment_norm": 12.864444494, 
			 "total_energy": -1201.76363182, 
			 "HOMO_LUMO_gap": 0.20054, 
			 "cosmo_polarized_energy": -14.84, 
			 "cosmo_cavitation_energy": 30.9, 
			 "cosmo_dispersion_energy": -22.47, 
			 "cosmo_repulsion_energy": 1.75, 
			 "cosmo_total_nonelectrostatic_energy": 10.18, 
			 "SMD_solvation_energy": 7.08 
		},
		"coords": [
			{
				"x": -1.368803428,
				"y": -2.7983254673,
				"z": -0.4240795551,
				"element": "O" 
			},
			{
				"x": -0.813906543,
				"y": -1.7062185321,
				"z": 0.1395165497,
				"element": "C" 
			},
			{
				"x": -1.331161996,
				"y": -0.6091361978,
				"z": 0.0960552738,
				"element": "O" 
			},
			{
				"x": 0.4800523322,
				"y": -2.0390902797,
				"z": 0.8520814327,
				"element": "C" 
			},
			{
				"x": 1.3444029032,
				"y": -0.8083938367,
				"z": 1.1384250906,
				"element": "C" 
			},
			{
				"x": 2.0554934742,
				"y": -0.3117122753,
				"z": -0.0338846617,
				"element": "N" 
			},
			{
				"x": 3.2750818328,
				"y": -0.8543799948,
				"z": -0.407150061,
				"element": "C" 
			},
			{
				"x": 3.8555325261,
				"y": -1.7918027218,
				"z": 0.0827038933,
				"element": "O" 
			},
			{
				"x": 3.7516219349,
				"y": -0.1133944871,
				"z": -1.481498887,
				"element": "O" 
			},
			{
				"x": 2.833968178,
				"y": 0.8764230673,
				"z": -1.7482751924,
				"element": "C" 
			},
			{
				"x": 1.7568743712,
				"y": 0.774655953,
				"z": -0.8611899935,
				"element": "C" 
			},
			{
				"x": 0.6915085365,
				"y": 1.6627252078,
				"z": -0.934988222,
				"element": "C" 
			},
			{
				"x": 0.7506448274,
				"y": 2.6595583668,
				"z": -1.9181983266,
				"element": "C" 
			},
			{
				"x": 1.8408073777,
				"y": 2.7425163683,
				"z": -2.7877337035,
				"element": "C" 
			},
			{
				"x": 1.8696176662,
				"y": 4.008747696,
				"z": -4.0071286427,
				"element": "Cl" 
			},
			{
				"x": 2.91600425,
				"y": 1.8457603377,
				"z": -2.7286845422,
				"element": "C" 
			},
			{
				"x": -2.2059219915,
				"y": -2.5094348998,
				"z": -0.8260861785,
				"element": "H" 
			},
			{
				"x": 0.2054516115,
				"y": -2.5168065389,
				"z": 1.8018605849,
				"element": "H" 
			},
			{
				"x": 1.0412127184,
				"y": -2.7873716551,
				"z": 0.28612383,
				"element": "H" 
			},
			{
				"x": 0.7293287674,
				"y": 0.0031688709,
				"z": 1.5321924662,
				"element": "H" 
			},
			{
				"x": 2.1014222427,
				"y": -1.06971901,
				"z": 1.8816810354,
				"element": "H" 
			},
			{
				"x": -0.1693874948,
				"y": 1.5682171637,
				"z": -0.2848666827,
				"element": "H" 
			},
			{
				"x": -0.0609101519,
				"y": 3.3715919306,
				"z": -2.012794722,
				"element": "H" 
			},
			{
				"x": 3.7583660552,
				"y": 1.9092209341,
				"z": -3.4057807857,
				"element": "H" 
			}
		],
		 "valence_orbital": [ 
			{
				"type": "occ",
				"energy": -0.30124,
				"method": "rhf"
			},
			{
				"type": "occ",
				"energy": -0.29904,
				"method": "rhf"
			},
			{
				"type": "occ",
				"energy": -0.29644,
				"method": "rhf"
			},
			{
				"type": "occ",
				"energy": -0.26148,
				"method": "rhf"
			},
			{
				"type": "occ",
				"energy": -0.22423,
				"method": "rhf"
			},
			{
				"type": "unocc",
				"energy": -0.02369,
				"method": "rhf"
			},
			{
				"type": "unocc",
				"energy": -0.01145,
				"method": "rhf"
			},
			{
				"type": "unocc",
				"energy": -0.00772,
				"method": "rhf"
			},
			{
				"type": "unocc",
				"energy": 0.02364,
				"method": "rhf"
			},
			{
				"type": "unocc",
				"energy": 0.03618,
				"method": "rhf"
			}
		],
		"cosmo_sigma_profile": { 
			"-0.025": 0.0,
			"-0.024": 0.0,
			"-0.023": 0.0,
			"-0.022": 0.0,
			"-0.021": 0.0,
			"-0.02": 0.0,
			"-0.019": 0.218871967821,
			"-0.018": 0.750308673342,
			"-0.017": 0.937248013895,
			"-0.016": 0.981125100986,
			"-0.015": 1.08128267301,
			"-0.014": 0.681347295019,
			"-0.013": 0.288261426595,
			"-0.012": 0.466568513512,
			"-0.011": 1.08090547095,
			"-0.01": 0.522434026121,
			"-0.009": 1.31897923333,
			"-0.008": 5.72950731029,
			"-0.007": 10.822962984,
			"-0.006": 16.839439511,
			"-0.005": 16.8362024393,
			"-0.004": 16.9146097266,
			"-0.003": 14.5626696686,
			"-0.002": 11.2059094646,
			"-0.001": 14.3340302635,
			"0.0": 14.6798470846,
			"0.001": 18.232669218,
			"0.002": 20.6329098456,
			"0.003": 16.041467867,
			"0.004": 15.2709524026,
			"0.005": 11.9827375707,
			"0.006": 4.94551777332,
			"0.007": 5.82525823609,
			"0.008": 5.24630639704,
			"0.009": 5.00451738919,
			"0.01": 3.82980690989,
			"0.011": 6.72419640025,
			"0.012": 5.05131237177,
			"0.013": 0.492409471477,
			"0.014": 0.0,
			"0.015": 0.0,
			"0.016": 0.0,
			"0.017": 0.0,
			"0.018": 0.0,
			"0.019": 0.0,
			"0.02": 0.0,
			"0.021": 0.0,
			"0.022": 0.0,
			"0.023": 0.0,
			"0.024": 0.0,
			"0.025": 0.0
		}
	}
}
