{
	 "smiles": "COC1=CC=C(CCC(=O)NC2=C(C=CC=C2)C(O)=O)C=C1", 
	 "Tm": 433.15, 
	 "num_atms": 39, 
	 "gaussian": { 
		 "optdone": 1, 
		 "sigma_profile": "yes", 
		 "theory": "DFT", 
		 "functional": "B3LYP", 
		 "basiset": "6-31G**", 
		 "properties": { 
			 "R2extent": 12956.9525, 
			 "electric_dipole_moment_norm": 2.82921385017, 
			 "electric_quadrupole_moment_norm": 36.3246612061, 
			 "total_energy": -1013.73268445, 
			 "HOMO_LUMO_gap": 0.14975, 
			 "cosmo_polarized_energy": -19.44, 
			 "cosmo_cavitation_energy": 43.55, 
			 "cosmo_dispersion_energy": -31.36, 
			 "cosmo_repulsion_energy": 2.37, 
			 "cosmo_total_nonelectrostatic_energy": 14.56, 
			 "SMD_solvation_energy": 9.11 
		},
		"coords": [
			{
				"x": -3.8396661473,
				"y": 1.843254178,
				"z": 5.6518034662,
				"element": "C" 
			},
			{
				"x": -4.3631254338,
				"y": 1.8281472183,
				"z": 4.3346052912,
				"element": "O" 
			},
			{
				"x": -3.614860523,
				"y": 1.2456494114,
				"z": 3.350346148,
				"element": "C" 
			},
			{
				"x": -4.180473199,
				"y": 1.2573268174,
				"z": 2.0667338702,
				"element": "C" 
			},
			{
				"x": -3.4983077079,
				"y": 0.6871803281,
				"z": 0.9995757226,
				"element": "C" 
			},
			{
				"x": -2.2379832297,
				"y": 0.0902100977,
				"z": 1.1698109393,
				"element": "C" 
			},
			{
				"x": -1.4888008218,
				"y": -0.4964061762,
				"z": -0.0064643162,
				"element": "C" 
			},
			{
				"x": -0.6248951687,
				"y": 0.5473352724,
				"z": -0.738501334,
				"element": "C" 
			},
			{
				"x": 0.0034751041,
				"y": -0.0130822182,
				"z": -2.0124769975,
				"element": "C" 
			},
			{
				"x": -0.5370043889,
				"y": -0.88874595,
				"z": -2.6752333512,
				"element": "O" 
			},
			{
				"x": 1.2083551104,
				"y": 0.582114007,
				"z": -2.3383121087,
				"element": "N" 
			},
			{
				"x": 2.0110042677,
				"y": 0.3742294312,
				"z": -3.4604166482,
				"element": "C" 
			},
			{
				"x": 3.2741094775,
				"y": 1.0324125802,
				"z": -3.5369500956,
				"element": "C" 
			},
			{
				"x": 4.0508307072,
				"y": 0.8784236333,
				"z": -4.6999560918,
				"element": "C" 
			},
			{
				"x": 3.6422404632,
				"y": 0.0692719381,
				"z": -5.7503668466,
				"element": "C" 
			},
			{
				"x": 2.4262478604,
				"y": -0.6116202703,
				"z": -5.6414028672,
				"element": "C" 
			},
			{
				"x": 1.6176448084,
				"y": -0.465388932,
				"z": -4.520975297,
				"element": "C" 
			},
			{
				"x": 3.7656637306,
				"y": 1.8823158789,
				"z": -2.4161259974,
				"element": "C" 
			},
			{
				"x": 5.0910859887,
				"y": 2.1578445399,
				"z": -2.3789546068,
				"element": "O" 
			},
			{
				"x": 3.060026272,
				"y": 2.3389102606,
				"z": -1.5307982126,
				"element": "O" 
			},
			{
				"x": -1.692434897,
				"y": 0.0861582766,
				"z": 2.4559650113,
				"element": "C" 
			},
			{
				"x": -2.3623330296,
				"y": 0.6537767445,
				"z": 3.544456317,
				"element": "C" 
			},
			{
				"x": -2.8922064544,
				"y": 2.3954276294,
				"z": 5.7065923676,
				"element": "H" 
			},
			{
				"x": -4.5847313537,
				"y": 2.3495808072,
				"z": 6.2677426177,
				"element": "H" 
			},
			{
				"x": -3.6830335625,
				"y": 0.8277386629,
				"z": 6.0388736549,
				"element": "H" 
			},
			{
				"x": -5.156490045,
				"y": 1.7132603514,
				"z": 1.9350589162,
				"element": "H" 
			},
			{
				"x": -3.9550272283,
				"y": 0.6986876062,
				"z": 0.012475658,
				"element": "H" 
			},
			{
				"x": -2.1838955935,
				"y": -0.9292716615,
				"z": -0.7317416148,
				"element": "H" 
			},
			{
				"x": -0.8447373681,
				"y": -1.3166820711,
				"z": 0.3309692321,
				"element": "H" 
			},
			{
				"x": -1.2538684496,
				"y": 1.3988255646,
				"z": -1.0325227824,
				"element": "H" 
			},
			{
				"x": 0.1431234866,
				"y": 0.9521205179,
				"z": -0.0696207536,
				"element": "H" 
			},
			{
				"x": 1.5683382323,
				"y": 1.3053662713,
				"z": -1.7164449029,
				"element": "H" 
			},
			{
				"x": 4.9761278661,
				"y": 1.4392254892,
				"z": -4.8079899902,
				"element": "H" 
			},
			{
				"x": 4.2554477699,
				"y": -0.0251922624,
				"z": -6.6403618044,
				"element": "H" 
			},
			{
				"x": 2.0928642079,
				"y": -1.2577508376,
				"z": -6.4484308315,
				"element": "H" 
			},
			{
				"x": 0.6735030838,
				"y": -0.9841737137,
				"z": -4.4402677116,
				"element": "H" 
			},
			{
				"x": 5.5664925711,
				"y": 1.6050660818,
				"z": -3.0139719749,
				"element": "H" 
			},
			{
				"x": -0.7214084492,
				"y": -0.3749127391,
				"z": 2.6227432119,
				"element": "H" 
			},
			{
				"x": -1.9036979571,
				"y": 0.6237672366,
				"z": 4.5258347132,
				"element": "H" 
			}
		],
		 "valence_orbital": [ 
			{
				"type": "occ",
				"energy": -0.27287,
				"method": "rhf"
			},
			{
				"type": "occ",
				"energy": -0.25572,
				"method": "rhf"
			},
			{
				"type": "occ",
				"energy": -0.24606,
				"method": "rhf"
			},
			{
				"type": "occ",
				"energy": -0.23341,
				"method": "rhf"
			},
			{
				"type": "occ",
				"energy": -0.21001,
				"method": "rhf"
			},
			{
				"type": "unocc",
				"energy": -0.06026,
				"method": "rhf"
			},
			{
				"type": "unocc",
				"energy": -0.02571,
				"method": "rhf"
			},
			{
				"type": "unocc",
				"energy": 0.00216,
				"method": "rhf"
			},
			{
				"type": "unocc",
				"energy": 0.01611,
				"method": "rhf"
			},
			{
				"type": "unocc",
				"energy": 0.03653,
				"method": "rhf"
			}
		],
		"cosmo_sigma_profile": { 
			"-0.025": 0.0,
			"-0.024": 0.0,
			"-0.023": 0.0,
			"-0.022": 0.0,
			"-0.021": 0.0,
			"-0.02": 0.0,
			"-0.019": 0.380669689371,
			"-0.018": 1.10654474369,
			"-0.017": 1.10132720091,
			"-0.016": 0.830011035062,
			"-0.015": 0.560331114053,
			"-0.014": 0.603335096345,
			"-0.013": 1.87623805326,
			"-0.012": 0.992328782312,
			"-0.011": 0.683363801073,
			"-0.01": 1.09739642501,
			"-0.009": 1.65952964364,
			"-0.008": 2.39746287908,
			"-0.007": 5.4342689654,
			"-0.006": 15.269278992,
			"-0.005": 29.8139508794,
			"-0.004": 35.1764050517,
			"-0.003": 32.4349799133,
			"-0.002": 23.5092414434,
			"-0.001": 20.1241382255,
			"0.0": 20.4021125831,
			"0.001": 22.5111032742,
			"0.002": 19.4052026629,
			"0.003": 23.5174295679,
			"0.004": 18.5805732594,
			"0.005": 13.6818855567,
			"0.006": 14.2968254059,
			"0.007": 6.34305592891,
			"0.008": 5.54848917446,
			"0.009": 6.3778695278,
			"0.01": 7.71636698035,
			"0.011": 5.99088737446,
			"0.012": 4.87248899636,
			"0.013": 2.70597692402,
			"0.014": 0.0411565889294,
			"0.015": 0.0,
			"0.016": 0.0,
			"0.017": 0.0,
			"0.018": 0.0,
			"0.019": 0.0,
			"0.02": 0.0,
			"0.021": 0.0,
			"0.022": 0.0,
			"0.023": 0.0,
			"0.024": 0.0,
			"0.025": 0.0
		}
	}
}
