{
	 "smiles": "CCNC1=NC(C)=C(S1)C(O)=O", 
	 "Tm": 445.15, 
	 "num_atms": 22, 
	 "gaussian": { 
		 "optdone": 1, 
		 "sigma_profile": "yes", 
		 "theory": "DFT", 
		 "functional": "B3LYP", 
		 "basiset": "6-31G**", 
		 "properties": { 
			 "R2extent": 3273.4666, 
			 "electric_dipole_moment_norm": 7.02333180976, 
			 "electric_quadrupole_moment_norm": 8.23817709144, 
			 "total_energy": -930.924751639, 
			 "HOMO_LUMO_gap": 0.17611, 
			 "cosmo_polarized_energy": -16.86, 
			 "cosmo_cavitation_energy": 27.26, 
			 "cosmo_dispersion_energy": -20.63, 
			 "cosmo_repulsion_energy": 1.63, 
			 "cosmo_total_nonelectrostatic_energy": 8.26, 
			 "SMD_solvation_energy": 3.63 
		},
		"coords": [
			{
				"x": -3.9211212629,
				"y": 0.5921851419,
				"z": 0.5564211102,
				"element": "C" 
			},
			{
				"x": -3.332055997,
				"y": 1.9465053687,
				"z": 0.1452786427,
				"element": "C" 
			},
			{
				"x": -2.3570382915,
				"y": 1.8706936884,
				"z": -0.9349577462,
				"element": "N" 
			},
			{
				"x": -1.047876428,
				"y": 1.5491091073,
				"z": -0.7904814377,
				"element": "C" 
			},
			{
				"x": -0.257020639,
				"y": 1.2967251741,
				"z": -1.8053407568,
				"element": "N" 
			},
			{
				"x": 1.0266279751,
				"y": 1.0360428313,
				"z": -1.398086892,
				"element": "C" 
			},
			{
				"x": 2.0478068701,
				"y": 0.7425301823,
				"z": -2.4549373449,
				"element": "C" 
			},
			{
				"x": 1.2528265251,
				"y": 1.0837618692,
				"z": -0.0357940672,
				"element": "C" 
			},
			{
				"x": -0.271959414,
				"y": 1.4584753667,
				"z": 0.7946492818,
				"element": "S" 
			},
			{
				"x": 2.5145486577,
				"y": 0.8734984012,
				"z": 0.687823809,
				"element": "C" 
			},
			{
				"x": 2.5424437542,
				"y": 1.2629914835,
				"z": 1.9985123193,
				"element": "O" 
			},
			{
				"x": 3.509116662,
				"y": 0.3763818704,
				"z": 0.2033154755,
				"element": "O" 
			},
			{
				"x": -3.1380283211,
				"y": -0.0898169358,
				"z": 0.8996304628,
				"element": "H" 
			},
			{
				"x": -4.6412263768,
				"y": 0.723762461,
				"z": 1.3705718161,
				"element": "H" 
			},
			{
				"x": -4.4409431361,
				"y": 0.1207244484,
				"z": -0.2835890756,
				"element": "H" 
			},
			{
				"x": -2.8501661289,
				"y": 2.4323818983,
				"z": 1.0013653147,
				"element": "H" 
			},
			{
				"x": -4.127312485,
				"y": 2.6237713798,
				"z": -0.1822113696,
				"element": "H" 
			},
			{
				"x": -2.6930447603,
				"y": 1.7628090888,
				"z": -1.8830545446,
				"element": "H" 
			},
			{
				"x": 3.0385579721,
				"y": 0.6165358436,
				"z": -2.0235702473,
				"element": "H" 
			},
			{
				"x": 1.7705713784,
				"y": -0.1763672099,
				"z": -2.9839041177,
				"element": "H" 
			},
			{
				"x": 2.0519254478,
				"y": 1.5489543606,
				"z": -3.1956111195,
				"element": "H" 
			},
			{
				"x": 1.7772679981,
				"y": 1.81404418,
				"z": 2.2165704872,
				"element": "H" 
			}
		],
		 "valence_orbital": [ 
			{
				"type": "occ",
				"energy": -0.304,
				"method": "rhf"
			},
			{
				"type": "occ",
				"energy": -0.28356,
				"method": "rhf"
			},
			{
				"type": "occ",
				"energy": -0.28256,
				"method": "rhf"
			},
			{
				"type": "occ",
				"energy": -0.2644,
				"method": "rhf"
			},
			{
				"type": "occ",
				"energy": -0.21691,
				"method": "rhf"
			},
			{
				"type": "unocc",
				"energy": -0.0408,
				"method": "rhf"
			},
			{
				"type": "unocc",
				"energy": -0.01067,
				"method": "rhf"
			},
			{
				"type": "unocc",
				"energy": 0.02703,
				"method": "rhf"
			},
			{
				"type": "unocc",
				"energy": 0.04595,
				"method": "rhf"
			},
			{
				"type": "unocc",
				"energy": 0.08279,
				"method": "rhf"
			}
		],
		"cosmo_sigma_profile": { 
			"-0.025": 0.0,
			"-0.024": 0.0,
			"-0.023": 0.0,
			"-0.022": 0.0,
			"-0.021": 0.0,
			"-0.02": 0.0,
			"-0.019": 0.0,
			"-0.018": 0.00643618484094,
			"-0.017": 0.516874670533,
			"-0.016": 0.848882020498,
			"-0.015": 1.37180385229,
			"-0.014": 2.11119752498,
			"-0.013": 1.77746190589,
			"-0.012": 2.03083317209,
			"-0.011": 2.39394384164,
			"-0.01": 1.33493602315,
			"-0.009": 1.70974648414,
			"-0.008": 2.37649141068,
			"-0.007": 2.71014702186,
			"-0.006": 6.13962470698,
			"-0.005": 10.7978998731,
			"-0.004": 13.9020278863,
			"-0.003": 19.8989065012,
			"-0.002": 18.9975913422,
			"-0.001": 21.2160171774,
			"0.0": 25.4645405583,
			"0.001": 15.3445608385,
			"0.002": 10.209874075,
			"0.003": 9.90661267083,
			"0.004": 6.05598753792,
			"0.005": 4.17523432654,
			"0.006": 3.37946257248,
			"0.007": 3.65228280508,
			"0.008": 3.44959345547,
			"0.009": 4.56905233461,
			"0.01": 4.6632568572,
			"0.011": 5.95494701051,
			"0.012": 5.64083417859,
			"0.013": 3.4720553407,
			"0.014": 1.3883800114,
			"0.015": 0.290729483032,
			"0.016": 0.0,
			"0.017": 0.0,
			"0.018": 0.0,
			"0.019": 0.0,
			"0.02": 0.0,
			"0.021": 0.0,
			"0.022": 0.0,
			"0.023": 0.0,
			"0.024": 0.0,
			"0.025": 0.0
		}
	}
}
