{
	 "smiles": "OC(=O)C1=C(Cl)C=NC(NCCC2=CC=CC=C2)=N1", 
	 "Tm": 432.15, 
	 "num_atms": 31, 
	 "gaussian": { 
		 "optdone": 1, 
		 "sigma_profile": "yes", 
		 "theory": "DFT", 
		 "functional": "B3LYP", 
		 "basiset": "6-31G**", 
		 "properties": { 
			 "R2extent": 7884.2402, 
			 "electric_dipole_moment_norm": 3.11901286147, 
			 "electric_quadrupole_moment_norm": 13.2891023963, 
			 "total_energy": -1277.52783394, 
			 "HOMO_LUMO_gap": 0.14922, 
			 "cosmo_polarized_energy": -15.63, 
			 "cosmo_cavitation_energy": 38.37, 
			 "cosmo_dispersion_energy": -26.79, 
			 "cosmo_repulsion_energy": 2.07, 
			 "cosmo_total_nonelectrostatic_energy": 13.64, 
			 "SMD_solvation_energy": 4.5 
		},
		"coords": [
			{
				"x": -0.9601917835,
				"y": 0.0091444848,
				"z": 3.0218749394,
				"element": "O" 
			},
			{
				"x": -1.8928177042,
				"y": 0.9700626991,
				"z": 2.8489553838,
				"element": "C" 
			},
			{
				"x": -2.6055443327,
				"y": 1.3654865876,
				"z": 3.743924869,
				"element": "O" 
			},
			{
				"x": -1.939040162,
				"y": 1.4691557074,
				"z": 1.4263001389,
				"element": "C" 
			},
			{
				"x": -2.4500220756,
				"y": 2.725134734,
				"z": 1.0748650434,
				"element": "C" 
			},
			{
				"x": -3.0455031113,
				"y": 3.9241581143,
				"z": 2.1898500793,
				"element": "Cl" 
			},
			{
				"x": -2.4314118408,
				"y": 3.0416458134,
				"z": -0.294012812,
				"element": "C" 
			},
			{
				"x": -1.9837544075,
				"y": 2.2173867244,
				"z": -1.226648246,
				"element": "N" 
			},
			{
				"x": -1.5245143927,
				"y": 1.0194881752,
				"z": -0.7859675332,
				"element": "C" 
			},
			{
				"x": -1.0892135378,
				"y": 0.1509871628,
				"z": -1.734651743,
				"element": "N" 
			},
			{
				"x": -0.4731140868,
				"y": -1.1302365423,
				"z": -1.4266834906,
				"element": "C" 
			},
			{
				"x": 1.000098448,
				"y": -1.0178808623,
				"z": -0.9714534449,
				"element": "C" 
			},
			{
				"x": 1.540621032,
				"y": -2.3449836735,
				"z": -0.488299624,
				"element": "C" 
			},
			{
				"x": 2.3015388278,
				"y": -3.1719587725,
				"z": -1.3242070325,
				"element": "C" 
			},
			{
				"x": 2.763256886,
				"y": -4.4116558861,
				"z": -0.8772375635,
				"element": "C" 
			},
			{
				"x": 2.4665139283,
				"y": -4.8435776884,
				"z": 0.4161918843,
				"element": "C" 
			},
			{
				"x": 1.707368538,
				"y": -4.0280453694,
				"z": 1.2589963337,
				"element": "C" 
			},
			{
				"x": 1.2484303395,
				"y": -2.7896707087,
				"z": 0.8102269926,
				"element": "C" 
			},
			{
				"x": -1.4739894868,
				"y": 0.6273748992,
				"z": 0.4977198437,
				"element": "N" 
			},
			{
				"x": -1.0259584347,
				"y": -0.2469041159,
				"z": 3.957336746,
				"element": "H" 
			},
			{
				"x": -2.7989643636,
				"y": 4.0117885421,
				"z": -0.6225754686,
				"element": "H" 
			},
			{
				"x": -1.0571995689,
				"y": 0.5204567064,
				"z": -2.6727787251,
				"element": "H" 
			},
			{
				"x": -1.0565988034,
				"y": -1.6060849578,
				"z": -0.6347332892,
				"element": "H" 
			},
			{
				"x": -0.5477360086,
				"y": -1.7615984871,
				"z": -2.3173425147,
				"element": "H" 
			},
			{
				"x": 1.607071111,
				"y": -0.6326168919,
				"z": -1.7990237098,
				"element": "H" 
			},
			{
				"x": 1.0436865211,
				"y": -0.2824677328,
				"z": -0.1618361036,
				"element": "H" 
			},
			{
				"x": 2.5409645356,
				"y": -2.8387449571,
				"z": -2.3316388094,
				"element": "H" 
			},
			{
				"x": 3.3569454899,
				"y": -5.0373288312,
				"z": -1.5380173065,
				"element": "H" 
			},
			{
				"x": 2.8269994654,
				"y": -5.8064495381,
				"z": 0.7667975706,
				"element": "H" 
			},
			{
				"x": 1.4766112045,
				"y": -4.3559252912,
				"z": 2.2689418217,
				"element": "H" 
			},
			{
				"x": 0.6611677737,
				"y": -2.1528400446,
				"z": 1.4683257702,
				"element": "H" 
			}
		],
		 "valence_orbital": [ 
			{
				"type": "occ",
				"energy": -0.29233,
				"method": "rhf"
			},
			{
				"type": "occ",
				"energy": -0.25679,
				"method": "rhf"
			},
			{
				"type": "occ",
				"energy": -0.24883,
				"method": "rhf"
			},
			{
				"type": "occ",
				"energy": -0.24485,
				"method": "rhf"
			},
			{
				"type": "occ",
				"energy": -0.22475,
				"method": "rhf"
			},
			{
				"type": "unocc",
				"energy": -0.07553,
				"method": "rhf"
			},
			{
				"type": "unocc",
				"energy": -0.02332,
				"method": "rhf"
			},
			{
				"type": "unocc",
				"energy": -0.00097,
				"method": "rhf"
			},
			{
				"type": "unocc",
				"energy": 0.00027,
				"method": "rhf"
			},
			{
				"type": "unocc",
				"energy": 0.02788,
				"method": "rhf"
			}
		],
		"cosmo_sigma_profile": { 
			"-0.025": 0.0,
			"-0.024": 0.0,
			"-0.023": 0.0,
			"-0.022": 0.0,
			"-0.021": 0.0,
			"-0.02": 0.0,
			"-0.019": 0.434730770056,
			"-0.018": 1.1421608481,
			"-0.017": 0.752321564521,
			"-0.016": 0.790298342508,
			"-0.015": 0.617366093787,
			"-0.014": 1.79044862223,
			"-0.013": 1.63967725331,
			"-0.012": 2.19935700413,
			"-0.011": 1.25251359483,
			"-0.01": 1.55250584563,
			"-0.009": 2.421651991,
			"-0.008": 3.37188051364,
			"-0.007": 4.08997195428,
			"-0.006": 7.16859993651,
			"-0.005": 15.4955033332,
			"-0.004": 22.729701283,
			"-0.003": 25.9979879863,
			"-0.002": 28.49417998,
			"-0.001": 26.0857750881,
			"0.0": 24.3494129982,
			"0.001": 20.2954224992,
			"0.002": 19.7146064899,
			"0.003": 20.2553944932,
			"0.004": 18.3943233412,
			"0.005": 14.2831145329,
			"0.006": 13.6530999772,
			"0.007": 7.45755288518,
			"0.008": 4.5819692306,
			"0.009": 4.25036303508,
			"0.01": 5.43478465432,
			"0.011": 5.82286907642,
			"0.012": 1.10055073557,
			"0.013": 0.659670492706,
			"0.014": 0.110042819296,
			"0.015": 0.0,
			"0.016": 0.0,
			"0.017": 0.0,
			"0.018": 0.0,
			"0.019": 0.0,
			"0.02": 0.0,
			"0.021": 0.0,
			"0.022": 0.0,
			"0.023": 0.0,
			"0.024": 0.0,
			"0.025": 0.0
		}
	}
}
