{
	 "smiles": "CC(=O)NC1CCCNC1", 
	 "Tm": 339.15, 
	 "num_atms": 24, 
	 "gaussian": { 
		 "optdone": 1, 
		 "sigma_profile": "yes", 
		 "theory": "DFT", 
		 "functional": "B3LYP", 
		 "basiset": "6-31G**", 
		 "properties": { 
			 "R2extent": 2074.1048, 
			 "electric_dipole_moment_norm": 3.79102365859, 
			 "electric_quadrupole_moment_norm": 22.8383136908, 
			 "total_energy": -459.909609264, 
			 "HOMO_LUMO_gap": 0.24577, 
			 "cosmo_polarized_energy": -13.57, 
			 "cosmo_cavitation_energy": 24.74, 
			 "cosmo_dispersion_energy": -18.37, 
			 "cosmo_repulsion_energy": 1.5, 
			 "cosmo_total_nonelectrostatic_energy": 7.87, 
			 "SMD_solvation_energy": 1.75 
		},
		"coords": [
			{
				"x": -0.9355454128,
				"y": -2.3940877714,
				"z": 1.0163330166,
				"element": "C" 
			},
			{
				"x": 0.2365752315,
				"y": -2.9665624101,
				"z": 0.2335104685,
				"element": "C" 
			},
			{
				"x": 0.6374668433,
				"y": -4.1048670169,
				"z": 0.4486918374,
				"element": "O" 
			},
			{
				"x": 0.8724333794,
				"y": -2.1781254747,
				"z": -0.6967672956,
				"element": "N" 
			},
			{
				"x": 0.6083832572,
				"y": -0.8216021583,
				"z": -1.1863222839,
				"element": "C" 
			},
			{
				"x": -0.7091095735,
				"y": -0.6839954071,
				"z": -2.0065504208,
				"element": "C" 
			},
			{
				"x": -1.3451786836,
				"y": 0.7103066755,
				"z": -1.837172305,
				"element": "C" 
			},
			{
				"x": -0.2785384995,
				"y": 1.807109445,
				"z": -1.8156396131,
				"element": "C" 
			},
			{
				"x": 0.6302141669,
				"y": 1.6329614403,
				"z": -0.6648097799,
				"element": "N" 
			},
			{
				"x": 0.6890067998,
				"y": 0.2792106911,
				"z": -0.1033636964,
				"element": "C" 
			},
			{
				"x": -1.5401157653,
				"y": -1.6756188985,
				"z": 0.460091406,
				"element": "H" 
			},
			{
				"x": -1.5591041644,
				"y": -3.2312191604,
				"z": 1.3326139536,
				"element": "H" 
			},
			{
				"x": -0.5602209073,
				"y": -1.8956027602,
				"z": 1.9165722748,
				"element": "H" 
			},
			{
				"x": 1.6447469591,
				"y": -2.6746793801,
				"z": -1.1209703748,
				"element": "H" 
			},
			{
				"x": 1.4443911402,
				"y": -0.6191189244,
				"z": -1.8655006167,
				"element": "H" 
			},
			{
				"x": -1.419346493,
				"y": -1.4595881624,
				"z": -1.7059712431,
				"element": "H" 
			},
			{
				"x": -0.4899822475,
				"y": -0.8681060765,
				"z": -3.0648912496,
				"element": "H" 
			},
			{
				"x": -1.9183781575,
				"y": 0.7559777826,
				"z": -0.903049749,
				"element": "H" 
			},
			{
				"x": -2.0578986525,
				"y": 0.9032403794,
				"z": -2.6457289101,
				"element": "H" 
			},
			{
				"x": -0.7553638553,
				"y": 2.7942415283,
				"z": -1.7542504642,
				"element": "H" 
			},
			{
				"x": 0.263335738,
				"y": 1.7813679735,
				"z": -2.7767707325,
				"element": "H" 
			},
			{
				"x": 1.5632997599,
				"y": 1.940802144,
				"z": -0.9150158565,
				"element": "H" 
			},
			{
				"x": 1.6236687249,
				"y": 0.1750433345,
				"z": 0.4560058688,
				"element": "H" 
			},
			{
				"x": -0.1213395879,
				"y": 0.1531122067,
				"z": 0.6232557655,
				"element": "H" 
			}
		],
		 "valence_orbital": [ 
			{
				"type": "occ",
				"energy": -0.33464,
				"method": "rhf"
			},
			{
				"type": "occ",
				"energy": -0.32285,
				"method": "rhf"
			},
			{
				"type": "occ",
				"energy": -0.24913,
				"method": "rhf"
			},
			{
				"type": "occ",
				"energy": -0.23902,
				"method": "rhf"
			},
			{
				"type": "occ",
				"energy": -0.21355,
				"method": "rhf"
			},
			{
				"type": "unocc",
				"energy": 0.03222,
				"method": "rhf"
			},
			{
				"type": "unocc",
				"energy": 0.05767,
				"method": "rhf"
			},
			{
				"type": "unocc",
				"energy": 0.07893,
				"method": "rhf"
			},
			{
				"type": "unocc",
				"energy": 0.08579,
				"method": "rhf"
			},
			{
				"type": "unocc",
				"energy": 0.12124,
				"method": "rhf"
			}
		],
		"cosmo_sigma_profile": { 
			"-0.025": 0.0,
			"-0.024": 0.0,
			"-0.023": 0.0,
			"-0.022": 0.0,
			"-0.021": 0.0,
			"-0.02": 0.0,
			"-0.019": 0.0,
			"-0.018": 0.0,
			"-0.017": 0.0,
			"-0.016": 0.0,
			"-0.015": 0.0,
			"-0.014": 0.0,
			"-0.013": 0.303948578306,
			"-0.012": 1.35185804746,
			"-0.011": 0.929960626126,
			"-0.01": 1.90926497802,
			"-0.009": 2.45434803015,
			"-0.008": 2.03620172651,
			"-0.007": 2.87159817728,
			"-0.006": 5.09651061712,
			"-0.005": 11.1606551057,
			"-0.004": 18.4465505886,
			"-0.003": 23.5292815064,
			"-0.002": 24.3968897815,
			"-0.001": 24.4804312645,
			"0.0": 18.9785632813,
			"0.001": 8.94240180256,
			"0.002": 4.63600452798,
			"0.003": 4.28082571097,
			"0.004": 3.7960791624,
			"0.005": 1.82017588664,
			"0.006": 1.92319619226,
			"0.007": 1.71488886032,
			"0.008": 2.15100463764,
			"0.009": 2.72679632574,
			"0.01": 1.8904461539,
			"0.011": 1.50550076328,
			"0.012": 1.77950503065,
			"0.013": 3.13778620812,
			"0.014": 5.87883480607,
			"0.015": 4.63368212472,
			"0.016": 1.23431872406,
			"0.017": 0.473324332392,
			"0.018": 0.454950948609,
			"0.019": 0.229927262772,
			"0.02": 0.0,
			"0.021": 0.0,
			"0.022": 0.0,
			"0.023": 0.0,
			"0.024": 0.0,
			"0.025": 0.0
		}
	}
}
