{
	 "smiles": "NNC1=NC(=NC(N)=N1)C12CC3CC(CC(C3)C1)C2", 
	 "Tm": 539.15, 
	 "num_atms": 39, 
	 "gaussian": { 
		 "optdone": 1, 
		 "sigma_profile": "yes", 
		 "theory": "DFT", 
		 "functional": "B3LYP", 
		 "basiset": "6-31G**", 
		 "properties": { 
			 "R2extent": 5754.5511, 
			 "electric_dipole_moment_norm": 1.33315645368, 
			 "electric_quadrupole_moment_norm": 9.97610611612, 
			 "total_energy": -835.986192746, 
			 "HOMO_LUMO_gap": 0.22124, 
			 "cosmo_polarized_energy": -12.67, 
			 "cosmo_cavitation_energy": 37.47, 
			 "cosmo_dispersion_energy": -27.62, 
			 "cosmo_repulsion_energy": 2.14, 
			 "cosmo_total_nonelectrostatic_energy": 12.0, 
			 "SMD_solvation_energy": 2.28 
		},
		"coords": [
			{
				"x": 3.3642368822,
				"y": -0.6174413744,
				"z": 3.9320729937,
				"element": "N" 
			},
			{
				"x": 2.2226880287,
				"y": -1.3665528933,
				"z": 4.2529431994,
				"element": "N" 
			},
			{
				"x": 1.1288733514,
				"y": -1.4768959985,
				"z": 3.452327898,
				"element": "C" 
			},
			{
				"x": 1.1019296531,
				"y": -0.7230081198,
				"z": 2.3337761807,
				"element": "N" 
			},
			{
				"x": -0.007644974,
				"y": -0.8661251458,
				"z": 1.5977489907,
				"element": "C" 
			},
			{
				"x": -1.0312609741,
				"y": -1.673798363,
				"z": 1.8966362735,
				"element": "N" 
			},
			{
				"x": -0.8791869052,
				"y": -2.3810007223,
				"z": 3.036271544,
				"element": "C" 
			},
			{
				"x": -1.8814907851,
				"y": -3.2376423359,
				"z": 3.360552109,
				"element": "N" 
			},
			{
				"x": 0.1751859103,
				"y": -2.3281611362,
				"z": 3.8613197349,
				"element": "N" 
			},
			{
				"x": -0.1386048341,
				"y": -0.0521435819,
				"z": 0.3165711323,
				"element": "C" 
			},
			{
				"x": -0.3286757257,
				"y": -1.0161653801,
				"z": -0.8895995042,
				"element": "C" 
			},
			{
				"x": -0.5152462661,
				"y": -0.2137458456,
				"z": -2.192669682,
				"element": "C" 
			},
			{
				"x": 0.7272602072,
				"y": 0.666104196,
				"z": -2.4382589584,
				"element": "C" 
			},
			{
				"x": 0.9086794015,
				"y": 1.6381330306,
				"z": -1.2544316168,
				"element": "C" 
			},
			{
				"x": -0.3385771834,
				"y": 2.5378954338,
				"z": -1.1348425507,
				"element": "C" 
			},
			{
				"x": -1.5820217128,
				"y": 1.6595312714,
				"z": -0.888670245,
				"element": "C" 
			},
			{
				"x": -1.7639252268,
				"y": 0.6836893985,
				"z": -2.06943627,
				"element": "C" 
			},
			{
				"x": -1.3964651705,
				"y": 0.8586512468,
				"z": 0.4154952468,
				"element": "C" 
			},
			{
				"x": 1.097257492,
				"y": 0.8371447133,
				"z": 0.0508265054,
				"element": "C" 
			},
			{
				"x": 3.6261765016,
				"y": -0.8363924006,
				"z": 2.9710944123,
				"element": "H" 
			},
			{
				"x": 3.0995173083,
				"y": 0.3667232036,
				"z": 3.9218972836,
				"element": "H" 
			},
			{
				"x": 2.3016457126,
				"y": -2.0020930981,
				"z": 5.0320270556,
				"element": "H" 
			},
			{
				"x": -2.7396669225,
				"y": -3.1807547844,
				"z": 2.8378217318,
				"element": "H" 
			},
			{
				"x": -1.8735711419,
				"y": -3.6630042368,
				"z": 4.2727550545,
				"element": "H" 
			},
			{
				"x": 0.5482954837,
				"y": -1.6719377365,
				"z": -0.9738733323,
				"element": "H" 
			},
			{
				"x": -1.1941334353,
				"y": -1.6599673258,
				"z": -0.7019473675,
				"element": "H" 
			},
			{
				"x": -0.6448716508,
				"y": -0.9130983009,
				"z": -3.028816406,
				"element": "H" 
			},
			{
				"x": 1.6196388966,
				"y": 0.0358891121,
				"z": -2.5490868934,
				"element": "H" 
			},
			{
				"x": 0.6144922741,
				"y": 1.2274815457,
				"z": -3.3752918907,
				"element": "H" 
			},
			{
				"x": 1.7964192184,
				"y": 2.2612777576,
				"z": -1.4231909314,
				"element": "H" 
			},
			{
				"x": -0.2114236399,
				"y": 3.2512648907,
				"z": -0.3097769095,
				"element": "H" 
			},
			{
				"x": -0.4681647025,
				"y": 3.1291437935,
				"z": -2.0510886649,
				"element": "H" 
			},
			{
				"x": -2.4719597741,
				"y": 2.2954554712,
				"z": -0.79524074,
				"element": "H" 
			},
			{
				"x": -2.6581925823,
				"y": 0.0660742689,
				"z": -1.9138424495,
				"element": "H" 
			},
			{
				"x": -1.9197326863,
				"y": 1.2435827637,
				"z": -3.0011181856,
				"element": "H" 
			},
			{
				"x": -1.2838094905,
				"y": 1.544781599,
				"z": 1.2656548017,
				"element": "H" 
			},
			{
				"x": -2.2747566033,
				"y": 0.2368368164,
				"z": 0.6179137758,
				"element": "H" 
			},
			{
				"x": 1.253492846,
				"y": 1.5166863528,
				"z": 0.896270024,
				"element": "H" 
			},
			{
				"x": 1.9959932193,
				"y": 0.2128819142,
				"z": -0.0118933496,
				"element": "H" 
			}
		],
		 "valence_orbital": [ 
			{
				"type": "occ",
				"energy": -0.27044,
				"method": "rhf"
			},
			{
				"type": "occ",
				"energy": -0.25097,
				"method": "rhf"
			},
			{
				"type": "occ",
				"energy": -0.24958,
				"method": "rhf"
			},
			{
				"type": "occ",
				"energy": -0.24466,
				"method": "rhf"
			},
			{
				"type": "occ",
				"energy": -0.23267,
				"method": "rhf"
			},
			{
				"type": "unocc",
				"energy": -0.01143,
				"method": "rhf"
			},
			{
				"type": "unocc",
				"energy": 0.01395,
				"method": "rhf"
			},
			{
				"type": "unocc",
				"energy": 0.07486,
				"method": "rhf"
			},
			{
				"type": "unocc",
				"energy": 0.09054,
				"method": "rhf"
			},
			{
				"type": "unocc",
				"energy": 0.09303,
				"method": "rhf"
			}
		],
		"cosmo_sigma_profile": { 
			"-0.025": 0.0,
			"-0.024": 0.0,
			"-0.023": 0.0,
			"-0.022": 0.0,
			"-0.021": 0.0,
			"-0.02": 0.0,
			"-0.019": 0.0,
			"-0.018": 0.0,
			"-0.017": 0.0,
			"-0.016": 0.0,
			"-0.015": 0.0,
			"-0.014": 1.48639681623,
			"-0.013": 3.08023854362,
			"-0.012": 2.60620517993,
			"-0.011": 3.56395688967,
			"-0.01": 5.19657754866,
			"-0.009": 5.13280155764,
			"-0.008": 4.54539467066,
			"-0.007": 3.64356057112,
			"-0.006": 3.90777565568,
			"-0.005": 3.43760959849,
			"-0.004": 3.77571037858,
			"-0.003": 4.89750967952,
			"-0.002": 28.3382113883,
			"-0.001": 53.8590101,
			"0.0": 46.3967072716,
			"0.001": 37.4111773689,
			"0.002": 18.5612458032,
			"0.003": 10.0072674623,
			"0.004": 8.32532547817,
			"0.005": 7.18744459244,
			"0.006": 6.58387065448,
			"0.007": 6.67902127997,
			"0.008": 5.4392601499,
			"0.009": 4.13324709904,
			"0.01": 3.30481957694,
			"0.011": 1.89719744586,
			"0.012": 2.29057065675,
			"0.013": 1.59247913271,
			"0.014": 1.0415518811,
			"0.015": 0.505343037829,
			"0.016": 0.539046660526,
			"0.017": 0.211453619236,
			"0.018": 0.0,
			"0.019": 0.0,
			"0.02": 0.0,
			"0.021": 0.0,
			"0.022": 0.0,
			"0.023": 0.0,
			"0.024": 0.0,
			"0.025": 0.0
		}
	}
}
