{
	 "smiles": "FC(Cl)C(Cl)(Cl)Cl", 
	 "Tm": 177.85, 
	 "num_atms": 8, 
	 "gaussian": { 
		 "optdone": 1, 
		 "sigma_profile": "yes", 
		 "theory": "DFT", 
		 "functional": "B3LYP", 
		 "basiset": "6-31G**", 
		 "properties": { 
			 "R2extent": 3045.9308, 
			 "electric_dipole_moment_norm": 1.14084749638, 
			 "electric_quadrupole_moment_norm": 1.85987614104, 
			 "total_energy": -2017.3918122, 
			 "HOMO_LUMO_gap": 0.26587, 
			 "cosmo_polarized_energy": -3.74, 
			 "cosmo_cavitation_energy": 19.28, 
			 "cosmo_dispersion_energy": -14.58, 
			 "cosmo_repulsion_energy": 1.21, 
			 "cosmo_total_nonelectrostatic_energy": 5.9, 
			 "SMD_solvation_energy": 2.44 
		},
		"coords": [
			{
				"x": 1.6038040479,
				"y": -1.6723183083,
				"z": -1.9344243802,
				"element": "F" 
			},
			{
				"x": 0.4722357129,
				"y": -1.0352738719,
				"z": -1.5503592522,
				"element": "C" 
			},
			{
				"x": -0.2021069664,
				"y": -0.1513918422,
				"z": -2.9532017848,
				"element": "Cl" 
			},
			{
				"x": -0.516396666,
				"y": -2.083481693,
				"z": -0.9624132678,
				"element": "C" 
			},
			{
				"x": -0.9250016136,
				"y": -3.3308204721,
				"z": -2.1695498061,
				"element": "Cl" 
			},
			{
				"x": 0.320228414,
				"y": -2.8466013775,
				"z": 0.4394884455,
				"element": "Cl" 
			},
			{
				"x": -1.9921019783,
				"y": -1.2498182228,
				"z": -0.3827055492,
				"element": "Cl" 
			},
			{
				"x": 0.6997390494,
				"y": -0.2985942123,
				"z": -0.7770344052,
				"element": "H" 
			}
		],
		 "valence_orbital": [ 
			{
				"type": "occ",
				"energy": -0.34772,
				"method": "rhf"
			},
			{
				"type": "occ",
				"energy": -0.33828,
				"method": "rhf"
			},
			{
				"type": "occ",
				"energy": -0.3303,
				"method": "rhf"
			},
			{
				"type": "occ",
				"energy": -0.32639,
				"method": "rhf"
			},
			{
				"type": "occ",
				"energy": -0.3207,
				"method": "rhf"
			},
			{
				"type": "unocc",
				"energy": -0.05483,
				"method": "rhf"
			},
			{
				"type": "unocc",
				"energy": -0.03483,
				"method": "rhf"
			},
			{
				"type": "unocc",
				"energy": -0.01599,
				"method": "rhf"
			},
			{
				"type": "unocc",
				"energy": 0.02043,
				"method": "rhf"
			},
			{
				"type": "unocc",
				"energy": 0.10389,
				"method": "rhf"
			}
		],
		"cosmo_sigma_profile": { 
			"-0.025": 0.0,
			"-0.024": 0.0,
			"-0.023": 0.0,
			"-0.022": 0.0,
			"-0.021": 0.0,
			"-0.02": 0.0,
			"-0.019": 0.0,
			"-0.018": 0.0,
			"-0.017": 0.0,
			"-0.016": 0.0,
			"-0.015": 0.0,
			"-0.014": 0.0,
			"-0.013": 0.174482963422,
			"-0.012": 2.34246356352,
			"-0.011": 2.03947276301,
			"-0.01": 1.87770894982,
			"-0.009": 1.28342139347,
			"-0.008": 0.721054294533,
			"-0.007": 1.6381723008,
			"-0.006": 1.30683147947,
			"-0.005": 3.90267880243,
			"-0.004": 5.84987900212,
			"-0.003": 8.96342439179,
			"-0.002": 9.48872740842,
			"-0.001": 10.9364813281,
			"0.0": 13.3058625116,
			"0.001": 24.8218341314,
			"0.002": 42.3880305916,
			"0.003": 28.3488362822,
			"0.004": 3.50703115216,
			"0.005": 0.0,
			"0.006": 0.0,
			"0.007": 0.0,
			"0.008": 0.0,
			"0.009": 0.0,
			"0.01": 0.0,
			"0.011": 0.0,
			"0.012": 0.0,
			"0.013": 0.0,
			"0.014": 0.0,
			"0.015": 0.0,
			"0.016": 0.0,
			"0.017": 0.0,
			"0.018": 0.0,
			"0.019": 0.0,
			"0.02": 0.0,
			"0.021": 0.0,
			"0.022": 0.0,
			"0.023": 0.0,
			"0.024": 0.0,
			"0.025": 0.0
		}
	}
}
