{
	 "smiles": "[O-][N+](=O)C1=CC=CC(C#N)=C1C#N", 
	 "Tm": 436.65, 
	 "num_atms": 16, 
	 "gaussian": { 
		 "optdone": 1, 
		 "sigma_profile": "yes", 
		 "theory": "DFT", 
		 "functional": "B3LYP", 
		 "basiset": "6-31G**", 
		 "properties": { 
			 "R2extent": 2722.9254, 
			 "electric_dipole_moment_norm": 7.27619960762, 
			 "electric_quadrupole_moment_norm": 14.872824606, 
			 "total_energy": -621.20339034, 
			 "HOMO_LUMO_gap": 0.17632, 
			 "cosmo_polarized_energy": -18.88, 
			 "cosmo_cavitation_energy": 24.04, 
			 "cosmo_dispersion_energy": -16.43, 
			 "cosmo_repulsion_energy": 1.29, 
			 "cosmo_total_nonelectrostatic_energy": 8.9, 
			 "SMD_solvation_energy": 8.71 
		},
		"coords": [
			{
				"x": 1.8232059611,
				"y": -1.044960777,
				"z": 3.140391643,
				"element": "O" 
			},
			{
				"x": 0.7550167656,
				"y": -0.5013809844,
				"z": 3.3946734018,
				"element": "N" 
			},
			{
				"x": 0.2454564025,
				"y": -0.4198358207,
				"z": 4.5097147042,
				"element": "O" 
			},
			{
				"x": 0.0110157074,
				"y": 0.1101321102,
				"z": 2.2703274934,
				"element": "C" 
			},
			{
				"x": -1.1993663684,
				"y": 0.7272221099,
				"z": 2.5721805971,
				"element": "C" 
			},
			{
				"x": -1.9458589553,
				"y": 1.3208353392,
				"z": 1.5576054047,
				"element": "C" 
			},
			{
				"x": -1.4801708269,
				"y": 1.2952089045,
				"z": 0.2465409504,
				"element": "C" 
			},
			{
				"x": -0.2607899713,
				"y": 0.6738608651,
				"z": -0.0600178096,
				"element": "C" 
			},
			{
				"x": 0.1852512769,
				"y": 0.6681010542,
				"z": -1.4224329626,
				"element": "C" 
			},
			{
				"x": 0.5030055505,
				"y": 0.690054109,
				"z": -2.5402128418,
				"element": "N" 
			},
			{
				"x": 0.5160084597,
				"y": 0.062967738,
				"z": 0.9585832992,
				"element": "C" 
			},
			{
				"x": 1.7517260092,
				"y": -0.5545537748,
				"z": 0.5794864662,
				"element": "C" 
			},
			{
				"x": 2.7216521206,
				"y": -1.0127340839,
				"z": 0.1310876787,
				"element": "N" 
			},
			{
				"x": -1.5317948165,
				"y": 0.7286059756,
				"z": 3.6022882529,
				"element": "H" 
			},
			{
				"x": -2.8892552582,
				"y": 1.8023185382,
				"z": 1.7908326166,
				"element": "H" 
			},
			{
				"x": -2.0503020567,
				"y": 1.7530586969,
				"z": -0.5541488942,
				"element": "H" 
			}
		],
		 "valence_orbital": [ 
			{
				"type": "occ",
				"energy": -0.33893,
				"method": "rhf"
			},
			{
				"type": "occ",
				"energy": -0.3347,
				"method": "rhf"
			},
			{
				"type": "occ",
				"energy": -0.32037,
				"method": "rhf"
			},
			{
				"type": "occ",
				"energy": -0.3159,
				"method": "rhf"
			},
			{
				"type": "occ",
				"energy": -0.30518,
				"method": "rhf"
			},
			{
				"type": "unocc",
				"energy": -0.12886,
				"method": "rhf"
			},
			{
				"type": "unocc",
				"energy": -0.10584,
				"method": "rhf"
			},
			{
				"type": "unocc",
				"energy": -0.04958,
				"method": "rhf"
			},
			{
				"type": "unocc",
				"energy": -0.00123,
				"method": "rhf"
			},
			{
				"type": "unocc",
				"energy": 0.01525,
				"method": "rhf"
			}
		],
		"cosmo_sigma_profile": { 
			"-0.025": 0.0,
			"-0.024": 0.0,
			"-0.023": 0.0,
			"-0.022": 0.0,
			"-0.021": 0.0,
			"-0.02": 0.0,
			"-0.019": 0.0,
			"-0.018": 0.0,
			"-0.017": 0.0,
			"-0.016": 0.0,
			"-0.015": 0.0,
			"-0.014": 0.0,
			"-0.013": 0.0,
			"-0.012": 0.0,
			"-0.011": 0.736674864374,
			"-0.01": 5.67827161444,
			"-0.009": 11.0197281434,
			"-0.008": 7.76062207992,
			"-0.007": 8.94615393264,
			"-0.006": 11.1351729188,
			"-0.005": 15.5580285827,
			"-0.004": 14.5420875547,
			"-0.003": 11.9560408942,
			"-0.002": 10.5479853734,
			"-0.001": 5.56369106115,
			"0.0": 3.51411310217,
			"0.001": 5.30077220557,
			"0.002": 5.7090339045,
			"0.003": 6.77091426413,
			"0.004": 7.34576400258,
			"0.005": 9.00963944418,
			"0.006": 13.7738701268,
			"0.007": 14.8306389139,
			"0.008": 9.48351132586,
			"0.009": 7.1744300285,
			"0.01": 4.88928950324,
			"0.011": 4.44502207483,
			"0.012": 1.31278656084,
			"0.013": 0.0,
			"0.014": 0.0,
			"0.015": 0.0,
			"0.016": 0.0,
			"0.017": 0.0,
			"0.018": 0.0,
			"0.019": 0.0,
			"0.02": 0.0,
			"0.021": 0.0,
			"0.022": 0.0,
			"0.023": 0.0,
			"0.024": 0.0,
			"0.025": 0.0
		}
	}
}
