{
	 "smiles": "CC(C)(C)C1=CC=C(OC2=C(C=C(C=O)C=C2)[N+]([O-])=O)C=C1", 
	 "Tm": 430.15, 
	 "num_atms": 39, 
	 "gaussian": { 
		 "optdone": 1, 
		 "sigma_profile": "yes", 
		 "theory": "DFT", 
		 "functional": "B3LYP", 
		 "basiset": "6-31G**", 
		 "properties": { 
			 "R2extent": 9953.7452, 
			 "electric_dipole_moment_norm": 4.80446229458, 
			 "electric_quadrupole_moment_norm": 23.1139579672, 
			 "total_energy": -1013.58542433, 
			 "HOMO_LUMO_gap": 0.13896, 
			 "cosmo_polarized_energy": -14.74, 
			 "cosmo_cavitation_energy": 43.06, 
			 "cosmo_dispersion_energy": -29.14, 
			 "cosmo_repulsion_energy": 2.21, 
			 "cosmo_total_nonelectrostatic_energy": 16.14, 
			 "SMD_solvation_energy": 10.84 
		},
		"coords": [
			{
				"x": -0.3180050595,
				"y": 2.8872101082,
				"z": 3.2864921871,
				"element": "C" 
			},
			{
				"x": 0.0460957148,
				"y": 3.1152504641,
				"z": 1.7999325109,
				"element": "C" 
			},
			{
				"x": -0.2802744023,
				"y": 4.578288142,
				"z": 1.4448382702,
				"element": "C" 
			},
			{
				"x": 1.565938844,
				"y": 2.8990553003,
				"z": 1.6052525627,
				"element": "C" 
			},
			{
				"x": -0.7290153797,
				"y": 2.1158656028,
				"z": 0.9219839627,
				"element": "C" 
			},
			{
				"x": -0.5539947837,
				"y": 0.7348884916,
				"z": 1.1086691789,
				"element": "C" 
			},
			{
				"x": -1.2307018322,
				"y": -0.2095884444,
				"z": 0.3387024227,
				"element": "C" 
			},
			{
				"x": -2.1002166335,
				"y": 0.229426353,
				"z": -0.6584248263,
				"element": "C" 
			},
			{
				"x": -2.8668890154,
				"y": -0.6491721858,
				"z": -1.4235100944,
				"element": "O" 
			},
			{
				"x": -2.4249349542,
				"y": -1.8942343055,
				"z": -1.73496004,
				"element": "C" 
			},
			{
				"x": -1.1732569092,
				"y": -2.20143077,
				"z": -2.3187440202,
				"element": "C" 
			},
			{
				"x": -0.8162139273,
				"y": -3.5166097243,
				"z": -2.5869363712,
				"element": "C" 
			},
			{
				"x": -1.713135933,
				"y": -4.557148534,
				"z": -2.3268328574,
				"element": "C" 
			},
			{
				"x": -1.3360132525,
				"y": -5.9558569303,
				"z": -2.6338393872,
				"element": "C" 
			},
			{
				"x": -0.2684335868,
				"y": -6.2903836733,
				"z": -3.1081725149,
				"element": "O" 
			},
			{
				"x": -2.9702352892,
				"y": -4.2583007502,
				"z": -1.7830210447,
				"element": "C" 
			},
			{
				"x": -3.3140692679,
				"y": -2.9473896244,
				"z": -1.4803881761,
				"element": "C" 
			},
			{
				"x": -0.2250505547,
				"y": -1.1578427049,
				"z": -2.7384367906,
				"element": "N" 
			},
			{
				"x": -0.6935240057,
				"y": -0.0889225113,
				"z": -3.1216425941,
				"element": "O" 
			},
			{
				"x": 0.970709905,
				"y": -1.443188224,
				"z": -2.7160254804,
				"element": "O" 
			},
			{
				"x": -2.3052346278,
				"y": 1.5872036687,
				"z": -0.8708299648,
				"element": "C" 
			},
			{
				"x": -1.6239722287,
				"y": 2.5141087985,
				"z": -0.0821009951,
				"element": "C" 
			},
			{
				"x": 0.2313078917,
				"y": 3.5879988261,
				"z": 3.9252143949,
				"element": "H" 
			},
			{
				"x": -1.3888395864,
				"y": 3.0408566415,
				"z": 3.4561333473,
				"element": "H" 
			},
			{
				"x": -0.0697917041,
				"y": 1.8739721732,
				"z": 3.6165542165,
				"element": "H" 
			},
			{
				"x": -0.015934496,
				"y": 4.8153419275,
				"z": 0.4090743429,
				"element": "H" 
			},
			{
				"x": 0.2920066634,
				"y": 5.250323028,
				"z": 2.0923238945,
				"element": "H" 
			},
			{
				"x": -1.3414601025,
				"y": 4.8068259338,
				"z": 1.5895363816,
				"element": "H" 
			},
			{
				"x": 1.8537631128,
				"y": 3.0587053952,
				"z": 0.5611719368,
				"element": "H" 
			},
			{
				"x": 2.1333874379,
				"y": 3.6011462632,
				"z": 2.2265444031,
				"element": "H" 
			},
			{
				"x": 1.8727573643,
				"y": 1.8864516436,
				"z": 1.8837969552,
				"element": "H" 
			},
			{
				"x": 0.1213272061,
				"y": 0.374563423,
				"z": 1.8786922902,
				"element": "H" 
			},
			{
				"x": -1.0860961978,
				"y": -1.2694652326,
				"z": 0.5217475941,
				"element": "H" 
			},
			{
				"x": 0.1542581512,
				"y": -3.7348569285,
				"z": -3.0176209687,
				"element": "H" 
			},
			{
				"x": -2.119628927,
				"y": -6.7082065116,
				"z": -2.3942779828,
				"element": "H" 
			},
			{
				"x": -3.6740049928,
				"y": -5.0618370111,
				"z": -1.5802605376,
				"element": "H" 
			},
			{
				"x": -4.2694256186,
				"y": -2.6982982974,
				"z": -1.0318388966,
				"element": "H" 
			},
			{
				"x": -2.9831614033,
				"y": 1.9049250602,
				"z": -1.6553134852,
				"element": "H" 
			},
			{
				"x": -1.7976376194,
				"y": 3.5666251193,
				"z": -0.2721838238,
				"element": "H" 
			}
		],
		 "valence_orbital": [ 
			{
				"type": "occ",
				"energy": -0.28599,
				"method": "rhf"
			},
			{
				"type": "occ",
				"energy": -0.27439,
				"method": "rhf"
			},
			{
				"type": "occ",
				"energy": -0.26936,
				"method": "rhf"
			},
			{
				"type": "occ",
				"energy": -0.25839,
				"method": "rhf"
			},
			{
				"type": "occ",
				"energy": -0.23143,
				"method": "rhf"
			},
			{
				"type": "unocc",
				"energy": -0.09247,
				"method": "rhf"
			},
			{
				"type": "unocc",
				"energy": -0.07784,
				"method": "rhf"
			},
			{
				"type": "unocc",
				"energy": -0.02428,
				"method": "rhf"
			},
			{
				"type": "unocc",
				"energy": -0.01027,
				"method": "rhf"
			},
			{
				"type": "unocc",
				"energy": -0.0008,
				"method": "rhf"
			}
		],
		"cosmo_sigma_profile": { 
			"-0.025": 0.0,
			"-0.024": 0.0,
			"-0.023": 0.0,
			"-0.022": 0.0,
			"-0.021": 0.0,
			"-0.02": 0.0,
			"-0.019": 0.0,
			"-0.018": 0.0,
			"-0.017": 0.0,
			"-0.016": 0.0,
			"-0.015": 0.0,
			"-0.014": 0.0,
			"-0.013": 0.0,
			"-0.012": 0.0,
			"-0.011": 0.0,
			"-0.01": 0.327418871499,
			"-0.009": 3.47824808756,
			"-0.008": 6.53146721057,
			"-0.007": 10.537643825,
			"-0.006": 13.301875165,
			"-0.005": 17.8936110561,
			"-0.004": 18.1048778635,
			"-0.003": 27.7798248948,
			"-0.002": 40.2467174725,
			"-0.001": 35.5623183658,
			"0.0": 31.4568616065,
			"0.001": 32.8528904178,
			"0.002": 18.3173294513,
			"0.003": 13.41629035,
			"0.004": 12.8272682379,
			"0.005": 11.6979501812,
			"0.006": 9.21967669933,
			"0.007": 13.66267138,
			"0.008": 8.55767154471,
			"0.009": 5.82301951787,
			"0.01": 4.23516619864,
			"0.011": 4.04711375322,
			"0.012": 1.53104792826,
			"0.013": 0.201015385783,
			"0.014": 0.0,
			"0.015": 0.0,
			"0.016": 0.0,
			"0.017": 0.0,
			"0.018": 0.0,
			"0.019": 0.0,
			"0.02": 0.0,
			"0.021": 0.0,
			"0.022": 0.0,
			"0.023": 0.0,
			"0.024": 0.0,
			"0.025": 0.0
		}
	}
}
