{
	 "smiles": "CCOC1=C(OCC(=O)N2CCCCC2)C=CC(=C1)C(O)=O", 
	 "Tm": 403.15, 
	 "num_atms": 43, 
	 "gaussian": { 
		 "optdone": 1, 
		 "sigma_profile": "yes", 
		 "theory": "DFT", 
		 "functional": "B3LYP", 
		 "basiset": "6-31G**", 
		 "properties": { 
			 "R2extent": 9807.9476, 
			 "electric_dipole_moment_norm": 8.50868332764, 
			 "electric_quadrupole_moment_norm": 28.1024642825, 
			 "total_energy": -1053.23204611, 
			 "HOMO_LUMO_gap": 0.19341, 
			 "cosmo_polarized_energy": -22.41, 
			 "cosmo_cavitation_energy": 45.15, 
			 "cosmo_dispersion_energy": -30.73, 
			 "cosmo_repulsion_energy": 2.38, 
			 "cosmo_total_nonelectrostatic_energy": 16.79, 
			 "SMD_solvation_energy": 8.51 
		},
		"coords": [
			{
				"x": 2.9179267799,
				"y": -2.8494872333,
				"z": -1.5769755856,
				"element": "C" 
			},
			{
				"x": 1.7328801715,
				"y": -2.7564919737,
				"z": -0.6334503274,
				"element": "C" 
			},
			{
				"x": 2.1714843305,
				"y": -2.0752403167,
				"z": 0.5524222706,
				"element": "O" 
			},
			{
				"x": 1.2101088957,
				"y": -1.8814348517,
				"z": 1.5121089839,
				"element": "C" 
			},
			{
				"x": 0.3027607669,
				"y": -0.7994476815,
				"z": 1.4086498519,
				"element": "C" 
			},
			{
				"x": 0.4272003752,
				"y": -0.0292113293,
				"z": 0.2859179596,
				"element": "O" 
			},
			{
				"x": -0.2288606746,
				"y": 1.2408648041,
				"z": 0.2416274235,
				"element": "C" 
			},
			{
				"x": -1.7341835084,
				"y": 1.1712706951,
				"z": -0.0805367951,
				"element": "C" 
			},
			{
				"x": -2.5531167881,
				"y": 1.5026934809,
				"z": 0.7789117299,
				"element": "O" 
			},
			{
				"x": -2.1054,
				"y": 0.7616768606,
				"z": -1.3242794564,
				"element": "N" 
			},
			{
				"x": -1.1726136812,
				"y": 0.3598602882,
				"z": -2.3891498609,
				"element": "C" 
			},
			{
				"x": -1.7927095241,
				"y": -0.7612786291,
				"z": -3.2307458516,
				"element": "C" 
			},
			{
				"x": -3.1096936031,
				"y": -0.3144279056,
				"z": -3.9099950002,
				"element": "C" 
			},
			{
				"x": -3.7782576124,
				"y": 0.8425854536,
				"z": -3.1365176489,
				"element": "C" 
			},
			{
				"x": -3.5487606136,
				"y": 0.7345547646,
				"z": -1.6290383671,
				"element": "C" 
			},
			{
				"x": -0.6256986021,
				"y": -0.5725950336,
				"z": 2.4297093964,
				"element": "C" 
			},
			{
				"x": -0.6526426756,
				"y": -1.4177941348,
				"z": 3.5402064256,
				"element": "C" 
			},
			{
				"x": 0.2332561607,
				"y": -2.4947867207,
				"z": 3.6501184787,
				"element": "C" 
			},
			{
				"x": 1.1693114105,
				"y": -2.7065836536,
				"z": 2.6259011364,
				"element": "C" 
			},
			{
				"x": 0.2635047918,
				"y": -3.4274995738,
				"z": 4.8183091535,
				"element": "C" 
			},
			{
				"x": -0.8423219919,
				"y": -3.4521428179,
				"z": 5.6135935015,
				"element": "O" 
			},
			{
				"x": 1.2026182762,
				"y": -4.1447878428,
				"z": 5.0763806109,
				"element": "O" 
			},
			{
				"x": 2.6318988273,
				"y": -3.374846345,
				"z": -2.4937134322,
				"element": "H" 
			},
			{
				"x": 3.741099633,
				"y": -3.3946459955,
				"z": -1.1067723795,
				"element": "H" 
			},
			{
				"x": 3.2755563528,
				"y": -1.8508260323,
				"z": -1.8434405588,
				"element": "H" 
			},
			{
				"x": 1.3636558897,
				"y": -3.7562013018,
				"z": -0.3632779814,
				"element": "H" 
			},
			{
				"x": 0.9039743512,
				"y": -2.2044329151,
				"z": -1.0955297506,
				"element": "H" 
			},
			{
				"x": 0.3099696855,
				"y": 1.8101232669,
				"z": -0.5211153576,
				"element": "H" 
			},
			{
				"x": -0.1375957061,
				"y": 1.7598813272,
				"z": 1.1990133821,
				"element": "H" 
			},
			{
				"x": -0.2447579561,
				"y": 0.0114351179,
				"z": -1.936721844,
				"element": "H" 
			},
			{
				"x": -0.9311598876,
				"y": 1.2201881722,
				"z": -3.0315816073,
				"element": "H" 
			},
			{
				"x": -1.0627061568,
				"y": -1.0944989645,
				"z": -3.9757425124,
				"element": "H" 
			},
			{
				"x": -1.9782697185,
				"y": -1.6155444246,
				"z": -2.5694375267,
				"element": "H" 
			},
			{
				"x": -2.918399914,
				"y": 0.0027256895,
				"z": -4.9409467176,
				"element": "H" 
			},
			{
				"x": -3.7925016056,
				"y": -1.168853197,
				"z": -3.9719538731,
				"element": "H" 
			},
			{
				"x": -3.3812472048,
				"y": 1.8047478357,
				"z": -3.4820500463,
				"element": "H" 
			},
			{
				"x": -4.8551230815,
				"y": 0.8664712754,
				"z": -3.3321865214,
				"element": "H" 
			},
			{
				"x": -4.0171652864,
				"y": 1.5592033796,
				"z": -1.0882445399,
				"element": "H" 
			},
			{
				"x": -3.9914471695,
				"y": -0.1918936884,
				"z": -1.2362570511,
				"element": "H" 
			},
			{
				"x": -1.3343749348,
				"y": 0.244643845,
				"z": 2.3575079789,
				"element": "H" 
			},
			{
				"x": -1.3593708282,
				"y": -1.188220036,
				"z": 4.3339888324,
				"element": "H" 
			},
			{
				"x": 1.8831004994,
				"y": -3.5179120817,
				"z": 2.7143749647,
				"element": "H" 
			},
			{
				"x": -1.5614284728,
				"y": -2.9575415766,
				"z": 5.1974185127,
				"element": "H" 
			}
		],
		 "valence_orbital": [ 
			{
				"type": "occ",
				"energy": -0.2673,
				"method": "rhf"
			},
			{
				"type": "occ",
				"energy": -0.25952,
				"method": "rhf"
			},
			{
				"type": "occ",
				"energy": -0.25444,
				"method": "rhf"
			},
			{
				"type": "occ",
				"energy": -0.24888,
				"method": "rhf"
			},
			{
				"type": "occ",
				"energy": -0.23123,
				"method": "rhf"
			},
			{
				"type": "unocc",
				"energy": -0.03782,
				"method": "rhf"
			},
			{
				"type": "unocc",
				"energy": -0.01249,
				"method": "rhf"
			},
			{
				"type": "unocc",
				"energy": -0.0038,
				"method": "rhf"
			},
			{
				"type": "unocc",
				"energy": 0.05423,
				"method": "rhf"
			},
			{
				"type": "unocc",
				"energy": 0.06121,
				"method": "rhf"
			}
		],
		"cosmo_sigma_profile": { 
			"-0.025": 0.0,
			"-0.024": 0.0,
			"-0.023": 0.0,
			"-0.022": 0.0,
			"-0.021": 0.0,
			"-0.02": 0.0,
			"-0.019": 0.267258990071,
			"-0.018": 0.777956345132,
			"-0.017": 0.666812780899,
			"-0.016": 1.12969113618,
			"-0.015": 0.630389391714,
			"-0.014": 0.730308798757,
			"-0.013": 1.56535983814,
			"-0.012": 1.62819672546,
			"-0.011": 0.774621143468,
			"-0.01": 0.784492353378,
			"-0.009": 1.07750538966,
			"-0.008": 3.35829104875,
			"-0.007": 6.56755068051,
			"-0.006": 7.93503478301,
			"-0.005": 9.66058448303,
			"-0.004": 28.6964343111,
			"-0.003": 49.7399673303,
			"-0.002": 52.1692900239,
			"-0.001": 35.6919279956,
			"0.0": 33.536929021,
			"0.001": 19.9461642918,
			"0.002": 16.1969292639,
			"0.003": 13.0592003246,
			"0.004": 7.3344137022,
			"0.005": 5.29634123693,
			"0.006": 4.98977820503,
			"0.007": 5.86146558517,
			"0.008": 5.88728735742,
			"0.009": 5.68962551466,
			"0.01": 7.75307924885,
			"0.011": 8.5918214997,
			"0.012": 8.35488888236,
			"0.013": 5.18674540475,
			"0.014": 3.38216284857,
			"0.015": 0.0215931069805,
			"0.016": 0.0,
			"0.017": 0.0,
			"0.018": 0.0,
			"0.019": 0.0,
			"0.02": 0.0,
			"0.021": 0.0,
			"0.022": 0.0,
			"0.023": 0.0,
			"0.024": 0.0,
			"0.025": 0.0
		}
	}
}
