{
	 "smiles": "COC1=C(C=CC=C1)C(NC(=O)OC(C)(C)C)C(N)=NO", 
	 "Tm": 459.15, 
	 "num_atms": 42, 
	 "gaussian": { 
		 "optdone": 1, 
		 "sigma_profile": "yes", 
		 "theory": "DFT", 
		 "functional": "B3LYP", 
		 "basiset": "6-31G**", 
		 "properties": { 
			 "R2extent": 8326.6705, 
			 "electric_dipole_moment_norm": 5.30798717029, 
			 "electric_quadrupole_moment_norm": 6.79106023828, 
			 "total_energy": -1011.27303359, 
			 "HOMO_LUMO_gap": 0.19006, 
			 "cosmo_polarized_energy": -20.03, 
			 "cosmo_cavitation_energy": 44.57, 
			 "cosmo_dispersion_energy": -30.08, 
			 "cosmo_repulsion_energy": 2.39, 
			 "cosmo_total_nonelectrostatic_energy": 16.88, 
			 "SMD_solvation_energy": 8.79 
		},
		"coords": [
			{
				"x": 1.3837248918,
				"y": 2.4982880996,
				"z": 0.5862152218,
				"element": "C" 
			},
			{
				"x": 1.1666247612,
				"y": 1.0961634743,
				"z": 0.4644739354,
				"element": "O" 
			},
			{
				"x": 0.7630020898,
				"y": 0.5917908893,
				"z": -0.7587571584,
				"element": "C" 
			},
			{
				"x": 0.4344078599,
				"y": -0.7791588366,
				"z": -0.7916707721,
				"element": "C" 
			},
			{
				"x": 0.0496613476,
				"y": -1.326879308,
				"z": -2.0174095415,
				"element": "C" 
			},
			{
				"x": -0.0219695654,
				"y": -0.5568071311,
				"z": -3.1803502045,
				"element": "C" 
			},
			{
				"x": 0.2926436395,
				"y": 0.7969605421,
				"z": -3.1215541448,
				"element": "C" 
			},
			{
				"x": 0.6854041774,
				"y": 1.3762785199,
				"z": -1.9119125274,
				"element": "C" 
			},
			{
				"x": 0.473051872,
				"y": -1.6857080704,
				"z": 0.4431407904,
				"element": "C" 
			},
			{
				"x": -0.2232674184,
				"y": -1.1216269421,
				"z": 1.5895579333,
				"element": "N" 
			},
			{
				"x": -1.4196401551,
				"y": -1.6234150459,
				"z": 2.018386337,
				"element": "C" 
			},
			{
				"x": -1.9645089768,
				"y": -2.6164074991,
				"z": 1.5620505479,
				"element": "O" 
			},
			{
				"x": -1.8870626936,
				"y": -0.8423480006,
				"z": 3.0271562098,
				"element": "O" 
			},
			{
				"x": -3.144167997,
				"y": -1.1719359483,
				"z": 3.7112283937,
				"element": "C" 
			},
			{
				"x": -3.0309966803,
				"y": -2.5406870733,
				"z": 4.391783901,
				"element": "C" 
			},
			{
				"x": -4.3143121968,
				"y": -1.1112469322,
				"z": 2.7227775941,
				"element": "C" 
			},
			{
				"x": -3.2576438405,
				"y": -0.0562423812,
				"z": 4.7540699639,
				"element": "C" 
			},
			{
				"x": 1.8825022145,
				"y": -2.1408802988,
				"z": 0.7945514675,
				"element": "C" 
			},
			{
				"x": 2.7650596132,
				"y": -1.2454127493,
				"z": 1.3441872317,
				"element": "N" 
			},
			{
				"x": 2.1325431273,
				"y": -3.3865684845,
				"z": 0.5689627128,
				"element": "N" 
			},
			{
				"x": 3.4949705085,
				"y": -3.6613149809,
				"z": 0.9097002727,
				"element": "O" 
			},
			{
				"x": 0.481198204,
				"y": 3.0633196177,
				"z": 0.3265426793,
				"element": "H" 
			},
			{
				"x": 1.6326555841,
				"y": 2.6740415783,
				"z": 1.6337672066,
				"element": "H" 
			},
			{
				"x": 2.2157787849,
				"y": 2.8334905427,
				"z": -0.0444526156,
				"element": "H" 
			},
			{
				"x": -0.2027567837,
				"y": -2.382842524,
				"z": -2.053464428,
				"element": "H" 
			},
			{
				"x": -0.3284346638,
				"y": -1.0122063375,
				"z": -4.1166876318,
				"element": "H" 
			},
			{
				"x": 0.2369837306,
				"y": 1.4150139645,
				"z": -4.0128441951,
				"element": "H" 
			},
			{
				"x": 0.9324187885,
				"y": 2.4305894781,
				"z": -1.8819775162,
				"element": "H" 
			},
			{
				"x": -0.0692954092,
				"y": -2.5993907422,
				"z": 0.1968920694,
				"element": "H" 
			},
			{
				"x": 0.0874331962,
				"y": -0.24225619,
				"z": 1.9711310009,
				"element": "H" 
			},
			{
				"x": -3.9273983772,
				"y": -2.7292349295,
				"z": 4.991818133,
				"element": "H" 
			},
			{
				"x": -2.1638618251,
				"y": -2.5615024656,
				"z": 5.0595309957,
				"element": "H" 
			},
			{
				"x": -2.926484029,
				"y": -3.3352995878,
				"z": 3.6527891382,
				"element": "H" 
			},
			{
				"x": -5.2587995122,
				"y": -1.2447414555,
				"z": 3.2606138775,
				"element": "H" 
			},
			{
				"x": -4.2246571303,
				"y": -1.8906801044,
				"z": 1.9659728452,
				"element": "H" 
			},
			{
				"x": -4.3411733248,
				"y": -0.1358802259,
				"z": 2.2261837605,
				"element": "H" 
			},
			{
				"x": -4.1692371185,
				"y": -0.1845163765,
				"z": 5.3454018321,
				"element": "H" 
			},
			{
				"x": -2.3991585089,
				"y": -0.073106085,
				"z": 5.4319190425,
				"element": "H" 
			},
			{
				"x": -3.2946309936,
				"y": 0.9236163559,
				"z": 4.268662641,
				"element": "H" 
			},
			{
				"x": 3.7243085807,
				"y": -1.5611887585,
				"z": 1.3631202459,
				"element": "H" 
			},
			{
				"x": 2.6045905674,
				"y": -0.2686072206,
				"z": 1.1447233893,
				"element": "H" 
			},
			{
				"x": 3.5648936613,
				"y": -4.597760377,
				"z": 0.6902693655,
				"element": "H" 
			}
		],
		 "valence_orbital": [ 
			{
				"type": "occ",
				"energy": -0.2549,
				"method": "rhf"
			},
			{
				"type": "occ",
				"energy": -0.25427,
				"method": "rhf"
			},
			{
				"type": "occ",
				"energy": -0.24209,
				"method": "rhf"
			},
			{
				"type": "occ",
				"energy": -0.23214,
				"method": "rhf"
			},
			{
				"type": "occ",
				"energy": -0.20204,
				"method": "rhf"
			},
			{
				"type": "unocc",
				"energy": -0.01198,
				"method": "rhf"
			},
			{
				"type": "unocc",
				"energy": 0.00163,
				"method": "rhf"
			},
			{
				"type": "unocc",
				"energy": 0.04802,
				"method": "rhf"
			},
			{
				"type": "unocc",
				"energy": 0.07017,
				"method": "rhf"
			},
			{
				"type": "unocc",
				"energy": 0.07433,
				"method": "rhf"
			}
		],
		"cosmo_sigma_profile": { 
			"-0.025": 0.0,
			"-0.024": 0.0,
			"-0.023": 0.0,
			"-0.022": 0.0,
			"-0.021": 0.0,
			"-0.02": 0.0,
			"-0.019": 0.0,
			"-0.018": 0.0,
			"-0.017": 0.253469551675,
			"-0.016": 0.740308121507,
			"-0.015": 0.861042916449,
			"-0.014": 1.16892184687,
			"-0.013": 0.463424494608,
			"-0.012": 1.06323563142,
			"-0.011": 1.07465091973,
			"-0.01": 1.54180092893,
			"-0.009": 2.23423043502,
			"-0.008": 3.36043342836,
			"-0.007": 6.19309698635,
			"-0.006": 17.0671543343,
			"-0.005": 20.3924748901,
			"-0.004": 31.9935085674,
			"-0.003": 34.4913486541,
			"-0.002": 25.541000075,
			"-0.001": 25.6181481201,
			"0.0": 31.8335823742,
			"0.001": 30.8992426913,
			"0.002": 17.7169043907,
			"0.003": 14.6691287907,
			"0.004": 16.3106287142,
			"0.005": 16.3998102727,
			"0.006": 9.36100506149,
			"0.007": 7.70945104111,
			"0.008": 8.25059826257,
			"0.009": 5.19047119641,
			"0.01": 4.5194012356,
			"0.011": 4.16774576457,
			"0.012": 3.24310924664,
			"0.013": 3.91381348511,
			"0.014": 1.41558865065,
			"0.015": 0.489406266247,
			"0.016": 0.0375480279708,
			"0.017": 0.0,
			"0.018": 0.0,
			"0.019": 0.0,
			"0.02": 0.0,
			"0.021": 0.0,
			"0.022": 0.0,
			"0.023": 0.0,
			"0.024": 0.0,
			"0.025": 0.0
		}
	}
}
