{
	 "smiles": "COC(=O)C=CC1=CC=C(C(C=CC(=O)OC)=C1)[N+]([O-])=O", 
	 "Tm": 473.15, 
	 "num_atms": 34, 
	 "gaussian": { 
		 "optdone": 1, 
		 "sigma_profile": "yes", 
		 "theory": "DFT", 
		 "functional": "B3LYP", 
		 "basiset": "6-31G**", 
		 "properties": { 
			 "R2extent": 11178.4441, 
			 "electric_dipole_moment_norm": 2.64373980944, 
			 "electric_quadrupole_moment_norm": 8.74756107952, 
			 "total_energy": -1047.2960266, 
			 "HOMO_LUMO_gap": 0.14536, 
			 "cosmo_polarized_energy": -18.72, 
			 "cosmo_cavitation_energy": 41.66, 
			 "cosmo_dispersion_energy": -29.26, 
			 "cosmo_repulsion_energy": 2.25, 
			 "cosmo_total_nonelectrostatic_energy": 14.64, 
			 "SMD_solvation_energy": 12.76 
		},
		"coords": [
			{
				"x": 2.3259811479,
				"y": -5.0966347017,
				"z": 3.5933031926,
				"element": "C" 
			},
			{
				"x": 2.077375686,
				"y": -3.8077564509,
				"z": 3.0103490924,
				"element": "O" 
			},
			{
				"x": 2.2392577744,
				"y": -2.7571643472,
				"z": 3.8486407151,
				"element": "C" 
			},
			{
				"x": 2.5698051955,
				"y": -2.8723649055,
				"z": 5.0131667884,
				"element": "O" 
			},
			{
				"x": 1.9735252489,
				"y": -1.4517049164,
				"z": 3.2059397503,
				"element": "C" 
			},
			{
				"x": 1.6071593213,
				"y": -1.302193071,
				"z": 1.9207806052,
				"element": "C" 
			},
			{
				"x": 1.3309849702,
				"y": -0.0388038939,
				"z": 1.2302143209,
				"element": "C" 
			},
			{
				"x": 1.4091389406,
				"y": 1.2200543943,
				"z": 1.8525537398,
				"element": "C" 
			},
			{
				"x": 1.1445192573,
				"y": 2.3715129457,
				"z": 1.1266221889,
				"element": "C" 
			},
			{
				"x": 0.8077917671,
				"y": 2.2950155276,
				"z": -0.2256006226,
				"element": "C" 
			},
			{
				"x": 0.6774693464,
				"y": 1.0586928097,
				"z": -0.8939105882,
				"element": "C" 
			},
			{
				"x": 0.2106092707,
				"y": 0.7992087793,
				"z": -2.2637034849,
				"element": "C" 
			},
			{
				"x": -0.5513734124,
				"y": 1.5487633157,
				"z": -3.0749973322,
				"element": "C" 
			},
			{
				"x": -0.9587911551,
				"y": 0.9940585171,
				"z": -4.3888277569,
				"element": "C" 
			},
			{
				"x": -0.6591007303,
				"y": -0.1029065327,
				"z": -4.8215313435,
				"element": "O" 
			},
			{
				"x": -1.72631537,
				"y": 1.8805095814,
				"z": -5.0605429014,
				"element": "O" 
			},
			{
				"x": -2.1736699325,
				"y": 1.4469094379,
				"z": -6.3541995673,
				"element": "C" 
			},
			{
				"x": 0.9631630942,
				"y": -0.082460952,
				"z": -0.1227584832,
				"element": "C" 
			},
			{
				"x": 0.6632549449,
				"y": 3.5944024663,
				"z": -0.9062308152,
				"element": "N" 
			},
			{
				"x": 1.1242132617,
				"y": 3.704860436,
				"z": -2.0392139441,
				"element": "O" 
			},
			{
				"x": 0.124647034,
				"y": 4.4998404596,
				"z": -0.2697900516,
				"element": "O" 
			},
			{
				"x": 2.1531489806,
				"y": -5.8185919294,
				"z": 2.7953703103,
				"element": "H" 
			},
			{
				"x": 3.3549433618,
				"y": -5.1632955251,
				"z": 3.9554985228,
				"element": "H" 
			},
			{
				"x": 1.6464481759,
				"y": -5.2783661624,
				"z": 4.4297256124,
				"element": "H" 
			},
			{
				"x": 2.1048248211,
				"y": -0.6125452593,
				"z": 3.8811706831,
				"element": "H" 
			},
			{
				"x": 1.5014440821,
				"y": -2.2010560552,
				"z": 1.3184852704,
				"element": "H" 
			},
			{
				"x": 1.6830919944,
				"y": 1.3051318955,
				"z": 2.8982173512,
				"element": "H" 
			},
			{
				"x": 1.2070524682,
				"y": 3.3494809278,
				"z": 1.5882946911,
				"element": "H" 
			},
			{
				"x": 0.4602491632,
				"y": -0.1915170222,
				"z": -2.6399380732,
				"element": "H" 
			},
			{
				"x": -0.8980257464,
				"y": 2.5468528605,
				"z": -2.8407285149,
				"element": "H" 
			},
			{
				"x": -2.7701450321,
				"y": 2.2684106015,
				"z": -6.7503598658,
				"element": "H" 
			},
			{
				"x": -2.776940252,
				"y": 0.5393954374,
				"z": -6.2686370785,
				"element": "H" 
			},
			{
				"x": -1.3210542596,
				"y": 1.2414149092,
				"z": -7.0064608028,
				"element": "H" 
			},
			{
				"x": 0.8743165822,
				"y": -1.0522535776,
				"z": -0.6044016087,
				"element": "H" 
			}
		],
		 "valence_orbital": [ 
			{
				"type": "occ",
				"energy": -0.30083,
				"method": "rhf"
			},
			{
				"type": "occ",
				"energy": -0.28158,
				"method": "rhf"
			},
			{
				"type": "occ",
				"energy": -0.2785,
				"method": "rhf"
			},
			{
				"type": "occ",
				"energy": -0.26573,
				"method": "rhf"
			},
			{
				"type": "occ",
				"energy": -0.25645,
				"method": "rhf"
			},
			{
				"type": "unocc",
				"energy": -0.11109,
				"method": "rhf"
			},
			{
				"type": "unocc",
				"energy": -0.06999,
				"method": "rhf"
			},
			{
				"type": "unocc",
				"energy": -0.06417,
				"method": "rhf"
			},
			{
				"type": "unocc",
				"energy": -0.02073,
				"method": "rhf"
			},
			{
				"type": "unocc",
				"energy": 0.01285,
				"method": "rhf"
			}
		],
		"cosmo_sigma_profile": { 
			"-0.025": 0.0,
			"-0.024": 0.0,
			"-0.023": 0.0,
			"-0.022": 0.0,
			"-0.021": 0.0,
			"-0.02": 0.0,
			"-0.019": 0.0,
			"-0.018": 0.0,
			"-0.017": 0.0,
			"-0.016": 0.0,
			"-0.015": 0.0,
			"-0.014": 0.0,
			"-0.013": 0.0,
			"-0.012": 0.0,
			"-0.011": 0.120432335929,
			"-0.01": 2.33203855932,
			"-0.009": 6.73741960865,
			"-0.008": 9.98191533507,
			"-0.007": 11.4708430908,
			"-0.006": 17.5742196359,
			"-0.005": 22.2124066817,
			"-0.004": 22.873597321,
			"-0.003": 28.7982631372,
			"-0.002": 22.4269942781,
			"-0.001": 27.9506002634,
			"0.0": 32.9809913262,
			"0.001": 23.6459143919,
			"0.002": 13.6526039979,
			"0.003": 10.4487365063,
			"0.004": 7.33538593893,
			"0.005": 9.62633532314,
			"0.006": 10.6810502212,
			"0.007": 13.5484499194,
			"0.008": 11.1425397904,
			"0.009": 6.98281377594,
			"0.01": 3.87061822063,
			"0.011": 5.86013906768,
			"0.012": 9.5146386814,
			"0.013": 1.6443961679,
			"0.014": 0.0,
			"0.015": 0.0,
			"0.016": 0.0,
			"0.017": 0.0,
			"0.018": 0.0,
			"0.019": 0.0,
			"0.02": 0.0,
			"0.021": 0.0,
			"0.022": 0.0,
			"0.023": 0.0,
			"0.024": 0.0,
			"0.025": 0.0
		}
	}
}
