{
	 "smiles": "CC(C)(C)C1=NOC(NC(=O)CCl)=C1", 
	 "Tm": 369.15, 
	 "num_atms": 27, 
	 "gaussian": { 
		 "optdone": 1, 
		 "sigma_profile": "yes", 
		 "theory": "DFT", 
		 "functional": "B3LYP", 
		 "basiset": "6-31G**", 
		 "properties": { 
			 "R2extent": 4460.9503, 
			 "electric_dipole_moment_norm": 3.40486749228, 
			 "electric_quadrupole_moment_norm": 9.02307679121, 
			 "total_energy": -1070.90439359, 
			 "HOMO_LUMO_gap": 0.19851, 
			 "cosmo_polarized_energy": -14.08, 
			 "cosmo_cavitation_energy": 32.25, 
			 "cosmo_dispersion_energy": -22.52, 
			 "cosmo_repulsion_energy": 1.8, 
			 "cosmo_total_nonelectrostatic_energy": 11.53, 
			 "SMD_solvation_energy": 6.01 
		},
		"coords": [
			{
				"x": -3.3303512455,
				"y": -0.5812253536,
				"z": 2.2464017194,
				"element": "C" 
			},
			{
				"x": -1.8157405469,
				"y": -0.824302301,
				"z": 2.3798777046,
				"element": "C" 
			},
			{
				"x": -1.2365972846,
				"y": 0.1053850567,
				"z": 3.4703640366,
				"element": "C" 
			},
			{
				"x": -1.5612436429,
				"y": -2.2985513638,
				"z": 2.7686479071,
				"element": "C" 
			},
			{
				"x": -1.1071681162,
				"y": -0.5364705282,
				"z": 1.0675835452,
				"element": "C" 
			},
			{
				"x": -1.7834603433,
				"y": -0.1475481134,
				"z": 0.0092630794,
				"element": "N" 
			},
			{
				"x": -0.8210720567,
				"y": 0.0308814709,
				"z": -1.0124888704,
				"element": "O" 
			},
			{
				"x": 0.3883991131,
				"y": -0.2888900928,
				"z": -0.5208866041,
				"element": "C" 
			},
			{
				"x": 1.4921233554,
				"y": -0.1463768861,
				"z": -1.3452028366,
				"element": "N" 
			},
			{
				"x": 1.6188516603,
				"y": -0.224057527,
				"z": -2.7277195664,
				"element": "C" 
			},
			{
				"x": 2.6871284894,
				"y": 0.0343844285,
				"z": -3.2508650128,
				"element": "O" 
			},
			{
				"x": 0.4119466144,
				"y": -0.6519211295,
				"z": -3.5517439373,
				"element": "C" 
			},
			{
				"x": 0.0208373676,
				"y": -2.399155954,
				"z": -3.2678205405,
				"element": "Cl" 
			},
			{
				"x": 0.2909047747,
				"y": -0.6495145394,
				"z": 0.7908291822,
				"element": "C" 
			},
			{
				"x": -3.8219271345,
				"y": -0.7944056308,
				"z": 3.2012680383,
				"element": "H" 
			},
			{
				"x": -3.5445333785,
				"y": 0.4549825255,
				"z": 1.9713567329,
				"element": "H" 
			},
			{
				"x": -3.7703657604,
				"y": -1.2243583751,
				"z": 1.4797937565,
				"element": "H" 
			},
			{
				"x": -0.1607753331,
				"y": -0.0481410066,
				"z": 3.6044364442,
				"element": "H" 
			},
			{
				"x": -1.3997510036,
				"y": 1.157906868,
				"z": 3.2181360983,
				"element": "H" 
			},
			{
				"x": -1.7250344262,
				"y": -0.0937888174,
				"z": 4.4301720794,
				"element": "H" 
			},
			{
				"x": -1.9552779207,
				"y": -2.9795500949,
				"z": 2.0079854872,
				"element": "H" 
			},
			{
				"x": -0.4933079125,
				"y": -2.5077232746,
				"z": 2.8894869738,
				"element": "H" 
			},
			{
				"x": -2.0562953034,
				"y": -2.5257075132,
				"z": 3.718841263,
				"element": "H" 
			},
			{
				"x": 2.3756890135,
				"y": 0.035757598,
				"z": -0.8860448146,
				"element": "H" 
			},
			{
				"x": -0.483950655,
				"y": -0.0821312997,
				"z": -3.3118694801,
				"element": "H" 
			},
			{
				"x": 0.6853779379,
				"y": -0.5433978218,
				"z": -4.5987451388,
				"element": "H" 
			},
			{
				"x": 1.0835937377,
				"y": -0.9715803247,
				"z": 1.4474427535,
				"element": "H" 
			}
		],
		 "valence_orbital": [ 
			{
				"type": "occ",
				"energy": -0.3092,
				"method": "rhf"
			},
			{
				"type": "occ",
				"energy": -0.30445,
				"method": "rhf"
			},
			{
				"type": "occ",
				"energy": -0.29352,
				"method": "rhf"
			},
			{
				"type": "occ",
				"energy": -0.27813,
				"method": "rhf"
			},
			{
				"type": "occ",
				"energy": -0.24414,
				"method": "rhf"
			},
			{
				"type": "unocc",
				"energy": -0.04563,
				"method": "rhf"
			},
			{
				"type": "unocc",
				"energy": -0.00164,
				"method": "rhf"
			},
			{
				"type": "unocc",
				"energy": 0.04206,
				"method": "rhf"
			},
			{
				"type": "unocc",
				"energy": 0.05154,
				"method": "rhf"
			},
			{
				"type": "unocc",
				"energy": 0.07327,
				"method": "rhf"
			}
		],
		"cosmo_sigma_profile": { 
			"-0.025": 0.0,
			"-0.024": 0.0,
			"-0.023": 0.0,
			"-0.022": 0.0,
			"-0.021": 0.0,
			"-0.02": 0.0,
			"-0.019": 0.0,
			"-0.018": 0.0,
			"-0.017": 0.40576474109,
			"-0.016": 1.24894720703,
			"-0.015": 1.14341799513,
			"-0.014": 1.1327906681,
			"-0.013": 0.726570148947,
			"-0.012": 1.19040357415,
			"-0.011": 1.37674830298,
			"-0.01": 0.79922338963,
			"-0.009": 2.88901664507,
			"-0.008": 6.34596782735,
			"-0.007": 6.49694833473,
			"-0.006": 8.07826543543,
			"-0.005": 7.90564368546,
			"-0.004": 10.4337827488,
			"-0.003": 22.1792987402,
			"-0.002": 21.6118290943,
			"-0.001": 26.1815660315,
			"0.0": 28.6943192055,
			"0.001": 27.1634772074,
			"0.002": 13.0083571308,
			"0.003": 11.5025588747,
			"0.004": 11.7328522672,
			"0.005": 11.5222582861,
			"0.006": 4.87192253534,
			"0.007": 3.73355898666,
			"0.008": 3.56049680982,
			"0.009": 3.02949817325,
			"0.01": 4.41445306166,
			"0.011": 5.74757768314,
			"0.012": 4.49019142441,
			"0.013": 1.31195967292,
			"0.014": 0.799766686286,
			"0.015": 0.0469655481243,
			"0.016": 0.0,
			"0.017": 0.0,
			"0.018": 0.0,
			"0.019": 0.0,
			"0.02": 0.0,
			"0.021": 0.0,
			"0.022": 0.0,
			"0.023": 0.0,
			"0.024": 0.0,
			"0.025": 0.0
		}
	}
}
