{
	 "smiles": "NC(=O)C1=CC=NC=C1", 
	 "Tm": 429.15, 
	 "num_atms": 15, 
	 "gaussian": { 
		 "optdone": 1, 
		 "sigma_profile": "yes", 
		 "theory": "DFT", 
		 "functional": "B3LYP", 
		 "basiset": "6-31G**", 
		 "properties": { 
			 "R2extent": 1497.0286, 
			 "electric_dipole_moment_norm": 3.42698783482, 
			 "electric_quadrupole_moment_norm": 13.3834255465, 
			 "total_energy": -416.989639486, 
			 "HOMO_LUMO_gap": 0.20015, 
			 "cosmo_polarized_energy": -14.4, 
			 "cosmo_cavitation_energy": 19.51, 
			 "cosmo_dispersion_energy": -14.65, 
			 "cosmo_repulsion_energy": 1.2, 
			 "cosmo_total_nonelectrostatic_energy": 6.07, 
			 "SMD_solvation_energy": 2.91 
		},
		"coords": [
			{
				"x": -1.1769596835,
				"y": -1.7935086356,
				"z": -1.3914541078,
				"element": "N" 
			},
			{
				"x": -0.4259169966,
				"y": -0.7687130727,
				"z": -0.8756469804,
				"element": "C" 
			},
			{
				"x": 0.6410268511,
				"y": -0.4274484728,
				"z": -1.3676320638,
				"element": "O" 
			},
			{
				"x": -1.0017150792,
				"y": -0.0630221277,
				"z": 0.3254438026,
				"element": "C" 
			},
			{
				"x": -0.1391485373,
				"y": 0.7150815078,
				"z": 1.102702692,
				"element": "C" 
			},
			{
				"x": -0.651439074,
				"y": 1.3739626767,
				"z": 2.218594193,
				"element": "C" 
			},
			{
				"x": -1.9378962638,
				"y": 1.3183344394,
				"z": 2.5913860858,
				"element": "N" 
			},
			{
				"x": -2.7602933273,
				"y": 0.5868756648,
				"z": 1.8308388861,
				"element": "C" 
			},
			{
				"x": -2.3488718344,
				"y": -0.1187587493,
				"z": 0.6986758261,
				"element": "C" 
			},
			{
				"x": -1.8769982246,
				"y": -2.2556032833,
				"z": -0.8329703061,
				"element": "H" 
			},
			{
				"x": -0.7407534343,
				"y": -2.3320981777,
				"z": -2.1258074421,
				"element": "H" 
			},
			{
				"x": 0.905606341,
				"y": 0.7925580476,
				"z": 0.8233614937,
				"element": "H" 
			},
			{
				"x": 0.0019757912,
				"y": 1.9782519745,
				"z": 2.8450225825,
				"element": "H" 
			},
			{
				"x": -3.8047155209,
				"y": 0.5642571076,
				"z": 2.1370909745,
				"element": "H" 
			},
			{
				"x": -3.0810010074,
				"y": -0.6664688993,
				"z": 0.1131943639,
				"element": "H" 
			}
		],
		 "valence_orbital": [ 
			{
				"type": "occ",
				"energy": -0.29338,
				"method": "rhf"
			},
			{
				"type": "occ",
				"energy": -0.28332,
				"method": "rhf"
			},
			{
				"type": "occ",
				"energy": -0.2719,
				"method": "rhf"
			},
			{
				"type": "occ",
				"energy": -0.26642,
				"method": "rhf"
			},
			{
				"type": "occ",
				"energy": -0.25746,
				"method": "rhf"
			},
			{
				"type": "unocc",
				"energy": -0.05731,
				"method": "rhf"
			},
			{
				"type": "unocc",
				"energy": -0.02029,
				"method": "rhf"
			},
			{
				"type": "unocc",
				"energy": 0.04554,
				"method": "rhf"
			},
			{
				"type": "unocc",
				"energy": 0.06898,
				"method": "rhf"
			},
			{
				"type": "unocc",
				"energy": 0.11231,
				"method": "rhf"
			}
		],
		"cosmo_sigma_profile": { 
			"-0.025": 0.0,
			"-0.024": 0.0,
			"-0.023": 0.0,
			"-0.022": 0.0,
			"-0.021": 0.0,
			"-0.02": 0.0,
			"-0.019": 0.0,
			"-0.018": 0.0,
			"-0.017": 0.0,
			"-0.016": 0.0,
			"-0.015": 0.54851333094,
			"-0.014": 2.50169536475,
			"-0.013": 3.07279085113,
			"-0.012": 2.01928155699,
			"-0.011": 1.98719731328,
			"-0.01": 3.20111969941,
			"-0.009": 2.67390605493,
			"-0.008": 2.4774853719,
			"-0.007": 6.2421097247,
			"-0.006": 9.14742589381,
			"-0.005": 8.42300166416,
			"-0.004": 7.17164609663,
			"-0.003": 6.49831484546,
			"-0.002": 8.29241481685,
			"-0.001": 9.11280622787,
			"0.0": 10.6530692113,
			"0.001": 16.2665196375,
			"0.002": 11.0187188102,
			"0.003": 5.43498695894,
			"0.004": 5.11176616855,
			"0.005": 3.81304925026,
			"0.006": 2.75071550043,
			"0.007": 2.93867037241,
			"0.008": 3.1297960518,
			"0.009": 2.76717076432,
			"0.01": 2.77659264193,
			"0.011": 1.82396254251,
			"0.012": 4.30813716885,
			"0.013": 6.10137284886,
			"0.014": 1.99002361517,
			"0.015": 1.32232954112,
			"0.016": 0.609103986501,
			"0.017": 0.0521437345887,
			"0.018": 0.0,
			"0.019": 0.0,
			"0.02": 0.0,
			"0.021": 0.0,
			"0.022": 0.0,
			"0.023": 0.0,
			"0.024": 0.0,
			"0.025": 0.0
		}
	}
}
