{
	 "smiles": "CCOC(=O)C1=C(C)N=C(O)N=C1", 
	 "Tm": 453.15, 
	 "num_atms": 23, 
	 "gaussian": { 
		 "optdone": 1, 
		 "sigma_profile": "yes", 
		 "theory": "DFT", 
		 "functional": "B3LYP", 
		 "basiset": "6-31G**", 
		 "properties": { 
			 "R2extent": 3108.8816, 
			 "electric_dipole_moment_norm": 4.35642311995, 
			 "electric_quadrupole_moment_norm": 9.05724250641, 
			 "total_energy": -646.079999988, 
			 "HOMO_LUMO_gap": 0.21068, 
			 "cosmo_polarized_energy": -12.4, 
			 "cosmo_cavitation_energy": 27.6, 
			 "cosmo_dispersion_energy": -20.03, 
			 "cosmo_repulsion_energy": 1.59, 
			 "cosmo_total_nonelectrostatic_energy": 9.17, 
			 "SMD_solvation_energy": 3.68 
		},
		"coords": [
			{
				"x": 1.0691953265,
				"y": 2.0654203222,
				"z": 3.7246117144,
				"element": "C" 
			},
			{
				"x": 0.8739273493,
				"y": 2.6373087794,
				"z": 2.3336108584,
				"element": "C" 
			},
			{
				"x": 0.3689216462,
				"y": 1.5736493336,
				"z": 1.48998036,
				"element": "O" 
			},
			{
				"x": 0.1371672824,
				"y": 1.9132668614,
				"z": 0.203081555,
				"element": "C" 
			},
			{
				"x": 0.3355769613,
				"y": 3.0339412832,
				"z": -0.2288916277,
				"element": "O" 
			},
			{
				"x": -0.3801405497,
				"y": 0.7964426893,
				"z": -0.6318920716,
				"element": "C" 
			},
			{
				"x": -0.6442406061,
				"y": -0.5346947287,
				"z": -0.2334067233,
				"element": "C" 
			},
			{
				"x": -0.4431862592,
				"y": -1.0819387144,
				"z": 1.1541224303,
				"element": "C" 
			},
			{
				"x": -1.1126007803,
				"y": -1.4164451194,
				"z": -1.1291651833,
				"element": "N" 
			},
			{
				"x": -1.3125714361,
				"y": -0.9900461002,
				"z": -2.3814098069,
				"element": "C" 
			},
			{
				"x": -1.7804032529,
				"y": -1.8908457717,
				"z": -3.2547033001,
				"element": "O" 
			},
			{
				"x": -1.1005006898,
				"y": 0.2347475319,
				"z": -2.8701555989,
				"element": "N" 
			},
			{
				"x": -0.6364680461,
				"y": 1.1043544991,
				"z": -1.9783588858,
				"element": "C" 
			},
			{
				"x": 0.1246943808,
				"y": 1.6961220755,
				"z": 4.1346041871,
				"element": "H" 
			},
			{
				"x": 1.4512649354,
				"y": 2.8436166913,
				"z": 4.3924972277,
				"element": "H" 
			},
			{
				"x": 1.7876903547,
				"y": 1.2406756995,
				"z": 3.713922415,
				"element": "H" 
			},
			{
				"x": 1.8091291073,
				"y": 3.010463354,
				"z": 1.9053458996,
				"element": "H" 
			},
			{
				"x": 0.1564376345,
				"y": 3.4633798219,
				"z": 2.3236240024,
				"element": "H" 
			},
			{
				"x": -0.7297260578,
				"y": -2.1340895086,
				"z": 1.1602053966,
				"element": "H" 
			},
			{
				"x": -1.0416305914,
				"y": -0.5306240899,
				"z": 1.8841315169,
				"element": "H" 
			},
			{
				"x": 0.5985022689,
				"y": -0.979645035,
				"z": 1.4694151819,
				"element": "H" 
			},
			{
				"x": -1.8823313528,
				"y": -2.7193557762,
				"z": -2.760081354,
				"element": "H" 
			},
			{
				"x": -0.4465076251,
				"y": 2.1169959019,
				"z": -2.3247881937,
				"element": "H" 
			}
		],
		 "valence_orbital": [ 
			{
				"type": "occ",
				"energy": -0.3176,
				"method": "rhf"
			},
			{
				"type": "occ",
				"energy": -0.30693,
				"method": "rhf"
			},
			{
				"type": "occ",
				"energy": -0.27829,
				"method": "rhf"
			},
			{
				"type": "occ",
				"energy": -0.26087,
				"method": "rhf"
			},
			{
				"type": "occ",
				"energy": -0.26079,
				"method": "rhf"
			},
			{
				"type": "unocc",
				"energy": -0.05011,
				"method": "rhf"
			},
			{
				"type": "unocc",
				"energy": -0.04208,
				"method": "rhf"
			},
			{
				"type": "unocc",
				"energy": 0.04624,
				"method": "rhf"
			},
			{
				"type": "unocc",
				"energy": 0.08253,
				"method": "rhf"
			},
			{
				"type": "unocc",
				"energy": 0.08669,
				"method": "rhf"
			}
		],
		"cosmo_sigma_profile": { 
			"-0.025": 0.0,
			"-0.024": 0.0,
			"-0.023": 0.0,
			"-0.022": 0.0,
			"-0.021": 0.0,
			"-0.02": 0.0,
			"-0.019": 0.055765392422,
			"-0.018": 0.553829382765,
			"-0.017": 0.905612851127,
			"-0.016": 0.854193696704,
			"-0.015": 0.773591307656,
			"-0.014": 0.393034293737,
			"-0.013": 0.455737941223,
			"-0.012": 0.970217107116,
			"-0.011": 1.05154248359,
			"-0.01": 0.437707426888,
			"-0.009": 0.182577311729,
			"-0.008": 0.772916858043,
			"-0.007": 2.1963932684,
			"-0.006": 3.2321148105,
			"-0.005": 10.9957744801,
			"-0.004": 22.5484220235,
			"-0.003": 26.5704296043,
			"-0.002": 29.6177644498,
			"-0.001": 26.0746613528,
			"0.0": 16.8837374039,
			"0.001": 10.4668274096,
			"0.002": 9.58282556954,
			"0.003": 6.5942257955,
			"0.004": 4.54505254019,
			"0.005": 5.1330726322,
			"0.006": 4.09814553367,
			"0.007": 4.05525235121,
			"0.008": 4.6301825426,
			"0.009": 5.96776359607,
			"0.01": 5.48471088041,
			"0.011": 5.79042943814,
			"0.012": 4.20804427996,
			"0.013": 1.44059822265,
			"0.014": 1.05960877471,
			"0.015": 0.385545427293,
			"0.016": 0.0,
			"0.017": 0.0,
			"0.018": 0.0,
			"0.019": 0.0,
			"0.02": 0.0,
			"0.021": 0.0,
			"0.022": 0.0,
			"0.023": 0.0,
			"0.024": 0.0,
			"0.025": 0.0
		}
	}
}
