{
	 "smiles": "CN(C)CCN1N=NN=C1S", 
	 "Tm": 487.15, 
	 "num_atms": 22, 
	 "gaussian": { 
		 "optdone": 1, 
		 "sigma_profile": "yes", 
		 "theory": "DFT", 
		 "functional": "B3LYP", 
		 "basiset": "6-31G**", 
		 "properties": { 
			 "R2extent": 2419.2247, 
			 "electric_dipole_moment_norm": 5.2113733593, 
			 "electric_quadrupole_moment_norm": 17.0999218606, 
			 "total_energy": -869.03043622, 
			 "HOMO_LUMO_gap": 0.21394, 
			 "cosmo_polarized_energy": -15.1, 
			 "cosmo_cavitation_energy": 26.79, 
			 "cosmo_dispersion_energy": -19.34, 
			 "cosmo_repulsion_energy": 1.51, 
			 "cosmo_total_nonelectrostatic_energy": 8.96, 
			 "SMD_solvation_energy": 0.64 
		},
		"coords": [
			{
				"x": 1.8145438737,
				"y": -2.0157077817,
				"z": -2.1817642443,
				"element": "C" 
			},
			{
				"x": 0.7593172146,
				"y": -1.7244912233,
				"z": -1.2189569326,
				"element": "N" 
			},
			{
				"x": 0.1929982347,
				"y": -2.9457140835,
				"z": -0.6562137526,
				"element": "C" 
			},
			{
				"x": 1.2087801677,
				"y": -0.7776732452,
				"z": -0.2133836237,
				"element": "C" 
			},
			{
				"x": 0.0747275953,
				"y": -0.2060132564,
				"z": 0.6516299132,
				"element": "C" 
			},
			{
				"x": -1.0224648596,
				"y": 0.355734893,
				"z": -0.1263388639,
				"element": "N" 
			},
			{
				"x": -2.1945485064,
				"y": -0.3195675937,
				"z": -0.2743643207,
				"element": "N" 
			},
			{
				"x": -2.9446962375,
				"y": 0.402148975,
				"z": -1.0348281912,
				"element": "N" 
			},
			{
				"x": -2.3127986976,
				"y": 1.54515694,
				"z": -1.4158505734,
				"element": "N" 
			},
			{
				"x": -1.1212821627,
				"y": 1.4948223146,
				"z": -0.8444382835,
				"element": "C" 
			},
			{
				"x": 0.1457501976,
				"y": 2.7109846046,
				"z": -0.9534866921,
				"element": "S" 
			},
			{
				"x": 1.4178297439,
				"y": -2.6568488801,
				"z": -2.9745294083,
				"element": "H" 
			},
			{
				"x": 2.6889930058,
				"y": -2.527877504,
				"z": -1.735803432,
				"element": "H" 
			},
			{
				"x": 2.1645711658,
				"y": -1.0867149181,
				"z": -2.6430392806,
				"element": "H" 
			},
			{
				"x": 0.9038973986,
				"y": -3.4970667575,
				"z": -0.0103218675,
				"element": "H" 
			},
			{
				"x": -0.1059849575,
				"y": -3.6095811436,
				"z": -1.4721107815,
				"element": "H" 
			},
			{
				"x": -0.7072534157,
				"y": -2.7215784166,
				"z": -0.0788389639,
				"element": "H" 
			},
			{
				"x": 1.956125944,
				"y": -1.2063398878,
				"z": 0.4870117605,
				"element": "H" 
			},
			{
				"x": 1.7078071738,
				"y": 0.0494655203,
				"z": -0.7312332567,
				"element": "H" 
			},
			{
				"x": -0.3777885622,
				"y": -0.9698071618,
				"z": 1.2854422067,
				"element": "H" 
			},
			{
				"x": 0.4750345948,
				"y": 0.5746777138,
				"z": 1.3069633508,
				"element": "H" 
			},
			{
				"x": -0.6321589111,
				"y": 3.567790892,
				"z": -1.6417447628,
				"element": "H" 
			}
		],
		 "valence_orbital": [ 
			{
				"type": "occ",
				"energy": -0.30545,
				"method": "rhf"
			},
			{
				"type": "occ",
				"energy": -0.29337,
				"method": "rhf"
			},
			{
				"type": "occ",
				"energy": -0.28201,
				"method": "rhf"
			},
			{
				"type": "occ",
				"energy": -0.25728,
				"method": "rhf"
			},
			{
				"type": "occ",
				"energy": -0.22512,
				"method": "rhf"
			},
			{
				"type": "unocc",
				"energy": -0.01118,
				"method": "rhf"
			},
			{
				"type": "unocc",
				"energy": -0.00791,
				"method": "rhf"
			},
			{
				"type": "unocc",
				"energy": 0.02436,
				"method": "rhf"
			},
			{
				"type": "unocc",
				"energy": 0.04516,
				"method": "rhf"
			},
			{
				"type": "unocc",
				"energy": 0.07691,
				"method": "rhf"
			}
		],
		"cosmo_sigma_profile": { 
			"-0.025": 0.0,
			"-0.024": 0.0,
			"-0.023": 0.0,
			"-0.022": 0.0,
			"-0.021": 0.0,
			"-0.02": 0.0,
			"-0.019": 0.0,
			"-0.018": 0.0,
			"-0.017": 0.0,
			"-0.016": 0.0,
			"-0.015": 0.0,
			"-0.014": 0.092727634046,
			"-0.013": 1.29050974102,
			"-0.012": 1.721739465,
			"-0.011": 1.11757966888,
			"-0.01": 1.5192859376,
			"-0.009": 0.924254616759,
			"-0.008": 4.19092017451,
			"-0.007": 8.1571422234,
			"-0.006": 7.78321946346,
			"-0.005": 10.3779275954,
			"-0.004": 17.5990530371,
			"-0.003": 18.1206150333,
			"-0.002": 23.4102545101,
			"-0.001": 24.9091073329,
			"0.0": 20.7554976502,
			"0.001": 8.18306928873,
			"0.002": 6.11136827394,
			"0.003": 6.00720520084,
			"0.004": 5.54651008036,
			"0.005": 6.36954434562,
			"0.006": 5.39854549571,
			"0.007": 4.80337914993,
			"0.008": 6.29976026571,
			"0.009": 5.22049308401,
			"0.01": 5.91593591074,
			"0.011": 3.65033125592,
			"0.012": 3.65752122396,
			"0.013": 2.58584404757,
			"0.014": 1.40138274514,
			"0.015": 0.358564149115,
			"0.016": 0.0,
			"0.017": 0.0,
			"0.018": 0.0,
			"0.019": 0.0,
			"0.02": 0.0,
			"0.021": 0.0,
			"0.022": 0.0,
			"0.023": 0.0,
			"0.024": 0.0,
			"0.025": 0.0
		}
	}
}
