{
	 "smiles": "CC1=C(C)C(C(N)=O)=C(N)S1", 
	 "Tm": 453.15, 
	 "num_atms": 21, 
	 "gaussian": { 
		 "optdone": 1, 
		 "sigma_profile": "yes", 
		 "theory": "DFT", 
		 "functional": "B3LYP", 
		 "basiset": "6-31G**", 
		 "properties": { 
			 "R2extent": 2053.8757, 
			 "electric_dipole_moment_norm": 2.99292824004, 
			 "electric_quadrupole_moment_norm": 15.9712325533, 
			 "total_energy": -855.703450439, 
			 "HOMO_LUMO_gap": 0.18012, 
			 "cosmo_polarized_energy": -14.13, 
			 "cosmo_cavitation_energy": 25.3, 
			 "cosmo_dispersion_energy": -19.46, 
			 "cosmo_repulsion_energy": 1.53, 
			 "cosmo_total_nonelectrostatic_energy": 7.37, 
			 "SMD_solvation_energy": 4.96 
		},
		"coords": [
			{
				"x": 2.4765038613,
				"y": -0.5909766927,
				"z": 2.1787406431,
				"element": "C" 
			},
			{
				"x": 1.4658633788,
				"y": -0.3620960293,
				"z": 1.0942590266,
				"element": "C" 
			},
			{
				"x": 0.405991188,
				"y": 0.4963464346,
				"z": 1.0256614803,
				"element": "C" 
			},
			{
				"x": 0.0235036637,
				"y": 1.4603352001,
				"z": 2.1177289514,
				"element": "C" 
			},
			{
				"x": -0.3454892198,
				"y": 0.377945188,
				"z": -0.2175121526,
				"element": "C" 
			},
			{
				"x": -1.5155458114,
				"y": 1.2243048968,
				"z": -0.5383273469,
				"element": "C" 
			},
			{
				"x": -2.365996715,
				"y": 0.7363652515,
				"z": -1.5367218055,
				"element": "N" 
			},
			{
				"x": -1.737893725,
				"y": 2.3112117217,
				"z": -0.0161917825,
				"element": "O" 
			},
			{
				"x": 0.191955709,
				"y": -0.566683141,
				"z": -1.0759417634,
				"element": "C" 
			},
			{
				"x": -0.2499283421,
				"y": -0.9662512455,
				"z": -2.3296180886,
				"element": "N" 
			},
			{
				"x": 1.5944948025,
				"y": -1.3334839835,
				"z": -0.3771815531,
				"element": "S" 
			},
			{
				"x": 2.2883776535,
				"y": 0.0722476834,
				"z": 3.0254564995,
				"element": "H" 
			},
			{
				"x": 3.4989106791,
				"y": -0.3981809461,
				"z": 1.8316848267,
				"element": "H" 
			},
			{
				"x": 2.4477290652,
				"y": -1.6211086227,
				"z": 2.5542621308,
				"element": "H" 
			},
			{
				"x": 0.0710104202,
				"y": 2.49158617,
				"z": 1.7605353551,
				"element": "H" 
			},
			{
				"x": -1.010039358,
				"y": 1.2986844701,
				"z": 2.4401470894,
				"element": "H" 
			},
			{
				"x": 0.6724602008,
				"y": 1.3552223757,
				"z": 2.9897002538,
				"element": "H" 
			},
			{
				"x": -3.2148756182,
				"y": 1.2839790746,
				"z": -1.6107684948,
				"element": "H" 
			},
			{
				"x": -2.51284418,
				"y": -0.2658287868,
				"z": -1.5667607551,
				"element": "H" 
			},
			{
				"x": -0.7825032415,
				"y": -0.2498474506,
				"z": -2.8126195065,
				"element": "H" 
			},
			{
				"x": 0.4587155889,
				"y": -1.3863715682,
				"z": -2.9167330077,
				"element": "H" 
			}
		],
		 "valence_orbital": [ 
			{
				"type": "occ",
				"energy": -0.30179,
				"method": "rhf"
			},
			{
				"type": "occ",
				"energy": -0.27436,
				"method": "rhf"
			},
			{
				"type": "occ",
				"energy": -0.24526,
				"method": "rhf"
			},
			{
				"type": "occ",
				"energy": -0.23947,
				"method": "rhf"
			},
			{
				"type": "occ",
				"energy": -0.19486,
				"method": "rhf"
			},
			{
				"type": "unocc",
				"energy": -0.01474,
				"method": "rhf"
			},
			{
				"type": "unocc",
				"energy": 0.01408,
				"method": "rhf"
			},
			{
				"type": "unocc",
				"energy": 0.02619,
				"method": "rhf"
			},
			{
				"type": "unocc",
				"energy": 0.07778,
				"method": "rhf"
			},
			{
				"type": "unocc",
				"energy": 0.08982,
				"method": "rhf"
			}
		],
		"cosmo_sigma_profile": { 
			"-0.025": 0.0,
			"-0.024": 0.0,
			"-0.023": 0.0,
			"-0.022": 0.0,
			"-0.021": 0.0,
			"-0.02": 0.0,
			"-0.019": 0.0,
			"-0.018": 0.0,
			"-0.017": 0.0,
			"-0.016": 0.0,
			"-0.015": 0.0149199266773,
			"-0.014": 0.969059536606,
			"-0.013": 2.36657757656,
			"-0.012": 3.02315322041,
			"-0.011": 4.651401892,
			"-0.01": 5.00206712255,
			"-0.009": 3.23726261297,
			"-0.008": 4.87055633594,
			"-0.007": 2.95329101322,
			"-0.006": 4.83847493682,
			"-0.005": 6.57921772325,
			"-0.004": 9.33645532032,
			"-0.003": 14.3316873895,
			"-0.002": 14.2391006585,
			"-0.001": 17.1051546755,
			"0.0": 17.2883741686,
			"0.001": 14.6967136854,
			"0.002": 11.3981924353,
			"0.003": 11.0718031408,
			"0.004": 13.1068029856,
			"0.005": 13.435662126,
			"0.006": 6.05407447798,
			"0.007": 3.14858321079,
			"0.008": 2.24730949343,
			"0.009": 1.92711413369,
			"0.01": 1.90413107832,
			"0.011": 2.23347394092,
			"0.012": 2.03810660143,
			"0.013": 3.4265463907,
			"0.014": 3.59483953519,
			"0.015": 0.540585945085,
			"0.016": 0.0,
			"0.017": 0.0,
			"0.018": 0.0,
			"0.019": 0.0,
			"0.02": 0.0,
			"0.021": 0.0,
			"0.022": 0.0,
			"0.023": 0.0,
			"0.024": 0.0,
			"0.025": 0.0
		}
	}
}
