{
	 "smiles": "OC1=CC=CC=C1C=C1SC(=S)N(CN2CCCCC2)C1=O", 
	 "Tm": 439.15, 
	 "num_atms": 40, 
	 "gaussian": { 
		 "optdone": 1, 
		 "sigma_profile": "yes", 
		 "theory": "DFT", 
		 "functional": "B3LYP", 
		 "basiset": "6-31G**", 
		 "properties": { 
			 "R2extent": 10892.1009, 
			 "electric_dipole_moment_norm": 1.9240520679, 
			 "electric_quadrupole_moment_norm": 20.9758108485, 
			 "total_energy": -1676.8743206, 
			 "HOMO_LUMO_gap": 0.11617, 
			 "cosmo_polarized_energy": -13.18, 
			 "cosmo_cavitation_energy": 44.96, 
			 "cosmo_dispersion_energy": -32.5, 
			 "cosmo_repulsion_energy": 2.39, 
			 "cosmo_total_nonelectrostatic_energy": 14.85, 
			 "SMD_solvation_energy": 5.32 
		},
		"coords": [
			{
				"x": -2.7150886,
				"y": 2.9461870616,
				"z": -1.4855108186,
				"element": "O" 
			},
			{
				"x": -3.1815259233,
				"y": 2.8196005067,
				"z": -0.2125087377,
				"element": "C" 
			},
			{
				"x": -4.3121101298,
				"y": 3.5765030426,
				"z": 0.1091279039,
				"element": "C" 
			},
			{
				"x": -4.8691663254,
				"y": 3.4933702186,
				"z": 1.379835442,
				"element": "C" 
			},
			{
				"x": -4.3047955227,
				"y": 2.6519011214,
				"z": 2.3469531681,
				"element": "C" 
			},
			{
				"x": -3.1785699853,
				"y": 1.9054717285,
				"z": 2.0320004256,
				"element": "C" 
			},
			{
				"x": -2.5799286711,
				"y": 1.9707152707,
				"z": 0.7538418931,
				"element": "C" 
			},
			{
				"x": -1.3614019741,
				"y": 1.2587724415,
				"z": 0.412518872,
				"element": "C" 
			},
			{
				"x": -0.79501367,
				"y": 0.1591202396,
				"z": 0.9635193144,
				"element": "C" 
			},
			{
				"x": -1.3578664349,
				"y": -0.8820129753,
				"z": 2.2728603429,
				"element": "S" 
			},
			{
				"x": 0.046384027,
				"y": -1.9690872072,
				"z": 2.1107351019,
				"element": "C" 
			},
			{
				"x": 0.2388533732,
				"y": -3.2867045773,
				"z": 3.0850170564,
				"element": "S" 
			},
			{
				"x": 0.8712126271,
				"y": -1.5269658187,
				"z": 1.1094458706,
				"element": "N" 
			},
			{
				"x": 2.1173781417,
				"y": -2.2327718095,
				"z": 0.6700214615,
				"element": "C" 
			},
			{
				"x": 1.9316895472,
				"y": -2.9947275236,
				"z": -0.5227648425,
				"element": "N" 
			},
			{
				"x": 2.6669670337,
				"y": -2.5843683473,
				"z": -1.7196307699,
				"element": "C" 
			},
			{
				"x": 1.8782527482,
				"y": -2.9879267585,
				"z": -2.9838550472,
				"element": "C" 
			},
			{
				"x": 1.089682518,
				"y": -4.2998067418,
				"z": -2.7603758358,
				"element": "C" 
			},
			{
				"x": 1.7845755614,
				"y": -5.1676938952,
				"z": -1.705046367,
				"element": "C" 
			},
			{
				"x": 1.8096953512,
				"y": -4.4480882121,
				"z": -0.3430307583,
				"element": "C" 
			},
			{
				"x": 0.488182346,
				"y": -0.3607840667,
				"z": 0.427885045,
				"element": "C" 
			},
			{
				"x": 1.1438846538,
				"y": 0.1336629273,
				"z": -0.4749193039,
				"element": "O" 
			},
			{
				"x": -2.0751110129,
				"y": 2.2500561721,
				"z": -1.6807216855,
				"element": "H" 
			},
			{
				"x": -4.7404356868,
				"y": 4.2105769763,
				"z": -0.6596812978,
				"element": "H" 
			},
			{
				"x": -5.7501263655,
				"y": 4.0823935137,
				"z": 1.6171682194,
				"element": "H" 
			},
			{
				"x": -4.735190129,
				"y": 2.5912729345,
				"z": 3.341102172,
				"element": "H" 
			},
			{
				"x": -2.7198818699,
				"y": 1.2917242232,
				"z": 2.7998037003,
				"element": "H" 
			},
			{
				"x": -0.7588285316,
				"y": 1.6569698251,
				"z": -0.4053262662,
				"element": "H" 
			},
			{
				"x": 2.8508000571,
				"y": -1.4380075167,
				"z": 0.5195717752,
				"element": "H" 
			},
			{
				"x": 2.4128303591,
				"y": -2.8475687676,
				"z": 1.5247587001,
				"element": "H" 
			},
			{
				"x": 3.6784182479,
				"y": -3.0298814971,
				"z": -1.7469279274,
				"element": "H" 
			},
			{
				"x": 2.7906121256,
				"y": -1.5002319566,
				"z": -1.6878803512,
				"element": "H" 
			},
			{
				"x": 1.1866078232,
				"y": -2.1839790647,
				"z": -3.2567268025,
				"element": "H" 
			},
			{
				"x": 2.5823421474,
				"y": -3.1002483638,
				"z": -3.8171917305,
				"element": "H" 
			},
			{
				"x": 0.075663058,
				"y": -4.0673894182,
				"z": -2.4146853074,
				"element": "H" 
			},
			{
				"x": 0.9822163855,
				"y": -4.8482081775,
				"z": -3.7025001825,
				"element": "H" 
			},
			{
				"x": 1.2822280903,
				"y": -6.1339838412,
				"z": -1.5898567975,
				"element": "H" 
			},
			{
				"x": 2.8077815781,
				"y": -5.3888062777,
				"z": -2.0339969564,
				"element": "H" 
			},
			{
				"x": 2.6323575034,
				"y": -4.8500472849,
				"z": 0.2761239208,
				"element": "H" 
			},
			{
				"x": 0.8807255282,
				"y": -4.6508081038,
				"z": 0.2028474006,
				"element": "H" 
			}
		],
		 "valence_orbital": [ 
			{
				"type": "occ",
				"energy": -0.26171,
				"method": "rhf"
			},
			{
				"type": "occ",
				"energy": -0.24687,
				"method": "rhf"
			},
			{
				"type": "occ",
				"energy": -0.23294,
				"method": "rhf"
			},
			{
				"type": "occ",
				"energy": -0.22289,
				"method": "rhf"
			},
			{
				"type": "occ",
				"energy": -0.21129,
				"method": "rhf"
			},
			{
				"type": "unocc",
				"energy": -0.09512,
				"method": "rhf"
			},
			{
				"type": "unocc",
				"energy": -0.04021,
				"method": "rhf"
			},
			{
				"type": "unocc",
				"energy": -0.01098,
				"method": "rhf"
			},
			{
				"type": "unocc",
				"energy": 0.00369,
				"method": "rhf"
			},
			{
				"type": "unocc",
				"energy": 0.0114,
				"method": "rhf"
			}
		],
		"cosmo_sigma_profile": { 
			"-0.025": 0.0,
			"-0.024": 0.0,
			"-0.023": 0.0,
			"-0.022": 0.0,
			"-0.021": 0.0,
			"-0.02": 0.0,
			"-0.019": 0.150851031531,
			"-0.018": 0.759827600907,
			"-0.017": 1.05443437155,
			"-0.016": 0.618876461909,
			"-0.015": 0.919841576778,
			"-0.014": 0.540502776026,
			"-0.013": 1.22477332579,
			"-0.012": 1.44560661711,
			"-0.011": 0.67121820003,
			"-0.01": 0.871632894757,
			"-0.009": 0.972473121283,
			"-0.008": 0.914635949052,
			"-0.007": 4.28246802736,
			"-0.006": 11.9531828091,
			"-0.005": 16.9321147556,
			"-0.004": 17.2248616969,
			"-0.003": 22.369426714,
			"-0.002": 39.8242479562,
			"-0.001": 47.5409558258,
			"0.0": 42.6651659824,
			"0.001": 30.9671855935,
			"0.002": 25.9589993694,
			"0.003": 22.3404710298,
			"0.004": 19.893731372,
			"0.005": 10.6379188037,
			"0.006": 11.6126730611,
			"0.007": 8.59494947442,
			"0.008": 5.43492652431,
			"0.009": 5.18068632914,
			"0.01": 4.16657569328,
			"0.011": 2.83655389104,
			"0.012": 0.342581259286,
			"0.013": 0.0,
			"0.014": 0.0,
			"0.015": 0.0,
			"0.016": 0.0,
			"0.017": 0.0,
			"0.018": 0.0,
			"0.019": 0.0,
			"0.02": 0.0,
			"0.021": 0.0,
			"0.022": 0.0,
			"0.023": 0.0,
			"0.024": 0.0,
			"0.025": 0.0
		}
	}
}
