{
	 "smiles": "CC(=O)NC1=CC(NC(C)=O)=C(C=C1[N+]([O-])=O)[N+]([O-])=O", 
	 "Tm": 521.15, 
	 "num_atms": 30, 
	 "gaussian": { 
		 "optdone": 1, 
		 "sigma_profile": "yes", 
		 "theory": "DFT", 
		 "functional": "B3LYP", 
		 "basiset": "6-31G**", 
		 "properties": { 
			 "R2extent": 6131.7679, 
			 "electric_dipole_moment_norm": 5.71112912304, 
			 "electric_quadrupole_moment_norm": 18.7508673693, 
			 "total_energy": -1057.27885135, 
			 "HOMO_LUMO_gap": 0.15037, 
			 "cosmo_polarized_energy": -19.12, 
			 "cosmo_cavitation_energy": 35.87, 
			 "cosmo_dispersion_energy": -25.53, 
			 "cosmo_repulsion_energy": 1.92, 
			 "cosmo_total_nonelectrostatic_energy": 12.26, 
			 "SMD_solvation_energy": 11.63 
		},
		"coords": [
			{
				"x": 1.5470914808,
				"y": 2.4705540907,
				"z": -2.3430082281,
				"element": "C" 
			},
			{
				"x": 0.0869035989,
				"y": 2.7859353424,
				"z": -2.1176344298,
				"element": "C" 
			},
			{
				"x": -0.4385046371,
				"y": 3.7817791003,
				"z": -2.5782320284,
				"element": "O" 
			},
			{
				"x": -0.7474082072,
				"y": 1.9064645482,
				"z": -1.3949001276,
				"element": "N" 
			},
			{
				"x": -0.5440006482,
				"y": 0.7495445777,
				"z": -0.6827489388,
				"element": "C" 
			},
			{
				"x": 0.733863875,
				"y": 0.3165573524,
				"z": -0.2917262912,
				"element": "C" 
			},
			{
				"x": 0.9618361002,
				"y": -0.8612724973,
				"z": 0.4274659309,
				"element": "C" 
			},
			{
				"x": 2.2369041644,
				"y": -1.25172207,
				"z": 0.7961508044,
				"element": "N" 
			},
			{
				"x": 3.4530388226,
				"y": -0.6245030111,
				"z": 0.5355295416,
				"element": "C" 
			},
			{
				"x": 4.6387537454,
				"y": -1.3670796524,
				"z": 1.1214181216,
				"element": "C" 
			},
			{
				"x": 3.5653762256,
				"y": 0.4169094834,
				"z": -0.0911601702,
				"element": "O" 
			},
			{
				"x": -0.1736533975,
				"y": -1.6538996501,
				"z": 0.7877311101,
				"element": "C" 
			},
			{
				"x": -1.4466660329,
				"y": -1.2354875996,
				"z": 0.4298952133,
				"element": "C" 
			},
			{
				"x": -1.6550924387,
				"y": -0.0650229383,
				"z": -0.2814475046,
				"element": "C" 
			},
			{
				"x": -3.0497246586,
				"y": 0.2558648807,
				"z": -0.5784575478,
				"element": "N" 
			},
			{
				"x": -3.3144883554,
				"y": 1.3540884857,
				"z": -1.0946236939,
				"element": "O" 
			},
			{
				"x": -3.9074563539,
				"y": -0.5750959461,
				"z": -0.2952773836,
				"element": "O" 
			},
			{
				"x": -0.0906926041,
				"y": -2.9001876134,
				"z": 1.5341285779,
				"element": "N" 
			},
			{
				"x": 1.0304795077,
				"y": -3.3167380529,
				"z": 1.8884160326,
				"element": "O" 
			},
			{
				"x": -1.1299529056,
				"y": -3.4994714215,
				"z": 1.7881787802,
				"element": "O" 
			},
			{
				"x": 2.1422340224,
				"y": 2.6605925386,
				"z": -1.4440688728,
				"element": "H" 
			},
			{
				"x": 1.8958229762,
				"y": 3.1372386515,
				"z": -3.1315906915,
				"element": "H" 
			},
			{
				"x": 1.7101730182,
				"y": 1.4308968079,
				"z": -2.6376599951,
				"element": "H" 
			},
			{
				"x": -1.7285021576,
				"y": 2.1756348487,
				"z": -1.4662718228,
				"element": "H" 
			},
			{
				"x": 1.6016092981,
				"y": 0.9061624073,
				"z": -0.522176529,
				"element": "H" 
			},
			{
				"x": 2.2440629654,
				"y": -2.1244948561,
				"z": 1.3220091655,
				"element": "H" 
			},
			{
				"x": 5.5533887291,
				"y": -0.8661036345,
				"z": 0.8068157113,
				"element": "H" 
			},
			{
				"x": 4.5865965084,
				"y": -1.3687431331,
				"z": 2.215672434,
				"element": "H" 
			},
			{
				"x": 4.6575448084,
				"y": -2.4096769222,
				"z": 0.7875531041,
				"element": "H" 
			},
			{
				"x": -2.2990374499,
				"y": -1.8383241168,
				"z": 0.7104197275,
				"element": "H" 
			}
		],
		 "valence_orbital": [ 
			{
				"type": "occ",
				"energy": -0.31171,
				"method": "rhf"
			},
			{
				"type": "occ",
				"energy": -0.29021,
				"method": "rhf"
			},
			{
				"type": "occ",
				"energy": -0.27964,
				"method": "rhf"
			},
			{
				"type": "occ",
				"energy": -0.27437,
				"method": "rhf"
			},
			{
				"type": "occ",
				"energy": -0.265,
				"method": "rhf"
			},
			{
				"type": "unocc",
				"energy": -0.11463,
				"method": "rhf"
			},
			{
				"type": "unocc",
				"energy": -0.10994,
				"method": "rhf"
			},
			{
				"type": "unocc",
				"energy": -0.04312,
				"method": "rhf"
			},
			{
				"type": "unocc",
				"energy": -0.02761,
				"method": "rhf"
			},
			{
				"type": "unocc",
				"energy": 0.00068,
				"method": "rhf"
			}
		],
		"cosmo_sigma_profile": { 
			"-0.025": 0.0,
			"-0.024": 0.0,
			"-0.023": 0.0,
			"-0.022": 0.0,
			"-0.021": 0.0,
			"-0.02": 0.0,
			"-0.019": 0.0,
			"-0.018": 0.0,
			"-0.017": 0.0,
			"-0.016": 0.0,
			"-0.015": 0.0,
			"-0.014": 0.0,
			"-0.013": 0.0,
			"-0.012": 0.0,
			"-0.011": 0.21900432085,
			"-0.01": 1.31136341678,
			"-0.009": 2.99306362471,
			"-0.008": 6.22334727927,
			"-0.007": 13.8885183213,
			"-0.006": 18.0623219283,
			"-0.005": 21.3183855621,
			"-0.004": 27.1473987152,
			"-0.003": 33.9065240539,
			"-0.002": 28.7829219429,
			"-0.001": 15.7585386525,
			"0.0": 10.6848684404,
			"0.001": 8.85467186547,
			"0.002": 8.42434782314,
			"0.003": 6.82794316657,
			"0.004": 8.80638531048,
			"0.005": 9.66995811278,
			"0.006": 11.1098819529,
			"0.007": 14.2089418632,
			"0.008": 11.3116304311,
			"0.009": 10.4643978826,
			"0.01": 5.71449916243,
			"0.011": 5.23341059831,
			"0.012": 5.65488200076,
			"0.013": 1.49561169695,
			"0.014": 0.0,
			"0.015": 0.0,
			"0.016": 0.0,
			"0.017": 0.0,
			"0.018": 0.0,
			"0.019": 0.0,
			"0.02": 0.0,
			"0.021": 0.0,
			"0.022": 0.0,
			"0.023": 0.0,
			"0.024": 0.0,
			"0.025": 0.0
		}
	}
}
