{
	 "smiles": "OC(=O)C1=CC=CC=C1Br", 
	 "Tm": 421.15, 
	 "num_atms": 15, 
	 "gaussian": { 
		 "optdone": 1, 
		 "sigma_profile": "yes", 
		 "theory": "DFT", 
		 "functional": "B3LYP", 
		 "basiset": "6-31G**", 
		 "properties": { 
			 "R2extent": 2605.8642, 
			 "electric_dipole_moment_norm": 4.85917346264, 
			 "electric_quadrupole_moment_norm": 7.14954926062, 
			 "total_energy": -2991.61464379, 
			 "HOMO_LUMO_gap": 0.2067, 
			 "cosmo_polarized_energy": -10.25, 
			 "cosmo_cavitation_energy": 21.44, 
			 "cosmo_dispersion_energy": -16.68, 
			 "cosmo_repulsion_energy": 1.32, 
			 "cosmo_total_nonelectrostatic_energy": 6.08, 
			 "SMD_solvation_energy": 3.88 
		},
		"coords": [
			{
				"x": -0.788045557,
				"y": -1.9455475225,
				"z": -1.284784991,
				"element": "O" 
			},
			{
				"x": -0.7607609448,
				"y": -0.6456779209,
				"z": -0.9533933937,
				"element": "C" 
			},
			{
				"x": -1.6823757544,
				"y": 0.073020206,
				"z": -1.2715791641,
				"element": "O" 
			},
			{
				"x": 0.4241373678,
				"y": -0.0814469029,
				"z": -0.1829859346,
				"element": "C" 
			},
			{
				"x": 0.3183012569,
				"y": 1.2968597147,
				"z": 0.0854388827,
				"element": "C" 
			},
			{
				"x": 1.2979287174,
				"y": 1.9970343367,
				"z": 0.7774287697,
				"element": "C" 
			},
			{
				"x": 2.4344850306,
				"y": 1.3272423597,
				"z": 1.2307683145,
				"element": "C" 
			},
			{
				"x": 2.5757109633,
				"y": -0.0361469245,
				"z": 0.9852406766,
				"element": "C" 
			},
			{
				"x": 1.5820762825,
				"y": -0.7245605867,
				"z": 0.2882110033,
				"element": "C" 
			},
			{
				"x": 1.9434139138,
				"y": -2.6065421415,
				"z": 0.0394800524,
				"element": "Br" 
			},
			{
				"x": 0.004003956,
				"y": -2.4197662941,
				"z": -0.9755771245,
				"element": "H" 
			},
			{
				"x": -0.5749576873,
				"y": 1.7916145059,
				"z": -0.2778830341,
				"element": "H" 
			},
			{
				"x": 1.175044874,
				"y": 3.0594632511,
				"z": 0.9619505368,
				"element": "H" 
			},
			{
				"x": 3.2120294644,
				"y": 1.8559424429,
				"z": 1.7737117317,
				"element": "H" 
			},
			{
				"x": 3.4529081168,
				"y": -0.570188524,
				"z": 1.3313736742,
				"element": "H" 
			}
		],
		 "valence_orbital": [ 
			{
				"type": "occ",
				"energy": -0.3198,
				"method": "rhf"
			},
			{
				"type": "occ",
				"energy": -0.31406,
				"method": "rhf"
			},
			{
				"type": "occ",
				"energy": -0.27895,
				"method": "rhf"
			},
			{
				"type": "occ",
				"energy": -0.27629,
				"method": "rhf"
			},
			{
				"type": "occ",
				"energy": -0.26888,
				"method": "rhf"
			},
			{
				"type": "unocc",
				"energy": -0.06218,
				"method": "rhf"
			},
			{
				"type": "unocc",
				"energy": -0.0322,
				"method": "rhf"
			},
			{
				"type": "unocc",
				"energy": -0.02702,
				"method": "rhf"
			},
			{
				"type": "unocc",
				"energy": 0.04583,
				"method": "rhf"
			},
			{
				"type": "unocc",
				"energy": 0.09214,
				"method": "rhf"
			}
		],
		"cosmo_sigma_profile": { 
			"-0.025": 0.0,
			"-0.024": 0.0,
			"-0.023": 0.0,
			"-0.022": 0.0,
			"-0.021": 0.0,
			"-0.02": 0.0,
			"-0.019": 0.0,
			"-0.018": 0.0,
			"-0.017": 0.0,
			"-0.016": 0.0,
			"-0.015": 0.0,
			"-0.014": 0.0,
			"-0.013": 0.0,
			"-0.012": 0.0,
			"-0.011": 0.0485095725422,
			"-0.01": 0.475474533348,
			"-0.009": 1.47336314671,
			"-0.008": 4.05861273361,
			"-0.007": 9.17403205156,
			"-0.006": 12.1907060368,
			"-0.005": 12.4820892403,
			"-0.004": 9.88819685697,
			"-0.003": 10.6969760748,
			"-0.002": 10.5629928962,
			"-0.001": 11.7044088874,
			"0.0": 16.174021666,
			"0.001": 19.0897725698,
			"0.002": 19.2698987312,
			"0.003": 8.94232485808,
			"0.004": 1.53980670195,
			"0.005": 2.99363044135,
			"0.006": 2.45628868926,
			"0.007": 1.75200264305,
			"0.008": 2.59526781491,
			"0.009": 3.27230839356,
			"0.01": 4.63323898451,
			"0.011": 5.15903741352,
			"0.012": 3.86289188455,
			"0.013": 1.57209372111,
			"0.014": 0.0432637310345,
			"0.015": 0.0,
			"0.016": 0.0,
			"0.017": 0.0,
			"0.018": 0.0,
			"0.019": 0.0,
			"0.02": 0.0,
			"0.021": 0.0,
			"0.022": 0.0,
			"0.023": 0.0,
			"0.024": 0.0,
			"0.025": 0.0
		}
	}
}
