{
	 "smiles": "CC1=C2CCCCC2=NC(N)=N1", 
	 "Tm": 456.15, 
	 "num_atms": 25, 
	 "gaussian": { 
		 "optdone": 1, 
		 "sigma_profile": "yes", 
		 "theory": "DFT", 
		 "functional": "B3LYP", 
		 "basiset": "6-31G**", 
		 "properties": { 
			 "R2extent": 2326.1333, 
			 "electric_dipole_moment_norm": 1.16661610224, 
			 "electric_quadrupole_moment_norm": 6.59184577717, 
			 "total_energy": -515.083681429, 
			 "HOMO_LUMO_gap": 0.19542, 
			 "cosmo_polarized_energy": -9.37, 
			 "cosmo_cavitation_energy": 26.59, 
			 "cosmo_dispersion_energy": -20.11, 
			 "cosmo_repulsion_energy": 1.63, 
			 "cosmo_total_nonelectrostatic_energy": 8.12, 
			 "SMD_solvation_energy": 0.96 
		},
		"coords": [
			{
				"x": 2.6654031308,
				"y": -0.9989100524,
				"z": -2.2853493855,
				"element": "C" 
			},
			{
				"x": 1.7535765335,
				"y": -1.0141224639,
				"z": -1.0828198541,
				"element": "C" 
			},
			{
				"x": 1.2533627544,
				"y": 0.1610458289,
				"z": -0.5026757063,
				"element": "C" 
			},
			{
				"x": 1.5154574953,
				"y": 1.5727191442,
				"z": -0.9669617097,
				"element": "C" 
			},
			{
				"x": 0.2002209439,
				"y": 2.3846684859,
				"z": -1.0303643304,
				"element": "C" 
			},
			{
				"x": -0.688186388,
				"y": 2.2233698415,
				"z": 0.2381521842,
				"element": "C" 
			},
			{
				"x": -0.1045065223,
				"y": 1.239746155,
				"z": 1.2800557072,
				"element": "C" 
			},
			{
				"x": 0.4308456018,
				"y": -0.0045489277,
				"z": 0.6219515865,
				"element": "C" 
			},
			{
				"x": 0.1108906618,
				"y": -1.1995287145,
				"z": 1.1268008521,
				"element": "N" 
			},
			{
				"x": 0.6378217084,
				"y": -2.2568953677,
				"z": 0.4820767464,
				"element": "C" 
			},
			{
				"x": 0.287449457,
				"y": -3.4982480127,
				"z": 0.9477766539,
				"element": "N" 
			},
			{
				"x": 1.4489662238,
				"y": -2.2233569765,
				"z": -0.5899156908,
				"element": "N" 
			},
			{
				"x": 2.1819690618,
				"y": -0.5231376711,
				"z": -3.1463702053,
				"element": "H" 
			},
			{
				"x": 2.9276391513,
				"y": -2.0233516544,
				"z": -2.5527389431,
				"element": "H" 
			},
			{
				"x": 3.5853845638,
				"y": -0.4389434282,
				"z": -2.0830933766,
				"element": "H" 
			},
			{
				"x": 2.0063681329,
				"y": 1.5881500997,
				"z": -1.94438393,
				"element": "H" 
			},
			{
				"x": 2.2095631355,
				"y": 2.0685232772,
				"z": -0.2713200281,
				"element": "H" 
			},
			{
				"x": -0.3622713467,
				"y": 2.0508432169,
				"z": -1.9088945283,
				"element": "H" 
			},
			{
				"x": 0.4379089598,
				"y": 3.440567948,
				"z": -1.199452675,
				"element": "H" 
			},
			{
				"x": -0.8471819002,
				"y": 3.1934337737,
				"z": 0.7206607615,
				"element": "H" 
			},
			{
				"x": -1.6789789189,
				"y": 1.8629198004,
				"z": -0.0574818501,
				"element": "H" 
			},
			{
				"x": 0.7229664751,
				"y": 1.7309459742,
				"z": 1.8127500444,
				"element": "H" 
			},
			{
				"x": -0.8499405231,
				"y": 0.9660696271,
				"z": 2.0308262497,
				"element": "H" 
			},
			{
				"x": 0.8601178271,
				"y": -4.2692576139,
				"z": 0.642681955,
				"element": "H" 
			},
			{
				"x": -0.0986462185,
				"y": -3.5353022896,
				"z": 1.8778894724,
				"element": "H" 
			}
		],
		 "valence_orbital": [ 
			{
				"type": "occ",
				"energy": -0.29811,
				"method": "rhf"
			},
			{
				"type": "occ",
				"energy": -0.2886,
				"method": "rhf"
			},
			{
				"type": "occ",
				"energy": -0.28178,
				"method": "rhf"
			},
			{
				"type": "occ",
				"energy": -0.23045,
				"method": "rhf"
			},
			{
				"type": "occ",
				"energy": -0.20872,
				"method": "rhf"
			},
			{
				"type": "unocc",
				"energy": -0.0133,
				"method": "rhf"
			},
			{
				"type": "unocc",
				"energy": 0.01341,
				"method": "rhf"
			},
			{
				"type": "unocc",
				"energy": 0.08371,
				"method": "rhf"
			},
			{
				"type": "unocc",
				"energy": 0.10228,
				"method": "rhf"
			},
			{
				"type": "unocc",
				"energy": 0.11355,
				"method": "rhf"
			}
		],
		"cosmo_sigma_profile": { 
			"-0.025": 0.0,
			"-0.024": 0.0,
			"-0.023": 0.0,
			"-0.022": 0.0,
			"-0.021": 0.0,
			"-0.02": 0.0,
			"-0.019": 0.0,
			"-0.018": 0.0,
			"-0.017": 0.0,
			"-0.016": 0.0,
			"-0.015": 0.0,
			"-0.014": 0.0,
			"-0.013": 1.19578565489,
			"-0.012": 1.88323052093,
			"-0.011": 2.03117455942,
			"-0.01": 2.16740026275,
			"-0.009": 1.64857469265,
			"-0.008": 1.83931265733,
			"-0.007": 1.75958461581,
			"-0.006": 1.53644860097,
			"-0.005": 4.07200791134,
			"-0.004": 12.1409776231,
			"-0.003": 22.7453464197,
			"-0.002": 28.1824203029,
			"-0.001": 29.7822511935,
			"0.0": 25.8317661336,
			"0.001": 17.5343522511,
			"0.002": 11.7945808318,
			"0.003": 5.85110442222,
			"0.004": 4.43402844406,
			"0.005": 4.11771311521,
			"0.006": 3.88589711047,
			"0.007": 4.5500714172,
			"0.008": 4.39919595795,
			"0.009": 2.60920928369,
			"0.01": 2.47026600192,
			"0.011": 2.46684033659,
			"0.012": 2.08922822862,
			"0.013": 1.61422223313,
			"0.014": 2.13096162783,
			"0.015": 1.01594250308,
			"0.016": 0.123266422155,
			"0.017": 0.0,
			"0.018": 0.0,
			"0.019": 0.0,
			"0.02": 0.0,
			"0.021": 0.0,
			"0.022": 0.0,
			"0.023": 0.0,
			"0.024": 0.0,
			"0.025": 0.0
		}
	}
}
