{
	 "smiles": "COC1=CC=C(CN2C=NC(N)=N2)C=C1", 
	 "Tm": 403.15, 
	 "num_atms": 27, 
	 "gaussian": { 
		 "optdone": 1, 
		 "sigma_profile": "yes", 
		 "theory": "DFT", 
		 "functional": "B3LYP", 
		 "basiset": "6-31G**", 
		 "properties": { 
			 "R2extent": 4933.1087, 
			 "electric_dipole_moment_norm": 2.8501762349, 
			 "electric_quadrupole_moment_norm": 17.683625978, 
			 "total_energy": -682.504661907, 
			 "HOMO_LUMO_gap": 0.19998, 
			 "cosmo_polarized_energy": -16.23, 
			 "cosmo_cavitation_energy": 31.49, 
			 "cosmo_dispersion_energy": -22.8, 
			 "cosmo_repulsion_energy": 1.8, 
			 "cosmo_total_nonelectrostatic_energy": 10.48, 
			 "SMD_solvation_energy": 3.66 
		},
		"coords": [
			{
				"x": -4.7323349252,
				"y": -2.0392387441,
				"z": -2.1404210698,
				"element": "C" 
			},
			{
				"x": -4.4739913509,
				"y": -0.6452572503,
				"z": -2.0856584233,
				"element": "O" 
			},
			{
				"x": -3.3009206978,
				"y": -0.2262624048,
				"z": -1.528684051,
				"element": "C" 
			},
			{
				"x": -2.3182334762,
				"y": -1.0770477944,
				"z": -1.0046605318,
				"element": "C" 
			},
			{
				"x": -1.1519988821,
				"y": -0.5359581059,
				"z": -0.4613167982,
				"element": "C" 
			},
			{
				"x": -0.9448429405,
				"y": 0.8462959013,
				"z": -0.4213768541,
				"element": "C" 
			},
			{
				"x": 0.3305326436,
				"y": 1.4286156935,
				"z": 0.1573011013,
				"element": "C" 
			},
			{
				"x": 0.5700015273,
				"y": 1.0761076068,
				"z": 1.5526368178,
				"element": "N" 
			},
			{
				"x": 0.238685742,
				"y": 1.7357879739,
				"z": 2.6775762874,
				"element": "C" 
			},
			{
				"x": 0.5626635488,
				"y": 1.0342185504,
				"z": 3.7532278701,
				"element": "N" 
			},
			{
				"x": 1.1013911772,
				"y": -0.0970246898,
				"z": 3.2095285408,
				"element": "C" 
			},
			{
				"x": 1.6371532853,
				"y": -1.09873426,
				"z": 3.9978892158,
				"element": "N" 
			},
			{
				"x": 1.1277141927,
				"y": -0.1336359512,
				"z": 1.8789705206,
				"element": "N" 
			},
			{
				"x": -1.9385359913,
				"y": 1.683771711,
				"z": -0.9458276306,
				"element": "C" 
			},
			{
				"x": -3.1028549256,
				"y": 1.1609580414,
				"z": -1.4967918713,
				"element": "C" 
			},
			{
				"x": -3.9815193472,
				"y": -2.5678793408,
				"z": -2.7418552709,
				"element": "H" 
			},
			{
				"x": -4.7664827696,
				"y": -2.4851831666,
				"z": -1.1380179848,
				"element": "H" 
			},
			{
				"x": -5.7097387673,
				"y": -2.1461876087,
				"z": -2.6134292233,
				"element": "H" 
			},
			{
				"x": -2.4481811508,
				"y": -2.1527516838,
				"z": -1.0165816074,
				"element": "H" 
			},
			{
				"x": -0.3963035003,
				"y": -1.1963874443,
				"z": -0.0466007765,
				"element": "H" 
			},
			{
				"x": 0.3064435274,
				"y": 2.5205568436,
				"z": 0.0970258151,
				"element": "H" 
			},
			{
				"x": 1.2092110853,
				"y": 1.0861545558,
				"z": -0.3977571204,
				"element": "H" 
			},
			{
				"x": -0.2240411512,
				"y": 2.7135377011,
				"z": 2.6721120497,
				"element": "H" 
			},
			{
				"x": 1.6774396126,
				"y": -2.001039979,
				"z": 3.5448935061,
				"element": "H" 
			},
			{
				"x": 1.231352166,
				"y": -1.1312692199,
				"z": 4.9227061825,
				"element": "H" 
			},
			{
				"x": -1.8006620558,
				"y": 2.7625182286,
				"z": -0.9262465115,
				"element": "H" 
			},
			{
				"x": -3.8746465762,
				"y": 1.8054348361,
				"z": -1.9045421821,
				"element": "H" 
			}
		],
		 "valence_orbital": [ 
			{
				"type": "occ",
				"energy": -0.27186,
				"method": "rhf"
			},
			{
				"type": "occ",
				"energy": -0.26434,
				"method": "rhf"
			},
			{
				"type": "occ",
				"energy": -0.25399,
				"method": "rhf"
			},
			{
				"type": "occ",
				"energy": -0.22121,
				"method": "rhf"
			},
			{
				"type": "occ",
				"energy": -0.20637,
				"method": "rhf"
			},
			{
				"type": "unocc",
				"energy": -0.00639,
				"method": "rhf"
			},
			{
				"type": "unocc",
				"energy": 0.00376,
				"method": "rhf"
			},
			{
				"type": "unocc",
				"energy": 0.02323,
				"method": "rhf"
			},
			{
				"type": "unocc",
				"energy": 0.07727,
				"method": "rhf"
			},
			{
				"type": "unocc",
				"energy": 0.09068,
				"method": "rhf"
			}
		],
		"cosmo_sigma_profile": { 
			"-0.025": 0.0,
			"-0.024": 0.0,
			"-0.023": 0.0,
			"-0.022": 0.0,
			"-0.021": 0.0,
			"-0.02": 0.0,
			"-0.019": 0.0,
			"-0.018": 0.0,
			"-0.017": 0.0,
			"-0.016": 0.0,
			"-0.015": 0.0,
			"-0.014": 0.0,
			"-0.013": 1.24903828484,
			"-0.012": 2.33549423351,
			"-0.011": 2.07856101302,
			"-0.01": 3.78489150547,
			"-0.009": 5.80144854479,
			"-0.008": 4.83121491679,
			"-0.007": 7.33360870848,
			"-0.006": 13.8360454334,
			"-0.005": 21.0407967937,
			"-0.004": 20.0663098627,
			"-0.003": 19.807177748,
			"-0.002": 13.3969833671,
			"-0.001": 12.6631941997,
			"0.0": 9.61396062923,
			"0.001": 12.7557110977,
			"0.002": 12.9217833275,
			"0.003": 14.3220268139,
			"0.004": 14.9613428373,
			"0.005": 16.8067430284,
			"0.006": 7.54584652861,
			"0.007": 6.13712279886,
			"0.008": 5.82028510635,
			"0.009": 4.32263452631,
			"0.01": 3.07402786565,
			"0.011": 3.41959602864,
			"0.012": 3.31150389498,
			"0.013": 1.90577046087,
			"0.014": 2.36215714753,
			"0.015": 1.36249024977,
			"0.016": 1.05203581386,
			"0.017": 0.511497443168,
			"0.018": 0.0,
			"0.019": 0.0,
			"0.02": 0.0,
			"0.021": 0.0,
			"0.022": 0.0,
			"0.023": 0.0,
			"0.024": 0.0,
			"0.025": 0.0
		}
	}
}
