{
	 "smiles": "COC1=C(OC)C=C(C(=C1)C(=O)CC1=CC=CC=C1)[N+]([O-])=O", 
	 "Tm": 425.15, 
	 "num_atms": 37, 
	 "gaussian": { 
		 "optdone": 1, 
		 "sigma_profile": "yes", 
		 "theory": "DFT", 
		 "functional": "B3LYP", 
		 "basiset": "6-31G**", 
		 "properties": { 
			 "R2extent": 6487.7162, 
			 "electric_dipole_moment_norm": 6.27492673503, 
			 "electric_quadrupole_moment_norm": 14.3184736498, 
			 "total_energy": -1049.47533862, 
			 "HOMO_LUMO_gap": 0.14734, 
			 "cosmo_polarized_energy": -15.56, 
			 "cosmo_cavitation_energy": 41.54, 
			 "cosmo_dispersion_energy": -27.37, 
			 "cosmo_repulsion_energy": 2.13, 
			 "cosmo_total_nonelectrostatic_energy": 16.29, 
			 "SMD_solvation_energy": 11.02 
		},
		"coords": [
			{
				"x": 0.4768664866,
				"y": 1.1865761047,
				"z": -4.2977927818,
				"element": "C" 
			},
			{
				"x": 0.2807155401,
				"y": -0.1475106382,
				"z": -3.8350387784,
				"element": "O" 
			},
			{
				"x": 0.6543604914,
				"y": -0.4583574092,
				"z": -2.5710782481,
				"element": "C" 
			},
			{
				"x": 0.5078559092,
				"y": -1.8171579739,
				"z": -2.1918979984,
				"element": "C" 
			},
			{
				"x": 0.0594437678,
				"y": -2.7681696978,
				"z": -3.0628080148,
				"element": "O" 
			},
			{
				"x": -1.3066145934,
				"y": -2.6596895357,
				"z": -3.4837069832,
				"element": "C" 
			},
			{
				"x": 0.9249916178,
				"y": -2.211278833,
				"z": -0.9301481955,
				"element": "C" 
			},
			{
				"x": 1.4604806233,
				"y": -1.280252447,
				"z": -0.0361161547,
				"element": "C" 
			},
			{
				"x": 1.5686511573,
				"y": 0.0764669729,
				"z": -0.3648905303,
				"element": "C" 
			},
			{
				"x": 1.1731504992,
				"y": 0.4590610773,
				"z": -1.6526317445,
				"element": "C" 
			},
			{
				"x": 2.0571814075,
				"y": 1.2154916787,
				"z": 0.5155108196,
				"element": "C" 
			},
			{
				"x": 2.8851355178,
				"y": 1.9802597334,
				"z": 0.0575983463,
				"element": "O" 
			},
			{
				"x": 1.4116964338,
				"y": 1.5102746329,
				"z": 1.8790023178,
				"element": "C" 
			},
			{
				"x": -0.0057277842,
				"y": 1.0210858766,
				"z": 2.0841570816,
				"element": "C" 
			},
			{
				"x": -1.0744586758,
				"y": 1.6572752448,
				"z": 1.4350263645,
				"element": "C" 
			},
			{
				"x": -2.3860455439,
				"y": 1.2210396762,
				"z": 1.6195924615,
				"element": "C" 
			},
			{
				"x": -2.6519512606,
				"y": 0.1383340854,
				"z": 2.4612924004,
				"element": "C" 
			},
			{
				"x": -1.5982167868,
				"y": -0.4999646568,
				"z": 3.1162628761,
				"element": "C" 
			},
			{
				"x": -0.2858259634,
				"y": -0.0609314966,
				"z": 2.929083914,
				"element": "C" 
			},
			{
				"x": 1.9689204989,
				"y": -1.7906933969,
				"z": 1.2319988565,
				"element": "N" 
			},
			{
				"x": 2.7353988328,
				"y": -1.0636095245,
				"z": 1.87395475,
				"element": "O" 
			},
			{
				"x": 1.6237439613,
				"y": -2.9161614376,
				"z": 1.5888326633,
				"element": "O" 
			},
			{
				"x": -0.1215978959,
				"y": 1.9022200138,
				"z": -3.7217964608,
				"element": "H" 
			},
			{
				"x": 1.5337132149,
				"y": 1.4719827391,
				"z": -4.2496004297,
				"element": "H" 
			},
			{
				"x": 0.1458326786,
				"y": 1.1905564029,
				"z": -5.3365034562,
				"element": "H" 
			},
			{
				"x": -1.9819176439,
				"y": -2.6960527559,
				"z": -2.6200672668,
				"element": "H" 
			},
			{
				"x": -1.4907392978,
				"y": -3.5253210002,
				"z": -4.121992194,
				"element": "H" 
			},
			{
				"x": -1.4807001167,
				"y": -1.7413842287,
				"z": -4.0505045131,
				"element": "H" 
			},
			{
				"x": 0.8593690135,
				"y": -3.2539827566,
				"z": -0.6476634779,
				"element": "H" 
			},
			{
				"x": 1.2939273172,
				"y": 1.4999374063,
				"z": -1.9238159665,
				"element": "H" 
			},
			{
				"x": 1.4661966392,
				"y": 2.5998691734,
				"z": 1.9751305562,
				"element": "H" 
			},
			{
				"x": 2.074164306,
				"y": 1.0937891659,
				"z": 2.6419764199,
				"element": "H" 
			},
			{
				"x": -0.8763618835,
				"y": 2.5080320773,
				"z": 0.7866418292,
				"element": "H" 
			},
			{
				"x": -3.2011255294,
				"y": 1.7294600958,
				"z": 1.1118688213,
				"element": "H" 
			},
			{
				"x": -3.6732952366,
				"y": -0.2007264213,
				"z": 2.6089224,
				"element": "H" 
			},
			{
				"x": -1.7947500214,
				"y": -1.3397662636,
				"z": 3.7765612638,
				"element": "H" 
			},
			{
				"x": 0.5298323192,
				"y": -0.5623016837,
				"z": 3.4427390525,
				"element": "H" 
			}
		],
		 "valence_orbital": [ 
			{
				"type": "occ",
				"energy": -0.27285,
				"method": "rhf"
			},
			{
				"type": "occ",
				"energy": -0.26285,
				"method": "rhf"
			},
			{
				"type": "occ",
				"energy": -0.25283,
				"method": "rhf"
			},
			{
				"type": "occ",
				"energy": -0.24595,
				"method": "rhf"
			},
			{
				"type": "occ",
				"energy": -0.23792,
				"method": "rhf"
			},
			{
				"type": "unocc",
				"energy": -0.09058,
				"method": "rhf"
			},
			{
				"type": "unocc",
				"energy": -0.04301,
				"method": "rhf"
			},
			{
				"type": "unocc",
				"energy": -0.01412,
				"method": "rhf"
			},
			{
				"type": "unocc",
				"energy": -0.00614,
				"method": "rhf"
			},
			{
				"type": "unocc",
				"energy": -0.0004,
				"method": "rhf"
			}
		],
		"cosmo_sigma_profile": { 
			"-0.025": 0.0,
			"-0.024": 0.0,
			"-0.023": 0.0,
			"-0.022": 0.0,
			"-0.021": 0.0,
			"-0.02": 0.0,
			"-0.019": 0.0,
			"-0.018": 0.0,
			"-0.017": 0.0,
			"-0.016": 0.0,
			"-0.015": 0.0,
			"-0.014": 0.0,
			"-0.013": 0.0,
			"-0.012": 0.0,
			"-0.011": 0.0,
			"-0.01": 0.0,
			"-0.009": 0.0870052987839,
			"-0.008": 2.36202424179,
			"-0.007": 7.17960236018,
			"-0.006": 22.7603771285,
			"-0.005": 28.5952985021,
			"-0.004": 35.7787133337,
			"-0.003": 31.4807367528,
			"-0.002": 23.8273003961,
			"-0.001": 22.2415744663,
			"0.0": 22.9245601367,
			"0.001": 20.0414945207,
			"0.002": 17.6003444088,
			"0.003": 15.5506218403,
			"0.004": 13.7168468204,
			"0.005": 13.9343745502,
			"0.006": 12.6729108092,
			"0.007": 10.7391242551,
			"0.008": 8.51324112265,
			"0.009": 7.34512641009,
			"0.01": 6.84498500152,
			"0.011": 5.00739197144,
			"0.012": 1.78686185517,
			"0.013": 0.0511697796268,
			"0.014": 0.0,
			"0.015": 0.0,
			"0.016": 0.0,
			"0.017": 0.0,
			"0.018": 0.0,
			"0.019": 0.0,
			"0.02": 0.0,
			"0.021": 0.0,
			"0.022": 0.0,
			"0.023": 0.0,
			"0.024": 0.0,
			"0.025": 0.0
		}
	}
}
