{
	 "smiles": "CC(C)(C)C1=CC(CC2=CC(=C(O)C(=C2)C(C)(C)C)C(C)(C)C)=CC(=C1O)C(C)(C)C", 
	 "Tm": 429.15, 
	 "num_atms": 75, 
	 "gaussian": { 
		 "optdone": 1, 
		 "sigma_profile": "yes", 
		 "theory": "DFT", 
		 "functional": "B3LYP", 
		 "basiset": "6-31G**", 
		 "properties": { 
			 "R2extent": 17270.7622, 
			 "electric_dipole_moment_norm": 1.45861228913, 
			 "electric_quadrupole_moment_norm": 22.2035452757, 
			 "total_energy": -1282.09582722, 
			 "HOMO_LUMO_gap": 0.20439, 
			 "cosmo_polarized_energy": -10.65, 
			 "cosmo_cavitation_energy": 67.86, 
			 "cosmo_dispersion_energy": -42.52, 
			 "cosmo_repulsion_energy": 3.24, 
			 "cosmo_total_nonelectrostatic_energy": 28.58, 
			 "SMD_solvation_energy": 11.82 
		},
		"coords": [
			{
				"x": 2.772048888,
				"y": 1.7210880945,
				"z": 4.9428838876,
				"element": "C" 
			},
			{
				"x": 1.2798705499,
				"y": 2.1295892077,
				"z": 4.8020637577,
				"element": "C" 
			},
			{
				"x": 0.5428420368,
				"y": 2.0368833557,
				"z": 6.1663801583,
				"element": "C" 
			},
			{
				"x": 1.2833452052,
				"y": 3.6260189602,
				"z": 4.4222068278,
				"element": "C" 
			},
			{
				"x": 0.5701797032,
				"y": 1.2603084825,
				"z": 3.7329079374,
				"element": "C" 
			},
			{
				"x": 0.0233346704,
				"y": 1.8470614277,
				"z": 2.5811491706,
				"element": "C" 
			},
			{
				"x": -0.6204744079,
				"y": 1.1052700566,
				"z": 1.5946649956,
				"element": "C" 
			},
			{
				"x": -1.2174454372,
				"y": 1.7794508425,
				"z": 0.3694648228,
				"element": "C" 
			},
			{
				"x": -0.6906830112,
				"y": 1.2649850583,
				"z": -0.9610629468,
				"element": "C" 
			},
			{
				"x": 0.6772644601,
				"y": 1.2966515784,
				"z": -1.2475930246,
				"element": "C" 
			},
			{
				"x": 1.2045695155,
				"y": 0.8559709104,
				"z": -2.4632345792,
				"element": "C" 
			},
			{
				"x": 0.2853822596,
				"y": 0.3585520921,
				"z": -3.4209632662,
				"element": "C" 
			},
			{
				"x": 0.8295418011,
				"y": -0.0720271041,
				"z": -4.6120724095,
				"element": "O" 
			},
			{
				"x": -1.1060468524,
				"y": 0.3020718254,
				"z": -3.1777861266,
				"element": "C" 
			},
			{
				"x": -1.5550502031,
				"y": 0.7666635284,
				"z": -1.9318598701,
				"element": "C" 
			},
			{
				"x": -2.1085460205,
				"y": -0.2456642019,
				"z": -4.2252930025,
				"element": "C" 
			},
			{
				"x": -3.5644001087,
				"y": -0.197878512,
				"z": -3.7135930899,
				"element": "C" 
			},
			{
				"x": -2.0815338589,
				"y": 0.6159990069,
				"z": -5.5175881716,
				"element": "C" 
			},
			{
				"x": -1.8156871683,
				"y": -1.7382343417,
				"z": -4.5410221657,
				"element": "C" 
			},
			{
				"x": 2.7250095828,
				"y": 0.9102956208,
				"z": -2.7421384319,
				"element": "C" 
			},
			{
				"x": 3.5063512967,
				"y": 1.4913039716,
				"z": -1.5447877443,
				"element": "C" 
			},
			{
				"x": 3.2772668771,
				"y": -0.5145325417,
				"z": -2.9970898311,
				"element": "C" 
			},
			{
				"x": 3.0171941851,
				"y": 1.8206377595,
				"z": -3.9611474089,
				"element": "C" 
			},
			{
				"x": -0.7186368466,
				"y": -0.2786249944,
				"z": 1.7666829214,
				"element": "C" 
			},
			{
				"x": -0.2036066059,
				"y": -0.9390688929,
				"z": 2.8840586125,
				"element": "C" 
			},
			{
				"x": 0.4422635219,
				"y": -0.1415896867,
				"z": 3.8620685042,
				"element": "C" 
			},
			{
				"x": 0.9444632257,
				"y": -0.8161199363,
				"z": 4.9543284367,
				"element": "O" 
			},
			{
				"x": -0.3346781439,
				"y": -2.4726135344,
				"z": 3.0374821369,
				"element": "C" 
			},
			{
				"x": 1.0671508826,
				"y": -3.1290466492,
				"z": 3.1018414975,
				"element": "C" 
			},
			{
				"x": -1.077117009,
				"y": -3.1062465597,
				"z": 1.8420593865,
				"element": "C" 
			},
			{
				"x": -1.1442940333,
				"y": -2.8196892142,
				"z": 4.311870264,
				"element": "C" 
			},
			{
				"x": 3.2627308323,
				"y": 2.3338960784,
				"z": 5.7070595075,
				"element": "H" 
			},
			{
				"x": 2.9322023015,
				"y": 0.6728724031,
				"z": 5.2137051195,
				"element": "H" 
			},
			{
				"x": 3.2942499216,
				"y": 1.8781759478,
				"z": 3.9941538893,
				"element": "H" 
			},
			{
				"x": -0.479491505,
				"y": 2.4140680127,
				"z": 6.0658977182,
				"element": "H" 
			},
			{
				"x": 1.0577975083,
				"y": 2.6455252768,
				"z": 6.9178033951,
				"element": "H" 
			},
			{
				"x": 0.4598744449,
				"y": 1.0228595202,
				"z": 6.5695021213,
				"element": "H" 
			},
			{
				"x": 0.2695827955,
				"y": 4.0271517203,
				"z": 4.3297470454,
				"element": "H" 
			},
			{
				"x": 1.7935646507,
				"y": 4.1962246335,
				"z": 5.2052946798,
				"element": "H" 
			},
			{
				"x": 1.8137622741,
				"y": 3.8085962056,
				"z": 3.4828170059,
				"element": "H" 
			},
			{
				"x": 0.0960027749,
				"y": 2.9193367519,
				"z": 2.4433064903,
				"element": "H" 
			},
			{
				"x": -1.0342157241,
				"y": 2.8594907203,
				"z": 0.4428333902,
				"element": "H" 
			},
			{
				"x": -2.308792732,
				"y": 1.6602751304,
				"z": 0.380957644,
				"element": "H" 
			},
			{
				"x": 1.3447517913,
				"y": 1.6738418033,
				"z": -0.4824181138,
				"element": "H" 
			},
			{
				"x": 0.1308845731,
				"y": -0.394788658,
				"z": -5.1882563775,
				"element": "H" 
			},
			{
				"x": -2.6143469737,
				"y": 0.7447215496,
				"z": -1.7049826815,
				"element": "H" 
			},
			{
				"x": -3.7026117271,
				"y": -0.8064966712,
				"z": -2.8149225028,
				"element": "H" 
			},
			{
				"x": -4.2318046547,
				"y": -0.593822772,
				"z": -4.4859219811,
				"element": "H" 
			},
			{
				"x": -3.8867973836,
				"y": 0.823835428,
				"z": -3.4914940772,
				"element": "H" 
			},
			{
				"x": -2.3791490558,
				"y": 1.6438142748,
				"z": -5.2883673298,
				"element": "H" 
			},
			{
				"x": -1.1016875301,
				"y": 0.6786464079,
				"z": -6.0009126561,
				"element": "H" 
			},
			{
				"x": -2.784553957,
				"y": 0.2147747267,
				"z": -6.2558663723,
				"element": "H" 
			},
			{
				"x": -1.9289701876,
				"y": -2.3415992231,
				"z": -3.635157016,
				"element": "H" 
			},
			{
				"x": -0.8068404904,
				"y": -1.933305898,
				"z": -4.9177343795,
				"element": "H" 
			},
			{
				"x": -2.5216424256,
				"y": -2.1132019327,
				"z": -5.29021319,
				"element": "H" 
			},
			{
				"x": 3.3866347641,
				"y": 0.8863014934,
				"z": -0.6401271135,
				"element": "H" 
			},
			{
				"x": 4.5734113108,
				"y": 1.5095239912,
				"z": -1.7892726279,
				"element": "H" 
			},
			{
				"x": 3.2051399592,
				"y": 2.5186801806,
				"z": -1.3145443725,
				"element": "H" 
			},
			{
				"x": 2.8071075274,
				"y": -0.9829431613,
				"z": -3.8618210294,
				"element": "H" 
			},
			{
				"x": 4.3580589802,
				"y": -0.4690267933,
				"z": -3.1754550338,
				"element": "H" 
			},
			{
				"x": 3.108752106,
				"y": -1.1540019611,
				"z": -2.1236740074,
				"element": "H" 
			},
			{
				"x": 4.0977114774,
				"y": 1.8678946882,
				"z": -4.1407476262,
				"element": "H" 
			},
			{
				"x": 2.6644047126,
				"y": 2.840717167,
				"z": -3.7728583983,
				"element": "H" 
			},
			{
				"x": 2.5354074313,
				"y": 1.4526035413,
				"z": -4.8670354351,
				"element": "H" 
			},
			{
				"x": -1.2099959623,
				"y": -0.850546203,
				"z": 0.9890119887,
				"element": "H" 
			},
			{
				"x": 1.3646928738,
				"y": -0.1926790805,
				"z": 5.5535040728,
				"element": "H" 
			},
			{
				"x": 0.9656451074,
				"y": -4.2169057866,
				"z": 3.1926718368,
				"element": "H" 
			},
			{
				"x": 1.6456786245,
				"y": -2.767080503,
				"z": 3.9518514551,
				"element": "H" 
			},
			{
				"x": 1.6314221625,
				"y": -2.9207306991,
				"z": 2.1862154127,
				"element": "H" 
			},
			{
				"x": -0.5526407659,
				"y": -2.941472603,
				"z": 0.8952013094,
				"element": "H" 
			},
			{
				"x": -2.0985794054,
				"y": -2.7245735567,
				"z": 1.7410498638,
				"element": "H" 
			},
			{
				"x": -1.1451005118,
				"y": -4.1880578318,
				"z": 1.9962785291,
				"element": "H" 
			},
			{
				"x": -0.6606167002,
				"y": -2.4455081891,
				"z": 5.2142181552,
				"element": "H" 
			},
			{
				"x": -2.1509662011,
				"y": -2.3906635174,
				"z": 4.256832576,
				"element": "H" 
			},
			{
				"x": -1.2484459664,
				"y": -3.9072882225,
				"z": 4.4027878674,
				"element": "H" 
			}
		],
		 "valence_orbital": [ 
			{
				"type": "occ",
				"energy": -0.29582,
				"method": "rhf"
			},
			{
				"type": "occ",
				"energy": -0.23271,
				"method": "rhf"
			},
			{
				"type": "occ",
				"energy": -0.22994,
				"method": "rhf"
			},
			{
				"type": "occ",
				"energy": -0.20823,
				"method": "rhf"
			},
			{
				"type": "occ",
				"energy": -0.19815,
				"method": "rhf"
			},
			{
				"type": "unocc",
				"energy": 0.00624,
				"method": "rhf"
			},
			{
				"type": "unocc",
				"energy": 0.00973,
				"method": "rhf"
			},
			{
				"type": "unocc",
				"energy": 0.01452,
				"method": "rhf"
			},
			{
				"type": "unocc",
				"energy": 0.0252,
				"method": "rhf"
			},
			{
				"type": "unocc",
				"energy": 0.0653,
				"method": "rhf"
			}
		],
		"cosmo_sigma_profile": { 
			"-0.025": 0.0,
			"-0.024": 0.0,
			"-0.023": 0.0,
			"-0.022": 0.0,
			"-0.021": 0.0,
			"-0.02": 0.0,
			"-0.019": 0.0,
			"-0.018": 0.0,
			"-0.017": 0.0,
			"-0.016": 0.0,
			"-0.015": 0.0354383824276,
			"-0.014": 0.731118366424,
			"-0.013": 1.26081380364,
			"-0.012": 1.20844945602,
			"-0.011": 1.26274400357,
			"-0.01": 1.55743669054,
			"-0.009": 1.57247398673,
			"-0.008": 1.42720108557,
			"-0.007": 2.50838692904,
			"-0.006": 1.78680277031,
			"-0.005": 2.76539215563,
			"-0.004": 14.0631430829,
			"-0.003": 55.0095281152,
			"-0.002": 79.9412997751,
			"-0.001": 72.3969985892,
			"0.0": 74.4966771163,
			"0.001": 74.4114987903,
			"0.002": 52.2687230611,
			"0.003": 20.315675279,
			"0.004": 19.3873931812,
			"0.005": 20.7617550797,
			"0.006": 15.8093609532,
			"0.007": 9.87808759057,
			"0.008": 0.520477713299,
			"0.009": 0.0,
			"0.01": 0.0,
			"0.011": 0.0,
			"0.012": 0.0,
			"0.013": 0.0,
			"0.014": 0.0,
			"0.015": 0.0,
			"0.016": 0.0,
			"0.017": 0.0,
			"0.018": 0.0,
			"0.019": 0.0,
			"0.02": 0.0,
			"0.021": 0.0,
			"0.022": 0.0,
			"0.023": 0.0,
			"0.024": 0.0,
			"0.025": 0.0
		}
	}
}
