{
	 "smiles": "NC1=CC(=CC=C1)C1=CC=CC=C1", 
	 "Tm": 306.15, 
	 "num_atms": 24, 
	 "gaussian": { 
		 "optdone": 1, 
		 "sigma_profile": "yes", 
		 "theory": "DFT", 
		 "functional": "B3LYP", 
		 "basiset": "6-31G**", 
		 "properties": { 
			 "R2extent": 3293.7109, 
			 "electric_dipole_moment_norm": 1.75740242972, 
			 "electric_quadrupole_moment_norm": 14.3619288638, 
			 "total_energy": -518.669279796, 
			 "HOMO_LUMO_gap": 0.17888, 
			 "cosmo_polarized_energy": -9.53, 
			 "cosmo_cavitation_energy": 27.55, 
			 "cosmo_dispersion_energy": -20.38, 
			 "cosmo_repulsion_energy": 1.6, 
			 "cosmo_total_nonelectrostatic_energy": 8.77, 
			 "SMD_solvation_energy": 4.41 
		},
		"coords": [
			{
				"x": 2.6713636279,
				"y": -3.7284704458,
				"z": -0.8647573338,
				"element": "N" 
			},
			{
				"x": 2.3387320621,
				"y": -2.3731026619,
				"z": -0.7853382169,
				"element": "C" 
			},
			{
				"x": 1.0040904056,
				"y": -1.9579475528,
				"z": -0.9119124756,
				"element": "C" 
			},
			{
				"x": 0.6542170131,
				"y": -0.6009539317,
				"z": -0.8842878929,
				"element": "C" 
			},
			{
				"x": 1.6680974196,
				"y": 0.358433545,
				"z": -0.7224609274,
				"element": "C" 
			},
			{
				"x": 2.9953988878,
				"y": -0.0490339321,
				"z": -0.5958879495,
				"element": "C" 
			},
			{
				"x": 3.3382161748,
				"y": -1.3982679667,
				"z": -0.6257074308,
				"element": "C" 
			},
			{
				"x": -0.7672659974,
				"y": -0.1889374718,
				"z": -1.0227235765,
				"element": "C" 
			},
			{
				"x": -1.2853169178,
				"y": 0.8784281856,
				"z": -0.2693254499,
				"element": "C" 
			},
			{
				"x": -2.6180048857,
				"y": 1.26742311,
				"z": -0.3982386802,
				"element": "C" 
			},
			{
				"x": -3.4644150544,
				"y": 0.596870495,
				"z": -1.2833514294,
				"element": "C" 
			},
			{
				"x": -2.9644202504,
				"y": -0.4653559078,
				"z": -2.0389778106,
				"element": "C" 
			},
			{
				"x": -1.6311637982,
				"y": -0.8528356555,
				"z": -1.9104813881,
				"element": "C" 
			},
			{
				"x": 1.9237160172,
				"y": -4.3655141727,
				"z": -0.6254979659,
				"element": "H" 
			},
			{
				"x": 3.5371409587,
				"y": -3.9821374384,
				"z": -0.4086583737,
				"element": "H" 
			},
			{
				"x": 0.2242258082,
				"y": -2.7091490879,
				"z": -1.0084765337,
				"element": "H" 
			},
			{
				"x": 1.4196633869,
				"y": 1.414599103,
				"z": -0.7271224312,
				"element": "H" 
			},
			{
				"x": 3.778040659,
				"y": 0.69565984,
				"z": -0.4785643858,
				"element": "H" 
			},
			{
				"x": 4.3773229245,
				"y": -1.7034460478,
				"z": -0.5297673263,
				"element": "H" 
			},
			{
				"x": -0.6414288631,
				"y": 1.3897073619,
				"z": 0.4401334164,
				"element": "H" 
			},
			{
				"x": -2.9981137037,
				"y": 2.0907166919,
				"z": 0.2003496151,
				"element": "H" 
			},
			{
				"x": -4.5027698517,
				"y": 0.899566952,
				"z": -1.3838295139,
				"element": "H" 
			},
			{
				"x": -3.6113697858,
				"y": -0.9882242956,
				"z": -2.7380443548,
				"element": "H" 
			},
			{
				"x": -1.244656237,
				"y": -1.661928716,
				"z": -2.5232715846,
				"element": "H" 
			}
		],
		 "valence_orbital": [ 
			{
				"type": "occ",
				"energy": -0.30526,
				"method": "rhf"
			},
			{
				"type": "occ",
				"energy": -0.26288,
				"method": "rhf"
			},
			{
				"type": "occ",
				"energy": -0.24543,
				"method": "rhf"
			},
			{
				"type": "occ",
				"energy": -0.22211,
				"method": "rhf"
			},
			{
				"type": "occ",
				"energy": -0.19894,
				"method": "rhf"
			},
			{
				"type": "unocc",
				"energy": -0.02006,
				"method": "rhf"
			},
			{
				"type": "unocc",
				"energy": 0.00289,
				"method": "rhf"
			},
			{
				"type": "unocc",
				"energy": 0.01558,
				"method": "rhf"
			},
			{
				"type": "unocc",
				"energy": 0.03903,
				"method": "rhf"
			},
			{
				"type": "unocc",
				"energy": 0.08266,
				"method": "rhf"
			}
		],
		"cosmo_sigma_profile": { 
			"-0.025": 0.0,
			"-0.024": 0.0,
			"-0.023": 0.0,
			"-0.022": 0.0,
			"-0.021": 0.0,
			"-0.02": 0.0,
			"-0.019": 0.0,
			"-0.018": 0.0,
			"-0.017": 0.0,
			"-0.016": 0.0,
			"-0.015": 0.0,
			"-0.014": 0.0,
			"-0.013": 0.127076662772,
			"-0.012": 2.2529251098,
			"-0.011": 3.18909528213,
			"-0.01": 2.07380248181,
			"-0.009": 2.8824486224,
			"-0.008": 3.74728262164,
			"-0.007": 2.3940747302,
			"-0.006": 6.79538780809,
			"-0.005": 16.539501282,
			"-0.004": 20.2279931907,
			"-0.003": 18.3134262324,
			"-0.002": 14.7806069218,
			"-0.001": 11.8203928806,
			"0.0": 11.5936204883,
			"0.001": 11.4515639921,
			"0.002": 11.4393746684,
			"0.003": 15.5819473609,
			"0.004": 16.3521043902,
			"0.005": 17.0337611338,
			"0.006": 17.9278218141,
			"0.007": 7.38189030154,
			"0.008": 1.27340479354,
			"0.009": 0.872832876672,
			"0.01": 0.817812940421,
			"0.011": 0.197549150778,
			"0.012": 1.06939503674,
			"0.013": 0.795969209022,
			"0.014": 0.55645936371,
			"0.015": 0.286709908357,
			"0.016": 0.0,
			"0.017": 0.0,
			"0.018": 0.0,
			"0.019": 0.0,
			"0.02": 0.0,
			"0.021": 0.0,
			"0.022": 0.0,
			"0.023": 0.0,
			"0.024": 0.0,
			"0.025": 0.0
		}
	}
}
