{
	 "smiles": "CC1(C)S[C@@H]2[C@H](NC(=O)CC3=CC=CC=C3)C(=O)N2[C@H]1C(O)=O", 
	 "Tm": 488.65, 
	 "num_atms": 41, 
	 "gaussian": { 
		 "optdone": 1, 
		 "sigma_profile": "yes", 
		 "theory": "DFT", 
		 "functional": "B3LYP", 
		 "basiset": "6-31G**", 
		 "properties": { 
			 "R2extent": 11165.5564, 
			 "electric_dipole_moment_norm": 5.06783617928, 
			 "electric_quadrupole_moment_norm": 20.5886100762, 
			 "total_energy": -1429.14357282, 
			 "HOMO_LUMO_gap": 0.20673, 
			 "cosmo_polarized_energy": -25.11, 
			 "cosmo_cavitation_energy": 45.14, 
			 "cosmo_dispersion_energy": -30.58, 
			 "cosmo_repulsion_energy": 2.31, 
			 "cosmo_total_nonelectrostatic_energy": 16.87, 
			 "SMD_solvation_energy": 7.49 
		},
		"coords": [
			{
				"x": -2.4118918799,
				"y": -3.6176694284,
				"z": 2.3191213901,
				"element": "C" 
			},
			{
				"x": -1.1442272157,
				"y": -3.7737080498,
				"z": 1.4731130577,
				"element": "C" 
			},
			{
				"x": -0.235243277,
				"y": -4.8757528454,
				"z": 2.0439833585,
				"element": "C" 
			},
			{
				"x": -0.2129434147,
				"y": -2.1416235144,
				"z": 1.4549967721,
				"element": "S" 
			},
			{
				"x": 0.5060210001,
				"y": -2.5490638952,
				"z": -0.1756747774,
				"element": "C" 
			},
			{
				"x": 0.3874232604,
				"y": -1.5576031328,
				"z": -1.3903024103,
				"element": "C" 
			},
			{
				"x": -0.0785678704,
				"y": -0.2131439482,
				"z": -1.1904504291,
				"element": "N" 
			},
			{
				"x": -1.3885662398,
				"y": 0.1004202447,
				"z": -0.934349084,
				"element": "C" 
			},
			{
				"x": -2.258304125,
				"y": -0.7431053889,
				"z": -0.7732125592,
				"element": "O" 
			},
			{
				"x": -1.7102671981,
				"y": 1.5995549791,
				"z": -0.81535936,
				"element": "C" 
			},
			{
				"x": -0.699369283,
				"y": 2.5714600462,
				"z": -1.380962903,
				"element": "C" 
			},
			{
				"x": -0.7025465822,
				"y": 2.8905794727,
				"z": -2.7479499232,
				"element": "C" 
			},
			{
				"x": 0.2409836134,
				"y": 3.7701276347,
				"z": -3.278387397,
				"element": "C" 
			},
			{
				"x": 1.2081537712,
				"y": 4.3454778157,
				"z": -2.4504377879,
				"element": "C" 
			},
			{
				"x": 1.2241016276,
				"y": 4.0361639625,
				"z": -1.0897074173,
				"element": "C" 
			},
			{
				"x": 0.2771898356,
				"y": 3.1561833559,
				"z": -0.560643929,
				"element": "C" 
			},
			{
				"x": -0.6617438603,
				"y": -2.5840177795,
				"z": -1.9322405628,
				"element": "C" 
			},
			{
				"x": -1.3637140621,
				"y": -2.67583491,
				"z": -2.9022368557,
				"element": "O" 
			},
			{
				"x": -0.4462979829,
				"y": -3.448283711,
				"z": -0.8488815595,
				"element": "N" 
			},
			{
				"x": -1.5088834255,
				"y": -4.027493761,
				"z": -0.0389693411,
				"element": "C" 
			},
			{
				"x": -1.7873482432,
				"y": -5.5048581664,
				"z": -0.2929101081,
				"element": "C" 
			},
			{
				"x": -0.8277191321,
				"y": -6.1308196876,
				"z": -0.9998411437,
				"element": "O" 
			},
			{
				"x": -2.7792478452,
				"y": -6.0672185401,
				"z": 0.1218006065,
				"element": "O" 
			},
			{
				"x": -3.0031490103,
				"y": -4.5363764125,
				"z": 2.2591248101,
				"element": "H" 
			},
			{
				"x": -2.1575310417,
				"y": -3.4390273851,
				"z": 3.3684385317,
				"element": "H" 
			},
			{
				"x": -3.0220414363,
				"y": -2.7848613327,
				"z": 1.9600939668,
				"element": "H" 
			},
			{
				"x": 0.096306318,
				"y": -4.6022602084,
				"z": 3.0484002435,
				"element": "H" 
			},
			{
				"x": 0.6509983254,
				"y": -5.0359976556,
				"z": 1.4234566225,
				"element": "H" 
			},
			{
				"x": -0.7811816756,
				"y": -5.8234083585,
				"z": 2.1140697955,
				"element": "H" 
			},
			{
				"x": 1.502228151,
				"y": -2.9853844296,
				"z": -0.0572356704,
				"element": "H" 
			},
			{
				"x": 1.3038602074,
				"y": -1.5230532221,
				"z": -1.9858991333,
				"element": "H" 
			},
			{
				"x": 0.5596905551,
				"y": 0.5473937927,
				"z": -1.3735820117,
				"element": "H" 
			},
			{
				"x": -2.6869747152,
				"y": 1.7229073356,
				"z": -1.2919228913,
				"element": "H" 
			},
			{
				"x": -1.8649591868,
				"y": 1.7869426175,
				"z": 0.2537481344,
				"element": "H" 
			},
			{
				"x": -1.4534143947,
				"y": 2.4470578627,
				"z": -3.3971659206,
				"element": "H" 
			},
			{
				"x": 0.2192936928,
				"y": 4.0090003652,
				"z": -4.3378164263,
				"element": "H" 
			},
			{
				"x": 1.9408684784,
				"y": 5.0328774757,
				"z": -2.8629223616,
				"element": "H" 
			},
			{
				"x": 1.9682080446,
				"y": 4.483846527,
				"z": -0.4370774661,
				"element": "H" 
			},
			{
				"x": 0.2882580021,
				"y": 2.92697159,
				"z": 0.5023699303,
				"element": "H" 
			},
			{
				"x": -2.4439737882,
				"y": -3.5016101706,
				"z": -0.2613554758,
				"element": "H" 
			},
			{
				"x": -1.1262779972,
				"y": -7.0519891439,
				"z": -1.0924223146,
				"element": "H" 
			}
		],
		 "valence_orbital": [ 
			{
				"type": "occ",
				"energy": -0.26401,
				"method": "rhf"
			},
			{
				"type": "occ",
				"energy": -0.25278,
				"method": "rhf"
			},
			{
				"type": "occ",
				"energy": -0.24724,
				"method": "rhf"
			},
			{
				"type": "occ",
				"energy": -0.24334,
				"method": "rhf"
			},
			{
				"type": "occ",
				"energy": -0.22442,
				"method": "rhf"
			},
			{
				"type": "unocc",
				"energy": -0.01769,
				"method": "rhf"
			},
			{
				"type": "unocc",
				"energy": -0.01629,
				"method": "rhf"
			},
			{
				"type": "unocc",
				"energy": -0.01015,
				"method": "rhf"
			},
			{
				"type": "unocc",
				"energy": 0.00654,
				"method": "rhf"
			},
			{
				"type": "unocc",
				"energy": 0.01885,
				"method": "rhf"
			}
		],
		"cosmo_sigma_profile": { 
			"-0.025": 0.0,
			"-0.024": 0.0,
			"-0.023": 0.0,
			"-0.022": 0.0,
			"-0.021": 0.0,
			"-0.02": 0.0,
			"-0.019": 0.268740611153,
			"-0.018": 0.79687254679,
			"-0.017": 1.36655590243,
			"-0.016": 0.667615271885,
			"-0.015": 0.460005384639,
			"-0.014": 1.65083617083,
			"-0.013": 1.30025590967,
			"-0.012": 1.13283756712,
			"-0.011": 2.15257330413,
			"-0.01": 2.03704535855,
			"-0.009": 4.34988529758,
			"-0.008": 5.3804957987,
			"-0.007": 7.32977330938,
			"-0.006": 20.9965012134,
			"-0.005": 24.4688258024,
			"-0.004": 30.8681619027,
			"-0.003": 30.5639791121,
			"-0.002": 27.2190473028,
			"-0.001": 27.2519289387,
			"0.0": 23.4183496435,
			"0.001": 16.9711059907,
			"0.002": 15.0180172838,
			"0.003": 17.1191050448,
			"0.004": 16.6349581577,
			"0.005": 14.6821711616,
			"0.006": 10.5058594559,
			"0.007": 6.92569164157,
			"0.008": 7.14752577218,
			"0.009": 6.09996439118,
			"0.01": 7.23526513688,
			"0.011": 12.7732395602,
			"0.012": 9.32590565744,
			"0.013": 2.23636018956,
			"0.014": 1.38409171671,
			"0.015": 0.149884466325,
			"0.016": 0.0,
			"0.017": 0.0,
			"0.018": 0.0,
			"0.019": 0.0,
			"0.02": 0.0,
			"0.021": 0.0,
			"0.022": 0.0,
			"0.023": 0.0,
			"0.024": 0.0,
			"0.025": 0.0
		}
	}
}
