{
	 "smiles": "ClC1=CC(Cl)=C(C=C1)C1NC(=O)NC1=O", 
	 "Tm": 453.15, 
	 "num_atms": 21, 
	 "gaussian": { 
		 "optdone": 1, 
		 "sigma_profile": "yes", 
		 "theory": "DFT", 
		 "functional": "B3LYP", 
		 "basiset": "6-31G**", 
		 "properties": { 
			 "R2extent": 5600.0261, 
			 "electric_dipole_moment_norm": 3.0137921063, 
			 "electric_quadrupole_moment_norm": 17.6174609643, 
			 "total_energy": -1526.94172153, 
			 "HOMO_LUMO_gap": 0.2178, 
			 "cosmo_polarized_energy": -18.51, 
			 "cosmo_cavitation_energy": 29.6, 
			 "cosmo_dispersion_energy": -21.55, 
			 "cosmo_repulsion_energy": 1.71, 
			 "cosmo_total_nonelectrostatic_energy": 9.76, 
			 "SMD_solvation_energy": 5.57 
		},
		"coords": [
			{
				"x": -5.6471785806,
				"y": -1.1295605189,
				"z": 2.14993194,
				"element": "Cl" 
			},
			{
				"x": -4.1099342334,
				"y": -0.3781180752,
				"z": 1.7739248175,
				"element": "C" 
			},
			{
				"x": -3.0021162618,
				"y": -1.186636801,
				"z": 1.5265113317,
				"element": "C" 
			},
			{
				"x": -1.7791634984,
				"y": -0.5869400749,
				"z": 1.2290059416,
				"element": "C" 
			},
			{
				"x": -0.4255226594,
				"y": -1.6540049017,
				"z": 0.9059311239,
				"element": "Cl" 
			},
			{
				"x": -1.6336896011,
				"y": 0.809176401,
				"z": 1.1760816459,
				"element": "C" 
			},
			{
				"x": -2.7757358877,
				"y": 1.5799662157,
				"z": 1.4286541032,
				"element": "C" 
			},
			{
				"x": -4.0113693107,
				"y": 1.0101320166,
				"z": 1.7249695374,
				"element": "C" 
			},
			{
				"x": -0.3319950933,
				"y": 1.524369261,
				"z": 0.8729976912,
				"element": "C" 
			},
			{
				"x": 0.7674308808,
				"y": 1.2598263088,
				"z": 1.7863479874,
				"element": "N" 
			},
			{
				"x": 1.9573538335,
				"y": 0.997656687,
				"z": 1.1506445146,
				"element": "C" 
			},
			{
				"x": 3.052145094,
				"y": 0.8253124218,
				"z": 1.640435219,
				"element": "O" 
			},
			{
				"x": 1.646779088,
				"y": 0.9686647188,
				"z": -0.2260147492,
				"element": "N" 
			},
			{
				"x": 0.3130222193,
				"y": 1.181716269,
				"z": -0.4975614771,
				"element": "C" 
			},
			{
				"x": -0.2403268364,
				"y": 1.1573286772,
				"z": -1.5726838898,
				"element": "O" 
			},
			{
				"x": -3.0859879808,
				"y": -2.2658178539,
				"z": 1.5585333003,
				"element": "H" 
			},
			{
				"x": -2.6928382397,
				"y": 2.6625743993,
				"z": 1.3890681888,
				"element": "H" 
			},
			{
				"x": -4.8796778512,
				"y": 1.6299252303,
				"z": 1.9153702145,
				"element": "H" 
			},
			{
				"x": -0.5565846493,
				"y": 2.6003936281,
				"z": 0.8309228467,
				"element": "H" 
			},
			{
				"x": 0.7550036786,
				"y": 1.4719857654,
				"z": 2.7715049387,
				"element": "H" 
			},
			{
				"x": 2.3279858896,
				"y": 0.7003502259,
				"z": -0.9216752265,
				"element": "H" 
			}
		],
		 "valence_orbital": [ 
			{
				"type": "occ",
				"energy": -0.29422,
				"method": "rhf"
			},
			{
				"type": "occ",
				"energy": -0.27886,
				"method": "rhf"
			},
			{
				"type": "occ",
				"energy": -0.27383,
				"method": "rhf"
			},
			{
				"type": "occ",
				"energy": -0.27032,
				"method": "rhf"
			},
			{
				"type": "occ",
				"energy": -0.26142,
				"method": "rhf"
			},
			{
				"type": "unocc",
				"energy": -0.04362,
				"method": "rhf"
			},
			{
				"type": "unocc",
				"energy": -0.03817,
				"method": "rhf"
			},
			{
				"type": "unocc",
				"energy": -0.02104,
				"method": "rhf"
			},
			{
				"type": "unocc",
				"energy": 0.00197,
				"method": "rhf"
			},
			{
				"type": "unocc",
				"energy": 0.03954,
				"method": "rhf"
			}
		],
		"cosmo_sigma_profile": { 
			"-0.025": 0.0,
			"-0.024": 0.0,
			"-0.023": 0.0,
			"-0.022": 0.0,
			"-0.021": 0.0,
			"-0.02": 0.0,
			"-0.019": 0.0,
			"-0.018": 0.0,
			"-0.017": 0.695193333417,
			"-0.016": 2.08368410031,
			"-0.015": 2.39830888706,
			"-0.014": 1.60175074504,
			"-0.013": 2.01266440962,
			"-0.012": 1.66644703392,
			"-0.011": 1.78611808848,
			"-0.01": 3.61904194775,
			"-0.009": 7.33458225811,
			"-0.008": 8.76305899106,
			"-0.007": 8.27111258957,
			"-0.006": 9.60665900691,
			"-0.005": 6.85478328778,
			"-0.004": 6.65227967864,
			"-0.003": 9.614600185,
			"-0.002": 13.0989381372,
			"-0.001": 15.1166216666,
			"0.0": 20.5053798749,
			"0.001": 26.0189457146,
			"0.002": 18.4466906035,
			"0.003": 17.5677104908,
			"0.004": 17.9244036174,
			"0.005": 3.48747829534,
			"0.006": 2.87765998691,
			"0.007": 2.96156777787,
			"0.008": 1.62466656525,
			"0.009": 3.12263173208,
			"0.01": 3.96565643939,
			"0.011": 6.4482294302,
			"0.012": 9.82770056043,
			"0.013": 5.25179867959,
			"0.014": 0.298783259234,
			"0.015": 0.0,
			"0.016": 0.0,
			"0.017": 0.0,
			"0.018": 0.0,
			"0.019": 0.0,
			"0.02": 0.0,
			"0.021": 0.0,
			"0.022": 0.0,
			"0.023": 0.0,
			"0.024": 0.0,
			"0.025": 0.0
		}
	}
}
