{
	 "smiles": "COCC1=NC(Cl)=CC(Cl)=N1", 
	 "Tm": 317.15, 
	 "num_atms": 17, 
	 "gaussian": { 
		 "optdone": 1, 
		 "sigma_profile": "yes", 
		 "theory": "DFT", 
		 "functional": "B3LYP", 
		 "basiset": "6-31G**", 
		 "properties": { 
			 "R2extent": 3759.457, 
			 "electric_dipole_moment_norm": 0.900812111375, 
			 "electric_quadrupole_moment_norm": 10.1083696094, 
			 "total_energy": -1337.34043994, 
			 "HOMO_LUMO_gap": 0.20354, 
			 "cosmo_polarized_energy": -8.41, 
			 "cosmo_cavitation_energy": 25.77, 
			 "cosmo_dispersion_energy": -19.28, 
			 "cosmo_repulsion_energy": 1.6, 
			 "cosmo_total_nonelectrostatic_energy": 8.09, 
			 "SMD_solvation_energy": 1.62 
		},
		"coords": [
			{
				"x": -1.6214211422,
				"y": 1.2915193745,
				"z": 2.1431082784,
				"element": "C" 
			},
			{
				"x": -0.5204111947,
				"y": 0.9947294585,
				"z": 1.3071152133,
				"element": "O" 
			},
			{
				"x": -0.6326217801,
				"y": -0.2807274661,
				"z": 0.704129495,
				"element": "C" 
			},
			{
				"x": 0.5919989496,
				"y": -0.4814508563,
				"z": -0.1574260467,
				"element": "C" 
			},
			{
				"x": 0.5215917879,
				"y": -0.0606485472,
				"z": -1.4281389054,
				"element": "N" 
			},
			{
				"x": 1.6188295591,
				"y": -0.2056366792,
				"z": -2.1530757505,
				"element": "C" 
			},
			{
				"x": 1.5550322607,
				"y": 0.3311327374,
				"z": -3.8173412065,
				"element": "Cl" 
			},
			{
				"x": 2.8023789118,
				"y": -0.7596249596,
				"z": -1.6681099819,
				"element": "C" 
			},
			{
				"x": 2.7402583532,
				"y": -1.1642840307,
				"z": -0.3357133973,
				"element": "C" 
			},
			{
				"x": 4.1544193335,
				"y": -1.8909547668,
				"z": 0.3951368796,
				"element": "Cl" 
			},
			{
				"x": 1.6643201048,
				"y": -1.037470122,
				"z": 0.4237227752,
				"element": "N" 
			},
			{
				"x": -1.7132496459,
				"y": 0.5687354102,
				"z": 2.9688087734,
				"element": "H" 
			},
			{
				"x": -1.4474738934,
				"y": 2.2859040992,
				"z": 2.5599580043,
				"element": "H" 
			},
			{
				"x": -2.569043662,
				"y": 1.2996930843,
				"z": 1.5822362003,
				"element": "H" 
			},
			{
				"x": -1.5305477261,
				"y": -0.3418120715,
				"z": 0.071661617,
				"element": "H" 
			},
			{
				"x": -0.671477318,
				"y": -1.0754742363,
				"z": 1.463656632,
				"element": "H" 
			},
			{
				"x": 3.6898171017,
				"y": -0.8724304284,
				"z": -2.2752285802,
				"element": "H" 
			}
		],
		 "valence_orbital": [ 
			{
				"type": "occ",
				"energy": -0.32406,
				"method": "rhf"
			},
			{
				"type": "occ",
				"energy": -0.308,
				"method": "rhf"
			},
			{
				"type": "occ",
				"energy": -0.29202,
				"method": "rhf"
			},
			{
				"type": "occ",
				"energy": -0.2854,
				"method": "rhf"
			},
			{
				"type": "occ",
				"energy": -0.26391,
				"method": "rhf"
			},
			{
				"type": "unocc",
				"energy": -0.06037,
				"method": "rhf"
			},
			{
				"type": "unocc",
				"energy": -0.06016,
				"method": "rhf"
			},
			{
				"type": "unocc",
				"energy": -0.00084,
				"method": "rhf"
			},
			{
				"type": "unocc",
				"energy": 0.04047,
				"method": "rhf"
			},
			{
				"type": "unocc",
				"energy": 0.08218,
				"method": "rhf"
			}
		],
		"cosmo_sigma_profile": { 
			"-0.025": 0.0,
			"-0.024": 0.0,
			"-0.023": 0.0,
			"-0.022": 0.0,
			"-0.021": 0.0,
			"-0.02": 0.0,
			"-0.019": 0.0,
			"-0.018": 0.0,
			"-0.017": 0.0,
			"-0.016": 0.0,
			"-0.015": 0.0,
			"-0.014": 0.0,
			"-0.013": 0.0,
			"-0.012": 0.0,
			"-0.011": 0.255201049969,
			"-0.01": 1.56180692988,
			"-0.009": 1.82049317707,
			"-0.008": 1.36285600789,
			"-0.007": 1.70645138315,
			"-0.006": 4.37687719924,
			"-0.005": 15.3211492118,
			"-0.004": 24.6626050182,
			"-0.003": 26.8989690471,
			"-0.002": 20.8034639474,
			"-0.001": 11.0426782757,
			"0.0": 12.3254969995,
			"0.001": 12.1454670584,
			"0.002": 17.1074760163,
			"0.003": 20.1108985043,
			"0.004": 7.89342348414,
			"0.005": 5.20580831353,
			"0.006": 5.11555455202,
			"0.007": 5.09693725666,
			"0.008": 3.28265144793,
			"0.009": 3.18689309476,
			"0.01": 3.81823609212,
			"0.011": 3.45285642567,
			"0.012": 2.27215523179,
			"0.013": 0.0417957395932,
			"0.014": 0.0,
			"0.015": 0.0,
			"0.016": 0.0,
			"0.017": 0.0,
			"0.018": 0.0,
			"0.019": 0.0,
			"0.02": 0.0,
			"0.021": 0.0,
			"0.022": 0.0,
			"0.023": 0.0,
			"0.024": 0.0,
			"0.025": 0.0
		}
	}
}
