{
	 "smiles": "CC1=CC=C(Cl)C(O)=C1F", 
	 "Tm": 321.15, 
	 "num_atms": 16, 
	 "gaussian": { 
		 "optdone": 1, 
		 "sigma_profile": "yes", 
		 "theory": "DFT", 
		 "functional": "B3LYP", 
		 "basiset": "6-31G**", 
		 "properties": { 
			 "R2extent": 2627.9822, 
			 "electric_dipole_moment_norm": 2.75232329133, 
			 "electric_quadrupole_moment_norm": 9.45718301769, 
			 "total_energy": -905.611608979, 
			 "HOMO_LUMO_gap": 0.21808, 
			 "cosmo_polarized_energy": -6.96, 
			 "cosmo_cavitation_energy": 22.1, 
			 "cosmo_dispersion_energy": -16.59, 
			 "cosmo_repulsion_energy": 1.33, 
			 "cosmo_total_nonelectrostatic_energy": 6.84, 
			 "SMD_solvation_energy": 4.39 
		},
		"coords": [
			{
				"x": -0.7792848302,
				"y": -0.9510837743,
				"z": 1.0462678612,
				"element": "C" 
			},
			{
				"x": -0.3229079399,
				"y": -0.2936001086,
				"z": -0.2306107533,
				"element": "C" 
			},
			{
				"x": -0.123884874,
				"y": -0.9961865418,
				"z": -1.4267092336,
				"element": "C" 
			},
			{
				"x": 0.2994259507,
				"y": -0.3472847896,
				"z": -2.5865532793,
				"element": "C" 
			},
			{
				"x": 0.5353925922,
				"y": 1.0270658017,
				"z": -2.5788122989,
				"element": "C" 
			},
			{
				"x": 1.0661301269,
				"y": 1.8473948062,
				"z": -4.0285487062,
				"element": "Cl" 
			},
			{
				"x": 0.3487537876,
				"y": 1.7668153055,
				"z": -1.4046329198,
				"element": "C" 
			},
			{
				"x": 0.5711233088,
				"y": 3.1028216809,
				"z": -1.3706933147,
				"element": "O" 
			},
			{
				"x": -0.0760415711,
				"y": 1.0727326858,
				"z": -0.2687042942,
				"element": "C" 
			},
			{
				"x": -0.2467004807,
				"y": 1.8283979357,
				"z": 0.8562759893,
				"element": "F" 
			},
			{
				"x": -1.7245525059,
				"y": -0.5245267678,
				"z": 1.3987583078,
				"element": "H" 
			},
			{
				"x": -0.0478598775,
				"y": -0.8127146483,
				"z": 1.8497266852,
				"element": "H" 
			},
			{
				"x": -0.9238403477,
				"y": -2.0236869351,
				"z": 0.8980077317,
				"element": "H" 
			},
			{
				"x": -0.303585953,
				"y": -2.0666099859,
				"z": -1.447693513,
				"element": "H" 
			},
			{
				"x": 0.4498174349,
				"y": -0.902016528,
				"z": -3.5058104739,
				"element": "H" 
			},
			{
				"x": 0.3827151788,
				"y": 3.4070818636,
				"z": -0.4705677881,
				"element": "H" 
			}
		],
		 "valence_orbital": [ 
			{
				"type": "occ",
				"energy": -0.35757,
				"method": "rhf"
			},
			{
				"type": "occ",
				"energy": -0.32261,
				"method": "rhf"
			},
			{
				"type": "occ",
				"energy": -0.30994,
				"method": "rhf"
			},
			{
				"type": "occ",
				"energy": -0.24477,
				"method": "rhf"
			},
			{
				"type": "occ",
				"energy": -0.23068,
				"method": "rhf"
			},
			{
				"type": "unocc",
				"energy": -0.0126,
				"method": "rhf"
			},
			{
				"type": "unocc",
				"energy": -0.00082,
				"method": "rhf"
			},
			{
				"type": "unocc",
				"energy": 0.02534,
				"method": "rhf"
			},
			{
				"type": "unocc",
				"energy": 0.07505,
				"method": "rhf"
			},
			{
				"type": "unocc",
				"energy": 0.10847,
				"method": "rhf"
			}
		],
		"cosmo_sigma_profile": { 
			"-0.025": 0.0,
			"-0.024": 0.0,
			"-0.023": 0.0,
			"-0.022": 0.0,
			"-0.021": 0.0,
			"-0.02": 0.0,
			"-0.019": 0.0,
			"-0.018": 0.0,
			"-0.017": 0.358484751735,
			"-0.016": 0.657514597632,
			"-0.015": 0.950997852748,
			"-0.014": 0.681300352884,
			"-0.013": 0.312099428277,
			"-0.012": 0.452049839645,
			"-0.011": 1.38823267654,
			"-0.01": 1.12154574249,
			"-0.009": 0.70685197927,
			"-0.008": 1.13264150195,
			"-0.007": 3.0447695373,
			"-0.006": 5.96824858832,
			"-0.005": 9.54492281489,
			"-0.004": 9.49772778271,
			"-0.003": 10.6805075216,
			"-0.002": 12.1522152219,
			"-0.001": 16.1704686296,
			"0.0": 16.2437414802,
			"0.001": 16.1968021456,
			"0.002": 17.7456707437,
			"0.003": 17.3487331121,
			"0.004": 17.2333480375,
			"0.005": 7.22255945667,
			"0.006": 2.89131693348,
			"0.007": 1.99826430521,
			"0.008": 1.90615640498,
			"0.009": 2.00000044225,
			"0.01": 2.48540023673,
			"0.011": 0.682133783214,
			"0.012": 0.0,
			"0.013": 0.0,
			"0.014": 0.0,
			"0.015": 0.0,
			"0.016": 0.0,
			"0.017": 0.0,
			"0.018": 0.0,
			"0.019": 0.0,
			"0.02": 0.0,
			"0.021": 0.0,
			"0.022": 0.0,
			"0.023": 0.0,
			"0.024": 0.0,
			"0.025": 0.0
		}
	}
}
