{
	 "smiles": "CC1=NC2=C(S1)C=CC(=C2)C(F)(F)F", 
	 "Tm": 337.15, 
	 "num_atms": 20, 
	 "gaussian": { 
		 "optdone": 1, 
		 "sigma_profile": "yes", 
		 "theory": "DFT", 
		 "functional": "B3LYP", 
		 "basiset": "6-31G**", 
		 "properties": { 
			 "R2extent": 4586.2088, 
			 "electric_dipole_moment_norm": 3.462724888, 
			 "electric_quadrupole_moment_norm": 6.96398223289, 
			 "total_energy": -1099.05584381, 
			 "HOMO_LUMO_gap": 0.20445, 
			 "cosmo_polarized_energy": -6.29, 
			 "cosmo_cavitation_energy": 27.46, 
			 "cosmo_dispersion_energy": -20.37, 
			 "cosmo_repulsion_energy": 1.48, 
			 "cosmo_total_nonelectrostatic_energy": 8.57, 
			 "SMD_solvation_energy": 3.71 
		},
		"coords": [
			{
				"x": 1.4244873606,
				"y": 3.2386897728,
				"z": 0.1940031565,
				"element": "C" 
			},
			{
				"x": 1.2084313745,
				"y": 1.7585030677,
				"z": 0.1541646792,
				"element": "C" 
			},
			{
				"x": 0.7678760902,
				"y": 1.0568521705,
				"z": 1.1462455312,
				"element": "N" 
			},
			{
				"x": 0.6690052005,
				"y": -0.286243843,
				"z": 0.814413764,
				"element": "C" 
			},
			{
				"x": 1.0588636958,
				"y": -0.6185920087,
				"z": -0.505886255,
				"element": "C" 
			},
			{
				"x": 1.5633130748,
				"y": 0.8363722749,
				"z": -1.3359205482,
				"element": "S" 
			},
			{
				"x": 1.0117658995,
				"y": -1.9370593838,
				"z": -0.9679106276,
				"element": "C" 
			},
			{
				"x": 0.5686139403,
				"y": -2.9238541854,
				"z": -0.0960137723,
				"element": "C" 
			},
			{
				"x": 0.1780416789,
				"y": -2.6021809585,
				"z": 1.217975659,
				"element": "C" 
			},
			{
				"x": 0.2240917727,
				"y": -1.2923245124,
				"z": 1.680960677,
				"element": "C" 
			},
			{
				"x": -0.3375938795,
				"y": -3.7026813958,
				"z": 2.105002625,
				"element": "C" 
			},
			{
				"x": -0.3640195093,
				"y": -3.3418384565,
				"z": 3.4053080217,
				"element": "F" 
			},
			{
				"x": -1.5975586135,
				"y": -4.0657223245,
				"z": 1.7671897951,
				"element": "F" 
			},
			{
				"x": 0.4231354829,
				"y": -4.8177161839,
				"z": 2.0072132288,
				"element": "F" 
			},
			{
				"x": 1.153229523,
				"y": 3.6048440892,
				"z": 1.1854968291,
				"element": "H" 
			},
			{
				"x": 2.4708734104,
				"y": 3.4924928476,
				"z": -0.0061289484,
				"element": "H" 
			},
			{
				"x": 0.8102285115,
				"y": 3.749492626,
				"z": -0.5551393715,
				"element": "H" 
			},
			{
				"x": 1.3148259708,
				"y": -2.1907551587,
				"z": -1.9781821733,
				"element": "H" 
			},
			{
				"x": 0.5296055302,
				"y": -3.9565659274,
				"z": -0.4255121733,
				"element": "H" 
			},
			{
				"x": -0.0706165143,
				"y": -1.0397125103,
				"z": 2.6923199032,
				"element": "H" 
			}
		],
		 "valence_orbital": [ 
			{
				"type": "occ",
				"energy": -0.34835,
				"method": "rhf"
			},
			{
				"type": "occ",
				"energy": -0.31476,
				"method": "rhf"
			},
			{
				"type": "occ",
				"energy": -0.28506,
				"method": "rhf"
			},
			{
				"type": "occ",
				"energy": -0.25128,
				"method": "rhf"
			},
			{
				"type": "occ",
				"energy": -0.2495,
				"method": "rhf"
			},
			{
				"type": "unocc",
				"energy": -0.04505,
				"method": "rhf"
			},
			{
				"type": "unocc",
				"energy": -0.02856,
				"method": "rhf"
			},
			{
				"type": "unocc",
				"energy": 0.00011,
				"method": "rhf"
			},
			{
				"type": "unocc",
				"energy": 0.01954,
				"method": "rhf"
			},
			{
				"type": "unocc",
				"energy": 0.08068,
				"method": "rhf"
			}
		],
		"cosmo_sigma_profile": { 
			"-0.025": 0.0,
			"-0.024": 0.0,
			"-0.023": 0.0,
			"-0.022": 0.0,
			"-0.021": 0.0,
			"-0.02": 0.0,
			"-0.019": 0.0,
			"-0.018": 0.0,
			"-0.017": 0.0,
			"-0.016": 0.0,
			"-0.015": 0.0,
			"-0.014": 0.0,
			"-0.013": 0.0,
			"-0.012": 0.0,
			"-0.011": 0.0,
			"-0.01": 0.0,
			"-0.009": 0.00580538138108,
			"-0.008": 2.50202481507,
			"-0.007": 6.48444711276,
			"-0.006": 11.6703688411,
			"-0.005": 12.7803892727,
			"-0.004": 12.8780009883,
			"-0.003": 12.562686149,
			"-0.002": 15.4982289202,
			"-0.001": 16.3464466446,
			"0.0": 16.7861333944,
			"0.001": 23.8560806692,
			"0.002": 36.523608668,
			"0.003": 38.032212515,
			"0.004": 6.14648623808,
			"0.005": 2.04273596382,
			"0.006": 1.68677938106,
			"0.007": 0.975926756935,
			"0.008": 0.783734084105,
			"0.009": 1.43268387945,
			"0.01": 0.665657673471,
			"0.011": 0.760109446483,
			"0.012": 0.954164762018,
			"0.013": 0.959773889684,
			"0.014": 0.748872809266,
			"0.015": 0.0432361178504,
			"0.016": 0.0,
			"0.017": 0.0,
			"0.018": 0.0,
			"0.019": 0.0,
			"0.02": 0.0,
			"0.021": 0.0,
			"0.022": 0.0,
			"0.023": 0.0,
			"0.024": 0.0,
			"0.025": 0.0
		}
	}
}
