{
	 "smiles": "[O-][N+](=O)C1=C(C=C(F)C=C1)S(Cl)(=O)=O", 
	 "Tm": 331.15, 
	 "num_atms": 17, 
	 "gaussian": { 
		 "optdone": 1, 
		 "sigma_profile": "yes", 
		 "theory": "DFT", 
		 "functional": "B3LYP", 
		 "basiset": "6-31G**", 
		 "properties": { 
			 "R2extent": 3382.2048, 
			 "electric_dipole_moment_norm": 5.77488805173, 
			 "electric_quadrupole_moment_norm": 11.1337102917, 
			 "total_energy": -1544.11092502, 
			 "HOMO_LUMO_gap": 0.18099, 
			 "cosmo_polarized_energy": -13.04, 
			 "cosmo_cavitation_energy": 26.32, 
			 "cosmo_dispersion_energy": -19.67, 
			 "cosmo_repulsion_energy": 1.47, 
			 "cosmo_total_nonelectrostatic_energy": 8.11, 
			 "SMD_solvation_energy": 5.91 
		},
		"coords": [
			{
				"x": 1.8790864058,
				"y": -1.0233850024,
				"z": 1.7937724216,
				"element": "O" 
			},
			{
				"x": 1.6542349943,
				"y": -1.8091760384,
				"z": 0.8812971172,
				"element": "N" 
			},
			{
				"x": 2.0780335521,
				"y": -2.9594515246,
				"z": 0.8022809999,
				"element": "O" 
			},
			{
				"x": 0.754225816,
				"y": -1.3560966593,
				"z": -0.1939321968,
				"element": "C" 
			},
			{
				"x": 0.6136575201,
				"y": -0.010798319,
				"z": -0.5751832489,
				"element": "C" 
			},
			{
				"x": -0.3096372018,
				"y": 0.3309977246,
				"z": -1.5607929537,
				"element": "C" 
			},
			{
				"x": -1.089916615,
				"y": -0.6697796103,
				"z": -2.1344741412,
				"element": "C" 
			},
			{
				"x": -1.982574075,
				"y": -0.3269057767,
				"z": -3.0690759386,
				"element": "F" 
			},
			{
				"x": -0.9549829429,
				"y": -2.005730439,
				"z": -1.7781732792,
				"element": "C" 
			},
			{
				"x": -0.0178051913,
				"y": -2.3417901547,
				"z": -0.8063747332,
				"element": "C" 
			},
			{
				"x": 1.6740053907,
				"y": 1.3722796912,
				"z": -0.0450701244,
				"element": "S" 
			},
			{
				"x": 0.8452522362,
				"y": 1.9167238434,
				"z": 1.8086174261,
				"element": "Cl" 
			},
			{
				"x": 1.3772294356,
				"y": 2.4860099832,
				"z": -0.9381430924,
				"element": "O" 
			},
			{
				"x": 3.0354087828,
				"y": 0.9037670085,
				"z": 0.1511181469,
				"element": "O" 
			},
			{
				"x": -0.4081363725,
				"y": 1.3573140393,
				"z": -1.8917761541,
				"element": "H" 
			},
			{
				"x": -1.5716683148,
				"y": -2.7589503369,
				"z": -2.2548251635,
				"element": "H" 
			},
			{
				"x": 0.1295865795,
				"y": -3.3702284289,
				"z": -0.5004650858,
				"element": "H" 
			}
		],
		 "valence_orbital": [ 
			{
				"type": "occ",
				"energy": -0.3307,
				"method": "rhf"
			},
			{
				"type": "occ",
				"energy": -0.32212,
				"method": "rhf"
			},
			{
				"type": "occ",
				"energy": -0.32092,
				"method": "rhf"
			},
			{
				"type": "occ",
				"energy": -0.31887,
				"method": "rhf"
			},
			{
				"type": "occ",
				"energy": -0.29971,
				"method": "rhf"
			},
			{
				"type": "unocc",
				"energy": -0.11872,
				"method": "rhf"
			},
			{
				"type": "unocc",
				"energy": -0.09465,
				"method": "rhf"
			},
			{
				"type": "unocc",
				"energy": -0.07306,
				"method": "rhf"
			},
			{
				"type": "unocc",
				"energy": -0.03839,
				"method": "rhf"
			},
			{
				"type": "unocc",
				"energy": 0.02364,
				"method": "rhf"
			}
		],
		"cosmo_sigma_profile": { 
			"-0.025": 0.0,
			"-0.024": 0.0,
			"-0.023": 0.0,
			"-0.022": 0.0,
			"-0.021": 0.0,
			"-0.02": 0.0,
			"-0.019": 0.0,
			"-0.018": 0.0,
			"-0.017": 0.0,
			"-0.016": 0.0,
			"-0.015": 0.0,
			"-0.014": 0.0,
			"-0.013": 0.0,
			"-0.012": 0.0,
			"-0.011": 0.0917796376864,
			"-0.01": 4.28756196548,
			"-0.009": 5.82915990051,
			"-0.008": 6.31264264001,
			"-0.007": 7.1516629931,
			"-0.006": 7.43525461975,
			"-0.005": 11.0563311445,
			"-0.004": 16.9816185026,
			"-0.003": 19.9302216396,
			"-0.002": 14.2294029366,
			"-0.001": 11.7731419874,
			"0.0": 8.16439053279,
			"0.001": 10.9143640389,
			"0.002": 19.5211610204,
			"0.003": 15.4473407624,
			"0.004": 7.05920203701,
			"0.005": 7.15923231016,
			"0.006": 11.3263932486,
			"0.007": 15.0672175399,
			"0.008": 12.7802268686,
			"0.009": 2.98187181076,
			"0.01": 0.0084128073255,
			"0.011": 0.0,
			"0.012": 0.0,
			"0.013": 0.0,
			"0.014": 0.0,
			"0.015": 0.0,
			"0.016": 0.0,
			"0.017": 0.0,
			"0.018": 0.0,
			"0.019": 0.0,
			"0.02": 0.0,
			"0.021": 0.0,
			"0.022": 0.0,
			"0.023": 0.0,
			"0.024": 0.0,
			"0.025": 0.0
		}
	}
}
