{
	 "smiles": "[O-][N+](=O)C1=CC(Cl)=CC=C1Cl", 
	 "Tm": 328.65, 
	 "num_atms": 14, 
	 "gaussian": { 
		 "optdone": 1, 
		 "sigma_profile": "yes", 
		 "theory": "DFT", 
		 "functional": "B3LYP", 
		 "basiset": "6-31G**", 
		 "properties": { 
			 "R2extent": 3695.6767, 
			 "electric_dipole_moment_norm": 3.94181444769, 
			 "electric_quadrupole_moment_norm": 11.019803363, 
			 "total_energy": -1355.91369046, 
			 "HOMO_LUMO_gap": 0.16972, 
			 "cosmo_polarized_energy": -8.12, 
			 "cosmo_cavitation_energy": 23.07, 
			 "cosmo_dispersion_energy": -17.3, 
			 "cosmo_repulsion_energy": 1.39, 
			 "cosmo_total_nonelectrostatic_energy": 7.16, 
			 "SMD_solvation_energy": 5.72 
		},
		"coords": [
			{
				"x": -1.4499589359,
				"y": 0.9310592979,
				"z": -1.9623972007,
				"element": "O" 
			},
			{
				"x": -0.3489054085,
				"y": 0.5226933709,
				"z": -2.3118598767,
				"element": "N" 
			},
			{
				"x": 0.3879285537,
				"y": 1.0705643441,
				"z": -3.130772786,
				"element": "O" 
			},
			{
				"x": 0.1666041923,
				"y": -0.7082378634,
				"z": -1.6799338965,
				"element": "C" 
			},
			{
				"x": 1.5525343868,
				"y": -0.776352886,
				"z": -1.5268894278,
				"element": "C" 
			},
			{
				"x": 2.1176175522,
				"y": -1.8834270839,
				"z": -0.906836257,
				"element": "C" 
			},
			{
				"x": 3.8511729526,
				"y": -1.9610390706,
				"z": -0.6914313074,
				"element": "Cl" 
			},
			{
				"x": 1.3137443973,
				"y": -2.9335201289,
				"z": -0.4596418238,
				"element": "C" 
			},
			{
				"x": -0.0639888033,
				"y": -2.8661103578,
				"z": -0.6413090462,
				"element": "C" 
			},
			{
				"x": -0.6608883464,
				"y": -1.7541692435,
				"z": -1.2443544579,
				"element": "C" 
			},
			{
				"x": -2.3853017866,
				"y": -1.7883767665,
				"z": -1.4708625342,
				"element": "Cl" 
			},
			{
				"x": 2.1602445899,
				"y": 0.0395141017,
				"z": -1.8961125907,
				"element": "H" 
			},
			{
				"x": 1.7605675871,
				"y": -3.7976609792,
				"z": 0.0187758337,
				"element": "H" 
			},
			{
				"x": -0.6957709312,
				"y": -3.6846367347,
				"z": -0.3157746288,
				"element": "H" 
			}
		],
		 "valence_orbital": [ 
			{
				"type": "occ",
				"energy": -0.32019,
				"method": "rhf"
			},
			{
				"type": "occ",
				"energy": -0.31959,
				"method": "rhf"
			},
			{
				"type": "occ",
				"energy": -0.30905,
				"method": "rhf"
			},
			{
				"type": "occ",
				"energy": -0.29256,
				"method": "rhf"
			},
			{
				"type": "occ",
				"energy": -0.27022,
				"method": "rhf"
			},
			{
				"type": "unocc",
				"energy": -0.1005,
				"method": "rhf"
			},
			{
				"type": "unocc",
				"energy": -0.05088,
				"method": "rhf"
			},
			{
				"type": "unocc",
				"energy": -0.02909,
				"method": "rhf"
			},
			{
				"type": "unocc",
				"energy": -0.00503,
				"method": "rhf"
			},
			{
				"type": "unocc",
				"energy": 0.01671,
				"method": "rhf"
			}
		],
		"cosmo_sigma_profile": { 
			"-0.025": 0.0,
			"-0.024": 0.0,
			"-0.023": 0.0,
			"-0.022": 0.0,
			"-0.021": 0.0,
			"-0.02": 0.0,
			"-0.019": 0.0,
			"-0.018": 0.0,
			"-0.017": 0.0,
			"-0.016": 0.0,
			"-0.015": 0.0,
			"-0.014": 0.0,
			"-0.013": 0.0,
			"-0.012": 0.0,
			"-0.011": 0.0,
			"-0.01": 0.242445964495,
			"-0.009": 5.02027733672,
			"-0.008": 6.89542854671,
			"-0.007": 7.07869447056,
			"-0.006": 5.76827822851,
			"-0.005": 6.85449785554,
			"-0.004": 7.06229228647,
			"-0.003": 11.2032343509,
			"-0.002": 17.926999892,
			"-0.001": 24.0569958488,
			"0.0": 16.7351284698,
			"0.001": 9.91069471508,
			"0.002": 15.0028915422,
			"0.003": 17.4217753723,
			"0.004": 9.29186637929,
			"0.005": 4.22698308313,
			"0.006": 5.29477974898,
			"0.007": 11.230771196,
			"0.008": 6.24862420724,
			"0.009": 2.99220536896,
			"0.01": 0.336660863379,
			"0.011": 0.0,
			"0.012": 0.0,
			"0.013": 0.0,
			"0.014": 0.0,
			"0.015": 0.0,
			"0.016": 0.0,
			"0.017": 0.0,
			"0.018": 0.0,
			"0.019": 0.0,
			"0.02": 0.0,
			"0.021": 0.0,
			"0.022": 0.0,
			"0.023": 0.0,
			"0.024": 0.0,
			"0.025": 0.0
		}
	}
}
