{
	 "smiles": "O=CC1=CC2=C(C=NN2)C=C1", 
	 "Tm": 453.15, 
	 "num_atms": 17, 
	 "gaussian": { 
		 "optdone": 1, 
		 "sigma_profile": "yes", 
		 "theory": "DFT", 
		 "functional": "B3LYP", 
		 "basiset": "6-31G**", 
		 "properties": { 
			 "R2extent": 2085.8878, 
			 "electric_dipole_moment_norm": 1.78836730008, 
			 "electric_quadrupole_moment_norm": 13.3190540858, 
			 "total_energy": -493.169186251, 
			 "HOMO_LUMO_gap": 0.16305, 
			 "cosmo_polarized_energy": -12.05, 
			 "cosmo_cavitation_energy": 21.89, 
			 "cosmo_dispersion_energy": -16.35, 
			 "cosmo_repulsion_energy": 1.29, 
			 "cosmo_total_nonelectrostatic_energy": 6.83, 
			 "SMD_solvation_energy": 3.89 
		},
		"coords": [
			{
				"x": 1.016311281,
				"y": -2.8186991466,
				"z": -2.8440004287,
				"element": "O" 
			},
			{
				"x": 0.9130727051,
				"y": -2.5437622032,
				"z": -1.6628751948,
				"element": "C" 
			},
			{
				"x": 0.2854763492,
				"y": -1.3096449577,
				"z": -1.1378432889,
				"element": "C" 
			},
			{
				"x": -0.2334501649,
				"y": -0.3768127903,
				"z": -2.0346643053,
				"element": "C" 
			},
			{
				"x": -0.8145362474,
				"y": 0.7696806603,
				"z": -1.4887082389,
				"element": "C" 
			},
			{
				"x": -0.8833548488,
				"y": 0.9935471856,
				"z": -0.0851773221,
				"element": "C" 
			},
			{
				"x": -1.5396907297,
				"y": 2.2558237295,
				"z": 0.0368730496,
				"element": "C" 
			},
			{
				"x": -1.8447716671,
				"y": 2.7609386372,
				"z": -1.1466267277,
				"element": "N" 
			},
			{
				"x": -1.4063042372,
				"y": 1.8628051593,
				"z": -2.0628062291,
				"element": "N" 
			},
			{
				"x": -0.3518260736,
				"y": 0.0359065613,
				"z": 0.7996954796,
				"element": "C" 
			},
			{
				"x": 0.2251719064,
				"y": -1.1020771968,
				"z": 0.2651686186,
				"element": "C" 
			},
			{
				"x": 1.3012631679,
				"y": -3.2343394789,
				"z": -0.8816456345,
				"element": "H" 
			},
			{
				"x": -0.1701759776,
				"y": -0.5678812467,
				"z": -3.1010849756,
				"element": "H" 
			},
			{
				"x": -1.7942528197,
				"y": 2.8013998336,
				"z": 0.9354427423,
				"element": "H" 
			},
			{
				"x": -1.5424295408,
				"y": 2.0583458405,
				"z": -3.041731971,
				"element": "H" 
			},
			{
				"x": -0.3945683567,
				"y": 0.1882625078,
				"z": 1.8738268181,
				"element": "H" 
			},
			{
				"x": 0.644365254,
				"y": -1.8600930949,
				"z": 0.9218576084,
				"element": "H" 
			}
		],
		 "valence_orbital": [ 
			{
				"type": "occ",
				"energy": -0.30503,
				"method": "rhf"
			},
			{
				"type": "occ",
				"energy": -0.30478,
				"method": "rhf"
			},
			{
				"type": "occ",
				"energy": -0.25727,
				"method": "rhf"
			},
			{
				"type": "occ",
				"energy": -0.2572,
				"method": "rhf"
			},
			{
				"type": "occ",
				"energy": -0.23526,
				"method": "rhf"
			},
			{
				"type": "unocc",
				"energy": -0.07221,
				"method": "rhf"
			},
			{
				"type": "unocc",
				"energy": -0.01647,
				"method": "rhf"
			},
			{
				"type": "unocc",
				"energy": 0.02499,
				"method": "rhf"
			},
			{
				"type": "unocc",
				"energy": 0.06425,
				"method": "rhf"
			},
			{
				"type": "unocc",
				"energy": 0.07606,
				"method": "rhf"
			}
		],
		"cosmo_sigma_profile": { 
			"-0.025": 0.0,
			"-0.024": 0.0,
			"-0.023": 0.0,
			"-0.022": 0.0,
			"-0.021": 0.0,
			"-0.02": 0.0,
			"-0.019": 0.0,
			"-0.018": 0.00110636050752,
			"-0.017": 0.8011804567,
			"-0.016": 1.72191024411,
			"-0.015": 0.940067272312,
			"-0.014": 1.55768437572,
			"-0.013": 0.905052657687,
			"-0.012": 0.799243376768,
			"-0.011": 1.27583645088,
			"-0.01": 1.30806760445,
			"-0.009": 1.25955853299,
			"-0.008": 2.97272223924,
			"-0.007": 8.97609693655,
			"-0.006": 10.8560251717,
			"-0.005": 10.6947241095,
			"-0.004": 9.63648654625,
			"-0.003": 9.14785684083,
			"-0.002": 7.23712871568,
			"-0.001": 7.65150184142,
			"0.0": 9.77452222589,
			"0.001": 15.4216658879,
			"0.002": 18.652793449,
			"0.003": 14.421794829,
			"0.004": 7.765873526,
			"0.005": 3.85464823928,
			"0.006": 2.59057148697,
			"0.007": 3.78929543058,
			"0.008": 2.59338736564,
			"0.009": 3.41809664217,
			"0.01": 3.51740644857,
			"0.011": 5.31929318942,
			"0.012": 4.30824468788,
			"0.013": 1.84498429077,
			"0.014": 0.825971116058,
			"0.015": 0.556568598564,
			"0.016": 0.0,
			"0.017": 0.0,
			"0.018": 0.0,
			"0.019": 0.0,
			"0.02": 0.0,
			"0.021": 0.0,
			"0.022": 0.0,
			"0.023": 0.0,
			"0.024": 0.0,
			"0.025": 0.0
		}
	}
}
