{
	 "smiles": "CCN(CC)CCNC(=O)C1=CC(Cl)=C(N)C=C1OC", 
	 "Tm": 419.15, 
	 "num_atms": 42, 
	 "gaussian": { 
		 "optdone": 1, 
		 "sigma_profile": "yes", 
		 "theory": "DFT", 
		 "functional": "B3LYP", 
		 "basiset": "6-31G**", 
		 "properties": { 
			 "R2extent": 9645.5928, 
			 "electric_dipole_moment_norm": 7.01057626019, 
			 "electric_quadrupole_moment_norm": 25.24700409, 
			 "total_energy": -1321.64583463, 
			 "HOMO_LUMO_gap": 0.19174, 
			 "cosmo_polarized_energy": -19.84, 
			 "cosmo_cavitation_energy": 45.34, 
			 "cosmo_dispersion_energy": -30.95, 
			 "cosmo_repulsion_energy": 2.44, 
			 "cosmo_total_nonelectrostatic_energy": 16.84, 
			 "SMD_solvation_energy": 7.52 
		},
		"coords": [
			{
				"x": -3.2871259022,
				"y": 2.4814063606,
				"z": 2.0677509708,
				"element": "C" 
			},
			{
				"x": -3.8443879009,
				"y": 1.4304107189,
				"z": 1.1047305604,
				"element": "C" 
			},
			{
				"x": -2.8255432716,
				"y": 0.890012937,
				"z": 0.1945377659,
				"element": "N" 
			},
			{
				"x": -3.3673028624,
				"y": 0.463627162,
				"z": -1.1032005828,
				"element": "C" 
			},
			{
				"x": -4.3728414034,
				"y": -0.7010772142,
				"z": -1.0906534276,
				"element": "C" 
			},
			{
				"x": -1.9368663123,
				"y": -0.0868721584,
				"z": 0.8284738287,
				"element": "C" 
			},
			{
				"x": -0.5718248795,
				"y": -0.1822004676,
				"z": 0.134752067,
				"element": "C" 
			},
			{
				"x": 0.0045953273,
				"y": 1.1505574676,
				"z": 0.0432719484,
				"element": "N" 
			},
			{
				"x": 1.2404370949,
				"y": 1.5004540392,
				"z": -0.4300979895,
				"element": "C" 
			},
			{
				"x": 1.4510324958,
				"y": 2.6272595484,
				"z": -0.8757634889,
				"element": "O" 
			},
			{
				"x": 2.3460877643,
				"y": 0.4763963016,
				"z": -0.4313475869,
				"element": "C" 
			},
			{
				"x": 3.1311793839,
				"y": 0.4225675136,
				"z": -1.5868459684,
				"element": "C" 
			},
			{
				"x": 4.2142769619,
				"y": -0.4362692822,
				"z": -1.6935355929,
				"element": "C" 
			},
			{
				"x": 5.1358842194,
				"y": -0.4962177801,
				"z": -3.1980238596,
				"element": "Cl" 
			},
			{
				"x": 4.5974052044,
				"y": -1.2597335395,
				"z": -0.6190015452,
				"element": "C" 
			},
			{
				"x": 5.7095101686,
				"y": -2.0775690361,
				"z": -0.6849899113,
				"element": "N" 
			},
			{
				"x": 3.8373602173,
				"y": -1.1775782453,
				"z": 0.562674772,
				"element": "C" 
			},
			{
				"x": 2.7361899538,
				"y": -0.3256196207,
				"z": 0.663683216,
				"element": "C" 
			},
			{
				"x": 2.0014462938,
				"y": -0.2024642654,
				"z": 1.8092695332,
				"element": "O" 
			},
			{
				"x": 2.4385290945,
				"y": -0.875009641,
				"z": 2.9801183244,
				"element": "C" 
			},
			{
				"x": -2.8416780458,
				"y": 3.3118018916,
				"z": 1.5121132734,
				"element": "H" 
			},
			{
				"x": -4.0885409209,
				"y": 2.8764942195,
				"z": 2.7012970308,
				"element": "H" 
			},
			{
				"x": -2.5184779909,
				"y": 2.0712208414,
				"z": 2.7301042608,
				"element": "H" 
			},
			{
				"x": -4.3535619083,
				"y": 0.6341426293,
				"z": 1.6774397625,
				"element": "H" 
			},
			{
				"x": -4.6165421766,
				"y": 1.9017455309,
				"z": 0.4861858544,
				"element": "H" 
			},
			{
				"x": -2.5246286961,
				"y": 0.20569131,
				"z": -1.7541352374,
				"element": "H" 
			},
			{
				"x": -3.8407753497,
				"y": 1.3414044545,
				"z": -1.5591437385,
				"element": "H" 
			},
			{
				"x": -5.2589065661,
				"y": -0.4637043832,
				"z": -0.4931901627,
				"element": "H" 
			},
			{
				"x": -4.7084161936,
				"y": -0.9149130637,
				"z": -2.1109788096,
				"element": "H" 
			},
			{
				"x": -3.9345199019,
				"y": -1.6209701796,
				"z": -0.6906926542,
				"element": "H" 
			},
			{
				"x": -2.3773533612,
				"y": -1.0978446666,
				"z": 0.8855503874,
				"element": "H" 
			},
			{
				"x": -1.7635194057,
				"y": 0.2395050424,
				"z": 1.8578278046,
				"element": "H" 
			},
			{
				"x": -0.6778056241,
				"y": -0.6436763829,
				"z": -0.858870959,
				"element": "H" 
			},
			{
				"x": 0.0705265664,
				"y": -0.8320808304,
				"z": 0.7308654784,
				"element": "H" 
			},
			{
				"x": -0.6902831792,
				"y": 1.8787386035,
				"z": -0.093439019,
				"element": "H" 
			},
			{
				"x": 2.8768330485,
				"y": 1.0770978327,
				"z": -2.4125233963,
				"element": "H" 
			},
			{
				"x": 6.0527848203,
				"y": -2.2856943741,
				"z": -1.6116377622,
				"element": "H" 
			},
			{
				"x": 5.7284375792,
				"y": -2.8618741699,
				"z": -0.050811319,
				"element": "H" 
			},
			{
				"x": 4.1460935276,
				"y": -1.7817557107,
				"z": 1.4077025009,
				"element": "H" 
			},
			{
				"x": 3.4555177347,
				"y": -0.5740606038,
				"z": 3.2598923444,
				"element": "H" 
			},
			{
				"x": 1.7456993558,
				"y": -0.5803295558,
				"z": 3.7696597405,
				"element": "H" 
			},
			{
				"x": 2.4050750399,
				"y": -1.9659192337,
				"z": 2.861381586,
				"element": "H" 
			}
		],
		 "valence_orbital": [ 
			{
				"type": "occ",
				"energy": -0.24179,
				"method": "rhf"
			},
			{
				"type": "occ",
				"energy": -0.23221,
				"method": "rhf"
			},
			{
				"type": "occ",
				"energy": -0.22596,
				"method": "rhf"
			},
			{
				"type": "occ",
				"energy": -0.21323,
				"method": "rhf"
			},
			{
				"type": "occ",
				"energy": -0.20245,
				"method": "rhf"
			},
			{
				"type": "unocc",
				"energy": -0.01071,
				"method": "rhf"
			},
			{
				"type": "unocc",
				"energy": 0.00454,
				"method": "rhf"
			},
			{
				"type": "unocc",
				"energy": 0.03482,
				"method": "rhf"
			},
			{
				"type": "unocc",
				"energy": 0.05744,
				"method": "rhf"
			},
			{
				"type": "unocc",
				"energy": 0.07604,
				"method": "rhf"
			}
		],
		"cosmo_sigma_profile": { 
			"-0.025": 0.0,
			"-0.024": 0.0,
			"-0.023": 0.0,
			"-0.022": 0.0,
			"-0.021": 0.0,
			"-0.02": 0.0,
			"-0.019": 0.0,
			"-0.018": 0.0,
			"-0.017": 0.0,
			"-0.016": 0.0,
			"-0.015": 0.0,
			"-0.014": 0.389377180098,
			"-0.013": 1.41421461949,
			"-0.012": 2.30844935322,
			"-0.011": 2.35220143043,
			"-0.01": 2.43113035373,
			"-0.009": 2.92791021384,
			"-0.008": 3.18172170764,
			"-0.007": 4.20333530278,
			"-0.006": 8.71153131093,
			"-0.005": 12.7828565191,
			"-0.004": 22.0646383823,
			"-0.003": 38.8483046129,
			"-0.002": 41.149998464,
			"-0.001": 43.4056859176,
			"0.0": 33.0185382157,
			"0.001": 31.1812472227,
			"0.002": 21.1448564997,
			"0.003": 21.0682591661,
			"0.004": 18.6804807473,
			"0.005": 11.171033475,
			"0.006": 5.39011587669,
			"0.007": 4.70354840795,
			"0.008": 3.20461444978,
			"0.009": 2.12529219396,
			"0.01": 3.08765913964,
			"0.011": 3.08737501823,
			"0.012": 2.37652197016,
			"0.013": 2.42952138586,
			"0.014": 5.27670192831,
			"0.015": 3.09141491607,
			"0.016": 0.186089789771,
			"0.017": 0.0,
			"0.018": 0.0,
			"0.019": 0.0,
			"0.02": 0.0,
			"0.021": 0.0,
			"0.022": 0.0,
			"0.023": 0.0,
			"0.024": 0.0,
			"0.025": 0.0
		}
	}
}
