{
	 "smiles": "CC1=CC(C)=C(C(=O)CCl)C(C)=C1", 
	 "Tm": 342.15, 
	 "num_atms": 26, 
	 "gaussian": { 
		 "optdone": 1, 
		 "sigma_profile": "yes", 
		 "theory": "DFT", 
		 "functional": "B3LYP", 
		 "basiset": "6-31G**", 
		 "properties": { 
			 "R2extent": 3506.849, 
			 "electric_dipole_moment_norm": 4.51394170764, 
			 "electric_quadrupole_moment_norm": 12.1407240941, 
			 "total_energy": -962.432013913, 
			 "HOMO_LUMO_gap": 0.20108, 
			 "cosmo_polarized_energy": -10.99, 
			 "cosmo_cavitation_energy": 30.68, 
			 "cosmo_dispersion_energy": -21.62, 
			 "cosmo_repulsion_energy": 1.73, 
			 "cosmo_total_nonelectrostatic_energy": 10.78, 
			 "SMD_solvation_energy": 5.46 
		},
		"coords": [
			{
				"x": -1.3988592519,
				"y": 0.0705731407,
				"z": -3.7331829407,
				"element": "C" 
			},
			{
				"x": -0.9868737667,
				"y": 0.1712189278,
				"z": -2.2838214703,
				"element": "C" 
			},
			{
				"x": -1.7980810111,
				"y": 0.8361911935,
				"z": -1.3554455634,
				"element": "C" 
			},
			{
				"x": -1.4505494357,
				"y": 0.9357349768,
				"z": -0.0078857913,
				"element": "C" 
			},
			{
				"x": -2.3433809906,
				"y": 1.6938877653,
				"z": 0.9496954982,
				"element": "C" 
			},
			{
				"x": -0.2544668745,
				"y": 0.3229391225,
				"z": 0.4288091547,
				"element": "C" 
			},
			{
				"x": 0.1200614607,
				"y": 0.4323435686,
				"z": 1.8881228339,
				"element": "C" 
			},
			{
				"x": 0.4069716933,
				"y": 1.4842222033,
				"z": 2.4169080111,
				"element": "O" 
			},
			{
				"x": 0.01366025,
				"y": -0.8837293872,
				"z": 2.6630716605,
				"element": "C" 
			},
			{
				"x": 0.6206372743,
				"y": -0.7878225469,
				"z": 4.3480566947,
				"element": "Cl" 
			},
			{
				"x": 0.5870213952,
				"y": -0.3391606221,
				"z": -0.4838418076,
				"element": "C" 
			},
			{
				"x": 1.9053864115,
				"y": -0.9603694592,
				"z": -0.0678451277,
				"element": "C" 
			},
			{
				"x": 0.2047403467,
				"y": -0.3957111889,
				"z": -1.8300594288,
				"element": "C" 
			},
			{
				"x": -1.7865428583,
				"y": 1.0244283747,
				"z": -4.1054952765,
				"element": "H" 
			},
			{
				"x": -0.5597657034,
				"y": -0.2256877449,
				"z": -4.3686446465,
				"element": "H" 
			},
			{
				"x": -2.1932767745,
				"y": -0.6740246917,
				"z": -3.8669227574,
				"element": "H" 
			},
			{
				"x": -2.7219621079,
				"y": 1.3003622938,
				"z": -1.6935987037,
				"element": "H" 
			},
			{
				"x": -1.8197861621,
				"y": 2.5526845891,
				"z": 1.3791976868,
				"element": "H" 
			},
			{
				"x": -3.2396556314,
				"y": 2.0545059449,
				"z": 0.4391724649,
				"element": "H" 
			},
			{
				"x": -2.6694542561,
				"y": 1.0695544902,
				"z": 1.7901045827,
				"element": "H" 
			},
			{
				"x": -1.0428643729,
				"y": -1.1689966831,
				"z": 2.7001751437,
				"element": "H" 
			},
			{
				"x": 0.5517168429,
				"y": -1.6826972836,
				"z": 2.151234759,
				"element": "H" 
			},
			{
				"x": 2.362746389,
				"y": -0.4416346581,
				"z": 0.7793520063,
				"element": "H" 
			},
			{
				"x": 1.7909738797,
				"y": -2.0163529982,
				"z": 0.2089512626,
				"element": "H" 
			},
			{
				"x": 2.619727204,
				"y": -0.9275180378,
				"z": -0.8951642398,
				"element": "H" 
			},
			{
				"x": 0.8634760498,
				"y": -0.8899412895,
				"z": -2.5408440053,
				"element": "H" 
			}
		],
		 "valence_orbital": [ 
			{
				"type": "occ",
				"energy": -0.30101,
				"method": "rhf"
			},
			{
				"type": "occ",
				"energy": -0.29694,
				"method": "rhf"
			},
			{
				"type": "occ",
				"energy": -0.26039,
				"method": "rhf"
			},
			{
				"type": "occ",
				"energy": -0.2471,
				"method": "rhf"
			},
			{
				"type": "occ",
				"energy": -0.24428,
				"method": "rhf"
			},
			{
				"type": "unocc",
				"energy": -0.0432,
				"method": "rhf"
			},
			{
				"type": "unocc",
				"energy": -0.00815,
				"method": "rhf"
			},
			{
				"type": "unocc",
				"energy": -0.00289,
				"method": "rhf"
			},
			{
				"type": "unocc",
				"energy": 0.03663,
				"method": "rhf"
			},
			{
				"type": "unocc",
				"energy": 0.07628,
				"method": "rhf"
			}
		],
		"cosmo_sigma_profile": { 
			"-0.025": 0.0,
			"-0.024": 0.0,
			"-0.023": 0.0,
			"-0.022": 0.0,
			"-0.021": 0.0,
			"-0.02": 0.0,
			"-0.019": 0.0,
			"-0.018": 0.0,
			"-0.017": 0.0,
			"-0.016": 0.0,
			"-0.015": 0.0,
			"-0.014": 0.0,
			"-0.013": 0.0,
			"-0.012": 0.0,
			"-0.011": 0.0,
			"-0.01": 0.107157048636,
			"-0.009": 3.09719575135,
			"-0.008": 5.1722449858,
			"-0.007": 5.38397927173,
			"-0.006": 6.95762269873,
			"-0.005": 15.4482051492,
			"-0.004": 22.7717355442,
			"-0.003": 19.5375110846,
			"-0.002": 22.197141565,
			"-0.001": 25.0310894577,
			"0.0": 24.559553194,
			"0.001": 14.8100043606,
			"0.002": 10.7410486629,
			"0.003": 11.0382771967,
			"0.004": 11.6740388053,
			"0.005": 15.783874205,
			"0.006": 11.0575451783,
			"0.007": 3.63400189934,
			"0.008": 2.36024420301,
			"0.009": 2.60852784611,
			"0.01": 3.27721828512,
			"0.011": 4.45746498317,
			"0.012": 2.18916239975,
			"0.013": 0.387045378763,
			"0.014": 0.0,
			"0.015": 0.0,
			"0.016": 0.0,
			"0.017": 0.0,
			"0.018": 0.0,
			"0.019": 0.0,
			"0.02": 0.0,
			"0.021": 0.0,
			"0.022": 0.0,
			"0.023": 0.0,
			"0.024": 0.0,
			"0.025": 0.0
		}
	}
}
