{
	 "smiles": "CC1CN2CC(=O)NC3=CC=C(Cl)C=C3C2(O1)C1=CC=CC=C1", 
	 "Tm": 459.15, 
	 "num_atms": 40, 
	 "gaussian": { 
		 "optdone": 1, 
		 "sigma_profile": "yes", 
		 "theory": "DFT", 
		 "functional": "B3LYP", 
		 "basiset": "6-31G**", 
		 "properties": { 
			 "R2extent": 7609.0914, 
			 "electric_dipole_moment_norm": 1.05136572609, 
			 "electric_quadrupole_moment_norm": 22.0831348293, 
			 "total_energy": -1416.30391414, 
			 "HOMO_LUMO_gap": 0.20044, 
			 "cosmo_polarized_energy": -14.84, 
			 "cosmo_cavitation_energy": 43.07, 
			 "cosmo_dispersion_energy": -29.29, 
			 "cosmo_repulsion_energy": 2.25, 
			 "cosmo_total_nonelectrostatic_energy": 16.04, 
			 "SMD_solvation_energy": 6.81 
		},
		"coords": [
			{
				"x": 1.5147100865,
				"y": -3.047782847,
				"z": 3.3882973511,
				"element": "C" 
			},
			{
				"x": 0.9313953068,
				"y": -2.5880066482,
				"z": 2.065312201,
				"element": "C" 
			},
			{
				"x": 1.8253902109,
				"y": -2.7425317596,
				"z": 0.8410183657,
				"element": "C" 
			},
			{
				"x": 1.2522432686,
				"y": -1.7487415024,
				"z": -0.0620257138,
				"element": "N" 
			},
			{
				"x": 2.1101898524,
				"y": -1.3879427899,
				"z": -1.1823198569,
				"element": "C" 
			},
			{
				"x": 1.4215753673,
				"y": -0.4398089197,
				"z": -2.161585842,
				"element": "C" 
			},
			{
				"x": 1.0825546197,
				"y": -0.7703638357,
				"z": -3.2861058499,
				"element": "O" 
			},
			{
				"x": 1.231991797,
				"y": 0.8452579651,
				"z": -1.6995910213,
				"element": "N" 
			},
			{
				"x": 1.6646031677,
				"y": 1.3686312013,
				"z": -0.4613046444,
				"element": "C" 
			},
			{
				"x": 2.2783593541,
				"y": 2.6272420385,
				"z": -0.4393447766,
				"element": "C" 
			},
			{
				"x": 2.736433102,
				"y": 3.1807602868,
				"z": 0.7522360307,
				"element": "C" 
			},
			{
				"x": 2.5988494072,
				"y": 2.444315728,
				"z": 1.9267708807,
				"element": "C" 
			},
			{
				"x": 3.1983464701,
				"y": 3.1093148122,
				"z": 3.4405705449,
				"element": "Cl" 
			},
			{
				"x": 1.9842692161,
				"y": 1.1945065633,
				"z": 1.9260431409,
				"element": "C" 
			},
			{
				"x": 1.4839483532,
				"y": 0.6519139264,
				"z": 0.7386310515,
				"element": "C" 
			},
			{
				"x": 0.6804237293,
				"y": -0.661769654,
				"z": 0.7728355713,
				"element": "C" 
			},
			{
				"x": 0.7327206347,
				"y": -1.1671854856,
				"z": 2.110646383,
				"element": "O" 
			},
			{
				"x": -0.7978026121,
				"y": -0.3953116091,
				"z": 0.4182186657,
				"element": "C" 
			},
			{
				"x": -1.5012832182,
				"y": 0.5783040994,
				"z": 1.1425672959,
				"element": "C" 
			},
			{
				"x": -2.8530202849,
				"y": 0.807042117,
				"z": 0.8955635714,
				"element": "C" 
			},
			{
				"x": -3.5224278009,
				"y": 0.0674181409,
				"z": -0.0837686294,
				"element": "C" 
			},
			{
				"x": -2.8293807296,
				"y": -0.9026679577,
				"z": -0.8060589486,
				"element": "C" 
			},
			{
				"x": -1.4745254582,
				"y": -1.1367951914,
				"z": -0.5536997061,
				"element": "C" 
			},
			{
				"x": 1.666494655,
				"y": -4.131894798,
				"z": 3.3810687291,
				"element": "H" 
			},
			{
				"x": 0.8343477048,
				"y": -2.8047196924,
				"z": 4.2089552018,
				"element": "H" 
			},
			{
				"x": 2.4754068659,
				"y": -2.559778949,
				"z": 3.5784792481,
				"element": "H" 
			},
			{
				"x": -0.0338035101,
				"y": -3.0827135905,
				"z": 1.8795036496,
				"element": "H" 
			},
			{
				"x": 2.8766194373,
				"y": -2.5238445555,
				"z": 1.1044987076,
				"element": "H" 
			},
			{
				"x": 1.7806623945,
				"y": -3.7434366609,
				"z": 0.3973713148,
				"element": "H" 
			},
			{
				"x": 2.3327072392,
				"y": -2.2938498431,
				"z": -1.7495695978,
				"element": "H" 
			},
			{
				"x": 3.069684387,
				"y": -0.941788445,
				"z": -0.8571521854,
				"element": "H" 
			},
			{
				"x": 0.8610397928,
				"y": 1.4830520534,
				"z": -2.3930527874,
				"element": "H" 
			},
			{
				"x": 2.4114623421,
				"y": 3.1671850841,
				"z": -1.3726106847,
				"element": "H" 
			},
			{
				"x": 3.209544887,
				"y": 4.1560647127,
				"z": 0.7652897109,
				"element": "H" 
			},
			{
				"x": 1.8600310211,
				"y": 0.6415908796,
				"z": 2.8475355695,
				"element": "H" 
			},
			{
				"x": -0.9884395723,
				"y": 1.1550095369,
				"z": 1.9064293744,
				"element": "H" 
			},
			{
				"x": -3.3850558491,
				"y": 1.5623922924,
				"z": 1.4672713611,
				"element": "H" 
			},
			{
				"x": -4.5755519476,
				"y": 0.2483104818,
				"z": -0.2799775665,
				"element": "H" 
			},
			{
				"x": -3.339464933,
				"y": -1.4821934299,
				"z": -1.5704642154,
				"element": "H" 
			},
			{
				"x": -0.934548754,
				"y": -1.8923837551,
				"z": -1.1121818949,
				"element": "H" 
			}
		],
		 "valence_orbital": [ 
			{
				"type": "occ",
				"energy": -0.26335,
				"method": "rhf"
			},
			{
				"type": "occ",
				"energy": -0.24586,
				"method": "rhf"
			},
			{
				"type": "occ",
				"energy": -0.24004,
				"method": "rhf"
			},
			{
				"type": "occ",
				"energy": -0.22987,
				"method": "rhf"
			},
			{
				"type": "occ",
				"energy": -0.2273,
				"method": "rhf"
			},
			{
				"type": "unocc",
				"energy": -0.02686,
				"method": "rhf"
			},
			{
				"type": "unocc",
				"energy": -0.02598,
				"method": "rhf"
			},
			{
				"type": "unocc",
				"energy": -0.00242,
				"method": "rhf"
			},
			{
				"type": "unocc",
				"energy": 0.00573,
				"method": "rhf"
			},
			{
				"type": "unocc",
				"energy": 0.01974,
				"method": "rhf"
			}
		],
		"cosmo_sigma_profile": { 
			"-0.025": 0.0,
			"-0.024": 0.0,
			"-0.023": 0.0,
			"-0.022": 0.0,
			"-0.021": 0.0,
			"-0.02": 0.0,
			"-0.019": 0.0,
			"-0.018": 0.0,
			"-0.017": 0.0,
			"-0.016": 0.0,
			"-0.015": 0.772439854488,
			"-0.014": 1.27656800456,
			"-0.013": 0.91001875922,
			"-0.012": 1.15218016051,
			"-0.011": 1.39960249431,
			"-0.01": 1.25909067023,
			"-0.009": 0.910475430216,
			"-0.008": 2.43090519342,
			"-0.007": 5.23498673608,
			"-0.006": 8.58514306668,
			"-0.005": 21.7921421572,
			"-0.004": 33.0209393043,
			"-0.003": 36.7184296431,
			"-0.002": 28.702204594,
			"-0.001": 24.3219432986,
			"0.0": 25.7276327243,
			"0.001": 23.7609067046,
			"0.002": 27.8070566142,
			"0.003": 25.1324897358,
			"0.004": 21.1164953698,
			"0.005": 20.0333384897,
			"0.006": 10.3704592483,
			"0.007": 2.39134805279,
			"0.008": 2.31328589637,
			"0.009": 1.65304057456,
			"0.01": 2.68146884041,
			"0.011": 2.09050759683,
			"0.012": 3.3721941453,
			"0.013": 5.03809325657,
			"0.014": 1.73113420776,
			"0.015": 0.0167578818884,
			"0.016": 0.0,
			"0.017": 0.0,
			"0.018": 0.0,
			"0.019": 0.0,
			"0.02": 0.0,
			"0.021": 0.0,
			"0.022": 0.0,
			"0.023": 0.0,
			"0.024": 0.0,
			"0.025": 0.0
		}
	}
}
