{
	 "smiles": "CC1=CC(C(=O)CCl)=C(C)N1C1=CC(Cl)=CC=C1", 
	 "Tm": 390.15, 
	 "num_atms": 31, 
	 "gaussian": { 
		 "optdone": 1, 
		 "sigma_profile": "yes", 
		 "theory": "DFT", 
		 "functional": "B3LYP", 
		 "basiset": "6-31G**", 
		 "properties": { 
			 "R2extent": 7087.9779, 
			 "electric_dipole_moment_norm": 5.2168411515, 
			 "electric_quadrupole_moment_norm": 22.3177804797, 
			 "total_energy": -1591.68729083, 
			 "HOMO_LUMO_gap": 0.16723, 
			 "cosmo_polarized_energy": -13.57, 
			 "cosmo_cavitation_energy": 38.35, 
			 "cosmo_dispersion_energy": -26.39, 
			 "cosmo_repulsion_energy": 2.07, 
			 "cosmo_total_nonelectrostatic_energy": 14.03, 
			 "SMD_solvation_energy": 6.65 
		},
		"coords": [
			{
				"x": -2.6423806619,
				"y": 1.1751663618,
				"z": 1.6095466675,
				"element": "C" 
			},
			{
				"x": -1.3558808302,
				"y": 0.4367133585,
				"z": 1.4255003003,
				"element": "C" 
			},
			{
				"x": -0.4315736945,
				"y": 0.0154655339,
				"z": 2.3382674168,
				"element": "C" 
			},
			{
				"x": 0.636511287,
				"y": -0.6359141794,
				"z": 1.6381868306,
				"element": "C" 
			},
			{
				"x": 1.797436625,
				"y": -1.170568637,
				"z": 2.3528870625,
				"element": "C" 
			},
			{
				"x": 1.9185226277,
				"y": -1.0377303106,
				"z": 3.5653984212,
				"element": "O" 
			},
			{
				"x": 2.9235075543,
				"y": -1.8970105791,
				"z": 1.60819379,
				"element": "C" 
			},
			{
				"x": 2.4563081302,
				"y": -3.6126593091,
				"z": 1.2129361412,
				"element": "Cl" 
			},
			{
				"x": 0.3312227248,
				"y": -0.5912652428,
				"z": 0.2739113399,
				"element": "C" 
			},
			{
				"x": 1.0526957451,
				"y": -1.0940097508,
				"z": -0.9399013597,
				"element": "C" 
			},
			{
				"x": -0.8804619108,
				"y": 0.0642965973,
				"z": 0.1587732831,
				"element": "N" 
			},
			{
				"x": -1.5686129822,
				"y": 0.3382428879,
				"z": -1.0658122297,
				"element": "C" 
			},
			{
				"x": -1.167161883,
				"y": 1.4219214797,
				"z": -1.8531579529,
				"element": "C" 
			},
			{
				"x": -1.8525881566,
				"y": 1.6855483668,
				"z": -3.0380835712,
				"element": "C" 
			},
			{
				"x": -1.350225488,
				"y": 3.0414985726,
				"z": -4.0327921911,
				"element": "Cl" 
			},
			{
				"x": -2.9295392395,
				"y": 0.8972280528,
				"z": -3.4443692071,
				"element": "C" 
			},
			{
				"x": -3.3195665534,
				"y": -0.1777581218,
				"z": -2.6446413891,
				"element": "C" 
			},
			{
				"x": -2.6440056422,
				"y": -0.4642238922,
				"z": -1.4581072839,
				"element": "C" 
			},
			{
				"x": -2.6564491965,
				"y": 2.1258391139,
				"z": 1.0632196176,
				"element": "H" 
			},
			{
				"x": -2.7782804608,
				"y": 1.3960895001,
				"z": 2.6705198738,
				"element": "H" 
			},
			{
				"x": -3.5116806873,
				"y": 0.5974893093,
				"z": 1.2738980795,
				"element": "H" 
			},
			{
				"x": -0.4762724124,
				"y": 0.1431589495,
				"z": 3.4095598663,
				"element": "H" 
			},
			{
				"x": 3.7818536625,
				"y": -1.9556604297,
				"z": 2.2747364981,
				"element": "H" 
			},
			{
				"x": 3.19784904,
				"y": -1.4212199692,
				"z": 0.6662285446,
				"element": "H" 
			},
			{
				"x": 1.4465607514,
				"y": -2.0989137916,
				"z": -0.7743076776,
				"element": "H" 
			},
			{
				"x": 1.8914786842,
				"y": -0.4432803667,
				"z": -1.219023383,
				"element": "H" 
			},
			{
				"x": 0.382542307,
				"y": -1.1396773387,
				"z": -1.8009625876,
				"element": "H" 
			},
			{
				"x": -0.337619194,
				"y": 2.0454601327,
				"z": -1.5404414772,
				"element": "H" 
			},
			{
				"x": -3.4487033335,
				"y": 1.1226665062,
				"z": -4.3690179865,
				"element": "H" 
			},
			{
				"x": -4.1544415162,
				"y": -0.7985845303,
				"z": -2.9543499328,
				"element": "H" 
			},
			{
				"x": -2.9355452963,
				"y": -1.3049082742,
				"z": -0.8374955035,
				"element": "H" 
			}
		],
		 "valence_orbital": [ 
			{
				"type": "occ",
				"energy": -0.28612,
				"method": "rhf"
			},
			{
				"type": "occ",
				"energy": -0.26847,
				"method": "rhf"
			},
			{
				"type": "occ",
				"energy": -0.24821,
				"method": "rhf"
			},
			{
				"type": "occ",
				"energy": -0.24276,
				"method": "rhf"
			},
			{
				"type": "occ",
				"energy": -0.21398,
				"method": "rhf"
			},
			{
				"type": "unocc",
				"energy": -0.04675,
				"method": "rhf"
			},
			{
				"type": "unocc",
				"energy": -0.03949,
				"method": "rhf"
			},
			{
				"type": "unocc",
				"energy": -0.03573,
				"method": "rhf"
			},
			{
				"type": "unocc",
				"energy": 0.01137,
				"method": "rhf"
			},
			{
				"type": "unocc",
				"energy": 0.023,
				"method": "rhf"
			}
		],
		"cosmo_sigma_profile": { 
			"-0.025": 0.0,
			"-0.024": 0.0,
			"-0.023": 0.0,
			"-0.022": 0.0,
			"-0.021": 0.0,
			"-0.02": 0.0,
			"-0.019": 0.0,
			"-0.018": 0.0,
			"-0.017": 0.0,
			"-0.016": 0.0,
			"-0.015": 0.0,
			"-0.014": 0.0,
			"-0.013": 0.0,
			"-0.012": 0.0,
			"-0.011": 0.0,
			"-0.01": 0.0,
			"-0.009": 0.0428779819868,
			"-0.008": 5.47817842997,
			"-0.007": 12.5061338273,
			"-0.006": 14.5820130765,
			"-0.005": 19.3604140937,
			"-0.004": 21.6096792254,
			"-0.003": 23.4702863241,
			"-0.002": 25.9824923297,
			"-0.001": 28.2024808772,
			"0.0": 23.3235329279,
			"0.001": 24.7095703831,
			"0.002": 22.6400836082,
			"0.003": 22.3335122632,
			"0.004": 21.2185577541,
			"0.005": 17.8693655253,
			"0.006": 9.33353284566,
			"0.007": 2.44085079723,
			"0.008": 1.58320104742,
			"0.009": 2.04802852633,
			"0.01": 1.79642430062,
			"0.011": 2.89786625567,
			"0.012": 4.10632301005,
			"0.013": 2.61399404115,
			"0.014": 0.204527914152,
			"0.015": 0.0,
			"0.016": 0.0,
			"0.017": 0.0,
			"0.018": 0.0,
			"0.019": 0.0,
			"0.02": 0.0,
			"0.021": 0.0,
			"0.022": 0.0,
			"0.023": 0.0,
			"0.024": 0.0,
			"0.025": 0.0
		}
	}
}
