{
	 "smiles": "CC1=NC(C)=C(Br)S1", 
	 "Tm": 427.15, 
	 "num_atms": 14, 
	 "gaussian": { 
		 "optdone": 1, 
		 "sigma_profile": "yes", 
		 "theory": "DFT", 
		 "functional": "B3LYP", 
		 "basiset": "6-31G**", 
		 "properties": { 
			 "R2extent": 3432.2427, 
			 "electric_dipole_moment_norm": 1.00974161051, 
			 "electric_quadrupole_moment_norm": 7.94674599569, 
			 "total_energy": -3218.48745454, 
			 "HOMO_LUMO_gap": 0.19832, 
			 "cosmo_polarized_energy": -4.35, 
			 "cosmo_cavitation_energy": 21.74, 
			 "cosmo_dispersion_energy": -16.99, 
			 "cosmo_repulsion_energy": 1.37, 
			 "cosmo_total_nonelectrostatic_energy": 6.12, 
			 "SMD_solvation_energy": 1.05 
		},
		"coords": [
			{
				"x": 0.1663561963,
				"y": 2.0738971877,
				"z": 3.0157805951,
				"element": "C" 
			},
			{
				"x": 0.5999284176,
				"y": 0.9095983039,
				"z": 2.1793033461,
				"element": "C" 
			},
			{
				"x": 0.1092868989,
				"y": 0.6278625642,
				"z": 1.006647601,
				"element": "N" 
			},
			{
				"x": 0.6794077945,
				"y": -0.4987620778,
				"z": 0.4428646227,
				"element": "C" 
			},
			{
				"x": 0.2314028734,
				"y": -0.9691903075,
				"z": -0.9100498804,
				"element": "C" 
			},
			{
				"x": 1.6359142578,
				"y": -1.0815144901,
				"z": 1.2291303152,
				"element": "C" 
			},
			{
				"x": 2.6443795655,
				"y": -2.6227251955,
				"z": 0.830675742,
				"element": "Br" 
			},
			{
				"x": 1.8464080336,
				"y": -0.2112997408,
				"z": 2.72393464,
				"element": "S" 
			},
			{
				"x": -0.2411195614,
				"y": 1.7493681464,
				"z": 3.9792043044,
				"element": "H" 
			},
			{
				"x": 0.9979371625,
				"y": 2.757146791,
				"z": 3.2187099789,
				"element": "H" 
			},
			{
				"x": -0.6089488385,
				"y": 2.6159300731,
				"z": 2.4708928408,
				"element": "H" 
			},
			{
				"x": 1.0615671763,
				"y": -0.9812189791,
				"z": -1.6241597344,
				"element": "H" 
			},
			{
				"x": -0.543699171,
				"y": -0.2991396604,
				"z": -1.2851782696,
				"element": "H" 
			},
			{
				"x": -0.1737208054,
				"y": -1.9856526152,
				"z": -0.8658561019,
				"element": "H" 
			}
		],
		 "valence_orbital": [ 
			{
				"type": "occ",
				"energy": -0.32634,
				"method": "rhf"
			},
			{
				"type": "occ",
				"energy": -0.30346,
				"method": "rhf"
			},
			{
				"type": "occ",
				"energy": -0.27816,
				"method": "rhf"
			},
			{
				"type": "occ",
				"energy": -0.27129,
				"method": "rhf"
			},
			{
				"type": "occ",
				"energy": -0.22929,
				"method": "rhf"
			},
			{
				"type": "unocc",
				"energy": -0.03097,
				"method": "rhf"
			},
			{
				"type": "unocc",
				"energy": -0.0031,
				"method": "rhf"
			},
			{
				"type": "unocc",
				"energy": 0.01094,
				"method": "rhf"
			},
			{
				"type": "unocc",
				"energy": 0.04882,
				"method": "rhf"
			},
			{
				"type": "unocc",
				"energy": 0.10132,
				"method": "rhf"
			}
		],
		"cosmo_sigma_profile": { 
			"-0.025": 0.0,
			"-0.024": 0.0,
			"-0.023": 0.0,
			"-0.022": 0.0,
			"-0.021": 0.0,
			"-0.02": 0.0,
			"-0.019": 0.0,
			"-0.018": 0.0,
			"-0.017": 0.0,
			"-0.016": 0.0,
			"-0.015": 0.0,
			"-0.014": 0.0,
			"-0.013": 0.0,
			"-0.012": 0.0,
			"-0.011": 0.0,
			"-0.01": 0.0,
			"-0.009": 0.0,
			"-0.008": 0.0,
			"-0.007": 0.162025280479,
			"-0.006": 5.16952672748,
			"-0.005": 12.3048110372,
			"-0.004": 13.9179400433,
			"-0.003": 13.2771990672,
			"-0.002": 17.9788861371,
			"-0.001": 21.014489276,
			"0.0": 19.2764573306,
			"0.001": 20.6595372136,
			"0.002": 18.7817791881,
			"0.003": 16.3023703129,
			"0.004": 7.93555449675,
			"0.005": 1.82864180825,
			"0.006": 1.95773864931,
			"0.007": 1.13898336712,
			"0.008": 1.19374195441,
			"0.009": 1.13109819566,
			"0.01": 0.827383642444,
			"0.011": 1.13411501686,
			"0.012": 0.970737713137,
			"0.013": 0.655478042171,
			"0.014": 0.858573744271,
			"0.015": 0.205144973647,
			"0.016": 0.0,
			"0.017": 0.0,
			"0.018": 0.0,
			"0.019": 0.0,
			"0.02": 0.0,
			"0.021": 0.0,
			"0.022": 0.0,
			"0.023": 0.0,
			"0.024": 0.0,
			"0.025": 0.0
		}
	}
}
