{
	 "smiles": "CC(C)N(C)C1=C(F)C=C(NC(=O)C=C)C=C1", 
	 "Tm": 355.15, 
	 "num_atms": 34, 
	 "gaussian": { 
		 "optdone": 1, 
		 "sigma_profile": "yes", 
		 "theory": "DFT", 
		 "functional": "B3LYP", 
		 "basiset": "6-31G**", 
		 "properties": { 
			 "R2extent": 7482.162, 
			 "electric_dipole_moment_norm": 2.18501557203, 
			 "electric_quadrupole_moment_norm": 24.5790746061, 
			 "total_energy": -790.176248772, 
			 "HOMO_LUMO_gap": 0.14103, 
			 "cosmo_polarized_energy": -13.13, 
			 "cosmo_cavitation_energy": 36.61, 
			 "cosmo_dispersion_energy": -25.77, 
			 "cosmo_repulsion_energy": 1.96, 
			 "cosmo_total_nonelectrostatic_energy": 12.8, 
			 "SMD_solvation_energy": 7.51 
		},
		"coords": [
			{
				"x": 0.208811768,
				"y": 3.3638030966,
				"z": 0.6921445154,
				"element": "C" 
			},
			{
				"x": -0.967305169,
				"y": 3.5853294661,
				"z": -0.266097353,
				"element": "C" 
			},
			{
				"x": -1.8686900047,
				"y": 4.745901101,
				"z": 0.1802480176,
				"element": "C" 
			},
			{
				"x": -1.7705812552,
				"y": 2.3642365466,
				"z": -0.5486273046,
				"element": "N" 
			},
			{
				"x": -2.0933177758,
				"y": 2.1976901986,
				"z": -1.9562406256,
				"element": "C" 
			},
			{
				"x": -1.6786193747,
				"y": 1.2000046513,
				"z": 0.2296851019,
				"element": "C" 
			},
			{
				"x": -1.9407481506,
				"y": 1.2082527064,
				"z": 1.6123969294,
				"element": "C" 
			},
			{
				"x": -2.2460308462,
				"y": 2.3814568191,
				"z": 2.2247694805,
				"element": "F" 
			},
			{
				"x": -1.9086694775,
				"y": 0.0734511136,
				"z": 2.401068764,
				"element": "C" 
			},
			{
				"x": -1.6425345291,
				"y": -1.1772214484,
				"z": 1.8219719744,
				"element": "C" 
			},
			{
				"x": -1.6313527535,
				"y": -2.2993613318,
				"z": 2.6762208313,
				"element": "N" 
			},
			{
				"x": -1.4485125774,
				"y": -3.624925594,
				"z": 2.3513408795,
				"element": "C" 
			},
			{
				"x": -1.2917875232,
				"y": -4.0450204191,
				"z": 1.2093370944,
				"element": "O" 
			},
			{
				"x": -1.447597223,
				"y": -4.5707207967,
				"z": 3.5113196311,
				"element": "C" 
			},
			{
				"x": -1.0454493204,
				"y": -4.296997935,
				"z": 4.7553644559,
				"element": "C" 
			},
			{
				"x": -1.4024511281,
				"y": -1.2404228823,
				"z": 0.4434354899,
				"element": "C" 
			},
			{
				"x": -1.4150972258,
				"y": -0.0707223595,
				"z": -0.3156910401,
				"element": "C" 
			},
			{
				"x": -0.1255330127,
				"y": 3.176392934,
				"z": 1.7139354983,
				"element": "H" 
			},
			{
				"x": 0.8347809425,
				"y": 2.5270979223,
				"z": 0.3683077569,
				"element": "H" 
			},
			{
				"x": 0.8298945121,
				"y": 4.26513849,
				"z": 0.7063360577,
				"element": "H" 
			},
			{
				"x": -0.521099712,
				"y": 3.8651471033,
				"z": -1.2317784857,
				"element": "H" 
			},
			{
				"x": -1.2920438063,
				"y": 5.6736204354,
				"z": 0.2692910111,
				"element": "H" 
			},
			{
				"x": -2.6707791901,
				"y": 4.9159637029,
				"z": -0.5452551907,
				"element": "H" 
			},
			{
				"x": -2.3270874393,
				"y": 4.5224041046,
				"z": 1.1457499602,
				"element": "H" 
			},
			{
				"x": -1.231070007,
				"y": 1.9085237329,
				"z": -2.5830433178,
				"element": "H" 
			},
			{
				"x": -2.482268425,
				"y": 3.1429242133,
				"z": -2.3484967503,
				"element": "H" 
			},
			{
				"x": -2.8741984367,
				"y": 1.4422949782,
				"z": -2.0769014776,
				"element": "H" 
			},
			{
				"x": -2.1210813888,
				"y": 0.1787319927,
				"z": 3.4611144682,
				"element": "H" 
			},
			{
				"x": -1.865992367,
				"y": -2.1109177259,
				"z": 3.6396720731,
				"element": "H" 
			},
			{
				"x": -1.7362390604,
				"y": -5.57998456,
				"z": 3.2304783493,
				"element": "H" 
			},
			{
				"x": -0.684918458,
				"y": -3.3149843389,
				"z": 5.0520462723,
				"element": "H" 
			},
			{
				"x": -1.0321094738,
				"y": -5.0630017802,
				"z": 5.5245183907,
				"element": "H" 
			},
			{
				"x": -1.2024594081,
				"y": -2.1962938879,
				"z": -0.0184118395,
				"element": "H" 
			},
			{
				"x": -1.2081627035,
				"y": -0.150290249,
				"z": -1.3772096182,
				"element": "H" 
			}
		],
		 "valence_orbital": [ 
			{
				"type": "occ",
				"energy": -0.28769,
				"method": "rhf"
			},
			{
				"type": "occ",
				"energy": -0.25468,
				"method": "rhf"
			},
			{
				"type": "occ",
				"energy": -0.24695,
				"method": "rhf"
			},
			{
				"type": "occ",
				"energy": -0.24416,
				"method": "rhf"
			},
			{
				"type": "occ",
				"energy": -0.18455,
				"method": "rhf"
			},
			{
				"type": "unocc",
				"energy": -0.04352,
				"method": "rhf"
			},
			{
				"type": "unocc",
				"energy": 0.00162,
				"method": "rhf"
			},
			{
				"type": "unocc",
				"energy": 0.01535,
				"method": "rhf"
			},
			{
				"type": "unocc",
				"energy": 0.07062,
				"method": "rhf"
			},
			{
				"type": "unocc",
				"energy": 0.07845,
				"method": "rhf"
			}
		],
		"cosmo_sigma_profile": { 
			"-0.025": 0.0,
			"-0.024": 0.0,
			"-0.023": 0.0,
			"-0.022": 0.0,
			"-0.021": 0.0,
			"-0.02": 0.0,
			"-0.019": 0.0,
			"-0.018": 0.0,
			"-0.017": 0.0,
			"-0.016": 0.0,
			"-0.015": 0.531960314978,
			"-0.014": 1.2870668658,
			"-0.013": 0.997544600199,
			"-0.012": 1.7814240489,
			"-0.011": 1.66216040061,
			"-0.01": 1.50822264196,
			"-0.009": 1.35506380966,
			"-0.008": 3.02452453692,
			"-0.007": 4.95908467688,
			"-0.006": 6.48413291105,
			"-0.005": 10.1658556207,
			"-0.004": 15.0743432184,
			"-0.003": 28.2572944313,
			"-0.002": 32.7194990304,
			"-0.001": 29.4716724109,
			"0.0": 26.4625959149,
			"0.001": 27.4372856974,
			"0.002": 23.5317231045,
			"0.003": 18.3309287347,
			"0.004": 19.4567874032,
			"0.005": 11.3292769486,
			"0.006": 4.72797582692,
			"0.007": 2.49621887504,
			"0.008": 2.49282661309,
			"0.009": 2.37829383156,
			"0.01": 2.06444295943,
			"0.011": 1.51322435723,
			"0.012": 2.90691810648,
			"0.013": 3.07149521838,
			"0.014": 1.74656579401,
			"0.015": 0.132786730767,
			"0.016": 0.0,
			"0.017": 0.0,
			"0.018": 0.0,
			"0.019": 0.0,
			"0.02": 0.0,
			"0.021": 0.0,
			"0.022": 0.0,
			"0.023": 0.0,
			"0.024": 0.0,
			"0.025": 0.0
		}
	}
}
