{
	 "smiles": "CCCCN1C(=O)NC(=O)C(NC2CCCC2)=C1N", 
	 "Tm": 524.15, 
	 "num_atms": 41, 
	 "gaussian": { 
		 "optdone": 1, 
		 "sigma_profile": "yes", 
		 "theory": "DFT", 
		 "functional": "B3LYP", 
		 "basiset": "6-31G**", 
		 "properties": { 
			 "R2extent": 6810.0886, 
			 "electric_dipole_moment_norm": 4.47084127318, 
			 "electric_quadrupole_moment_norm": 15.8639394464, 
			 "total_energy": -878.153855927, 
			 "HOMO_LUMO_gap": 0.19073, 
			 "cosmo_polarized_energy": -17.98, 
			 "cosmo_cavitation_energy": 40.79, 
			 "cosmo_dispersion_energy": -28.3, 
			 "cosmo_repulsion_energy": 2.22, 
			 "cosmo_total_nonelectrostatic_energy": 14.71, 
			 "SMD_solvation_energy": 6.6 
		},
		"coords": [
			{
				"x": 0.6990322255,
				"y": 2.3687171484,
				"z": 2.3157863362,
				"element": "C" 
			},
			{
				"x": 1.8746363414,
				"y": 1.5413442861,
				"z": 1.7829940977,
				"element": "C" 
			},
			{
				"x": 2.840636848,
				"y": 2.3122914083,
				"z": 0.8699606456,
				"element": "C" 
			},
			{
				"x": 2.291009767,
				"y": 2.736734585,
				"z": -0.5015300329,
				"element": "C" 
			},
			{
				"x": 1.9681799212,
				"y": 1.5975379316,
				"z": -1.3881848039,
				"element": "N" 
			},
			{
				"x": 3.0793775526,
				"y": 0.9526187186,
				"z": -1.955241793,
				"element": "C" 
			},
			{
				"x": 4.2196995749,
				"y": 1.3682046335,
				"z": -1.8045605329,
				"element": "O" 
			},
			{
				"x": 2.7858377107,
				"y": -0.1777575527,
				"z": -2.6853884533,
				"element": "N" 
			},
			{
				"x": 1.5249384802,
				"y": -0.7699637469,
				"z": -2.8946670233,
				"element": "C" 
			},
			{
				"x": 1.4226673338,
				"y": -1.7812583915,
				"z": -3.5851558809,
				"element": "O" 
			},
			{
				"x": 0.4375419877,
				"y": -0.0472302103,
				"z": -2.2844060308,
				"element": "C" 
			},
			{
				"x": -0.9127502873,
				"y": -0.4577157289,
				"z": -2.4831547347,
				"element": "N" 
			},
			{
				"x": -1.4643431991,
				"y": -1.392054638,
				"z": -1.4811725398,
				"element": "C" 
			},
			{
				"x": -0.8720194592,
				"y": -2.814652852,
				"z": -1.4227961493,
				"element": "C" 
			},
			{
				"x": -1.9058174857,
				"y": -3.5871463117,
				"z": -0.5869733584,
				"element": "C" 
			},
			{
				"x": -3.2846324916,
				"y": -2.9751633923,
				"z": -0.9767221118,
				"element": "C" 
			},
			{
				"x": -2.9665433632,
				"y": -1.6480719922,
				"z": -1.7156902702,
				"element": "C" 
			},
			{
				"x": 0.6775424855,
				"y": 1.1325708609,
				"z": -1.6141273297,
				"element": "C" 
			},
			{
				"x": -0.3868348092,
				"y": 1.8527211504,
				"z": -1.1111476136,
				"element": "N" 
			},
			{
				"x": 1.0509376411,
				"y": 3.2661056995,
				"z": 2.8384206244,
				"element": "H" 
			},
			{
				"x": 0.0261141475,
				"y": 2.6814952865,
				"z": 1.5116516869,
				"element": "H" 
			},
			{
				"x": 0.1018385248,
				"y": 1.7861167778,
				"z": 3.0247391902,
				"element": "H" 
			},
			{
				"x": 1.4941861639,
				"y": 0.6569959968,
				"z": 1.2562179706,
				"element": "H" 
			},
			{
				"x": 2.4536319,
				"y": 1.1567623046,
				"z": 2.6316969589,
				"element": "H" 
			},
			{
				"x": 3.7437341347,
				"y": 1.7208518295,
				"z": 0.6928103005,
				"element": "H" 
			},
			{
				"x": 3.1679562439,
				"y": 3.2297602233,
				"z": 1.3783240777,
				"element": "H" 
			},
			{
				"x": 3.04518935,
				"y": 3.3301883373,
				"z": -1.0210433552,
				"element": "H" 
			},
			{
				"x": 1.4017880913,
				"y": 3.3560819037,
				"z": -0.3863522636,
				"element": "H" 
			},
			{
				"x": 3.5811616519,
				"y": -0.6421595182,
				"z": -3.1056881117,
				"element": "H" 
			},
			{
				"x": -0.9833662996,
				"y": -0.8904838552,
				"z": -3.4028961526,
				"element": "H" 
			},
			{
				"x": -1.3273733572,
				"y": -0.9161759495,
				"z": -0.5004905515,
				"element": "H" 
			},
			{
				"x": 0.1370343688,
				"y": -2.8431231604,
				"z": -1.0021530758,
				"element": "H" 
			},
			{
				"x": -0.8057564768,
				"y": -3.2164820316,
				"z": -2.4411734606,
				"element": "H" 
			},
			{
				"x": -1.8628170671,
				"y": -4.6675540853,
				"z": -0.7539469665,
				"element": "H" 
			},
			{
				"x": -1.7138818924,
				"y": -3.4250697618,
				"z": 0.4805035168,
				"element": "H" 
			},
			{
				"x": -3.8502066613,
				"y": -3.6524756612,
				"z": -1.6240587068,
				"element": "H" 
			},
			{
				"x": -3.903398596,
				"y": -2.804357761,
				"z": -0.0902449606,
				"element": "H" 
			},
			{
				"x": -3.135312447,
				"y": -1.7614223626,
				"z": -2.7945238427,
				"element": "H" 
			},
			{
				"x": -3.5872858884,
				"y": -0.8088709458,
				"z": -1.3870198694,
				"element": "H" 
			},
			{
				"x": -1.2453173502,
				"y": 1.5027815055,
				"z": -1.5340783197,
				"element": "H" 
			},
			{
				"x": -0.3027153155,
				"y": 2.8594093217,
				"z": -1.1503171105,
				"element": "H" 
			}
		],
		 "valence_orbital": [ 
			{
				"type": "occ",
				"energy": -0.28025,
				"method": "rhf"
			},
			{
				"type": "occ",
				"energy": -0.27267,
				"method": "rhf"
			},
			{
				"type": "occ",
				"energy": -0.2539,
				"method": "rhf"
			},
			{
				"type": "occ",
				"energy": -0.24844,
				"method": "rhf"
			},
			{
				"type": "occ",
				"energy": -0.20316,
				"method": "rhf"
			},
			{
				"type": "unocc",
				"energy": -0.01243,
				"method": "rhf"
			},
			{
				"type": "unocc",
				"energy": 0.01983,
				"method": "rhf"
			},
			{
				"type": "unocc",
				"energy": 0.05259,
				"method": "rhf"
			},
			{
				"type": "unocc",
				"energy": 0.08289,
				"method": "rhf"
			},
			{
				"type": "unocc",
				"energy": 0.09424,
				"method": "rhf"
			}
		],
		"cosmo_sigma_profile": { 
			"-0.025": 0.0,
			"-0.024": 0.0,
			"-0.023": 0.0,
			"-0.022": 0.0,
			"-0.021": 0.0,
			"-0.02": 0.0,
			"-0.019": 0.0,
			"-0.018": 0.0,
			"-0.017": 0.0,
			"-0.016": 0.0,
			"-0.015": 1.46753225058,
			"-0.014": 2.11696023727,
			"-0.013": 2.36561399591,
			"-0.012": 2.49346646162,
			"-0.011": 1.93644690451,
			"-0.01": 2.88549345892,
			"-0.009": 3.25299051199,
			"-0.008": 4.11917423554,
			"-0.007": 4.18563885754,
			"-0.006": 4.57571243422,
			"-0.005": 5.26552289683,
			"-0.004": 8.58642451569,
			"-0.003": 26.5606080667,
			"-0.002": 44.1124734684,
			"-0.001": 47.8426495163,
			"0.0": 44.5878033771,
			"0.001": 33.944722186,
			"0.002": 18.5255982838,
			"0.003": 6.4438954714,
			"0.004": 5.0449229009,
			"0.005": 5.53208884837,
			"0.006": 5.55596297909,
			"0.007": 4.29111166856,
			"0.008": 3.54297854252,
			"0.009": 3.30880427103,
			"0.01": 3.72003157028,
			"0.011": 3.46224622503,
			"0.012": 3.94874522874,
			"0.013": 7.33747015052,
			"0.014": 5.08365039764,
			"0.015": 0.742357181011,
			"0.016": 0.0,
			"0.017": 0.0,
			"0.018": 0.0,
			"0.019": 0.0,
			"0.02": 0.0,
			"0.021": 0.0,
			"0.022": 0.0,
			"0.023": 0.0,
			"0.024": 0.0,
			"0.025": 0.0
		}
	}
}
