{
	 "smiles": "CN(C)CC1=NC2=C(C(=CS2)C2=CC=CC=C2)C(Cl)=N1", 
	 "Tm": 388.15, 
	 "num_atms": 34, 
	 "gaussian": { 
		 "optdone": 1, 
		 "sigma_profile": "yes", 
		 "theory": "DFT", 
		 "functional": "B3LYP", 
		 "basiset": "6-31G**", 
		 "properties": { 
			 "R2extent": 8226.2078, 
			 "electric_dipole_moment_norm": 1.92446507113, 
			 "electric_quadrupole_moment_norm": 13.457419244, 
			 "total_energy": -1602.65530373, 
			 "HOMO_LUMO_gap": 0.15282, 
			 "cosmo_polarized_energy": -9.87, 
			 "cosmo_cavitation_energy": 40.9, 
			 "cosmo_dispersion_energy": -29.3, 
			 "cosmo_repulsion_energy": 2.22, 
			 "cosmo_total_nonelectrostatic_energy": 13.81, 
			 "SMD_solvation_energy": 1.25 
		},
		"coords": [
			{
				"x": -5.2424969098,
				"y": -1.2229034219,
				"z": -1.3925992143,
				"element": "C" 
			},
			{
				"x": -3.809497078,
				"y": -0.9803966919,
				"z": -1.2863526248,
				"element": "N" 
			},
			{
				"x": -3.0482199777,
				"y": -2.0023625129,
				"z": -1.9971690738,
				"element": "C" 
			},
			{
				"x": -3.3913349842,
				"y": -0.843465999,
				"z": 0.1126022632,
				"element": "C" 
			},
			{
				"x": -2.0793279352,
				"y": -0.0994750555,
				"z": 0.2362708397,
				"element": "C" 
			},
			{
				"x": -2.1320446955,
				"y": 1.2296225407,
				"z": 0.3430610609,
				"element": "N" 
			},
			{
				"x": -0.9526819393,
				"y": 1.8388293504,
				"z": 0.4011180734,
				"element": "C" 
			},
			{
				"x": 0.3203269173,
				"y": 1.2052060434,
				"z": 0.3520476842,
				"element": "C" 
			},
			{
				"x": 1.4143520926,
				"y": 2.1568365353,
				"z": 0.4377002919,
				"element": "C" 
			},
			{
				"x": 0.935381959,
				"y": 3.4296044772,
				"z": 0.5762469953,
				"element": "C" 
			},
			{
				"x": -0.8029089204,
				"y": 3.5740216373,
				"z": 0.5889905145,
				"element": "S" 
			},
			{
				"x": 2.8753716397,
				"y": 1.8937322253,
				"z": 0.3591631851,
				"element": "C" 
			},
			{
				"x": 3.4479509005,
				"y": 1.309826405,
				"z": -0.7818389929,
				"element": "C" 
			},
			{
				"x": 4.8274800088,
				"y": 1.135100597,
				"z": -0.8706189108,
				"element": "C" 
			},
			{
				"x": 5.6575541736,
				"y": 1.5427303857,
				"z": 0.1766596911,
				"element": "C" 
			},
			{
				"x": 5.0992183113,
				"y": 2.1284833323,
				"z": 1.3131456408,
				"element": "C" 
			},
			{
				"x": 3.7176957441,
				"y": 2.3042059114,
				"z": 1.4032190035,
				"element": "C" 
			},
			{
				"x": 0.211147888,
				"y": -0.198555542,
				"z": 0.3000670111,
				"element": "C" 
			},
			{
				"x": 1.6303540483,
				"y": -1.2298662876,
				"z": 0.3661280534,
				"element": "Cl" 
			},
			{
				"x": -0.9431764722,
				"y": -0.8289499192,
				"z": 0.2346069169,
				"element": "N" 
			},
			{
				"x": -5.7961453467,
				"y": -0.4042758188,
				"z": -0.9223277635,
				"element": "H" 
			},
			{
				"x": -5.5267599743,
				"y": -1.2599626864,
				"z": -2.4491781959,
				"element": "H" 
			},
			{
				"x": -5.5653156223,
				"y": -2.1728737517,
				"z": -0.9233026074,
				"element": "H" 
			},
			{
				"x": -1.9778385739,
				"y": -1.7987439903,
				"z": -1.9241405717,
				"element": "H" 
			},
			{
				"x": -3.2224428282,
				"y": -3.0215554657,
				"z": -1.6009479996,
				"element": "H" 
			},
			{
				"x": -3.3295831056,
				"y": -1.9946224608,
				"z": -3.0551266459,
				"element": "H" 
			},
			{
				"x": -3.2980909996,
				"y": -1.8191760303,
				"z": 0.6228122655,
				"element": "H" 
			},
			{
				"x": -4.1474416965,
				"y": -0.2509503936,
				"z": 0.633635901,
				"element": "H" 
			},
			{
				"x": 1.5390202823,
				"y": 4.3251754954,
				"z": 0.638227287,
				"element": "H" 
			},
			{
				"x": 2.8089659198,
				"y": 0.9999236618,
				"z": -1.6029254243,
				"element": "H" 
			},
			{
				"x": 5.2556997006,
				"y": 0.6839725219,
				"z": -1.761053327,
				"element": "H" 
			},
			{
				"x": 6.7324837318,
				"y": 1.4042022992,
				"z": 0.1058716009,
				"element": "H" 
			},
			{
				"x": 5.7369006257,
				"y": 2.4458020629,
				"z": 2.1332322256,
				"element": "H" 
			},
			{
				"x": 3.281903116,
				"y": 2.7496605454,
				"z": 2.2927748469,
				"element": "H" 
			}
		],
		 "valence_orbital": [ 
			{
				"type": "occ",
				"energy": -0.26671,
				"method": "rhf"
			},
			{
				"type": "occ",
				"energy": -0.26084,
				"method": "rhf"
			},
			{
				"type": "occ",
				"energy": -0.25546,
				"method": "rhf"
			},
			{
				"type": "occ",
				"energy": -0.23284,
				"method": "rhf"
			},
			{
				"type": "occ",
				"energy": -0.2112,
				"method": "rhf"
			},
			{
				"type": "unocc",
				"energy": -0.05838,
				"method": "rhf"
			},
			{
				"type": "unocc",
				"energy": -0.03962,
				"method": "rhf"
			},
			{
				"type": "unocc",
				"energy": -0.02084,
				"method": "rhf"
			},
			{
				"type": "unocc",
				"energy": -0.00722,
				"method": "rhf"
			},
			{
				"type": "unocc",
				"energy": 0.00779,
				"method": "rhf"
			}
		],
		"cosmo_sigma_profile": { 
			"-0.025": 0.0,
			"-0.024": 0.0,
			"-0.023": 0.0,
			"-0.022": 0.0,
			"-0.021": 0.0,
			"-0.02": 0.0,
			"-0.019": 0.0,
			"-0.018": 0.0,
			"-0.017": 0.0,
			"-0.016": 0.0,
			"-0.015": 0.0,
			"-0.014": 0.0,
			"-0.013": 0.0,
			"-0.012": 0.0,
			"-0.011": 0.0,
			"-0.01": 0.689826990694,
			"-0.009": 2.17155566268,
			"-0.008": 2.15051482282,
			"-0.007": 1.34035212422,
			"-0.006": 8.52291224319,
			"-0.005": 15.9327027358,
			"-0.004": 25.3141138433,
			"-0.003": 30.638007387,
			"-0.002": 40.9310255472,
			"-0.001": 39.4940074885,
			"0.0": 37.0616884789,
			"0.001": 27.4503360942,
			"0.002": 20.5703354488,
			"0.003": 21.2151779312,
			"0.004": 17.1540272422,
			"0.005": 14.743914921,
			"0.006": 6.67890802055,
			"0.007": 2.55814596713,
			"0.008": 3.48159544648,
			"0.009": 2.80045725735,
			"0.01": 2.60694565725,
			"0.011": 2.49484538755,
			"0.012": 2.45856575577,
			"0.013": 1.09675339176,
			"0.014": 0.470976972438,
			"0.015": 0.347204875837,
			"0.016": 0.234947179325,
			"0.017": 0.0,
			"0.018": 0.0,
			"0.019": 0.0,
			"0.02": 0.0,
			"0.021": 0.0,
			"0.022": 0.0,
			"0.023": 0.0,
			"0.024": 0.0,
			"0.025": 0.0
		}
	}
}
