{
	 "smiles": "CN1N=C(CCC1=O)C(N)=O", 
	 "Tm": 443.15, 
	 "num_atms": 20, 
	 "gaussian": { 
		 "optdone": 1, 
		 "sigma_profile": "yes", 
		 "theory": "DFT", 
		 "functional": "B3LYP", 
		 "basiset": "6-31G**", 
		 "properties": { 
			 "R2extent": 2018.0467, 
			 "electric_dipole_moment_norm": 2.58433724192, 
			 "electric_quadrupole_moment_norm": 18.3347621588, 
			 "total_energy": -548.767407942, 
			 "HOMO_LUMO_gap": 0.18287, 
			 "cosmo_polarized_energy": -14.55, 
			 "cosmo_cavitation_energy": 23.76, 
			 "cosmo_dispersion_energy": -17.75, 
			 "cosmo_repulsion_energy": 1.47, 
			 "cosmo_total_nonelectrostatic_energy": 7.47, 
			 "SMD_solvation_energy": 5.01 
		},
		"coords": [
			{
				"x": -2.2352020385,
				"y": -2.3735511162,
				"z": 0.5975952547,
				"element": "C" 
			},
			{
				"x": -1.4927544447,
				"y": -1.1276295553,
				"z": 0.435866622,
				"element": "N" 
			},
			{
				"x": -0.1805658419,
				"y": -1.19255916,
				"z": 0.8390658808,
				"element": "N" 
			},
			{
				"x": 0.6052309558,
				"y": -0.2074408746,
				"z": 0.573575151,
				"element": "C" 
			},
			{
				"x": 0.1677173118,
				"y": 1.0207268835,
				"z": -0.1688913355,
				"element": "C" 
			},
			{
				"x": -1.2985600864,
				"y": 1.304637378,
				"z": 0.161483079,
				"element": "C" 
			},
			{
				"x": -2.1548071679,
				"y": 0.0522502868,
				"z": 0.0918493214,
				"element": "C" 
			},
			{
				"x": -3.3421438772,
				"y": 0.0602413838,
				"z": -0.1905559877,
				"element": "O" 
			},
			{
				"x": 2.0443130215,
				"y": -0.3218475198,
				"z": 1.0028872456,
				"element": "C" 
			},
			{
				"x": 2.3729579161,
				"y": -1.4768568536,
				"z": 1.6373290729,
				"element": "N" 
			},
			{
				"x": 2.8357791307,
				"y": 0.5874155133,
				"z": 0.7732247702,
				"element": "O" 
			},
			{
				"x": -2.1882607162,
				"y": -2.7057568449,
				"z": 1.6390088233,
				"element": "H" 
			},
			{
				"x": -1.8099945955,
				"y": -3.1499402758,
				"z": -0.0442449305,
				"element": "H" 
			},
			{
				"x": -3.2679057579,
				"y": -2.1815715388,
				"z": 0.3128053287,
				"element": "H" 
			},
			{
				"x": 0.826637056,
				"y": 1.8554303099,
				"z": 0.0766084662,
				"element": "H" 
			},
			{
				"x": 0.287852778,
				"y": 0.8350573202,
				"z": -1.2465194924,
				"element": "H" 
			},
			{
				"x": -1.7439137331,
				"y": 2.0465193118,
				"z": -0.5037610061,
				"element": "H" 
			},
			{
				"x": -1.3882528969,
				"y": 1.6942353382,
				"z": 1.1848813374,
				"element": "H" 
			},
			{
				"x": 1.6760574308,
				"y": -2.1903014775,
				"z": 1.7829351105,
				"element": "H" 
			},
			{
				"x": 3.3270155554,
				"y": -1.6123585089,
				"z": 1.9297572883,
				"element": "H" 
			}
		],
		 "valence_orbital": [ 
			{
				"type": "occ",
				"energy": -0.31848,
				"method": "rhf"
			},
			{
				"type": "occ",
				"energy": -0.27113,
				"method": "rhf"
			},
			{
				"type": "occ",
				"energy": -0.26661,
				"method": "rhf"
			},
			{
				"type": "occ",
				"energy": -0.25127,
				"method": "rhf"
			},
			{
				"type": "occ",
				"energy": -0.24193,
				"method": "rhf"
			},
			{
				"type": "unocc",
				"energy": -0.05906,
				"method": "rhf"
			},
			{
				"type": "unocc",
				"energy": 0.01691,
				"method": "rhf"
			},
			{
				"type": "unocc",
				"energy": 0.07581,
				"method": "rhf"
			},
			{
				"type": "unocc",
				"energy": 0.08785,
				"method": "rhf"
			},
			{
				"type": "unocc",
				"energy": 0.10925,
				"method": "rhf"
			}
		],
		"cosmo_sigma_profile": { 
			"-0.025": 0.0,
			"-0.024": 0.0,
			"-0.023": 0.0,
			"-0.022": 0.0,
			"-0.021": 0.0,
			"-0.02": 0.0,
			"-0.019": 0.0,
			"-0.018": 0.0,
			"-0.017": 0.0,
			"-0.016": 0.0,
			"-0.015": 0.0943947487715,
			"-0.014": 1.25220577341,
			"-0.013": 1.25132272901,
			"-0.012": 1.51678270439,
			"-0.011": 2.13859444064,
			"-0.01": 1.90728429122,
			"-0.009": 1.97528901493,
			"-0.008": 1.7795344336,
			"-0.007": 4.20956147242,
			"-0.006": 12.7712441463,
			"-0.005": 15.3686064283,
			"-0.004": 16.5966495776,
			"-0.003": 19.0447739736,
			"-0.002": 17.9708788902,
			"-0.001": 9.99340073,
			"0.0": 9.20626160414,
			"0.001": 8.62080477558,
			"0.002": 6.76494184831,
			"0.003": 8.55015534634,
			"0.004": 5.95641381243,
			"0.005": 4.33418661688,
			"0.006": 3.19745513415,
			"0.007": 3.31868852311,
			"0.008": 2.19065756724,
			"0.009": 2.32984767876,
			"0.01": 3.18655202809,
			"0.011": 4.12305707609,
			"0.012": 6.61681815486,
			"0.013": 7.77013504546,
			"0.014": 3.36404490024,
			"0.015": 0.193298415818,
			"0.016": 0.0,
			"0.017": 0.0,
			"0.018": 0.0,
			"0.019": 0.0,
			"0.02": 0.0,
			"0.021": 0.0,
			"0.022": 0.0,
			"0.023": 0.0,
			"0.024": 0.0,
			"0.025": 0.0
		}
	}
}
