{
	 "smiles": "COC(=O)C=CC1=CC=C(C=C1)S(Cl)(=O)=O", 
	 "Tm": 386.15, 
	 "num_atms": 25, 
	 "gaussian": { 
		 "optdone": 1, 
		 "sigma_profile": "yes", 
		 "theory": "DFT", 
		 "functional": "B3LYP", 
		 "basiset": "6-31G**", 
		 "properties": { 
			 "R2extent": 8486.2759, 
			 "electric_dipole_moment_norm": 4.98596782481, 
			 "electric_quadrupole_moment_norm": 16.7779517594, 
			 "total_energy": -1545.68812245, 
			 "HOMO_LUMO_gap": 0.1608, 
			 "cosmo_polarized_energy": -14.46, 
			 "cosmo_cavitation_energy": 34.36, 
			 "cosmo_dispersion_energy": -25.22, 
			 "cosmo_repulsion_energy": 1.92, 
			 "cosmo_total_nonelectrostatic_energy": 11.06, 
			 "SMD_solvation_energy": 6.32 
		},
		"coords": [
			{
				"x": -6.193649782,
				"y": -1.3185063826,
				"z": 0.3914331316,
				"element": "C" 
			},
			{
				"x": -4.8304896431,
				"y": -0.8910832173,
				"z": 0.5426330945,
				"element": "O" 
			},
			{
				"x": -4.5041974413,
				"y": -0.4381406422,
				"z": 1.7755828295,
				"element": "C" 
			},
			{
				"x": -5.2894998696,
				"y": -0.3872309311,
				"z": 2.7023291214,
				"element": "O" 
			},
			{
				"x": -3.0922359404,
				"y": -0.0092441954,
				"z": 1.8851375303,
				"element": "C" 
			},
			{
				"x": -2.2072171955,
				"y": -0.057136153,
				"z": 0.8739818775,
				"element": "C" 
			},
			{
				"x": -0.7992500436,
				"y": 0.3506009727,
				"z": 0.9180488895,
				"element": "C" 
			},
			{
				"x": -0.0294982152,
				"y": 0.2234253345,
				"z": -0.2537669365,
				"element": "C" 
			},
			{
				"x": 1.3124374842,
				"y": 0.589598216,
				"z": -0.281742178,
				"element": "C" 
			},
			{
				"x": 1.8853889655,
				"y": 1.0927826581,
				"z": 0.8854551316,
				"element": "C" 
			},
			{
				"x": 1.1552355453,
				"y": 1.2372265411,
				"z": 2.0685128431,
				"element": "C" 
			},
			{
				"x": -0.1826641529,
				"y": 0.8659861621,
				"z": 2.0762340249,
				"element": "C" 
			},
			{
				"x": 3.6010870764,
				"y": 1.5862544667,
				"z": 0.8625908997,
				"element": "S" 
			},
			{
				"x": 4.5641977504,
				"y": -0.2240081183,
				"z": 1.4577667648,
				"element": "Cl" 
			},
			{
				"x": 3.8422269908,
				"y": 2.543878532,
				"z": 1.9343755197,
				"element": "O" 
			},
			{
				"x": 4.014402972,
				"y": 1.8314478989,
				"z": -0.5133044594,
				"element": "O" 
			},
			{
				"x": -6.8803792264,
				"y": -0.4929978899,
				"z": 0.5945084981,
				"element": "H" 
			},
			{
				"x": -6.2854965498,
				"y": -1.6477948504,
				"z": -0.6433854105,
				"element": "H" 
			},
			{
				"x": -6.4177654101,
				"y": -2.1392599429,
				"z": 1.0773145951,
				"element": "H" 
			},
			{
				"x": -2.8360671069,
				"y": 0.3530833191,
				"z": 2.8752718189,
				"element": "H" 
			},
			{
				"x": -2.5565897295,
				"y": -0.4360540929,
				"z": -0.0832110713,
				"element": "H" 
			},
			{
				"x": -0.4943280864,
				"y": -0.1660001837,
				"z": -1.1547307587,
				"element": "H" 
			},
			{
				"x": 1.9023460095,
				"y": 0.4986537628,
				"z": -1.1866933606,
				"element": "H" 
			},
			{
				"x": 1.6291106807,
				"y": 1.6420647977,
				"z": 2.9555996753,
				"element": "H" 
			},
			{
				"x": -0.7529050823,
				"y": 0.981653938,
				"z": 2.9914579296,
				"element": "H" 
			}
		],
		 "valence_orbital": [ 
			{
				"type": "occ",
				"energy": -0.316,
				"method": "rhf"
			},
			{
				"type": "occ",
				"energy": -0.3118,
				"method": "rhf"
			},
			{
				"type": "occ",
				"energy": -0.29576,
				"method": "rhf"
			},
			{
				"type": "occ",
				"energy": -0.2845,
				"method": "rhf"
			},
			{
				"type": "occ",
				"energy": -0.26724,
				"method": "rhf"
			},
			{
				"type": "unocc",
				"energy": -0.10644,
				"method": "rhf"
			},
			{
				"type": "unocc",
				"energy": -0.07563,
				"method": "rhf"
			},
			{
				"type": "unocc",
				"energy": -0.04395,
				"method": "rhf"
			},
			{
				"type": "unocc",
				"energy": -0.01757,
				"method": "rhf"
			},
			{
				"type": "unocc",
				"energy": 0.04756,
				"method": "rhf"
			}
		],
		"cosmo_sigma_profile": { 
			"-0.025": 0.0,
			"-0.024": 0.0,
			"-0.023": 0.0,
			"-0.022": 0.0,
			"-0.021": 0.0,
			"-0.02": 0.0,
			"-0.019": 0.0,
			"-0.018": 0.0,
			"-0.017": 0.0,
			"-0.016": 0.0,
			"-0.015": 0.0,
			"-0.014": 0.0,
			"-0.013": 0.0,
			"-0.012": 0.0,
			"-0.011": 0.0,
			"-0.01": 1.05286430365,
			"-0.009": 4.88009122398,
			"-0.008": 9.69078616647,
			"-0.007": 10.2082703852,
			"-0.006": 14.0698949268,
			"-0.005": 14.6733054894,
			"-0.004": 16.6412136126,
			"-0.003": 18.0167950324,
			"-0.002": 19.9189595229,
			"-0.001": 22.0458813458,
			"0.0": 30.1422299658,
			"0.001": 25.7276448143,
			"0.002": 14.136915865,
			"0.003": 16.887650277,
			"0.004": 12.4365545637,
			"0.005": 7.03300369598,
			"0.006": 5.23276260965,
			"0.007": 8.471739383,
			"0.008": 10.6446873715,
			"0.009": 5.20016022069,
			"0.01": 2.2209067947,
			"0.011": 3.07682513536,
			"0.012": 4.6350995001,
			"0.013": 1.34421417187,
			"0.014": 0.0,
			"0.015": 0.0,
			"0.016": 0.0,
			"0.017": 0.0,
			"0.018": 0.0,
			"0.019": 0.0,
			"0.02": 0.0,
			"0.021": 0.0,
			"0.022": 0.0,
			"0.023": 0.0,
			"0.024": 0.0,
			"0.025": 0.0
		}
	}
}
