{
	 "smiles": "BrC1=CC=C(C=C1)C(=O)N1CCNCC1", 
	 "Tm": 353.15, 
	 "num_atms": 28, 
	 "gaussian": { 
		 "optdone": 1, 
		 "sigma_profile": "yes", 
		 "theory": "DFT", 
		 "functional": "B3LYP", 
		 "basiset": "6-31G**", 
		 "properties": { 
			 "R2extent": 7618.9635, 
			 "electric_dipole_moment_norm": 3.11555723908, 
			 "electric_quadrupole_moment_norm": 8.8478200366, 
			 "total_energy": -3183.13233625, 
			 "HOMO_LUMO_gap": 0.18674, 
			 "cosmo_polarized_energy": -13.15, 
			 "cosmo_cavitation_energy": 32.61, 
			 "cosmo_dispersion_energy": -24.3, 
			 "cosmo_repulsion_energy": 1.91, 
			 "cosmo_total_nonelectrostatic_energy": 10.21, 
			 "SMD_solvation_energy": 1.3 
		},
		"coords": [
			{
				"x": -0.6584395649,
				"y": 4.6212876318,
				"z": 3.476843307,
				"element": "Br" 
			},
			{
				"x": -0.4801155267,
				"y": 2.8833705054,
				"z": 2.7038522209,
				"element": "C" 
			},
			{
				"x": -1.5589526286,
				"y": 2.3249286763,
				"z": 2.0212780396,
				"element": "C" 
			},
			{
				"x": -1.4180512556,
				"y": 1.060999163,
				"z": 1.4473279677,
				"element": "C" 
			},
			{
				"x": -0.214331725,
				"y": 0.35243148,
				"z": 1.5586824764,
				"element": "C" 
			},
			{
				"x": 0.8436683121,
				"y": 0.9238250891,
				"z": 2.2792650534,
				"element": "C" 
			},
			{
				"x": 0.7242555262,
				"y": 2.1920550243,
				"z": 2.8408285944,
				"element": "C" 
			},
			{
				"x": -0.0266426994,
				"y": -1.0538221482,
				"z": 1.0534150862,
				"element": "C" 
			},
			{
				"x": 0.5910415313,
				"y": -1.8708022949,
				"z": 1.7364799107,
				"element": "O" 
			},
			{
				"x": -0.5798715607,
				"y": -1.4131760764,
				"z": -0.1514716124,
				"element": "N" 
			},
			{
				"x": -0.9630380677,
				"y": -0.4848259257,
				"z": -1.2258448872,
				"element": "C" 
			},
			{
				"x": -0.3784362783,
				"y": -0.949917716,
				"z": -2.560582741,
				"element": "C" 
			},
			{
				"x": -0.932584434,
				"y": -2.2594680827,
				"z": -2.9334024889,
				"element": "N" 
			},
			{
				"x": -1.2787317207,
				"y": -3.1044969224,
				"z": -1.7794574014,
				"element": "C" 
			},
			{
				"x": -0.4356795861,
				"y": -2.8285035376,
				"z": -0.5330165686,
				"element": "C" 
			},
			{
				"x": -2.4952106671,
				"y": 2.8657025881,
				"z": 1.9437429696,
				"element": "H" 
			},
			{
				"x": -2.265351043,
				"y": 0.6198091814,
				"z": 0.9322032552,
				"element": "H" 
			},
			{
				"x": 1.7577183414,
				"y": 0.3527587605,
				"z": 2.4028043995,
				"element": "H" 
			},
			{
				"x": 1.5492138644,
				"y": 2.6365159845,
				"z": 3.3857813414,
				"element": "H" 
			},
			{
				"x": -0.588725088,
				"y": 0.5121680741,
				"z": -0.9921336627,
				"element": "H" 
			},
			{
				"x": -2.0560145574,
				"y": -0.4165695591,
				"z": -1.316012917,
				"element": "H" 
			},
			{
				"x": -0.6290618291,
				"y": -0.2106255206,
				"z": -3.3322493831,
				"element": "H" 
			},
			{
				"x": 0.7201877072,
				"y": -0.9562796785,
				"z": -2.4646948697,
				"element": "H" 
			},
			{
				"x": -0.2769209579,
				"y": -2.7458195195,
				"z": -3.5348672603,
				"element": "H" 
			},
			{
				"x": -1.1721060923,
				"y": -4.1553365222,
				"z": -2.0645481526,
				"element": "H" 
			},
			{
				"x": -2.3380639526,
				"y": -2.9594302176,
				"z": -1.5267383357,
				"element": "H" 
			},
			{
				"x": 0.6217421608,
				"y": -3.0664797398,
				"z": -0.7144457011,
				"element": "H" 
			},
			{
				"x": -0.7549982082,
				"y": -3.4494986973,
				"z": 0.3086613595,
				"element": "H" 
			}
		],
		 "valence_orbital": [ 
			{
				"type": "occ",
				"energy": -0.26965,
				"method": "rhf"
			},
			{
				"type": "occ",
				"energy": -0.25756,
				"method": "rhf"
			},
			{
				"type": "occ",
				"energy": -0.24251,
				"method": "rhf"
			},
			{
				"type": "occ",
				"energy": -0.23778,
				"method": "rhf"
			},
			{
				"type": "occ",
				"energy": -0.22535,
				"method": "rhf"
			},
			{
				"type": "unocc",
				"energy": -0.03861,
				"method": "rhf"
			},
			{
				"type": "unocc",
				"energy": -0.01905,
				"method": "rhf"
			},
			{
				"type": "unocc",
				"energy": 0.00392,
				"method": "rhf"
			},
			{
				"type": "unocc",
				"energy": 0.04543,
				"method": "rhf"
			},
			{
				"type": "unocc",
				"energy": 0.0672,
				"method": "rhf"
			}
		],
		"cosmo_sigma_profile": { 
			"-0.025": 0.0,
			"-0.024": 0.0,
			"-0.023": 0.0,
			"-0.022": 0.0,
			"-0.021": 0.0,
			"-0.02": 0.0,
			"-0.019": 0.0,
			"-0.018": 0.0,
			"-0.017": 0.0,
			"-0.016": 0.0,
			"-0.015": 0.0,
			"-0.014": 0.0,
			"-0.013": 0.0,
			"-0.012": 0.0,
			"-0.011": 0.125444548326,
			"-0.01": 1.1813259048,
			"-0.009": 1.74976014809,
			"-0.008": 1.95252111208,
			"-0.007": 6.96138378555,
			"-0.006": 11.0705782741,
			"-0.005": 16.4668191979,
			"-0.004": 25.3295848086,
			"-0.003": 33.5505742455,
			"-0.002": 24.7206004514,
			"-0.001": 17.3241086535,
			"0.0": 15.6751573878,
			"0.001": 17.2468372319,
			"0.002": 20.7039528454,
			"0.003": 18.7911326448,
			"0.004": 13.9332911322,
			"0.005": 6.77894482329,
			"0.006": 1.87302704897,
			"0.007": 2.71541806123,
			"0.008": 2.88124072083,
			"0.009": 1.21446598898,
			"0.01": 2.39000172371,
			"0.011": 2.0175819408,
			"0.012": 2.66103258375,
			"0.013": 3.35701817938,
			"0.014": 5.30061697605,
			"0.015": 1.32114465433,
			"0.016": 0.540990265964,
			"0.017": 0.337280871245,
			"0.018": 0.572007963707,
			"0.019": 0.0,
			"0.02": 0.0,
			"0.021": 0.0,
			"0.022": 0.0,
			"0.023": 0.0,
			"0.024": 0.0,
			"0.025": 0.0
		}
	}
}
