{
	 "smiles": "OC(=O)C=CC1=CC=C(I)O1", 
	 "Tm": 418.15, 
	 "num_atms": 16, 
	 "gaussian": { 
		 "optdone": 1, 
		 "sigma_profile": "no", 
		 "theory": "DFT", 
		 "functional": "B3LYP", 
		 "basiset": "6-31G**", 
		 "properties": { 
			 "R2extent": 2874.2926, 
			 "electric_dipole_moment_norm": 5.11274250574, 
			 "electric_quadrupole_moment_norm": 12.3623234932, 
			 "total_energy": -506.772209832, 
			 "HOMO_LUMO_gap": 0.15064, 
			 "cosmo_polarized_energy": -109739.89, 
			 "cosmo_cavitation_energy": 25.45, 
			 "cosmo_dispersion_energy": -20.04, 
			 "cosmo_repulsion_energy": 1.6, 
			 "cosmo_total_nonelectrostatic_energy": 7.0, 
			 "SMD_solvation_energy": 5.46 
		},
		"coords": [
			{
				"x": -0.8237955814,
				"y": -2.2881218589,
				"z": 1.0510454193,
				"element": "O" 
			},
			{
				"x": -1.0658191456,
				"y": -1.1638973629,
				"z": 1.7841080075,
				"element": "C" 
			},
			{
				"x": -1.7739925875,
				"y": -1.2195142036,
				"z": 2.7632480637,
				"element": "O" 
			},
			{
				"x": -0.4471994409,
				"y": 0.102749563,
				"z": 1.3244504309,
				"element": "C" 
			},
			{
				"x": -0.0273228951,
				"y": 0.3452877202,
				"z": 0.0654528789,
				"element": "C" 
			},
			{
				"x": 0.5207987203,
				"y": 1.5863181537,
				"z": -0.4138394185,
				"element": "C" 
			},
			{
				"x": 0.8013672171,
				"y": 2.8128722428,
				"z": 0.141448169,
				"element": "C" 
			},
			{
				"x": 1.3464223255,
				"y": 3.6253158737,
				"z": -0.8915016428,
				"element": "C" 
			},
			{
				"x": 1.3633846472,
				"y": 2.8392072763,
				"z": -2.0123867018,
				"element": "C" 
			},
			{
				"x": 1.994738101,
				"y": 3.2246713607,
				"z": -3.945807217,
				"element": "I" 
			},
			{
				"x": 0.8702386148,
				"y": 1.6058876719,
				"z": -1.7487054627,
				"element": "O" 
			},
			{
				"x": -0.0994777979,
				"y": -2.1320460759,
				"z": 0.4296775308,
				"element": "H" 
			},
			{
				"x": -0.4345966447,
				"y": 0.8803527176,
				"z": 2.0816853915,
				"element": "H" 
			},
			{
				"x": -0.1114403279,
				"y": -0.4227831911,
				"z": -0.7020454447,
				"element": "H" 
			},
			{
				"x": 0.6353186264,
				"y": 3.1003575385,
				"z": 1.1697235043,
				"element": "H" 
			},
			{
				"x": 1.6807761687,
				"y": 4.649142574,
				"z": -0.8204535083,
				"element": "H" 
			}
		],
		 "valence_orbital": [ 
			{
				"type": "occ",
				"energy": -0.31403,
				"method": "rhf"
			},
			{
				"type": "occ",
				"energy": -0.29504,
				"method": "rhf"
			},
			{
				"type": "occ",
				"energy": -0.29456,
				"method": "rhf"
			},
			{
				"type": "occ",
				"energy": -0.27262,
				"method": "rhf"
			},
			{
				"type": "occ",
				"energy": -0.23101,
				"method": "rhf"
			},
			{
				"type": "unocc",
				"energy": -0.08037,
				"method": "rhf"
			},
			{
				"type": "unocc",
				"energy": -0.05464,
				"method": "rhf"
			},
			{
				"type": "unocc",
				"energy": 0.001,
				"method": "rhf"
			},
			{
				"type": "unocc",
				"energy": 0.03456,
				"method": "rhf"
			},
			{
				"type": "unocc",
				"energy": 0.03775,
				"method": "rhf"
			}
		],
		"cosmo_sigma_profile": { 
			"0.0": 0.0,
			"0.0": 0.0,
			"0.0": 0.0,
			"0.0": 0.0,
			"0.0": 0.0,
			"0.0": 0.0,
			"0.0": 0.0,
			"0.0": 0.0,
			"0.0": 0.0,
			"0.0": 0.0,
			"0.0": 0.0,
			"0.0": 0.0,
			"0.0": 0.0,
			"0.0": 0.0,
			"0.0": 0.0,
			"0.0": 0.0,
			"0.0": 0.0,
			"0.0": 0.0,
			"0.0": 0.0,
			"0.0": 0.0,
			"0.0": 0.0,
			"0.0": 0.0,
			"0.0": 0.0,
			"0.0": 0.0,
			"0.0": 0.0,
			"0.0": 0.0,
			"0.0": 0.0,
			"0.0": 0.0,
			"0.0": 0.0,
			"0.0": 0.0,
			"0.0": 0.0,
			"0.0": 0.0,
			"0.0": 0.0,
			"0.0": 0.0,
			"0.0": 0.0,
			"0.0": 0.0,
			"0.0": 0.0,
			"0.0": 0.0,
			"0.0": 0.0,
			"0.0": 0.0,
			"0.0": 0.0,
			"0.0": 0.0,
			"0.0": 0.0,
			"0.0": 0.0,
			"0.0": 0.0,
			"0.0": 0.0,
			"0.0": 0.0,
			"0.0": 0.0,
			"0.0": 0.0,
			"0.0": 0.0,
			"0.0": 0.0
		}
	}
}
