{
	 "smiles": "CCC(=CC(O)=O)C1=CC=C(C)C=C1", 
	 "Tm": 390.15, 
	 "num_atms": 28, 
	 "gaussian": { 
		 "optdone": 1, 
		 "sigma_profile": "yes", 
		 "theory": "DFT", 
		 "functional": "B3LYP", 
		 "basiset": "6-31G**", 
		 "properties": { 
			 "R2extent": 3934.5602, 
			 "electric_dipole_moment_norm": 2.50120689268, 
			 "electric_quadrupole_moment_norm": 6.26657818989, 
			 "total_energy": -616.181169755, 
			 "HOMO_LUMO_gap": 0.17695, 
			 "cosmo_polarized_energy": -9.42, 
			 "cosmo_cavitation_energy": 31.54, 
			 "cosmo_dispersion_energy": -22.3, 
			 "cosmo_repulsion_energy": 1.78, 
			 "cosmo_total_nonelectrostatic_energy": 11.01, 
			 "SMD_solvation_energy": 6.63 
		},
		"coords": [
			{
				"x": -0.3295320784,
				"y": 1.9539327893,
				"z": 1.4253224268,
				"element": "C" 
			},
			{
				"x": -1.2808726979,
				"y": 0.8359796637,
				"z": 0.9544310957,
				"element": "C" 
			},
			{
				"x": -0.5308685742,
				"y": -0.4497098576,
				"z": 0.6765660014,
				"element": "C" 
			},
			{
				"x": -0.3461953041,
				"y": -1.4244781157,
				"z": 1.6005601217,
				"element": "C" 
			},
			{
				"x": -0.8164798627,
				"y": -1.3901625073,
				"z": 2.99325237,
				"element": "C" 
			},
			{
				"x": -0.5515709422,
				"y": -2.5717805273,
				"z": 3.6177539422,
				"element": "O" 
			},
			{
				"x": -1.3657719604,
				"y": -0.4744085841,
				"z": 3.5839579969,
				"element": "O" 
			},
			{
				"x": 0.0762619147,
				"y": -0.6213494432,
				"z": -0.6706997372,
				"element": "C" 
			},
			{
				"x": 1.3638326316,
				"y": -1.1694604673,
				"z": -0.8155380894,
				"element": "C" 
			},
			{
				"x": 1.9356022366,
				"y": -1.344351623,
				"z": -2.0725887213,
				"element": "C" 
			},
			{
				"x": 1.2464342818,
				"y": -0.9886998421,
				"z": -3.2397916521,
				"element": "C" 
			},
			{
				"x": 1.8544576176,
				"y": -1.2098358599,
				"z": -4.6038528352,
				"element": "C" 
			},
			{
				"x": -0.0338221258,
				"y": -0.4376725816,
				"z": -3.0980405794,
				"element": "C" 
			},
			{
				"x": -0.6056775959,
				"y": -0.2487990801,
				"z": -1.8422378689,
				"element": "C" 
			},
			{
				"x": -0.8820599334,
				"y": 2.8886632642,
				"z": 1.5627122904,
				"element": "H" 
			},
			{
				"x": 0.1247385771,
				"y": 1.6845279404,
				"z": 2.3821895887,
				"element": "H" 
			},
			{
				"x": 0.4685876833,
				"y": 2.1338564839,
				"z": 0.6978430407,
				"element": "H" 
			},
			{
				"x": -2.0351218845,
				"y": 0.6682175734,
				"z": 1.7230495915,
				"element": "H" 
			},
			{
				"x": -1.787498453,
				"y": 1.1648170131,
				"z": 0.0415182371,
				"element": "H" 
			},
			{
				"x": 0.1735579693,
				"y": -2.3348102032,
				"z": 1.3213967807,
				"element": "H" 
			},
			{
				"x": -0.8834941712,
				"y": -2.4656968021,
				"z": 4.5244177993,
				"element": "H" 
			},
			{
				"x": 1.9323098731,
				"y": -1.4296070435,
				"z": 0.0720081004,
				"element": "H" 
			},
			{
				"x": 2.9395800446,
				"y": -1.7548839956,
				"z": -2.1483916891,
				"element": "H" 
			},
			{
				"x": 1.5971417941,
				"y": -2.2026294077,
				"z": -4.9943252116,
				"element": "H" 
			},
			{
				"x": 1.4938893658,
				"y": -0.4732666931,
				"z": -5.3281326522,
				"element": "H" 
			},
			{
				"x": 2.9462954847,
				"y": -1.1478420831,
				"z": -4.5705712289,
				"element": "H" 
			},
			{
				"x": -0.5929270463,
				"y": -0.150603322,
				"z": -3.9853045569,
				"element": "H" 
			},
			{
				"x": -1.6055968443,
				"y": 0.1685533115,
				"z": -1.7788045614,
				"element": "H" 
			}
		],
		 "valence_orbital": [ 
			{
				"type": "occ",
				"energy": -0.30788,
				"method": "rhf"
			},
			{
				"type": "occ",
				"energy": -0.27844,
				"method": "rhf"
			},
			{
				"type": "occ",
				"energy": -0.26433,
				"method": "rhf"
			},
			{
				"type": "occ",
				"energy": -0.25516,
				"method": "rhf"
			},
			{
				"type": "occ",
				"energy": -0.23097,
				"method": "rhf"
			},
			{
				"type": "unocc",
				"energy": -0.05402,
				"method": "rhf"
			},
			{
				"type": "unocc",
				"energy": -0.00759,
				"method": "rhf"
			},
			{
				"type": "unocc",
				"energy": 0.01158,
				"method": "rhf"
			},
			{
				"type": "unocc",
				"energy": 0.08874,
				"method": "rhf"
			},
			{
				"type": "unocc",
				"energy": 0.09131,
				"method": "rhf"
			}
		],
		"cosmo_sigma_profile": { 
			"-0.025": 0.0,
			"-0.024": 0.0,
			"-0.023": 0.0,
			"-0.022": 0.0,
			"-0.021": 0.0,
			"-0.02": 0.0,
			"-0.019": 0.0,
			"-0.018": 0.311536108958,
			"-0.017": 0.799603545225,
			"-0.016": 0.714352565144,
			"-0.015": 1.18767718213,
			"-0.014": 0.431062897883,
			"-0.013": 0.286883017906,
			"-0.012": 0.466779829525,
			"-0.011": 1.32906168444,
			"-0.01": 0.828537444919,
			"-0.009": 0.394772153003,
			"-0.008": 0.274050786065,
			"-0.007": 1.38389759629,
			"-0.006": 5.66879886017,
			"-0.005": 14.0782026975,
			"-0.004": 18.8647771164,
			"-0.003": 19.4394192062,
			"-0.002": 21.7673580179,
			"-0.001": 28.6961697791,
			"0.0": 33.385196086,
			"0.001": 24.1919574857,
			"0.002": 15.575763341,
			"0.003": 12.6990428619,
			"0.004": 10.1951841446,
			"0.005": 12.6221749259,
			"0.006": 4.36511505693,
			"0.007": 3.50022285429,
			"0.008": 3.13885744715,
			"0.009": 2.20086175572,
			"0.01": 3.60280210641,
			"0.011": 2.17726572072,
			"0.012": 3.41383950278,
			"0.013": 1.2246998381,
			"0.014": 0.0,
			"0.015": 0.0,
			"0.016": 0.0,
			"0.017": 0.0,
			"0.018": 0.0,
			"0.019": 0.0,
			"0.02": 0.0,
			"0.021": 0.0,
			"0.022": 0.0,
			"0.023": 0.0,
			"0.024": 0.0,
			"0.025": 0.0
		}
	}
}
