{
	 "smiles": "SC1=NN=C(O1)C1=CC=CS1", 
	 "Tm": 436.15, 
	 "num_atms": 15, 
	 "gaussian": { 
		 "optdone": 1, 
		 "sigma_profile": "yes", 
		 "theory": "DFT", 
		 "functional": "B3LYP", 
		 "basiset": "6-31G**", 
		 "properties": { 
			 "R2extent": 2832.8577, 
			 "electric_dipole_moment_norm": 4.94536913587, 
			 "electric_quadrupole_moment_norm": 11.0711944175, 
			 "total_energy": -1212.09131567, 
			 "HOMO_LUMO_gap": 0.1671, 
			 "cosmo_polarized_energy": -12.67, 
			 "cosmo_cavitation_energy": 23.98, 
			 "cosmo_dispersion_energy": -18.99, 
			 "cosmo_repulsion_energy": 1.42, 
			 "cosmo_total_nonelectrostatic_energy": 6.41, 
			 "SMD_solvation_energy": 2.13 
		},
		"coords": [
			{
				"x": 3.9834505643,
				"y": -1.7928138425,
				"z": -0.189718532,
				"element": "S" 
			},
			{
				"x": 2.6302005376,
				"y": -0.6740600268,
				"z": -0.1841595762,
				"element": "C" 
			},
			{
				"x": 2.6715317666,
				"y": 0.5890565947,
				"z": -0.464036611,
				"element": "N" 
			},
			{
				"x": 1.3629732708,
				"y": 1.0536524124,
				"z": -0.325820511,
				"element": "N" 
			},
			{
				"x": 0.6368895234,
				"y": 0.0347858296,
				"z": 0.0270039471,
				"element": "C" 
			},
			{
				"x": 1.3812522242,
				"y": -1.1175523112,
				"z": 0.1398720068,
				"element": "O" 
			},
			{
				"x": -0.7761206802,
				"y": -0.0225349108,
				"z": 0.2975011949,
				"element": "C" 
			},
			{
				"x": -1.5275937684,
				"y": -1.1156238849,
				"z": 0.6704103644,
				"element": "C" 
			},
			{
				"x": -2.9018452672,
				"y": -0.7996364298,
				"z": 0.853281518,
				"element": "C" 
			},
			{
				"x": -3.1733957438,
				"y": 0.5227446888,
				"z": 0.6177563265,
				"element": "C" 
			},
			{
				"x": -1.7593295756,
				"y": 1.4135724535,
				"z": 0.1675540629,
				"element": "S" 
			},
			{
				"x": 3.2435367845,
				"y": -2.8569451032,
				"z": 0.1760457152,
				"element": "H" 
			},
			{
				"x": -1.1024789123,
				"y": -2.1028506455,
				"z": 0.8055495863,
				"element": "H" 
			},
			{
				"x": -3.6539366156,
				"y": -1.5225198208,
				"z": 1.1464560118,
				"element": "H" 
			},
			{
				"x": -4.1261341083,
				"y": 1.0302249964,
				"z": 0.6823044964,
				"element": "H" 
			}
		],
		 "valence_orbital": [ 
			{
				"type": "occ",
				"energy": -0.32902,
				"method": "rhf"
			},
			{
				"type": "occ",
				"energy": -0.28447,
				"method": "rhf"
			},
			{
				"type": "occ",
				"energy": -0.27821,
				"method": "rhf"
			},
			{
				"type": "occ",
				"energy": -0.26825,
				"method": "rhf"
			},
			{
				"type": "occ",
				"energy": -0.22799,
				"method": "rhf"
			},
			{
				"type": "unocc",
				"energy": -0.06089,
				"method": "rhf"
			},
			{
				"type": "unocc",
				"energy": -0.00779,
				"method": "rhf"
			},
			{
				"type": "unocc",
				"energy": 0.00428,
				"method": "rhf"
			},
			{
				"type": "unocc",
				"energy": 0.01887,
				"method": "rhf"
			},
			{
				"type": "unocc",
				"energy": 0.03318,
				"method": "rhf"
			}
		],
		"cosmo_sigma_profile": { 
			"-0.025": 0.0,
			"-0.024": 0.0,
			"-0.023": 0.0,
			"-0.022": 0.0,
			"-0.021": 0.0,
			"-0.02": 0.0,
			"-0.019": 0.0,
			"-0.018": 0.0,
			"-0.017": 0.0,
			"-0.016": 0.0,
			"-0.015": 0.0,
			"-0.014": 0.372529391391,
			"-0.013": 1.90134409007,
			"-0.012": 1.31071093928,
			"-0.011": 1.88779224105,
			"-0.01": 1.73916376856,
			"-0.009": 3.1579774005,
			"-0.008": 5.59826652301,
			"-0.007": 7.31403943108,
			"-0.006": 6.61931129557,
			"-0.005": 10.45028818,
			"-0.004": 10.6171571035,
			"-0.003": 9.43272581395,
			"-0.002": 11.5470261687,
			"-0.001": 14.6874810239,
			"0.0": 16.1985357106,
			"0.001": 18.6598370668,
			"0.002": 23.9179951631,
			"0.003": 17.5686948402,
			"0.004": 8.52621640741,
			"0.005": 4.48534436548,
			"0.006": 3.33114460574,
			"0.007": 2.03854999285,
			"0.008": 2.00588290411,
			"0.009": 2.15498189962,
			"0.01": 3.23639914614,
			"0.011": 3.34272184353,
			"0.012": 2.918198148,
			"0.013": 2.17140443777,
			"0.014": 1.76852400896,
			"0.015": 0.153176472005,
			"0.016": 0.0,
			"0.017": 0.0,
			"0.018": 0.0,
			"0.019": 0.0,
			"0.02": 0.0,
			"0.021": 0.0,
			"0.022": 0.0,
			"0.023": 0.0,
			"0.024": 0.0,
			"0.025": 0.0
		}
	}
}
