{
	 "smiles": "[O-][N+](=O)C1=CC(=C(C=C2/N=C(OC2=O)C2=CC=CC=C2)C=C1C=C1N=C(OC1=O)C1=CC=CC=C1)[N+]([O-])=O", 
	 "Tm": 539.15, 
	 "num_atms": 52, 
	 "gaussian": { 
		 "optdone": 1, 
		 "sigma_profile": "yes", 
		 "theory": "DFT", 
		 "functional": "B3LYP", 
		 "basiset": "6-31G**", 
		 "properties": { 
			 "R2extent": 22691.6977, 
			 "electric_dipole_moment_norm": 10.6640621768, 
			 "electric_quadrupole_moment_norm": 11.1323835619, 
			 "total_energy": -1819.78555915, 
			 "HOMO_LUMO_gap": 0.10907, 
			 "cosmo_polarized_energy": -22.47, 
			 "cosmo_cavitation_energy": 62.24, 
			 "cosmo_dispersion_energy": -41.31, 
			 "cosmo_repulsion_energy": 3.03, 
			 "cosmo_total_nonelectrostatic_energy": 23.96, 
			 "SMD_solvation_energy": 14.2 
		},
		"coords": [
			{
				"x": -0.7229481415,
				"y": -4.8156301388,
				"z": -0.799115224,
				"element": "O" 
			},
			{
				"x": -1.9223655829,
				"y": -4.555341941,
				"z": -0.9112488852,
				"element": "N" 
			},
			{
				"x": -2.7829529692,
				"y": -5.3679776492,
				"z": -1.2426296355,
				"element": "O" 
			},
			{
				"x": -2.3591289325,
				"y": -3.1811984975,
				"z": -0.618142058,
				"element": "C" 
			},
			{
				"x": -3.7284485269,
				"y": -2.9787315676,
				"z": -0.5130652145,
				"element": "C" 
			},
			{
				"x": -4.219491823,
				"y": -1.7173923196,
				"z": -0.2124989493,
				"element": "C" 
			},
			{
				"x": -3.3557140061,
				"y": -0.6145051252,
				"z": 0.016314414,
				"element": "C" 
			},
			{
				"x": -3.8281871769,
				"y": 0.7029095214,
				"z": 0.4189875996,
				"element": "C" 
			},
			{
				"x": -3.1271846714,
				"y": 1.8664460774,
				"z": 0.4382295579,
				"element": "C" 
			},
			{
				"x": -1.826161725,
				"y": 2.141877572,
				"z": 0.0356836889,
				"element": "N" 
			},
			{
				"x": -1.6517689479,
				"y": 3.4127662148,
				"z": 0.2467107718,
				"element": "C" 
			},
			{
				"x": -2.7240688849,
				"y": 4.0885032296,
				"z": 0.7745637673,
				"element": "O" 
			},
			{
				"x": -3.7450078342,
				"y": 3.1322280974,
				"z": 0.9287661659,
				"element": "C" 
			},
			{
				"x": -4.8243058124,
				"y": 3.4020620399,
				"z": 1.3725283014,
				"element": "O" 
			},
			{
				"x": -0.4479862539,
				"y": 4.1836342467,
				"z": -0.0237384537,
				"element": "C" 
			},
			{
				"x": 0.6688073929,
				"y": 3.543216123,
				"z": -0.5902242705,
				"element": "C" 
			},
			{
				"x": 1.82343708,
				"y": 4.2706299108,
				"z": -0.853925897,
				"element": "C" 
			},
			{
				"x": 1.8751478831,
				"y": 5.6368682603,
				"z": -0.5563184947,
				"element": "C" 
			},
			{
				"x": 0.7675264137,
				"y": 6.2761362353,
				"z": 0.0060405665,
				"element": "C" 
			},
			{
				"x": -0.3939521961,
				"y": 5.5562359371,
				"z": 0.2734176635,
				"element": "C" 
			},
			{
				"x": -1.9759494575,
				"y": -0.8733064305,
				"z": -0.0976595846,
				"element": "C" 
			},
			{
				"x": -1.437778897,
				"y": -2.1287887855,
				"z": -0.4087242871,
				"element": "C" 
			},
			{
				"x": 0.0108407537,
				"y": -2.2680134159,
				"z": -0.5960568808,
				"element": "C" 
			},
			{
				"x": 0.9901984467,
				"y": -1.7451055085,
				"z": 0.1813447729,
				"element": "C" 
			},
			{
				"x": 2.3468116241,
				"y": -1.8770183406,
				"z": -0.1230640222,
				"element": "N" 
			},
			{
				"x": 2.9875887196,
				"y": -1.3560029669,
				"z": 0.8718526602,
				"element": "C" 
			},
			{
				"x": 2.2053501409,
				"y": -0.8521850937,
				"z": 1.8930363426,
				"element": "O" 
			},
			{
				"x": 0.8771554526,
				"y": -1.0656088373,
				"z": 1.5091709097,
				"element": "C" 
			},
			{
				"x": -0.047019728,
				"y": -0.7359154879,
				"z": 2.2014962731,
				"element": "O" 
			},
			{
				"x": 4.4314765532,
				"y": -1.243251254,
				"z": 1.0243606828,
				"element": "C" 
			},
			{
				"x": 4.9920300606,
				"y": -0.6426520321,
				"z": 2.1637538218,
				"element": "C" 
			},
			{
				"x": 6.3764620794,
				"y": -0.5481445089,
				"z": 2.2852766378,
				"element": "C" 
			},
			{
				"x": 7.2049678891,
				"y": -1.0490518086,
				"z": 1.2783823441,
				"element": "C" 
			},
			{
				"x": 6.6482008453,
				"y": -1.64835336,
				"z": 0.1431714751,
				"element": "C" 
			},
			{
				"x": 5.2677133438,
				"y": -1.7473631149,
				"z": 0.0123111747,
				"element": "C" 
			},
			{
				"x": -5.6903234586,
				"y": -1.6047010727,
				"z": -0.1801811331,
				"element": "N" 
			},
			{
				"x": -6.1931441428,
				"y": -0.5060740868,
				"z": -0.4173248731,
				"element": "O" 
			},
			{
				"x": -6.3264519533,
				"y": -2.6292386932,
				"z": 0.0557046035,
				"element": "O" 
			},
			{
				"x": -4.4089920777,
				"y": -3.8046779031,
				"z": -0.6653697168,
				"element": "H" 
			},
			{
				"x": -4.8578768865,
				"y": 0.7901975003,
				"z": 0.7405599939,
				"element": "H" 
			},
			{
				"x": 0.6096050766,
				"y": 2.4844193493,
				"z": -0.8165992806,
				"element": "H" 
			},
			{
				"x": 2.6849370758,
				"y": 3.7762623777,
				"z": -1.2921264933,
				"element": "H" 
			},
			{
				"x": 2.7790198958,
				"y": 6.2020991742,
				"z": -0.7637959224,
				"element": "H" 
			},
			{
				"x": 0.8090852211,
				"y": 7.3362090166,
				"z": 0.2360900977,
				"element": "H" 
			},
			{
				"x": -1.2585011738,
				"y": 6.0438181797,
				"z": 0.7095288788,
				"element": "H" 
			},
			{
				"x": -1.3009946532,
				"y": -0.043581901,
				"z": 0.0506448993,
				"element": "H" 
			},
			{
				"x": 0.3524006281,
				"y": -2.8468855406,
				"z": -1.4466058097,
				"element": "H" 
			},
			{
				"x": 4.3416536232,
				"y": -0.2582811299,
				"z": 2.9415193334,
				"element": "H" 
			},
			{
				"x": 6.8092911102,
				"y": -0.0848507293,
				"z": 3.1665800149,
				"element": "H" 
			},
			{
				"x": 8.2839685136,
				"y": -0.9746266075,
				"z": 1.3775089618,
				"element": "H" 
			},
			{
				"x": 7.2936382726,
				"y": -2.0389943465,
				"z": -0.6375958086,
				"element": "H" 
			},
			{
				"x": 4.8166918177,
				"y": -2.2104688687,
				"z": -0.8586254804,
				"element": "H" 
			}
		],
		 "valence_orbital": [ 
			{
				"type": "occ",
				"energy": -0.28506,
				"method": "rhf"
			},
			{
				"type": "occ",
				"energy": -0.2799,
				"method": "rhf"
			},
			{
				"type": "occ",
				"energy": -0.27592,
				"method": "rhf"
			},
			{
				"type": "occ",
				"energy": -0.24724,
				"method": "rhf"
			},
			{
				"type": "occ",
				"energy": -0.24347,
				"method": "rhf"
			},
			{
				"type": "unocc",
				"energy": -0.1344,
				"method": "rhf"
			},
			{
				"type": "unocc",
				"energy": -0.10753,
				"method": "rhf"
			},
			{
				"type": "unocc",
				"energy": -0.09584,
				"method": "rhf"
			},
			{
				"type": "unocc",
				"energy": -0.07937,
				"method": "rhf"
			},
			{
				"type": "unocc",
				"energy": -0.04959,
				"method": "rhf"
			}
		],
		"cosmo_sigma_profile": { 
			"-0.025": 0.0,
			"-0.024": 0.0,
			"-0.023": 0.0,
			"-0.022": 0.0,
			"-0.021": 0.0,
			"-0.02": 0.0,
			"-0.019": 0.0,
			"-0.018": 0.0,
			"-0.017": 0.0,
			"-0.016": 0.0,
			"-0.015": 0.0,
			"-0.014": 0.0,
			"-0.013": 0.0,
			"-0.012": 0.0,
			"-0.011": 0.541613965415,
			"-0.01": 1.80799193078,
			"-0.009": 2.87943332423,
			"-0.008": 6.72504183093,
			"-0.007": 20.6843345094,
			"-0.006": 31.814976238,
			"-0.005": 36.916292436,
			"-0.004": 37.8526033836,
			"-0.003": 37.4199200612,
			"-0.002": 35.1529591578,
			"-0.001": 33.9813278082,
			"0.0": 34.3187648075,
			"0.001": 35.4210779656,
			"0.002": 35.3133593475,
			"0.003": 39.1804735908,
			"0.004": 20.7500523432,
			"0.005": 15.0836932337,
			"0.006": 20.6092063253,
			"0.007": 19.4881291605,
			"0.008": 14.8548408442,
			"0.009": 14.9677864403,
			"0.01": 7.28308377374,
			"0.011": 1.8622903953,
			"0.012": 0.311604185826,
			"0.013": 0.0,
			"0.014": 0.0,
			"0.015": 0.0,
			"0.016": 0.0,
			"0.017": 0.0,
			"0.018": 0.0,
			"0.019": 0.0,
			"0.02": 0.0,
			"0.021": 0.0,
			"0.022": 0.0,
			"0.023": 0.0,
			"0.024": 0.0,
			"0.025": 0.0
		}
	}
}
