{
	 "smiles": "O=C1NS(=O)(=O)C2=CC=CC=C12", 
	 "Tm": 502.15, 
	 "num_atms": 17, 
	 "gaussian": { 
		 "optdone": 1, 
		 "sigma_profile": "yes", 
		 "theory": "DFT", 
		 "functional": "B3LYP", 
		 "basiset": "6-31G**", 
		 "properties": { 
			 "R2extent": 3204.7302, 
			 "electric_dipole_moment_norm": 4.04012528024, 
			 "electric_quadrupole_moment_norm": 12.842786193, 
			 "total_energy": -948.300781787, 
			 "HOMO_LUMO_gap": 0.2081, 
			 "cosmo_polarized_energy": -16.19, 
			 "cosmo_cavitation_energy": 23.29, 
			 "cosmo_dispersion_energy": -17.99, 
			 "cosmo_repulsion_energy": 1.38, 
			 "cosmo_total_nonelectrostatic_energy": 6.67, 
			 "SMD_solvation_energy": 3.93 
		},
		"coords": [
			{
				"x": 0.7632433122,
				"y": 3.0071748857,
				"z": -1.153464987,
				"element": "O" 
			},
			{
				"x": 1.1263778415,
				"y": 1.8586692191,
				"z": -1.3060919465,
				"element": "C" 
			},
			{
				"x": 1.414351752,
				"y": 1.2682989754,
				"z": -2.533094961,
				"element": "N" 
			},
			{
				"x": 1.9130359521,
				"y": -0.3748394364,
				"z": -2.5032820043,
				"element": "S" 
			},
			{
				"x": 0.9006080487,
				"y": -1.2111035467,
				"z": -3.1448400421,
				"element": "O" 
			},
			{
				"x": 3.3067028092,
				"y": -0.4771732665,
				"z": -2.9313083834,
				"element": "O" 
			},
			{
				"x": 1.7634814118,
				"y": -0.4022793158,
				"z": -0.7207161784,
				"element": "C" 
			},
			{
				"x": 2.0179298713,
				"y": -1.4797811433,
				"z": 0.1165160093,
				"element": "C" 
			},
			{
				"x": 1.8355788966,
				"y": -1.2794259177,
				"z": 1.4892918191,
				"element": "C" 
			},
			{
				"x": 1.4139561119,
				"y": -0.040600662,
				"z": 1.9880891932,
				"element": "C" 
			},
			{
				"x": 1.16355531,
				"y": 1.0305856576,
				"z": 1.127151945,
				"element": "C" 
			},
			{
				"x": 1.3433001671,
				"y": 0.8368666154,
				"z": -0.2392570227,
				"element": "C" 
			},
			{
				"x": 1.3385927844,
				"y": 1.7731833542,
				"z": -3.4071974383,
				"element": "H" 
			},
			{
				"x": 2.3443302322,
				"y": -2.4375742071,
				"z": -0.2742930613,
				"element": "H" 
			},
			{
				"x": 2.0246334785,
				"y": -2.0987216059,
				"z": 2.1758681049,
				"element": "H" 
			},
			{
				"x": 1.2806257047,
				"y": 0.0868799481,
				"z": 3.0577969005,
				"element": "H" 
			},
			{
				"x": 0.8363963158,
				"y": 1.998040446,
				"z": 1.4932320529,
				"element": "H" 
			}
		],
		 "valence_orbital": [ 
			{
				"type": "occ",
				"energy": -0.33306,
				"method": "rhf"
			},
			{
				"type": "occ",
				"energy": -0.29382,
				"method": "rhf"
			},
			{
				"type": "occ",
				"energy": -0.29129,
				"method": "rhf"
			},
			{
				"type": "occ",
				"energy": -0.2883,
				"method": "rhf"
			},
			{
				"type": "occ",
				"energy": -0.2867,
				"method": "rhf"
			},
			{
				"type": "unocc",
				"energy": -0.0786,
				"method": "rhf"
			},
			{
				"type": "unocc",
				"energy": -0.05234,
				"method": "rhf"
			},
			{
				"type": "unocc",
				"energy": 0.02901,
				"method": "rhf"
			},
			{
				"type": "unocc",
				"energy": 0.03173,
				"method": "rhf"
			},
			{
				"type": "unocc",
				"energy": 0.03429,
				"method": "rhf"
			}
		],
		"cosmo_sigma_profile": { 
			"-0.025": 0.0,
			"-0.024": 0.0,
			"-0.023": 0.0,
			"-0.022": 0.0,
			"-0.021": 0.0,
			"-0.02": 0.0,
			"-0.019": 0.0569411532786,
			"-0.018": 1.37235267444,
			"-0.017": 1.53968145587,
			"-0.016": 1.40982743483,
			"-0.015": 0.551033563009,
			"-0.014": 0.791113068074,
			"-0.013": 1.05296344648,
			"-0.012": 0.887880552851,
			"-0.011": 1.03612564232,
			"-0.01": 1.84266699056,
			"-0.009": 3.36689111987,
			"-0.008": 8.28544497508,
			"-0.007": 10.1278705172,
			"-0.006": 10.5884086799,
			"-0.005": 8.04532494687,
			"-0.004": 8.24193437553,
			"-0.003": 9.79048872847,
			"-0.002": 10.1194591227,
			"-0.001": 12.9983196881,
			"0.0": 16.4280900478,
			"0.001": 14.9680086004,
			"0.002": 6.01082799655,
			"0.003": 3.14339942563,
			"0.004": 3.18287973408,
			"0.005": 3.17706057709,
			"0.006": 3.46226114759,
			"0.007": 5.3831181168,
			"0.008": 4.89263701199,
			"0.009": 12.517049532,
			"0.01": 15.0073616762,
			"0.011": 6.16969524435,
			"0.012": 1.58747765695,
			"0.013": 0.0,
			"0.014": 0.0,
			"0.015": 0.0,
			"0.016": 0.0,
			"0.017": 0.0,
			"0.018": 0.0,
			"0.019": 0.0,
			"0.02": 0.0,
			"0.021": 0.0,
			"0.022": 0.0,
			"0.023": 0.0,
			"0.024": 0.0,
			"0.025": 0.0
		}
	}
}
