{
	 "smiles": "COC1=CC=C(C=C1)C(=O)CCl", 
	 "Tm": 372.15, 
	 "num_atms": 21, 
	 "gaussian": { 
		 "optdone": 1, 
		 "sigma_profile": "yes", 
		 "theory": "DFT", 
		 "functional": "B3LYP", 
		 "basiset": "6-31G**", 
		 "properties": { 
			 "R2extent": 4003.9846, 
			 "electric_dipole_moment_norm": 4.62129938762, 
			 "electric_quadrupole_moment_norm": 8.16959659714, 
			 "total_energy": -959.009546541, 
			 "HOMO_LUMO_gap": 0.17259, 
			 "cosmo_polarized_energy": -10.7, 
			 "cosmo_cavitation_energy": 26.91, 
			 "cosmo_dispersion_energy": -19.79, 
			 "cosmo_repulsion_energy": 1.58, 
			 "cosmo_total_nonelectrostatic_energy": 8.7, 
			 "SMD_solvation_energy": 5.72 
		},
		"coords": [
			{
				"x": -3.2766300514,
				"y": 0.3097562108,
				"z": -0.346620878,
				"element": "C" 
			},
			{
				"x": -2.5402354832,
				"y": 0.6135815795,
				"z": -1.5247422123,
				"element": "O" 
			},
			{
				"x": -1.1865642998,
				"y": 0.6626085113,
				"z": -1.4524743813,
				"element": "C" 
			},
			{
				"x": -0.5237847611,
				"y": 0.9606293494,
				"z": -2.6580200539,
				"element": "C" 
			},
			{
				"x": 0.8557564307,
				"y": 1.0339607011,
				"z": -2.6878882896,
				"element": "C" 
			},
			{
				"x": 1.6201235381,
				"y": 0.8128945124,
				"z": -1.5238343237,
				"element": "C" 
			},
			{
				"x": 0.9478358431,
				"y": 0.5155370813,
				"z": -0.3302468773,
				"element": "C" 
			},
			{
				"x": -0.4430788036,
				"y": 0.4399083118,
				"z": -0.2845552807,
				"element": "C" 
			},
			{
				"x": 3.094375717,
				"y": 0.9338834966,
				"z": -1.6258094267,
				"element": "C" 
			},
			{
				"x": 3.6506243699,
				"y": 1.2482437023,
				"z": -2.6682140375,
				"element": "O" 
			},
			{
				"x": 3.9699182953,
				"y": 0.7074542295,
				"z": -0.3871213191,
				"element": "C" 
			},
			{
				"x": 4.005411096,
				"y": -1.0378986168,
				"z": 0.1196579974,
				"element": "Cl" 
			},
			{
				"x": -3.0206732844,
				"y": -0.6832951809,
				"z": 0.0423581483,
				"element": "H" 
			},
			{
				"x": -4.3271263987,
				"y": 0.3223619116,
				"z": -0.6393259939,
				"element": "H" 
			},
			{
				"x": -3.109868275,
				"y": 1.0595749553,
				"z": 0.4364094216,
				"element": "H" 
			},
			{
				"x": -1.1215258125,
				"y": 1.1281974111,
				"z": -3.5477854738,
				"element": "H" 
			},
			{
				"x": 1.3802764225,
				"y": 1.2656759061,
				"z": -3.6086368974,
				"element": "H" 
			},
			{
				"x": 1.5039289558,
				"y": 0.3229916622,
				"z": 0.5808909422,
				"element": "H" 
			},
			{
				"x": -0.9325959114,
				"y": 0.2056380023,
				"z": 0.6527841249,
				"element": "H" 
			},
			{
				"x": 3.6253274062,
				"y": 1.2808738242,
				"z": 0.4755503108,
				"element": "H" 
			},
			{
				"x": 4.9899050065,
				"y": 0.9856224389,
				"z": -0.6446755001,
				"element": "H" 
			}
		],
		 "valence_orbital": [ 
			{
				"type": "occ",
				"energy": -0.3133,
				"method": "rhf"
			},
			{
				"type": "occ",
				"energy": -0.30246,
				"method": "rhf"
			},
			{
				"type": "occ",
				"energy": -0.2659,
				"method": "rhf"
			},
			{
				"type": "occ",
				"energy": -0.25478,
				"method": "rhf"
			},
			{
				"type": "occ",
				"energy": -0.23577,
				"method": "rhf"
			},
			{
				"type": "unocc",
				"energy": -0.06318,
				"method": "rhf"
			},
			{
				"type": "unocc",
				"energy": -0.01406,
				"method": "rhf"
			},
			{
				"type": "unocc",
				"energy": 0.00953,
				"method": "rhf"
			},
			{
				"type": "unocc",
				"energy": 0.05855,
				"method": "rhf"
			},
			{
				"type": "unocc",
				"energy": 0.084,
				"method": "rhf"
			}
		],
		"cosmo_sigma_profile": { 
			"-0.025": 0.0,
			"-0.024": 0.0,
			"-0.023": 0.0,
			"-0.022": 0.0,
			"-0.021": 0.0,
			"-0.02": 0.0,
			"-0.019": 0.0,
			"-0.018": 0.0,
			"-0.017": 0.0,
			"-0.016": 0.0,
			"-0.015": 0.0,
			"-0.014": 0.0,
			"-0.013": 0.0,
			"-0.012": 0.0,
			"-0.011": 0.0,
			"-0.01": 0.00639171446723,
			"-0.009": 2.40724845448,
			"-0.008": 4.61611030748,
			"-0.007": 8.56241503515,
			"-0.006": 16.9154499786,
			"-0.005": 18.5590162437,
			"-0.004": 16.8031659398,
			"-0.003": 13.2355372187,
			"-0.002": 8.07691012382,
			"-0.001": 10.5263818969,
			"0.0": 13.3210996352,
			"0.001": 13.5792889183,
			"0.002": 17.2409482571,
			"0.003": 21.6538644097,
			"0.004": 15.5068491811,
			"0.005": 11.396520431,
			"0.006": 6.31049799637,
			"0.007": 2.67401789735,
			"0.008": 2.78456061195,
			"0.009": 3.22050297471,
			"0.01": 2.9153586344,
			"0.011": 3.95058914731,
			"0.012": 2.36973312867,
			"0.013": 0.237311556627,
			"0.014": 0.0,
			"0.015": 0.0,
			"0.016": 0.0,
			"0.017": 0.0,
			"0.018": 0.0,
			"0.019": 0.0,
			"0.02": 0.0,
			"0.021": 0.0,
			"0.022": 0.0,
			"0.023": 0.0,
			"0.024": 0.0,
			"0.025": 0.0
		}
	}
}
