{
	 "smiles": "CC1=C(SC(NC(=O)C2CCCC2)=C1)C(O)=O", 
	 "Tm": 448.15, 
	 "num_atms": 32, 
	 "gaussian": { 
		 "optdone": 1, 
		 "sigma_profile": "yes", 
		 "theory": "DFT", 
		 "functional": "B3LYP", 
		 "basiset": "6-31G**", 
		 "properties": { 
			 "R2extent": 8035.4433, 
			 "electric_dipole_moment_norm": 6.60137336696, 
			 "electric_quadrupole_moment_norm": 31.732214787, 
			 "total_energy": -1144.95144271, 
			 "HOMO_LUMO_gap": 0.16888, 
			 "cosmo_polarized_energy": -20.32, 
			 "cosmo_cavitation_energy": 36.34, 
			 "cosmo_dispersion_energy": -27.01, 
			 "cosmo_repulsion_energy": 2.07, 
			 "cosmo_total_nonelectrostatic_energy": 11.4, 
			 "SMD_solvation_energy": 6.73 
		},
		"coords": [
			{
				"x": 1.7295557311,
				"y": -3.0570934285,
				"z": -3.5470383963,
				"element": "C" 
			},
			{
				"x": 1.9207439945,
				"y": -1.7215281065,
				"z": -2.882814859,
				"element": "C" 
			},
			{
				"x": 2.9158625489,
				"y": -0.8150399028,
				"z": -3.1995329969,
				"element": "C" 
			},
			{
				"x": 2.7766398468,
				"y": 0.644767272,
				"z": -2.2174921121,
				"element": "S" 
			},
			{
				"x": 1.3984781842,
				"y": -0.0142663752,
				"z": -1.369392717,
				"element": "C" 
			},
			{
				"x": 0.7988845183,
				"y": 0.7597113292,
				"z": -0.3796727252,
				"element": "N" 
			},
			{
				"x": -0.3335753893,
				"y": 0.4174938981,
				"z": 0.3483929523,
				"element": "C" 
			},
			{
				"x": -0.9135847711,
				"y": -0.6461820908,
				"z": 0.1936124443,
				"element": "O" 
			},
			{
				"x": -0.8123940647,
				"y": 1.4988417371,
				"z": 1.3106558459,
				"element": "C" 
			},
			{
				"x": -1.32145212,
				"y": 0.8905310845,
				"z": 2.6501864621,
				"element": "C" 
			},
			{
				"x": -2.6733987838,
				"y": 1.5728412438,
				"z": 2.9287127084,
				"element": "C" 
			},
			{
				"x": -3.2567589026,
				"y": 1.7770798325,
				"z": 1.5238085204,
				"element": "C" 
			},
			{
				"x": -2.0470132866,
				"y": 2.258304547,
				"z": 0.7042689113,
				"element": "C" 
			},
			{
				"x": 1.0647412991,
				"y": -1.2625002888,
				"z": -1.8375015104,
				"element": "C" 
			},
			{
				"x": 3.9773359379,
				"y": -0.9784356097,
				"z": -4.2038589679,
				"element": "C" 
			},
			{
				"x": 5.035685964,
				"y": -0.1162909521,
				"z": -4.1359039486,
				"element": "O" 
			},
			{
				"x": 3.9522399787,
				"y": -1.8218423677,
				"z": -5.0742195996,
				"element": "O" 
			},
			{
				"x": 1.1610906989,
				"y": -3.7281138973,
				"z": -2.8975949737,
				"element": "H" 
			},
			{
				"x": 2.6840258793,
				"y": -3.5153029286,
				"z": -3.8090106652,
				"element": "H" 
			},
			{
				"x": 1.1752520144,
				"y": -2.940418304,
				"z": -4.4851255662,
				"element": "H" 
			},
			{
				"x": 1.2191766139,
				"y": 1.655212014,
				"z": -0.1773866487,
				"element": "H" 
			},
			{
				"x": 0.0011089884,
				"y": 2.2102243298,
				"z": 1.4947584948,
				"element": "H" 
			},
			{
				"x": -1.4754803118,
				"y": -0.1826334377,
				"z": 2.5042404052,
				"element": "H" 
			},
			{
				"x": -0.597077958,
				"y": 1.0191979369,
				"z": 3.4598458773,
				"element": "H" 
			},
			{
				"x": -3.3162071895,
				"y": 0.9759080317,
				"z": 3.5830452207,
				"element": "H" 
			},
			{
				"x": -2.5218383722,
				"y": 2.5447862753,
				"z": 3.4162372433,
				"element": "H" 
			},
			{
				"x": -4.0919630423,
				"y": 2.4839332058,
				"z": 1.4937910196,
				"element": "H" 
			},
			{
				"x": -3.6141736768,
				"y": 0.8191089343,
				"z": 1.1288849762,
				"element": "H" 
			},
			{
				"x": -2.1626676871,
				"y": 2.0835902469,
				"z": -0.3695227611,
				"element": "H" 
			},
			{
				"x": -1.9034847754,
				"y": 3.3356299907,
				"z": 0.8430998534,
				"element": "H" 
			},
			{
				"x": 0.2326894578,
				"y": -1.8234792699,
				"z": -1.4386684299,
				"element": "H" 
			},
			{
				"x": 5.0496586753,
				"y": 0.3529650498,
				"z": -3.2893040573,
				"element": "H" 
			}
		],
		 "valence_orbital": [ 
			{
				"type": "occ",
				"energy": -0.30834,
				"method": "rhf"
			},
			{
				"type": "occ",
				"energy": -0.27125,
				"method": "rhf"
			},
			{
				"type": "occ",
				"energy": -0.26826,
				"method": "rhf"
			},
			{
				"type": "occ",
				"energy": -0.26314,
				"method": "rhf"
			},
			{
				"type": "occ",
				"energy": -0.22441,
				"method": "rhf"
			},
			{
				"type": "unocc",
				"energy": -0.05553,
				"method": "rhf"
			},
			{
				"type": "unocc",
				"energy": -0.01892,
				"method": "rhf"
			},
			{
				"type": "unocc",
				"energy": 0.00208,
				"method": "rhf"
			},
			{
				"type": "unocc",
				"energy": 0.04576,
				"method": "rhf"
			},
			{
				"type": "unocc",
				"energy": 0.05473,
				"method": "rhf"
			}
		],
		"cosmo_sigma_profile": { 
			"-0.025": 0.0,
			"-0.024": 0.0,
			"-0.023": 0.0,
			"-0.022": 0.0,
			"-0.021": 0.0,
			"-0.02": 0.0,
			"-0.019": 0.0,
			"-0.018": 0.14549361387,
			"-0.017": 1.17777116663,
			"-0.016": 1.93787920692,
			"-0.015": 2.20979731259,
			"-0.014": 2.24926363054,
			"-0.013": 2.04646129921,
			"-0.012": 2.39015008656,
			"-0.011": 2.56329950266,
			"-0.01": 2.01858766995,
			"-0.009": 1.96126847082,
			"-0.008": 2.44817014302,
			"-0.007": 2.31356480358,
			"-0.006": 3.55085634391,
			"-0.005": 8.75046798346,
			"-0.004": 13.4146058792,
			"-0.003": 25.8518095599,
			"-0.002": 30.8263448032,
			"-0.001": 35.5768107589,
			"0.0": 35.1387699034,
			"0.001": 27.2562282629,
			"0.002": 17.063772797,
			"0.003": 14.2624555193,
			"0.004": 6.09184674553,
			"0.005": 5.21370656974,
			"0.006": 4.34179255185,
			"0.007": 4.93578788854,
			"0.008": 3.74124741915,
			"0.009": 5.07109002861,
			"0.01": 5.40091302526,
			"0.011": 7.03818169827,
			"0.012": 7.15537244493,
			"0.013": 3.97965296892,
			"0.014": 0.329586952543,
			"0.015": 0.0,
			"0.016": 0.0,
			"0.017": 0.0,
			"0.018": 0.0,
			"0.019": 0.0,
			"0.02": 0.0,
			"0.021": 0.0,
			"0.022": 0.0,
			"0.023": 0.0,
			"0.024": 0.0,
			"0.025": 0.0
		}
	}
}
