{
	 "smiles": "C(C(=NNC1=CC=CC=C1)C(CC1=CC=CC=C1)=N/NC1=CC=CC=C1)C1=CC=CC=C1", 
	 "Tm": 454.15, 
	 "num_atms": 58, 
	 "gaussian": { 
		 "optdone": 1, 
		 "sigma_profile": "yes", 
		 "theory": "DFT", 
		 "functional": "B3LYP", 
		 "basiset": "6-31G**", 
		 "properties": { 
			 "R2extent": 16187.5623, 
			 "electric_dipole_moment_norm": 0.274565930152, 
			 "electric_quadrupole_moment_norm": 5.15271460591, 
			 "total_energy": -1301.59472313, 
			 "HOMO_LUMO_gap": 0.1638, 
			 "cosmo_polarized_energy": -16.75, 
			 "cosmo_cavitation_energy": 62.54, 
			 "cosmo_dispersion_energy": -39.51, 
			 "cosmo_repulsion_energy": 3.02, 
			 "cosmo_total_nonelectrostatic_energy": 26.04, 
			 "SMD_solvation_energy": 8.66 
		},
		"coords": [
			{
				"x": 1.5081320829,
				"y": 0.4606959521,
				"z": 0.5738079553,
				"element": "C" 
			},
			{
				"x": 0.0874660366,
				"y": 0.0504902831,
				"z": 0.9249754023,
				"element": "C" 
			},
			{
				"x": -0.1481022539,
				"y": -0.2605411567,
				"z": 2.1586952936,
				"element": "N" 
			},
			{
				"x": -1.3939414779,
				"y": -0.620648813,
				"z": 2.5278637952,
				"element": "N" 
			},
			{
				"x": -1.6578843717,
				"y": -1.0762433942,
				"z": 3.824176471,
				"element": "C" 
			},
			{
				"x": -0.689748261,
				"y": -1.0264228677,
				"z": 4.8385790519,
				"element": "C" 
			},
			{
				"x": -1.0113290119,
				"y": -1.475358937,
				"z": 6.1177674996,
				"element": "C" 
			},
			{
				"x": -2.2834088039,
				"y": -1.9737117433,
				"z": 6.4094895963,
				"element": "C" 
			},
			{
				"x": -3.2426147322,
				"y": -2.019943747,
				"z": 5.3957446505,
				"element": "C" 
			},
			{
				"x": -2.9378788135,
				"y": -1.5761362963,
				"z": 4.11118437,
				"element": "C" 
			},
			{
				"x": -0.9728672928,
				"y": 0.0129699723,
				"z": -0.1403789105,
				"element": "C" 
			},
			{
				"x": -1.9723513181,
				"y": 1.1514766754,
				"z": -0.262763316,
				"element": "C" 
			},
			{
				"x": -1.5126609769,
				"y": 2.3092442299,
				"z": -1.1411037072,
				"element": "C" 
			},
			{
				"x": -1.1660752066,
				"y": 2.086447555,
				"z": -2.4812192281,
				"element": "C" 
			},
			{
				"x": -0.7907901921,
				"y": 3.1480988804,
				"z": -3.3035494983,
				"element": "C" 
			},
			{
				"x": -0.7542519474,
				"y": 4.4501976991,
				"z": -2.7976156134,
				"element": "C" 
			},
			{
				"x": -1.0926258744,
				"y": 4.6802901835,
				"z": -1.4642272153,
				"element": "C" 
			},
			{
				"x": -1.468989441,
				"y": 3.6153320011,
				"z": -0.6428554076,
				"element": "C" 
			},
			{
				"x": -1.0886971897,
				"y": -0.9654636609,
				"z": -0.9791410344,
				"element": "N" 
			},
			{
				"x": -0.221748857,
				"y": -1.9965521745,
				"z": -0.9229321836,
				"element": "N" 
			},
			{
				"x": -0.3892369796,
				"y": -3.1237131642,
				"z": -1.734810964,
				"element": "C" 
			},
			{
				"x": -1.3582263377,
				"y": -3.1692702281,
				"z": -2.7486006791,
				"element": "C" 
			},
			{
				"x": -1.4698393928,
				"y": -4.3094970006,
				"z": -3.5415076624,
				"element": "C" 
			},
			{
				"x": -0.6316153695,
				"y": -5.409834978,
				"z": -3.345879924,
				"element": "C" 
			},
			{
				"x": 0.3310838715,
				"y": -5.3579403767,
				"z": -2.3357258017,
				"element": "C" 
			},
			{
				"x": 0.4558524883,
				"y": -4.2263712989,
				"z": -1.5332813225,
				"element": "C" 
			},
			{
				"x": 1.7674215441,
				"y": 1.9616464641,
				"z": 0.6289128057,
				"element": "C" 
			},
			{
				"x": 1.5506235842,
				"y": 2.6735331124,
				"z": 1.8171551628,
				"element": "C" 
			},
			{
				"x": 1.8303082654,
				"y": 4.037650642,
				"z": 1.8887971658,
				"element": "C" 
			},
			{
				"x": 2.3296856838,
				"y": 4.712297062,
				"z": 0.7715464232,
				"element": "C" 
			},
			{
				"x": 2.543625889,
				"y": 4.0129765628,
				"z": -0.4161037775,
				"element": "C" 
			},
			{
				"x": 2.263519984,
				"y": 2.646502462,
				"z": -0.4850200131,
				"element": "C" 
			},
			{
				"x": 1.7540173156,
				"y": 0.0917570458,
				"z": -0.4281865944,
				"element": "H" 
			},
			{
				"x": 2.1768355732,
				"y": -0.0428786091,
				"z": 1.2817859058,
				"element": "H" 
			},
			{
				"x": -2.0903866357,
				"y": -0.8012615793,
				"z": 1.8098283507,
				"element": "H" 
			},
			{
				"x": 0.2963633085,
				"y": -0.6417967243,
				"z": 4.6097654395,
				"element": "H" 
			},
			{
				"x": -0.2540265008,
				"y": -1.4341566863,
				"z": 6.8959426899,
				"element": "H" 
			},
			{
				"x": -2.5231510856,
				"y": -2.3204553339,
				"z": 7.4097373961,
				"element": "H" 
			},
			{
				"x": -4.2371989275,
				"y": -2.4053028008,
				"z": 5.6018844589,
				"element": "H" 
			},
			{
				"x": -3.6906265607,
				"y": -1.6150007648,
				"z": 3.3270261937,
				"element": "H" 
			},
			{
				"x": -2.2097046645,
				"y": 1.5330923768,
				"z": 0.7364840157,
				"element": "H" 
			},
			{
				"x": -2.8948344972,
				"y": 0.731689554,
				"z": -0.6809384492,
				"element": "H" 
			},
			{
				"x": -1.1938846983,
				"y": 1.0742268148,
				"z": -2.8753271499,
				"element": "H" 
			},
			{
				"x": -0.5297805512,
				"y": 2.9598297796,
				"z": -4.3414859765,
				"element": "H" 
			},
			{
				"x": -0.4634733742,
				"y": 5.277621993,
				"z": -3.4387410997,
				"element": "H" 
			},
			{
				"x": -1.0611480193,
				"y": 5.6876257405,
				"z": -1.0589308044,
				"element": "H" 
			},
			{
				"x": -1.7270842986,
				"y": 3.8014542743,
				"z": 0.39646359,
				"element": "H" 
			},
			{
				"x": 0.4055464845,
				"y": -2.0733515337,
				"z": -0.1267956408,
				"element": "H" 
			},
			{
				"x": -2.0084921143,
				"y": -2.3161540305,
				"z": -2.8970950488,
				"element": "H" 
			},
			{
				"x": -2.2245583961,
				"y": -4.3354738702,
				"z": -4.3228440015,
				"element": "H" 
			},
			{
				"x": -0.727122872,
				"y": -6.292906762,
				"z": -3.9697911967,
				"element": "H" 
			},
			{
				"x": 0.991618361,
				"y": -6.2036856853,
				"z": -2.1666045484,
				"element": "H" 
			},
			{
				"x": 1.2085748775,
				"y": -4.1934595542,
				"z": -0.7488289882,
				"element": "H" 
			},
			{
				"x": 1.1619185962,
				"y": 2.1497563953,
				"z": 2.6862287513,
				"element": "H" 
			},
			{
				"x": 1.6616787068,
				"y": 4.5744212226,
				"z": 2.8184855071,
				"element": "H" 
			},
			{
				"x": 2.5491888134,
				"y": 5.7747856438,
				"z": 0.8277611379,
				"element": "H" 
			},
			{
				"x": 2.9252211235,
				"y": 4.5290832864,
				"z": -1.2924521931,
				"element": "H" 
			},
			{
				"x": 2.4284747076,
				"y": 2.1088399075,
				"z": -1.4151511296,
				"element": "H" 
			}
		],
		 "valence_orbital": [ 
			{
				"type": "occ",
				"energy": -0.24427,
				"method": "rhf"
			},
			{
				"type": "occ",
				"energy": -0.24089,
				"method": "rhf"
			},
			{
				"type": "occ",
				"energy": -0.23537,
				"method": "rhf"
			},
			{
				"type": "occ",
				"energy": -0.20054,
				"method": "rhf"
			},
			{
				"type": "occ",
				"energy": -0.19615,
				"method": "rhf"
			},
			{
				"type": "unocc",
				"energy": -0.03235,
				"method": "rhf"
			},
			{
				"type": "unocc",
				"energy": -0.01665,
				"method": "rhf"
			},
			{
				"type": "unocc",
				"energy": 0.0012,
				"method": "rhf"
			},
			{
				"type": "unocc",
				"energy": 0.00161,
				"method": "rhf"
			},
			{
				"type": "unocc",
				"energy": 0.00243,
				"method": "rhf"
			}
		],
		"cosmo_sigma_profile": { 
			"-0.025": 0.0,
			"-0.024": 0.0,
			"-0.023": 0.0,
			"-0.022": 0.0,
			"-0.021": 0.0,
			"-0.02": 0.0,
			"-0.019": 0.0,
			"-0.018": 0.0,
			"-0.017": 0.0,
			"-0.016": 0.0,
			"-0.015": 0.0,
			"-0.014": 0.0,
			"-0.013": 1.06148618227,
			"-0.012": 2.21177225167,
			"-0.011": 2.18925852718,
			"-0.01": 2.54405865795,
			"-0.009": 3.11012148529,
			"-0.008": 2.66102211676,
			"-0.007": 4.87004976197,
			"-0.006": 12.0566973906,
			"-0.005": 39.3725941691,
			"-0.004": 45.5303493221,
			"-0.003": 50.022606564,
			"-0.002": 37.1736132063,
			"-0.001": 34.8660601227,
			"0.0": 29.5298566677,
			"0.001": 27.768870219,
			"0.002": 34.9077699205,
			"0.003": 38.9909567886,
			"0.004": 43.7226221032,
			"0.005": 36.8277557256,
			"0.006": 33.2896594333,
			"0.007": 12.8784139353,
			"0.008": 2.75588466276,
			"0.009": 0.791088617549,
			"0.01": 0.0178011114159,
			"0.011": 0.0,
			"0.012": 0.0,
			"0.013": 0.0,
			"0.014": 0.0,
			"0.015": 0.0,
			"0.016": 0.0,
			"0.017": 0.0,
			"0.018": 0.0,
			"0.019": 0.0,
			"0.02": 0.0,
			"0.021": 0.0,
			"0.022": 0.0,
			"0.023": 0.0,
			"0.024": 0.0,
			"0.025": 0.0
		}
	}
}
