{
	 "smiles": "OC(=O)CCC1=CSC=C1", 
	 "Tm": 329.15, 
	 "num_atms": 18, 
	 "gaussian": { 
		 "optdone": 1, 
		 "sigma_profile": "yes", 
		 "theory": "DFT", 
		 "functional": "B3LYP", 
		 "basiset": "6-31G**", 
		 "properties": { 
			 "R2extent": 2087.1175, 
			 "electric_dipole_moment_norm": 4.46383732903, 
			 "electric_quadrupole_moment_norm": 17.389672421, 
			 "total_energy": -820.193349009, 
			 "HOMO_LUMO_gap": 0.22087, 
			 "cosmo_polarized_energy": -16.52, 
			 "cosmo_cavitation_energy": 23.71, 
			 "cosmo_dispersion_energy": -17.4, 
			 "cosmo_repulsion_energy": 1.38, 
			 "cosmo_total_nonelectrostatic_energy": 7.69, 
			 "SMD_solvation_energy": 5.06 
		},
		"coords": [
			{
				"x": 3.5227546598,
				"y": 0.9603778549,
				"z": 0.0141466158,
				"element": "O" 
			},
			{
				"x": 2.8769226398,
				"y": 0.117891629,
				"z": -0.8454473104,
				"element": "C" 
			},
			{
				"x": 3.2633230271,
				"y": -1.0140860713,
				"z": -0.9774468268,
				"element": "O" 
			},
			{
				"x": 1.6974711885,
				"y": 0.7202314144,
				"z": -1.6011188649,
				"element": "C" 
			},
			{
				"x": 0.6367710276,
				"y": 1.4000850232,
				"z": -0.7023946086,
				"element": "C" 
			},
			{
				"x": -0.0242149157,
				"y": 0.458146511,
				"z": 0.2754224436,
				"element": "C" 
			},
			{
				"x": 0.4198033941,
				"y": 0.2237689113,
				"z": 1.5521063754,
				"element": "C" 
			},
			{
				"x": -0.5517454341,
				"y": -0.949216391,
				"z": 2.376970026,
				"element": "S" 
			},
			{
				"x": -1.579305935,
				"y": -1.1351167306,
				"z": 0.9935472713,
				"element": "C" 
			},
			{
				"x": -1.1795173404,
				"y": -0.332954234,
				"z": -0.0375206104,
				"element": "C" 
			},
			{
				"x": 3.1256235015,
				"y": 1.8418979898,
				"z": -0.0191844854,
				"element": "H" 
			},
			{
				"x": 1.2480187499,
				"y": -0.0926545025,
				"z": -2.174467717,
				"element": "H" 
			},
			{
				"x": 2.0897579548,
				"y": 1.4541401408,
				"z": -2.3190109368,
				"element": "H" 
			},
			{
				"x": 1.0826686405,
				"y": 2.2437445648,
				"z": -0.1588287517,
				"element": "H" 
			},
			{
				"x": -0.1226027654,
				"y": 1.8445133737,
				"z": -1.3553033314,
				"element": "H" 
			},
			{
				"x": 1.2757867257,
				"y": 0.6607892633,
				"z": 2.0481318494,
				"element": "H" 
			},
			{
				"x": -2.4164022665,
				"y": -1.8183213246,
				"z": 1.0263854096,
				"element": "H" 
			},
			{
				"x": -1.6896128522,
				"y": -0.2943374223,
				"z": -0.9943865476,
				"element": "H" 
			}
		],
		 "valence_orbital": [ 
			{
				"type": "occ",
				"energy": -0.34209,
				"method": "rhf"
			},
			{
				"type": "occ",
				"energy": -0.31429,
				"method": "rhf"
			},
			{
				"type": "occ",
				"energy": -0.26793,
				"method": "rhf"
			},
			{
				"type": "occ",
				"energy": -0.25036,
				"method": "rhf"
			},
			{
				"type": "occ",
				"energy": -0.23733,
				"method": "rhf"
			},
			{
				"type": "unocc",
				"energy": -0.01646,
				"method": "rhf"
			},
			{
				"type": "unocc",
				"energy": 0.01012,
				"method": "rhf"
			},
			{
				"type": "unocc",
				"energy": 0.02932,
				"method": "rhf"
			},
			{
				"type": "unocc",
				"energy": 0.03809,
				"method": "rhf"
			},
			{
				"type": "unocc",
				"energy": 0.05967,
				"method": "rhf"
			}
		],
		"cosmo_sigma_profile": { 
			"-0.025": 0.0,
			"-0.024": 0.0,
			"-0.023": 0.0,
			"-0.022": 0.0,
			"-0.021": 0.0,
			"-0.02": 0.0,
			"-0.019": 0.208075051314,
			"-0.018": 0.718065007191,
			"-0.017": 0.929439117299,
			"-0.016": 1.305690989,
			"-0.015": 0.824519155119,
			"-0.014": 0.774536235355,
			"-0.013": 0.990938052517,
			"-0.012": 1.6223299002,
			"-0.011": 1.49485767692,
			"-0.01": 0.982341679637,
			"-0.009": 1.32616433809,
			"-0.008": 4.59109078178,
			"-0.007": 8.10608485479,
			"-0.006": 9.73492728969,
			"-0.005": 14.2430141673,
			"-0.004": 14.6679616895,
			"-0.003": 12.5594870788,
			"-0.002": 10.9912762271,
			"-0.001": 7.05493149147,
			"0.0": 8.60364144337,
			"0.001": 8.13795127701,
			"0.002": 9.78443543756,
			"0.003": 11.4954589469,
			"0.004": 14.6004985294,
			"0.005": 12.8040108859,
			"0.006": 5.66575382399,
			"0.007": 1.6821887957,
			"0.008": 2.23813542494,
			"0.009": 3.46154882599,
			"0.01": 4.11294188326,
			"0.011": 5.80090751233,
			"0.012": 6.08160266412,
			"0.013": 2.68738462519,
			"0.014": 0.0825736422093,
			"0.015": 0.0,
			"0.016": 0.0,
			"0.017": 0.0,
			"0.018": 0.0,
			"0.019": 0.0,
			"0.02": 0.0,
			"0.021": 0.0,
			"0.022": 0.0,
			"0.023": 0.0,
			"0.024": 0.0,
			"0.025": 0.0
		}
	}
}
