{
	 "smiles": "OC(=O)C1=CC(=C(Cl)C=C1)S(=O)(=O)N1CCCC1", 
	 "Tm": 513.15, 
	 "num_atms": 30, 
	 "gaussian": { 
		 "optdone": 1, 
		 "sigma_profile": "yes", 
		 "theory": "DFT", 
		 "functional": "B3LYP", 
		 "basiset": "6-31G**", 
		 "properties": { 
			 "R2extent": 5918.2936, 
			 "electric_dipole_moment_norm": 5.13831232021, 
			 "electric_quadrupole_moment_norm": 20.3728965994, 
			 "total_energy": -1640.36877124, 
			 "HOMO_LUMO_gap": 0.17824, 
			 "cosmo_polarized_energy": -17.57, 
			 "cosmo_cavitation_energy": 36.12, 
			 "cosmo_dispersion_energy": -26.18, 
			 "cosmo_repulsion_energy": 1.98, 
			 "cosmo_total_nonelectrostatic_energy": 11.92, 
			 "SMD_solvation_energy": 5.72 
		},
		"coords": [
			{
				"x": 1.4002091995,
				"y": -2.7598393235,
				"z": -4.4775951701,
				"element": "O" 
			},
			{
				"x": 0.5213515091,
				"y": -1.9931263015,
				"z": -3.7860830019,
				"element": "C" 
			},
			{
				"x": -0.4212362856,
				"y": -1.4424395486,
				"z": -4.3158723491,
				"element": "O" 
			},
			{
				"x": 0.8475657811,
				"y": -1.9103608597,
				"z": -2.3362549639,
				"element": "C" 
			},
			{
				"x": -0.0010508291,
				"y": -1.1599593928,
				"z": -1.5161338942,
				"element": "C" 
			},
			{
				"x": 0.2516849558,
				"y": -1.0370649192,
				"z": -0.1506500185,
				"element": "C" 
			},
			{
				"x": 1.3717557401,
				"y": -1.6836083474,
				"z": 0.3992375346,
				"element": "C" 
			},
			{
				"x": 1.7711480751,
				"y": -1.5855923374,
				"z": 2.0955847895,
				"element": "Cl" 
			},
			{
				"x": 2.2206186826,
				"y": -2.4348819196,
				"z": -0.4172771489,
				"element": "C" 
			},
			{
				"x": 1.9607698905,
				"y": -2.5499109338,
				"z": -1.7792195901,
				"element": "C" 
			},
			{
				"x": -0.9475971114,
				"y": -0.0807893801,
				"z": 0.8182342209,
				"element": "S" 
			},
			{
				"x": -1.9017853395,
				"y": 0.4470652158,
				"z": -0.1651848619,
				"element": "O" 
			},
			{
				"x": -1.4098342244,
				"y": -0.8961414304,
				"z": 1.941498675,
				"element": "O" 
			},
			{
				"x": -0.0274407162,
				"y": 1.1530328346,
				"z": 1.453636707,
				"element": "N" 
			},
			{
				"x": 0.220969029,
				"y": 2.377039289,
				"z": 0.647640466,
				"element": "C" 
			},
			{
				"x": 0.1645042251,
				"y": 3.5109176149,
				"z": 1.6849167959,
				"element": "C" 
			},
			{
				"x": 0.5648356573,
				"y": 2.8184900389,
				"z": 2.9978338137,
				"element": "C" 
			},
			{
				"x": -0.1331493255,
				"y": 1.4574335288,
				"z": 2.9043314577,
				"element": "C" 
			},
			{
				"x": 1.0967167681,
				"y": -2.74706639,
				"z": -5.4002529921,
				"element": "H" 
			},
			{
				"x": -0.866611147,
				"y": -0.6685844835,
				"z": -1.9452067019,
				"element": "H" 
			},
			{
				"x": 3.0801010368,
				"y": -2.9256961054,
				"z": 0.0251685611,
				"element": "H" 
			},
			{
				"x": 2.6207760128,
				"y": -3.1340966718,
				"z": -2.4098879979,
				"element": "H" 
			},
			{
				"x": -0.5308929238,
				"y": 2.484604153,
				"z": -0.1373654607,
				"element": "H" 
			},
			{
				"x": 1.2097558945,
				"y": 2.3098612679,
				"z": 0.1776734109,
				"element": "H" 
			},
			{
				"x": 0.8165241431,
				"y": 4.3473321374,
				"z": 1.4192694141,
				"element": "H" 
			},
			{
				"x": -0.8593596624,
				"y": 3.8931254036,
				"z": 1.7613098248,
				"element": "H" 
			},
			{
				"x": 0.2593186897,
				"y": 3.3728935104,
				"z": 3.8893578536,
				"element": "H" 
			},
			{
				"x": 1.6510625436,
				"y": 2.6804093194,
				"z": 3.0394496729,
				"element": "H" 
			},
			{
				"x": 0.3527808821,
				"y": 0.675727479,
				"z": 3.4905769803,
				"element": "H" 
			},
			{
				"x": -1.179391151,
				"y": 1.525726552,
				"z": 3.2245639734,
				"element": "H" 
			}
		],
		 "valence_orbital": [ 
			{
				"type": "occ",
				"energy": -0.29894,
				"method": "rhf"
			},
			{
				"type": "occ",
				"energy": -0.28973,
				"method": "rhf"
			},
			{
				"type": "occ",
				"energy": -0.28596,
				"method": "rhf"
			},
			{
				"type": "occ",
				"energy": -0.26977,
				"method": "rhf"
			},
			{
				"type": "occ",
				"energy": -0.24885,
				"method": "rhf"
			},
			{
				"type": "unocc",
				"energy": -0.07061,
				"method": "rhf"
			},
			{
				"type": "unocc",
				"energy": -0.04329,
				"method": "rhf"
			},
			{
				"type": "unocc",
				"energy": 0.00915,
				"method": "rhf"
			},
			{
				"type": "unocc",
				"energy": 0.02625,
				"method": "rhf"
			},
			{
				"type": "unocc",
				"energy": 0.06535,
				"method": "rhf"
			}
		],
		"cosmo_sigma_profile": { 
			"-0.025": 0.0,
			"-0.024": 0.0,
			"-0.023": 0.0,
			"-0.022": 0.0,
			"-0.021": 0.0,
			"-0.02": 0.0,
			"-0.019": 0.347107157991,
			"-0.018": 1.01892744284,
			"-0.017": 1.08865206826,
			"-0.016": 0.476915474744,
			"-0.015": 0.414451239258,
			"-0.014": 0.361129850143,
			"-0.013": 1.24321148895,
			"-0.012": 1.00933878167,
			"-0.011": 0.503836796029,
			"-0.01": 0.891865559039,
			"-0.009": 1.41327293392,
			"-0.008": 4.61735874948,
			"-0.007": 4.08907602766,
			"-0.006": 4.03579754399,
			"-0.005": 8.91083161706,
			"-0.004": 28.0681021949,
			"-0.003": 36.5400366747,
			"-0.002": 34.6944811832,
			"-0.001": 34.8923782895,
			"0.0": 25.9424884706,
			"0.001": 12.5994688987,
			"0.002": 11.6178134604,
			"0.003": 10.9793326966,
			"0.004": 8.76391150436,
			"0.005": 6.59618305134,
			"0.006": 5.91448752036,
			"0.007": 4.91311726327,
			"0.008": 5.15933597429,
			"0.009": 6.42980160542,
			"0.01": 9.99045589151,
			"0.011": 12.4410414446,
			"0.012": 2.97199013219,
			"0.013": 0.0,
			"0.014": 0.0,
			"0.015": 0.0,
			"0.016": 0.0,
			"0.017": 0.0,
			"0.018": 0.0,
			"0.019": 0.0,
			"0.02": 0.0,
			"0.021": 0.0,
			"0.022": 0.0,
			"0.023": 0.0,
			"0.024": 0.0,
			"0.0": 0.0
		}
	}
}
