{
	 "smiles": "CC(Cl)C(=O)C1=C(C)NC2=C1C=CC=C2", 
	 "Tm": 407.15, 
	 "num_atms": 27, 
	 "gaussian": { 
		 "optdone": 1, 
		 "sigma_profile": "yes", 
		 "theory": "DFT", 
		 "functional": "B3LYP", 
		 "basiset": "6-31G**", 
		 "properties": { 
			 "R2extent": 3751.2536, 
			 "electric_dipole_moment_norm": 4.27123720367, 
			 "electric_quadrupole_moment_norm": 15.3758967277, 
			 "total_energy": -1054.69722561, 
			 "HOMO_LUMO_gap": 0.16998, 
			 "cosmo_polarized_energy": -13.67, 
			 "cosmo_cavitation_energy": 31.04, 
			 "cosmo_dispersion_energy": -22.7, 
			 "cosmo_repulsion_energy": 1.77, 
			 "cosmo_total_nonelectrostatic_energy": 10.12, 
			 "SMD_solvation_energy": 5.09 
		},
		"coords": [
			{
				"x": 1.1036013837,
				"y": 0.3923875101,
				"z": 2.3966312647,
				"element": "C" 
			},
			{
				"x": 1.6984305958,
				"y": -0.7188897514,
				"z": 1.5387270322,
				"element": "C" 
			},
			{
				"x": 3.2970722789,
				"y": -0.215727374,
				"z": 0.7853664282,
				"element": "Cl" 
			},
			{
				"x": 0.7349894344,
				"y": -1.2982785499,
				"z": 0.4863218807,
				"element": "C" 
			},
			{
				"x": 0.4128109782,
				"y": -2.4736525673,
				"z": 0.6689567448,
				"element": "O" 
			},
			{
				"x": 0.1566099602,
				"y": -0.518015009,
				"z": -0.6098140079,
				"element": "C" 
			},
			{
				"x": -0.8339739024,
				"y": -1.096510436,
				"z": -1.4168829635,
				"element": "C" 
			},
			{
				"x": -1.4371628295,
				"y": -2.4625015429,
				"z": -1.4064265627,
				"element": "C" 
			},
			{
				"x": -1.2555513459,
				"y": -0.1736326531,
				"z": -2.3272159329,
				"element": "N" 
			},
			{
				"x": -0.5742744973,
				"y": 1.02224701,
				"z": -2.1666884574,
				"element": "C" 
			},
			{
				"x": 0.3386398816,
				"y": 0.8496659266,
				"z": -1.0925741556,
				"element": "C" 
			},
			{
				"x": 1.1610830191,
				"y": 1.9457508338,
				"z": -0.7690816126,
				"element": "C" 
			},
			{
				"x": 1.0360142031,
				"y": 3.1340272029,
				"z": -1.4822465302,
				"element": "C" 
			},
			{
				"x": 0.1106935785,
				"y": 3.2720113271,
				"z": -2.5314093586,
				"element": "C" 
			},
			{
				"x": -0.707309418,
				"y": 2.207433376,
				"z": -2.8909795107,
				"element": "C" 
			},
			{
				"x": 0.2174496088,
				"y": -0.0022241549,
				"z": 2.9067564908,
				"element": "H" 
			},
			{
				"x": 0.8006026634,
				"y": 1.2595628722,
				"z": 1.8084396823,
				"element": "H" 
			},
			{
				"x": 1.8212146501,
				"y": 0.7130715059,
				"z": 3.1559781091,
				"element": "H" 
			},
			{
				"x": 1.9640198377,
				"y": -1.5731800276,
				"z": 2.1598887462,
				"element": "H" 
			},
			{
				"x": -2.2117705692,
				"y": -2.5495617123,
				"z": -2.1759615903,
				"element": "H" 
			},
			{
				"x": -1.8720186164,
				"y": -2.689504887,
				"z": -0.4298052898,
				"element": "H" 
			},
			{
				"x": -0.6744003648,
				"y": -3.2266266727,
				"z": -1.5768746346,
				"element": "H" 
			},
			{
				"x": -1.9672536099,
				"y": -0.3476639859,
				"z": -3.0203661006,
				"element": "H" 
			},
			{
				"x": 1.9107767466,
				"y": 1.8689703801,
				"z": 0.0062368888,
				"element": "H" 
			},
			{
				"x": 1.6770478825,
				"y": 3.9722715829,
				"z": -1.2255724317,
				"element": "H" 
			},
			{
				"x": 0.0390637129,
				"y": 4.21233384,
				"z": -3.0693983689,
				"element": "H" 
			},
			{
				"x": -1.4217052622,
				"y": 2.2912359564,
				"z": -3.7052057598,
				"element": "H" 
			}
		],
		 "valence_orbital": [ 
			{
				"type": "occ",
				"energy": -0.28976,
				"method": "rhf"
			},
			{
				"type": "occ",
				"energy": -0.27868,
				"method": "rhf"
			},
			{
				"type": "occ",
				"energy": -0.24189,
				"method": "rhf"
			},
			{
				"type": "occ",
				"energy": -0.23043,
				"method": "rhf"
			},
			{
				"type": "occ",
				"energy": -0.21315,
				"method": "rhf"
			},
			{
				"type": "unocc",
				"energy": -0.04317,
				"method": "rhf"
			},
			{
				"type": "unocc",
				"energy": -0.01202,
				"method": "rhf"
			},
			{
				"type": "unocc",
				"energy": 0.01974,
				"method": "rhf"
			},
			{
				"type": "unocc",
				"energy": 0.03337,
				"method": "rhf"
			},
			{
				"type": "unocc",
				"energy": 0.06615,
				"method": "rhf"
			}
		],
		"cosmo_sigma_profile": { 
			"-0.025": 0.0,
			"-0.024": 0.0,
			"-0.023": 0.0,
			"-0.022": 0.0,
			"-0.021": 0.0,
			"-0.02": 0.0,
			"-0.019": 0.0,
			"-0.018": 0.0,
			"-0.017": 0.0117935729052,
			"-0.016": 1.34070038103,
			"-0.015": 1.41249438696,
			"-0.014": 1.70641461184,
			"-0.013": 1.13968800614,
			"-0.012": 1.34443415956,
			"-0.011": 1.49355952795,
			"-0.01": 1.73285674622,
			"-0.009": 1.43328497137,
			"-0.008": 1.31600235112,
			"-0.007": 3.59590406155,
			"-0.006": 7.18863440855,
			"-0.005": 14.9563276065,
			"-0.004": 17.8595966003,
			"-0.003": 21.2117191041,
			"-0.002": 21.2126664013,
			"-0.001": 22.3961301771,
			"0.0": 15.1848680156,
			"0.001": 13.9939334086,
			"0.002": 17.7022473667,
			"0.003": 15.7657803965,
			"0.004": 15.6017872264,
			"0.005": 18.1242708238,
			"0.006": 16.6639685375,
			"0.007": 2.77519353989,
			"0.008": 1.52038119408,
			"0.009": 1.94619664534,
			"0.01": 1.32205816581,
			"0.011": 1.72939470617,
			"0.012": 2.55568846954,
			"0.013": 2.13314259137,
			"0.014": 0.419037567123,
			"0.015": 0.0,
			"0.016": 0.0,
			"0.017": 0.0,
			"0.018": 0.0,
			"0.019": 0.0,
			"0.02": 0.0,
			"0.021": 0.0,
			"0.022": 0.0,
			"0.023": 0.0,
			"0.024": 0.0,
			"0.025": 0.0
		}
	}
}
