{
	 "smiles": "CC(C)OC(=O)C1=C([C@H]2C3=CC=CC=C3[C@@H]1C1=CC=CC=C21)C(O)=O", 
	 "Tm": 449.5, 
	 "num_atms": 43, 
	 "gaussian": { 
		 "optdone": 1, 
		 "sigma_profile": "yes", 
		 "theory": "DFT", 
		 "functional": "B3LYP", 
		 "basiset": "6-31G**", 
		 "properties": { 
			 "R2extent": 8469.4487, 
			 "electric_dipole_moment_norm": 6.6362480145, 
			 "electric_quadrupole_moment_norm": 21.6670762211, 
			 "total_energy": -1112.00699088, 
			 "HOMO_LUMO_gap": 0.13986, 
			 "cosmo_polarized_energy": -15.25, 
			 "cosmo_cavitation_energy": 45.65, 
			 "cosmo_dispersion_energy": -30.77, 
			 "cosmo_repulsion_energy": 2.35, 
			 "cosmo_total_nonelectrostatic_energy": 17.23, 
			 "SMD_solvation_energy": 9.24 
		},
		"coords": [
			{
				"x": -0.1523994163,
				"y": 0.9930265066,
				"z": -3.8569824312,
				"element": "C" 
			},
			{
				"x": 0.9586794458,
				"y": 1.3269440685,
				"z": -2.8732164508,
				"element": "C" 
			},
			{
				"x": 2.3304937254,
				"y": 0.8130175189,
				"z": -3.2942020964,
				"element": "C" 
			},
			{
				"x": 0.5722535672,
				"y": 0.6874984341,
				"z": -1.6101751891,
				"element": "O" 
			},
			{
				"x": 1.0269315175,
				"y": 1.2194339099,
				"z": -0.4720246173,
				"element": "C" 
			},
			{
				"x": 1.7520349974,
				"y": 2.2166215185,
				"z": -0.4684355741,
				"element": "O" 
			},
			{
				"x": 0.5616846499,
				"y": 0.4863887719,
				"z": 0.7266985264,
				"element": "C" 
			},
			{
				"x": 0.8283977975,
				"y": 0.7751131565,
				"z": 2.0301429879,
				"element": "C" 
			},
			{
				"x": 0.1683182432,
				"y": -0.2133083748,
				"z": 3.0032280705,
				"element": "C" 
			},
			{
				"x": -1.3286917032,
				"y": -0.1849944629,
				"z": 2.6937724437,
				"element": "C" 
			},
			{
				"x": -2.3598417139,
				"y": 0.0923896667,
				"z": 3.5825580137,
				"element": "C" 
			},
			{
				"x": -3.6826796072,
				"y": 0.060895195,
				"z": 3.1192934382,
				"element": "C" 
			},
			{
				"x": -3.9579260602,
				"y": -0.2434501378,
				"z": 1.7862071711,
				"element": "C" 
			},
			{
				"x": -2.914604968,
				"y": -0.5202095728,
				"z": 0.8914679898,
				"element": "C" 
			},
			{
				"x": -1.605039006,
				"y": -0.4866922185,
				"z": 1.3538323031,
				"element": "C" 
			},
			{
				"x": -0.3343849501,
				"y": -0.7588967316,
				"z": 0.5479932851,
				"element": "C" 
			},
			{
				"x": 0.3839426037,
				"y": -1.904543497,
				"z": 1.2617187373,
				"element": "C" 
			},
			{
				"x": 0.7485085809,
				"y": -3.1315525193,
				"z": 0.7218534157,
				"element": "C" 
			},
			{
				"x": 1.4029812342,
				"y": -4.0650343637,
				"z": 1.53788364,
				"element": "C" 
			},
			{
				"x": 1.6829381174,
				"y": -3.7639112656,
				"z": 2.8707414144,
				"element": "C" 
			},
			{
				"x": 1.3122607544,
				"y": -2.5251217577,
				"z": 3.412446723,
				"element": "C" 
			},
			{
				"x": 0.6614097952,
				"y": -1.6036140177,
				"z": 2.6016260788,
				"element": "C" 
			},
			{
				"x": 1.6377121165,
				"y": 1.868407995,
				"z": 2.7100845345,
				"element": "C" 
			},
			{
				"x": 2.2593083551,
				"y": 2.7799343303,
				"z": 1.9759214058,
				"element": "O" 
			},
			{
				"x": 1.699870296,
				"y": 1.8849346904,
				"z": 3.9258082485,
				"element": "O" 
			},
			{
				"x": 0.053479898,
				"y": 1.4671746448,
				"z": -4.8212312971,
				"element": "H" 
			},
			{
				"x": -0.2231715713,
				"y": -0.0878094436,
				"z": -4.0143680893,
				"element": "H" 
			},
			{
				"x": -1.1178739591,
				"y": 1.3560710769,
				"z": -3.4944501369,
				"element": "H" 
			},
			{
				"x": 1.0043017921,
				"y": 2.4029172879,
				"z": -2.6870017544,
				"element": "H" 
			},
			{
				"x": 3.0879004029,
				"y": 1.0735592859,
				"z": -2.5516597215,
				"element": "H" 
			},
			{
				"x": 2.3132778286,
				"y": -0.2739618122,
				"z": -3.4215429706,
				"element": "H" 
			},
			{
				"x": 2.6181440749,
				"y": 1.2666031885,
				"z": -4.2478660688,
				"element": "H" 
			},
			{
				"x": 0.4062162463,
				"y": 0.0539820808,
				"z": 4.0301407686,
				"element": "H" 
			},
			{
				"x": -2.1438508108,
				"y": 0.3311257427,
				"z": 4.6202298859,
				"element": "H" 
			},
			{
				"x": -4.49733621,
				"y": 0.2766872829,
				"z": 3.8044625704,
				"element": "H" 
			},
			{
				"x": -4.986157155,
				"y": -0.2644226737,
				"z": 1.4367399453,
				"element": "H" 
			},
			{
				"x": -3.1286846794,
				"y": -0.7565680222,
				"z": -0.1476571996,
				"element": "H" 
			},
			{
				"x": -0.5344714373,
				"y": -0.9715773692,
				"z": -0.499357481,
				"element": "H" 
			},
			{
				"x": 0.5309140771,
				"y": -3.3655963782,
				"z": -0.3170769489,
				"element": "H" 
			},
			{
				"x": 1.6950038214,
				"y": -5.0272982908,
				"z": 1.1272802553,
				"element": "H" 
			},
			{
				"x": 2.192761438,
				"y": -4.4923601882,
				"z": 3.4945473208,
				"element": "H" 
			},
			{
				"x": 1.5312471345,
				"y": -2.2885494262,
				"z": 4.4499883847,
				"element": "H" 
			},
			{
				"x": 2.114640737,
				"y": 2.6349461712,
				"z": 1.0009804683,
				"element": "H" 
			}
		],
		 "valence_orbital": [ 
			{
				"type": "occ",
				"energy": -0.26394,
				"method": "rhf"
			},
			{
				"type": "occ",
				"energy": -0.25567,
				"method": "rhf"
			},
			{
				"type": "occ",
				"energy": -0.25168,
				"method": "rhf"
			},
			{
				"type": "occ",
				"energy": -0.25014,
				"method": "rhf"
			},
			{
				"type": "occ",
				"energy": -0.22774,
				"method": "rhf"
			},
			{
				"type": "unocc",
				"energy": -0.08788,
				"method": "rhf"
			},
			{
				"type": "unocc",
				"energy": -0.01543,
				"method": "rhf"
			},
			{
				"type": "unocc",
				"energy": -0.01218,
				"method": "rhf"
			},
			{
				"type": "unocc",
				"energy": 0.00373,
				"method": "rhf"
			},
			{
				"type": "unocc",
				"energy": 0.01032,
				"method": "rhf"
			}
		],
		"cosmo_sigma_profile": { 
			"-0.025": 0.0,
			"-0.024": 0.0,
			"-0.023": 0.0,
			"-0.022": 0.0,
			"-0.021": 0.0,
			"-0.02": 0.0,
			"-0.019": 0.0,
			"-0.018": 0.0,
			"-0.017": 0.0,
			"-0.016": 0.0,
			"-0.015": 0.0,
			"-0.014": 0.0,
			"-0.013": 0.0,
			"-0.012": 0.0,
			"-0.011": 0.0,
			"-0.01": 0.0,
			"-0.009": 0.00333869052244,
			"-0.008": 0.53181810261,
			"-0.007": 0.795882864656,
			"-0.006": 14.7516113974,
			"-0.005": 34.445200301,
			"-0.004": 40.3488441928,
			"-0.003": 37.6977023203,
			"-0.002": 32.0547725062,
			"-0.001": 36.0398128409,
			"0.0": 29.6791416623,
			"0.001": 20.3044890921,
			"0.002": 17.5750113209,
			"0.003": 19.5765535576,
			"0.004": 20.7147886102,
			"0.005": 20.9652592415,
			"0.006": 11.6074665638,
			"0.007": 2.60067644787,
			"0.008": 3.98900780018,
			"0.009": 3.33891148691,
			"0.01": 3.91203847131,
			"0.011": 5.13503107429,
			"0.012": 5.26015003758,
			"0.013": 2.18324400075,
			"0.014": 0.508882735355,
			"0.015": 0.0,
			"0.016": 0.0,
			"0.017": 0.0,
			"0.018": 0.0,
			"0.019": 0.0,
			"0.02": 0.0,
			"0.021": 0.0,
			"0.022": 0.0,
			"0.023": 0.0,
			"0.024": 0.0,
			"0.025": 0.0
		}
	}
}
