{
	 "smiles": "CCOC(=O)C(=O)CC(=O)C1=CC=C(Cl)C=C1", 
	 "Tm": 336.15, 
	 "num_atms": 28, 
	 "gaussian": { 
		 "optdone": 1, 
		 "sigma_profile": "yes", 
		 "theory": "DFT", 
		 "functional": "B3LYP", 
		 "basiset": "6-31G**", 
		 "properties": { 
			 "R2extent": 8087.2774, 
			 "electric_dipole_moment_norm": 1.67963248956, 
			 "electric_quadrupole_moment_norm": 14.6590847914, 
			 "total_energy": -1224.99251216, 
			 "HOMO_LUMO_gap": 0.17922, 
			 "cosmo_polarized_energy": -14.38, 
			 "cosmo_cavitation_energy": 35.84, 
			 "cosmo_dispersion_energy": -25.26, 
			 "cosmo_repulsion_energy": 2.0, 
			 "cosmo_total_nonelectrostatic_energy": 12.58, 
			 "SMD_solvation_energy": 7.99 
		},
		"coords": [
			{
				"x": -0.4155515775,
				"y": 4.2280285727,
				"z": -2.7087978751,
				"element": "C" 
			},
			{
				"x": -0.602425186,
				"y": 2.7910226207,
				"z": -3.1697680077,
				"element": "C" 
			},
			{
				"x": 0.4584473031,
				"y": 1.937770719,
				"z": -2.664090197,
				"element": "O" 
			},
			{
				"x": 0.2820956,
				"y": 1.4266749454,
				"z": -1.4476192772,
				"element": "C" 
			},
			{
				"x": -0.668809203,
				"y": 1.6203649945,
				"z": -0.7162939596,
				"element": "O" 
			},
			{
				"x": 1.4730737694,
				"y": 0.5494395273,
				"z": -1.0141885102,
				"element": "C" 
			},
			{
				"x": 2.5586444377,
				"y": 0.6431484399,
				"z": -1.5371493764,
				"element": "O" 
			},
			{
				"x": 1.1746377004,
				"y": -0.3739653792,
				"z": 0.1551552874,
				"element": "C" 
			},
			{
				"x": 0.2006647819,
				"y": -1.4733163311,
				"z": -0.2717979561,
				"element": "C" 
			},
			{
				"x": -0.1741791328,
				"y": -1.5351827535,
				"z": -1.4338998379,
				"element": "O" 
			},
			{
				"x": -0.2612894524,
				"y": -2.4634811398,
				"z": 0.745128263,
				"element": "C" 
			},
			{
				"x": -1.1485403596,
				"y": -3.4696178982,
				"z": 0.3297227972,
				"element": "C" 
			},
			{
				"x": -1.615194849,
				"y": -4.4229866351,
				"z": 1.2263890269,
				"element": "C" 
			},
			{
				"x": -1.1873762292,
				"y": -4.3692026985,
				"z": 2.5558576042,
				"element": "C" 
			},
			{
				"x": -1.7694754415,
				"y": -5.5671086132,
				"z": 3.6947963617,
				"element": "Cl" 
			},
			{
				"x": -0.30571276,
				"y": -3.380889437,
				"z": 2.9950117581,
				"element": "C" 
			},
			{
				"x": 0.1533119735,
				"y": -2.43137281,
				"z": 2.084714096,
				"element": "C" 
			},
			{
				"x": -0.5167961272,
				"y": 4.3022027988,
				"z": -1.6232447735,
				"element": "H" 
			},
			{
				"x": -1.1794976132,
				"y": 4.8639498798,
				"z": -3.1681583412,
				"element": "H" 
			},
			{
				"x": 0.5682892791,
				"y": 4.6056268685,
				"z": -3.0012136782,
				"element": "H" 
			},
			{
				"x": -1.5624349918,
				"y": 2.3872967488,
				"z": -2.8393008333,
				"element": "H" 
			},
			{
				"x": -0.5215222815,
				"y": 2.7009217761,
				"z": -4.2547889655,
				"element": "H" 
			},
			{
				"x": 0.7331115367,
				"y": 0.2041637667,
				"z": 0.9746185945,
				"element": "H" 
			},
			{
				"x": 2.1169829499,
				"y": -0.8116112423,
				"z": 0.4989315423,
				"element": "H" 
			},
			{
				"x": -1.4610043003,
				"y": -3.4835151183,
				"z": -0.7089034397,
				"element": "H" 
			},
			{
				"x": -2.300915815,
				"y": -5.2001813222,
				"z": 0.9080416178,
				"element": "H" 
			},
			{
				"x": 0.0129654348,
				"y": -3.3581031725,
				"z": 4.030927434,
				"element": "H" 
			},
			{
				"x": 0.8385005537,
				"y": -1.6653771071,
				"z": 2.4326206454,
				"element": "H" 
			}
		],
		 "valence_orbital": [ 
			{
				"type": "occ",
				"energy": -0.30757,
				"method": "rhf"
			},
			{
				"type": "occ",
				"energy": -0.28098,
				"method": "rhf"
			},
			{
				"type": "occ",
				"energy": -0.27249,
				"method": "rhf"
			},
			{
				"type": "occ",
				"energy": -0.26363,
				"method": "rhf"
			},
			{
				"type": "occ",
				"energy": -0.25378,
				"method": "rhf"
			},
			{
				"type": "unocc",
				"energy": -0.07456,
				"method": "rhf"
			},
			{
				"type": "unocc",
				"energy": -0.07039,
				"method": "rhf"
			},
			{
				"type": "unocc",
				"energy": -0.02956,
				"method": "rhf"
			},
			{
				"type": "unocc",
				"energy": 0.01791,
				"method": "rhf"
			},
			{
				"type": "unocc",
				"energy": 0.01996,
				"method": "rhf"
			}
		],
		"cosmo_sigma_profile": { 
			"-0.025": 0.0,
			"-0.024": 0.0,
			"-0.023": 0.0,
			"-0.022": 0.0,
			"-0.021": 0.0,
			"-0.02": 0.0,
			"-0.019": 0.0,
			"-0.018": 0.0,
			"-0.017": 0.0,
			"-0.016": 0.0,
			"-0.015": 0.0,
			"-0.014": 0.0,
			"-0.013": 0.0,
			"-0.012": 0.0,
			"-0.011": 0.0,
			"-0.01": 0.0387521268102,
			"-0.009": 2.59069004137,
			"-0.008": 11.3530808965,
			"-0.007": 12.7840895707,
			"-0.006": 14.5416896271,
			"-0.005": 16.7108253733,
			"-0.004": 20.7826967457,
			"-0.003": 18.9943126362,
			"-0.002": 18.8430389752,
			"-0.001": 20.9495027887,
			"0.0": 25.5409367348,
			"0.001": 22.2146440889,
			"0.002": 24.3016657446,
			"0.003": 15.653347103,
			"0.004": 14.9554958088,
			"0.005": 6.91049567496,
			"0.006": 4.68190238095,
			"0.007": 6.59177538881,
			"0.008": 5.54802399427,
			"0.009": 7.87658878672,
			"0.01": 9.96366625705,
			"0.011": 5.88922715289,
			"0.012": 0.485296102639,
			"0.013": 0.0,
			"0.014": 0.0,
			"0.015": 0.0,
			"0.016": 0.0,
			"0.017": 0.0,
			"0.018": 0.0,
			"0.019": 0.0,
			"0.02": 0.0,
			"0.021": 0.0,
			"0.022": 0.0,
			"0.023": 0.0,
			"0.024": 0.0,
			"0.025": 0.0
		}
	}
}
