{
	 "smiles": "COC1=CC(=CC=C1)C1(CCN(C)CC1)C#N", 
	 "Tm": 318.15, 
	 "num_atms": 35, 
	 "gaussian": { 
		 "optdone": 1, 
		 "sigma_profile": "yes", 
		 "theory": "DFT", 
		 "functional": "B3LYP", 
		 "basiset": "6-31G**", 
		 "properties": { 
			 "R2extent": 4811.9366, 
			 "electric_dipole_moment_norm": 5.18308076823, 
			 "electric_quadrupole_moment_norm": 20.6217067162, 
			 "total_energy": -729.029220483, 
			 "HOMO_LUMO_gap": 0.20419, 
			 "cosmo_polarized_energy": -12.75, 
			 "cosmo_cavitation_energy": 36.19, 
			 "cosmo_dispersion_energy": -25.29, 
			 "cosmo_repulsion_energy": 1.97, 
			 "cosmo_total_nonelectrostatic_energy": 12.87, 
			 "SMD_solvation_energy": 5.27 
		},
		"coords": [
			{
				"x": 2.3154683398,
				"y": 3.7341863727,
				"z": 2.5445253138,
				"element": "C" 
			},
			{
				"x": 1.3664348622,
				"y": 2.8574259978,
				"z": 1.9578006781,
				"element": "O" 
			},
			{
				"x": 1.6694439795,
				"y": 1.5283470838,
				"z": 1.894088392,
				"element": "C" 
			},
			{
				"x": 0.6743702475,
				"y": 0.7182559145,
				"z": 1.3225154123,
				"element": "C" 
			},
			{
				"x": 0.8556383866,
				"y": -0.6562361346,
				"z": 1.1881482661,
				"element": "C" 
			},
			{
				"x": 2.0529021656,
				"y": -1.224970686,
				"z": 1.6605356802,
				"element": "C" 
			},
			{
				"x": 3.0349102468,
				"y": -0.4222877087,
				"z": 2.2283918409,
				"element": "C" 
			},
			{
				"x": 2.862026759,
				"y": 0.9601151321,
				"z": 2.3476375264,
				"element": "C" 
			},
			{
				"x": -0.2317027252,
				"y": -1.581518579,
				"z": 0.590209899,
				"element": "C" 
			},
			{
				"x": 0.3375499873,
				"y": -2.4942168634,
				"z": -0.5428087838,
				"element": "C" 
			},
			{
				"x": 0.5946145169,
				"y": -1.7088995029,
				"z": -1.8291671672,
				"element": "C" 
			},
			{
				"x": -0.6402318418,
				"y": -1.0986650928,
				"z": -2.3182494578,
				"element": "N" 
			},
			{
				"x": -0.4580846167,
				"y": -0.4743416968,
				"z": -3.6199023847,
				"element": "C" 
			},
			{
				"x": -1.1767919133,
				"y": -0.1543910936,
				"z": -1.3399668709,
				"element": "C" 
			},
			{
				"x": -1.4697467884,
				"y": -0.8466434812,
				"z": -0.002995744,
				"element": "C" 
			},
			{
				"x": -0.706539295,
				"y": -2.4527386151,
				"z": 1.6859313472,
				"element": "C" 
			},
			{
				"x": -1.0879759965,
				"y": -3.1470848483,
				"z": 2.535516318,
				"element": "N" 
			},
			{
				"x": 2.515569142,
				"y": 3.4721892832,
				"z": 3.5913751537,
				"element": "H" 
			},
			{
				"x": 3.2619855449,
				"y": 3.7377205943,
				"z": 1.9885883061,
				"element": "H" 
			},
			{
				"x": 1.8719881968,
				"y": 4.7301329896,
				"z": 2.5026146665,
				"element": "H" 
			},
			{
				"x": -0.2317230753,
				"y": 1.2146045519,
				"z": 0.999534581,
				"element": "H" 
			},
			{
				"x": 2.2068604605,
				"y": -2.2976829914,
				"z": 1.608825349,
				"element": "H" 
			},
			{
				"x": 3.9528608261,
				"y": -0.8743224497,
				"z": 2.5929330291,
				"element": "H" 
			},
			{
				"x": 3.6424838517,
				"y": 1.5656449899,
				"z": 2.7922006826,
				"element": "H" 
			},
			{
				"x": 1.2560588739,
				"y": -2.9850450536,
				"z": -0.2125062748,
				"element": "H" 
			},
			{
				"x": -0.3975707036,
				"y": -3.2782158509,
				"z": -0.7512994459,
				"element": "H" 
			},
			{
				"x": 1.3900016953,
				"y": -0.9559635679,
				"z": -1.6604962721,
				"element": "H" 
			},
			{
				"x": 0.9662269686,
				"y": -2.3986999822,
				"z": -2.5954999429,
				"element": "H" 
			},
			{
				"x": -1.4149981834,
				"y": -0.0811659613,
				"z": -3.9786193384,
				"element": "H" 
			},
			{
				"x": 0.269997099,
				"y": 0.3599508259,
				"z": -3.6090603004,
				"element": "H" 
			},
			{
				"x": -0.1069729452,
				"y": -1.2191096273,
				"z": -4.3415354536,
				"element": "H" 
			},
			{
				"x": -2.1162028632,
				"y": 0.2527237439,
				"z": -1.7322369627,
				"element": "H" 
			},
			{
				"x": -0.4938609802,
				"y": 0.7033992778,
				"z": -1.1934092713,
				"element": "H" 
			},
			{
				"x": -2.2458855697,
				"y": -1.5994968992,
				"z": -0.1719143873,
				"element": "H" 
			},
			{
				"x": -1.8742046524,
				"y": -0.1316000714,
				"z": 0.7190956156,
				"element": "H" 
			}
		],
		 "valence_orbital": [ 
			{
				"type": "occ",
				"energy": -0.30925,
				"method": "rhf"
			},
			{
				"type": "occ",
				"energy": -0.30339,
				"method": "rhf"
			},
			{
				"type": "occ",
				"energy": -0.25653,
				"method": "rhf"
			},
			{
				"type": "occ",
				"energy": -0.22525,
				"method": "rhf"
			},
			{
				"type": "occ",
				"energy": -0.21816,
				"method": "rhf"
			},
			{
				"type": "unocc",
				"energy": -0.01397,
				"method": "rhf"
			},
			{
				"type": "unocc",
				"energy": 0.00018,
				"method": "rhf"
			},
			{
				"type": "unocc",
				"energy": 0.0462,
				"method": "rhf"
			},
			{
				"type": "unocc",
				"energy": 0.05518,
				"method": "rhf"
			},
			{
				"type": "unocc",
				"energy": 0.07851,
				"method": "rhf"
			}
		],
		"cosmo_sigma_profile": { 
			"-0.025": 0.0,
			"-0.024": 0.0,
			"-0.023": 0.0,
			"-0.022": 0.0,
			"-0.021": 0.0,
			"-0.02": 0.0,
			"-0.019": 0.0,
			"-0.018": 0.0,
			"-0.017": 0.0,
			"-0.016": 0.0,
			"-0.015": 0.0,
			"-0.014": 0.0,
			"-0.013": 0.0,
			"-0.012": 0.0,
			"-0.011": 0.0,
			"-0.01": 0.0,
			"-0.009": 0.0,
			"-0.008": 0.0957364331021,
			"-0.007": 3.41942515817,
			"-0.006": 12.4109751878,
			"-0.005": 23.2335420505,
			"-0.004": 32.082909762,
			"-0.003": 32.7483927139,
			"-0.002": 31.8336414903,
			"-0.001": 30.3403744049,
			"0.0": 21.7822822931,
			"0.001": 10.0757754013,
			"0.002": 11.2199104796,
			"0.003": 12.4959432843,
			"0.004": 14.0450805251,
			"0.005": 11.1351081624,
			"0.006": 5.98236793547,
			"0.007": 3.80616245701,
			"0.008": 5.58744002862,
			"0.009": 5.79470900118,
			"0.01": 5.86413593319,
			"0.011": 3.44069105451,
			"0.012": 3.06572941017,
			"0.013": 2.63903787137,
			"0.014": 0.84038592086,
			"0.015": 0.246091763738,
			"0.016": 0.415826533961,
			"0.017": 0.014127988302,
			"0.018": 0.0,
			"0.019": 0.0,
			"0.02": 0.0,
			"0.021": 0.0,
			"0.022": 0.0,
			"0.023": 0.0,
			"0.024": 0.0,
			"0.025": 0.0
		}
	}
}
