{
	 "smiles": "NNC(N)=O", 
	 "Tm": 369.15, 
	 "num_atms": 10, 
	 "gaussian": { 
		 "optdone": 1, 
		 "sigma_profile": "yes", 
		 "theory": "DFT", 
		 "functional": "B3LYP", 
		 "basiset": "6-31G**", 
		 "properties": { 
			 "R2extent": 563.3371, 
			 "electric_dipole_moment_norm": 4.43033556517, 
			 "electric_quadrupole_moment_norm": 13.4042543593, 
			 "total_energy": -280.587553154, 
			 "HOMO_LUMO_gap": 0.29986, 
			 "cosmo_polarized_energy": -15.83, 
			 "cosmo_cavitation_energy": 13.86, 
			 "cosmo_dispersion_energy": -10.75, 
			 "cosmo_repulsion_energy": 1.01, 
			 "cosmo_total_nonelectrostatic_energy": 4.11, 
			 "SMD_solvation_energy": 4.27 
		},
		"coords": [
			{
				"x": 0.792807721,
				"y": 0.8308907961,
				"z": -0.7264795848,
				"element": "N" 
			},
			{
				"x": 1.107729944,
				"y": -0.5328656498,
				"z": -0.8652866591,
				"element": "N" 
			},
			{
				"x": 0.4750533491,
				"y": -1.4802205186,
				"z": -0.0574369464,
				"element": "C" 
			},
			{
				"x": -0.6891590851,
				"y": -1.0473433369,
				"z": 0.5144466783,
				"element": "N" 
			},
			{
				"x": 0.9317004853,
				"y": -2.6109234279,
				"z": 0.0509070565,
				"element": "O" 
			},
			{
				"x": 1.5276652977,
				"y": 1.3324713835,
				"z": -0.2303937998,
				"element": "H" 
			},
			{
				"x": 0.6780832235,
				"y": 1.2482971201,
				"z": -1.6458140393,
				"element": "H" 
			},
			{
				"x": 2.0498079357,
				"y": -0.8083728068,
				"z": -1.1188917621,
				"element": "H" 
			},
			{
				"x": -0.8831838558,
				"y": -0.0574192722,
				"z": 0.5200916452,
				"element": "H" 
			},
			{
				"x": -1.0928050155,
				"y": -1.6498142877,
				"z": 1.2115574115,
				"element": "H" 
			}
		],
		 "valence_orbital": [ 
			{
				"type": "occ",
				"energy": -0.39132,
				"method": "rhf"
			},
			{
				"type": "occ",
				"energy": -0.28922,
				"method": "rhf"
			},
			{
				"type": "occ",
				"energy": -0.2598,
				"method": "rhf"
			},
			{
				"type": "occ",
				"energy": -0.24816,
				"method": "rhf"
			},
			{
				"type": "occ",
				"energy": -0.23999,
				"method": "rhf"
			},
			{
				"type": "unocc",
				"energy": 0.05987,
				"method": "rhf"
			},
			{
				"type": "unocc",
				"energy": 0.0738,
				"method": "rhf"
			},
			{
				"type": "unocc",
				"energy": 0.10941,
				"method": "rhf"
			},
			{
				"type": "unocc",
				"energy": 0.11816,
				"method": "rhf"
			},
			{
				"type": "unocc",
				"energy": 0.14238,
				"method": "rhf"
			}
		],
		"cosmo_sigma_profile": { 
			"-0.025": 0.0,
			"-0.024": 0.0,
			"-0.023": 0.0,
			"-0.022": 0.0,
			"-0.021": 0.0,
			"-0.02": 0.0,
			"-0.019": 0.0,
			"-0.018": 0.0,
			"-0.017": 0.0,
			"-0.016": 0.0,
			"-0.015": 0.0,
			"-0.014": 0.177066459152,
			"-0.013": 1.67909761481,
			"-0.012": 4.09855778849,
			"-0.011": 6.22105369573,
			"-0.01": 7.2830036135,
			"-0.009": 5.12562356848,
			"-0.008": 5.39067623316,
			"-0.007": 4.40090694768,
			"-0.006": 3.77641988127,
			"-0.005": 3.16815520001,
			"-0.004": 2.85568329187,
			"-0.003": 2.60507281538,
			"-0.002": 3.10300654371,
			"-0.001": 3.29687764574,
			"0.0": 3.43798697092,
			"0.001": 3.71777570201,
			"0.002": 3.97644486153,
			"0.003": 3.96655827507,
			"0.004": 4.6388124914,
			"0.005": 3.16699231738,
			"0.006": 4.48435357133,
			"0.007": 3.34543680297,
			"0.008": 3.88938742709,
			"0.009": 2.56680379804,
			"0.01": 1.86994784503,
			"0.011": 1.13423127294,
			"0.012": 1.08745122218,
			"0.013": 1.64587348715,
			"0.014": 3.70213612424,
			"0.015": 6.84063096618,
			"0.016": 1.20923557455,
			"0.017": 0.0,
			"0.018": 0.0,
			"0.019": 0.0,
			"0.02": 0.0,
			"0.021": 0.0,
			"0.022": 0.0,
			"0.023": 0.0,
			"0.024": 0.0,
			"0.025": 0.0
		}
	}
}
