{
	 "smiles": "CCCCCCCCC(O)=O", 
	 "Tm": 284.35, 
	 "num_atms": 29, 
	 "gaussian": { 
		 "optdone": 1, 
		 "sigma_profile": "yes", 
		 "theory": "DFT", 
		 "functional": "B3LYP", 
		 "basiset": "6-31G**", 
		 "properties": { 
			 "R2extent": 2298.5603, 
			 "electric_dipole_moment_norm": 1.51749337396, 
			 "electric_quadrupole_moment_norm": 7.50754573945, 
			 "total_energy": -504.289375696, 
			 "HOMO_LUMO_gap": 0.28032, 
			 "cosmo_polarized_energy": -7.41, 
			 "cosmo_cavitation_energy": 30.33, 
			 "cosmo_dispersion_energy": -20.4, 
			 "cosmo_repulsion_energy": 1.66, 
			 "cosmo_total_nonelectrostatic_energy": 11.59, 
			 "SMD_solvation_energy": 5.08 
		},
		"coords": [
			{
				"x": -1.8174112058,
				"y": 2.8652488984,
				"z": 0.1489779376,
				"element": "C" 
			},
			{
				"x": -1.5423274051,
				"y": 1.6062926189,
				"z": -0.6798411084,
				"element": "C" 
			},
			{
				"x": -0.1912469796,
				"y": 1.652499415,
				"z": -1.4085551296,
				"element": "C" 
			},
			{
				"x": 0.1234895964,
				"y": 0.3843877667,
				"z": -2.2234111834,
				"element": "C" 
			},
			{
				"x": 0.4606182592,
				"y": -0.898134055,
				"z": -1.4242630744,
				"element": "C" 
			},
			{
				"x": 1.9602692209,
				"y": -1.1542864676,
				"z": -1.167485925,
				"element": "C" 
			},
			{
				"x": 2.6808749587,
				"y": -0.3166680437,
				"z": -0.0952940173,
				"element": "C" 
			},
			{
				"x": 2.2612246881,
				"y": -0.6260885574,
				"z": 1.3596783775,
				"element": "C" 
			},
			{
				"x": 1.0518633114,
				"y": 0.1533573138,
				"z": 1.8269509355,
				"element": "C" 
			},
			{
				"x": 0.0737367887,
				"y": -0.640336181,
				"z": 2.3268809566,
				"element": "O" 
			},
			{
				"x": 0.9489808374,
				"y": 1.3620317602,
				"z": 1.7903009133,
				"element": "O" 
			},
			{
				"x": -1.0633242706,
				"y": 2.9801845662,
				"z": 0.9339815634,
				"element": "H" 
			},
			{
				"x": -1.7921328903,
				"y": 3.7647947607,
				"z": -0.4771678247,
				"element": "H" 
			},
			{
				"x": -2.8026986353,
				"y": 2.82380719,
				"z": 0.6266540829,
				"element": "H" 
			},
			{
				"x": -2.3435168417,
				"y": 1.4624522303,
				"z": -1.4185049667,
				"element": "H" 
			},
			{
				"x": -1.580201924,
				"y": 0.7285347739,
				"z": -0.0209556049,
				"element": "H" 
			},
			{
				"x": -0.1980225152,
				"y": 2.5120797063,
				"z": -2.0931542626,
				"element": "H" 
			},
			{
				"x": 0.6004719616,
				"y": 1.8513300728,
				"z": -0.6781253252,
				"element": "H" 
			},
			{
				"x": 0.9539930898,
				"y": 0.5935876275,
				"z": -2.911408651,
				"element": "H" 
			},
			{
				"x": -0.7433111695,
				"y": 0.1771958936,
				"z": -2.8656857628,
				"element": "H" 
			},
			{
				"x": 0.0918400507,
				"y": -1.7593110954,
				"z": -1.9951897751,
				"element": "H" 
			},
			{
				"x": -0.0972724884,
				"y": -0.9242706513,
				"z": -0.4797941968,
				"element": "H" 
			},
			{
				"x": 2.4950706038,
				"y": -1.0221835978,
				"z": -2.1178992833,
				"element": "H" 
			},
			{
				"x": 2.0887032499,
				"y": -2.2127327008,
				"z": -0.9008406473,
				"element": "H" 
			},
			{
				"x": 3.7535934025,
				"y": -0.5266969258,
				"z": -0.1777873442,
				"element": "H" 
			},
			{
				"x": 2.5661590783,
				"y": 0.7569914415,
				"z": -0.277041099,
				"element": "H" 
			},
			{
				"x": 2.0928989858,
				"y": -1.696889013,
				"z": 1.5034742867,
				"element": "H" 
			},
			{
				"x": 3.0737411033,
				"y": -0.3275036148,
				"z": 2.0330753649,
				"element": "H" 
			},
			{
				"x": -0.6383628608,
				"y": -0.0425751322,
				"z": 2.6131307634,
				"element": "H" 
			}
		],
		 "valence_orbital": [ 
			{
				"type": "occ",
				"energy": -0.31847,
				"method": "rhf"
			},
			{
				"type": "occ",
				"energy": -0.30369,
				"method": "rhf"
			},
			{
				"type": "occ",
				"energy": -0.30199,
				"method": "rhf"
			},
			{
				"type": "occ",
				"energy": -0.29915,
				"method": "rhf"
			},
			{
				"type": "occ",
				"energy": -0.27629,
				"method": "rhf"
			},
			{
				"type": "unocc",
				"energy": 0.00403,
				"method": "rhf"
			},
			{
				"type": "unocc",
				"energy": 0.06214,
				"method": "rhf"
			},
			{
				"type": "unocc",
				"energy": 0.08864,
				"method": "rhf"
			},
			{
				"type": "unocc",
				"energy": 0.11094,
				"method": "rhf"
			},
			{
				"type": "unocc",
				"energy": 0.11997,
				"method": "rhf"
			}
		],
		"cosmo_sigma_profile": { 
			"-0.025": 0.0,
			"-0.024": 0.0,
			"-0.023": 0.0,
			"-0.022": 0.0,
			"-0.021": 0.0,
			"-0.02": 0.0,
			"-0.019": 0.0,
			"-0.018": 0.0,
			"-0.017": 0.0,
			"-0.016": 0.191702393993,
			"-0.015": 0.709881215527,
			"-0.014": 0.984693961087,
			"-0.013": 0.802786342127,
			"-0.012": 0.616437173059,
			"-0.011": 0.116745951966,
			"-0.01": 1.07957653331,
			"-0.009": 0.874118787372,
			"-0.008": 0.604448845399,
			"-0.007": 0.955764155177,
			"-0.006": 4.02235006923,
			"-0.005": 3.23374500627,
			"-0.004": 6.34867097001,
			"-0.003": 13.3247202868,
			"-0.002": 37.5778949758,
			"-0.001": 38.5038370846,
			"0.0": 38.7278514168,
			"0.001": 33.9068046982,
			"0.002": 20.3899118866,
			"0.003": 6.00470065628,
			"0.004": 2.94951605089,
			"0.005": 4.14825187407,
			"0.006": 3.88686450699,
			"0.007": 2.64037624755,
			"0.008": 2.47929457862,
			"0.009": 3.39136479729,
			"0.01": 1.77797664465,
			"0.011": 2.47864719686,
			"0.012": 1.29703510365,
			"0.013": 0.332223674844,
			"0.014": 0.0,
			"0.015": 0.0,
			"0.016": 0.0,
			"0.017": 0.0,
			"0.018": 0.0,
			"0.019": 0.0,
			"0.02": 0.0,
			"0.021": 0.0,
			"0.022": 0.0,
			"0.023": 0.0,
			"0.024": 0.0,
			"0.025": 0.0
		}
	}
}
