{
	 "smiles": "OC(=O)C1=C(NC(=O)CC2=CC=C(Br)C=C2)C=CS1", 
	 "Tm": 500.15, 
	 "num_atms": 29, 
	 "gaussian": { 
		 "optdone": 1, 
		 "sigma_profile": "yes", 
		 "theory": "DFT", 
		 "functional": "B3LYP", 
		 "basiset": "6-31G**", 
		 "properties": { 
			 "R2extent": 10472.2643, 
			 "electric_dipole_moment_norm": 3.7649113137, 
			 "electric_quadrupole_moment_norm": 24.5966040959, 
			 "total_energy": -3751.43705436, 
			 "HOMO_LUMO_gap": 0.17663, 
			 "cosmo_polarized_energy": -20.88, 
			 "cosmo_cavitation_energy": 38.46, 
			 "cosmo_dispersion_energy": -27.13, 
			 "cosmo_repulsion_energy": 2.04, 
			 "cosmo_total_nonelectrostatic_energy": 13.37, 
			 "SMD_solvation_energy": 6.66 
		},
		"coords": [
			{
				"x": -0.4114868176,
				"y": 2.7575317532,
				"z": 0.2548085277,
				"element": "O" 
			},
			{
				"x": -1.5695209652,
				"y": 2.6704204449,
				"z": -0.4816621998,
				"element": "C" 
			},
			{
				"x": -2.4062345378,
				"y": 3.5377400848,
				"z": -0.3912571157,
				"element": "O" 
			},
			{
				"x": -1.7030569828,
				"y": 1.4821586892,
				"z": -1.3380484738,
				"element": "C" 
			},
			{
				"x": -1.0864499464,
				"y": 0.2352500112,
				"z": -1.2761858991,
				"element": "C" 
			},
			{
				"x": -0.193315866,
				"y": -0.1144595604,
				"z": -0.2505903278,
				"element": "N" 
			},
			{
				"x": 0.6052351684,
				"y": -1.2418509638,
				"z": -0.1976109966,
				"element": "C" 
			},
			{
				"x": 0.6771571196,
				"y": -2.0691233177,
				"z": -1.0905431373,
				"element": "O" 
			},
			{
				"x": 1.3949837291,
				"y": -1.4107085728,
				"z": 1.1119129514,
				"element": "C" 
			},
			{
				"x": 1.7071627502,
				"y": -0.1489792388,
				"z": 1.8843478818,
				"element": "C" 
			},
			{
				"x": 0.9790061989,
				"y": 0.2024424622,
				"z": 3.0288901285,
				"element": "C" 
			},
			{
				"x": 1.251157005,
				"y": 1.3803540182,
				"z": 3.728010565,
				"element": "C" 
			},
			{
				"x": 2.2671211983,
				"y": 2.2187023423,
				"z": 3.2764441925,
				"element": "C" 
			},
			{
				"x": 2.6564880328,
				"y": 3.8257197853,
				"z": 4.2265883386,
				"element": "Br" 
			},
			{
				"x": 3.0100512143,
				"y": 1.8952588542,
				"z": 2.1397370222,
				"element": "C" 
			},
			{
				"x": 2.7252801873,
				"y": 0.716648882,
				"z": 1.4527269696,
				"element": "C" 
			},
			{
				"x": -1.5108392005,
				"y": -0.6434259145,
				"z": -2.3211657309,
				"element": "C" 
			},
			{
				"x": -2.4483845171,
				"y": -0.0585216492,
				"z": -3.1282320926,
				"element": "C" 
			},
			{
				"x": -2.8535595376,
				"y": 1.5459020503,
				"z": -2.6471922239,
				"element": "S" 
			},
			{
				"x": 0.2977093834,
				"y": 2.2545418637,
				"z": -0.1731566956,
				"element": "H" 
			},
			{
				"x": -0.2025536712,
				"y": 0.4703358605,
				"z": 0.5762770431,
				"element": "H" 
			},
			{
				"x": 0.8173537458,
				"y": -2.1048559611,
				"z": 1.7345434035,
				"element": "H" 
			},
			{
				"x": 2.308540654,
				"y": -1.9404778433,
				"z": 0.8283768983,
				"element": "H" 
			},
			{
				"x": 0.1919089815,
				"y": -0.4550666072,
				"z": 3.3896830546,
				"element": "H" 
			},
			{
				"x": 0.6818205729,
				"y": 1.640028164,
				"z": 4.6129891559,
				"element": "H" 
			},
			{
				"x": 3.8025120103,
				"y": 2.5535445664,
				"z": 1.8021910426,
				"element": "H" 
			},
			{
				"x": 3.3109674041,
				"y": 0.4612062702,
				"z": 0.572936451,
				"element": "H" 
			},
			{
				"x": -1.1218711612,
				"y": -1.6428063141,
				"z": -2.4432925569,
				"element": "H" 
			},
			{
				"x": -2.9308821525,
				"y": -0.5003101596,
				"z": -3.9896261764,
				"element": "H" 
			}
		],
		 "valence_orbital": [ 
			{
				"type": "occ",
				"energy": -0.28244,
				"method": "rhf"
			},
			{
				"type": "occ",
				"energy": -0.27916,
				"method": "rhf"
			},
			{
				"type": "occ",
				"energy": -0.25847,
				"method": "rhf"
			},
			{
				"type": "occ",
				"energy": -0.2514,
				"method": "rhf"
			},
			{
				"type": "occ",
				"energy": -0.23962,
				"method": "rhf"
			},
			{
				"type": "unocc",
				"energy": -0.06299,
				"method": "rhf"
			},
			{
				"type": "unocc",
				"energy": -0.03719,
				"method": "rhf"
			},
			{
				"type": "unocc",
				"energy": -0.0337,
				"method": "rhf"
			},
			{
				"type": "unocc",
				"energy": -0.00625,
				"method": "rhf"
			},
			{
				"type": "unocc",
				"energy": -0.00132,
				"method": "rhf"
			}
		],
		"cosmo_sigma_profile": { 
			"-0.025": 0.0,
			"-0.024": 0.0,
			"-0.023": 0.0,
			"-0.022": 0.0,
			"-0.021": 0.0,
			"-0.02": 0.0,
			"-0.019": 0.0,
			"-0.018": 0.0,
			"-0.017": 0.246255912289,
			"-0.016": 0.648966381271,
			"-0.015": 0.323933368513,
			"-0.014": 0.647603951255,
			"-0.013": 0.699614457576,
			"-0.012": 0.864592130617,
			"-0.011": 1.51729017135,
			"-0.01": 3.42474579515,
			"-0.009": 5.31709125711,
			"-0.008": 7.09533640683,
			"-0.007": 16.8021668704,
			"-0.006": 18.7124174922,
			"-0.005": 19.132293152,
			"-0.004": 14.6921297708,
			"-0.003": 18.3652252406,
			"-0.002": 15.7297200141,
			"-0.001": 17.2906853735,
			"0.0": 19.7498721558,
			"0.001": 26.7707713329,
			"0.002": 28.8253455754,
			"0.003": 28.5897099539,
			"0.004": 18.2458731401,
			"0.005": 9.16351366122,
			"0.006": 5.45195799665,
			"0.007": 3.3791956583,
			"0.008": 4.18420198303,
			"0.009": 4.21035334854,
			"0.01": 6.19965333663,
			"0.011": 8.51943742739,
			"0.012": 6.53402098875,
			"0.013": 2.90005549278,
			"0.014": 0.168911834026,
			"0.015": 0.0,
			"0.016": 0.0,
			"0.017": 0.0,
			"0.018": 0.0,
			"0.019": 0.0,
			"0.02": 0.0,
			"0.021": 0.0,
			"0.022": 0.0,
			"0.023": 0.0,
			"0.024": 0.0,
			"0.025": 0.0
		}
	}
}
