{
	 "smiles": "OC(=O)C1=CC=C(C=C1)S(=O)(=O)N1CCC2=C(C1)C=CC=C2", 
	 "Tm": 546.15, 
	 "num_atms": 37, 
	 "gaussian": { 
		 "optdone": 1, 
		 "sigma_profile": "yes", 
		 "theory": "DFT", 
		 "functional": "B3LYP", 
		 "basiset": "6-31G**", 
		 "properties": { 
			 "R2extent": 7055.3277, 
			 "electric_dipole_moment_norm": 5.75451060647, 
			 "electric_quadrupole_moment_norm": 24.1500245155, 
			 "total_energy": -1372.51673524, 
			 "HOMO_LUMO_gap": 0.17708, 
			 "cosmo_polarized_energy": -23.66, 
			 "cosmo_cavitation_energy": 41.13, 
			 "cosmo_dispersion_energy": -28.54, 
			 "cosmo_repulsion_energy": 2.13, 
			 "cosmo_total_nonelectrostatic_energy": 14.72, 
			 "SMD_solvation_energy": 5.82 
		},
		"coords": [
			{
				"x": -1.3609282811,
				"y": 3.7789991545,
				"z": -2.3927207098,
				"element": "O" 
			},
			{
				"x": -1.2039004515,
				"y": 3.802516875,
				"z": -1.0436151,
				"element": "C" 
			},
			{
				"x": -1.7170038407,
				"y": 4.6769078656,
				"z": -0.3873786882,
				"element": "O" 
			},
			{
				"x": -0.378939735,
				"y": 2.702117469,
				"z": -0.4385361065,
				"element": "C" 
			},
			{
				"x": -0.5465447613,
				"y": 2.4461758471,
				"z": 0.929294545,
				"element": "C" 
			},
			{
				"x": 0.1831106027,
				"y": 1.4377696634,
				"z": 1.5516470206,
				"element": "C" 
			},
			{
				"x": 1.0968019828,
				"y": 0.6918321157,
				"z": 0.8004549329,
				"element": "C" 
			},
			{
				"x": 1.3094403247,
				"y": 0.9628800098,
				"z": -0.5525337446,
				"element": "C" 
			},
			{
				"x": 0.5656418957,
				"y": 1.9669335361,
				"z": -1.1690215551,
				"element": "C" 
			},
			{
				"x": 2.0226901706,
				"y": -0.6404130232,
				"z": 1.59487781,
				"element": "S" 
			},
			{
				"x": 1.9507108322,
				"y": -0.3919222014,
				"z": 3.0357251144,
				"element": "O" 
			},
			{
				"x": 3.2913257708,
				"y": -0.7476757807,
				"z": 0.8711813252,
				"element": "O" 
			},
			{
				"x": 1.2172127984,
				"y": -2.0828899554,
				"z": 1.331923045,
				"element": "N" 
			},
			{
				"x": -0.0048716086,
				"y": -2.4028114035,
				"z": 2.0804285183,
				"element": "C" 
			},
			{
				"x": -1.2697816253,
				"y": -2.0284364214,
				"z": 1.2974246085,
				"element": "C" 
			},
			{
				"x": -1.1925296154,
				"y": -2.4303772384,
				"z": -0.1648964397,
				"element": "C" 
			},
			{
				"x": 0.0377497305,
				"y": -2.7408361057,
				"z": -0.7676513571,
				"element": "C" 
			},
			{
				"x": 1.3259060034,
				"y": -2.7630019399,
				"z": 0.0389990607,
				"element": "C" 
			},
			{
				"x": 0.076577311,
				"y": -3.0869130319,
				"z": -2.1249205071,
				"element": "C" 
			},
			{
				"x": -1.086917805,
				"y": -3.1226260198,
				"z": -2.888920314,
				"element": "C" 
			},
			{
				"x": -2.312492052,
				"y": -2.8115979717,
				"z": -2.2937258199,
				"element": "C" 
			},
			{
				"x": -2.3573366044,
				"y": -2.4698040453,
				"z": -0.9446419745,
				"element": "C" 
			},
			{
				"x": -1.0400627846,
				"y": 2.9423426096,
				"z": -2.7567315824,
				"element": "H" 
			},
			{
				"x": -1.2499918442,
				"y": 3.0548954456,
				"z": 1.4868656349,
				"element": "H" 
			},
			{
				"x": 0.0735580418,
				"y": 1.2402168736,
				"z": 2.6122325982,
				"element": "H" 
			},
			{
				"x": 2.0668384154,
				"y": 0.4163089119,
				"z": -1.1026112661,
				"element": "H" 
			},
			{
				"x": 0.7655589641,
				"y": 2.1972707853,
				"z": -2.2124326921,
				"element": "H" 
			},
			{
				"x": 0.0396748715,
				"y": -1.9066168937,
				"z": 3.0506045672,
				"element": "H" 
			},
			{
				"x": 0.0201551248,
				"y": -3.4840380341,
				"z": 2.2663532184,
				"element": "H" 
			},
			{
				"x": -1.4332080115,
				"y": -0.9451343633,
				"z": 1.3655623536,
				"element": "H" 
			},
			{
				"x": -2.1412772351,
				"y": -2.4979868841,
				"z": 1.7694411845,
				"element": "H" 
			},
			{
				"x": 2.1561150673,
				"y": -2.3248333235,
				"z": -0.5183359379,
				"element": "H" 
			},
			{
				"x": 1.6135291985,
				"y": -3.8053958559,
				"z": 0.241904863,
				"element": "H" 
			},
			{
				"x": 1.0323415119,
				"y": -3.330601653,
				"z": -2.5841991394,
				"element": "H" 
			},
			{
				"x": -1.0395131738,
				"y": -3.3894471179,
				"z": -3.9406811505,
				"element": "H" 
			},
			{
				"x": -3.2277022577,
				"y": -2.8388867936,
				"z": -2.8779760558,
				"element": "H" 
			},
			{
				"x": -3.3112369308,
				"y": -2.2303211048,
				"z": -0.4800902598,
				"element": "H" 
			}
		],
		 "valence_orbital": [ 
			{
				"type": "occ",
				"energy": -0.28964,
				"method": "rhf"
			},
			{
				"type": "occ",
				"energy": -0.28276,
				"method": "rhf"
			},
			{
				"type": "occ",
				"energy": -0.26268,
				"method": "rhf"
			},
			{
				"type": "occ",
				"energy": -0.25458,
				"method": "rhf"
			},
			{
				"type": "occ",
				"energy": -0.25301,
				"method": "rhf"
			},
			{
				"type": "unocc",
				"energy": -0.07593,
				"method": "rhf"
			},
			{
				"type": "unocc",
				"energy": -0.04086,
				"method": "rhf"
			},
			{
				"type": "unocc",
				"energy": -0.01914,
				"method": "rhf"
			},
			{
				"type": "unocc",
				"energy": -0.01354,
				"method": "rhf"
			},
			{
				"type": "unocc",
				"energy": 0.01933,
				"method": "rhf"
			}
		],
		"cosmo_sigma_profile": { 
			"-0.025": 0.0,
			"-0.024": 0.0,
			"-0.023": 0.0,
			"-0.022": 0.0,
			"-0.021": 0.0,
			"-0.02": 0.0242377589551,
			"-0.019": 0.439438495435,
			"-0.018": 1.13329087735,
			"-0.017": 0.945572175596,
			"-0.016": 1.51010257902,
			"-0.015": 0.689182154918,
			"-0.014": 1.07204624008,
			"-0.013": 1.22621846044,
			"-0.012": 1.02308591972,
			"-0.011": 1.17312586973,
			"-0.01": 1.43238347825,
			"-0.009": 1.74267510045,
			"-0.008": 3.9119110597,
			"-0.007": 9.0880241936,
			"-0.006": 19.2525156813,
			"-0.005": 27.5014351762,
			"-0.004": 28.1046748065,
			"-0.003": 28.1462657113,
			"-0.002": 22.0385163058,
			"-0.001": 19.9765809402,
			"0.0": 19.2960343339,
			"0.001": 22.5797179857,
			"0.002": 13.0129747518,
			"0.003": 12.7985185754,
			"0.004": 12.1994536298,
			"0.005": 14.5060974014,
			"0.006": 12.5307010634,
			"0.007": 5.97934305711,
			"0.008": 6.90733876439,
			"0.009": 7.12314310287,
			"0.01": 12.2538313472,
			"0.011": 13.1143374066,
			"0.012": 4.78026195679,
			"0.013": 0.607042867246,
			"0.014": 0.0,
			"0.015": 0.0,
			"0.016": 0.0,
			"0.017": 0.0,
			"0.018": 0.0,
			"0.019": 0.0,
			"0.02": 0.0,
			"0.021": 0.0,
			"0.022": 0.0,
			"0.023": 0.0,
			"0.024": 0.0,
			"0.0": 0.0
		}
	}
}
