{
	 "smiles": "CC(SC1=NN=NN1C1CC1)C(O)=O", 
	 "Tm": 390.15, 
	 "num_atms": 24, 
	 "gaussian": { 
		 "optdone": 1, 
		 "sigma_profile": "yes", 
		 "theory": "DFT", 
		 "functional": "B3LYP", 
		 "basiset": "6-31G**", 
		 "properties": { 
			 "R2extent": 3654.3627, 
			 "electric_dipole_moment_norm": 3.85480185483, 
			 "electric_quadrupole_moment_norm": 19.4856405417, 
			 "total_energy": -1040.33337077, 
			 "HOMO_LUMO_gap": 0.21515, 
			 "cosmo_polarized_energy": -17.58, 
			 "cosmo_cavitation_energy": 30.44, 
			 "cosmo_dispersion_energy": -21.66, 
			 "cosmo_repulsion_energy": 1.71, 
			 "cosmo_total_nonelectrostatic_energy": 10.49, 
			 "SMD_solvation_energy": 4.07 
		},
		"coords": [
			{
				"x": -2.2189409637,
				"y": -2.6155815945,
				"z": 0.9000435732,
				"element": "C" 
			},
			{
				"x": -2.1656240447,
				"y": -1.2277447327,
				"z": 0.2701771015,
				"element": "C" 
			},
			{
				"x": -0.4871963948,
				"y": -0.9435328368,
				"z": -0.4924868084,
				"element": "S" 
			},
			{
				"x": -0.1956400999,
				"y": 0.7081427272,
				"z": 0.0282454908,
				"element": "C" 
			},
			{
				"x": -0.8454625715,
				"y": 1.4000950903,
				"z": 0.9468596104,
				"element": "N" 
			},
			{
				"x": -0.2235978057,
				"y": 2.6109123187,
				"z": 1.0040769725,
				"element": "N" 
			},
			{
				"x": 0.757469351,
				"y": 2.6782113449,
				"z": 0.1728706866,
				"element": "N" 
			},
			{
				"x": 0.8068319631,
				"y": 1.4732128649,
				"z": -0.4676147188,
				"element": "N" 
			},
			{
				"x": 1.7453977257,
				"y": 1.1824977098,
				"z": -1.5176930026,
				"element": "C" 
			},
			{
				"x": 3.1396179034,
				"y": 1.724758385,
				"z": -1.3899108648,
				"element": "C" 
			},
			{
				"x": 2.8985615776,
				"y": 0.2471514453,
				"z": -1.226678276,
				"element": "C" 
			},
			{
				"x": -3.2204866477,
				"y": -1.0546217022,
				"z": -0.8153741233,
				"element": "C" 
			},
			{
				"x": -3.3994372596,
				"y": 0.2424015848,
				"z": -1.1397815487,
				"element": "O" 
			},
			{
				"x": -3.8338180007,
				"y": -1.9615162727,
				"z": -1.3327561336,
				"element": "O" 
			},
			{
				"x": -1.4677203849,
				"y": -2.7058705267,
				"z": 1.6872476709,
				"element": "H" 
			},
			{
				"x": -2.0563351689,
				"y": -3.3976117832,
				"z": 0.1543679138,
				"element": "H" 
			},
			{
				"x": -3.2087921196,
				"y": -2.7801284663,
				"z": 1.3353362463,
				"element": "H" 
			},
			{
				"x": -2.2750643354,
				"y": -0.4306744614,
				"z": 1.0097910442,
				"element": "H" 
			},
			{
				"x": 1.2856542826,
				"y": 1.1478187846,
				"z": -2.5014887328,
				"element": "H" 
			},
			{
				"x": 3.6119491528,
				"y": 2.0836100809,
				"z": -2.2980859228,
				"element": "H" 
			},
			{
				"x": 3.3566211344,
				"y": 2.3080355848,
				"z": -0.5025007636,
				"element": "H" 
			},
			{
				"x": 2.9617743174,
				"y": -0.1668425131,
				"z": -0.2255576542,
				"element": "H" 
			},
			{
				"x": 3.1986536116,
				"y": -0.4299933297,
				"z": -2.0195679996,
				"element": "H" 
			},
			{
				"x": -4.0666152227,
				"y": 0.2611702978,
				"z": -1.846419761,
				"element": "H" 
			}
		],
		 "valence_orbital": [ 
			{
				"type": "occ",
				"energy": -0.30179,
				"method": "rhf"
			},
			{
				"type": "occ",
				"energy": -0.29601,
				"method": "rhf"
			},
			{
				"type": "occ",
				"energy": -0.28926,
				"method": "rhf"
			},
			{
				"type": "occ",
				"energy": -0.28099,
				"method": "rhf"
			},
			{
				"type": "occ",
				"energy": -0.24871,
				"method": "rhf"
			},
			{
				"type": "unocc",
				"energy": -0.03356,
				"method": "rhf"
			},
			{
				"type": "unocc",
				"energy": -0.01238,
				"method": "rhf"
			},
			{
				"type": "unocc",
				"energy": 0.01693,
				"method": "rhf"
			},
			{
				"type": "unocc",
				"energy": 0.02441,
				"method": "rhf"
			},
			{
				"type": "unocc",
				"energy": 0.05853,
				"method": "rhf"
			}
		],
		"cosmo_sigma_profile": { 
			"-0.025": 0.0,
			"-0.024": 0.0,
			"-0.023": 0.0,
			"-0.022": 0.0,
			"-0.021": 0.0,
			"-0.02": 0.0,
			"-0.019": 0.497221364982,
			"-0.018": 0.919584445971,
			"-0.017": 1.34166544912,
			"-0.016": 0.462047016687,
			"-0.015": 0.429947416956,
			"-0.014": 0.380370365833,
			"-0.013": 0.913822512495,
			"-0.012": 1.37123223416,
			"-0.011": 0.658376568315,
			"-0.01": 0.267465956323,
			"-0.009": 0.726053242257,
			"-0.008": 4.48083827056,
			"-0.007": 8.80846054136,
			"-0.006": 17.0692727458,
			"-0.005": 18.7607249799,
			"-0.004": 18.102094825,
			"-0.003": 16.6283346906,
			"-0.002": 18.7727392645,
			"-0.001": 20.5848069512,
			"0.0": 14.6170820083,
			"0.001": 10.9840347593,
			"0.002": 10.0202110001,
			"0.003": 10.5812006933,
			"0.004": 9.03705294969,
			"0.005": 6.17196231732,
			"0.006": 6.69039326394,
			"0.007": 6.61167361645,
			"0.008": 8.58920963318,
			"0.009": 7.59629560305,
			"0.01": 7.13316004904,
			"0.011": 9.381190747,
			"0.012": 3.33152805682,
			"0.013": 1.23590274844,
			"0.014": 0.319619187196,
			"0.015": 0.0,
			"0.016": 0.0,
			"0.017": 0.0,
			"0.018": 0.0,
			"0.019": 0.0,
			"0.02": 0.0,
			"0.021": 0.0,
			"0.022": 0.0,
			"0.023": 0.0,
			"0.024": 0.0,
			"0.025": 0.0
		}
	}
}
