{
	 "smiles": "CC1=NNC(SCC=C)=N1", 
	 "Tm": 362.15, 
	 "num_atms": 19, 
	 "gaussian": { 
		 "optdone": 1, 
		 "sigma_profile": "yes", 
		 "theory": "DFT", 
		 "functional": "B3LYP", 
		 "basiset": "6-31G**", 
		 "properties": { 
			 "R2extent": 2525.0753, 
			 "electric_dipole_moment_norm": 1.28675457644, 
			 "electric_quadrupole_moment_norm": 3.45832300255, 
			 "total_energy": -796.472505519, 
			 "HOMO_LUMO_gap": 0.21378, 
			 "cosmo_polarized_energy": -10.69, 
			 "cosmo_cavitation_energy": 25.04, 
			 "cosmo_dispersion_energy": -18.55, 
			 "cosmo_repulsion_energy": 1.49, 
			 "cosmo_total_nonelectrostatic_energy": 7.97, 
			 "SMD_solvation_energy": 2.69 
		},
		"coords": [
			{
				"x": -1.4234199192,
				"y": 2.2290822482,
				"z": 0.5463235812,
				"element": "C" 
			},
			{
				"x": -0.6128139957,
				"y": 1.354573825,
				"z": -0.3530627066,
				"element": "C" 
			},
			{
				"x": 0.4599435798,
				"y": 1.7921914977,
				"z": -0.9934276282,
				"element": "N" 
			},
			{
				"x": 0.8649757849,
				"y": 0.6778661834,
				"z": -1.672963935,
				"element": "N" 
			},
			{
				"x": 0.0288193492,
				"y": -0.3555298522,
				"z": -1.416444051,
				"element": "C" 
			},
			{
				"x": 0.2360731886,
				"y": -1.9497629873,
				"z": -2.1368978059,
				"element": "S" 
			},
			{
				"x": -1.1628001195,
				"y": -2.8422149846,
				"z": -1.3030326038,
				"element": "C" 
			},
			{
				"x": -0.85359435,
				"y": -3.2625156214,
				"z": 0.0996807177,
				"element": "C" 
			},
			{
				"x": -0.7709950525,
				"y": -4.5335206223,
				"z": 0.4943622534,
				"element": "C" 
			},
			{
				"x": -0.9197230821,
				"y": 0.035021008,
				"z": -0.5812806226,
				"element": "N" 
			},
			{
				"x": -0.9944669891,
				"y": 3.2321649014,
				"z": 0.5771203292,
				"element": "H" 
			},
			{
				"x": -2.4576442205,
				"y": 2.2943290213,
				"z": 0.1934889946,
				"element": "H" 
			},
			{
				"x": -1.4497827683,
				"y": 1.8213980978,
				"z": 1.5619509208,
				"element": "H" 
			},
			{
				"x": 1.6822277915,
				"y": 0.7109637229,
				"z": -2.2628475402,
				"element": "H" 
			},
			{
				"x": -1.3568359647,
				"y": -3.7000596049,
				"z": -1.952281299,
				"element": "H" 
			},
			{
				"x": -2.0141753843,
				"y": -2.1588094042,
				"z": -1.341328055,
				"element": "H" 
			},
			{
				"x": -0.7111711006,
				"y": -2.450505367,
				"z": 0.8088325312,
				"element": "H" 
			},
			{
				"x": -0.5622978042,
				"y": -4.7951495091,
				"z": 1.527219284,
				"element": "H" 
			},
			{
				"x": -0.9133189433,
				"y": -5.3600225529,
				"z": -0.1984123651,
				"element": "H" 
			}
		],
		 "valence_orbital": [ 
			{
				"type": "occ",
				"energy": -0.30671,
				"method": "rhf"
			},
			{
				"type": "occ",
				"energy": -0.28048,
				"method": "rhf"
			},
			{
				"type": "occ",
				"energy": -0.27511,
				"method": "rhf"
			},
			{
				"type": "occ",
				"energy": -0.26379,
				"method": "rhf"
			},
			{
				"type": "occ",
				"energy": -0.2245,
				"method": "rhf"
			},
			{
				"type": "unocc",
				"energy": -0.01072,
				"method": "rhf"
			},
			{
				"type": "unocc",
				"energy": 0.0146,
				"method": "rhf"
			},
			{
				"type": "unocc",
				"energy": 0.03547,
				"method": "rhf"
			},
			{
				"type": "unocc",
				"energy": 0.05325,
				"method": "rhf"
			},
			{
				"type": "unocc",
				"energy": 0.07003,
				"method": "rhf"
			}
		],
		"cosmo_sigma_profile": { 
			"-0.025": 0.0,
			"-0.024": 0.0,
			"-0.023": 0.0,
			"-0.022": 0.0,
			"-0.021": 0.0,
			"-0.02": 0.0,
			"-0.019": 0.0,
			"-0.018": 0.230428082936,
			"-0.017": 1.46522792299,
			"-0.016": 1.58243573264,
			"-0.015": 1.42289413898,
			"-0.014": 0.489098858846,
			"-0.013": 0.789780139847,
			"-0.012": 1.51948918043,
			"-0.011": 1.16144204471,
			"-0.01": 0.656225630709,
			"-0.009": 0.635784135304,
			"-0.008": 1.42653430641,
			"-0.007": 3.50174334835,
			"-0.006": 6.0968702264,
			"-0.005": 11.3254212312,
			"-0.004": 15.0038514738,
			"-0.003": 15.0437377866,
			"-0.002": 14.9038689432,
			"-0.001": 16.6747863344,
			"0.0": 18.0493199112,
			"0.001": 16.1424599838,
			"0.002": 12.2468712036,
			"0.003": 13.5321737749,
			"0.004": 8.81941834316,
			"0.005": 9.41212295709,
			"0.006": 8.80569533161,
			"0.007": 5.07627578223,
			"0.008": 2.93992431932,
			"0.009": 2.55087439899,
			"0.01": 1.84915856844,
			"0.011": 2.14972178586,
			"0.012": 1.30969765239,
			"0.013": 2.07749513778,
			"0.014": 1.0505135949,
			"0.015": 0.988082653786,
			"0.016": 0.107924323238,
			"0.017": 0.0,
			"0.018": 0.0,
			"0.019": 0.0,
			"0.02": 0.0,
			"0.021": 0.0,
			"0.022": 0.0,
			"0.023": 0.0,
			"0.024": 0.0,
			"0.025": 0.0
		}
	}
}
