{
	 "smiles": "OC(=O)CN1CCSC1=O", 
	 "Tm": 447.15, 
	 "num_atms": 17, 
	 "gaussian": { 
		 "optdone": 1, 
		 "sigma_profile": "yes", 
		 "theory": "DFT", 
		 "functional": "B3LYP", 
		 "basiset": "6-31G**", 
		 "properties": { 
			 "R2extent": 2314.3669, 
			 "electric_dipole_moment_norm": 5.62605081651, 
			 "electric_quadrupole_moment_norm": 20.1666824054, 
			 "total_energy": -873.385613926, 
			 "HOMO_LUMO_gap": 0.2403, 
			 "cosmo_polarized_energy": -16.12, 
			 "cosmo_cavitation_energy": 22.18, 
			 "cosmo_dispersion_energy": -17.06, 
			 "cosmo_repulsion_energy": 1.34, 
			 "cosmo_total_nonelectrostatic_energy": 6.46, 
			 "SMD_solvation_energy": 4.55 
		},
		"coords": [
			{
				"x": -2.5728612561,
				"y": -1.0754100822,
				"z": -0.643171215,
				"element": "O" 
			},
			{
				"x": -1.6051066725,
				"y": -0.6633581774,
				"z": -1.4757787025,
				"element": "C" 
			},
			{
				"x": -1.737363401,
				"y": -0.6660482761,
				"z": -2.6760883478,
				"element": "O" 
			},
			{
				"x": -0.3038277707,
				"y": -0.1980140575,
				"z": -0.7916266335,
				"element": "C" 
			},
			{
				"x": -0.4705737525,
				"y": 0.9587529488,
				"z": 0.0879493046,
				"element": "N" 
			},
			{
				"x": -0.3647074664,
				"y": 2.3313332545,
				"z": -0.4013307729,
				"element": "C" 
			},
			{
				"x": -0.2238495841,
				"y": 3.2146711782,
				"z": 0.8462824859,
				"element": "C" 
			},
			{
				"x": -1.2177682748,
				"y": 2.379577358,
				"z": 2.1508634395,
				"element": "S" 
			},
			{
				"x": -1.0746652275,
				"y": 0.800736001,
				"z": 1.3015986732,
				"element": "C" 
			},
			{
				"x": -1.48108217,
				"y": -0.2662198183,
				"z": 1.7506027292,
				"element": "O" 
			},
			{
				"x": -2.278825202,
				"y": -1.0033227115,
				"z": 0.293340426,
				"element": "H" 
			},
			{
				"x": 0.4129165571,
				"y": 0.0547370209,
				"z": -1.5728015115,
				"element": "H" 
			},
			{
				"x": 0.0976641627,
				"y": -1.0203358589,
				"z": -0.1896406729,
				"element": "H" 
			},
			{
				"x": -1.2567179239,
				"y": 2.6065595117,
				"z": -0.9807174257,
				"element": "H" 
			},
			{
				"x": 0.5092682772,
				"y": 2.4270567952,
				"z": -1.0522769739,
				"element": "H" 
			},
			{
				"x": 0.8154776001,
				"y": 3.2775757587,
				"z": 1.1770109651,
				"element": "H" 
			},
			{
				"x": -0.6111778955,
				"y": 4.220009155,
				"z": 0.6777842322,
				"element": "H" 
			}
		],
		 "valence_orbital": [ 
			{
				"type": "occ",
				"energy": -0.31114,
				"method": "rhf"
			},
			{
				"type": "occ",
				"energy": -0.30537,
				"method": "rhf"
			},
			{
				"type": "occ",
				"energy": -0.28917,
				"method": "rhf"
			},
			{
				"type": "occ",
				"energy": -0.27607,
				"method": "rhf"
			},
			{
				"type": "occ",
				"energy": -0.25406,
				"method": "rhf"
			},
			{
				"type": "unocc",
				"energy": -0.01376,
				"method": "rhf"
			},
			{
				"type": "unocc",
				"energy": -0.01054,
				"method": "rhf"
			},
			{
				"type": "unocc",
				"energy": 0.00574,
				"method": "rhf"
			},
			{
				"type": "unocc",
				"energy": 0.05622,
				"method": "rhf"
			},
			{
				"type": "unocc",
				"energy": 0.07065,
				"method": "rhf"
			}
		],
		"cosmo_sigma_profile": { 
			"-0.025": 0.0,
			"-0.024": 0.0,
			"-0.023": 0.0,
			"-0.022": 0.0,
			"-0.021": 0.0,
			"-0.02": 0.0,
			"-0.019": 0.0,
			"-0.018": 0.0,
			"-0.017": 0.0,
			"-0.016": 0.0,
			"-0.015": 0.0,
			"-0.014": 0.0,
			"-0.013": 0.0,
			"-0.012": 0.0,
			"-0.011": 0.0,
			"-0.01": 0.444505479371,
			"-0.009": 3.28605151265,
			"-0.008": 8.13945598119,
			"-0.007": 16.0430036912,
			"-0.006": 19.243734147,
			"-0.005": 16.7480170311,
			"-0.004": 11.6210892384,
			"-0.003": 7.57828156377,
			"-0.002": 7.0874294622,
			"-0.001": 6.09659605353,
			"0.0": 6.21958435303,
			"0.001": 6.62831453764,
			"0.002": 7.64034139688,
			"0.003": 7.32393254294,
			"0.004": 5.95680244834,
			"0.005": 6.25302808315,
			"0.006": 5.58438358703,
			"0.007": 4.69463009534,
			"0.008": 3.75946652699,
			"0.009": 5.16633455244,
			"0.01": 5.86347767495,
			"0.011": 8.36483703997,
			"0.012": 6.7549360357,
			"0.013": 1.64794984694,
			"0.014": 0.00219802828068,
			"0.015": 0.0,
			"0.016": 0.0,
			"0.017": 0.0,
			"0.018": 0.0,
			"0.019": 0.0,
			"0.02": 0.0,
			"0.021": 0.0,
			"0.022": 0.0,
			"0.023": 0.0,
			"0.024": 0.0,
			"0.025": 0.0
		}
	}
}
