{
	 "smiles": "CS(=O)(=O)C1=CC=C(OCC(O)=O)C=C1", 
	 "Tm": 446.15, 
	 "num_atms": 25, 
	 "gaussian": { 
		 "optdone": 1, 
		 "sigma_profile": "yes", 
		 "theory": "DFT", 
		 "functional": "B3LYP", 
		 "basiset": "6-31G**", 
		 "properties": { 
			 "R2extent": 6323.0694, 
			 "electric_dipole_moment_norm": 4.96629702495, 
			 "electric_quadrupole_moment_norm": 29.8460610138, 
			 "total_energy": -1123.22329834, 
			 "HOMO_LUMO_gap": 0.21575, 
			 "cosmo_polarized_energy": -23.37, 
			 "cosmo_cavitation_energy": 31.75, 
			 "cosmo_dispersion_energy": -23.4, 
			 "cosmo_repulsion_energy": 1.8, 
			 "cosmo_total_nonelectrostatic_energy": 10.15, 
			 "SMD_solvation_energy": 6.9 
		},
		"coords": [
			{
				"x": -1.6482550293,
				"y": 2.4774815795,
				"z": 2.8606348769,
				"element": "C" 
			},
			{
				"x": -1.2576597577,
				"y": 3.4000669555,
				"z": 1.353370831,
				"element": "S" 
			},
			{
				"x": -0.1748870147,
				"y": 4.340145533,
				"z": 1.6847625889,
				"element": "O" 
			},
			{
				"x": -2.5320168474,
				"y": 3.8713396748,
				"z": 0.7884082633,
				"element": "O" 
			},
			{
				"x": -0.5891332117,
				"y": 2.1563609435,
				"z": 0.2474522316,
				"element": "C" 
			},
			{
				"x": 0.7862492168,
				"y": 1.9379900999,
				"z": 0.2110546218,
				"element": "C" 
			},
			{
				"x": 1.3156145269,
				"y": 0.9716161646,
				"z": -0.6457314623,
				"element": "C" 
			},
			{
				"x": 0.4532305069,
				"y": 0.231239099,
				"z": -1.4659374179,
				"element": "C" 
			},
			{
				"x": 0.8563759729,
				"y": -0.7348590154,
				"z": -2.3371001573,
				"element": "O" 
			},
			{
				"x": 2.2368442796,
				"y": -1.0137510439,
				"z": -2.4461559867,
				"element": "C" 
			},
			{
				"x": 2.5031239327,
				"y": -2.1047543486,
				"z": -3.4695172823,
				"element": "C" 
			},
			{
				"x": 1.4048551381,
				"y": -2.5440640641,
				"z": -4.1034273363,
				"element": "O" 
			},
			{
				"x": 3.6218525673,
				"y": -2.5167317536,
				"z": -3.6771886264,
				"element": "O" 
			},
			{
				"x": -0.9318051941,
				"y": 0.4658546496,
				"z": -1.4326574177,
				"element": "C" 
			},
			{
				"x": -1.4525777724,
				"y": 1.4281200588,
				"z": -0.5807621386,
				"element": "C" 
			},
			{
				"x": -2.3841847725,
				"y": 1.7060402065,
				"z": 2.629935394,
				"element": "H" 
			},
			{
				"x": -0.7328221602,
				"y": 2.0417276803,
				"z": 3.2630679809,
				"element": "H" 
			},
			{
				"x": -2.0652823827,
				"y": 3.20231411,
				"z": 3.5628913767,
				"element": "H" 
			},
			{
				"x": 1.4412291174,
				"y": 2.5363566052,
				"z": 0.8356071629,
				"element": "H" 
			},
			{
				"x": 2.387276787,
				"y": 0.8153250339,
				"z": -0.6695527201,
				"element": "H" 
			},
			{
				"x": 2.8052793668,
				"y": -0.1283404014,
				"z": -2.7623080481,
				"element": "H" 
			},
			{
				"x": 2.6599328463,
				"y": -1.3556378024,
				"z": -1.4921560049,
				"element": "H" 
			},
			{
				"x": 1.7099446883,
				"y": -3.2265185555,
				"z": -4.7259766323,
				"element": "H" 
			},
			{
				"x": -1.5702054464,
				"y": -0.1121969293,
				"z": -2.0919754658,
				"element": "H" 
			},
			{
				"x": -2.5170793578,
				"y": 1.63707552,
				"z": -0.566238631,
				"element": "H" 
			}
		],
		 "valence_orbital": [ 
			{
				"type": "occ",
				"energy": -0.29717,
				"method": "rhf"
			},
			{
				"type": "occ",
				"energy": -0.29315,
				"method": "rhf"
			},
			{
				"type": "occ",
				"energy": -0.28588,
				"method": "rhf"
			},
			{
				"type": "occ",
				"energy": -0.27843,
				"method": "rhf"
			},
			{
				"type": "occ",
				"energy": -0.25082,
				"method": "rhf"
			},
			{
				"type": "unocc",
				"energy": -0.03507,
				"method": "rhf"
			},
			{
				"type": "unocc",
				"energy": -0.02814,
				"method": "rhf"
			},
			{
				"type": "unocc",
				"energy": -0.00869,
				"method": "rhf"
			},
			{
				"type": "unocc",
				"energy": 0.05754,
				"method": "rhf"
			},
			{
				"type": "unocc",
				"energy": 0.0644,
				"method": "rhf"
			}
		],
		"cosmo_sigma_profile": { 
			"-0.025": 0.0,
			"-0.024": 0.0,
			"-0.023": 0.0,
			"-0.022": 0.0,
			"-0.021": 0.0,
			"-0.02": 0.0,
			"-0.019": 0.54101671338,
			"-0.018": 1.01883894938,
			"-0.017": 0.724364533586,
			"-0.016": 0.931769009177,
			"-0.015": 0.798716783289,
			"-0.014": 1.23894717945,
			"-0.013": 0.418927328926,
			"-0.012": 0.491685171087,
			"-0.011": 0.562763838266,
			"-0.01": 0.689005738077,
			"-0.009": 6.29405155249,
			"-0.008": 16.8667354045,
			"-0.007": 16.9469578273,
			"-0.006": 17.511655104,
			"-0.005": 14.4236469449,
			"-0.004": 16.0837119302,
			"-0.003": 12.5772736777,
			"-0.002": 10.0803726338,
			"-0.001": 9.97651131872,
			"0.0": 10.180102483,
			"0.001": 12.7215010173,
			"0.002": 19.0061518708,
			"0.003": 12.3144717114,
			"0.004": 6.21349129847,
			"0.005": 4.35367536116,
			"0.006": 4.18398688004,
			"0.007": 5.40936923102,
			"0.008": 6.27699775703,
			"0.009": 6.77718729467,
			"0.01": 7.66728777961,
			"0.011": 15.1743509636,
			"0.012": 12.6353683985,
			"0.013": 1.83607215625,
			"0.014": 0.0,
			"0.015": 0.0,
			"0.016": 0.0,
			"0.017": 0.0,
			"0.018": 0.0,
			"0.019": 0.0,
			"0.02": 0.0,
			"0.021": 0.0,
			"0.022": 0.0,
			"0.023": 0.0,
			"0.024": 0.0,
			"0.025": 0.0
		}
	}
}
