{
	 "smiles": "CC1=CC=C2OC(=CC(=O)C2=C1)C(O)=O", 
	 "Tm": 541.15, 
	 "num_atms": 23, 
	 "gaussian": { 
		 "optdone": 1, 
		 "sigma_profile": "yes", 
		 "theory": "DFT", 
		 "functional": "B3LYP", 
		 "basiset": "6-31G**", 
		 "properties": { 
			 "R2extent": 4429.9762, 
			 "electric_dipole_moment_norm": 6.52832968071, 
			 "electric_quadrupole_moment_norm": 17.4846273512, 
			 "total_energy": -724.892755314, 
			 "HOMO_LUMO_gap": 0.16419, 
			 "cosmo_polarized_energy": -16.4, 
			 "cosmo_cavitation_energy": 28.32, 
			 "cosmo_dispersion_energy": -20.83, 
			 "cosmo_repulsion_energy": 1.61, 
			 "cosmo_total_nonelectrostatic_energy": 9.1, 
			 "SMD_solvation_energy": 7.13 
		},
		"coords": [
			{
				"x": -1.2761708672,
				"y": 2.0348644681,
				"z": 2.6878366096,
				"element": "C" 
			},
			{
				"x": -0.7018199303,
				"y": 1.7245317578,
				"z": 1.3263385547,
				"element": "C" 
			},
			{
				"x": 0.2197670286,
				"y": 2.6082916484,
				"z": 0.7233345963,
				"element": "C" 
			},
			{
				"x": 0.7658770949,
				"y": 2.3524678369,
				"z": -0.5258382022,
				"element": "C" 
			},
			{
				"x": 0.387486675,
				"y": 1.1869181332,
				"z": -1.1967035144,
				"element": "C" 
			},
			{
				"x": 0.950504775,
				"y": 0.964930462,
				"z": -2.4367733991,
				"element": "O" 
			},
			{
				"x": 0.6083837911,
				"y": -0.1613434848,
				"z": -3.1263563297,
				"element": "C" 
			},
			{
				"x": -0.2574050326,
				"y": -1.0894399573,
				"z": -2.6720975786,
				"element": "C" 
			},
			{
				"x": -0.909710724,
				"y": -0.9467429071,
				"z": -1.366376425,
				"element": "C" 
			},
			{
				"x": -1.703144093,
				"y": -1.7691078581,
				"z": -0.9181147738,
				"element": "O" 
			},
			{
				"x": -0.5226573326,
				"y": 0.2844147049,
				"z": -0.6353721853,
				"element": "C" 
			},
			{
				"x": -1.0567262641,
				"y": 0.5738386126,
				"z": 0.6312264549,
				"element": "C" 
			},
			{
				"x": 1.3018694929,
				"y": -0.2632619864,
				"z": -4.4575324323,
				"element": "C" 
			},
			{
				"x": 2.1347728058,
				"y": 0.7535170526,
				"z": -4.7530676886,
				"element": "O" 
			},
			{
				"x": 1.1227839484,
				"y": -1.1917966623,
				"z": -5.2060191716,
				"element": "O" 
			},
			{
				"x": -0.4861634927,
				"y": 2.1168351082,
				"z": 3.4430030916,
				"element": "H" 
			},
			{
				"x": -1.8175562291,
				"y": 2.9877333491,
				"z": 2.6828761763,
				"element": "H" 
			},
			{
				"x": -1.9706320207,
				"y": 1.2562805924,
				"z": 3.0122988793,
				"element": "H" 
			},
			{
				"x": 0.5107173079,
				"y": 3.5136972304,
				"z": 1.2496579403,
				"element": "H" 
			},
			{
				"x": 1.473833609,
				"y": 3.0327095704,
				"z": -0.9874847992,
				"element": "H" 
			},
			{
				"x": -0.4698686589,
				"y": -1.9536585797,
				"z": -3.2889528021,
				"element": "H" 
			},
			{
				"x": -1.7605558444,
				"y": -0.1420918279,
				"z": 1.0448191238,
				"element": "H" 
			},
			{
				"x": 2.1351139611,
				"y": 1.3929127367,
				"z": -4.0223021249,
				"element": "H" 
			}
		],
		 "valence_orbital": [ 
			{
				"type": "occ",
				"energy": -0.29472,
				"method": "rhf"
			},
			{
				"type": "occ",
				"energy": -0.29016,
				"method": "rhf"
			},
			{
				"type": "occ",
				"energy": -0.27841,
				"method": "rhf"
			},
			{
				"type": "occ",
				"energy": -0.25747,
				"method": "rhf"
			},
			{
				"type": "occ",
				"energy": -0.25293,
				"method": "rhf"
			},
			{
				"type": "unocc",
				"energy": -0.08874,
				"method": "rhf"
			},
			{
				"type": "unocc",
				"energy": -0.04768,
				"method": "rhf"
			},
			{
				"type": "unocc",
				"energy": -0.01855,
				"method": "rhf"
			},
			{
				"type": "unocc",
				"energy": 0.03506,
				"method": "rhf"
			},
			{
				"type": "unocc",
				"energy": 0.06402,
				"method": "rhf"
			}
		],
		"cosmo_sigma_profile": { 
			"-0.025": 0.0,
			"-0.024": 0.0,
			"-0.023": 0.0,
			"-0.022": 0.0,
			"-0.021": 0.0,
			"-0.02": 0.0,
			"-0.019": 0.0,
			"-0.018": 0.0,
			"-0.017": 0.396427489709,
			"-0.016": 0.675511449985,
			"-0.015": 0.634572477275,
			"-0.014": 0.766979524621,
			"-0.013": 0.827062779385,
			"-0.012": 0.971611555883,
			"-0.011": 1.21891911859,
			"-0.01": 1.10770539523,
			"-0.009": 1.47518512318,
			"-0.008": 4.52755810283,
			"-0.007": 7.58360505865,
			"-0.006": 9.92447211206,
			"-0.005": 15.9220448578,
			"-0.004": 17.6672744614,
			"-0.003": 17.5724219933,
			"-0.002": 18.2827025199,
			"-0.001": 21.900785985,
			"0.0": 18.1635315248,
			"0.001": 14.7563827534,
			"0.002": 14.2031722551,
			"0.003": 8.92938103543,
			"0.004": 3.89497101799,
			"0.005": 3.73258764944,
			"0.006": 4.48013325872,
			"0.007": 3.95520358141,
			"0.008": 5.30955183342,
			"0.009": 6.91507732788,
			"0.01": 6.28697232507,
			"0.011": 6.36788491213,
			"0.012": 5.35910621918,
			"0.013": 3.11826574489,
			"0.014": 0.504396171322,
			"0.015": 0.0,
			"0.016": 0.0,
			"0.017": 0.0,
			"0.018": 0.0,
			"0.019": 0.0,
			"0.02": 0.0,
			"0.021": 0.0,
			"0.022": 0.0,
			"0.023": 0.0,
			"0.024": 0.0,
			"0.025": 0.0
		}
	}
}
