{
	 "smiles": "COC1=CC2=C(OCC(=C2)C(O)=O)C=C1", 
	 "Tm": 458.15, 
	 "num_atms": 25, 
	 "gaussian": { 
		 "optdone": 1, 
		 "sigma_profile": "yes", 
		 "theory": "DFT", 
		 "functional": "B3LYP", 
		 "basiset": "6-31G**", 
		 "properties": { 
			 "R2extent": 4703.985, 
			 "electric_dipole_moment_norm": 5.67163988102, 
			 "electric_quadrupole_moment_norm": 15.9341970265, 
			 "total_energy": -726.065836151, 
			 "HOMO_LUMO_gap": 0.13622, 
			 "cosmo_polarized_energy": -16.78, 
			 "cosmo_cavitation_energy": 29.3, 
			 "cosmo_dispersion_energy": -21.9, 
			 "cosmo_repulsion_energy": 1.69, 
			 "cosmo_total_nonelectrostatic_energy": 9.09, 
			 "SMD_solvation_energy": 6.91 
		},
		"coords": [
			{
				"x": -0.1123173401,
				"y": -2.616373934,
				"z": 3.3996855208,
				"element": "C" 
			},
			{
				"x": 0.4129877089,
				"y": -2.5525998214,
				"z": 2.0840087446,
				"element": "O" 
			},
			{
				"x": -0.1033944457,
				"y": -1.620289295,
				"z": 1.227756914,
				"element": "C" 
			},
			{
				"x": 0.4475776905,
				"y": -1.6026707491,
				"z": -0.0573121881,
				"element": "C" 
			},
			{
				"x": 0.0024472716,
				"y": -0.6846047208,
				"z": -1.0135732315,
				"element": "C" 
			},
			{
				"x": -1.014391953,
				"y": 0.2353242692,
				"z": -0.6706939552,
				"element": "C" 
			},
			{
				"x": -1.5165840639,
				"y": 1.1073277297,
				"z": -1.5955909003,
				"element": "O" 
			},
			{
				"x": -0.6183282303,
				"y": 1.5183492945,
				"z": -2.6362447051,
				"element": "C" 
			},
			{
				"x": 0.1639608029,
				"y": 0.3555078054,
				"z": -3.2051405754,
				"element": "C" 
			},
			{
				"x": 0.4922262765,
				"y": -0.6617381253,
				"z": -2.3814851825,
				"element": "C" 
			},
			{
				"x": 0.6476963372,
				"y": 0.5131322937,
				"z": -4.598616276,
				"element": "C" 
			},
			{
				"x": 1.1233194506,
				"y": -0.5914296903,
				"z": -5.2346343817,
				"element": "O" 
			},
			{
				"x": 0.6421805625,
				"y": 1.5856518292,
				"z": -5.163199834,
				"element": "O" 
			},
			{
				"x": -1.5762719424,
				"y": 0.2055497556,
				"z": 0.6004151965,
				"element": "C" 
			},
			{
				"x": -1.1247155523,
				"y": -0.7157762085,
				"z": 1.5505320242,
				"element": "C" 
			},
			{
				"x": 0.0412133908,
				"y": -1.6756368874,
				"z": 3.9446205954,
				"element": "H" 
			},
			{
				"x": -1.1832626598,
				"y": -2.8586790393,
				"z": 3.3987036266,
				"element": "H" 
			},
			{
				"x": 0.4340497292,
				"y": -3.4147043784,
				"z": 3.9041587266,
				"element": "H" 
			},
			{
				"x": 1.2280908011,
				"y": -2.3176600115,
				"z": -0.2997331687,
				"element": "H" 
			},
			{
				"x": -1.2356587744,
				"y": 1.9881776556,
				"z": -3.4024285859,
				"element": "H" 
			},
			{
				"x": 0.0715101242,
				"y": 2.2845277295,
				"z": -2.2473112867,
				"element": "H" 
			},
			{
				"x": 1.1321675222,
				"y": -1.4820013202,
				"z": -2.7024371555,
				"element": "H" 
			},
			{
				"x": 0.8972561687,
				"y": -1.3856877722,
				"z": -4.7311543719,
				"element": "H" 
			},
			{
				"x": -2.3678856847,
				"y": 0.9069938573,
				"z": 0.8414143959,
				"element": "H" 
			},
			{
				"x": -1.5728731904,
				"y": -0.7129902661,
				"z": 2.5368600541,
				"element": "H" 
			}
		],
		 "valence_orbital": [ 
			{
				"type": "occ",
				"energy": -0.31401,
				"method": "rhf"
			},
			{
				"type": "occ",
				"energy": -0.29104,
				"method": "rhf"
			},
			{
				"type": "occ",
				"energy": -0.27536,
				"method": "rhf"
			},
			{
				"type": "occ",
				"energy": -0.24741,
				"method": "rhf"
			},
			{
				"type": "occ",
				"energy": -0.20926,
				"method": "rhf"
			},
			{
				"type": "unocc",
				"energy": -0.07304,
				"method": "rhf"
			},
			{
				"type": "unocc",
				"energy": -0.00318,
				"method": "rhf"
			},
			{
				"type": "unocc",
				"energy": 0.01997,
				"method": "rhf"
			},
			{
				"type": "unocc",
				"energy": 0.05705,
				"method": "rhf"
			},
			{
				"type": "unocc",
				"energy": 0.07099,
				"method": "rhf"
			}
		],
		"cosmo_sigma_profile": { 
			"-0.025": 0.0,
			"-0.024": 0.0,
			"-0.023": 0.0,
			"-0.022": 0.0,
			"-0.021": 0.0,
			"-0.02": 0.0,
			"-0.019": 0.538478360029,
			"-0.018": 0.681337673576,
			"-0.017": 1.05250496348,
			"-0.016": 1.17999378137,
			"-0.015": 1.21689454664,
			"-0.014": 0.52961080545,
			"-0.013": 1.29804667071,
			"-0.012": 1.0199745404,
			"-0.011": 1.14057585308,
			"-0.01": 1.26588913906,
			"-0.009": 1.94750833971,
			"-0.008": 2.8928056584,
			"-0.007": 5.95955640798,
			"-0.006": 13.924387121,
			"-0.005": 18.8871042121,
			"-0.004": 19.1744165795,
			"-0.003": 18.6582707487,
			"-0.002": 13.6750583039,
			"-0.001": 10.839257496,
			"0.0": 10.9640665846,
			"0.001": 13.1625596037,
			"0.002": 13.2553774578,
			"0.003": 18.9824340992,
			"0.004": 13.7100460135,
			"0.005": 6.68718198418,
			"0.006": 4.99663380623,
			"0.007": 4.73634071055,
			"0.008": 5.10826292529,
			"0.009": 6.01314091903,
			"0.01": 7.61836299958,
			"0.011": 5.85492282895,
			"0.012": 4.92411119778,
			"0.013": 1.68100605057,
			"0.014": 0.109719569898,
			"0.015": 0.0,
			"0.016": 0.0,
			"0.017": 0.0,
			"0.018": 0.0,
			"0.019": 0.0,
			"0.02": 0.0,
			"0.021": 0.0,
			"0.022": 0.0,
			"0.023": 0.0,
			"0.024": 0.0,
			"0.025": 0.0
		}
	}
}
