{
	 "smiles": "OC(=O)COC(C1=CC=CC=C1)C1=CC=CC=C1", 
	 "Tm": 355.15, 
	 "num_atms": 32, 
	 "gaussian": { 
		 "optdone": 1, 
		 "sigma_profile": "yes", 
		 "theory": "DFT", 
		 "functional": "B3LYP", 
		 "basiset": "6-31G**", 
		 "properties": { 
			 "R2extent": 5174.0659, 
			 "electric_dipole_moment_norm": 4.10205555667, 
			 "electric_quadrupole_moment_norm": 14.5211828454, 
			 "total_energy": -805.69626049, 
			 "HOMO_LUMO_gap": 0.22114, 
			 "cosmo_polarized_energy": -18.73, 
			 "cosmo_cavitation_energy": 36.01, 
			 "cosmo_dispersion_energy": -24.9, 
			 "cosmo_repulsion_energy": 1.95, 
			 "cosmo_total_nonelectrostatic_energy": 13.06, 
			 "SMD_solvation_energy": 7.14 
		},
		"coords": [
			{
				"x": -4.0524563693,
				"y": 0.5484598097,
				"z": -1.5899360855,
				"element": "O" 
			},
			{
				"x": -3.2388744779,
				"y": -0.1203413533,
				"z": -0.7303440702,
				"element": "C" 
			},
			{
				"x": -3.4951503969,
				"y": -0.1648548949,
				"z": 0.4449971368,
				"element": "O" 
			},
			{
				"x": -2.0227348796,
				"y": -0.7825226048,
				"z": -1.3928082149,
				"element": "C" 
			},
			{
				"x": -1.212848284,
				"y": -1.4762477771,
				"z": -0.4891962225,
				"element": "O" 
			},
			{
				"x": -0.3604486146,
				"y": -0.6358012907,
				"z": 0.3212797187,
				"element": "C" 
			},
			{
				"x": 0.0106784387,
				"y": -1.4652885261,
				"z": 1.5455870183,
				"element": "C" 
			},
			{
				"x": -1.0352394895,
				"y": -1.9910930423,
				"z": 2.3201752127,
				"element": "C" 
			},
			{
				"x": -0.7594775446,
				"y": -2.7426870259,
				"z": 3.459707002,
				"element": "C" 
			},
			{
				"x": 0.5642173353,
				"y": -2.9772681197,
				"z": 3.8445803755,
				"element": "C" 
			},
			{
				"x": 1.6066035738,
				"y": -2.4530346062,
				"z": 3.0822328985,
				"element": "C" 
			},
			{
				"x": 1.3317155347,
				"y": -1.6999204367,
				"z": 1.9367409368,
				"element": "C" 
			},
			{
				"x": 0.8098664049,
				"y": -0.1081812104,
				"z": -0.4922746429,
				"element": "C" 
			},
			{
				"x": 1.2545995911,
				"y": 1.2079436714,
				"z": -0.3215317671,
				"element": "C" 
			},
			{
				"x": 2.3422833581,
				"y": 1.6927068502,
				"z": -1.050986351,
				"element": "C" 
			},
			{
				"x": 2.9917982824,
				"y": 0.8654398266,
				"z": -1.9685195576,
				"element": "C" 
			},
			{
				"x": 2.5496050674,
				"y": -0.447528303,
				"z": -2.1511865908,
				"element": "C" 
			},
			{
				"x": 1.4670229482,
				"y": -0.9318849255,
				"z": -1.4169026224,
				"element": "C" 
			},
			{
				"x": -3.7071068975,
				"y": 0.5016595739,
				"z": -2.4939575795,
				"element": "H" 
			},
			{
				"x": -2.3899494419,
				"y": -1.5152739827,
				"z": -2.1231864962,
				"element": "H" 
			},
			{
				"x": -1.4638714761,
				"y": -0.0149801361,
				"z": -1.9549198505,
				"element": "H" 
			},
			{
				"x": -0.9542833122,
				"y": 0.2191803341,
				"z": 0.6723008491,
				"element": "H" 
			},
			{
				"x": -2.0596819672,
				"y": -1.8010670216,
				"z": 2.0156842499,
				"element": "H" 
			},
			{
				"x": -1.5776903815,
				"y": -3.1444218365,
				"z": 4.0510242431,
				"element": "H" 
			},
			{
				"x": 0.778746663,
				"y": -3.5626733577,
				"z": 4.7343736956,
				"element": "H" 
			},
			{
				"x": 2.6382441398,
				"y": -2.6287115294,
				"z": 3.3743472187,
				"element": "H" 
			},
			{
				"x": 2.1505667289,
				"y": -1.2956495458,
				"z": 1.3512228768,
				"element": "H" 
			},
			{
				"x": 0.7477725275,
				"y": 1.8563620913,
				"z": 0.3895410542,
				"element": "H" 
			},
			{
				"x": 2.6764346256,
				"y": 2.7163352576,
				"z": -0.9072920818,
				"element": "H" 
			},
			{
				"x": 3.8351438723,
				"y": 1.2416494927,
				"z": -2.5405580806,
				"element": "H" 
			},
			{
				"x": 3.0500597095,
				"y": -1.0950674206,
				"z": -2.8658473082,
				"element": "H" 
			},
			{
				"x": 1.1160547316,
				"y": -1.9495379605,
				"z": -1.5573469652,
				"element": "H" 
			}
		],
		 "valence_orbital": [ 
			{
				"type": "occ",
				"energy": -0.26817,
				"method": "rhf"
			},
			{
				"type": "occ",
				"energy": -0.25727,
				"method": "rhf"
			},
			{
				"type": "occ",
				"energy": -0.25174,
				"method": "rhf"
			},
			{
				"type": "occ",
				"energy": -0.24095,
				"method": "rhf"
			},
			{
				"type": "occ",
				"energy": -0.23526,
				"method": "rhf"
			},
			{
				"type": "unocc",
				"energy": -0.01412,
				"method": "rhf"
			},
			{
				"type": "unocc",
				"energy": -0.00977,
				"method": "rhf"
			},
			{
				"type": "unocc",
				"energy": 0.00099,
				"method": "rhf"
			},
			{
				"type": "unocc",
				"energy": 0.00555,
				"method": "rhf"
			},
			{
				"type": "unocc",
				"energy": 0.01088,
				"method": "rhf"
			}
		],
		"cosmo_sigma_profile": { 
			"-0.025": 0.0,
			"-0.024": 0.0,
			"-0.023": 0.0,
			"-0.022": 0.0,
			"-0.021": 0.0557373024563,
			"-0.02": 0.758141412028,
			"-0.019": 0.879807267863,
			"-0.018": 1.21538214419,
			"-0.017": 1.27700315538,
			"-0.016": 0.985396531827,
			"-0.015": 1.20012584351,
			"-0.014": 0.773672043111,
			"-0.013": 1.09719864077,
			"-0.012": 1.52021675052,
			"-0.011": 1.63159144548,
			"-0.01": 1.76323094375,
			"-0.009": 2.46765096186,
			"-0.008": 3.14766225206,
			"-0.007": 4.11433878673,
			"-0.006": 12.0303899742,
			"-0.005": 20.8433817726,
			"-0.004": 22.2826877555,
			"-0.003": 22.7727913324,
			"-0.002": 16.9062456923,
			"-0.001": 17.7904400282,
			"0.0": 13.8310432064,
			"0.001": 19.1496157148,
			"0.002": 18.4851810694,
			"0.003": 17.0744476988,
			"0.004": 19.1565115934,
			"0.005": 18.4954379401,
			"0.006": 14.7156678089,
			"0.007": 5.58944305166,
			"0.008": 5.40557148969,
			"0.009": 5.42574549993,
			"0.01": 6.69687062691,
			"0.011": 4.14690576123,
			"0.012": 2.90046233283,
			"0.013": 0.409586354258,
			"0.014": 0.0,
			"0.015": 0.0,
			"0.016": 0.0,
			"0.017": 0.0,
			"0.018": 0.0,
			"0.019": 0.0,
			"0.02": 0.0,
			"0.021": 0.0,
			"0.022": 0.0,
			"0.023": 0.0,
			"0.024": 0.0,
			"0.025": 0.0
		}
	}
}
