{
	 "smiles": "CS(=O)(=O)C1=C(C#N)C(=CS1)C1=CC=CC=C1", 
	 "Tm": 438.15, 
	 "num_atms": 26, 
	 "gaussian": { 
		 "optdone": 1, 
		 "sigma_profile": "yes", 
		 "theory": "DFT", 
		 "functional": "B3LYP", 
		 "basiset": "6-31G**", 
		 "properties": { 
			 "R2extent": 6327.5425, 
			 "electric_dipole_moment_norm": 5.75697181338, 
			 "electric_quadrupole_moment_norm": 22.2918228445, 
			 "total_energy": -1464.17347779, 
			 "HOMO_LUMO_gap": 0.16859, 
			 "cosmo_polarized_energy": -18.41, 
			 "cosmo_cavitation_energy": 34.31, 
			 "cosmo_dispersion_energy": -24.75, 
			 "cosmo_repulsion_energy": 1.82, 
			 "cosmo_total_nonelectrostatic_energy": 11.38, 
			 "SMD_solvation_energy": 6.2 
		},
		"coords": [
			{
				"x": 2.7636639487,
				"y": 2.919948767,
				"z": -2.2305202402,
				"element": "C" 
			},
			{
				"x": 2.7699782445,
				"y": 1.3253881032,
				"z": -3.0724155513,
				"element": "S" 
			},
			{
				"x": 1.8272533366,
				"y": 1.3954631908,
				"z": -4.1916262528,
				"element": "O" 
			},
			{
				"x": 4.1642229416,
				"y": 0.905503558,
				"z": -3.2726559058,
				"element": "O" 
			},
			{
				"x": 2.1125286034,
				"y": 0.1902363179,
				"z": -1.8455988366,
				"element": "C" 
			},
			{
				"x": 0.8437189306,
				"y": 0.1426937626,
				"z": -1.2924175616,
				"element": "C" 
			},
			{
				"x": -0.1507505014,
				"y": 1.132365627,
				"z": -1.5530338914,
				"element": "C" 
			},
			{
				"x": -0.9408968803,
				"y": 1.965044664,
				"z": -1.7436788607,
				"element": "N" 
			},
			{
				"x": 0.6742253172,
				"y": -0.9602606067,
				"z": -0.3740516364,
				"element": "C" 
			},
			{
				"x": 1.8359198587,
				"y": -1.6933633867,
				"z": -0.2870125768,
				"element": "C" 
			},
			{
				"x": 3.1164404797,
				"y": -1.0902555821,
				"z": -1.2714278161,
				"element": "S" 
			},
			{
				"x": -0.5584712277,
				"y": -1.2748708208,
				"z": 0.3816626205,
				"element": "C" 
			},
			{
				"x": -0.4717631468,
				"y": -1.6939051497,
				"z": 1.7201266412,
				"element": "C" 
			},
			{
				"x": -1.6203969627,
				"y": -2.0232813285,
				"z": 2.436921376,
				"element": "C" 
			},
			{
				"x": -2.8748750187,
				"y": -1.9337089656,
				"z": 1.8302385215,
				"element": "C" 
			},
			{
				"x": -2.972483282,
				"y": -1.5147369956,
				"z": 0.5023360445,
				"element": "C" 
			},
			{
				"x": -1.8249642718,
				"y": -1.1892642306,
				"z": -0.219439572,
				"element": "C" 
			},
			{
				"x": 3.1724777464,
				"y": 3.6354129206,
				"z": -2.9474930339,
				"element": "H" 
			},
			{
				"x": 1.7372372199,
				"y": 3.185691627,
				"z": -1.9740319897,
				"element": "H" 
			},
			{
				"x": 3.4004776803,
				"y": 2.8582032822,
				"z": -1.3472339924,
				"element": "H" 
			},
			{
				"x": 1.9877318704,
				"y": -2.5926815169,
				"z": 0.294219875,
				"element": "H" 
			},
			{
				"x": 0.4995100282,
				"y": -1.7382536681,
				"z": 2.2043312522,
				"element": "H" 
			},
			{
				"x": -1.5360990984,
				"y": -2.3399241774,
				"z": 3.4723572093,
				"element": "H" 
			},
			{
				"x": -3.7706955605,
				"y": -2.1856329904,
				"z": 2.3899758925,
				"element": "H" 
			},
			{
				"x": -3.9438836973,
				"y": -1.4451824184,
				"z": 0.0221881102,
				"element": "H" 
			},
			{
				"x": -1.9143065588,
				"y": -0.8825299828,
				"z": -1.2562198252,
				"element": "H" 
			}
		],
		 "valence_orbital": [ 
			{
				"type": "occ",
				"energy": -0.30708,
				"method": "rhf"
			},
			{
				"type": "occ",
				"energy": -0.29943,
				"method": "rhf"
			},
			{
				"type": "occ",
				"energy": -0.27884,
				"method": "rhf"
			},
			{
				"type": "occ",
				"energy": -0.26646,
				"method": "rhf"
			},
			{
				"type": "occ",
				"energy": -0.2499,
				"method": "rhf"
			},
			{
				"type": "unocc",
				"energy": -0.08131,
				"method": "rhf"
			},
			{
				"type": "unocc",
				"energy": -0.04431,
				"method": "rhf"
			},
			{
				"type": "unocc",
				"energy": -0.0207,
				"method": "rhf"
			},
			{
				"type": "unocc",
				"energy": -0.00955,
				"method": "rhf"
			},
			{
				"type": "unocc",
				"energy": 0.01534,
				"method": "rhf"
			}
		],
		"cosmo_sigma_profile": { 
			"-0.025": 0.0,
			"-0.024": 0.0,
			"-0.023": 0.0,
			"-0.022": 0.0,
			"-0.021": 0.0,
			"-0.02": 0.0,
			"-0.019": 0.0,
			"-0.018": 0.0,
			"-0.017": 0.0,
			"-0.016": 0.0,
			"-0.015": 0.0,
			"-0.014": 0.0,
			"-0.013": 0.0,
			"-0.012": 0.0,
			"-0.011": 0.873178986228,
			"-0.01": 4.23141794411,
			"-0.009": 6.63701129112,
			"-0.008": 5.69695363061,
			"-0.007": 9.98518825487,
			"-0.006": 19.8685633684,
			"-0.005": 21.4065774919,
			"-0.004": 20.0879725953,
			"-0.003": 17.9383007422,
			"-0.002": 17.6594793887,
			"-0.001": 19.5228385744,
			"0.0": 19.8715196929,
			"0.001": 15.4045653039,
			"0.002": 11.3541423414,
			"0.003": 13.1044509965,
			"0.004": 15.1717243001,
			"0.005": 10.9250069474,
			"0.006": 6.23465725795,
			"0.007": 5.55511487903,
			"0.008": 6.92831370835,
			"0.009": 6.1309093132,
			"0.01": 12.5518780587,
			"0.011": 9.930979769,
			"0.012": 2.00522216464,
			"0.013": 0.0397144212033,
			"0.014": 0.0,
			"0.015": 0.0,
			"0.016": 0.0,
			"0.017": 0.0,
			"0.018": 0.0,
			"0.019": 0.0,
			"0.02": 0.0,
			"0.021": 0.0,
			"0.022": 0.0,
			"0.023": 0.0,
			"0.024": 0.0,
			"0.025": 0.0
		}
	}
}
