{
	 "smiles": "NC1=NN=C(N1)N1CCC(CC1)C(O)=O", 
	 "Tm": 538.15, 
	 "num_atms": 28, 
	 "gaussian": { 
		 "optdone": 1, 
		 "sigma_profile": "yes", 
		 "theory": "DFT", 
		 "functional": "B3LYP", 
		 "basiset": "6-31G**", 
		 "properties": { 
			 "R2extent": 4126.4151, 
			 "electric_dipole_moment_norm": 8.36330970669, 
			 "electric_quadrupole_moment_norm": 16.0176485359, 
			 "total_energy": -736.877282337, 
			 "HOMO_LUMO_gap": 0.20744, 
			 "cosmo_polarized_energy": -36.37, 
			 "cosmo_cavitation_energy": 30.75, 
			 "cosmo_dispersion_energy": -22.49, 
			 "cosmo_repulsion_energy": 1.77, 
			 "cosmo_total_nonelectrostatic_energy": 10.03, 
			 "SMD_solvation_energy": 2.09 
		},
		"coords": [
			{
				"x": 0.825869413,
				"y": -3.9550343469,
				"z": -0.6257861569,
				"element": "N" 
			},
			{
				"x": 0.5669581596,
				"y": -2.6423125471,
				"z": -1.0186158016,
				"element": "C" 
			},
			{
				"x": -0.434741416,
				"y": -2.221175223,
				"z": -1.7420111891,
				"element": "N" 
			},
			{
				"x": -0.3654220119,
				"y": -0.8266666884,
				"z": -1.7764011314,
				"element": "N" 
			},
			{
				"x": 0.6993237794,
				"y": -0.4664563209,
				"z": -1.1022985821,
				"element": "C" 
			},
			{
				"x": 1.3309397096,
				"y": -1.5806523535,
				"z": -0.5831782443,
				"element": "N" 
			},
			{
				"x": 1.2169771406,
				"y": 0.8179479908,
				"z": -0.9835241733,
				"element": "N" 
			},
			{
				"x": 1.5858491384,
				"y": 1.2842104073,
				"z": 0.3580069856,
				"element": "C" 
			},
			{
				"x": 0.3840957122,
				"y": 1.8160589932,
				"z": 1.1589465921,
				"element": "C" 
			},
			{
				"x": -0.3497011459,
				"y": 2.9220669961,
				"z": 0.361809072,
				"element": "C" 
			},
			{
				"x": -0.7198254695,
				"y": 2.4099340831,
				"z": -1.0377908068,
				"element": "C" 
			},
			{
				"x": 0.5137258692,
				"y": 1.8517483623,
				"z": -1.7611315192,
				"element": "C" 
			},
			{
				"x": -1.5780289439,
				"y": 3.43345003,
				"z": 1.115451577,
				"element": "C" 
			},
			{
				"x": -1.3208171722,
				"y": 4.0497669399,
				"z": 2.3049048742,
				"element": "O" 
			},
			{
				"x": -2.7150932208,
				"y": 3.3190750047,
				"z": 0.7350741032,
				"element": "O" 
			},
			{
				"x": 0.0812171691,
				"y": -4.5524626069,
				"z": -0.9699270795,
				"element": "H" 
			},
			{
				"x": 1.7174007421,
				"y": -4.3059838198,
				"z": -0.9648994042,
				"element": "H" 
			},
			{
				"x": 2.1660777407,
				"y": -1.6225928538,
				"z": -0.0213161054,
				"element": "H" 
			},
			{
				"x": 2.0765380029,
				"y": 0.475829937,
				"z": 0.90827997,
				"element": "H" 
			},
			{
				"x": 2.3309165247,
				"y": 2.0817700359,
				"z": 0.2373086309,
				"element": "H" 
			},
			{
				"x": 0.7354367679,
				"y": 2.1841188677,
				"z": 2.1318554263,
				"element": "H" 
			},
			{
				"x": -0.3131437168,
				"y": 0.9939522218,
				"z": 1.3605001913,
				"element": "H" 
			},
			{
				"x": 0.3426267251,
				"y": 3.7750978421,
				"z": 0.2591111323,
				"element": "H" 
			},
			{
				"x": -1.1642156736,
				"y": 3.2188436013,
				"z": -1.6266103289,
				"element": "H" 
			},
			{
				"x": -1.4768384786,
				"y": 1.6255257539,
				"z": -0.9527747894,
				"element": "H" 
			},
			{
				"x": 0.2270929966,
				"y": 1.4147812458,
				"z": -2.7182791377,
				"element": "H" 
			},
			{
				"x": 1.2383433126,
				"y": 2.65549883,
				"z": -1.9521417813,
				"element": "H" 
			},
			{
				"x": -0.3669616545,
				"y": 4.0890596174,
				"z": 2.4621376763,
				"element": "H" 
			}
		],
		 "valence_orbital": [ 
			{
				"type": "occ",
				"energy": -0.29199,
				"method": "rhf"
			},
			{
				"type": "occ",
				"energy": -0.27444,
				"method": "rhf"
			},
			{
				"type": "occ",
				"energy": -0.26471,
				"method": "rhf"
			},
			{
				"type": "occ",
				"energy": -0.24338,
				"method": "rhf"
			},
			{
				"type": "occ",
				"energy": -0.19924,
				"method": "rhf"
			},
			{
				"type": "unocc",
				"energy": 0.0082,
				"method": "rhf"
			},
			{
				"type": "unocc",
				"energy": 0.03815,
				"method": "rhf"
			},
			{
				"type": "unocc",
				"energy": 0.04281,
				"method": "rhf"
			},
			{
				"type": "unocc",
				"energy": 0.05226,
				"method": "rhf"
			},
			{
				"type": "unocc",
				"energy": 0.06353,
				"method": "rhf"
			}
		],
		"cosmo_sigma_profile": { 
			"-0.025": 0.0,
			"-0.024": 0.0,
			"-0.023": 0.0,
			"-0.022": 0.0,
			"-0.021": 0.0,
			"-0.02": 0.0,
			"-0.019": 0.293632310023,
			"-0.018": 0.768208280707,
			"-0.017": 1.58843813289,
			"-0.016": 2.61897195869,
			"-0.015": 1.97188324674,
			"-0.014": 3.06015126339,
			"-0.013": 4.23055248604,
			"-0.012": 5.82072470532,
			"-0.011": 5.63500322822,
			"-0.01": 5.30532532637,
			"-0.009": 4.16173594017,
			"-0.008": 3.95038233658,
			"-0.007": 5.78550619856,
			"-0.006": 10.2452296994,
			"-0.005": 14.1744447009,
			"-0.004": 20.2699628924,
			"-0.003": 18.2629437865,
			"-0.002": 12.8557862452,
			"-0.001": 10.0069977124,
			"0.0": 8.4217176097,
			"0.001": 8.56358690938,
			"0.002": 7.93527519233,
			"0.003": 7.87600576529,
			"0.004": 6.14901533502,
			"0.005": 4.8087577626,
			"0.006": 6.59765831069,
			"0.007": 5.26847535719,
			"0.008": 6.82238914542,
			"0.009": 4.78619057008,
			"0.01": 7.98623493945,
			"0.011": 7.77146387944,
			"0.012": 8.53212230963,
			"0.013": 4.46101239489,
			"0.014": 3.472887315,
			"0.015": 4.52265067629,
			"0.016": 2.25155045637,
			"0.017": 2.3582605988,
			"0.018": 1.01459466524,
			"0.019": 0.0365266386475,
			"0.02": 0.0,
			"0.021": 0.0,
			"0.022": 0.0,
			"0.023": 0.0,
			"0.024": 0.0,
			"0.025": 0.0
		}
	}
}
