{
	 "smiles": "O=C(CC#N)C1=CNC2=C1C=CC=C2", 
	 "Tm": 517.15, 
	 "num_atms": 22, 
	 "gaussian": { 
		 "optdone": 1, 
		 "sigma_profile": "yes", 
		 "theory": "DFT", 
		 "functional": "B3LYP", 
		 "basiset": "6-31G**", 
		 "properties": { 
			 "R2extent": 2774.1066, 
			 "electric_dipole_moment_norm": 5.67613282614, 
			 "electric_quadrupole_moment_norm": 15.163588567, 
			 "total_energy": -608.702570106, 
			 "HOMO_LUMO_gap": 0.17138, 
			 "cosmo_polarized_energy": -18.71, 
			 "cosmo_cavitation_energy": 27.33, 
			 "cosmo_dispersion_energy": -19.34, 
			 "cosmo_repulsion_energy": 1.51, 
			 "cosmo_total_nonelectrostatic_energy": 9.5, 
			 "SMD_solvation_energy": 6.36 
		},
		"coords": [
			{
				"x": -3.1413564844,
				"y": 1.9306314924,
				"z": -0.1801426911,
				"element": "O" 
			},
			{
				"x": -1.9328601549,
				"y": 1.7781847415,
				"z": -0.2904559959,
				"element": "C" 
			},
			{
				"x": -1.0837668953,
				"y": 2.9826231759,
				"z": -0.7688598717,
				"element": "C" 
			},
			{
				"x": -0.2316474144,
				"y": 3.537725113,
				"z": 0.2821064759,
				"element": "C" 
			},
			{
				"x": 0.439464079,
				"y": 3.9742676319,
				"z": 1.1229960922,
				"element": "N" 
			},
			{
				"x": -1.2748256211,
				"y": 0.500158795,
				"z": -0.0235975861,
				"element": "C" 
			},
			{
				"x": -2.0208801974,
				"y": -0.598130825,
				"z": 0.3747565176,
				"element": "C" 
			},
			{
				"x": -1.2103828474,
				"y": -1.6784627379,
				"z": 0.5274543854,
				"element": "N" 
			},
			{
				"x": 0.1011564008,
				"y": -1.327257558,
				"z": 0.2330519172,
				"element": "C" 
			},
			{
				"x": 0.1059433775,
				"y": 0.0504057501,
				"z": -0.1177060705,
				"element": "C" 
			},
			{
				"x": 1.3399997179,
				"y": 0.6387689185,
				"z": -0.450201065,
				"element": "C" 
			},
			{
				"x": 2.4911032924,
				"y": -0.1405262619,
				"z": -0.4337204202,
				"element": "C" 
			},
			{
				"x": 2.4520526844,
				"y": -1.5042925922,
				"z": -0.0881635473,
				"element": "C" 
			},
			{
				"x": 1.2525417574,
				"y": -2.1168382092,
				"z": 0.2538644663,
				"element": "C" 
			},
			{
				"x": -1.7879702065,
				"y": 3.7485390962,
				"z": -1.1044617919,
				"element": "H" 
			},
			{
				"x": -0.4565988356,
				"y": 2.6892474414,
				"z": -1.6190653254,
				"element": "H" 
			},
			{
				"x": -3.0856147827,
				"y": -0.6477879279,
				"z": 0.5481328254,
				"element": "H" 
			},
			{
				"x": -1.514830251,
				"y": -2.5960718315,
				"z": 0.8133196983,
				"element": "H" 
			},
			{
				"x": 1.4160713624,
				"y": 1.6913928267,
				"z": -0.6957761622,
				"element": "H" 
			},
			{
				"x": 3.4433420593,
				"y": 0.315899822,
				"z": -0.686013154,
				"element": "H" 
			},
			{
				"x": 3.3702996463,
				"y": -2.0833400357,
				"z": -0.0833298702,
				"element": "H" 
			},
			{
				"x": 1.2115593133,
				"y": -3.1671368255,
				"z": 0.5277111732,
				"element": "H" 
			}
		],
		 "valence_orbital": [ 
			{
				"type": "occ",
				"energy": -0.32427,
				"method": "rhf"
			},
			{
				"type": "occ",
				"energy": -0.29177,
				"method": "rhf"
			},
			{
				"type": "occ",
				"energy": -0.25755,
				"method": "rhf"
			},
			{
				"type": "occ",
				"energy": -0.2423,
				"method": "rhf"
			},
			{
				"type": "occ",
				"energy": -0.22564,
				"method": "rhf"
			},
			{
				"type": "unocc",
				"energy": -0.05426,
				"method": "rhf"
			},
			{
				"type": "unocc",
				"energy": -0.01693,
				"method": "rhf"
			},
			{
				"type": "unocc",
				"energy": 0.00972,
				"method": "rhf"
			},
			{
				"type": "unocc",
				"energy": 0.03691,
				"method": "rhf"
			},
			{
				"type": "unocc",
				"energy": 0.03826,
				"method": "rhf"
			}
		],
		"cosmo_sigma_profile": { 
			"-0.025": 0.0,
			"-0.024": 0.0,
			"-0.023": 0.0,
			"-0.022": 0.0,
			"-0.021": 0.0,
			"-0.02": 0.0,
			"-0.019": 0.0,
			"-0.018": 0.00154662883332,
			"-0.017": 1.45298649454,
			"-0.016": 1.45967629387,
			"-0.015": 1.77794755875,
			"-0.014": 0.958343288775,
			"-0.013": 1.04023270838,
			"-0.012": 1.90254013466,
			"-0.011": 1.21950038644,
			"-0.01": 3.29652909858,
			"-0.009": 7.53292404358,
			"-0.008": 7.19166246808,
			"-0.007": 8.01686752233,
			"-0.006": 10.4448174126,
			"-0.005": 11.853989685,
			"-0.004": 11.4089753962,
			"-0.003": 12.4792253363,
			"-0.002": 9.42079640749,
			"-0.001": 8.51614797935,
			"0.0": 9.40481265246,
			"0.001": 13.8936426197,
			"0.002": 16.7548116355,
			"0.003": 13.6309970507,
			"0.004": 12.760923,
			"0.005": 13.1240650438,
			"0.006": 8.26704389527,
			"0.007": 3.79740278338,
			"0.008": 4.20209645644,
			"0.009": 5.14273023983,
			"0.01": 5.07876517556,
			"0.011": 5.43814125312,
			"0.012": 6.69488170355,
			"0.013": 2.29562136349,
			"0.014": 0.0300550543885,
			"0.015": 0.0,
			"0.016": 0.0,
			"0.017": 0.0,
			"0.018": 0.0,
			"0.019": 0.0,
			"0.02": 0.0,
			"0.021": 0.0,
			"0.022": 0.0,
			"0.023": 0.0,
			"0.024": 0.0,
			"0.025": 0.0
		}
	}
}
