{
	 "smiles": "OC(=O)CSC1=NN=C(O1)C1=CC=CO1", 
	 "Tm": 427.15, 
	 "num_atms": 21, 
	 "gaussian": { 
		 "optdone": 1, 
		 "sigma_profile": "yes", 
		 "theory": "DFT", 
		 "functional": "B3LYP", 
		 "basiset": "6-31G**", 
		 "properties": { 
			 "R2extent": 4541.3068, 
			 "electric_dipole_moment_norm": 5.74522059977, 
			 "electric_quadrupole_moment_norm": 20.2360164385, 
			 "total_energy": -1116.98980564, 
			 "HOMO_LUMO_gap": 0.17224, 
			 "cosmo_polarized_energy": -19.55, 
			 "cosmo_cavitation_energy": 29.63, 
			 "cosmo_dispersion_energy": -21.49, 
			 "cosmo_repulsion_energy": 1.66, 
			 "cosmo_total_nonelectrostatic_energy": 9.8, 
			 "SMD_solvation_energy": 5.12 
		},
		"coords": [
			{
				"x": -1.8960725994,
				"y": -0.7808358462,
				"z": -4.6769883,
				"element": "O" 
			},
			{
				"x": -1.4635897576,
				"y": -1.4716797399,
				"z": -3.5974181016,
				"element": "C" 
			},
			{
				"x": -2.1994966475,
				"y": -1.9451452922,
				"z": -2.767124627,
				"element": "O" 
			},
			{
				"x": 0.0576801545,
				"y": -1.5163381927,
				"z": -3.5927894897,
				"element": "C" 
			},
			{
				"x": 0.7818091817,
				"y": -2.7446712885,
				"z": -2.4569275268,
				"element": "S" 
			},
			{
				"x": 0.3283070392,
				"y": -2.0569411639,
				"z": -0.9108903508,
				"element": "C" 
			},
			{
				"x": 0.2784213801,
				"y": -2.6814531625,
				"z": 0.2235283485,
				"element": "N" 
			},
			{
				"x": -0.0271088357,
				"y": -1.7162469287,
				"z": 1.1831252957,
				"element": "N" 
			},
			{
				"x": -0.1519913529,
				"y": -0.5898080949,
				"z": 0.5454812851,
				"element": "C" 
			},
			{
				"x": 0.0736139335,
				"y": -0.7199573954,
				"z": -0.8002938963,
				"element": "O" 
			},
			{
				"x": -0.4952423602,
				"y": 0.7005414558,
				"z": 1.0821417784,
				"element": "C" 
			},
			{
				"x": -0.8017882379,
				"y": 1.1047580717,
				"z": 2.3548645947,
				"element": "C" 
			},
			{
				"x": -1.0466355208,
				"y": 2.5084587731,
				"z": 2.2740585292,
				"element": "C" 
			},
			{
				"x": -0.8727092157,
				"y": 2.8524902319,
				"z": 0.9654350251,
				"element": "C" 
			},
			{
				"x": -0.5352978725,
				"y": 1.7629799341,
				"z": 0.2226876927,
				"element": "O" 
			},
			{
				"x": -2.8660943848,
				"y": -0.7519471028,
				"z": -4.61501017,
				"element": "H" 
			},
			{
				"x": 0.4365255818,
				"y": -0.5161789011,
				"z": -3.3650194013,
				"element": "H" 
			},
			{
				"x": 0.4218298943,
				"y": -1.7817000071,
				"z": -4.588595056,
				"element": "H" 
			},
			{
				"x": -0.843886421,
				"y": 0.4683366222,
				"z": 3.2259808,
				"element": "H" 
			},
			{
				"x": -1.3172742111,
				"y": 3.1716523239,
				"z": 3.0826055239,
				"element": "H" 
			},
			{
				"x": -0.9474997482,
				"y": 3.7823857033,
				"z": 0.4237480459,
				"element": "H" 
			}
		],
		 "valence_orbital": [ 
			{
				"type": "occ",
				"energy": -0.29782,
				"method": "rhf"
			},
			{
				"type": "occ",
				"energy": -0.29524,
				"method": "rhf"
			},
			{
				"type": "occ",
				"energy": -0.27843,
				"method": "rhf"
			},
			{
				"type": "occ",
				"energy": -0.26551,
				"method": "rhf"
			},
			{
				"type": "occ",
				"energy": -0.21998,
				"method": "rhf"
			},
			{
				"type": "unocc",
				"energy": -0.04774,
				"method": "rhf"
			},
			{
				"type": "unocc",
				"energy": -0.01325,
				"method": "rhf"
			},
			{
				"type": "unocc",
				"energy": 0.00263,
				"method": "rhf"
			},
			{
				"type": "unocc",
				"energy": 0.02258,
				"method": "rhf"
			},
			{
				"type": "unocc",
				"energy": 0.03732,
				"method": "rhf"
			}
		],
		"cosmo_sigma_profile": { 
			"-0.025": 0.0,
			"-0.024": 0.0,
			"-0.023": 0.0,
			"-0.022": 0.0,
			"-0.021": 0.0,
			"-0.02": 0.0345361551656,
			"-0.019": 0.650115612496,
			"-0.018": 0.717128956396,
			"-0.017": 1.02629105988,
			"-0.016": 1.20536794078,
			"-0.015": 0.587132584592,
			"-0.014": 0.692117339054,
			"-0.013": 0.251702045366,
			"-0.012": 0.742486792838,
			"-0.011": 2.09607501845,
			"-0.01": 5.14611813798,
			"-0.009": 6.63276763211,
			"-0.008": 9.15448461604,
			"-0.007": 9.67176026799,
			"-0.006": 9.16809214186,
			"-0.005": 10.7652569054,
			"-0.004": 10.7053468954,
			"-0.003": 13.5053771769,
			"-0.002": 12.6113131885,
			"-0.001": 14.4436296809,
			"0.0": 16.9373533589,
			"0.001": 18.1325990043,
			"0.002": 17.0664974168,
			"0.003": 14.9117123804,
			"0.004": 10.196554509,
			"0.005": 9.25348726588,
			"0.006": 6.65401128582,
			"0.007": 6.51309666153,
			"0.008": 5.45100869853,
			"0.009": 5.60879373777,
			"0.01": 6.02909140816,
			"0.011": 6.97759772036,
			"0.012": 2.66320918613,
			"0.013": 2.47855361147,
			"0.014": 2.07618395652,
			"0.015": 0.223950617455,
			"0.016": 0.0,
			"0.017": 0.0,
			"0.018": 0.0,
			"0.019": 0.0,
			"0.02": 0.0,
			"0.021": 0.0,
			"0.022": 0.0,
			"0.023": 0.0,
			"0.024": 0.0,
			"0.025": 0.0
		}
	}
}
