{
	 "smiles": "OC(=O)CNS(=O)(=O)C1=CNC2=C1C=CC=N2", 
	 "Tm": 547.15, 
	 "num_atms": 26, 
	 "gaussian": { 
		 "optdone": 1, 
		 "sigma_profile": "yes", 
		 "theory": "DFT", 
		 "functional": "B3LYP", 
		 "basiset": "6-31G**", 
		 "properties": { 
			 "R2extent": 4992.5747, 
			 "electric_dipole_moment_norm": 5.1614536838, 
			 "electric_quadrupole_moment_norm": 22.0569969937, 
			 "total_energy": -1211.66173721, 
			 "HOMO_LUMO_gap": 0.19011, 
			 "cosmo_polarized_energy": -24.89, 
			 "cosmo_cavitation_energy": 32.47, 
			 "cosmo_dispersion_energy": -22.93, 
			 "cosmo_repulsion_energy": 1.74, 
			 "cosmo_total_nonelectrostatic_energy": 11.28, 
			 "SMD_solvation_energy": 3.36 
		},
		"coords": [
			{
				"x": 0.1179151132,
				"y": 3.9437549441,
				"z": -1.2738658159,
				"element": "O" 
			},
			{
				"x": -1.0710084211,
				"y": 3.3268820256,
				"z": -1.4164741448,
				"element": "C" 
			},
			{
				"x": -1.9734130738,
				"y": 3.4071996957,
				"z": -0.6124970378,
				"element": "O" 
			},
			{
				"x": -1.1527435207,
				"y": 2.5718425355,
				"z": -2.7357473591,
				"element": "C" 
			},
			{
				"x": -2.3384788978,
				"y": 1.738643944,
				"z": -2.8361608405,
				"element": "N" 
			},
			{
				"x": -2.2212024062,
				"y": 0.0934927753,
				"z": -2.4549919263,
				"element": "S" 
			},
			{
				"x": -3.5837936772,
				"y": -0.4108127714,
				"z": -2.6194381749,
				"element": "O" 
			},
			{
				"x": -1.0771705805,
				"y": -0.4053931495,
				"z": -3.2221529412,
				"element": "O" 
			},
			{
				"x": -1.795655096,
				"y": -0.0622202386,
				"z": -0.7535673766,
				"element": "C" 
			},
			{
				"x": -2.7140878848,
				"y": -0.0918058143,
				"z": 0.2733704219,
				"element": "C" 
			},
			{
				"x": -2.0506616607,
				"y": -0.1594465712,
				"z": 1.4680012696,
				"element": "N" 
			},
			{
				"x": -0.6869202159,
				"y": -0.1774623491,
				"z": 1.2392670109,
				"element": "C" 
			},
			{
				"x": -0.4824760389,
				"y": -0.1196378836,
				"z": -0.1667402154,
				"element": "C" 
			},
			{
				"x": 0.8449817445,
				"y": -0.1663568357,
				"z": -0.6138374119,
				"element": "C" 
			},
			{
				"x": 1.8391692497,
				"y": -0.2396724936,
				"z": 0.3566561431,
				"element": "C" 
			},
			{
				"x": 1.4986190589,
				"y": -0.2757248747,
				"z": 1.7224567088,
				"element": "C" 
			},
			{
				"x": 0.244400226,
				"y": -0.2512974694,
				"z": 2.1852285954,
				"element": "N" 
			},
			{
				"x": 0.0835960929,
				"y": 4.4320641249,
				"z": -0.4336808589,
				"element": "H" 
			},
			{
				"x": -1.1557579817,
				"y": 3.3163626084,
				"z": -3.5427792985,
				"element": "H" 
			},
			{
				"x": -0.2579765197,
				"y": 1.964006269,
				"z": -2.8894247155,
				"element": "H" 
			},
			{
				"x": -3.1473507647,
				"y": 2.1452868059,
				"z": -2.3708375268,
				"element": "H" 
			},
			{
				"x": -3.7923106536,
				"y": -0.0808724483,
				"z": 0.2177364043,
				"element": "H" 
			},
			{
				"x": -2.4708145925,
				"y": -0.2110192362,
				"z": 2.3837745731,
				"element": "H" 
			},
			{
				"x": 1.0764537311,
				"y": -0.1645107741,
				"z": -1.6735514285,
				"element": "H" 
			},
			{
				"x": 2.8849947309,
				"y": -0.2796737623,
				"z": 0.0703771962,
				"element": "H" 
			},
			{
				"x": 2.2822920385,
				"y": -0.3342290566,
				"z": 2.4745787492,
				"element": "H" 
			}
		],
		 "valence_orbital": [ 
			{
				"type": "occ",
				"energy": -0.30142,
				"method": "rhf"
			},
			{
				"type": "occ",
				"energy": -0.28988,
				"method": "rhf"
			},
			{
				"type": "occ",
				"energy": -0.27336,
				"method": "rhf"
			},
			{
				"type": "occ",
				"energy": -0.25398,
				"method": "rhf"
			},
			{
				"type": "occ",
				"energy": -0.23758,
				"method": "rhf"
			},
			{
				"type": "unocc",
				"energy": -0.04747,
				"method": "rhf"
			},
			{
				"type": "unocc",
				"energy": -0.01139,
				"method": "rhf"
			},
			{
				"type": "unocc",
				"energy": 0.00106,
				"method": "rhf"
			},
			{
				"type": "unocc",
				"energy": 0.0075,
				"method": "rhf"
			},
			{
				"type": "unocc",
				"energy": 0.05834,
				"method": "rhf"
			}
		],
		"cosmo_sigma_profile": { 
			"-0.025": 0.0,
			"-0.024": 0.0,
			"-0.023": 0.0,
			"-0.022": 0.0,
			"-0.021": 0.0,
			"-0.02": 0.0,
			"-0.019": 0.447350252526,
			"-0.018": 1.37845730159,
			"-0.017": 2.0014368925,
			"-0.016": 2.27345197558,
			"-0.015": 2.26341174641,
			"-0.014": 1.47528831876,
			"-0.013": 1.87256341454,
			"-0.012": 3.78847178089,
			"-0.011": 3.6508634869,
			"-0.01": 3.99803168311,
			"-0.009": 5.18688850728,
			"-0.008": 7.82029571929,
			"-0.007": 9.3730155885,
			"-0.006": 14.6497723825,
			"-0.005": 14.6712743545,
			"-0.004": 10.4991613592,
			"-0.003": 9.87242182058,
			"-0.002": 10.2039698151,
			"-0.001": 10.4230799491,
			"0.0": 15.4273206598,
			"0.001": 16.1216847445,
			"0.002": 18.3877967297,
			"0.003": 14.6417314143,
			"0.004": 8.28829274315,
			"0.005": 8.39280945223,
			"0.006": 7.89674177245,
			"0.007": 8.26467277329,
			"0.008": 8.6385256748,
			"0.009": 7.1488854264,
			"0.01": 10.6933463572,
			"0.011": 12.3921726028,
			"0.012": 5.06167255562,
			"0.013": 0.940049524575,
			"0.014": 0.693896121705,
			"0.015": 0.654791914548,
			"0.016": 0.039424392042,
			"0.017": 0.0,
			"0.018": 0.0,
			"0.019": 0.0,
			"0.02": 0.0,
			"0.021": 0.0,
			"0.022": 0.0,
			"0.023": 0.0,
			"0.024": 0.0,
			"0.025": 0.0
		}
	}
}
