{
	 "smiles": "COC1=CC2=C(C=C1O)C(CC1=CC(OC)=C(OC)C=C1)N(C)CC2", 
	 "Tm": 400.15, 
	 "num_atms": 50, 
	 "gaussian": { 
		 "optdone": 1, 
		 "sigma_profile": "yes", 
		 "theory": "DFT", 
		 "functional": "B3LYP", 
		 "basiset": "6-31G**", 
		 "properties": { 
			 "R2extent": 13579.3787, 
			 "electric_dipole_moment_norm": 3.25264153727, 
			 "electric_quadrupole_moment_norm": 24.1029274541, 
			 "total_energy": -1132.78962559, 
			 "HOMO_LUMO_gap": 0.20279, 
			 "cosmo_polarized_energy": -14.72, 
			 "cosmo_cavitation_energy": 50.04, 
			 "cosmo_dispersion_energy": -34.88, 
			 "cosmo_repulsion_energy": 2.65, 
			 "cosmo_total_nonelectrostatic_energy": 17.81, 
			 "SMD_solvation_energy": 8.33 
		},
		"coords": [
			{
				"x": -0.4391657952,
				"y": -5.9966001782,
				"z": -4.6533518053,
				"element": "C" 
			},
			{
				"x": 0.1209760202,
				"y": -5.828553668,
				"z": -3.3612186676,
				"element": "O" 
			},
			{
				"x": 0.2005800183,
				"y": -4.5532986423,
				"z": -2.8501748087,
				"element": "C" 
			},
			{
				"x": -0.2108678374,
				"y": -3.3862215092,
				"z": -3.479264042,
				"element": "C" 
			},
			{
				"x": -0.0718464778,
				"y": -2.1370283009,
				"z": -2.8492882621,
				"element": "C" 
			},
			{
				"x": 0.4847176586,
				"y": -2.0663568033,
				"z": -1.5601832135,
				"element": "C" 
			},
			{
				"x": 0.9011323534,
				"y": -3.2559197383,
				"z": -0.9378515778,
				"element": "C" 
			},
			{
				"x": 0.7645028059,
				"y": -4.4878941685,
				"z": -1.5621625338,
				"element": "C" 
			},
			{
				"x": 1.1740902476,
				"y": -5.6258514307,
				"z": -0.931489855,
				"element": "O" 
			},
			{
				"x": 0.6941074299,
				"y": -0.6898839546,
				"z": -0.899416332,
				"element": "C" 
			},
			{
				"x": 0.6930706307,
				"y": -0.7356644587,
				"z": 0.6449113058,
				"element": "C" 
			},
			{
				"x": 0.9247345813,
				"y": 0.6014029752,
				"z": 1.3234002925,
				"element": "C" 
			},
			{
				"x": 0.0221181178,
				"y": 1.0762025525,
				"z": 2.2816721647,
				"element": "C" 
			},
			{
				"x": 0.2311173482,
				"y": 2.2842553879,
				"z": 2.9501298434,
				"element": "C" 
			},
			{
				"x": -0.685207646,
				"y": 2.6820121648,
				"z": 3.9016293839,
				"element": "O" 
			},
			{
				"x": -1.4431142672,
				"y": 3.8450775441,
				"z": 3.5510763055,
				"element": "C" 
			},
			{
				"x": 1.3820957986,
				"y": 3.0414111041,
				"z": 2.6748678819,
				"element": "C" 
			},
			{
				"x": 1.6245475267,
				"y": 4.2468890028,
				"z": 3.3006405715,
				"element": "O" 
			},
			{
				"x": 1.9487643158,
				"y": 4.1420000136,
				"z": 4.6910226029,
				"element": "C" 
			},
			{
				"x": 2.2843437719,
				"y": 2.5786577493,
				"z": 1.7152620592,
				"element": "C" 
			},
			{
				"x": 2.0587205911,
				"y": 1.3774291711,
				"z": 1.0463179865,
				"element": "C" 
			},
			{
				"x": -0.2177592037,
				"y": 0.3385431452,
				"z": -1.4232790852,
				"element": "N" 
			},
			{
				"x": -1.6025652386,
				"y": 0.228258941,
				"z": -0.9718449078,
				"element": "C" 
			},
			{
				"x": -0.1009683644,
				"y": 0.3971048796,
				"z": -2.8791229628,
				"element": "C" 
			},
			{
				"x": -0.5598888529,
				"y": -0.8955295468,
				"z": -3.5752242158,
				"element": "C" 
			},
			{
				"x": -0.411222283,
				"y": -7.0671333179,
				"z": -4.8625469245,
				"element": "H" 
			},
			{
				"x": -1.4788669728,
				"y": -5.6471514935,
				"z": -4.6873698469,
				"element": "H" 
			},
			{
				"x": 0.1437072794,
				"y": -5.4629906152,
				"z": -5.4147600915,
				"element": "H" 
			},
			{
				"x": -0.6456957629,
				"y": -3.4246744688,
				"z": -4.4731433442,
				"element": "H" 
			},
			{
				"x": 1.3428336229,
				"y": -3.2551710129,
				"z": 0.0518806023,
				"element": "H" 
			},
			{
				"x": 0.9892147317,
				"y": -6.3630487255,
				"z": -1.5330943308,
				"element": "H" 
			},
			{
				"x": 1.6988038961,
				"y": -0.3516068345,
				"z": -1.1964869105,
				"element": "H" 
			},
			{
				"x": -0.2401460262,
				"y": -1.1792109587,
				"z": 1.00725591,
				"element": "H" 
			},
			{
				"x": 1.4897867597,
				"y": -1.4202927246,
				"z": 0.9560018505,
				"element": "H" 
			},
			{
				"x": -0.8692539397,
				"y": 0.5089516976,
				"z": 2.5356303407,
				"element": "H" 
			},
			{
				"x": -2.1158177778,
				"y": 4.0369300029,
				"z": 4.3898980873,
				"element": "H" 
			},
			{
				"x": -2.0366306115,
				"y": 3.6633457426,
				"z": 2.6459627008,
				"element": "H" 
			},
			{
				"x": -0.7940474428,
				"y": 4.7116595356,
				"z": 3.3911169448,
				"element": "H" 
			},
			{
				"x": 2.1107807956,
				"y": 5.1620202022,
				"z": 5.046471227,
				"element": "H" 
			},
			{
				"x": 1.1349088641,
				"y": 3.6779647491,
				"z": 5.2571733442,
				"element": "H" 
			},
			{
				"x": 2.8682863073,
				"y": 3.5597915254,
				"z": 4.833147151,
				"element": "H" 
			},
			{
				"x": 3.1651741919,
				"y": 3.1793366098,
				"z": 1.5098814293,
				"element": "H" 
			},
			{
				"x": 2.7814883299,
				"y": 1.0389223302,
				"z": 0.3092443334,
				"element": "H" 
			},
			{
				"x": -2.0751240579,
				"y": -0.7508644138,
				"z": -1.1617894835,
				"element": "H" 
			},
			{
				"x": -1.6648907897,
				"y": 0.4326746419,
				"z": 0.099756914,
				"element": "H" 
			},
			{
				"x": -2.196382243,
				"y": 0.9937220497,
				"z": -1.4820566966,
				"element": "H" 
			},
			{
				"x": 0.9524398412,
				"y": 0.5915626639,
				"z": -3.1182015573,
				"element": "H" 
			},
			{
				"x": -0.6761745372,
				"y": 1.2541741235,
				"z": -3.2485209096,
				"element": "H" 
			},
			{
				"x": -1.6578217857,
				"y": -0.915785901,
				"z": -3.6272994589,
				"element": "H" 
			},
			{
				"x": -0.2118859224,
				"y": -0.9033676396,
				"z": -4.6163094092,
				"element": "H" 
			}
		],
		 "valence_orbital": [ 
			{
				"type": "occ",
				"energy": -0.23417,
				"method": "rhf"
			},
			{
				"type": "occ",
				"energy": -0.22973,
				"method": "rhf"
			},
			{
				"type": "occ",
				"energy": -0.21628,
				"method": "rhf"
			},
			{
				"type": "occ",
				"energy": -0.20059,
				"method": "rhf"
			},
			{
				"type": "occ",
				"energy": -0.19606,
				"method": "rhf"
			},
			{
				"type": "unocc",
				"energy": 0.00673,
				"method": "rhf"
			},
			{
				"type": "unocc",
				"energy": 0.00835,
				"method": "rhf"
			},
			{
				"type": "unocc",
				"energy": 0.01081,
				"method": "rhf"
			},
			{
				"type": "unocc",
				"energy": 0.02087,
				"method": "rhf"
			},
			{
				"type": "unocc",
				"energy": 0.08055,
				"method": "rhf"
			}
		],
		"cosmo_sigma_profile": { 
			"-0.025": 0.0,
			"-0.024": 0.0,
			"-0.023": 0.0,
			"-0.022": 0.0,
			"-0.021": 0.0,
			"-0.02": 0.0,
			"-0.019": 0.0,
			"-0.018": 0.0,
			"-0.017": 0.0,
			"-0.016": 0.0,
			"-0.015": 0.0,
			"-0.014": 0.365724659527,
			"-0.013": 0.377364131394,
			"-0.012": 0.525933377261,
			"-0.011": 0.551743244428,
			"-0.01": 0.890142326124,
			"-0.009": 0.414167577326,
			"-0.008": 0.712649755887,
			"-0.007": 1.20093515567,
			"-0.006": 10.376410743,
			"-0.005": 28.76468232,
			"-0.004": 37.2812510109,
			"-0.003": 49.9645857781,
			"-0.002": 46.0064086352,
			"-0.001": 40.0112576239,
			"0.0": 32.8027567513,
			"0.001": 19.1832210726,
			"0.002": 18.0945379176,
			"0.003": 21.0484937756,
			"0.004": 19.2892592951,
			"0.005": 20.4876754444,
			"0.006": 13.0715460698,
			"0.007": 7.03353978538,
			"0.008": 5.10207124856,
			"0.009": 3.45106828504,
			"0.01": 4.15923186596,
			"0.011": 5.24431208472,
			"0.012": 4.66775972742,
			"0.013": 0.625955148881,
			"0.014": 0.725939620597,
			"0.015": 0.705670699176,
			"0.016": 0.132635915026,
			"0.017": 0.0,
			"0.018": 0.0,
			"0.019": 0.0,
			"0.02": 0.0,
			"0.021": 0.0,
			"0.022": 0.0,
			"0.023": 0.0,
			"0.024": 0.0,
			"0.025": 0.0
		}
	}
}
