{
	 "smiles": "C1=CC2=C(C=C1)C1=CC=CC=C21", 
	 "Tm": 387.15, 
	 "num_atms": 20, 
	 "gaussian": { 
		 "optdone": 1, 
		 "sigma_profile": "yes", 
		 "theory": "DFT", 
		 "functional": "B3LYP", 
		 "basiset": "6-31G**", 
		 "properties": { 
			 "R2extent": 2303.1631, 
			 "electric_dipole_moment_norm": 0.0, 
			 "electric_quadrupole_moment_norm": 10.267120178, 
			 "total_energy": -462.034529075, 
			 "HOMO_LUMO_gap": 0.15205, 
			 "cosmo_polarized_energy": -4.63, 
			 "cosmo_cavitation_energy": 24.07, 
			 "cosmo_dispersion_energy": -18.01, 
			 "cosmo_repulsion_energy": 1.42, 
			 "cosmo_total_nonelectrostatic_energy": 7.47, 
			 "SMD_solvation_energy": 3.34 
		},
		"coords": [
			{
				"x": 2.9438632521,
				"y": -1.5760603498,
				"z": -0.0136459186,
				"element": "C" 
			},
			{
				"x": 1.9314762846,
				"y": -1.494779027,
				"z": 0.9793254574,
				"element": "C" 
			},
			{
				"x": 0.66720636,
				"y": -1.2118575183,
				"z": 0.5230006639,
				"element": "C" 
			},
			{
				"x": 0.3841632299,
				"y": -1.0117010582,
				"z": -0.8585792971,
				"element": "C" 
			},
			{
				"x": 1.3568966404,
				"y": -1.0884216623,
				"z": -1.8253050925,
				"element": "C" 
			},
			{
				"x": 2.6675537678,
				"y": -1.3806402827,
				"z": -1.3623702323,
				"element": "C" 
			},
			{
				"x": -1.0690624774,
				"y": -0.7780550989,
				"z": -0.5270075253,
				"element": "C" 
			},
			{
				"x": -2.3333402568,
				"y": -0.4951734315,
				"z": -0.9833364219,
				"element": "C" 
			},
			{
				"x": -3.3457272446,
				"y": -0.4138994618,
				"z": 0.0096332635,
				"element": "C" 
			},
			{
				"x": -3.069413016,
				"y": -0.6093046078,
				"z": 1.3583603445,
				"element": "C" 
			},
			{
				"x": -1.7587516744,
				"y": -0.9014925152,
				"z": 1.8212969396,
				"element": "C" 
			},
			{
				"x": -0.7860197136,
				"y": -0.9782215543,
				"z": 0.8545690027,
				"element": "C" 
			},
			{
				"x": 3.96329544,
				"y": -1.7972783037,
				"z": 0.2897251663,
				"element": "H" 
			},
			{
				"x": 2.1664912345,
				"y": -1.6504423754,
				"z": 2.0278963824,
				"element": "H" 
			},
			{
				"x": 1.1604702823,
				"y": -0.9389601095,
				"z": -2.8826795144,
				"element": "H" 
			},
			{
				"x": 3.4771942012,
				"y": -1.4534778239,
				"z": -2.0830574459,
				"element": "H" 
			},
			{
				"x": -2.5683567557,
				"y": -0.3395253279,
				"z": -2.0319093961,
				"element": "H" 
			},
			{
				"x": -4.3651646527,
				"y": -0.1927037167,
				"z": -0.2937358134,
				"element": "H" 
			},
			{
				"x": -3.8790537178,
				"y": -0.5364632277,
				"z": 2.0790470898,
				"element": "H" 
			},
			{
				"x": -1.5623211838,
				"y": -1.0509425475,
				"z": 2.8786723475,
				"element": "H" 
			}
		],
		 "valence_orbital": [ 
			{
				"type": "occ",
				"energy": -0.32426,
				"method": "rhf"
			},
			{
				"type": "occ",
				"energy": -0.28472,
				"method": "rhf"
			},
			{
				"type": "occ",
				"energy": -0.27051,
				"method": "rhf"
			},
			{
				"type": "occ",
				"energy": -0.24439,
				"method": "rhf"
			},
			{
				"type": "occ",
				"energy": -0.1972,
				"method": "rhf"
			},
			{
				"type": "unocc",
				"energy": -0.04515,
				"method": "rhf"
			},
			{
				"type": "unocc",
				"energy": -0.02647,
				"method": "rhf"
			},
			{
				"type": "unocc",
				"energy": 0.03684,
				"method": "rhf"
			},
			{
				"type": "unocc",
				"energy": 0.04591,
				"method": "rhf"
			},
			{
				"type": "unocc",
				"energy": 0.09282,
				"method": "rhf"
			}
		],
		"cosmo_sigma_profile": { 
			"-0.025": 0.0,
			"-0.024": 0.0,
			"-0.023": 0.0,
			"-0.022": 0.0,
			"-0.021": 0.0,
			"-0.02": 0.0,
			"-0.019": 0.0,
			"-0.018": 0.0,
			"-0.017": 0.0,
			"-0.016": 0.0,
			"-0.015": 0.0,
			"-0.014": 0.0,
			"-0.013": 0.0,
			"-0.012": 0.0,
			"-0.011": 0.0,
			"-0.01": 0.0,
			"-0.009": 0.0,
			"-0.008": 0.0,
			"-0.007": 1.00181522636,
			"-0.006": 11.2223748159,
			"-0.005": 15.9934869785,
			"-0.004": 18.6769284236,
			"-0.003": 16.9906026511,
			"-0.002": 13.4014353475,
			"-0.001": 12.5629974482,
			"0.0": 10.3700829741,
			"0.001": 12.0788152052,
			"0.002": 17.7451509294,
			"0.003": 19.8401198459,
			"0.004": 18.1228644909,
			"0.005": 19.7014702769,
			"0.006": 6.91854752461,
			"0.007": 0.0,
			"0.008": 0.0,
			"0.009": 0.0,
			"0.01": 0.0,
			"0.011": 0.0,
			"0.012": 0.0,
			"0.013": 0.0,
			"0.014": 0.0,
			"0.015": 0.0,
			"0.016": 0.0,
			"0.017": 0.0,
			"0.018": 0.0,
			"0.019": 0.0,
			"0.02": 0.0,
			"0.021": 0.0,
			"0.022": 0.0,
			"0.023": 0.0,
			"0.024": 0.0,
			"0.025": 0.0
		}
	}
}
