{
	 "smiles": "OCC1=NN=C(Cl)S1", 
	 "Tm": 325.15, 
	 "num_atms": 11, 
	 "gaussian": { 
		 "optdone": 1, 
		 "sigma_profile": "yes", 
		 "theory": "DFT", 
		 "functional": "B3LYP", 
		 "basiset": "6-31G**", 
		 "properties": { 
			 "R2extent": 1493.5107, 
			 "electric_dipole_moment_norm": 4.23049700863, 
			 "electric_quadrupole_moment_norm": 12.0460860615, 
			 "total_energy": -1159.17348839, 
			 "HOMO_LUMO_gap": 0.22249, 
			 "cosmo_polarized_energy": -11.52, 
			 "cosmo_cavitation_energy": 19.23, 
			 "cosmo_dispersion_energy": -15.32, 
			 "cosmo_repulsion_energy": 1.25, 
			 "cosmo_total_nonelectrostatic_energy": 5.16, 
			 "SMD_solvation_energy": 1.16 
		},
		"coords": [
			{
				"x": -2.1337713128,
				"y": 1.9459463739,
				"z": 1.3854683686,
				"element": "O" 
			},
			{
				"x": -0.7301912823,
				"y": 2.0902627827,
				"z": 1.2527632158,
				"element": "C" 
			},
			{
				"x": -0.2201330933,
				"y": 0.9243632967,
				"z": 0.4570255994,
				"element": "C" 
			},
			{
				"x": 0.9125149604,
				"y": 0.9237518954,
				"z": -0.1815355746,
				"element": "N" 
			},
			{
				"x": 1.1907845293,
				"y": -0.2722780185,
				"z": -0.7951341467,
				"element": "N" 
			},
			{
				"x": 0.2472981099,
				"y": -1.1395533739,
				"z": -0.6017553031,
				"element": "C" 
			},
			{
				"x": 0.2922003637,
				"y": -2.7333569698,
				"z": -1.2592246004,
				"element": "Cl" 
			},
			{
				"x": -1.1055015961,
				"y": -0.5846522787,
				"z": 0.3610200903,
				"element": "S" 
			},
			{
				"x": -2.4419074797,
				"y": 2.5485037786,
				"z": 2.0728098948,
				"element": "H" 
			},
			{
				"x": -0.2267965177,
				"y": 2.0938559566,
				"z": 2.2321500535,
				"element": "H" 
			},
			{
				"x": -0.4433966814,
				"y": 3.0122565571,
				"z": 0.7276124023,
				"element": "H" 
			}
		],
		 "valence_orbital": [ 
			{
				"type": "occ",
				"energy": -0.31636,
				"method": "rhf"
			},
			{
				"type": "occ",
				"energy": -0.30769,
				"method": "rhf"
			},
			{
				"type": "occ",
				"energy": -0.30502,
				"method": "rhf"
			},
			{
				"type": "occ",
				"energy": -0.27678,
				"method": "rhf"
			},
			{
				"type": "occ",
				"energy": -0.27082,
				"method": "rhf"
			},
			{
				"type": "unocc",
				"energy": -0.04833,
				"method": "rhf"
			},
			{
				"type": "unocc",
				"energy": -0.00802,
				"method": "rhf"
			},
			{
				"type": "unocc",
				"energy": 0.0094,
				"method": "rhf"
			},
			{
				"type": "unocc",
				"energy": 0.01489,
				"method": "rhf"
			},
			{
				"type": "unocc",
				"energy": 0.05473,
				"method": "rhf"
			}
		],
		"cosmo_sigma_profile": { 
			"-0.025": 0.0,
			"-0.024": 0.0,
			"-0.023": 0.0,
			"-0.022": 0.0,
			"-0.021": 0.0,
			"-0.02": 0.0,
			"-0.019": 0.0,
			"-0.018": 0.0971712856687,
			"-0.017": 1.31953976276,
			"-0.016": 1.01732541772,
			"-0.015": 0.889365769236,
			"-0.014": 1.15548369247,
			"-0.013": 1.07223061413,
			"-0.012": 0.717211116927,
			"-0.011": 0.896230629243,
			"-0.01": 0.679730884747,
			"-0.009": 1.56867089595,
			"-0.008": 2.4061197745,
			"-0.007": 5.95701914762,
			"-0.006": 5.87716819708,
			"-0.005": 6.39340535543,
			"-0.004": 10.4309616413,
			"-0.003": 11.941398968,
			"-0.002": 11.2231428729,
			"-0.001": 13.0667429325,
			"0.0": 12.2869475608,
			"0.001": 13.3829354507,
			"0.002": 12.7400889222,
			"0.003": 7.79082580807,
			"0.004": 3.34241543414,
			"0.005": 3.42192445536,
			"0.006": 4.24504537049,
			"0.007": 3.34714190076,
			"0.008": 4.23774864993,
			"0.009": 3.03881711279,
			"0.01": 4.54671357754,
			"0.011": 4.17449116799,
			"0.012": 2.5485054014,
			"0.013": 2.20978954955,
			"0.014": 0.602968174144,
			"0.015": 0.0,
			"0.016": 0.0,
			"0.017": 0.0,
			"0.018": 0.0,
			"0.019": 0.0,
			"0.02": 0.0,
			"0.021": 0.0,
			"0.022": 0.0,
			"0.023": 0.0,
			"0.024": 0.0,
			"0.025": 0.0
		}
	}
}
