{
	 "smiles": "CC1=NC(=NO1)C1=CC=CC=C1", 
	 "Tm": 308.15, 
	 "num_atms": 20, 
	 "gaussian": { 
		 "optdone": 1, 
		 "sigma_profile": "yes", 
		 "theory": "DFT", 
		 "functional": "B3LYP", 
		 "basiset": "6-31G**", 
		 "properties": { 
			 "R2extent": 3001.306, 
			 "electric_dipole_moment_norm": 1.58039037582, 
			 "electric_quadrupole_moment_norm": 12.8398191323, 
			 "total_energy": -532.478911705, 
			 "HOMO_LUMO_gap": 0.1978, 
			 "cosmo_polarized_energy": -8.02, 
			 "cosmo_cavitation_energy": 24.72, 
			 "cosmo_dispersion_energy": -18.55, 
			 "cosmo_repulsion_energy": 1.47, 
			 "cosmo_total_nonelectrostatic_energy": 7.63, 
			 "SMD_solvation_energy": 2.97 
		},
		"coords": [
			{
				"x": -0.6906776768,
				"y": 2.2274977761,
				"z": -2.1997862331,
				"element": "C" 
			},
			{
				"x": -0.7461995482,
				"y": 1.4598946864,
				"z": -0.9264489094,
				"element": "C" 
			},
			{
				"x": 0.1957969642,
				"y": 1.2690472656,
				"z": -0.0519817797,
				"element": "N" 
			},
			{
				"x": -0.4338062555,
				"y": 0.4908672887,
				"z": 0.9045903526,
				"element": "C" 
			},
			{
				"x": -1.6913626996,
				"y": 0.2183018611,
				"z": 0.6336877756,
				"element": "N" 
			},
			{
				"x": -1.9071621002,
				"y": 0.86598171,
				"z": -0.5936477908,
				"element": "O" 
			},
			{
				"x": 0.2445944115,
				"y": 0.0112840746,
				"z": 2.1165274631,
				"element": "C" 
			},
			{
				"x": 1.5889388311,
				"y": 0.3431334834,
				"z": 2.3358862549,
				"element": "C" 
			},
			{
				"x": 2.2407294629,
				"y": -0.1074945562,
				"z": 3.4829975414,
				"element": "C" 
			},
			{
				"x": 1.5584670432,
				"y": -0.8898219897,
				"z": 4.4165332328,
				"element": "C" 
			},
			{
				"x": 0.2177412744,
				"y": -1.2221953466,
				"z": 4.2001809666,
				"element": "C" 
			},
			{
				"x": -0.4392743847,
				"y": -0.7757221576,
				"z": 3.0570636788,
				"element": "C" 
			},
			{
				"x": 0.3090497679,
				"y": 2.6435221988,
				"z": -2.3235605358,
				"element": "H" 
			},
			{
				"x": -0.9219632676,
				"y": 1.5793814204,
				"z": -3.0506331944,
				"element": "H" 
			},
			{
				"x": -1.4235234455,
				"y": 3.0401226161,
				"z": -2.1919125207,
				"element": "H" 
			},
			{
				"x": 2.1069742312,
				"y": 0.951555358,
				"z": 1.6025915706,
				"element": "H" 
			},
			{
				"x": 3.2822932022,
				"y": 0.1526812117,
				"z": 3.6477466274,
				"element": "H" 
			},
			{
				"x": 2.0679367493,
				"y": -1.240020214,
				"z": 5.3097105251,
				"element": "H" 
			},
			{
				"x": -0.3156521218,
				"y": -1.8306877299,
				"z": 4.9246511145,
				"element": "H" 
			},
			{
				"x": -1.4796004379,
				"y": -1.029528957,
				"z": 2.8822038603,
				"element": "H" 
			}
		],
		 "valence_orbital": [ 
			{
				"type": "occ",
				"energy": -0.33247,
				"method": "rhf"
			},
			{
				"type": "occ",
				"energy": -0.29341,
				"method": "rhf"
			},
			{
				"type": "occ",
				"energy": -0.29293,
				"method": "rhf"
			},
			{
				"type": "occ",
				"energy": -0.25435,
				"method": "rhf"
			},
			{
				"type": "occ",
				"energy": -0.24073,
				"method": "rhf"
			},
			{
				"type": "unocc",
				"energy": -0.04293,
				"method": "rhf"
			},
			{
				"type": "unocc",
				"energy": -0.00722,
				"method": "rhf"
			},
			{
				"type": "unocc",
				"energy": 0.00282,
				"method": "rhf"
			},
			{
				"type": "unocc",
				"energy": 0.07406,
				"method": "rhf"
			},
			{
				"type": "unocc",
				"energy": 0.08278,
				"method": "rhf"
			}
		],
		"cosmo_sigma_profile": { 
			"-0.025": 0.0,
			"-0.024": 0.0,
			"-0.023": 0.0,
			"-0.022": 0.0,
			"-0.021": 0.0,
			"-0.02": 0.0,
			"-0.019": 0.0,
			"-0.018": 0.0,
			"-0.017": 0.0,
			"-0.016": 0.0,
			"-0.015": 0.0,
			"-0.014": 0.0,
			"-0.013": 0.0,
			"-0.012": 0.0,
			"-0.011": 0.0,
			"-0.01": 0.0,
			"-0.009": 0.0,
			"-0.008": 0.678742300209,
			"-0.007": 6.38416513853,
			"-0.006": 13.5082554352,
			"-0.005": 16.5711776019,
			"-0.004": 18.8066719353,
			"-0.003": 17.7769479397,
			"-0.002": 13.1047853494,
			"-0.001": 11.1043886081,
			"0.0": 11.8835296995,
			"0.001": 14.122508605,
			"0.002": 14.8133863709,
			"0.003": 13.4647974065,
			"0.004": 15.6317908978,
			"0.005": 8.46820173941,
			"0.006": 4.24236372021,
			"0.007": 5.61892047869,
			"0.008": 3.48094780423,
			"0.009": 2.05599658293,
			"0.01": 2.39823717543,
			"0.011": 2.2931825156,
			"0.012": 1.83726297206,
			"0.013": 0.531365001425,
			"0.014": 0.0,
			"0.015": 0.0,
			"0.016": 0.0,
			"0.017": 0.0,
			"0.018": 0.0,
			"0.019": 0.0,
			"0.02": 0.0,
			"0.021": 0.0,
			"0.022": 0.0,
			"0.023": 0.0,
			"0.024": 0.0,
			"0.025": 0.0
		}
	}
}
