{
	 "smiles": "CN1N=NN=C1S", 
	 "Tm": 397.15, 
	 "num_atms": 11, 
	 "gaussian": { 
		 "optdone": 1, 
		 "sigma_profile": "yes", 
		 "theory": "DFT", 
		 "functional": "B3LYP", 
		 "basiset": "6-31G**", 
		 "properties": { 
			 "R2extent": 2216.5622, 
			 "electric_dipole_moment_norm": 4.85230014117, 
			 "electric_quadrupole_moment_norm": 21.3272530022, 
			 "total_energy": -695.750630329, 
			 "HOMO_LUMO_gap": 0.24674, 
			 "cosmo_polarized_energy": -13.59, 
			 "cosmo_cavitation_energy": 17.29, 
			 "cosmo_dispersion_energy": -13.43, 
			 "cosmo_repulsion_energy": 1.08, 
			 "cosmo_total_nonelectrostatic_energy": 4.94, 
			 "SMD_solvation_energy": 0.95 
		},
		"coords": [
			{
				"x": -1.8727564608,
				"y": 0.4976211025,
				"z": -0.5616993278,
				"element": "C" 
			},
			{
				"x": -1.8618955825,
				"y": 1.7695125327,
				"z": 0.139531158,
				"element": "N" 
			},
			{
				"x": -3.0092109908,
				"y": 2.4668900935,
				"z": 0.3716381233,
				"element": "N" 
			},
			{
				"x": -2.6663281384,
				"y": 3.5361377454,
				"z": 1.0046917567,
				"element": "N" 
			},
			{
				"x": -1.3216754845,
				"y": 3.5858722406,
				"z": 1.2109235596,
				"element": "N" 
			},
			{
				"x": -0.8419073568,
				"y": 2.4806902139,
				"z": 0.6661254776,
				"element": "C" 
			},
			{
				"x": 0.8386220538,
				"y": 1.9673292835,
				"z": 0.6064370669,
				"element": "S" 
			},
			{
				"x": -2.9093829533,
				"y": 0.2815272727,
				"z": -0.8176920367,
				"element": "H" 
			},
			{
				"x": -1.4804095404,
				"y": -0.2959194435,
				"z": 0.080218903,
				"element": "H" 
			},
			{
				"x": -1.2746979168,
				"y": 0.5596954929,
				"z": -1.4750314579,
				"element": "H" 
			},
			{
				"x": 1.2745423706,
				"y": 3.0574434657,
				"z": 1.2656567773,
				"element": "H" 
			}
		],
		 "valence_orbital": [ 
			{
				"type": "occ",
				"energy": -0.34698,
				"method": "rhf"
			},
			{
				"type": "occ",
				"energy": -0.31367,
				"method": "rhf"
			},
			{
				"type": "occ",
				"energy": -0.29898,
				"method": "rhf"
			},
			{
				"type": "occ",
				"energy": -0.28728,
				"method": "rhf"
			},
			{
				"type": "occ",
				"energy": -0.26242,
				"method": "rhf"
			},
			{
				"type": "unocc",
				"energy": -0.01568,
				"method": "rhf"
			},
			{
				"type": "unocc",
				"energy": -0.01204,
				"method": "rhf"
			},
			{
				"type": "unocc",
				"energy": 0.01933,
				"method": "rhf"
			},
			{
				"type": "unocc",
				"energy": 0.04276,
				"method": "rhf"
			},
			{
				"type": "unocc",
				"energy": 0.09228,
				"method": "rhf"
			}
		],
		"cosmo_sigma_profile": { 
			"-0.025": 0.0,
			"-0.024": 0.0,
			"-0.023": 0.0,
			"-0.022": 0.0,
			"-0.021": 0.0,
			"-0.02": 0.0,
			"-0.019": 0.0,
			"-0.018": 0.0,
			"-0.017": 0.0,
			"-0.016": 0.0,
			"-0.015": 0.0,
			"-0.014": 0.0225167544323,
			"-0.013": 1.54617517663,
			"-0.012": 1.57312701086,
			"-0.011": 1.44607780004,
			"-0.01": 0.776336211089,
			"-0.009": 1.422232289,
			"-0.008": 8.16493836597,
			"-0.007": 9.39618389532,
			"-0.006": 9.90829523545,
			"-0.005": 11.7751257021,
			"-0.004": 9.88852644264,
			"-0.003": 6.65427468659,
			"-0.002": 6.00400568749,
			"-0.001": 6.04327295397,
			"0.0": 6.728713957,
			"0.001": 6.27839370353,
			"0.002": 5.43568143871,
			"0.003": 4.67529463368,
			"0.004": 4.70108136116,
			"0.005": 4.60947965866,
			"0.006": 4.0996546525,
			"0.007": 3.46649377835,
			"0.008": 5.05151404051,
			"0.009": 4.83517451318,
			"0.01": 4.80235711535,
			"0.011": 4.6427717996,
			"0.012": 3.07011435366,
			"0.013": 2.11382056692,
			"0.014": 1.83230710999,
			"0.015": 0.234040643678,
			"0.016": 0.0,
			"0.017": 0.0,
			"0.018": 0.0,
			"0.019": 0.0,
			"0.02": 0.0,
			"0.021": 0.0,
			"0.022": 0.0,
			"0.023": 0.0,
			"0.024": 0.0,
			"0.025": 0.0
		}
	}
}
