{
	 "smiles": "CC1=NNC(=O)C1(Br)Br", 
	 "Tm": 404.15, 
	 "num_atms": 13, 
	 "gaussian": { 
		 "optdone": 1, 
		 "sigma_profile": "yes", 
		 "theory": "DFT", 
		 "functional": "B3LYP", 
		 "basiset": "6-31G**", 
		 "properties": { 
			 "R2extent": 2428.0754, 
			 "electric_dipole_moment_norm": 2.70970466472, 
			 "electric_quadrupole_moment_norm": 5.78166247891, 
			 "total_energy": -5482.33559057, 
			 "HOMO_LUMO_gap": 0.17626, 
			 "cosmo_polarized_energy": -10.12, 
			 "cosmo_cavitation_energy": 21.98, 
			 "cosmo_dispersion_energy": -16.62, 
			 "cosmo_repulsion_energy": 1.37, 
			 "cosmo_total_nonelectrostatic_energy": 6.73, 
			 "SMD_solvation_energy": 1.6 
		},
		"coords": [
			{
				"x": -0.4857137219,
				"y": 0.6317129693,
				"z": -3.1276099851,
				"element": "C" 
			},
			{
				"x": -0.9635540409,
				"y": 0.2260911498,
				"z": -1.7762738313,
				"element": "C" 
			},
			{
				"x": -1.8892342371,
				"y": -0.653991318,
				"z": -1.5957114477,
				"element": "N" 
			},
			{
				"x": -2.0982814807,
				"y": -0.8021888776,
				"z": -0.2316611151,
				"element": "N" 
			},
			{
				"x": -1.311983623,
				"y": -0.017475076,
				"z": 0.573212834,
				"element": "C" 
			},
			{
				"x": -1.2957648019,
				"y": 0.0442904589,
				"z": 1.7799730495,
				"element": "O" 
			},
			{
				"x": -0.4542097467,
				"y": 0.7649248233,
				"z": -0.4646972399,
				"element": "C" 
			},
			{
				"x": 1.4419603965,
				"y": 0.345963379,
				"z": -0.1973010823,
				"element": "Br" 
			},
			{
				"x": -0.8045450775,
				"y": 2.6860267111,
				"z": -0.2879786039,
				"element": "Br" 
			},
			{
				"x": 0.5855034636,
				"y": 0.4310823544,
				"z": -3.2349246381,
				"element": "H" 
			},
			{
				"x": -0.6365456549,
				"y": 1.7049671303,
				"z": -3.284661098,
				"element": "H" 
			},
			{
				"x": -1.0343281175,
				"y": 0.0757260552,
				"z": -3.8896372441,
				"element": "H" 
			},
			{
				"x": -2.7951033581,
				"y": -1.4566297596,
				"z": 0.0893704019,
				"element": "H" 
			}
		],
		 "valence_orbital": [ 
			{
				"type": "occ",
				"energy": -0.30775,
				"method": "rhf"
			},
			{
				"type": "occ",
				"energy": -0.30445,
				"method": "rhf"
			},
			{
				"type": "occ",
				"energy": -0.29348,
				"method": "rhf"
			},
			{
				"type": "occ",
				"energy": -0.27242,
				"method": "rhf"
			},
			{
				"type": "occ",
				"energy": -0.2599,
				"method": "rhf"
			},
			{
				"type": "unocc",
				"energy": -0.08364,
				"method": "rhf"
			},
			{
				"type": "unocc",
				"energy": -0.05291,
				"method": "rhf"
			},
			{
				"type": "unocc",
				"energy": 0.01828,
				"method": "rhf"
			},
			{
				"type": "unocc",
				"energy": 0.06235,
				"method": "rhf"
			},
			{
				"type": "unocc",
				"energy": 0.07951,
				"method": "rhf"
			}
		],
		"cosmo_sigma_profile": { 
			"-0.025": 0.0,
			"-0.024": 0.0,
			"-0.023": 0.0,
			"-0.022": 0.0,
			"-0.021": 0.0,
			"-0.02": 0.0,
			"-0.019": 0.0,
			"-0.018": 0.118814642808,
			"-0.017": 1.39857160999,
			"-0.016": 1.53869058857,
			"-0.015": 0.51327173481,
			"-0.014": 1.03504052512,
			"-0.013": 0.912184869319,
			"-0.012": 1.50467917696,
			"-0.011": 0.792783533502,
			"-0.01": 0.240231745282,
			"-0.009": 0.489875590679,
			"-0.008": 1.2659606876,
			"-0.007": 1.44413275567,
			"-0.006": 6.01171860589,
			"-0.005": 10.2210881464,
			"-0.004": 10.6533262145,
			"-0.003": 16.5388027828,
			"-0.002": 20.1396106651,
			"-0.001": 13.9692567797,
			"0.0": 10.6525279434,
			"0.001": 13.9331125651,
			"0.002": 19.9724359551,
			"0.003": 13.7726335764,
			"0.004": 5.23670034751,
			"0.005": 5.26666075211,
			"0.006": 3.06518702256,
			"0.007": 1.52849713744,
			"0.008": 3.31886726041,
			"0.009": 3.3882101009,
			"0.01": 3.08153370361,
			"0.011": 7.07704654902,
			"0.012": 2.57835368278,
			"0.013": 0.153299729908,
			"0.014": 0.0,
			"0.015": 0.0,
			"0.016": 0.0,
			"0.017": 0.0,
			"0.018": 0.0,
			"0.019": 0.0,
			"0.02": 0.0,
			"0.021": 0.0,
			"0.022": 0.0,
			"0.023": 0.0,
			"0.024": 0.0,
			"0.025": 0.0
		}
	}
}
