{
	 "smiles": "OC(=O)C1=CSC2=C1C=C(Br)C=C2", 
	 "Tm": 559.15, 
	 "num_atms": 18, 
	 "gaussian": { 
		 "optdone": 1, 
		 "sigma_profile": "yes", 
		 "theory": "DFT", 
		 "functional": "B3LYP", 
		 "basiset": "6-31G**", 
		 "properties": { 
			 "R2extent": 4658.8618, 
			 "electric_dipole_moment_norm": 1.11185576852, 
			 "electric_quadrupole_moment_norm": 11.0099299548, 
			 "total_energy": -3466.02773673, 
			 "HOMO_LUMO_gap": 0.17617, 
			 "cosmo_polarized_energy": -9.63, 
			 "cosmo_cavitation_energy": 26.84, 
			 "cosmo_dispersion_energy": -20.9, 
			 "cosmo_repulsion_energy": 1.59, 
			 "cosmo_total_nonelectrostatic_energy": 7.53, 
			 "SMD_solvation_energy": 4.32 
		},
		"coords": [
			{
				"x": -2.2463380897,
				"y": 2.7766087609,
				"z": -1.812208655,
				"element": "O" 
			},
			{
				"x": -3.0656550796,
				"y": 1.8007214552,
				"z": -1.3457126297,
				"element": "C" 
			},
			{
				"x": -4.2741521511,
				"y": 1.8669500109,
				"z": -1.4571241486,
				"element": "O" 
			},
			{
				"x": -2.3425128182,
				"y": 0.68279977,
				"z": -0.7030512272,
				"element": "C" 
			},
			{
				"x": -3.0673557691,
				"y": -0.3594457924,
				"z": -0.1932649619,
				"element": "C" 
			},
			{
				"x": -2.1011286975,
				"y": -1.5970752375,
				"z": 0.5287577174,
				"element": "S" 
			},
			{
				"x": -0.6294352071,
				"y": -0.7124644179,
				"z": 0.15089052,
				"element": "C" 
			},
			{
				"x": -0.9118509243,
				"y": 0.5053223699,
				"z": -0.5168813012,
				"element": "C" 
			},
			{
				"x": 0.1638648418,
				"y": 1.3342903039,
				"z": -0.8905186444,
				"element": "C" 
			},
			{
				"x": 1.4536990979,
				"y": 0.9260446597,
				"z": -0.5904208071,
				"element": "C" 
			},
			{
				"x": 2.9220674343,
				"y": 2.0439975073,
				"z": -1.0933174915,
				"element": "Br" 
			},
			{
				"x": 1.7273683255,
				"y": -0.2815731547,
				"z": 0.0713692325,
				"element": "C" 
			},
			{
				"x": 0.6777326752,
				"y": -1.1098012926,
				"z": 0.446297103,
				"element": "C" 
			},
			{
				"x": -2.8305730287,
				"y": 3.4461901553,
				"z": -2.2057798837,
				"element": "H" 
			},
			{
				"x": -4.1453574185,
				"y": -0.4411660722,
				"z": -0.2185359212,
				"element": "H" 
			},
			{
				"x": -0.0199220538,
				"y": 2.2691486032,
				"z": -1.4010415526,
				"element": "H" 
			},
			{
				"x": 2.7520313693,
				"y": -0.5611642483,
				"z": 0.2858875285,
				"element": "H" 
			},
			{
				"x": 0.8758174937,
				"y": -2.0460833807,
				"z": 0.9584551226,
				"element": "H" 
			}
		],
		 "valence_orbital": [ 
			{
				"type": "occ",
				"energy": -0.2958,
				"method": "rhf"
			},
			{
				"type": "occ",
				"energy": -0.28978,
				"method": "rhf"
			},
			{
				"type": "occ",
				"energy": -0.28604,
				"method": "rhf"
			},
			{
				"type": "occ",
				"energy": -0.24616,
				"method": "rhf"
			},
			{
				"type": "occ",
				"energy": -0.23632,
				"method": "rhf"
			},
			{
				"type": "unocc",
				"energy": -0.06015,
				"method": "rhf"
			},
			{
				"type": "unocc",
				"energy": -0.02116,
				"method": "rhf"
			},
			{
				"type": "unocc",
				"energy": -0.01866,
				"method": "rhf"
			},
			{
				"type": "unocc",
				"energy": -0.00296,
				"method": "rhf"
			},
			{
				"type": "unocc",
				"energy": 0.01327,
				"method": "rhf"
			}
		],
		"cosmo_sigma_profile": { 
			"-0.025": 0.0,
			"-0.024": 0.0,
			"-0.023": 0.0,
			"-0.022": 0.0,
			"-0.021": 0.0,
			"-0.02": 0.0,
			"-0.019": 0.0376772777179,
			"-0.018": 1.20943946285,
			"-0.017": 0.700660587128,
			"-0.016": 0.527910588628,
			"-0.015": 1.24295916761,
			"-0.014": 0.213849498462,
			"-0.013": 0.806888743887,
			"-0.012": 0.739104258839,
			"-0.011": 1.01397699358,
			"-0.01": 1.47840543358,
			"-0.009": 2.10826315188,
			"-0.008": 5.35587459958,
			"-0.007": 7.10334304825,
			"-0.006": 7.00321851057,
			"-0.005": 6.32216686423,
			"-0.004": 8.09894307809,
			"-0.003": 10.0433743745,
			"-0.002": 13.5858182343,
			"-0.001": 14.2491340811,
			"0.0": 22.8772147047,
			"0.001": 29.7439893996,
			"0.002": 30.4951546684,
			"0.003": 20.1657165667,
			"0.004": 13.607940796,
			"0.005": 7.66087643146,
			"0.006": 1.95697223302,
			"0.007": 1.28217565074,
			"0.008": 1.85450491911,
			"0.009": 0.839028937569,
			"0.01": 2.04126817152,
			"0.011": 4.07502162261,
			"0.012": 3.60572917854,
			"0.013": 0.0563527081132,
			"0.014": 0.0,
			"0.015": 0.0,
			"0.016": 0.0,
			"0.017": 0.0,
			"0.018": 0.0,
			"0.019": 0.0,
			"0.02": 0.0,
			"0.021": 0.0,
			"0.022": 0.0,
			"0.023": 0.0,
			"0.024": 0.0,
			"0.025": 0.0
		}
	}
}
