{
	 "smiles": "CC1=NC(C=O)=CC=C1", 
	 "Tm": 305.15, 
	 "num_atms": 16, 
	 "gaussian": { 
		 "optdone": 1, 
		 "sigma_profile": "yes", 
		 "theory": "DFT", 
		 "functional": "B3LYP", 
		 "basiset": "6-31G**", 
		 "properties": { 
			 "R2extent": 1795.9137, 
			 "electric_dipole_moment_norm": 3.88524098352, 
			 "electric_quadrupole_moment_norm": 13.7185612846, 
			 "total_energy": -400.932293349, 
			 "HOMO_LUMO_gap": 0.18223, 
			 "cosmo_polarized_energy": -7.93, 
			 "cosmo_cavitation_energy": 20.56, 
			 "cosmo_dispersion_energy": -15.07, 
			 "cosmo_repulsion_energy": 1.24, 
			 "cosmo_total_nonelectrostatic_energy": 6.73, 
			 "SMD_solvation_energy": 3.55 
		},
		"coords": [
			{
				"x": -0.696480305,
				"y": 0.2611736477,
				"z": -1.9166869823,
				"element": "C" 
			},
			{
				"x": -0.4477525359,
				"y": 1.0100301695,
				"z": -0.6306220919,
				"element": "C" 
			},
			{
				"x": -0.6676810451,
				"y": 0.3524376763,
				"z": 0.5145042603,
				"element": "N" 
			},
			{
				"x": -0.4529558142,
				"y": 0.9993356571,
				"z": 1.6733560942,
				"element": "C" 
			},
			{
				"x": -0.7182639424,
				"y": 0.2056064157,
				"z": 2.9076230604,
				"element": "C" 
			},
			{
				"x": -0.5770960561,
				"y": 0.6344736093,
				"z": 4.0357982231,
				"element": "O" 
			},
			{
				"x": -0.0123987457,
				"y": 2.321728776,
				"z": 1.757531209,
				"element": "C" 
			},
			{
				"x": 0.2165635911,
				"y": 3.0062896597,
				"z": 0.5657937114,
				"element": "C" 
			},
			{
				"x": -0.0029964893,
				"y": 2.3448087414,
				"z": -0.63948887,
				"element": "C" 
			},
			{
				"x": -1.0339462311,
				"y": -0.7514686089,
				"z": -1.6916452641,
				"element": "H" 
			},
			{
				"x": 0.2139010407,
				"y": 0.2027542839,
				"z": -2.523976876,
				"element": "H" 
			},
			{
				"x": -1.4594214989,
				"y": 0.7601778896,
				"z": -2.5249015648,
				"element": "H" 
			},
			{
				"x": -1.0634238553,
				"y": -0.8283417089,
				"z": 2.7006156619,
				"element": "H" 
			},
			{
				"x": 0.1366128283,
				"y": 2.7710280118,
				"z": 2.7332349138,
				"element": "H" 
			},
			{
				"x": 0.5599368528,
				"y": 4.0367728347,
				"z": 0.5738863197,
				"element": "H" 
			},
			{
				"x": 0.1659022061,
				"y": 2.8496929449,
				"z": -1.5864218048,
				"element": "H" 
			}
		],
		 "valence_orbital": [ 
			{
				"type": "occ",
				"energy": -0.36932,
				"method": "rhf"
			},
			{
				"type": "occ",
				"energy": -0.29817,
				"method": "rhf"
			},
			{
				"type": "occ",
				"energy": -0.27432,
				"method": "rhf"
			},
			{
				"type": "occ",
				"energy": -0.26455,
				"method": "rhf"
			},
			{
				"type": "occ",
				"energy": -0.25297,
				"method": "rhf"
			},
			{
				"type": "unocc",
				"energy": -0.07074,
				"method": "rhf"
			},
			{
				"type": "unocc",
				"energy": -0.02844,
				"method": "rhf"
			},
			{
				"type": "unocc",
				"energy": 0.03038,
				"method": "rhf"
			},
			{
				"type": "unocc",
				"energy": 0.09323,
				"method": "rhf"
			},
			{
				"type": "unocc",
				"energy": 0.11801,
				"method": "rhf"
			}
		],
		"cosmo_sigma_profile": { 
			"-0.025": 0.0,
			"-0.024": 0.0,
			"-0.023": 0.0,
			"-0.022": 0.0,
			"-0.021": 0.0,
			"-0.02": 0.0,
			"-0.019": 0.0,
			"-0.018": 0.0,
			"-0.017": 0.0,
			"-0.016": 0.0,
			"-0.015": 0.0,
			"-0.014": 0.0,
			"-0.013": 0.0,
			"-0.012": 0.0,
			"-0.011": 0.0,
			"-0.01": 0.0,
			"-0.009": 0.0,
			"-0.008": 0.811998935306,
			"-0.007": 5.80705425011,
			"-0.006": 8.54326188013,
			"-0.005": 12.986651764,
			"-0.004": 15.7015476177,
			"-0.003": 13.3522108156,
			"-0.002": 13.1389666627,
			"-0.001": 14.5378695938,
			"0.0": 17.8175713898,
			"0.001": 15.9038436679,
			"0.002": 11.1117701075,
			"0.003": 4.20043841559,
			"0.004": 3.36822238436,
			"0.005": 3.20644176825,
			"0.006": 2.38146838837,
			"0.007": 3.2894716677,
			"0.008": 3.00422940788,
			"0.009": 2.39696243571,
			"0.01": 4.11098798752,
			"0.011": 5.00981178258,
			"0.012": 2.60093929276,
			"0.013": 1.05680818497,
			"0.014": 0.195221253902,
			"0.015": 0.0,
			"0.016": 0.0,
			"0.017": 0.0,
			"0.018": 0.0,
			"0.019": 0.0,
			"0.02": 0.0,
			"0.021": 0.0,
			"0.022": 0.0,
			"0.023": 0.0,
			"0.024": 0.0,
			"0.025": 0.0
		}
	}
}
