{
	 "smiles": "CCC1=CC=C(C=C1)C1=CC=CC=C1", 
	 "Tm": 308.15, 
	 "num_atms": 28, 
	 "gaussian": { 
		 "optdone": 1, 
		 "sigma_profile": "yes", 
		 "theory": "DFT", 
		 "functional": "B3LYP", 
		 "basiset": "6-31G**", 
		 "properties": { 
			 "R2extent": 3904.4871, 
			 "electric_dipole_moment_norm": 0.414290972627, 
			 "electric_quadrupole_moment_norm": 7.97765335108, 
			 "total_energy": -541.947415439, 
			 "HOMO_LUMO_gap": 0.19325, 
			 "cosmo_polarized_energy": -5.05, 
			 "cosmo_cavitation_energy": 31.06, 
			 "cosmo_dispersion_energy": -22.47, 
			 "cosmo_repulsion_energy": 1.76, 
			 "cosmo_total_nonelectrostatic_energy": 10.35, 
			 "SMD_solvation_energy": 4.99 
		},
		"coords": [
			{
				"x": -1.1490277568,
				"y": -4.3980447059,
				"z": -1.6958285091,
				"element": "C" 
			},
			{
				"x": -0.5033826088,
				"y": -4.1018176474,
				"z": -0.3298156496,
				"element": "C" 
			},
			{
				"x": -0.2846423736,
				"y": -2.6233343606,
				"z": -0.0902576592,
				"element": "C" 
			},
			{
				"x": 0.8989483326,
				"y": -1.9913093733,
				"z": -0.4942230191,
				"element": "C" 
			},
			{
				"x": 1.0876180011,
				"y": -0.6235675197,
				"z": -0.3089312354,
				"element": "C" 
			},
			{
				"x": 0.0954908841,
				"y": 0.1705210104,
				"z": 0.2901524595,
				"element": "C" 
			},
			{
				"x": -1.090270777,
				"y": -0.4640603346,
				"z": 0.6961221916,
				"element": "C" 
			},
			{
				"x": -1.2735308225,
				"y": -1.8324106289,
				"z": 0.5096236547,
				"element": "C" 
			},
			{
				"x": 0.2954512516,
				"y": 1.6282567319,
				"z": 0.4912564119,
				"element": "C" 
			},
			{
				"x": -0.1741782829,
				"y": 2.2702212339,
				"z": 1.6502001805,
				"element": "C" 
			},
			{
				"x": 0.0121878016,
				"y": 3.6391105374,
				"z": 1.8379893162,
				"element": "C" 
			},
			{
				"x": 0.6753734239,
				"y": 4.3981726701,
				"z": 0.8718928771,
				"element": "C" 
			},
			{
				"x": 1.1490243461,
				"y": 3.7748184605,
				"z": -0.2841540822,
				"element": "C" 
			},
			{
				"x": 0.959993527,
				"y": 2.406387164,
				"z": -0.472475766,
				"element": "C" 
			},
			{
				"x": -2.1256115149,
				"y": -3.9105913203,
				"z": -1.7816585404,
				"element": "H" 
			},
			{
				"x": -0.5221000373,
				"y": -4.0285033531,
				"z": -2.5138212637,
				"element": "H" 
			},
			{
				"x": -1.2926080162,
				"y": -5.4745688027,
				"z": -1.836947359,
				"element": "H" 
			},
			{
				"x": -1.138474961,
				"y": -4.5113409681,
				"z": 0.464937007,
				"element": "H" 
			},
			{
				"x": 0.4561602834,
				"y": -4.6287353914,
				"z": -0.2636155285,
				"element": "H" 
			},
			{
				"x": 1.6910387625,
				"y": -2.5821239541,
				"z": -0.9489620636,
				"element": "H" 
			},
			{
				"x": 2.0287733033,
				"y": -0.1690754581,
				"z": -0.6047503335,
				"element": "H" 
			},
			{
				"x": -1.8854538504,
				"y": 0.1254676642,
				"z": 1.1433192533,
				"element": "H" 
			},
			{
				"x": -2.2042184335,
				"y": -2.294572804,
				"z": 0.8313237302,
				"element": "H" 
			},
			{
				"x": -0.6667338907,
				"y": 1.6846154821,
				"z": 2.4209209477,
				"element": "H" 
			},
			{
				"x": -0.3531126806,
				"y": 4.1118529294,
				"z": 2.7455118411,
				"element": "H" 
			},
			{
				"x": 0.8216155376,
				"y": 5.4644391841,
				"z": 1.0184265606,
				"element": "H" 
			},
			{
				"x": 1.659093896,
				"y": 4.3570015278,
				"z": -1.0466622421,
				"element": "H" 
			},
			{
				"x": 1.3081766555,
				"y": 1.9370920265,
				"z": -1.3879731799,
				"element": "H" 
			}
		],
		 "valence_orbital": [ 
			{
				"type": "occ",
				"energy": -0.32537,
				"method": "rhf"
			},
			{
				"type": "occ",
				"energy": -0.26538,
				"method": "rhf"
			},
			{
				"type": "occ",
				"energy": -0.24745,
				"method": "rhf"
			},
			{
				"type": "occ",
				"energy": -0.24654,
				"method": "rhf"
			},
			{
				"type": "occ",
				"energy": -0.21664,
				"method": "rhf"
			},
			{
				"type": "unocc",
				"energy": -0.02339,
				"method": "rhf"
			},
			{
				"type": "unocc",
				"energy": -0.00094,
				"method": "rhf"
			},
			{
				"type": "unocc",
				"energy": 0.00317,
				"method": "rhf"
			},
			{
				"type": "unocc",
				"energy": 0.0324,
				"method": "rhf"
			},
			{
				"type": "unocc",
				"energy": 0.09747,
				"method": "rhf"
			}
		],
		"cosmo_sigma_profile": { 
			"-0.025": 0.0,
			"-0.024": 0.0,
			"-0.023": 0.0,
			"-0.022": 0.0,
			"-0.021": 0.0,
			"-0.02": 0.0,
			"-0.019": 0.0,
			"-0.018": 0.0,
			"-0.017": 0.0,
			"-0.016": 0.0,
			"-0.015": 0.0,
			"-0.014": 0.0,
			"-0.013": 0.0,
			"-0.012": 0.0,
			"-0.011": 0.0,
			"-0.01": 0.0,
			"-0.009": 0.0,
			"-0.008": 0.0,
			"-0.007": 0.0,
			"-0.006": 3.14213482741,
			"-0.005": 18.3421725259,
			"-0.004": 21.6973552162,
			"-0.003": 29.1507948541,
			"-0.002": 23.5186950022,
			"-0.001": 23.9534184724,
			"0.0": 22.8447041789,
			"0.001": 21.9431097343,
			"0.002": 15.4726534631,
			"0.003": 16.5323007193,
			"0.004": 16.5116796122,
			"0.005": 16.9399754217,
			"0.006": 15.7980593341,
			"0.007": 0.920647786149,
			"0.008": 0.0,
			"0.009": 0.0,
			"0.01": 0.0,
			"0.011": 0.0,
			"0.012": 0.0,
			"0.013": 0.0,
			"0.014": 0.0,
			"0.015": 0.0,
			"0.016": 0.0,
			"0.017": 0.0,
			"0.018": 0.0,
			"0.019": 0.0,
			"0.02": 0.0,
			"0.021": 0.0,
			"0.022": 0.0,
			"0.023": 0.0,
			"0.024": 0.0,
			"0.025": 0.0
		}
	}
}
