{
	 "smiles": "CC(Cl)C(=O)NCCOC1=CC(C)=CC=C1", 
	 "Tm": 331.15, 
	 "num_atms": 32, 
	 "gaussian": { 
		 "optdone": 1, 
		 "sigma_profile": "yes", 
		 "theory": "DFT", 
		 "functional": "B3LYP", 
		 "basiset": "6-31G**", 
		 "properties": { 
			 "R2extent": 6799.8998, 
			 "electric_dipole_moment_norm": 1.45103045454, 
			 "electric_quadrupole_moment_norm": 7.25648928891, 
			 "total_energy": -1132.33883478, 
			 "HOMO_LUMO_gap": 0.22198, 
			 "cosmo_polarized_energy": -11.4, 
			 "cosmo_cavitation_energy": 37.32, 
			 "cosmo_dispersion_energy": -26.36, 
			 "cosmo_repulsion_energy": 2.11, 
			 "cosmo_total_nonelectrostatic_energy": 13.07, 
			 "SMD_solvation_energy": 6.22 
		},
		"coords": [
			{
				"x": 2.1140365678,
				"y": 4.6835383597,
				"z": 1.9234519749,
				"element": "C" 
			},
			{
				"x": 2.1595336861,
				"y": 3.1596831298,
				"z": 1.9785158668,
				"element": "C" 
			},
			{
				"x": 2.8820643289,
				"y": 2.4986777342,
				"z": 0.4234045925,
				"element": "Cl" 
			},
			{
				"x": 0.7790205789,
				"y": 2.5795755057,
				"z": 2.3319981348,
				"element": "C" 
			},
			{
				"x": 0.288618901,
				"y": 2.9231039798,
				"z": 3.4037708828,
				"element": "O" 
			},
			{
				"x": 0.1822110133,
				"y": 1.7458490454,
				"z": 1.4492006248,
				"element": "N" 
			},
			{
				"x": -1.1117259045,
				"y": 1.1400218233,
				"z": 1.7111733337,
				"element": "C" 
			},
			{
				"x": -1.0484500479,
				"y": -0.3771081516,
				"z": 1.6213737072,
				"element": "C" 
			},
			{
				"x": -0.6400728976,
				"y": -0.6938234446,
				"z": 0.2937769302,
				"element": "O" 
			},
			{
				"x": -0.4646624317,
				"y": -2.0098678057,
				"z": -0.0484050139,
				"element": "C" 
			},
			{
				"x": -0.0296010692,
				"y": -2.2372965082,
				"z": -1.3621422699,
				"element": "C" 
			},
			{
				"x": 0.1819186026,
				"y": -3.5314226953,
				"z": -1.8341067159,
				"element": "C" 
			},
			{
				"x": 0.6608162178,
				"y": -3.7709464946,
				"z": -3.2471503177,
				"element": "C" 
			},
			{
				"x": -0.0511167222,
				"y": -4.6126994386,
				"z": -0.9663282639,
				"element": "C" 
			},
			{
				"x": -0.4828323544,
				"y": -4.3855157301,
				"z": 0.335450787,
				"element": "C" 
			},
			{
				"x": -0.6952430145,
				"y": -3.0864959307,
				"z": 0.8113330428,
				"element": "C" 
			},
			{
				"x": 3.1168649983,
				"y": 5.0956109114,
				"z": 1.7933223146,
				"element": "H" 
			},
			{
				"x": 1.4832223629,
				"y": 5.0248094721,
				"z": 1.0981117558,
				"element": "H" 
			},
			{
				"x": 1.6911561046,
				"y": 5.0458125757,
				"z": 2.8637095534,
				"element": "H" 
			},
			{
				"x": 2.844631161,
				"y": 2.8262861437,
				"z": 2.7601082899,
				"element": "H" 
			},
			{
				"x": 0.670732293,
				"y": 1.4826939521,
				"z": 0.6046076436,
				"element": "H" 
			},
			{
				"x": -1.8534270367,
				"y": 1.5124108237,
				"z": 0.9937734717,
				"element": "H" 
			},
			{
				"x": -1.4165934798,
				"y": 1.4482044956,
				"z": 2.7137616915,
				"element": "H" 
			},
			{
				"x": -0.3281166074,
				"y": -0.7752351981,
				"z": 2.3485887319,
				"element": "H" 
			},
			{
				"x": -2.0369760562,
				"y": -0.8073716602,
				"z": 1.8351178131,
				"element": "H" 
			},
			{
				"x": 0.138303168,
				"y": -1.3765589434,
				"z": -2.0027353227,
				"element": "H" 
			},
			{
				"x": -0.0011486688,
				"y": -4.463455202,
				"z": -3.7789623424,
				"element": "H" 
			},
			{
				"x": 1.6632117979,
				"y": -4.2151240725,
				"z": -3.2554194559,
				"element": "H" 
			},
			{
				"x": 0.7043407715,
				"y": -2.8405683436,
				"z": -3.8195563369,
				"element": "H" 
			},
			{
				"x": 0.1070499348,
				"y": -5.6290192987,
				"z": -1.3171161575,
				"element": "H" 
			},
			{
				"x": -0.6617250578,
				"y": -5.2261000759,
				"z": 1.0002440873,
				"element": "H" 
			},
			{
				"x": -1.0339411398,
				"y": -2.9342689584,
				"z": 1.8290269662,
				"element": "H" 
			}
		],
		 "valence_orbital": [ 
			{
				"type": "occ",
				"energy": -0.30493,
				"method": "rhf"
			},
			{
				"type": "occ",
				"energy": -0.26072,
				"method": "rhf"
			},
			{
				"type": "occ",
				"energy": -0.25715,
				"method": "rhf"
			},
			{
				"type": "occ",
				"energy": -0.24367,
				"method": "rhf"
			},
			{
				"type": "occ",
				"energy": -0.22073,
				"method": "rhf"
			},
			{
				"type": "unocc",
				"energy": 0.00125,
				"method": "rhf"
			},
			{
				"type": "unocc",
				"energy": 0.00966,
				"method": "rhf"
			},
			{
				"type": "unocc",
				"energy": 0.01289,
				"method": "rhf"
			},
			{
				"type": "unocc",
				"energy": 0.02026,
				"method": "rhf"
			},
			{
				"type": "unocc",
				"energy": 0.0915,
				"method": "rhf"
			}
		],
		"cosmo_sigma_profile": { 
			"-0.025": 0.0,
			"-0.024": 0.0,
			"-0.023": 0.0,
			"-0.022": 0.0,
			"-0.021": 0.0,
			"-0.02": 0.0,
			"-0.019": 0.0,
			"-0.018": 0.0,
			"-0.017": 0.0,
			"-0.016": 0.0,
			"-0.015": 0.0,
			"-0.014": 0.0,
			"-0.013": 0.0,
			"-0.012": 0.0,
			"-0.011": 0.0,
			"-0.01": 0.0,
			"-0.009": 0.441868166398,
			"-0.008": 2.78937469715,
			"-0.007": 2.42489224239,
			"-0.006": 11.6143313195,
			"-0.005": 28.5337356086,
			"-0.004": 30.0442154853,
			"-0.003": 28.7191688339,
			"-0.002": 27.0400091658,
			"-0.001": 24.8467293708,
			"0.0": 25.547281056,
			"0.001": 17.1910461856,
			"0.002": 13.3068193123,
			"0.003": 14.7153964857,
			"0.004": 16.8386298043,
			"0.005": 17.0419311496,
			"0.006": 15.7103317145,
			"0.007": 4.71876870062,
			"0.008": 1.56297317893,
			"0.009": 1.9594401123,
			"0.01": 1.10287606534,
			"0.011": 1.65510831116,
			"0.012": 2.35414350408,
			"0.013": 4.78103312272,
			"0.014": 1.49733424503,
			"0.015": 0.0,
			"0.016": 0.0,
			"0.017": 0.0,
			"0.018": 0.0,
			"0.019": 0.0,
			"0.02": 0.0,
			"0.021": 0.0,
			"0.022": 0.0,
			"0.023": 0.0,
			"0.024": 0.0,
			"0.025": 0.0
		}
	}
}
