{
	 "smiles": "O=S1(=O)CC=CC1", 
	 "Tm": 337.95, 
	 "num_atms": 13, 
	 "gaussian": { 
		 "optdone": 1, 
		 "sigma_profile": "yes", 
		 "theory": "DFT", 
		 "functional": "B3LYP", 
		 "basiset": "6-31G**", 
		 "properties": { 
			 "R2extent": 997.4706, 
			 "electric_dipole_moment_norm": 4.88446568623, 
			 "electric_quadrupole_moment_norm": 11.0256675916, 
			 "total_energy": -704.586999962, 
			 "HOMO_LUMO_gap": 0.26895, 
			 "cosmo_polarized_energy": -13.81, 
			 "cosmo_cavitation_energy": 17.54, 
			 "cosmo_dispersion_energy": -14.09, 
			 "cosmo_repulsion_energy": 1.14, 
			 "cosmo_total_nonelectrostatic_energy": 4.58, 
			 "SMD_solvation_energy": 2.35 
		},
		"coords": [
			{
				"x": 2.3759027932,
				"y": -1.1415597742,
				"z": -0.560829379,
				"element": "O" 
			},
			{
				"x": 0.9642581272,
				"y": -0.7470387425,
				"z": -0.4398879381,
				"element": "S" 
			},
			{
				"x": 0.2606725041,
				"y": -0.1127100331,
				"z": -1.5648838217,
				"element": "O" 
			},
			{
				"x": 0.743086593,
				"y": 0.2774071851,
				"z": 1.0756426081,
				"element": "C" 
			},
			{
				"x": -0.0995087433,
				"y": -0.5688794896,
				"z": 1.9840800041,
				"element": "C" 
			},
			{
				"x": -0.4740088743,
				"y": -1.772812625,
				"z": 1.5395443502,
				"element": "C" 
			},
			{
				"x": -0.0213697943,
				"y": -2.1802003659,
				"z": 0.1682142806,
				"element": "C" 
			},
			{
				"x": 1.7393178564,
				"y": 0.4953797045,
				"z": 1.4728768121,
				"element": "H" 
			},
			{
				"x": 0.2631432064,
				"y": 1.2130516785,
				"z": 0.7723061259,
				"element": "H" 
			},
			{
				"x": -0.3792199373,
				"y": -0.1895596,
				"z": 2.9623111721,
				"element": "H" 
			},
			{
				"x": -1.0834516872,
				"y": -2.4534272616,
				"z": 2.1263993464,
				"element": "H" 
			},
			{
				"x": -0.8415037813,
				"y": -2.33839924,
				"z": -0.5389921816,
				"element": "H" 
			},
			{
				"x": 0.6345817374,
				"y": -3.0562514363,
				"z": 0.1615186208,
				"element": "H" 
			}
		],
		 "valence_orbital": [ 
			{
				"type": "occ",
				"energy": -0.32147,
				"method": "rhf"
			},
			{
				"type": "occ",
				"energy": -0.30944,
				"method": "rhf"
			},
			{
				"type": "occ",
				"energy": -0.29758,
				"method": "rhf"
			},
			{
				"type": "occ",
				"energy": -0.28315,
				"method": "rhf"
			},
			{
				"type": "occ",
				"energy": -0.28175,
				"method": "rhf"
			},
			{
				"type": "unocc",
				"energy": -0.0128,
				"method": "rhf"
			},
			{
				"type": "unocc",
				"energy": 0.05562,
				"method": "rhf"
			},
			{
				"type": "unocc",
				"energy": 0.0646,
				"method": "rhf"
			},
			{
				"type": "unocc",
				"energy": 0.0702,
				"method": "rhf"
			},
			{
				"type": "unocc",
				"energy": 0.07295,
				"method": "rhf"
			}
		],
		"cosmo_sigma_profile": { 
			"-0.025": 0.0,
			"-0.024": 0.0,
			"-0.023": 0.0,
			"-0.022": 0.0,
			"-0.021": 0.0,
			"-0.02": 0.0,
			"-0.019": 0.0,
			"-0.018": 0.0,
			"-0.017": 0.0,
			"-0.016": 0.0,
			"-0.015": 0.0,
			"-0.014": 0.0,
			"-0.013": 0.0,
			"-0.012": 0.0,
			"-0.011": 0.0,
			"-0.01": 0.0,
			"-0.009": 0.491227683454,
			"-0.008": 8.1280768662,
			"-0.007": 12.5438897489,
			"-0.006": 15.0897919828,
			"-0.005": 16.3026738417,
			"-0.004": 11.2591063833,
			"-0.003": 7.39110110391,
			"-0.002": 6.89632657747,
			"-0.001": 5.40125794336,
			"0.0": 3.24565307911,
			"0.001": 4.11429534054,
			"0.002": 4.81160284875,
			"0.003": 3.76311382825,
			"0.004": 2.59389960266,
			"0.005": 1.52944237589,
			"0.006": 1.85156819046,
			"0.007": 2.613324578,
			"0.008": 2.57071287526,
			"0.009": 2.71544073935,
			"0.01": 3.69772473703,
			"0.011": 10.590841238,
			"0.012": 10.4726828125,
			"0.013": 1.33158688005,
			"0.014": 0.0,
			"0.015": 0.0,
			"0.016": 0.0,
			"0.017": 0.0,
			"0.018": 0.0,
			"0.019": 0.0,
			"0.02": 0.0,
			"0.021": 0.0,
			"0.022": 0.0,
			"0.023": 0.0,
			"0.024": 0.0,
			"0.025": 0.0
		}
	}
}
