{
	 "smiles": "CC(C)(C)OC(=O)NCC(C)(C)C(O)=O", 
	 "Tm": 390.15, 
	 "num_atms": 34, 
	 "gaussian": { 
		 "optdone": 1, 
		 "sigma_profile": "yes", 
		 "theory": "DFT", 
		 "functional": "B3LYP", 
		 "basiset": "6-31G**", 
		 "properties": { 
			 "R2extent": 4235.5223, 
			 "electric_dipole_moment_norm": 1.693257538, 
			 "electric_quadrupole_moment_norm": 16.6934853518, 
			 "total_energy": -748.224788373, 
			 "HOMO_LUMO_gap": 0.25173, 
			 "cosmo_polarized_energy": -14.64, 
			 "cosmo_cavitation_energy": 35.76, 
			 "cosmo_dispersion_energy": -23.77, 
			 "cosmo_repulsion_energy": 1.88, 
			 "cosmo_total_nonelectrostatic_energy": 13.87, 
			 "SMD_solvation_energy": 8.22 
		},
		"coords": [
			{
				"x": 2.8687300059,
				"y": 2.3782373737,
				"z": 1.5144814151,
				"element": "C" 
			},
			{
				"x": 2.4285839673,
				"y": 0.938545214,
				"z": 1.2287912977,
				"element": "C" 
			},
			{
				"x": 3.4221324665,
				"y": 0.1944178837,
				"z": 0.3305207617,
				"element": "C" 
			},
			{
				"x": 2.1955215159,
				"y": 0.1725051176,
				"z": 2.5334497694,
				"element": "C" 
			},
			{
				"x": 1.0911111291,
				"y": 0.9338158541,
				"z": 0.6118121362,
				"element": "O" 
			},
			{
				"x": 0.8758338214,
				"y": 1.5360912892,
				"z": -0.5803621823,
				"element": "C" 
			},
			{
				"x": 1.7107776903,
				"y": 2.108946413,
				"z": -1.2629968578,
				"element": "O" 
			},
			{
				"x": -0.4385532783,
				"y": 1.4316531639,
				"z": -0.9589781534,
				"element": "N" 
			},
			{
				"x": -1.5359338567,
				"y": 0.840678493,
				"z": -0.2152034999,
				"element": "C" 
			},
			{
				"x": -1.9879399736,
				"y": -0.5582952999,
				"z": -0.7479610635,
				"element": "C" 
			},
			{
				"x": -2.4794982457,
				"y": -0.4371003954,
				"z": -2.2077705259,
				"element": "C" 
			},
			{
				"x": -0.8499803963,
				"y": -1.5823842123,
				"z": -0.6488709649,
				"element": "C" 
			},
			{
				"x": -3.1529375033,
				"y": -1.0216531584,
				"z": 0.12798994,
				"element": "C" 
			},
			{
				"x": -4.1979644132,
				"y": -0.1518096648,
				"z": 0.0949587006,
				"element": "O" 
			},
			{
				"x": -3.1883108744,
				"y": -2.0327957496,
				"z": 0.7940910439,
				"element": "O" 
			},
			{
				"x": 2.1171859513,
				"y": 2.8916104169,
				"z": 2.1228223244,
				"element": "H" 
			},
			{
				"x": 3.8097265331,
				"y": 2.3696737136,
				"z": 2.0741184337,
				"element": "H" 
			},
			{
				"x": 3.0137797136,
				"y": 2.9329467049,
				"z": 0.5873636309,
				"element": "H" 
			},
			{
				"x": 3.0578031619,
				"y": -0.8153368058,
				"z": 0.1162416079,
				"element": "H" 
			},
			{
				"x": 4.3851973452,
				"y": 0.1055737666,
				"z": 0.8437526567,
				"element": "H" 
			},
			{
				"x": 3.5701253514,
				"y": 0.7255476713,
				"z": -0.6098439032,
				"element": "H" 
			},
			{
				"x": 1.8380213649,
				"y": -0.8409401389,
				"z": 2.3290978807,
				"element": "H" 
			},
			{
				"x": 3.1294081995,
				"y": 0.102353442,
				"z": 3.0989995822,
				"element": "H" 
			},
			{
				"x": 1.45286067,
				"y": 0.682113646,
				"z": 3.1544056847,
				"element": "H" 
			},
			{
				"x": -0.6306911464,
				"y": 1.9050962058,
				"z": -1.8285370825,
				"element": "H" 
			},
			{
				"x": -2.3911997775,
				"y": 1.5229095914,
				"z": -0.2474516769,
				"element": "H" 
			},
			{
				"x": -1.2218126472,
				"y": 0.7493357963,
				"z": 0.8258941208,
				"element": "H" 
			},
			{
				"x": -2.8338433586,
				"y": -1.4028813616,
				"z": -2.5815213824,
				"element": "H" 
			},
			{
				"x": -3.2964314296,
				"y": 0.2839511297,
				"z": -2.2994208546,
				"element": "H" 
			},
			{
				"x": -1.6529779359,
				"y": -0.1188136615,
				"z": -2.8505747719,
				"element": "H" 
			},
			{
				"x": -0.0051282222,
				"y": -1.2615153727,
				"z": -1.2634077626,
				"element": "H" 
			},
			{
				"x": -0.5070790185,
				"y": -1.6951875688,
				"z": 0.3820643098,
				"element": "H" 
			},
			{
				"x": -1.182942476,
				"y": -2.5627743016,
				"z": -0.9991071815,
				"element": "H" 
			},
			{
				"x": -4.877274334,
				"y": -0.5299151953,
				"z": 0.678452567,
				"element": "H" 
			}
		],
		 "valence_orbital": [ 
			{
				"type": "occ",
				"energy": -0.32277,
				"method": "rhf"
			},
			{
				"type": "occ",
				"energy": -0.28817,
				"method": "rhf"
			},
			{
				"type": "occ",
				"energy": -0.27801,
				"method": "rhf"
			},
			{
				"type": "occ",
				"energy": -0.26057,
				"method": "rhf"
			},
			{
				"type": "occ",
				"energy": -0.24947,
				"method": "rhf"
			},
			{
				"type": "unocc",
				"energy": 0.00226,
				"method": "rhf"
			},
			{
				"type": "unocc",
				"energy": 0.05463,
				"method": "rhf"
			},
			{
				"type": "unocc",
				"energy": 0.06823,
				"method": "rhf"
			},
			{
				"type": "unocc",
				"energy": 0.07694,
				"method": "rhf"
			},
			{
				"type": "unocc",
				"energy": 0.08693,
				"method": "rhf"
			}
		],
		"cosmo_sigma_profile": { 
			"-0.025": 0.0,
			"-0.024": 0.0,
			"-0.023": 0.0,
			"-0.022": 0.0,
			"-0.021": 0.0,
			"-0.02": 0.0,
			"-0.019": 0.0,
			"-0.018": 0.522187192793,
			"-0.017": 1.09956656518,
			"-0.016": 0.922379654593,
			"-0.015": 0.527558754204,
			"-0.014": 0.877062262742,
			"-0.013": 1.3226417903,
			"-0.012": 1.9663120956,
			"-0.011": 1.71694135638,
			"-0.01": 1.95340789979,
			"-0.009": 1.57715838813,
			"-0.008": 2.07623420598,
			"-0.007": 2.10016501146,
			"-0.006": 3.9013603452,
			"-0.005": 5.53362316488,
			"-0.004": 20.3694088486,
			"-0.003": 30.1842030655,
			"-0.002": 29.813873647,
			"-0.001": 30.612483412,
			"0.0": 38.2530085975,
			"0.001": 31.8992419178,
			"0.002": 10.6947821341,
			"0.003": 7.99187849749,
			"0.004": 8.61709333638,
			"0.005": 6.30323064768,
			"0.006": 4.75483386905,
			"0.007": 3.85995592344,
			"0.008": 3.71966742645,
			"0.009": 2.78562504033,
			"0.01": 3.82117658909,
			"0.011": 4.7651207614,
			"0.012": 6.08657915531,
			"0.013": 3.45362292644,
			"0.014": 2.77340875227,
			"0.015": 0.127040868851,
			"0.016": 0.0,
			"0.017": 0.0,
			"0.018": 0.0,
			"0.019": 0.0,
			"0.02": 0.0,
			"0.021": 0.0,
			"0.022": 0.0,
			"0.023": 0.0,
			"0.024": 0.0,
			"0.025": 0.0
		}
	}
}
