{
	 "smiles": "OC(=O)CCC(=O)C(O)=O", 
	 "Tm": 388.15, 
	 "num_atms": 16, 
	 "gaussian": { 
		 "optdone": 1, 
		 "sigma_profile": "yes", 
		 "theory": "DFT", 
		 "functional": "B3LYP", 
		 "basiset": "6-31G**", 
		 "properties": { 
			 "R2extent": 1722.0042, 
			 "electric_dipole_moment_norm": 2.71549250782, 
			 "electric_quadrupole_moment_norm": 14.6807366688, 
			 "total_energy": -570.280765503, 
			 "HOMO_LUMO_gap": 0.18543, 
			 "cosmo_polarized_energy": -17.32, 
			 "cosmo_cavitation_energy": 21.29, 
			 "cosmo_dispersion_energy": -15.36, 
			 "cosmo_repulsion_energy": 1.29, 
			 "cosmo_total_nonelectrostatic_energy": 7.22, 
			 "SMD_solvation_energy": 6.69 
		},
		"coords": [
			{
				"x": -0.9989282593,
				"y": 1.2360210963,
				"z": 2.5948482924,
				"element": "O" 
			},
			{
				"x": -0.8231684434,
				"y": 0.2194343668,
				"z": 1.7268083162,
				"element": "C" 
			},
			{
				"x": -1.6023798008,
				"y": -0.0140318615,
				"z": 0.8238240793,
				"element": "O" 
			},
			{
				"x": 0.4522519557,
				"y": -0.5479861547,
				"z": 1.9792207609,
				"element": "C" 
			},
			{
				"x": 0.3757213618,
				"y": -1.9888033557,
				"z": 1.4536581323,
				"element": "C" 
			},
			{
				"x": -0.1670058573,
				"y": -2.1891807251,
				"z": 0.0440087646,
				"element": "C" 
			},
			{
				"x": -0.8894481806,
				"y": -3.1134635398,
				"z": -0.2512295963,
				"element": "O" 
			},
			{
				"x": 0.3681994978,
				"y": -1.2443195973,
				"z": -1.0500309432,
				"element": "C" 
			},
			{
				"x": -0.308395559,
				"y": -1.3611904715,
				"z": -2.1975370238,
				"element": "O" 
			},
			{
				"x": 1.3240412403,
				"y": -0.5109810899,
				"z": -0.8931595645,
				"element": "O" 
			},
			{
				"x": -1.8137617389,
				"y": 1.6929346613,
				"z": 2.3242696751,
				"element": "H" 
			},
			{
				"x": 0.6830190456,
				"y": -0.536107381,
				"z": 3.0478085142,
				"element": "H" 
			},
			{
				"x": 1.2510573568,
				"y": -0.0027338206,
				"z": 1.4661519945,
				"element": "H" 
			},
			{
				"x": 1.3873208536,
				"y": -2.4152011056,
				"z": 1.4685015266,
				"element": "H" 
			},
			{
				"x": -0.2465974607,
				"y": -2.6126357134,
				"z": 2.1006557783,
				"element": "H" 
			},
			{
				"x": 0.1042739884,
				"y": -0.7433553083,
				"z": -2.8247987067,
				"element": "H" 
			}
		],
		 "valence_orbital": [ 
			{
				"type": "occ",
				"energy": -0.33412,
				"method": "rhf"
			},
			{
				"type": "occ",
				"energy": -0.33007,
				"method": "rhf"
			},
			{
				"type": "occ",
				"energy": -0.31571,
				"method": "rhf"
			},
			{
				"type": "occ",
				"energy": -0.29191,
				"method": "rhf"
			},
			{
				"type": "occ",
				"energy": -0.2522,
				"method": "rhf"
			},
			{
				"type": "unocc",
				"energy": -0.06677,
				"method": "rhf"
			},
			{
				"type": "unocc",
				"energy": -0.00446,
				"method": "rhf"
			},
			{
				"type": "unocc",
				"energy": 0.05448,
				"method": "rhf"
			},
			{
				"type": "unocc",
				"energy": 0.06964,
				"method": "rhf"
			},
			{
				"type": "unocc",
				"energy": 0.07224,
				"method": "rhf"
			}
		],
		"cosmo_sigma_profile": { 
			"-0.025": 0.0,
			"-0.024": 0.0,
			"-0.023": 0.0,
			"-0.022": 0.0,
			"-0.021": 0.0,
			"-0.02": 0.091592894194,
			"-0.019": 1.2686453008,
			"-0.018": 2.09022883611,
			"-0.017": 1.41839883837,
			"-0.016": 1.65039703062,
			"-0.015": 1.78291640132,
			"-0.014": 0.973843910769,
			"-0.013": 1.24514876274,
			"-0.012": 1.84024918757,
			"-0.011": 1.96078299261,
			"-0.01": 0.914261749245,
			"-0.009": 0.91437917328,
			"-0.008": 4.80650460649,
			"-0.007": 6.45214515455,
			"-0.006": 11.3550540285,
			"-0.005": 11.6866781597,
			"-0.004": 11.8214235557,
			"-0.003": 10.2408341268,
			"-0.002": 5.25963383017,
			"-0.001": 5.17919602922,
			"0.0": 6.17402462054,
			"0.001": 5.48768979665,
			"0.002": 5.49931842465,
			"0.003": 5.27770337215,
			"0.004": 6.12821965758,
			"0.005": 5.00047111363,
			"0.006": 6.4817236889,
			"0.007": 8.81573796943,
			"0.008": 7.57409727154,
			"0.009": 8.24079819141,
			"0.01": 10.8128854364,
			"0.011": 7.51640604588,
			"0.012": 2.04407099332,
			"0.013": 0.0178178471333,
			"0.014": 0.0,
			"0.015": 0.0,
			"0.016": 0.0,
			"0.017": 0.0,
			"0.018": 0.0,
			"0.019": 0.0,
			"0.02": 0.0,
			"0.021": 0.0,
			"0.022": 0.0,
			"0.023": 0.0,
			"0.024": 0.0,
			"0.025": 0.0
		}
	}
}
