{
	 "smiles": "CC(C)COC=C", 
	 "Tm": 161.15, 
	 "num_atms": 19, 
	 "gaussian": { 
		 "optdone": 1, 
		 "sigma_profile": "yes", 
		 "theory": "DFT", 
		 "functional": "B3LYP", 
		 "basiset": "6-31G**", 
		 "properties": { 
			 "R2extent": 1102.6297, 
			 "electric_dipole_moment_norm": 0.986889092046, 
			 "electric_quadrupole_moment_norm": 2.01548741003, 
			 "total_energy": -311.068019473, 
			 "HOMO_LUMO_gap": 0.26261, 
			 "cosmo_polarized_energy": -3.56, 
			 "cosmo_cavitation_energy": 21.09, 
			 "cosmo_dispersion_energy": -15.09, 
			 "cosmo_repulsion_energy": 1.28, 
			 "cosmo_total_nonelectrostatic_energy": 7.27, 
			 "SMD_solvation_energy": 4.94 
		},
		"coords": [
			{
				"x": -0.7066412947,
				"y": -0.1360211077,
				"z": 1.3264778102,
				"element": "C" 
			},
			{
				"x": 0.8138330906,
				"y": -0.2022523861,
				"z": 1.1348554654,
				"element": "C" 
			},
			{
				"x": 1.4781343538,
				"y": 1.1494134551,
				"z": 1.4364651233,
				"element": "C" 
			},
			{
				"x": 1.2116553015,
				"y": -0.6659165503,
				"z": -0.2716027662,
				"element": "C" 
			},
			{
				"x": 0.7954805805,
				"y": -2.0128080363,
				"z": -0.5276450253,
				"element": "O" 
			},
			{
				"x": -0.2229400264,
				"y": -2.2700937185,
				"z": -1.3896359321,
				"element": "C" 
			},
			{
				"x": -1.0303703889,
				"y": -1.4341492174,
				"z": -2.0498893408,
				"element": "C" 
			},
			{
				"x": -1.1550269717,
				"y": 0.61751778,
				"z": 0.6678099843,
				"element": "H" 
			},
			{
				"x": -1.1793598537,
				"y": -1.0965677481,
				"z": 1.1064587768,
				"element": "H" 
			},
			{
				"x": -0.9539866968,
				"y": 0.135768044,
				"z": 2.3583160657,
				"element": "H" 
			},
			{
				"x": 1.215184104,
				"y": -0.9484726315,
				"z": 1.8344782426,
				"element": "H" 
			},
			{
				"x": 1.1210310616,
				"y": 1.9275182645,
				"z": 0.7506470319,
				"element": "H" 
			},
			{
				"x": 2.5685116115,
				"y": 1.0959094772,
				"z": 1.3429323679,
				"element": "H" 
			},
			{
				"x": 1.2463343513,
				"y": 1.4778184758,
				"z": 2.4545131076,
				"element": "H" 
			},
			{
				"x": 0.8248512131,
				"y": 0.0165422532,
				"z": -1.0362720561,
				"element": "H" 
			},
			{
				"x": 2.3043450655,
				"y": -0.6747430416,
				"z": -0.3595127056,
				"element": "H" 
			},
			{
				"x": -0.3236576009,
				"y": -3.347143383,
				"z": -1.5020646744,
				"element": "H" 
			},
			{
				"x": -0.9929353587,
				"y": -0.3549870064,
				"z": -1.9702873408,
				"element": "H" 
			},
			{
				"x": -1.7804425414,
				"y": -1.855332923,
				"z": -2.7081441343,
				"element": "H" 
			}
		],
		 "valence_orbital": [ 
			{
				"type": "occ",
				"energy": -0.34105,
				"method": "rhf"
			},
			{
				"type": "occ",
				"energy": -0.33389,
				"method": "rhf"
			},
			{
				"type": "occ",
				"energy": -0.32022,
				"method": "rhf"
			},
			{
				"type": "occ",
				"energy": -0.31739,
				"method": "rhf"
			},
			{
				"type": "occ",
				"energy": -0.21857,
				"method": "rhf"
			},
			{
				"type": "unocc",
				"energy": 0.04404,
				"method": "rhf"
			},
			{
				"type": "unocc",
				"energy": 0.08441,
				"method": "rhf"
			},
			{
				"type": "unocc",
				"energy": 0.11359,
				"method": "rhf"
			},
			{
				"type": "unocc",
				"energy": 0.11638,
				"method": "rhf"
			},
			{
				"type": "unocc",
				"energy": 0.13321,
				"method": "rhf"
			}
		],
		"cosmo_sigma_profile": { 
			"-0.025": 0.0,
			"-0.024": 0.0,
			"-0.023": 0.0,
			"-0.022": 0.0,
			"-0.021": 0.0,
			"-0.02": 0.0,
			"-0.019": 0.0,
			"-0.018": 0.0,
			"-0.017": 0.0,
			"-0.016": 0.0,
			"-0.015": 0.0,
			"-0.014": 0.0,
			"-0.013": 0.0,
			"-0.012": 0.0,
			"-0.011": 0.0,
			"-0.01": 0.0,
			"-0.009": 0.0,
			"-0.008": 0.0,
			"-0.007": 0.591745142029,
			"-0.006": 3.00950108415,
			"-0.005": 5.53372278729,
			"-0.004": 10.6096174266,
			"-0.003": 19.4397059592,
			"-0.002": 22.9953677571,
			"-0.001": 20.2488210097,
			"0.0": 18.680838994,
			"0.001": 20.7291637407,
			"0.002": 11.9255028626,
			"0.003": 5.58573445084,
			"0.004": 5.82376353594,
			"0.005": 5.22839757765,
			"0.006": 4.05103531531,
			"0.007": 3.4692991201,
			"0.008": 2.16683228906,
			"0.009": 1.11982496303,
			"0.01": 1.20403616393,
			"0.011": 1.30402740574,
			"0.012": 0.290628905949,
			"0.013": 0.0,
			"0.014": 0.0,
			"0.015": 0.0,
			"0.016": 0.0,
			"0.017": 0.0,
			"0.018": 0.0,
			"0.019": 0.0,
			"0.02": 0.0,
			"0.021": 0.0,
			"0.022": 0.0,
			"0.023": 0.0,
			"0.024": 0.0,
			"0.025": 0.0
		}
	}
}
