{
	 "smiles": "CC(C)CN1C(S)=NN=C1N1CCOCC1", 
	 "Tm": 290.15, 
	 "num_atms": 34, 
	 "gaussian": { 
		 "optdone": 1, 
		 "sigma_profile": "yes", 
		 "theory": "DFT", 
		 "functional": "B3LYP", 
		 "basiset": "6-31G**", 
		 "properties": { 
			 "R2extent": 4791.9673, 
			 "electric_dipole_moment_norm": 5.03454113202, 
			 "electric_quadrupole_moment_norm": 12.6033727264, 
			 "total_energy": -1084.28292941, 
			 "HOMO_LUMO_gap": 0.21122, 
			 "cosmo_polarized_energy": -17.67, 
			 "cosmo_cavitation_energy": 35.96, 
			 "cosmo_dispersion_energy": -25.57, 
			 "cosmo_repulsion_energy": 1.95, 
			 "cosmo_total_nonelectrostatic_energy": 12.35, 
			 "SMD_solvation_energy": 2.91 
		},
		"coords": [
			{
				"x": -3.0085899524,
				"y": -0.6825111253,
				"z": 0.4119684179,
				"element": "C" 
			},
			{
				"x": -1.9555817033,
				"y": -0.3982903505,
				"z": -0.6665117977,
				"element": "C" 
			},
			{
				"x": -2.5780475781,
				"y": -0.3862367399,
				"z": -2.0701621796,
				"element": "C" 
			},
			{
				"x": -0.7999744994,
				"y": -1.4186197847,
				"z": -0.6363325199,
				"element": "C" 
			},
			{
				"x": -0.0620717999,
				"y": -1.4491776263,
				"z": 0.6282854079,
				"element": "N" 
			},
			{
				"x": -0.1677983777,
				"y": -2.3796902448,
				"z": 1.6420071326,
				"element": "C" 
			},
			{
				"x": -1.0154404906,
				"y": -3.9235781682,
				"z": 1.4440703993,
				"element": "S" 
			},
			{
				"x": 0.4596991639,
				"y": -1.9924164688,
				"z": 2.7205869359,
				"element": "N" 
			},
			{
				"x": 1.0319729403,
				"y": -0.7601341762,
				"z": 2.4347941778,
				"element": "N" 
			},
			{
				"x": 0.7106949086,
				"y": -0.4498400746,
				"z": 1.1994201169,
				"element": "C" 
			},
			{
				"x": 1.0167783642,
				"y": 0.7373203247,
				"z": 0.5471243061,
				"element": "N" 
			},
			{
				"x": 1.7465533115,
				"y": 0.6454105051,
				"z": -0.7414299486,
				"element": "C" 
			},
			{
				"x": 3.0150749699,
				"y": 1.512882958,
				"z": -0.7062131737,
				"element": "C" 
			},
			{
				"x": 3.732331403,
				"y": 1.2854769618,
				"z": 0.4877367042,
				"element": "O" 
			},
			{
				"x": 3.0243276821,
				"y": 1.7102837548,
				"z": 1.6605483991,
				"element": "C" 
			},
			{
				"x": 1.5102215208,
				"y": 1.8128724047,
				"z": 1.4175020308,
				"element": "C" 
			},
			{
				"x": -3.4783776727,
				"y": -1.6613373119,
				"z": 0.2586022256,
				"element": "H" 
			},
			{
				"x": -2.5753207176,
				"y": -0.6728458557,
				"z": 1.4162572158,
				"element": "H" 
			},
			{
				"x": -3.7989622934,
				"y": 0.0745324343,
				"z": 0.3837384506,
				"element": "H" 
			},
			{
				"x": -1.5170745091,
				"y": 0.5885890628,
				"z": -0.4710233696,
				"element": "H" 
			},
			{
				"x": -3.0215073043,
				"y": -1.3592051446,
				"z": -2.3146481345,
				"element": "H" 
			},
			{
				"x": -1.8365609376,
				"y": -0.1525821142,
				"z": -2.8424688256,
				"element": "H" 
			},
			{
				"x": -3.3729112966,
				"y": 0.3631124548,
				"z": -2.1345275118,
				"element": "H" 
			},
			{
				"x": -1.1857078123,
				"y": -2.4286950495,
				"z": -0.8098307121,
				"element": "H" 
			},
			{
				"x": -0.0975267149,
				"y": -1.2106525063,
				"z": -1.4482556631,
				"element": "H" 
			},
			{
				"x": -0.6030884134,
				"y": -4.3701062137,
				"z": 2.6450987749,
				"element": "H" 
			},
			{
				"x": 1.106664606,
				"y": 0.9557838444,
				"z": -1.5807514827,
				"element": "H" 
			},
			{
				"x": 2.0456275113,
				"y": -0.3944874088,
				"z": -0.9070506345,
				"element": "H" 
			},
			{
				"x": 3.673535874,
				"y": 1.2312812104,
				"z": -1.5333624388,
				"element": "H" 
			},
			{
				"x": 2.7652449103,
				"y": 2.5779747941,
				"z": -0.8369078739,
				"element": "H" 
			},
			{
				"x": 3.2261708832,
				"y": 0.9620944717,
				"z": 2.4308351845,
				"element": "H" 
			},
			{
				"x": 3.4108986907,
				"y": 2.6844631416,
				"z": 1.9994678745,
				"element": "H" 
			},
			{
				"x": 0.9807848413,
				"y": 1.7617104707,
				"z": 2.3697309001,
				"element": "H" 
			},
			{
				"x": 1.2554604922,
				"y": 2.76741757,
				"z": 0.9435016118,
				"element": "H" 
			}
		],
		 "valence_orbital": [ 
			{
				"type": "occ",
				"energy": -0.28019,
				"method": "rhf"
			},
			{
				"type": "occ",
				"energy": -0.26056,
				"method": "rhf"
			},
			{
				"type": "occ",
				"energy": -0.25349,
				"method": "rhf"
			},
			{
				"type": "occ",
				"energy": -0.24438,
				"method": "rhf"
			},
			{
				"type": "occ",
				"energy": -0.20203,
				"method": "rhf"
			},
			{
				"type": "unocc",
				"energy": 0.00919,
				"method": "rhf"
			},
			{
				"type": "unocc",
				"energy": 0.02845,
				"method": "rhf"
			},
			{
				"type": "unocc",
				"energy": 0.04783,
				"method": "rhf"
			},
			{
				"type": "unocc",
				"energy": 0.06396,
				"method": "rhf"
			},
			{
				"type": "unocc",
				"energy": 0.06813,
				"method": "rhf"
			}
		],
		"cosmo_sigma_profile": { 
			"-0.025": 0.0,
			"-0.024": 0.0,
			"-0.023": 0.0,
			"-0.022": 0.0,
			"-0.021": 0.0,
			"-0.02": 0.0,
			"-0.019": 0.0,
			"-0.018": 0.0,
			"-0.017": 0.0,
			"-0.016": 0.0,
			"-0.015": 0.0,
			"-0.014": 0.0,
			"-0.013": 0.0,
			"-0.012": 0.916886444319,
			"-0.011": 1.24285629159,
			"-0.01": 1.62085932315,
			"-0.009": 0.963095092098,
			"-0.008": 1.03968696074,
			"-0.007": 1.99471286233,
			"-0.006": 11.8434835575,
			"-0.005": 23.9117217049,
			"-0.004": 30.8347999791,
			"-0.003": 31.7765786982,
			"-0.002": 29.1833472717,
			"-0.001": 24.566693478,
			"0.0": 22.7863005176,
			"0.001": 23.8978412463,
			"0.002": 12.4074494776,
			"0.003": 8.70898229991,
			"0.004": 8.73793390318,
			"0.005": 7.29452328403,
			"0.006": 5.19980851098,
			"0.007": 4.76512901254,
			"0.008": 3.63371185628,
			"0.009": 2.56288443039,
			"0.01": 2.50259013989,
			"0.011": 3.97174607287,
			"0.012": 4.12930441872,
			"0.013": 3.69970402305,
			"0.014": 4.17789112821,
			"0.015": 2.50509236942,
			"0.016": 1.88067804142,
			"0.017": 0.469039513923,
			"0.018": 0.0,
			"0.019": 0.0,
			"0.02": 0.0,
			"0.021": 0.0,
			"0.022": 0.0,
			"0.023": 0.0,
			"0.024": 0.0,
			"0.025": 0.0
		}
	}
}
