{
	 "smiles": "ClC1=CC(=CC(Cl)=C1)C#N", 
	 "Tm": 338.15, 
	 "num_atms": 13, 
	 "gaussian": { 
		 "optdone": 1, 
		 "sigma_profile": "yes", 
		 "theory": "DFT", 
		 "functional": "B3LYP", 
		 "basiset": "6-31G**", 
		 "properties": { 
			 "R2extent": 3491.3418, 
			 "electric_dipole_moment_norm": 2.68416436531, 
			 "electric_quadrupole_moment_norm": 4.00406492829, 
			 "total_energy": -1243.66821178, 
			 "HOMO_LUMO_gap": 0.20145, 
			 "cosmo_polarized_energy": -7.77, 
			 "cosmo_cavitation_energy": 22.74, 
			 "cosmo_dispersion_energy": -16.43, 
			 "cosmo_repulsion_energy": 1.34, 
			 "cosmo_total_nonelectrostatic_energy": 7.65, 
			 "SMD_solvation_energy": 4.81 
		},
		"coords": [
			{
				"x": -3.876192644,
				"y": 1.2842986178,
				"z": -1.5624537495,
				"element": "Cl" 
			},
			{
				"x": -2.2942593704,
				"y": 0.5375780991,
				"z": -1.5916450163,
				"element": "C" 
			},
			{
				"x": -1.3380236842,
				"y": 0.9289576127,
				"z": -0.6586418763,
				"element": "C" 
			},
			{
				"x": -0.0739190748,
				"y": 0.3200249518,
				"z": -0.6958279075,
				"element": "C" 
			},
			{
				"x": 0.2262605186,
				"y": -0.6635751684,
				"z": -1.6511049191,
				"element": "C" 
			},
			{
				"x": -0.7580061207,
				"y": -1.026451985,
				"z": -2.5663182662,
				"element": "C" 
			},
			{
				"x": -0.4041859988,
				"y": -2.2505224433,
				"z": -3.7652270906,
				"element": "Cl" 
			},
			{
				"x": -2.0231750433,
				"y": -0.4376394046,
				"z": -2.5523841201,
				"element": "C" 
			},
			{
				"x": 0.926455081,
				"y": 0.7088714918,
				"z": 0.2570081984,
				"element": "C" 
			},
			{
				"x": 1.7368234881,
				"y": 1.0239215052,
				"z": 1.0289550903,
				"element": "N" 
			},
			{
				"x": -1.5628619235,
				"y": 1.6871753181,
				"z": 0.0811304922,
				"element": "H" 
			},
			{
				"x": 1.2036543269,
				"y": -1.1292795263,
				"z": -1.6741274347,
				"element": "H" 
			},
			{
				"x": -2.7780695549,
				"y": -0.7310590688,
				"z": -3.2713634005,
				"element": "H" 
			}
		],
		 "valence_orbital": [ 
			{
				"type": "occ",
				"energy": -0.34354,
				"method": "rhf"
			},
			{
				"type": "occ",
				"energy": -0.33448,
				"method": "rhf"
			},
			{
				"type": "occ",
				"energy": -0.33218,
				"method": "rhf"
			},
			{
				"type": "occ",
				"energy": -0.28386,
				"method": "rhf"
			},
			{
				"type": "occ",
				"energy": -0.2774,
				"method": "rhf"
			},
			{
				"type": "unocc",
				"energy": -0.07595,
				"method": "rhf"
			},
			{
				"type": "unocc",
				"energy": -0.05011,
				"method": "rhf"
			},
			{
				"type": "unocc",
				"energy": -0.01363,
				"method": "rhf"
			},
			{
				"type": "unocc",
				"energy": 0.0105,
				"method": "rhf"
			},
			{
				"type": "unocc",
				"energy": 0.04106,
				"method": "rhf"
			}
		],
		"cosmo_sigma_profile": { 
			"-0.025": 0.0,
			"-0.024": 0.0,
			"-0.023": 0.0,
			"-0.022": 0.0,
			"-0.021": 0.0,
			"-0.02": 0.0,
			"-0.019": 0.0,
			"-0.018": 0.0,
			"-0.017": 0.0,
			"-0.016": 0.0,
			"-0.015": 0.0,
			"-0.014": 0.0,
			"-0.013": 0.0,
			"-0.012": 0.0,
			"-0.011": 0.0,
			"-0.01": 2.09090598535,
			"-0.009": 5.1965601754,
			"-0.008": 5.51762672018,
			"-0.007": 4.83375444613,
			"-0.006": 5.99922891456,
			"-0.005": 5.41949048966,
			"-0.004": 6.82395640521,
			"-0.003": 13.4328805112,
			"-0.002": 15.9969691705,
			"-0.001": 29.3272730565,
			"0.0": 17.3481596635,
			"0.001": 10.4248962201,
			"0.002": 13.0977930256,
			"0.003": 19.8139955805,
			"0.004": 11.8433566616,
			"0.005": 2.70157958047,
			"0.006": 2.19209103553,
			"0.007": 3.28809094451,
			"0.008": 3.14317910596,
			"0.009": 3.47006047596,
			"0.01": 2.66918099171,
			"0.011": 2.53358228712,
			"0.012": 2.00300188632,
			"0.013": 0.407921036334,
			"0.014": 0.0,
			"0.015": 0.0,
			"0.016": 0.0,
			"0.017": 0.0,
			"0.018": 0.0,
			"0.019": 0.0,
			"0.02": 0.0,
			"0.021": 0.0,
			"0.022": 0.0,
			"0.023": 0.0,
			"0.024": 0.0,
			"0.025": 0.0
		}
	}
}
