{
	 "smiles": "CC1=CC2=C(C=C1)C=CC1=C2C=CC=C1", 
	 "Tm": 338.15, 
	 "num_atms": 27, 
	 "gaussian": { 
		 "optdone": 1, 
		 "sigma_profile": "yes", 
		 "theory": "DFT", 
		 "functional": "B3LYP", 
		 "basiset": "6-31G**", 
		 "properties": { 
			 "R2extent": 3413.9524, 
			 "electric_dipole_moment_norm": 0.496163017566, 
			 "electric_quadrupole_moment_norm": 9.8760511719, 
			 "total_energy": -578.862917157, 
			 "HOMO_LUMO_gap": 0.17237, 
			 "cosmo_polarized_energy": -5.92, 
			 "cosmo_cavitation_energy": 29.65, 
			 "cosmo_dispersion_energy": -22.15, 
			 "cosmo_repulsion_energy": 1.67, 
			 "cosmo_total_nonelectrostatic_energy": 9.17, 
			 "SMD_solvation_energy": 4.5 
		},
		"coords": [
			{
				"x": 0.2201944284,
				"y": 2.2604234583,
				"z": 3.7865807169,
				"element": "C" 
			},
			{
				"x": 0.6841248256,
				"y": 1.1453184948,
				"z": 2.8802578346,
				"element": "C" 
			},
			{
				"x": 0.1797642154,
				"y": 1.0028543159,
				"z": 1.5966179961,
				"element": "C" 
			},
			{
				"x": 0.5968432848,
				"y": -0.0326458935,
				"z": 0.7265477485,
				"element": "C" 
			},
			{
				"x": 1.5728798982,
				"y": -0.9550917876,
				"z": 1.2039321106,
				"element": "C" 
			},
			{
				"x": 2.0823874663,
				"y": -0.8026167422,
				"z": 2.5151062023,
				"element": "C" 
			},
			{
				"x": 1.6519666202,
				"y": 0.2189779406,
				"z": 3.3342288667,
				"element": "C" 
			},
			{
				"x": 2.0250687457,
				"y": -2.0202984777,
				"z": 0.3565250553,
				"element": "C" 
			},
			{
				"x": 1.5380664509,
				"y": -2.1705730253,
				"z": -0.9045910141,
				"element": "C" 
			},
			{
				"x": 0.5543680196,
				"y": -1.2684644237,
				"z": -1.4317482629,
				"element": "C" 
			},
			{
				"x": 0.0741326334,
				"y": -0.1927912811,
				"z": -0.6247386418,
				"element": "C" 
			},
			{
				"x": -0.8957194211,
				"y": 0.6721116072,
				"z": -1.1851272158,
				"element": "C" 
			},
			{
				"x": -1.3694380006,
				"y": 0.489995426,
				"z": -2.4718122505,
				"element": "C" 
			},
			{
				"x": -0.8920601906,
				"y": -0.5723112092,
				"z": -3.2625705588,
				"element": "C" 
			},
			{
				"x": 0.054486522,
				"y": -1.434033891,
				"z": -2.7450140872,
				"element": "C" 
			},
			{
				"x": -0.2268624775,
				"y": 1.8658059945,
				"z": 4.7067492751,
				"element": "H" 
			},
			{
				"x": 1.056346239,
				"y": 2.9024619755,
				"z": 4.0881037002,
				"element": "H" 
			},
			{
				"x": -0.5260561104,
				"y": 2.8917455542,
				"z": 3.2966096099,
				"element": "H" 
			},
			{
				"x": -0.5621125358,
				"y": 1.719065641,
				"z": 1.2589567964,
				"element": "H" 
			},
			{
				"x": 2.8265967334,
				"y": -1.511251266,
				"z": 2.8702115951,
				"element": "H" 
			},
			{
				"x": 2.0568585414,
				"y": 0.3176990945,
				"z": 4.33850446,
				"element": "H" 
			},
			{
				"x": 2.770104655,
				"y": -2.7089421088,
				"z": 0.7468327203,
				"element": "H" 
			},
			{
				"x": 1.8870229593,
				"y": -2.9810280386,
				"z": -1.539253321,
				"element": "H" 
			},
			{
				"x": -1.2832822804,
				"y": 1.4996854847,
				"z": -0.6014764111,
				"element": "H" 
			},
			{
				"x": -2.1141337286,
				"y": 1.1715965436,
				"z": -2.8727669867,
				"element": "H" 
			},
			{
				"x": -1.2668841062,
				"y": -0.7114720319,
				"z": -4.2724069509,
				"element": "H" 
			},
			{
				"x": 0.4322366124,
				"y": -2.2588213545,
				"z": -3.3441589872,
				"element": "H" 
			}
		],
		 "valence_orbital": [ 
			{
				"type": "occ",
				"energy": -0.3058,
				"method": "rhf"
			},
			{
				"type": "occ",
				"energy": -0.27875,
				"method": "rhf"
			},
			{
				"type": "occ",
				"energy": -0.25403,
				"method": "rhf"
			},
			{
				"type": "occ",
				"energy": -0.22,
				"method": "rhf"
			},
			{
				"type": "occ",
				"energy": -0.2067,
				"method": "rhf"
			},
			{
				"type": "unocc",
				"energy": -0.03433,
				"method": "rhf"
			},
			{
				"type": "unocc",
				"energy": -0.02915,
				"method": "rhf"
			},
			{
				"type": "unocc",
				"energy": 0.01126,
				"method": "rhf"
			},
			{
				"type": "unocc",
				"energy": 0.03754,
				"method": "rhf"
			},
			{
				"type": "unocc",
				"energy": 0.08167,
				"method": "rhf"
			}
		],
		"cosmo_sigma_profile": { 
			"-0.025": 0.0,
			"-0.024": 0.0,
			"-0.023": 0.0,
			"-0.022": 0.0,
			"-0.021": 0.0,
			"-0.02": 0.0,
			"-0.019": 0.0,
			"-0.018": 0.0,
			"-0.017": 0.0,
			"-0.016": 0.0,
			"-0.015": 0.0,
			"-0.014": 0.0,
			"-0.013": 0.0,
			"-0.012": 0.0,
			"-0.011": 0.0,
			"-0.01": 0.0,
			"-0.009": 0.0,
			"-0.008": 0.416462940851,
			"-0.007": 1.82808817643,
			"-0.006": 10.0556847454,
			"-0.005": 19.1420302483,
			"-0.004": 22.4199475294,
			"-0.003": 22.8236160042,
			"-0.002": 18.3278231053,
			"-0.001": 16.1084133647,
			"0.0": 17.2940799102,
			"0.001": 15.4238472483,
			"0.002": 13.0381454959,
			"0.003": 19.7772712532,
			"0.004": 30.0375129148,
			"0.005": 25.2034674138,
			"0.006": 5.61267562723,
			"0.007": 0.0,
			"0.008": 0.0,
			"0.009": 0.0,
			"0.01": 0.0,
			"0.011": 0.0,
			"0.012": 0.0,
			"0.013": 0.0,
			"0.014": 0.0,
			"0.015": 0.0,
			"0.016": 0.0,
			"0.017": 0.0,
			"0.018": 0.0,
			"0.019": 0.0,
			"0.02": 0.0,
			"0.021": 0.0,
			"0.022": 0.0,
			"0.023": 0.0,
			"0.024": 0.0,
			"0.025": 0.0
		}
	}
}
