{
	 "smiles": "CC(=O)C1=C(C)C(CCl)=C(C)C=C1C", 
	 "Tm": 348.15, 
	 "num_atms": 29, 
	 "gaussian": { 
		 "optdone": 1, 
		 "sigma_profile": "yes", 
		 "theory": "DFT", 
		 "functional": "B3LYP", 
		 "basiset": "6-31G**", 
		 "properties": { 
			 "R2extent": 4291.1259, 
			 "electric_dipole_moment_norm": 3.92220850542, 
			 "electric_quadrupole_moment_norm": 13.5502863331, 
			 "total_energy": -1001.75233885, 
			 "HOMO_LUMO_gap": 0.20122, 
			 "cosmo_polarized_energy": -10.85, 
			 "cosmo_cavitation_energy": 32.44, 
			 "cosmo_dispersion_energy": -22.78, 
			 "cosmo_repulsion_energy": 1.78, 
			 "cosmo_total_nonelectrostatic_energy": 11.45, 
			 "SMD_solvation_energy": 5.77 
		},
		"coords": [
			{
				"x": 0.9144487382,
				"y": -1.4653791412,
				"z": 2.0859476934,
				"element": "C" 
			},
			{
				"x": 1.5579148989,
				"y": -0.5900605237,
				"z": 1.0231586037,
				"element": "C" 
			},
			{
				"x": 2.7014554091,
				"y": -0.1881813259,
				"z": 1.1435837448,
				"element": "O" 
			},
			{
				"x": 0.6866693329,
				"y": -0.1524511499,
				"z": -0.1357278236,
				"element": "C" 
			},
			{
				"x": 0.2545401739,
				"y": -1.074959011,
				"z": -1.1048771611,
				"element": "C" 
			},
			{
				"x": 0.7290155319,
				"y": -2.5157368959,
				"z": -1.0667348349,
				"element": "C" 
			},
			{
				"x": -0.5880904743,
				"y": -0.63974932,
				"z": -2.1513759858,
				"element": "C" 
			},
			{
				"x": -1.0916788593,
				"y": -1.6199649554,
				"z": -3.1674807045,
				"element": "C" 
			},
			{
				"x": 0.0235730022,
				"y": -1.7721623298,
				"z": -4.6352663188,
				"element": "Cl" 
			},
			{
				"x": -0.9633344086,
				"y": 0.7149448085,
				"z": -2.243453103,
				"element": "C" 
			},
			{
				"x": -1.8437579486,
				"y": 1.2233784132,
				"z": -3.3625314994,
				"element": "C" 
			},
			{
				"x": -0.4920678434,
				"y": 1.6088092599,
				"z": -1.2792882529,
				"element": "C" 
			},
			{
				"x": 0.3323966761,
				"y": 1.2088608175,
				"z": -0.2271593466,
				"element": "C" 
			},
			{
				"x": 0.8232340935,
				"y": 2.2276493853,
				"z": 0.7765022516,
				"element": "C" 
			},
			{
				"x": 0.2191362648,
				"y": -0.8448390112,
				"z": 2.6663153868,
				"element": "H" 
			},
			{
				"x": 1.6803666881,
				"y": -1.8588680093,
				"z": 2.7571019155,
				"element": "H" 
			},
			{
				"x": 0.3247869259,
				"y": -2.279300807,
				"z": 1.6568165432,
				"element": "H" 
			},
			{
				"x": 1.0514479514,
				"y": -2.8446244665,
				"z": -2.0585999736,
				"element": "H" 
			},
			{
				"x": 1.5829675049,
				"y": -2.6447220888,
				"z": -0.3994605465,
				"element": "H" 
			},
			{
				"x": -0.0589319573,
				"y": -3.2039395572,
				"z": -0.7340600019,
				"element": "H" 
			},
			{
				"x": -2.053444246,
				"y": -1.3272880228,
				"z": -3.5834466005,
				"element": "H" 
			},
			{
				"x": -1.1719947707,
				"y": -2.6318042884,
				"z": -2.7762099088,
				"element": "H" 
			},
			{
				"x": -1.443192646,
				"y": 0.9539637427,
				"z": -4.3452991457,
				"element": "H" 
			},
			{
				"x": -2.8601973489,
				"y": 0.8146394327,
				"z": -3.3018878943,
				"element": "H" 
			},
			{
				"x": -1.9287972911,
				"y": 2.3120082304,
				"z": -3.3216155141,
				"element": "H" 
			},
			{
				"x": -0.7725668288,
				"y": 2.6566353535,
				"z": -1.3544460297,
				"element": "H" 
			},
			{
				"x": 0.4119520926,
				"y": 3.2160020576,
				"z": 0.5570207746,
				"element": "H" 
			},
			{
				"x": 0.5322718966,
				"y": 1.965598819,
				"z": 1.8006958412,
				"element": "H" 
			},
			{
				"x": 1.9145774419,
				"y": 2.2926405835,
				"z": 0.765677891,
				"element": "H" 
			}
		],
		 "valence_orbital": [ 
			{
				"type": "occ",
				"energy": -0.29444,
				"method": "rhf"
			},
			{
				"type": "occ",
				"energy": -0.29367,
				"method": "rhf"
			},
			{
				"type": "occ",
				"energy": -0.25227,
				"method": "rhf"
			},
			{
				"type": "occ",
				"energy": -0.24476,
				"method": "rhf"
			},
			{
				"type": "occ",
				"energy": -0.23923,
				"method": "rhf"
			},
			{
				"type": "unocc",
				"energy": -0.03801,
				"method": "rhf"
			},
			{
				"type": "unocc",
				"energy": -0.0282,
				"method": "rhf"
			},
			{
				"type": "unocc",
				"energy": 0.00554,
				"method": "rhf"
			},
			{
				"type": "unocc",
				"energy": 0.03969,
				"method": "rhf"
			},
			{
				"type": "unocc",
				"energy": 0.08273,
				"method": "rhf"
			}
		],
		"cosmo_sigma_profile": { 
			"-0.025": 0.0,
			"-0.024": 0.0,
			"-0.023": 0.0,
			"-0.022": 0.0,
			"-0.021": 0.0,
			"-0.02": 0.0,
			"-0.019": 0.0,
			"-0.018": 0.0,
			"-0.017": 0.0,
			"-0.016": 0.0,
			"-0.015": 0.0,
			"-0.014": 0.0,
			"-0.013": 0.0,
			"-0.012": 0.0,
			"-0.011": 0.0,
			"-0.01": 0.0,
			"-0.009": 0.0,
			"-0.008": 0.24949575013,
			"-0.007": 4.46134522627,
			"-0.006": 11.2048437,
			"-0.005": 22.1289342711,
			"-0.004": 23.6160229552,
			"-0.003": 23.6473385091,
			"-0.002": 25.9143794059,
			"-0.001": 26.7381291178,
			"0.0": 25.2809040243,
			"0.001": 14.0695435941,
			"0.002": 11.1259338184,
			"0.003": 10.4973114117,
			"0.004": 14.5004854959,
			"0.005": 12.6355661089,
			"0.006": 10.5858373102,
			"0.007": 7.15918779489,
			"0.008": 1.24166871238,
			"0.009": 2.01033056428,
			"0.01": 2.1375740785,
			"0.011": 3.45479035972,
			"0.012": 3.77769571768,
			"0.013": 1.20594610913,
			"0.014": 0.0031729275428,
			"0.015": 0.0,
			"0.016": 0.0,
			"0.017": 0.0,
			"0.018": 0.0,
			"0.019": 0.0,
			"0.02": 0.0,
			"0.021": 0.0,
			"0.022": 0.0,
			"0.023": 0.0,
			"0.024": 0.0,
			"0.025": 0.0
		}
	}
}
