{
	 "smiles": "ClC1=C2C=CC=CC2=NC2=CC=CC=C12", 
	 "Tm": 394.15, 
	 "num_atms": 23, 
	 "gaussian": { 
		 "optdone": 1, 
		 "sigma_profile": "yes", 
		 "theory": "DFT", 
		 "functional": "B3LYP", 
		 "basiset": "6-31G**", 
		 "properties": { 
			 "R2extent": 3504.32, 
			 "electric_dipole_moment_norm": 0.287640904602, 
			 "electric_quadrupole_moment_norm": 14.8011698528, 
			 "total_energy": -1015.16127711, 
			 "HOMO_LUMO_gap": 0.13202, 
			 "cosmo_polarized_energy": -6.1, 
			 "cosmo_cavitation_energy": 28.3, 
			 "cosmo_dispersion_energy": -21.56, 
			 "cosmo_repulsion_energy": 1.63, 
			 "cosmo_total_nonelectrostatic_energy": 8.37, 
			 "SMD_solvation_energy": 2.66 
		},
		"coords": [
			{
				"x": 3.000200606,
				"y": -1.2150521777,
				"z": -0.9491407055,
				"element": "Cl" 
			},
			{
				"x": 1.4801604733,
				"y": -0.568681318,
				"z": -0.3456661072,
				"element": "C" 
			},
			{
				"x": 1.2399225061,
				"y": -0.5566898595,
				"z": 1.0374114322,
				"element": "C" 
			},
			{
				"x": 2.1505381153,
				"y": -1.0384487251,
				"z": 2.0268288368,
				"element": "C" 
			},
			{
				"x": 1.8276269675,
				"y": -0.9854369023,
				"z": 3.3573955048,
				"element": "C" 
			},
			{
				"x": 0.5780431699,
				"y": -0.4493997259,
				"z": 3.7840349331,
				"element": "C" 
			},
			{
				"x": -0.3218252781,
				"y": 0.0224565488,
				"z": 2.8671041532,
				"element": "C" 
			},
			{
				"x": -0.0313310951,
				"y": -0.0109243687,
				"z": 1.4665315669,
				"element": "C" 
			},
			{
				"x": -0.9559239813,
				"y": 0.4671459485,
				"z": 0.621416045,
				"element": "N" 
			},
			{
				"x": -0.696464235,
				"y": 0.44172726,
				"z": -0.6937515611,
				"element": "C" 
			},
			{
				"x": -1.6921803346,
				"y": 0.9551137443,
				"z": -1.5837476446,
				"element": "C" 
			},
			{
				"x": -1.4915228505,
				"y": 0.9589173428,
				"z": -2.9375909523,
				"element": "C" 
			},
			{
				"x": -0.2801052255,
				"y": 0.4485880931,
				"z": -3.4879068589,
				"element": "C" 
			},
			{
				"x": 0.7025764166,
				"y": -0.0534025578,
				"z": -2.6756117315,
				"element": "C" 
			},
			{
				"x": 0.5332982105,
				"y": -0.0759311282,
				"z": -1.2574826001,
				"element": "C" 
			},
			{
				"x": 3.1021559562,
				"y": -1.4471194621,
				"z": 1.7077217646,
				"element": "H" 
			},
			{
				"x": 2.5305567595,
				"y": -1.3556832658,
				"z": 4.0976367821,
				"element": "H" 
			},
			{
				"x": 0.3446694417,
				"y": -0.4180365697,
				"z": 4.8442654611,
				"element": "H" 
			},
			{
				"x": -1.2811910943,
				"y": 0.4365351624,
				"z": 3.1587295471,
				"element": "H" 
			},
			{
				"x": -2.602544156,
				"y": 1.3359911423,
				"z": -1.1331261832,
				"element": "H" 
			},
			{
				"x": -2.2558163429,
				"y": 1.3516317286,
				"z": -3.6017947883,
				"element": "H" 
			},
			{
				"x": -0.1365240818,
				"y": 0.4588370606,
				"z": -4.5642101629,
				"element": "H" 
			},
			{
				"x": 1.6219800525,
				"y": -0.4402379705,
				"z": -3.0992467313,
				"element": "H" 
			}
		],
		 "valence_orbital": [ 
			{
				"type": "occ",
				"energy": -0.29361,
				"method": "rhf"
			},
			{
				"type": "occ",
				"energy": -0.26566,
				"method": "rhf"
			},
			{
				"type": "occ",
				"energy": -0.26045,
				"method": "rhf"
			},
			{
				"type": "occ",
				"energy": -0.25262,
				"method": "rhf"
			},
			{
				"type": "occ",
				"energy": -0.21455,
				"method": "rhf"
			},
			{
				"type": "unocc",
				"energy": -0.08253,
				"method": "rhf"
			},
			{
				"type": "unocc",
				"energy": -0.02578,
				"method": "rhf"
			},
			{
				"type": "unocc",
				"energy": -0.00275,
				"method": "rhf"
			},
			{
				"type": "unocc",
				"energy": 0.02642,
				"method": "rhf"
			},
			{
				"type": "unocc",
				"energy": 0.02795,
				"method": "rhf"
			}
		],
		"cosmo_sigma_profile": { 
			"-0.025": 0.0,
			"-0.024": 0.0,
			"-0.023": 0.0,
			"-0.022": 0.0,
			"-0.021": 0.0,
			"-0.02": 0.0,
			"-0.019": 0.0,
			"-0.018": 0.0,
			"-0.017": 0.0,
			"-0.016": 0.0,
			"-0.015": 0.0,
			"-0.014": 0.0,
			"-0.013": 0.0,
			"-0.012": 0.0,
			"-0.011": 0.0,
			"-0.01": 0.0,
			"-0.009": 0.0,
			"-0.008": 0.0,
			"-0.007": 3.51511024799,
			"-0.006": 14.0135296391,
			"-0.005": 17.0380537216,
			"-0.004": 14.6788366949,
			"-0.003": 12.4494013249,
			"-0.002": 13.7260340866,
			"-0.001": 16.3063235709,
			"0.0": 29.4267548106,
			"0.001": 26.481828238,
			"0.002": 27.3222606759,
			"0.003": 28.5530561945,
			"0.004": 16.1429211065,
			"0.005": 1.43579395286,
			"0.006": 1.38064719577,
			"0.007": 2.13128552106,
			"0.008": 1.3086080458,
			"0.009": 0.688656555612,
			"0.01": 0.891471160982,
			"0.011": 0.542795618462,
			"0.012": 0.769029964773,
			"0.013": 1.30242230882,
			"0.014": 0.707658205694,
			"0.015": 0.243452006732,
			"0.016": 0.0,
			"0.017": 0.0,
			"0.018": 0.0,
			"0.019": 0.0,
			"0.02": 0.0,
			"0.021": 0.0,
			"0.022": 0.0,
			"0.023": 0.0,
			"0.024": 0.0,
			"0.025": 0.0
		}
	}
}
