{
	 "smiles": "CC(=O)C1=CC=C(C)N=C1", 
	 "Tm": 290.75, 
	 "num_atms": 19, 
	 "gaussian": { 
		 "optdone": 1, 
		 "sigma_profile": "yes", 
		 "theory": "DFT", 
		 "functional": "B3LYP", 
		 "basiset": "6-31G**", 
		 "properties": { 
			 "R2extent": 2282.3933, 
			 "electric_dipole_moment_norm": 4.24622945918, 
			 "electric_quadrupole_moment_norm": 9.10344687522, 
			 "total_energy": -440.255767991, 
			 "HOMO_LUMO_gap": 0.18353, 
			 "cosmo_polarized_energy": -10.51, 
			 "cosmo_cavitation_energy": 23.03, 
			 "cosmo_dispersion_energy": -16.88, 
			 "cosmo_repulsion_energy": 1.36, 
			 "cosmo_total_nonelectrostatic_energy": 7.51, 
			 "SMD_solvation_energy": 3.49 
		},
		"coords": [
			{
				"x": 0.8753177622,
				"y": 0.2441040367,
				"z": 2.2756004927,
				"element": "C" 
			},
			{
				"x": 1.4976876311,
				"y": 1.0346047784,
				"z": 1.1365924843,
				"element": "C" 
			},
			{
				"x": 2.2085164301,
				"y": 2.0019665559,
				"z": 1.3632999274,
				"element": "O" 
			},
			{
				"x": 1.2203923463,
				"y": 0.6043272779,
				"z": -0.2695789405,
				"element": "C" 
			},
			{
				"x": 0.4164387371,
				"y": -0.4922583121,
				"z": -0.6102229234,
				"element": "C" 
			},
			{
				"x": 0.2264576275,
				"y": -0.8024457281,
				"z": -1.9508266015,
				"element": "C" 
			},
			{
				"x": 0.8426424814,
				"y": -0.0123629638,
				"z": -2.9341439513,
				"element": "C" 
			},
			{
				"x": 0.6639110511,
				"y": -0.3124490534,
				"z": -4.4006062317,
				"element": "C" 
			},
			{
				"x": 1.6160590826,
				"y": 1.0421576247,
				"z": -2.6178288976,
				"element": "N" 
			},
			{
				"x": 1.7911982012,
				"y": 1.3303636343,
				"z": -1.3262243594,
				"element": "C" 
			},
			{
				"x": -0.2183361939,
				"y": 0.2502580769,
				"z": 2.2066803301,
				"element": "H" 
			},
			{
				"x": 1.1804640006,
				"y": 0.6937636644,
				"z": 3.2207136445,
				"element": "H" 
			},
			{
				"x": 1.1985423821,
				"y": -0.8026702264,
				"z": 2.2501377382,
				"element": "H" 
			},
			{
				"x": -0.05585971,
				"y": -1.0972966805,
				"z": 0.1578042161,
				"element": "H" 
			},
			{
				"x": -0.3916688943,
				"y": -1.6467594314,
				"z": -2.2418775063,
				"element": "H" 
			},
			{
				"x": -0.3931884781,
				"y": -0.2685085789,
				"z": -4.6869139352,
				"element": "H" 
			},
			{
				"x": 1.022457223,
				"y": -1.3191007601,
				"z": -4.6444545946,
				"element": "H" 
			},
			{
				"x": 1.2205775628,
				"y": 0.4136348023,
				"z": -4.9943942165,
				"element": "H" 
			},
			{
				"x": 2.419390757,
				"y": 2.1858712832,
				"z": -1.0913566753,
				"element": "H" 
			}
		],
		 "valence_orbital": [ 
			{
				"type": "occ",
				"energy": -0.35803,
				"method": "rhf"
			},
			{
				"type": "occ",
				"energy": -0.29461,
				"method": "rhf"
			},
			{
				"type": "occ",
				"energy": -0.26651,
				"method": "rhf"
			},
			{
				"type": "occ",
				"energy": -0.25995,
				"method": "rhf"
			},
			{
				"type": "occ",
				"energy": -0.24484,
				"method": "rhf"
			},
			{
				"type": "unocc",
				"energy": -0.06131,
				"method": "rhf"
			},
			{
				"type": "unocc",
				"energy": -0.0275,
				"method": "rhf"
			},
			{
				"type": "unocc",
				"energy": 0.02922,
				"method": "rhf"
			},
			{
				"type": "unocc",
				"energy": 0.08668,
				"method": "rhf"
			},
			{
				"type": "unocc",
				"energy": 0.11211,
				"method": "rhf"
			}
		],
		"cosmo_sigma_profile": { 
			"-0.025": 0.0,
			"-0.024": 0.0,
			"-0.023": 0.0,
			"-0.022": 0.0,
			"-0.021": 0.0,
			"-0.02": 0.0,
			"-0.019": 0.0,
			"-0.018": 0.0,
			"-0.017": 0.0,
			"-0.016": 0.0,
			"-0.015": 0.0,
			"-0.014": 0.0,
			"-0.013": 0.0,
			"-0.012": 0.0,
			"-0.011": 0.0,
			"-0.01": 0.0,
			"-0.009": 0.0,
			"-0.008": 0.646321514608,
			"-0.007": 6.46435956146,
			"-0.006": 12.4476841933,
			"-0.005": 13.79679781,
			"-0.004": 16.8490299507,
			"-0.003": 15.3468499969,
			"-0.002": 16.1114758059,
			"-0.001": 18.4619984584,
			"0.0": 16.5873230583,
			"0.001": 15.8906175798,
			"0.002": 11.2347533082,
			"0.003": 5.20186850583,
			"0.004": 3.27611325369,
			"0.005": 3.45672730639,
			"0.006": 2.7520936074,
			"0.007": 2.66309078612,
			"0.008": 3.37389294142,
			"0.009": 2.83868109199,
			"0.01": 3.98467941706,
			"0.011": 3.60025722275,
			"0.012": 3.91920882762,
			"0.013": 2.14930266801,
			"0.014": 0.632864979012,
			"0.015": 0.984796029191,
			"0.016": 0.488777775062,
			"0.017": 0.0148220728534,
			"0.018": 0.0,
			"0.019": 0.0,
			"0.02": 0.0,
			"0.021": 0.0,
			"0.022": 0.0,
			"0.023": 0.0,
			"0.024": 0.0,
			"0.025": 0.0
		}
	}
}
