{
	 "smiles": "NCCCNC1=NC=C(C=C1)C(F)(F)F", 
	 "Tm": 322.15, 
	 "num_atms": 27, 
	 "gaussian": { 
		 "optdone": 1, 
		 "sigma_profile": "yes", 
		 "theory": "DFT", 
		 "functional": "B3LYP", 
		 "basiset": "6-31G**", 
		 "properties": { 
			 "R2extent": 5536.3151, 
			 "electric_dipole_moment_norm": 4.93941485097, 
			 "electric_quadrupole_moment_norm": 12.4192953447, 
			 "total_energy": -813.978096555, 
			 "HOMO_LUMO_gap": 0.18739, 
			 "cosmo_polarized_energy": -11.69, 
			 "cosmo_cavitation_energy": 31.23, 
			 "cosmo_dispersion_energy": -22.06, 
			 "cosmo_repulsion_energy": 1.69, 
			 "cosmo_total_nonelectrostatic_energy": 10.86, 
			 "SMD_solvation_energy": 4.07 
		},
		"coords": [
			{
				"x": -1.6017000519,
				"y": 0.361979971,
				"z": -1.8741605278,
				"element": "N" 
			},
			{
				"x": -1.9102400303,
				"y": -0.7109715977,
				"z": -0.93223201,
				"element": "C" 
			},
			{
				"x": -1.3061109188,
				"y": -2.0965803406,
				"z": -1.2364136284,
				"element": "C" 
			},
			{
				"x": 0.2274950839,
				"y": -2.1224511621,
				"z": -1.332534673,
				"element": "C" 
			},
			{
				"x": 0.9106959479,
				"y": -1.7764021576,
				"z": -0.0919154267,
				"element": "N" 
			},
			{
				"x": 1.5411868536,
				"y": -0.592685757,
				"z": 0.1665933237,
				"element": "C" 
			},
			{
				"x": 1.4824066537,
				"y": 0.3768774845,
				"z": -0.7659559479,
				"element": "N" 
			},
			{
				"x": 2.1166891615,
				"y": 1.5292041162,
				"z": -0.5223094362,
				"element": "C" 
			},
			{
				"x": 2.8287190034,
				"y": 1.7945025659,
				"z": 0.6421490582,
				"element": "C" 
			},
			{
				"x": 2.8781657145,
				"y": 0.7858181208,
				"z": 1.620717543,
				"element": "C" 
			},
			{
				"x": 2.2375573432,
				"y": -0.4119152339,
				"z": 1.3918574211,
				"element": "C" 
			},
			{
				"x": 3.551270551,
				"y": 3.0866853662,
				"z": 0.8488035779,
				"element": "C" 
			},
			{
				"x": 4.8942585264,
				"y": 2.9465103063,
				"z": 0.7171016328,
				"element": "F" 
			},
			{
				"x": 3.3447386357,
				"y": 3.5801207469,
				"z": 2.0941841843,
				"element": "F" 
			},
			{
				"x": 3.165649647,
				"y": 4.0335773997,
				"z": -0.0341305552,
				"element": "F" 
			},
			{
				"x": -0.605005295,
				"y": 0.5698080225,
				"z": -1.8383627182,
				"element": "H" 
			},
			{
				"x": -1.8222116759,
				"y": 0.07578825,
				"z": -2.8255173894,
				"element": "H" 
			},
			{
				"x": -3.0006816968,
				"y": -0.8191598609,
				"z": -0.8689940396,
				"element": "H" 
			},
			{
				"x": -1.5799433542,
				"y": -0.3836745221,
				"z": 0.0608147723,
				"element": "H" 
			},
			{
				"x": -1.6373630907,
				"y": -2.8138223821,
				"z": -0.4713607096,
				"element": "H" 
			},
			{
				"x": -1.7032661188,
				"y": -2.4647636208,
				"z": -2.1934788556,
				"element": "H" 
			},
			{
				"x": 0.5587528574,
				"y": -3.1224374898,
				"z": -1.6385381224,
				"element": "H" 
			},
			{
				"x": 0.5690621885,
				"y": -1.4193954001,
				"z": -2.0941063999,
				"element": "H" 
			},
			{
				"x": 0.9373741718,
				"y": -2.4724276422,
				"z": 0.6370291636,
				"element": "H" 
			},
			{
				"x": 2.0416603406,
				"y": 2.2865975835,
				"z": -1.2979889352,
				"element": "H" 
			},
			{
				"x": 3.4140395416,
				"y": 0.9531199744,
				"z": 2.549983783,
				"element": "H" 
			},
			{
				"x": 2.2623000105,
				"y": -1.2087027411,
				"z": 2.1293649153,
				"element": "H" 
			}
		],
		 "valence_orbital": [ 
			{
				"type": "occ",
				"energy": -0.31567,
				"method": "rhf"
			},
			{
				"type": "occ",
				"energy": -0.29491,
				"method": "rhf"
			},
			{
				"type": "occ",
				"energy": -0.27265,
				"method": "rhf"
			},
			{
				"type": "occ",
				"energy": -0.22238,
				"method": "rhf"
			},
			{
				"type": "occ",
				"energy": -0.21816,
				"method": "rhf"
			},
			{
				"type": "unocc",
				"energy": -0.03077,
				"method": "rhf"
			},
			{
				"type": "unocc",
				"energy": -0.01275,
				"method": "rhf"
			},
			{
				"type": "unocc",
				"energy": 0.06618,
				"method": "rhf"
			},
			{
				"type": "unocc",
				"energy": 0.09289,
				"method": "rhf"
			},
			{
				"type": "unocc",
				"energy": 0.10365,
				"method": "rhf"
			}
		],
		"cosmo_sigma_profile": { 
			"-0.025": 0.0,
			"-0.024": 0.0,
			"-0.023": 0.0,
			"-0.022": 0.0,
			"-0.021": 0.0,
			"-0.02": 0.0,
			"-0.019": 0.0,
			"-0.018": 0.0,
			"-0.017": 0.0,
			"-0.016": 0.0,
			"-0.015": 0.0,
			"-0.014": 0.805581468621,
			"-0.013": 1.39613990963,
			"-0.012": 1.85464136489,
			"-0.011": 1.63662579837,
			"-0.01": 1.15533314203,
			"-0.009": 2.05738610706,
			"-0.008": 3.90415493836,
			"-0.007": 5.73206846182,
			"-0.006": 7.86763415881,
			"-0.005": 9.30444999119,
			"-0.004": 11.1091699483,
			"-0.003": 16.9907367218,
			"-0.002": 22.0631257713,
			"-0.001": 20.4051520589,
			"0.0": 22.1546127112,
			"0.001": 21.8376661896,
			"0.002": 27.4943088661,
			"0.003": 39.3478446112,
			"0.004": 12.3951165389,
			"0.005": 2.47235179663,
			"0.006": 2.16967800212,
			"0.007": 1.61812861614,
			"0.008": 0.809938417963,
			"0.009": 1.57714824585,
			"0.01": 1.48078880692,
			"0.011": 0.795549139535,
			"0.012": 0.689959959163,
			"0.013": 0.562875103947,
			"0.014": 0.744480031136,
			"0.015": 0.82574396145,
			"0.016": 0.508333524063,
			"0.017": 0.479553101419,
			"0.018": 0.922390357883,
			"0.019": 0.575803474176,
			"0.02": 0.481381286402,
			"0.021": 0.237020045145,
			"0.022": 0.0,
			"0.023": 0.0,
			"0.024": 0.0,
			"0.025": 0.0
		}
	}
}
