{
	 "smiles": "CC1=C2CCC2=C(CCl)C2=C1CC2", 
	 "Tm": 346.15, 
	 "num_atms": 26, 
	 "gaussian": { 
		 "optdone": 1, 
		 "sigma_profile": "yes", 
		 "theory": "DFT", 
		 "functional": "B3LYP", 
		 "basiset": "6-31G**", 
		 "properties": { 
			 "R2extent": 3345.8847, 
			 "electric_dipole_moment_norm": 2.80019712342, 
			 "electric_quadrupole_moment_norm": 10.9233935579, 
			 "total_energy": -925.252546909, 
			 "HOMO_LUMO_gap": 0.19808, 
			 "cosmo_polarized_energy": -5.58, 
			 "cosmo_cavitation_energy": 30.44, 
			 "cosmo_dispersion_energy": -21.48, 
			 "cosmo_repulsion_energy": 1.76, 
			 "cosmo_total_nonelectrostatic_energy": 10.72, 
			 "SMD_solvation_energy": 3.75 
		},
		"coords": [
			{
				"x": -2.1949071894,
				"y": -1.3764672154,
				"z": 2.4821999855,
				"element": "C" 
			},
			{
				"x": -1.5750588069,
				"y": -0.7002307011,
				"z": 1.2883373943,
				"element": "C" 
			},
			{
				"x": -1.3384432169,
				"y": 0.6766538288,
				"z": 1.1899516813,
				"element": "C" 
			},
			{
				"x": -1.5141094336,
				"y": 1.982277133,
				"z": 1.9543865381,
				"element": "C" 
			},
			{
				"x": -0.8535577629,
				"y": 2.6920316448,
				"z": 0.7072448466,
				"element": "C" 
			},
			{
				"x": -0.7521881731,
				"y": 1.3062251291,
				"z": 0.0862806124,
				"element": "C" 
			},
			{
				"x": -0.3216138132,
				"y": 0.6360548263,
				"z": -1.0654355737,
				"element": "C" 
			},
			{
				"x": 0.3083093837,
				"y": 1.3040769735,
				"z": -2.2412513259,
				"element": "C" 
			},
			{
				"x": -0.9313217839,
				"y": 1.8375334206,
				"z": -3.5015345638,
				"element": "Cl" 
			},
			{
				"x": -0.5569576687,
				"y": -0.741216596,
				"z": -0.9721555363,
				"element": "C" 
			},
			{
				"x": -1.1436544651,
				"y": -1.3658629014,
				"z": 0.1340906433,
				"element": "C" 
			},
			{
				"x": -1.0624368212,
				"y": -2.7516796744,
				"z": -0.4926436575,
				"element": "C" 
			},
			{
				"x": -0.4016364761,
				"y": -2.0451730466,
				"z": -1.7414982157,
				"element": "C" 
			},
			{
				"x": -1.4299183862,
				"y": -1.6784248249,
				"z": 3.2090171642,
				"element": "H" 
			},
			{
				"x": -2.8899872445,
				"y": -0.7100671138,
				"z": 3.0018683759,
				"element": "H" 
			},
			{
				"x": -2.7392294274,
				"y": -2.2798827543,
				"z": 2.1909563157,
				"element": "H" 
			},
			{
				"x": -0.9434089796,
				"y": 2.072999145,
				"z": 2.8852026081,
				"element": "H" 
			},
			{
				"x": -2.5486739272,
				"y": 2.2837448581,
				"z": 2.1523872009,
				"element": "H" 
			},
			{
				"x": 0.0978269638,
				"y": 3.1925814015,
				"z": 0.9195972601,
				"element": "H" 
			},
			{
				"x": -1.5070530511,
				"y": 3.3976383686,
				"z": 0.1836757019,
				"element": "H" 
			},
			{
				"x": 0.8351266222,
				"y": 2.2167402015,
				"z": -1.9628692784,
				"element": "H" 
			},
			{
				"x": 0.9855495944,
				"y": 0.6399740425,
				"z": -2.7781845774,
				"element": "H" 
			},
			{
				"x": -2.0218125818,
				"y": -3.2378086983,
				"z": -0.7016547899,
				"element": "H" 
			},
			{
				"x": -0.41429902,
				"y": -3.4716866463,
				"z": 0.0190815669,
				"element": "H" 
			},
			{
				"x": 0.6274502287,
				"y": -2.3586979706,
				"z": -1.9499680385,
				"element": "H" 
			},
			{
				"x": -0.980794564,
				"y": -2.1189328302,
				"z": -2.6678823382,
				"element": "H" 
			}
		],
		 "valence_orbital": [ 
			{
				"type": "occ",
				"energy": -0.30829,
				"method": "rhf"
			},
			{
				"type": "occ",
				"energy": -0.28523,
				"method": "rhf"
			},
			{
				"type": "occ",
				"energy": -0.28463,
				"method": "rhf"
			},
			{
				"type": "occ",
				"energy": -0.23479,
				"method": "rhf"
			},
			{
				"type": "occ",
				"energy": -0.2245,
				"method": "rhf"
			},
			{
				"type": "unocc",
				"energy": -0.02642,
				"method": "rhf"
			},
			{
				"type": "unocc",
				"energy": 0.0136,
				"method": "rhf"
			},
			{
				"type": "unocc",
				"energy": 0.04393,
				"method": "rhf"
			},
			{
				"type": "unocc",
				"energy": 0.08984,
				"method": "rhf"
			},
			{
				"type": "unocc",
				"energy": 0.09919,
				"method": "rhf"
			}
		],
		"cosmo_sigma_profile": { 
			"-0.025": 0.0,
			"-0.024": 0.0,
			"-0.023": 0.0,
			"-0.022": 0.0,
			"-0.021": 0.0,
			"-0.02": 0.0,
			"-0.019": 0.0,
			"-0.018": 0.0,
			"-0.017": 0.0,
			"-0.016": 0.0,
			"-0.015": 0.0,
			"-0.014": 0.0,
			"-0.013": 0.0,
			"-0.012": 0.0,
			"-0.011": 0.0,
			"-0.01": 0.0,
			"-0.009": 0.0,
			"-0.008": 0.070539929784,
			"-0.007": 2.5462017339,
			"-0.006": 3.75224106092,
			"-0.005": 4.73020553797,
			"-0.004": 20.8728340212,
			"-0.003": 26.3723901349,
			"-0.002": 31.599404624,
			"-0.001": 32.7414172238,
			"0.0": 33.9236427734,
			"0.001": 20.7964090564,
			"0.002": 11.5631149136,
			"0.003": 8.13047103695,
			"0.004": 10.1080588941,
			"0.005": 9.88354135375,
			"0.006": 13.1189182244,
			"0.007": 11.2052455923,
			"0.008": 1.07083815247,
			"0.009": 0.0,
			"0.01": 0.0,
			"0.011": 0.0,
			"0.012": 0.0,
			"0.013": 0.0,
			"0.014": 0.0,
			"0.015": 0.0,
			"0.016": 0.0,
			"0.017": 0.0,
			"0.018": 0.0,
			"0.019": 0.0,
			"0.02": 0.0,
			"0.021": 0.0,
			"0.022": 0.0,
			"0.023": 0.0,
			"0.024": 0.0,
			"0.025": 0.0
		}
	}
}
