{
	 "smiles": "OC(=O)C1=CC2=C(C=C1)C(=O)N(C(S)=N2)C1=CC=CC=C1", 
	 "Tm": 642.15, 
	 "num_atms": 31, 
	 "gaussian": { 
		 "optdone": 1, 
		 "sigma_profile": "yes", 
		 "theory": "DFT", 
		 "functional": "B3LYP", 
		 "basiset": "6-31G**", 
		 "properties": { 
			 "R2extent": 8464.3005, 
			 "electric_dipole_moment_norm": 6.18800546461, 
			 "electric_quadrupole_moment_norm": 21.1040128222, 
			 "total_energy": -1311.0116785, 
			 "HOMO_LUMO_gap": 0.1626, 
			 "cosmo_polarized_energy": -20.83, 
			 "cosmo_cavitation_energy": 38.3, 
			 "cosmo_dispersion_energy": -27.61, 
			 "cosmo_repulsion_energy": 2.05, 
			 "cosmo_total_nonelectrostatic_energy": 12.74, 
			 "SMD_solvation_energy": 6.59 
		},
		"coords": [
			{
				"x": -3.3247204837,
				"y": -1.3592424701,
				"z": 4.5324478662,
				"element": "O" 
			},
			{
				"x": -2.9285602238,
				"y": -0.0604768833,
				"z": 4.5558165137,
				"element": "C" 
			},
			{
				"x": -3.2137312174,
				"y": 0.6454142971,
				"z": 5.4935699177,
				"element": "O" 
			},
			{
				"x": -2.1370349729,
				"y": 0.4280260237,
				"z": 3.3745483591,
				"element": "C" 
			},
			{
				"x": -1.4317644297,
				"y": -0.4346857721,
				"z": 2.5406500293,
				"element": "C" 
			},
			{
				"x": -0.6891864613,
				"y": 0.0702893086,
				"z": 1.4555794443,
				"element": "C" 
			},
			{
				"x": -0.6757001234,
				"y": 1.4627934016,
				"z": 1.2312487239,
				"element": "C" 
			},
			{
				"x": -1.3789963482,
				"y": 2.3296361655,
				"z": 2.0839676213,
				"element": "C" 
			},
			{
				"x": -2.0961345352,
				"y": 1.820741248,
				"z": 3.1520593314,
				"element": "C" 
			},
			{
				"x": 0.0880101761,
				"y": 2.0044959576,
				"z": 0.1015942701,
				"element": "C" 
			},
			{
				"x": 0.1727039846,
				"y": 3.1830811208,
				"z": -0.1970266466,
				"element": "O" 
			},
			{
				"x": 0.7623965174,
				"y": 1.0099909954,
				"z": -0.6662527127,
				"element": "N" 
			},
			{
				"x": 0.6764841939,
				"y": -0.3341958789,
				"z": -0.3402553395,
				"element": "C" 
			},
			{
				"x": 1.5838024722,
				"y": -1.4439520227,
				"z": -1.4027027588,
				"element": "S" 
			},
			{
				"x": 0.00254493,
				"y": -0.8185326082,
				"z": 0.6515418582,
				"element": "N" 
			},
			{
				"x": 1.5408761068,
				"y": 1.4638199346,
				"z": -1.7979019118,
				"element": "C" 
			},
			{
				"x": 0.9341997171,
				"y": 1.5750259451,
				"z": -3.0501610297,
				"element": "C" 
			},
			{
				"x": 1.686669752,
				"y": 2.0176047104,
				"z": -4.1376143633,
				"element": "C" 
			},
			{
				"x": 3.0322249157,
				"y": 2.3506813653,
				"z": -3.9689076373,
				"element": "C" 
			},
			{
				"x": 3.6288601693,
				"y": 2.2439944667,
				"z": -2.7108782391,
				"element": "C" 
			},
			{
				"x": 2.8832491949,
				"y": 1.8021595282,
				"z": -1.61844186,
				"element": "C" 
			},
			{
				"x": -3.1549294658,
				"y": -1.7456316443,
				"z": 3.6620217284,
				"element": "H" 
			},
			{
				"x": -1.3910107707,
				"y": -1.50726486,
				"z": 2.7081240714,
				"element": "H" 
			},
			{
				"x": -1.3383245718,
				"y": 3.3946370542,
				"z": 1.8818447264,
				"element": "H" 
			},
			{
				"x": -2.6361266754,
				"y": 2.4683295483,
				"z": 3.8332178949,
				"element": "H" 
			},
			{
				"x": 1.1912878387,
				"y": -2.5191650809,
				"z": -0.6927042903,
				"element": "H" 
			},
			{
				"x": -0.1139750884,
				"y": 1.3182875543,
				"z": -3.1636816898,
				"element": "H" 
			},
			{
				"x": 1.2206037983,
				"y": 2.1047793963,
				"z": -5.1141658559,
				"element": "H" 
			},
			{
				"x": 3.615200126,
				"y": 2.6962582974,
				"z": -4.8173550002,
				"element": "H" 
			},
			{
				"x": 4.6735466312,
				"y": 2.5072939429,
				"z": -2.5776220802,
				"element": "H" 
			},
			{
				"x": 3.3307348435,
				"y": 1.7196069586,
				"z": -0.6333609411,
				"element": "H" 
			}
		],
		 "valence_orbital": [ 
			{
				"type": "occ",
				"energy": -0.27862,
				"method": "rhf"
			},
			{
				"type": "occ",
				"energy": -0.27499,
				"method": "rhf"
			},
			{
				"type": "occ",
				"energy": -0.27047,
				"method": "rhf"
			},
			{
				"type": "occ",
				"energy": -0.26881,
				"method": "rhf"
			},
			{
				"type": "occ",
				"energy": -0.23776,
				"method": "rhf"
			},
			{
				"type": "unocc",
				"energy": -0.07516,
				"method": "rhf"
			},
			{
				"type": "unocc",
				"energy": -0.0499,
				"method": "rhf"
			},
			{
				"type": "unocc",
				"energy": -0.03235,
				"method": "rhf"
			},
			{
				"type": "unocc",
				"energy": -0.02159,
				"method": "rhf"
			},
			{
				"type": "unocc",
				"energy": 0.0045,
				"method": "rhf"
			}
		],
		"cosmo_sigma_profile": { 
			"-0.025": 0.0,
			"-0.024": 0.0,
			"-0.023": 0.0,
			"-0.022": 0.0,
			"-0.021": 0.0,
			"-0.02": 0.0,
			"-0.019": 0.469027186653,
			"-0.018": 1.209975135,
			"-0.017": 0.839602691547,
			"-0.016": 1.13623759779,
			"-0.015": 0.602817731765,
			"-0.014": 1.05245695027,
			"-0.013": 1.22960128497,
			"-0.012": 2.39523587811,
			"-0.011": 2.04380740364,
			"-0.01": 2.22916051556,
			"-0.009": 2.50056978381,
			"-0.008": 3.02029838463,
			"-0.007": 12.1102497487,
			"-0.006": 21.6574357819,
			"-0.005": 21.2817688686,
			"-0.004": 18.4742043262,
			"-0.003": 17.4790284896,
			"-0.002": 16.3401829126,
			"-0.001": 18.0534740097,
			"0.0": 23.7413375959,
			"0.001": 24.8407349492,
			"0.002": 20.7045799974,
			"0.003": 19.7649559959,
			"0.004": 16.7063476815,
			"0.005": 8.95477344912,
			"0.006": 7.26944141348,
			"0.007": 6.51360645485,
			"0.008": 5.06028460022,
			"0.009": 6.71192633868,
			"0.01": 8.15559989903,
			"0.011": 9.38040329953,
			"0.012": 7.91552152522,
			"0.013": 1.06677597702,
			"0.014": 0.0,
			"0.015": 0.0,
			"0.016": 0.0,
			"0.017": 0.0,
			"0.018": 0.0,
			"0.019": 0.0,
			"0.02": 0.0,
			"0.021": 0.0,
			"0.022": 0.0,
			"0.023": 0.0,
			"0.024": 0.0,
			"0.025": 0.0
		}
	}
}
