{
	 "smiles": "CSC1=NC(N)=NC(=N1)C1=CN=CC=C1", 
	 "Tm": 521.15, 
	 "num_atms": 24, 
	 "gaussian": { 
		 "optdone": 1, 
		 "sigma_profile": "yes", 
		 "theory": "DFT", 
		 "functional": "B3LYP", 
		 "basiset": "6-31G**", 
		 "properties": { 
			 "R2extent": 4294.1416, 
			 "electric_dipole_moment_norm": 3.06374761689, 
			 "electric_quadrupole_moment_norm": 10.824381423, 
			 "total_energy": -1020.35472587, 
			 "HOMO_LUMO_gap": 0.17396, 
			 "cosmo_polarized_energy": -13.57, 
			 "cosmo_cavitation_energy": 30.68, 
			 "cosmo_dispersion_energy": -23.01, 
			 "cosmo_repulsion_energy": 1.76, 
			 "cosmo_total_nonelectrostatic_energy": 9.43, 
			 "SMD_solvation_energy": 0.72 
		},
		"coords": [
			{
				"x": 3.5562425951,
				"y": -2.1414439035,
				"z": -0.687768183,
				"element": "C" 
			},
			{
				"x": 2.2776057074,
				"y": -2.1876133437,
				"z": -1.9885319905,
				"element": "S" 
			},
			{
				"x": 1.0753137376,
				"y": -1.0572154013,
				"z": -1.3532503908,
				"element": "C" 
			},
			{
				"x": 0.0059678662,
				"y": -0.9034953279,
				"z": -2.1364255868,
				"element": "N" 
			},
			{
				"x": -0.9055032312,
				"y": -0.0432427592,
				"z": -1.6494080355,
				"element": "C" 
			},
			{
				"x": -2.017514387,
				"y": 0.1649081602,
				"z": -2.3872125945,
				"element": "N" 
			},
			{
				"x": -0.8037154767,
				"y": 0.6312536434,
				"z": -0.4843268482,
				"element": "N" 
			},
			{
				"x": 0.3142730665,
				"y": 0.3881245574,
				"z": 0.2039893135,
				"element": "C" 
			},
			{
				"x": 1.2950730499,
				"y": -0.4505673215,
				"z": -0.1817809025,
				"element": "N" 
			},
			{
				"x": 0.4904673995,
				"y": 1.0966979181,
				"z": 1.4942906975,
				"element": "C" 
			},
			{
				"x": 1.6371263365,
				"y": 0.8980287147,
				"z": 2.2796183505,
				"element": "C" 
			},
			{
				"x": 1.8534223718,
				"y": 1.5066933275,
				"z": 3.4499847307,
				"element": "N" 
			},
			{
				"x": 0.9108065175,
				"y": 2.3533341562,
				"z": 3.8854730166,
				"element": "C" 
			},
			{
				"x": -0.2674208987,
				"y": 2.6257537501,
				"z": 3.1866168064,
				"element": "C" 
			},
			{
				"x": -0.4811959877,
				"y": 1.9865083719,
				"z": 1.9702995241,
				"element": "C" 
			},
			{
				"x": 3.9639191182,
				"y": -1.1361712506,
				"z": -0.5804980885,
				"element": "H" 
			},
			{
				"x": 4.3388596716,
				"y": -2.8264770447,
				"z": -1.0212726675,
				"element": "H" 
			},
			{
				"x": 3.1506852547,
				"y": -2.4776380546,
				"z": 0.2665813036,
				"element": "H" 
			},
			{
				"x": -2.7206058735,
				"y": 0.8018394339,
				"z": -2.053195686,
				"element": "H" 
			},
			{
				"x": -2.1272534026,
				"y": -0.3212295472,
				"z": -3.2612758957,
				"element": "H" 
			},
			{
				"x": 2.4051714806,
				"y": 0.2132719445,
				"z": 1.932725687,
				"element": "H" 
			},
			{
				"x": 1.1076297924,
				"y": 2.8377598095,
				"z": 4.8405786446,
				"element": "H" 
			},
			{
				"x": -0.9956639901,
				"y": 3.3222703843,
				"z": 3.5901989341,
				"element": "H" 
			},
			{
				"x": -1.3761907179,
				"y": 2.1574497823,
				"z": 1.3824898609,
				"element": "H" 
			}
		],
		 "valence_orbital": [ 
			{
				"type": "occ",
				"energy": -0.26727,
				"method": "rhf"
			},
			{
				"type": "occ",
				"energy": -0.26226,
				"method": "rhf"
			},
			{
				"type": "occ",
				"energy": -0.25343,
				"method": "rhf"
			},
			{
				"type": "occ",
				"energy": -0.25213,
				"method": "rhf"
			},
			{
				"type": "occ",
				"energy": -0.23751,
				"method": "rhf"
			},
			{
				"type": "unocc",
				"energy": -0.06355,
				"method": "rhf"
			},
			{
				"type": "unocc",
				"energy": -0.0252,
				"method": "rhf"
			},
			{
				"type": "unocc",
				"energy": -0.01267,
				"method": "rhf"
			},
			{
				"type": "unocc",
				"energy": 0.02213,
				"method": "rhf"
			},
			{
				"type": "unocc",
				"energy": 0.0371,
				"method": "rhf"
			}
		],
		"cosmo_sigma_profile": { 
			"-0.025": 0.0,
			"-0.024": 0.0,
			"-0.023": 0.0,
			"-0.022": 0.0,
			"-0.021": 0.0,
			"-0.02": 0.0,
			"-0.019": 0.0,
			"-0.018": 0.0,
			"-0.017": 0.0,
			"-0.016": 0.0,
			"-0.015": 0.836583837614,
			"-0.014": 2.59368339022,
			"-0.013": 1.23880456128,
			"-0.012": 2.43520739373,
			"-0.011": 2.25885430394,
			"-0.01": 1.73969707863,
			"-0.009": 1.73074820683,
			"-0.008": 1.79335428758,
			"-0.007": 8.18300521287,
			"-0.006": 10.7520203843,
			"-0.005": 11.7869296619,
			"-0.004": 13.8989375092,
			"-0.003": 15.4076549135,
			"-0.002": 17.743859154,
			"-0.001": 16.568972885,
			"0.0": 19.3671255144,
			"0.001": 27.6130676382,
			"0.002": 22.1647627235,
			"0.003": 12.8751957908,
			"0.004": 13.0346590297,
			"0.005": 11.5875022023,
			"0.006": 9.13010410595,
			"0.007": 7.22530564465,
			"0.008": 4.08140915267,
			"0.009": 2.53432591478,
			"0.01": 2.23385972217,
			"0.011": 1.57535553896,
			"0.012": 2.04426045003,
			"0.013": 0.916330732663,
			"0.014": 1.14015274047,
			"0.015": 0.971717769322,
			"0.016": 0.594402680037,
			"0.017": 0.230459835821,
			"0.018": 0.0,
			"0.019": 0.0,
			"0.02": 0.0,
			"0.021": 0.0,
			"0.022": 0.0,
			"0.023": 0.0,
			"0.024": 0.0,
			"0.025": 0.0
		}
	}
}
