{
	 "smiles": "NC(=O)NC1CCCC2=C1C=CC=C2", 
	 "Tm": 478.15, 
	 "num_atms": 28, 
	 "gaussian": { 
		 "optdone": 1, 
		 "sigma_profile": "yes", 
		 "theory": "DFT", 
		 "functional": "B3LYP", 
		 "basiset": "6-31G**", 
		 "properties": { 
			 "R2extent": 3179.249, 
			 "electric_dipole_moment_norm": 4.00398344277, 
			 "electric_quadrupole_moment_norm": 19.5835852713, 
			 "total_energy": -612.376296181, 
			 "HOMO_LUMO_gap": 0.22206, 
			 "cosmo_polarized_energy": -13.32, 
			 "cosmo_cavitation_energy": 29.29, 
			 "cosmo_dispersion_energy": -21.36, 
			 "cosmo_repulsion_energy": 1.69, 
			 "cosmo_total_nonelectrostatic_energy": 9.62, 
			 "SMD_solvation_energy": 4.97 
		},
		"coords": [
			{
				"x": -2.2803931608,
				"y": 0.2557677211,
				"z": -0.4498987818,
				"element": "N" 
			},
			{
				"x": -2.670858125,
				"y": -0.6604116298,
				"z": -1.4126924981,
				"element": "C" 
			},
			{
				"x": -3.8417480414,
				"y": -0.8247012695,
				"z": -1.7321093122,
				"element": "O" 
			},
			{
				"x": -1.6498424142,
				"y": -1.3966420807,
				"z": -2.0038918964,
				"element": "N" 
			},
			{
				"x": -0.3269828345,
				"y": -1.6910118626,
				"z": -1.4345203696,
				"element": "C" 
			},
			{
				"x": -0.3973092017,
				"y": -2.4302293962,
				"z": -0.0853385833,
				"element": "C" 
			},
			{
				"x": 1.0031930953,
				"y": -2.6197310159,
				"z": 0.5030204822,
				"element": "C" 
			},
			{
				"x": 1.6369885711,
				"y": -1.2569149112,
				"z": 0.8024128883,
				"element": "C" 
			},
			{
				"x": 1.5357501841,
				"y": -0.2879235425,
				"z": -0.3626192346,
				"element": "C" 
			},
			{
				"x": 0.5902846972,
				"y": -0.4622442281,
				"z": -1.3929786209,
				"element": "C" 
			},
			{
				"x": 0.5324313318,
				"y": 0.4757059219,
				"z": -2.4363967946,
				"element": "C" 
			},
			{
				"x": 1.3864145832,
				"y": 1.5754932496,
				"z": -2.4674646879,
				"element": "C" 
			},
			{
				"x": 2.3237851612,
				"y": 1.7501953653,
				"z": -1.4469913786,
				"element": "C" 
			},
			{
				"x": 2.3915457066,
				"y": 0.8225659791,
				"z": -0.4109257317,
				"element": "C" 
			},
			{
				"x": -3.0207722509,
				"y": 0.9012289051,
				"z": -0.2146615689,
				"element": "H" 
			},
			{
				"x": -1.3566368474,
				"y": 0.6611160904,
				"z": -0.5223317341,
				"element": "H" 
			},
			{
				"x": -2.0474454826,
				"y": -2.1251556793,
				"z": -2.5807121098,
				"element": "H" 
			},
			{
				"x": 0.1267696201,
				"y": -2.3821527054,
				"z": -2.1587537063,
				"element": "H" 
			},
			{
				"x": -1.0183055903,
				"y": -1.8518260078,
				"z": 0.6083561313,
				"element": "H" 
			},
			{
				"x": -0.8967508636,
				"y": -3.393538631,
				"z": -0.2376884095,
				"element": "H" 
			},
			{
				"x": 0.9580559294,
				"y": -3.2223803545,
				"z": 1.4167004775,
				"element": "H" 
			},
			{
				"x": 1.6321777618,
				"y": -3.1731081176,
				"z": -0.2078736161,
				"element": "H" 
			},
			{
				"x": 1.1342631072,
				"y": -0.8151673345,
				"z": 1.6754117402,
				"element": "H" 
			},
			{
				"x": 2.6886948492,
				"y": -1.3732968568,
				"z": 1.0892766496,
				"element": "H" 
			},
			{
				"x": -0.2026783894,
				"y": 0.3320037033,
				"z": -3.2225217737,
				"element": "H" 
			},
			{
				"x": 1.3226525027,
				"y": 2.2892574069,
				"z": -3.2837427744,
				"element": "H" 
			},
			{
				"x": 2.9989199322,
				"y": 2.6011000882,
				"z": -1.4605355472,
				"element": "H" 
			},
			{
				"x": 3.1228961689,
				"y": 0.9550011924,
				"z": 0.3832707605,
				"element": "H" 
			}
		],
		 "valence_orbital": [ 
			{
				"type": "occ",
				"energy": -0.26311,
				"method": "rhf"
			},
			{
				"type": "occ",
				"energy": -0.25543,
				"method": "rhf"
			},
			{
				"type": "occ",
				"energy": -0.24873,
				"method": "rhf"
			},
			{
				"type": "occ",
				"energy": -0.24596,
				"method": "rhf"
			},
			{
				"type": "occ",
				"energy": -0.23419,
				"method": "rhf"
			},
			{
				"type": "unocc",
				"energy": -0.01213,
				"method": "rhf"
			},
			{
				"type": "unocc",
				"energy": -0.00795,
				"method": "rhf"
			},
			{
				"type": "unocc",
				"energy": 0.06235,
				"method": "rhf"
			},
			{
				"type": "unocc",
				"energy": 0.07824,
				"method": "rhf"
			},
			{
				"type": "unocc",
				"energy": 0.09553,
				"method": "rhf"
			}
		],
		"cosmo_sigma_profile": { 
			"-0.025": 0.0,
			"-0.024": 0.0,
			"-0.023": 0.0,
			"-0.022": 0.0,
			"-0.021": 0.0,
			"-0.02": 0.0,
			"-0.019": 0.0,
			"-0.018": 0.0,
			"-0.017": 0.0,
			"-0.016": 0.0,
			"-0.015": 0.0,
			"-0.014": 0.0,
			"-0.013": 1.17150727485,
			"-0.012": 2.27436798891,
			"-0.011": 2.16226297365,
			"-0.01": 2.13227138961,
			"-0.009": 3.0988154604,
			"-0.008": 2.88451576271,
			"-0.007": 3.01380450601,
			"-0.006": 4.74188422232,
			"-0.005": 10.5233470678,
			"-0.004": 17.24395573,
			"-0.003": 25.3291434973,
			"-0.002": 25.017596642,
			"-0.001": 26.2357887698,
			"0.0": 22.3414858053,
			"0.001": 14.1848164983,
			"0.002": 9.19458056942,
			"0.003": 9.31777690441,
			"0.004": 9.83630008165,
			"0.005": 9.41580644092,
			"0.006": 6.9029737646,
			"0.007": 2.4141355586,
			"0.008": 1.37881737835,
			"0.009": 2.27307352167,
			"0.01": 1.6602726182,
			"0.011": 1.03158208299,
			"0.012": 1.32381202604,
			"0.013": 1.8301272945,
			"0.014": 4.98888864896,
			"0.015": 5.45348334808,
			"0.016": 0.306780376763,
			"0.017": 0.0,
			"0.018": 0.0,
			"0.019": 0.0,
			"0.02": 0.0,
			"0.021": 0.0,
			"0.022": 0.0,
			"0.023": 0.0,
			"0.024": 0.0,
			"0.025": 0.0
		}
	}
}
