{
	 "smiles": "CC1=CSC(=O)N1CCC(O)=O", 
	 "Tm": 382.15, 
	 "num_atms": 21, 
	 "gaussian": { 
		 "optdone": 1, 
		 "sigma_profile": "yes", 
		 "theory": "DFT", 
		 "functional": "B3LYP", 
		 "basiset": "6-31G**", 
		 "properties": { 
			 "R2extent": 3123.105, 
			 "electric_dipole_moment_norm": 5.60255294843, 
			 "electric_quadrupole_moment_norm": 12.1921437024, 
			 "total_energy": -950.804038665, 
			 "HOMO_LUMO_gap": 0.20893, 
			 "cosmo_polarized_energy": -16.58, 
			 "cosmo_cavitation_energy": 27.14, 
			 "cosmo_dispersion_energy": -19.7, 
			 "cosmo_repulsion_energy": 1.54, 
			 "cosmo_total_nonelectrostatic_energy": 8.98, 
			 "SMD_solvation_energy": 6.45 
		},
		"coords": [
			{
				"x": 0.8887295445,
				"y": 1.3840972421,
				"z": 1.5594965072,
				"element": "C" 
			},
			{
				"x": -0.4969928766,
				"y": 1.522673065,
				"z": 1.009512044,
				"element": "C" 
			},
			{
				"x": -1.215995208,
				"y": 2.661587585,
				"z": 0.9344501256,
				"element": "C" 
			},
			{
				"x": -2.8133768913,
				"y": 2.4087053142,
				"z": 0.2485181434,
				"element": "S" 
			},
			{
				"x": -2.4731720523,
				"y": 0.6471069885,
				"z": 0.0452829637,
				"element": "C" 
			},
			{
				"x": -3.2242533659,
				"y": -0.1838982386,
				"z": -0.4267765715,
				"element": "O" 
			},
			{
				"x": -1.1925220171,
				"y": 0.4040143267,
				"z": 0.5247825786,
				"element": "N" 
			},
			{
				"x": -0.67095281,
				"y": -0.9596098902,
				"z": 0.4409789118,
				"element": "C" 
			},
			{
				"x": -0.1366131699,
				"y": -1.2881309571,
				"z": -0.9643175774,
				"element": "C" 
			},
			{
				"x": 0.4636217581,
				"y": -2.6736841748,
				"z": -1.0839985998,
				"element": "C" 
			},
			{
				"x": 1.214713816,
				"y": -2.9967038283,
				"z": 0.0022473776,
				"element": "O" 
			},
			{
				"x": 0.3348219497,
				"y": -3.4181744875,
				"z": -2.0274782999,
				"element": "O" 
			},
			{
				"x": 1.2637961854,
				"y": 2.3669341321,
				"z": 1.8521404447,
				"element": "H" 
			},
			{
				"x": 1.5848296852,
				"y": 0.9625885573,
				"z": 0.8250484794,
				"element": "H" 
			},
			{
				"x": 0.9135676403,
				"y": 0.7384282163,
				"z": 2.445370709,
				"element": "H" 
			},
			{
				"x": -0.8944459324,
				"y": 3.6421864637,
				"z": 1.2525438175,
				"element": "H" 
			},
			{
				"x": 0.1108826595,
				"y": -1.0861881463,
				"z": 1.1893583104,
				"element": "H" 
			},
			{
				"x": -1.4939238415,
				"y": -1.6343250866,
				"z": 0.6887397449,
				"element": "H" 
			},
			{
				"x": 0.6465422934,
				"y": -0.5689109363,
				"z": -1.2370663234,
				"element": "H" 
			},
			{
				"x": -0.9357695806,
				"y": -1.2077600064,
				"z": -1.7026863356,
				"element": "H" 
			},
			{
				"x": 1.5669122134,
				"y": -3.8865361387,
				"z": -0.1695464502,
				"element": "H" 
			}
		],
		 "valence_orbital": [ 
			{
				"type": "occ",
				"energy": -0.32835,
				"method": "rhf"
			},
			{
				"type": "occ",
				"energy": -0.29349,
				"method": "rhf"
			},
			{
				"type": "occ",
				"energy": -0.2788,
				"method": "rhf"
			},
			{
				"type": "occ",
				"energy": -0.26908,
				"method": "rhf"
			},
			{
				"type": "occ",
				"energy": -0.21231,
				"method": "rhf"
			},
			{
				"type": "unocc",
				"energy": -0.00338,
				"method": "rhf"
			},
			{
				"type": "unocc",
				"energy": 0.005,
				"method": "rhf"
			},
			{
				"type": "unocc",
				"energy": 0.01611,
				"method": "rhf"
			},
			{
				"type": "unocc",
				"energy": 0.0317,
				"method": "rhf"
			},
			{
				"type": "unocc",
				"energy": 0.06363,
				"method": "rhf"
			}
		],
		"cosmo_sigma_profile": { 
			"-0.025": 0.0,
			"-0.024": 0.0,
			"-0.023": 0.0,
			"-0.022": 0.0,
			"-0.021": 0.0,
			"-0.02": 0.0,
			"-0.019": 0.0698395273488,
			"-0.018": 0.724695994224,
			"-0.017": 1.00570547465,
			"-0.016": 0.709543532769,
			"-0.015": 0.957142772491,
			"-0.014": 0.52119495154,
			"-0.013": 0.884800036191,
			"-0.012": 0.812236341863,
			"-0.011": 0.796516710276,
			"-0.01": 0.526461698251,
			"-0.009": 1.16609146851,
			"-0.008": 3.79941813198,
			"-0.007": 10.9801665902,
			"-0.006": 13.5027925021,
			"-0.005": 15.4471410303,
			"-0.004": 13.2780303933,
			"-0.003": 16.6797349246,
			"-0.002": 16.368164077,
			"-0.001": 14.5229853893,
			"0.0": 11.8003050384,
			"0.001": 11.69592121,
			"0.002": 12.6621260039,
			"0.003": 11.6022497274,
			"0.004": 11.7618348987,
			"0.005": 7.84356917412,
			"0.006": 4.15454512579,
			"0.007": 4.3423706181,
			"0.008": 3.50511107536,
			"0.009": 2.98105795366,
			"0.01": 3.37393085267,
			"0.011": 7.01450756494,
			"0.012": 8.19894114152,
			"0.013": 3.37882375537,
			"0.014": 0.0782578760689,
			"0.015": 0.0,
			"0.016": 0.0,
			"0.017": 0.0,
			"0.018": 0.0,
			"0.019": 0.0,
			"0.02": 0.0,
			"0.021": 0.0,
			"0.022": 0.0,
			"0.023": 0.0,
			"0.024": 0.0,
			"0.025": 0.0
		}
	}
}
