{
	 "smiles": "FC1=C(Cl)C(C=O)=C(F)C=C1", 
	 "Tm": 320.15, 
	 "num_atms": 14, 
	 "gaussian": { 
		 "optdone": 1, 
		 "sigma_profile": "yes", 
		 "theory": "DFT", 
		 "functional": "B3LYP", 
		 "basiset": "6-31G**", 
		 "properties": { 
			 "R2extent": 1940.4862, 
			 "electric_dipole_moment_norm": 3.12663091842, 
			 "electric_quadrupole_moment_norm": 12.5348741374, 
			 "total_energy": -1003.61078742, 
			 "HOMO_LUMO_gap": 0.17756, 
			 "cosmo_polarized_energy": -7.79, 
			 "cosmo_cavitation_energy": 21.67, 
			 "cosmo_dispersion_energy": -15.92, 
			 "cosmo_repulsion_energy": 1.22, 
			 "cosmo_total_nonelectrostatic_energy": 6.98, 
			 "SMD_solvation_energy": 5.55 
		},
		"coords": [
			{
				"x": 2.2883743471,
				"y": -1.5818449231,
				"z": -0.1105234763,
				"element": "F" 
			},
			{
				"x": 1.4317060375,
				"y": -0.5928983906,
				"z": 0.1821997032,
				"element": "C" 
			},
			{
				"x": 0.3846465912,
				"y": -0.3018490935,
				"z": -0.6913449196,
				"element": "C" 
			},
			{
				"x": 0.2578057164,
				"y": -1.2684684685,
				"z": -2.1414929401,
				"element": "Cl" 
			},
			{
				"x": -0.5261504364,
				"y": 0.735762072,
				"z": -0.3986095528,
				"element": "C" 
			},
			{
				"x": -1.654142919,
				"y": 1.0658374893,
				"z": -1.3176613091,
				"element": "C" 
			},
			{
				"x": -2.4699206434,
				"y": 1.9435112471,
				"z": -1.1247285327,
				"element": "O" 
			},
			{
				"x": -0.3204080264,
				"y": 1.4441593951,
				"z": 0.8004431428,
				"element": "C" 
			},
			{
				"x": -1.1485352725,
				"y": 2.438162238,
				"z": 1.1346045853,
				"element": "F" 
			},
			{
				"x": 0.7227867894,
				"y": 1.1552676003,
				"z": 1.6721790559,
				"element": "C" 
			},
			{
				"x": 1.6059631427,
				"y": 0.1269772201,
				"z": 1.3585348337,
				"element": "C" 
			},
			{
				"x": -1.7008928962,
				"y": 0.433402149,
				"z": -2.2225477087,
				"element": "H" 
			},
			{
				"x": 0.8277779388,
				"y": 1.7375091675,
				"z": 2.58025642,
				"element": "H" 
			},
			{
				"x": 2.4326896308,
				"y": -0.1302277027,
				"z": 2.0114906983,
				"element": "H" 
			}
		],
		 "valence_orbital": [ 
			{
				"type": "occ",
				"energy": -0.35392,
				"method": "rhf"
			},
			{
				"type": "occ",
				"energy": -0.34142,
				"method": "rhf"
			},
			{
				"type": "occ",
				"energy": -0.28508,
				"method": "rhf"
			},
			{
				"type": "occ",
				"energy": -0.26223,
				"method": "rhf"
			},
			{
				"type": "occ",
				"energy": -0.26221,
				"method": "rhf"
			},
			{
				"type": "unocc",
				"energy": -0.08465,
				"method": "rhf"
			},
			{
				"type": "unocc",
				"energy": -0.02921,
				"method": "rhf"
			},
			{
				"type": "unocc",
				"energy": 0.00079,
				"method": "rhf"
			},
			{
				"type": "unocc",
				"energy": 0.01947,
				"method": "rhf"
			},
			{
				"type": "unocc",
				"energy": 0.08585,
				"method": "rhf"
			}
		],
		"cosmo_sigma_profile": { 
			"-0.025": 0.0,
			"-0.024": 0.0,
			"-0.023": 0.0,
			"-0.022": 0.0,
			"-0.021": 0.0,
			"-0.02": 0.0,
			"-0.019": 0.0,
			"-0.018": 0.0,
			"-0.017": 0.0,
			"-0.016": 0.0,
			"-0.015": 0.0,
			"-0.014": 0.0,
			"-0.013": 0.0,
			"-0.012": 0.0,
			"-0.011": 0.0,
			"-0.01": 0.556778014914,
			"-0.009": 3.45869950805,
			"-0.008": 4.18815459499,
			"-0.007": 4.78868815031,
			"-0.006": 5.62996429969,
			"-0.005": 8.58463047751,
			"-0.004": 8.71361738109,
			"-0.003": 11.7564285583,
			"-0.002": 24.8574189502,
			"-0.001": 17.8963767618,
			"0.0": 13.7047249956,
			"0.001": 10.8135715786,
			"0.002": 10.7890099258,
			"0.003": 21.3194142401,
			"0.004": 9.46367112205,
			"0.005": 2.53998801542,
			"0.006": 2.38930431815,
			"0.007": 2.19896738345,
			"0.008": 2.1319050912,
			"0.009": 2.73128849852,
			"0.01": 4.08543070197,
			"0.011": 4.25533354342,
			"0.012": 1.10206786166,
			"0.013": 0.031325523084,
			"0.014": 0.0,
			"0.015": 0.0,
			"0.016": 0.0,
			"0.017": 0.0,
			"0.018": 0.0,
			"0.019": 0.0,
			"0.02": 0.0,
			"0.021": 0.0,
			"0.022": 0.0,
			"0.023": 0.0,
			"0.024": 0.0,
			"0.025": 0.0
		}
	}
}
