{
	 "smiles": "FC(F)=C(Cl)C(F)(F)F", 
	 "Tm": 143.15, 
	 "num_atms": 9, 
	 "gaussian": { 
		 "optdone": 1, 
		 "sigma_profile": "yes", 
		 "theory": "DFT", 
		 "functional": "B3LYP", 
		 "basiset": "6-31G**", 
		 "properties": { 
			 "R2extent": 3572.9786, 
			 "electric_dipole_moment_norm": 1.16398834187, 
			 "electric_quadrupole_moment_norm": 3.09488696724, 
			 "total_energy": -1073.66430811, 
			 "HOMO_LUMO_gap": 0.25355, 
			 "cosmo_polarized_energy": -1.88, 
			 "cosmo_cavitation_energy": 18.06, 
			 "cosmo_dispersion_energy": -12.75, 
			 "cosmo_repulsion_energy": 0.97, 
			 "cosmo_total_nonelectrostatic_energy": 6.29, 
			 "SMD_solvation_energy": 5.54 
		},
		"coords": [
			{
				"x": -2.445855346,
				"y": 3.5179496781,
				"z": 2.5535882236,
				"element": "F" 
			},
			{
				"x": -1.7386146071,
				"y": 2.9022249277,
				"z": 1.6323547012,
				"element": "C" 
			},
			{
				"x": -2.4378669823,
				"y": 2.7234954841,
				"z": 0.5338738235,
				"element": "F" 
			},
			{
				"x": -0.4721355421,
				"y": 2.517363705,
				"z": 1.8140145519,
				"element": "C" 
			},
			{
				"x": 0.3132825181,
				"y": 2.8291233507,
				"z": 3.331222326,
				"element": "Cl" 
			},
			{
				"x": 0.3668504037,
				"y": 1.810858366,
				"z": 0.782197557,
				"element": "C" 
			},
			{
				"x": -0.3141784855,
				"y": 1.6092499963,
				"z": -0.3587918202,
				"element": "F" 
			},
			{
				"x": 1.4682380253,
				"y": 2.5271094981,
				"z": 0.4882899729,
				"element": "F" 
			},
			{
				"x": 0.7785800158,
				"y": 0.612924994,
				"z": 1.2381506641,
				"element": "F" 
			}
		],
		 "valence_orbital": [ 
			{
				"type": "occ",
				"energy": -0.41389,
				"method": "rhf"
			},
			{
				"type": "occ",
				"energy": -0.41287,
				"method": "rhf"
			},
			{
				"type": "occ",
				"energy": -0.38178,
				"method": "rhf"
			},
			{
				"type": "occ",
				"energy": -0.34267,
				"method": "rhf"
			},
			{
				"type": "occ",
				"energy": -0.27935,
				"method": "rhf"
			},
			{
				"type": "unocc",
				"energy": -0.0258,
				"method": "rhf"
			},
			{
				"type": "unocc",
				"energy": -0.0092,
				"method": "rhf"
			},
			{
				"type": "unocc",
				"energy": 0.11306,
				"method": "rhf"
			},
			{
				"type": "unocc",
				"energy": 0.13201,
				"method": "rhf"
			},
			{
				"type": "unocc",
				"energy": 0.16305,
				"method": "rhf"
			}
		],
		"cosmo_sigma_profile": { 
			"-0.025": 0.0,
			"-0.024": 0.0,
			"-0.023": 0.0,
			"-0.022": 0.0,
			"-0.021": 0.0,
			"-0.02": 0.0,
			"-0.019": 0.0,
			"-0.018": 0.0,
			"-0.017": 0.0,
			"-0.016": 0.0,
			"-0.015": 0.0,
			"-0.014": 0.0,
			"-0.013": 0.0,
			"-0.012": 0.0,
			"-0.011": 0.0,
			"-0.01": 0.0,
			"-0.009": 0.0,
			"-0.008": 0.0481241351954,
			"-0.007": 2.49848566611,
			"-0.006": 5.35421967367,
			"-0.005": 4.66086360398,
			"-0.004": 6.27180437193,
			"-0.003": 6.30798228156,
			"-0.002": 8.3077727073,
			"-0.001": 11.6151727906,
			"0.0": 20.6325322516,
			"0.001": 30.8983323142,
			"0.002": 42.1510310131,
			"0.003": 9.63838142168,
			"0.004": 0.105850757013,
			"0.005": 0.0,
			"0.006": 0.0,
			"0.007": 0.0,
			"0.008": 0.0,
			"0.009": 0.0,
			"0.01": 0.0,
			"0.011": 0.0,
			"0.012": 0.0,
			"0.013": 0.0,
			"0.014": 0.0,
			"0.015": 0.0,
			"0.016": 0.0,
			"0.017": 0.0,
			"0.018": 0.0,
			"0.019": 0.0,
			"0.02": 0.0,
			"0.021": 0.0,
			"0.022": 0.0,
			"0.023": 0.0,
			"0.024": 0.0,
			"0.025": 0.0
		}
	}
}
