{
	 "smiles": "OC(=O)C1=C(O)C=CC(I)=C1", 
	 "Tm": 471.15, 
	 "num_atms": 16, 
	 "gaussian": { 
		 "optdone": 1, 
		 "sigma_profile": "no", 
		 "theory": "DFT", 
		 "functional": "B3LYP", 
		 "basiset": "6-31G**", 
		 "properties": { 
			 "R2extent": 2518.3204, 
			 "electric_dipole_moment_norm": 1.1417200226, 
			 "electric_quadrupole_moment_norm": 11.6097052077, 
			 "total_energy": -506.840640489, 
			 "HOMO_LUMO_gap": 0.16413, 
			 "cosmo_polarized_energy": -97974.71, 
			 "cosmo_cavitation_energy": 23.84, 
			 "cosmo_dispersion_energy": -19.49, 
			 "cosmo_repulsion_energy": 1.52, 
			 "cosmo_total_nonelectrostatic_energy": 5.88, 
			 "SMD_solvation_energy": 4.71 
		},
		"coords": [
			{
				"x": 2.9395637693,
				"y": -2.407297572,
				"z": 1.8617244872,
				"element": "O" 
			},
			{
				"x": 2.1005750609,
				"y": -2.3386931642,
				"z": 0.8124632507,
				"element": "C" 
			},
			{
				"x": 1.8268178851,
				"y": -3.3432994165,
				"z": 0.1529118666,
				"element": "O" 
			},
			{
				"x": 1.5623072551,
				"y": -1.0023867583,
				"z": 0.5371371138,
				"element": "C" 
			},
			{
				"x": 0.6691111064,
				"y": -0.8429180536,
				"z": -0.5535699643,
				"element": "C" 
			},
			{
				"x": 0.2949581262,
				"y": -1.8574744685,
				"z": -1.3432398157,
				"element": "O" 
			},
			{
				"x": 0.148857468,
				"y": 0.4343666747,
				"z": -0.8242667681,
				"element": "C" 
			},
			{
				"x": 0.5015708771,
				"y": 1.5213228774,
				"z": -0.0396298114,
				"element": "C" 
			},
			{
				"x": 1.3867493579,
				"y": 1.3579457126,
				"z": 1.0395945133,
				"element": "C" 
			},
			{
				"x": 1.9144452901,
				"y": 3.0311949057,
				"z": 2.2275829732,
				"element": "I" 
			},
			{
				"x": 1.9133796723,
				"y": 0.1097606334,
				"z": 1.3274310433,
				"element": "C" 
			},
			{
				"x": 3.2173263943,
				"y": -3.3361494754,
				"z": 1.9296865535,
				"element": "H" 
			},
			{
				"x": 0.749984471,
				"y": -2.6690927729,
				"z": -1.0122067796,
				"element": "H" 
			},
			{
				"x": -0.5331563676,
				"y": 0.5452795956,
				"z": -1.660370836,
				"element": "H" 
			},
			{
				"x": 0.0900766909,
				"y": 2.4994731798,
				"z": -0.2636488429,
				"element": "H" 
			},
			{
				"x": 2.596632943,
				"y": -0.0332318979,
				"z": 2.1552010163,
				"element": "H" 
			}
		],
		 "valence_orbital": [ 
			{
				"type": "occ",
				"energy": -0.3018,
				"method": "rhf"
			},
			{
				"type": "occ",
				"energy": -0.28561,
				"method": "rhf"
			},
			{
				"type": "occ",
				"energy": -0.27917,
				"method": "rhf"
			},
			{
				"type": "occ",
				"energy": -0.27239,
				"method": "rhf"
			},
			{
				"type": "occ",
				"energy": -0.23009,
				"method": "rhf"
			},
			{
				"type": "unocc",
				"energy": -0.06596,
				"method": "rhf"
			},
			{
				"type": "unocc",
				"energy": -0.04248,
				"method": "rhf"
			},
			{
				"type": "unocc",
				"energy": -0.01462,
				"method": "rhf"
			},
			{
				"type": "unocc",
				"energy": 0.03371,
				"method": "rhf"
			},
			{
				"type": "unocc",
				"energy": 0.04081,
				"method": "rhf"
			}
		],
		"cosmo_sigma_profile": { 
			"0.0": 0.0,
			"0.0": 0.0,
			"0.0": 0.0,
			"0.0": 0.0,
			"0.0": 0.0,
			"0.0": 0.0,
			"0.0": 0.0,
			"0.0": 0.0,
			"0.0": 0.0,
			"0.0": 0.0,
			"0.0": 0.0,
			"0.0": 0.0,
			"0.0": 0.0,
			"0.0": 0.0,
			"0.0": 0.0,
			"0.0": 0.0,
			"0.0": 0.0,
			"0.0": 0.0,
			"0.0": 0.0,
			"0.0": 0.0,
			"0.0": 0.0,
			"0.0": 0.0,
			"0.0": 0.0,
			"0.0": 0.0,
			"0.0": 0.0,
			"0.0": 0.0,
			"0.0": 0.0,
			"0.0": 0.0,
			"0.0": 0.0,
			"0.0": 0.0,
			"0.0": 0.0,
			"0.0": 0.0,
			"0.0": 0.0,
			"0.0": 0.0,
			"0.0": 0.0,
			"0.0": 0.0,
			"0.0": 0.0,
			"0.0": 0.0,
			"0.0": 0.0,
			"0.0": 0.0,
			"0.0": 0.0,
			"0.0": 0.0,
			"0.0": 0.0,
			"0.0": 0.0,
			"0.0": 0.0,
			"0.0": 0.0,
			"0.0": 0.0,
			"0.0": 0.0,
			"0.0": 0.0,
			"0.0": 0.0,
			"0.0": 0.0
		}
	}
}
