{
	 "smiles": "O=C1NC(=O)C2=C(CCCC2)N1", 
	 "Tm": 578.15, 
	 "num_atms": 22, 
	 "gaussian": { 
		 "optdone": 1, 
		 "sigma_profile": "yes", 
		 "theory": "DFT", 
		 "functional": "B3LYP", 
		 "basiset": "6-31G**", 
		 "properties": { 
			 "R2extent": 2895.4894, 
			 "electric_dipole_moment_norm": 4.85123154055, 
			 "electric_quadrupole_moment_norm": 12.37554358, 
			 "total_energy": -570.888581089, 
			 "HOMO_LUMO_gap": 0.20182, 
			 "cosmo_polarized_energy": -16.64, 
			 "cosmo_cavitation_energy": 24.61, 
			 "cosmo_dispersion_energy": -18.79, 
			 "cosmo_repulsion_energy": 1.5, 
			 "cosmo_total_nonelectrostatic_energy": 7.33, 
			 "SMD_solvation_energy": 4.99 
		},
		"coords": [
			{
				"x": -0.3972220917,
				"y": 0.0963894679,
				"z": 4.9860088111,
				"element": "O" 
			},
			{
				"x": -0.6067220804,
				"y": 0.1662895998,
				"z": 3.7873811607,
				"element": "C" 
			},
			{
				"x": -1.6610724726,
				"y": 0.8589818118,
				"z": 3.218644879,
				"element": "N" 
			},
			{
				"x": -1.9672494128,
				"y": 0.9901418897,
				"z": 1.8513597362,
				"element": "C" 
			},
			{
				"x": -2.9405823788,
				"y": 1.6419769506,
				"z": 1.4983461377,
				"element": "O" 
			},
			{
				"x": -1.0468195903,
				"y": 0.295413053,
				"z": 0.949595457,
				"element": "C" 
			},
			{
				"x": 0.0054224008,
				"y": -0.3881684552,
				"z": 1.4699088479,
				"element": "C" 
			},
			{
				"x": 1.007243864,
				"y": -1.1382430754,
				"z": 0.6272791362,
				"element": "C" 
			},
			{
				"x": 0.9257719426,
				"y": -0.7444156473,
				"z": -0.8550164819,
				"element": "C" 
			},
			{
				"x": -0.533977382,
				"y": -0.6797742937,
				"z": -1.3224460265,
				"element": "C" 
			},
			{
				"x": -1.3153366671,
				"y": 0.3785398943,
				"z": -0.5331560895,
				"element": "C" 
			},
			{
				"x": 0.2037950367,
				"y": -0.4460263796,
				"z": 2.839673875,
				"element": "N" 
			},
			{
				"x": -2.2823604349,
				"y": 1.3285781605,
				"z": 3.8658505609,
				"element": "H" 
			},
			{
				"x": 0.8199045726,
				"y": -2.2157190067,
				"z": 0.7439421436,
				"element": "H" 
			},
			{
				"x": 2.0171179541,
				"y": -0.9596619949,
				"z": 1.0196329916,
				"element": "H" 
			},
			{
				"x": 1.4991183063,
				"y": -1.4597809979,
				"z": -1.4538531511,
				"element": "H" 
			},
			{
				"x": 1.3966028412,
				"y": 0.2368749643,
				"z": -0.9953971869,
				"element": "H" 
			},
			{
				"x": -1.0015677334,
				"y": -1.6635473973,
				"z": -1.1820676361,
				"element": "H" 
			},
			{
				"x": -0.5814653896,
				"y": -0.4583296697,
				"z": -2.3938890743,
				"element": "H" 
			},
			{
				"x": -1.0556998981,
				"y": 1.3846628336,
				"z": -0.8921161183,
				"element": "H" 
			},
			{
				"x": -2.3929229208,
				"y": 0.2813565974,
				"z": -0.701182307,
				"element": "H" 
			},
			{
				"x": 0.9907215344,
				"y": -0.9503383051,
				"z": 3.2233003346,
				"element": "H" 
			}
		],
		 "valence_orbital": [ 
			{
				"type": "occ",
				"energy": -0.3361,
				"method": "rhf"
			},
			{
				"type": "occ",
				"energy": -0.28599,
				"method": "rhf"
			},
			{
				"type": "occ",
				"energy": -0.27846,
				"method": "rhf"
			},
			{
				"type": "occ",
				"energy": -0.25701,
				"method": "rhf"
			},
			{
				"type": "occ",
				"energy": -0.23328,
				"method": "rhf"
			},
			{
				"type": "unocc",
				"energy": -0.03146,
				"method": "rhf"
			},
			{
				"type": "unocc",
				"energy": 0.01822,
				"method": "rhf"
			},
			{
				"type": "unocc",
				"energy": 0.06681,
				"method": "rhf"
			},
			{
				"type": "unocc",
				"energy": 0.0787,
				"method": "rhf"
			},
			{
				"type": "unocc",
				"energy": 0.1073,
				"method": "rhf"
			}
		],
		"cosmo_sigma_profile": { 
			"-0.025": 0.0,
			"-0.024": 0.0,
			"-0.023": 0.0,
			"-0.022": 0.0,
			"-0.021": 0.0,
			"-0.02": 0.0,
			"-0.019": 0.0,
			"-0.018": 0.0,
			"-0.017": 0.0197356504901,
			"-0.016": 0.899632796019,
			"-0.015": 2.16843365854,
			"-0.014": 2.02049624676,
			"-0.013": 1.56074814565,
			"-0.012": 1.72424327828,
			"-0.011": 1.7162910849,
			"-0.01": 1.63232031684,
			"-0.009": 2.77600457054,
			"-0.008": 1.70692315984,
			"-0.007": 2.28307373857,
			"-0.006": 4.5669067123,
			"-0.005": 6.05102585485,
			"-0.004": 10.3086348405,
			"-0.003": 24.7261778729,
			"-0.002": 26.5710934323,
			"-0.001": 26.8322939691,
			"0.0": 18.9155104316,
			"0.001": 8.61463623142,
			"0.002": 3.00953282286,
			"0.003": 2.36034741473,
			"0.004": 3.66825635808,
			"0.005": 1.48222435442,
			"0.006": 2.58886542589,
			"0.007": 2.95673694983,
			"0.008": 2.5898258203,
			"0.009": 1.72692980191,
			"0.01": 2.46893027369,
			"0.011": 4.03166341307,
			"0.012": 5.90537335449,
			"0.013": 11.9929201308,
			"0.014": 3.32759157161,
			"0.015": 0.0,
			"0.016": 0.0,
			"0.017": 0.0,
			"0.018": 0.0,
			"0.019": 0.0,
			"0.02": 0.0,
			"0.021": 0.0,
			"0.022": 0.0,
			"0.023": 0.0,
			"0.024": 0.0,
			"0.025": 0.0
		}
	}
}
