{
	 "smiles": "CC1=CC(CNC(=O)CCl)=CC=C1", 
	 "Tm": 345.15, 
	 "num_atms": 25, 
	 "gaussian": { 
		 "optdone": 1, 
		 "sigma_profile": "yes", 
		 "theory": "DFT", 
		 "functional": "B3LYP", 
		 "basiset": "6-31G**", 
		 "properties": { 
			 "R2extent": 4907.0695, 
			 "electric_dipole_moment_norm": 4.2750953311, 
			 "electric_quadrupole_moment_norm": 19.3514858458, 
			 "total_energy": -978.483176867, 
			 "HOMO_LUMO_gap": 0.22468, 
			 "cosmo_polarized_energy": -12.32, 
			 "cosmo_cavitation_energy": 30.35, 
			 "cosmo_dispersion_energy": -21.33, 
			 "cosmo_repulsion_energy": 1.73, 
			 "cosmo_total_nonelectrostatic_energy": 10.75, 
			 "SMD_solvation_energy": 5.39 
		},
		"coords": [
			{
				"x": -2.9164651056,
				"y": -0.807724806,
				"z": -0.4386453156,
				"element": "C" 
			},
			{
				"x": -1.72364827,
				"y": 0.0630425714,
				"z": -0.1194263223,
				"element": "C" 
			},
			{
				"x": -1.1140458319,
				"y": 0.8397638183,
				"z": -1.111650593,
				"element": "C" 
			},
			{
				"x": -0.0228068085,
				"y": 1.6712317159,
				"z": -0.8299896932,
				"element": "C" 
			},
			{
				"x": 0.5615824544,
				"y": 2.531778923,
				"z": -1.9446116363,
				"element": "C" 
			},
			{
				"x": 1.9751108691,
				"y": 2.8633997685,
				"z": -1.8096613528,
				"element": "N" 
			},
			{
				"x": 3.0545151557,
				"y": 2.0556519893,
				"z": -2.0378395703,
				"element": "C" 
			},
			{
				"x": 4.1995758156,
				"y": 2.4165860963,
				"z": -1.8069426778,
				"element": "O" 
			},
			{
				"x": 2.7763642901,
				"y": 0.656094128,
				"z": -2.5884221164,
				"element": "C" 
			},
			{
				"x": 2.3286194236,
				"y": 0.6971214293,
				"z": -4.3514343639,
				"element": "Cl" 
			},
			{
				"x": 0.476751891,
				"y": 1.7154986146,
				"z": 0.4753290994,
				"element": "C" 
			},
			{
				"x": -0.1151396135,
				"y": 0.9414363841,
				"z": 1.4747439907,
				"element": "C" 
			},
			{
				"x": -1.205641759,
				"y": 0.1237921528,
				"z": 1.1817407854,
				"element": "C" 
			},
			{
				"x": -2.9735533248,
				"y": -1.0340562957,
				"z": -1.5071924399,
				"element": "H" 
			},
			{
				"x": -2.8775401841,
				"y": -1.7557384224,
				"z": 0.1070340003,
				"element": "H" 
			},
			{
				"x": -3.8541093059,
				"y": -0.3118417702,
				"z": -0.1581728126,
				"element": "H" 
			},
			{
				"x": -1.497127564,
				"y": 0.7930084177,
				"z": -2.1296989877,
				"element": "H" 
			},
			{
				"x": 0.3904035713,
				"y": 2.0474931641,
				"z": -2.9108840259,
				"element": "H" 
			},
			{
				"x": 0.0235272731,
				"y": 3.4858148341,
				"z": -1.9884810656,
				"element": "H" 
			},
			{
				"x": 2.2289696196,
				"y": 3.7701599977,
				"z": -1.4419034144,
				"element": "H" 
			},
			{
				"x": 3.6980191171,
				"y": 0.0844869918,
				"z": -2.5097425575,
				"element": "H" 
			},
			{
				"x": 1.9621518691,
				"y": 0.1516734238,
				"z": -2.0661883071,
				"element": "H" 
			},
			{
				"x": 1.3331503054,
				"y": 2.3418520846,
				"z": 0.7063615513,
				"element": "H" 
			},
			{
				"x": 0.2803572245,
				"y": 0.9731514566,
				"z": 2.4861577435,
				"element": "H" 
			},
			{
				"x": -1.6555211123,
				"y": -0.4794766676,
				"z": 1.9664200819,
				"element": "H" 
			}
		],
		 "valence_orbital": [ 
			{
				"type": "occ",
				"energy": -0.30397,
				"method": "rhf"
			},
			{
				"type": "occ",
				"energy": -0.26358,
				"method": "rhf"
			},
			{
				"type": "occ",
				"energy": -0.25581,
				"method": "rhf"
			},
			{
				"type": "occ",
				"energy": -0.25315,
				"method": "rhf"
			},
			{
				"type": "occ",
				"energy": -0.24562,
				"method": "rhf"
			},
			{
				"type": "unocc",
				"energy": -0.02094,
				"method": "rhf"
			},
			{
				"type": "unocc",
				"energy": -0.01217,
				"method": "rhf"
			},
			{
				"type": "unocc",
				"energy": -0.0075,
				"method": "rhf"
			},
			{
				"type": "unocc",
				"energy": 0.05535,
				"method": "rhf"
			},
			{
				"type": "unocc",
				"energy": 0.07597,
				"method": "rhf"
			}
		],
		"cosmo_sigma_profile": { 
			"-0.025": 0.0,
			"-0.024": 0.0,
			"-0.023": 0.0,
			"-0.022": 0.0,
			"-0.021": 0.0,
			"-0.02": 0.0,
			"-0.019": 0.0,
			"-0.018": 0.0,
			"-0.017": 0.0,
			"-0.016": 0.0,
			"-0.015": 0.0754421133205,
			"-0.014": 0.899650151288,
			"-0.013": 1.38690795266,
			"-0.012": 1.13943296248,
			"-0.011": 1.37198392192,
			"-0.01": 0.680964709479,
			"-0.009": 1.43450310903,
			"-0.008": 3.3976411736,
			"-0.007": 4.9664377225,
			"-0.006": 8.24915553071,
			"-0.005": 17.5028393745,
			"-0.004": 23.3052145186,
			"-0.003": 20.9789781448,
			"-0.002": 18.7199528476,
			"-0.001": 17.6045233807,
			"0.0": 18.9045020344,
			"0.001": 15.7533436104,
			"0.002": 13.2429481639,
			"0.003": 15.5261381697,
			"0.004": 12.8848109396,
			"0.005": 15.704527718,
			"0.006": 10.0624382343,
			"0.007": 2.23308606076,
			"0.008": 1.23312946466,
			"0.009": 1.37558923535,
			"0.01": 1.25037935831,
			"0.011": 1.29200161925,
			"0.012": 3.16972003453,
			"0.013": 5.69971802122,
			"0.014": 2.24222768808,
			"0.015": 0.019382957177,
			"0.016": 0.0,
			"0.017": 0.0,
			"0.018": 0.0,
			"0.019": 0.0,
			"0.02": 0.0,
			"0.021": 0.0,
			"0.022": 0.0,
			"0.023": 0.0,
			"0.024": 0.0,
			"0.025": 0.0
		}
	}
}
