{
	 "smiles": "OC(=O)C(NC(=O)OCC1C2=C(C=CC=C2)C2=C1C=CC=C2)C1=CC=CC=C1", 
	 "Tm": 444.15, 
	 "num_atms": 47, 
	 "gaussian": { 
		 "optdone": 1, 
		 "sigma_profile": "yes", 
		 "theory": "DFT", 
		 "functional": "B3LYP", 
		 "basiset": "6-31G**", 
		 "properties": { 
			 "R2extent": 10656.6122, 
			 "electric_dipole_moment_norm": 1.11172191217, 
			 "electric_quadrupole_moment_norm": 18.4624892769, 
			 "total_energy": -1243.59576752, 
			 "HOMO_LUMO_gap": 0.18343, 
			 "cosmo_polarized_energy": -19.67, 
			 "cosmo_cavitation_energy": 49.71, 
			 "cosmo_dispersion_energy": -32.93, 
			 "cosmo_repulsion_energy": 2.46, 
			 "cosmo_total_nonelectrostatic_energy": 19.24, 
			 "SMD_solvation_energy": 8.6 
		},
		"coords": [
			{
				"x": 1.4227145879,
				"y": -0.4802725785,
				"z": 0.120909489,
				"element": "O" 
			},
			{
				"x": 0.4537524385,
				"y": 0.4511778484,
				"z": 0.2227464276,
				"element": "C" 
			},
			{
				"x": -0.3227629867,
				"y": 0.7221857405,
				"z": -0.6636179638,
				"element": "O" 
			},
			{
				"x": 0.4566989336,
				"y": 1.1646667763,
				"z": 1.5863838429,
				"element": "C" 
			},
			{
				"x": 1.0030643469,
				"y": 0.3649463237,
				"z": 2.6761578181,
				"element": "N" 
			},
			{
				"x": 0.5428667662,
				"y": -0.8640761721,
				"z": 3.0604099025,
				"element": "C" 
			},
			{
				"x": 1.126790291,
				"y": -1.6055996146,
				"z": 3.8288869028,
				"element": "O" 
			},
			{
				"x": -0.667819611,
				"y": -1.1233005638,
				"z": 2.4895466313,
				"element": "O" 
			},
			{
				"x": -1.2602154776,
				"y": -2.3948150958,
				"z": 2.8018973369,
				"element": "C" 
			},
			{
				"x": -1.7774916261,
				"y": -3.0626502486,
				"z": 1.5220498711,
				"element": "C" 
			},
			{
				"x": -0.7206544218,
				"y": -3.249789623,
				"z": 0.4430606219,
				"element": "C" 
			},
			{
				"x": -1.14373595,
				"y": -2.6483952304,
				"z": -0.7597754171,
				"element": "C" 
			},
			{
				"x": -0.3244978773,
				"y": -2.6804751033,
				"z": -1.8919080491,
				"element": "C" 
			},
			{
				"x": 0.9176852415,
				"y": -3.320054931,
				"z": -1.8083055028,
				"element": "C" 
			},
			{
				"x": 1.33446099,
				"y": -3.9173754284,
				"z": -0.6116888182,
				"element": "C" 
			},
			{
				"x": 0.5139882839,
				"y": -3.8841683239,
				"z": 0.5221870162,
				"element": "C" 
			},
			{
				"x": -2.4694563712,
				"y": -2.051914828,
				"z": -0.5487267341,
				"element": "C" 
			},
			{
				"x": -2.8578364073,
				"y": -2.2848817086,
				"z": 0.7849585939,
				"element": "C" 
			},
			{
				"x": -4.0858813083,
				"y": -1.8302461237,
				"z": 1.2516942214,
				"element": "C" 
			},
			{
				"x": -4.9275743443,
				"y": -1.1339020214,
				"z": 0.3768325534,
				"element": "C" 
			},
			{
				"x": -4.5398512976,
				"y": -0.8989332049,
				"z": -0.9469972436,
				"element": "C" 
			},
			{
				"x": -3.3086075843,
				"y": -1.3559806254,
				"z": -1.4205691588,
				"element": "C" 
			},
			{
				"x": 1.2217759911,
				"y": 2.4782157871,
				"z": 1.4858576059,
				"element": "C" 
			},
			{
				"x": 0.6011714917,
				"y": 3.6855124658,
				"z": 1.8218396067,
				"element": "C" 
			},
			{
				"x": 1.3081922112,
				"y": 4.8869667603,
				"z": 1.754150197,
				"element": "C" 
			},
			{
				"x": 2.6445580626,
				"y": 4.8913057494,
				"z": 1.351617331,
				"element": "C" 
			},
			{
				"x": 3.2703756049,
				"y": 3.6898560648,
				"z": 1.0126551551,
				"element": "C" 
			},
			{
				"x": 2.5628820253,
				"y": 2.4892409642,
				"z": 1.0762352241,
				"element": "C" 
			},
			{
				"x": 1.2895556865,
				"y": -0.9465774903,
				"z": -0.7250565885,
				"element": "H" 
			},
			{
				"x": -0.5958554753,
				"y": 1.3794320374,
				"z": 1.786022648,
				"element": "H" 
			},
			{
				"x": 1.9494636491,
				"y": 0.5529368496,
				"z": 2.9716454853,
				"element": "H" 
			},
			{
				"x": -0.5151006939,
				"y": -3.0160132844,
				"z": 3.3026582836,
				"element": "H" 
			},
			{
				"x": -2.0880485704,
				"y": -2.2176725618,
				"z": 3.4975646397,
				"element": "H" 
			},
			{
				"x": -2.1716102191,
				"y": -4.0414603679,
				"z": 1.837013507,
				"element": "H" 
			},
			{
				"x": -0.6421974115,
				"y": -2.2166936924,
				"z": -2.8212457227,
				"element": "H" 
			},
			{
				"x": 1.5619632186,
				"y": -3.3603721589,
				"z": -2.6824063371,
				"element": "H" 
			},
			{
				"x": 2.3021731996,
				"y": -4.4076991495,
				"z": -0.5625643259,
				"element": "H" 
			},
			{
				"x": 0.8509514697,
				"y": -4.3371395519,
				"z": 1.4507156737,
				"element": "H" 
			},
			{
				"x": -4.3949784841,
				"y": -2.008257016,
				"z": 2.2788402624,
				"element": "H" 
			},
			{
				"x": -5.88940117,
				"y": -0.7719653079,
				"z": 0.7286404582,
				"element": "H" 
			},
			{
				"x": -5.2030203901,
				"y": -0.3534936432,
				"z": -1.6122212778,
				"element": "H" 
			},
			{
				"x": -3.0100283531,
				"y": -1.1643018745,
				"z": -2.4469841233,
				"element": "H" 
			},
			{
				"x": -0.4383508584,
				"y": 3.683895771,
				"z": 2.1376102445,
				"element": "H" 
			},
			{
				"x": 0.8146895435,
				"y": 5.8181588553,
				"z": 2.0168083622,
				"element": "H" 
			},
			{
				"x": 3.1950308606,
				"y": 5.8261175232,
				"z": 1.2992112599,
				"element": "H" 
			},
			{
				"x": 4.3082117272,
				"y": 3.6872851159,
				"z": 0.6922357473,
				"element": "H" 
			},
			{
				"x": 3.0472602685,
				"y": 1.5579768913,
				"z": 0.7945243422,
				"element": "H" 
			}
		],
		 "valence_orbital": [ 
			{
				"type": "occ",
				"energy": -0.25564,
				"method": "rhf"
			},
			{
				"type": "occ",
				"energy": -0.25396,
				"method": "rhf"
			},
			{
				"type": "occ",
				"energy": -0.24548,
				"method": "rhf"
			},
			{
				"type": "occ",
				"energy": -0.24353,
				"method": "rhf"
			},
			{
				"type": "occ",
				"energy": -0.21664,
				"method": "rhf"
			},
			{
				"type": "unocc",
				"energy": -0.03321,
				"method": "rhf"
			},
			{
				"type": "unocc",
				"energy": -0.01843,
				"method": "rhf"
			},
			{
				"type": "unocc",
				"energy": -0.01476,
				"method": "rhf"
			},
			{
				"type": "unocc",
				"energy": -0.01255,
				"method": "rhf"
			},
			{
				"type": "unocc",
				"energy": 0.00688,
				"method": "rhf"
			}
		],
		"cosmo_sigma_profile": { 
			"-0.025": 0.0,
			"-0.024": 0.0,
			"-0.023": 0.0,
			"-0.022": 0.0,
			"-0.021": 0.0,
			"-0.02": 0.0,
			"-0.019": 0.0,
			"-0.018": 0.0,
			"-0.017": 0.0,
			"-0.016": 0.0,
			"-0.015": 0.0,
			"-0.014": 0.236505077305,
			"-0.013": 0.714113793219,
			"-0.012": 0.867590764327,
			"-0.011": 1.53244396828,
			"-0.01": 1.71578100343,
			"-0.009": 1.62066572568,
			"-0.008": 2.61415463315,
			"-0.007": 6.98531533845,
			"-0.006": 32.1674724321,
			"-0.005": 38.8739197022,
			"-0.004": 34.9089082175,
			"-0.003": 27.7153956484,
			"-0.002": 25.6367151533,
			"-0.001": 21.0683990579,
			"0.0": 22.3662196189,
			"0.001": 23.0800985932,
			"0.002": 23.2955773502,
			"0.003": 27.0499371977,
			"0.004": 28.3711824004,
			"0.005": 28.9962999106,
			"0.006": 11.8629724,
			"0.007": 6.47114483477,
			"0.008": 5.41814654819,
			"0.009": 3.80475941481,
			"0.01": 4.27462075941,
			"0.011": 4.16450112063,
			"0.012": 5.74406080628,
			"0.013": 4.49815846335,
			"0.014": 0.35434919245,
			"0.015": 0.0,
			"0.016": 0.0,
			"0.017": 0.0,
			"0.018": 0.0,
			"0.019": 0.0,
			"0.02": 0.0,
			"0.021": 0.0,
			"0.022": 0.0,
			"0.023": 0.0,
			"0.024": 0.0,
			"0.025": 0.0
		}
	}
}
