{
	 "smiles": "OC1=CC=C(CCC(=O)ON2C(=O)CCC2=O)C=C1", 
	 "Tm": 407.15, 
	 "num_atms": 32, 
	 "gaussian": { 
		 "optdone": 1, 
		 "sigma_profile": "yes", 
		 "theory": "DFT", 
		 "functional": "B3LYP", 
		 "basiset": "6-31G**", 
		 "properties": { 
			 "R2extent": 7085.8594, 
			 "electric_dipole_moment_norm": 0.385590793459, 
			 "electric_quadrupole_moment_norm": 30.3516649234, 
			 "total_energy": -934.069765574, 
			 "HOMO_LUMO_gap": 0.18404, 
			 "cosmo_polarized_energy": -21.4, 
			 "cosmo_cavitation_energy": 37.18, 
			 "cosmo_dispersion_energy": -25.5, 
			 "cosmo_repulsion_energy": 1.98, 
			 "cosmo_total_nonelectrostatic_energy": 13.66, 
			 "SMD_solvation_energy": 8.75 
		},
		"coords": [
			{
				"x": 3.3842378922,
				"y": 4.03700053,
				"z": 3.5687075612,
				"element": "O" 
			},
			{
				"x": 2.7664338454,
				"y": 3.4817600375,
				"z": 2.4823905889,
				"element": "C" 
			},
			{
				"x": 1.4330573615,
				"y": 3.0844549122,
				"z": 2.6282816769,
				"element": "C" 
			},
			{
				"x": 0.7547446719,
				"y": 2.5178577876,
				"z": 1.5529868464,
				"element": "C" 
			},
			{
				"x": 1.3857067643,
				"y": 2.3318193736,
				"z": 0.3126038455,
				"element": "C" 
			},
			{
				"x": 0.6581617181,
				"y": 1.6910723897,
				"z": -0.8503821818,
				"element": "C" 
			},
			{
				"x": 0.7427816144,
				"y": 0.1410368614,
				"z": -0.8720670834,
				"element": "C" 
			},
			{
				"x": 0.0097413775,
				"y": -0.5289196447,
				"z": 0.261641214,
				"element": "C" 
			},
			{
				"x": 0.4461173756,
				"y": -1.2077455262,
				"z": 1.1460249453,
				"element": "O" 
			},
			{
				"x": -1.3672420597,
				"y": -0.2487823701,
				"z": 0.1352633219,
				"element": "O" 
			},
			{
				"x": -2.1262288222,
				"y": -0.8644562213,
				"z": 1.1023574313,
				"element": "N" 
			},
			{
				"x": -2.4368877705,
				"y": -0.2328533274,
				"z": 2.3068152251,
				"element": "C" 
			},
			{
				"x": -2.111412405,
				"y": 0.8895798958,
				"z": 2.6169404575,
				"element": "O" 
			},
			{
				"x": -3.2609912586,
				"y": -1.2415271919,
				"z": 3.0991898267,
				"element": "C" 
			},
			{
				"x": -3.3146448429,
				"y": -2.5189297377,
				"z": 2.2344453292,
				"element": "C" 
			},
			{
				"x": -2.5310277214,
				"y": -2.198835912,
				"z": 0.9666731148,
				"element": "C" 
			},
			{
				"x": -2.287388835,
				"y": -2.9032734334,
				"z": 0.0179980611,
				"element": "O" 
			},
			{
				"x": 2.7193361511,
				"y": 2.7362871613,
				"z": 0.184821433,
				"element": "C" 
			},
			{
				"x": 3.4106170762,
				"y": 3.3066405788,
				"z": 1.253738729,
				"element": "C" 
			},
			{
				"x": 4.2943399571,
				"y": 4.259370568,
				"z": 3.3338936721,
				"element": "H" 
			},
			{
				"x": 0.9433483293,
				"y": 3.2274866809,
				"z": 3.5858247404,
				"element": "H" 
			},
			{
				"x": -0.2792487423,
				"y": 2.2119661448,
				"z": 1.6888279231,
				"element": "H" 
			},
			{
				"x": -0.3960171314,
				"y": 1.9853621496,
				"z": -0.851629971,
				"element": "H" 
			},
			{
				"x": 1.0861214386,
				"y": 2.047248017,
				"z": -1.7937357921,
				"element": "H" 
			},
			{
				"x": 0.309172403,
				"y": -0.2319474843,
				"z": -1.8073014876,
				"element": "H" 
			},
			{
				"x": 1.78188057,
				"y": -0.1894740737,
				"z": -0.8129432054,
				"element": "H" 
			},
			{
				"x": -4.2467547334,
				"y": -0.8111019078,
				"z": 3.2964945911,
				"element": "H" 
			},
			{
				"x": -2.7756618298,
				"y": -1.3959948471,
				"z": 4.0664084042,
				"element": "H" 
			},
			{
				"x": -2.8488504376,
				"y": -3.3829132001,
				"z": 2.7157877885,
				"element": "H" 
			},
			{
				"x": -4.3308149919,
				"y": -2.8115807903,
				"z": 1.9562114626,
				"element": "H" 
			},
			{
				"x": 3.2311002959,
				"y": 2.6108865012,
				"z": -0.7669270541,
				"element": "H" 
			},
			{
				"x": 4.4457727395,
				"y": 3.619406079,
				"z": 1.1304585856,
				"element": "H" 
			}
		],
		 "valence_orbital": [ 
			{
				"type": "occ",
				"energy": -0.29701,
				"method": "rhf"
			},
			{
				"type": "occ",
				"energy": -0.28362,
				"method": "rhf"
			},
			{
				"type": "occ",
				"energy": -0.26847,
				"method": "rhf"
			},
			{
				"type": "occ",
				"energy": -0.24563,
				"method": "rhf"
			},
			{
				"type": "occ",
				"energy": -0.21298,
				"method": "rhf"
			},
			{
				"type": "unocc",
				"energy": -0.02894,
				"method": "rhf"
			},
			{
				"type": "unocc",
				"energy": -0.01334,
				"method": "rhf"
			},
			{
				"type": "unocc",
				"energy": 0.00408,
				"method": "rhf"
			},
			{
				"type": "unocc",
				"energy": 0.01632,
				"method": "rhf"
			},
			{
				"type": "unocc",
				"energy": 0.01753,
				"method": "rhf"
			}
		],
		"cosmo_sigma_profile": { 
			"-0.025": 0.0,
			"-0.024": 0.0,
			"-0.023": 0.0,
			"-0.022": 0.0,
			"-0.021": 0.0,
			"-0.02": 0.0,
			"-0.019": 0.0,
			"-0.018": 0.165625397487,
			"-0.017": 0.954677469173,
			"-0.016": 1.13372967358,
			"-0.015": 1.02134291711,
			"-0.014": 1.01216807235,
			"-0.013": 1.44593168082,
			"-0.012": 0.930210903702,
			"-0.011": 0.320665561646,
			"-0.01": 0.82622004224,
			"-0.009": 2.71261172269,
			"-0.008": 11.7621170088,
			"-0.007": 19.0040421355,
			"-0.006": 16.029707123,
			"-0.005": 22.3152586941,
			"-0.004": 23.3192728904,
			"-0.003": 19.4608272418,
			"-0.002": 12.2359103685,
			"-0.001": 13.3548407325,
			"0.0": 11.057657655,
			"0.001": 12.1435469704,
			"0.002": 13.0520447011,
			"0.003": 14.597733122,
			"0.004": 19.6264944582,
			"0.005": 18.1742743905,
			"0.006": 13.6115420983,
			"0.007": 7.20146653942,
			"0.008": 6.72222267363,
			"0.009": 7.82854415188,
			"0.01": 10.4387163479,
			"0.011": 9.58073268107,
			"0.012": 3.20236714993,
			"0.013": 0.0203281653833,
			"0.014": 0.0,
			"0.015": 0.0,
			"0.016": 0.0,
			"0.017": 0.0,
			"0.018": 0.0,
			"0.019": 0.0,
			"0.02": 0.0,
			"0.021": 0.0,
			"0.022": 0.0,
			"0.023": 0.0,
			"0.024": 0.0,
			"0.025": 0.0
		}
	}
}
