{
	 "smiles": "CCOC(=O)C(=CNC1=C(F)C=CC(F)=C1)C#N", 
	 "Tm": 438.15, 
	 "num_atms": 28, 
	 "gaussian": { 
		 "optdone": 1, 
		 "sigma_profile": "yes", 
		 "theory": "DFT", 
		 "functional": "B3LYP", 
		 "basiset": "6-31G**", 
		 "properties": { 
			 "R2extent": 6695.7652, 
			 "electric_dipole_moment_norm": 8.06879713092, 
			 "electric_quadrupole_moment_norm": 35.9122524585, 
			 "total_energy": -922.913214711, 
			 "HOMO_LUMO_gap": 0.15727, 
			 "cosmo_polarized_energy": -18.9, 
			 "cosmo_cavitation_energy": 35.55, 
			 "cosmo_dispersion_energy": -24.02, 
			 "cosmo_repulsion_energy": 1.81, 
			 "cosmo_total_nonelectrostatic_energy": 13.34, 
			 "SMD_solvation_energy": 9.36 
		},
		"coords": [
			{
				"x": 0.8264459767,
				"y": -4.0839070892,
				"z": 0.3060958543,
				"element": "C" 
			},
			{
				"x": 1.7179101897,
				"y": -3.9791461637,
				"z": -0.9165884681,
				"element": "C" 
			},
			{
				"x": 1.7965321076,
				"y": -2.5767722971,
				"z": -1.2788612295,
				"element": "O" 
			},
			{
				"x": 2.5643606601,
				"y": -2.2841411686,
				"z": -2.3727771816,
				"element": "C" 
			},
			{
				"x": 3.1487116832,
				"y": -3.1323086153,
				"z": -3.0107283195,
				"element": "O" 
			},
			{
				"x": 2.5876248164,
				"y": -0.8357272667,
				"z": -2.6674607178,
				"element": "C" 
			},
			{
				"x": 1.9384086361,
				"y": 0.1552813505,
				"z": -1.9658605945,
				"element": "C" 
			},
			{
				"x": 1.1585658621,
				"y": -0.0085244513,
				"z": -0.8772780408,
				"element": "N" 
			},
			{
				"x": 0.4925082358,
				"y": 0.9825725105,
				"z": -0.152236589,
				"element": "C" 
			},
			{
				"x": -0.2641228458,
				"y": 0.5611181757,
				"z": 0.952801525,
				"element": "C" 
			},
			{
				"x": -0.2846648321,
				"y": -0.7696786193,
				"z": 1.2226604158,
				"element": "F" 
			},
			{
				"x": -0.9698760549,
				"y": 1.4419478476,
				"z": 1.7519643776,
				"element": "C" 
			},
			{
				"x": -0.9378345557,
				"y": 2.8075295969,
				"z": 1.4601555785,
				"element": "C" 
			},
			{
				"x": -0.1895452478,
				"y": 3.2276875502,
				"z": 0.3666488991,
				"element": "C" 
			},
			{
				"x": -0.1471846349,
				"y": 4.5403627054,
				"z": 0.0704082508,
				"element": "F" 
			},
			{
				"x": 0.5241336556,
				"y": 2.3516942205,
				"z": -0.444166382,
				"element": "C" 
			},
			{
				"x": 3.3653107409,
				"y": -0.4338528627,
				"z": -3.7959467356,
				"element": "C" 
			},
			{
				"x": 3.9885893515,
				"y": -0.0677542872,
				"z": -4.7084036045,
				"element": "N" 
			},
			{
				"x": 1.2380624201,
				"y": -3.5146713158,
				"z": 1.1447943866,
				"element": "H" 
			},
			{
				"x": -0.1788877441,
				"y": -3.7075732025,
				"z": 0.0950532382,
				"element": "H" 
			},
			{
				"x": 0.7426724234,
				"y": -5.131219429,
				"z": 0.6115857672,
				"element": "H" 
			},
			{
				"x": 1.319734929,
				"y": -4.535865568,
				"z": -1.7696304685,
				"element": "H" 
			},
			{
				"x": 2.7305958947,
				"y": -4.3449452451,
				"z": -0.7246038585,
				"element": "H" 
			},
			{
				"x": 2.0593770552,
				"y": 1.1747012098,
				"z": -2.3149354663,
				"element": "H" 
			},
			{
				"x": 1.0458309472,
				"y": -0.9642926676,
				"z": -0.5508310665,
				"element": "H" 
			},
			{
				"x": -1.5357679047,
				"y": 1.0544324046,
				"z": 2.5916292291,
				"element": "H" 
			},
			{
				"x": -1.4759245635,
				"y": 3.5315385466,
				"z": 2.0599582035,
				"element": "H" 
			},
			{
				"x": 1.084032798,
				"y": 2.7552141309,
				"z": -1.2786470031,
				"element": "H" 
			}
		],
		 "valence_orbital": [ 
			{
				"type": "occ",
				"energy": -0.31462,
				"method": "rhf"
			},
			{
				"type": "occ",
				"energy": -0.29224,
				"method": "rhf"
			},
			{
				"type": "occ",
				"energy": -0.28623,
				"method": "rhf"
			},
			{
				"type": "occ",
				"energy": -0.2693,
				"method": "rhf"
			},
			{
				"type": "occ",
				"energy": -0.22916,
				"method": "rhf"
			},
			{
				"type": "unocc",
				"energy": -0.07189,
				"method": "rhf"
			},
			{
				"type": "unocc",
				"energy": -0.02497,
				"method": "rhf"
			},
			{
				"type": "unocc",
				"energy": -0.00739,
				"method": "rhf"
			},
			{
				"type": "unocc",
				"energy": 0.02832,
				"method": "rhf"
			},
			{
				"type": "unocc",
				"energy": 0.03776,
				"method": "rhf"
			}
		],
		"cosmo_sigma_profile": { 
			"-0.025": 0.0,
			"-0.024": 0.0,
			"-0.023": 0.0,
			"-0.022": 0.0,
			"-0.021": 0.0,
			"-0.02": 0.0,
			"-0.019": 0.0,
			"-0.018": 0.0,
			"-0.017": 0.0,
			"-0.016": 0.0,
			"-0.015": 0.0,
			"-0.014": 0.131363102652,
			"-0.013": 1.45588287994,
			"-0.012": 1.48384717318,
			"-0.011": 2.24311555693,
			"-0.01": 1.80886453212,
			"-0.009": 2.77791460768,
			"-0.008": 5.57589611581,
			"-0.007": 5.6053835917,
			"-0.006": 9.88367221732,
			"-0.005": 15.8317379871,
			"-0.004": 21.1071814073,
			"-0.003": 26.905026592,
			"-0.002": 24.9649995338,
			"-0.001": 27.2518237381,
			"0.0": 30.7210126746,
			"0.001": 22.0146382288,
			"0.002": 14.1080401129,
			"0.003": 11.9365694715,
			"0.004": 14.6450090759,
			"0.005": 4.2965278652,
			"0.006": 3.31674332017,
			"0.007": 4.46322304782,
			"0.008": 5.30450537338,
			"0.009": 5.81275652595,
			"0.01": 5.88654492585,
			"0.011": 6.96578630319,
			"0.012": 6.73658597832,
			"0.013": 2.24153672796,
			"0.014": 0.872050688766,
			"0.015": 0.0,
			"0.016": 0.0,
			"0.017": 0.0,
			"0.018": 0.0,
			"0.019": 0.0,
			"0.02": 0.0,
			"0.021": 0.0,
			"0.022": 0.0,
			"0.023": 0.0,
			"0.024": 0.0,
			"0.025": 0.0
		}
	}
}
