{
	 "smiles": "CCCCCCC1=CC=C(C=C1)C1=CC=C(C=C1)C(O)=O", 
	 "Tm": 496.15, 
	 "num_atms": 43, 
	 "gaussian": { 
		 "optdone": 1, 
		 "sigma_profile": "yes", 
		 "theory": "DFT", 
		 "functional": "B3LYP", 
		 "basiset": "6-31G**", 
		 "properties": { 
			 "R2extent": 16072.9119, 
			 "electric_dipole_moment_norm": 5.79357241173, 
			 "electric_quadrupole_moment_norm": 50.8181050976, 
			 "total_energy": -887.772078347, 
			 "HOMO_LUMO_gap": 0.1734, 
			 "cosmo_polarized_energy": -15.16, 
			 "cosmo_cavitation_energy": 45.89, 
			 "cosmo_dispersion_energy": -32.34, 
			 "cosmo_repulsion_energy": 2.5, 
			 "cosmo_total_nonelectrostatic_energy": 16.05, 
			 "SMD_solvation_energy": 7.95 
		},
		"coords": [
			{
				"x": -6.0250076136,
				"y": 1.7361348126,
				"z": 1.8828695471,
				"element": "C" 
			},
			{
				"x": -4.6606774813,
				"y": 1.6019238145,
				"z": 2.5674328715,
				"element": "C" 
			},
			{
				"x": -3.7701641317,
				"y": 0.532096658,
				"z": 1.9193007719,
				"element": "C" 
			},
			{
				"x": -2.4171867956,
				"y": 0.3045345737,
				"z": 2.6138022693,
				"element": "C" 
			},
			{
				"x": -1.4546579047,
				"y": 1.4972187426,
				"z": 2.5371412841,
				"element": "C" 
			},
			{
				"x": -0.0758494215,
				"y": 1.2344762165,
				"z": 3.18488599,
				"element": "C" 
			},
			{
				"x": 0.7547285751,
				"y": 0.1860871554,
				"z": 2.4751066305,
				"element": "C" 
			},
			{
				"x": 0.9048939901,
				"y": -1.1073813573,
				"z": 2.9917826187,
				"element": "C" 
			},
			{
				"x": 1.659515901,
				"y": -2.0708639477,
				"z": 2.3248802749,
				"element": "C" 
			},
			{
				"x": 2.295636108,
				"y": -1.7758397558,
				"z": 1.1085092782,
				"element": "C" 
			},
			{
				"x": 2.1473475135,
				"y": -0.4775261577,
				"z": 0.5898497473,
				"element": "C" 
			},
			{
				"x": 1.3942985848,
				"y": 0.4807403839,
				"z": 1.2616206255,
				"element": "C" 
			},
			{
				"x": 3.1004593423,
				"y": -2.797507661,
				"z": 0.3960394323,
				"element": "C" 
			},
			{
				"x": 3.1001537205,
				"y": -2.8680268062,
				"z": -1.0080863613,
				"element": "C" 
			},
			{
				"x": 3.8611078475,
				"y": -3.8210727508,
				"z": -1.6785965693,
				"element": "C" 
			},
			{
				"x": 4.6447831259,
				"y": -4.7395520748,
				"z": -0.9653450075,
				"element": "C" 
			},
			{
				"x": 4.6315629551,
				"y": -4.691903217,
				"z": 0.4353922176,
				"element": "C" 
			},
			{
				"x": 3.8814718538,
				"y": -3.7315809125,
				"z": 1.1024852757,
				"element": "C" 
			},
			{
				"x": 5.4741170657,
				"y": -5.7995265194,
				"z": -1.6213273719,
				"element": "C" 
			},
			{
				"x": 5.7950302127,
				"y": -5.6049341353,
				"z": -2.930133469,
				"element": "O" 
			},
			{
				"x": 5.8597631277,
				"y": -6.7921064419,
				"z": -1.048805111,
				"element": "O" 
			},
			{
				"x": -6.6421369165,
				"y": 2.5019888351,
				"z": 2.3640606416,
				"element": "H" 
			},
			{
				"x": -6.5799761999,
				"y": 0.7915437906,
				"z": 1.9168548373,
				"element": "H" 
			},
			{
				"x": -5.9133407443,
				"y": 2.0138221434,
				"z": 0.8283994832,
				"element": "H" 
			},
			{
				"x": -4.8058185325,
				"y": 1.35397491,
				"z": 3.6281823482,
				"element": "H" 
			},
			{
				"x": -4.1525964192,
				"y": 2.5743396463,
				"z": 2.5496771695,
				"element": "H" 
			},
			{
				"x": -3.5967690355,
				"y": 0.7951419337,
				"z": 0.8656423003,
				"element": "H" 
			},
			{
				"x": -4.3205160287,
				"y": -0.4185412691,
				"z": 1.9044215895,
				"element": "H" 
			},
			{
				"x": -1.9336013037,
				"y": -0.5717383103,
				"z": 2.1650199673,
				"element": "H" 
			},
			{
				"x": -2.5906959351,
				"y": 0.0489163232,
				"z": 3.6695606927,
				"element": "H" 
			},
			{
				"x": -1.3087089284,
				"y": 1.7794512879,
				"z": 1.4852770035,
				"element": "H" 
			},
			{
				"x": -1.8994119635,
				"y": 2.3697051888,
				"z": 3.0306775966,
				"element": "H" 
			},
			{
				"x": 0.483167207,
				"y": 2.1783973038,
				"z": 3.2062044363,
				"element": "H" 
			},
			{
				"x": -0.2220961139,
				"y": 0.9374897592,
				"z": 4.2307076895,
				"element": "H" 
			},
			{
				"x": 0.4196412483,
				"y": -1.3663234844,
				"z": 3.9294843814,
				"element": "H" 
			},
			{
				"x": 1.7343320705,
				"y": -3.0712080617,
				"z": 2.7410618906,
				"element": "H" 
			},
			{
				"x": 2.6549595742,
				"y": -0.2076700399,
				"z": -0.3317430534,
				"element": "H" 
			},
			{
				"x": 1.3124841372,
				"y": 1.4816038418,
				"z": 0.8440082829,
				"element": "H" 
			},
			{
				"x": 2.4710323704,
				"y": -2.1908919098,
				"z": -1.5771657534,
				"element": "H" 
			},
			{
				"x": 3.7942892858,
				"y": -3.8697757265,
				"z": -2.7632780151,
				"element": "H" 
			},
			{
				"x": 5.2294335618,
				"y": -5.4136637048,
				"z": 0.9815315271,
				"element": "H" 
			},
			{
				"x": 3.9154469214,
				"y": -3.686308892,
				"z": 2.1865312994,
				"element": "H" 
			},
			{
				"x": 5.5628551695,
				"y": -4.7055441852,
				"z": -3.1990212597,
				"element": "H" 
			}
		],
		 "valence_orbital": [ 
			{
				"type": "occ",
				"energy": -0.28223,
				"method": "rhf"
			},
			{
				"type": "occ",
				"energy": -0.27105,
				"method": "rhf"
			},
			{
				"type": "occ",
				"energy": -0.26705,
				"method": "rhf"
			},
			{
				"type": "occ",
				"energy": -0.25835,
				"method": "rhf"
			},
			{
				"type": "occ",
				"energy": -0.23186,
				"method": "rhf"
			},
			{
				"type": "unocc",
				"energy": -0.05846,
				"method": "rhf"
			},
			{
				"type": "unocc",
				"energy": -0.02127,
				"method": "rhf"
			},
			{
				"type": "unocc",
				"energy": -0.01087,
				"method": "rhf"
			},
			{
				"type": "unocc",
				"energy": -0.0015,
				"method": "rhf"
			},
			{
				"type": "unocc",
				"energy": 0.05638,
				"method": "rhf"
			}
		],
		"cosmo_sigma_profile": { 
			"-0.025": 0.0,
			"-0.024": 0.0,
			"-0.023": 0.0,
			"-0.022": 0.0,
			"-0.021": 0.0,
			"-0.02": 0.0,
			"-0.019": 0.119507856187,
			"-0.018": 0.744681556043,
			"-0.017": 0.987600848932,
			"-0.016": 1.0144392217,
			"-0.015": 0.957037507118,
			"-0.014": 1.11065381166,
			"-0.013": 0.673830570706,
			"-0.012": 1.19532345048,
			"-0.011": 1.12594480263,
			"-0.01": 1.22361790635,
			"-0.009": 1.41700162072,
			"-0.008": 1.62778837185,
			"-0.007": 2.60820447156,
			"-0.006": 10.6024311103,
			"-0.005": 16.4065915137,
			"-0.004": 17.5882111755,
			"-0.003": 23.533799181,
			"-0.002": 35.687520984,
			"-0.001": 44.6399751068,
			"0.0": 47.4755604053,
			"0.001": 43.5573417112,
			"0.002": 29.771379899,
			"0.003": 22.2813623137,
			"0.004": 13.1337159378,
			"0.005": 11.2900721319,
			"0.006": 5.04222615264,
			"0.007": 2.41372812064,
			"0.008": 2.52231173718,
			"0.009": 3.80611933903,
			"0.01": 3.92861497905,
			"0.011": 5.47326161,
			"0.012": 5.28052890744,
			"0.013": 1.89109729099,
			"0.014": 0.124635598865,
			"0.015": 0.0,
			"0.016": 0.0,
			"0.017": 0.0,
			"0.018": 0.0,
			"0.019": 0.0,
			"0.02": 0.0,
			"0.021": 0.0,
			"0.022": 0.0,
			"0.023": 0.0,
			"0.024": 0.0,
			"0.025": 0.0
		}
	}
}
