{
	 "smiles": "CC(=C)C#N", 
	 "Tm": 237.25, 
	 "num_atms": 10, 
	 "gaussian": { 
		 "optdone": 1, 
		 "sigma_profile": "yes", 
		 "theory": "DFT", 
		 "functional": "B3LYP", 
		 "basiset": "6-31G**", 
		 "properties": { 
			 "R2extent": 934.2138, 
			 "electric_dipole_moment_norm": 3.87842079847, 
			 "electric_quadrupole_moment_norm": 17.5530154102, 
			 "total_energy": -210.153637472, 
			 "HOMO_LUMO_gap": 0.23159, 
			 "cosmo_polarized_energy": -7.39, 
			 "cosmo_cavitation_energy": 14.92, 
			 "cosmo_dispersion_energy": -10.14, 
			 "cosmo_repulsion_energy": 0.91, 
			 "cosmo_total_nonelectrostatic_energy": 5.69, 
			 "SMD_solvation_energy": 5.05 
		},
		"coords": [
			{
				"x": 0.8816207279,
				"y": -1.0365752658,
				"z": 0.3338138212,
				"element": "C" 
			},
			{
				"x": -0.5001784185,
				"y": -1.5112747992,
				"z": -0.0504043768,
				"element": "C" 
			},
			{
				"x": -1.609157887,
				"y": -0.7609088932,
				"z": 0.0275831631,
				"element": "C" 
			},
			{
				"x": -0.5958003745,
				"y": -2.8661363745,
				"z": -0.5284781772,
				"element": "C" 
			},
			{
				"x": -0.6356660242,
				"y": -3.9644662866,
				"z": -0.9099965815,
				"element": "N" 
			},
			{
				"x": 1.300968697,
				"y": -1.6607591917,
				"z": 1.1301044551,
				"element": "H" 
			},
			{
				"x": 0.8474683278,
				"y": -0.0016402457,
				"z": 0.6817009521,
				"element": "H" 
			},
			{
				"x": 1.5660658343,
				"y": -1.0976592276,
				"z": -0.5190278743,
				"element": "H" 
			},
			{
				"x": -1.5600112791,
				"y": 0.2628732847,
				"z": 0.3851030179,
				"element": "H" 
			},
			{
				"x": -2.5812096038,
				"y": -1.1457530004,
				"z": -0.2600983996,
				"element": "H" 
			}
		],
		 "valence_orbital": [ 
			{
				"type": "occ",
				"energy": -0.39694,
				"method": "rhf"
			},
			{
				"type": "occ",
				"energy": -0.36005,
				"method": "rhf"
			},
			{
				"type": "occ",
				"energy": -0.35769,
				"method": "rhf"
			},
			{
				"type": "occ",
				"energy": -0.33083,
				"method": "rhf"
			},
			{
				"type": "occ",
				"energy": -0.27706,
				"method": "rhf"
			},
			{
				"type": "unocc",
				"energy": -0.04547,
				"method": "rhf"
			},
			{
				"type": "unocc",
				"energy": 0.0337,
				"method": "rhf"
			},
			{
				"type": "unocc",
				"energy": 0.09214,
				"method": "rhf"
			},
			{
				"type": "unocc",
				"energy": 0.09498,
				"method": "rhf"
			},
			{
				"type": "unocc",
				"energy": 0.11714,
				"method": "rhf"
			}
		],
		"cosmo_sigma_profile": { 
			"-0.025": 0.0,
			"-0.024": 0.0,
			"-0.023": 0.0,
			"-0.022": 0.0,
			"-0.021": 0.0,
			"-0.02": 0.0,
			"-0.019": 0.0,
			"-0.018": 0.0,
			"-0.017": 0.0,
			"-0.016": 0.0,
			"-0.015": 0.0,
			"-0.014": 0.0,
			"-0.013": 0.0,
			"-0.012": 0.0,
			"-0.011": 0.0,
			"-0.01": 0.0,
			"-0.009": 0.0,
			"-0.008": 1.40765515826,
			"-0.007": 4.57701505373,
			"-0.006": 8.04635372529,
			"-0.005": 10.6147344122,
			"-0.004": 10.8328165017,
			"-0.003": 10.8095410086,
			"-0.002": 12.2160675957,
			"-0.001": 12.370196427,
			"0.0": 8.3384155109,
			"0.001": 5.91657566685,
			"0.002": 5.02388080812,
			"0.003": 2.60521102914,
			"0.004": 2.16745790946,
			"0.005": 1.99430639429,
			"0.006": 3.01079506152,
			"0.007": 2.56541807539,
			"0.008": 3.17348434787,
			"0.009": 3.65213879967,
			"0.01": 3.06839284495,
			"0.011": 2.93125577719,
			"0.012": 2.46420155589,
			"0.013": 1.84859556266,
			"0.014": 0.118114564617,
			"0.015": 0.0,
			"0.016": 0.0,
			"0.017": 0.0,
			"0.018": 0.0,
			"0.019": 0.0,
			"0.02": 0.0,
			"0.021": 0.0,
			"0.022": 0.0,
			"0.023": 0.0,
			"0.024": 0.0,
			"0.025": 0.0
		}
	}
}
