{
	 "smiles": "COC(=O)C#CC(=O)OC", 
	 "Tm": 255.15, 
	 "num_atms": 16, 
	 "gaussian": { 
		 "optdone": 1, 
		 "sigma_profile": "yes", 
		 "theory": "DFT", 
		 "functional": "B3LYP", 
		 "basiset": "6-31G**", 
		 "properties": { 
			 "R2extent": 3337.5645, 
			 "electric_dipole_moment_norm": 2.46390139007, 
			 "electric_quadrupole_moment_norm": 17.4234425241, 
			 "total_energy": -533.073636136, 
			 "HOMO_LUMO_gap": 0.23383, 
			 "cosmo_polarized_energy": -9.69, 
			 "cosmo_cavitation_energy": 23.25, 
			 "cosmo_dispersion_energy": -16.61, 
			 "cosmo_repulsion_energy": 1.41, 
			 "cosmo_total_nonelectrostatic_energy": 8.04, 
			 "SMD_solvation_energy": 8.19 
		},
		"coords": [
			{
				"x": 1.7568928912,
				"y": -5.057625787,
				"z": -0.041904297,
				"element": "C" 
			},
			{
				"x": 1.1410099499,
				"y": -3.7769168012,
				"z": -0.2820093569,
				"element": "O" 
			},
			{
				"x": 0.1226564627,
				"y": -3.4746881712,
				"z": 0.5414255624,
				"element": "C" 
			},
			{
				"x": -0.2921417523,
				"y": -4.1832420549,
				"z": 1.4330938236,
				"element": "O" 
			},
			{
				"x": -0.4315019611,
				"y": -2.1721368788,
				"z": 0.2263844625,
				"element": "C" 
			},
			{
				"x": -0.9536299359,
				"y": -1.1000942543,
				"z": 0.0152527319,
				"element": "C" 
			},
			{
				"x": -1.5063081229,
				"y": 0.224831721,
				"z": -0.1897853548,
				"element": "C" 
			},
			{
				"x": -1.0709126354,
				"y": 1.223767374,
				"z": 0.3410170559,
				"element": "O" 
			},
			{
				"x": -2.549001394,
				"y": 0.1859909026,
				"z": -1.0369744383,
				"element": "O" 
			},
			{
				"x": -3.1653789542,
				"y": 1.4618115747,
				"z": -1.3006893789,
				"element": "C" 
			},
			{
				"x": 2.1703114445,
				"y": -5.0985786472,
				"z": 0.9684976065,
				"element": "H" 
			},
			{
				"x": 1.0262581673,
				"y": -5.8609868214,
				"z": -0.1614370688,
				"element": "H" 
			},
			{
				"x": 2.5478031769,
				"y": -5.141122186,
				"z": -0.786080663,
				"element": "H" 
			},
			{
				"x": -3.9772269823,
				"y": 1.2515067661,
				"z": -1.9956631983,
				"element": "H" 
			},
			{
				"x": -2.4430602874,
				"y": 2.1500492367,
				"z": -1.7457569355,
				"element": "H" 
			},
			{
				"x": -3.550670067,
				"y": 1.8976340271,
				"z": -0.3759705513,
				"element": "H" 
			}
		],
		 "valence_orbital": [ 
			{
				"type": "occ",
				"energy": -0.32109,
				"method": "rhf"
			},
			{
				"type": "occ",
				"energy": -0.31861,
				"method": "rhf"
			},
			{
				"type": "occ",
				"energy": -0.31821,
				"method": "rhf"
			},
			{
				"type": "occ",
				"energy": -0.29046,
				"method": "rhf"
			},
			{
				"type": "occ",
				"energy": -0.28871,
				"method": "rhf"
			},
			{
				"type": "unocc",
				"energy": -0.05488,
				"method": "rhf"
			},
			{
				"type": "unocc",
				"energy": -0.05255,
				"method": "rhf"
			},
			{
				"type": "unocc",
				"energy": 0.09102,
				"method": "rhf"
			},
			{
				"type": "unocc",
				"energy": 0.09305,
				"method": "rhf"
			},
			{
				"type": "unocc",
				"energy": 0.10318,
				"method": "rhf"
			}
		],
		"cosmo_sigma_profile": { 
			"-0.025": 0.0,
			"-0.024": 0.0,
			"-0.023": 0.0,
			"-0.022": 0.0,
			"-0.021": 0.0,
			"-0.02": 0.0,
			"-0.019": 0.0,
			"-0.018": 0.0,
			"-0.017": 0.0,
			"-0.016": 0.0,
			"-0.015": 0.0,
			"-0.014": 0.0,
			"-0.013": 0.0,
			"-0.012": 0.0,
			"-0.011": 0.0,
			"-0.01": 0.0,
			"-0.009": 0.0,
			"-0.008": 0.492376760739,
			"-0.007": 7.78350365529,
			"-0.006": 15.2950600949,
			"-0.005": 20.8489307024,
			"-0.004": 21.8122370841,
			"-0.003": 12.4152328652,
			"-0.002": 9.40102264846,
			"-0.001": 10.816576669,
			"0.0": 9.9306738556,
			"0.001": 15.0323461927,
			"0.002": 9.30023534003,
			"0.003": 7.82958043574,
			"0.004": 5.81022761691,
			"0.005": 5.51593602938,
			"0.006": 4.81992085523,
			"0.007": 5.99853786652,
			"0.008": 4.26030140416,
			"0.009": 5.28888896001,
			"0.01": 9.39052115425,
			"0.011": 4.67164989953,
			"0.012": 0.114478555919,
			"0.013": 0.0,
			"0.014": 0.0,
			"0.015": 0.0,
			"0.016": 0.0,
			"0.017": 0.0,
			"0.018": 0.0,
			"0.019": 0.0,
			"0.02": 0.0,
			"0.021": 0.0,
			"0.022": 0.0,
			"0.023": 0.0,
			"0.024": 0.0,
			"0.025": 0.0
		}
	}
}
