{
	 "smiles": "CN(C1=C(C=C(C=C1[N+]([O-])=O)[N+]([O-])=O)[N+]([O-])=O)[N+]([O-])=O", 
	 "Tm": 405.15, 
	 "num_atms": 25, 
	 "gaussian": { 
		 "optdone": 1, 
		 "sigma_profile": "yes", 
		 "theory": "DFT", 
		 "functional": "B3LYP", 
		 "basiset": "6-31G**", 
		 "properties": { 
			 "R2extent": 5165.0876, 
			 "electric_dipole_moment_norm": 3.52719891557, 
			 "electric_quadrupole_moment_norm": 11.5698953314, 
			 "total_energy": -1144.84257207, 
			 "HOMO_LUMO_gap": 0.15722, 
			 "cosmo_polarized_energy": -18.47, 
			 "cosmo_cavitation_energy": 32.77, 
			 "cosmo_dispersion_energy": -22.6, 
			 "cosmo_repulsion_energy": 1.7, 
			 "cosmo_total_nonelectrostatic_energy": 11.88, 
			 "SMD_solvation_energy": 14.52 
		},
		"coords": [
			{
				"x": -2.7925524045,
				"y": 0.7200274685,
				"z": 0.8836437169,
				"element": "C" 
			},
			{
				"x": -1.6072061854,
				"y": 1.2890622653,
				"z": 0.2320922393,
				"element": "N" 
			},
			{
				"x": -0.3581051803,
				"y": 0.6251424622,
				"z": 0.2055200704,
				"element": "C" 
			},
			{
				"x": 0.0756665065,
				"y": -0.1817282127,
				"z": -0.8705658475,
				"element": "C" 
			},
			{
				"x": 1.3216123157,
				"y": -0.7906293001,
				"z": -0.8935773926,
				"element": "C" 
			},
			{
				"x": 2.1649159767,
				"y": -0.6143112051,
				"z": 0.1957471252,
				"element": "C" 
			},
			{
				"x": 1.8103354368,
				"y": 0.1785299698,
				"z": 1.2743793793,
				"element": "C" 
			},
			{
				"x": 0.5571292331,
				"y": 0.7835746606,
				"z": 1.2655386762,
				"element": "C" 
			},
			{
				"x": 0.2577428993,
				"y": 1.646516079,
				"z": 2.4285404465,
				"element": "N" 
			},
			{
				"x": -0.8967538902,
				"y": 1.6789137417,
				"z": 2.8404662754,
				"element": "O" 
			},
			{
				"x": 1.2091222385,
				"y": 2.2510514226,
				"z": 2.9124352335,
				"element": "O" 
			},
			{
				"x": 3.4858217408,
				"y": -1.2768149559,
				"z": 0.1953906608,
				"element": "N" 
			},
			{
				"x": 3.767657959,
				"y": -1.9564244322,
				"z": -0.7861270052,
				"element": "O" 
			},
			{
				"x": 4.1983584002,
				"y": -1.0987385811,
				"z": 1.1781097979,
				"element": "O" 
			},
			{
				"x": -0.7873184236,
				"y": -0.4400933987,
				"z": -2.0475951517,
				"element": "N" 
			},
			{
				"x": -0.2180655649,
				"y": -0.7010568726,
				"z": -3.0991146829,
				"element": "O" 
			},
			{
				"x": -2.003258772,
				"y": -0.4179722183,
				"z": -1.878502426,
				"element": "O" 
			},
			{
				"x": -1.8473036936,
				"y": 2.1874919496,
				"z": -0.8154004531,
				"element": "N" 
			},
			{
				"x": -0.8774945908,
				"y": 2.5018433117,
				"z": -1.5016791691,
				"element": "O" 
			},
			{
				"x": -2.9910309509,
				"y": 2.5999347682,
				"z": -0.9133045119,
				"element": "O" 
			},
			{
				"x": -2.4411048162,
				"y": 0.0218173,
				"z": 1.6406137041,
				"element": "H" 
			},
			{
				"x": -3.3538844833,
				"y": 1.5162287565,
				"z": 1.3706349711,
				"element": "H" 
			},
			{
				"x": -3.4140190811,
				"y": 0.2062628434,
				"z": 0.1471951943,
				"element": "H" 
			},
			{
				"x": 1.6255743297,
				"y": -1.3894638286,
				"z": -1.7420499986,
				"element": "H" 
			},
			{
				"x": 2.4961610004,
				"y": 0.3410360061,
				"z": 2.0955091477,
				"element": "H" 
			}
		],
		 "valence_orbital": [ 
			{
				"type": "occ",
				"energy": -0.33446,
				"method": "rhf"
			},
			{
				"type": "occ",
				"energy": -0.33254,
				"method": "rhf"
			},
			{
				"type": "occ",
				"energy": -0.32308,
				"method": "rhf"
			},
			{
				"type": "occ",
				"energy": -0.31341,
				"method": "rhf"
			},
			{
				"type": "occ",
				"energy": -0.3021,
				"method": "rhf"
			},
			{
				"type": "unocc",
				"energy": -0.14488,
				"method": "rhf"
			},
			{
				"type": "unocc",
				"energy": -0.13427,
				"method": "rhf"
			},
			{
				"type": "unocc",
				"energy": -0.11663,
				"method": "rhf"
			},
			{
				"type": "unocc",
				"energy": -0.07035,
				"method": "rhf"
			},
			{
				"type": "unocc",
				"energy": -0.05433,
				"method": "rhf"
			}
		],
		"cosmo_sigma_profile": { 
			"-0.025": 0.0,
			"-0.024": 0.0,
			"-0.023": 0.0,
			"-0.022": 0.0,
			"-0.021": 0.0,
			"-0.02": 0.0,
			"-0.019": 0.0,
			"-0.018": 0.0,
			"-0.017": 0.0,
			"-0.016": 0.0,
			"-0.015": 0.0,
			"-0.014": 0.0,
			"-0.013": 0.0,
			"-0.012": 0.111268871223,
			"-0.011": 1.71613359836,
			"-0.01": 5.03567056203,
			"-0.009": 8.4050514111,
			"-0.008": 10.3976116615,
			"-0.007": 16.0325935106,
			"-0.006": 19.2032826695,
			"-0.005": 16.0385792791,
			"-0.004": 16.1495038388,
			"-0.003": 11.7228835047,
			"-0.002": 9.6918299318,
			"-0.001": 10.4440209431,
			"0.0": 10.7152881063,
			"0.001": 9.9638705085,
			"0.002": 9.60497176419,
			"0.003": 10.0782912312,
			"0.004": 13.9600767312,
			"0.005": 16.8744096162,
			"0.006": 28.1714677539,
			"0.007": 22.3665750243,
			"0.008": 13.4309031935,
			"0.009": 3.34084120682,
			"0.01": 0.118134001865,
			"0.011": 0.0,
			"0.012": 0.0,
			"0.013": 0.0,
			"0.014": 0.0,
			"0.015": 0.0,
			"0.016": 0.0,
			"0.017": 0.0,
			"0.018": 0.0,
			"0.019": 0.0,
			"0.02": 0.0,
			"0.021": 0.0,
			"0.022": 0.0,
			"0.023": 0.0,
			"0.024": 0.0,
			"0.025": 0.0
		}
	}
}
