{
	 "smiles": "CN1CC(=O)N2[C@H](CC3=C(NC4=CC=CC=C34)[C@H]2C2=CC3=C(OCO3)C=C2)C1=O", 
	 "Tm": 574.65, 
	 "num_atms": 48, 
	 "gaussian": { 
		 "optdone": 1, 
		 "sigma_profile": "yes", 
		 "theory": "DFT", 
		 "functional": "B3LYP", 
		 "basiset": "6-31G**", 
		 "properties": { 
			 "R2extent": 12222.2444, 
			 "electric_dipole_moment_norm": 1.90677287059, 
			 "electric_quadrupole_moment_norm": 18.5913476322, 
			 "total_energy": -1314.94485264, 
			 "HOMO_LUMO_gap": 0.18623, 
			 "cosmo_polarized_energy": -22.34, 
			 "cosmo_cavitation_energy": 49.88, 
			 "cosmo_dispersion_energy": -35.3, 
			 "cosmo_repulsion_energy": 2.62, 
			 "cosmo_total_nonelectrostatic_energy": 17.21, 
			 "SMD_solvation_energy": 8.05 
		},
		"coords": [
			{
				"x": -1.0047526609,
				"y": -0.7336877101,
				"z": 5.9261233456,
				"element": "C" 
			},
			{
				"x": -0.6870306608,
				"y": -1.0576030613,
				"z": 4.5424908454,
				"element": "N" 
			},
			{
				"x": 0.6204294479,
				"y": -1.6224180175,
				"z": 4.2568008261,
				"element": "C" 
			},
			{
				"x": 1.1259046559,
				"y": -1.3706530996,
				"z": 2.840228454,
				"element": "C" 
			},
			{
				"x": 2.3314289467,
				"y": -1.4127348818,
				"z": 2.6134564894,
				"element": "O" 
			},
			{
				"x": 0.174682445,
				"y": -1.119286252,
				"z": 1.892612997,
				"element": "N" 
			},
			{
				"x": -1.2329597554,
				"y": -1.4902600625,
				"z": 2.1899138243,
				"element": "C" 
			},
			{
				"x": -2.2282523398,
				"y": -0.9854602553,
				"z": 1.1348992921,
				"element": "C" 
			},
			{
				"x": -1.7182563439,
				"y": -1.3426357483,
				"z": -0.2246302744,
				"element": "C" 
			},
			{
				"x": -0.3731550038,
				"y": -1.3447346358,
				"z": -0.4731574322,
				"element": "C" 
			},
			{
				"x": -0.1357411587,
				"y": -1.703572315,
				"z": -1.7868641801,
				"element": "N" 
			},
			{
				"x": -1.3485373583,
				"y": -1.9355488199,
				"z": -2.4114841024,
				"element": "C" 
			},
			{
				"x": -1.6295442381,
				"y": -2.3193223694,
				"z": -3.7259914809,
				"element": "C" 
			},
			{
				"x": -2.9655553795,
				"y": -2.4891242081,
				"z": -4.0744777632,
				"element": "C" 
			},
			{
				"x": -3.9978081832,
				"y": -2.2846913598,
				"z": -3.1365174935,
				"element": "C" 
			},
			{
				"x": -3.7158714395,
				"y": -1.9043801989,
				"z": -1.8299801669,
				"element": "C" 
			},
			{
				"x": -2.3761583618,
				"y": -1.7217469577,
				"z": -1.4472835259,
				"element": "C" 
			},
			{
				"x": 0.6926681782,
				"y": -0.9500402952,
				"z": 0.4971209952,
				"element": "C" 
			},
			{
				"x": 1.2180053561,
				"y": 0.4730145048,
				"z": 0.2523179247,
				"element": "C" 
			},
			{
				"x": 2.5946180874,
				"y": 0.7316508472,
				"z": 0.4344287818,
				"element": "C" 
			},
			{
				"x": 3.0290052341,
				"y": 2.0212439541,
				"z": 0.2066659648,
				"element": "C" 
			},
			{
				"x": 2.1630483274,
				"y": 3.0385936751,
				"z": -0.1861696621,
				"element": "C" 
			},
			{
				"x": 2.8665883021,
				"y": 4.2053984821,
				"z": -0.3632599806,
				"element": "O" 
			},
			{
				"x": 4.1941736093,
				"y": 3.9278854701,
				"z": 0.1002456888,
				"element": "C" 
			},
			{
				"x": 4.31146462,
				"y": 2.5145552901,
				"z": 0.2891431113,
				"element": "O" 
			},
			{
				"x": 0.8142907734,
				"y": 2.8084268758,
				"z": -0.3745549131,
				"element": "C" 
			},
			{
				"x": 0.3559413403,
				"y": 1.4989330642,
				"z": -0.1492203428,
				"element": "C" 
			},
			{
				"x": -1.660519465,
				"y": -1.0117444548,
				"z": 3.5888261955,
				"element": "C" 
			},
			{
				"x": -2.8120243906,
				"y": -0.6529040172,
				"z": 3.8075470616,
				"element": "O" 
			},
			{
				"x": -0.9598568814,
				"y": -1.6282290464,
				"z": 6.5604562636,
				"element": "H" 
			},
			{
				"x": -0.2964713411,
				"y": 0.0062560761,
				"z": 6.3148334236,
				"element": "H" 
			},
			{
				"x": -2.0149666546,
				"y": -0.3272893934,
				"z": 5.9525255817,
				"element": "H" 
			},
			{
				"x": 0.645227949,
				"y": -2.7092107308,
				"z": 4.4425422402,
				"element": "H" 
			},
			{
				"x": 1.3599197407,
				"y": -1.1739925262,
				"z": 4.9248151179,
				"element": "H" 
			},
			{
				"x": -1.3063739386,
				"y": -2.5908359991,
				"z": 2.1966033201,
				"element": "H" 
			},
			{
				"x": -2.3722221836,
				"y": 0.0952991743,
				"z": 1.2567997396,
				"element": "H" 
			},
			{
				"x": -3.1959211268,
				"y": -1.4430811459,
				"z": 1.3520608996,
				"element": "H" 
			},
			{
				"x": 0.7674885431,
				"y": -1.7252449827,
				"z": -2.2322149575,
				"element": "H" 
			},
			{
				"x": -0.8353794723,
				"y": -2.4785105333,
				"z": -4.4501042356,
				"element": "H" 
			},
			{
				"x": -3.2172265563,
				"y": -2.7848209997,
				"z": -5.0887261332,
				"element": "H" 
			},
			{
				"x": -5.0297305722,
				"y": -2.4267213935,
				"z": -3.4438678291,
				"element": "H" 
			},
			{
				"x": -4.5192147086,
				"y": -1.7469845644,
				"z": -1.1155474993,
				"element": "H" 
			},
			{
				"x": 1.5492139276,
				"y": -1.6291749087,
				"z": 0.4128522798,
				"element": "H" 
			},
			{
				"x": 3.2679322716,
				"y": -0.0463217053,
				"z": 0.7719983646,
				"element": "H" 
			},
			{
				"x": 4.3627916135,
				"y": 4.443307654,
				"z": 1.0571198198,
				"element": "H" 
			},
			{
				"x": 4.9181702969,
				"y": 4.257794487,
				"z": -0.6512288436,
				"element": "H" 
			},
			{
				"x": 0.1443192704,
				"y": 3.6002620627,
				"z": -0.689915649,
				"element": "H" 
			},
			{
				"x": -0.694682762,
				"y": 1.2790450323,
				"z": -0.307132383,
				"element": "H" 
			}
		],
		 "valence_orbital": [ 
			{
				"type": "occ",
				"energy": -0.24307,
				"method": "rhf"
			},
			{
				"type": "occ",
				"energy": -0.24136,
				"method": "rhf"
			},
			{
				"type": "occ",
				"energy": -0.22073,
				"method": "rhf"
			},
			{
				"type": "occ",
				"energy": -0.20682,
				"method": "rhf"
			},
			{
				"type": "occ",
				"energy": -0.19922,
				"method": "rhf"
			},
			{
				"type": "unocc",
				"energy": -0.01299,
				"method": "rhf"
			},
			{
				"type": "unocc",
				"energy": -0.00011,
				"method": "rhf"
			},
			{
				"type": "unocc",
				"energy": 0.00432,
				"method": "rhf"
			},
			{
				"type": "unocc",
				"energy": 0.01129,
				"method": "rhf"
			},
			{
				"type": "unocc",
				"energy": 0.01705,
				"method": "rhf"
			}
		],
		"cosmo_sigma_profile": { 
			"-0.025": 0.0,
			"-0.024": 0.0,
			"-0.023": 0.0,
			"-0.022": 0.0,
			"-0.021": 0.0,
			"-0.02": 0.0,
			"-0.019": 0.0,
			"-0.018": 0.0,
			"-0.017": 0.0,
			"-0.016": 0.286742607097,
			"-0.015": 1.1717180452,
			"-0.014": 1.47452384015,
			"-0.013": 1.50177256997,
			"-0.012": 1.15448023321,
			"-0.011": 1.10671949521,
			"-0.01": 1.46545259695,
			"-0.009": 1.90205946574,
			"-0.008": 7.16462411339,
			"-0.007": 19.067996776,
			"-0.006": 21.5032388033,
			"-0.005": 29.8746325966,
			"-0.004": 34.3407159566,
			"-0.003": 29.6477355094,
			"-0.002": 29.1802980786,
			"-0.001": 20.5952698763,
			"0.0": 22.5719086438,
			"0.001": 19.1262671934,
			"0.002": 21.047600945,
			"0.003": 24.8442580347,
			"0.004": 24.4540257093,
			"0.005": 20.5364477428,
			"0.006": 15.281512149,
			"0.007": 14.0711883876,
			"0.008": 5.39384034269,
			"0.009": 5.86420630842,
			"0.01": 4.96414601403,
			"0.011": 3.57290627661,
			"0.012": 4.13867904921,
			"0.013": 6.76486884769,
			"0.014": 3.07714313101,
			"0.015": 0.0,
			"0.016": 0.0,
			"0.017": 0.0,
			"0.018": 0.0,
			"0.019": 0.0,
			"0.02": 0.0,
			"0.021": 0.0,
			"0.022": 0.0,
			"0.023": 0.0,
			"0.024": 0.0,
			"0.025": 0.0
		}
	}
}
