{
	 "smiles": "CCCC(N1N=C2C=CC=CC2=N1)C(N)=O", 
	 "Tm": 399.15, 
	 "num_atms": 30, 
	 "gaussian": { 
		 "optdone": 1, 
		 "sigma_profile": "yes", 
		 "theory": "DFT", 
		 "functional": "B3LYP", 
		 "basiset": "6-31G**", 
		 "properties": { 
			 "R2extent": 4704.9554, 
			 "electric_dipole_moment_norm": 3.15660550909, 
			 "electric_quadrupole_moment_norm": 14.3404528468, 
			 "total_energy": -721.835632367, 
			 "HOMO_LUMO_gap": 0.17866, 
			 "cosmo_polarized_energy": -13.11, 
			 "cosmo_cavitation_energy": 33.48, 
			 "cosmo_dispersion_energy": -23.83, 
			 "cosmo_repulsion_energy": 1.89, 
			 "cosmo_total_nonelectrostatic_energy": 11.54, 
			 "SMD_solvation_energy": 4.58 
		},
		"coords": [
			{
				"x": -3.029773854,
				"y": 1.8299640988,
				"z": 3.491765777,
				"element": "C" 
			},
			{
				"x": -2.4067760656,
				"y": 0.6071823917,
				"z": 2.8107446315,
				"element": "C" 
			},
			{
				"x": -1.0038190001,
				"y": 0.2985233444,
				"z": 3.3462356161,
				"element": "C" 
			},
			{
				"x": -0.3636952107,
				"y": -0.9432541482,
				"z": 2.7268084453,
				"element": "C" 
			},
			{
				"x": -0.0770697635,
				"y": -0.7694896043,
				"z": 1.2932943068,
				"element": "N" 
			},
			{
				"x": -0.0803728024,
				"y": -1.8250054552,
				"z": 0.4752819886,
				"element": "N" 
			},
			{
				"x": 0.3005172787,
				"y": -1.2900575323,
				"z": -0.7098120844,
				"element": "C" 
			},
			{
				"x": 0.4797926868,
				"y": -1.8896263001,
				"z": -1.9776394525,
				"element": "C" 
			},
			{
				"x": 0.8756674269,
				"y": -1.0629614941,
				"z": -3.0071649584,
				"element": "C" 
			},
			{
				"x": 1.0945946256,
				"y": 0.3344782108,
				"z": -2.8147693824,
				"element": "C" 
			},
			{
				"x": 0.9218345009,
				"y": 0.9370032828,
				"z": -1.5874476667,
				"element": "C" 
			},
			{
				"x": 0.5188677876,
				"y": 0.1052454449,
				"z": -0.5176121869,
				"element": "C" 
			},
			{
				"x": 0.2746348415,
				"y": 0.4006946283,
				"z": 0.7810210368,
				"element": "N" 
			},
			{
				"x": 0.9110564652,
				"y": -1.3878317299,
				"z": 3.5035241879,
				"element": "C" 
			},
			{
				"x": 1.7201767531,
				"y": -2.2479920446,
				"z": 2.8334081948,
				"element": "N" 
			},
			{
				"x": 1.1154930156,
				"y": -1.0126850022,
				"z": 4.6471896084,
				"element": "O" 
			},
			{
				"x": -3.1161610309,
				"y": 1.6814235809,
				"z": 4.5740371522,
				"element": "H" 
			},
			{
				"x": -2.4199717576,
				"y": 2.7253803778,
				"z": 3.3283352718,
				"element": "H" 
			},
			{
				"x": -4.0319568598,
				"y": 2.0338351829,
				"z": 3.1014892142,
				"element": "H" 
			},
			{
				"x": -2.3590702783,
				"y": 0.7780364654,
				"z": 1.7289368335,
				"element": "H" 
			},
			{
				"x": -3.0560446592,
				"y": -0.2666661299,
				"z": 2.9604275657,
				"element": "H" 
			},
			{
				"x": -0.3397192902,
				"y": 1.1540023846,
				"z": 3.1905305797,
				"element": "H" 
			},
			{
				"x": -1.0324731743,
				"y": 0.1188016653,
				"z": 4.4245905291,
				"element": "H" 
			},
			{
				"x": -1.0618681529,
				"y": -1.787310615,
				"z": 2.7636565763,
				"element": "H" 
			},
			{
				"x": 0.3099471696,
				"y": -2.9509926394,
				"z": -2.1238640713,
				"element": "H" 
			},
			{
				"x": 1.0264283917,
				"y": -1.4796763131,
				"z": -3.9986556648,
				"element": "H" 
			},
			{
				"x": 1.4052448951,
				"y": 0.9330548185,
				"z": -3.6658741466,
				"element": "H" 
			},
			{
				"x": 1.0861030339,
				"y": 1.9984863863,
				"z": -1.436886532,
				"element": "H" 
			},
			{
				"x": 2.5221989506,
				"y": -2.6155737459,
				"z": 3.32182897,
				"element": "H" 
			},
			{
				"x": 1.4757140768,
				"y": -2.602389509,
				"z": 1.9196196601,
				"element": "H" 
			}
		],
		 "valence_orbital": [ 
			{
				"type": "occ",
				"energy": -0.30477,
				"method": "rhf"
			},
			{
				"type": "occ",
				"energy": -0.27318,
				"method": "rhf"
			},
			{
				"type": "occ",
				"energy": -0.27224,
				"method": "rhf"
			},
			{
				"type": "occ",
				"energy": -0.24509,
				"method": "rhf"
			},
			{
				"type": "occ",
				"energy": -0.23589,
				"method": "rhf"
			},
			{
				"type": "unocc",
				"energy": -0.05723,
				"method": "rhf"
			},
			{
				"type": "unocc",
				"energy": 0.01245,
				"method": "rhf"
			},
			{
				"type": "unocc",
				"energy": 0.02026,
				"method": "rhf"
			},
			{
				"type": "unocc",
				"energy": 0.02278,
				"method": "rhf"
			},
			{
				"type": "unocc",
				"energy": 0.09141,
				"method": "rhf"
			}
		],
		"cosmo_sigma_profile": { 
			"-0.025": 0.0,
			"-0.024": 0.0,
			"-0.023": 0.0,
			"-0.022": 0.0,
			"-0.021": 0.0,
			"-0.02": 0.0,
			"-0.019": 0.0,
			"-0.018": 0.0,
			"-0.017": 0.0,
			"-0.016": 0.0,
			"-0.015": 0.204070633748,
			"-0.014": 1.29381261313,
			"-0.013": 1.14986641104,
			"-0.012": 1.11090900861,
			"-0.011": 1.7258503759,
			"-0.01": 2.40068844895,
			"-0.009": 1.79791521589,
			"-0.008": 3.42676364737,
			"-0.007": 6.91971356689,
			"-0.006": 11.8987414443,
			"-0.005": 11.3149993544,
			"-0.004": 14.9066513311,
			"-0.003": 18.6987203114,
			"-0.002": 25.3523825727,
			"-0.001": 25.5727892827,
			"0.0": 25.8467381688,
			"0.001": 24.8842430762,
			"0.002": 20.2218908853,
			"0.003": 14.9960119079,
			"0.004": 14.4556311321,
			"0.005": 6.37788335688,
			"0.006": 3.50372402187,
			"0.007": 3.58209472211,
			"0.008": 2.75075726683,
			"0.009": 3.39030906325,
			"0.01": 2.7451248552,
			"0.011": 3.64886945599,
			"0.012": 3.54886393257,
			"0.013": 5.7074073127,
			"0.014": 1.44526055512,
			"0.015": 0.0,
			"0.016": 0.0,
			"0.017": 0.0,
			"0.018": 0.0,
			"0.019": 0.0,
			"0.02": 0.0,
			"0.021": 0.0,
			"0.022": 0.0,
			"0.023": 0.0,
			"0.024": 0.0,
			"0.025": 0.0
		}
	}
}
