{
	 "smiles": "ClCC1=CSC(=N1)C1=CC=C(Cl)C=C1", 
	 "Tm": 351.65, 
	 "num_atms": 21, 
	 "gaussian": { 
		 "optdone": 1, 
		 "sigma_profile": "yes", 
		 "theory": "DFT", 
		 "functional": "B3LYP", 
		 "basiset": "6-31G**", 
		 "properties": { 
			 "R2extent": 5887.6434, 
			 "electric_dipole_moment_norm": 2.90634425181, 
			 "electric_quadrupole_moment_norm": 13.0878128532, 
			 "total_energy": -1758.61031276, 
			 "HOMO_LUMO_gap": 0.16452, 
			 "cosmo_polarized_energy": -9.36, 
			 "cosmo_cavitation_energy": 31.05, 
			 "cosmo_dispersion_energy": -23.46, 
			 "cosmo_repulsion_energy": 1.82, 
			 "cosmo_total_nonelectrostatic_energy": 9.41, 
			 "SMD_solvation_energy": 3.21 
		},
		"coords": [
			{
				"x": -2.2390478331,
				"y": 3.5007520882,
				"z": -3.1106434831,
				"element": "Cl" 
			},
			{
				"x": -0.7162010872,
				"y": 3.7540200784,
				"z": -2.1231131105,
				"element": "C" 
			},
			{
				"x": -0.6960878467,
				"y": 2.9215345641,
				"z": -0.8861178225,
				"element": "C" 
			},
			{
				"x": -1.0115526666,
				"y": 3.3671541141,
				"z": 0.3704132561,
				"element": "C" 
			},
			{
				"x": -0.8579044859,
				"y": 2.0844979477,
				"z": 1.5172276167,
				"element": "S" 
			},
			{
				"x": -0.3639638323,
				"y": 1.009499953,
				"z": 0.1984809919,
				"element": "C" 
			},
			{
				"x": -0.3332660191,
				"y": 1.5985044071,
				"z": -0.9664115445,
				"element": "N" 
			},
			{
				"x": -0.0235288621,
				"y": -0.4022450289,
				"z": 0.4132805793,
				"element": "C" 
			},
			{
				"x": 0.2963411005,
				"y": -1.2013595759,
				"z": -0.6986083574,
				"element": "C" 
			},
			{
				"x": 0.6242019098,
				"y": -2.5432466877,
				"z": -0.5400115434,
				"element": "C" 
			},
			{
				"x": 0.6336041119,
				"y": -3.0981646666,
				"z": 0.7411193798,
				"element": "C" 
			},
			{
				"x": 1.0463372252,
				"y": -4.7910033775,
				"z": 0.947695975,
				"element": "Cl" 
			},
			{
				"x": 0.319746455,
				"y": -2.3270979632,
				"z": 1.8603879009,
				"element": "C" 
			},
			{
				"x": -0.006333733,
				"y": -0.9844783997,
				"z": 1.6902706712,
				"element": "C" 
			},
			{
				"x": -0.6811715084,
				"y": 4.8183905878,
				"z": -1.8940011285,
				"element": "H" 
			},
			{
				"x": 0.1081195544,
				"y": 3.4858949754,
				"z": -2.7831814578,
				"element": "H" 
			},
			{
				"x": -1.3271540445,
				"y": 4.3556844906,
				"z": 0.6727284603,
				"element": "H" 
			},
			{
				"x": 0.2808270126,
				"y": -0.7520757922,
				"z": -1.6851186236,
				"element": "H" 
			},
			{
				"x": 0.8691625439,
				"y": -3.1570685171,
				"z": -1.3996112754,
				"element": "H" 
			},
			{
				"x": 0.3321446714,
				"y": -2.7719361409,
				"z": 2.8489298166,
				"element": "H" 
			},
			{
				"x": -0.2457726659,
				"y": -0.3909570568,
				"z": 2.568083699,
				"element": "H" 
			}
		],
		 "valence_orbital": [ 
			{
				"type": "occ",
				"energy": -0.29413,
				"method": "rhf"
			},
			{
				"type": "occ",
				"energy": -0.28799,
				"method": "rhf"
			},
			{
				"type": "occ",
				"energy": -0.27933,
				"method": "rhf"
			},
			{
				"type": "occ",
				"energy": -0.27339,
				"method": "rhf"
			},
			{
				"type": "occ",
				"energy": -0.23199,
				"method": "rhf"
			},
			{
				"type": "unocc",
				"energy": -0.06747,
				"method": "rhf"
			},
			{
				"type": "unocc",
				"energy": -0.02544,
				"method": "rhf"
			},
			{
				"type": "unocc",
				"energy": -0.01721,
				"method": "rhf"
			},
			{
				"type": "unocc",
				"energy": 0.00464,
				"method": "rhf"
			},
			{
				"type": "unocc",
				"energy": 0.02498,
				"method": "rhf"
			}
		],
		"cosmo_sigma_profile": { 
			"-0.025": 0.0,
			"-0.024": 0.0,
			"-0.023": 0.0,
			"-0.022": 0.0,
			"-0.021": 0.0,
			"-0.02": 0.0,
			"-0.019": 0.0,
			"-0.018": 0.0,
			"-0.017": 0.0,
			"-0.016": 0.0,
			"-0.015": 0.0,
			"-0.014": 0.0,
			"-0.013": 0.0,
			"-0.012": 0.0,
			"-0.011": 0.0,
			"-0.01": 1.34308132619,
			"-0.009": 3.40464913648,
			"-0.008": 8.66273948533,
			"-0.007": 11.2986488248,
			"-0.006": 12.2552522091,
			"-0.005": 12.3211782448,
			"-0.004": 10.8514452349,
			"-0.003": 11.3842827271,
			"-0.002": 12.5250991031,
			"-0.001": 14.4963375441,
			"0.0": 23.2363723888,
			"0.001": 30.5985391211,
			"0.002": 30.3259546185,
			"0.003": 23.142913303,
			"0.004": 16.4132516246,
			"0.005": 11.5055116656,
			"0.006": 11.5178860515,
			"0.007": 7.78734670747,
			"0.008": 0.998740618784,
			"0.009": 1.33849489841,
			"0.01": 1.24011668811,
			"0.011": 0.176262709151,
			"0.012": 0.0,
			"0.013": 0.0,
			"0.014": 0.0,
			"0.015": 0.0,
			"0.016": 0.0,
			"0.017": 0.0,
			"0.018": 0.0,
			"0.019": 0.0,
			"0.02": 0.0,
			"0.021": 0.0,
			"0.022": 0.0,
			"0.023": 0.0,
			"0.024": 0.0,
			"0.025": 0.0
		}
	}
}
