{
	 "smiles": "CCN(CC1=CC=CC=C1)S(=O)(=O)C1=C(OC)C=CC(=C1)C(O)=O", 
	 "Tm": 377.15, 
	 "num_atms": 43, 
	 "gaussian": { 
		 "optdone": 1, 
		 "sigma_profile": "yes", 
		 "theory": "DFT", 
		 "functional": "B3LYP", 
		 "basiset": "6-31G**", 
		 "properties": { 
			 "R2extent": 8409.2196, 
			 "electric_dipole_moment_norm": 6.59668797958, 
			 "electric_quadrupole_moment_norm": 27.9358733823, 
			 "total_energy": -1488.25276452, 
			 "HOMO_LUMO_gap": 0.18814, 
			 "cosmo_polarized_energy": -23.09, 
			 "cosmo_cavitation_energy": 47.37, 
			 "cosmo_dispersion_energy": -30.31, 
			 "cosmo_repulsion_energy": 2.28, 
			 "cosmo_total_nonelectrostatic_energy": 19.35, 
			 "SMD_solvation_energy": 9.06 
		},
		"coords": [
			{
				"x": 3.999678438,
				"y": 2.6512754869,
				"z": -2.9644706417,
				"element": "C" 
			},
			{
				"x": 3.000747126,
				"y": 2.5459272076,
				"z": -1.8091053595,
				"element": "C" 
			},
			{
				"x": 2.3425652796,
				"y": 1.2317406974,
				"z": -1.66083712,
				"element": "N" 
			},
			{
				"x": 3.1964852287,
				"y": 0.0769004997,
				"z": -1.299875234,
				"element": "C" 
			},
			{
				"x": 2.5590237916,
				"y": -0.8692689631,
				"z": -0.3001677703,
				"element": "C" 
			},
			{
				"x": 2.2641810006,
				"y": -2.1890423959,
				"z": -0.6569391634,
				"element": "C" 
			},
			{
				"x": 1.7001134605,
				"y": -3.0678433952,
				"z": 0.2713695919,
				"element": "C" 
			},
			{
				"x": 1.4254317166,
				"y": -2.6331917015,
				"z": 1.5678842898,
				"element": "C" 
			},
			{
				"x": 1.7147258967,
				"y": -1.3150288867,
				"z": 1.9330292866,
				"element": "C" 
			},
			{
				"x": 2.2772642814,
				"y": -0.4411452514,
				"z": 1.0046235421,
				"element": "C" 
			},
			{
				"x": 1.0393730742,
				"y": 0.9048475301,
				"z": -2.6842528517,
				"element": "S" 
			},
			{
				"x": 1.2759929816,
				"y": -0.3838046376,
				"z": -3.3482974699,
				"element": "O" 
			},
			{
				"x": 0.7734797215,
				"y": 2.1109494687,
				"z": -3.4736867458,
				"element": "O" 
			},
			{
				"x": -0.356776926,
				"y": 0.6461238484,
				"z": -1.5757549005,
				"element": "C" 
			},
			{
				"x": -0.8169672923,
				"y": 1.671378564,
				"z": -0.7177105897,
				"element": "C" 
			},
			{
				"x": -0.1156190053,
				"y": 2.825488313,
				"z": -0.7075769194,
				"element": "O" 
			},
			{
				"x": -0.5758342016,
				"y": 3.906860237,
				"z": 0.0958745633,
				"element": "C" 
			},
			{
				"x": -1.9517341959,
				"y": 1.4357213513,
				"z": 0.0717119499,
				"element": "C" 
			},
			{
				"x": -2.6070117109,
				"y": 0.208958713,
				"z": 0.0091950778,
				"element": "C" 
			},
			{
				"x": -2.1470558987,
				"y": -0.8055038648,
				"z": -0.8369017517,
				"element": "C" 
			},
			{
				"x": -1.0161021072,
				"y": -0.5724971037,
				"z": -1.6314995733,
				"element": "C" 
			},
			{
				"x": -2.8070124127,
				"y": -2.1291854094,
				"z": -0.9296793975,
				"element": "C" 
			},
			{
				"x": -3.8947735803,
				"y": -2.2359302428,
				"z": -0.1213019032,
				"element": "O" 
			},
			{
				"x": -2.4417286843,
				"y": -3.0439872919,
				"z": -1.6409736275,
				"element": "O" 
			},
			{
				"x": 4.7971601188,
				"y": 1.9052541524,
				"z": -2.8833454961,
				"element": "H" 
			},
			{
				"x": 4.4693111591,
				"y": 3.6412150847,
				"z": -2.9621857457,
				"element": "H" 
			},
			{
				"x": 3.4920269515,
				"y": 2.5163861787,
				"z": -3.9227820601,
				"element": "H" 
			},
			{
				"x": 2.2135992093,
				"y": 3.2913479156,
				"z": -1.9222610531,
				"element": "H" 
			},
			{
				"x": 3.4987951289,
				"y": 2.7421262221,
				"z": -0.8520370552,
				"element": "H" 
			},
			{
				"x": 4.095963967,
				"y": 0.5156308349,
				"z": -0.8557657811,
				"element": "H" 
			},
			{
				"x": 3.5086866337,
				"y": -0.4783217625,
				"z": -2.1899843575,
				"element": "H" 
			},
			{
				"x": 2.4620169392,
				"y": -2.521935956,
				"z": -1.6716720208,
				"element": "H" 
			},
			{
				"x": 1.4703345602,
				"y": -4.0878538614,
				"z": -0.0225802285,
				"element": "H" 
			},
			{
				"x": 0.987168568,
				"y": -3.3152253721,
				"z": 2.2910092072,
				"element": "H" 
			},
			{
				"x": 1.5045855595,
				"y": -0.9714833095,
				"z": 2.9422588582,
				"element": "H" 
			},
			{
				"x": 2.497324231,
				"y": 0.585013183,
				"z": 1.2889903447,
				"element": "H" 
			},
			{
				"x": 0.1213866395,
				"y": 4.7253458807,
				"z": -0.083782919,
				"element": "H" 
			},
			{
				"x": -1.5849492094,
				"y": 4.2186768516,
				"z": -0.1965655999,
				"element": "H" 
			},
			{
				"x": -0.5661195368,
				"y": 3.6470230978,
				"z": 1.1610239577,
				"element": "H" 
			},
			{
				"x": -2.325097402,
				"y": 2.2045500413,
				"z": 0.7365769295,
				"element": "H" 
			},
			{
				"x": -3.4824873442,
				"y": 0.0364784869,
				"z": 0.6248347126,
				"element": "H" 
			},
			{
				"x": -0.6534888478,
				"y": -1.3505406205,
				"z": -2.2925546294,
				"element": "H" 
			},
			{
				"x": -4.2401633074,
				"y": -3.1317298208,
				"z": -0.2669343455,
				"element": "H" 
			}
		],
		 "valence_orbital": [ 
			{
				"type": "occ",
				"energy": -0.27443,
				"method": "rhf"
			},
			{
				"type": "occ",
				"energy": -0.25299,
				"method": "rhf"
			},
			{
				"type": "occ",
				"energy": -0.24663,
				"method": "rhf"
			},
			{
				"type": "occ",
				"energy": -0.24143,
				"method": "rhf"
			},
			{
				"type": "occ",
				"energy": -0.23703,
				"method": "rhf"
			},
			{
				"type": "unocc",
				"energy": -0.04889,
				"method": "rhf"
			},
			{
				"type": "unocc",
				"energy": -0.02946,
				"method": "rhf"
			},
			{
				"type": "unocc",
				"energy": -0.00528,
				"method": "rhf"
			},
			{
				"type": "unocc",
				"energy": 0.00254,
				"method": "rhf"
			},
			{
				"type": "unocc",
				"energy": 0.04623,
				"method": "rhf"
			}
		],
		"cosmo_sigma_profile": { 
			"-0.025": 0.0,
			"-0.024": 0.0,
			"-0.023": 0.0,
			"-0.022": 0.0,
			"-0.021": 0.0,
			"-0.02": 0.0,
			"-0.019": 0.0889485198734,
			"-0.018": 0.787443931471,
			"-0.017": 0.902241843014,
			"-0.016": 0.862982626175,
			"-0.015": 0.726589242107,
			"-0.014": 0.566747711855,
			"-0.013": 0.235943744081,
			"-0.012": 0.857075308166,
			"-0.011": 1.1681264686,
			"-0.01": 0.967751583571,
			"-0.009": 0.44956205457,
			"-0.008": 3.38736267154,
			"-0.007": 10.8273671196,
			"-0.006": 19.9344727219,
			"-0.005": 26.6950527303,
			"-0.004": 31.7180247496,
			"-0.003": 32.844700113,
			"-0.002": 28.204701655,
			"-0.001": 27.4290487968,
			"0.0": 30.5065880596,
			"0.001": 26.7194886488,
			"0.002": 23.7468355957,
			"0.003": 19.9510939635,
			"0.004": 16.5300295694,
			"0.005": 15.3110096864,
			"0.006": 9.76472379396,
			"0.007": 6.98279679976,
			"0.008": 4.92388643077,
			"0.009": 6.59103905172,
			"0.01": 7.16637293073,
			"0.011": 11.7241724736,
			"0.012": 7.0937942135,
			"0.013": 0.0859156234159,
			"0.014": 0.0,
			"0.015": 0.0,
			"0.016": 0.0,
			"0.017": 0.0,
			"0.018": 0.0,
			"0.019": 0.0,
			"0.02": 0.0,
			"0.021": 0.0,
			"0.022": 0.0,
			"0.023": 0.0,
			"0.024": 0.0,
			"0.0": 0.0
		}
	}
}
