{
	 "smiles": "BrC1=C(N=C(S1)C1=CC=CC=C1)C1=CC=CC=C1", 
	 "Tm": 361.65, 
	 "num_atms": 28, 
	 "gaussian": { 
		 "optdone": 1, 
		 "sigma_profile": "yes", 
		 "theory": "DFT", 
		 "functional": "B3LYP", 
		 "basiset": "6-31G**", 
		 "properties": { 
			 "R2extent": 7523.3474, 
			 "electric_dipole_moment_norm": 1.31322460379, 
			 "electric_quadrupole_moment_norm": 13.2772171798, 
			 "total_energy": -3601.96379416, 
			 "HOMO_LUMO_gap": 0.15309, 
			 "cosmo_polarized_energy": -6.7, 
			 "cosmo_cavitation_energy": 36.2, 
			 "cosmo_dispersion_energy": -27.22, 
			 "cosmo_repulsion_energy": 2.03, 
			 "cosmo_total_nonelectrostatic_energy": 11.01, 
			 "SMD_solvation_energy": 3.65 
		},
		"coords": [
			{
				"x": -1.2865564484,
				"y": -2.8222130595,
				"z": 1.4046530419,
				"element": "Br" 
			},
			{
				"x": -0.6032594878,
				"y": -1.2498485856,
				"z": 0.6177431348,
				"element": "C" 
			},
			{
				"x": -0.2648429678,
				"y": -0.9842958485,
				"z": -0.6926769281,
				"element": "C" 
			},
			{
				"x": 0.295746739,
				"y": 0.2671543912,
				"z": -0.8589969087,
				"element": "N" 
			},
			{
				"x": 0.3851096468,
				"y": 0.9552072208,
				"z": 0.2458128551,
				"element": "C" 
			},
			{
				"x": -0.2340144372,
				"y": 0.0963766622,
				"z": 1.6569120481,
				"element": "S" 
			},
			{
				"x": 0.9275832617,
				"y": 2.3179082353,
				"z": 0.3248634757,
				"element": "C" 
			},
			{
				"x": 1.092973028,
				"y": 2.9828654948,
				"z": 1.550402173,
				"element": "C" 
			},
			{
				"x": 1.611280528,
				"y": 4.2753489304,
				"z": 1.5888450433,
				"element": "C" 
			},
			{
				"x": 1.9740458815,
				"y": 4.9215244286,
				"z": 0.405320524,
				"element": "C" 
			},
			{
				"x": 1.8141380716,
				"y": 4.2658328772,
				"z": -0.8186048646,
				"element": "C" 
			},
			{
				"x": 1.2948437365,
				"y": 2.9754726905,
				"z": -0.8627036489,
				"element": "C" 
			},
			{
				"x": -0.3958736794,
				"y": -1.8481628471,
				"z": -1.8854460898,
				"element": "C" 
			},
			{
				"x": 0.5235080936,
				"y": -1.685883735,
				"z": -2.9369230205,
				"element": "C" 
			},
			{
				"x": 0.4373427206,
				"y": -2.4714528061,
				"z": -4.0834310299,
				"element": "C" 
			},
			{
				"x": -0.574028142,
				"y": -3.4268038009,
				"z": -4.2074673989,
				"element": "C" 
			},
			{
				"x": -1.5017678227,
				"y": -3.5838107291,
				"z": -3.1768694998,
				"element": "C" 
			},
			{
				"x": -1.417078127,
				"y": -2.8018110109,
				"z": -2.025409707,
				"element": "C" 
			},
			{
				"x": 0.8221332359,
				"y": 2.4905055427,
				"z": 2.4806991067,
				"element": "H" 
			},
			{
				"x": 1.7340245274,
				"y": 4.7767128804,
				"z": 2.5442371319,
				"element": "H" 
			},
			{
				"x": 2.3783982868,
				"y": 5.9289712803,
				"z": 0.436493805,
				"element": "H" 
			},
			{
				"x": 2.0931814768,
				"y": 4.7636224163,
				"z": -1.7427430506,
				"element": "H" 
			},
			{
				"x": 1.1620141334,
				"y": 2.4577161185,
				"z": -1.8060084951,
				"element": "H" 
			},
			{
				"x": 1.3006795592,
				"y": -0.9359294019,
				"z": -2.8405582424,
				"element": "H" 
			},
			{
				"x": 1.1607510595,
				"y": -2.3365635713,
				"z": -4.8825604675,
				"element": "H" 
			},
			{
				"x": -0.642141681,
				"y": -4.038663367,
				"z": -5.1023875883,
				"element": "H" 
			},
			{
				"x": -2.3018826283,
				"y": -4.3125459563,
				"z": -3.2702414684,
				"element": "H" 
			},
			{
				"x": -2.1574085648,
				"y": -2.9225344502,
				"z": -1.2439539311,
				"element": "H" 
			}
		],
		 "valence_orbital": [ 
			{
				"type": "occ",
				"energy": -0.27513,
				"method": "rhf"
			},
			{
				"type": "occ",
				"energy": -0.26082,
				"method": "rhf"
			},
			{
				"type": "occ",
				"energy": -0.25026,
				"method": "rhf"
			},
			{
				"type": "occ",
				"energy": -0.24838,
				"method": "rhf"
			},
			{
				"type": "occ",
				"energy": -0.21445,
				"method": "rhf"
			},
			{
				"type": "unocc",
				"energy": -0.06136,
				"method": "rhf"
			},
			{
				"type": "unocc",
				"energy": -0.0265,
				"method": "rhf"
			},
			{
				"type": "unocc",
				"energy": -0.00958,
				"method": "rhf"
			},
			{
				"type": "unocc",
				"energy": -0.00755,
				"method": "rhf"
			},
			{
				"type": "unocc",
				"energy": 0.00086,
				"method": "rhf"
			}
		],
		"cosmo_sigma_profile": { 
			"-0.025": 0.0,
			"-0.024": 0.0,
			"-0.023": 0.0,
			"-0.022": 0.0,
			"-0.021": 0.0,
			"-0.02": 0.0,
			"-0.019": 0.0,
			"-0.018": 0.0,
			"-0.017": 0.0,
			"-0.016": 0.0,
			"-0.015": 0.0,
			"-0.014": 0.0,
			"-0.013": 0.0,
			"-0.012": 0.0,
			"-0.011": 0.0,
			"-0.01": 0.0,
			"-0.009": 0.0,
			"-0.008": 0.276586198592,
			"-0.007": 2.59109655982,
			"-0.006": 14.157694127,
			"-0.005": 21.0833648129,
			"-0.004": 22.7635237601,
			"-0.003": 19.7908520179,
			"-0.002": 19.2089762871,
			"-0.001": 24.5309969721,
			"0.0": 30.8543552896,
			"0.001": 31.3936509641,
			"0.002": 30.4806101798,
			"0.003": 29.8695010553,
			"0.004": 25.5011695758,
			"0.005": 17.8715050449,
			"0.006": 3.98442285191,
			"0.007": 1.04738889553,
			"0.008": 1.25143995164,
			"0.009": 0.882068141829,
			"0.01": 0.128487902079,
			"0.011": 0.0,
			"0.012": 0.0,
			"0.013": 0.0,
			"0.014": 0.0,
			"0.015": 0.0,
			"0.016": 0.0,
			"0.017": 0.0,
			"0.018": 0.0,
			"0.019": 0.0,
			"0.02": 0.0,
			"0.021": 0.0,
			"0.022": 0.0,
			"0.023": 0.0,
			"0.024": 0.0,
			"0.025": 0.0
		}
	}
}
