{
	 "smiles": "CC1=CC(C)=C(N=C1)C(O)=O", 
	 "Tm": 424.15, 
	 "num_atms": 20, 
	 "gaussian": { 
		 "optdone": 1, 
		 "sigma_profile": "yes", 
		 "theory": "DFT", 
		 "functional": "B3LYP", 
		 "basiset": "6-31G**", 
		 "properties": { 
			 "R2extent": 2977.8158, 
			 "electric_dipole_moment_norm": 5.97910450569, 
			 "electric_quadrupole_moment_norm": 22.3281587499, 
			 "total_energy": -515.503472235, 
			 "HOMO_LUMO_gap": 0.19775, 
			 "cosmo_polarized_energy": -10.85, 
			 "cosmo_cavitation_energy": 23.77, 
			 "cosmo_dispersion_energy": -17.73, 
			 "cosmo_repulsion_energy": 1.42, 
			 "cosmo_total_nonelectrostatic_energy": 7.46, 
			 "SMD_solvation_energy": 4.75 
		},
		"coords": [
			{
				"x": -1.0956838649,
				"y": 0.3863202285,
				"z": 2.2278659326,
				"element": "C" 
			},
			{
				"x": -1.2635509865,
				"y": 0.2260449435,
				"z": 0.7387772858,
				"element": "C" 
			},
			{
				"x": -0.2505923533,
				"y": -0.3057462286,
				"z": -0.0647932538,
				"element": "C" 
			},
			{
				"x": -0.4051748946,
				"y": -0.4541967794,
				"z": -1.4477783996,
				"element": "C" 
			},
			{
				"x": 0.7093615124,
				"y": -1.0315479754,
				"z": -2.2819791478,
				"element": "C" 
			},
			{
				"x": -1.6418072981,
				"y": -0.035473689,
				"z": -1.9777871082,
				"element": "C" 
			},
			{
				"x": -2.6257989169,
				"y": 0.4771105319,
				"z": -1.221335132,
				"element": "N" 
			},
			{
				"x": -2.4458368849,
				"y": 0.6047100297,
				"z": 0.0922059898,
				"element": "C" 
			},
			{
				"x": -1.9886732292,
				"y": -0.1189548723,
				"z": -3.4462421017,
				"element": "C" 
			},
			{
				"x": -3.2192644099,
				"y": 0.3355484028,
				"z": -3.7262340522,
				"element": "O" 
			},
			{
				"x": -1.2418890389,
				"y": -0.5503984426,
				"z": -4.2989436443,
				"element": "O" 
			},
			{
				"x": -1.9922201639,
				"y": 0.8121475023,
				"z": 2.6859891033,
				"element": "H" 
			},
			{
				"x": -0.2526962347,
				"y": 1.0457283956,
				"z": 2.4624145243,
				"element": "H" 
			},
			{
				"x": -0.8965097926,
				"y": -0.5770928449,
				"z": 2.7100203549,
				"element": "H" 
			},
			{
				"x": 0.6868172648,
				"y": -0.6147488759,
				"z": 0.3931623131,
				"element": "H" 
			},
			{
				"x": 1.5656736869,
				"y": -1.2814127189,
				"z": -1.6490838452,
				"element": "H" 
			},
			{
				"x": 0.3825063511,
				"y": -1.9290110828,
				"z": -2.8130992598,
				"element": "H" 
			},
			{
				"x": 1.0289717323,
				"y": -0.3294922107,
				"z": -3.0561665405,
				"element": "H" 
			},
			{
				"x": -3.2747959093,
				"y": 1.0255028593,
				"z": 0.6582773053,
				"element": "H" 
			},
			{
				"x": -3.5966365697,
				"y": 0.6192628269,
				"z": -2.8641703238,
				"element": "H" 
			}
		],
		 "valence_orbital": [ 
			{
				"type": "occ",
				"energy": -0.30188,
				"method": "rhf"
			},
			{
				"type": "occ",
				"energy": -0.2947,
				"method": "rhf"
			},
			{
				"type": "occ",
				"energy": -0.29418,
				"method": "rhf"
			},
			{
				"type": "occ",
				"energy": -0.26674,
				"method": "rhf"
			},
			{
				"type": "occ",
				"energy": -0.25832,
				"method": "rhf"
			},
			{
				"type": "unocc",
				"energy": -0.06057,
				"method": "rhf"
			},
			{
				"type": "unocc",
				"energy": -0.03306,
				"method": "rhf"
			},
			{
				"type": "unocc",
				"energy": 0.05162,
				"method": "rhf"
			},
			{
				"type": "unocc",
				"energy": 0.08745,
				"method": "rhf"
			},
			{
				"type": "unocc",
				"energy": 0.10766,
				"method": "rhf"
			}
		],
		"cosmo_sigma_profile": { 
			"-0.025": 0.0,
			"-0.024": 0.0,
			"-0.023": 0.0,
			"-0.022": 0.0,
			"-0.021": 0.0,
			"-0.02": 0.0,
			"-0.019": 0.0,
			"-0.018": 0.0,
			"-0.017": 0.0,
			"-0.016": 0.0,
			"-0.015": 0.0,
			"-0.014": 0.0,
			"-0.013": 0.0,
			"-0.012": 0.0850062207184,
			"-0.011": 0.243304229076,
			"-0.01": 0.714901625545,
			"-0.009": 0.948581506973,
			"-0.008": 0.519427330745,
			"-0.007": 4.30481037659,
			"-0.006": 7.14036609708,
			"-0.005": 12.3652422501,
			"-0.004": 17.5853470005,
			"-0.003": 18.3770145506,
			"-0.002": 19.8721364203,
			"-0.001": 23.2740864273,
			"0.0": 21.8650189413,
			"0.001": 14.677334727,
			"0.002": 6.46681099065,
			"0.003": 4.66465975603,
			"0.004": 3.62087136754,
			"0.005": 5.06977525353,
			"0.006": 3.00158755758,
			"0.007": 2.41197511728,
			"0.008": 2.48874326189,
			"0.009": 3.35372839144,
			"0.01": 4.5824844046,
			"0.011": 4.6376309531,
			"0.012": 4.03988299422,
			"0.013": 2.18985153789,
			"0.014": 0.441127421477,
			"0.015": 0.0,
			"0.016": 0.0,
			"0.017": 0.0,
			"0.018": 0.0,
			"0.019": 0.0,
			"0.02": 0.0,
			"0.021": 0.0,
			"0.022": 0.0,
			"0.023": 0.0,
			"0.024": 0.0,
			"0.025": 0.0
		}
	}
}
