{
	 "smiles": "ClC(=O)C1=CSC(CC2=C(Cl)C=CC=C2Cl)=N1", 
	 "Tm": 377.15, 
	 "num_atms": 23, 
	 "gaussian": { 
		 "optdone": 1, 
		 "sigma_profile": "yes", 
		 "theory": "DFT", 
		 "functional": "B3LYP", 
		 "basiset": "6-31G**", 
		 "properties": { 
			 "R2extent": 7425.5354, 
			 "electric_dipole_moment_norm": 6.51343908239, 
			 "electric_quadrupole_moment_norm": 6.6990249283, 
			 "total_energy": -2331.52194594, 
			 "HOMO_LUMO_gap": 0.19013, 
			 "cosmo_polarized_energy": -11.24, 
			 "cosmo_cavitation_energy": 35.4, 
			 "cosmo_dispersion_energy": -25.5, 
			 "cosmo_repulsion_energy": 1.95, 
			 "cosmo_total_nonelectrostatic_energy": 11.85, 
			 "SMD_solvation_energy": 4.31 
		},
		"coords": [
			{
				"x": -4.5836186513,
				"y": -3.1057689449,
				"z": -0.4636740241,
				"element": "Cl" 
			},
			{
				"x": -3.2883346039,
				"y": -2.1018475724,
				"z": -1.2976018453,
				"element": "C" 
			},
			{
				"x": -3.0916159549,
				"y": -2.2416927195,
				"z": -2.4623365402,
				"element": "O" 
			},
			{
				"x": -2.5915429784,
				"y": -1.1757851672,
				"z": -0.3856785895,
				"element": "C" 
			},
			{
				"x": -2.8204035731,
				"y": -1.0203185327,
				"z": 0.9600144024,
				"element": "C" 
			},
			{
				"x": -1.7599740443,
				"y": 0.1688575716,
				"z": 1.6033219398,
				"element": "S" 
			},
			{
				"x": -1.0670451317,
				"y": 0.3810032943,
				"z": -0.0163856917,
				"element": "C" 
			},
			{
				"x": 0.0043877406,
				"y": 1.4035697966,
				"z": -0.3100478397,
				"element": "C" 
			},
			{
				"x": 0.9704333529,
				"y": 1.6656344494,
				"z": 0.824774128,
				"element": "C" 
			},
			{
				"x": 0.8792434633,
				"y": 2.7997042885,
				"z": 1.6524808998,
				"element": "C" 
			},
			{
				"x": -0.4124618378,
				"y": 3.9735711043,
				"z": 1.4117923093,
				"element": "Cl" 
			},
			{
				"x": 1.7822699258,
				"y": 3.0519649121,
				"z": 2.6850014648,
				"element": "C" 
			},
			{
				"x": 2.8189118644,
				"y": 2.152776963,
				"z": 2.9182630674,
				"element": "C" 
			},
			{
				"x": 2.9504270557,
				"y": 1.0131306825,
				"z": 2.1281268325,
				"element": "C" 
			},
			{
				"x": 2.0340676588,
				"y": 0.7859142736,
				"z": 1.1037441925,
				"element": "C" 
			},
			{
				"x": 2.2375564873,
				"y": -0.6642206293,
				"z": 0.1333860958,
				"element": "Cl" 
			},
			{
				"x": -1.5983021408,
				"y": -0.3794682855,
				"z": -0.9197016709,
				"element": "N" 
			},
			{
				"x": -3.5348681458,
				"y": -1.5427925214,
				"z": 1.5777025359,
				"element": "H" 
			},
			{
				"x": 0.5408394935,
				"y": 1.0409912379,
				"z": -1.1903480779,
				"element": "H" 
			},
			{
				"x": -0.4842505417,
				"y": 2.340226958,
				"z": -0.5932412681,
				"element": "H" 
			},
			{
				"x": 1.666895925,
				"y": 3.9423292952,
				"z": 3.2918196941,
				"element": "H" 
			},
			{
				"x": 3.5272807097,
				"y": 2.3404578097,
				"z": 3.7188849774,
				"element": "H" 
			},
			{
				"x": 3.7521039265,
				"y": 0.3037617363,
				"z": 2.2972030075,
				"element": "H" 
			}
		],
		 "valence_orbital": [ 
			{
				"type": "occ",
				"energy": -0.29876,
				"method": "rhf"
			},
			{
				"type": "occ",
				"energy": -0.29208,
				"method": "rhf"
			},
			{
				"type": "occ",
				"energy": -0.27766,
				"method": "rhf"
			},
			{
				"type": "occ",
				"energy": -0.2683,
				"method": "rhf"
			},
			{
				"type": "occ",
				"energy": -0.26541,
				"method": "rhf"
			},
			{
				"type": "unocc",
				"energy": -0.07528,
				"method": "rhf"
			},
			{
				"type": "unocc",
				"energy": -0.04476,
				"method": "rhf"
			},
			{
				"type": "unocc",
				"energy": -0.04058,
				"method": "rhf"
			},
			{
				"type": "unocc",
				"energy": -0.029,
				"method": "rhf"
			},
			{
				"type": "unocc",
				"energy": -0.00696,
				"method": "rhf"
			}
		],
		"cosmo_sigma_profile": { 
			"-0.025": 0.0,
			"-0.024": 0.0,
			"-0.023": 0.0,
			"-0.022": 0.0,
			"-0.021": 0.0,
			"-0.02": 0.0,
			"-0.019": 0.0,
			"-0.018": 0.0,
			"-0.017": 0.0,
			"-0.016": 0.0,
			"-0.015": 0.0,
			"-0.014": 0.0,
			"-0.013": 0.0,
			"-0.012": 0.0365169224775,
			"-0.011": 1.02337515904,
			"-0.01": 1.73636572524,
			"-0.009": 1.43489538476,
			"-0.008": 4.88721975271,
			"-0.007": 9.18719149853,
			"-0.006": 11.5634698997,
			"-0.005": 13.4360614778,
			"-0.004": 14.5361052075,
			"-0.003": 17.8075757302,
			"-0.002": 22.0684558525,
			"-0.001": 32.1518156545,
			"0.0": 31.6573997055,
			"0.001": 32.1491210868,
			"0.002": 26.6081324811,
			"0.003": 22.7192696575,
			"0.004": 20.5521251445,
			"0.005": 8.1646494905,
			"0.006": 3.31759352814,
			"0.007": 3.68885232692,
			"0.008": 6.22187801086,
			"0.009": 4.31273938508,
			"0.01": 1.13805533717,
			"0.011": 1.73803114761,
			"0.012": 1.16007995496,
			"0.013": 0.813435562507,
			"0.014": 0.246781125064,
			"0.015": 0.0,
			"0.016": 0.0,
			"0.017": 0.0,
			"0.018": 0.0,
			"0.019": 0.0,
			"0.02": 0.0,
			"0.021": 0.0,
			"0.022": 0.0,
			"0.023": 0.0,
			"0.024": 0.0,
			"0.025": 0.0
		}
	}
}
