{
	 "smiles": "ClC1=CC=C(C=C1)C1(CCCCC1)C#N", 
	 "Tm": 363.15, 
	 "num_atms": 29, 
	 "gaussian": { 
		 "optdone": 1, 
		 "sigma_profile": "yes", 
		 "theory": "DFT", 
		 "functional": "B3LYP", 
		 "basiset": "6-31G**", 
		 "properties": { 
			 "R2extent": 7095.5447, 
			 "electric_dipole_moment_norm": 3.82898252151, 
			 "electric_quadrupole_moment_norm": 9.23171766033, 
			 "total_energy": -1018.75478808, 
			 "HOMO_LUMO_gap": 0.22413, 
			 "cosmo_polarized_energy": -9.22, 
			 "cosmo_cavitation_energy": 32.39, 
			 "cosmo_dispersion_energy": -23.24, 
			 "cosmo_repulsion_energy": 1.82, 
			 "cosmo_total_nonelectrostatic_energy": 10.97, 
			 "SMD_solvation_energy": 5.48 
		},
		"coords": [
			{
				"x": 2.6491748653,
				"y": -2.3102363729,
				"z": -6.372895791,
				"element": "Cl" 
			},
			{
				"x": 1.9038606906,
				"y": -1.742825614,
				"z": -4.8862670044,
				"element": "C" 
			},
			{
				"x": 2.309721842,
				"y": -0.5290177693,
				"z": -4.333255544,
				"element": "C" 
			},
			{
				"x": 1.7120482748,
				"y": -0.0845078433,
				"z": -3.1554643361,
				"element": "C" 
			},
			{
				"x": 0.71088962,
				"y": -0.8315669551,
				"z": -2.5172901021,
				"element": "C" 
			},
			{
				"x": 0.3265584728,
				"y": -2.0477343293,
				"z": -3.0948587545,
				"element": "C" 
			},
			{
				"x": 0.9140371043,
				"y": -2.5072787279,
				"z": -4.274560516,
				"element": "C" 
			},
			{
				"x": 0.1141998339,
				"y": -0.3369589793,
				"z": -1.1879673126,
				"element": "C" 
			},
			{
				"x": -0.2172515948,
				"y": 1.2097868145,
				"z": -1.1966814292,
				"element": "C" 
			},
			{
				"x": 0.7749561292,
				"y": 2.039976148,
				"z": -0.3713992397,
				"element": "C" 
			},
			{
				"x": 0.7950419021,
				"y": 1.6083088624,
				"z": 1.1088532477,
				"element": "C" 
			},
			{
				"x": 0.7240892397,
				"y": 0.0663650679,
				"z": 1.2733684801,
				"element": "C" 
			},
			{
				"x": 1.1079126618,
				"y": -0.6636637213,
				"z": -0.0183144665,
				"element": "C" 
			},
			{
				"x": -1.1450435163,
				"y": -1.0548032653,
				"z": -0.9095046388,
				"element": "C" 
			},
			{
				"x": -2.1346081521,
				"y": -1.608471609,
				"z": -0.6575962553,
				"element": "N" 
			},
			{
				"x": 3.0802492959,
				"y": 0.0602146544,
				"z": -4.8179954742,
				"element": "H" 
			},
			{
				"x": 2.0389982833,
				"y": 0.8621055517,
				"z": -2.7373547198,
				"element": "H" 
			},
			{
				"x": -0.45006292,
				"y": -2.6463287277,
				"z": -2.6295931949,
				"element": "H" 
			},
			{
				"x": 0.6019403396,
				"y": -3.4482854809,
				"z": -4.7137500601,
				"element": "H" 
			},
			{
				"x": -1.2199929131,
				"y": 1.3567402434,
				"z": -0.7825929251,
				"element": "H" 
			},
			{
				"x": -0.2581698832,
				"y": 1.5585696393,
				"z": -2.2321509026,
				"element": "H" 
			},
			{
				"x": 1.7823183838,
				"y": 1.9523785096,
				"z": -0.7961075507,
				"element": "H" 
			},
			{
				"x": 0.5081135706,
				"y": 3.0996463784,
				"z": -0.450291686,
				"element": "H" 
			},
			{
				"x": 1.7018989581,
				"y": 2.0005295408,
				"z": 1.5823382323,
				"element": "H" 
			},
			{
				"x": -0.0487495465,
				"y": 2.0699777713,
				"z": 1.6341461178,
				"element": "H" 
			},
			{
				"x": 1.3789525381,
				"y": -0.2628430541,
				"z": 2.0866815809,
				"element": "H" 
			},
			{
				"x": -0.2896866125,
				"y": -0.2387571792,
				"z": 1.5580314862,
				"element": "H" 
			},
			{
				"x": 1.1344339894,
				"y": -1.7473510226,
				"z": 0.130508718,
				"element": "H" 
			},
			{
				"x": 2.1117691433,
				"y": -0.3679685304,
				"z": -0.3413359593,
				"element": "H" 
			}
		],
		 "valence_orbital": [ 
			{
				"type": "occ",
				"energy": -0.31753,
				"method": "rhf"
			},
			{
				"type": "occ",
				"energy": -0.31425,
				"method": "rhf"
			},
			{
				"type": "occ",
				"energy": -0.31057,
				"method": "rhf"
			},
			{
				"type": "occ",
				"energy": -0.27023,
				"method": "rhf"
			},
			{
				"type": "occ",
				"energy": -0.24886,
				"method": "rhf"
			},
			{
				"type": "unocc",
				"energy": -0.02473,
				"method": "rhf"
			},
			{
				"type": "unocc",
				"energy": -0.0202,
				"method": "rhf"
			},
			{
				"type": "unocc",
				"energy": 0.02397,
				"method": "rhf"
			},
			{
				"type": "unocc",
				"energy": 0.03424,
				"method": "rhf"
			},
			{
				"type": "unocc",
				"energy": 0.03988,
				"method": "rhf"
			}
		],
		"cosmo_sigma_profile": { 
			"-0.025": 0.0,
			"-0.024": 0.0,
			"-0.023": 0.0,
			"-0.022": 0.0,
			"-0.021": 0.0,
			"-0.02": 0.0,
			"-0.019": 0.0,
			"-0.018": 0.0,
			"-0.017": 0.0,
			"-0.016": 0.0,
			"-0.015": 0.0,
			"-0.014": 0.0,
			"-0.013": 0.0,
			"-0.012": 0.0,
			"-0.011": 0.0,
			"-0.01": 0.0,
			"-0.009": 0.0,
			"-0.008": 0.443953082504,
			"-0.007": 5.16960941675,
			"-0.006": 8.21787658334,
			"-0.005": 11.5772383285,
			"-0.004": 19.2829813995,
			"-0.003": 27.0130124696,
			"-0.002": 35.5962648775,
			"-0.001": 31.3113432014,
			"0.0": 22.9738286525,
			"0.001": 19.2599419414,
			"0.002": 16.1893976752,
			"0.003": 17.8366668506,
			"0.004": 14.2126421578,
			"0.005": 8.92059409456,
			"0.006": 2.17972019678,
			"0.007": 1.88019257855,
			"0.008": 2.36097897036,
			"0.009": 3.09977968985,
			"0.01": 2.94812342201,
			"0.011": 3.03631381629,
			"0.012": 2.50192872448,
			"0.013": 2.1282799343,
			"0.014": 0.347258213148,
			"0.015": 0.0,
			"0.016": 0.0,
			"0.017": 0.0,
			"0.018": 0.0,
			"0.019": 0.0,
			"0.02": 0.0,
			"0.021": 0.0,
			"0.022": 0.0,
			"0.023": 0.0,
			"0.024": 0.0,
			"0.025": 0.0
		}
	}
}
