{
	 "smiles": "CN1C(S)=NC=C1C1=CC=CC=C1", 
	 "Tm": 454.15, 
	 "num_atms": 23, 
	 "gaussian": { 
		 "optdone": 1, 
		 "sigma_profile": "yes", 
		 "theory": "DFT", 
		 "functional": "B3LYP", 
		 "basiset": "6-31G**", 
		 "properties": { 
			 "R2extent": 3536.5313, 
			 "electric_dipole_moment_norm": 4.32514597904, 
			 "electric_quadrupole_moment_norm": 14.0855738463, 
			 "total_energy": -894.773956516, 
			 "HOMO_LUMO_gap": 0.18589, 
			 "cosmo_polarized_energy": -12.28, 
			 "cosmo_cavitation_energy": 28.29, 
			 "cosmo_dispersion_energy": -21.1, 
			 "cosmo_repulsion_energy": 1.61, 
			 "cosmo_total_nonelectrostatic_energy": 8.8, 
			 "SMD_solvation_energy": 2.55 
		},
		"coords": [
			{
				"x": -0.8844715608,
				"y": 0.7495675419,
				"z": -0.3726153036,
				"element": "C" 
			},
			{
				"x": -0.4232964948,
				"y": -0.0011852823,
				"z": 0.7869666706,
				"element": "N" 
			},
			{
				"x": -1.1424762354,
				"y": -0.253079568,
				"z": 1.9389756952,
				"element": "C" 
			},
			{
				"x": -2.7946716853,
				"y": 0.3283028351,
				"z": 2.2088273505,
				"element": "S" 
			},
			{
				"x": -0.4886043458,
				"y": -1.0439984156,
				"z": 2.7681174845,
				"element": "N" 
			},
			{
				"x": 0.6951463427,
				"y": -1.318480705,
				"z": 2.1450975977,
				"element": "C" 
			},
			{
				"x": 0.7788761321,
				"y": -0.6855811285,
				"z": 0.9180296292,
				"element": "C" 
			},
			{
				"x": 1.8694461622,
				"y": -0.6944288806,
				"z": -0.0658215168,
				"element": "C" 
			},
			{
				"x": 2.5445843827,
				"y": -1.9009836675,
				"z": -0.3271350562,
				"element": "C" 
			},
			{
				"x": 3.6166211215,
				"y": -1.9410968783,
				"z": -1.2162069707,
				"element": "C" 
			},
			{
				"x": 4.0299519896,
				"y": -0.7803513513,
				"z": -1.873727724,
				"element": "C" 
			},
			{
				"x": 3.3687493304,
				"y": 0.4236964826,
				"z": -1.6248454149,
				"element": "C" 
			},
			{
				"x": 2.3040667852,
				"y": 0.4694906914,
				"z": -0.7256501686,
				"element": "C" 
			},
			{
				"x": -0.4479595811,
				"y": 0.3230988666,
				"z": -1.2766419291,
				"element": "H" 
			},
			{
				"x": -0.6014007491,
				"y": 1.8056668392,
				"z": -0.3080772329,
				"element": "H" 
			},
			{
				"x": -1.9717723429,
				"y": 0.6835397499,
				"z": -0.4237965071,
				"element": "H" 
			},
			{
				"x": -2.4908870653,
				"y": 1.6025134669,
				"z": 2.5461913512,
				"element": "H" 
			},
			{
				"x": 1.4524032387,
				"y": -1.9319654735,
				"z": 2.6141574379,
				"element": "H" 
			},
			{
				"x": 2.2093723641,
				"y": -2.8094270287,
				"z": 0.1638202485,
				"element": "H" 
			},
			{
				"x": 4.122955763,
				"y": -2.8834943216,
				"z": -1.4045138112,
				"element": "H" 
			},
			{
				"x": 4.8606480114,
				"y": -0.8134843815,
				"z": -2.5724515619,
				"element": "H" 
			},
			{
				"x": 3.6904102794,
				"y": 1.3344886386,
				"z": -2.1219330664,
				"element": "H" 
			},
			{
				"x": 1.8263081576,
				"y": 1.4206919705,
				"z": -0.5130672018,
				"element": "H" 
			}
		],
		 "valence_orbital": [ 
			{
				"type": "occ",
				"energy": -0.27166,
				"method": "rhf"
			},
			{
				"type": "occ",
				"energy": -0.2652,
				"method": "rhf"
			},
			{
				"type": "occ",
				"energy": -0.25959,
				"method": "rhf"
			},
			{
				"type": "occ",
				"energy": -0.25664,
				"method": "rhf"
			},
			{
				"type": "occ",
				"energy": -0.21359,
				"method": "rhf"
			},
			{
				"type": "unocc",
				"energy": -0.0277,
				"method": "rhf"
			},
			{
				"type": "unocc",
				"energy": -0.01028,
				"method": "rhf"
			},
			{
				"type": "unocc",
				"energy": 0.01067,
				"method": "rhf"
			},
			{
				"type": "unocc",
				"energy": 0.04904,
				"method": "rhf"
			},
			{
				"type": "unocc",
				"energy": 0.06305,
				"method": "rhf"
			}
		],
		"cosmo_sigma_profile": { 
			"-0.025": 0.0,
			"-0.024": 0.0,
			"-0.023": 0.0,
			"-0.022": 0.0,
			"-0.021": 0.0,
			"-0.02": 0.0,
			"-0.019": 0.0,
			"-0.018": 0.0,
			"-0.017": 0.0,
			"-0.016": 0.0,
			"-0.015": 0.0,
			"-0.014": 0.0,
			"-0.013": 0.0,
			"-0.012": 0.0,
			"-0.011": 0.662669690911,
			"-0.01": 2.61073224685,
			"-0.009": 1.89598727774,
			"-0.008": 1.75754459976,
			"-0.007": 4.41572741396,
			"-0.006": 13.9286091203,
			"-0.005": 19.8859684784,
			"-0.004": 22.5179676561,
			"-0.003": 20.6780534219,
			"-0.002": 15.8815929767,
			"-0.001": 13.348694955,
			"0.0": 12.1529502418,
			"0.001": 12.8256644744,
			"0.002": 14.7407646162,
			"0.003": 15.2593027235,
			"0.004": 15.9541850944,
			"0.005": 15.4423495256,
			"0.006": 5.89238949305,
			"0.007": 2.42653228966,
			"0.008": 3.08874256223,
			"0.009": 2.30169318481,
			"0.01": 1.92799051621,
			"0.011": 1.45051348959,
			"0.012": 1.78637242624,
			"0.013": 1.13246365863,
			"0.014": 1.20454610644,
			"0.015": 1.33830143188,
			"0.016": 0.897047388946,
			"0.017": 1.21010990178,
			"0.018": 0.244693883146,
			"0.019": 0.0,
			"0.02": 0.0,
			"0.021": 0.0,
			"0.022": 0.0,
			"0.023": 0.0,
			"0.024": 0.0,
			"0.025": 0.0
		}
	}
}
