{
	 "smiles": "CCOC(=O)CC", 
	 "Tm": 199.65, 
	 "num_atms": 17, 
	 "gaussian": { 
		 "optdone": 1, 
		 "sigma_profile": "yes", 
		 "theory": "DFT", 
		 "functional": "B3LYP", 
		 "basiset": "6-31G**", 
		 "properties": { 
			 "R2extent": 1399.3282, 
			 "electric_dipole_moment_norm": 2.02279041425, 
			 "electric_quadrupole_moment_norm": 7.78181714961, 
			 "total_energy": -347.028255328, 
			 "HOMO_LUMO_gap": 0.27831, 
			 "cosmo_polarized_energy": -6.21, 
			 "cosmo_cavitation_energy": 20.3, 
			 "cosmo_dispersion_energy": -14.73, 
			 "cosmo_repulsion_energy": 1.3, 
			 "cosmo_total_nonelectrostatic_energy": 6.87, 
			 "SMD_solvation_energy": 4.91 
		},
		"coords": [
			{
				"x": -0.6444299277,
				"y": 2.9364420894,
				"z": -1.7506945974,
				"element": "C" 
			},
			{
				"x": 0.1808092284,
				"y": 2.4516495987,
				"z": -0.5737470836,
				"element": "C" 
			},
			{
				"x": -0.5366097952,
				"y": 1.3569013776,
				"z": 0.0398123009,
				"element": "O" 
			},
			{
				"x": 0.0492854909,
				"y": 0.8021040774,
				"z": 1.1264811462,
				"element": "C" 
			},
			{
				"x": 1.1111417403,
				"y": 1.1775859104,
				"z": 1.5757037419,
				"element": "O" 
			},
			{
				"x": -0.7849291051,
				"y": -0.3367323601,
				"z": 1.6816192803,
				"element": "C" 
			},
			{
				"x": -2.2332611544,
				"y": 0.0600560672,
				"z": 2.0042213966,
				"element": "C" 
			},
			{
				"x": -0.7889550448,
				"y": 2.1370914925,
				"z": -2.4833000559,
				"element": "H" 
			},
			{
				"x": -0.1335532112,
				"y": 3.768353828,
				"z": -2.2455608021,
				"element": "H" 
			},
			{
				"x": -1.6283456063,
				"y": 3.2837918584,
				"z": -1.4222634979,
				"element": "H" 
			},
			{
				"x": 0.3344629726,
				"y": 3.2371629859,
				"z": 0.1729732946,
				"element": "H" 
			},
			{
				"x": 1.169568637,
				"y": 2.0974570323,
				"z": -0.8827361415,
				"element": "H" 
			},
			{
				"x": -0.2652865954,
				"y": -0.7035338961,
				"z": 2.5696815193,
				"element": "H" 
			},
			{
				"x": -0.7829981041,
				"y": -1.1434675179,
				"z": 0.9378187446,
				"element": "H" 
			},
			{
				"x": -2.7495367403,
				"y": 0.4140794527,
				"z": 1.1088554513,
				"element": "H" 
			},
			{
				"x": -2.2665738565,
				"y": 0.8570976785,
				"z": 2.753787394,
				"element": "H" 
			},
			{
				"x": -2.7828889284,
				"y": -0.7976396748,
				"z": 2.4030479087,
				"element": "H" 
			}
		],
		 "valence_orbital": [ 
			{
				"type": "occ",
				"energy": -0.35696,
				"method": "rhf"
			},
			{
				"type": "occ",
				"energy": -0.34663,
				"method": "rhf"
			},
			{
				"type": "occ",
				"energy": -0.34334,
				"method": "rhf"
			},
			{
				"type": "occ",
				"energy": -0.29517,
				"method": "rhf"
			},
			{
				"type": "occ",
				"energy": -0.26232,
				"method": "rhf"
			},
			{
				"type": "unocc",
				"energy": 0.01599,
				"method": "rhf"
			},
			{
				"type": "unocc",
				"energy": 0.09791,
				"method": "rhf"
			},
			{
				"type": "unocc",
				"energy": 0.10797,
				"method": "rhf"
			},
			{
				"type": "unocc",
				"energy": 0.13605,
				"method": "rhf"
			},
			{
				"type": "unocc",
				"energy": 0.14346,
				"method": "rhf"
			}
		],
		"cosmo_sigma_profile": { 
			"-0.025": 0.0,
			"-0.024": 0.0,
			"-0.023": 0.0,
			"-0.022": 0.0,
			"-0.021": 0.0,
			"-0.02": 0.0,
			"-0.019": 0.0,
			"-0.018": 0.0,
			"-0.017": 0.0,
			"-0.016": 0.0,
			"-0.015": 0.0,
			"-0.014": 0.0,
			"-0.013": 0.0,
			"-0.012": 0.0,
			"-0.011": 0.0,
			"-0.01": 0.0,
			"-0.009": 0.0,
			"-0.008": 0.0,
			"-0.007": 0.0,
			"-0.006": 1.39235857279,
			"-0.005": 7.66651734649,
			"-0.004": 19.7872963225,
			"-0.003": 23.1550764066,
			"-0.002": 23.8619707697,
			"-0.001": 19.3389008426,
			"0.0": 17.6677677344,
			"0.001": 10.1493778336,
			"0.002": 3.61773988653,
			"0.003": 4.14395798908,
			"0.004": 3.50039179171,
			"0.005": 2.70476235884,
			"0.006": 3.65910468719,
			"0.007": 2.02705763969,
			"0.008": 1.72890730873,
			"0.009": 2.30117530262,
			"0.01": 1.46866812507,
			"0.011": 2.78938762344,
			"0.012": 4.69399153345,
			"0.013": 2.45752371385,
			"0.014": 0.163028141054,
			"0.015": 0.0,
			"0.016": 0.0,
			"0.017": 0.0,
			"0.018": 0.0,
			"0.019": 0.0,
			"0.02": 0.0,
			"0.021": 0.0,
			"0.022": 0.0,
			"0.023": 0.0,
			"0.024": 0.0,
			"0.025": 0.0
		}
	}
}
