{
	 "smiles": "OC(=O)CCNS(=O)(=O)C1=CC(=CC=C1)[N+]([O-])=O", 
	 "Tm": 408.15, 
	 "num_atms": 28, 
	 "gaussian": { 
		 "optdone": 1, 
		 "sigma_profile": "yes", 
		 "theory": "DFT", 
		 "functional": "B3LYP", 
		 "basiset": "6-31G**", 
		 "properties": { 
			 "R2extent": 5925.7408, 
			 "electric_dipole_moment_norm": 3.97794431962, 
			 "electric_quadrupole_moment_norm": 21.3250860849, 
			 "total_energy": -1307.85845282, 
			 "HOMO_LUMO_gap": 0.17754, 
			 "cosmo_polarized_energy": -22.59, 
			 "cosmo_cavitation_energy": 35.71, 
			 "cosmo_dispersion_energy": -25.02, 
			 "cosmo_repulsion_energy": 1.93, 
			 "cosmo_total_nonelectrostatic_energy": 12.62, 
			 "SMD_solvation_energy": 8.3 
		},
		"coords": [
			{
				"x": 2.0637523888,
				"y": -1.9846196024,
				"z": -4.016277434,
				"element": "O" 
			},
			{
				"x": 2.7664605125,
				"y": -1.6717963883,
				"z": -2.9041548551,
				"element": "C" 
			},
			{
				"x": 3.9577646619,
				"y": -1.8673548329,
				"z": -2.8004925414,
				"element": "O" 
			},
			{
				"x": 1.8780748535,
				"y": -1.0783287887,
				"z": -1.8327386294,
				"element": "C" 
			},
			{
				"x": 2.7025044231,
				"y": -0.5053349037,
				"z": -0.6808395147,
				"element": "C" 
			},
			{
				"x": 1.8543378654,
				"y": -0.1344761808,
				"z": 0.4688870495,
				"element": "N" 
			},
			{
				"x": 1.0130700309,
				"y": 1.3304264641,
				"z": 0.4230920788,
				"element": "S" 
			},
			{
				"x": 0.9883583281,
				"y": 1.8039291798,
				"z": 1.8092218702,
				"element": "O" 
			},
			{
				"x": 1.5068402608,
				"y": 2.1682542453,
				"z": -0.675691329,
				"element": "O" 
			},
			{
				"x": -0.6585161512,
				"y": 0.8310015548,
				"z": -0.0244409936,
				"element": "C" 
			},
			{
				"x": -1.3254835456,
				"y": -0.1078755386,
				"z": 0.7609991109,
				"element": "C" 
			},
			{
				"x": -2.6331895497,
				"y": -0.4253183166,
				"z": 0.4133211583,
				"element": "C" 
			},
			{
				"x": -3.2855529441,
				"y": 0.1659634161,
				"z": -0.6691900855,
				"element": "C" 
			},
			{
				"x": -2.5982631207,
				"y": 1.1073728061,
				"z": -1.4310121971,
				"element": "C" 
			},
			{
				"x": -1.2797015688,
				"y": 1.4456898796,
				"z": -1.1127740346,
				"element": "C" 
			},
			{
				"x": -3.3550858781,
				"y": -1.4276539177,
				"z": 1.2210583737,
				"element": "N" 
			},
			{
				"x": -2.7478059339,
				"y": -1.9477838466,
				"z": 2.1542614736,
				"element": "O" 
			},
			{
				"x": -4.5162827278,
				"y": -1.6783176889,
				"z": 0.905356898,
				"element": "O" 
			},
			{
				"x": 2.6990761263,
				"y": -2.374441466,
				"z": -4.6406281623,
				"element": "H" 
			},
			{
				"x": 1.2088630502,
				"y": -1.8672642727,
				"z": -1.4685264653,
				"element": "H" 
			},
			{
				"x": 1.2401847746,
				"y": -0.3165340003,
				"z": -2.2916268759,
				"element": "H" 
			},
			{
				"x": 3.3013774211,
				"y": 0.3413893914,
				"z": -1.0317626835,
				"element": "H" 
			},
			{
				"x": 3.3946926586,
				"y": -1.2696279444,
				"z": -0.3206914793,
				"element": "H" 
			},
			{
				"x": 2.3466015749,
				"y": -0.1515378154,
				"z": 1.3585204276,
				"element": "H" 
			},
			{
				"x": -0.8566858443,
				"y": -0.5881508994,
				"z": 1.6103127097,
				"element": "H" 
			},
			{
				"x": -4.3060651479,
				"y": -0.1191238447,
				"z": -0.8919878139,
				"element": "H" 
			},
			{
				"x": -3.0885501618,
				"y": 1.5798187132,
				"z": -2.27577658,
				"element": "H" 
			},
			{
				"x": -0.7283763566,
				"y": 2.1759945974,
				"z": -1.6947194758,
				"element": "H" 
			}
		],
		 "valence_orbital": [ 
			{
				"type": "occ",
				"energy": -0.3087,
				"method": "rhf"
			},
			{
				"type": "occ",
				"energy": -0.30594,
				"method": "rhf"
			},
			{
				"type": "occ",
				"energy": -0.30289,
				"method": "rhf"
			},
			{
				"type": "occ",
				"energy": -0.29181,
				"method": "rhf"
			},
			{
				"type": "occ",
				"energy": -0.28254,
				"method": "rhf"
			},
			{
				"type": "unocc",
				"energy": -0.105,
				"method": "rhf"
			},
			{
				"type": "unocc",
				"energy": -0.0629,
				"method": "rhf"
			},
			{
				"type": "unocc",
				"energy": -0.02161,
				"method": "rhf"
			},
			{
				"type": "unocc",
				"energy": -0.00493,
				"method": "rhf"
			},
			{
				"type": "unocc",
				"energy": 0.0387,
				"method": "rhf"
			}
		],
		"cosmo_sigma_profile": { 
			"-0.025": 0.0,
			"-0.024": 0.0,
			"-0.023": 0.0,
			"-0.022": 0.0,
			"-0.021": 0.0,
			"-0.02": 0.0,
			"-0.019": 0.0,
			"-0.018": 1.01790165867,
			"-0.017": 0.759352635525,
			"-0.016": 0.80871801097,
			"-0.015": 1.70888872147,
			"-0.014": 2.30375718824,
			"-0.013": 1.20175312137,
			"-0.012": 2.13966941465,
			"-0.011": 1.90383987503,
			"-0.01": 1.4447761426,
			"-0.009": 3.11383739528,
			"-0.008": 9.81219504635,
			"-0.007": 12.4801484313,
			"-0.006": 14.7664790278,
			"-0.005": 18.4479237626,
			"-0.004": 19.2787211114,
			"-0.003": 19.7044412862,
			"-0.002": 21.9417907664,
			"-0.001": 19.9107793598,
			"0.0": 15.9117307729,
			"0.001": 10.3562463797,
			"0.002": 8.16740395944,
			"0.003": 7.30985836803,
			"0.004": 9.02080106193,
			"0.005": 7.4486578976,
			"0.006": 9.92019539086,
			"0.007": 16.1024401717,
			"0.008": 10.4997213608,
			"0.009": 10.9546424309,
			"0.01": 12.1610862451,
			"0.011": 10.6697901793,
			"0.012": 3.14769678068,
			"0.013": 0.00400406416134,
			"0.014": 0.0,
			"0.015": 0.0,
			"0.016": 0.0,
			"0.017": 0.0,
			"0.018": 0.0,
			"0.019": 0.0,
			"0.02": 0.0,
			"0.021": 0.0,
			"0.022": 0.0,
			"0.023": 0.0,
			"0.024": 0.0,
			"0.025": 0.0
		}
	}
}
