{
	 "smiles": "NC1=CC(CN2CCCCC2)=CC=C1", 
	 "Tm": 381.15, 
	 "num_atms": 32, 
	 "gaussian": { 
		 "optdone": 1, 
		 "sigma_profile": "yes", 
		 "theory": "DFT", 
		 "functional": "B3LYP", 
		 "basiset": "6-31G**", 
		 "properties": { 
			 "R2extent": 3941.6343, 
			 "electric_dipole_moment_norm": 1.49971853693, 
			 "electric_quadrupole_moment_norm": 10.8882230557, 
			 "total_energy": -577.628700684, 
			 "HOMO_LUMO_gap": 0.20313, 
			 "cosmo_polarized_energy": -8.33, 
			 "cosmo_cavitation_energy": 32.53, 
			 "cosmo_dispersion_energy": -23.33, 
			 "cosmo_repulsion_energy": 1.86, 
			 "cosmo_total_nonelectrostatic_energy": 11.07, 
			 "SMD_solvation_energy": 3.76 
		},
		"coords": [
			{
				"x": -1.0201800269,
				"y": 4.2855509078,
				"z": -0.0583509301,
				"element": "N" 
			},
			{
				"x": -0.3522827518,
				"y": 3.5030724663,
				"z": -1.0057195756,
				"element": "C" 
			},
			{
				"x": -0.5226280125,
				"y": 2.1103594707,
				"z": -1.0284110787,
				"element": "C" 
			},
			{
				"x": 0.0950482566,
				"y": 1.3228942458,
				"z": -2.0040025055,
				"element": "C" 
			},
			{
				"x": -0.150872427,
				"y": -0.1751653424,
				"z": -2.0377413923,
				"element": "C" 
			},
			{
				"x": -0.1236183744,
				"y": -0.8052508475,
				"z": -0.7221386757,
				"element": "N" 
			},
			{
				"x": -0.7065716614,
				"y": -2.1525903668,
				"z": -0.7595476414,
				"element": "C" 
			},
			{
				"x": -0.4322065208,
				"y": -2.9254092098,
				"z": 0.5508665703,
				"element": "C" 
			},
			{
				"x": -0.1750944809,
				"y": -1.9572731582,
				"z": 1.7107086776,
				"element": "C" 
			},
			{
				"x": 1.0709984887,
				"y": -1.0968864164,
				"z": 1.4109681271,
				"element": "C" 
			},
			{
				"x": 1.202799121,
				"y": -0.8171510598,
				"z": -0.1028655926,
				"element": "C" 
			},
			{
				"x": 0.9017700315,
				"y": 1.9323098184,
				"z": -2.9717501431,
				"element": "C" 
			},
			{
				"x": 1.0718297519,
				"y": 3.3185191688,
				"z": -2.9582927473,
				"element": "C" 
			},
			{
				"x": 0.4548147967,
				"y": 4.1034619898,
				"z": -1.9887973524,
				"element": "C" 
			},
			{
				"x": -1.2796192312,
				"y": 3.797229652,
				"z": 0.787885543,
				"element": "H" 
			},
			{
				"x": -0.5858768397,
				"y": 5.1760598876,
				"z": 0.1422474692,
				"element": "H" 
			},
			{
				"x": -1.1331953373,
				"y": 1.6230503679,
				"z": -0.2727030098,
				"element": "H" 
			},
			{
				"x": 0.5663070428,
				"y": -0.6472256855,
				"z": -2.7384133572,
				"element": "H" 
			},
			{
				"x": -1.1487942729,
				"y": -0.3589037118,
				"z": -2.4601341911,
				"element": "H" 
			},
			{
				"x": -1.7870277628,
				"y": -2.0428295222,
				"z": -0.9199908044,
				"element": "H" 
			},
			{
				"x": -0.3164258929,
				"y": -2.7381538519,
				"z": -1.615541865,
				"element": "H" 
			},
			{
				"x": -1.2743336553,
				"y": -3.591285567,
				"z": 0.7681875823,
				"element": "H" 
			},
			{
				"x": 0.4459380887,
				"y": -3.5713159833,
				"z": 0.4256513364,
				"element": "H" 
			},
			{
				"x": -1.0491395413,
				"y": -1.3088654902,
				"z": 1.8368846925,
				"element": "H" 
			},
			{
				"x": -0.0467494248,
				"y": -2.5049679056,
				"z": 2.6510600411,
				"element": "H" 
			},
			{
				"x": 1.9777743907,
				"y": -1.6050034856,
				"z": 1.7611421183,
				"element": "H" 
			},
			{
				"x": 1.0062453253,
				"y": -0.1516221406,
				"z": 1.960993754,
				"element": "H" 
			},
			{
				"x": 1.6724001775,
				"y": 0.1555488079,
				"z": -0.2705066733,
				"element": "H" 
			},
			{
				"x": 1.8605924561,
				"y": -1.5698122781,
				"z": -0.5819955791,
				"element": "H" 
			},
			{
				"x": 1.3934093016,
				"y": 1.3266085936,
				"z": -3.72807055,
				"element": "H" 
			},
			{
				"x": 1.6999604257,
				"y": 3.7935609549,
				"z": -3.7072516928,
				"element": "H" 
			},
			{
				"x": 0.5924285592,
				"y": 5.1821856911,
				"z": -1.9864705542,
				"element": "H" 
			}
		],
		 "valence_orbital": [ 
			{
				"type": "occ",
				"energy": -0.30269,
				"method": "rhf"
			},
			{
				"type": "occ",
				"energy": -0.29482,
				"method": "rhf"
			},
			{
				"type": "occ",
				"energy": -0.23307,
				"method": "rhf"
			},
			{
				"type": "occ",
				"energy": -0.20345,
				"method": "rhf"
			},
			{
				"type": "occ",
				"energy": -0.19507,
				"method": "rhf"
			},
			{
				"type": "unocc",
				"energy": 0.00806,
				"method": "rhf"
			},
			{
				"type": "unocc",
				"energy": 0.02544,
				"method": "rhf"
			},
			{
				"type": "unocc",
				"energy": 0.08372,
				"method": "rhf"
			},
			{
				"type": "unocc",
				"energy": 0.08803,
				"method": "rhf"
			},
			{
				"type": "unocc",
				"energy": 0.10984,
				"method": "rhf"
			}
		],
		"cosmo_sigma_profile": { 
			"-0.025": 0.0,
			"-0.024": 0.0,
			"-0.023": 0.0,
			"-0.022": 0.0,
			"-0.021": 0.0,
			"-0.02": 0.0,
			"-0.019": 0.0,
			"-0.018": 0.0,
			"-0.017": 0.0,
			"-0.016": 0.0,
			"-0.015": 0.0,
			"-0.014": 0.0,
			"-0.013": 0.000434673104821,
			"-0.012": 1.7575261414,
			"-0.011": 2.44835544341,
			"-0.01": 2.79516174873,
			"-0.009": 2.90561409953,
			"-0.008": 3.32807181099,
			"-0.007": 2.30933519739,
			"-0.006": 3.14065698737,
			"-0.005": 5.782424617,
			"-0.004": 8.6239879119,
			"-0.003": 16.6621551984,
			"-0.002": 29.2549398069,
			"-0.001": 43.886636591,
			"0.0": 39.0254959712,
			"0.001": 24.3739678423,
			"0.002": 11.0914381729,
			"0.003": 8.78040866999,
			"0.004": 8.91575749203,
			"0.005": 7.74239779416,
			"0.006": 9.54164103688,
			"0.007": 9.51248391956,
			"0.008": 4.38199340722,
			"0.009": 1.59881175884,
			"0.01": 1.58903272027,
			"0.011": 1.07592583385,
			"0.012": 0.548211762601,
			"0.013": 0.651914441927,
			"0.014": 0.522028566794,
			"0.015": 0.598535631387,
			"0.016": 0.0,
			"0.017": 0.0,
			"0.018": 0.0,
			"0.019": 0.0,
			"0.02": 0.0,
			"0.021": 0.0,
			"0.022": 0.0,
			"0.023": 0.0,
			"0.024": 0.0,
			"0.025": 0.0
		}
	}
}
