{
	 "smiles": "CC(C)(C)C1=CC=C(C=CC2=NC3=C(C=C(Br)C=C3)C(=C2)C(O)=O)C=C1", 
	 "Tm": 593.15, 
	 "num_atms": 46, 
	 "gaussian": { 
		 "optdone": 1, 
		 "sigma_profile": "yes", 
		 "theory": "DFT", 
		 "functional": "B3LYP", 
		 "basiset": "6-31G**", 
		 "properties": { 
			 "R2extent": 18626.0011, 
			 "electric_dipole_moment_norm": 5.26140514026, 
			 "electric_quadrupole_moment_norm": 14.5384624032, 
			 "total_energy": -3627.01623256, 
			 "HOMO_LUMO_gap": 0.14168, 
			 "cosmo_polarized_energy": -14.89, 
			 "cosmo_cavitation_energy": 50.88, 
			 "cosmo_dispersion_energy": -34.72, 
			 "cosmo_repulsion_energy": 2.57, 
			 "cosmo_total_nonelectrostatic_energy": 18.73, 
			 "SMD_solvation_energy": 6.42 
		},
		"coords": [
			{
				"x": -3.5313892856,
				"y": -1.3646051359,
				"z": 0.5733981236,
				"element": "C" 
			},
			{
				"x": -3.2803071874,
				"y": -2.4198619539,
				"z": -0.5311511189,
				"element": "C" 
			},
			{
				"x": -4.2009145383,
				"y": -2.097005384,
				"z": -1.7232578402,
				"element": "C" 
			},
			{
				"x": -3.6532237943,
				"y": -3.8228972904,
				"z": 0.0053154993,
				"element": "C" 
			},
			{
				"x": -1.7928110756,
				"y": -2.4029572348,
				"z": -0.9229071208,
				"element": "C" 
			},
			{
				"x": -0.8037263763,
				"y": -2.6285090235,
				"z": 0.0550941522,
				"element": "C" 
			},
			{
				"x": 0.5529421052,
				"y": -2.6007925623,
				"z": -0.2541474903,
				"element": "C" 
			},
			{
				"x": 0.9922878878,
				"y": -2.3374297928,
				"z": -1.5653503097,
				"element": "C" 
			},
			{
				"x": 2.4276268156,
				"y": -2.2657591546,
				"z": -1.9112774588,
				"element": "C" 
			},
			{
				"x": 3.4113928555,
				"y": -1.6046740951,
				"z": -1.2674170791,
				"element": "C" 
			},
			{
				"x": 3.3080258378,
				"y": -0.6804914621,
				"z": -0.1232084301,
				"element": "C" 
			},
			{
				"x": 4.3903078285,
				"y": -0.5577141776,
				"z": 0.6325616289,
				"element": "N" 
			},
			{
				"x": 4.3523756009,
				"y": 0.2817986437,
				"z": 1.7040024367,
				"element": "C" 
			},
			{
				"x": 3.1982427275,
				"y": 1.0527402868,
				"z": 2.0679982422,
				"element": "C" 
			},
			{
				"x": 3.254906473,
				"y": 1.8877436697,
				"z": 3.2133171484,
				"element": "C" 
			},
			{
				"x": 4.4150319636,
				"y": 1.9425090303,
				"z": 3.9526343226,
				"element": "C" 
			},
			{
				"x": 4.4963030714,
				"y": 3.064946988,
				"z": 5.4948784853,
				"element": "Br" 
			},
			{
				"x": 5.5627477473,
				"y": 1.1930602944,
				"z": 3.6069505583,
				"element": "C" 
			},
			{
				"x": 5.5254057904,
				"y": 0.3800401225,
				"z": 2.499080099,
				"element": "C" 
			},
			{
				"x": 2.0474363375,
				"y": 0.9118782951,
				"z": 1.2245997486,
				"element": "C" 
			},
			{
				"x": 2.1281575113,
				"y": 0.0776214559,
				"z": 0.1328901327,
				"element": "C" 
			},
			{
				"x": 0.7704473066,
				"y": 1.6685741955,
				"z": 1.4786748615,
				"element": "C" 
			},
			{
				"x": -0.3704881467,
				"y": 1.0401882026,
				"z": 1.0960876825,
				"element": "O" 
			},
			{
				"x": 0.7150815372,
				"y": 2.7683734768,
				"z": 1.9773604869,
				"element": "O" 
			},
			{
				"x": 0.0119562174,
				"y": -2.1619080138,
				"z": -2.5511488929,
				"element": "C" 
			},
			{
				"x": -1.3479720853,
				"y": -2.1820472795,
				"z": -2.2333575207,
				"element": "C" 
			},
			{
				"x": -3.2562841896,
				"y": -0.3608820771,
				"z": 0.2331785423,
				"element": "H" 
			},
			{
				"x": -2.958648957,
				"y": -1.5776814185,
				"z": 1.4809879217,
				"element": "H" 
			},
			{
				"x": -4.5912730321,
				"y": -1.350440377,
				"z": 0.8498395772,
				"element": "H" 
			},
			{
				"x": -5.2447482291,
				"y": -2.1075324781,
				"z": -1.3942802888,
				"element": "H" 
			},
			{
				"x": -4.1034259078,
				"y": -2.8339333018,
				"z": -2.5272691307,
				"element": "H" 
			},
			{
				"x": -3.9964099558,
				"y": -1.1049311613,
				"z": -2.1391293101,
				"element": "H" 
			},
			{
				"x": -3.4951100524,
				"y": -4.590471124,
				"z": -0.7593304172,
				"element": "H" 
			},
			{
				"x": -4.7082589625,
				"y": -3.8484925825,
				"z": 0.2996048044,
				"element": "H" 
			},
			{
				"x": -3.057190713,
				"y": -4.0958739607,
				"z": 0.8813160614,
				"element": "H" 
			},
			{
				"x": -1.097422135,
				"y": -2.8483633064,
				"z": 1.0776566156,
				"element": "H" 
			},
			{
				"x": 1.2861652806,
				"y": -2.79517977,
				"z": 0.5228422588,
				"element": "H" 
			},
			{
				"x": 2.7193254941,
				"y": -2.8284206558,
				"z": -2.7976833787,
				"element": "H" 
			},
			{
				"x": 4.4333862408,
				"y": -1.7481685552,
				"z": -1.6092254462,
				"element": "H" 
			},
			{
				"x": 2.3965445067,
				"y": 2.4887181683,
				"z": 3.4795839777,
				"element": "H" 
			},
			{
				"x": 6.4564488969,
				"y": 1.2664916643,
				"z": 4.2159105062,
				"element": "H" 
			},
			{
				"x": 6.3836946494,
				"y": -0.2129487372,
				"z": 2.201878963,
				"element": "H" 
			},
			{
				"x": 1.3039446996,
				"y": 0.005988732,
				"z": -0.5649727541,
				"element": "H" 
			},
			{
				"x": -0.1946180473,
				"y": 0.1224747258,
				"z": 0.8355636187,
				"element": "H" 
			},
			{
				"x": 0.3153148307,
				"y": -1.9796737293,
				"z": -3.5790140709,
				"element": "H" 
			},
			{
				"x": -2.063377542,
				"y": -2.016902157,
				"z": -3.0304783971,
				"element": "H" 
			}
		],
		 "valence_orbital": [ 
			{
				"type": "occ",
				"energy": -0.27009,
				"method": "rhf"
			},
			{
				"type": "occ",
				"energy": -0.26578,
				"method": "rhf"
			},
			{
				"type": "occ",
				"energy": -0.26093,
				"method": "rhf"
			},
			{
				"type": "occ",
				"energy": -0.24689,
				"method": "rhf"
			},
			{
				"type": "occ",
				"energy": -0.22669,
				"method": "rhf"
			},
			{
				"type": "unocc",
				"energy": -0.08501,
				"method": "rhf"
			},
			{
				"type": "unocc",
				"energy": -0.05937,
				"method": "rhf"
			},
			{
				"type": "unocc",
				"energy": -0.02246,
				"method": "rhf"
			},
			{
				"type": "unocc",
				"energy": -0.01754,
				"method": "rhf"
			},
			{
				"type": "unocc",
				"energy": -0.01342,
				"method": "rhf"
			}
		],
		"cosmo_sigma_profile": { 
			"-0.025": 0.0,
			"-0.024": 0.0,
			"-0.023": 0.0,
			"-0.022": 0.0,
			"-0.021": 0.0,
			"-0.02": 0.0,
			"-0.019": 0.0,
			"-0.018": 0.0,
			"-0.017": 0.0,
			"-0.016": 0.0,
			"-0.015": 0.0,
			"-0.014": 0.0,
			"-0.013": 0.00102361466731,
			"-0.012": 0.366032879166,
			"-0.011": 0.897027291232,
			"-0.01": 1.19598332612,
			"-0.009": 1.52707148056,
			"-0.008": 3.25740319752,
			"-0.007": 6.40815003471,
			"-0.006": 13.6345613046,
			"-0.005": 22.9504340163,
			"-0.004": 26.3848499965,
			"-0.003": 35.8223241806,
			"-0.002": 39.1090654094,
			"-0.001": 40.2012600249,
			"0.0": 40.684742077,
			"0.001": 52.2996606474,
			"0.002": 34.8507881839,
			"0.003": 21.973074161,
			"0.004": 22.3767833657,
			"0.005": 12.0593123699,
			"0.006": 5.04374688267,
			"0.007": 3.25400484679,
			"0.008": 4.22112518831,
			"0.009": 4.76920359313,
			"0.01": 5.81358547959,
			"0.011": 4.64003553769,
			"0.012": 2.92206374947,
			"0.013": 0.955967867495,
			"0.014": 0.432133737796,
			"0.015": 0.0689511919021,
			"0.016": 0.0,
			"0.017": 0.0,
			"0.018": 0.0,
			"0.019": 0.0,
			"0.02": 0.0,
			"0.021": 0.0,
			"0.022": 0.0,
			"0.023": 0.0,
			"0.024": 0.0,
			"0.025": 0.0
		}
	}
}
