{
	 "smiles": "CC1=NC(NN)=NC(N)=N1", 
	 "Tm": 523.15, 
	 "num_atms": 18, 
	 "gaussian": { 
		 "optdone": 1, 
		 "sigma_profile": "yes", 
		 "theory": "DFT", 
		 "functional": "B3LYP", 
		 "basiset": "6-31G**", 
		 "properties": { 
			 "R2extent": 1772.7374, 
			 "electric_dipole_moment_norm": 2.14384525561, 
			 "electric_quadrupole_moment_norm": 8.37902502204, 
			 "total_energy": -485.766771231, 
			 "HOMO_LUMO_gap": 0.22343, 
			 "cosmo_polarized_energy": -13.5, 
			 "cosmo_cavitation_energy": 22.4, 
			 "cosmo_dispersion_energy": -17.06, 
			 "cosmo_repulsion_energy": 1.44, 
			 "cosmo_total_nonelectrostatic_energy": 6.79, 
			 "SMD_solvation_energy": 0.49 
		},
		"coords": [
			{
				"x": -2.2483470538,
				"y": 0.635324057,
				"z": 0.212245463,
				"element": "C" 
			},
			{
				"x": -0.7641035096,
				"y": 0.6311507607,
				"z": -0.0321152182,
				"element": "C" 
			},
			{
				"x": 0.0004154888,
				"y": -0.0468254095,
				"z": 0.8254342121,
				"element": "N" 
			},
			{
				"x": 1.3220775616,
				"y": -0.0074543855,
				"z": 0.5365089713,
				"element": "C" 
			},
			{
				"x": 2.1309659002,
				"y": -0.7010613109,
				"z": 1.3801915833,
				"element": "N" 
			},
			{
				"x": 3.5314333256,
				"y": -0.6844159664,
				"z": 1.321570472,
				"element": "N" 
			},
			{
				"x": 1.8930556773,
				"y": 0.6371444475,
				"z": -0.4891881216,
				"element": "N" 
			},
			{
				"x": 1.0074758273,
				"y": 1.2839636499,
				"z": -1.2697232676,
				"element": "C" 
			},
			{
				"x": 1.5095196838,
				"y": 1.9859473851,
				"z": -2.3171418307,
				"element": "N" 
			},
			{
				"x": -0.3273448379,
				"y": 1.3155681615,
				"z": -1.1003526563,
				"element": "N" 
			},
			{
				"x": -2.7719748218,
				"y": 0.2339348064,
				"z": -0.6612307156,
				"element": "H" 
			},
			{
				"x": -2.6010599398,
				"y": 1.6624844708,
				"z": 0.3504894907,
				"element": "H" 
			},
			{
				"x": -2.4924205037,
				"y": 0.0413887201,
				"z": 1.0934102608,
				"element": "H" 
			},
			{
				"x": 1.7126991723,
				"y": -1.095277952,
				"z": 2.2089347831,
				"element": "H" 
			},
			{
				"x": 3.8330237608,
				"y": 0.2856450299,
				"z": 1.2288276001,
				"element": "H" 
			},
			{
				"x": 3.8143112587,
				"y": -1.1418725281,
				"z": 0.4557306155,
				"element": "H" 
			},
			{
				"x": 2.4782453655,
				"y": 1.8639580709,
				"z": -2.5607524428,
				"element": "H" 
			},
			{
				"x": 0.8614276446,
				"y": 2.3597979926,
				"z": -2.9904391989,
				"element": "H" 
			}
		],
		 "valence_orbital": [ 
			{
				"type": "occ",
				"energy": -0.27605,
				"method": "rhf"
			},
			{
				"type": "occ",
				"energy": -0.2532,
				"method": "rhf"
			},
			{
				"type": "occ",
				"energy": -0.25294,
				"method": "rhf"
			},
			{
				"type": "occ",
				"energy": -0.24906,
				"method": "rhf"
			},
			{
				"type": "occ",
				"energy": -0.23095,
				"method": "rhf"
			},
			{
				"type": "unocc",
				"energy": -0.00752,
				"method": "rhf"
			},
			{
				"type": "unocc",
				"energy": 0.01126,
				"method": "rhf"
			},
			{
				"type": "unocc",
				"energy": 0.08866,
				"method": "rhf"
			},
			{
				"type": "unocc",
				"energy": 0.0927,
				"method": "rhf"
			},
			{
				"type": "unocc",
				"energy": 0.11495,
				"method": "rhf"
			}
		],
		"cosmo_sigma_profile": { 
			"-0.025": 0.0,
			"-0.024": 0.0,
			"-0.023": 0.0,
			"-0.022": 0.0,
			"-0.021": 0.0,
			"-0.02": 0.0,
			"-0.019": 0.0,
			"-0.018": 0.0,
			"-0.017": 0.0,
			"-0.016": 0.0,
			"-0.015": 0.0454272259159,
			"-0.014": 1.78409165409,
			"-0.013": 2.84903060477,
			"-0.012": 2.95888317728,
			"-0.011": 3.90157359603,
			"-0.01": 5.63293368253,
			"-0.009": 5.41231531572,
			"-0.008": 3.25005663617,
			"-0.007": 3.65589715867,
			"-0.006": 4.27958146439,
			"-0.005": 7.07896933208,
			"-0.004": 7.69138175486,
			"-0.003": 9.54098097372,
			"-0.002": 10.8368347869,
			"-0.001": 14.9412962441,
			"0.0": 14.7318093952,
			"0.001": 11.4497332468,
			"0.002": 10.0920896408,
			"0.003": 8.27960176997,
			"0.004": 6.17929833215,
			"0.005": 7.63885560587,
			"0.006": 5.32077870106,
			"0.007": 5.66723431947,
			"0.008": 3.84625737769,
			"0.009": 3.45169277495,
			"0.01": 4.12073077855,
			"0.011": 2.19438881068,
			"0.012": 1.74926534786,
			"0.013": 3.35499015345,
			"0.014": 2.19683690186,
			"0.015": 1.58527147607,
			"0.016": 0.682830981909,
			"0.017": 0.211233924511,
			"0.018": 0.0,
			"0.019": 0.0,
			"0.02": 0.0,
			"0.021": 0.0,
			"0.022": 0.0,
			"0.023": 0.0,
			"0.024": 0.0,
			"0.025": 0.0
		}
	}
}
