{
	 "smiles": "COC(=O)C1=C(C)NN=C1C", 
	 "Tm": 356.15, 
	 "num_atms": 21, 
	 "gaussian": { 
		 "optdone": 1, 
		 "sigma_profile": "yes", 
		 "theory": "DFT", 
		 "functional": "B3LYP", 
		 "basiset": "6-31G**", 
		 "properties": { 
			 "R2extent": 2069.2146, 
			 "electric_dipole_moment_norm": 0.898041663844, 
			 "electric_quadrupole_moment_norm": 16.6650802953, 
			 "total_energy": -532.730372536, 
			 "HOMO_LUMO_gap": 0.22978, 
			 "cosmo_polarized_energy": -12.31, 
			 "cosmo_cavitation_energy": 25.0, 
			 "cosmo_dispersion_energy": -18.14, 
			 "cosmo_repulsion_energy": 1.48, 
			 "cosmo_total_nonelectrostatic_energy": 8.33, 
			 "SMD_solvation_energy": 5.02 
		},
		"coords": [
			{
				"x": 2.7443229354,
				"y": 0.9767769747,
				"z": -1.406111937,
				"element": "C" 
			},
			{
				"x": 2.0813261731,
				"y": 0.2769930836,
				"z": -0.3438909147,
				"element": "O" 
			},
			{
				"x": 0.8291525703,
				"y": -0.1603056522,
				"z": -0.6370282601,
				"element": "C" 
			},
			{
				"x": 0.3044591545,
				"y": 0.0265006037,
				"z": -1.7232319311,
				"element": "O" 
			},
			{
				"x": 0.2073099029,
				"y": -0.8646089962,
				"z": 0.4811160649,
				"element": "C" 
			},
			{
				"x": -1.0780018926,
				"y": -1.4096650105,
				"z": 0.4280635137,
				"element": "C" 
			},
			{
				"x": -2.1019152489,
				"y": -1.4415642416,
				"z": -0.6582091794,
				"element": "C" 
			},
			{
				"x": -1.2735897301,
				"y": -1.9636999034,
				"z": 1.6426741787,
				"element": "N" 
			},
			{
				"x": -0.2199834094,
				"y": -1.8280672712,
				"z": 2.4938719013,
				"element": "N" 
			},
			{
				"x": 0.6908798035,
				"y": -1.1585291972,
				"z": 1.7958864863,
				"element": "C" 
			},
			{
				"x": 2.0081809424,
				"y": -0.8200807932,
				"z": 2.4214500239,
				"element": "C" 
			},
			{
				"x": 3.7215671204,
				"y": 1.2542303917,
				"z": -1.0106237391,
				"element": "H" 
			},
			{
				"x": 2.1808694376,
				"y": 1.8679718945,
				"z": -1.6948648815,
				"element": "H" 
			},
			{
				"x": 2.8546240119,
				"y": 0.3350014125,
				"z": -2.2842047699,
				"element": "H" 
			},
			{
				"x": -1.7060357917,
				"y": -1.9387103568,
				"z": -1.5478780328,
				"element": "H" 
			},
			{
				"x": -2.3706627149,
				"y": -0.4273807976,
				"z": -0.9657576546,
				"element": "H" 
			},
			{
				"x": -3.0061780654,
				"y": -1.9647867444,
				"z": -0.3322251965,
				"element": "H" 
			},
			{
				"x": -2.0980439404,
				"y": -2.4494455747,
				"z": 1.9620527262,
				"element": "H" 
			},
			{
				"x": 2.1706923508,
				"y": 0.2617807664,
				"z": 2.4398540951,
				"element": "H" 
			},
			{
				"x": 2.837784288,
				"y": -1.2540931958,
				"z": 1.8552720188,
				"element": "H" 
			},
			{
				"x": 2.0325421026,
				"y": -1.2035173922,
				"z": 3.4435854876,
				"element": "H" 
			}
		],
		 "valence_orbital": [ 
			{
				"type": "occ",
				"energy": -0.2938,
				"method": "rhf"
			},
			{
				"type": "occ",
				"energy": -0.29331,
				"method": "rhf"
			},
			{
				"type": "occ",
				"energy": -0.26185,
				"method": "rhf"
			},
			{
				"type": "occ",
				"energy": -0.25164,
				"method": "rhf"
			},
			{
				"type": "occ",
				"energy": -0.24205,
				"method": "rhf"
			},
			{
				"type": "unocc",
				"energy": -0.01227,
				"method": "rhf"
			},
			{
				"type": "unocc",
				"energy": 0.02865,
				"method": "rhf"
			},
			{
				"type": "unocc",
				"energy": 0.07597,
				"method": "rhf"
			},
			{
				"type": "unocc",
				"energy": 0.11007,
				"method": "rhf"
			},
			{
				"type": "unocc",
				"energy": 0.11422,
				"method": "rhf"
			}
		],
		"cosmo_sigma_profile": { 
			"-0.025": 0.0,
			"-0.024": 0.0,
			"-0.023": 0.0,
			"-0.022": 0.0,
			"-0.021": 0.0,
			"-0.02": 0.0,
			"-0.019": 0.0,
			"-0.018": 0.0,
			"-0.017": 0.317384512722,
			"-0.016": 1.54905088271,
			"-0.015": 1.11677509463,
			"-0.014": 1.43137415145,
			"-0.013": 1.25792977156,
			"-0.012": 1.3096021979,
			"-0.011": 1.08730425714,
			"-0.01": 0.926167440739,
			"-0.009": 1.2003576192,
			"-0.008": 1.24021349983,
			"-0.007": 1.4164893708,
			"-0.006": 5.15795068408,
			"-0.005": 11.1587672921,
			"-0.004": 16.6634018712,
			"-0.003": 18.6726590393,
			"-0.002": 18.7228148632,
			"-0.001": 19.1470889305,
			"0.0": 16.4615544673,
			"0.001": 14.8191400007,
			"0.002": 10.5200923748,
			"0.003": 9.95456216195,
			"0.004": 7.48626810986,
			"0.005": 7.31671077307,
			"0.006": 3.79358088955,
			"0.007": 3.33997745269,
			"0.008": 2.37670091738,
			"0.009": 2.38512622392,
			"0.01": 2.78879495321,
			"0.011": 3.84794182203,
			"0.012": 3.51877547382,
			"0.013": 3.40375700687,
			"0.014": 1.31079790079,
			"0.015": 1.02971109279,
			"0.016": 0.585341854256,
			"0.017": 0.0,
			"0.018": 0.0,
			"0.019": 0.0,
			"0.02": 0.0,
			"0.021": 0.0,
			"0.022": 0.0,
			"0.023": 0.0,
			"0.024": 0.0,
			"0.025": 0.0
		}
	}
}
