{
	 "smiles": "COC1=CC=C(C=C1N)C(O)=O", 
	 "Tm": 482.15, 
	 "num_atms": 21, 
	 "gaussian": { 
		 "optdone": 1, 
		 "sigma_profile": "yes", 
		 "theory": "DFT", 
		 "functional": "B3LYP", 
		 "basiset": "6-31G**", 
		 "properties": { 
			 "R2extent": 2884.1202, 
			 "electric_dipole_moment_norm": 3.67290451959, 
			 "electric_quadrupole_moment_norm": 9.27314025021, 
			 "total_energy": -590.710283281, 
			 "HOMO_LUMO_gap": 0.16794, 
			 "cosmo_polarized_energy": -14.08, 
			 "cosmo_cavitation_energy": 25.33, 
			 "cosmo_dispersion_energy": -18.92, 
			 "cosmo_repulsion_energy": 1.52, 
			 "cosmo_total_nonelectrostatic_energy": 7.93, 
			 "SMD_solvation_energy": 6.29 
		},
		"coords": [
			{
				"x": -3.8707867725,
				"y": -0.9298803984,
				"z": -0.2632500466,
				"element": "C" 
			},
			{
				"x": -2.5394368887,
				"y": -1.02330217,
				"z": 0.2203490647,
				"element": "O" 
			},
			{
				"x": -1.6813966406,
				"y": 0.0122840501,
				"z": -0.0307234842,
				"element": "C" 
			},
			{
				"x": -2.008414806,
				"y": 1.1700190928,
				"z": -0.7353466175,
				"element": "C" 
			},
			{
				"x": -1.0467913565,
				"y": 2.1608787387,
				"z": -0.9467124092,
				"element": "C" 
			},
			{
				"x": 0.2475149425,
				"y": 1.9832383339,
				"z": -0.4513946972,
				"element": "C" 
			},
			{
				"x": 0.5745772379,
				"y": 0.8172091371,
				"z": 0.2587747913,
				"element": "C" 
			},
			{
				"x": -0.372514301,
				"y": -0.1782784258,
				"z": 0.4846706459,
				"element": "C" 
			},
			{
				"x": -0.0997185689,
				"y": -1.3183542823,
				"z": 1.2347217229,
				"element": "N" 
			},
			{
				"x": 1.3158805068,
				"y": 2.9895400242,
				"z": -0.6474327253,
				"element": "C" 
			},
			{
				"x": 0.90223172,
				"y": 4.0862627694,
				"z": -1.337495205,
				"element": "O" 
			},
			{
				"x": 2.4613981578,
				"y": 2.8846216675,
				"z": -0.2485803062,
				"element": "O" 
			},
			{
				"x": -3.8970271879,
				"y": -0.8522511858,
				"z": -1.3575002734,
				"element": "H" 
			},
			{
				"x": -4.3951196562,
				"y": -0.0698782721,
				"z": 0.1712831326,
				"element": "H" 
			},
			{
				"x": -4.3701939475,
				"y": -1.8494197479,
				"z": 0.0454665725,
				"element": "H" 
			},
			{
				"x": -3.0097629666,
				"y": 1.3069641736,
				"z": -1.1261442032,
				"element": "H" 
			},
			{
				"x": -1.30182868,
				"y": 3.0599047997,
				"z": -1.4942282088,
				"element": "H" 
			},
			{
				"x": 1.5864136408,
				"y": 0.7068047191,
				"z": 0.6361464334,
				"element": "H" 
			},
			{
				"x": 0.8714718473,
				"y": -1.5943851858,
				"z": 1.2581442396,
				"element": "H" 
			},
			{
				"x": -0.7319712576,
				"y": -2.0881634952,
				"z": 1.0668992738,
				"element": "H" 
			},
			{
				"x": 1.6828749771,
				"y": 4.6603856574,
				"z": -1.3973477001,
				"element": "H" 
			}
		],
		 "valence_orbital": [ 
			{
				"type": "occ",
				"energy": -0.31212,
				"method": "rhf"
			},
			{
				"type": "occ",
				"energy": -0.30364,
				"method": "rhf"
			},
			{
				"type": "occ",
				"energy": -0.26474,
				"method": "rhf"
			},
			{
				"type": "occ",
				"energy": -0.23701,
				"method": "rhf"
			},
			{
				"type": "occ",
				"energy": -0.19781,
				"method": "rhf"
			},
			{
				"type": "unocc",
				"energy": -0.02987,
				"method": "rhf"
			},
			{
				"type": "unocc",
				"energy": 0.00963,
				"method": "rhf"
			},
			{
				"type": "unocc",
				"energy": 0.07712,
				"method": "rhf"
			},
			{
				"type": "unocc",
				"energy": 0.08244,
				"method": "rhf"
			},
			{
				"type": "unocc",
				"energy": 0.09013,
				"method": "rhf"
			}
		],
		"cosmo_sigma_profile": { 
			"-0.025": 0.0,
			"-0.024": 0.0,
			"-0.023": 0.0,
			"-0.022": 0.0,
			"-0.021": 0.0,
			"-0.02": 0.0,
			"-0.019": 0.0,
			"-0.018": 0.246492223852,
			"-0.017": 0.846435847568,
			"-0.016": 1.02518784926,
			"-0.015": 0.598783972749,
			"-0.014": 1.09614605001,
			"-0.013": 1.19442348982,
			"-0.012": 1.73261735062,
			"-0.011": 2.63444223071,
			"-0.01": 3.25293909247,
			"-0.009": 2.72548197313,
			"-0.008": 2.98691374561,
			"-0.007": 4.53706897359,
			"-0.006": 11.5583310034,
			"-0.005": 14.5733791537,
			"-0.004": 14.361764099,
			"-0.003": 11.998165195,
			"-0.002": 9.40765499209,
			"-0.001": 8.75048907128,
			"0.0": 10.2173228926,
			"0.001": 9.53810047527,
			"0.002": 12.4285755179,
			"0.003": 15.2905878977,
			"0.004": 15.986922562,
			"0.005": 11.8504168392,
			"0.006": 5.61240452903,
			"0.007": 5.1598842727,
			"0.008": 4.78446193412,
			"0.009": 2.5996380112,
			"0.01": 1.95544863483,
			"0.011": 3.11134691282,
			"0.012": 6.4608818008,
			"0.013": 1.82224480452,
			"0.014": 0.488883268971,
			"0.015": 0.0924588235186,
			"0.016": 0.0,
			"0.017": 0.0,
			"0.018": 0.0,
			"0.019": 0.0,
			"0.02": 0.0,
			"0.021": 0.0,
			"0.022": 0.0,
			"0.023": 0.0,
			"0.024": 0.0,
			"0.025": 0.0
		}
	}
}
