{
	 "smiles": "COC1=CC=C(C=C1)C(=O)C1=CC=CO1", 
	 "Tm": 336.15, 
	 "num_atms": 25, 
	 "gaussian": { 
		 "optdone": 1, 
		 "sigma_profile": "yes", 
		 "theory": "DFT", 
		 "functional": "B3LYP", 
		 "basiset": "6-31G**", 
		 "properties": { 
			 "R2extent": 4288.2253, 
			 "electric_dipole_moment_norm": 4.33882776104, 
			 "electric_quadrupole_moment_norm": 13.0973620897, 
			 "total_energy": -688.937154576, 
			 "HOMO_LUMO_gap": 0.16481, 
			 "cosmo_polarized_energy": -11.38, 
			 "cosmo_cavitation_energy": 29.85, 
			 "cosmo_dispersion_energy": -21.99, 
			 "cosmo_repulsion_energy": 1.69, 
			 "cosmo_total_nonelectrostatic_energy": 9.55, 
			 "SMD_solvation_energy": 7.34 
		},
		"coords": [
			{
				"x": -0.9474316547,
				"y": 1.5540369678,
				"z": 4.4065020627,
				"element": "C" 
			},
			{
				"x": 0.3050853063,
				"y": 1.1859811868,
				"z": 3.8460770504,
				"element": "O" 
			},
			{
				"x": 0.3229904643,
				"y": 0.6238264301,
				"z": 2.6087802909,
				"element": "C" 
			},
			{
				"x": -0.8140775652,
				"y": 0.3775722076,
				"z": 1.8286807654,
				"element": "C" 
			},
			{
				"x": -0.6786584378,
				"y": -0.2114058203,
				"z": 0.5711083892,
				"element": "C" 
			},
			{
				"x": 0.5818966963,
				"y": -0.560951302,
				"z": 0.0655569625,
				"element": "C" 
			},
			{
				"x": 1.7149467329,
				"y": -0.2942895279,
				"z": 0.862492452,
				"element": "C" 
			},
			{
				"x": 1.5938334801,
				"y": 0.281795342,
				"z": 2.1131033963,
				"element": "C" 
			},
			{
				"x": 0.8395272325,
				"y": -1.1658778612,
				"z": -1.2733972828,
				"element": "C" 
			},
			{
				"x": 1.9893158866,
				"y": -1.2569462132,
				"z": -1.7074057716,
				"element": "O" 
			},
			{
				"x": -0.2336723449,
				"y": -1.690313288,
				"z": -2.1428753061,
				"element": "C" 
			},
			{
				"x": -0.1161103022,
				"y": -2.1921849225,
				"z": -3.4149306453,
				"element": "C" 
			},
			{
				"x": -1.4197013259,
				"y": -2.5926302649,
				"z": -3.8242459456,
				"element": "C" 
			},
			{
				"x": -2.2462679471,
				"y": -2.3127158382,
				"z": -2.7739737443,
				"element": "C" 
			},
			{
				"x": -1.5485569468,
				"y": -1.7665672789,
				"z": -1.746396938,
				"element": "O" 
			},
			{
				"x": -0.7249323382,
				"y": 1.9743888125,
				"z": 5.3881733592,
				"element": "H" 
			},
			{
				"x": -1.4558283004,
				"y": 2.3106714581,
				"z": 3.7959224324,
				"element": "H" 
			},
			{
				"x": -1.606711935,
				"y": 0.6852065281,
				"z": 4.5257988907,
				"element": "H" 
			},
			{
				"x": -1.8026921792,
				"y": 0.6399533785,
				"z": 2.185852611,
				"element": "H" 
			},
			{
				"x": -1.5703933137,
				"y": -0.3905609989,
				"z": -0.014316645,
				"element": "H" 
			},
			{
				"x": 2.689365481,
				"y": -0.5542179725,
				"z": 0.463824243,
				"element": "H" 
			},
			{
				"x": 2.4620014521,
				"y": 0.4826101362,
				"z": 2.7322319756,
				"element": "H" 
			},
			{
				"x": 0.8086854355,
				"y": -2.2565893252,
				"z": -3.9675802623,
				"element": "H" 
			},
			{
				"x": -1.7080434585,
				"y": -3.0323913586,
				"z": -4.7679682872,
				"element": "H" 
			},
			{
				"x": -3.305370118,
				"y": -2.4397004755,
				"z": -2.6086140533,
				"element": "H" 
			}
		],
		 "valence_orbital": [ 
			{
				"type": "occ",
				"energy": -0.28809,
				"method": "rhf"
			},
			{
				"type": "occ",
				"energy": -0.25555,
				"method": "rhf"
			},
			{
				"type": "occ",
				"energy": -0.24747,
				"method": "rhf"
			},
			{
				"type": "occ",
				"energy": -0.23584,
				"method": "rhf"
			},
			{
				"type": "occ",
				"energy": -0.22512,
				"method": "rhf"
			},
			{
				"type": "unocc",
				"energy": -0.06031,
				"method": "rhf"
			},
			{
				"type": "unocc",
				"energy": -0.00372,
				"method": "rhf"
			},
			{
				"type": "unocc",
				"energy": 0.00651,
				"method": "rhf"
			},
			{
				"type": "unocc",
				"energy": 0.05018,
				"method": "rhf"
			},
			{
				"type": "unocc",
				"energy": 0.09205,
				"method": "rhf"
			}
		],
		"cosmo_sigma_profile": { 
			"-0.025": 0.0,
			"-0.024": 0.0,
			"-0.023": 0.0,
			"-0.022": 0.0,
			"-0.021": 0.0,
			"-0.02": 0.0,
			"-0.019": 0.0,
			"-0.018": 0.0,
			"-0.017": 0.0,
			"-0.016": 0.0,
			"-0.015": 0.0,
			"-0.014": 0.0,
			"-0.013": 0.0,
			"-0.012": 0.0,
			"-0.011": 0.0,
			"-0.01": 1.00976270198,
			"-0.009": 2.09038006341,
			"-0.008": 3.13260111861,
			"-0.007": 6.96967352298,
			"-0.006": 14.4342969064,
			"-0.005": 19.7629281248,
			"-0.004": 18.8824331454,
			"-0.003": 16.9747741604,
			"-0.002": 13.4712091231,
			"-0.001": 15.3217255348,
			"0.0": 15.1215323113,
			"0.001": 19.0204847936,
			"0.002": 22.6263122197,
			"0.003": 24.0802981289,
			"0.004": 18.3221770217,
			"0.005": 4.86659117289,
			"0.006": 3.53487079907,
			"0.007": 3.2311582598,
			"0.008": 3.30245594415,
			"0.009": 3.04510026885,
			"0.01": 2.35086127646,
			"0.011": 2.26260762395,
			"0.012": 3.95319684996,
			"0.013": 2.32913492579,
			"0.014": 0.0,
			"0.015": 0.0,
			"0.016": 0.0,
			"0.017": 0.0,
			"0.018": 0.0,
			"0.019": 0.0,
			"0.02": 0.0,
			"0.021": 0.0,
			"0.022": 0.0,
			"0.023": 0.0,
			"0.024": 0.0,
			"0.025": 0.0
		}
	}
}
