{
	 "smiles": "ClS(=O)(=O)C1=CSC(=N1)C1=CC(Br)=CC=C1", 
	 "Tm": 368.15, 
	 "num_atms": 21, 
	 "gaussian": { 
		 "optdone": 1, 
		 "sigma_profile": "yes", 
		 "theory": "DFT", 
		 "functional": "B3LYP", 
		 "basiset": "6-31G**", 
		 "properties": { 
			 "R2extent": 9287.8172, 
			 "electric_dipole_moment_norm": 4.54798470974, 
			 "electric_quadrupole_moment_norm": 22.649948541, 
			 "total_energy": -4379.05979566, 
			 "HOMO_LUMO_gap": 0.16366, 
			 "cosmo_polarized_energy": -11.63, 
			 "cosmo_cavitation_energy": 34.07, 
			 "cosmo_dispersion_energy": -26.09, 
			 "cosmo_repulsion_energy": 1.95, 
			 "cosmo_total_nonelectrostatic_energy": 9.94, 
			 "SMD_solvation_energy": 1.95 
		},
		"coords": [
			{
				"x": 1.4194626747,
				"y": 2.0367744566,
				"z": -3.8186277996,
				"element": "Cl" 
			},
			{
				"x": 2.5932930842,
				"y": 0.3814866345,
				"z": -3.2012205523,
				"element": "S" 
			},
			{
				"x": 3.766736844,
				"y": 0.9264334644,
				"z": -2.5379307156,
				"element": "O" 
			},
			{
				"x": 2.6851370127,
				"y": -0.5217324487,
				"z": -4.3419421341,
				"element": "O" 
			},
			{
				"x": 1.5083300403,
				"y": -0.3775286679,
				"z": -2.0054476322,
				"element": "C" 
			},
			{
				"x": 0.9063339975,
				"y": -1.582737092,
				"z": -2.2350154058,
				"element": "C" 
			},
			{
				"x": -0.0167172489,
				"y": -2.0028018393,
				"z": -0.8409191873,
				"element": "S" 
			},
			{
				"x": 0.4905031623,
				"y": -0.4867482711,
				"z": -0.067472382,
				"element": "C" 
			},
			{
				"x": 1.2831717266,
				"y": 0.2358161635,
				"z": -0.8152510514,
				"element": "N" 
			},
			{
				"x": 0.0594419593,
				"y": -0.0984675501,
				"z": 1.2811220825,
				"element": "C" 
			},
			{
				"x": -0.8158284427,
				"y": -0.8989342916,
				"z": 2.0313997246,
				"element": "C" 
			},
			{
				"x": -1.1967172448,
				"y": -0.489996342,
				"z": 3.305216279,
				"element": "C" 
			},
			{
				"x": -2.3878319982,
				"y": -1.5857775011,
				"z": 4.3168394899,
				"element": "Br" 
			},
			{
				"x": -0.7265335519,
				"y": 0.7022988122,
				"z": 3.8546238083,
				"element": "C" 
			},
			{
				"x": 0.1440014559,
				"y": 1.4944768354,
				"z": 3.1024625458,
				"element": "C" 
			},
			{
				"x": 0.5386912975,
				"y": 1.1050179893,
				"z": 1.8264915822,
				"element": "C" 
			},
			{
				"x": 0.9672940878,
				"y": -2.2071635078,
				"z": -3.113812509,
				"element": "H" 
			},
			{
				"x": -1.2031584935,
				"y": -1.83158637,
				"z": 1.6355373433,
				"element": "H" 
			},
			{
				"x": -1.0352327198,
				"y": 1.0033747088,
				"z": 4.8489747566,
				"element": "H" 
			},
			{
				"x": 0.5160246454,
				"y": 2.4243431869,
				"z": 3.5212745768,
				"element": "H" 
			},
			{
				"x": 1.2146977115,
				"y": 1.7152516298,
				"z": 1.2389971804,
				"element": "H" 
			}
		],
		 "valence_orbital": [ 
			{
				"type": "occ",
				"energy": -0.31599,
				"method": "rhf"
			},
			{
				"type": "occ",
				"energy": -0.30989,
				"method": "rhf"
			},
			{
				"type": "occ",
				"energy": -0.30375,
				"method": "rhf"
			},
			{
				"type": "occ",
				"energy": -0.27049,
				"method": "rhf"
			},
			{
				"type": "occ",
				"energy": -0.25673,
				"method": "rhf"
			},
			{
				"type": "unocc",
				"energy": -0.09307,
				"method": "rhf"
			},
			{
				"type": "unocc",
				"energy": -0.08566,
				"method": "rhf"
			},
			{
				"type": "unocc",
				"energy": -0.03833,
				"method": "rhf"
			},
			{
				"type": "unocc",
				"energy": -0.02969,
				"method": "rhf"
			},
			{
				"type": "unocc",
				"energy": -0.01883,
				"method": "rhf"
			}
		],
		"cosmo_sigma_profile": { 
			"-0.025": 0.0,
			"-0.024": 0.0,
			"-0.023": 0.0,
			"-0.022": 0.0,
			"-0.021": 0.0,
			"-0.02": 0.0,
			"-0.019": 0.0,
			"-0.018": 0.0,
			"-0.017": 0.0,
			"-0.016": 0.0,
			"-0.015": 0.0,
			"-0.014": 0.0,
			"-0.013": 0.0311655522681,
			"-0.012": 1.26616019075,
			"-0.011": 1.74986448357,
			"-0.01": 1.52368140197,
			"-0.009": 2.72362032764,
			"-0.008": 4.72222518354,
			"-0.007": 8.40758304,
			"-0.006": 10.7647712231,
			"-0.005": 13.1359587799,
			"-0.004": 14.78085398,
			"-0.003": 21.5707449666,
			"-0.002": 20.4592130941,
			"-0.001": 22.0520076783,
			"0.0": 22.6566944981,
			"0.001": 30.2778663706,
			"0.002": 27.8404047617,
			"0.003": 28.6831886051,
			"0.004": 16.2492653123,
			"0.005": 5.78005189698,
			"0.006": 4.35328949463,
			"0.007": 9.82943925304,
			"0.008": 11.7952755559,
			"0.009": 3.20363348677,
			"0.01": 0.0,
			"0.011": 0.0,
			"0.012": 0.0,
			"0.013": 0.0,
			"0.014": 0.0,
			"0.015": 0.0,
			"0.016": 0.0,
			"0.017": 0.0,
			"0.018": 0.0,
			"0.019": 0.0,
			"0.02": 0.0,
			"0.021": 0.0,
			"0.022": 0.0,
			"0.023": 0.0,
			"0.024": 0.0,
			"0.025": 0.0
		}
	}
}
