{
	 "smiles": "C(C1=CC=CC=C1)C1=CC=C(C=C1)C1=CC=CC=C1", 
	 "Tm": 358.65, 
	 "num_atms": 35, 
	 "gaussian": { 
		 "optdone": 1, 
		 "sigma_profile": "yes", 
		 "theory": "DFT", 
		 "functional": "B3LYP", 
		 "basiset": "6-31G**", 
		 "properties": { 
			 "R2extent": 7893.0548, 
			 "electric_dipole_moment_norm": 0.148965130148, 
			 "electric_quadrupole_moment_norm": 5.60266904877, 
			 "total_energy": -733.682028091, 
			 "HOMO_LUMO_gap": 0.19164, 
			 "cosmo_polarized_energy": -7.36, 
			 "cosmo_cavitation_energy": 38.72, 
			 "cosmo_dispersion_energy": -27.52, 
			 "cosmo_repulsion_energy": 2.1, 
			 "cosmo_total_nonelectrostatic_energy": 13.31, 
			 "SMD_solvation_energy": 5.99 
		},
		"coords": [
			{
				"x": -2.5855300029,
				"y": -0.3810905598,
				"z": 0.9542975303,
				"element": "C" 
			},
			{
				"x": -2.6651156828,
				"y": 0.016244048,
				"z": 2.4198708715,
				"element": "C" 
			},
			{
				"x": -3.1259343885,
				"y": -0.8860070979,
				"z": 3.3854308624,
				"element": "C" 
			},
			{
				"x": -3.218307961,
				"y": -0.5149407361,
				"z": 4.7295316524,
				"element": "C" 
			},
			{
				"x": -2.8486903034,
				"y": 0.7695108774,
				"z": 5.1268979792,
				"element": "C" 
			},
			{
				"x": -2.3850712831,
				"y": 1.6790244218,
				"z": 4.1720980451,
				"element": "C" 
			},
			{
				"x": -2.2930507812,
				"y": 1.3042789735,
				"z": 2.8328610098,
				"element": "C" 
			},
			{
				"x": -1.2088288466,
				"y": -0.2259781344,
				"z": 0.3301803195,
				"element": "C" 
			},
			{
				"x": -0.0909930579,
				"y": -0.8695399,
				"z": 0.8808168977,
				"element": "C" 
			},
			{
				"x": 1.1667486556,
				"y": -0.7474141414,
				"z": 0.2988742756,
				"element": "C" 
			},
			{
				"x": 1.3610099896,
				"y": 0.0269371426,
				"z": -0.859231895,
				"element": "C" 
			},
			{
				"x": 0.2415064159,
				"y": 0.6721684313,
				"z": -1.4061965167,
				"element": "C" 
			},
			{
				"x": -1.0180774824,
				"y": 0.5471953545,
				"z": -0.8201140574,
				"element": "C" 
			},
			{
				"x": 2.7039146639,
				"y": 0.1575819538,
				"z": -1.4796292947,
				"element": "C" 
			},
			{
				"x": 3.1270237197,
				"y": 1.3759531163,
				"z": -2.0384406354,
				"element": "C" 
			},
			{
				"x": 4.3867867629,
				"y": 1.4981915914,
				"z": -2.623086062,
				"element": "C" 
			},
			{
				"x": 5.2543912174,
				"y": 0.4049198583,
				"z": -2.6603062502,
				"element": "C" 
			},
			{
				"x": 4.8491918505,
				"y": -0.8117037052,
				"z": -2.1080651845,
				"element": "C" 
			},
			{
				"x": 3.5884004449,
				"y": -0.9338970495,
				"z": -1.5255842957,
				"element": "C" 
			},
			{
				"x": -2.9139751563,
				"y": -1.4234929908,
				"z": 0.8554000478,
				"element": "H" 
			},
			{
				"x": -3.3016566727,
				"y": 0.2165238537,
				"z": 0.376333906,
				"element": "H" 
			},
			{
				"x": -3.418679084,
				"y": -1.8885989327,
				"z": 3.0822905552,
				"element": "H" 
			},
			{
				"x": -3.5780672162,
				"y": -1.2310662085,
				"z": 5.4632397275,
				"element": "H" 
			},
			{
				"x": -2.9189245766,
				"y": 1.061173239,
				"z": 6.1709056116,
				"element": "H" 
			},
			{
				"x": -2.0935092321,
				"y": 2.6816555186,
				"z": 4.4727114593,
				"element": "H" 
			},
			{
				"x": -1.9224080399,
				"y": 2.0134352494,
				"z": 2.0971182602,
				"element": "H" 
			},
			{
				"x": -0.2071140305,
				"y": -1.4596506887,
				"z": 1.7862353027,
				"element": "H" 
			},
			{
				"x": 2.0185936189,
				"y": -1.236759127,
				"z": 0.7621762639,
				"element": "H" 
			},
			{
				"x": 0.351895644,
				"y": 1.2581799337,
				"z": -2.3140045397,
				"element": "H" 
			},
			{
				"x": -1.869152739,
				"y": 1.0503400071,
				"z": -1.2731960959,
				"element": "H" 
			},
			{
				"x": 2.4711145597,
				"y": 2.2402651013,
				"z": -1.9902433863,
				"element": "H" 
			},
			{
				"x": 4.6947622525,
				"y": 2.4523002504,
				"z": -3.0417963871,
				"element": "H" 
			},
			{
				"x": 6.2363170997,
				"y": 0.5001603952,
				"z": -3.114735063,
				"element": "H" 
			},
			{
				"x": 5.5127205397,
				"y": -1.6715130525,
				"z": -2.1386639292,
				"element": "H" 
			},
			{
				"x": 3.273309102,
				"y": -1.892286993,
				"z": -1.1233769849,
				"element": "H" 
			}
		],
		 "valence_orbital": [ 
			{
				"type": "occ",
				"energy": -0.2493,
				"method": "rhf"
			},
			{
				"type": "occ",
				"energy": -0.24799,
				"method": "rhf"
			},
			{
				"type": "occ",
				"energy": -0.24642,
				"method": "rhf"
			},
			{
				"type": "occ",
				"energy": -0.23929,
				"method": "rhf"
			},
			{
				"type": "occ",
				"energy": -0.2171,
				"method": "rhf"
			},
			{
				"type": "unocc",
				"energy": -0.02546,
				"method": "rhf"
			},
			{
				"type": "unocc",
				"energy": -0.00415,
				"method": "rhf"
			},
			{
				"type": "unocc",
				"energy": -0.00074,
				"method": "rhf"
			},
			{
				"type": "unocc",
				"energy": 0.00093,
				"method": "rhf"
			},
			{
				"type": "unocc",
				"energy": 0.00768,
				"method": "rhf"
			}
		],
		"cosmo_sigma_profile": { 
			"-0.025": 0.0,
			"-0.024": 0.0,
			"-0.023": 0.0,
			"-0.022": 0.0,
			"-0.021": 0.0,
			"-0.02": 0.0,
			"-0.019": 0.0,
			"-0.018": 0.0,
			"-0.017": 0.0,
			"-0.016": 0.0,
			"-0.015": 0.0,
			"-0.014": 0.0,
			"-0.013": 0.0,
			"-0.012": 0.0,
			"-0.011": 0.0,
			"-0.01": 0.0,
			"-0.009": 0.0,
			"-0.008": 0.0,
			"-0.007": 0.0,
			"-0.006": 5.7163628257,
			"-0.005": 31.104731532,
			"-0.004": 35.0856775448,
			"-0.003": 33.8473417116,
			"-0.002": 24.3679248136,
			"-0.001": 24.4795203412,
			"0.0": 18.2025442146,
			"0.001": 19.2846385173,
			"0.002": 20.0755272482,
			"0.003": 23.2811452074,
			"0.004": 24.0075536163,
			"0.005": 26.3217243827,
			"0.006": 21.5634142557,
			"0.007": 2.29451364185,
			"0.008": 0.0,
			"0.009": 0.0,
			"0.01": 0.0,
			"0.011": 0.0,
			"0.012": 0.0,
			"0.013": 0.0,
			"0.014": 0.0,
			"0.015": 0.0,
			"0.016": 0.0,
			"0.017": 0.0,
			"0.018": 0.0,
			"0.019": 0.0,
			"0.02": 0.0,
			"0.021": 0.0,
			"0.022": 0.0,
			"0.023": 0.0,
			"0.024": 0.0,
			"0.025": 0.0
		}
	}
}
