{
	 "smiles": "C1=CC=C(C=C1)C(C1=CC=CC=C1)(C1=CC=CC=C1)C1=CC=CC=C1", 
	 "Tm": 555.15, 
	 "num_atms": 45, 
	 "gaussian": { 
		 "optdone": 1, 
		 "sigma_profile": "yes", 
		 "theory": "DFT", 
		 "functional": "B3LYP", 
		 "basiset": "6-31G**", 
		 "properties": { 
			 "R2extent": 7328.769, 
			 "electric_dipole_moment_norm": 0.000331662479036, 
			 "electric_quadrupole_moment_norm": 0.913639053456, 
			 "total_energy": -964.703134952, 
			 "HOMO_LUMO_gap": 0.21303, 
			 "cosmo_polarized_energy": -7.58, 
			 "cosmo_cavitation_energy": 45.67, 
			 "cosmo_dispersion_energy": -30.71, 
			 "cosmo_repulsion_energy": 2.35, 
			 "cosmo_total_nonelectrostatic_energy": 17.32, 
			 "SMD_solvation_energy": 7.63 
		},
		"coords": [
			{
				"x": -1.3254917805,
				"y": 3.9271568547,
				"z": -0.7129211962,
				"element": "C" 
			},
			{
				"x": -1.441722417,
				"y": 2.9269477167,
				"z": -1.673942051,
				"element": "C" 
			},
			{
				"x": -1.1406592808,
				"y": 1.5971326699,
				"z": -1.357993043,
				"element": "C" 
			},
			{
				"x": -0.7159957356,
				"y": 1.2371897246,
				"z": -0.07369188,
				"element": "C" 
			},
			{
				"x": -0.5835893066,
				"y": 2.2647724266,
				"z": 0.8797465617,
				"element": "C" 
			},
			{
				"x": -0.8913461268,
				"y": 3.5871907959,
				"z": 0.5712295033,
				"element": "C" 
			},
			{
				"x": -0.3382924746,
				"y": -0.2163049983,
				"z": 0.3393011939,
				"element": "C" 
			},
			{
				"x": 1.0995350111,
				"y": -0.1224385973,
				"z": 0.9305990804,
				"element": "C" 
			},
			{
				"x": 2.1025378768,
				"y": 0.5054352309,
				"z": 0.1675439942,
				"element": "C" 
			},
			{
				"x": 3.4046883799,
				"y": 0.6344669841,
				"z": 0.6434196421,
				"element": "C" 
			},
			{
				"x": 3.7408657904,
				"y": 0.1536531481,
				"z": 1.9118466982,
				"element": "C" 
			},
			{
				"x": 2.7563427822,
				"y": -0.4505890584,
				"z": 2.6884214305,
				"element": "C" 
			},
			{
				"x": 1.4506212231,
				"y": -0.5872885469,
				"z": 2.2033860865,
				"element": "C" 
			},
			{
				"x": -0.3918078145,
				"y": -1.1865980723,
				"z": -0.8779008998,
				"element": "C" 
			},
			{
				"x": 0.7333227327,
				"y": -1.8158862333,
				"z": -1.4232175382,
				"element": "C" 
			},
			{
				"x": 0.6160615137,
				"y": -2.6981730738,
				"z": -2.5033570439,
				"element": "C" 
			},
			{
				"x": -0.6287577268,
				"y": -2.9710890543,
				"z": -3.0631881674,
				"element": "C" 
			},
			{
				"x": -1.7641373353,
				"y": -2.3607178479,
				"z": -2.523301891,
				"element": "C" 
			},
			{
				"x": -1.6452040163,
				"y": -1.4907798387,
				"z": -1.4426783018,
				"element": "C" 
			},
			{
				"x": -1.3450228417,
				"y": -0.7932989353,
				"z": 1.3782411475,
				"element": "C" 
			},
			{
				"x": -1.2264726415,
				"y": -2.145413417,
				"z": 1.7527185988,
				"element": "C" 
			},
			{
				"x": -2.1023264618,
				"y": -2.7266368281,
				"z": 2.6658214599,
				"element": "C" 
			},
			{
				"x": -3.1407660759,
				"y": -1.9741560672,
				"z": 3.2212574382,
				"element": "C" 
			},
			{
				"x": -3.2854150787,
				"y": -0.6415726682,
				"z": 2.8460574593,
				"element": "C" 
			},
			{
				"x": -2.3976228617,
				"y": -0.0576349984,
				"z": 1.9351821145,
				"element": "C" 
			},
			{
				"x": -1.5600576558,
				"y": 4.9587918688,
				"z": -0.9591570092,
				"element": "H" 
			},
			{
				"x": -1.7643630171,
				"y": 3.1730661033,
				"z": -2.6819136504,
				"element": "H" 
			},
			{
				"x": -1.2324832179,
				"y": 0.844710511,
				"z": -2.1311857557,
				"element": "H" 
			},
			{
				"x": -0.2249428215,
				"y": 2.0225797937,
				"z": 1.8753201371,
				"element": "H" 
			},
			{
				"x": -0.7824020789,
				"y": 4.3546135029,
				"z": 1.3326513031,
				"element": "H" 
			},
			{
				"x": 1.8534494189,
				"y": 0.9061237698,
				"z": -0.8101408535,
				"element": "H" 
			},
			{
				"x": 4.1554064456,
				"y": 1.1201924296,
				"z": 0.0261185544,
				"element": "H" 
			},
			{
				"x": 4.7540739989,
				"y": 0.2585210113,
				"z": 2.2891249004,
				"element": "H" 
			},
			{
				"x": 2.9944245099,
				"y": -0.818296931,
				"z": 3.6827992514,
				"element": "H" 
			},
			{
				"x": 0.7061376827,
				"y": -1.0535035226,
				"z": 2.8364594724,
				"element": "H" 
			},
			{
				"x": 1.7150631582,
				"y": -1.632510917,
				"z": -1.0049656682,
				"element": "H" 
			},
			{
				"x": 1.5091297985,
				"y": -3.1734547144,
				"z": -2.8998600263,
				"element": "H" 
			},
			{
				"x": -0.7184202898,
				"y": -3.6554748261,
				"z": -3.9019384796,
				"element": "H" 
			},
			{
				"x": -2.7465488849,
				"y": -2.569504936,
				"z": -2.937843238,
				"element": "H" 
			},
			{
				"x": -2.5402419928,
				"y": -1.0442567143,
				"z": -1.0208086216,
				"element": "H" 
			},
			{
				"x": -0.4402351339,
				"y": -2.7512966953,
				"z": 1.3131887084,
				"element": "H" 
			},
			{
				"x": -1.9790693743,
				"y": -3.7717354649,
				"z": 2.9362703665,
				"element": "H" 
			},
			{
				"x": -3.8300640387,
				"y": -2.4260294842,
				"z": 3.9287903314,
				"element": "H" 
			},
			{
				"x": -4.0946895121,
				"y": -0.043628923,
				"z": 3.2561996605,
				"element": "H" 
			},
			{
				"x": -2.5436123288,
				"y": 0.9786268221,
				"z": 1.6572102199,
				"element": "H" 
			}
		],
		 "valence_orbital": [ 
			{
				"type": "occ",
				"energy": -0.24532,
				"method": "rhf"
			},
			{
				"type": "occ",
				"energy": -0.24531,
				"method": "rhf"
			},
			{
				"type": "occ",
				"energy": -0.2414,
				"method": "rhf"
			},
			{
				"type": "occ",
				"energy": -0.22867,
				"method": "rhf"
			},
			{
				"type": "occ",
				"energy": -0.22867,
				"method": "rhf"
			},
			{
				"type": "unocc",
				"energy": -0.01564,
				"method": "rhf"
			},
			{
				"type": "unocc",
				"energy": -0.00633,
				"method": "rhf"
			},
			{
				"type": "unocc",
				"energy": -0.00427,
				"method": "rhf"
			},
			{
				"type": "unocc",
				"energy": 7e-05,
				"method": "rhf"
			},
			{
				"type": "unocc",
				"energy": 8e-05,
				"method": "rhf"
			}
		],
		"cosmo_sigma_profile": { 
			"-0.025": 0.0,
			"-0.024": 0.0,
			"-0.023": 0.0,
			"-0.022": 0.0,
			"-0.021": 0.0,
			"-0.02": 0.0,
			"-0.019": 0.0,
			"-0.018": 0.0,
			"-0.017": 0.0,
			"-0.016": 0.0,
			"-0.015": 0.0,
			"-0.014": 0.0,
			"-0.013": 0.0,
			"-0.012": 0.0,
			"-0.011": 0.0,
			"-0.01": 0.0,
			"-0.009": 0.0,
			"-0.008": 0.0,
			"-0.007": 0.0,
			"-0.006": 8.3762743708,
			"-0.005": 27.7346601493,
			"-0.004": 36.5226273057,
			"-0.003": 39.566250556,
			"-0.002": 29.0267678058,
			"-0.001": 33.4876300319,
			"0.0": 28.5776004727,
			"0.001": 30.543921023,
			"0.002": 26.9852541406,
			"0.003": 27.3294657689,
			"0.004": 27.7551854078,
			"0.005": 30.8291270978,
			"0.006": 18.5317500083,
			"0.007": 0.351925729254,
			"0.008": 0.0,
			"0.009": 0.0,
			"0.01": 0.0,
			"0.011": 0.0,
			"0.012": 0.0,
			"0.013": 0.0,
			"0.014": 0.0,
			"0.015": 0.0,
			"0.016": 0.0,
			"0.017": 0.0,
			"0.018": 0.0,
			"0.019": 0.0,
			"0.02": 0.0,
			"0.021": 0.0,
			"0.022": 0.0,
			"0.023": 0.0,
			"0.024": 0.0,
			"0.025": 0.0
		}
	}
}
