{
	 "smiles": "OC(=O)C(CC1=CC=C(O)C=C1)NC(=O)C1=NC=CN=C1", 
	 "Tm": 508.15, 
	 "num_atms": 34, 
	 "gaussian": { 
		 "optdone": 1, 
		 "sigma_profile": "yes", 
		 "theory": "DFT", 
		 "functional": "B3LYP", 
		 "basiset": "6-31G**", 
		 "properties": { 
			 "R2extent": 6900.5398, 
			 "electric_dipole_moment_norm": 1.97864617858, 
			 "electric_quadrupole_moment_norm": 31.1874809635, 
			 "total_energy": -1006.47497737, 
			 "HOMO_LUMO_gap": 0.13823, 
			 "cosmo_polarized_energy": -25.7, 
			 "cosmo_cavitation_energy": 38.92, 
			 "cosmo_dispersion_energy": -26.53, 
			 "cosmo_repulsion_energy": 2.01, 
			 "cosmo_total_nonelectrostatic_energy": 14.4, 
			 "SMD_solvation_energy": 7.17 
		},
		"coords": [
			{
				"x": -1.1393277902,
				"y": 0.3633325813,
				"z": 3.7303493602,
				"element": "O" 
			},
			{
				"x": 0.0557731008,
				"y": 0.1976238044,
				"z": 3.1292752904,
				"element": "C" 
			},
			{
				"x": 1.0943663266,
				"y": 0.4095657211,
				"z": 3.7055237617,
				"element": "O" 
			},
			{
				"x": -0.0079313638,
				"y": -0.4437493729,
				"z": 1.7277721083,
				"element": "C" 
			},
			{
				"x": 1.2600723367,
				"y": -0.1799509041,
				"z": 0.8891484069,
				"element": "C" 
			},
			{
				"x": 1.4110810717,
				"y": -1.1344868878,
				"z": -0.2752744973,
				"element": "C" 
			},
			{
				"x": 0.8917788315,
				"y": -0.8377151302,
				"z": -1.544774726,
				"element": "C" 
			},
			{
				"x": 1.0047396349,
				"y": -1.7312524462,
				"z": -2.6064480471,
				"element": "C" 
			},
			{
				"x": 1.6505604681,
				"y": -2.9575616497,
				"z": -2.4166140635,
				"element": "C" 
			},
			{
				"x": 1.7381727759,
				"y": -3.7979314815,
				"z": -3.4899750729,
				"element": "O" 
			},
			{
				"x": 2.1788841305,
				"y": -3.2733591449,
				"z": -1.1604014293,
				"element": "C" 
			},
			{
				"x": 2.0568749414,
				"y": -2.366499378,
				"z": -0.1080569456,
				"element": "C" 
			},
			{
				"x": -1.2960862418,
				"y": -0.2042179826,
				"z": 1.0430606825,
				"element": "N" 
			},
			{
				"x": -1.7511520101,
				"y": 0.8865510252,
				"z": 0.3101630295,
				"element": "C" 
			},
			{
				"x": -2.6063882581,
				"y": 0.7259118707,
				"z": -0.5525288585,
				"element": "O" 
			},
			{
				"x": -1.270891696,
				"y": 2.2727087972,
				"z": 0.6366089227,
				"element": "C" 
			},
			{
				"x": -0.4113452023,
				"y": 2.4590336415,
				"z": 1.6432512913,
				"element": "N" 
			},
			{
				"x": -0.0417299374,
				"y": 3.7139412144,
				"z": 1.9041081915,
				"element": "C" 
			},
			{
				"x": -0.5314862185,
				"y": 4.7844693424,
				"z": 1.1504623977,
				"element": "C" 
			},
			{
				"x": -1.3891610951,
				"y": 4.6095047282,
				"z": 0.1377513215,
				"element": "N" 
			},
			{
				"x": -1.7598704253,
				"y": 3.3509699348,
				"z": -0.1156571918,
				"element": "C" 
			},
			{
				"x": -1.827982472,
				"y": 0.1881622593,
				"z": 3.0655093812,
				"element": "H" 
			},
			{
				"x": -0.0259064346,
				"y": -1.5211958484,
				"z": 1.941641755,
				"element": "H" 
			},
			{
				"x": 1.2533130604,
				"y": 0.8580211871,
				"z": 0.5471958708,
				"element": "H" 
			},
			{
				"x": 2.1036501135,
				"y": -0.2735624539,
				"z": 1.5783878808,
				"element": "H" 
			},
			{
				"x": 0.3923086745,
				"y": 0.112823158,
				"z": -1.7132487851,
				"element": "H" 
			},
			{
				"x": 0.6039415403,
				"y": -1.4949373698,
				"z": -3.586540277,
				"element": "H" 
			},
			{
				"x": 2.2118315795,
				"y": -4.5982472226,
				"z": -3.2288716038,
				"element": "H" 
			},
			{
				"x": 2.6915324017,
				"y": -4.2209798306,
				"z": -1.0070911219,
				"element": "H" 
			},
			{
				"x": 2.4818834773,
				"y": -2.6220050313,
				"z": 0.8600136721,
				"element": "H" 
			},
			{
				"x": -1.6992856274,
				"y": -1.0382561279,
				"z": 0.6298997712,
				"element": "H" 
			},
			{
				"x": 0.6544745471,
				"y": 3.863663461,
				"z": 2.725449219,
				"element": "H" 
			},
			{
				"x": -0.2240600836,
				"y": 5.8049449773,
				"z": 1.3679759592,
				"element": "H" 
			},
			{
				"x": -2.4599341563,
				"y": 3.1746805584,
				"z": -0.9261656539,
				"element": "H" 
			}
		],
		 "valence_orbital": [ 
			{
				"type": "occ",
				"energy": -0.28874,
				"method": "rhf"
			},
			{
				"type": "occ",
				"energy": -0.26316,
				"method": "rhf"
			},
			{
				"type": "occ",
				"energy": -0.26147,
				"method": "rhf"
			},
			{
				"type": "occ",
				"energy": -0.25782,
				"method": "rhf"
			},
			{
				"type": "occ",
				"energy": -0.22309,
				"method": "rhf"
			},
			{
				"type": "unocc",
				"energy": -0.08486,
				"method": "rhf"
			},
			{
				"type": "unocc",
				"energy": -0.05873,
				"method": "rhf"
			},
			{
				"type": "unocc",
				"energy": -0.01068,
				"method": "rhf"
			},
			{
				"type": "unocc",
				"energy": 0.00418,
				"method": "rhf"
			},
			{
				"type": "unocc",
				"energy": 0.01428,
				"method": "rhf"
			}
		],
		"cosmo_sigma_profile": { 
			"-0.025": 0.0,
			"-0.024": 0.0,
			"-0.023": 0.0,
			"-0.022": 0.0,
			"-0.021": 0.0,
			"-0.02": 0.0,
			"-0.019": 0.0,
			"-0.018": 0.179063174562,
			"-0.017": 1.01280695075,
			"-0.016": 1.37661618972,
			"-0.015": 1.12419766293,
			"-0.014": 2.95445607968,
			"-0.013": 2.73086420798,
			"-0.012": 3.64361298903,
			"-0.011": 2.96776090485,
			"-0.01": 4.71624715666,
			"-0.009": 7.07425356143,
			"-0.008": 10.7310764528,
			"-0.007": 9.64087366964,
			"-0.006": 15.8257146952,
			"-0.005": 16.7721613332,
			"-0.004": 19.0792546733,
			"-0.003": 20.5461824516,
			"-0.002": 21.326995004,
			"-0.001": 17.5899935763,
			"0.0": 14.5945223651,
			"0.001": 12.2117165308,
			"0.002": 13.4718504459,
			"0.003": 12.2047666936,
			"0.004": 15.8055396262,
			"0.005": 14.4947226111,
			"0.006": 13.1376771139,
			"0.007": 7.06913181808,
			"0.008": 5.68834341269,
			"0.009": 7.05306908502,
			"0.01": 8.58261087895,
			"0.011": 10.3751137251,
			"0.012": 11.506143829,
			"0.013": 3.84861363082,
			"0.014": 0.793207192562,
			"0.015": 0.204455552429,
			"0.016": 0.0,
			"0.017": 0.0,
			"0.018": 0.0,
			"0.019": 0.0,
			"0.02": 0.0,
			"0.021": 0.0,
			"0.022": 0.0,
			"0.023": 0.0,
			"0.024": 0.0,
			"0.025": 0.0
		}
	}
}
