{
	 "smiles": "C(P(C1=CC=CC=C1)C1=CC=CC=C1)C1=CC=CC=C1", 
	 "Tm": 348.15, 
	 "num_atms": 37, 
	 "gaussian": { 
		 "optdone": 1, 
		 "sigma_profile": "yes", 
		 "theory": "DFT", 
		 "functional": "B3LYP", 
		 "basiset": "6-31G**", 
		 "properties": { 
			 "R2extent": 6229.9062, 
			 "electric_dipole_moment_norm": 1.27076654819, 
			 "electric_quadrupole_moment_norm": 12.0625563903, 
			 "total_energy": -1075.61961523, 
			 "HOMO_LUMO_gap": 0.1853, 
			 "cosmo_polarized_energy": -8.47, 
			 "cosmo_cavitation_energy": 40.46, 
			 "cosmo_dispersion_energy": -27.94, 
			 "cosmo_repulsion_energy": 2.27, 
			 "cosmo_total_nonelectrostatic_energy": 14.79, 
			 "SMD_solvation_energy": 6.63 
		},
		"coords": [
			{
				"x": 0.6861815289,
				"y": 2.6285743448,
				"z": -0.4768277048,
				"element": "C" 
			},
			{
				"x": 0.3852241309,
				"y": 2.4233760429,
				"z": 1.3934482346,
				"element": "P" 
			},
			{
				"x": -1.2059981266,
				"y": 1.4860011553,
				"z": 1.4768972188,
				"element": "C" 
			},
			{
				"x": -2.2784214616,
				"y": 2.1399648617,
				"z": 2.1060448038,
				"element": "C" 
			},
			{
				"x": -3.5333344772,
				"y": 1.5351116623,
				"z": 2.2037641469,
				"element": "C" 
			},
			{
				"x": -3.7329587171,
				"y": 0.2589491849,
				"z": 1.6769077565,
				"element": "C" 
			},
			{
				"x": -2.6757096042,
				"y": -0.4071082783,
				"z": 1.0517938865,
				"element": "C" 
			},
			{
				"x": -1.4237766619,
				"y": 0.200085112,
				"z": 0.9490484226,
				"element": "C" 
			},
			{
				"x": 1.6799529049,
				"y": 1.190833946,
				"z": 1.8775069141,
				"element": "C" 
			},
			{
				"x": 3.027903049,
				"y": 1.5101299558,
				"z": 1.6258376324,
				"element": "C" 
			},
			{
				"x": 4.0601499353,
				"y": 0.6837051829,
				"z": 2.0668778918,
				"element": "C" 
			},
			{
				"x": 3.7709499044,
				"y": -0.4744120438,
				"z": 2.7928240341,
				"element": "C" 
			},
			{
				"x": 2.442401989,
				"y": -0.7893408838,
				"z": 3.0752884282,
				"element": "C" 
			},
			{
				"x": 1.4075454553,
				"y": 0.033964114,
				"z": 2.624205053,
				"element": "C" 
			},
			{
				"x": 0.514463453,
				"y": 1.4615200408,
				"z": -1.4142857245,
				"element": "C" 
			},
			{
				"x": -0.6739229884,
				"y": 1.3074709787,
				"z": -2.1445159126,
				"element": "C" 
			},
			{
				"x": -0.8485294556,
				"y": 0.2336149919,
				"z": -3.0181931204,
				"element": "C" 
			},
			{
				"x": 0.1650058935,
				"y": -0.7126083943,
				"z": -3.1773493337,
				"element": "C" 
			},
			{
				"x": 1.3546034231,
				"y": -0.5708315909,
				"z": -2.4591813707,
				"element": "C" 
			},
			{
				"x": 1.528929454,
				"y": 0.5060948962,
				"z": -1.589447922,
				"element": "C" 
			},
			{
				"x": 0.0138267714,
				"y": 3.4444532986,
				"z": -0.7624892066,
				"element": "H" 
			},
			{
				"x": 1.7011918698,
				"y": 3.0355459341,
				"z": -0.544298587,
				"element": "H" 
			},
			{
				"x": -2.1232626542,
				"y": 3.1307819713,
				"z": 2.524950223,
				"element": "H" 
			},
			{
				"x": -4.3494733437,
				"y": 2.057877133,
				"z": 2.6945833254,
				"element": "H" 
			},
			{
				"x": -4.7065722406,
				"y": -0.2171030917,
				"z": 1.7544007221,
				"element": "H" 
			},
			{
				"x": -2.8265037874,
				"y": -1.4008502376,
				"z": 0.6391793669,
				"element": "H" 
			},
			{
				"x": -0.6132474249,
				"y": -0.3289872174,
				"z": 0.4602800352,
				"element": "H" 
			},
			{
				"x": 3.2794133336,
				"y": 2.4194164211,
				"z": 1.0850552207,
				"element": "H" 
			},
			{
				"x": 5.0914733972,
				"y": 0.9490580219,
				"z": 1.8507292601,
				"element": "H" 
			},
			{
				"x": 4.5739519256,
				"y": -1.1174316466,
				"z": 3.1413071107,
				"element": "H" 
			},
			{
				"x": 2.2042144273,
				"y": -1.6817248028,
				"z": 3.6478303457,
				"element": "H" 
			},
			{
				"x": 0.3817930041,
				"y": -0.2307233912,
				"z": 2.8568670334,
				"element": "H" 
			},
			{
				"x": -1.4694172256,
				"y": 2.0386652949,
				"z": -2.0258621397,
				"element": "H" 
			},
			{
				"x": -1.7764826263,
				"y": 0.1383280326,
				"z": -3.5753585577,
				"element": "H" 
			},
			{
				"x": 0.0326590974,
				"y": -1.548525815,
				"z": -3.8583178208,
				"element": "H" 
			},
			{
				"x": 2.153511916,
				"y": -1.2972495182,
				"z": -2.5807560508,
				"element": "H" 
			},
			{
				"x": 2.4593639314,
				"y": 0.606374334,
				"z": -1.0389436153,
				"element": "H" 
			}
		],
		 "valence_orbital": [ 
			{
				"type": "occ",
				"energy": -0.25286,
				"method": "rhf"
			},
			{
				"type": "occ",
				"energy": -0.24864,
				"method": "rhf"
			},
			{
				"type": "occ",
				"energy": -0.24205,
				"method": "rhf"
			},
			{
				"type": "occ",
				"energy": -0.23811,
				"method": "rhf"
			},
			{
				"type": "occ",
				"energy": -0.20811,
				"method": "rhf"
			},
			{
				"type": "unocc",
				"energy": -0.02281,
				"method": "rhf"
			},
			{
				"type": "unocc",
				"energy": -0.01113,
				"method": "rhf"
			},
			{
				"type": "unocc",
				"energy": -0.00469,
				"method": "rhf"
			},
			{
				"type": "unocc",
				"energy": 0.00041,
				"method": "rhf"
			},
			{
				"type": "unocc",
				"energy": 0.00405,
				"method": "rhf"
			}
		],
		"cosmo_sigma_profile": { 
			"-0.025": 0.0,
			"-0.024": 0.0,
			"-0.023": 0.0,
			"-0.022": 0.0,
			"-0.021": 0.0,
			"-0.02": 0.0,
			"-0.019": 0.0,
			"-0.018": 0.0,
			"-0.017": 0.0,
			"-0.016": 0.0,
			"-0.015": 0.0,
			"-0.014": 0.0,
			"-0.013": 0.0,
			"-0.012": 0.0,
			"-0.011": 0.0,
			"-0.01": 0.0,
			"-0.009": 0.0,
			"-0.008": 0.113621003547,
			"-0.007": 1.63995361384,
			"-0.006": 11.4167741455,
			"-0.005": 29.838092747,
			"-0.004": 31.6008894735,
			"-0.003": 34.3737424139,
			"-0.002": 24.2506533276,
			"-0.001": 24.149465183,
			"0.0": 23.503389444,
			"0.001": 23.4708168004,
			"0.002": 20.9341429105,
			"0.003": 24.2400013608,
			"0.004": 27.0153582667,
			"0.005": 27.228086137,
			"0.006": 13.6470381531,
			"0.007": 2.03583376307,
			"0.008": 1.00879621443,
			"0.009": 0.657023771211,
			"0.01": 0.533066147907,
			"0.011": 1.04754625385,
			"0.012": 0.556968444264,
			"0.013": 0.619246750039,
			"0.014": 0.537983962654,
			"0.015": 0.00714506101834,
			"0.016": 0.0,
			"0.017": 0.0,
			"0.018": 0.0,
			"0.019": 0.0,
			"0.02": 0.0,
			"0.021": 0.0,
			"0.022": 0.0,
			"0.023": 0.0,
			"0.024": 0.0,
			"0.025": 0.0
		}
	}
}
