{
	 "smiles": "CC1=CC=C(C=C(C#N)C#N)C=C1", 
	 "Tm": 405.15, 
	 "num_atms": 21, 
	 "gaussian": { 
		 "optdone": 1, 
		 "sigma_profile": "yes", 
		 "theory": "DFT", 
		 "functional": "B3LYP", 
		 "basiset": "6-31G**", 
		 "properties": { 
			 "R2extent": 4141.1337, 
			 "electric_dipole_moment_norm": 7.39073260036, 
			 "electric_quadrupole_moment_norm": 22.6367901079, 
			 "total_energy": -533.44723945, 
			 "HOMO_LUMO_gap": 0.14902, 
			 "cosmo_polarized_energy": -12.92, 
			 "cosmo_cavitation_energy": 27.79, 
			 "cosmo_dispersion_energy": -18.96, 
			 "cosmo_repulsion_energy": 1.5, 
			 "cosmo_total_nonelectrostatic_energy": 10.32, 
			 "SMD_solvation_energy": 7.53 
		},
		"coords": [
			{
				"x": -0.1440333236,
				"y": 1.7155329761,
				"z": -2.1747907947,
				"element": "C" 
			},
			{
				"x": -0.060427805,
				"y": 0.6464758377,
				"z": -1.1152211146,
				"element": "C" 
			},
			{
				"x": 1.0341082073,
				"y": 0.5950192234,
				"z": -0.2343042776,
				"element": "C" 
			},
			{
				"x": 1.1232534844,
				"y": -0.3681051072,
				"z": 0.7601824595,
				"element": "C" 
			},
			{
				"x": 0.1033018339,
				"y": -1.3346438882,
				"z": 0.912766355,
				"element": "C" 
			},
			{
				"x": 0.0885890577,
				"y": -2.3866374525,
				"z": 1.9107832622,
				"element": "C" 
			},
			{
				"x": 0.9750312866,
				"y": -2.712149517,
				"z": 2.9009475441,
				"element": "C" 
			},
			{
				"x": 2.1992958011,
				"y": -2.0226304186,
				"z": 3.1750173632,
				"element": "C" 
			},
			{
				"x": 3.1983712321,
				"y": -1.4747654307,
				"z": 3.4128659205,
				"element": "N" 
			},
			{
				"x": 0.6904516447,
				"y": -3.8286698163,
				"z": 3.755518255,
				"element": "C" 
			},
			{
				"x": 0.4538883474,
				"y": -4.7353989537,
				"z": 4.4453685471,
				"element": "N" 
			},
			{
				"x": -0.9927180187,
				"y": -1.2818930873,
				"z": 0.0253409195,
				"element": "C" 
			},
			{
				"x": -1.0713235295,
				"y": -0.3125662089,
				"z": -0.9669272475,
				"element": "C" 
			},
			{
				"x": -0.9222739223,
				"y": 1.4940465912,
				"z": -2.909567081,
				"element": "H" 
			},
			{
				"x": -0.3755389188,
				"y": 2.6902534456,
				"z": -1.7281126188,
				"element": "H" 
			},
			{
				"x": 0.8074396634,
				"y": 1.8242889344,
				"z": -2.7054627343,
				"element": "H" 
			},
			{
				"x": 1.8318626918,
				"y": 1.3263039204,
				"z": -0.334039267,
				"element": "H" 
			},
			{
				"x": 1.9853453419,
				"y": -0.3697296605,
				"z": 1.4149271672,
				"element": "H" 
			},
			{
				"x": -0.7839498589,
				"y": -3.0344997508,
				"z": 1.8661157282,
				"element": "H" 
			},
			{
				"x": -1.7881569549,
				"y": -2.0163179536,
				"z": 0.120904231,
				"element": "H" 
			},
			{
				"x": -1.9266162606,
				"y": -0.2986136834,
				"z": -1.636712617,
				"element": "H" 
			}
		],
		 "valence_orbital": [ 
			{
				"type": "occ",
				"energy": -0.3472,
				"method": "rhf"
			},
			{
				"type": "occ",
				"energy": -0.3389,
				"method": "rhf"
			},
			{
				"type": "occ",
				"energy": -0.31395,
				"method": "rhf"
			},
			{
				"type": "occ",
				"energy": -0.27979,
				"method": "rhf"
			},
			{
				"type": "occ",
				"energy": -0.2518,
				"method": "rhf"
			},
			{
				"type": "unocc",
				"energy": -0.10278,
				"method": "rhf"
			},
			{
				"type": "unocc",
				"energy": -0.02883,
				"method": "rhf"
			},
			{
				"type": "unocc",
				"energy": -0.00701,
				"method": "rhf"
			},
			{
				"type": "unocc",
				"energy": 0.00121,
				"method": "rhf"
			},
			{
				"type": "unocc",
				"energy": 0.03787,
				"method": "rhf"
			}
		],
		"cosmo_sigma_profile": { 
			"-0.025": 0.0,
			"-0.024": 0.0,
			"-0.023": 0.0,
			"-0.022": 0.0,
			"-0.021": 0.0,
			"-0.02": 0.0,
			"-0.019": 0.0,
			"-0.018": 0.0,
			"-0.017": 0.0,
			"-0.016": 0.0,
			"-0.015": 0.0,
			"-0.014": 0.0,
			"-0.013": 0.0,
			"-0.012": 0.0,
			"-0.011": 0.142164632215,
			"-0.01": 3.14322524853,
			"-0.009": 2.88876558223,
			"-0.008": 2.92654856581,
			"-0.007": 4.46495983506,
			"-0.006": 9.3529694766,
			"-0.005": 15.9351384177,
			"-0.004": 19.1956370835,
			"-0.003": 23.6955017615,
			"-0.002": 22.6756334742,
			"-0.001": 18.4038342653,
			"0.0": 15.2958653827,
			"0.001": 11.7168596764,
			"0.002": 14.4518240728,
			"0.003": 14.6467178906,
			"0.004": 4.89307921569,
			"0.005": 4.67929592312,
			"0.006": 4.37290359497,
			"0.007": 5.77593575719,
			"0.008": 6.34309732432,
			"0.009": 5.395747605,
			"0.01": 5.99878372382,
			"0.011": 4.67809051933,
			"0.012": 3.74194164261,
			"0.013": 0.524217161799,
			"0.014": 0.0,
			"0.015": 0.0,
			"0.016": 0.0,
			"0.017": 0.0,
			"0.018": 0.0,
			"0.019": 0.0,
			"0.02": 0.0,
			"0.021": 0.0,
			"0.022": 0.0,
			"0.023": 0.0,
			"0.024": 0.0,
			"0.025": 0.0
		}
	}
}
