{
	 "smiles": "OC(=O)CCNC(=O)C1=CSC=C1", 
	 "Tm": 509.15, 
	 "num_atms": 22, 
	 "gaussian": { 
		 "optdone": 1, 
		 "sigma_profile": "yes", 
		 "theory": "DFT", 
		 "functional": "B3LYP", 
		 "basiset": "6-31G**", 
		 "properties": { 
			 "R2extent": 4947.5879, 
			 "electric_dipole_moment_norm": 4.83922236935, 
			 "electric_quadrupole_moment_norm": 19.1880839721, 
			 "total_energy": -988.895328399, 
			 "HOMO_LUMO_gap": 0.21062, 
			 "cosmo_polarized_energy": -21.88, 
			 "cosmo_cavitation_energy": 28.71, 
			 "cosmo_dispersion_energy": -21.49, 
			 "cosmo_repulsion_energy": 1.67, 
			 "cosmo_total_nonelectrostatic_energy": 8.89, 
			 "SMD_solvation_energy": 6.08 
		},
		"coords": [
			{
				"x": -2.1709013087,
				"y": -2.0751238546,
				"z": -4.0214853997,
				"element": "O" 
			},
			{
				"x": -2.467324396,
				"y": -1.0860998064,
				"z": -3.1369541603,
				"element": "C" 
			},
			{
				"x": -3.4061012539,
				"y": -0.3554830099,
				"z": -3.3389899747,
				"element": "O" 
			},
			{
				"x": -1.5318089679,
				"y": -0.9732079869,
				"z": -1.9435071806,
				"element": "C" 
			},
			{
				"x": -2.0875701426,
				"y": -0.0223853575,
				"z": -0.8778720785,
				"element": "C" 
			},
			{
				"x": -1.1280201063,
				"y": 0.2344195529,
				"z": 0.1902435371,
				"element": "N" 
			},
			{
				"x": -0.8281568501,
				"y": -0.7334341782,
				"z": 1.1118596706,
				"element": "C" 
			},
			{
				"x": -1.2646576184,
				"y": -1.8795151243,
				"z": 1.0105891245,
				"element": "O" 
			},
			{
				"x": 0.0630284975,
				"y": -0.324185934,
				"z": 2.23699855,
				"element": "C" 
			},
			{
				"x": 0.2455687796,
				"y": -1.165427501,
				"z": 3.307212815,
				"element": "C" 
			},
			{
				"x": 1.3026017803,
				"y": -0.4899081885,
				"z": 4.4877426323,
				"element": "S" 
			},
			{
				"x": 1.5235770569,
				"y": 0.9485804298,
				"z": 3.540187243,
				"element": "C" 
			},
			{
				"x": 0.8088212595,
				"y": 0.8956188207,
				"z": 2.3780690823,
				"element": "C" 
			},
			{
				"x": -1.416826178,
				"y": -2.5912679528,
				"z": -3.702401032,
				"element": "H" 
			},
			{
				"x": -1.3611700814,
				"y": -1.9562969833,
				"z": -1.4917733871,
				"element": "H" 
			},
			{
				"x": -0.5586368379,
				"y": -0.6109119438,
				"z": -2.3021057164,
				"element": "H" 
			},
			{
				"x": -3.0026883725,
				"y": -0.4537434405,
				"z": -0.458889616,
				"element": "H" 
			},
			{
				"x": -2.3533620551,
				"y": 0.9298690285,
				"z": -1.3400093014,
				"element": "H" 
			},
			{
				"x": -0.9010513591,
				"y": 1.1934950409,
				"z": 0.4007336644,
				"element": "H" 
			},
			{
				"x": -0.2021070856,
				"y": -2.1403844691,
				"z": 3.4350005239,
				"element": "H" 
			},
			{
				"x": 2.1725108378,
				"y": 1.738174829,
				"z": 3.8924886816,
				"element": "H" 
			},
			{
				"x": 0.8411744019,
				"y": 1.6904180288,
				"z": 1.6408623219,
				"element": "H" 
			}
		],
		 "valence_orbital": [ 
			{
				"type": "occ",
				"energy": -0.27467,
				"method": "rhf"
			},
			{
				"type": "occ",
				"energy": -0.26917,
				"method": "rhf"
			},
			{
				"type": "occ",
				"energy": -0.2611,
				"method": "rhf"
			},
			{
				"type": "occ",
				"energy": -0.25803,
				"method": "rhf"
			},
			{
				"type": "occ",
				"energy": -0.24898,
				"method": "rhf"
			},
			{
				"type": "unocc",
				"energy": -0.03836,
				"method": "rhf"
			},
			{
				"type": "unocc",
				"energy": 0.00013,
				"method": "rhf"
			},
			{
				"type": "unocc",
				"energy": 0.01043,
				"method": "rhf"
			},
			{
				"type": "unocc",
				"energy": 0.01932,
				"method": "rhf"
			},
			{
				"type": "unocc",
				"energy": 0.05747,
				"method": "rhf"
			}
		],
		"cosmo_sigma_profile": { 
			"-0.025": 0.0,
			"-0.024": 0.0,
			"-0.023": 0.0,
			"-0.022": 0.0,
			"-0.021": 0.0,
			"-0.02": 0.0,
			"-0.019": 0.453748289654,
			"-0.018": 1.24773319024,
			"-0.017": 0.948528011397,
			"-0.016": 1.06936627533,
			"-0.015": 1.50635081169,
			"-0.014": 2.87962446688,
			"-0.013": 1.99730589574,
			"-0.012": 3.2102347206,
			"-0.011": 1.94019217181,
			"-0.01": 3.1091216431,
			"-0.009": 3.97576288976,
			"-0.008": 8.36712624789,
			"-0.007": 9.07678146408,
			"-0.006": 10.1271006721,
			"-0.005": 10.0839843542,
			"-0.004": 11.3294021413,
			"-0.003": 11.9360801781,
			"-0.002": 10.7559211189,
			"-0.001": 11.710899062,
			"0.0": 12.4128314906,
			"0.001": 14.2605885771,
			"0.002": 15.6204933447,
			"0.003": 19.7409677464,
			"0.004": 12.6238501654,
			"0.005": 5.86717140345,
			"0.006": 3.85514631436,
			"0.007": 3.20175249979,
			"0.008": 4.43499176998,
			"0.009": 5.07423673904,
			"0.01": 6.45991772458,
			"0.011": 6.54690296384,
			"0.012": 6.79075337445,
			"0.013": 4.96917195728,
			"0.014": 2.87378295866,
			"0.015": 0.0182206276293,
			"0.016": 0.0,
			"0.017": 0.0,
			"0.018": 0.0,
			"0.019": 0.0,
			"0.02": 0.0,
			"0.021": 0.0,
			"0.022": 0.0,
			"0.023": 0.0,
			"0.024": 0.0,
			"0.025": 0.0
		}
	}
}
