{
	 "smiles": "CN1CCC(CC1=O)C(O)=O", 
	 "Tm": 437.15, 
	 "num_atms": 22, 
	 "gaussian": { 
		 "optdone": 1, 
		 "sigma_profile": "yes", 
		 "theory": "DFT", 
		 "functional": "B3LYP", 
		 "basiset": "6-31G**", 
		 "properties": { 
			 "R2extent": 2534.3682, 
			 "electric_dipole_moment_norm": 4.84604322927, 
			 "electric_quadrupole_moment_norm": 22.5235785634, 
			 "total_energy": -553.819778249, 
			 "HOMO_LUMO_gap": 0.24644, 
			 "cosmo_polarized_energy": -20.95, 
			 "cosmo_cavitation_energy": 24.55, 
			 "cosmo_dispersion_energy": -18.1, 
			 "cosmo_repulsion_energy": 1.46, 
			 "cosmo_total_nonelectrostatic_energy": 7.91, 
			 "SMD_solvation_energy": 5.26 
		},
		"coords": [
			{
				"x": 1.8626229919,
				"y": 2.7809391898,
				"z": -3.1497883093,
				"element": "C" 
			},
			{
				"x": 1.5064738656,
				"y": 1.7778133656,
				"z": -2.1542843002,
				"element": "N" 
			},
			{
				"x": 1.8030896711,
				"y": 0.3927644976,
				"z": -2.5186327892,
				"element": "C" 
			},
			{
				"x": 1.710454241,
				"y": -0.5694624077,
				"z": -1.3379559893,
				"element": "C" 
			},
			{
				"x": 0.3764248234,
				"y": -0.3585525903,
				"z": -0.6042556725,
				"element": "C" 
			},
			{
				"x": 0.341376233,
				"y": 1.082658198,
				"z": -0.0684939128,
				"element": "C" 
			},
			{
				"x": 0.7475769372,
				"y": 2.162637957,
				"z": -1.0741266105,
				"element": "C" 
			},
			{
				"x": 0.4321635983,
				"y": 3.3289391574,
				"z": -0.8682103982,
				"element": "O" 
			},
			{
				"x": 0.1226328272,
				"y": -1.4012107743,
				"z": 0.4836631229,
				"element": "C" 
			},
			{
				"x": 1.0371743016,
				"y": -1.4569228691,
				"z": 1.4918303662,
				"element": "O" 
			},
			{
				"x": -0.8159195519,
				"y": -2.1565974436,
				"z": 0.4823907665,
				"element": "O" 
			},
			{
				"x": 1.3423563642,
				"y": 2.5928863066,
				"z": -4.0982239979,
				"element": "H" 
			},
			{
				"x": 1.5728015974,
				"y": 3.7584948351,
				"z": -2.7685766687,
				"element": "H" 
			},
			{
				"x": 2.9423593397,
				"y": 2.7609775955,
				"z": -3.3380280697,
				"element": "H" 
			},
			{
				"x": 1.1182949036,
				"y": 0.064550015,
				"z": -3.3169756835,
				"element": "H" 
			},
			{
				"x": 2.8143550246,
				"y": 0.3633018739,
				"z": -2.9426767514,
				"element": "H" 
			},
			{
				"x": 1.8034298529,
				"y": -1.5962720547,
				"z": -1.7060410015,
				"element": "H" 
			},
			{
				"x": 2.5538869111,
				"y": -0.3910530763,
				"z": -0.6568400044,
				"element": "H" 
			},
			{
				"x": -0.4424949834,
				"y": -0.4983848046,
				"z": -1.3169143061,
				"element": "H" 
			},
			{
				"x": 1.0177231791,
				"y": 1.1977550385,
				"z": 0.7901413502,
				"element": "H" 
			},
			{
				"x": -0.652795294,
				"y": 1.3554995411,
				"z": 0.2935318648,
				"element": "H" 
			},
			{
				"x": 1.7294131665,
				"y": -0.7927615507,
				"z": 1.3650669947,
				"element": "H" 
			}
		],
		 "valence_orbital": [ 
			{
				"type": "occ",
				"energy": -0.3541,
				"method": "rhf"
			},
			{
				"type": "occ",
				"energy": -0.32088,
				"method": "rhf"
			},
			{
				"type": "occ",
				"energy": -0.27986,
				"method": "rhf"
			},
			{
				"type": "occ",
				"energy": -0.25178,
				"method": "rhf"
			},
			{
				"type": "occ",
				"energy": -0.24884,
				"method": "rhf"
			},
			{
				"type": "unocc",
				"energy": -0.0024,
				"method": "rhf"
			},
			{
				"type": "unocc",
				"energy": 0.01223,
				"method": "rhf"
			},
			{
				"type": "unocc",
				"energy": 0.04251,
				"method": "rhf"
			},
			{
				"type": "unocc",
				"energy": 0.0705,
				"method": "rhf"
			},
			{
				"type": "unocc",
				"energy": 0.0989,
				"method": "rhf"
			}
		],
		"cosmo_sigma_profile": { 
			"-0.025": 0.0,
			"-0.024": 0.0,
			"-0.023": 0.0,
			"-0.022": 0.0,
			"-0.021": 0.0,
			"-0.02": 0.0,
			"-0.019": 0.0866476792572,
			"-0.018": 0.664531092235,
			"-0.017": 1.51261086417,
			"-0.016": 0.997922606307,
			"-0.015": 1.48100380822,
			"-0.014": 0.849918746674,
			"-0.013": 0.886150712798,
			"-0.012": 0.99427016165,
			"-0.011": 1.12766888595,
			"-0.01": 1.01022955186,
			"-0.009": 1.77924307714,
			"-0.008": 1.82176652589,
			"-0.007": 2.30472753142,
			"-0.006": 12.4141105068,
			"-0.005": 24.0344259044,
			"-0.004": 24.6212219899,
			"-0.003": 17.7281923402,
			"-0.002": 14.0035524769,
			"-0.001": 9.49455358997,
			"0.0": 5.88984318005,
			"0.001": 4.69613370927,
			"0.002": 5.03928039532,
			"0.003": 3.23992052981,
			"0.004": 2.7571537022,
			"0.005": 4.68845551299,
			"0.006": 3.38419501157,
			"0.007": 3.57928623029,
			"0.008": 5.16920177545,
			"0.009": 3.97367785664,
			"0.01": 5.94270837069,
			"0.011": 6.8890290219,
			"0.012": 7.50717622656,
			"0.013": 4.61886259497,
			"0.014": 5.01859661266,
			"0.015": 1.64430868063,
			"0.016": 0.0598607442697,
			"0.017": 0.0,
			"0.018": 0.0,
			"0.019": 0.0,
			"0.02": 0.0,
			"0.021": 0.0,
			"0.022": 0.0,
			"0.023": 0.0,
			"0.024": 0.0,
			"0.025": 0.0
		}
	}
}
