{
	 "smiles": "OC(=O)C1=CN(C2CC2)C2=C(C=C(F)C(=C2)N2CCNCC2)C1=O", 
	 "Tm": 539.15, 
	 "num_atms": 42, 
	 "gaussian": { 
		 "optdone": 1, 
		 "sigma_profile": "yes", 
		 "theory": "DFT", 
		 "functional": "B3LYP", 
		 "basiset": "6-31G**", 
		 "properties": { 
			 "R2extent": 9956.8246, 
			 "electric_dipole_moment_norm": 12.6893482031, 
			 "electric_quadrupole_moment_norm": 28.7707566894, 
			 "total_energy": -1148.40002316, 
			 "HOMO_LUMO_gap": 0.15859, 
			 "cosmo_polarized_energy": -24.41, 
			 "cosmo_cavitation_energy": 43.51, 
			 "cosmo_dispersion_energy": -31.22, 
			 "cosmo_repulsion_energy": 2.3, 
			 "cosmo_total_nonelectrostatic_energy": 14.59, 
			 "SMD_solvation_energy": 5.5 
		},
		"coords": [
			{
				"x": -1.4673947361,
				"y": 4.0449701538,
				"z": 4.3430415301,
				"element": "O" 
			},
			{
				"x": -0.3705989311,
				"y": 3.9495485696,
				"z": 3.588364647,
				"element": "C" 
			},
			{
				"x": 0.5511707555,
				"y": 4.7414857975,
				"z": 3.6640348851,
				"element": "O" 
			},
			{
				"x": -0.3538815398,
				"y": 2.7930975967,
				"z": 2.6336589221,
				"element": "C" 
			},
			{
				"x": 0.747416827,
				"y": 2.65228927,
				"z": 1.835528086,
				"element": "C" 
			},
			{
				"x": 0.9012624105,
				"y": 1.6688434878,
				"z": 0.9094985165,
				"element": "N" 
			},
			{
				"x": 2.1328833612,
				"y": 1.5879284323,
				"z": 0.1471496414,
				"element": "C" 
			},
			{
				"x": 2.1149225052,
				"y": 1.8634668394,
				"z": -1.3372973443,
				"element": "C" 
			},
			{
				"x": 2.7570295695,
				"y": 2.8460436417,
				"z": -0.3931998074,
				"element": "C" 
			},
			{
				"x": -0.0860784647,
				"y": 0.6770017,
				"z": 0.7764644212,
				"element": "C" 
			},
			{
				"x": -1.2487343222,
				"y": 0.7648059403,
				"z": 1.5738865009,
				"element": "C" 
			},
			{
				"x": -2.236473827,
				"y": -0.2255635505,
				"z": 1.4168881391,
				"element": "C" 
			},
			{
				"x": -2.0688760671,
				"y": -1.2500894718,
				"z": 0.5258372212,
				"element": "C" 
			},
			{
				"x": -3.0879107034,
				"y": -2.1357499982,
				"z": 0.3716185581,
				"element": "F" 
			},
			{
				"x": -0.888603557,
				"y": -1.4013696169,
				"z": -0.2619034864,
				"element": "C" 
			},
			{
				"x": 0.0847785415,
				"y": -0.3961110434,
				"z": -0.1125569435,
				"element": "C" 
			},
			{
				"x": -0.7169478202,
				"y": -2.4269642548,
				"z": -1.1649539046,
				"element": "N" 
			},
			{
				"x": 0.3237479161,
				"y": -2.3330507655,
				"z": -2.1891179732,
				"element": "C" 
			},
			{
				"x": 0.134700562,
				"y": -3.4488831216,
				"z": -3.2338368761,
				"element": "C" 
			},
			{
				"x": -1.2901383088,
				"y": -3.6020994712,
				"z": -3.4918750256,
				"element": "N" 
			},
			{
				"x": -2.0184773869,
				"y": -4.1557151248,
				"z": -2.3393909759,
				"element": "C" 
			},
			{
				"x": -1.2997513973,
				"y": -3.7631833516,
				"z": -1.0374036534,
				"element": "C" 
			},
			{
				"x": -1.4456067638,
				"y": 1.8436478617,
				"z": 2.5401622673,
				"element": "C" 
			},
			{
				"x": -2.4818022119,
				"y": 1.926310263,
				"z": 3.2412753733,
				"element": "O" 
			},
			{
				"x": -2.0757863388,
				"y": 3.2898330866,
				"z": 4.1007243212,
				"element": "H" 
			},
			{
				"x": 1.5576758959,
				"y": 3.3651014238,
				"z": 1.9297639883,
				"element": "H" 
			},
			{
				"x": 2.8061684695,
				"y": 0.8095167404,
				"z": 0.5013786883,
				"element": "H" 
			},
			{
				"x": 2.7459988223,
				"y": 1.251382665,
				"z": -1.9743485102,
				"element": "H" 
			},
			{
				"x": 1.1630619002,
				"y": 2.1458080075,
				"z": -1.7751244414,
				"element": "H" 
			},
			{
				"x": 3.8392181113,
				"y": 2.9158759476,
				"z": -0.3586783631,
				"element": "H" 
			},
			{
				"x": 2.2426636729,
				"y": 3.7868838188,
				"z": -0.2286103676,
				"element": "H" 
			},
			{
				"x": -3.1489094608,
				"y": -0.1494341248,
				"z": 1.9973540805,
				"element": "H" 
			},
			{
				"x": 0.9977425867,
				"y": -0.4641848931,
				"z": -0.683167083,
				"element": "H" 
			},
			{
				"x": 1.3367227681,
				"y": -2.4055316599,
				"z": -1.7573513377,
				"element": "H" 
			},
			{
				"x": 0.2347693099,
				"y": -1.3560442722,
				"z": -2.6774964484,
				"element": "H" 
			},
			{
				"x": 0.6382672187,
				"y": -3.1476488397,
				"z": -4.1575466873,
				"element": "H" 
			},
			{
				"x": 0.6338576992,
				"y": -4.3742861291,
				"z": -2.8911367915,
				"element": "H" 
			},
			{
				"x": -1.4550518286,
				"y": -4.1565264694,
				"z": -4.3246487206,
				"element": "H" 
			},
			{
				"x": -2.1002957555,
				"y": -5.2556905198,
				"z": -2.3626123994,
				"element": "H" 
			},
			{
				"x": -3.0361095035,
				"y": -3.747530208,
				"z": -2.3350196353,
				"element": "H" 
			},
			{
				"x": -0.4931470983,
				"y": -4.4790627395,
				"z": -0.8213353486,
				"element": "H" 
			},
			{
				"x": -1.9878828802,
				"y": -3.7991216176,
				"z": -0.1998176632,
				"element": "H" 
			}
		],
		 "valence_orbital": [ 
			{
				"type": "occ",
				"energy": -0.2543,
				"method": "rhf"
			},
			{
				"type": "occ",
				"energy": -0.24425,
				"method": "rhf"
			},
			{
				"type": "occ",
				"energy": -0.23641,
				"method": "rhf"
			},
			{
				"type": "occ",
				"energy": -0.22711,
				"method": "rhf"
			},
			{
				"type": "occ",
				"energy": -0.21182,
				"method": "rhf"
			},
			{
				"type": "unocc",
				"energy": -0.05323,
				"method": "rhf"
			},
			{
				"type": "unocc",
				"energy": -0.03431,
				"method": "rhf"
			},
			{
				"type": "unocc",
				"energy": 0.00224,
				"method": "rhf"
			},
			{
				"type": "unocc",
				"energy": 0.04402,
				"method": "rhf"
			},
			{
				"type": "unocc",
				"energy": 0.06035,
				"method": "rhf"
			}
		],
		"cosmo_sigma_profile": { 
			"-0.025": 0.0,
			"-0.024": 0.0,
			"-0.023": 0.0,
			"-0.022": 0.0,
			"-0.021": 0.0,
			"-0.02": 0.0,
			"-0.019": 0.0,
			"-0.018": 0.0,
			"-0.017": 0.0,
			"-0.016": 0.0,
			"-0.015": 0.0,
			"-0.014": 0.0,
			"-0.013": 0.0,
			"-0.012": 0.0,
			"-0.011": 0.322236554274,
			"-0.01": 1.31819655161,
			"-0.009": 1.41322268096,
			"-0.008": 2.3659008856,
			"-0.007": 8.54947947108,
			"-0.006": 17.4060923158,
			"-0.005": 23.3564941464,
			"-0.004": 34.3791880162,
			"-0.003": 41.2757445161,
			"-0.002": 36.7183572225,
			"-0.001": 32.7590934511,
			"0.0": 22.0639540718,
			"0.001": 22.8677146765,
			"0.002": 21.7859039061,
			"0.003": 12.9773919045,
			"0.004": 10.5516642796,
			"0.005": 5.21111944471,
			"0.006": 4.08186619917,
			"0.007": 4.56171248272,
			"0.008": 3.13733540695,
			"0.009": 5.66969426065,
			"0.01": 5.38780549195,
			"0.011": 6.3320188022,
			"0.012": 8.85122965244,
			"0.013": 7.01599756262,
			"0.014": 2.49094139392,
			"0.015": 0.785405562374,
			"0.016": 0.547165619917,
			"0.017": 0.523636841077,
			"0.018": 0.182686583247,
			"0.019": 0.0,
			"0.02": 0.0,
			"0.021": 0.0,
			"0.022": 0.0,
			"0.023": 0.0,
			"0.024": 0.0,
			"0.025": 0.0
		}
	}
}
