{
	 "smiles": "OC[C@]1(O)C[C@H](O)[C@H](O)CO1", 
	 "Tm": 384.5, 
	 "num_atms": 23, 
	 "gaussian": { 
		 "optdone": 1, 
		 "sigma_profile": "yes", 
		 "theory": "DFT", 
		 "functional": "B3LYP", 
		 "basiset": "6-31G**", 
		 "properties": { 
			 "R2extent": 1748.5059, 
			 "electric_dipole_moment_norm": 1.87918259624, 
			 "electric_quadrupole_moment_norm": 6.1577411995, 
			 "total_energy": -611.967748316, 
			 "HOMO_LUMO_gap": 0.33729, 
			 "cosmo_polarized_energy": -12.7, 
			 "cosmo_cavitation_energy": 22.89, 
			 "cosmo_dispersion_energy": -18.04, 
			 "cosmo_repulsion_energy": 1.43, 
			 "cosmo_total_nonelectrostatic_energy": 6.27, 
			 "SMD_solvation_energy": 3.32 
		},
		"coords": [
			{
				"x": 0.536921213,
				"y": 1.1948338382,
				"z": 0.5954418543,
				"element": "O" 
			},
			{
				"x": 0.0432870947,
				"y": 1.9099729703,
				"z": -0.5305607331,
				"element": "C" 
			},
			{
				"x": -0.3992461634,
				"y": 0.9690253655,
				"z": -1.662283409,
				"element": "C" 
			},
			{
				"x": -0.852237683,
				"y": 1.7237979067,
				"z": -2.7636398918,
				"element": "O" 
			},
			{
				"x": -1.5587875805,
				"y": 0.0298106017,
				"z": -1.2947818712,
				"element": "C" 
			},
			{
				"x": -1.1805824419,
				"y": -1.1990985902,
				"z": -0.4479600671,
				"element": "C" 
			},
			{
				"x": -1.1543121504,
				"y": -0.9395563512,
				"z": 0.9494599945,
				"element": "O" 
			},
			{
				"x": 0.1906828084,
				"y": -1.8198716702,
				"z": -0.9189358871,
				"element": "C" 
			},
			{
				"x": 1.1856692501,
				"y": -1.6241335577,
				"z": 0.0775405874,
				"element": "O" 
			},
			{
				"x": 0.6795750609,
				"y": -1.1473936098,
				"z": -2.1963206836,
				"element": "C" 
			},
			{
				"x": 0.7929744151,
				"y": 0.2611701307,
				"z": -2.0068277483,
				"element": "O" 
			},
			{
				"x": 1.167668167,
				"y": 0.5304365829,
				"z": 0.2543642175,
				"element": "H" 
			},
			{
				"x": -0.8015870331,
				"y": 2.5151656009,
				"z": -0.1923721236,
				"element": "H" 
			},
			{
				"x": 0.8162595428,
				"y": 2.5842932696,
				"z": -0.9294476787,
				"element": "H" 
			},
			{
				"x": -0.0941457485,
				"y": 2.2263916191,
				"z": -3.0950691461,
				"element": "H" 
			},
			{
				"x": -1.9881930217,
				"y": -0.3098647784,
				"z": -2.2428743624,
				"element": "H" 
			},
			{
				"x": -2.3425949551,
				"y": 0.596571874,
				"z": -0.7836529391,
				"element": "H" 
			},
			{
				"x": -1.9653441383,
				"y": -1.9489783001,
				"z": -0.5867424906,
				"element": "H" 
			},
			{
				"x": -0.6825509642,
				"y": -0.0871001967,
				"z": 1.065941541,
				"element": "H" 
			},
			{
				"x": 0.0601246431,
				"y": -2.8959275302,
				"z": -1.1129943817,
				"element": "H" 
			},
			{
				"x": 0.699286929,
				"y": -1.6919680358,
				"z": 0.9185389241,
				"element": "H" 
			},
			{
				"x": 0.0152868711,
				"y": -1.3893910495,
				"z": -3.0377414903,
				"element": "H" 
			},
			{
				"x": 1.6864458849,
				"y": -1.4934860899,
				"z": -2.4428822152,
				"element": "H" 
			}
		],
		 "valence_orbital": [ 
			{
				"type": "occ",
				"energy": -0.30446,
				"method": "rhf"
			},
			{
				"type": "occ",
				"energy": -0.28602,
				"method": "rhf"
			},
			{
				"type": "occ",
				"energy": -0.27896,
				"method": "rhf"
			},
			{
				"type": "occ",
				"energy": -0.27532,
				"method": "rhf"
			},
			{
				"type": "occ",
				"energy": -0.26786,
				"method": "rhf"
			},
			{
				"type": "unocc",
				"energy": 0.06943,
				"method": "rhf"
			},
			{
				"type": "unocc",
				"energy": 0.07455,
				"method": "rhf"
			},
			{
				"type": "unocc",
				"energy": 0.0955,
				"method": "rhf"
			},
			{
				"type": "unocc",
				"energy": 0.10203,
				"method": "rhf"
			},
			{
				"type": "unocc",
				"energy": 0.11828,
				"method": "rhf"
			}
		],
		"cosmo_sigma_profile": { 
			"-0.025": 0.0,
			"-0.024": 0.0,
			"-0.023": 0.0,
			"-0.022": 0.0,
			"-0.021": 0.0,
			"-0.02": 0.0,
			"-0.019": 0.0,
			"-0.018": 0.0,
			"-0.017": 0.0,
			"-0.016": 0.374546135933,
			"-0.015": 0.964395928249,
			"-0.014": 1.16014230935,
			"-0.013": 0.301414840468,
			"-0.012": 0.993494356703,
			"-0.011": 1.29472279357,
			"-0.01": 2.07166885473,
			"-0.009": 1.39639733703,
			"-0.008": 1.95127678276,
			"-0.007": 3.46704403267,
			"-0.006": 10.2478969946,
			"-0.005": 22.7689622399,
			"-0.004": 18.262926387,
			"-0.003": 16.9713578035,
			"-0.002": 12.4173335719,
			"-0.001": 8.55976073968,
			"0.0": 6.69672619255,
			"0.001": 5.48377499635,
			"0.002": 4.77900125699,
			"0.003": 5.06601748203,
			"0.004": 5.57999657367,
			"0.005": 5.60652316558,
			"0.006": 5.23306273957,
			"0.007": 5.42358973045,
			"0.008": 3.94838232563,
			"0.009": 5.0538690234,
			"0.01": 4.36695483654,
			"0.011": 4.67980716693,
			"0.012": 5.64997406215,
			"0.013": 3.62700564111,
			"0.014": 2.11797085171,
			"0.015": 0.153832768282,
			"0.016": 0.0,
			"0.017": 0.0,
			"0.018": 0.0,
			"0.019": 0.0,
			"0.02": 0.0,
			"0.021": 0.0,
			"0.022": 0.0,
			"0.023": 0.0,
			"0.024": 0.0,
			"0.025": 0.0
		}
	}
}
