{
	 "smiles": "CC(=O)N(NC1=CC=CC=C1)C1=CC=C(C=C1)C1=CC=C(C=C1)N(NC1=CC=CC=C1)C(C)=O", 
	 "Tm": 508.15, 
	 "num_atms": 60, 
	 "gaussian": { 
		 "optdone": 1, 
		 "sigma_profile": "yes", 
		 "theory": "DFT", 
		 "functional": "B3LYP", 
		 "basiset": "6-31G**", 
		 "properties": { 
			 "R2extent": 29366.2362, 
			 "electric_dipole_moment_norm": 2.46778916847, 
			 "electric_quadrupole_moment_norm": 56.5891743273, 
			 "total_energy": -1452.06816376, 
			 "HOMO_LUMO_gap": 0.15277, 
			 "cosmo_polarized_energy": -27.49, 
			 "cosmo_cavitation_energy": 64.24, 
			 "cosmo_dispersion_energy": -43.22, 
			 "cosmo_repulsion_energy": 3.24, 
			 "cosmo_total_nonelectrostatic_energy": 24.26, 
			 "SMD_solvation_energy": 12.52 
		},
		"coords": [
			{
				"x": 4.0975092421,
				"y": -2.5957126688,
				"z": 2.8179665106,
				"element": "C" 
			},
			{
				"x": 4.9051792486,
				"y": -1.3137270801,
				"z": 2.728813785,
				"element": "C" 
			},
			{
				"x": 5.8976842336,
				"y": -1.1318509224,
				"z": 3.4153358402,
				"element": "O" 
			},
			{
				"x": 4.5290885128,
				"y": -0.3545703086,
				"z": 1.7786944835,
				"element": "N" 
			},
			{
				"x": 5.4280910203,
				"y": 0.7090594092,
				"z": 1.5765545729,
				"element": "N" 
			},
			{
				"x": 6.5882579561,
				"y": 0.4314610559,
				"z": 0.8073234001,
				"element": "C" 
			},
			{
				"x": 6.633934373,
				"y": -0.6016671724,
				"z": -0.1365981743,
				"element": "C" 
			},
			{
				"x": 7.7717463186,
				"y": -0.7725270702,
				"z": -0.9273440254,
				"element": "C" 
			},
			{
				"x": 8.8703039914,
				"y": 0.0757826233,
				"z": -0.7931034896,
				"element": "C" 
			},
			{
				"x": 8.8216469879,
				"y": 1.1049920818,
				"z": 0.1511570185,
				"element": "C" 
			},
			{
				"x": 7.693344484,
				"y": 1.2844876217,
				"z": 0.9461101036,
				"element": "C" 
			},
			{
				"x": 3.2329289758,
				"y": -0.1771736168,
				"z": 1.2117951871,
				"element": "C" 
			},
			{
				"x": 3.116295789,
				"y": 0.2889574118,
				"z": -0.1054613735,
				"element": "C" 
			},
			{
				"x": 1.8622132742,
				"y": 0.4815652243,
				"z": -0.6723607843,
				"element": "C" 
			},
			{
				"x": 0.6825743182,
				"y": 0.2124339274,
				"z": 0.0449248559,
				"element": "C" 
			},
			{
				"x": 0.814975094,
				"y": -0.2378576568,
				"z": 1.3673494857,
				"element": "C" 
			},
			{
				"x": 2.0676360891,
				"y": -0.4144600945,
				"z": 1.9511333843,
				"element": "C" 
			},
			{
				"x": -0.6524447548,
				"y": 0.4095905323,
				"z": -0.5710781111,
				"element": "C" 
			},
			{
				"x": -1.735607492,
				"y": 0.8992988002,
				"z": 0.1809002289,
				"element": "C" 
			},
			{
				"x": -2.988014671,
				"y": 1.0930411176,
				"z": -0.3941162269,
				"element": "C" 
			},
			{
				"x": -3.1948175243,
				"y": 0.7926576273,
				"z": -1.7470263477,
				"element": "C" 
			},
			{
				"x": -2.1292642536,
				"y": 0.2908651922,
				"z": -2.5048646522,
				"element": "C" 
			},
			{
				"x": -0.8754610886,
				"y": 0.1108653678,
				"z": -1.9259346829,
				"element": "C" 
			},
			{
				"x": -4.497029928,
				"y": 0.9390442829,
				"z": -2.3353434043,
				"element": "N" 
			},
			{
				"x": -5.4392876319,
				"y": -0.0443264648,
				"z": -2.0247662773,
				"element": "N" 
			},
			{
				"x": -6.2392356603,
				"y": 0.0813747152,
				"z": -0.8797840569,
				"element": "C" 
			},
			{
				"x": -6.6061902275,
				"y": 1.3366114165,
				"z": -0.3701557424,
				"element": "C" 
			},
			{
				"x": -7.4489225458,
				"y": 1.4181002585,
				"z": 0.7373650817,
				"element": "C" 
			},
			{
				"x": -7.9487807674,
				"y": 0.265484335,
				"z": 1.3469951267,
				"element": "C" 
			},
			{
				"x": -7.590801129,
				"y": -0.9820854283,
				"z": 0.831550307,
				"element": "C" 
			},
			{
				"x": -6.739476795,
				"y": -1.0787897357,
				"z": -0.2667579489,
				"element": "C" 
			},
			{
				"x": -4.8021053212,
				"y": 1.8042664782,
				"z": -3.3966614667,
				"element": "C" 
			},
			{
				"x": -3.7515110663,
				"y": 2.8610060078,
				"z": -3.7041714509,
				"element": "C" 
			},
			{
				"x": -5.8553406101,
				"y": 1.7371076423,
				"z": -3.9988288346,
				"element": "O" 
			},
			{
				"x": 3.5003112407,
				"y": -2.6008588961,
				"z": 3.7349508191,
				"element": "H" 
			},
			{
				"x": 3.4385278848,
				"y": -2.764421454,
				"z": 1.966090013,
				"element": "H" 
			},
			{
				"x": 4.8182158831,
				"y": -3.4127874599,
				"z": 2.8989011219,
				"element": "H" 
			},
			{
				"x": 5.671177382,
				"y": 1.1108556511,
				"z": 2.4782846807,
				"element": "H" 
			},
			{
				"x": 5.7894563776,
				"y": -1.273908052,
				"z": -0.2429292789,
				"element": "H" 
			},
			{
				"x": 7.7949174331,
				"y": -1.5818330835,
				"z": -1.6519723642,
				"element": "H" 
			},
			{
				"x": 9.7525514489,
				"y": -0.0633590225,
				"z": -1.4099759044,
				"element": "H" 
			},
			{
				"x": 9.6703244433,
				"y": 1.771824146,
				"z": 0.2748658592,
				"element": "H" 
			},
			{
				"x": 7.6625111293,
				"y": 2.0876996133,
				"z": 1.6781927132,
				"element": "H" 
			},
			{
				"x": 4.012327216,
				"y": 0.514995227,
				"z": -0.6722257885,
				"element": "H" 
			},
			{
				"x": 1.7964579671,
				"y": 0.8681551954,
				"z": -1.6848170412,
				"element": "H" 
			},
			{
				"x": -0.0730108206,
				"y": -0.457940303,
				"z": 1.9519722409,
				"element": "H" 
			},
			{
				"x": 2.1338966696,
				"y": -0.7268831458,
				"z": 2.987333275,
				"element": "H" 
			},
			{
				"x": -1.5858257902,
				"y": 1.1653956943,
				"z": 1.222797028,
				"element": "H" 
			},
			{
				"x": -3.8093293786,
				"y": 1.4838992575,
				"z": 0.1963506693,
				"element": "H" 
			},
			{
				"x": -2.2911339549,
				"y": 0.0293766493,
				"z": -3.546724338,
				"element": "H" 
			},
			{
				"x": -0.0677171167,
				"y": -0.2992390527,
				"z": -2.5244625608,
				"element": "H" 
			},
			{
				"x": -5.1072014848,
				"y": -0.9803534271,
				"z": -2.2220684086,
				"element": "H" 
			},
			{
				"x": -6.2439889818,
				"y": 2.2372063043,
				"z": -0.8531512213,
				"element": "H" 
			},
			{
				"x": -7.7243565673,
				"y": 2.3972585626,
				"z": 1.1196336581,
				"element": "H" 
			},
			{
				"x": -8.6075126362,
				"y": 0.3379508799,
				"z": 2.20661681,
				"element": "H" 
			},
			{
				"x": -7.9679521979,
				"y": -1.8910691442,
				"z": 1.292041059,
				"element": "H" 
			},
			{
				"x": -6.4604664286,
				"y": -2.055270824,
				"z": -0.6563063746,
				"element": "H" 
			},
			{
				"x": -2.9582083085,
				"y": 2.4467373665,
				"z": -4.3342626616,
				"element": "H" 
			},
			{
				"x": -3.2814808358,
				"y": 3.2632405302,
				"z": -2.8035821853,
				"element": "H" 
			},
			{
				"x": -4.247509016,
				"y": 3.6593238776,
				"z": -4.2568641418,
				"element": "H" 
			}
		],
		 "valence_orbital": [ 
			{
				"type": "occ",
				"energy": -0.24905,
				"method": "rhf"
			},
			{
				"type": "occ",
				"energy": -0.24667,
				"method": "rhf"
			},
			{
				"type": "occ",
				"energy": -0.22825,
				"method": "rhf"
			},
			{
				"type": "occ",
				"energy": -0.21408,
				"method": "rhf"
			},
			{
				"type": "occ",
				"energy": -0.20392,
				"method": "rhf"
			},
			{
				"type": "unocc",
				"energy": -0.05115,
				"method": "rhf"
			},
			{
				"type": "unocc",
				"energy": -0.02405,
				"method": "rhf"
			},
			{
				"type": "unocc",
				"energy": -0.01888,
				"method": "rhf"
			},
			{
				"type": "unocc",
				"energy": -0.00904,
				"method": "rhf"
			},
			{
				"type": "unocc",
				"energy": -0.00113,
				"method": "rhf"
			}
		],
		"cosmo_sigma_profile": { 
			"-0.025": 0.0,
			"-0.024": 0.0,
			"-0.023": 0.0,
			"-0.022": 0.0,
			"-0.021": 0.0,
			"-0.02": 0.0,
			"-0.019": 0.0,
			"-0.018": 0.0,
			"-0.017": 0.0,
			"-0.016": 0.0,
			"-0.015": 0.0,
			"-0.014": 0.200165243102,
			"-0.013": 1.20756751521,
			"-0.012": 2.53518990735,
			"-0.011": 2.33547650705,
			"-0.01": 2.53837153593,
			"-0.009": 3.12859048572,
			"-0.008": 4.19247732913,
			"-0.007": 11.4687696602,
			"-0.006": 27.8345961888,
			"-0.005": 42.4839036251,
			"-0.004": 46.4848807559,
			"-0.003": 50.8575286114,
			"-0.002": 42.0933530932,
			"-0.001": 34.9007912246,
			"0.0": 26.4585799759,
			"0.001": 25.4633495512,
			"0.002": 30.1840366909,
			"0.003": 31.4300283318,
			"0.004": 34.507450436,
			"0.005": 22.2994562782,
			"0.006": 22.2637943533,
			"0.007": 10.2475418336,
			"0.008": 3.04277134074,
			"0.009": 4.83895143096,
			"0.01": 4.10502874205,
			"0.011": 3.78655704836,
			"0.012": 5.92606231761,
			"0.013": 9.01776229605,
			"0.014": 4.11629479378,
			"0.015": 1.35727028621,
			"0.016": 0.896217668012,
			"0.017": 0.387321585639,
			"0.018": 0.0,
			"0.019": 0.0,
			"0.02": 0.0,
			"0.021": 0.0,
			"0.022": 0.0,
			"0.023": 0.0,
			"0.024": 0.0,
			"0.025": 0.0
		}
	}
}
