{
	 "smiles": "CCCCOCN(C(=O)CCl)C1=C(CC)C=CC=C1CC", 
	 "Tm": 272.6, 
	 "num_atms": 47, 
	 "gaussian": { 
		 "optdone": 1, 
		 "sigma_profile": "yes", 
		 "theory": "DFT", 
		 "functional": "B3LYP", 
		 "basiset": "6-31G**", 
		 "properties": { 
			 "R2extent": 8273.1866, 
			 "electric_dipole_moment_norm": 4.04153991073, 
			 "electric_quadrupole_moment_norm": 21.2919846485, 
			 "total_energy": -1328.89293559, 
			 "HOMO_LUMO_gap": 0.22764, 
			 "cosmo_polarized_energy": -12.26, 
			 "cosmo_cavitation_energy": 48.16, 
			 "cosmo_dispersion_energy": -31.22, 
			 "cosmo_repulsion_energy": 2.47, 
			 "cosmo_total_nonelectrostatic_energy": 19.41, 
			 "SMD_solvation_energy": 8.48 
		},
		"coords": [
			{
				"x": 0.3365964053,
				"y": 3.1519220222,
				"z": -2.7450575918,
				"element": "C" 
			},
			{
				"x": 1.6925252361,
				"y": 2.6748290401,
				"z": -3.2803918927,
				"element": "C" 
			},
			{
				"x": 2.5261495036,
				"y": 1.8339339833,
				"z": -2.2982665722,
				"element": "C" 
			},
			{
				"x": 2.0092708895,
				"y": 0.4208360743,
				"z": -2.0190493118,
				"element": "C" 
			},
			{
				"x": 0.754305195,
				"y": 0.4003205359,
				"z": -1.3084418901,
				"element": "O" 
			},
			{
				"x": 0.8346564215,
				"y": 0.4496502625,
				"z": 0.0945089061,
				"element": "C" 
			},
			{
				"x": 0.6528978263,
				"y": -0.854209581,
				"z": 0.7560958888,
				"element": "N" 
			},
			{
				"x": 1.7792637214,
				"y": -1.6201673172,
				"z": 0.9881259883,
				"element": "C" 
			},
			{
				"x": 2.8862025136,
				"y": -1.296992472,
				"z": 0.5874527611,
				"element": "O" 
			},
			{
				"x": 1.5488575464,
				"y": -2.8764987508,
				"z": 1.8422822801,
				"element": "C" 
			},
			{
				"x": 2.9238873225,
				"y": -4.0236506797,
				"z": 1.7420436452,
				"element": "Cl" 
			},
			{
				"x": -0.6623681089,
				"y": -1.2201238893,
				"z": 1.2310804234,
				"element": "C" 
			},
			{
				"x": -1.5482888735,
				"y": -1.9061607167,
				"z": 0.3699786834,
				"element": "C" 
			},
			{
				"x": -1.1871240036,
				"y": -2.286553642,
				"z": -1.0540691226,
				"element": "C" 
			},
			{
				"x": -0.6786804993,
				"y": -3.7327590289,
				"z": -1.2029661469,
				"element": "C" 
			},
			{
				"x": -2.8129528242,
				"y": -2.2513213802,
				"z": 0.8629691691,
				"element": "C" 
			},
			{
				"x": -3.1971795495,
				"y": -1.9296877745,
				"z": 2.1623427275,
				"element": "C" 
			},
			{
				"x": -2.3190210075,
				"y": -1.2378692738,
				"z": 2.9908282376,
				"element": "C" 
			},
			{
				"x": -1.0460902266,
				"y": -0.8617562644,
				"z": 2.5425671258,
				"element": "C" 
			},
			{
				"x": -0.1527939512,
				"y": -0.0671664295,
				"z": 3.4778290303,
				"element": "C" 
			},
			{
				"x": -0.5906837621,
				"y": 1.4018822814,
				"z": 3.628853883,
				"element": "C" 
			},
			{
				"x": -0.311089728,
				"y": 2.3096040029,
				"z": -2.4925305171,
				"element": "H" 
			},
			{
				"x": -0.1769535617,
				"y": 3.7760912802,
				"z": -3.4844421639,
				"element": "H" 
			},
			{
				"x": 0.4654175272,
				"y": 3.7545262718,
				"z": -1.837659405,
				"element": "H" 
			},
			{
				"x": 1.5394901229,
				"y": 2.0944356552,
				"z": -4.2011312798,
				"element": "H" 
			},
			{
				"x": 2.2869301876,
				"y": 3.5500169191,
				"z": -3.573316542,
				"element": "H" 
			},
			{
				"x": 3.5413011529,
				"y": 1.7191199653,
				"z": -2.7028389256,
				"element": "H" 
			},
			{
				"x": 2.6431496537,
				"y": 2.3747652194,
				"z": -1.3484017178,
				"element": "H" 
			},
			{
				"x": 1.8103113159,
				"y": -0.0966833674,
				"z": -2.9644547307,
				"element": "H" 
			},
			{
				"x": 2.7516644096,
				"y": -0.1569539815,
				"z": -1.4603288289,
				"element": "H" 
			},
			{
				"x": 0.0193113812,
				"y": 1.0880898606,
				"z": 0.4424160985,
				"element": "H" 
			},
			{
				"x": 1.7973039655,
				"y": 0.8529597581,
				"z": 0.4226566652,
				"element": "H" 
			},
			{
				"x": 1.4407715285,
				"y": -2.5874319293,
				"z": 2.8902763485,
				"element": "H" 
			},
			{
				"x": 0.6481573589,
				"y": -3.4099550394,
				"z": 1.5445523038,
				"element": "H" 
			},
			{
				"x": -0.4466311962,
				"y": -1.5882835075,
				"z": -1.448133111,
				"element": "H" 
			},
			{
				"x": -2.0875424405,
				"y": -2.169956421,
				"z": -1.6689930185,
				"element": "H" 
			},
			{
				"x": 0.2772884824,
				"y": -3.8841985834,
				"z": -0.6922617207,
				"element": "H" 
			},
			{
				"x": -1.3952875784,
				"y": -4.4529885355,
				"z": -0.7938992394,
				"element": "H" 
			},
			{
				"x": -0.5242109439,
				"y": -3.9748731371,
				"z": -2.2593560201,
				"element": "H" 
			},
			{
				"x": -3.5041409222,
				"y": -2.7772416624,
				"z": 0.2092402228,
				"element": "H" 
			},
			{
				"x": -4.1814320632,
				"y": -2.2115469962,
				"z": 2.5254341813,
				"element": "H" 
			},
			{
				"x": -2.6191787394,
				"y": -0.9793558232,
				"z": 4.0032570651,
				"element": "H" 
			},
			{
				"x": 0.8851128972,
				"y": -0.095087699,
				"z": 3.1362049493,
				"element": "H" 
			},
			{
				"x": -0.1697816587,
				"y": -0.541377576,
				"z": 4.4669388007,
				"element": "H" 
			},
			{
				"x": -0.5498774027,
				"y": 1.9305768476,
				"z": 2.6712740231,
				"element": "H" 
			},
			{
				"x": 0.06155927,
				"y": 1.9284289959,
				"z": 4.3328786403,
				"element": "H" 
			},
			{
				"x": -1.6176727934,
				"y": 1.4724624832,
				"z": 4.0005017003,
				"element": "H" 
			}
		],
		 "valence_orbital": [ 
			{
				"type": "occ",
				"energy": -0.2732,
				"method": "rhf"
			},
			{
				"type": "occ",
				"energy": -0.27181,
				"method": "rhf"
			},
			{
				"type": "occ",
				"energy": -0.25438,
				"method": "rhf"
			},
			{
				"type": "occ",
				"energy": -0.24973,
				"method": "rhf"
			},
			{
				"type": "occ",
				"energy": -0.24719,
				"method": "rhf"
			},
			{
				"type": "unocc",
				"energy": -0.01955,
				"method": "rhf"
			},
			{
				"type": "unocc",
				"energy": -0.01675,
				"method": "rhf"
			},
			{
				"type": "unocc",
				"energy": 0.00546,
				"method": "rhf"
			},
			{
				"type": "unocc",
				"energy": 0.0349,
				"method": "rhf"
			},
			{
				"type": "unocc",
				"energy": 0.07517,
				"method": "rhf"
			}
		],
		"cosmo_sigma_profile": { 
			"-0.025": 0.0,
			"-0.024": 0.0,
			"-0.023": 0.0,
			"-0.022": 0.0,
			"-0.021": 0.0,
			"-0.02": 0.0,
			"-0.019": 0.0,
			"-0.018": 0.0,
			"-0.017": 0.0,
			"-0.016": 0.0,
			"-0.015": 0.0,
			"-0.014": 0.0,
			"-0.013": 0.0,
			"-0.012": 0.00715147049792,
			"-0.011": 0.0183424344843,
			"-0.01": 0.000234669017819,
			"-0.009": 0.207708951244,
			"-0.008": 2.10385160642,
			"-0.007": 3.25879022312,
			"-0.006": 8.1008215592,
			"-0.005": 18.3772827057,
			"-0.004": 27.7200566802,
			"-0.003": 38.5538742629,
			"-0.002": 44.7218361849,
			"-0.001": 44.8776204244,
			"0.0": 46.4941534418,
			"0.001": 41.5670080746,
			"0.002": 26.4683516855,
			"0.003": 16.7755746627,
			"0.004": 13.7071309686,
			"0.005": 14.2106952498,
			"0.006": 11.268612751,
			"0.007": 3.61334926802,
			"0.008": 2.84267596954,
			"0.009": 2.21755879356,
			"0.01": 3.06442654431,
			"0.011": 1.46985693658,
			"0.012": 3.07546512802,
			"0.013": 2.40376916942,
			"0.014": 1.50096471737,
			"0.015": 0.0185704601464,
			"0.016": 0.0,
			"0.017": 0.0,
			"0.018": 0.0,
			"0.019": 0.0,
			"0.02": 0.0,
			"0.021": 0.0,
			"0.022": 0.0,
			"0.023": 0.0,
			"0.024": 0.0,
			"0.025": 0.0
		}
	}
}
