{
	 "smiles": "OC(=O)C1=CC(=CC(=C1)C(O)=O)[N+]([O-])=O", 
	 "Tm": 535.15, 
	 "num_atms": 20, 
	 "gaussian": { 
		 "optdone": 1, 
		 "sigma_profile": "yes", 
		 "theory": "DFT", 
		 "functional": "B3LYP", 
		 "basiset": "6-31G**", 
		 "properties": { 
			 "R2extent": 3632.1732, 
			 "electric_dipole_moment_norm": 2.27072999716, 
			 "electric_quadrupole_moment_norm": 17.3344236985, 
			 "total_energy": -813.866357902, 
			 "HOMO_LUMO_gap": 0.17842, 
			 "cosmo_polarized_energy": -26.02, 
			 "cosmo_cavitation_energy": 27.03, 
			 "cosmo_dispersion_energy": -19.6, 
			 "cosmo_repulsion_energy": 1.52, 
			 "cosmo_total_nonelectrostatic_energy": 8.96, 
			 "SMD_solvation_energy": 9.42 
		},
		"coords": [
			{
				"x": -0.3123446308,
				"y": 1.5399446723,
				"z": -2.7346679229,
				"element": "O" 
			},
			{
				"x": 0.1091969282,
				"y": 1.8419558723,
				"z": -1.4863792495,
				"element": "C" 
			},
			{
				"x": 0.5180155542,
				"y": 2.9488313877,
				"z": -1.2272247387,
				"element": "O" 
			},
			{
				"x": 0.041919003,
				"y": 0.7542213359,
				"z": -0.4473925418,
				"element": "C" 
			},
			{
				"x": -0.7315871316,
				"y": -0.3990716387,
				"z": -0.5854185656,
				"element": "C" 
			},
			{
				"x": -0.7277549495,
				"y": -1.337397448,
				"z": 0.4452710262,
				"element": "C" 
			},
			{
				"x": 0.0136060428,
				"y": -1.1660186525,
				"z": 1.604838514,
				"element": "C" 
			},
			{
				"x": 0.7632567805,
				"y": 0.0083744218,
				"z": 1.7570928926,
				"element": "C" 
			},
			{
				"x": 0.7742472297,
				"y": 0.9556199553,
				"z": 0.7317404932,
				"element": "C" 
			},
			{
				"x": 1.5596100414,
				"y": 0.1517487571,
				"z": 3.0289001405,
				"element": "C" 
			},
			{
				"x": 1.9795456934,
				"y": 1.3947614685,
				"z": 3.3587107937,
				"element": "O" 
			},
			{
				"x": 1.8231108448,
				"y": -0.7938126156,
				"z": 3.730701321,
				"element": "O" 
			},
			{
				"x": -1.5456901451,
				"y": -2.5581488079,
				"z": 0.2877946483,
				"element": "N" 
			},
			{
				"x": -2.1781657318,
				"y": -2.6778942654,
				"z": -0.7604249687,
				"element": "O" 
			},
			{
				"x": -1.5369386052,
				"y": -3.367324334,
				"z": 1.209126958,
				"element": "O" 
			},
			{
				"x": -0.4686773793,
				"y": 0.5910314478,
				"z": -2.8373831418,
				"element": "H" 
			},
			{
				"x": -1.3603913329,
				"y": -0.5952894285,
				"z": -1.4467631153,
				"element": "H" 
			},
			{
				"x": 0.0145564724,
				"y": -1.919427195,
				"z": 2.3826526511,
				"element": "H" 
			},
			{
				"x": 1.3612081986,
				"y": 1.8675441814,
				"z": 0.7892275952,
				"element": "H" 
			},
			{
				"x": 1.5744771172,
				"y": 2.0680508855,
				"z": 2.7944972104,
				"element": "H" 
			}
		],
		 "valence_orbital": [ 
			{
				"type": "occ",
				"energy": -0.3214,
				"method": "rhf"
			},
			{
				"type": "occ",
				"energy": -0.32009,
				"method": "rhf"
			},
			{
				"type": "occ",
				"energy": -0.31793,
				"method": "rhf"
			},
			{
				"type": "occ",
				"energy": -0.30505,
				"method": "rhf"
			},
			{
				"type": "occ",
				"energy": -0.29953,
				"method": "rhf"
			},
			{
				"type": "unocc",
				"energy": -0.12111,
				"method": "rhf"
			},
			{
				"type": "unocc",
				"energy": -0.09926,
				"method": "rhf"
			},
			{
				"type": "unocc",
				"energy": -0.06372,
				"method": "rhf"
			},
			{
				"type": "unocc",
				"energy": 0.00494,
				"method": "rhf"
			},
			{
				"type": "unocc",
				"energy": 0.02671,
				"method": "rhf"
			}
		],
		"cosmo_sigma_profile": { 
			"-0.025": 0.0,
			"-0.024": 0.0,
			"-0.023": 0.0,
			"-0.022": 0.0,
			"-0.021": 0.184245823141,
			"-0.02": 1.73981637358,
			"-0.019": 2.16881875129,
			"-0.018": 2.31471034107,
			"-0.017": 2.00343804878,
			"-0.016": 1.71068327417,
			"-0.015": 2.43439642684,
			"-0.014": 1.74899552353,
			"-0.013": 2.21956832734,
			"-0.012": 2.60613044779,
			"-0.011": 2.02444251283,
			"-0.01": 1.41123217467,
			"-0.009": 3.38749329502,
			"-0.008": 4.89448104304,
			"-0.007": 5.44186557605,
			"-0.006": 8.48942095414,
			"-0.005": 11.5027896525,
			"-0.004": 15.0396903166,
			"-0.003": 17.6128942148,
			"-0.002": 13.8772110431,
			"-0.001": 6.41733773858,
			"0.0": 6.60017471041,
			"0.001": 6.60509392561,
			"0.002": 4.71394668993,
			"0.003": 6.13473145283,
			"0.004": 7.3169672775,
			"0.005": 7.99962334287,
			"0.006": 10.9866279216,
			"0.007": 12.9094606875,
			"0.008": 10.4898570722,
			"0.009": 12.2640729609,
			"0.01": 9.76609783105,
			"0.011": 9.16510664046,
			"0.012": 3.45262639757,
			"0.013": 0.227852087673,
			"0.014": 0.0,
			"0.015": 0.0,
			"0.016": 0.0,
			"0.017": 0.0,
			"0.018": 0.0,
			"0.019": 0.0,
			"0.02": 0.0,
			"0.021": 0.0,
			"0.022": 0.0,
			"0.023": 0.0,
			"0.024": 0.0,
			"0.025": 0.0
		}
	}
}
