{
	 "smiles": "CCOC(=O)C1=CC(=O)N(C)C=C1", 
	 "Tm": 365.15, 
	 "num_atms": 24, 
	 "gaussian": { 
		 "optdone": 1, 
		 "sigma_profile": "yes", 
		 "theory": "DFT", 
		 "functional": "B3LYP", 
		 "basiset": "6-31G**", 
		 "properties": { 
			 "R2extent": 3270.2101, 
			 "electric_dipole_moment_norm": 2.013789053, 
			 "electric_quadrupole_moment_norm": 27.1774452703, 
			 "total_energy": -630.029539382, 
			 "HOMO_LUMO_gap": 0.15025, 
			 "cosmo_polarized_energy": -13.35, 
			 "cosmo_cavitation_energy": 28.22, 
			 "cosmo_dispersion_energy": -20.6, 
			 "cosmo_repulsion_energy": 1.64, 
			 "cosmo_total_nonelectrostatic_energy": 9.26, 
			 "SMD_solvation_energy": 7.14 
		},
		"coords": [
			{
				"x": 3.4260834182,
				"y": 2.5716138232,
				"z": 1.7933533754,
				"element": "C" 
			},
			{
				"x": 3.3169515,
				"y": 1.7624857702,
				"z": 0.5100692419,
				"element": "C" 
			},
			{
				"x": 2.0902680199,
				"y": 0.9913890518,
				"z": 0.4773141218,
				"element": "O" 
			},
			{
				"x": 0.9925490136,
				"y": 1.6229927483,
				"z": 0.0203591026,
				"element": "C" 
			},
			{
				"x": 0.9775210245,
				"y": 2.7766119873,
				"z": -0.3641822078,
				"element": "O" 
			},
			{
				"x": -0.2227885161,
				"y": 0.7452493364,
				"z": 0.0291651679,
				"element": "C" 
			},
			{
				"x": -0.1895402684,
				"y": -0.547421099,
				"z": 0.4764499286,
				"element": "C" 
			},
			{
				"x": -1.3685903452,
				"y": -1.395327417,
				"z": 0.4856792947,
				"element": "C" 
			},
			{
				"x": -1.3930830901,
				"y": -2.5609757642,
				"z": 0.8766770708,
				"element": "O" 
			},
			{
				"x": -2.5430775362,
				"y": -0.763479898,
				"z": -0.0076374397,
				"element": "N" 
			},
			{
				"x": -3.7795227445,
				"y": -1.5481816114,
				"z": -0.0340540979,
				"element": "C" 
			},
			{
				"x": -2.5564126252,
				"y": 0.5314748206,
				"z": -0.4506693342,
				"element": "C" 
			},
			{
				"x": -1.4410818824,
				"y": 1.312151227,
				"z": -0.4512494419,
				"element": "C" 
			},
			{
				"x": 4.3942429463,
				"y": 3.0821701059,
				"z": 1.82678391,
				"element": "H" 
			},
			{
				"x": 3.3490001235,
				"y": 1.9231638519,
				"z": 2.6708844209,
				"element": "H" 
			},
			{
				"x": 2.6386189447,
				"y": 3.3277001024,
				"z": 1.8400551081,
				"element": "H" 
			},
			{
				"x": 4.1074240324,
				"y": 1.01194697,
				"z": 0.4393813287,
				"element": "H" 
			},
			{
				"x": 3.3477556949,
				"y": 2.4090456596,
				"z": -0.3699073835,
				"element": "H" 
			},
			{
				"x": 0.7221925816,
				"y": -0.9982243825,
				"z": 0.8456425189,
				"element": "H" 
			},
			{
				"x": -3.5428908872,
				"y": -2.5362520783,
				"z": 0.3566031208,
				"element": "H" 
			},
			{
				"x": -4.1531016778,
				"y": -1.6347334617,
				"z": -1.0586362248,
				"element": "H" 
			},
			{
				"x": -4.5431016534,
				"y": -1.0759548235,
				"z": 0.5910884575,
				"element": "H" 
			},
			{
				"x": -3.517357851,
				"y": 0.8933180503,
				"z": -0.8013389337,
				"element": "H" 
			},
			{
				"x": -1.4647582224,
				"y": 2.3341370307,
				"z": -0.8037311051,
				"element": "H" 
			}
		],
		 "valence_orbital": [ 
			{
				"type": "occ",
				"energy": -0.30531,
				"method": "rhf"
			},
			{
				"type": "occ",
				"energy": -0.29763,
				"method": "rhf"
			},
			{
				"type": "occ",
				"energy": -0.28502,
				"method": "rhf"
			},
			{
				"type": "occ",
				"energy": -0.2506,
				"method": "rhf"
			},
			{
				"type": "occ",
				"energy": -0.21842,
				"method": "rhf"
			},
			{
				"type": "unocc",
				"energy": -0.06817,
				"method": "rhf"
			},
			{
				"type": "unocc",
				"energy": 0.00035,
				"method": "rhf"
			},
			{
				"type": "unocc",
				"energy": 0.04943,
				"method": "rhf"
			},
			{
				"type": "unocc",
				"energy": 0.08972,
				"method": "rhf"
			},
			{
				"type": "unocc",
				"energy": 0.10472,
				"method": "rhf"
			}
		],
		"cosmo_sigma_profile": { 
			"-0.025": 0.0,
			"-0.024": 0.0,
			"-0.023": 0.0,
			"-0.022": 0.0,
			"-0.021": 0.0,
			"-0.02": 0.0,
			"-0.019": 0.0,
			"-0.018": 0.0,
			"-0.017": 0.0,
			"-0.016": 0.0,
			"-0.015": 0.0,
			"-0.014": 0.0,
			"-0.013": 0.0,
			"-0.012": 0.0,
			"-0.011": 0.0,
			"-0.01": 0.27906287462,
			"-0.009": 2.30010918136,
			"-0.008": 2.90012365278,
			"-0.007": 6.11878640762,
			"-0.006": 12.0227987729,
			"-0.005": 14.4442068742,
			"-0.004": 19.9241418532,
			"-0.003": 24.3519718285,
			"-0.002": 21.6912526716,
			"-0.001": 21.2173689914,
			"0.0": 20.1759811053,
			"0.001": 17.0555778114,
			"0.002": 10.7935092293,
			"0.003": 7.9408069443,
			"0.004": 5.45443851742,
			"0.005": 5.16562812398,
			"0.006": 3.57093079969,
			"0.007": 2.29747506115,
			"0.008": 2.5251549165,
			"0.009": 3.01772825551,
			"0.01": 3.19233244902,
			"0.011": 5.32675586461,
			"0.012": 2.96205689176,
			"0.013": 3.08249537286,
			"0.014": 4.76492407929,
			"0.015": 1.56986490226,
			"0.016": 0.0332548814901,
			"0.017": 0.0,
			"0.018": 0.0,
			"0.019": 0.0,
			"0.02": 0.0,
			"0.021": 0.0,
			"0.022": 0.0,
			"0.023": 0.0,
			"0.024": 0.0,
			"0.025": 0.0
		}
	}
}
