{
	 "smiles": "NC(=S)CC1=CC(Cl)=CC=C1", 
	 "Tm": 379.15, 
	 "num_atms": 19, 
	 "gaussian": { 
		 "optdone": 1, 
		 "sigma_profile": "yes", 
		 "theory": "DFT", 
		 "functional": "B3LYP", 
		 "basiset": "6-31G**", 
		 "properties": { 
			 "R2extent": 3174.8734, 
			 "electric_dipole_moment_norm": 3.70733909159, 
			 "electric_quadrupole_moment_norm": 21.9865960753, 
			 "total_energy": -1222.81682702, 
			 "HOMO_LUMO_gap": 0.17168, 
			 "cosmo_polarized_energy": -15.08, 
			 "cosmo_cavitation_energy": 26.72, 
			 "cosmo_dispersion_energy": -19.74, 
			 "cosmo_repulsion_energy": 1.57, 
			 "cosmo_total_nonelectrostatic_energy": 8.55, 
			 "SMD_solvation_energy": 3.14 
		},
		"coords": [
			{
				"x": -1.8031172917,
				"y": 1.300718193,
				"z": 0.4399509885,
				"element": "N" 
			},
			{
				"x": -1.1214705147,
				"y": 1.9485931658,
				"z": -0.5195096231,
				"element": "C" 
			},
			{
				"x": -1.3466049568,
				"y": 3.5615477907,
				"z": -0.8571445395,
				"element": "S" 
			},
			{
				"x": -0.1563561688,
				"y": 1.0821544102,
				"z": -1.3368212757,
				"element": "C" 
			},
			{
				"x": 0.4135928211,
				"y": -0.1269209869,
				"z": -0.6229968344,
				"element": "C" 
			},
			{
				"x": -0.1658759682,
				"y": -1.3925715925,
				"z": -0.7889919054,
				"element": "C" 
			},
			{
				"x": 0.3582948811,
				"y": -2.4924589482,
				"z": -0.1076421484,
				"element": "C" 
			},
			{
				"x": -0.3803327243,
				"y": -4.0712219008,
				"z": -0.3346800135,
				"element": "Cl" 
			},
			{
				"x": 1.4554200192,
				"y": -2.3642870088,
				"z": 0.7412213516,
				"element": "C" 
			},
			{
				"x": 2.0312401291,
				"y": -1.1021237159,
				"z": 0.9038915813,
				"element": "C" 
			},
			{
				"x": 1.5174602045,
				"y": 0.0058863296,
				"z": 0.2325680223,
				"element": "C" 
			},
			{
				"x": -1.6116018832,
				"y": 0.3339882791,
				"z": 0.6642337226,
				"element": "H" 
			},
			{
				"x": -2.4693459355,
				"y": 1.8156310678,
				"z": 0.9968625665,
				"element": "H" 
			},
			{
				"x": 0.6422266057,
				"y": 1.7385211694,
				"z": -1.6867800073,
				"element": "H" 
			},
			{
				"x": -0.7077594021,
				"y": 0.7644601353,
				"z": -2.2303770637,
				"element": "H" 
			},
			{
				"x": -1.0110149887,
				"y": -1.5273093724,
				"z": -1.4570799071,
				"element": "H" 
			},
			{
				"x": 1.8503618178,
				"y": -3.2318597798,
				"z": 1.2576798686,
				"element": "H" 
			},
			{
				"x": 2.8895837565,
				"y": -0.9886858349,
				"z": 1.5593293602,
				"element": "H" 
			},
			{
				"x": 1.974699599,
				"y": 0.9821385991,
				"z": 0.3668858567,
				"element": "H" 
			}
		],
		 "valence_orbital": [ 
			{
				"type": "occ",
				"energy": -0.32354,
				"method": "rhf"
			},
			{
				"type": "occ",
				"energy": -0.27736,
				"method": "rhf"
			},
			{
				"type": "occ",
				"energy": -0.26006,
				"method": "rhf"
			},
			{
				"type": "occ",
				"energy": -0.23228,
				"method": "rhf"
			},
			{
				"type": "occ",
				"energy": -0.20817,
				"method": "rhf"
			},
			{
				"type": "unocc",
				"energy": -0.03649,
				"method": "rhf"
			},
			{
				"type": "unocc",
				"energy": -0.03188,
				"method": "rhf"
			},
			{
				"type": "unocc",
				"energy": -0.02555,
				"method": "rhf"
			},
			{
				"type": "unocc",
				"energy": 0.01826,
				"method": "rhf"
			},
			{
				"type": "unocc",
				"energy": 0.0728,
				"method": "rhf"
			}
		],
		"cosmo_sigma_profile": { 
			"-0.025": 0.0,
			"-0.024": 0.0,
			"-0.023": 0.0,
			"-0.022": 0.0,
			"-0.021": 0.0,
			"-0.02": 0.0,
			"-0.019": 0.0,
			"-0.018": 0.0,
			"-0.017": 0.0,
			"-0.016": 0.0,
			"-0.015": 0.869095126338,
			"-0.014": 1.68983595071,
			"-0.013": 2.2621810642,
			"-0.012": 2.51151084891,
			"-0.011": 1.64828192697,
			"-0.01": 1.52728712754,
			"-0.009": 1.74111521647,
			"-0.008": 4.36641024508,
			"-0.007": 10.7652591362,
			"-0.006": 14.1321345249,
			"-0.005": 13.0406068153,
			"-0.004": 11.2020920723,
			"-0.003": 11.0315690779,
			"-0.002": 10.1975336633,
			"-0.001": 11.4437715116,
			"0.0": 11.6540308213,
			"0.001": 15.6229393833,
			"0.002": 17.0849650922,
			"0.003": 16.8502911518,
			"0.004": 16.2150650866,
			"0.005": 9.63652119549,
			"0.006": 3.91578208841,
			"0.007": 3.42735742922,
			"0.008": 4.61295146959,
			"0.009": 7.00743762524,
			"0.01": 5.76900322475,
			"0.011": 4.0423539802,
			"0.012": 3.07845938991,
			"0.013": 0.821495615393,
			"0.014": 0.0,
			"0.015": 0.0,
			"0.016": 0.0,
			"0.017": 0.0,
			"0.018": 0.0,
			"0.019": 0.0,
			"0.02": 0.0,
			"0.021": 0.0,
			"0.022": 0.0,
			"0.023": 0.0,
			"0.024": 0.0,
			"0.025": 0.0
		}
	}
}
