{
	 "smiles": "COC1=NC(C)=CC(=O)N1", 
	 "Tm": 473.15, 
	 "num_atms": 18, 
	 "gaussian": { 
		 "optdone": 1, 
		 "sigma_profile": "yes", 
		 "theory": "DFT", 
		 "functional": "B3LYP", 
		 "basiset": "6-31G**", 
		 "properties": { 
			 "R2extent": 1817.609, 
			 "electric_dipole_moment_norm": 4.18681497203, 
			 "electric_quadrupole_moment_norm": 14.9657291503, 
			 "total_energy": -493.428427678, 
			 "HOMO_LUMO_gap": 0.20241, 
			 "cosmo_polarized_energy": -12.03, 
			 "cosmo_cavitation_energy": 22.34, 
			 "cosmo_dispersion_energy": -16.67, 
			 "cosmo_repulsion_energy": 1.38, 
			 "cosmo_total_nonelectrostatic_energy": 7.05, 
			 "SMD_solvation_energy": 4.87 
		},
		"coords": [
			{
				"x": -2.1037911289,
				"y": 1.6579356362,
				"z": 1.1393216812,
				"element": "C" 
			},
			{
				"x": -2.1433580906,
				"y": 0.6875848957,
				"z": 0.0793337201,
				"element": "O" 
			},
			{
				"x": -0.9899807628,
				"y": 0.4547856931,
				"z": -0.5588701763,
				"element": "C" 
			},
			{
				"x": 0.1161571144,
				"y": 1.063165627,
				"z": -0.2511674963,
				"element": "N" 
			},
			{
				"x": 1.230204088,
				"y": 0.7222500051,
				"z": -0.9961443229,
				"element": "C" 
			},
			{
				"x": 2.4849745663,
				"y": 1.4507974268,
				"z": -0.6048047375,
				"element": "C" 
			},
			{
				"x": 1.2035016214,
				"y": -0.1989266457,
				"z": -2.0061869978,
				"element": "C" 
			},
			{
				"x": -0.0214407665,
				"y": -0.8844510217,
				"z": -2.3595303535,
				"element": "C" 
			},
			{
				"x": -0.1968459455,
				"y": -1.7238079301,
				"z": -3.2305340631,
				"element": "O" 
			},
			{
				"x": -1.1103726554,
				"y": -0.47239249,
				"z": -1.5445752233,
				"element": "N" 
			},
			{
				"x": -3.1228038209,
				"y": 1.7006935693,
				"z": 1.523313945,
				"element": "H" 
			},
			{
				"x": -1.7928422573,
				"y": 2.6325069726,
				"z": 0.7564902972,
				"element": "H" 
			},
			{
				"x": -1.4080489219,
				"y": 1.3448069907,
				"z": 1.920937829,
				"element": "H" 
			},
			{
				"x": 3.3371460462,
				"y": 1.150888122,
				"z": -1.2179899362,
				"element": "H" 
			},
			{
				"x": 2.717310857,
				"y": 1.2579033607,
				"z": 0.4481787174,
				"element": "H" 
			},
			{
				"x": 2.336904892,
				"y": 2.5316754139,
				"z": -0.7035000136,
				"element": "H" 
			},
			{
				"x": 2.0904134877,
				"y": -0.4482503466,
				"z": -2.574973772,
				"element": "H" 
			},
			{
				"x": -2.0096283231,
				"y": -0.9030652793,
				"z": -1.7240990974,
				"element": "H" 
			}
		],
		 "valence_orbital": [ 
			{
				"type": "occ",
				"energy": -0.32203,
				"method": "rhf"
			},
			{
				"type": "occ",
				"energy": -0.29384,
				"method": "rhf"
			},
			{
				"type": "occ",
				"energy": -0.2881,
				"method": "rhf"
			},
			{
				"type": "occ",
				"energy": -0.25311,
				"method": "rhf"
			},
			{
				"type": "occ",
				"energy": -0.23004,
				"method": "rhf"
			},
			{
				"type": "unocc",
				"energy": -0.02763,
				"method": "rhf"
			},
			{
				"type": "unocc",
				"energy": 0.01496,
				"method": "rhf"
			},
			{
				"type": "unocc",
				"energy": 0.09018,
				"method": "rhf"
			},
			{
				"type": "unocc",
				"energy": 0.10411,
				"method": "rhf"
			},
			{
				"type": "unocc",
				"energy": 0.11224,
				"method": "rhf"
			}
		],
		"cosmo_sigma_profile": { 
			"-0.025": 0.0,
			"-0.024": 0.0,
			"-0.023": 0.0,
			"-0.022": 0.0,
			"-0.021": 0.0,
			"-0.02": 0.0,
			"-0.019": 0.0,
			"-0.018": 0.0,
			"-0.017": 0.0251438685568,
			"-0.016": 0.674887734099,
			"-0.015": 1.01435335142,
			"-0.014": 0.941130871305,
			"-0.013": 0.566617879621,
			"-0.012": 0.61897174457,
			"-0.011": 1.37146761461,
			"-0.01": 0.668568589411,
			"-0.009": 0.648264986424,
			"-0.008": 0.902674641582,
			"-0.007": 2.3962487148,
			"-0.006": 8.47400442665,
			"-0.005": 14.2556981572,
			"-0.004": 15.4461528878,
			"-0.003": 20.1033739924,
			"-0.002": 16.0092920478,
			"-0.001": 16.3850091914,
			"0.0": 12.8323629933,
			"0.001": 10.0179048188,
			"0.002": 9.27950385035,
			"0.003": 6.21998462336,
			"0.004": 4.60633071814,
			"0.005": 4.00689775117,
			"0.006": 3.46352877311,
			"0.007": 3.37378829359,
			"0.008": 2.92880956196,
			"0.009": 2.82134337186,
			"0.01": 1.47103422717,
			"0.011": 2.15088523442,
			"0.012": 2.94545327178,
			"0.013": 4.53983156589,
			"0.014": 5.15123247447,
			"0.015": 0.920822893919,
			"0.016": 0.0,
			"0.017": 0.0,
			"0.018": 0.0,
			"0.019": 0.0,
			"0.02": 0.0,
			"0.021": 0.0,
			"0.022": 0.0,
			"0.023": 0.0,
			"0.024": 0.0,
			"0.025": 0.0
		}
	}
}
