{
	 "smiles": "COC1=C(OC)C=C(C=C1)C1=NN(C=C1C=CC(O)=O)C1=CC=CC=C1", 
	 "Tm": 436.15, 
	 "num_atms": 44, 
	 "gaussian": { 
		 "optdone": 1, 
		 "sigma_profile": "yes", 
		 "theory": "DFT", 
		 "functional": "B3LYP", 
		 "basiset": "6-31G**", 
		 "properties": { 
			 "R2extent": 12946.1195, 
			 "electric_dipole_moment_norm": 0.572014457859, 
			 "electric_quadrupole_moment_norm": 15.1671781898, 
			 "total_energy": -1183.33383398, 
			 "HOMO_LUMO_gap": 0.15197, 
			 "cosmo_polarized_energy": -15.0, 
			 "cosmo_cavitation_energy": 49.04, 
			 "cosmo_dispersion_energy": -34.46, 
			 "cosmo_repulsion_energy": 2.6, 
			 "cosmo_total_nonelectrostatic_energy": 17.18, 
			 "SMD_solvation_energy": 10.25 
		},
		"coords": [
			{
				"x": 0.9999600789,
				"y": 5.5854189222,
				"z": 3.0663108316,
				"element": "C" 
			},
			{
				"x": -0.2898169058,
				"y": 5.0738997083,
				"z": 2.7047167795,
				"element": "O" 
			},
			{
				"x": -0.2741997201,
				"y": 3.8542311549,
				"z": 2.0685485771,
				"element": "C" 
			},
			{
				"x": 0.248185003,
				"y": 3.7020095303,
				"z": 0.767895478,
				"element": "C" 
			},
			{
				"x": 0.8139757377,
				"y": 4.7624665355,
				"z": 0.0943598465,
				"element": "O" 
			},
			{
				"x": -0.1151087899,
				"y": 5.7685084736,
				"z": -0.3268107477,
				"element": "C" 
			},
			{
				"x": 0.2274776963,
				"y": 2.4523270941,
				"z": 0.1555838319,
				"element": "C" 
			},
			{
				"x": -0.3229091312,
				"y": 1.3346601833,
				"z": 0.8041198838,
				"element": "C" 
			},
			{
				"x": -0.8541544843,
				"y": 1.5001636745,
				"z": 2.0931630873,
				"element": "C" 
			},
			{
				"x": -0.8264155649,
				"y": 2.7481245346,
				"z": 2.714458689,
				"element": "C" 
			},
			{
				"x": -0.308093937,
				"y": 0.0227245685,
				"z": 0.130619862,
				"element": "C" 
			},
			{
				"x": 0.759144523,
				"y": -0.3388863788,
				"z": -0.573534676,
				"element": "N" 
			},
			{
				"x": 0.4703814561,
				"y": -1.5810289574,
				"z": -1.0573718201,
				"element": "N" 
			},
			{
				"x": -0.7555747966,
				"y": -2.0096698382,
				"z": -0.6754357309,
				"element": "C" 
			},
			{
				"x": -1.3228671248,
				"y": -1.0029067026,
				"z": 0.1017631068,
				"element": "C" 
			},
			{
				"x": -2.6447797583,
				"y": -0.8843783674,
				"z": 0.6705409452,
				"element": "C" 
			},
			{
				"x": -3.6817284171,
				"y": -1.7496208828,
				"z": 0.8113446751,
				"element": "C" 
			},
			{
				"x": -3.7513016785,
				"y": -3.1586377959,
				"z": 0.4191239227,
				"element": "C" 
			},
			{
				"x": -4.9329145986,
				"y": -3.7088506547,
				"z": 0.8116483958,
				"element": "O" 
			},
			{
				"x": -2.9197726062,
				"y": -3.8280199288,
				"z": -0.178167515,
				"element": "O" 
			},
			{
				"x": 1.4236225714,
				"y": -2.2671742389,
				"z": -1.8586005484,
				"element": "C" 
			},
			{
				"x": 1.3164741446,
				"y": -3.6487630059,
				"z": -2.0557221503,
				"element": "C" 
			},
			{
				"x": 2.2488352211,
				"y": -4.3008231354,
				"z": -2.8612942113,
				"element": "C" 
			},
			{
				"x": 3.2917733829,
				"y": -3.5902763227,
				"z": -3.4578221008,
				"element": "C" 
			},
			{
				"x": 3.3977446653,
				"y": -2.2146038809,
				"z": -3.2420256064,
				"element": "C" 
			},
			{
				"x": 2.4684831084,
				"y": -1.5465810424,
				"z": -2.4475201723,
				"element": "C" 
			},
			{
				"x": 1.4959211113,
				"y": 4.9135115626,
				"z": 3.7778085419,
				"element": "H" 
			},
			{
				"x": 0.8212314755,
				"y": 6.5498533499,
				"z": 3.5459218883,
				"element": "H" 
			},
			{
				"x": 1.637097432,
				"y": 5.7195764016,
				"z": 2.1872097292,
				"element": "H" 
			},
			{
				"x": -0.8472419966,
				"y": 5.3500360989,
				"z": -1.0288085628,
				"element": "H" 
			},
			{
				"x": -0.6398826057,
				"y": 6.2100486472,
				"z": 0.5262191659,
				"element": "H" 
			},
			{
				"x": 0.4737492393,
				"y": 6.5347513556,
				"z": -0.8351109198,
				"element": "H" 
			},
			{
				"x": 0.6418710873,
				"y": 2.3550092333,
				"z": -0.841631725,
				"element": "H" 
			},
			{
				"x": -1.2484780598,
				"y": 0.6449730968,
				"z": 2.6318726981,
				"element": "H" 
			},
			{
				"x": -1.2180825547,
				"y": 2.8835081032,
				"z": 3.717625309,
				"element": "H" 
			},
			{
				"x": -1.1819807146,
				"y": -2.9518563147,
				"z": -0.972843278,
				"element": "H" 
			},
			{
				"x": -2.8445166116,
				"y": 0.1119319953,
				"z": 1.0590399114,
				"element": "H" 
			},
			{
				"x": -4.5830550281,
				"y": -1.3775114672,
				"z": 1.2867615627,
				"element": "H" 
			},
			{
				"x": -4.902287927,
				"y": -4.6327804581,
				"z": 0.5142197215,
				"element": "H" 
			},
			{
				"x": 0.527038507,
				"y": -4.2153883598,
				"z": -1.5745218973,
				"element": "H" 
			},
			{
				"x": 2.1618926502,
				"y": -5.3727430469,
				"z": -3.0116606379,
				"element": "H" 
			},
			{
				"x": 4.0175594961,
				"y": -4.1046537676,
				"z": -4.0802013715,
				"element": "H" 
			},
			{
				"x": 4.2074783038,
				"y": -1.6524194287,
				"z": -3.6978010784,
				"element": "H" 
			},
			{
				"x": 2.53736612,
				"y": -0.4807602483,
				"z": -2.2701916901,
				"element": "H" 
			}
		],
		 "valence_orbital": [ 
			{
				"type": "occ",
				"energy": -0.2582,
				"method": "rhf"
			},
			{
				"type": "occ",
				"energy": -0.25069,
				"method": "rhf"
			},
			{
				"type": "occ",
				"energy": -0.24248,
				"method": "rhf"
			},
			{
				"type": "occ",
				"energy": -0.23168,
				"method": "rhf"
			},
			{
				"type": "occ",
				"energy": -0.21187,
				"method": "rhf"
			},
			{
				"type": "unocc",
				"energy": -0.0599,
				"method": "rhf"
			},
			{
				"type": "unocc",
				"energy": -0.03146,
				"method": "rhf"
			},
			{
				"type": "unocc",
				"energy": -0.00821,
				"method": "rhf"
			},
			{
				"type": "unocc",
				"energy": -0.00279,
				"method": "rhf"
			},
			{
				"type": "unocc",
				"energy": 0.00237,
				"method": "rhf"
			}
		],
		"cosmo_sigma_profile": { 
			"-0.025": 0.0,
			"-0.024": 0.0,
			"-0.023": 0.0,
			"-0.022": 0.0,
			"-0.021": 0.0,
			"-0.02": 0.0,
			"-0.019": 0.0,
			"-0.018": 0.36161167585,
			"-0.017": 0.874427084561,
			"-0.016": 0.969143748922,
			"-0.015": 0.550589635682,
			"-0.014": 0.566440508985,
			"-0.013": 0.406771477359,
			"-0.012": 1.08201987609,
			"-0.011": 0.967008618476,
			"-0.01": 0.507264104365,
			"-0.009": 0.545801939344,
			"-0.008": 0.912872329168,
			"-0.007": 6.12618378944,
			"-0.006": 18.9124576655,
			"-0.005": 28.4952798051,
			"-0.004": 30.4242463674,
			"-0.003": 33.4159708053,
			"-0.002": 31.5199017719,
			"-0.001": 28.1288149679,
			"0.0": 29.3509924318,
			"0.001": 31.5567681293,
			"0.002": 34.7634905191,
			"0.003": 33.1399157149,
			"0.004": 26.7820330453,
			"0.005": 13.8704734785,
			"0.006": 7.17351436056,
			"0.007": 6.72779801133,
			"0.008": 5.2733562003,
			"0.009": 5.72510552662,
			"0.01": 5.84775184176,
			"0.011": 4.43591970271,
			"0.012": 3.20703721519,
			"0.013": 0.187376111267,
			"0.014": 0.0,
			"0.015": 0.0,
			"0.016": 0.0,
			"0.017": 0.0,
			"0.018": 0.0,
			"0.019": 0.0,
			"0.02": 0.0,
			"0.021": 0.0,
			"0.022": 0.0,
			"0.023": 0.0,
			"0.024": 0.0,
			"0.0": 0.0
		}
	}
}
