{
	 "smiles": "COC1=CC(=CC(OC)=C1OC)C(=O)N1CCCC(C1)C(O)=O", 
	 "Tm": 463.15, 
	 "num_atms": 44, 
	 "gaussian": { 
		 "optdone": 1, 
		 "sigma_profile": "yes", 
		 "theory": "DFT", 
		 "functional": "B3LYP", 
		 "basiset": "6-31G**", 
		 "properties": { 
			 "R2extent": 9358.7202, 
			 "electric_dipole_moment_norm": 3.64065657403, 
			 "electric_quadrupole_moment_norm": 21.3562344836, 
			 "total_energy": -1128.43164687, 
			 "HOMO_LUMO_gap": 0.18973, 
			 "cosmo_polarized_energy": -23.56, 
			 "cosmo_cavitation_energy": 46.54, 
			 "cosmo_dispersion_energy": -31.63, 
			 "cosmo_repulsion_energy": 2.48, 
			 "cosmo_total_nonelectrostatic_energy": 17.39, 
			 "SMD_solvation_energy": 10.67 
		},
		"coords": [
			{
				"x": 1.7652925175,
				"y": 3.884785136,
				"z": -1.1810892433,
				"element": "C" 
			},
			{
				"x": 1.2842597622,
				"y": 3.7684223446,
				"z": 0.1504639458,
				"element": "O" 
			},
			{
				"x": 0.5307928974,
				"y": 2.676614788,
				"z": 0.4649466255,
				"element": "C" 
			},
			{
				"x": 0.2398187587,
				"y": 1.633520889,
				"z": -0.4179378553,
				"element": "C" 
			},
			{
				"x": -0.5313570546,
				"y": 0.5502456407,
				"z": 0.0152016697,
				"element": "C" 
			},
			{
				"x": -1.0423476632,
				"y": 0.5165857222,
				"z": 1.3186027607,
				"element": "C" 
			},
			{
				"x": -0.7603934797,
				"y": 1.5662194718,
				"z": 2.2022880832,
				"element": "C" 
			},
			{
				"x": -1.2058999323,
				"y": 1.6339588946,
				"z": 3.4886354117,
				"element": "O" 
			},
			{
				"x": -2.0490335042,
				"y": 0.5961441816,
				"z": 3.9588579428,
				"element": "C" 
			},
			{
				"x": 0.029045377,
				"y": 2.6518244071,
				"z": 1.7807910356,
				"element": "C" 
			},
			{
				"x": 0.2406731116,
				"y": 3.6995448982,
				"z": 2.6352530258,
				"element": "O" 
			},
			{
				"x": 1.5370419937,
				"y": 3.7404650421,
				"z": 3.2348357803,
				"element": "C" 
			},
			{
				"x": -0.8711484113,
				"y": -0.4928835829,
				"z": -1.0140838386,
				"element": "C" 
			},
			{
				"x": -1.1114134545,
				"y": -0.1645613836,
				"z": -2.1756552661,
				"element": "O" 
			},
			{
				"x": -0.9514659439,
				"y": -1.8163627527,
				"z": -0.6309726076,
				"element": "N" 
			},
			{
				"x": -1.4047442246,
				"y": -2.7525935001,
				"z": -1.6759247175,
				"element": "C" 
			},
			{
				"x": -1.6118390614,
				"y": -4.1447148219,
				"z": -1.0822104154,
				"element": "C" 
			},
			{
				"x": -0.3070392103,
				"y": -4.7249011278,
				"z": -0.4966308402,
				"element": "C" 
			},
			{
				"x": 0.5969083332,
				"y": -3.5982224353,
				"z": 0.0831058275,
				"element": "C" 
			},
			{
				"x": -0.2610282948,
				"y": -2.3922607469,
				"z": 0.5281854301,
				"element": "C" 
			},
			{
				"x": 1.4687235098,
				"y": -4.1065153141,
				"z": 1.2130555005,
				"element": "C" 
			},
			{
				"x": 0.7402494231,
				"y": -4.4204325862,
				"z": 2.3175791571,
				"element": "O" 
			},
			{
				"x": 2.6716616212,
				"y": -4.236629027,
				"z": 1.1750698825,
				"element": "O" 
			},
			{
				"x": 2.3149872296,
				"y": 4.8264271808,
				"z": -1.218766542,
				"element": "H" 
			},
			{
				"x": 2.4408794949,
				"y": 3.06021105,
				"z": -1.4418626375,
				"element": "H" 
			},
			{
				"x": 0.9420741045,
				"y": 3.9158484754,
				"z": -1.9051303917,
				"element": "H" 
			},
			{
				"x": 0.5747083968,
				"y": 1.6465829125,
				"z": -1.4466366606,
				"element": "H" 
			},
			{
				"x": -1.6734247948,
				"y": -0.3063486447,
				"z": 1.6277964546,
				"element": "H" 
			},
			{
				"x": -1.5448306997,
				"y": -0.3794612176,
				"z": 3.9424191351,
				"element": "H" 
			},
			{
				"x": -2.9756905394,
				"y": 0.5291888619,
				"z": 3.3742404664,
				"element": "H" 
			},
			{
				"x": -2.2945980307,
				"y": 0.8539216474,
				"z": 4.9902765453,
				"element": "H" 
			},
			{
				"x": 1.7221403325,
				"y": 2.8402085461,
				"z": 3.8342745121,
				"element": "H" 
			},
			{
				"x": 2.3218437567,
				"y": 3.8475138996,
				"z": 2.4783210841,
				"element": "H" 
			},
			{
				"x": 1.5432471262,
				"y": 4.6145733894,
				"z": 3.8894093841,
				"element": "H" 
			},
			{
				"x": -0.674611359,
				"y": -2.7832908161,
				"z": -2.4971692227,
				"element": "H" 
			},
			{
				"x": -2.329095928,
				"y": -2.3594678254,
				"z": -2.1060091361,
				"element": "H" 
			},
			{
				"x": -2.380017561,
				"y": -4.0867513789,
				"z": -0.3020931164,
				"element": "H" 
			},
			{
				"x": -2.0064466694,
				"y": -4.8104199384,
				"z": -1.8563785581,
				"element": "H" 
			},
			{
				"x": -0.5482841313,
				"y": -5.4498899628,
				"z": 0.2866412148,
				"element": "H" 
			},
			{
				"x": 0.2541303107,
				"y": -5.2624852628,
				"z": -1.2678395309,
				"element": "H" 
			},
			{
				"x": 1.2915825124,
				"y": -3.2518272662,
				"z": -0.6867561643,
				"element": "H" 
			},
			{
				"x": -0.9717677855,
				"y": -2.7202284514,
				"z": 1.297350914,
				"element": "H" 
			},
			{
				"x": 0.3706341609,
				"y": -1.6252691893,
				"z": 0.9763680145,
				"element": "H" 
			},
			{
				"x": 1.3783830029,
				"y": -4.7395901469,
				"z": 2.9778769406,
				"element": "H" 
			}
		],
		 "valence_orbital": [ 
			{
				"type": "occ",
				"energy": -0.26545,
				"method": "rhf"
			},
			{
				"type": "occ",
				"energy": -0.24816,
				"method": "rhf"
			},
			{
				"type": "occ",
				"energy": -0.23422,
				"method": "rhf"
			},
			{
				"type": "occ",
				"energy": -0.21956,
				"method": "rhf"
			},
			{
				"type": "occ",
				"energy": -0.21325,
				"method": "rhf"
			},
			{
				"type": "unocc",
				"energy": -0.02352,
				"method": "rhf"
			},
			{
				"type": "unocc",
				"energy": -0.00176,
				"method": "rhf"
			},
			{
				"type": "unocc",
				"energy": 0.01802,
				"method": "rhf"
			},
			{
				"type": "unocc",
				"energy": 0.05848,
				"method": "rhf"
			},
			{
				"type": "unocc",
				"energy": 0.05907,
				"method": "rhf"
			}
		],
		"cosmo_sigma_profile": { 
			"-0.025": 0.0,
			"-0.024": 0.0,
			"-0.023": 0.0,
			"-0.022": 0.0,
			"-0.021": 0.0,
			"-0.02": 0.0,
			"-0.019": 0.00531585240283,
			"-0.018": 0.765028578839,
			"-0.017": 0.818099077486,
			"-0.016": 0.899809970992,
			"-0.015": 0.640873491351,
			"-0.014": 1.10723991245,
			"-0.013": 0.55446096307,
			"-0.012": 0.748298319105,
			"-0.011": 0.721719625355,
			"-0.01": 0.247360011059,
			"-0.009": 0.614017715663,
			"-0.008": 0.463700102704,
			"-0.007": 3.45107996095,
			"-0.006": 16.3010388647,
			"-0.005": 32.876796645,
			"-0.004": 44.1196893882,
			"-0.003": 51.869038765,
			"-0.002": 34.7317753573,
			"-0.001": 23.6227529332,
			"0.0": 18.5561271977,
			"0.001": 15.7209869098,
			"0.002": 17.1207773784,
			"0.003": 16.0662385543,
			"0.004": 11.4342882867,
			"0.005": 9.05402890532,
			"0.006": 7.2479058646,
			"0.007": 6.89763670656,
			"0.008": 6.9840501982,
			"0.009": 6.11012547712,
			"0.01": 5.63773240445,
			"0.011": 9.82924315319,
			"0.012": 9.39565733071,
			"0.013": 4.25670146219,
			"0.014": 5.59888372866,
			"0.015": 0.893136106323,
			"0.016": 0.0,
			"0.017": 0.0,
			"0.018": 0.0,
			"0.019": 0.0,
			"0.02": 0.0,
			"0.021": 0.0,
			"0.022": 0.0,
			"0.023": 0.0,
			"0.024": 0.0,
			"0.025": 0.0
		}
	}
}
