{
	 "smiles": "O=C1C=CC(=O)N1CCC1=CC=CC=C1", 
	 "Tm": 383.15, 
	 "num_atms": 26, 
	 "gaussian": { 
		 "optdone": 1, 
		 "sigma_profile": "yes", 
		 "theory": "DFT", 
		 "functional": "B3LYP", 
		 "basiset": "6-31G**", 
		 "properties": { 
			 "R2extent": 3163.1546, 
			 "electric_dipole_moment_norm": 1.06749714754, 
			 "electric_quadrupole_moment_norm": 12.3943247993, 
			 "total_energy": -669.11318262, 
			 "HOMO_LUMO_gap": 0.14672, 
			 "cosmo_polarized_energy": -11.47, 
			 "cosmo_cavitation_energy": 30.72, 
			 "cosmo_dispersion_energy": -20.7, 
			 "cosmo_repulsion_energy": 1.63, 
			 "cosmo_total_nonelectrostatic_energy": 11.65, 
			 "SMD_solvation_energy": 6.54 
		},
		"coords": [
			{
				"x": 1.5791514484,
				"y": -0.7801894204,
				"z": 2.2126931074,
				"element": "O" 
			},
			{
				"x": 2.0780201965,
				"y": -0.2082505856,
				"z": 1.2659482234,
				"element": "C" 
			},
			{
				"x": 3.1329843378,
				"y": -0.7182219946,
				"z": 0.3244496227,
				"element": "C" 
			},
			{
				"x": 3.417702956,
				"y": 0.2425967141,
				"z": -0.559321144,
				"element": "C" 
			},
			{
				"x": 2.5623448769,
				"y": 1.4423170565,
				"z": -0.2580815469,
				"element": "C" 
			},
			{
				"x": 2.5362128303,
				"y": 2.5090314482,
				"z": -0.8415134142,
				"element": "O" 
			},
			{
				"x": 1.7836049154,
				"y": 1.0962625605,
				"z": 0.8468231542,
				"element": "N" 
			},
			{
				"x": 0.8010521766,
				"y": 1.9624483745,
				"z": 1.4861344116,
				"element": "C" 
			},
			{
				"x": -0.410920589,
				"y": 2.2879856509,
				"z": 0.5889502848,
				"element": "C" 
			},
			{
				"x": -1.167468843,
				"y": 1.0683637475,
				"z": 0.1084651826,
				"element": "C" 
			},
			{
				"x": -1.0081396065,
				"y": 0.5992769021,
				"z": -1.2019113086,
				"element": "C" 
			},
			{
				"x": -1.6880829252,
				"y": -0.5376398305,
				"z": -1.6441427651,
				"element": "C" 
			},
			{
				"x": -2.5399285766,
				"y": -1.2243149238,
				"z": -0.7784373504,
				"element": "C" 
			},
			{
				"x": -2.7082619789,
				"y": -0.7663707492,
				"z": 0.5305016509,
				"element": "C" 
			},
			{
				"x": -2.0277153151,
				"y": 0.3695826382,
				"z": 0.9675210751,
				"element": "C" 
			},
			{
				"x": 3.5470516677,
				"y": -1.7134828108,
				"z": 0.4176441791,
				"element": "H" 
			},
			{
				"x": 4.125018723,
				"y": 0.2377657157,
				"z": -1.3781484171,
				"element": "H" 
			},
			{
				"x": 1.2951899911,
				"y": 2.8939130272,
				"z": 1.7821175785,
				"element": "H" 
			},
			{
				"x": 0.4878660506,
				"y": 1.4347909094,
				"z": 2.3904279028,
				"element": "H" 
			},
			{
				"x": -0.0607892768,
				"y": 2.8744072483,
				"z": -0.2651322415,
				"element": "H" 
			},
			{
				"x": -1.0731313188,
				"y": 2.9383071109,
				"z": 1.1740005116,
				"element": "H" 
			},
			{
				"x": -0.3508589029,
				"y": 1.1353988578,
				"z": -1.8823684586,
				"element": "H" 
			},
			{
				"x": -1.5543543844,
				"y": -0.8832574732,
				"z": -2.6655445191,
				"element": "H" 
			},
			{
				"x": -3.0717274022,
				"y": -2.1075501114,
				"z": -1.1205087134,
				"element": "H" 
			},
			{
				"x": -3.3719572596,
				"y": -1.292983055,
				"z": 1.2105111335,
				"element": "H" 
			},
			{
				"x": -2.1676637911,
				"y": 0.7201129924,
				"z": 1.9876218609,
				"element": "H" 
			}
		],
		 "valence_orbital": [ 
			{
				"type": "occ",
				"energy": -0.29421,
				"method": "rhf"
			},
			{
				"type": "occ",
				"energy": -0.27514,
				"method": "rhf"
			},
			{
				"type": "occ",
				"energy": -0.26933,
				"method": "rhf"
			},
			{
				"type": "occ",
				"energy": -0.24765,
				"method": "rhf"
			},
			{
				"type": "occ",
				"energy": -0.24118,
				"method": "rhf"
			},
			{
				"type": "unocc",
				"energy": -0.09446,
				"method": "rhf"
			},
			{
				"type": "unocc",
				"energy": -0.00161,
				"method": "rhf"
			},
			{
				"type": "unocc",
				"energy": 0.00111,
				"method": "rhf"
			},
			{
				"type": "unocc",
				"energy": 0.0547,
				"method": "rhf"
			},
			{
				"type": "unocc",
				"energy": 0.06697,
				"method": "rhf"
			}
		],
		"cosmo_sigma_profile": { 
			"-0.025": 0.0,
			"-0.024": 0.0,
			"-0.023": 0.0,
			"-0.022": 0.0,
			"-0.021": 0.0,
			"-0.02": 0.0,
			"-0.019": 0.0,
			"-0.018": 0.0,
			"-0.017": 0.0,
			"-0.016": 0.0,
			"-0.015": 0.0,
			"-0.014": 0.0,
			"-0.013": 0.0,
			"-0.012": 0.0,
			"-0.011": 0.0,
			"-0.01": 0.926224793963,
			"-0.009": 3.68108328523,
			"-0.008": 3.58716387113,
			"-0.007": 3.2063672698,
			"-0.006": 7.62296956698,
			"-0.005": 22.0490361751,
			"-0.004": 25.8721060196,
			"-0.003": 29.6814905537,
			"-0.002": 23.1919924493,
			"-0.001": 17.3221694927,
			"0.0": 14.0965049947,
			"0.001": 11.4212582136,
			"0.002": 10.5822141896,
			"0.003": 10.3267076512,
			"0.004": 11.9301984916,
			"0.005": 11.1125710472,
			"0.006": 10.3136654104,
			"0.007": 4.05374263009,
			"0.008": 3.46254837063,
			"0.009": 3.19599817195,
			"0.01": 5.99860936283,
			"0.011": 8.9427737349,
			"0.012": 2.80345363675,
			"0.013": 0.0680950431041,
			"0.014": 0.0,
			"0.015": 0.0,
			"0.016": 0.0,
			"0.017": 0.0,
			"0.018": 0.0,
			"0.019": 0.0,
			"0.02": 0.0,
			"0.021": 0.0,
			"0.022": 0.0,
			"0.023": 0.0,
			"0.024": 0.0,
			"0.025": 0.0
		}
	}
}
