{
	 "smiles": "[O-][N+](=O)C1=CC=C(C=C1)C(=O)C1=NOC(=C1S(=O)(=O)C1=CC=CC=C1)C1=CC=C(C=C1)[N+]([O-])=O", 
	 "Tm": 406.15, 
	 "num_atms": 47, 
	 "gaussian": { 
		 "optdone": 1, 
		 "sigma_profile": "yes", 
		 "theory": "DFT", 
		 "functional": "B3LYP", 
		 "basiset": "6-31G**", 
		 "properties": { 
			 "R2extent": 21298.4004, 
			 "electric_dipole_moment_norm": 5.07924224073, 
			 "electric_quadrupole_moment_norm": 39.9613179217, 
			 "total_energy": -2010.07294963, 
			 "HOMO_LUMO_gap": 0.15822, 
			 "cosmo_polarized_energy": -22.78, 
			 "cosmo_cavitation_energy": 56.53, 
			 "cosmo_dispersion_energy": -38.66, 
			 "cosmo_repulsion_energy": 2.81, 
			 "cosmo_total_nonelectrostatic_energy": 20.68, 
			 "SMD_solvation_energy": 13.56 
		},
		"coords": [
			{
				"x": -0.0695374641,
				"y": -6.7116935859,
				"z": -5.0961939648,
				"element": "O" 
			},
			{
				"x": -0.6913628256,
				"y": -5.7404816999,
				"z": -5.5215712187,
				"element": "N" 
			},
			{
				"x": -1.4158421407,
				"y": -5.7447883602,
				"z": -6.5144757982,
				"element": "O" 
			},
			{
				"x": -0.5570115962,
				"y": -4.4682574673,
				"z": -4.7829069178,
				"element": "C" 
			},
			{
				"x": -1.2527882777,
				"y": -3.3490777104,
				"z": -5.2414092754,
				"element": "C" 
			},
			{
				"x": -1.1204578995,
				"y": -2.1569336191,
				"z": -4.5426608714,
				"element": "C" 
			},
			{
				"x": -0.3029162738,
				"y": -2.0891592088,
				"z": -3.4014166406,
				"element": "C" 
			},
			{
				"x": 0.3832548698,
				"y": -3.2316099727,
				"z": -2.9621964532,
				"element": "C" 
			},
			{
				"x": 0.2593704154,
				"y": -4.4324115067,
				"z": -3.6559139112,
				"element": "C" 
			},
			{
				"x": -0.2110047745,
				"y": -0.7824932964,
				"z": -2.695100971,
				"element": "C" 
			},
			{
				"x": -0.7767679393,
				"y": 0.2199342734,
				"z": -3.0962164266,
				"element": "O" 
			},
			{
				"x": 0.6574438294,
				"y": -0.6661284722,
				"z": -1.456167272,
				"element": "C" 
			},
			{
				"x": 1.9596005065,
				"y": -0.7251264624,
				"z": -1.5979922682,
				"element": "N" 
			},
			{
				"x": 2.4857204306,
				"y": -0.43473747,
				"z": -0.3412462439,
				"element": "O" 
			},
			{
				"x": 1.4938206357,
				"y": -0.2137494515,
				"z": 0.5507012846,
				"element": "C" 
			},
			{
				"x": 0.2873047852,
				"y": -0.3564392903,
				"z": -0.1078998951,
				"element": "C" 
			},
			{
				"x": -1.4113324822,
				"y": -0.2511543171,
				"z": 0.4509111602,
				"element": "S" 
			},
			{
				"x": -1.4890296044,
				"y": -0.794974268,
				"z": 1.8160506804,
				"element": "O" 
			},
			{
				"x": -2.1947498292,
				"y": -0.8551972599,
				"z": -0.6334382065,
				"element": "O" 
			},
			{
				"x": -1.7560541025,
				"y": 1.5072402727,
				"z": 0.5361870411,
				"element": "C" 
			},
			{
				"x": -1.9659424168,
				"y": 2.088321018,
				"z": 1.7881717302,
				"element": "C" 
			},
			{
				"x": -2.2605462404,
				"y": 3.4508675509,
				"z": 1.8534519316,
				"element": "C" 
			},
			{
				"x": -2.3375785188,
				"y": 4.2068471257,
				"z": 0.6821070468,
				"element": "C" 
			},
			{
				"x": -2.125582797,
				"y": 3.6073537914,
				"z": -0.5629957952,
				"element": "C" 
			},
			{
				"x": -1.8361016892,
				"y": 2.2463322407,
				"z": -0.648385638,
				"element": "C" 
			},
			{
				"x": 1.9578266596,
				"y": 0.1476814248,
				"z": 1.8966336441,
				"element": "C" 
			},
			{
				"x": 3.1992058093,
				"y": 0.80474434,
				"z": 2.0160250696,
				"element": "C" 
			},
			{
				"x": 3.6912350352,
				"y": 1.1590541967,
				"z": 3.2654469681,
				"element": "C" 
			},
			{
				"x": 2.9358621866,
				"y": 0.8466761237,
				"z": 4.3939938801,
				"element": "C" 
			},
			{
				"x": 1.7125191357,
				"y": 0.1884652587,
				"z": 4.306717191,
				"element": "C" 
			},
			{
				"x": 1.221673122,
				"y": -0.1642368529,
				"z": 3.0529064098,
				"element": "C" 
			},
			{
				"x": 3.4517618465,
				"y": 1.2240826323,
				"z": 5.7231155848,
				"element": "N" 
			},
			{
				"x": 2.7610598333,
				"y": 0.9432262279,
				"z": 6.7005923687,
				"element": "O" 
			},
			{
				"x": 4.538997687,
				"y": 1.7968407814,
				"z": 5.767406667,
				"element": "O" 
			},
			{
				"x": -1.8762066336,
				"y": -3.4321904017,
				"z": -6.1225378936,
				"element": "H" 
			},
			{
				"x": -1.6443652853,
				"y": -1.2626864615,
				"z": -4.860596901,
				"element": "H" 
			},
			{
				"x": 1.0207792508,
				"y": -3.1842866698,
				"z": -2.0874738523,
				"element": "H" 
			},
			{
				"x": 0.7774032744,
				"y": -5.3297835746,
				"z": -3.3427939417,
				"element": "H" 
			},
			{
				"x": -1.9119641838,
				"y": 1.4777108254,
				"z": 2.682140016,
				"element": "H" 
			},
			{
				"x": -2.4319716122,
				"y": 3.9183247989,
				"z": 2.8181183892,
				"element": "H" 
			},
			{
				"x": -2.5660914458,
				"y": 5.2670404199,
				"z": 0.7384179305,
				"element": "H" 
			},
			{
				"x": -2.1901088178,
				"y": 4.1989902128,
				"z": -1.4708894226,
				"element": "H" 
			},
			{
				"x": -1.6677758524,
				"y": 1.7692054905,
				"z": -1.608799482,
				"element": "H" 
			},
			{
				"x": 3.770421458,
				"y": 1.0409207765,
				"z": 1.1258919485,
				"element": "H" 
			},
			{
				"x": 4.6384256367,
				"y": 1.6705487562,
				"z": 3.3800542595,
				"element": "H" 
			},
			{
				"x": 1.1666075573,
				"y": -0.0454403255,
				"z": 5.2119853511,
				"element": "H" 
			},
			{
				"x": 0.2774967376,
				"y": -0.6867708336,
				"z": 2.9677527082,
				"element": "H" 
			}
		],
		 "valence_orbital": [ 
			{
				"type": "occ",
				"energy": -0.2963,
				"method": "rhf"
			},
			{
				"type": "occ",
				"energy": -0.29345,
				"method": "rhf"
			},
			{
				"type": "occ",
				"energy": -0.29187,
				"method": "rhf"
			},
			{
				"type": "occ",
				"energy": -0.28321,
				"method": "rhf"
			},
			{
				"type": "occ",
				"energy": -0.27716,
				"method": "rhf"
			},
			{
				"type": "unocc",
				"energy": -0.11894,
				"method": "rhf"
			},
			{
				"type": "unocc",
				"energy": -0.11563,
				"method": "rhf"
			},
			{
				"type": "unocc",
				"energy": -0.06958,
				"method": "rhf"
			},
			{
				"type": "unocc",
				"energy": -0.06581,
				"method": "rhf"
			},
			{
				"type": "unocc",
				"energy": -0.05454,
				"method": "rhf"
			}
		],
		"cosmo_sigma_profile": { 
			"-0.025": 0.0,
			"-0.024": 0.0,
			"-0.023": 0.0,
			"-0.022": 0.0,
			"-0.021": 0.0,
			"-0.02": 0.0,
			"-0.019": 0.0,
			"-0.018": 0.0,
			"-0.017": 0.0,
			"-0.016": 0.0,
			"-0.015": 0.0,
			"-0.014": 0.0,
			"-0.013": 0.0,
			"-0.012": 0.0,
			"-0.011": 0.0,
			"-0.01": 0.00294853996518,
			"-0.009": 1.79797026508,
			"-0.008": 13.0952559895,
			"-0.007": 23.1672160312,
			"-0.006": 25.7698974315,
			"-0.005": 28.4237571919,
			"-0.004": 29.2991002562,
			"-0.003": 32.4093284744,
			"-0.002": 36.6382225366,
			"-0.001": 45.3498538661,
			"0.0": 43.1833335424,
			"0.001": 23.7429886669,
			"0.002": 23.1460942538,
			"0.003": 20.6717222299,
			"0.004": 12.7014036994,
			"0.005": 15.1836142791,
			"0.006": 14.5637709704,
			"0.007": 25.401744862,
			"0.008": 17.2755811696,
			"0.009": 13.7649985608,
			"0.01": 8.50998299774,
			"0.011": 4.3384945336,
			"0.012": 0.0460375678389,
			"0.013": 0.0,
			"0.014": 0.0,
			"0.015": 0.0,
			"0.016": 0.0,
			"0.017": 0.0,
			"0.018": 0.0,
			"0.019": 0.0,
			"0.02": 0.0,
			"0.021": 0.0,
			"0.022": 0.0,
			"0.023": 0.0,
			"0.024": 0.0,
			"0.025": 0.0
		}
	}
}
