{
	 "smiles": "ON=C/C1=CC2=CC=CC(Br)=C2C=C1", 
	 "Tm": 451.15, 
	 "num_atms": 22, 
	 "gaussian": { 
		 "optdone": 1, 
		 "sigma_profile": "yes", 
		 "theory": "DFT", 
		 "functional": "B3LYP", 
		 "basiset": "6-31G**", 
		 "properties": { 
			 "R2extent": 5305.507, 
			 "electric_dipole_moment_norm": 1.63096850062, 
			 "electric_quadrupole_moment_norm": 8.60681861317, 
			 "total_energy": -3125.32033246, 
			 "HOMO_LUMO_gap": 0.15693, 
			 "cosmo_polarized_energy": -8.85, 
			 "cosmo_cavitation_energy": 28.54, 
			 "cosmo_dispersion_energy": -21.65, 
			 "cosmo_repulsion_energy": 1.67, 
			 "cosmo_total_nonelectrostatic_energy": 8.56, 
			 "SMD_solvation_energy": 3.63 
		},
		"coords": [
			{
				"x": -2.8377219643,
				"y": -0.0884142539,
				"z": 2.1772907995,
				"element": "O" 
			},
			{
				"x": -1.9379075945,
				"y": -0.8322496823,
				"z": 2.9488590112,
				"element": "N" 
			},
			{
				"x": -0.7859739703,
				"y": -0.9902259823,
				"z": 2.3989549865,
				"element": "C" 
			},
			{
				"x": -0.2085757551,
				"y": -0.5524442491,
				"z": 1.1225564134,
				"element": "C" 
			},
			{
				"x": -0.8651874671,
				"y": 0.198002091,
				"z": 0.1558154869,
				"element": "C" 
			},
			{
				"x": -0.2214750047,
				"y": 0.5741694839,
				"z": -1.0507577204,
				"element": "C" 
			},
			{
				"x": -0.906863272,
				"y": 1.342450654,
				"z": -2.0308231277,
				"element": "C" 
			},
			{
				"x": -0.2826181546,
				"y": 1.7068117107,
				"z": -3.1999893882,
				"element": "C" 
			},
			{
				"x": 1.056059333,
				"y": 1.320999706,
				"z": -3.4457964251,
				"element": "C" 
			},
			{
				"x": 1.7383017307,
				"y": 0.577050234,
				"z": -2.5105713724,
				"element": "C" 
			},
			{
				"x": 3.5492505373,
				"y": 0.0868201201,
				"z": -2.9047068256,
				"element": "Br" 
			},
			{
				"x": 1.1384925611,
				"y": 0.1738402326,
				"z": -1.2842208369,
				"element": "C" 
			},
			{
				"x": 1.7931404222,
				"y": -0.5931226189,
				"z": -0.2839702062,
				"element": "C" 
			},
			{
				"x": 1.1423089744,
				"y": -0.9407896401,
				"z": 0.8725003793,
				"element": "C" 
			},
			{
				"x": -3.623679706,
				"y": -0.0766195485,
				"z": 2.7391252645,
				"element": "H" 
			},
			{
				"x": -0.1216371791,
				"y": -1.5740215965,
				"z": 3.0357855186,
				"element": "H" 
			},
			{
				"x": -1.8884126226,
				"y": 0.5079026647,
				"z": 0.3146670704,
				"element": "H" 
			},
			{
				"x": -1.934549232,
				"y": 1.635911213,
				"z": -1.8368723052,
				"element": "H" 
			},
			{
				"x": -0.808543854,
				"y": 2.2936747406,
				"z": -3.9467946425,
				"element": "H" 
			},
			{
				"x": 1.5452372642,
				"y": 1.6100192389,
				"z": -4.3688373163,
				"element": "H" 
			},
			{
				"x": 2.8190545432,
				"y": -0.9019183293,
				"z": -0.4469713075,
				"element": "H" 
			},
			{
				"x": 1.6655004102,
				"y": -1.5282461887,
				"z": 1.6223565437,
				"element": "H" 
			}
		],
		 "valence_orbital": [ 
			{
				"type": "occ",
				"energy": -0.28842,
				"method": "rhf"
			},
			{
				"type": "occ",
				"energy": -0.27535,
				"method": "rhf"
			},
			{
				"type": "occ",
				"energy": -0.27002,
				"method": "rhf"
			},
			{
				"type": "occ",
				"energy": -0.24148,
				"method": "rhf"
			},
			{
				"type": "occ",
				"energy": -0.21978,
				"method": "rhf"
			},
			{
				"type": "unocc",
				"energy": -0.06285,
				"method": "rhf"
			},
			{
				"type": "unocc",
				"energy": -0.03466,
				"method": "rhf"
			},
			{
				"type": "unocc",
				"energy": 0.00697,
				"method": "rhf"
			},
			{
				"type": "unocc",
				"energy": 0.01173,
				"method": "rhf"
			},
			{
				"type": "unocc",
				"energy": 0.03796,
				"method": "rhf"
			}
		],
		"cosmo_sigma_profile": { 
			"-0.025": 0.0,
			"-0.024": 0.0,
			"-0.023": 0.0,
			"-0.022": 0.0,
			"-0.021": 0.0,
			"-0.02": 0.0,
			"-0.019": 0.0,
			"-0.018": 0.348736392537,
			"-0.017": 0.941248066844,
			"-0.016": 1.1996788972,
			"-0.015": 0.882893878011,
			"-0.014": 0.733189816942,
			"-0.013": 0.450508943325,
			"-0.012": 0.430637238205,
			"-0.011": 0.587902827715,
			"-0.01": 0.690782585657,
			"-0.009": 1.0228250966,
			"-0.008": 3.1001035797,
			"-0.007": 9.16976220991,
			"-0.006": 11.4110353583,
			"-0.005": 12.4081172383,
			"-0.004": 12.1933299032,
			"-0.003": 10.2641407874,
			"-0.002": 10.7118723984,
			"-0.001": 10.8256131593,
			"0.0": 15.0079694793,
			"0.001": 20.1857115619,
			"0.002": 36.1087902689,
			"0.003": 32.2018795042,
			"0.004": 19.4672078701,
			"0.005": 7.93978420446,
			"0.006": 4.28257870031,
			"0.007": 2.65485513913,
			"0.008": 2.01727091024,
			"0.009": 1.32742216668,
			"0.01": 1.11821327755,
			"0.011": 1.21833692151,
			"0.012": 0.923464030285,
			"0.013": 0.756812786666,
			"0.014": 0.154885297383,
			"0.015": 0.0,
			"0.016": 0.0,
			"0.017": 0.0,
			"0.018": 0.0,
			"0.019": 0.0,
			"0.02": 0.0,
			"0.021": 0.0,
			"0.022": 0.0,
			"0.023": 0.0,
			"0.024": 0.0,
			"0.025": 0.0
		}
	}
}
