{
	 "smiles": "CC(C)C1=C(C=CC=C1)N1N=C(N=C1C)C(O)=O", 
	 "Tm": 449.15, 
	 "num_atms": 33, 
	 "gaussian": { 
		 "optdone": 1, 
		 "sigma_profile": "yes", 
		 "theory": "DFT", 
		 "functional": "B3LYP", 
		 "basiset": "6-31G**", 
		 "properties": { 
			 "R2extent": 5261.0464, 
			 "electric_dipole_moment_norm": 8.57213399219, 
			 "electric_quadrupole_moment_norm": 33.615220122, 
			 "total_energy": -819.138628806, 
			 "HOMO_LUMO_gap": 0.22083, 
			 "cosmo_polarized_energy": -17.98, 
			 "cosmo_cavitation_energy": 36.27, 
			 "cosmo_dispersion_energy": -24.53, 
			 "cosmo_repulsion_energy": 1.9, 
			 "cosmo_total_nonelectrostatic_energy": 13.64, 
			 "SMD_solvation_energy": 5.6 
		},
		"coords": [
			{
				"x": 1.988678121,
				"y": 0.6128839133,
				"z": 0.1349761288,
				"element": "C" 
			},
			{
				"x": 0.8765341705,
				"y": 0.2745934389,
				"z": 1.1445442738,
				"element": "C" 
			},
			{
				"x": -0.2378078143,
				"y": 1.3424805916,
				"z": 1.1310369598,
				"element": "C" 
			},
			{
				"x": 0.2984022302,
				"y": -1.1371373678,
				"z": 1.0450062606,
				"element": "C" 
			},
			{
				"x": -0.1198763705,
				"y": -1.7838037369,
				"z": -0.1350314061,
				"element": "C" 
			},
			{
				"x": -0.6694502829,
				"y": -3.0705238971,
				"z": -0.1135830149,
				"element": "C" 
			},
			{
				"x": -0.8162997255,
				"y": -3.7574150275,
				"z": 1.0876210716,
				"element": "C" 
			},
			{
				"x": -0.4127350986,
				"y": -3.1418029869,
				"z": 2.2718639063,
				"element": "C" 
			},
			{
				"x": 0.1298848634,
				"y": -1.8589204849,
				"z": 2.2386808572,
				"element": "C" 
			},
			{
				"x": 0.0097377201,
				"y": -1.1708099706,
				"z": -1.4286601918,
				"element": "N" 
			},
			{
				"x": -0.827188026,
				"y": -0.1910775956,
				"z": -1.8519846187,
				"element": "N" 
			},
			{
				"x": -0.4003600176,
				"y": 0.0457205278,
				"z": -3.0888869455,
				"element": "C" 
			},
			{
				"x": 0.6491596944,
				"y": -0.7194662804,
				"z": -3.488043804,
				"element": "N" 
			},
			{
				"x": 0.8876701053,
				"y": -1.4818978595,
				"z": -2.433678135,
				"element": "C" 
			},
			{
				"x": 1.956715179,
				"y": -2.5176124842,
				"z": -2.3270766794,
				"element": "C" 
			},
			{
				"x": -1.0722663506,
				"y": 1.0841052313,
				"z": -3.9292942091,
				"element": "C" 
			},
			{
				"x": -2.1285233917,
				"y": 1.6721394412,
				"z": -3.3195245089,
				"element": "O" 
			},
			{
				"x": -0.7226861515,
				"y": 1.3829951914,
				"z": -5.042350921,
				"element": "O" 
			},
			{
				"x": 2.4798827748,
				"y": 1.543218613,
				"z": 0.4380576511,
				"element": "H" 
			},
			{
				"x": 2.7551739351,
				"y": -0.1684869754,
				"z": 0.1022314191,
				"element": "H" 
			},
			{
				"x": 1.6062292951,
				"y": 0.7668548872,
				"z": -0.8763592213,
				"element": "H" 
			},
			{
				"x": 1.3417133564,
				"y": 0.3165802468,
				"z": 2.1376615448,
				"element": "H" 
			},
			{
				"x": 0.1906960446,
				"y": 2.3351092568,
				"z": 1.3063958284,
				"element": "H" 
			},
			{
				"x": -0.9781616591,
				"y": 1.1490132759,
				"z": 1.9135892778,
				"element": "H" 
			},
			{
				"x": -0.7548165916,
				"y": 1.3545336499,
				"z": 0.1686840158,
				"element": "H" 
			},
			{
				"x": -0.990308603,
				"y": -3.5163085236,
				"z": -1.0500668813,
				"element": "H" 
			},
			{
				"x": -1.2444459049,
				"y": -4.7546853291,
				"z": 1.0964075814,
				"element": "H" 
			},
			{
				"x": -0.5175767728,
				"y": -3.6583339475,
				"z": 3.2213494228,
				"element": "H" 
			},
			{
				"x": 0.4418782032,
				"y": -1.3923033201,
				"z": 3.1692972081,
				"element": "H" 
			},
			{
				"x": 2.5700492086,
				"y": -2.3688874831,
				"z": -1.433370348,
				"element": "H" 
			},
			{
				"x": 2.5896195549,
				"y": -2.4485849008,
				"z": -3.2121727297,
				"element": "H" 
			},
			{
				"x": 1.5366382127,
				"y": -3.5271426269,
				"z": -2.2746237615,
				"element": "H" 
			},
			{
				"x": -2.2410599087,
				"y": 1.2740725328,
				"z": -2.4389960311,
				"element": "H" 
			}
		],
		 "valence_orbital": [ 
			{
				"type": "occ",
				"energy": -0.29417,
				"method": "rhf"
			},
			{
				"type": "occ",
				"energy": -0.27991,
				"method": "rhf"
			},
			{
				"type": "occ",
				"energy": -0.27315,
				"method": "rhf"
			},
			{
				"type": "occ",
				"energy": -0.26853,
				"method": "rhf"
			},
			{
				"type": "occ",
				"energy": -0.26445,
				"method": "rhf"
			},
			{
				"type": "unocc",
				"energy": -0.04362,
				"method": "rhf"
			},
			{
				"type": "unocc",
				"energy": -0.03148,
				"method": "rhf"
			},
			{
				"type": "unocc",
				"energy": -0.02638,
				"method": "rhf"
			},
			{
				"type": "unocc",
				"energy": 0.00598,
				"method": "rhf"
			},
			{
				"type": "unocc",
				"energy": 0.06887,
				"method": "rhf"
			}
		],
		"cosmo_sigma_profile": { 
			"-0.025": 0.0,
			"-0.024": 0.0,
			"-0.023": 0.0,
			"-0.022": 0.0,
			"-0.021": 0.0,
			"-0.02": 0.0,
			"-0.019": 0.0,
			"-0.018": 0.0,
			"-0.017": 0.0,
			"-0.016": 0.0,
			"-0.015": 0.170068382147,
			"-0.014": 0.77497684875,
			"-0.013": 0.446576132442,
			"-0.012": 0.364038033854,
			"-0.011": 1.12632623853,
			"-0.01": 0.680837106096,
			"-0.009": 0.500690427809,
			"-0.008": 1.38562382059,
			"-0.007": 6.59377057944,
			"-0.006": 16.64154738,
			"-0.005": 19.6409040828,
			"-0.004": 23.3565117418,
			"-0.003": 28.9566004701,
			"-0.002": 30.9193133285,
			"-0.001": 26.9907490217,
			"0.0": 22.7474418967,
			"0.001": 20.8929577297,
			"0.002": 13.5372145767,
			"0.003": 13.6403019777,
			"0.004": 12.4219404739,
			"0.005": 5.75165234674,
			"0.006": 3.96664918971,
			"0.007": 3.06421902854,
			"0.008": 3.69722807656,
			"0.009": 5.62471287032,
			"0.01": 6.15737136642,
			"0.011": 6.69792645425,
			"0.012": 5.22081972465,
			"0.013": 3.14700996387,
			"0.014": 1.14115007176,
			"0.015": 1.07356369591,
			"0.016": 0.341245156084,
			"0.017": 0.0,
			"0.018": 0.0,
			"0.019": 0.0,
			"0.02": 0.0,
			"0.021": 0.0,
			"0.022": 0.0,
			"0.023": 0.0,
			"0.024": 0.0,
			"0.025": 0.0
		}
	}
}
