{
	 "smiles": "ClS(Cl)=O", 
	 "Tm": 169.15, 
	 "num_atms": 4, 
	 "gaussian": { 
		 "optdone": 1, 
		 "sigma_profile": "yes", 
		 "theory": "DFT", 
		 "functional": "B3LYP", 
		 "basiset": "6-31G**", 
		 "properties": { 
			 "R2extent": 2087.3308, 
			 "electric_dipole_moment_norm": 1.70453898166, 
			 "electric_quadrupole_moment_norm": 7.29717023441, 
			 "total_energy": -1393.74927328, 
			 "HOMO_LUMO_gap": 0.19295, 
			 "cosmo_polarized_energy": -4.24, 
			 "cosmo_cavitation_energy": 13.78, 
			 "cosmo_dispersion_energy": -11.26, 
			 "cosmo_repulsion_energy": 0.98, 
			 "cosmo_total_nonelectrostatic_energy": 3.49, 
			 "SMD_solvation_energy": 0.63 
		},
		"coords": [
			{
				"x": 0.6213892493,
				"y": -0.5802139211,
				"z": 0.7552236294,
				"element": "Cl" 
			},
			{
				"x": 0.7998563127,
				"y": -1.7514761522,
				"z": 2.5470029998,
				"element": "S" 
			},
			{
				"x": -1.1938493848,
				"y": -2.5474822946,
				"z": 2.6233666523,
				"element": "Cl" 
			},
			{
				"x": 0.9671038228,
				"y": -0.8359276322,
				"z": 3.6736067186,
				"element": "O" 
			}
		],
		 "valence_orbital": [ 
			{
				"type": "occ",
				"energy": -0.37381,
				"method": "rhf"
			},
			{
				"type": "occ",
				"energy": -0.35581,
				"method": "rhf"
			},
			{
				"type": "occ",
				"energy": -0.3455,
				"method": "rhf"
			},
			{
				"type": "occ",
				"energy": -0.33561,
				"method": "rhf"
			},
			{
				"type": "occ",
				"energy": -0.32189,
				"method": "rhf"
			},
			{
				"type": "unocc",
				"energy": -0.12894,
				"method": "rhf"
			},
			{
				"type": "unocc",
				"energy": -0.10938,
				"method": "rhf"
			},
			{
				"type": "unocc",
				"energy": -0.00694,
				"method": "rhf"
			},
			{
				"type": "unocc",
				"energy": 0.24729,
				"method": "rhf"
			},
			{
				"type": "unocc",
				"energy": 0.26507,
				"method": "rhf"
			}
		],
		"cosmo_sigma_profile": { 
			"-0.025": 0.0,
			"-0.024": 0.0,
			"-0.023": 0.0,
			"-0.022": 0.0,
			"-0.021": 0.0,
			"-0.02": 0.0,
			"-0.019": 0.0,
			"-0.018": 0.0,
			"-0.017": 0.0,
			"-0.016": 0.0,
			"-0.015": 0.0,
			"-0.014": 0.0,
			"-0.013": 0.0,
			"-0.012": 0.0,
			"-0.011": 0.00434516694487,
			"-0.01": 1.35643418851,
			"-0.009": 3.58684032716,
			"-0.008": 6.48569062974,
			"-0.007": 5.39693582632,
			"-0.006": 2.80290243137,
			"-0.005": 3.00107192337,
			"-0.004": 2.77650798362,
			"-0.003": 2.09953021947,
			"-0.002": 5.04551009755,
			"-0.001": 7.94294761999,
			"0.0": 10.4570648645,
			"0.001": 10.5752308448,
			"0.002": 14.9573035909,
			"0.003": 22.9333793141,
			"0.004": 7.54231199211,
			"0.005": 2.82251616434,
			"0.006": 6.52436779085,
			"0.007": 1.00312863944,
			"0.008": 0.0,
			"0.009": 0.0,
			"0.01": 0.0,
			"0.011": 0.0,
			"0.012": 0.0,
			"0.013": 0.0,
			"0.014": 0.0,
			"0.015": 0.0,
			"0.016": 0.0,
			"0.017": 0.0,
			"0.018": 0.0,
			"0.019": 0.0,
			"0.02": 0.0,
			"0.021": 0.0,
			"0.022": 0.0,
			"0.023": 0.0,
			"0.024": 0.0,
			"0.025": 0.0
		}
	}
}
