{
	 "smiles": "OC(=O)C1CCN(CC1)C(=O)CCC1=CC=CC=C1", 
	 "Tm": 381.15, 
	 "num_atms": 38, 
	 "gaussian": { 
		 "optdone": 1, 
		 "sigma_profile": "yes", 
		 "theory": "DFT", 
		 "functional": "B3LYP", 
		 "basiset": "6-31G**", 
		 "properties": { 
			 "R2extent": 7494.4333, 
			 "electric_dipole_moment_norm": 5.68182323731, 
			 "electric_quadrupole_moment_norm": 26.2001222864, 
			 "total_energy": -863.499451847, 
			 "HOMO_LUMO_gap": 0.23533, 
			 "cosmo_polarized_energy": -20.37, 
			 "cosmo_cavitation_energy": 39.09, 
			 "cosmo_dispersion_energy": -27.58, 
			 "cosmo_repulsion_energy": 2.12, 
			 "cosmo_total_nonelectrostatic_energy": 13.63, 
			 "SMD_solvation_energy": 7.37 
		},
		"coords": [
			{
				"x": -3.3404956825,
				"y": -1.460262249,
				"z": -2.5668602892,
				"element": "O" 
			},
			{
				"x": -3.5713511986,
				"y": -2.7420029133,
				"z": -2.1923237161,
				"element": "C" 
			},
			{
				"x": -4.3114575006,
				"y": -3.4463214844,
				"z": -2.8359084541,
				"element": "O" 
			},
			{
				"x": -2.8437903406,
				"y": -3.2339229271,
				"z": -0.9332001384,
				"element": "C" 
			},
			{
				"x": -2.9395452702,
				"y": -2.240547245,
				"z": 0.2609987022,
				"element": "C" 
			},
			{
				"x": -1.6391461967,
				"y": -1.43816851,
				"z": 0.4690859642,
				"element": "C" 
			},
			{
				"x": -1.0123388336,
				"y": -1.1225615993,
				"z": -0.8239849428,
				"element": "N" 
			},
			{
				"x": -0.5438338686,
				"y": -2.3018268671,
				"z": -1.5942888715,
				"element": "C" 
			},
			{
				"x": -1.3593238395,
				"y": -3.5520958061,
				"z": -1.2272813744,
				"element": "C" 
			},
			{
				"x": -0.3499875915,
				"y": 0.0724528044,
				"z": -1.1014839669,
				"element": "C" 
			},
			{
				"x": 0.4041849553,
				"y": 0.1380747781,
				"z": -2.0631814475,
				"element": "O" 
			},
			{
				"x": -0.6659348511,
				"y": 1.2874343516,
				"z": -0.227523904,
				"element": "C" 
			},
			{
				"x": 0.1411175683,
				"y": 2.5410095926,
				"z": -0.6246197163,
				"element": "C" 
			},
			{
				"x": 1.5446131435,
				"y": 2.5739823837,
				"z": -0.0488768072,
				"element": "C" 
			},
			{
				"x": 2.6282077836,
				"y": 1.9968418797,
				"z": -0.7265548491,
				"element": "C" 
			},
			{
				"x": 3.909252735,
				"y": 2.0239299915,
				"z": -0.1728238524,
				"element": "C" 
			},
			{
				"x": 4.1301590977,
				"y": 2.6259182574,
				"z": 1.0675403373,
				"element": "C" 
			},
			{
				"x": 3.059596426,
				"y": 3.2043504979,
				"z": 1.751407962,
				"element": "C" 
			},
			{
				"x": 1.7800571253,
				"y": 3.1783186317,
				"z": 1.1944154578,
				"element": "C" 
			},
			{
				"x": -2.6593484954,
				"y": -1.0614718275,
				"z": -1.9905902954,
				"element": "H" 
			},
			{
				"x": -3.3526258355,
				"y": -4.165981788,
				"z": -0.6793903912,
				"element": "H" 
			},
			{
				"x": -3.1544185318,
				"y": -2.7940786647,
				"z": 1.1806818363,
				"element": "H" 
			},
			{
				"x": -3.7782452447,
				"y": -1.5526490282,
				"z": 0.1105035987,
				"element": "H" 
			},
			{
				"x": -1.8560279664,
				"y": -0.5163114753,
				"z": 1.0058828933,
				"element": "H" 
			},
			{
				"x": -0.9311452522,
				"y": -2.0083002956,
				"z": 1.0871551887,
				"element": "H" 
			},
			{
				"x": 0.525263299,
				"y": -2.4647994964,
				"z": -1.4105764699,
				"element": "H" 
			},
			{
				"x": -0.6440047426,
				"y": -2.0630017459,
				"z": -2.6548417243,
				"element": "H" 
			},
			{
				"x": -1.2798836287,
				"y": -4.2805912917,
				"z": -2.039686452,
				"element": "H" 
			},
			{
				"x": -0.9369115068,
				"y": -4.0319468887,
				"z": -0.3368958943,
				"element": "H" 
			},
			{
				"x": -1.7424012043,
				"y": 1.4908575995,
				"z": -0.3096135947,
				"element": "H" 
			},
			{
				"x": -0.4773214191,
				"y": 1.0530405357,
				"z": 0.8261967486,
				"element": "H" 
			},
			{
				"x": -0.4089914744,
				"y": 3.4180317263,
				"z": -0.2666578279,
				"element": "H" 
			},
			{
				"x": 0.1775534567,
				"y": 2.6010414196,
				"z": -1.715508758,
				"element": "H" 
			},
			{
				"x": 2.4542925201,
				"y": 1.518049799,
				"z": -1.684508377,
				"element": "H" 
			},
			{
				"x": 4.7377757479,
				"y": 1.5752459137,
				"z": -0.7142098805,
				"element": "H" 
			},
			{
				"x": 5.1285386883,
				"y": 2.6485643946,
				"z": 1.4952777019,
				"element": "H" 
			},
			{
				"x": 3.2207556304,
				"y": 3.6823961921,
				"z": 2.7138445854,
				"element": "H" 
			},
			{
				"x": 0.9530622984,
				"y": 3.6424013542,
				"z": 1.7282010188,
				"element": "H" 
			}
		],
		 "valence_orbital": [ 
			{
				"type": "occ",
				"energy": -0.27549,
				"method": "rhf"
			},
			{
				"type": "occ",
				"energy": -0.26516,
				"method": "rhf"
			},
			{
				"type": "occ",
				"energy": -0.25494,
				"method": "rhf"
			},
			{
				"type": "occ",
				"energy": -0.24592,
				"method": "rhf"
			},
			{
				"type": "occ",
				"energy": -0.23968,
				"method": "rhf"
			},
			{
				"type": "unocc",
				"energy": -0.00435,
				"method": "rhf"
			},
			{
				"type": "unocc",
				"energy": 0.00176,
				"method": "rhf"
			},
			{
				"type": "unocc",
				"energy": 0.00342,
				"method": "rhf"
			},
			{
				"type": "unocc",
				"energy": 0.01275,
				"method": "rhf"
			},
			{
				"type": "unocc",
				"energy": 0.05621,
				"method": "rhf"
			}
		],
		"cosmo_sigma_profile": { 
			"-0.025": 0.0,
			"-0.024": 0.0,
			"-0.023": 0.0,
			"-0.022": 0.0,
			"-0.021": 0.0,
			"-0.02": 0.0,
			"-0.019": 0.0,
			"-0.018": 0.0,
			"-0.017": 0.0,
			"-0.016": 0.0,
			"-0.015": 0.0,
			"-0.014": 0.0,
			"-0.013": 0.0,
			"-0.012": 0.0,
			"-0.011": 0.510886211985,
			"-0.01": 1.23331973333,
			"-0.009": 1.3182558025,
			"-0.008": 1.8342092889,
			"-0.007": 5.27365134745,
			"-0.006": 12.0987027884,
			"-0.005": 38.372572816,
			"-0.004": 43.0920601291,
			"-0.003": 35.5054084017,
			"-0.002": 25.6068608915,
			"-0.001": 17.0203065345,
			"0.0": 13.7877919604,
			"0.001": 10.4473753392,
			"0.002": 10.2485029628,
			"0.003": 10.85943911,
			"0.004": 11.9037141999,
			"0.005": 11.6151012379,
			"0.006": 13.1437039408,
			"0.007": 8.07376794509,
			"0.008": 2.82850297527,
			"0.009": 4.50706044665,
			"0.01": 5.5709560316,
			"0.011": 7.03029505839,
			"0.012": 8.06815428532,
			"0.013": 6.31270787785,
			"0.014": 0.73007572739,
			"0.015": 0.0,
			"0.016": 0.0,
			"0.017": 0.0,
			"0.018": 0.0,
			"0.019": 0.0,
			"0.02": 0.0,
			"0.021": 0.0,
			"0.022": 0.0,
			"0.023": 0.0,
			"0.024": 0.0,
			"0.025": 0.0
		}
	}
}
