{
	 "smiles": "[O-][N+](=O)C1=CC(NC2=CC=CC=C2)=CC=C1", 
	 "Tm": 385.15, 
	 "num_atms": 26, 
	 "gaussian": { 
		 "optdone": 1, 
		 "sigma_profile": "yes", 
		 "theory": "DFT", 
		 "functional": "B3LYP", 
		 "basiset": "6-31G**", 
		 "properties": { 
			 "R2extent": 5122.4807, 
			 "electric_dipole_moment_norm": 4.97671131773, 
			 "electric_quadrupole_moment_norm": 17.9406939598, 
			 "total_energy": -723.157334841, 
			 "HOMO_LUMO_gap": 0.12268, 
			 "cosmo_polarized_energy": -11.73, 
			 "cosmo_cavitation_energy": 31.0, 
			 "cosmo_dispersion_energy": -22.76, 
			 "cosmo_repulsion_energy": 1.75, 
			 "cosmo_total_nonelectrostatic_energy": 9.99, 
			 "SMD_solvation_energy": 7.33 
		},
		"coords": [
			{
				"x": 2.479362682,
				"y": -3.4706544162,
				"z": 1.528046864,
				"element": "O" 
			},
			{
				"x": 1.297256578,
				"y": -3.7061867413,
				"z": 1.7790030757,
				"element": "N" 
			},
			{
				"x": 0.8895640409,
				"y": -4.7316353932,
				"z": 2.3224891318,
				"element": "O" 
			},
			{
				"x": 0.2986335222,
				"y": -2.6894363726,
				"z": 1.4011486848,
				"element": "C" 
			},
			{
				"x": 0.7495383712,
				"y": -1.5162286229,
				"z": 0.8098805786,
				"element": "C" 
			},
			{
				"x": -0.179785337,
				"y": -0.530892469,
				"z": 0.4342941678,
				"element": "C" 
			},
			{
				"x": 0.2935653669,
				"y": 0.6166015016,
				"z": -0.1941141233,
				"element": "N" 
			},
			{
				"x": -0.3459404524,
				"y": 1.8518656111,
				"z": -0.3926237797,
				"element": "C" 
			},
			{
				"x": -1.2704758141,
				"y": 2.3818075979,
				"z": 0.5228774341,
				"element": "C" 
			},
			{
				"x": -1.846083387,
				"y": 3.6303952056,
				"z": 0.2901619881,
				"element": "C" 
			},
			{
				"x": -1.5000275268,
				"y": 4.3811460363,
				"z": -0.8344752278,
				"element": "C" 
			},
			{
				"x": -0.5632181172,
				"y": 3.8661487612,
				"z": -1.7330464145,
				"element": "C" 
			},
			{
				"x": 0.0029680798,
				"y": 2.6115660432,
				"z": -1.5220093323,
				"element": "C" 
			},
			{
				"x": -1.5480662886,
				"y": -0.7752988495,
				"z": 0.6708907119,
				"element": "C" 
			},
			{
				"x": -1.9619053746,
				"y": -1.9583452936,
				"z": 1.2807123406,
				"element": "C" 
			},
			{
				"x": -1.0471772883,
				"y": -2.939649631,
				"z": 1.6591085706,
				"element": "C" 
			},
			{
				"x": 1.8128008952,
				"y": -1.3794498743,
				"z": 0.6518875224,
				"element": "H" 
			},
			{
				"x": 1.2098492821,
				"y": 0.5334520643,
				"z": -0.6084400915,
				"element": "H" 
			},
			{
				"x": -1.5163059207,
				"y": 1.8328031066,
				"z": 1.4247895095,
				"element": "H" 
			},
			{
				"x": -2.5591681749,
				"y": 4.0248139944,
				"z": 1.0085948316,
				"element": "H" 
			},
			{
				"x": -1.9488409411,
				"y": 5.3544916522,
				"z": -1.0054246079,
				"element": "H" 
			},
			{
				"x": -0.2776800277,
				"y": 4.4377819151,
				"z": -2.6114707492,
				"element": "H" 
			},
			{
				"x": 0.7161299567,
				"y": 2.2072476895,
				"z": -2.2361879425,
				"element": "H" 
			},
			{
				"x": -2.2859951771,
				"y": -0.046970153,
				"z": 0.3574621818,
				"element": "H" 
			},
			{
				"x": -3.0219349983,
				"y": -2.1216426204,
				"z": 1.4492826775,
				"element": "H" 
			},
			{
				"x": -1.3468639492,
				"y": -3.8664307422,
				"z": 2.1292619978,
				"element": "H" 
			}
		],
		 "valence_orbital": [ 
			{
				"type": "occ",
				"energy": -0.28741,
				"method": "rhf"
			},
			{
				"type": "occ",
				"energy": -0.2778,
				"method": "rhf"
			},
			{
				"type": "occ",
				"energy": -0.26932,
				"method": "rhf"
			},
			{
				"type": "occ",
				"energy": -0.26086,
				"method": "rhf"
			},
			{
				"type": "occ",
				"energy": -0.20778,
				"method": "rhf"
			},
			{
				"type": "unocc",
				"energy": -0.0851,
				"method": "rhf"
			},
			{
				"type": "unocc",
				"energy": -0.02444,
				"method": "rhf"
			},
			{
				"type": "unocc",
				"energy": -0.01245,
				"method": "rhf"
			},
			{
				"type": "unocc",
				"energy": -0.00425,
				"method": "rhf"
			},
			{
				"type": "unocc",
				"energy": 0.0215,
				"method": "rhf"
			}
		],
		"cosmo_sigma_profile": { 
			"-0.025": 0.0,
			"-0.024": 0.0,
			"-0.023": 0.0,
			"-0.022": 0.0,
			"-0.021": 0.0,
			"-0.02": 0.0,
			"-0.019": 0.0,
			"-0.018": 0.0,
			"-0.017": 0.0,
			"-0.016": 0.0,
			"-0.015": 0.259329340899,
			"-0.014": 1.34869120142,
			"-0.013": 1.65552115201,
			"-0.012": 1.5836065537,
			"-0.011": 1.26675612114,
			"-0.01": 1.72426234954,
			"-0.009": 1.62806257806,
			"-0.008": 1.96414030624,
			"-0.007": 4.84969636334,
			"-0.006": 11.3363324311,
			"-0.005": 18.0511801966,
			"-0.004": 19.9776499314,
			"-0.003": 18.3046193353,
			"-0.002": 13.8784702726,
			"-0.001": 15.6362576892,
			"0.0": 16.1640281385,
			"0.001": 18.2175865077,
			"0.002": 22.5748690832,
			"0.003": 19.5666277298,
			"0.004": 11.9307884674,
			"0.005": 11.2658575098,
			"0.006": 11.8545543288,
			"0.007": 7.57173945677,
			"0.008": 8.62388615252,
			"0.009": 4.46575269357,
			"0.01": 2.95924932791,
			"0.011": 0.305993521504,
			"0.012": 0.0,
			"0.013": 0.0,
			"0.014": 0.0,
			"0.015": 0.0,
			"0.016": 0.0,
			"0.017": 0.0,
			"0.018": 0.0,
			"0.019": 0.0,
			"0.02": 0.0,
			"0.021": 0.0,
			"0.022": 0.0,
			"0.023": 0.0,
			"0.024": 0.0,
			"0.025": 0.0
		}
	}
}
