{
	 "smiles": "OC(=O)CCCCCC1=CC=C(I)C=C1", 
	 "Tm": 339.15, 
	 "num_atms": 30, 
	 "gaussian": { 
		 "optdone": 1, 
		 "sigma_profile": "yes", 
		 "theory": "DFT", 
		 "functional": "B3LYP", 
		 "basiset": "6-31G**", 
		 "properties": { 
			 "R2extent": 4146.0106, 
			 "electric_dipole_moment_norm": 3.29663499496, 
			 "electric_quadrupole_moment_norm": 11.2464524913, 
			 "total_energy": -628.17929076, 
			 "HOMO_LUMO_gap": 0.19581, 
			 "cosmo_polarized_energy": -9.95, 
			 "cosmo_cavitation_energy": 35.59, 
			 "cosmo_dispersion_energy": -26.04, 
			 "cosmo_repulsion_energy": 2.06, 
			 "cosmo_total_nonelectrostatic_energy": 11.61, 
			 "SMD_solvation_energy": 5.44 
		},
		"coords": [
			{
				"x": -2.0275140984,
				"y": -2.9924190771,
				"z": 2.1785445956,
				"element": "O" 
			},
			{
				"x": -1.2068149564,
				"y": -2.0384129026,
				"z": 1.6749454279,
				"element": "C" 
			},
			{
				"x": -1.4274819718,
				"y": -0.8554371954,
				"z": 1.8325150646,
				"element": "O" 
			},
			{
				"x": -0.0173992906,
				"y": -2.6585647555,
				"z": 0.9725035024,
				"element": "C" 
			},
			{
				"x": 0.8330988848,
				"y": -1.7110804468,
				"z": 0.1124197528,
				"element": "C" 
			},
			{
				"x": 0.2753481497,
				"y": -1.422971314,
				"z": -1.2988245088,
				"element": "C" 
			},
			{
				"x": -0.8229688419,
				"y": -0.3421365977,
				"z": -1.4113346107,
				"element": "C" 
			},
			{
				"x": -0.3002041226,
				"y": 1.0906822884,
				"z": -1.6661358694,
				"element": "C" 
			},
			{
				"x": 0.601799519,
				"y": 1.6791225176,
				"z": -0.5990693396,
				"element": "C" 
			},
			{
				"x": 1.9360564196,
				"y": 1.9965223885,
				"z": -0.8802790433,
				"element": "C" 
			},
			{
				"x": 2.7766062038,
				"y": 2.5548812023,
				"z": 0.0865004996,
				"element": "C" 
			},
			{
				"x": 2.2706778744,
				"y": 2.8015316437,
				"z": 1.3612549555,
				"element": "C" 
			},
			{
				"x": 3.5302932436,
				"y": 3.6514572978,
				"z": 2.8463511614,
				"element": "I" 
			},
			{
				"x": 0.9440608666,
				"y": 2.4961013576,
				"z": 1.6736728487,
				"element": "C" 
			},
			{
				"x": 0.1221913662,
				"y": 1.9406081613,
				"z": 0.6936382855,
				"element": "C" 
			},
			{
				"x": -2.7357290173,
				"y": -2.5191139975,
				"z": 2.6469796907,
				"element": "H" 
			},
			{
				"x": 0.5976385659,
				"y": -3.0874274158,
				"z": 1.7757461168,
				"element": "H" 
			},
			{
				"x": -0.373900599,
				"y": -3.5184700232,
				"z": 0.3932495477,
				"element": "H" 
			},
			{
				"x": 1.0002323811,
				"y": -0.7795147658,
				"z": 0.6595707369,
				"element": "H" 
			},
			{
				"x": 1.8151435851,
				"y": -2.1844730175,
				"z": -0.0025671213,
				"element": "H" 
			},
			{
				"x": -0.1055354214,
				"y": -2.366576356,
				"z": -1.7128091978,
				"element": "H" 
			},
			{
				"x": 1.112492164,
				"y": -1.1375504002,
				"z": -1.9495115578,
				"element": "H" 
			},
			{
				"x": -1.4525277608,
				"y": -0.3478498344,
				"z": -0.5175573036,
				"element": "H" 
			},
			{
				"x": -1.4802703129,
				"y": -0.5911195408,
				"z": -2.2538360851,
				"element": "H" 
			},
			{
				"x": 0.2345617486,
				"y": 1.1032337215,
				"z": -2.6240321138,
				"element": "H" 
			},
			{
				"x": -1.1701135286,
				"y": 1.7485193595,
				"z": -1.7950059243,
				"element": "H" 
			},
			{
				"x": 2.3323013785,
				"y": 1.8104781134,
				"z": -1.8755878628,
				"element": "H" 
			},
			{
				"x": 3.8060112183,
				"y": 2.7927147452,
				"z": -0.1575794392,
				"element": "H" 
			},
			{
				"x": 0.5524519184,
				"y": 2.6853667981,
				"z": 2.6668717206,
				"element": "H" 
			},
			{
				"x": -0.9005055659,
				"y": 1.6849980454,
				"z": 0.9526660709,
				"element": "H" 
			}
		],
		 "valence_orbital": [ 
			{
				"type": "occ",
				"energy": -0.28172,
				"method": "rhf"
			},
			{
				"type": "occ",
				"energy": -0.27858,
				"method": "rhf"
			},
			{
				"type": "occ",
				"energy": -0.26126,
				"method": "rhf"
			},
			{
				"type": "occ",
				"energy": -0.25399,
				"method": "rhf"
			},
			{
				"type": "occ",
				"energy": -0.22715,
				"method": "rhf"
			},
			{
				"type": "unocc",
				"energy": -0.03134,
				"method": "rhf"
			},
			{
				"type": "unocc",
				"energy": -0.01004,
				"method": "rhf"
			},
			{
				"type": "unocc",
				"energy": -0.0057,
				"method": "rhf"
			},
			{
				"type": "unocc",
				"energy": 0.00371,
				"method": "rhf"
			},
			{
				"type": "unocc",
				"energy": 0.04797,
				"method": "rhf"
			}
		],
		"cosmo_sigma_profile": { 
			"-0.025": 0.0,
			"-0.024": 0.0,
			"-0.023": 0.0,
			"-0.022": 0.0,
			"-0.021": 0.0,
			"-0.02": 0.0,
			"-0.019": 0.0,
			"-0.018": 0.393526602662,
			"-0.017": 0.836147003318,
			"-0.016": 1.4328689427,
			"-0.015": 0.279979451267,
			"-0.014": 0.556467185811,
			"-0.013": 0.813703119566,
			"-0.012": 0.700072287306,
			"-0.011": 0.590968384695,
			"-0.01": 0.902821104714,
			"-0.009": 0.718943435421,
			"-0.008": 0.713762129039,
			"-0.007": 1.67551702461,
			"-0.006": 9.1808905955,
			"-0.005": 13.3370213353,
			"-0.004": 18.4798088214,
			"-0.003": 25.305831612,
			"-0.002": 30.032624975,
			"-0.001": 30.1180125139,
			"0.0": 26.2582168901,
			"0.001": 22.5418788791,
			"0.002": 18.7883981164,
			"0.003": 21.4847624256,
			"0.004": 23.2833866941,
			"0.005": 16.8877610043,
			"0.006": 3.77734833584,
			"0.007": 2.46059825846,
			"0.008": 3.30833131056,
			"0.009": 4.06990713708,
			"0.01": 3.12987118491,
			"0.011": 1.37651626406,
			"0.012": 1.35364993654,
			"0.013": 0.354372098924,
			"0.014": 0.000213729837819,
			"0.015": 0.0,
			"0.016": 0.0,
			"0.017": 0.0,
			"0.018": 0.0,
			"0.019": 0.0,
			"0.02": 0.0,
			"0.021": 0.0,
			"0.022": 0.0,
			"0.023": 0.0,
			"0.024": 0.0,
			"0.025": 0.0
		}
	}
}
