{
	 "smiles": "OC(=O)C1(CC1)C(F)(F)F", 
	 "Tm": 361.15, 
	 "num_atms": 15, 
	 "gaussian": { 
		 "optdone": 1, 
		 "sigma_profile": "yes", 
		 "theory": "DFT", 
		 "functional": "B3LYP", 
		 "basiset": "6-31G**", 
		 "properties": { 
			 "R2extent": 2005.9284, 
			 "electric_dipole_moment_norm": 3.04192339976, 
			 "electric_quadrupole_moment_norm": 5.14037622845, 
			 "total_energy": -643.50143503, 
			 "HOMO_LUMO_gap": 0.27956, 
			 "cosmo_polarized_energy": -9.09, 
			 "cosmo_cavitation_energy": 20.04, 
			 "cosmo_dispersion_energy": -14.32, 
			 "cosmo_repulsion_energy": 1.09, 
			 "cosmo_total_nonelectrostatic_energy": 6.82, 
			 "SMD_solvation_energy": 5.64 
		},
		"coords": [
			{
				"x": -1.1446448637,
				"y": -2.2584567286,
				"z": -0.532665522,
				"element": "O" 
			},
			{
				"x": -0.6186460549,
				"y": -1.1303437535,
				"z": -0.0135964515,
				"element": "C" 
			},
			{
				"x": -1.3239586565,
				"y": -0.3130134609,
				"z": 0.5274244553,
				"element": "O" 
			},
			{
				"x": 0.8733777829,
				"y": -0.9071044815,
				"z": -0.1761834121,
				"element": "C" 
			},
			{
				"x": 1.4680113516,
				"y": 0.2157480953,
				"z": 0.6534094479,
				"element": "C" 
			},
			{
				"x": 1.2676093333,
				"y": 0.4268014188,
				"z": -0.8087293518,
				"element": "C" 
			},
			{
				"x": 1.7528110779,
				"y": -2.097973565,
				"z": -0.4324237048,
				"element": "C" 
			},
			{
				"x": 1.7126720365,
				"y": -2.9817771511,
				"z": 0.583185083,
				"element": "F" 
			},
			{
				"x": 3.0381900241,
				"y": -1.7559623939,
				"z": -0.6321657887,
				"element": "F" 
			},
			{
				"x": 1.3540794587,
				"y": -2.7888814781,
				"z": -1.552252725,
				"element": "F" 
			},
			{
				"x": -0.4827905257,
				"y": -2.7577735706,
				"z": -1.0358123168,
				"element": "H" 
			},
			{
				"x": 0.7720847847,
				"y": 0.6867606979,
				"z": 1.3375448935,
				"element": "H" 
			},
			{
				"x": 2.4796609865,
				"y": 0.0724014362,
				"z": 1.0164711173,
				"element": "H" 
			},
			{
				"x": 2.1353825318,
				"y": 0.4221488949,
				"z": -1.4591582187,
				"element": "H" 
			},
			{
				"x": 0.4415607325,
				"y": 1.05242604,
				"z": -1.1278475057,
				"element": "H" 
			}
		],
		 "valence_orbital": [ 
			{
				"type": "occ",
				"energy": -0.38461,
				"method": "rhf"
			},
			{
				"type": "occ",
				"energy": -0.33921,
				"method": "rhf"
			},
			{
				"type": "occ",
				"energy": -0.3379,
				"method": "rhf"
			},
			{
				"type": "occ",
				"energy": -0.31761,
				"method": "rhf"
			},
			{
				"type": "occ",
				"energy": -0.28549,
				"method": "rhf"
			},
			{
				"type": "unocc",
				"energy": -0.00593,
				"method": "rhf"
			},
			{
				"type": "unocc",
				"energy": 0.07959,
				"method": "rhf"
			},
			{
				"type": "unocc",
				"energy": 0.08693,
				"method": "rhf"
			},
			{
				"type": "unocc",
				"energy": 0.09879,
				"method": "rhf"
			},
			{
				"type": "unocc",
				"energy": 0.10236,
				"method": "rhf"
			}
		],
		"cosmo_sigma_profile": { 
			"-0.025": 0.0,
			"-0.024": 0.0,
			"-0.023": 0.0,
			"-0.022": 0.0,
			"-0.021": 0.0,
			"-0.02": 0.0,
			"-0.019": 0.0,
			"-0.018": 0.0,
			"-0.017": 0.0,
			"-0.016": 0.0,
			"-0.015": 0.103492420887,
			"-0.014": 0.709268083976,
			"-0.013": 0.45922238483,
			"-0.012": 0.977531411003,
			"-0.011": 1.26589852455,
			"-0.01": 1.07183997857,
			"-0.009": 1.15658342784,
			"-0.008": 1.76342149581,
			"-0.007": 5.40604590247,
			"-0.006": 7.52941321982,
			"-0.005": 9.15926620038,
			"-0.004": 10.9058351795,
			"-0.003": 12.4365273661,
			"-0.002": 11.5260177548,
			"-0.001": 12.2727342725,
			"0.0": 10.3695056882,
			"0.001": 17.2668420194,
			"0.002": 23.3112311654,
			"0.003": 3.98959242857,
			"0.004": 1.87960535646,
			"0.005": 1.8527610273,
			"0.006": 2.70787400494,
			"0.007": 2.61706011794,
			"0.008": 2.33088366608,
			"0.009": 4.09322858339,
			"0.01": 4.65973716409,
			"0.011": 4.66447818188,
			"0.012": 2.82680991814,
			"0.013": 0.435486532219,
			"0.014": 0.0,
			"0.015": 0.0,
			"0.016": 0.0,
			"0.017": 0.0,
			"0.018": 0.0,
			"0.019": 0.0,
			"0.02": 0.0,
			"0.021": 0.0,
			"0.022": 0.0,
			"0.023": 0.0,
			"0.024": 0.0,
			"0.025": 0.0
		}
	}
}
