{
	 "smiles": "N#CC12CC3CC(CC(C3)C1)C2", 
	 "Tm": 468.15, 
	 "num_atms": 27, 
	 "gaussian": { 
		 "optdone": 1, 
		 "sigma_profile": "yes", 
		 "theory": "DFT", 
		 "functional": "B3LYP", 
		 "basiset": "6-31G**", 
		 "properties": { 
			 "R2extent": 2242.0375, 
			 "electric_dipole_moment_norm": 4.45827687565, 
			 "electric_quadrupole_moment_norm": 17.8976755491, 
			 "total_energy": -482.97804331, 
			 "HOMO_LUMO_gap": 0.33537, 
			 "cosmo_polarized_energy": -7.54, 
			 "cosmo_cavitation_energy": 25.95, 
			 "cosmo_dispersion_energy": -19.32, 
			 "cosmo_repulsion_energy": 1.51, 
			 "cosmo_total_nonelectrostatic_energy": 8.14, 
			 "SMD_solvation_energy": 4.32 
		},
		"coords": [
			{
				"x": -2.0815420108,
				"y": 2.9784297212,
				"z": -2.9864696733,
				"element": "N" 
			},
			{
				"x": -1.4287981617,
				"y": 2.2025192328,
				"z": -2.4194738249,
				"element": "C" 
			},
			{
				"x": -0.6029115886,
				"y": 1.2207408579,
				"z": -1.702608252,
				"element": "C" 
			},
			{
				"x": -1.5064233211,
				"y": 0.3186494054,
				"z": -0.8135141593,
				"element": "C" 
			},
			{
				"x": -0.6335055436,
				"y": -0.7087577878,
				"z": -0.0646150286,
				"element": "C" 
			},
			{
				"x": 0.3840847175,
				"y": 0.0320501133,
				"z": 0.8276933977,
				"element": "C" 
			},
			{
				"x": 1.2903902923,
				"y": 0.9201782824,
				"z": -0.0498861516,
				"element": "C" 
			},
			{
				"x": 2.0424375031,
				"y": 0.0408800455,
				"z": -1.0706312194,
				"element": "C" 
			},
			{
				"x": 1.0250243745,
				"y": -0.6998249633,
				"z": -1.9632066716,
				"element": "C" 
			},
			{
				"x": 0.1188822786,
				"y": -1.5878072411,
				"z": -1.0852735839,
				"element": "C" 
			},
			{
				"x": 0.1609585963,
				"y": 0.3276936197,
				"z": -2.722162249,
				"element": "C" 
			},
			{
				"x": 0.4278764136,
				"y": 1.9563433421,
				"z": -0.7987250057,
				"element": "C" 
			},
			{
				"x": -2.2464849257,
				"y": -0.1902384625,
				"z": -1.442179746,
				"element": "H" 
			},
			{
				"x": -2.0610900822,
				"y": 0.9430842359,
				"z": -0.1033758532,
				"element": "H" 
			},
			{
				"x": -1.2827090869,
				"y": -1.3370702709,
				"z": 0.5574161351,
				"element": "H" 
			},
			{
				"x": 0.9927594002,
				"y": -0.6919703082,
				"z": 1.3841262628,
				"element": "H" 
			},
			{
				"x": -0.1409681381,
				"y": 0.645622629,
				"z": 1.5712253163,
				"element": "H" 
			},
			{
				"x": 2.0116236476,
				"y": 1.452087662,
				"z": 0.5826188666,
				"element": "H" 
			},
			{
				"x": 2.6788673216,
				"y": -0.6829544626,
				"z": -0.545911424,
				"element": "H" 
			},
			{
				"x": 2.706001771,
				"y": 0.6606945752,
				"z": -1.6874659567,
				"element": "H" 
			},
			{
				"x": 1.5571701345,
				"y": -1.3217516258,
				"z": -2.6934029567,
				"element": "H" 
			},
			{
				"x": -0.5963393417,
				"y": -2.1355753172,
				"z": -1.7124737002,
				"element": "H" 
			},
			{
				"x": 0.7234676013,
				"y": -2.3386247337,
				"z": -0.560807966,
				"element": "H" 
			},
			{
				"x": 0.7872525476,
				"y": 0.9586658739,
				"z": -3.3636311543,
				"element": "H" 
			},
			{
				"x": -0.558819971,
				"y": -0.1810806344,
				"z": -3.3740329308,
				"element": "H" 
			},
			{
				"x": 1.0575652312,
				"y": 2.606999091,
				"z": -1.4167839286,
				"element": "H" 
			},
			{
				"x": -0.1029696595,
				"y": 2.6011171202,
				"z": -0.0885485428,
				"element": "H" 
			}
		],
		 "valence_orbital": [ 
			{
				"type": "occ",
				"energy": -0.31405,
				"method": "rhf"
			},
			{
				"type": "occ",
				"energy": -0.31404,
				"method": "rhf"
			},
			{
				"type": "occ",
				"energy": -0.3063,
				"method": "rhf"
			},
			{
				"type": "occ",
				"energy": -0.29086,
				"method": "rhf"
			},
			{
				"type": "occ",
				"energy": -0.29085,
				"method": "rhf"
			},
			{
				"type": "unocc",
				"energy": 0.04452,
				"method": "rhf"
			},
			{
				"type": "unocc",
				"energy": 0.04452,
				"method": "rhf"
			},
			{
				"type": "unocc",
				"energy": 0.05383,
				"method": "rhf"
			},
			{
				"type": "unocc",
				"energy": 0.11402,
				"method": "rhf"
			},
			{
				"type": "unocc",
				"energy": 0.1145,
				"method": "rhf"
			}
		],
		"cosmo_sigma_profile": { 
			"-0.025": 0.0,
			"-0.024": 0.0,
			"-0.023": 0.0,
			"-0.022": 0.0,
			"-0.021": 0.0,
			"-0.02": 0.0,
			"-0.019": 0.0,
			"-0.018": 0.0,
			"-0.017": 0.0,
			"-0.016": 0.0,
			"-0.015": 0.0,
			"-0.014": 0.0,
			"-0.013": 0.0,
			"-0.012": 0.0,
			"-0.011": 0.0,
			"-0.01": 0.0,
			"-0.009": 0.0,
			"-0.008": 0.0,
			"-0.007": 0.0,
			"-0.006": 0.0,
			"-0.005": 1.22566433374,
			"-0.004": 14.6271935083,
			"-0.003": 29.4311449515,
			"-0.002": 43.1542815543,
			"-0.001": 40.329328701,
			"0.0": 26.6809977317,
			"0.001": 12.6307842438,
			"0.002": 2.52728322978,
			"0.003": 1.30491894947,
			"0.004": 2.48411834962,
			"0.005": 1.60295162539,
			"0.006": 2.28766501394,
			"0.007": 2.3929891153,
			"0.008": 3.00710039857,
			"0.009": 3.47950897534,
			"0.01": 3.78902936686,
			"0.011": 3.31356887748,
			"0.012": 2.65052734506,
			"0.013": 2.39424731055,
			"0.014": 1.16634364037,
			"0.015": 0.0,
			"0.016": 0.0,
			"0.017": 0.0,
			"0.018": 0.0,
			"0.019": 0.0,
			"0.02": 0.0,
			"0.021": 0.0,
			"0.022": 0.0,
			"0.023": 0.0,
			"0.024": 0.0,
			"0.025": 0.0
		}
	}
}
