{
	 "smiles": "NC1=CC(=CC=C1)N1CCNC1=O", 
	 "Tm": 423.15, 
	 "num_atms": 24, 
	 "gaussian": { 
		 "optdone": 1, 
		 "sigma_profile": "yes", 
		 "theory": "DFT", 
		 "functional": "B3LYP", 
		 "basiset": "6-31G**", 
		 "properties": { 
			 "R2extent": 2825.2856, 
			 "electric_dipole_moment_norm": 2.56794881958, 
			 "electric_quadrupole_moment_norm": 18.3772223908, 
			 "total_energy": -589.091439122, 
			 "HOMO_LUMO_gap": 0.20124, 
			 "cosmo_polarized_energy": -16.5, 
			 "cosmo_cavitation_energy": 26.83, 
			 "cosmo_dispersion_energy": -20.39, 
			 "cosmo_repulsion_energy": 1.61, 
			 "cosmo_total_nonelectrostatic_energy": 8.05, 
			 "SMD_solvation_energy": 3.6 
		},
		"coords": [
			{
				"x": -2.8477477496,
				"y": 3.2194292769,
				"z": -1.1390166852,
				"element": "N" 
			},
			{
				"x": -2.4028310115,
				"y": 2.0825805042,
				"z": -0.4598585603,
				"element": "C" 
			},
			{
				"x": -1.1561308422,
				"y": 1.5260879394,
				"z": -0.7776658456,
				"element": "C" 
			},
			{
				"x": -0.6731279602,
				"y": 0.4164173334,
				"z": -0.0697187163,
				"element": "C" 
			},
			{
				"x": -1.4435110754,
				"y": -0.1367247744,
				"z": 0.9690032166,
				"element": "C" 
			},
			{
				"x": -2.6800643291,
				"y": 0.4302609341,
				"z": 1.2775285679,
				"element": "C" 
			},
			{
				"x": -3.1696059522,
				"y": 1.5282806563,
				"z": 0.5803369856,
				"element": "C" 
			},
			{
				"x": 0.5893458415,
				"y": -0.1450656518,
				"z": -0.3673311911,
				"element": "N" 
			},
			{
				"x": 1.1457497492,
				"y": -1.2543122683,
				"z": 0.4065378734,
				"element": "C" 
			},
			{
				"x": 2.5645812194,
				"y": -1.3948839573,
				"z": -0.1726846355,
				"element": "C" 
			},
			{
				"x": 2.3733324826,
				"y": -0.8674776225,
				"z": -1.5147835139,
				"element": "N" 
			},
			{
				"x": 1.3200216648,
				"y": 0.0409198808,
				"z": -1.5452323316,
				"element": "C" 
			},
			{
				"x": 1.1005088906,
				"y": 0.8289384084,
				"z": -2.4506009665,
				"element": "O" 
			},
			{
				"x": -3.8506694406,
				"y": 3.3433118852,
				"z": -1.1535041345,
				"element": "H" 
			},
			{
				"x": -2.4378349944,
				"y": 3.355023869,
				"z": -2.0530684289,
				"element": "H" 
			},
			{
				"x": -0.5615109747,
				"y": 1.9413557037,
				"z": -1.5799855088,
				"element": "H" 
			},
			{
				"x": -1.0997836866,
				"y": -1.0002945456,
				"z": 1.5245550047,
				"element": "H" 
			},
			{
				"x": -3.2738848922,
				"y": -0.0016369935,
				"z": 2.0785503899,
				"element": "H" 
			},
			{
				"x": -4.1328738462,
				"y": 1.9616054456,
				"z": 0.8359550352,
				"element": "H" 
			},
			{
				"x": 0.5599207076,
				"y": -2.1715836496,
				"z": 0.2544694636,
				"element": "H" 
			},
			{
				"x": 1.1574527608,
				"y": -1.0257945038,
				"z": 1.4753648342,
				"element": "H" 
			},
			{
				"x": 3.2852595856,
				"y": -0.8018171723,
				"z": 0.4093673431,
				"element": "H" 
			},
			{
				"x": 2.9012007353,
				"y": -2.4353476434,
				"z": -0.1829219289,
				"element": "H" 
			},
			{
				"x": 3.1648031175,
				"y": -0.6250730544,
				"z": -2.0935962668,
				"element": "H" 
			}
		],
		 "valence_orbital": [ 
			{
				"type": "occ",
				"energy": -0.27383,
				"method": "rhf"
			},
			{
				"type": "occ",
				"energy": -0.26276,
				"method": "rhf"
			},
			{
				"type": "occ",
				"energy": -0.25152,
				"method": "rhf"
			},
			{
				"type": "occ",
				"energy": -0.20847,
				"method": "rhf"
			},
			{
				"type": "occ",
				"energy": -0.19166,
				"method": "rhf"
			},
			{
				"type": "unocc",
				"energy": 0.00958,
				"method": "rhf"
			},
			{
				"type": "unocc",
				"energy": 0.02481,
				"method": "rhf"
			},
			{
				"type": "unocc",
				"energy": 0.06517,
				"method": "rhf"
			},
			{
				"type": "unocc",
				"energy": 0.08005,
				"method": "rhf"
			},
			{
				"type": "unocc",
				"energy": 0.09208,
				"method": "rhf"
			}
		],
		"cosmo_sigma_profile": { 
			"-0.025": 0.0,
			"-0.024": 0.0,
			"-0.023": 0.0,
			"-0.022": 0.0,
			"-0.021": 0.0,
			"-0.02": 0.0,
			"-0.019": 0.0,
			"-0.018": 0.0,
			"-0.017": 0.0,
			"-0.016": 0.0,
			"-0.015": 0.0,
			"-0.014": 0.662042486518,
			"-0.013": 1.46958839874,
			"-0.012": 2.74298056124,
			"-0.011": 3.46617355639,
			"-0.01": 3.98676171878,
			"-0.009": 3.49983376552,
			"-0.008": 4.80143206623,
			"-0.007": 3.62840436727,
			"-0.006": 10.1720253765,
			"-0.005": 23.7975433053,
			"-0.004": 20.0293056618,
			"-0.003": 15.4191728634,
			"-0.002": 10.7475659485,
			"-0.001": 8.11440512001,
			"0.0": 7.18387033118,
			"0.001": 7.09270529523,
			"0.002": 8.71054509129,
			"0.003": 8.45963206718,
			"0.004": 9.50597408766,
			"0.005": 10.5004131335,
			"0.006": 12.6513819694,
			"0.007": 11.5380491869,
			"0.008": 4.28746729554,
			"0.009": 2.88790518759,
			"0.01": 2.74911883532,
			"0.011": 2.346850061,
			"0.012": 2.69165388333,
			"0.013": 5.01590342685,
			"0.014": 3.43067072217,
			"0.015": 0.666184026744,
			"0.016": 0.0,
			"0.017": 0.0,
			"0.018": 0.0,
			"0.019": 0.0,
			"0.02": 0.0,
			"0.021": 0.0,
			"0.022": 0.0,
			"0.023": 0.0,
			"0.024": 0.0,
			"0.025": 0.0
		}
	}
}
