{
	 "smiles": "CCC(C)=NNC1=C(C=C(C=C1)N(=O)=O)N(=O)=O", 
	 "Tm": 390.15, 
	 "num_atms": 30, 
	 "gaussian": { 
		 "optdone": 1, 
		 "sigma_profile": "yes", 
		 "theory": "DFT", 
		 "functional": "B3LYP", 
		 "basiset": "6-31G**", 
		 "properties": { 
			 "R2extent": 7887.4419, 
			 "electric_dipole_moment_norm": 8.7215092765, 
			 "electric_quadrupole_moment_norm": 24.1626732937, 
			 "total_energy": -907.962538978, 
			 "HOMO_LUMO_gap": 0.14203, 
			 "cosmo_polarized_energy": -20.74, 
			 "cosmo_cavitation_energy": 35.98, 
			 "cosmo_dispersion_energy": -24.88, 
			 "cosmo_repulsion_energy": 1.95, 
			 "cosmo_total_nonelectrostatic_energy": 13.05, 
			 "SMD_solvation_energy": 10.51 
		},
		"coords": [
			{
				"x": 3.5482971992,
				"y": -0.9532318844,
				"z": -3.342077189,
				"element": "C" 
			},
			{
				"x": 2.231345284,
				"y": -0.1674640956,
				"z": -3.4737468579,
				"element": "C" 
			},
			{
				"x": 1.2777242877,
				"y": -0.4065681,
				"z": -2.3304672918,
				"element": "C" 
			},
			{
				"x": 0.6607599214,
				"y": -1.7759355758,
				"z": -2.1594815209,
				"element": "C" 
			},
			{
				"x": 1.0464325752,
				"y": 0.5931548201,
				"z": -1.554551479,
				"element": "N" 
			},
			{
				"x": 0.2055030806,
				"y": 0.3933831629,
				"z": -0.4861507728,
				"element": "N" 
			},
			{
				"x": -0.0755339722,
				"y": 1.4285142304,
				"z": 0.3704665618,
				"element": "C" 
			},
			{
				"x": -0.0555081013,
				"y": 2.7950676436,
				"z": -0.0031515166,
				"element": "C" 
			},
			{
				"x": -0.2319254472,
				"y": 3.8038125448,
				"z": 0.9351912078,
				"element": "C" 
			},
			{
				"x": -0.5136995983,
				"y": 3.4645887627,
				"z": 2.252521073,
				"element": "C" 
			},
			{
				"x": -0.614323244,
				"y": 2.1268082383,
				"z": 2.6475444198,
				"element": "C" 
			},
			{
				"x": -0.3861641165,
				"y": 1.1305361037,
				"z": 1.7174390769,
				"element": "C" 
			},
			{
				"x": -0.7207035036,
				"y": 4.5239204176,
				"z": 3.235795518,
				"element": "N" 
			},
			{
				"x": -0.6199537461,
				"y": 5.6898634696,
				"z": 2.8525124204,
				"element": "O" 
			},
			{
				"x": -0.983527647,
				"y": 4.1831902947,
				"z": 4.3911371932,
				"element": "O" 
			},
			{
				"x": 0.0216224127,
				"y": 3.2340681376,
				"z": -1.406049119,
				"element": "N" 
			},
			{
				"x": -0.6662741728,
				"y": 2.6273126307,
				"z": -2.2214630511,
				"element": "O" 
			},
			{
				"x": 0.7062148411,
				"y": 4.2260626642,
				"z": -1.6468472927,
				"element": "O" 
			},
			{
				"x": 4.0908294246,
				"y": -0.6560249341,
				"z": -2.4391826939,
				"element": "H" 
			},
			{
				"x": 4.1947105609,
				"y": -0.7605111434,
				"z": -4.2033993632,
				"element": "H" 
			},
			{
				"x": 3.3770068127,
				"y": -2.0340715887,
				"z": -3.2933267294,
				"element": "H" 
			},
			{
				"x": 1.7321716151,
				"y": -0.4527930261,
				"z": -4.4102031392,
				"element": "H" 
			},
			{
				"x": 2.4350990193,
				"y": 0.9051659805,
				"z": -3.5250815901,
				"element": "H" 
			},
			{
				"x": 0.8782068083,
				"y": -2.4141765935,
				"z": -3.0177633272,
				"element": "H" 
			},
			{
				"x": -0.4285272205,
				"y": -1.7014292612,
				"z": -2.0565548583,
				"element": "H" 
			},
			{
				"x": 1.0442965898,
				"y": -2.2925224853,
				"z": -1.2682365334,
				"element": "H" 
			},
			{
				"x": 0.0977796514,
				"y": -0.5429092337,
				"z": -0.1107396248,
				"element": "H" 
			},
			{
				"x": -0.180541982,
				"y": 4.8416829081,
				"z": 0.6332103852,
				"element": "H" 
			},
			{
				"x": -0.8414470225,
				"y": 1.8946074654,
				"z": 3.6803845308,
				"element": "H" 
			},
			{
				"x": -0.4118703099,
				"y": 0.0897984467,
				"z": 2.0282715633,
				"element": "H" 
			}
		],
		 "valence_orbital": [ 
			{
				"type": "occ",
				"energy": -0.30097,
				"method": "rhf"
			},
			{
				"type": "occ",
				"energy": -0.29392,
				"method": "rhf"
			},
			{
				"type": "occ",
				"energy": -0.28961,
				"method": "rhf"
			},
			{
				"type": "occ",
				"energy": -0.27848,
				"method": "rhf"
			},
			{
				"type": "occ",
				"energy": -0.23303,
				"method": "rhf"
			},
			{
				"type": "unocc",
				"energy": -0.091,
				"method": "rhf"
			},
			{
				"type": "unocc",
				"energy": -0.07904,
				"method": "rhf"
			},
			{
				"type": "unocc",
				"energy": -0.03005,
				"method": "rhf"
			},
			{
				"type": "unocc",
				"energy": -0.01774,
				"method": "rhf"
			},
			{
				"type": "unocc",
				"energy": 0.0123,
				"method": "rhf"
			}
		],
		"cosmo_sigma_profile": { 
			"-0.025": 0.0,
			"-0.024": 0.0,
			"-0.023": 0.0,
			"-0.022": 0.0,
			"-0.021": 0.0,
			"-0.02": 0.0,
			"-0.019": 0.0,
			"-0.018": 0.0,
			"-0.017": 0.0,
			"-0.016": 0.404432546584,
			"-0.015": 1.69279266385,
			"-0.014": 1.33024749838,
			"-0.013": 1.61845433733,
			"-0.012": 1.66472425996,
			"-0.011": 1.74536770053,
			"-0.01": 1.61454147928,
			"-0.009": 2.6783389959,
			"-0.008": 5.368976546,
			"-0.007": 7.32184308375,
			"-0.006": 8.85878536493,
			"-0.005": 13.6474764506,
			"-0.004": 20.294688122,
			"-0.003": 23.0394488361,
			"-0.002": 30.833053453,
			"-0.001": 33.8584979907,
			"0.0": 23.0520577379,
			"0.001": 15.466015957,
			"0.002": 6.00006029288,
			"0.003": 7.34795326922,
			"0.004": 7.60611134012,
			"0.005": 8.00526271415,
			"0.006": 7.80821192058,
			"0.007": 16.7068212919,
			"0.008": 20.8135282511,
			"0.009": 10.4232158579,
			"0.01": 6.00108011426,
			"0.011": 0.57918820215,
			"0.012": 0.0,
			"0.013": 0.0,
			"0.014": 0.0,
			"0.015": 0.0,
			"0.016": 0.0,
			"0.017": 0.0,
			"0.018": 0.0,
			"0.019": 0.0,
			"0.02": 0.0,
			"0.021": 0.0,
			"0.022": 0.0,
			"0.023": 0.0,
			"0.024": 0.0,
			"0.025": 0.0
		}
	}
}
