{
	 "smiles": "CCCNC1=NN=C(S)S1", 
	 "Tm": 379.15, 
	 "num_atms": 19, 
	 "gaussian": { 
		 "optdone": 1, 
		 "sigma_profile": "yes", 
		 "theory": "DFT", 
		 "functional": "B3LYP", 
		 "basiset": "6-31G**", 
		 "properties": { 
			 "R2extent": 4010.8404, 
			 "electric_dipole_moment_norm": 5.01000040918, 
			 "electric_quadrupole_moment_norm": 20.6140530889, 
			 "total_energy": -1156.55070891, 
			 "HOMO_LUMO_gap": 0.19308, 
			 "cosmo_polarized_energy": -13.76, 
			 "cosmo_cavitation_energy": 26.18, 
			 "cosmo_dispersion_energy": -20.22, 
			 "cosmo_repulsion_energy": 1.58, 
			 "cosmo_total_nonelectrostatic_energy": 7.54, 
			 "SMD_solvation_energy": 1.45 
		},
		"coords": [
			{
				"x": -1.0927324569,
				"y": 0.6257174547,
				"z": 2.9353056224,
				"element": "C" 
			},
			{
				"x": -1.3329557052,
				"y": 1.9578774274,
				"z": 2.2183652751,
				"element": "C" 
			},
			{
				"x": -0.8195559393,
				"y": 1.9896059733,
				"z": 0.7759663623,
				"element": "C" 
			},
			{
				"x": 0.6326799845,
				"y": 1.8450333247,
				"z": 0.7329910147,
				"element": "N" 
			},
			{
				"x": 1.339188293,
				"y": 1.6582517752,
				"z": -0.4146089262,
				"element": "C" 
			},
			{
				"x": 2.6300988943,
				"y": 1.9050027134,
				"z": -0.4995315775,
				"element": "N" 
			},
			{
				"x": 3.1542935064,
				"y": 1.5590698649,
				"z": -1.7075209818,
				"element": "N" 
			},
			{
				"x": 2.290286576,
				"y": 1.07730487,
				"z": -2.5463684875,
				"element": "C" 
			},
			{
				"x": 2.6766871152,
				"y": 0.6687713998,
				"z": -4.2244503094,
				"element": "S" 
			},
			{
				"x": 0.6364370006,
				"y": 1.0082714561,
				"z": -1.892021533,
				"element": "S" 
			},
			{
				"x": -0.0279199349,
				"y": 0.3781361687,
				"z": 2.97281948,
				"element": "H" 
			},
			{
				"x": -1.6047499302,
				"y": -0.1944954076,
				"z": 2.4200955089,
				"element": "H" 
			},
			{
				"x": -1.4684992191,
				"y": 0.6615158264,
				"z": 3.9622664725,
				"element": "H" 
			},
			{
				"x": -2.4053725205,
				"y": 2.1833206228,
				"z": 2.1930584442,
				"element": "H" 
			},
			{
				"x": -0.8669083625,
				"y": 2.7793874662,
				"z": 2.780341751,
				"element": "H" 
			},
			{
				"x": -1.139913587,
				"y": 2.9200195272,
				"z": 0.2819808396,
				"element": "H" 
			},
			{
				"x": -1.2601445988,
				"y": 1.1569151692,
				"z": 0.2138272836,
				"element": "H" 
			},
			{
				"x": 1.1641809753,
				"y": 2.3505901827,
				"z": 1.4325304274,
				"element": "H" 
			},
			{
				"x": 2.4532999092,
				"y": -0.660295815,
				"z": -4.1283466662,
				"element": "H" 
			}
		],
		 "valence_orbital": [ 
			{
				"type": "occ",
				"energy": -0.30285,
				"method": "rhf"
			},
			{
				"type": "occ",
				"energy": -0.29304,
				"method": "rhf"
			},
			{
				"type": "occ",
				"energy": -0.26861,
				"method": "rhf"
			},
			{
				"type": "occ",
				"energy": -0.25611,
				"method": "rhf"
			},
			{
				"type": "occ",
				"energy": -0.22409,
				"method": "rhf"
			},
			{
				"type": "unocc",
				"energy": -0.03101,
				"method": "rhf"
			},
			{
				"type": "unocc",
				"energy": -0.00479,
				"method": "rhf"
			},
			{
				"type": "unocc",
				"energy": 0.02487,
				"method": "rhf"
			},
			{
				"type": "unocc",
				"energy": 0.04254,
				"method": "rhf"
			},
			{
				"type": "unocc",
				"energy": 0.05719,
				"method": "rhf"
			}
		],
		"cosmo_sigma_profile": { 
			"-0.025": 0.0,
			"-0.024": 0.0,
			"-0.023": 0.0,
			"-0.022": 0.0,
			"-0.021": 0.0,
			"-0.02": 0.0,
			"-0.019": 0.0,
			"-0.018": 0.0,
			"-0.017": 0.0,
			"-0.016": 0.0,
			"-0.015": 0.0,
			"-0.014": 0.562660850586,
			"-0.013": 1.10258311085,
			"-0.012": 1.34121969181,
			"-0.011": 3.47777566226,
			"-0.01": 3.11021328874,
			"-0.009": 3.08263762262,
			"-0.008": 2.53301522157,
			"-0.007": 3.06664417231,
			"-0.006": 3.95085306569,
			"-0.005": 8.34130356402,
			"-0.004": 15.2582836606,
			"-0.003": 21.8058158959,
			"-0.002": 19.0516609676,
			"-0.001": 22.3940822096,
			"0.0": 21.1038673703,
			"0.001": 17.8314083346,
			"0.002": 12.5117651036,
			"0.003": 8.20527944102,
			"0.004": 6.86694825352,
			"0.005": 4.97505305256,
			"0.006": 3.82942351179,
			"0.007": 5.00668796779,
			"0.008": 3.37607004059,
			"0.009": 2.61939411511,
			"0.01": 2.88398340641,
			"0.011": 3.01199995837,
			"0.012": 3.36745421976,
			"0.013": 2.84662076204,
			"0.014": 2.44755903038,
			"0.015": 1.5550455795,
			"0.016": 0.0284174514178,
			"0.017": 0.0,
			"0.018": 0.0,
			"0.019": 0.0,
			"0.02": 0.0,
			"0.021": 0.0,
			"0.022": 0.0,
			"0.023": 0.0,
			"0.024": 0.0,
			"0.025": 0.0
		}
	}
}
