{
	 "smiles": "NC1CCCCC1NC1=NC=CN=C1", 
	 "Tm": 333.15, 
	 "num_atms": 30, 
	 "gaussian": { 
		 "optdone": 1, 
		 "sigma_profile": "yes", 
		 "theory": "DFT", 
		 "functional": "B3LYP", 
		 "basiset": "6-31G**", 
		 "properties": { 
			 "R2extent": 3677.7736, 
			 "electric_dipole_moment_norm": 3.29793513278, 
			 "electric_quadrupole_moment_norm": 7.81794556581, 
			 "total_energy": -609.70267548, 
			 "HOMO_LUMO_gap": 0.17728, 
			 "cosmo_polarized_energy": -13.56, 
			 "cosmo_cavitation_energy": 30.62, 
			 "cosmo_dispersion_energy": -22.54, 
			 "cosmo_repulsion_energy": 1.77, 
			 "cosmo_total_nonelectrostatic_energy": 9.84, 
			 "SMD_solvation_energy": 1.01 
		},
		"coords": [
			{
				"x": 1.4174763175,
				"y": 1.8235804926,
				"z": -1.6962230283,
				"element": "N" 
			},
			{
				"x": 0.6710967993,
				"y": 0.6308443521,
				"z": -1.2703318609,
				"element": "C" 
			},
			{
				"x": -0.7961200877,
				"y": 0.5304730364,
				"z": -1.8030791045,
				"element": "C" 
			},
			{
				"x": -1.8639274686,
				"y": 1.0287265421,
				"z": -0.80195609,
				"element": "C" 
			},
			{
				"x": -1.3298184321,
				"y": 2.1704885956,
				"z": 0.073098684,
				"element": "C" 
			},
			{
				"x": -0.0968523409,
				"y": 1.7355874244,
				"z": 0.9039835085,
				"element": "C" 
			},
			{
				"x": 0.710763573,
				"y": 0.5698683894,
				"z": 0.2693680849,
				"element": "C" 
			},
			{
				"x": 0.2167527389,
				"y": -0.7434482723,
				"z": 0.7013609414,
				"element": "N" 
			},
			{
				"x": 0.558291467,
				"y": -1.3166161656,
				"z": 1.8965147648,
				"element": "C" 
			},
			{
				"x": 1.2217592896,
				"y": -0.5770828245,
				"z": 2.7985993765,
				"element": "N" 
			},
			{
				"x": 1.5210374083,
				"y": -1.1799186015,
				"z": 3.9581693746,
				"element": "C" 
			},
			{
				"x": 1.1743043936,
				"y": -2.4955432185,
				"z": 4.2357491507,
				"element": "C" 
			},
			{
				"x": 0.5084978499,
				"y": -3.2426006106,
				"z": 3.3327641713,
				"element": "N" 
			},
			{
				"x": 0.2049557453,
				"y": -2.6640295758,
				"z": 2.1837466643,
				"element": "C" 
			},
			{
				"x": 1.485021408,
				"y": 1.8352187614,
				"z": -2.7110724167,
				"element": "H" 
			},
			{
				"x": 0.9141234513,
				"y": 2.6689921228,
				"z": -1.4388373338,
				"element": "H" 
			},
			{
				"x": 1.2405762419,
				"y": -0.2258249948,
				"z": -1.6527410317,
				"element": "H" 
			},
			{
				"x": -0.8497635221,
				"y": 1.1152332624,
				"z": -2.7296668217,
				"element": "H" 
			},
			{
				"x": -1.0248075483,
				"y": -0.5026893736,
				"z": -2.0969226179,
				"element": "H" 
			},
			{
				"x": -2.1732053924,
				"y": 0.2044665017,
				"z": -0.14895461,
				"element": "H" 
			},
			{
				"x": -2.7614018375,
				"y": 1.3471497743,
				"z": -1.3441343345,
				"element": "H" 
			},
			{
				"x": -2.1180365128,
				"y": 2.5362423157,
				"z": 0.7400999062,
				"element": "H" 
			},
			{
				"x": -1.0735579483,
				"y": 3.0212646883,
				"z": -0.5737903626,
				"element": "H" 
			},
			{
				"x": 0.5760928208,
				"y": 2.5879752228,
				"z": 1.0478573939,
				"element": "H" 
			},
			{
				"x": -0.3982771143,
				"y": 1.4197061112,
				"z": 1.905321967,
				"element": "H" 
			},
			{
				"x": 1.7525331494,
				"y": 0.659075085,
				"z": 0.5894034083,
				"element": "H" 
			},
			{
				"x": -0.1449368323,
				"y": -1.3668634326,
				"z": -0.0038865951,
				"element": "H" 
			},
			{
				"x": 2.0599699644,
				"y": -0.5798131075,
				"z": 4.6895072556,
				"element": "H" 
			},
			{
				"x": 1.4261727346,
				"y": -2.9634130062,
				"z": 5.1833785532,
				"element": "H" 
			},
			{
				"x": -0.3331203155,
				"y": -3.2612494949,
				"z": 1.4465730025,
				"element": "H" 
			}
		],
		 "valence_orbital": [ 
			{
				"type": "occ",
				"energy": -0.29369,
				"method": "rhf"
			},
			{
				"type": "occ",
				"energy": -0.28983,
				"method": "rhf"
			},
			{
				"type": "occ",
				"energy": -0.23871,
				"method": "rhf"
			},
			{
				"type": "occ",
				"energy": -0.23736,
				"method": "rhf"
			},
			{
				"type": "occ",
				"energy": -0.20801,
				"method": "rhf"
			},
			{
				"type": "unocc",
				"energy": -0.03073,
				"method": "rhf"
			},
			{
				"type": "unocc",
				"energy": 0.00592,
				"method": "rhf"
			},
			{
				"type": "unocc",
				"energy": 0.05974,
				"method": "rhf"
			},
			{
				"type": "unocc",
				"energy": 0.07198,
				"method": "rhf"
			},
			{
				"type": "unocc",
				"energy": 0.10103,
				"method": "rhf"
			}
		],
		"cosmo_sigma_profile": { 
			"-0.025": 0.0,
			"-0.024": 0.0,
			"-0.023": 0.0,
			"-0.022": 0.0,
			"-0.021": 0.0,
			"-0.02": 0.0,
			"-0.019": 0.0,
			"-0.018": 0.0,
			"-0.017": 0.0,
			"-0.016": 0.0,
			"-0.015": 0.0,
			"-0.014": 0.0355146377518,
			"-0.013": 0.857639086531,
			"-0.012": 1.39248277703,
			"-0.011": 1.15829457515,
			"-0.01": 1.87724527968,
			"-0.009": 3.61110638929,
			"-0.008": 4.22655257324,
			"-0.007": 8.1641836415,
			"-0.006": 9.3415266889,
			"-0.005": 10.376048855,
			"-0.004": 12.0995517873,
			"-0.003": 16.606514298,
			"-0.002": 20.2065866459,
			"-0.001": 24.2420733537,
			"0.0": 28.895446716,
			"0.001": 29.0063643058,
			"0.002": 15.9013138206,
			"0.003": 9.29861396369,
			"0.004": 6.83484533654,
			"0.005": 5.46348230032,
			"0.006": 3.31531092014,
			"0.007": 2.89491671807,
			"0.008": 3.87608876138,
			"0.009": 3.36764666705,
			"0.01": 2.31676102413,
			"0.011": 1.87516138298,
			"0.012": 2.62818854692,
			"0.013": 2.19148294581,
			"0.014": 1.94154909282,
			"0.015": 1.94635809554,
			"0.016": 1.38546076635,
			"0.017": 0.234167597491,
			"0.018": 0.793727402618,
			"0.019": 0.519287024504,
			"0.02": 0.04199312522,
			"0.021": 0.0,
			"0.022": 0.0,
			"0.023": 0.0,
			"0.024": 0.0,
			"0.025": 0.0
		}
	}
}
