{
	 "smiles": "NC1=C(N=CC=C1)N1C=NC=N1", 
	 "Tm": 384.15, 
	 "num_atms": 19, 
	 "gaussian": { 
		 "optdone": 1, 
		 "sigma_profile": "yes", 
		 "theory": "DFT", 
		 "functional": "B3LYP", 
		 "basiset": "6-31G**", 
		 "properties": { 
			 "R2extent": 2075.3788, 
			 "electric_dipole_moment_norm": 3.92177782262, 
			 "electric_quadrupole_moment_norm": 8.33411408069, 
			 "total_energy": -544.707436122, 
			 "HOMO_LUMO_gap": 0.16911, 
			 "cosmo_polarized_energy": -10.61, 
			 "cosmo_cavitation_energy": 23.25, 
			 "cosmo_dispersion_energy": -17.83, 
			 "cosmo_repulsion_energy": 1.39, 
			 "cosmo_total_nonelectrostatic_energy": 6.81, 
			 "SMD_solvation_energy": 1.56 
		},
		"coords": [
			{
				"x": -1.2203882009,
				"y": -0.27857049,
				"z": 1.7172816073,
				"element": "N" 
			},
			{
				"x": -0.0367471162,
				"y": -0.2109854464,
				"z": 1.025816858,
				"element": "C" 
			},
			{
				"x": 0.0966466577,
				"y": 0.395371687,
				"z": -0.2520816253,
				"element": "C" 
			},
			{
				"x": 1.2211787383,
				"y": 0.4086702622,
				"z": -0.9582745602,
				"element": "N" 
			},
			{
				"x": 2.3146538931,
				"y": -0.169063919,
				"z": -0.4583169768,
				"element": "C" 
			},
			{
				"x": 2.316884567,
				"y": -0.7811435789,
				"z": 0.7956411364,
				"element": "C" 
			},
			{
				"x": 1.1402146618,
				"y": -0.7977852738,
				"z": 1.5311588764,
				"element": "C" 
			},
			{
				"x": -0.9945325369,
				"y": 1.0497991588,
				"z": -0.900381454,
				"element": "N" 
			},
			{
				"x": -1.021777614,
				"y": 1.5452430939,
				"z": -2.1669844156,
				"element": "C" 
			},
			{
				"x": -2.1890500599,
				"y": 2.1128715934,
				"z": -2.4160661325,
				"element": "N" 
			},
			{
				"x": -2.8639231709,
				"y": 1.9422214316,
				"z": -1.2479617351,
				"element": "C" 
			},
			{
				"x": -2.1928866017,
				"y": 1.3088207852,
				"z": -0.2982159329,
				"element": "N" 
			},
			{
				"x": -1.9645495423,
				"y": 0.3336091046,
				"z": 1.4022134427,
				"element": "H" 
			},
			{
				"x": -1.1674829013,
				"y": -0.4900149255,
				"z": 2.7014238917,
				"element": "H" 
			},
			{
				"x": 3.2084537364,
				"y": -0.1327522381,
				"z": -1.0753101361,
				"element": "H" 
			},
			{
				"x": 3.2209763176,
				"y": -1.2357378414,
				"z": 1.1875408409,
				"element": "H" 
			},
			{
				"x": 1.105359033,
				"y": -1.2744937968,
				"z": 2.5074278992,
				"element": "H" 
			},
			{
				"x": -0.1773401985,
				"y": 1.4619802612,
				"z": -2.8318670333,
				"element": "H" 
			},
			{
				"x": -3.8752896622,
				"y": 2.2893601319,
				"z": -1.0870445507,
				"element": "H" 
			}
		],
		 "valence_orbital": [ 
			{
				"type": "occ",
				"energy": -0.28352,
				"method": "rhf"
			},
			{
				"type": "occ",
				"energy": -0.2812,
				"method": "rhf"
			},
			{
				"type": "occ",
				"energy": -0.27204,
				"method": "rhf"
			},
			{
				"type": "occ",
				"energy": -0.26479,
				"method": "rhf"
			},
			{
				"type": "occ",
				"energy": -0.21061,
				"method": "rhf"
			},
			{
				"type": "unocc",
				"energy": -0.0415,
				"method": "rhf"
			},
			{
				"type": "unocc",
				"energy": -0.00809,
				"method": "rhf"
			},
			{
				"type": "unocc",
				"energy": 0.02931,
				"method": "rhf"
			},
			{
				"type": "unocc",
				"energy": 0.05317,
				"method": "rhf"
			},
			{
				"type": "unocc",
				"energy": 0.08502,
				"method": "rhf"
			}
		],
		"cosmo_sigma_profile": { 
			"-0.025": 0.0,
			"-0.024": 0.0,
			"-0.023": 0.0,
			"-0.022": 0.0,
			"-0.021": 0.0,
			"-0.02": 0.0,
			"-0.019": 0.0,
			"-0.018": 0.0,
			"-0.017": 0.0,
			"-0.016": 0.0,
			"-0.015": 0.0,
			"-0.014": 0.258681355984,
			"-0.013": 1.40084383481,
			"-0.012": 1.39238688246,
			"-0.011": 1.48793251715,
			"-0.01": 1.86427282729,
			"-0.009": 4.07097834906,
			"-0.008": 5.33252769317,
			"-0.007": 7.63147731371,
			"-0.006": 9.31990898323,
			"-0.005": 10.2537965603,
			"-0.004": 8.50398935797,
			"-0.003": 7.21545100835,
			"-0.002": 9.15883647466,
			"-0.001": 14.8853348728,
			"0.0": 14.8058567517,
			"0.001": 17.276624388,
			"0.002": 15.4156803339,
			"0.003": 16.1589971128,
			"0.004": 9.07713209929,
			"0.005": 6.05678608407,
			"0.006": 5.22263070347,
			"0.007": 4.75467623856,
			"0.008": 3.12046206955,
			"0.009": 3.36287023587,
			"0.01": 2.23421069341,
			"0.011": 1.94152996805,
			"0.012": 1.08884869325,
			"0.013": 1.24270071845,
			"0.014": 1.23241364152,
			"0.015": 0.75426459125,
			"0.016": 0.980237345555,
			"0.017": 0.0672709543685,
			"0.018": 0.0,
			"0.019": 0.0,
			"0.02": 0.0,
			"0.021": 0.0,
			"0.022": 0.0,
			"0.023": 0.0,
			"0.024": 0.0,
			"0.025": 0.0
		}
	}
}
