{
	 "smiles": "COC(=O)C1=C(Cl)C=C(Cl)C(=C1)S(Cl)(=O)=O", 
	 "Tm": 384.15, 
	 "num_atms": 21, 
	 "gaussian": { 
		 "optdone": 1, 
		 "sigma_profile": "yes", 
		 "theory": "DFT", 
		 "functional": "B3LYP", 
		 "basiset": "6-31G**", 
		 "properties": { 
			 "R2extent": 6875.9013, 
			 "electric_dipole_moment_norm": 5.65310716509, 
			 "electric_quadrupole_moment_norm": 6.82568072796, 
			 "total_energy": -2387.44277993, 
			 "HOMO_LUMO_gap": 0.18825, 
			 "cosmo_polarized_energy": -11.22, 
			 "cosmo_cavitation_energy": 33.15, 
			 "cosmo_dispersion_energy": -24.58, 
			 "cosmo_repulsion_energy": 1.87, 
			 "cosmo_total_nonelectrostatic_energy": 10.45, 
			 "SMD_solvation_energy": 5.57 
		},
		"coords": [
			{
				"x": 1.0701787262,
				"y": 3.4527476193,
				"z": -3.381419436,
				"element": "C" 
			},
			{
				"x": 1.0638858276,
				"y": 3.1682455505,
				"z": -1.9686778552,
				"element": "O" 
			},
			{
				"x": 1.0241076633,
				"y": 1.8706069487,
				"z": -1.6476799779,
				"element": "C" 
			},
			{
				"x": 0.9869930477,
				"y": 0.9736225334,
				"z": -2.4664880227,
				"element": "O" 
			},
			{
				"x": 1.0106242885,
				"y": 1.6001824729,
				"z": -0.1667338519,
				"element": "C" 
			},
			{
				"x": 1.1667611703,
				"y": 2.5124078258,
				"z": 0.8952231039,
				"element": "C" 
			},
			{
				"x": 1.4382379293,
				"y": 4.2213680547,
				"z": 0.6835308793,
				"element": "Cl" 
			},
			{
				"x": 1.1209795056,
				"y": 2.075120276,
				"z": 2.2229694645,
				"element": "C" 
			},
			{
				"x": 0.924578846,
				"y": 0.7324482326,
				"z": 2.5313573348,
				"element": "C" 
			},
			{
				"x": 0.8581537995,
				"y": 0.2848953505,
				"z": 4.2067196343,
				"element": "Cl" 
			},
			{
				"x": 0.7767486155,
				"y": -0.1894731915,
				"z": 1.4811348324,
				"element": "C" 
			},
			{
				"x": 0.819357793,
				"y": 0.2512868848,
				"z": 0.1641263136,
				"element": "C" 
			},
			{
				"x": 0.5795822414,
				"y": -1.9639341907,
				"z": 1.7134822916,
				"element": "S" 
			},
			{
				"x": -1.3862710127,
				"y": -2.0623190845,
				"z": 2.5036486135,
				"element": "Cl" 
			},
			{
				"x": 0.5207423837,
				"y": -2.5841333604,
				"z": 0.3974056188,
				"element": "O" 
			},
			{
				"x": 1.4832311598,
				"y": -2.4408034756,
				"z": 2.748577573,
				"element": "O" 
			},
			{
				"x": 1.9419942326,
				"y": 2.9981469124,
				"z": -3.8569476102,
				"element": "H" 
			},
			{
				"x": 0.1642941524,
				"y": 3.0632975643,
				"z": -3.8511749185,
				"element": "H" 
			},
			{
				"x": 1.1096545631,
				"y": 4.5385655505,
				"z": -3.4562721328,
				"element": "H" 
			},
			{
				"x": 1.2409513328,
				"y": 2.7921027641,
				"z": 3.0255314099,
				"element": "H" 
			},
			{
				"x": 0.7068137342,
				"y": -0.4565812377,
				"z": -0.6489132644,
				"element": "H" 
			}
		],
		 "valence_orbital": [ 
			{
				"type": "occ",
				"energy": -0.32426,
				"method": "rhf"
			},
			{
				"type": "occ",
				"energy": -0.32071,
				"method": "rhf"
			},
			{
				"type": "occ",
				"energy": -0.30256,
				"method": "rhf"
			},
			{
				"type": "occ",
				"energy": -0.29556,
				"method": "rhf"
			},
			{
				"type": "occ",
				"energy": -0.28966,
				"method": "rhf"
			},
			{
				"type": "unocc",
				"energy": -0.10141,
				"method": "rhf"
			},
			{
				"type": "unocc",
				"energy": -0.0835,
				"method": "rhf"
			},
			{
				"type": "unocc",
				"energy": -0.063,
				"method": "rhf"
			},
			{
				"type": "unocc",
				"energy": -0.0169,
				"method": "rhf"
			},
			{
				"type": "unocc",
				"energy": 0.00532,
				"method": "rhf"
			}
		],
		"cosmo_sigma_profile": { 
			"-0.025": 0.0,
			"-0.024": 0.0,
			"-0.023": 0.0,
			"-0.022": 0.0,
			"-0.021": 0.0,
			"-0.02": 0.0,
			"-0.019": 0.0,
			"-0.018": 0.0,
			"-0.017": 0.0,
			"-0.016": 0.0,
			"-0.015": 0.0,
			"-0.014": 0.0,
			"-0.013": 0.0,
			"-0.012": 0.0,
			"-0.011": 0.0021416568544,
			"-0.01": 1.03819747982,
			"-0.009": 1.55425726472,
			"-0.008": 1.97500283359,
			"-0.007": 5.32362089185,
			"-0.006": 9.76878046118,
			"-0.005": 16.3238989174,
			"-0.004": 27.4289675445,
			"-0.003": 33.5479031977,
			"-0.002": 23.3610237047,
			"-0.001": 16.2763444863,
			"0.0": 16.4059517142,
			"0.001": 20.60775476,
			"0.002": 26.7493320697,
			"0.003": 22.5934250522,
			"0.004": 7.64388262342,
			"0.005": 6.57489060455,
			"0.006": 6.79511838839,
			"0.007": 11.2855885077,
			"0.008": 10.0677697408,
			"0.009": 2.45685846888,
			"0.01": 2.48479177169,
			"0.011": 3.36765756845,
			"0.012": 0.210494165353,
			"0.013": 0.0,
			"0.014": 0.0,
			"0.015": 0.0,
			"0.016": 0.0,
			"0.017": 0.0,
			"0.018": 0.0,
			"0.019": 0.0,
			"0.02": 0.0,
			"0.021": 0.0,
			"0.022": 0.0,
			"0.023": 0.0,
			"0.024": 0.0,
			"0.025": 0.0
		}
	}
}
