{
	 "smiles": "CN1C=C(C(O)=O)C(=N1)C(F)F", 
	 "Tm": 473.15, 
	 "num_atms": 18, 
	 "gaussian": { 
		 "optdone": 1, 
		 "sigma_profile": "yes", 
		 "theory": "DFT", 
		 "functional": "B3LYP", 
		 "basiset": "6-31G**", 
		 "properties": { 
			 "R2extent": 2832.3047, 
			 "electric_dipole_moment_norm": 7.26507615032, 
			 "electric_quadrupole_moment_norm": 19.2968648946, 
			 "total_energy": -691.860052093, 
			 "HOMO_LUMO_gap": 0.23527, 
			 "cosmo_polarized_energy": -21.16, 
			 "cosmo_cavitation_energy": 24.1, 
			 "cosmo_dispersion_energy": -17.21, 
			 "cosmo_repulsion_energy": 1.35, 
			 "cosmo_total_nonelectrostatic_energy": 8.23, 
			 "SMD_solvation_energy": 5.73 
		},
		"coords": [
			{
				"x": -1.0874493334,
				"y": -0.1426418759,
				"z": 2.4552390443,
				"element": "C" 
			},
			{
				"x": -0.228614722,
				"y": 0.5063653864,
				"z": 1.4777179152,
				"element": "N" 
			},
			{
				"x": 0.3981142909,
				"y": 1.7003083683,
				"z": 1.5763393717,
				"element": "C" 
			},
			{
				"x": 1.0651208936,
				"y": 1.9049548646,
				"z": 0.3731350465,
				"element": "C" 
			},
			{
				"x": 1.8571258764,
				"y": 3.0683275459,
				"z": -0.0717861195,
				"element": "C" 
			},
			{
				"x": 2.3007949611,
				"y": 3.9102467543,
				"z": 0.9028947684,
				"element": "O" 
			},
			{
				"x": 2.1064901765,
				"y": 3.3055756951,
				"z": -1.2319693651,
				"element": "O" 
			},
			{
				"x": 0.7524845491,
				"y": 0.7479462621,
				"z": -0.3932816257,
				"element": "C" 
			},
			{
				"x": -0.0208748485,
				"y": -0.0912905986,
				"z": 0.2848421314,
				"element": "N" 
			},
			{
				"x": 1.2523479363,
				"y": 0.4031148847,
				"z": -1.7689109533,
				"element": "C" 
			},
			{
				"x": 0.4236563198,
				"y": -0.5062188989,
				"z": -2.3523473059,
				"element": "F" 
			},
			{
				"x": 2.4953283228,
				"y": -0.1690050671,
				"z": -1.6663566758,
				"element": "F" 
			},
			{
				"x": -0.7049785607,
				"y": -1.1424232287,
				"z": 2.6705722461,
				"element": "H" 
			},
			{
				"x": -1.0956089747,
				"y": 0.4511947277,
				"z": 3.3702306595,
				"element": "H" 
			},
			{
				"x": -2.1036742782,
				"y": -0.2252661386,
				"z": 2.0625554618,
				"element": "H" 
			},
			{
				"x": 0.2929800964,
				"y": 2.3178401879,
				"z": 2.4578223226,
				"element": "H" 
			},
			{
				"x": 2.1866539795,
				"y": 3.5056004141,
				"z": 1.7736249541,
				"element": "H" 
			},
			{
				"x": 1.337103315,
				"y": 1.2853707168,
				"z": -2.4070218764,
				"element": "H" 
			}
		],
		 "valence_orbital": [ 
			{
				"type": "occ",
				"energy": -0.32509,
				"method": "rhf"
			},
			{
				"type": "occ",
				"energy": -0.31458,
				"method": "rhf"
			},
			{
				"type": "occ",
				"energy": -0.28559,
				"method": "rhf"
			},
			{
				"type": "occ",
				"energy": -0.28277,
				"method": "rhf"
			},
			{
				"type": "occ",
				"energy": -0.27438,
				"method": "rhf"
			},
			{
				"type": "unocc",
				"energy": -0.03911,
				"method": "rhf"
			},
			{
				"type": "unocc",
				"energy": -0.01382,
				"method": "rhf"
			},
			{
				"type": "unocc",
				"energy": 0.04718,
				"method": "rhf"
			},
			{
				"type": "unocc",
				"energy": 0.06861,
				"method": "rhf"
			},
			{
				"type": "unocc",
				"energy": 0.08591,
				"method": "rhf"
			}
		],
		"cosmo_sigma_profile": { 
			"-0.025": 0.0,
			"-0.024": 0.0,
			"-0.023": 0.0,
			"-0.022": 0.0,
			"-0.021": 0.0,
			"-0.02": 0.0254319160111,
			"-0.019": 0.734864427914,
			"-0.018": 1.19680225824,
			"-0.017": 1.43730711544,
			"-0.016": 0.86713502942,
			"-0.015": 1.28769406673,
			"-0.014": 0.761041440682,
			"-0.013": 1.61236826292,
			"-0.012": 2.34728570188,
			"-0.011": 3.32881708202,
			"-0.01": 2.68274631693,
			"-0.009": 2.21316146631,
			"-0.008": 3.41643796529,
			"-0.007": 9.73598241693,
			"-0.006": 10.0805947136,
			"-0.005": 9.74002766479,
			"-0.004": 13.1711157567,
			"-0.003": 8.90118405499,
			"-0.002": 6.26482876777,
			"-0.001": 8.97834911001,
			"0.0": 10.7292608591,
			"0.001": 7.31733375365,
			"0.002": 6.34250178996,
			"0.003": 8.84378364942,
			"0.004": 19.6453832184,
			"0.005": 15.2949039195,
			"0.006": 4.08880477226,
			"0.007": 4.34535406375,
			"0.008": 4.32152309156,
			"0.009": 4.74750597382,
			"0.01": 5.59821518608,
			"0.011": 5.93673574958,
			"0.012": 4.00102637632,
			"0.013": 2.14028242773,
			"0.014": 0.557376965294,
			"0.015": 0.0,
			"0.016": 0.0,
			"0.017": 0.0,
			"0.018": 0.0,
			"0.019": 0.0,
			"0.02": 0.0,
			"0.021": 0.0,
			"0.022": 0.0,
			"0.023": 0.0,
			"0.024": 0.0,
			"0.025": 0.0
		}
	}
}
