{
	 "smiles": "CC(=O)C(=N/NC1=CC=C(Cl)C=C1)C(=O)C(F)(F)F", 
	 "Tm": 397.15, 
	 "num_atms": 27, 
	 "gaussian": { 
		 "optdone": 1, 
		 "sigma_profile": "yes", 
		 "theory": "DFT", 
		 "functional": "B3LYP", 
		 "basiset": "6-31G**", 
		 "properties": { 
			 "R2extent": 7513.277, 
			 "electric_dipole_moment_norm": 2.77287862879, 
			 "electric_quadrupole_moment_norm": 8.74637537841, 
			 "total_energy": -1443.62267329, 
			 "HOMO_LUMO_gap": 0.13499, 
			 "cosmo_polarized_energy": -10.44, 
			 "cosmo_cavitation_energy": 36.22, 
			 "cosmo_dispersion_energy": -25.2, 
			 "cosmo_repulsion_energy": 1.88, 
			 "cosmo_total_nonelectrostatic_energy": 12.89, 
			 "SMD_solvation_energy": 7.88 
		},
		"coords": [
			{
				"x": -0.2436262791,
				"y": 2.1883882709,
				"z": 4.1788080573,
				"element": "C" 
			},
			{
				"x": -0.4665571823,
				"y": 1.6522818641,
				"z": 2.7879447245,
				"element": "C" 
			},
			{
				"x": -1.5073597225,
				"y": 1.9425682704,
				"z": 2.1780623152,
				"element": "O" 
			},
			{
				"x": 0.5336262574,
				"y": 0.7806449537,
				"z": 2.125614063,
				"element": "C" 
			},
			{
				"x": 0.3749776719,
				"y": 0.2881317697,
				"z": 0.9019037311,
				"element": "N" 
			},
			{
				"x": -0.6790087022,
				"y": 0.5393572632,
				"z": 0.1936359589,
				"element": "N" 
			},
			{
				"x": -0.8200240538,
				"y": 0.0039540869,
				"z": -1.1003631094,
				"element": "C" 
			},
			{
				"x": 0.1672485904,
				"y": -0.8148149864,
				"z": -1.6648155879,
				"element": "C" 
			},
			{
				"x": -0.0156310308,
				"y": -1.3207176162,
				"z": -2.9467972703,
				"element": "C" 
			},
			{
				"x": -1.177933471,
				"y": -1.0091845664,
				"z": -3.6577884926,
				"element": "C" 
			},
			{
				"x": -1.4002146903,
				"y": -1.6515433346,
				"z": -5.27420023,
				"element": "Cl" 
			},
			{
				"x": -2.1633550756,
				"y": -0.1947961082,
				"z": -3.1001075294,
				"element": "C" 
			},
			{
				"x": -1.9822583207,
				"y": 0.3129869005,
				"z": -1.8163033261,
				"element": "C" 
			},
			{
				"x": 1.796072826,
				"y": 0.3819907493,
				"z": 2.767049442,
				"element": "C" 
			},
			{
				"x": 2.145563508,
				"y": 0.7174943039,
				"z": 3.8847846912,
				"element": "O" 
			},
			{
				"x": 2.7640637042,
				"y": -0.5416081861,
				"z": 1.9564398541,
				"element": "C" 
			},
			{
				"x": 3.8530254176,
				"y": -0.7989940232,
				"z": 2.6874644766,
				"element": "F" 
			},
			{
				"x": 2.184655519,
				"y": -1.7205027639,
				"z": 1.6483369994,
				"element": "F" 
			},
			{
				"x": 3.1653423548,
				"y": 0.0426151641,
				"z": 0.8085067576,
				"element": "F" 
			},
			{
				"x": -0.1074589278,
				"y": 1.3732029076,
				"z": 4.8948525383,
				"element": "H" 
			},
			{
				"x": 0.6743946771,
				"y": 2.7806804798,
				"z": 4.226811891,
				"element": "H" 
			},
			{
				"x": -1.1078101723,
				"y": 2.7968959053,
				"z": 4.4490785273,
				"element": "H" 
			},
			{
				"x": -1.3966638441,
				"y": 1.1432827021,
				"z": 0.6238104672,
				"element": "H" 
			},
			{
				"x": 1.0603078832,
				"y": -1.0430633272,
				"z": -1.0953456152,
				"element": "H" 
			},
			{
				"x": 0.7398052506,
				"y": -1.9554256599,
				"z": -3.3961421461,
				"element": "H" 
			},
			{
				"x": -3.0601717925,
				"y": 0.0391177302,
				"z": -3.6622183892,
				"element": "H" 
			},
			{
				"x": -2.7435103953,
				"y": 0.9483572502,
				"z": -1.3725227983,
				"element": "H" 
			}
		],
		 "valence_orbital": [ 
			{
				"type": "occ",
				"energy": -0.29629,
				"method": "rhf"
			},
			{
				"type": "occ",
				"energy": -0.28482,
				"method": "rhf"
			},
			{
				"type": "occ",
				"energy": -0.2841,
				"method": "rhf"
			},
			{
				"type": "occ",
				"energy": -0.26367,
				"method": "rhf"
			},
			{
				"type": "occ",
				"energy": -0.23763,
				"method": "rhf"
			},
			{
				"type": "unocc",
				"energy": -0.10264,
				"method": "rhf"
			},
			{
				"type": "unocc",
				"energy": -0.05201,
				"method": "rhf"
			},
			{
				"type": "unocc",
				"energy": -0.03319,
				"method": "rhf"
			},
			{
				"type": "unocc",
				"energy": -0.0118,
				"method": "rhf"
			},
			{
				"type": "unocc",
				"energy": 0.01801,
				"method": "rhf"
			}
		],
		"cosmo_sigma_profile": { 
			"-0.025": 0.0,
			"-0.024": 0.0,
			"-0.023": 0.0,
			"-0.022": 0.0,
			"-0.021": 0.0,
			"-0.02": 0.0,
			"-0.019": 0.0,
			"-0.018": 0.0,
			"-0.017": 0.0,
			"-0.016": 0.0,
			"-0.015": 0.0,
			"-0.014": 0.0108575803671,
			"-0.013": 0.607483605518,
			"-0.012": 0.974936156366,
			"-0.011": 0.840146585431,
			"-0.01": 1.17672526507,
			"-0.009": 2.08627610835,
			"-0.008": 4.89136097176,
			"-0.007": 6.44661122675,
			"-0.006": 11.2756247475,
			"-0.005": 17.609815851,
			"-0.004": 19.0202391132,
			"-0.003": 16.881224265,
			"-0.002": 20.3068143543,
			"-0.001": 23.4684846427,
			"0.0": 22.7310836701,
			"0.001": 30.108586999,
			"0.002": 45.0031699493,
			"0.003": 27.6415565655,
			"0.004": 14.2497669821,
			"0.005": 6.29286532748,
			"0.006": 2.91526091031,
			"0.007": 3.20345886061,
			"0.008": 3.47967720741,
			"0.009": 3.34553241902,
			"0.01": 4.56848058376,
			"0.011": 3.1544463926,
			"0.012": 1.27368971742,
			"0.013": 0.00357672493238,
			"0.014": 0.0,
			"0.015": 0.0,
			"0.016": 0.0,
			"0.017": 0.0,
			"0.018": 0.0,
			"0.019": 0.0,
			"0.02": 0.0,
			"0.021": 0.0,
			"0.022": 0.0,
			"0.023": 0.0,
			"0.024": 0.0,
			"0.025": 0.0
		}
	}
}
