{
	 "smiles": "CC1(C)CC2=C(C=C(N2C2=CC=CC=C2)C2=CC=CC=C2)C(=O)C1", 
	 "Tm": 481.15, 
	 "num_atms": 45, 
	 "gaussian": { 
		 "optdone": 1, 
		 "sigma_profile": "yes", 
		 "theory": "DFT", 
		 "functional": "B3LYP", 
		 "basiset": "6-31G**", 
		 "properties": { 
			 "R2extent": 8346.6515, 
			 "electric_dipole_moment_norm": 5.8694310772, 
			 "electric_quadrupole_moment_norm": 15.0192708345, 
			 "total_energy": -980.994910884, 
			 "HOMO_LUMO_gap": 0.17257, 
			 "cosmo_polarized_energy": -14.23, 
			 "cosmo_cavitation_energy": 46.46, 
			 "cosmo_dispersion_energy": -30.99, 
			 "cosmo_repulsion_energy": 2.36, 
			 "cosmo_total_nonelectrostatic_energy": 17.83, 
			 "SMD_solvation_energy": 7.75 
		},
		"coords": [
			{
				"x": 1.400475722,
				"y": 4.2930838038,
				"z": -1.6084763682,
				"element": "C" 
			},
			{
				"x": 1.071538927,
				"y": 2.798473349,
				"z": -1.7651683336,
				"element": "C" 
			},
			{
				"x": -0.2223939014,
				"y": 2.6552123145,
				"z": -2.5923030646,
				"element": "C" 
			},
			{
				"x": 0.8775894119,
				"y": 2.1753792966,
				"z": -0.352198265,
				"element": "C" 
			},
			{
				"x": 0.8919430746,
				"y": 0.6804839674,
				"z": -0.4216616189,
				"element": "C" 
			},
			{
				"x": 1.4494781837,
				"y": -0.0674656736,
				"z": -1.4482940198,
				"element": "C" 
			},
			{
				"x": 1.2071949863,
				"y": -1.4424032362,
				"z": -1.1658170986,
				"element": "C" 
			},
			{
				"x": 0.5185809117,
				"y": -1.5145686239,
				"z": 0.0245106812,
				"element": "C" 
			},
			{
				"x": 0.3304113404,
				"y": -0.1918113922,
				"z": 0.4846789263,
				"element": "N" 
			},
			{
				"x": -0.468720849,
				"y": 0.212775669,
				"z": 1.6001600029,
				"element": "C" 
			},
			{
				"x": 0.1008694097,
				"y": 0.9783102558,
				"z": 2.622988512,
				"element": "C" 
			},
			{
				"x": -0.6851536558,
				"y": 1.3939812027,
				"z": 3.6986907777,
				"element": "C" 
			},
			{
				"x": -2.0329127602,
				"y": 1.0364424089,
				"z": 3.7630821877,
				"element": "C" 
			},
			{
				"x": -2.5959954569,
				"y": 0.2656040623,
				"z": 2.7433099185,
				"element": "C" 
			},
			{
				"x": -1.8207704058,
				"y": -0.1421640431,
				"z": 1.6585388833,
				"element": "C" 
			},
			{
				"x": 0.0960792254,
				"y": -2.7184466374,
				"z": 0.75660035,
				"element": "C" 
			},
			{
				"x": -0.3954881847,
				"y": -3.8190563965,
				"z": 0.0306350602,
				"element": "C" 
			},
			{
				"x": -0.7481133727,
				"y": -5.0026281869,
				"z": 0.6761269988,
				"element": "C" 
			},
			{
				"x": -0.6305458465,
				"y": -5.1093169923,
				"z": 2.0633986458,
				"element": "C" 
			},
			{
				"x": -0.1476811286,
				"y": -4.0234821245,
				"z": 2.7965712137,
				"element": "C" 
			},
			{
				"x": 0.2170969746,
				"y": -2.8422559755,
				"z": 2.1527575665,
				"element": "C" 
			},
			{
				"x": 2.1230442692,
				"y": 0.5609223007,
				"z": -2.5822759453,
				"element": "C" 
			},
			{
				"x": 2.5872448316,
				"y": -0.0632965588,
				"z": -3.5281322393,
				"element": "O" 
			},
			{
				"x": 2.2448985313,
				"y": 2.0858913753,
				"z": -2.4861416848,
				"element": "C" 
			},
			{
				"x": 0.5945630552,
				"y": 4.8204755773,
				"z": -1.0848635569,
				"element": "H" 
			},
			{
				"x": 2.325301232,
				"y": 4.4419414471,
				"z": -1.0396963227,
				"element": "H" 
			},
			{
				"x": 1.5289404858,
				"y": 4.7688986068,
				"z": -2.58660219,
				"element": "H" 
			},
			{
				"x": -0.0874203,
				"y": 3.0795110711,
				"z": -3.5929589846,
				"element": "H" 
			},
			{
				"x": -0.5181324213,
				"y": 1.6089313606,
				"z": -2.7104979776,
				"element": "H" 
			},
			{
				"x": -1.0510421686,
				"y": 3.1881296334,
				"z": -2.1123625877,
				"element": "H" 
			},
			{
				"x": -0.054120264,
				"y": 2.5424292141,
				"z": 0.094605094,
				"element": "H" 
			},
			{
				"x": 1.687936512,
				"y": 2.5288182831,
				"z": 0.303454062,
				"element": "H" 
			},
			{
				"x": 1.551637057,
				"y": -2.2818831758,
				"z": -1.7516401021,
				"element": "H" 
			},
			{
				"x": 1.154766456,
				"y": 1.2331764082,
				"z": 2.5758964509,
				"element": "H" 
			},
			{
				"x": -0.2394855946,
				"y": 1.9893326754,
				"z": 4.4900206574,
				"element": "H" 
			},
			{
				"x": -2.6414732245,
				"y": 1.3556251376,
				"z": 4.6037919435,
				"element": "H" 
			},
			{
				"x": -3.6442855964,
				"y": -0.0142220606,
				"z": 2.7870656495,
				"element": "H" 
			},
			{
				"x": -2.2518012166,
				"y": -0.7340333993,
				"z": 0.8583242283,
				"element": "H" 
			},
			{
				"x": -0.5082997253,
				"y": -3.7322248354,
				"z": -1.0457893474,
				"element": "H" 
			},
			{
				"x": -1.1252356026,
				"y": -5.839290632,
				"z": 0.0947187655,
				"element": "H" 
			},
			{
				"x": -0.9115126616,
				"y": -6.0291340442,
				"z": 2.567999561,
				"element": "H" 
			},
			{
				"x": -0.0433140912,
				"y": -4.0985713072,
				"z": 3.8753781067,
				"element": "H" 
			},
			{
				"x": 0.6129244509,
				"y": -2.0168661211,
				"z": 2.734659663,
				"element": "H" 
			},
			{
				"x": 2.3770163609,
				"y": 2.4753975566,
				"z": -3.50054117,
				"element": "H" 
			},
			{
				"x": 3.1797670193,
				"y": 2.2952944392,
				"z": -1.9441430296,
				"element": "H" 
			}
		],
		 "valence_orbital": [ 
			{
				"type": "occ",
				"energy": -0.26001,
				"method": "rhf"
			},
			{
				"type": "occ",
				"energy": -0.24974,
				"method": "rhf"
			},
			{
				"type": "occ",
				"energy": -0.23787,
				"method": "rhf"
			},
			{
				"type": "occ",
				"energy": -0.22368,
				"method": "rhf"
			},
			{
				"type": "occ",
				"energy": -0.2015,
				"method": "rhf"
			},
			{
				"type": "unocc",
				"energy": -0.02893,
				"method": "rhf"
			},
			{
				"type": "unocc",
				"energy": -0.02356,
				"method": "rhf"
			},
			{
				"type": "unocc",
				"energy": -0.01691,
				"method": "rhf"
			},
			{
				"type": "unocc",
				"energy": -0.00986,
				"method": "rhf"
			},
			{
				"type": "unocc",
				"energy": 0.00094,
				"method": "rhf"
			}
		],
		"cosmo_sigma_profile": { 
			"-0.025": 0.0,
			"-0.024": 0.0,
			"-0.023": 0.0,
			"-0.022": 0.0,
			"-0.021": 0.0,
			"-0.02": 0.0,
			"-0.019": 0.0,
			"-0.018": 0.0,
			"-0.017": 0.0,
			"-0.016": 0.0,
			"-0.015": 0.0,
			"-0.014": 0.0,
			"-0.013": 0.0,
			"-0.012": 0.0,
			"-0.011": 0.0,
			"-0.01": 0.0,
			"-0.009": 0.0,
			"-0.008": 0.0,
			"-0.007": 1.81849967412,
			"-0.006": 15.3638732423,
			"-0.005": 25.7520457928,
			"-0.004": 35.4456526504,
			"-0.003": 44.0880895974,
			"-0.002": 34.669342059,
			"-0.001": 34.5129919659,
			"0.0": 31.5869072592,
			"0.001": 30.8266505627,
			"0.002": 21.0807403663,
			"0.003": 20.6445176327,
			"0.004": 23.8633720325,
			"0.005": 19.38679923,
			"0.006": 8.24321422362,
			"0.007": 1.80626999516,
			"0.008": 1.645197771,
			"0.009": 1.7339269623,
			"0.01": 1.64647188597,
			"0.011": 1.98724807602,
			"0.012": 2.75189155515,
			"0.013": 4.81796082567,
			"0.014": 3.58087688829,
			"0.015": 0.611619863616,
			"0.016": 0.0,
			"0.017": 0.0,
			"0.018": 0.0,
			"0.019": 0.0,
			"0.02": 0.0,
			"0.021": 0.0,
			"0.022": 0.0,
			"0.023": 0.0,
			"0.024": 0.0,
			"0.025": 0.0
		}
	}
}
