{
	 "smiles": "CC1=CSC(N)=C1C(N)=O", 
	 "Tm": 447.15, 
	 "num_atms": 18, 
	 "gaussian": { 
		 "optdone": 1, 
		 "sigma_profile": "yes", 
		 "theory": "DFT", 
		 "functional": "B3LYP", 
		 "basiset": "6-31G**", 
		 "properties": { 
			 "R2extent": 2143.9386, 
			 "electric_dipole_moment_norm": 3.23817719404, 
			 "electric_quadrupole_moment_norm": 9.10604539413, 
			 "total_energy": -816.384669021, 
			 "HOMO_LUMO_gap": 0.18519, 
			 "cosmo_polarized_energy": -14.29, 
			 "cosmo_cavitation_energy": 22.9, 
			 "cosmo_dispersion_energy": -17.8, 
			 "cosmo_repulsion_energy": 1.4, 
			 "cosmo_total_nonelectrostatic_energy": 6.5, 
			 "SMD_solvation_energy": 4.71 
		},
		"coords": [
			{
				"x": 0.5000059241,
				"y": -3.4852858613,
				"z": -1.3396107217,
				"element": "C" 
			},
			{
				"x": 0.18198443,
				"y": -2.6167611838,
				"z": -0.153363786,
				"element": "C" 
			},
			{
				"x": 0.1646977745,
				"y": -3.084350166,
				"z": 1.1239619103,
				"element": "C" 
			},
			{
				"x": -0.2331912676,
				"y": -1.8405073318,
				"z": 2.2896685028,
				"element": "S" 
			},
			{
				"x": -0.3938343228,
				"y": -0.6516409495,
				"z": 1.020675374,
				"element": "C" 
			},
			{
				"x": -0.7521849228,
				"y": 0.6500201355,
				"z": 1.3431757649,
				"element": "N" 
			},
			{
				"x": -0.1559822389,
				"y": -1.2053856318,
				"z": -0.229393541,
				"element": "C" 
			},
			{
				"x": -0.1871585924,
				"y": -0.4549596957,
				"z": -1.5042006288,
				"element": "C" 
			},
			{
				"x": -0.8926519254,
				"y": 0.751415308,
				"z": -1.4876123179,
				"element": "N" 
			},
			{
				"x": 0.3932211661,
				"y": -0.8204693526,
				"z": -2.5202879159,
				"element": "O" 
			},
			{
				"x": 0.6773395893,
				"y": -4.5160904659,
				"z": -1.0198476402,
				"element": "H" 
			},
			{
				"x": -0.3191164372,
				"y": -3.4823931814,
				"z": -2.065829298,
				"element": "H" 
			},
			{
				"x": 1.3799114637,
				"y": -3.1158910524,
				"z": -1.8714597831,
				"element": "H" 
			},
			{
				"x": 0.3545427628,
				"y": -4.0907950439,
				"z": 1.4687972738,
				"element": "H" 
			},
			{
				"x": -0.5583316836,
				"y": 0.9221415698,
				"z": 2.2979632969,
				"element": "H" 
			},
			{
				"x": -0.4238646994,
				"y": 1.3344926278,
				"z": 0.6697010764,
				"element": "H" 
			},
			{
				"x": -0.9993158119,
				"y": 1.1420818564,
				"z": -2.4159490484,
				"element": "H" 
			},
			{
				"x": -1.7306712085,
				"y": 0.7886784184,
				"z": -0.9191885179,
				"element": "H" 
			}
		],
		 "valence_orbital": [ 
			{
				"type": "occ",
				"energy": -0.31278,
				"method": "rhf"
			},
			{
				"type": "occ",
				"energy": -0.27603,
				"method": "rhf"
			},
			{
				"type": "occ",
				"energy": -0.24792,
				"method": "rhf"
			},
			{
				"type": "occ",
				"energy": -0.24252,
				"method": "rhf"
			},
			{
				"type": "occ",
				"energy": -0.2021,
				"method": "rhf"
			},
			{
				"type": "unocc",
				"energy": -0.01691,
				"method": "rhf"
			},
			{
				"type": "unocc",
				"energy": 0.01345,
				"method": "rhf"
			},
			{
				"type": "unocc",
				"energy": 0.02337,
				"method": "rhf"
			},
			{
				"type": "unocc",
				"energy": 0.0778,
				"method": "rhf"
			},
			{
				"type": "unocc",
				"energy": 0.08644,
				"method": "rhf"
			}
		],
		"cosmo_sigma_profile": { 
			"-0.025": 0.0,
			"-0.024": 0.0,
			"-0.023": 0.0,
			"-0.022": 0.0,
			"-0.021": 0.0,
			"-0.02": 0.0,
			"-0.019": 0.0,
			"-0.018": 0.0,
			"-0.017": 0.0,
			"-0.016": 0.0,
			"-0.015": 0.0962604044835,
			"-0.014": 1.08319135173,
			"-0.013": 2.26657481276,
			"-0.012": 3.82257999694,
			"-0.011": 3.97844586877,
			"-0.01": 4.76732048109,
			"-0.009": 4.23441281923,
			"-0.008": 4.58379919065,
			"-0.007": 5.46971745797,
			"-0.006": 6.1001633126,
			"-0.005": 5.61502917652,
			"-0.004": 8.31520074454,
			"-0.003": 9.40169629101,
			"-0.002": 9.02328371362,
			"-0.001": 11.1832374544,
			"0.0": 13.9469721972,
			"0.001": 14.1431654951,
			"0.002": 10.2671874768,
			"0.003": 11.825720686,
			"0.004": 14.4758789201,
			"0.005": 11.7948683257,
			"0.006": 5.90224776946,
			"0.007": 2.99466239332,
			"0.008": 2.8590086875,
			"0.009": 2.00519096799,
			"0.01": 1.68595682477,
			"0.011": 2.00215153762,
			"0.012": 2.00995080955,
			"0.013": 3.24026657363,
			"0.014": 3.59436629499,
			"0.015": 0.603924145006,
			"0.016": 0.0,
			"0.017": 0.0,
			"0.018": 0.0,
			"0.019": 0.0,
			"0.02": 0.0,
			"0.021": 0.0,
			"0.022": 0.0,
			"0.023": 0.0,
			"0.024": 0.0,
			"0.025": 0.0
		}
	}
}
