{
	 "smiles": "SC1=NC(=CN1)C1=CC=CC=C1", 
	 "Tm": 536.15, 
	 "num_atms": 20, 
	 "gaussian": { 
		 "optdone": 1, 
		 "sigma_profile": "yes", 
		 "theory": "DFT", 
		 "functional": "B3LYP", 
		 "basiset": "6-31G**", 
		 "properties": { 
			 "R2extent": 3301.9261, 
			 "electric_dipole_moment_norm": 2.56283588628, 
			 "electric_quadrupole_moment_norm": 11.526427296, 
			 "total_energy": -855.46683175, 
			 "HOMO_LUMO_gap": 0.18475, 
			 "cosmo_polarized_energy": -13.64, 
			 "cosmo_cavitation_energy": 26.13, 
			 "cosmo_dispersion_energy": -20.09, 
			 "cosmo_repulsion_energy": 1.55, 
			 "cosmo_total_nonelectrostatic_energy": 7.59, 
			 "SMD_solvation_energy": 2.68 
		},
		"coords": [
			{
				"x": 3.9261907019,
				"y": -2.6854966436,
				"z": 0.9501095053,
				"element": "S" 
			},
			{
				"x": 2.7055287687,
				"y": -1.5364971255,
				"z": 0.3732289976,
				"element": "C" 
			},
			{
				"x": 1.5099067696,
				"y": -1.3494376977,
				"z": 0.8749852708,
				"element": "N" 
			},
			{
				"x": 0.9239563883,
				"y": -0.357727355,
				"z": 0.0974675657,
				"element": "C" 
			},
			{
				"x": 1.8048604281,
				"y": 0.0419664163,
				"z": -0.8833712122,
				"element": "C" 
			},
			{
				"x": 2.944421966,
				"y": -0.7206013732,
				"z": -0.697217106,
				"element": "N" 
			},
			{
				"x": -0.4389534457,
				"y": 0.1177569983,
				"z": 0.3712826501,
				"element": "C" 
			},
			{
				"x": -1.0405482197,
				"y": 1.1193017924,
				"z": -0.4097948184,
				"element": "C" 
			},
			{
				"x": -2.3339162031,
				"y": 1.5569269248,
				"z": -0.1344094438,
				"element": "C" 
			},
			{
				"x": -3.0539797599,
				"y": 1.0033495561,
				"z": 0.9271929126,
				"element": "C" 
			},
			{
				"x": -2.4652678936,
				"y": 0.0076283178,
				"z": 1.7093112465,
				"element": "C" 
			},
			{
				"x": -1.1714232841,
				"y": -0.4320737932,
				"z": 1.4359910586,
				"element": "C" 
			},
			{
				"x": 3.1388276278,
				"y": -3.1431050463,
				"z": 1.9400170567,
				"element": "H" 
			},
			{
				"x": 1.739521132,
				"y": 0.7719493056,
				"z": -1.6741973861,
				"element": "H" 
			},
			{
				"x": 3.7873410462,
				"y": -0.678041423,
				"z": -1.2492984305,
				"element": "H" 
			},
			{
				"x": -0.4955396271,
				"y": 1.5612029621,
				"z": -1.2394942112,
				"element": "H" 
			},
			{
				"x": -2.7810551817,
				"y": 2.3323842047,
				"z": -0.750318052,
				"element": "H" 
			},
			{
				"x": -4.0625087122,
				"y": 1.3451428146,
				"z": 1.1413087663,
				"element": "H" 
			},
			{
				"x": -3.0163919487,
				"y": -0.4297613864,
				"z": 2.5373969313,
				"element": "H" 
			},
			{
				"x": -0.7078705528,
				"y": -1.2049674487,
				"z": 2.0391086988,
				"element": "H" 
			}
		],
		 "valence_orbital": [ 
			{
				"type": "occ",
				"energy": -0.29692,
				"method": "rhf"
			},
			{
				"type": "occ",
				"energy": -0.27723,
				"method": "rhf"
			},
			{
				"type": "occ",
				"energy": -0.24529,
				"method": "rhf"
			},
			{
				"type": "occ",
				"energy": -0.24053,
				"method": "rhf"
			},
			{
				"type": "occ",
				"energy": -0.19886,
				"method": "rhf"
			},
			{
				"type": "unocc",
				"energy": -0.01411,
				"method": "rhf"
			},
			{
				"type": "unocc",
				"energy": 0.0034,
				"method": "rhf"
			},
			{
				"type": "unocc",
				"energy": 0.00724,
				"method": "rhf"
			},
			{
				"type": "unocc",
				"energy": 0.03135,
				"method": "rhf"
			},
			{
				"type": "unocc",
				"energy": 0.0674,
				"method": "rhf"
			}
		],
		"cosmo_sigma_profile": { 
			"-0.025": 0.0,
			"-0.024": 0.0,
			"-0.023": 0.0,
			"-0.022": 0.0,
			"-0.021": 0.0,
			"-0.02": 0.0,
			"-0.019": 0.0,
			"-0.018": 0.0408282280574,
			"-0.017": 1.19877951932,
			"-0.016": 1.93273646581,
			"-0.015": 1.12527785136,
			"-0.014": 0.997178071843,
			"-0.013": 1.68642889108,
			"-0.012": 1.67877820756,
			"-0.011": 3.13409680114,
			"-0.01": 1.44523009483,
			"-0.009": 4.11693959237,
			"-0.008": 5.15933280922,
			"-0.007": 4.72037628551,
			"-0.006": 5.65612790129,
			"-0.005": 11.1440296451,
			"-0.004": 11.9078045009,
			"-0.003": 13.357131351,
			"-0.002": 10.7738022434,
			"-0.001": 9.7644808289,
			"0.0": 9.91262994136,
			"0.001": 11.3379344787,
			"0.002": 16.7604902038,
			"0.003": 16.1210746874,
			"0.004": 19.9999258713,
			"0.005": 19.0239179619,
			"0.006": 13.6092199421,
			"0.007": 6.58115605106,
			"0.008": 3.05800412986,
			"0.009": 1.12695108214,
			"0.01": 0.844868940265,
			"0.011": 1.67173948458,
			"0.012": 0.963271128948,
			"0.013": 1.16884558758,
			"0.014": 0.435710670404,
			"0.015": 0.0,
			"0.016": 0.0,
			"0.017": 0.0,
			"0.018": 0.0,
			"0.019": 0.0,
			"0.02": 0.0,
			"0.021": 0.0,
			"0.022": 0.0,
			"0.023": 0.0,
			"0.024": 0.0,
			"0.025": 0.0
		}
	}
}
