{
	 "smiles": "NCC1=CC=C(C=C1)C1=CC=NN1", 
	 "Tm": 415.15, 
	 "num_atms": 24, 
	 "gaussian": { 
		 "optdone": 1, 
		 "sigma_profile": "yes", 
		 "theory": "DFT", 
		 "functional": "B3LYP", 
		 "basiset": "6-31G**", 
		 "properties": { 
			 "R2extent": 3440.8292, 
			 "electric_dipole_moment_norm": 3.97275487036, 
			 "electric_quadrupole_moment_norm": 6.41338696868, 
			 "total_energy": -551.927744233, 
			 "HOMO_LUMO_gap": 0.18768, 
			 "cosmo_polarized_energy": -13.23, 
			 "cosmo_cavitation_energy": 27.87, 
			 "cosmo_dispersion_energy": -20.64, 
			 "cosmo_repulsion_energy": 1.64, 
			 "cosmo_total_nonelectrostatic_energy": 8.87, 
			 "SMD_solvation_energy": 2.92 
		},
		"coords": [
			{
				"x": -1.9073951562,
				"y": -4.1309111912,
				"z": 0.7379033275,
				"element": "N" 
			},
			{
				"x": -1.5880190828,
				"y": -3.4366494962,
				"z": -0.5126044336,
				"element": "C" 
			},
			{
				"x": -0.7419572133,
				"y": -2.2006591732,
				"z": -0.2716252316,
				"element": "C" 
			},
			{
				"x": 0.2055589001,
				"y": -2.1641877176,
				"z": 0.7591164266,
				"element": "C" 
			},
			{
				"x": 1.0076589309,
				"y": -1.0422134602,
				"z": 0.9503392542,
				"element": "C" 
			},
			{
				"x": 0.8816293387,
				"y": 0.0881054582,
				"z": 0.1235608718,
				"element": "C" 
			},
			{
				"x": -0.0726812513,
				"y": 0.0500876911,
				"z": -0.906534434,
				"element": "C" 
			},
			{
				"x": -0.8674801714,
				"y": -1.0766409618,
				"z": -1.097662967,
				"element": "C" 
			},
			{
				"x": 1.7118742443,
				"y": 1.2795732811,
				"z": 0.3214233958,
				"element": "C" 
			},
			{
				"x": 2.1533451068,
				"y": 2.2619701565,
				"z": -0.5582746846,
				"element": "C" 
			},
			{
				"x": 2.9269979542,
				"y": 3.1399824821,
				"z": 0.2289461932,
				"element": "C" 
			},
			{
				"x": 2.9733662851,
				"y": 2.7591159531,
				"z": 1.5059418357,
				"element": "N" 
			},
			{
				"x": 2.2394883125,
				"y": 1.6269456892,
				"z": 1.5335063725,
				"element": "N" 
			},
			{
				"x": -2.5429181296,
				"y": -3.565269388,
				"z": 1.2956305064,
				"element": "H" 
			},
			{
				"x": -2.3871268352,
				"y": -5.0044007892,
				"z": 0.5386479047,
				"element": "H" 
			},
			{
				"x": -1.0198560202,
				"y": -4.1412141847,
				"z": -1.1362416072,
				"element": "H" 
			},
			{
				"x": -2.4693717447,
				"y": -3.1462508722,
				"z": -1.1107046174,
				"element": "H" 
			},
			{
				"x": 0.3048282306,
				"y": -3.0294457602,
				"z": 1.406352696,
				"element": "H" 
			},
			{
				"x": 1.76138111,
				"y": -1.0579476266,
				"z": 1.7335655981,
				"element": "H" 
			},
			{
				"x": -0.2066819769,
				"y": 0.920603109,
				"z": -1.5415123398,
				"element": "H" 
			},
			{
				"x": -1.6070630442,
				"y": -1.0780589118,
				"z": -1.8952246443,
				"element": "H" 
			},
			{
				"x": 1.9690928152,
				"y": 2.3087311459,
				"z": -1.6210068632,
				"element": "H" 
			},
			{
				"x": 3.4561059248,
				"y": 4.0312469075,
				"z": -0.0813726094,
				"element": "H" 
			},
			{
				"x": 2.0652234727,
				"y": 1.1804876592,
				"z": 2.4203300495,
				"element": "H" 
			}
		],
		 "valence_orbital": [ 
			{
				"type": "occ",
				"energy": -0.27377,
				"method": "rhf"
			},
			{
				"type": "occ",
				"energy": -0.25466,
				"method": "rhf"
			},
			{
				"type": "occ",
				"energy": -0.25063,
				"method": "rhf"
			},
			{
				"type": "occ",
				"energy": -0.2439,
				"method": "rhf"
			},
			{
				"type": "occ",
				"energy": -0.2137,
				"method": "rhf"
			},
			{
				"type": "unocc",
				"energy": -0.02602,
				"method": "rhf"
			},
			{
				"type": "unocc",
				"energy": -0.00589,
				"method": "rhf"
			},
			{
				"type": "unocc",
				"energy": 0.04484,
				"method": "rhf"
			},
			{
				"type": "unocc",
				"energy": 0.07667,
				"method": "rhf"
			},
			{
				"type": "unocc",
				"energy": 0.08058,
				"method": "rhf"
			}
		],
		"cosmo_sigma_profile": { 
			"-0.025": 0.0,
			"-0.024": 0.0,
			"-0.023": 0.0,
			"-0.022": 0.0,
			"-0.021": 0.0,
			"-0.02": 0.0,
			"-0.019": 0.0,
			"-0.018": 0.0,
			"-0.017": 0.00493575046058,
			"-0.016": 0.70972585169,
			"-0.015": 1.02914880189,
			"-0.014": 1.14636906439,
			"-0.013": 1.32288533608,
			"-0.012": 0.718838193693,
			"-0.011": 1.24626451183,
			"-0.01": 3.00659596665,
			"-0.009": 4.21576912254,
			"-0.008": 4.06938466043,
			"-0.007": 5.67693682164,
			"-0.006": 9.47726638087,
			"-0.005": 13.5520705722,
			"-0.004": 17.6169865651,
			"-0.003": 16.5313515537,
			"-0.002": 16.1685145392,
			"-0.001": 14.3970230591,
			"0.0": 9.23905364073,
			"0.001": 10.8525740496,
			"0.002": 12.6578949375,
			"0.003": 16.0679713734,
			"0.004": 15.2335142039,
			"0.005": 17.2570583867,
			"0.006": 8.14738166226,
			"0.007": 3.06940094131,
			"0.008": 2.50850900057,
			"0.009": 2.96370336974,
			"0.01": 1.4985339975,
			"0.011": 2.05332696108,
			"0.012": 2.00730388151,
			"0.013": 1.55560989186,
			"0.014": 1.87337847676,
			"0.015": 1.59222699432,
			"0.016": 1.5248141639,
			"0.017": 0.389899131877,
			"0.018": 0.0,
			"0.019": 0.0,
			"0.02": 0.0,
			"0.021": 0.0,
			"0.022": 0.0,
			"0.023": 0.0,
			"0.024": 0.0,
			"0.025": 0.0
		}
	}
}
