{
	 "smiles": "CCOC1=C(OC)C=C(CC2=C3C=C(OC)C(OC)=CC3=CC(C)=N2)C=C1", 
	 "Tm": 397.15, 
	 "num_atms": 52, 
	 "gaussian": { 
		 "optdone": 1, 
		 "sigma_profile": "yes", 
		 "theory": "DFT", 
		 "functional": "B3LYP", 
		 "basiset": "6-31G**", 
		 "properties": { 
			 "R2extent": 12591.7088, 
			 "electric_dipole_moment_norm": 3.11534817797, 
			 "electric_quadrupole_moment_norm": 11.1505013511, 
			 "total_energy": -1209.02521333, 
			 "HOMO_LUMO_gap": 0.16165, 
			 "cosmo_polarized_energy": -13.93, 
			 "cosmo_cavitation_energy": 54.65, 
			 "cosmo_dispersion_energy": -36.2, 
			 "cosmo_repulsion_energy": 2.82, 
			 "cosmo_total_nonelectrostatic_energy": 21.26, 
			 "SMD_solvation_energy": 10.27 
		},
		"coords": [
			{
				"x": 3.3769975172,
				"y": 5.543990307,
				"z": -2.0079400189,
				"element": "C" 
			},
			{
				"x": 2.5954683355,
				"y": 4.3662420391,
				"z": -1.4537942017,
				"element": "C" 
			},
			{
				"x": 3.2911205556,
				"y": 3.1680516761,
				"z": -1.8353568488,
				"element": "O" 
			},
			{
				"x": 2.7249945934,
				"y": 1.9835688412,
				"z": -1.4305918837,
				"element": "C" 
			},
			{
				"x": 2.7288692091,
				"y": 1.5873220045,
				"z": -0.0719601465,
				"element": "C" 
			},
			{
				"x": 3.2850609686,
				"y": 2.4734154757,
				"z": 0.807403145,
				"element": "O" 
			},
			{
				"x": 3.3460551171,
				"y": 2.1059286896,
				"z": 2.1766911626,
				"element": "C" 
			},
			{
				"x": 2.1925397115,
				"y": 0.3502106136,
				"z": 0.286896758,
				"element": "C" 
			},
			{
				"x": 1.6597445489,
				"y": -0.5152702555,
				"z": -0.6828619405,
				"element": "C" 
			},
			{
				"x": 1.1122556225,
				"y": -1.8725604055,
				"z": -0.2616197152,
				"element": "C" 
			},
			{
				"x": 0.0743900408,
				"y": -1.8067451747,
				"z": 0.8461232864,
				"element": "C" 
			},
			{
				"x": -1.2869850739,
				"y": -1.4424641363,
				"z": 0.5804916326,
				"element": "C" 
			},
			{
				"x": -1.7708939274,
				"y": -1.0922122595,
				"z": -0.7071406448,
				"element": "C" 
			},
			{
				"x": -3.0921384241,
				"y": -0.7598048016,
				"z": -0.9033542853,
				"element": "C" 
			},
			{
				"x": -3.5310018856,
				"y": -0.4444533291,
				"z": -2.1696138738,
				"element": "O" 
			},
			{
				"x": -3.8538650333,
				"y": 0.9390510103,
				"z": -2.3632806111,
				"element": "C" 
			},
			{
				"x": -4.0059638009,
				"y": -0.7798292052,
				"z": 0.1969846952,
				"element": "C" 
			},
			{
				"x": -5.3246212939,
				"y": -0.43702191,
				"z": 0.0219170856,
				"element": "O" 
			},
			{
				"x": -6.0983838836,
				"y": -1.363796109,
				"z": -0.7525811489,
				"element": "C" 
			},
			{
				"x": -3.5533689556,
				"y": -1.0940474922,
				"z": 1.4587162275,
				"element": "C" 
			},
			{
				"x": -2.1915527314,
				"y": -1.4204621279,
				"z": 1.6855111739,
				"element": "C" 
			},
			{
				"x": -1.6840267045,
				"y": -1.7426909312,
				"z": 2.9698574482,
				"element": "C" 
			},
			{
				"x": -0.3531070333,
				"y": -2.0615511101,
				"z": 3.1195259878,
				"element": "C" 
			},
			{
				"x": 0.2507888094,
				"y": -2.4073665294,
				"z": 4.4559350915,
				"element": "C" 
			},
			{
				"x": 0.5100114848,
				"y": -2.0951539389,
				"z": 2.0601240609,
				"element": "N" 
			},
			{
				"x": 1.673563331,
				"y": -0.1230127934,
				"z": -2.0210049732,
				"element": "C" 
			},
			{
				"x": 2.1991546265,
				"y": 1.1211143601,
				"z": -2.3853340978,
				"element": "C" 
			},
			{
				"x": 2.877690484,
				"y": 6.4840507634,
				"z": -1.7519321056,
				"element": "H" 
			},
			{
				"x": 4.3877001876,
				"y": 5.5625899257,
				"z": -1.5902040306,
				"element": "H" 
			},
			{
				"x": 3.4570362567,
				"y": 5.4779194559,
				"z": -3.0969802532,
				"element": "H" 
			},
			{
				"x": 1.5768161651,
				"y": 4.3406399128,
				"z": -1.8679935302,
				"element": "H" 
			},
			{
				"x": 2.5200245433,
				"y": 4.423219028,
				"z": -0.3625057246,
				"element": "H" 
			},
			{
				"x": 3.8346057383,
				"y": 2.9363673904,
				"z": 2.6889693121,
				"element": "H" 
			},
			{
				"x": 3.9363322045,
				"y": 1.1926537677,
				"z": 2.3231139756,
				"element": "H" 
			},
			{
				"x": 2.3455537178,
				"y": 1.9557865436,
				"z": 2.6022439414,
				"element": "H" 
			},
			{
				"x": 2.187571805,
				"y": 0.0310122799,
				"z": 1.3227515954,
				"element": "H" 
			},
			{
				"x": 1.9281214533,
				"y": -2.4937325564,
				"z": 0.1212341594,
				"element": "H" 
			},
			{
				"x": 0.701067546,
				"y": -2.3824086042,
				"z": -1.1392083378,
				"element": "H" 
			},
			{
				"x": -1.1064951994,
				"y": -1.054359852,
				"z": -1.5619793192,
				"element": "H" 
			},
			{
				"x": -4.1894444492,
				"y": 1.032390376,
				"z": -3.3980547491,
				"element": "H" 
			},
			{
				"x": -2.9673450114,
				"y": 1.5669222219,
				"z": -2.2110514251,
				"element": "H" 
			},
			{
				"x": -4.6510953884,
				"y": 1.2605242227,
				"z": -1.6856600411,
				"element": "H" 
			},
			{
				"x": -7.1041354351,
				"y": -0.9435219017,
				"z": -0.812197492,
				"element": "H" 
			},
			{
				"x": -6.1425637814,
				"y": -2.3393671082,
				"z": -0.2526803903,
				"element": "H" 
			},
			{
				"x": -5.6859564776,
				"y": -1.4852110395,
				"z": -1.7582616118,
				"element": "H" 
			},
			{
				"x": -4.2609254564,
				"y": -1.0902372744,
				"z": 2.2822985694,
				"element": "H" 
			},
			{
				"x": -2.3507652304,
				"y": -1.7347269446,
				"z": 3.8276191584,
				"element": "H" 
			},
			{
				"x": 0.6804326403,
				"y": -3.41472816,
				"z": 4.4321691088,
				"element": "H" 
			},
			{
				"x": 1.069769134,
				"y": -1.720401254,
				"z": 4.6960406912,
				"element": "H" 
			},
			{
				"x": -0.4893467312,
				"y": -2.3618080951,
				"z": 5.2591093551,
				"element": "H" 
			},
			{
				"x": 1.2788371232,
				"y": -0.7856896606,
				"z": -2.7868042064,
				"element": "H" 
			},
			{
				"x": 2.2204084368,
				"y": 1.4401640548,
				"z": -3.4227800147,
				"element": "H" 
			}
		],
		 "valence_orbital": [ 
			{
				"type": "occ",
				"energy": -0.24709,
				"method": "rhf"
			},
			{
				"type": "occ",
				"energy": -0.24006,
				"method": "rhf"
			},
			{
				"type": "occ",
				"energy": -0.23124,
				"method": "rhf"
			},
			{
				"type": "occ",
				"energy": -0.21481,
				"method": "rhf"
			},
			{
				"type": "occ",
				"energy": -0.20632,
				"method": "rhf"
			},
			{
				"type": "unocc",
				"energy": -0.04467,
				"method": "rhf"
			},
			{
				"type": "unocc",
				"energy": -0.01626,
				"method": "rhf"
			},
			{
				"type": "unocc",
				"energy": 0.00745,
				"method": "rhf"
			},
			{
				"type": "unocc",
				"energy": 0.0166,
				"method": "rhf"
			},
			{
				"type": "unocc",
				"energy": 0.03191,
				"method": "rhf"
			}
		],
		"cosmo_sigma_profile": { 
			"-0.025": 0.0,
			"-0.024": 0.0,
			"-0.023": 0.0,
			"-0.022": 0.0,
			"-0.021": 0.0,
			"-0.02": 0.0,
			"-0.019": 0.0,
			"-0.018": 0.0,
			"-0.017": 0.0,
			"-0.016": 0.0,
			"-0.015": 0.0,
			"-0.014": 0.0,
			"-0.013": 0.0,
			"-0.012": 0.0,
			"-0.011": 0.0,
			"-0.01": 0.0,
			"-0.009": 0.0,
			"-0.008": 0.112997730229,
			"-0.007": 2.1945332221,
			"-0.006": 13.3227832036,
			"-0.005": 30.0738981908,
			"-0.004": 39.3681227399,
			"-0.003": 52.5012004889,
			"-0.002": 44.8507866426,
			"-0.001": 40.3888557623,
			"0.0": 39.6169685591,
			"0.001": 30.6595518111,
			"0.002": 30.9227175697,
			"0.003": 35.0866176378,
			"0.004": 19.899243878,
			"0.005": 14.7873628959,
			"0.006": 7.81777589467,
			"0.007": 5.37463574658,
			"0.008": 5.43144669018,
			"0.009": 5.09991313472,
			"0.01": 3.96686804926,
			"0.011": 6.08179941199,
			"0.012": 3.22299463452,
			"0.013": 0.333829615469,
			"0.014": 0.467062679077,
			"0.015": 0.483525623539,
			"0.016": 0.239517548038,
			"0.017": 0.0,
			"0.018": 0.0,
			"0.019": 0.0,
			"0.02": 0.0,
			"0.021": 0.0,
			"0.022": 0.0,
			"0.023": 0.0,
			"0.024": 0.0,
			"0.025": 0.0
		}
	}
}
