{
	 "smiles": "CC1=CC2=C(C=C1C)C(C)=CC=C2C", 
	 "Tm": 337.15, 
	 "num_atms": 30, 
	 "gaussian": { 
		 "optdone": 1, 
		 "sigma_profile": "yes", 
		 "theory": "DFT", 
		 "functional": "B3LYP", 
		 "basiset": "6-31G**", 
		 "properties": { 
			 "R2extent": 3256.845, 
			 "electric_dipole_moment_norm": 0.754081766124, 
			 "electric_quadrupole_moment_norm": 7.54823863891, 
			 "total_energy": -543.174194932, 
			 "HOMO_LUMO_gap": 0.17148, 
			 "cosmo_polarized_energy": -4.78, 
			 "cosmo_cavitation_energy": 31.4, 
			 "cosmo_dispersion_energy": -22.77, 
			 "cosmo_repulsion_energy": 1.76, 
			 "cosmo_total_nonelectrostatic_energy": 10.38, 
			 "SMD_solvation_energy": 5.08 
		},
		"coords": [
			{
				"x": -3.5178206341,
				"y": 0.9458889702,
				"z": -1.3286688711,
				"element": "C" 
			},
			{
				"x": -2.1801476903,
				"y": 0.7174763632,
				"z": -0.6667724399,
				"element": "C" 
			},
			{
				"x": -2.110440706,
				"y": 0.1765274209,
				"z": 0.6016943327,
				"element": "C" 
			},
			{
				"x": -0.8819399124,
				"y": -0.0605516738,
				"z": 1.2732475395,
				"element": "C" 
			},
			{
				"x": 0.3341655483,
				"y": 0.2806866474,
				"z": 0.5945650637,
				"element": "C" 
			},
			{
				"x": 0.2381289508,
				"y": 0.8356275182,
				"z": -0.7089808179,
				"element": "C" 
			},
			{
				"x": -0.9681201004,
				"y": 1.0576670564,
				"z": -1.3431511527,
				"element": "C" 
			},
			{
				"x": -1.0050761755,
				"y": 1.6512670558,
				"z": -2.7309294619,
				"element": "C" 
			},
			{
				"x": 1.5970684226,
				"y": 0.0583005742,
				"z": 1.2350215388,
				"element": "C" 
			},
			{
				"x": 2.8939751725,
				"y": 0.4076867116,
				"z": 0.5454251302,
				"element": "C" 
			},
			{
				"x": 1.6017390429,
				"y": -0.4848573467,
				"z": 2.5022554737,
				"element": "C" 
			},
			{
				"x": 0.4027290344,
				"y": -0.8212228097,
				"z": 3.1714304152,
				"element": "C" 
			},
			{
				"x": -0.8319353964,
				"y": -0.6231835108,
				"z": 2.5906388802,
				"element": "C" 
			},
			{
				"x": -2.0955579491,
				"y": -0.9921355893,
				"z": 3.3300348541,
				"element": "C" 
			},
			{
				"x": -4.3375045981,
				"y": 0.6321953774,
				"z": -0.6769714375,
				"element": "H" 
			},
			{
				"x": -3.6060634006,
				"y": 0.3884337647,
				"z": -2.2693591354,
				"element": "H" 
			},
			{
				"x": -3.6731455326,
				"y": 2.0032032489,
				"z": -1.5764326401,
				"element": "H" 
			},
			{
				"x": -3.0379249259,
				"y": -0.0779963216,
				"z": 1.1057657669,
				"element": "H" 
			},
			{
				"x": 1.1524054045,
				"y": 1.098030058,
				"z": -1.2327613764,
				"element": "H" 
			},
			{
				"x": -1.4959182599,
				"y": 0.9803633457,
				"z": -3.4467461485,
				"element": "H" 
			},
			{
				"x": -1.5634159367,
				"y": 2.5952728364,
				"z": -2.7541829436,
				"element": "H" 
			},
			{
				"x": 0.0042797638,
				"y": 1.8516234294,
				"z": -3.0997834331,
				"element": "H" 
			},
			{
				"x": 2.9510131671,
				"y": 1.4748899288,
				"z": 0.2992042041,
				"element": "H" 
			},
			{
				"x": 3.7475841486,
				"y": 0.1686972043,
				"z": 1.1851259235,
				"element": "H" 
			},
			{
				"x": 3.0180133579,
				"y": -0.1432232335,
				"z": -0.3947446339,
				"element": "H" 
			},
			{
				"x": 2.5507715185,
				"y": -0.660367169,
				"z": 3.0030438347,
				"element": "H" 
			},
			{
				"x": 0.4593780803,
				"y": -1.2470660462,
				"z": 4.1702781748,
				"element": "H" 
			},
			{
				"x": -2.6823953618,
				"y": -1.7426287384,
				"z": 2.7867218147,
				"element": "H" 
			},
			{
				"x": -1.859969008,
				"y": -1.4043341736,
				"z": 4.3147039205,
				"element": "H" 
			},
			{
				"x": -2.7490760244,
				"y": -0.1242708986,
				"z": 3.4801276246,
				"element": "H" 
			}
		],
		 "valence_orbital": [ 
			{
				"type": "occ",
				"energy": -0.3125,
				"method": "rhf"
			},
			{
				"type": "occ",
				"energy": -0.30128,
				"method": "rhf"
			},
			{
				"type": "occ",
				"energy": -0.25938,
				"method": "rhf"
			},
			{
				"type": "occ",
				"energy": -0.22489,
				"method": "rhf"
			},
			{
				"type": "occ",
				"energy": -0.19882,
				"method": "rhf"
			},
			{
				"type": "unocc",
				"energy": -0.02734,
				"method": "rhf"
			},
			{
				"type": "unocc",
				"energy": 0.00048,
				"method": "rhf"
			},
			{
				"type": "unocc",
				"energy": 0.0479,
				"method": "rhf"
			},
			{
				"type": "unocc",
				"energy": 0.09474,
				"method": "rhf"
			},
			{
				"type": "unocc",
				"energy": 0.10027,
				"method": "rhf"
			}
		],
		"cosmo_sigma_profile": { 
			"-0.025": 0.0,
			"-0.024": 0.0,
			"-0.023": 0.0,
			"-0.022": 0.0,
			"-0.021": 0.0,
			"-0.02": 0.0,
			"-0.019": 0.0,
			"-0.018": 0.0,
			"-0.017": 0.0,
			"-0.016": 0.0,
			"-0.015": 0.0,
			"-0.014": 0.0,
			"-0.013": 0.0,
			"-0.012": 0.0,
			"-0.011": 0.0,
			"-0.01": 0.0,
			"-0.009": 0.0,
			"-0.008": 0.0,
			"-0.007": 0.0,
			"-0.006": 0.0,
			"-0.005": 4.0892869509,
			"-0.004": 29.5125995514,
			"-0.003": 33.6439996251,
			"-0.002": 28.2271557086,
			"-0.001": 26.4080913846,
			"0.0": 32.2755403956,
			"0.001": 24.1560167816,
			"0.002": 11.7443853576,
			"0.003": 11.026167376,
			"0.004": 11.0816236749,
			"0.005": 17.6382118385,
			"0.006": 15.9359754746,
			"0.007": 1.42640567046,
			"0.008": 0.0,
			"0.009": 0.0,
			"0.01": 0.0,
			"0.011": 0.0,
			"0.012": 0.0,
			"0.013": 0.0,
			"0.014": 0.0,
			"0.015": 0.0,
			"0.016": 0.0,
			"0.017": 0.0,
			"0.018": 0.0,
			"0.019": 0.0,
			"0.02": 0.0,
			"0.021": 0.0,
			"0.022": 0.0,
			"0.023": 0.0,
			"0.024": 0.0,
			"0.025": 0.0
		}
	}
}
