{
	 "smiles": "CNC(=O)NN", 
	 "Tm": 377.15, 
	 "num_atms": 13, 
	 "gaussian": { 
		 "optdone": 1, 
		 "sigma_profile": "yes", 
		 "theory": "DFT", 
		 "functional": "B3LYP", 
		 "basiset": "6-31G**", 
		 "properties": { 
			 "R2extent": 967.6344, 
			 "electric_dipole_moment_norm": 3.18221724117, 
			 "electric_quadrupole_moment_norm": 9.56970539411, 
			 "total_energy": -319.894824473, 
			 "HOMO_LUMO_gap": 0.29913, 
			 "cosmo_polarized_energy": -13.2, 
			 "cosmo_cavitation_energy": 16.59, 
			 "cosmo_dispersion_energy": -12.55, 
			 "cosmo_repulsion_energy": 1.11, 
			 "cosmo_total_nonelectrostatic_energy": 5.15, 
			 "SMD_solvation_energy": 3.75 
		},
		"coords": [
			{
				"x": -2.7394092295,
				"y": -0.0368776637,
				"z": -1.9820662785,
				"element": "C" 
			},
			{
				"x": -2.0456968088,
				"y": -0.6914445791,
				"z": -0.8847382342,
				"element": "N" 
			},
			{
				"x": -0.6775331079,
				"y": -0.8041563665,
				"z": -0.7708283242,
				"element": "C" 
			},
			{
				"x": -0.1373407363,
				"y": -1.6026583926,
				"z": -0.0114469452,
				"element": "O" 
			},
			{
				"x": 0.0528158617,
				"y": 0.0599237416,
				"z": -1.5828108038,
				"element": "N" 
			},
			{
				"x": 1.4467889918,
				"y": 0.162310724,
				"z": -1.3416989407,
				"element": "N" 
			},
			{
				"x": -2.6621783501,
				"y": 1.0563866675,
				"z": -1.9170910905,
				"element": "H" 
			},
			{
				"x": -3.8005989899,
				"y": -0.2859892994,
				"z": -1.9231666075,
				"element": "H" 
			},
			{
				"x": -2.3620325296,
				"y": -0.3503761197,
				"z": -2.9636008432,
				"element": "H" 
			},
			{
				"x": -2.5281727151,
				"y": -1.4221224111,
				"z": -0.383576836,
				"element": "H" 
			},
			{
				"x": -0.3614434006,
				"y": 0.9605357273,
				"z": -1.7849972496,
				"element": "H" 
			},
			{
				"x": 1.8971611004,
				"y": -0.5475343502,
				"z": -1.9172426646,
				"element": "H" 
			},
			{
				"x": 1.6001399139,
				"y": -0.140697678,
				"z": -0.3778351819,
				"element": "H" 
			}
		],
		 "valence_orbital": [ 
			{
				"type": "occ",
				"energy": -0.38562,
				"method": "rhf"
			},
			{
				"type": "occ",
				"energy": -0.28118,
				"method": "rhf"
			},
			{
				"type": "occ",
				"energy": -0.2613,
				"method": "rhf"
			},
			{
				"type": "occ",
				"energy": -0.24889,
				"method": "rhf"
			},
			{
				"type": "occ",
				"energy": -0.2441,
				"method": "rhf"
			},
			{
				"type": "unocc",
				"energy": 0.05503,
				"method": "rhf"
			},
			{
				"type": "unocc",
				"energy": 0.06982,
				"method": "rhf"
			},
			{
				"type": "unocc",
				"energy": 0.09428,
				"method": "rhf"
			},
			{
				"type": "unocc",
				"energy": 0.10412,
				"method": "rhf"
			},
			{
				"type": "unocc",
				"energy": 0.13607,
				"method": "rhf"
			}
		],
		"cosmo_sigma_profile": { 
			"-0.025": 0.0,
			"-0.024": 0.0,
			"-0.023": 0.0,
			"-0.022": 0.0,
			"-0.021": 0.0,
			"-0.02": 0.0,
			"-0.019": 0.0,
			"-0.018": 0.0,
			"-0.017": 0.0,
			"-0.016": 0.0,
			"-0.015": 0.0,
			"-0.014": 0.189022322267,
			"-0.013": 1.72257998792,
			"-0.012": 2.29151434209,
			"-0.011": 3.37997306168,
			"-0.01": 3.54999727163,
			"-0.009": 3.96118887267,
			"-0.008": 5.33513376453,
			"-0.007": 4.425446107,
			"-0.006": 5.05870489425,
			"-0.005": 5.93624876675,
			"-0.004": 9.87642594367,
			"-0.003": 11.0721081336,
			"-0.002": 10.5788783484,
			"-0.001": 6.19976121031,
			"0.0": 5.27357365392,
			"0.001": 3.93283698256,
			"0.002": 5.08137681407,
			"0.003": 3.96787965661,
			"0.004": 3.9207400111,
			"0.005": 3.86687223162,
			"0.006": 3.49132943712,
			"0.007": 2.58069451832,
			"0.008": 2.33406902727,
			"0.009": 1.98136835912,
			"0.01": 1.80872152956,
			"0.011": 2.27657553877,
			"0.012": 2.04938703003,
			"0.013": 2.39673956005,
			"0.014": 6.16106352075,
			"0.015": 3.4570355233,
			"0.016": 0.579191452603,
			"0.017": 0.469033939226,
			"0.018": 0.0756476141599,
			"0.019": 0.0,
			"0.02": 0.0,
			"0.021": 0.0,
			"0.022": 0.0,
			"0.023": 0.0,
			"0.024": 0.0,
			"0.025": 0.0
		}
	}
}
