{
	 "smiles": "COC1=CC(=CC=C1)C1=NN=C(N)S1", 
	 "Tm": 430.15, 
	 "num_atms": 23, 
	 "gaussian": { 
		 "optdone": 1, 
		 "sigma_profile": "yes", 
		 "theory": "DFT", 
		 "functional": "B3LYP", 
		 "basiset": "6-31G**", 
		 "properties": { 
			 "R2extent": 3914.8174, 
			 "electric_dipole_moment_norm": 4.16207562401, 
			 "electric_quadrupole_moment_norm": 15.4126020486, 
			 "total_energy": -986.011287766, 
			 "HOMO_LUMO_gap": 0.16288, 
			 "cosmo_polarized_energy": -16.56, 
			 "cosmo_cavitation_energy": 29.15, 
			 "cosmo_dispersion_energy": -22.1, 
			 "cosmo_repulsion_energy": 1.69, 
			 "cosmo_total_nonelectrostatic_energy": 8.74, 
			 "SMD_solvation_energy": 3.69 
		},
		"coords": [
			{
				"x": 0.6481547036,
				"y": -0.6205477898,
				"z": 4.4297539241,
				"element": "C" 
			},
			{
				"x": -0.7442374214,
				"y": -0.5555111977,
				"z": 4.1673014469,
				"element": "O" 
			},
			{
				"x": -1.1581060941,
				"y": -0.477951415,
				"z": 2.8690687075,
				"element": "C" 
			},
			{
				"x": -0.2994849752,
				"y": -0.461843157,
				"z": 1.7667075039,
				"element": "C" 
			},
			{
				"x": -0.8266159959,
				"y": -0.3791072974,
				"z": 0.4651473349,
				"element": "C" 
			},
			{
				"x": -2.2151036488,
				"y": -0.3115658938,
				"z": 0.277635249,
				"element": "C" 
			},
			{
				"x": -3.0595505367,
				"y": -0.3274132696,
				"z": 1.387090425,
				"element": "C" 
			},
			{
				"x": -2.5459134629,
				"y": -0.4103873275,
				"z": 2.6772212462,
				"element": "C" 
			},
			{
				"x": 0.051862857,
				"y": -0.3606074852,
				"z": -0.7104758431,
				"element": "C" 
			},
			{
				"x": -0.3666319015,
				"y": -0.2478558619,
				"z": -1.9375572164,
				"element": "N" 
			},
			{
				"x": 0.6147757431,
				"y": -0.2783934568,
				"z": -2.8826670496,
				"element": "N" 
			},
			{
				"x": 1.8088218491,
				"y": -0.402044531,
				"z": -2.3645422698,
				"element": "C" 
			},
			{
				"x": 2.9608960077,
				"y": -0.374844685,
				"z": -3.1123147653,
				"element": "N" 
			},
			{
				"x": 1.8262870574,
				"y": -0.5012747589,
				"z": -0.6084616034,
				"element": "S" 
			},
			{
				"x": 1.1045122481,
				"y": -1.5132061653,
				"z": 3.9823067005,
				"element": "H" 
			},
			{
				"x": 1.1723356284,
				"y": 0.2718896361,
				"z": 4.0637256875,
				"element": "H" 
			},
			{
				"x": 0.7479639472,
				"y": -0.6739493174,
				"z": 5.5149164152,
				"element": "H" 
			},
			{
				"x": 0.7735449952,
				"y": -0.5096252831,
				"z": 1.9095989863,
				"element": "H" 
			},
			{
				"x": -2.6082351344,
				"y": -0.2478889333,
				"z": -0.7298219684,
				"element": "H" 
			},
			{
				"x": -4.1348040942,
				"y": -0.275120221,
				"z": 1.2431359691,
				"element": "H" 
			},
			{
				"x": -3.1914535905,
				"y": -0.4238172972,
				"z": 3.549025129,
				"element": "H" 
			},
			{
				"x": 3.7323864922,
				"y": -0.9393038647,
				"z": -2.7864157582,
				"element": "H" 
			},
			{
				"x": 2.7800953264,
				"y": -0.4609304275,
				"z": -4.1048782507,
				"element": "H" 
			}
		],
		 "valence_orbital": [ 
			{
				"type": "occ",
				"energy": -0.29147,
				"method": "rhf"
			},
			{
				"type": "occ",
				"energy": -0.2648,
				"method": "rhf"
			},
			{
				"type": "occ",
				"energy": -0.25593,
				"method": "rhf"
			},
			{
				"type": "occ",
				"energy": -0.23343,
				"method": "rhf"
			},
			{
				"type": "occ",
				"energy": -0.21067,
				"method": "rhf"
			},
			{
				"type": "unocc",
				"energy": -0.04779,
				"method": "rhf"
			},
			{
				"type": "unocc",
				"energy": -0.00235,
				"method": "rhf"
			},
			{
				"type": "unocc",
				"energy": 0.00724,
				"method": "rhf"
			},
			{
				"type": "unocc",
				"energy": 0.02041,
				"method": "rhf"
			},
			{
				"type": "unocc",
				"energy": 0.06048,
				"method": "rhf"
			}
		],
		"cosmo_sigma_profile": { 
			"-0.025": 0.0,
			"-0.024": 0.0,
			"-0.023": 0.0,
			"-0.022": 0.0,
			"-0.021": 0.0,
			"-0.02": 0.0,
			"-0.019": 0.0,
			"-0.018": 0.0,
			"-0.017": 0.0,
			"-0.016": 0.0345381983925,
			"-0.015": 1.46976910947,
			"-0.014": 2.46582114385,
			"-0.013": 3.10848189331,
			"-0.012": 2.49558908422,
			"-0.011": 2.12335273812,
			"-0.01": 2.20544589874,
			"-0.009": 2.33910843556,
			"-0.008": 2.02634823942,
			"-0.007": 4.3703265758,
			"-0.006": 11.8306891498,
			"-0.005": 15.7695632079,
			"-0.004": 17.3561513439,
			"-0.003": 15.7520115476,
			"-0.002": 12.5603814018,
			"-0.001": 13.1321203791,
			"0.0": 15.5188120907,
			"0.001": 15.0515358001,
			"0.002": 16.7780164503,
			"0.003": 18.9037437132,
			"0.004": 17.1514166155,
			"0.005": 10.0480169711,
			"0.006": 4.64531234265,
			"0.007": 3.8260519501,
			"0.008": 4.04115941089,
			"0.009": 4.70371855643,
			"0.01": 4.27139975935,
			"0.011": 2.88937962542,
			"0.012": 3.34193213069,
			"0.013": 2.48509806303,
			"0.014": 1.77440334346,
			"0.015": 0.868987723884,
			"0.016": 0.0948112793881,
			"0.017": 0.0,
			"0.018": 0.0,
			"0.019": 0.0,
			"0.02": 0.0,
			"0.021": 0.0,
			"0.022": 0.0,
			"0.023": 0.0,
			"0.024": 0.0,
			"0.025": 0.0
		}
	}
}
