{
	 "smiles": "NCCCC(O)(P(O)(O)=O)P(O)(O)=O", 
	 "Tm": 507.15, 
	 "num_atms": 27, 
	 "gaussian": { 
		 "optdone": 1, 
		 "sigma_profile": "yes", 
		 "theory": "DFT", 
		 "functional": "B3LYP", 
		 "basiset": "6-31G**", 
		 "properties": { 
			 "R2extent": 3517.5001, 
			 "electric_dipole_moment_norm": 3.6197666306, 
			 "electric_quadrupole_moment_norm": 20.3226810397, 
			 "total_energy": -1424.41865549, 
			 "HOMO_LUMO_gap": 0.2418, 
			 "cosmo_polarized_energy": -26.89, 
			 "cosmo_cavitation_energy": 31.9, 
			 "cosmo_dispersion_energy": -23.28, 
			 "cosmo_repulsion_energy": 1.8, 
			 "cosmo_total_nonelectrostatic_energy": 10.41, 
			 "SMD_solvation_energy": 7.71 
		},
		"coords": [
			{
				"x": -4.0097965395,
				"y": -0.5974470314,
				"z": -0.6887072963,
				"element": "N" 
			},
			{
				"x": -2.7609237803,
				"y": -0.0927320582,
				"z": -0.1036270195,
				"element": "C" 
			},
			{
				"x": -1.7137331173,
				"y": 0.0735277912,
				"z": -1.2095193042,
				"element": "C" 
			},
			{
				"x": -0.4196443204,
				"y": 0.8053392335,
				"z": -0.8139765438,
				"element": "C" 
			},
			{
				"x": 0.483664154,
				"y": 0.1652391317,
				"z": 0.2622270935,
				"element": "C" 
			},
			{
				"x": -0.1245354806,
				"y": 0.0898988729,
				"z": 1.5457811844,
				"element": "O" 
			},
			{
				"x": 2.1113529792,
				"y": 1.086010264,
				"z": 0.3356835438,
				"element": "P" 
			},
			{
				"x": 2.8234503581,
				"y": 0.5914594448,
				"z": 1.6709482941,
				"element": "O" 
			},
			{
				"x": 1.7442576711,
				"y": 2.6119482579,
				"z": 0.7260556798,
				"element": "O" 
			},
			{
				"x": 2.8245001831,
				"y": 0.9303549655,
				"z": -0.9739922239,
				"element": "O" 
			},
			{
				"x": 1.0841294334,
				"y": -1.5627833642,
				"z": -0.0926516462,
				"element": "P" 
			},
			{
				"x": -0.1766408402,
				"y": -2.5588243712,
				"z": -0.1893706081,
				"element": "O" 
			},
			{
				"x": 1.5501593999,
				"y": -1.5020602035,
				"z": -1.6204467502,
				"element": "O" 
			},
			{
				"x": 2.0930971581,
				"y": -1.9504506044,
				"z": 0.9433323188,
				"element": "O" 
			},
			{
				"x": -3.8613969519,
				"y": -1.5434737484,
				"z": -1.0352731326,
				"element": "H" 
			},
			{
				"x": -4.7228016133,
				"y": -0.6737678919,
				"z": 0.0327814298,
				"element": "H" 
			},
			{
				"x": -2.975649533,
				"y": 0.8892155485,
				"z": 0.340269854,
				"element": "H" 
			},
			{
				"x": -2.3531306408,
				"y": -0.7196743063,
				"z": 0.7026822934,
				"element": "H" 
			},
			{
				"x": -2.1799437994,
				"y": 0.6450948777,
				"z": -2.0204373969,
				"element": "H" 
			},
			{
				"x": -1.4687674409,
				"y": -0.9091935154,
				"z": -1.6284002369,
				"element": "H" 
			},
			{
				"x": -0.6697286386,
				"y": 1.8118470275,
				"z": -0.447656072,
				"element": "H" 
			},
			{
				"x": 0.1845571287,
				"y": 0.9529881312,
				"z": -1.7149892168,
				"element": "H" 
			},
			{
				"x": -0.3592275437,
				"y": 0.9866259173,
				"z": 1.8256970425,
				"element": "H" 
			},
			{
				"x": 2.7737214617,
				"y": -0.3973849355,
				"z": 1.6975409156,
				"element": "H" 
			},
			{
				"x": 1.9901311019,
				"y": 3.2131572998,
				"z": 0.0081596076,
				"element": "H" 
			},
			{
				"x": -0.2073512657,
				"y": -3.1219923142,
				"z": 0.5981810457,
				"element": "H" 
			},
			{
				"x": 2.1817504764,
				"y": -0.7511224188,
				"z": -1.7243928556,
				"element": "H" 
			}
		],
		 "valence_orbital": [ 
			{
				"type": "occ",
				"energy": -0.31297,
				"method": "rhf"
			},
			{
				"type": "occ",
				"energy": -0.31238,
				"method": "rhf"
			},
			{
				"type": "occ",
				"energy": -0.30468,
				"method": "rhf"
			},
			{
				"type": "occ",
				"energy": -0.28115,
				"method": "rhf"
			},
			{
				"type": "occ",
				"energy": -0.23524,
				"method": "rhf"
			},
			{
				"type": "unocc",
				"energy": 0.00656,
				"method": "rhf"
			},
			{
				"type": "unocc",
				"energy": 0.04138,
				"method": "rhf"
			},
			{
				"type": "unocc",
				"energy": 0.04675,
				"method": "rhf"
			},
			{
				"type": "unocc",
				"energy": 0.05804,
				"method": "rhf"
			},
			{
				"type": "unocc",
				"energy": 0.07857,
				"method": "rhf"
			}
		],
		"cosmo_sigma_profile": { 
			"-0.025": 0.0,
			"-0.024": 0.0,
			"-0.023": 0.0,
			"-0.022": 0.0,
			"-0.021": 0.0,
			"-0.02": 0.856042603353,
			"-0.019": 2.66894200769,
			"-0.018": 1.08679790387,
			"-0.017": 1.88844018409,
			"-0.016": 2.39957466366,
			"-0.015": 1.6758309274,
			"-0.014": 2.61261738207,
			"-0.013": 1.91809519753,
			"-0.012": 2.45806793091,
			"-0.011": 2.89195053462,
			"-0.01": 3.29310103557,
			"-0.009": 6.06300696141,
			"-0.008": 7.34744524533,
			"-0.007": 6.83440871151,
			"-0.006": 8.22068786891,
			"-0.005": 10.8515597501,
			"-0.004": 13.3015603859,
			"-0.003": 13.4388780822,
			"-0.002": 14.8232132613,
			"-0.001": 14.7569378096,
			"0.0": 14.5226182332,
			"0.001": 9.70709470877,
			"0.002": 8.87311795857,
			"0.003": 9.34372661947,
			"0.004": 9.39683902721,
			"0.005": 8.035188075,
			"0.006": 8.07298176102,
			"0.007": 9.25281130255,
			"0.008": 8.98561246866,
			"0.009": 8.7819546191,
			"0.01": 8.63200750286,
			"0.011": 4.42066706579,
			"0.012": 3.78100395935,
			"0.013": 5.19959381961,
			"0.014": 2.82383020766,
			"0.015": 0.793267093028,
			"0.016": 0.340930509421,
			"0.017": 0.682889943058,
			"0.018": 0.704886609307,
			"0.019": 0.546114649477,
			"0.02": 0.370790784062,
			"0.021": 0.0131637568731,
			"0.022": 0.0,
			"0.023": 0.0,
			"0.024": 0.0,
			"0.025": 0.0
		}
	}
}
