{
	 "smiles": "BrCC(=O)NCC#C", 
	 "Tm": 347.15, 
	 "num_atms": 14, 
	 "gaussian": { 
		 "optdone": 1, 
		 "sigma_profile": "yes", 
		 "theory": "DFT", 
		 "functional": "B3LYP", 
		 "basiset": "6-31G**", 
		 "properties": { 
			 "R2extent": 3523.4261, 
			 "electric_dipole_moment_norm": 1.70425493985, 
			 "electric_quadrupole_moment_norm": 6.46132198315, 
			 "total_energy": -2895.4635398, 
			 "HOMO_LUMO_gap": 0.24711, 
			 "cosmo_polarized_energy": -10.39, 
			 "cosmo_cavitation_energy": 21.65, 
			 "cosmo_dispersion_energy": -15.64, 
			 "cosmo_repulsion_energy": 1.33, 
			 "cosmo_total_nonelectrostatic_energy": 7.34, 
			 "SMD_solvation_energy": 4.24 
		},
		"coords": [
			{
				"x": 2.8646194695,
				"y": -2.7438993507,
				"z": 1.4694136171,
				"element": "Br" 
			},
			{
				"x": 1.0681619156,
				"y": -2.2150892582,
				"z": 2.112456266,
				"element": "C" 
			},
			{
				"x": 0.0439963404,
				"y": -1.7823799386,
				"z": 1.0641790285,
				"element": "C" 
			},
			{
				"x": -1.0661275745,
				"y": -1.4642104396,
				"z": 1.4748444447,
				"element": "O" 
			},
			{
				"x": 0.4144526494,
				"y": -1.7801425002,
				"z": -0.2375622582,
				"element": "N" 
			},
			{
				"x": -0.4986489188,
				"y": -1.33400855,
				"z": -1.2849563548,
				"element": "C" 
			},
			{
				"x": 0.1123933795,
				"y": -0.3424676591,
				"z": -2.1718281966,
				"element": "C" 
			},
			{
				"x": 0.6236053123,
				"y": 0.4554230521,
				"z": -2.9194069091,
				"element": "C" 
			},
			{
				"x": 0.6738222843,
				"y": -3.0732641078,
				"z": 2.6543766383,
				"element": "H" 
			},
			{
				"x": 1.2235548053,
				"y": -1.391636859,
				"z": 2.8079427363,
				"element": "H" 
			},
			{
				"x": 1.3630673044,
				"y": -2.0314545676,
				"z": -0.4800708535,
				"element": "H" 
			},
			{
				"x": -1.3732427634,
				"y": -0.9196647761,
				"z": -0.7725747911,
				"element": "H" 
			},
			{
				"x": -0.8470548873,
				"y": -2.1922843055,
				"z": -1.8757515555,
				"element": "H" 
			},
			{
				"x": 1.0695006833,
				"y": 1.1715792602,
				"z": -3.5703618121,
				"element": "H" 
			}
		],
		 "valence_orbital": [ 
			{
				"type": "occ",
				"energy": -0.29399,
				"method": "rhf"
			},
			{
				"type": "occ",
				"energy": -0.28818,
				"method": "rhf"
			},
			{
				"type": "occ",
				"energy": -0.27942,
				"method": "rhf"
			},
			{
				"type": "occ",
				"energy": -0.26818,
				"method": "rhf"
			},
			{
				"type": "occ",
				"energy": -0.26066,
				"method": "rhf"
			},
			{
				"type": "unocc",
				"energy": -0.01355,
				"method": "rhf"
			},
			{
				"type": "unocc",
				"energy": 0.00984,
				"method": "rhf"
			},
			{
				"type": "unocc",
				"energy": 0.03508,
				"method": "rhf"
			},
			{
				"type": "unocc",
				"energy": 0.04585,
				"method": "rhf"
			},
			{
				"type": "unocc",
				"energy": 0.10482,
				"method": "rhf"
			}
		],
		"cosmo_sigma_profile": { 
			"-0.025": 0.0,
			"-0.024": 0.0,
			"-0.023": 0.0,
			"-0.022": 0.0,
			"-0.021": 0.0,
			"-0.02": 0.0,
			"-0.019": 0.0,
			"-0.018": 0.0,
			"-0.017": 0.0,
			"-0.016": 0.0,
			"-0.015": 0.0,
			"-0.014": 0.0,
			"-0.013": 0.0191531804386,
			"-0.012": 1.23166909218,
			"-0.011": 2.40203036032,
			"-0.01": 2.08448849155,
			"-0.009": 4.70106745108,
			"-0.008": 7.26390959659,
			"-0.007": 7.86308086005,
			"-0.006": 10.244261787,
			"-0.005": 11.2832978455,
			"-0.004": 8.83424917782,
			"-0.003": 8.46247271246,
			"-0.002": 9.31402608877,
			"-0.001": 10.2759712197,
			"0.0": 11.2241279667,
			"0.001": 10.129661632,
			"0.002": 8.41102218222,
			"0.003": 9.10546589586,
			"0.004": 12.0872270488,
			"0.005": 14.5238677774,
			"0.006": 9.80490346352,
			"0.007": 3.27124024323,
			"0.008": 0.974920161371,
			"0.009": 1.48624494983,
			"0.01": 1.50165020478,
			"0.011": 1.74376997951,
			"0.012": 2.9919856822,
			"0.013": 5.00587626052,
			"0.014": 0.652844331613,
			"0.015": 0.0,
			"0.016": 0.0,
			"0.017": 0.0,
			"0.018": 0.0,
			"0.019": 0.0,
			"0.02": 0.0,
			"0.021": 0.0,
			"0.022": 0.0,
			"0.023": 0.0,
			"0.024": 0.0,
			"0.025": 0.0
		}
	}
}
