{
	 "smiles": "ClC1=NC=NC(=C1)N1CCCC1", 
	 "Tm": 367.15, 
	 "num_atms": 22, 
	 "gaussian": { 
		 "optdone": 1, 
		 "sigma_profile": "yes", 
		 "theory": "DFT", 
		 "functional": "B3LYP", 
		 "basiset": "6-31G**", 
		 "properties": { 
			 "R2extent": 3291.4246, 
			 "electric_dipole_moment_norm": 5.50701634826, 
			 "electric_quadrupole_moment_norm": 8.36262828003, 
			 "total_energy": -935.334705331, 
			 "HOMO_LUMO_gap": 0.19877, 
			 "cosmo_polarized_energy": -9.32, 
			 "cosmo_cavitation_energy": 26.49, 
			 "cosmo_dispersion_energy": -20.18, 
			 "cosmo_repulsion_energy": 1.62, 
			 "cosmo_total_nonelectrostatic_energy": 7.93, 
			 "SMD_solvation_energy": 0.66 
		},
		"coords": [
			{
				"x": 1.7355324567,
				"y": 3.2631468359,
				"z": -2.477861705,
				"element": "Cl" 
			},
			{
				"x": 1.0919992,
				"y": 1.7104937014,
				"z": -1.9474508065,
				"element": "C" 
			},
			{
				"x": 0.4624900344,
				"y": 0.9861943214,
				"z": -2.8653355383,
				"element": "N" 
			},
			{
				"x": -0.0125112792,
				"y": -0.1813198579,
				"z": -2.4113253039,
				"element": "C" 
			},
			{
				"x": 0.0806840437,
				"y": -0.6813902285,
				"z": -1.1848391569,
				"element": "N" 
			},
			{
				"x": 0.7317252761,
				"y": 0.0774867094,
				"z": -0.2695511049,
				"element": "C" 
			},
			{
				"x": 1.2717022195,
				"y": 1.3385887554,
				"z": -0.6277259712,
				"element": "C" 
			},
			{
				"x": 0.8344194935,
				"y": -0.4239003554,
				"z": 0.98464632,
				"element": "N" 
			},
			{
				"x": 0.2280230624,
				"y": -1.7022156913,
				"z": 1.3854673026,
				"element": "C" 
			},
			{
				"x": 0.3003087409,
				"y": -1.6549755391,
				"z": 2.9179659777,
				"element": "C" 
			},
			{
				"x": 1.5650323657,
				"y": -0.8231260666,
				"z": 3.1903579084,
				"element": "C" 
			},
			{
				"x": 1.5353134872,
				"y": 0.2437629251,
				"z": 2.0838754511,
				"element": "C" 
			},
			{
				"x": -0.5378731531,
				"y": -0.7949684686,
				"z": -3.1412967689,
				"element": "H" 
			},
			{
				"x": 1.7849897541,
				"y": 1.9793113635,
				"z": 0.075369864,
				"element": "H" 
			},
			{
				"x": 0.8013280597,
				"y": -2.5439656213,
				"z": 0.9745056377,
				"element": "H" 
			},
			{
				"x": -0.7886553403,
				"y": -1.7811542562,
				"z": 0.9943674145,
				"element": "H" 
			},
			{
				"x": -0.58168885,
				"y": -1.1425962968,
				"z": 3.3186691745,
				"element": "H" 
			},
			{
				"x": 0.338535029,
				"y": -2.6523904854,
				"z": 3.3632909225,
				"element": "H" 
			},
			{
				"x": 2.4580650044,
				"y": -1.4479558315,
				"z": 3.0787685537,
				"element": "H" 
			},
			{
				"x": 1.5887908806,
				"y": -0.3818410502,
				"z": 4.1899392404,
				"element": "H" 
			},
			{
				"x": 2.5410373853,
				"y": 0.5562034756,
				"z": 1.7793859107,
				"element": "H" 
			},
			{
				"x": 0.9901521294,
				"y": 1.1437116611,
				"z": 2.4052766779,
				"element": "H" 
			}
		],
		 "valence_orbital": [ 
			{
				"type": "occ",
				"energy": -0.3103,
				"method": "rhf"
			},
			{
				"type": "occ",
				"energy": -0.29801,
				"method": "rhf"
			},
			{
				"type": "occ",
				"energy": -0.27321,
				"method": "rhf"
			},
			{
				"type": "occ",
				"energy": -0.25761,
				"method": "rhf"
			},
			{
				"type": "occ",
				"energy": -0.22435,
				"method": "rhf"
			},
			{
				"type": "unocc",
				"energy": -0.02558,
				"method": "rhf"
			},
			{
				"type": "unocc",
				"energy": -0.01092,
				"method": "rhf"
			},
			{
				"type": "unocc",
				"energy": 0.03751,
				"method": "rhf"
			},
			{
				"type": "unocc",
				"energy": 0.07057,
				"method": "rhf"
			},
			{
				"type": "unocc",
				"energy": 0.10139,
				"method": "rhf"
			}
		],
		"cosmo_sigma_profile": { 
			"-0.025": 0.0,
			"-0.024": 0.0,
			"-0.023": 0.0,
			"-0.022": 0.0,
			"-0.021": 0.0,
			"-0.02": 0.0,
			"-0.019": 0.0,
			"-0.018": 0.0,
			"-0.017": 0.0,
			"-0.016": 0.0,
			"-0.015": 0.0,
			"-0.014": 0.0,
			"-0.013": 0.0,
			"-0.012": 0.0,
			"-0.011": 0.0,
			"-0.01": 0.0,
			"-0.009": 0.00411589469596,
			"-0.008": 1.22279206983,
			"-0.007": 4.288303865,
			"-0.006": 4.81895185946,
			"-0.005": 8.41564539073,
			"-0.004": 21.7891026716,
			"-0.003": 28.467466355,
			"-0.002": 23.5501429457,
			"-0.001": 20.1617810719,
			"0.0": 24.0971526683,
			"0.001": 15.4843589248,
			"0.002": 10.0388781521,
			"0.003": 8.77099886538,
			"0.004": 12.083976759,
			"0.005": 7.15560953985,
			"0.006": 3.78771423151,
			"0.007": 3.9447141012,
			"0.008": 2.62345058702,
			"0.009": 2.00897527524,
			"0.01": 1.96528224637,
			"0.011": 2.34917373871,
			"0.012": 1.78345305418,
			"0.013": 1.49082269625,
			"0.014": 1.20153887156,
			"0.015": 0.738223435879,
			"0.016": 0.0484369736865,
			"0.017": 0.0,
			"0.018": 0.0,
			"0.019": 0.0,
			"0.02": 0.0,
			"0.021": 0.0,
			"0.022": 0.0,
			"0.023": 0.0,
			"0.024": 0.0,
			"0.025": 0.0
		}
	}
}
