{
	 "smiles": "CNC(=O)C1=CNC2=C1C=CC=C2", 
	 "Tm": 477.15, 
	 "num_atms": 23, 
	 "gaussian": { 
		 "optdone": 1, 
		 "sigma_profile": "yes", 
		 "theory": "DFT", 
		 "functional": "B3LYP", 
		 "basiset": "6-31G**", 
		 "properties": { 
			 "R2extent": 3211.448, 
			 "electric_dipole_moment_norm": 3.50246146303, 
			 "electric_quadrupole_moment_norm": 25.9254568158, 
			 "total_energy": -571.83284282, 
			 "HOMO_LUMO_gap": 0.18878, 
			 "cosmo_polarized_energy": -15.92, 
			 "cosmo_cavitation_energy": 26.51, 
			 "cosmo_dispersion_energy": -19.55, 
			 "cosmo_repulsion_energy": 1.55, 
			 "cosmo_total_nonelectrostatic_energy": 8.5, 
			 "SMD_solvation_energy": 4.75 
		},
		"coords": [
			{
				"x": -0.1624825972,
				"y": -2.3105939266,
				"z": 2.3077984849,
				"element": "C" 
			},
			{
				"x": -0.1821477927,
				"y": -3.3763547708,
				"z": 1.3101689965,
				"element": "N" 
			},
			{
				"x": -1.0373481729,
				"y": -3.4322099813,
				"z": 0.2215025442,
				"element": "C" 
			},
			{
				"x": -1.4884380741,
				"y": -4.5100395347,
				"z": -0.1616645403,
				"element": "O" 
			},
			{
				"x": -1.3504367717,
				"y": -2.1691591328,
				"z": -0.488732423,
				"element": "C" 
			},
			{
				"x": -2.5521795853,
				"y": -1.9901761195,
				"z": -1.1374020631,
				"element": "C" 
			},
			{
				"x": -2.5697620766,
				"y": -0.7699248338,
				"z": -1.7626156199,
				"element": "N" 
			},
			{
				"x": -1.3568605816,
				"y": -0.132295928,
				"z": -1.5644402038,
				"element": "C" 
			},
			{
				"x": -0.5540390205,
				"y": -0.99097416,
				"z": -0.7636072357,
				"element": "C" 
			},
			{
				"x": 0.7619620248,
				"y": -0.5921007954,
				"z": -0.4658944615,
				"element": "C" 
			},
			{
				"x": 1.2196733979,
				"y": 0.6335508791,
				"z": -0.9340868647,
				"element": "C" 
			},
			{
				"x": 0.3947726642,
				"y": 1.4770548044,
				"z": -1.7049746168,
				"element": "C" 
			},
			{
				"x": -0.9028148616,
				"y": 1.1031535725,
				"z": -2.0351818199,
				"element": "C" 
			},
			{
				"x": -0.9152475665,
				"y": -2.4659543413,
				"z": 3.0932261793,
				"element": "H" 
			},
			{
				"x": -0.3591682011,
				"y": -1.3499879553,
				"z": 1.834562591,
				"element": "H" 
			},
			{
				"x": 0.8229130512,
				"y": -2.2600661062,
				"z": 2.7814790047,
				"element": "H" 
			},
			{
				"x": -0.0567717518,
				"y": -4.309652914,
				"z": 1.6866755813,
				"element": "H" 
			},
			{
				"x": -3.3942572393,
				"y": -2.6647284252,
				"z": -1.1852777193,
				"element": "H" 
			},
			{
				"x": -3.3404614716,
				"y": -0.4030967136,
				"z": -2.2974255684,
				"element": "H" 
			},
			{
				"x": 1.4136771151,
				"y": -1.2430170282,
				"z": 0.1078804096,
				"element": "H" 
			},
			{
				"x": 2.2347180355,
				"y": 0.9468955015,
				"z": -0.7082008464,
				"element": "H" 
			},
			{
				"x": 0.7814644931,
				"y": 2.4295246587,
				"z": -2.0548757465,
				"element": "H" 
			},
			{
				"x": -1.5361650173,
				"y": 1.7432532503,
				"z": -2.643014062,
				"element": "H" 
			}
		],
		 "valence_orbital": [ 
			{
				"type": "occ",
				"energy": -0.27841,
				"method": "rhf"
			},
			{
				"type": "occ",
				"energy": -0.2512,
				"method": "rhf"
			},
			{
				"type": "occ",
				"energy": -0.23335,
				"method": "rhf"
			},
			{
				"type": "occ",
				"energy": -0.22791,
				"method": "rhf"
			},
			{
				"type": "occ",
				"energy": -0.20828,
				"method": "rhf"
			},
			{
				"type": "unocc",
				"energy": -0.0195,
				"method": "rhf"
			},
			{
				"type": "unocc",
				"energy": 0.00969,
				"method": "rhf"
			},
			{
				"type": "unocc",
				"energy": 0.02257,
				"method": "rhf"
			},
			{
				"type": "unocc",
				"energy": 0.07365,
				"method": "rhf"
			},
			{
				"type": "unocc",
				"energy": 0.09225,
				"method": "rhf"
			}
		],
		"cosmo_sigma_profile": { 
			"-0.025": 0.0,
			"-0.024": 0.0,
			"-0.023": 0.0,
			"-0.022": 0.0,
			"-0.021": 0.0,
			"-0.02": 0.0,
			"-0.019": 0.0,
			"-0.018": 0.0,
			"-0.017": 0.0777913978313,
			"-0.016": 1.49133186415,
			"-0.015": 1.52072943625,
			"-0.014": 1.53525736587,
			"-0.013": 1.32456000201,
			"-0.012": 2.32595412785,
			"-0.011": 2.42719839788,
			"-0.01": 2.04932283362,
			"-0.009": 3.34007257443,
			"-0.008": 3.83138063157,
			"-0.007": 4.16132593432,
			"-0.006": 6.18081550415,
			"-0.005": 10.8028705389,
			"-0.004": 15.6792233469,
			"-0.003": 17.6373788036,
			"-0.002": 17.9572186,
			"-0.001": 14.07081148,
			"0.0": 10.1715234512,
			"0.001": 11.2164374403,
			"0.002": 11.3004539874,
			"0.003": 15.0570280365,
			"0.004": 12.4225607934,
			"0.005": 12.0591497171,
			"0.006": 10.0412367605,
			"0.007": 3.79947875352,
			"0.008": 1.84669904535,
			"0.009": 1.64759063082,
			"0.01": 0.789002738959,
			"0.011": 1.76415144582,
			"0.012": 1.75523428537,
			"0.013": 2.83453241672,
			"0.014": 5.58055237419,
			"0.015": 2.54883789687,
			"0.016": 0.028834860681,
			"0.017": 0.0,
			"0.018": 0.0,
			"0.019": 0.0,
			"0.02": 0.0,
			"0.021": 0.0,
			"0.022": 0.0,
			"0.023": 0.0,
			"0.024": 0.0,
			"0.025": 0.0
		}
	}
}
