{
	 "smiles": "CC1=NNC(=O)C(C(O)=O)=C1C", 
	 "Tm": 453.15, 
	 "num_atms": 20, 
	 "gaussian": { 
		 "optdone": 1, 
		 "sigma_profile": "yes", 
		 "theory": "DFT", 
		 "functional": "B3LYP", 
		 "basiset": "6-31G**", 
		 "properties": { 
			 "R2extent": 2014.2837, 
			 "electric_dipole_moment_norm": 5.6345100062, 
			 "electric_quadrupole_moment_norm": 8.26661495898, 
			 "total_energy": -606.751294119, 
			 "HOMO_LUMO_gap": 0.16831, 
			 "cosmo_polarized_energy": -15.23, 
			 "cosmo_cavitation_energy": 23.64, 
			 "cosmo_dispersion_energy": -18.09, 
			 "cosmo_repulsion_energy": 1.42, 
			 "cosmo_total_nonelectrostatic_energy": 6.97, 
			 "SMD_solvation_energy": 5.21 
		},
		"coords": [
			{
				"x": -1.3531197124,
				"y": 3.1628606917,
				"z": 1.119974242,
				"element": "C" 
			},
			{
				"x": -1.1234634531,
				"y": 1.7230699235,
				"z": 0.7349464317,
				"element": "C" 
			},
			{
				"x": -2.0768086742,
				"y": 0.8992604767,
				"z": 1.0959340494,
				"element": "N" 
			},
			{
				"x": -1.9266016664,
				"y": -0.3907117181,
				"z": 0.7809471168,
				"element": "N" 
			},
			{
				"x": -0.8778432667,
				"y": -0.980384344,
				"z": 0.1120013181,
				"element": "C" 
			},
			{
				"x": -0.9051117719,
				"y": -2.2087937325,
				"z": -0.0963444798,
				"element": "O" 
			},
			{
				"x": 0.1793551929,
				"y": -0.061009954,
				"z": -0.2873574027,
				"element": "C" 
			},
			{
				"x": 1.3734275191,
				"y": -0.6274740372,
				"z": -1.0302077948,
				"element": "C" 
			},
			{
				"x": 1.3498685121,
				"y": -1.9390733469,
				"z": -1.2554147132,
				"element": "O" 
			},
			{
				"x": 2.2976501772,
				"y": 0.0714228554,
				"z": -1.3990531472,
				"element": "O" 
			},
			{
				"x": 0.0616815873,
				"y": 1.2823642931,
				"z": 0.0198551174,
				"element": "C" 
			},
			{
				"x": 1.1074476108,
				"y": 2.2995966803,
				"z": -0.3551528579,
				"element": "C" 
			},
			{
				"x": -2.3066928172,
				"y": 3.2384533834,
				"z": 1.6439933056,
				"element": "H" 
			},
			{
				"x": -0.5626484779,
				"y": 3.5366169901,
				"z": 1.7793573554,
				"element": "H" 
			},
			{
				"x": -1.3853473362,
				"y": 3.8165050675,
				"z": 0.241886553,
				"element": "H" 
			},
			{
				"x": -2.680048602,
				"y": -1.0032466276,
				"z": 1.0733757429,
				"element": "H" 
			},
			{
				"x": 0.509641489,
				"y": -2.3230314927,
				"z": -0.8748706262,
				"element": "H" 
			},
			{
				"x": 0.8339762617,
				"y": 3.3001002404,
				"z": -0.0237042629,
				"element": "H" 
			},
			{
				"x": 1.2654908222,
				"y": 2.3049017494,
				"z": -1.4362310119,
				"element": "H" 
			},
			{
				"x": 2.0761466057,
				"y": 2.0271729014,
				"z": 0.0703650645,
				"element": "H" 
			}
		],
		 "valence_orbital": [ 
			{
				"type": "occ",
				"energy": -0.31683,
				"method": "rhf"
			},
			{
				"type": "occ",
				"energy": -0.30056,
				"method": "rhf"
			},
			{
				"type": "occ",
				"energy": -0.28465,
				"method": "rhf"
			},
			{
				"type": "occ",
				"energy": -0.26615,
				"method": "rhf"
			},
			{
				"type": "occ",
				"energy": -0.26291,
				"method": "rhf"
			},
			{
				"type": "unocc",
				"energy": -0.0946,
				"method": "rhf"
			},
			{
				"type": "unocc",
				"energy": -0.02625,
				"method": "rhf"
			},
			{
				"type": "unocc",
				"energy": 0.03009,
				"method": "rhf"
			},
			{
				"type": "unocc",
				"energy": 0.07262,
				"method": "rhf"
			},
			{
				"type": "unocc",
				"energy": 0.08788,
				"method": "rhf"
			}
		],
		"cosmo_sigma_profile": { 
			"-0.025": 0.0,
			"-0.024": 0.0,
			"-0.023": 0.0,
			"-0.022": 0.0,
			"-0.021": 0.0,
			"-0.02": 0.0,
			"-0.019": 0.0,
			"-0.018": 0.0,
			"-0.017": 1.14134420006,
			"-0.016": 0.82278125014,
			"-0.015": 1.03685665147,
			"-0.014": 0.979489795936,
			"-0.013": 1.20302667994,
			"-0.012": 0.74871896752,
			"-0.011": 0.746871655815,
			"-0.01": 0.487656064558,
			"-0.009": 1.00563156112,
			"-0.008": 0.973967032415,
			"-0.007": 0.607406064886,
			"-0.006": 7.80151967407,
			"-0.005": 18.9000487742,
			"-0.004": 21.7484785132,
			"-0.003": 23.062584522,
			"-0.002": 19.2769059375,
			"-0.001": 14.6004477446,
			"0.0": 7.27408901544,
			"0.001": 6.21593107294,
			"0.002": 5.28426863718,
			"0.003": 4.66069635763,
			"0.004": 3.74979707276,
			"0.005": 4.86961780201,
			"0.006": 3.82643485226,
			"0.007": 4.74667825632,
			"0.008": 4.23978276236,
			"0.009": 5.39326491737,
			"0.01": 5.65512980879,
			"0.011": 7.2175374577,
			"0.012": 6.30461518426,
			"0.013": 3.04946889561,
			"0.014": 0.65794325083,
			"0.015": 0.0,
			"0.016": 0.0,
			"0.017": 0.0,
			"0.018": 0.0,
			"0.019": 0.0,
			"0.02": 0.0,
			"0.021": 0.0,
			"0.022": 0.0,
			"0.023": 0.0,
			"0.024": 0.0,
			"0.025": 0.0
		}
	}
}
