{
	 "smiles": "CCCCN(C(C)=O)C1=CC=CC=C1", 
	 "Tm": 297.65, 
	 "num_atms": 31, 
	 "gaussian": { 
		 "optdone": 1, 
		 "sigma_profile": "yes", 
		 "theory": "DFT", 
		 "functional": "B3LYP", 
		 "basiset": "6-31G**", 
		 "properties": { 
			 "R2extent": 3621.7796, 
			 "electric_dipole_moment_norm": 3.66210407416, 
			 "electric_quadrupole_moment_norm": 8.67373173323, 
			 "total_energy": -597.523735592, 
			 "HOMO_LUMO_gap": 0.21435, 
			 "cosmo_polarized_energy": -9.62, 
			 "cosmo_cavitation_energy": 33.43, 
			 "cosmo_dispersion_energy": -22.73, 
			 "cosmo_repulsion_energy": 1.84, 
			 "cosmo_total_nonelectrostatic_energy": 12.54, 
			 "SMD_solvation_energy": 6.25 
		},
		"coords": [
			{
				"x": -3.9231920449,
				"y": 0.8249089432,
				"z": -0.5112823602,
				"element": "C" 
			},
			{
				"x": -2.9638138041,
				"y": 1.9589626699,
				"z": -0.1277403888,
				"element": "C" 
			},
			{
				"x": -1.685369037,
				"y": 1.5000353694,
				"z": 0.5924052904,
				"element": "C" 
			},
			{
				"x": -0.7437280002,
				"y": 0.6732249998,
				"z": -0.2938571438,
				"element": "C" 
			},
			{
				"x": 0.4929505185,
				"y": 0.271209315,
				"z": 0.3990045392,
				"element": "N" 
			},
			{
				"x": 1.5604434961,
				"y": 1.1509362989,
				"z": 0.3784714196,
				"element": "C" 
			},
			{
				"x": 2.847328994,
				"y": 0.7042252831,
				"z": 1.0564205493,
				"element": "C" 
			},
			{
				"x": 1.4760948038,
				"y": 2.2380511036,
				"z": -0.1827056448,
				"element": "O" 
			},
			{
				"x": 0.4864775355,
				"y": -0.9524676446,
				"z": 1.1420926481,
				"element": "C" 
			},
			{
				"x": 0.5133896402,
				"y": -2.1792313619,
				"z": 0.4651334629,
				"element": "C" 
			},
			{
				"x": 0.4798711379,
				"y": -3.3767324081,
				"z": 1.1792467826,
				"element": "C" 
			},
			{
				"x": 0.42688767,
				"y": -3.3608959317,
				"z": 2.5751453527,
				"element": "C" 
			},
			{
				"x": 0.3995012161,
				"y": -2.1413436691,
				"z": 3.2535046397,
				"element": "C" 
			},
			{
				"x": 0.4203186775,
				"y": -0.9411336206,
				"z": 2.5410268102,
				"element": "C" 
			},
			{
				"x": -4.8378455633,
				"y": 1.220595158,
				"z": -0.9648788187,
				"element": "H" 
			},
			{
				"x": -3.4767309417,
				"y": 0.1328416446,
				"z": -1.2331806389,
				"element": "H" 
			},
			{
				"x": -4.2153589918,
				"y": 0.2406318165,
				"z": 0.3691599301,
				"element": "H" 
			},
			{
				"x": -3.492107516,
				"y": 2.6661660351,
				"z": 0.5236170762,
				"element": "H" 
			},
			{
				"x": -2.6871366612,
				"y": 2.5269357002,
				"z": -1.0262517923,
				"element": "H" 
			},
			{
				"x": -1.9537096143,
				"y": 0.9152372975,
				"z": 1.4829004426,
				"element": "H" 
			},
			{
				"x": -1.1281895956,
				"y": 2.3777855941,
				"z": 0.9372927052,
				"element": "H" 
			},
			{
				"x": -0.4476782401,
				"y": 1.2636676392,
				"z": -1.1645151638,
				"element": "H" 
			},
			{
				"x": -1.2341297087,
				"y": -0.239994879,
				"z": -0.642848356,
				"element": "H" 
			},
			{
				"x": 2.7741958407,
				"y": 0.8142968399,
				"z": 2.1430591841,
				"element": "H" 
			},
			{
				"x": 3.0890158544,
				"y": -0.3412049936,
				"z": 0.8486825992,
				"element": "H" 
			},
			{
				"x": 3.646581041,
				"y": 1.3522869189,
				"z": 0.6963125561,
				"element": "H" 
			},
			{
				"x": 0.5683098726,
				"y": -2.1831585928,
				"z": -0.6195579519,
				"element": "H" 
			},
			{
				"x": 0.5035132178,
				"y": -4.3224984175,
				"z": 0.6456315466,
				"element": "H" 
			},
			{
				"x": 0.4054282904,
				"y": -4.2940718684,
				"z": 3.1301714275,
				"element": "H" 
			},
			{
				"x": 0.3518558409,
				"y": -2.1218669169,
				"z": 4.3384623769,
				"element": "H" 
			},
			{
				"x": 0.3807260713,
				"y": 0.0110016774,
				"z": 3.0613769199,
				"element": "H" 
			}
		],
		 "valence_orbital": [ 
			{
				"type": "occ",
				"energy": -0.32279,
				"method": "rhf"
			},
			{
				"type": "occ",
				"energy": -0.27091,
				"method": "rhf"
			},
			{
				"type": "occ",
				"energy": -0.26226,
				"method": "rhf"
			},
			{
				"type": "occ",
				"energy": -0.23729,
				"method": "rhf"
			},
			{
				"type": "occ",
				"energy": -0.23155,
				"method": "rhf"
			},
			{
				"type": "unocc",
				"energy": -0.0172,
				"method": "rhf"
			},
			{
				"type": "unocc",
				"energy": -0.01411,
				"method": "rhf"
			},
			{
				"type": "unocc",
				"energy": 0.03565,
				"method": "rhf"
			},
			{
				"type": "unocc",
				"energy": 0.08127,
				"method": "rhf"
			},
			{
				"type": "unocc",
				"energy": 0.09443,
				"method": "rhf"
			}
		],
		"cosmo_sigma_profile": { 
			"-0.025": 0.0,
			"-0.024": 0.0,
			"-0.023": 0.0,
			"-0.022": 0.0,
			"-0.021": 0.0,
			"-0.02": 0.0,
			"-0.019": 0.0,
			"-0.018": 0.0,
			"-0.017": 0.0,
			"-0.016": 0.0,
			"-0.015": 0.0,
			"-0.014": 0.0,
			"-0.013": 0.0,
			"-0.012": 0.0,
			"-0.011": 0.0,
			"-0.01": 0.0,
			"-0.009": 0.0,
			"-0.008": 0.0,
			"-0.007": 0.60023626066,
			"-0.006": 9.98472644861,
			"-0.005": 14.2706951596,
			"-0.004": 20.08585501,
			"-0.003": 23.7404999393,
			"-0.002": 31.2670874698,
			"-0.001": 41.2651324646,
			"0.0": 33.9261256572,
			"0.001": 25.1112410182,
			"0.002": 13.9396077546,
			"0.003": 9.2421651265,
			"0.004": 9.05086407597,
			"0.005": 9.07950036807,
			"0.006": 2.63544537988,
			"0.007": 1.47689692556,
			"0.008": 1.32652002049,
			"0.009": 1.66069761796,
			"0.01": 1.61927369928,
			"0.011": 1.2742090695,
			"0.012": 1.35163739371,
			"0.013": 2.44824442955,
			"0.014": 5.07159654711,
			"0.015": 1.69535071649,
			"0.016": 0.138196933435,
			"0.017": 0.0,
			"0.018": 0.0,
			"0.019": 0.0,
			"0.02": 0.0,
			"0.021": 0.0,
			"0.022": 0.0,
			"0.023": 0.0,
			"0.024": 0.0,
			"0.025": 0.0
		}
	}
}
