{
	 "smiles": "OC(=O)CCCNC(=O)C1=CC2=C(NN=N2)C=C1", 
	 "Tm": 504.15, 
	 "num_atms": 30, 
	 "gaussian": { 
		 "optdone": 1, 
		 "sigma_profile": "yes", 
		 "theory": "DFT", 
		 "functional": "B3LYP", 
		 "basiset": "6-31G**", 
		 "properties": { 
			 "R2extent": 6134.5215, 
			 "electric_dipole_moment_norm": 3.53790991123, 
			 "electric_quadrupole_moment_norm": 30.9505164614, 
			 "total_energy": -871.076923558, 
			 "HOMO_LUMO_gap": 0.18977, 
			 "cosmo_polarized_energy": -26.63, 
			 "cosmo_cavitation_energy": 35.28, 
			 "cosmo_dispersion_energy": -24.18, 
			 "cosmo_repulsion_energy": 1.91, 
			 "cosmo_total_nonelectrostatic_energy": 13.0, 
			 "SMD_solvation_energy": 5.35 
		},
		"coords": [
			{
				"x": 1.2068394613,
				"y": -0.9482068129,
				"z": -2.2248953811,
				"element": "O" 
			},
			{
				"x": 0.8093419212,
				"y": 0.3212883847,
				"z": -1.9756868472,
				"element": "C" 
			},
			{
				"x": 1.5060677471,
				"y": 1.1176174026,
				"z": -1.3830270808,
				"element": "O" 
			},
			{
				"x": -0.5720814884,
				"y": 0.5902932239,
				"z": -2.5348883319,
				"element": "C" 
			},
			{
				"x": -1.081214474,
				"y": 2.0019723756,
				"z": -2.2308128641,
				"element": "C" 
			},
			{
				"x": -1.4332608621,
				"y": 2.2432653649,
				"z": -0.7541938117,
				"element": "C" 
			},
			{
				"x": -2.5479930349,
				"y": 1.4062365888,
				"z": -0.3125124204,
				"element": "N" 
			},
			{
				"x": -2.5872025723,
				"y": 0.4350966325,
				"z": 0.6605472942,
				"element": "C" 
			},
			{
				"x": -3.42859171,
				"y": -0.4599972699,
				"z": 0.6179062374,
				"element": "O" 
			},
			{
				"x": -1.615479552,
				"y": 0.5118440976,
				"z": 1.8047201417,
				"element": "C" 
			},
			{
				"x": -1.2049483533,
				"y": 1.7163420057,
				"z": 2.3669433284,
				"element": "C" 
			},
			{
				"x": -0.3737013594,
				"y": 1.6600991815,
				"z": 3.4950178083,
				"element": "C" 
			},
			{
				"x": 0.0309475136,
				"y": 0.4211665775,
				"z": 4.0324245311,
				"element": "C" 
			},
			{
				"x": 0.8111969455,
				"y": 0.7865115339,
				"z": 5.0883751061,
				"element": "N" 
			},
			{
				"x": 0.8804774166,
				"y": 2.1482663965,
				"z": 5.1981840766,
				"element": "N" 
			},
			{
				"x": 0.176656389,
				"y": 2.6750099816,
				"z": 4.254386348,
				"element": "N" 
			},
			{
				"x": -0.3876157715,
				"y": -0.8015819489,
				"z": 3.4831323688,
				"element": "C" 
			},
			{
				"x": -1.2197141637,
				"y": -0.7274666465,
				"z": 2.3807956526,
				"element": "C" 
			},
			{
				"x": 2.0967841617,
				"y": -1.0340136544,
				"z": -1.8432494156,
				"element": "H" 
			},
			{
				"x": -0.5229433128,
				"y": 0.4168242738,
				"z": -3.6166464596,
				"element": "H" 
			},
			{
				"x": -1.252243452,
				"y": -0.1763240545,
				"z": -2.1451718686,
				"element": "H" 
			},
			{
				"x": -0.3196547946,
				"y": 2.7335651483,
				"z": -2.519649054,
				"element": "H" 
			},
			{
				"x": -1.9640406142,
				"y": 2.2017732653,
				"z": -2.8516212855,
				"element": "H" 
			},
			{
				"x": -0.5608285905,
				"y": 2.0308845142,
				"z": -0.1365044839,
				"element": "H" 
			},
			{
				"x": -1.6802699794,
				"y": 3.3045975855,
				"z": -0.617485124,
				"element": "H" 
			},
			{
				"x": -3.3046636827,
				"y": 1.2817559811,
				"z": -0.9757500938,
				"element": "H" 
			},
			{
				"x": -1.5282442642,
				"y": 2.6747185065,
				"z": 1.9772161776,
				"element": "H" 
			},
			{
				"x": 1.305106902,
				"y": 0.2172003123,
				"z": 5.7586977149,
				"element": "H" 
			},
			{
				"x": -0.090144987,
				"y": -1.7566217739,
				"z": 3.9033882835,
				"element": "H" 
			},
			{
				"x": -1.6089814391,
				"y": -1.632917173,
				"z": 1.928259453,
				"element": "H" 
			}
		],
		 "valence_orbital": [ 
			{
				"type": "occ",
				"energy": -0.27433,
				"method": "rhf"
			},
			{
				"type": "occ",
				"energy": -0.26419,
				"method": "rhf"
			},
			{
				"type": "occ",
				"energy": -0.25568,
				"method": "rhf"
			},
			{
				"type": "occ",
				"energy": -0.24953,
				"method": "rhf"
			},
			{
				"type": "occ",
				"energy": -0.24182,
				"method": "rhf"
			},
			{
				"type": "unocc",
				"energy": -0.05205,
				"method": "rhf"
			},
			{
				"type": "unocc",
				"energy": -0.02333,
				"method": "rhf"
			},
			{
				"type": "unocc",
				"energy": 0.00097,
				"method": "rhf"
			},
			{
				"type": "unocc",
				"energy": 0.02741,
				"method": "rhf"
			},
			{
				"type": "unocc",
				"energy": 0.05956,
				"method": "rhf"
			}
		],
		"cosmo_sigma_profile": { 
			"-0.025": 0.0,
			"-0.024": 0.0,
			"-0.023": 0.0,
			"-0.022": 0.0,
			"-0.021": 0.0,
			"-0.02": 0.0,
			"-0.019": 0.0,
			"-0.018": 1.56495925294,
			"-0.017": 3.40953478914,
			"-0.016": 2.01177678984,
			"-0.015": 1.78467922147,
			"-0.014": 1.69746002261,
			"-0.013": 2.51896782163,
			"-0.012": 2.78008358064,
			"-0.011": 2.68725869149,
			"-0.01": 3.0175055336,
			"-0.009": 2.77593809152,
			"-0.008": 5.48859422115,
			"-0.007": 7.1647338481,
			"-0.006": 11.0162782013,
			"-0.005": 16.7446242778,
			"-0.004": 21.5691823817,
			"-0.003": 22.852864924,
			"-0.002": 18.6297764049,
			"-0.001": 18.2268908962,
			"0.0": 15.2738262833,
			"0.001": 17.714402698,
			"0.002": 14.1173588873,
			"0.003": 11.5608141399,
			"0.004": 7.5025908088,
			"0.005": 6.98467041559,
			"0.006": 5.53114307775,
			"0.007": 5.71790414008,
			"0.008": 6.41369430698,
			"0.009": 6.97835744811,
			"0.01": 8.49772609667,
			"0.011": 7.25256312718,
			"0.012": 7.34875613962,
			"0.013": 5.69014506271,
			"0.014": 5.97855770828,
			"0.015": 1.60042231357,
			"0.016": 0.0608349962012,
			"0.017": 0.0,
			"0.018": 0.0,
			"0.019": 0.0,
			"0.02": 0.0,
			"0.021": 0.0,
			"0.022": 0.0,
			"0.023": 0.0,
			"0.024": 0.0,
			"0.025": 0.0
		}
	}
}
