{
	 "smiles": "NCCNCCO", 
	 "Tm": 245.15, 
	 "num_atms": 19, 
	 "gaussian": { 
		 "optdone": 1, 
		 "sigma_profile": "yes", 
		 "theory": "DFT", 
		 "functional": "B3LYP", 
		 "basiset": "6-31G**", 
		 "properties": { 
			 "R2extent": 1298.9821, 
			 "electric_dipole_moment_norm": 1.06455370461, 
			 "electric_quadrupole_moment_norm": 10.4624931594, 
			 "total_energy": -344.356721705, 
			 "HOMO_LUMO_gap": 0.28058, 
			 "cosmo_polarized_energy": -11.47, 
			 "cosmo_cavitation_energy": 21.12, 
			 "cosmo_dispersion_energy": -15.78, 
			 "cosmo_repulsion_energy": 1.39, 
			 "cosmo_total_nonelectrostatic_energy": 6.74, 
			 "SMD_solvation_energy": 0.34 
		},
		"coords": [
			{
				"x": 2.8060427717,
				"y": 1.492295615,
				"z": 2.1550037298,
				"element": "N" 
			},
			{
				"x": 1.3659576399,
				"y": 1.3964358663,
				"z": 1.8909546405,
				"element": "C" 
			},
			{
				"x": 1.1240793047,
				"y": 0.8747323527,
				"z": 0.46992111,
				"element": "C" 
			},
			{
				"x": -0.3051315783,
				"y": 0.7333233962,
				"z": 0.184226174,
				"element": "N" 
			},
			{
				"x": -0.908694238,
				"y": -0.5313953628,
				"z": 0.5995215196,
				"element": "C" 
			},
			{
				"x": -0.5722238521,
				"y": -1.7271943313,
				"z": -0.2932646585,
				"element": "C" 
			},
			{
				"x": -1.0482093214,
				"y": -1.4142631424,
				"z": -1.6007550481,
				"element": "O" 
			},
			{
				"x": 3.207936211,
				"y": 2.2393222583,
				"z": 1.5918904757,
				"element": "H" 
			},
			{
				"x": 2.9644656393,
				"y": 1.7573892693,
				"z": 3.1236305732,
				"element": "H" 
			},
			{
				"x": 0.8072382939,
				"y": 2.3395903458,
				"z": 2.0104301683,
				"element": "H" 
			},
			{
				"x": 0.9415203374,
				"y": 0.6894456254,
				"z": 2.6144825294,
				"element": "H" 
			},
			{
				"x": 1.7080017056,
				"y": -0.0523028068,
				"z": 0.3393484372,
				"element": "H" 
			},
			{
				"x": 1.5377605383,
				"y": 1.600383225,
				"z": -0.2424049463,
				"element": "H" 
			},
			{
				"x": -0.472853416,
				"y": 0.8367163045,
				"z": -0.8121043666,
				"element": "H" 
			},
			{
				"x": -0.6112432216,
				"y": -0.7576209058,
				"z": 1.6297812512,
				"element": "H" 
			},
			{
				"x": -1.9992935511,
				"y": -0.4098047607,
				"z": 0.6021648299,
				"element": "H" 
			},
			{
				"x": 0.5139173106,
				"y": -1.9069039398,
				"z": -0.2996140638,
				"element": "H" 
			},
			{
				"x": -1.0566861624,
				"y": -2.6337374511,
				"z": 0.1047692506,
				"element": "H" 
			},
			{
				"x": -0.7263844117,
				"y": -2.0872115577,
				"z": -2.2119816062,
				"element": "H" 
			}
		],
		 "valence_orbital": [ 
			{
				"type": "occ",
				"energy": -0.33344,
				"method": "rhf"
			},
			{
				"type": "occ",
				"energy": -0.32412,
				"method": "rhf"
			},
			{
				"type": "occ",
				"energy": -0.26887,
				"method": "rhf"
			},
			{
				"type": "occ",
				"energy": -0.22817,
				"method": "rhf"
			},
			{
				"type": "occ",
				"energy": -0.20949,
				"method": "rhf"
			},
			{
				"type": "unocc",
				"energy": 0.07109,
				"method": "rhf"
			},
			{
				"type": "unocc",
				"energy": 0.08757,
				"method": "rhf"
			},
			{
				"type": "unocc",
				"energy": 0.11104,
				"method": "rhf"
			},
			{
				"type": "unocc",
				"energy": 0.11345,
				"method": "rhf"
			},
			{
				"type": "unocc",
				"energy": 0.1329,
				"method": "rhf"
			}
		],
		"cosmo_sigma_profile": { 
			"-0.025": 0.0,
			"-0.024": 0.0,
			"-0.023": 0.0,
			"-0.022": 0.0,
			"-0.021": 0.0,
			"-0.02": 0.0,
			"-0.019": 0.0,
			"-0.018": 0.0,
			"-0.017": 0.0,
			"-0.016": 0.201172641633,
			"-0.015": 0.947579054144,
			"-0.014": 1.42232046326,
			"-0.013": 0.614483779116,
			"-0.012": 0.643634686969,
			"-0.011": 0.944187993669,
			"-0.01": 1.41506076585,
			"-0.009": 3.72593841016,
			"-0.008": 4.23024379453,
			"-0.007": 4.32271360626,
			"-0.006": 4.60443866464,
			"-0.005": 4.64428178935,
			"-0.004": 11.5278188144,
			"-0.003": 20.4363305904,
			"-0.002": 19.2605376005,
			"-0.001": 16.068739593,
			"0.0": 11.823895845,
			"0.001": 9.24685597704,
			"0.002": 4.96191575391,
			"0.003": 4.62220985779,
			"0.004": 3.26284785752,
			"0.005": 4.24656620174,
			"0.006": 2.70291922976,
			"0.007": 2.63498595793,
			"0.008": 3.19120095905,
			"0.009": 3.12649625733,
			"0.01": 2.43256586202,
			"0.011": 2.69656336971,
			"0.012": 2.49407268452,
			"0.013": 2.19316397813,
			"0.014": 2.01885384332,
			"0.015": 1.02018309117,
			"0.016": 1.16657832582,
			"0.017": 1.22198948588,
			"0.018": 1.04317420347,
			"0.019": 0.290860037055,
			"0.02": 0.480141105106,
			"0.021": 0.0519542078391,
			"0.022": 0.0,
			"0.023": 0.0,
			"0.024": 0.0,
			"0.025": 0.0
		}
	}
}
