{
	 "smiles": "CC(=O)C1=CC(OCC(O)=O)=CC=C1", 
	 "Tm": 393.15, 
	 "num_atms": 24, 
	 "gaussian": { 
		 "optdone": 1, 
		 "sigma_profile": "yes", 
		 "theory": "DFT", 
		 "functional": "B3LYP", 
		 "basiset": "6-31G**", 
		 "properties": { 
			 "R2extent": 4558.6543, 
			 "electric_dipole_moment_norm": 1.48390942446, 
			 "electric_quadrupole_moment_norm": 33.6179110926, 
			 "total_energy": -687.98536214, 
			 "HOMO_LUMO_gap": 0.18271, 
			 "cosmo_polarized_energy": -17.73, 
			 "cosmo_cavitation_energy": 29.15, 
			 "cosmo_dispersion_energy": -21.12, 
			 "cosmo_repulsion_energy": 1.67, 
			 "cosmo_total_nonelectrostatic_energy": 9.7, 
			 "SMD_solvation_energy": 7.33 
		},
		"coords": [
			{
				"x": 2.4053219299,
				"y": -0.3118226732,
				"z": 2.7189244164,
				"element": "C" 
			},
			{
				"x": 3.0154303344,
				"y": 0.2526887332,
				"z": 1.4479675977,
				"element": "C" 
			},
			{
				"x": 4.0721616623,
				"y": 0.8628593702,
				"z": 1.4808200539,
				"element": "O" 
			},
			{
				"x": 2.2964617873,
				"y": 0.0521451434,
				"z": 0.1425652563,
				"element": "C" 
			},
			{
				"x": 1.0844075064,
				"y": -0.6381214293,
				"z": 0.0571503837,
				"element": "C" 
			},
			{
				"x": 0.4535733146,
				"y": -0.798612198,
				"z": -1.1809934681,
				"element": "C" 
			},
			{
				"x": -0.7343356162,
				"y": -1.4925899844,
				"z": -1.1590502917,
				"element": "O" 
			},
			{
				"x": -1.4445036815,
				"y": -1.7023042715,
				"z": -2.373429224,
				"element": "C" 
			},
			{
				"x": -2.719727909,
				"y": -2.4933242848,
				"z": -2.0735649058,
				"element": "C" 
			},
			{
				"x": -2.9113105087,
				"y": -2.8201862157,
				"z": -0.7855360588,
				"element": "O" 
			},
			{
				"x": -3.4877760992,
				"y": -2.7930768045,
				"z": -2.9520773152,
				"element": "O" 
			},
			{
				"x": 1.0278570107,
				"y": -0.2718191249,
				"z": -2.3401958532,
				"element": "C" 
			},
			{
				"x": 2.2424710262,
				"y": 0.41850395,
				"z": -2.2461223001,
				"element": "C" 
			},
			{
				"x": 2.8762855415,
				"y": 0.5830836949,
				"z": -1.021885766,
				"element": "C" 
			},
			{
				"x": 2.2898760915,
				"y": -1.399221204,
				"z": 2.6505677953,
				"element": "H" 
			},
			{
				"x": 1.4114593947,
				"y": 0.1121978721,
				"z": 2.9002882261,
				"element": "H" 
			},
			{
				"x": 3.0597637992,
				"y": -0.0698403802,
				"z": 3.556496296,
				"element": "H" 
			},
			{
				"x": 0.6076699706,
				"y": -1.0611938064,
				"z": 0.9343032811,
				"element": "H" 
			},
			{
				"x": -0.8476841432,
				"y": -2.2747758988,
				"z": -3.0939835781,
				"element": "H" 
			},
			{
				"x": -1.7323952143,
				"y": -0.7520512387,
				"z": -2.8395412121,
				"element": "H" 
			},
			{
				"x": -2.1618610033,
				"y": -2.470563147,
				"z": -0.271674209,
				"element": "H" 
			},
			{
				"x": 0.5502997277,
				"y": -0.3885951723,
				"z": -3.3058320256,
				"element": "H" 
			},
			{
				"x": 2.6871353156,
				"y": 0.8271911819,
				"z": -3.1485705788,
				"element": "H" 
			},
			{
				"x": 3.8166197627,
				"y": 1.114927888,
				"z": -0.93342652,
				"element": "H" 
			}
		],
		 "valence_orbital": [ 
			{
				"type": "occ",
				"energy": -0.32043,
				"method": "rhf"
			},
			{
				"type": "occ",
				"energy": -0.28282,
				"method": "rhf"
			},
			{
				"type": "occ",
				"energy": -0.27696,
				"method": "rhf"
			},
			{
				"type": "occ",
				"energy": -0.25815,
				"method": "rhf"
			},
			{
				"type": "occ",
				"energy": -0.24977,
				"method": "rhf"
			},
			{
				"type": "unocc",
				"energy": -0.06706,
				"method": "rhf"
			},
			{
				"type": "unocc",
				"energy": -0.01924,
				"method": "rhf"
			},
			{
				"type": "unocc",
				"energy": 0.00264,
				"method": "rhf"
			},
			{
				"type": "unocc",
				"energy": 0.03047,
				"method": "rhf"
			},
			{
				"type": "unocc",
				"energy": 0.07018,
				"method": "rhf"
			}
		],
		"cosmo_sigma_profile": { 
			"-0.025": 0.0,
			"-0.024": 0.0,
			"-0.023": 0.0,
			"-0.022": 0.0,
			"-0.021": 0.0,
			"-0.02": 0.0,
			"-0.019": 0.0,
			"-0.018": 0.0,
			"-0.017": 0.0,
			"-0.016": 0.0266463557878,
			"-0.015": 0.308514326507,
			"-0.014": 0.701966894348,
			"-0.013": 0.497619194477,
			"-0.012": 0.645186077387,
			"-0.011": 0.719791711108,
			"-0.01": 0.552242882398,
			"-0.009": 4.27869559291,
			"-0.008": 10.8375159983,
			"-0.007": 12.4246414056,
			"-0.006": 16.9830059862,
			"-0.005": 16.0559697668,
			"-0.004": 15.1290255442,
			"-0.003": 14.0274153252,
			"-0.002": 12.6042907059,
			"-0.001": 14.9719429539,
			"0.0": 11.3004727435,
			"0.001": 12.0637074837,
			"0.002": 13.645529831,
			"0.003": 16.8793265235,
			"0.004": 9.95459721891,
			"0.005": 3.41885897065,
			"0.006": 4.16311839638,
			"0.007": 3.44446764601,
			"0.008": 4.84167787375,
			"0.009": 6.25930079849,
			"0.01": 7.13657161105,
			"0.011": 7.62364510833,
			"0.012": 8.62131349749,
			"0.013": 2.20826162295,
			"0.014": 0.0215155535316,
			"0.015": 0.0,
			"0.016": 0.0,
			"0.017": 0.0,
			"0.018": 0.0,
			"0.019": 0.0,
			"0.02": 0.0,
			"0.021": 0.0,
			"0.022": 0.0,
			"0.023": 0.0,
			"0.024": 0.0,
			"0.025": 0.0
		}
	}
}
