{
	 "smiles": "O=C(C1=CC=CC=C1)C1=CN=CC=C1", 
	 "Tm": 311.15, 
	 "num_atms": 23, 
	 "gaussian": { 
		 "optdone": 1, 
		 "sigma_profile": "yes", 
		 "theory": "DFT", 
		 "functional": "B3LYP", 
		 "basiset": "6-31G**", 
		 "properties": { 
			 "R2extent": 3161.0953, 
			 "electric_dipole_moment_norm": 1.5212533714, 
			 "electric_quadrupole_moment_norm": 18.0600152054, 
			 "total_energy": -592.669294334, 
			 "HOMO_LUMO_gap": 0.1769, 
			 "cosmo_polarized_energy": -9.87, 
			 "cosmo_cavitation_energy": 27.57, 
			 "cosmo_dispersion_energy": -20.18, 
			 "cosmo_repulsion_energy": 1.56, 
			 "cosmo_total_nonelectrostatic_energy": 8.96, 
			 "SMD_solvation_energy": 3.67 
		},
		"coords": [
			{
				"x": -0.3376377702,
				"y": -1.1770249938,
				"z": 2.3579765119,
				"element": "O" 
			},
			{
				"x": -0.3429159996,
				"y": -0.5253097744,
				"z": 1.3188918795,
				"element": "C" 
			},
			{
				"x": -0.4509101412,
				"y": 0.9676689482,
				"z": 1.3673376229,
				"element": "C" 
			},
			{
				"x": -1.020786045,
				"y": 1.7292695801,
				"z": 0.3348589189,
				"element": "C" 
			},
			{
				"x": -1.1491898432,
				"y": 3.1122115529,
				"z": 0.4696344399,
				"element": "C" 
			},
			{
				"x": -0.7005556157,
				"y": 3.7469603982,
				"z": 1.6287609913,
				"element": "C" 
			},
			{
				"x": -0.1389167303,
				"y": 2.9944080082,
				"z": 2.6653834402,
				"element": "C" 
			},
			{
				"x": -0.0266969453,
				"y": 1.6134551727,
				"z": 2.5406654233,
				"element": "C" 
			},
			{
				"x": -0.2363005333,
				"y": -1.2450650853,
				"z": 0.0060090099,
				"element": "C" 
			},
			{
				"x": 0.3656538214,
				"y": -0.7006436529,
				"z": -1.1388049596,
				"element": "C" 
			},
			{
				"x": 0.521796016,
				"y": -1.3667361955,
				"z": -2.289329666,
				"element": "N" 
			},
			{
				"x": 0.0673857393,
				"y": -2.6243245693,
				"z": -2.3372825955,
				"element": "C" 
			},
			{
				"x": -0.5288817385,
				"y": -3.2751176976,
				"z": -1.2527313945,
				"element": "C" 
			},
			{
				"x": -0.67091614,
				"y": -2.5769395572,
				"z": -0.0604301947,
				"element": "C" 
			},
			{
				"x": -1.3894452485,
				"y": 1.2418777437,
				"z": -0.5614075389,
				"element": "H" 
			},
			{
				"x": -1.6017310416,
				"y": 3.6919740207,
				"z": -0.3293574377,
				"element": "H" 
			},
			{
				"x": -0.7932889194,
				"y": 4.8247150722,
				"z": 1.7281346596,
				"element": "H" 
			},
			{
				"x": 0.2049552989,
				"y": 3.4867170252,
				"z": 3.5703317324,
				"element": "H" 
			},
			{
				"x": 0.3871276171,
				"y": 1.0089098485,
				"z": 3.3407818847,
				"element": "H" 
			},
			{
				"x": 0.763574999,
				"y": 0.3109991317,
				"z": -1.12017086,
				"element": "H" 
			},
			{
				"x": 0.1909654371,
				"y": -3.1411200627,
				"z": -3.2875775778,
				"element": "H" 
			},
			{
				"x": -0.8649411188,
				"y": -4.3028670906,
				"z": -1.347512026,
				"element": "H" 
			},
			{
				"x": -1.1056450981,
				"y": -3.0313178231,
				"z": 0.8240377363,
				"element": "H" 
			}
		],
		 "valence_orbital": [ 
			{
				"type": "occ",
				"energy": -0.27512,
				"method": "rhf"
			},
			{
				"type": "occ",
				"energy": -0.26943,
				"method": "rhf"
			},
			{
				"type": "occ",
				"energy": -0.26345,
				"method": "rhf"
			},
			{
				"type": "occ",
				"energy": -0.26079,
				"method": "rhf"
			},
			{
				"type": "occ",
				"energy": -0.24911,
				"method": "rhf"
			},
			{
				"type": "unocc",
				"energy": -0.07221,
				"method": "rhf"
			},
			{
				"type": "unocc",
				"energy": -0.03015,
				"method": "rhf"
			},
			{
				"type": "unocc",
				"energy": -0.02234,
				"method": "rhf"
			},
			{
				"type": "unocc",
				"energy": -0.01143,
				"method": "rhf"
			},
			{
				"type": "unocc",
				"energy": 0.04727,
				"method": "rhf"
			}
		],
		"cosmo_sigma_profile": { 
			"-0.025": 0.0,
			"-0.024": 0.0,
			"-0.023": 0.0,
			"-0.022": 0.0,
			"-0.021": 0.0,
			"-0.02": 0.0,
			"-0.019": 0.0,
			"-0.018": 0.0,
			"-0.017": 0.0,
			"-0.016": 0.0,
			"-0.015": 0.0,
			"-0.014": 0.0,
			"-0.013": 0.0,
			"-0.012": 0.0,
			"-0.011": 0.0,
			"-0.01": 0.0,
			"-0.009": 0.0,
			"-0.008": 0.601846674333,
			"-0.007": 7.95946720285,
			"-0.006": 17.5708176334,
			"-0.005": 19.2365130652,
			"-0.004": 20.5509533228,
			"-0.003": 15.6192619625,
			"-0.002": 13.996745593,
			"-0.001": 14.3530778992,
			"0.0": 17.5796554937,
			"0.001": 21.2054908886,
			"0.002": 14.4290660959,
			"0.003": 14.0038076536,
			"0.004": 15.558733359,
			"0.005": 3.24018677471,
			"0.006": 3.10113695518,
			"0.007": 2.68950064513,
			"0.008": 3.29869671072,
			"0.009": 2.4872066323,
			"0.01": 3.33807368643,
			"0.011": 4.06417455142,
			"0.012": 4.27994442649,
			"0.013": 0.758690921718,
			"0.014": 0.974068395853,
			"0.015": 0.895929236369,
			"0.016": 0.56142177374,
			"0.017": 0.0523726798867,
			"0.018": 0.0,
			"0.019": 0.0,
			"0.02": 0.0,
			"0.021": 0.0,
			"0.022": 0.0,
			"0.023": 0.0,
			"0.024": 0.0,
			"0.025": 0.0
		}
	}
}
