{
	 "smiles": "O=C1C(NC2=CC=CC=C12)=C1NC2=C(C=CC=C2)C1=O", 
	 "Tm": 573.15, 
	 "num_atms": 30, 
	 "gaussian": { 
		 "optdone": 1, 
		 "sigma_profile": "yes", 
		 "theory": "DFT", 
		 "functional": "B3LYP", 
		 "basiset": "6-31G**", 
		 "properties": { 
			 "R2extent": 6837.535, 
			 "electric_dipole_moment_norm": 6.97279218104, 
			 "electric_quadrupole_moment_norm": 18.1875962051, 
			 "total_energy": -875.672245436, 
			 "HOMO_LUMO_gap": 0.10901, 
			 "cosmo_polarized_energy": -26.27, 
			 "cosmo_cavitation_energy": 35.49, 
			 "cosmo_dispersion_energy": -26.03, 
			 "cosmo_repulsion_energy": 1.93, 
			 "cosmo_total_nonelectrostatic_energy": 11.39, 
			 "SMD_solvation_energy": 6.13 
		},
		"coords": [
			{
				"x": -0.5694259984,
				"y": -2.6339648047,
				"z": 0.505375264,
				"element": "O" 
			},
			{
				"x": 0.3217474972,
				"y": -1.8121957081,
				"z": 0.3853090648,
				"element": "C" 
			},
			{
				"x": 0.1993118207,
				"y": -0.3320080919,
				"z": 0.0979622586,
				"element": "C" 
			},
			{
				"x": 1.4885769336,
				"y": 0.2217115675,
				"z": 0.1703313608,
				"element": "N" 
			},
			{
				"x": 2.4339023201,
				"y": -0.8014636833,
				"z": 0.3467834489,
				"element": "C" 
			},
			{
				"x": 3.8236249495,
				"y": -0.7086643731,
				"z": 0.3819682687,
				"element": "C" 
			},
			{
				"x": 4.5396896284,
				"y": -1.8868434882,
				"z": 0.6136993286,
				"element": "C" 
			},
			{
				"x": 3.8951072656,
				"y": -3.1185729551,
				"z": 0.8094786703,
				"element": "C" 
			},
			{
				"x": 2.502986507,
				"y": -3.196272814,
				"z": 0.7647011508,
				"element": "C" 
			},
			{
				"x": 1.7803848609,
				"y": -2.0292225929,
				"z": 0.5246604242,
				"element": "C" 
			},
			{
				"x": -0.8983389564,
				"y": 0.4437837972,
				"z": -0.1168515188,
				"element": "C" 
			},
			{
				"x": -0.802445475,
				"y": 1.8419155959,
				"z": -0.2177717064,
				"element": "N" 
			},
			{
				"x": -2.082577145,
				"y": 2.3930350561,
				"z": -0.3885746674,
				"element": "C" 
			},
			{
				"x": -3.0278313951,
				"y": 1.3676416874,
				"z": -0.5340852697,
				"element": "C" 
			},
			{
				"x": -4.3709979185,
				"y": 1.6597855013,
				"z": -0.7628087024,
				"element": "C" 
			},
			{
				"x": -4.7579716417,
				"y": 2.9984008648,
				"z": -0.8292014688,
				"element": "C" 
			},
			{
				"x": -3.8058079637,
				"y": 4.0170417712,
				"z": -0.6656910913,
				"element": "C" 
			},
			{
				"x": -2.4544034264,
				"y": 3.7345670854,
				"z": -0.4455371648,
				"element": "C" 
			},
			{
				"x": -2.339582403,
				"y": 0.0653334725,
				"z": -0.3778127062,
				"element": "C" 
			},
			{
				"x": -2.8226005555,
				"y": -1.0492244618,
				"z": -0.4693741151,
				"element": "O" 
			},
			{
				"x": 1.7154208644,
				"y": 1.0205831434,
				"z": -0.4080357986,
				"element": "H" 
			},
			{
				"x": 4.3350719856,
				"y": 0.2387350174,
				"z": 0.2394462778,
				"element": "H" 
			},
			{
				"x": 5.6247153371,
				"y": -1.8437257251,
				"z": 0.6462466039,
				"element": "H" 
			},
			{
				"x": 4.4862117167,
				"y": -4.0102036891,
				"z": 0.9926652842,
				"element": "H" 
			},
			{
				"x": 1.9771167722,
				"y": -4.1363119682,
				"z": 0.9015246462,
				"element": "H" 
			},
			{
				"x": -0.1159130037,
				"y": 2.3309496229,
				"z": 0.3422994252,
				"element": "H" 
			},
			{
				"x": -5.0862791841,
				"y": 0.8505730258,
				"z": -0.8745243396,
				"element": "H" 
			},
			{
				"x": -5.7970378315,
				"y": 3.2584554223,
				"z": -1.0043568626,
				"element": "H" 
			},
			{
				"x": -4.1238331161,
				"y": 5.0546608155,
				"z": -0.714739504,
				"element": "H" 
			},
			{
				"x": -1.7273224451,
				"y": 4.5327009087,
				"z": -0.3280865615,
				"element": "H" 
			}
		],
		 "valence_orbital": [ 
			{
				"type": "occ",
				"energy": -0.26238,
				"method": "rhf"
			},
			{
				"type": "occ",
				"energy": -0.25743,
				"method": "rhf"
			},
			{
				"type": "occ",
				"energy": -0.23411,
				"method": "rhf"
			},
			{
				"type": "occ",
				"energy": -0.23248,
				"method": "rhf"
			},
			{
				"type": "occ",
				"energy": -0.20238,
				"method": "rhf"
			},
			{
				"type": "unocc",
				"energy": -0.09337,
				"method": "rhf"
			},
			{
				"type": "unocc",
				"energy": -0.03962,
				"method": "rhf"
			},
			{
				"type": "unocc",
				"energy": -0.00788,
				"method": "rhf"
			},
			{
				"type": "unocc",
				"energy": -0.00101,
				"method": "rhf"
			},
			{
				"type": "unocc",
				"energy": 0.01653,
				"method": "rhf"
			}
		],
		"cosmo_sigma_profile": { 
			"-0.025": 0.0,
			"-0.024": 0.0,
			"-0.023": 0.0,
			"-0.022": 0.0,
			"-0.021": 0.0,
			"-0.02": 0.0,
			"-0.019": 0.0,
			"-0.018": 0.0,
			"-0.017": 0.0,
			"-0.016": 0.340505671275,
			"-0.015": 2.83723680935,
			"-0.014": 3.42147227618,
			"-0.013": 2.56866115989,
			"-0.012": 2.30491027819,
			"-0.011": 1.88516680898,
			"-0.01": 2.3138862611,
			"-0.009": 2.10590759644,
			"-0.008": 3.44046747393,
			"-0.007": 8.7479380889,
			"-0.006": 16.3129564003,
			"-0.005": 18.1310818815,
			"-0.004": 16.7816455135,
			"-0.003": 17.1696985265,
			"-0.002": 17.6303188637,
			"-0.001": 17.2951122163,
			"0.0": 18.819749499,
			"0.001": 20.6094301903,
			"0.002": 22.4046056323,
			"0.003": 23.6153731063,
			"0.004": 23.5576829989,
			"0.005": 7.86300147931,
			"0.006": 3.2837420208,
			"0.007": 1.97504185929,
			"0.008": 3.03594762866,
			"0.009": 2.57219230479,
			"0.01": 2.77512575646,
			"0.011": 4.3268532781,
			"0.012": 7.39244137431,
			"0.013": 4.89718265853,
			"0.014": 1.94744241103,
			"0.015": 1.60806183972,
			"0.016": 1.40665963235,
			"0.017": 0.868935122551,
			"0.018": 0.055698728159,
			"0.019": 0.0,
			"0.02": 0.0,
			"0.021": 0.0,
			"0.022": 0.0,
			"0.023": 0.0,
			"0.024": 0.0,
			"0.025": 0.0
		}
	}
}
