{
	 "smiles": "CC1=C(N)C=CC(NC(=O)OC(C)(C)C)=C1", 
	 "Tm": 377.15, 
	 "num_atms": 34, 
	 "gaussian": { 
		 "optdone": 1, 
		 "sigma_profile": "yes", 
		 "theory": "DFT", 
		 "functional": "B3LYP", 
		 "basiset": "6-31G**", 
		 "properties": { 
			 "R2extent": 5154.6802, 
			 "electric_dipole_moment_norm": 3.41344550418, 
			 "electric_quadrupole_moment_norm": 11.1276945047, 
			 "total_energy": -728.125168238, 
			 "HOMO_LUMO_gap": 0.19089, 
			 "cosmo_polarized_energy": -14.04, 
			 "cosmo_cavitation_energy": 36.21, 
			 "cosmo_dispersion_energy": -25.43, 
			 "cosmo_repulsion_energy": 1.99, 
			 "cosmo_total_nonelectrostatic_energy": 12.77, 
			 "SMD_solvation_energy": 7.14 
		},
		"coords": [
			{
				"x": 4.2368754569,
				"y": 1.0495728371,
				"z": -2.5409009718,
				"element": "C" 
			},
			{
				"x": 2.9797259581,
				"y": 1.1457920724,
				"z": -1.7127796624,
				"element": "C" 
			},
			{
				"x": 2.3763365741,
				"y": 2.4010754525,
				"z": -1.4790702005,
				"element": "C" 
			},
			{
				"x": 2.9664475573,
				"y": 3.5747624586,
				"z": -1.9736146129,
				"element": "N" 
			},
			{
				"x": 1.2207074112,
				"y": 2.4569575281,
				"z": -0.68861321,
				"element": "C" 
			},
			{
				"x": 0.6590842171,
				"y": 1.3133383017,
				"z": -0.1269201627,
				"element": "C" 
			},
			{
				"x": 1.236230756,
				"y": 0.0629624934,
				"z": -0.3731340765,
				"element": "C" 
			},
			{
				"x": 0.7597576732,
				"y": -1.1539342369,
				"z": 0.1757546466,
				"element": "N" 
			},
			{
				"x": -0.4970826253,
				"y": -1.5829164607,
				"z": 0.5374006225,
				"element": "C" 
			},
			{
				"x": -0.6934857383,
				"y": -2.7289102797,
				"z": 0.9135555393,
				"element": "O" 
			},
			{
				"x": -1.4242793501,
				"y": -0.6095371323,
				"z": 0.4278322983,
				"element": "O" 
			},
			{
				"x": -2.8391411151,
				"y": -0.8834372908,
				"z": 0.736902543,
				"element": "C" 
			},
			{
				"x": -3.3829390333,
				"y": -1.959617937,
				"z": -0.2087378104,
				"element": "C" 
			},
			{
				"x": -2.9885994984,
				"y": -1.2734455723,
				"z": 2.2110591675,
				"element": "C" 
			},
			{
				"x": -3.5066232779,
				"y": 0.4664052185,
				"z": 0.4608677155,
				"element": "C" 
			},
			{
				"x": 2.392081397,
				"y": 0.0060412108,
				"z": -1.164752959,
				"element": "C" 
			},
			{
				"x": 4.0701916417,
				"y": 1.3629858432,
				"z": -3.5816452606,
				"element": "H" 
			},
			{
				"x": 5.0296068114,
				"y": 1.6913133358,
				"z": -2.137240584,
				"element": "H" 
			},
			{
				"x": 4.614055615,
				"y": 0.0242919376,
				"z": -2.570902152,
				"element": "H" 
			},
			{
				"x": 2.3436257968,
				"y": 4.371665681,
				"z": -1.9889270816,
				"element": "H" 
			},
			{
				"x": 3.4392403539,
				"y": 3.4710055131,
				"z": -2.8617439297,
				"element": "H" 
			},
			{
				"x": 0.7571037635,
				"y": 3.4218960392,
				"z": -0.4955777354,
				"element": "H" 
			},
			{
				"x": -0.2255077584,
				"y": 1.3911409191,
				"z": 0.4893627782,
				"element": "H" 
			},
			{
				"x": 1.4189467024,
				"y": -1.9185944969,
				"z": 0.2038738174,
				"element": "H" 
			},
			{
				"x": -4.4601486871,
				"y": -2.0754018149,
				"z": -0.0505169856,
				"element": "H" 
			},
			{
				"x": -3.222278025,
				"y": -1.6654795879,
				"z": -1.2508071595,
				"element": "H" 
			},
			{
				"x": -2.8947938232,
				"y": -2.9179089447,
				"z": -0.0311825017,
				"element": "H" 
			},
			{
				"x": -4.0511046363,
				"y": -1.3607443878,
				"z": 2.4609113846,
				"element": "H" 
			},
			{
				"x": -2.5511105031,
				"y": -0.5029240401,
				"z": 2.8539201443,
				"element": "H" 
			},
			{
				"x": -2.4972578114,
				"y": -2.2249156865,
				"z": 2.4141978158,
				"element": "H" 
			},
			{
				"x": -3.3428345086,
				"y": 0.7732070043,
				"z": -0.5760924391,
				"element": "H" 
			},
			{
				"x": -4.5841417718,
				"y": 0.3938672188,
				"z": 0.6360710995,
				"element": "H" 
			},
			{
				"x": -3.1026749543,
				"y": 1.2415240304,
				"z": 1.1190692725,
				"element": "H" 
			},
			{
				"x": 2.8509854322,
				"y": -0.961137227,
				"z": -1.3612193493,
				"element": "H" 
			}
		],
		 "valence_orbital": [ 
			{
				"type": "occ",
				"energy": -0.28616,
				"method": "rhf"
			},
			{
				"type": "occ",
				"energy": -0.2631,
				"method": "rhf"
			},
			{
				"type": "occ",
				"energy": -0.26026,
				"method": "rhf"
			},
			{
				"type": "occ",
				"energy": -0.23942,
				"method": "rhf"
			},
			{
				"type": "occ",
				"energy": -0.18485,
				"method": "rhf"
			},
			{
				"type": "unocc",
				"energy": 0.00604,
				"method": "rhf"
			},
			{
				"type": "unocc",
				"energy": 0.01467,
				"method": "rhf"
			},
			{
				"type": "unocc",
				"energy": 0.0697,
				"method": "rhf"
			},
			{
				"type": "unocc",
				"energy": 0.07677,
				"method": "rhf"
			},
			{
				"type": "unocc",
				"energy": 0.08351,
				"method": "rhf"
			}
		],
		"cosmo_sigma_profile": { 
			"-0.025": 0.0,
			"-0.024": 0.0,
			"-0.023": 0.0,
			"-0.022": 0.0,
			"-0.021": 0.0,
			"-0.02": 0.0,
			"-0.019": 0.0,
			"-0.018": 0.0,
			"-0.017": 0.0,
			"-0.016": 0.0,
			"-0.015": 0.0,
			"-0.014": 0.631359710176,
			"-0.013": 1.00451741444,
			"-0.012": 1.80899800866,
			"-0.011": 3.97617087393,
			"-0.01": 3.47484988544,
			"-0.009": 4.8007452701,
			"-0.008": 3.88113203531,
			"-0.007": 3.81166941636,
			"-0.006": 5.60833767895,
			"-0.005": 7.27302064292,
			"-0.004": 20.5528752726,
			"-0.003": 27.0746074326,
			"-0.002": 23.1588431514,
			"-0.001": 26.772441605,
			"0.0": 37.455881257,
			"0.001": 27.3663037108,
			"0.002": 13.4140028631,
			"0.003": 10.8106862305,
			"0.004": 10.2095508196,
			"0.005": 11.2034122764,
			"0.006": 12.3304673923,
			"0.007": 8.48180317709,
			"0.008": 2.4921575723,
			"0.009": 2.17138180555,
			"0.01": 2.04805264887,
			"0.011": 2.63251837211,
			"0.012": 2.28056391835,
			"0.013": 3.53341109533,
			"0.014": 2.55486103944,
			"0.015": 0.652179347582,
			"0.016": 0.0338204257269,
			"0.017": 0.0,
			"0.018": 0.0,
			"0.019": 0.0,
			"0.02": 0.0,
			"0.021": 0.0,
			"0.022": 0.0,
			"0.023": 0.0,
			"0.024": 0.0,
			"0.025": 0.0
		}
	}
}
