{
	 "smiles": "CC1=CC=CC(CO)=C1[N+]([O-])=O", 
	 "Tm": 318.15, 
	 "num_atms": 21, 
	 "gaussian": { 
		 "optdone": 1, 
		 "sigma_profile": "yes", 
		 "theory": "DFT", 
		 "functional": "B3LYP", 
		 "basiset": "6-31G**", 
		 "properties": { 
			 "R2extent": 2016.3361, 
			 "electric_dipole_moment_norm": 4.12061713582, 
			 "electric_quadrupole_moment_norm": 5.3214979254, 
			 "total_energy": -590.588608246, 
			 "HOMO_LUMO_gap": 0.17115, 
			 "cosmo_polarized_energy": -9.69, 
			 "cosmo_cavitation_energy": 24.47, 
			 "cosmo_dispersion_energy": -18.14, 
			 "cosmo_repulsion_energy": 1.43, 
			 "cosmo_total_nonelectrostatic_energy": 7.75, 
			 "SMD_solvation_energy": 6.03 
		},
		"coords": [
			{
				"x": 0.1116860502,
				"y": -2.5090654506,
				"z": 2.162144965,
				"element": "C" 
			},
			{
				"x": -0.5351648949,
				"y": -1.5331941649,
				"z": 1.2069148064,
				"element": "C" 
			},
			{
				"x": -1.8093771934,
				"y": -1.8272826525,
				"z": 0.7059297428,
				"element": "C" 
			},
			{
				"x": -2.4559767625,
				"y": -0.9736105666,
				"z": -0.1820359694,
				"element": "C" 
			},
			{
				"x": -1.8407145106,
				"y": 0.2099129784,
				"z": -0.5828635913,
				"element": "C" 
			},
			{
				"x": -0.5846825025,
				"y": 0.5789987983,
				"z": -0.0946405384,
				"element": "C" 
			},
			{
				"x": -0.0032367377,
				"y": 1.9122265381,
				"z": -0.5624326667,
				"element": "C" 
			},
			{
				"x": 1.326827011,
				"y": 1.8586080489,
				"z": -1.0372150698,
				"element": "O" 
			},
			{
				"x": 0.0451950415,
				"y": -0.3159096982,
				"z": 0.7934866027,
				"element": "C" 
			},
			{
				"x": 1.3658515082,
				"y": 0.0377867625,
				"z": 1.3322414337,
				"element": "N" 
			},
			{
				"x": 2.1914388699,
				"y": -0.8562402957,
				"z": 1.4910346018,
				"element": "O" 
			},
			{
				"x": 1.5800849072,
				"y": 1.2255848444,
				"z": 1.6114662951,
				"element": "O" 
			},
			{
				"x": -0.6387759442,
				"y": -3.2137507827,
				"z": 2.5289894838,
				"element": "H" 
			},
			{
				"x": 0.9082142289,
				"y": -3.0728498402,
				"z": 1.6693869442,
				"element": "H" 
			},
			{
				"x": 0.5687988052,
				"y": -2.0130064163,
				"z": 3.022034305,
				"element": "H" 
			},
			{
				"x": -2.2913836008,
				"y": -2.7479762177,
				"z": 1.02077645,
				"element": "H" 
			},
			{
				"x": -3.4373405796,
				"y": -1.233709266,
				"z": -0.5675826593,
				"element": "H" 
			},
			{
				"x": -2.3387994842,
				"y": 0.866303172,
				"z": -1.2906787017,
				"element": "H" 
			},
			{
				"x": -0.1140883181,
				"y": 2.6468132986,
				"z": 0.2460449803,
				"element": "H" 
			},
			{
				"x": -0.6173066463,
				"y": 2.2559486709,
				"z": -1.4009102524,
				"element": "H" 
			},
			{
				"x": 1.9032507529,
				"y": 1.9432122394,
				"z": -0.2652911618,
				"element": "H" 
			}
		],
		 "valence_orbital": [ 
			{
				"type": "occ",
				"energy": -0.31205,
				"method": "rhf"
			},
			{
				"type": "occ",
				"energy": -0.30513,
				"method": "rhf"
			},
			{
				"type": "occ",
				"energy": -0.27613,
				"method": "rhf"
			},
			{
				"type": "occ",
				"energy": -0.26912,
				"method": "rhf"
			},
			{
				"type": "occ",
				"energy": -0.26366,
				"method": "rhf"
			},
			{
				"type": "unocc",
				"energy": -0.09251,
				"method": "rhf"
			},
			{
				"type": "unocc",
				"energy": -0.02354,
				"method": "rhf"
			},
			{
				"type": "unocc",
				"energy": -0.01331,
				"method": "rhf"
			},
			{
				"type": "unocc",
				"energy": 0.08031,
				"method": "rhf"
			},
			{
				"type": "unocc",
				"energy": 0.10345,
				"method": "rhf"
			}
		],
		"cosmo_sigma_profile": { 
			"-0.025": 0.0,
			"-0.024": 0.0,
			"-0.023": 0.0,
			"-0.022": 0.0,
			"-0.021": 0.0,
			"-0.02": 0.0,
			"-0.019": 0.0,
			"-0.018": 0.0,
			"-0.017": 0.0,
			"-0.016": 0.0,
			"-0.015": 0.0,
			"-0.014": 0.0,
			"-0.013": 0.0,
			"-0.012": 0.0411339401809,
			"-0.011": 0.516380927889,
			"-0.01": 0.334904523444,
			"-0.009": 0.664886441164,
			"-0.008": 2.02520797491,
			"-0.007": 8.82376615815,
			"-0.006": 12.8116512485,
			"-0.005": 14.7608202819,
			"-0.004": 15.4085398209,
			"-0.003": 14.8686664808,
			"-0.002": 13.6669406287,
			"-0.001": 16.4106201886,
			"0.0": 14.3262604027,
			"0.001": 13.3357043382,
			"0.002": 13.7388534361,
			"0.003": 11.4068110517,
			"0.004": 5.063870234,
			"0.005": 4.06198530919,
			"0.006": 5.42346419418,
			"0.007": 7.70002254036,
			"0.008": 5.55454656058,
			"0.009": 4.30738786146,
			"0.01": 2.38762691003,
			"0.011": 1.51701624601,
			"0.012": 1.32615575517,
			"0.013": 1.8815774886,
			"0.014": 1.73220927528,
			"0.015": 0.0141224543166,
			"0.016": 0.0,
			"0.017": 0.0,
			"0.018": 0.0,
			"0.019": 0.0,
			"0.02": 0.0,
			"0.021": 0.0,
			"0.022": 0.0,
			"0.023": 0.0,
			"0.024": 0.0,
			"0.025": 0.0
		}
	}
}
