{
	 "smiles": "CC1=C(C=C(Cl)C=C1C(O)=O)S(Cl)(=O)=O", 
	 "Tm": 383.15, 
	 "num_atms": 21, 
	 "gaussian": { 
		 "optdone": 1, 
		 "sigma_profile": "yes", 
		 "theory": "DFT", 
		 "functional": "B3LYP", 
		 "basiset": "6-31G**", 
		 "properties": { 
			 "R2extent": 5515.0955, 
			 "electric_dipole_moment_norm": 1.94192446815, 
			 "electric_quadrupole_moment_norm": 17.3232256797, 
			 "total_energy": -1927.86707925, 
			 "HOMO_LUMO_gap": 0.17659, 
			 "cosmo_polarized_energy": -16.13, 
			 "cosmo_cavitation_energy": 30.51, 
			 "cosmo_dispersion_energy": -22.78, 
			 "cosmo_repulsion_energy": 1.74, 
			 "cosmo_total_nonelectrostatic_energy": 9.47, 
			 "SMD_solvation_energy": 4.84 
		},
		"coords": [
			{
				"x": 1.3971428517,
				"y": -1.6974640573,
				"z": -0.3489179816,
				"element": "C" 
			},
			{
				"x": 0.727082686,
				"y": -0.6106812868,
				"z": 0.4647948107,
				"element": "C" 
			},
			{
				"x": 0.3407707537,
				"y": -0.8061153393,
				"z": 1.8089698488,
				"element": "C" 
			},
			{
				"x": -0.226612379,
				"y": 0.1871627389,
				"z": 2.6064606969,
				"element": "C" 
			},
			{
				"x": -0.4013611778,
				"y": 1.4567251926,
				"z": 2.061743699,
				"element": "C" 
			},
			{
				"x": -1.0810319411,
				"y": 2.7314559537,
				"z": 3.0426686505,
				"element": "Cl" 
			},
			{
				"x": -0.0379688399,
				"y": 1.7076441158,
				"z": 0.7459637146,
				"element": "C" 
			},
			{
				"x": 0.4858163789,
				"y": 0.6808892906,
				"z": -0.0526435223,
				"element": "C" 
			},
			{
				"x": 0.7984258017,
				"y": 1.101614921,
				"z": -1.472001347,
				"element": "C" 
			},
			{
				"x": 0.4130134209,
				"y": 0.2618698682,
				"z": -2.4657213124,
				"element": "O" 
			},
			{
				"x": 1.3202487175,
				"y": 2.1559569326,
				"z": -1.7335897754,
				"element": "O" 
			},
			{
				"x": 0.5712404439,
				"y": -2.3821853594,
				"z": 2.661952141,
				"element": "S" 
			},
			{
				"x": -0.8924109812,
				"y": -3.5923064161,
				"z": 1.6869965432,
				"element": "Cl" 
			},
			{
				"x": 1.8687804194,
				"y": -2.9618635211,
				"z": 2.3401155946,
				"element": "O" 
			},
			{
				"x": 0.1227153028,
				"y": -2.2403496747,
				"z": 4.039978305,
				"element": "O" 
			},
			{
				"x": 0.7147180308,
				"y": -2.5348275981,
				"z": -0.5354469779,
				"element": "H" 
			},
			{
				"x": 1.755662833,
				"y": -1.3225976621,
				"z": -1.3059951587,
				"element": "H" 
			},
			{
				"x": 2.2474623629,
				"y": -2.1092377364,
				"z": 0.1963914665,
				"element": "H" 
			},
			{
				"x": -0.5116995816,
				"y": -0.027462841,
				"z": 3.6286811623,
				"element": "H" 
			},
			{
				"x": -0.1557212194,
				"y": 2.696330267,
				"z": 0.3179294815,
				"element": "H" 
			},
			{
				"x": -0.1027738831,
				"y": -0.475757788,
				"z": -2.1098300391,
				"element": "H" 
			}
		],
		 "valence_orbital": [ 
			{
				"type": "occ",
				"energy": -0.34027,
				"method": "rhf"
			},
			{
				"type": "occ",
				"energy": -0.33126,
				"method": "rhf"
			},
			{
				"type": "occ",
				"energy": -0.3186,
				"method": "rhf"
			},
			{
				"type": "occ",
				"energy": -0.2948,
				"method": "rhf"
			},
			{
				"type": "occ",
				"energy": -0.28497,
				"method": "rhf"
			},
			{
				"type": "unocc",
				"energy": -0.10838,
				"method": "rhf"
			},
			{
				"type": "unocc",
				"energy": -0.07958,
				"method": "rhf"
			},
			{
				"type": "unocc",
				"energy": -0.06758,
				"method": "rhf"
			},
			{
				"type": "unocc",
				"energy": -0.00891,
				"method": "rhf"
			},
			{
				"type": "unocc",
				"energy": 0.00826,
				"method": "rhf"
			}
		],
		"cosmo_sigma_profile": { 
			"-0.025": 0.0,
			"-0.024": 0.0,
			"-0.023": 0.0,
			"-0.022": 0.0,
			"-0.021": 0.0,
			"-0.02": 0.0529675646398,
			"-0.019": 0.620708475977,
			"-0.018": 1.3815219216,
			"-0.017": 0.692232248411,
			"-0.016": 0.797439441507,
			"-0.015": 1.27571868993,
			"-0.014": 0.908034523968,
			"-0.013": 0.830214650949,
			"-0.012": 1.12484380262,
			"-0.011": 0.722030909895,
			"-0.01": 1.05038469468,
			"-0.009": 2.57456228473,
			"-0.008": 4.36852480585,
			"-0.007": 6.38203436025,
			"-0.006": 8.99745716223,
			"-0.005": 11.1800164762,
			"-0.004": 16.1843509553,
			"-0.003": 21.1939880828,
			"-0.002": 25.1342794412,
			"-0.001": 18.165028032,
			"0.0": 13.0090330378,
			"0.001": 15.6997434273,
			"0.002": 15.8730066509,
			"0.003": 23.9298104156,
			"0.004": 9.53124730921,
			"0.005": 5.40780873534,
			"0.006": 6.19349058769,
			"0.007": 9.40548330984,
			"0.008": 10.5103768407,
			"0.009": 5.93764529152,
			"0.01": 4.83364256634,
			"0.011": 4.62946885074,
			"0.012": 1.49694181732,
			"0.013": 0.0,
			"0.014": 0.0,
			"0.015": 0.0,
			"0.016": 0.0,
			"0.017": 0.0,
			"0.018": 0.0,
			"0.019": 0.0,
			"0.02": 0.0,
			"0.021": 0.0,
			"0.022": 0.0,
			"0.023": 0.0,
			"0.024": 0.0,
			"0.025": 0.0
		}
	}
}
