{
	 "smiles": "CN1N=C(Br)C2=C1N=CNC2=O", 
	 "Tm": 570.15, 
	 "num_atms": 17, 
	 "gaussian": { 
		 "optdone": 1, 
		 "sigma_profile": "yes", 
		 "theory": "DFT", 
		 "functional": "B3LYP", 
		 "basiset": "6-31G**", 
		 "properties": { 
			 "R2extent": 4213.2982, 
			 "electric_dipole_moment_norm": 5.11352699123, 
			 "electric_quadrupole_moment_norm": 12.933769224, 
			 "total_energy": -3097.28151866, 
			 "HOMO_LUMO_gap": 0.19352, 
			 "cosmo_polarized_energy": -16.65, 
			 "cosmo_cavitation_energy": 24.36, 
			 "cosmo_dispersion_energy": -18.67, 
			 "cosmo_repulsion_energy": 1.49, 
			 "cosmo_total_nonelectrostatic_energy": 7.17, 
			 "SMD_solvation_energy": 1.92 
		},
		"coords": [
			{
				"x": -1.5732100463,
				"y": -0.2209587586,
				"z": -2.3752499961,
				"element": "C" 
			},
			{
				"x": -1.0623700411,
				"y": -0.9142752112,
				"z": -1.2073773237,
				"element": "N" 
			},
			{
				"x": -1.1649942261,
				"y": -2.2718322904,
				"z": -1.1128406858,
				"element": "N" 
			},
			{
				"x": -0.6159250128,
				"y": -2.5869271099,
				"z": 0.0480131528,
				"element": "C" 
			},
			{
				"x": -0.5311394042,
				"y": -4.3771022687,
				"z": 0.6109280787,
				"element": "Br" 
			},
			{
				"x": -0.1419675339,
				"y": -1.4463820475,
				"z": 0.7393613652,
				"element": "C" 
			},
			{
				"x": -0.4563877753,
				"y": -0.3807109959,
				"z": -0.1199472417,
				"element": "C" 
			},
			{
				"x": -0.2103254847,
				"y": 0.9486442666,
				"z": 0.0770174006,
				"element": "N" 
			},
			{
				"x": 0.3853945571,
				"y": 1.1864741269,
				"z": 1.2089333739,
				"element": "C" 
			},
			{
				"x": 0.7393486228,
				"y": 0.2350454642,
				"z": 2.1216067997,
				"element": "N" 
			},
			{
				"x": 0.5188616088,
				"y": -1.1749910667,
				"z": 1.9932639055,
				"element": "C" 
			},
			{
				"x": 0.8793352688,
				"y": -1.931893447,
				"z": 2.8762141946,
				"element": "O" 
			},
			{
				"x": -1.3864919503,
				"y": 0.8443112362,
				"z": -2.238628041,
				"element": "H" 
			},
			{
				"x": -2.6460740825,
				"y": -0.4020692145,
				"z": -2.4761268671,
				"element": "H" 
			},
			{
				"x": -1.0623393765,
				"y": -0.5774621758,
				"z": -3.2729833604,
				"element": "H" 
			},
			{
				"x": 0.6323942003,
				"y": 2.2116046754,
				"z": 1.474670679,
				"element": "H" 
			},
			{
				"x": 1.2015906758,
				"y": 0.510024817,
				"z": 2.9800445658,
				"element": "H" 
			}
		],
		 "valence_orbital": [ 
			{
				"type": "occ",
				"energy": -0.30521,
				"method": "rhf"
			},
			{
				"type": "occ",
				"energy": -0.2883,
				"method": "rhf"
			},
			{
				"type": "occ",
				"energy": -0.26901,
				"method": "rhf"
			},
			{
				"type": "occ",
				"energy": -0.25665,
				"method": "rhf"
			},
			{
				"type": "occ",
				"energy": -0.23873,
				"method": "rhf"
			},
			{
				"type": "unocc",
				"energy": -0.04521,
				"method": "rhf"
			},
			{
				"type": "unocc",
				"energy": -0.01941,
				"method": "rhf"
			},
			{
				"type": "unocc",
				"energy": 0.01689,
				"method": "rhf"
			},
			{
				"type": "unocc",
				"energy": 0.02744,
				"method": "rhf"
			},
			{
				"type": "unocc",
				"energy": 0.06385,
				"method": "rhf"
			}
		],
		"cosmo_sigma_profile": { 
			"-0.025": 0.0,
			"-0.024": 0.0,
			"-0.023": 0.0,
			"-0.022": 0.0,
			"-0.021": 0.0,
			"-0.02": 0.0,
			"-0.019": 0.0,
			"-0.018": 0.0,
			"-0.017": 1.35128669645,
			"-0.016": 1.75187363352,
			"-0.015": 1.03751807188,
			"-0.014": 1.51070431729,
			"-0.013": 1.16213572411,
			"-0.012": 1.39645674123,
			"-0.011": 2.60656074824,
			"-0.01": 2.86410590355,
			"-0.009": 2.2415444815,
			"-0.008": 1.42846706863,
			"-0.007": 5.04006620173,
			"-0.006": 7.8867284389,
			"-0.005": 11.199827698,
			"-0.004": 13.9436972885,
			"-0.003": 16.9407661203,
			"-0.002": 14.9836482645,
			"-0.001": 12.8967435457,
			"0.0": 12.9626645868,
			"0.001": 9.83024944424,
			"0.002": 9.18757150949,
			"0.003": 13.0748544335,
			"0.004": 11.6918920752,
			"0.005": 5.29046229625,
			"0.006": 5.11171163529,
			"0.007": 5.01730915355,
			"0.008": 3.72636948475,
			"0.009": 3.3999720692,
			"0.01": 4.6713481635,
			"0.011": 4.44603849272,
			"0.012": 6.90587232105,
			"0.013": 3.72332856569,
			"0.014": 0.233847931681,
			"0.015": 0.0,
			"0.016": 0.0,
			"0.017": 0.0,
			"0.018": 0.0,
			"0.019": 0.0,
			"0.02": 0.0,
			"0.021": 0.0,
			"0.022": 0.0,
			"0.023": 0.0,
			"0.024": 0.0,
			"0.025": 0.0
		}
	}
}
