{
	 "smiles": "ClS(=O)(=O)C1=C(Br)C(Br)=CS1", 
	 "Tm": 385.15, 
	 "num_atms": 12, 
	 "gaussian": { 
		 "optdone": 1, 
		 "sigma_profile": "yes", 
		 "theory": "DFT", 
		 "functional": "B3LYP", 
		 "basiset": "6-31G**", 
		 "properties": { 
			 "R2extent": 6068.3892, 
			 "electric_dipole_moment_norm": 4.36096785817, 
			 "electric_quadrupole_moment_norm": 13.7340506465, 
			 "total_energy": -6702.74006523, 
			 "HOMO_LUMO_gap": 0.16902, 
			 "cosmo_polarized_energy": -8.4, 
			 "cosmo_cavitation_energy": 26.4, 
			 "cosmo_dispersion_energy": -21.0, 
			 "cosmo_repulsion_energy": 1.59, 
			 "cosmo_total_nonelectrostatic_energy": 7.0, 
			 "SMD_solvation_energy": 1.15 
		},
		"coords": [
			{
				"x": -0.2315973767,
				"y": 3.0131900324,
				"z": 2.7011124178,
				"element": "Cl" 
			},
			{
				"x": -1.1347756232,
				"y": 1.1402457041,
				"z": 3.1117071499,
				"element": "S" 
			},
			{
				"x": -2.5357685506,
				"y": 1.4110774825,
				"z": 3.3862021715,
				"element": "O" 
			},
			{
				"x": -0.2628522877,
				"y": 0.4599130463,
				"z": 4.061133656,
				"element": "O" 
			},
			{
				"x": -0.9531089687,
				"y": 0.2977965817,
				"z": 1.5704857081,
				"element": "C" 
			},
			{
				"x": -1.6372672581,
				"y": 0.4716377794,
				"z": 0.3870636902,
				"element": "C" 
			},
			{
				"x": -2.9924415362,
				"y": 1.7306197128,
				"z": 0.0929482114,
				"element": "Br" 
			},
			{
				"x": -1.1688608515,
				"y": -0.4288033207,
				"z": -0.6209283345,
				"element": "C" 
			},
			{
				"x": -1.8633109792,
				"y": -0.5141253748,
				"z": -2.3709232305,
				"element": "Br" 
			},
			{
				"x": -0.1553309677,
				"y": -1.2379175326,
				"z": -0.1826034023,
				"element": "C" 
			},
			{
				"x": 0.2664353757,
				"y": -0.9398981658,
				"z": 1.4605790939,
				"element": "S" 
			},
			{
				"x": 0.3557790239,
				"y": -2.0067359451,
				"z": -0.7445771314,
				"element": "H" 
			}
		],
		 "valence_orbital": [ 
			{
				"type": "occ",
				"energy": -0.32469,
				"method": "rhf"
			},
			{
				"type": "occ",
				"energy": -0.32264,
				"method": "rhf"
			},
			{
				"type": "occ",
				"energy": -0.30712,
				"method": "rhf"
			},
			{
				"type": "occ",
				"energy": -0.28095,
				"method": "rhf"
			},
			{
				"type": "occ",
				"energy": -0.27412,
				"method": "rhf"
			},
			{
				"type": "unocc",
				"energy": -0.1051,
				"method": "rhf"
			},
			{
				"type": "unocc",
				"energy": -0.06784,
				"method": "rhf"
			},
			{
				"type": "unocc",
				"energy": -0.04374,
				"method": "rhf"
			},
			{
				"type": "unocc",
				"energy": -0.02788,
				"method": "rhf"
			},
			{
				"type": "unocc",
				"energy": -0.00261,
				"method": "rhf"
			}
		],
		"cosmo_sigma_profile": { 
			"-0.025": 0.0,
			"-0.024": 0.0,
			"-0.023": 0.0,
			"-0.022": 0.0,
			"-0.021": 0.0,
			"-0.02": 0.0,
			"-0.019": 0.0,
			"-0.018": 0.0,
			"-0.017": 0.0,
			"-0.016": 0.0,
			"-0.015": 0.0,
			"-0.014": 0.0,
			"-0.013": 0.00408202202855,
			"-0.012": 1.98540968291,
			"-0.011": 2.31481927016,
			"-0.01": 2.2362421966,
			"-0.009": 1.5944890758,
			"-0.008": 1.84861562477,
			"-0.007": 3.97997185398,
			"-0.006": 5.86173265813,
			"-0.005": 6.55546796925,
			"-0.004": 9.28453012238,
			"-0.003": 18.0745437344,
			"-0.002": 21.8455691287,
			"-0.001": 22.4296303594,
			"0.0": 21.7799992331,
			"0.001": 18.6840272874,
			"0.002": 29.2730490571,
			"0.003": 25.1228146634,
			"0.004": 5.7592860753,
			"0.005": 2.98222914477,
			"0.006": 5.65348618186,
			"0.007": 9.09351559553,
			"0.008": 7.63731605938,
			"0.009": 0.674998524663,
			"0.01": 0.0,
			"0.011": 0.0,
			"0.012": 0.0,
			"0.013": 0.0,
			"0.014": 0.0,
			"0.015": 0.0,
			"0.016": 0.0,
			"0.017": 0.0,
			"0.018": 0.0,
			"0.019": 0.0,
			"0.02": 0.0,
			"0.021": 0.0,
			"0.022": 0.0,
			"0.023": 0.0,
			"0.024": 0.0,
			"0.025": 0.0
		}
	}
}
