{
	 "smiles": "CC1CNC(S1)=NC1=CC2=C(C=CC=C2)N=C1", 
	 "Tm": 418.15, 
	 "num_atms": 30, 
	 "gaussian": { 
		 "optdone": 1, 
		 "sigma_profile": "yes", 
		 "theory": "DFT", 
		 "functional": "B3LYP", 
		 "basiset": "6-31G**", 
		 "properties": { 
			 "R2extent": 6401.2143, 
			 "electric_dipole_moment_norm": 6.05938324749, 
			 "electric_quadrupole_moment_norm": 18.9252458557, 
			 "total_energy": -1065.66873238, 
			 "HOMO_LUMO_gap": 0.16087, 
			 "cosmo_polarized_energy": -15.58, 
			 "cosmo_cavitation_energy": 34.88, 
			 "cosmo_dispersion_energy": -26.21, 
			 "cosmo_repulsion_energy": 1.98, 
			 "cosmo_total_nonelectrostatic_energy": 10.65, 
			 "SMD_solvation_energy": 1.36 
		},
		"coords": [
			{
				"x": -5.8145318637,
				"y": 0.8048897606,
				"z": 1.5460814907,
				"element": "C" 
			},
			{
				"x": -4.2923633065,
				"y": 0.8846647873,
				"z": 1.577259292,
				"element": "C" 
			},
			{
				"x": -3.6484311693,
				"y": 1.0600556693,
				"z": 0.1957551631,
				"element": "C" 
			},
			{
				"x": -2.259740489,
				"y": 0.6420023999,
				"z": 0.3500353294,
				"element": "N" 
			},
			{
				"x": -2.0745748443,
				"y": -0.4477977127,
				"z": 1.1839852979,
				"element": "C" 
			},
			{
				"x": -3.5130565882,
				"y": -0.6665699253,
				"z": 2.224889571,
				"element": "S" 
			},
			{
				"x": -1.0847402558,
				"y": -1.2513585505,
				"z": 1.2766927778,
				"element": "N" 
			},
			{
				"x": 0.0690898688,
				"y": -1.1269343814,
				"z": 0.4985123855,
				"element": "C" 
			},
			{
				"x": 0.7766464224,
				"y": 0.0440635202,
				"z": 0.2759697943,
				"element": "C" 
			},
			{
				"x": 1.9781085332,
				"y": 0.0092389719,
				"z": -0.4776470095,
				"element": "C" 
			},
			{
				"x": 2.4094310704,
				"y": -1.2533548686,
				"z": -0.9935025817,
				"element": "C" 
			},
			{
				"x": 3.5996382775,
				"y": -1.3192418739,
				"z": -1.7612111352,
				"element": "C" 
			},
			{
				"x": 4.3367875397,
				"y": -0.1810720316,
				"z": -2.0078748345,
				"element": "C" 
			},
			{
				"x": 3.9140943535,
				"y": 1.0693074444,
				"z": -1.4937739173,
				"element": "C" 
			},
			{
				"x": 2.761520421,
				"y": 1.1635805196,
				"z": -0.7444578853,
				"element": "C" 
			},
			{
				"x": 1.7133583872,
				"y": -2.4087602953,
				"z": -0.760080284,
				"element": "N" 
			},
			{
				"x": 0.616811633,
				"y": -2.3360118998,
				"z": -0.0444972413,
				"element": "C" 
			},
			{
				"x": -6.1540161751,
				"y": -0.0252220281,
				"z": 0.9196045658,
				"element": "H" 
			},
			{
				"x": -6.2299463899,
				"y": 1.7361417645,
				"z": 1.1443458459,
				"element": "H" 
			},
			{
				"x": -6.2254912721,
				"y": 0.6659219419,
				"z": 2.5499072081,
				"element": "H" 
			},
			{
				"x": -3.9704943435,
				"y": 1.7023669096,
				"z": 2.2303283501,
				"element": "H" 
			},
			{
				"x": -3.6951786166,
				"y": 2.1060743221,
				"z": -0.125699173,
				"element": "H" 
			},
			{
				"x": -4.1824389651,
				"y": 0.445195166,
				"z": -0.5454731465,
				"element": "H" 
			},
			{
				"x": -1.6505309937,
				"y": 0.677956294,
				"z": -0.4595658834,
				"element": "H" 
			},
			{
				"x": 0.4392945449,
				"y": 0.9860134776,
				"z": 0.7008752472,
				"element": "H" 
			},
			{
				"x": 3.9010225269,
				"y": -2.291326979,
				"z": -2.1382184716,
				"element": "H" 
			},
			{
				"x": 5.2479647187,
				"y": -0.2383555305,
				"z": -2.5961960169,
				"element": "H" 
			},
			{
				"x": 4.5059702986,
				"y": 1.9583709523,
				"z": -1.6922492753,
				"element": "H" 
			},
			{
				"x": 2.437520684,
				"y": 2.1227076813,
				"z": -0.3475698643,
				"element": "H" 
			},
			{
				"x": 0.0786759929,
				"y": -3.2628455057,
				"z": 0.1507744011,
				"element": "H" 
			}
		],
		 "valence_orbital": [ 
			{
				"type": "occ",
				"energy": -0.26513,
				"method": "rhf"
			},
			{
				"type": "occ",
				"energy": -0.25089,
				"method": "rhf"
			},
			{
				"type": "occ",
				"energy": -0.24026,
				"method": "rhf"
			},
			{
				"type": "occ",
				"energy": -0.2316,
				"method": "rhf"
			},
			{
				"type": "occ",
				"energy": -0.20636,
				"method": "rhf"
			},
			{
				"type": "unocc",
				"energy": -0.04549,
				"method": "rhf"
			},
			{
				"type": "unocc",
				"energy": -0.01523,
				"method": "rhf"
			},
			{
				"type": "unocc",
				"energy": 0.00767,
				"method": "rhf"
			},
			{
				"type": "unocc",
				"energy": 0.02257,
				"method": "rhf"
			},
			{
				"type": "unocc",
				"energy": 0.03158,
				"method": "rhf"
			}
		],
		"cosmo_sigma_profile": { 
			"-0.025": 0.0,
			"-0.024": 0.0,
			"-0.023": 0.0,
			"-0.022": 0.0,
			"-0.021": 0.0,
			"-0.02": 0.0,
			"-0.019": 0.0,
			"-0.018": 0.0,
			"-0.017": 0.0,
			"-0.016": 0.0,
			"-0.015": 0.0,
			"-0.014": 0.279208914105,
			"-0.013": 0.81669946527,
			"-0.012": 1.03268892129,
			"-0.011": 1.05825840845,
			"-0.01": 0.956386818846,
			"-0.009": 1.45184183414,
			"-0.008": 1.58161420863,
			"-0.007": 2.95821989559,
			"-0.006": 16.7670231508,
			"-0.005": 25.5298146199,
			"-0.004": 29.5658779217,
			"-0.003": 22.4442244374,
			"-0.002": 17.531939972,
			"-0.001": 16.8899977747,
			"0.0": 17.6010959284,
			"0.001": 16.580138428,
			"0.002": 18.6129244001,
			"0.003": 21.1152133251,
			"0.004": 20.509654747,
			"0.005": 15.3575590217,
			"0.006": 7.42238441573,
			"0.007": 6.10062869824,
			"0.008": 4.49587516626,
			"0.009": 2.6390742902,
			"0.01": 2.0462254093,
			"0.011": 1.34607292466,
			"0.012": 2.07676659749,
			"0.013": 1.77125961068,
			"0.014": 1.68098134294,
			"0.015": 1.02373961361,
			"0.016": 0.668343638489,
			"0.017": 0.144476890259,
			"0.018": 0.0,
			"0.019": 0.0,
			"0.02": 0.0,
			"0.021": 0.0,
			"0.022": 0.0,
			"0.023": 0.0,
			"0.024": 0.0,
			"0.025": 0.0
		}
	}
}
