{
	 "smiles": "C[Si]1(O[Si](C)(O[Si](C)(O[Si](C)(O1)C=C)C=C)C=C)C=C", 
	 "Tm": 229.95, 
	 "num_atms": 44, 
	 "gaussian": { 
		 "optdone": 1, 
		 "sigma_profile": "yes", 
		 "theory": "DFT", 
		 "functional": "B3LYP", 
		 "basiset": "6-31G**", 
		 "properties": { 
			 "R2extent": 7433.5227, 
			 "electric_dipole_moment_norm": 0.250040816668, 
			 "electric_quadrupole_moment_norm": 3.90851544579, 
			 "total_energy": -1931.00515566, 
			 "HOMO_LUMO_gap": 0.25682, 
			 "cosmo_polarized_energy": -7.29, 
			 "cosmo_cavitation_energy": 54.19, 
			 "cosmo_dispersion_energy": -25.74, 
			 "cosmo_repulsion_energy": 2.33, 
			 "cosmo_total_nonelectrostatic_energy": 30.78, 
			 "SMD_solvation_energy": 14.46 
		},
		"coords": [
			{
				"x": -2.3862908811,
				"y": 0.7709345679,
				"z": -0.1183059349,
				"element": "C" 
			},
			{
				"x": -1.3613788315,
				"y": -0.761333457,
				"z": 0.1975103385,
				"element": "Si" 
			},
			{
				"x": -0.2747961176,
				"y": -1.0029040915,
				"z": -1.0271074692,
				"element": "O" 
			},
			{
				"x": 1.0755648905,
				"y": -0.5782793123,
				"z": -1.883938509,
				"element": "Si" 
			},
			{
				"x": 2.0571047381,
				"y": -2.1409839,
				"z": -2.1997339358,
				"element": "C" 
			},
			{
				"x": 1.9998510026,
				"y": 0.4995368604,
				"z": -1.0355268749,
				"element": "O" 
			},
			{
				"x": 2.5001637663,
				"y": 1.0897608195,
				"z": 0.4275871519,
				"element": "Si" 
			},
			{
				"x": 4.3634410717,
				"y": 1.2449097629,
				"z": 0.4139138569,
				"element": "C" 
			},
			{
				"x": 2.1043078419,
				"y": 0.0371936293,
				"z": 1.6460128825,
				"element": "O" 
			},
			{
				"x": 0.8608860065,
				"y": -0.6909925802,
				"z": 2.4668525346,
				"element": "Si" 
			},
			{
				"x": 1.2886519479,
				"y": -2.5037664712,
				"z": 2.662249554,
				"element": "C" 
			},
			{
				"x": -0.5599664817,
				"y": -0.534838211,
				"z": 1.6308290299,
				"element": "O" 
			},
			{
				"x": 0.6294836251,
				"y": 0.1676707549,
				"z": 4.1073729714,
				"element": "C" 
			},
			{
				"x": 1.4958822575,
				"y": 1.0464283286,
				"z": 4.6255785906,
				"element": "C" 
			},
			{
				"x": 1.6446297565,
				"y": 2.7259128671,
				"z": 0.7150837971,
				"element": "C" 
			},
			{
				"x": 0.8915889124,
				"y": 3.3560562013,
				"z": -0.1959696286,
				"element": "C" 
			},
			{
				"x": 0.5488411839,
				"y": 0.2585408701,
				"z": -3.4673144335,
				"element": "C" 
			},
			{
				"x": 1.0632261895,
				"y": 1.4104929555,
				"z": -3.9159719587,
				"element": "C" 
			},
			{
				"x": -2.404741667,
				"y": -2.3035664737,
				"z": 0.3209598306,
				"element": "C" 
			},
			{
				"x": -2.3082521088,
				"y": -3.3449959726,
				"z": -0.5142819707,
				"element": "C" 
			},
			{
				"x": -3.1445563491,
				"y": 0.9023935266,
				"z": 0.661094036,
				"element": "H" 
			},
			{
				"x": -1.7483139067,
				"y": 1.6608395341,
				"z": -0.116537778,
				"element": "H" 
			},
			{
				"x": -2.8983533287,
				"y": 0.7152650193,
				"z": -1.0842993968,
				"element": "H" 
			},
			{
				"x": 2.3233121774,
				"y": -2.627791626,
				"z": -1.2553386996,
				"element": "H" 
			},
			{
				"x": 1.4803613106,
				"y": -2.857524688,
				"z": -2.7943417429,
				"element": "H" 
			},
			{
				"x": 2.9827919141,
				"y": -1.9209647886,
				"z": -2.7412012987,
				"element": "H" 
			},
			{
				"x": 4.8302770144,
				"y": 0.2614841827,
				"z": 0.2969294321,
				"element": "H" 
			},
			{
				"x": 4.6991146562,
				"y": 1.8824338533,
				"z": -0.4101232722,
				"element": "H" 
			},
			{
				"x": 4.7291321775,
				"y": 1.6805148129,
				"z": 1.3497932601,
				"element": "H" 
			},
			{
				"x": 0.5183328523,
				"y": -3.0327531235,
				"z": 3.2333331095,
				"element": "H" 
			},
			{
				"x": 2.2434323758,
				"y": -2.6285070832,
				"z": 3.1830691694,
				"element": "H" 
			},
			{
				"x": 1.369944995,
				"y": -2.9892188479,
				"z": 1.6837078734,
				"element": "H" 
			},
			{
				"x": -0.262147884,
				"y": -0.0732684893,
				"z": 4.6902674168,
				"element": "H" 
			},
			{
				"x": 1.3415195304,
				"y": 1.5223596788,
				"z": 5.5926267075,
				"element": "H" 
			},
			{
				"x": 2.4044267159,
				"y": 1.3290130054,
				"z": 4.0979080842,
				"element": "H" 
			},
			{
				"x": 1.769508108,
				"y": 3.205249451,
				"z": 1.688655289,
				"element": "H" 
			},
			{
				"x": 0.7208323747,
				"y": 2.9355595133,
				"z": -1.1845126151,
				"element": "H" 
			},
			{
				"x": 0.4121901521,
				"y": 4.313196059,
				"z": 0.0037774041,
				"element": "H" 
			},
			{
				"x": -0.213657807,
				"y": -0.230899639,
				"z": -4.0773994717,
				"element": "H" 
			},
			{
				"x": 1.8279649684,
				"y": 1.9460895078,
				"z": -3.3577084617,
				"element": "H" 
			},
			{
				"x": 0.7479803536,
				"y": 1.8681273669,
				"z": -4.8523864832,
				"element": "H" 
			},
			{
				"x": -3.147560239,
				"y": -2.357646937,
				"z": 1.1201528043,
				"element": "H" 
			},
			{
				"x": -2.9351062115,
				"y": -4.2306645003,
				"z": -0.4226098821,
				"element": "H" 
			},
			{
				"x": -1.5877230531,
				"y": -3.3523629363,
				"z": -1.328955307,
				"element": "H" 
			}
		],
		 "valence_orbital": [ 
			{
				"type": "occ",
				"energy": -0.27087,
				"method": "rhf"
			},
			{
				"type": "occ",
				"energy": -0.26925,
				"method": "rhf"
			},
			{
				"type": "occ",
				"energy": -0.26842,
				"method": "rhf"
			},
			{
				"type": "occ",
				"energy": -0.26634,
				"method": "rhf"
			},
			{
				"type": "occ",
				"energy": -0.2651,
				"method": "rhf"
			},
			{
				"type": "unocc",
				"energy": -0.00828,
				"method": "rhf"
			},
			{
				"type": "unocc",
				"energy": -0.00639,
				"method": "rhf"
			},
			{
				"type": "unocc",
				"energy": -0.0021,
				"method": "rhf"
			},
			{
				"type": "unocc",
				"energy": 0.00245,
				"method": "rhf"
			},
			{
				"type": "unocc",
				"energy": 0.0561,
				"method": "rhf"
			}
		],
		"cosmo_sigma_profile": { 
			"-0.025": 0.0,
			"-0.024": 0.0,
			"-0.023": 0.0,
			"-0.022": 0.0,
			"-0.021": 0.0,
			"-0.02": 0.0,
			"-0.019": 0.0,
			"-0.018": 0.0,
			"-0.017": 0.0,
			"-0.016": 0.0,
			"-0.015": 0.0,
			"-0.014": 0.0,
			"-0.013": 0.0,
			"-0.012": 0.0,
			"-0.011": 0.0,
			"-0.01": 0.0,
			"-0.009": 0.0,
			"-0.008": 0.0,
			"-0.007": 0.0,
			"-0.006": 1.2102119333,
			"-0.005": 16.2480803765,
			"-0.004": 36.9528019298,
			"-0.003": 43.6371798437,
			"-0.002": 44.5112192025,
			"-0.001": 50.574699725,
			"0.0": 46.0852620854,
			"0.001": 47.5939249365,
			"0.002": 34.8876889515,
			"0.003": 27.5683352802,
			"0.004": 22.0015682072,
			"0.005": 16.0686718988,
			"0.006": 11.6584168383,
			"0.007": 3.43667319287,
			"0.008": 2.12545843824,
			"0.009": 1.83504863874,
			"0.01": 0.589776014416,
			"0.011": 0.0,
			"0.012": 0.0,
			"0.013": 0.0,
			"0.014": 0.0,
			"0.015": 0.0,
			"0.016": 0.0,
			"0.017": 0.0,
			"0.018": 0.0,
			"0.019": 0.0,
			"0.02": 0.0,
			"0.021": 0.0,
			"0.022": 0.0,
			"0.023": 0.0,
			"0.024": 0.0,
			"0.025": 0.0
		}
	}
}
