{
	 "smiles": "CCCCCCCCCCCCCCCCCO", 
	 "Tm": 329.05, 
	 "num_atms": 54, 
	 "gaussian": { 
		 "optdone": 1, 
		 "sigma_profile": "yes", 
		 "theory": "DFT", 
		 "functional": "B3LYP", 
		 "basiset": "6-31G**", 
		 "properties": { 
			 "R2extent": 11779.1793, 
			 "electric_dipole_moment_norm": 1.3924478949, 
			 "electric_quadrupole_moment_norm": 11.0059926599, 
			 "total_energy": -744.764312119, 
			 "HOMO_LUMO_gap": 0.33709, 
			 "cosmo_polarized_energy": -6.27, 
			 "cosmo_cavitation_energy": 52.07, 
			 "cosmo_dispersion_energy": -34.73, 
			 "cosmo_repulsion_energy": 2.86, 
			 "cosmo_total_nonelectrostatic_energy": 20.2, 
			 "SMD_solvation_energy": 6.77 
		},
		"coords": [
			{
				"x": -6.2292434114,
				"y": -0.4728927264,
				"z": 2.8833661849,
				"element": "C" 
			},
			{
				"x": -4.9951876635,
				"y": -0.4568943508,
				"z": 3.793751303,
				"element": "C" 
			},
			{
				"x": -3.6523698791,
				"y": -0.5547970349,
				"z": 3.0493274302,
				"element": "C" 
			},
			{
				"x": -3.428926953,
				"y": -1.8916355162,
				"z": 2.3267291362,
				"element": "C" 
			},
			{
				"x": -2.0326733117,
				"y": -2.0923767564,
				"z": 1.7088914994,
				"element": "C" 
			},
			{
				"x": -1.6714676547,
				"y": -1.1323552699,
				"z": 0.5509444702,
				"element": "C" 
			},
			{
				"x": -0.9029339896,
				"y": 0.1444038118,
				"z": 0.9435374724,
				"element": "C" 
			},
			{
				"x": 0.5560100071,
				"y": -0.1014059421,
				"z": 1.3545033132,
				"element": "C" 
			},
			{
				"x": 1.2910518394,
				"y": 1.1874540218,
				"z": 1.7554051603,
				"element": "C" 
			},
			{
				"x": 2.7663780586,
				"y": 1.003709169,
				"z": 2.1769657263,
				"element": "C" 
			},
			{
				"x": 3.8149463727,
				"y": 1.16271158,
				"z": 1.061012434,
				"element": "C" 
			},
			{
				"x": 3.7611236311,
				"y": 0.1301660985,
				"z": -0.0737342441,
				"element": "C" 
			},
			{
				"x": 4.9115454084,
				"y": 0.2922474706,
				"z": -1.0779154424,
				"element": "C" 
			},
			{
				"x": 4.9529381851,
				"y": -0.7746487373,
				"z": -2.1861526922,
				"element": "C" 
			},
			{
				"x": 3.7412383402,
				"y": -0.8109314838,
				"z": -3.1345898656,
				"element": "C" 
			},
			{
				"x": 3.5411242076,
				"y": 0.4702185645,
				"z": -3.9541705881,
				"element": "C" 
			},
			{
				"x": 2.397187428,
				"y": 0.3577887746,
				"z": -4.954069447,
				"element": "C" 
			},
			{
				"x": 2.2889387204,
				"y": 1.5984572171,
				"z": -5.6426148941,
				"element": "O" 
			},
			{
				"x": -7.1489771954,
				"y": -0.3461387368,
				"z": 3.4640761448,
				"element": "H" 
			},
			{
				"x": -6.1868183912,
				"y": 0.3394500416,
				"z": 2.1481116804,
				"element": "H" 
			},
			{
				"x": -6.3181620078,
				"y": -1.4139085628,
				"z": 2.3310145609,
				"element": "H" 
			},
			{
				"x": -5.0020601953,
				"y": 0.46818806,
				"z": 4.3844783635,
				"element": "H" 
			},
			{
				"x": -5.0657281071,
				"y": -1.2796277155,
				"z": 4.5188141937,
				"element": "H" 
			},
			{
				"x": -3.584731169,
				"y": 0.2740115329,
				"z": 2.3320803055,
				"element": "H" 
			},
			{
				"x": -2.8377770964,
				"y": -0.4019916594,
				"z": 3.770839402,
				"element": "H" 
			},
			{
				"x": -4.1804720485,
				"y": -2.0138354869,
				"z": 1.535165666,
				"element": "H" 
			},
			{
				"x": -3.6096662949,
				"y": -2.7067114236,
				"z": 3.0421658229,
				"element": "H" 
			},
			{
				"x": -1.9831890031,
				"y": -3.124057251,
				"z": 1.3388614686,
				"element": "H" 
			},
			{
				"x": -1.2735892074,
				"y": -2.0274415111,
				"z": 2.5001329325,
				"element": "H" 
			},
			{
				"x": -1.0655757441,
				"y": -1.6740339114,
				"z": -0.1878269913,
				"element": "H" 
			},
			{
				"x": -2.5941201906,
				"y": -0.8510051603,
				"z": 0.0253163714,
				"element": "H" 
			},
			{
				"x": -0.9119338704,
				"y": 0.8356848803,
				"z": 0.0894038199,
				"element": "H" 
			},
			{
				"x": -1.4245462664,
				"y": 0.6648079197,
				"z": 1.756605836,
				"element": "H" 
			},
			{
				"x": 0.5948034383,
				"y": -0.802493861,
				"z": 2.1994271107,
				"element": "H" 
			},
			{
				"x": 1.0800993523,
				"y": -0.5986070191,
				"z": 0.5285823577,
				"element": "H" 
			},
			{
				"x": 0.7380188232,
				"y": 1.6422169406,
				"z": 2.5881148378,
				"element": "H" 
			},
			{
				"x": 1.2345453974,
				"y": 1.914647292,
				"z": 0.9323993101,
				"element": "H" 
			},
			{
				"x": 2.88824823,
				"y": 0.0216240481,
				"z": 2.6558777216,
				"element": "H" 
			},
			{
				"x": 3.0036800106,
				"y": 1.7424535699,
				"z": 2.95277414,
				"element": "H" 
			},
			{
				"x": 3.7236826309,
				"y": 2.1705171372,
				"z": 0.6306087846,
				"element": "H" 
			},
			{
				"x": 4.8126151071,
				"y": 1.1236544321,
				"z": 1.5205018248,
				"element": "H" 
			},
			{
				"x": 2.8019452302,
				"y": 0.2122036818,
				"z": -0.5986402988,
				"element": "H" 
			},
			{
				"x": 3.7921405602,
				"y": -0.8834985705,
				"z": 0.3523093482,
				"element": "H" 
			},
			{
				"x": 5.863998201,
				"y": 0.2564569679,
				"z": -0.5316217243,
				"element": "H" 
			},
			{
				"x": 4.8639129008,
				"y": 1.2942060869,
				"z": -1.5250052581,
				"element": "H" 
			},
			{
				"x": 5.8612803932,
				"y": -0.6232499877,
				"z": -2.7850120863,
				"element": "H" 
			},
			{
				"x": 5.0597635165,
				"y": -1.7631467131,
				"z": -1.7188459011,
				"element": "H" 
			},
			{
				"x": 2.8278899399,
				"y": -1.0269260923,
				"z": -2.5641887285,
				"element": "H" 
			},
			{
				"x": 3.8703068346,
				"y": -1.6582589755,
				"z": -3.8220606683,
				"element": "H" 
			},
			{
				"x": 3.3347327358,
				"y": 1.3243472783,
				"z": -3.2986540889,
				"element": "H" 
			},
			{
				"x": 4.4594941236,
				"y": 0.7137040446,
				"z": -4.5039634087,
				"element": "H" 
			},
			{
				"x": 2.595999161,
				"y": -0.4714670933,
				"z": -5.6539110918,
				"element": "H" 
			},
			{
				"x": 1.4621026146,
				"y": 0.1137438431,
				"z": -4.4218070809,
				"element": "H" 
			},
			{
				"x": 1.5661082511,
				"y": 1.5269630843,
				"z": -6.2779116335,
				"element": "H" 
			}
		],
		 "valence_orbital": [ 
			{
				"type": "occ",
				"energy": -0.30095,
				"method": "rhf"
			},
			{
				"type": "occ",
				"energy": -0.29856,
				"method": "rhf"
			},
			{
				"type": "occ",
				"energy": -0.29413,
				"method": "rhf"
			},
			{
				"type": "occ",
				"energy": -0.29351,
				"method": "rhf"
			},
			{
				"type": "occ",
				"energy": -0.26088,
				"method": "rhf"
			},
			{
				"type": "unocc",
				"energy": 0.07621,
				"method": "rhf"
			},
			{
				"type": "unocc",
				"energy": 0.08154,
				"method": "rhf"
			},
			{
				"type": "unocc",
				"energy": 0.08893,
				"method": "rhf"
			},
			{
				"type": "unocc",
				"energy": 0.09814,
				"method": "rhf"
			},
			{
				"type": "unocc",
				"energy": 0.09958,
				"method": "rhf"
			}
		],
		"cosmo_sigma_profile": { 
			"-0.025": 0.0,
			"-0.024": 0.0,
			"-0.023": 0.0,
			"-0.022": 0.0,
			"-0.021": 0.0,
			"-0.02": 0.0,
			"-0.019": 0.0,
			"-0.018": 0.0,
			"-0.017": 0.0,
			"-0.016": 0.04340100521,
			"-0.015": 1.07483953764,
			"-0.014": 0.838198481578,
			"-0.013": 1.14599615005,
			"-0.012": 0.975643241121,
			"-0.011": 0.916952178306,
			"-0.01": 0.684007142801,
			"-0.009": 0.486094065835,
			"-0.008": 0.544798307103,
			"-0.007": 1.10691774029,
			"-0.006": 0.9394628567,
			"-0.005": 1.2246838517,
			"-0.004": 0.980633825938,
			"-0.003": 6.7841200943,
			"-0.002": 49.9457316757,
			"-0.001": 97.0759016783,
			"0.0": 100.003516119,
			"0.001": 78.5122618571,
			"0.002": 33.6826077003,
			"0.003": 2.66930036592,
			"0.004": 1.77554866932,
			"0.005": 1.01952811718,
			"0.006": 0.894586308915,
			"0.007": 1.59199243015,
			"0.008": 1.5550344203,
			"0.009": 1.21924020185,
			"0.01": 1.33364764806,
			"0.011": 1.16678597299,
			"0.012": 1.48986955655,
			"0.013": 1.62050013189,
			"0.014": 1.89834953778,
			"0.015": 1.57424845004,
			"0.016": 0.0,
			"0.017": 0.0,
			"0.018": 0.0,
			"0.019": 0.0,
			"0.02": 0.0,
			"0.021": 0.0,
			"0.022": 0.0,
			"0.023": 0.0,
			"0.024": 0.0,
			"0.025": 0.0
		}
	}
}
