{
	 "smiles": "BrC1=CC2=CC=CN=C2C=C1", 
	 "Tm": 297.15, 
	 "num_atms": 17, 
	 "gaussian": { 
		 "optdone": 1, 
		 "sigma_profile": "yes", 
		 "theory": "DFT", 
		 "functional": "B3LYP", 
		 "basiset": "6-31G**", 
		 "properties": { 
			 "R2extent": 3512.0465, 
			 "electric_dipole_moment_norm": 1.89082444452, 
			 "electric_quadrupole_moment_norm": 7.90554914664, 
			 "total_energy": -2972.73422205, 
			 "HOMO_LUMO_gap": 0.17485, 
			 "cosmo_polarized_energy": -6.64, 
			 "cosmo_cavitation_energy": 23.5, 
			 "cosmo_dispersion_energy": -18.13, 
			 "cosmo_repulsion_energy": 1.43, 
			 "cosmo_total_nonelectrostatic_energy": 6.8, 
			 "SMD_solvation_energy": 1.25 
		},
		"coords": [
			{
				"x": 0.6504428993,
				"y": -3.4072323296,
				"z": -2.0433101421,
				"element": "Br" 
			},
			{
				"x": -0.0069820109,
				"y": -2.1086119883,
				"z": -0.8049246047,
				"element": "C" 
			},
			{
				"x": -0.3539758789,
				"y": -0.8554521005,
				"z": -1.2498754643,
				"element": "C" 
			},
			{
				"x": -0.8414762086,
				"y": 0.1044885954,
				"z": -0.3245868709,
				"element": "C" 
			},
			{
				"x": -1.2208231077,
				"y": 1.4185685732,
				"z": -0.7026036809,
				"element": "C" 
			},
			{
				"x": -1.6829361474,
				"y": 2.2849396053,
				"z": 0.2590903515,
				"element": "C" 
			},
			{
				"x": -1.7655780844,
				"y": 1.8351736984,
				"z": 1.6020185378,
				"element": "C" 
			},
			{
				"x": -1.4253519385,
				"y": 0.6258092454,
				"z": 2.0006598574,
				"element": "N" 
			},
			{
				"x": -0.9646404675,
				"y": -0.2461848919,
				"z": 1.0578525426,
				"element": "C" 
			},
			{
				"x": -0.5929810546,
				"y": -1.5544700507,
				"z": 1.4682610166,
				"element": "C" 
			},
			{
				"x": -0.1223419222,
				"y": -2.4727756052,
				"z": 0.5586081293,
				"element": "C" 
			},
			{
				"x": -0.2592335816,
				"y": -0.5933536822,
				"z": -2.2983905272,
				"element": "H" 
			},
			{
				"x": -1.1411312545,
				"y": 1.7211417866,
				"z": -1.7435818993,
				"element": "H" 
			},
			{
				"x": -1.9826662275,
				"y": 3.2978333342,
				"z": 0.009649519,
				"element": "H" 
			},
			{
				"x": -2.1304729829,
				"y": 2.5136123133,
				"z": 2.3724430937,
				"element": "H" 
			},
			{
				"x": -0.693359423,
				"y": -1.8016492948,
				"z": 2.5199307197,
				"element": "H" 
			},
			{
				"x": 0.161607391,
				"y": -3.4713372085,
				"z": 0.8703594218,
				"element": "H" 
			}
		],
		 "valence_orbital": [ 
			{
				"type": "occ",
				"energy": -0.30436,
				"method": "rhf"
			},
			{
				"type": "occ",
				"energy": -0.29113,
				"method": "rhf"
			},
			{
				"type": "occ",
				"energy": -0.26133,
				"method": "rhf"
			},
			{
				"type": "occ",
				"energy": -0.25439,
				"method": "rhf"
			},
			{
				"type": "occ",
				"energy": -0.23717,
				"method": "rhf"
			},
			{
				"type": "unocc",
				"energy": -0.06232,
				"method": "rhf"
			},
			{
				"type": "unocc",
				"energy": -0.02658,
				"method": "rhf"
			},
			{
				"type": "unocc",
				"energy": 0.00331,
				"method": "rhf"
			},
			{
				"type": "unocc",
				"energy": 0.00927,
				"method": "rhf"
			},
			{
				"type": "unocc",
				"energy": 0.07788,
				"method": "rhf"
			}
		],
		"cosmo_sigma_profile": { 
			"-0.025": 0.0,
			"-0.024": 0.0,
			"-0.023": 0.0,
			"-0.022": 0.0,
			"-0.021": 0.0,
			"-0.02": 0.0,
			"-0.019": 0.0,
			"-0.018": 0.0,
			"-0.017": 0.0,
			"-0.016": 0.0,
			"-0.015": 0.0,
			"-0.014": 0.0,
			"-0.013": 0.0,
			"-0.012": 0.0,
			"-0.011": 0.0,
			"-0.01": 0.0,
			"-0.009": 0.0394060743329,
			"-0.008": 3.23551107731,
			"-0.007": 9.99605811519,
			"-0.006": 11.7067180228,
			"-0.005": 11.8318214795,
			"-0.004": 9.93434729681,
			"-0.003": 10.1664149479,
			"-0.002": 9.58698561998,
			"-0.001": 10.9400791835,
			"0.0": 14.4426264087,
			"0.001": 25.9552378913,
			"0.002": 29.9008937854,
			"0.003": 14.0445507921,
			"0.004": 14.5927509694,
			"0.005": 6.07953513946,
			"0.006": 1.0808839811,
			"0.007": 1.707271819,
			"0.008": 1.87488323051,
			"0.009": 0.724136578638,
			"0.01": 0.195801271998,
			"0.011": 1.20534165653,
			"0.012": 0.874034303761,
			"0.013": 0.754524705073,
			"0.014": 0.972409984838,
			"0.015": 0.674417052195,
			"0.016": 0.495862082974,
			"0.017": 0.020510630633,
			"0.018": 0.0,
			"0.019": 0.0,
			"0.02": 0.0,
			"0.021": 0.0,
			"0.022": 0.0,
			"0.023": 0.0,
			"0.024": 0.0,
			"0.025": 0.0
		}
	}
}
