{
	 "smiles": "CCN(CC)C(=O)C1=CN=CC=C1", 
	 "Tm": 298.15, 
	 "num_atms": 27, 
	 "gaussian": { 
		 "optdone": 1, 
		 "sigma_profile": "yes", 
		 "theory": "DFT", 
		 "functional": "B3LYP", 
		 "basiset": "6-31G**", 
		 "properties": { 
			 "R2extent": 3334.1434, 
			 "electric_dipole_moment_norm": 4.71970210289, 
			 "electric_quadrupole_moment_norm": 14.0117450587, 
			 "total_energy": -574.238286017, 
			 "HOMO_LUMO_gap": 0.20559, 
			 "cosmo_polarized_energy": -13.04, 
			 "cosmo_cavitation_energy": 30.04, 
			 "cosmo_dispersion_energy": -20.72, 
			 "cosmo_repulsion_energy": 1.66, 
			 "cosmo_total_nonelectrostatic_energy": 10.98, 
			 "SMD_solvation_energy": 4.28 
		},
		"coords": [
			{
				"x": 2.0398432474,
				"y": 1.6026244236,
				"z": 1.731763289,
				"element": "C" 
			},
			{
				"x": 0.5754631806,
				"y": 1.1673292818,
				"z": 1.861513449,
				"element": "C" 
			},
			{
				"x": 0.4125713914,
				"y": -0.1598414211,
				"z": 2.4654287973,
				"element": "N" 
			},
			{
				"x": 0.5815076858,
				"y": -0.2631947958,
				"z": 3.9244835189,
				"element": "C" 
			},
			{
				"x": -0.7444402208,
				"y": -0.511960632,
				"z": 4.6467839953,
				"element": "C" 
			},
			{
				"x": 0.4014115047,
				"y": -1.3413054251,
				"z": 1.7644388439,
				"element": "C" 
			},
			{
				"x": 0.5590757429,
				"y": -2.4288613542,
				"z": 2.317966144,
				"element": "O" 
			},
			{
				"x": 0.1581405473,
				"y": -1.3072669447,
				"z": 0.2771400705,
				"element": "C" 
			},
			{
				"x": 1.0460316818,
				"y": -1.9966047365,
				"z": -0.56179917,
				"element": "C" 
			},
			{
				"x": 0.8918148605,
				"y": -2.1074762806,
				"z": -1.884269914,
				"element": "N" 
			},
			{
				"x": -0.1992834226,
				"y": -1.5491726884,
				"z": -2.4255000095,
				"element": "C" 
			},
			{
				"x": -1.1657888124,
				"y": -0.8697749171,
				"z": -1.683088654,
				"element": "C" 
			},
			{
				"x": -0.9808397001,
				"y": -0.7435126077,
				"z": -0.3074343414,
				"element": "C" 
			},
			{
				"x": 2.5853229889,
				"y": 0.9256701963,
				"z": 1.0671545084,
				"element": "H" 
			},
			{
				"x": 2.0993881197,
				"y": 2.6135335631,
				"z": 1.3147267851,
				"element": "H" 
			},
			{
				"x": 2.5476510857,
				"y": 1.6082940545,
				"z": 2.7012284046,
				"element": "H" 
			},
			{
				"x": 0.1081351236,
				"y": 1.1739370736,
				"z": 0.877170487,
				"element": "H" 
			},
			{
				"x": 0.0193884293,
				"y": 1.883298946,
				"z": 2.4777668781,
				"element": "H" 
			},
			{
				"x": 1.0383981317,
				"y": 0.6676604982,
				"z": 4.2731895233,
				"element": "H" 
			},
			{
				"x": 1.2763977298,
				"y": -1.0803466109,
				"z": 4.1333688112,
				"element": "H" 
			},
			{
				"x": -1.4635605828,
				"y": 0.2896137788,
				"z": 4.4473758462,
				"element": "H" 
			},
			{
				"x": -1.1778410172,
				"y": -1.4600800051,
				"z": 4.3191288751,
				"element": "H" 
			},
			{
				"x": -0.5841552703,
				"y": -0.5647205023,
				"z": 5.7289003626,
				"element": "H" 
			},
			{
				"x": 1.9188130562,
				"y": -2.4814585371,
				"z": -0.1297973836,
				"element": "H" 
			},
			{
				"x": -0.3091908224,
				"y": -1.6580820065,
				"z": -3.5030688802,
				"element": "H" 
			},
			{
				"x": -2.0424870104,
				"y": -0.4552906144,
				"z": -2.1709132133,
				"element": "H" 
			},
			{
				"x": -1.7178676483,
				"y": -0.2323117364,
				"z": 0.3059429764,
				"element": "H" 
			}
		],
		 "valence_orbital": [ 
			{
				"type": "occ",
				"energy": -0.29076,
				"method": "rhf"
			},
			{
				"type": "occ",
				"energy": -0.27435,
				"method": "rhf"
			},
			{
				"type": "occ",
				"energy": -0.25728,
				"method": "rhf"
			},
			{
				"type": "occ",
				"energy": -0.24146,
				"method": "rhf"
			},
			{
				"type": "occ",
				"energy": -0.24113,
				"method": "rhf"
			},
			{
				"type": "unocc",
				"energy": -0.03554,
				"method": "rhf"
			},
			{
				"type": "unocc",
				"energy": -0.02281,
				"method": "rhf"
			},
			{
				"type": "unocc",
				"energy": 0.03442,
				"method": "rhf"
			},
			{
				"type": "unocc",
				"energy": 0.07964,
				"method": "rhf"
			},
			{
				"type": "unocc",
				"energy": 0.09486,
				"method": "rhf"
			}
		],
		"cosmo_sigma_profile": { 
			"-0.025": 0.0,
			"-0.024": 0.0,
			"-0.023": 0.0,
			"-0.022": 0.0,
			"-0.021": 0.0,
			"-0.02": 0.0,
			"-0.019": 0.0,
			"-0.018": 0.0,
			"-0.017": 0.0,
			"-0.016": 0.0,
			"-0.015": 0.0,
			"-0.014": 0.0,
			"-0.013": 0.0,
			"-0.012": 0.0,
			"-0.011": 0.0,
			"-0.01": 0.0,
			"-0.009": 0.0,
			"-0.008": 0.711967395956,
			"-0.007": 5.84704902705,
			"-0.006": 9.80336779756,
			"-0.005": 15.8595903632,
			"-0.004": 19.6621289453,
			"-0.003": 29.3461500386,
			"-0.002": 28.0794733017,
			"-0.001": 22.9296056685,
			"0.0": 23.7653492072,
			"0.001": 22.2365158863,
			"0.002": 14.6087111721,
			"0.003": 5.87242823141,
			"0.004": 4.18698907932,
			"0.005": 3.93567721949,
			"0.006": 2.50649716612,
			"0.007": 3.10172736411,
			"0.008": 3.51374913956,
			"0.009": 2.90457770544,
			"0.01": 1.77347001589,
			"0.011": 2.15843197775,
			"0.012": 2.75213205187,
			"0.013": 4.56347671906,
			"0.014": 4.55785109933,
			"0.015": 1.45362487689,
			"0.016": 0.730701260967,
			"0.017": 0.160318344203,
			"0.018": 0.0,
			"0.019": 0.0,
			"0.02": 0.0,
			"0.021": 0.0,
			"0.022": 0.0,
			"0.023": 0.0,
			"0.024": 0.0,
			"0.025": 0.0
		}
	}
}
