{
	 "smiles": "CC1=CSC(=N1)C1=NONC1=N", 
	 "Tm": 421.15, 
	 "num_atms": 18, 
	 "gaussian": { 
		 "optdone": 1, 
		 "sigma_profile": "yes", 
		 "theory": "DFT", 
		 "functional": "B3LYP", 
		 "basiset": "6-31G**", 
		 "properties": { 
			 "R2extent": 2518.6809, 
			 "electric_dipole_moment_norm": 3.14796081615, 
			 "electric_quadrupole_moment_norm": 11.7004009683, 
			 "total_energy": -924.551649443, 
			 "HOMO_LUMO_gap": 0.14684, 
			 "cosmo_polarized_energy": -11.61, 
			 "cosmo_cavitation_energy": 24.77, 
			 "cosmo_dispersion_energy": -18.97, 
			 "cosmo_repulsion_energy": 1.47, 
			 "cosmo_total_nonelectrostatic_energy": 7.27, 
			 "SMD_solvation_energy": 2.83 
		},
		"coords": [
			{
				"x": 3.1125083647,
				"y": -1.9078816307,
				"z": -0.098765056,
				"element": "C" 
			},
			{
				"x": 1.9219625949,
				"y": -1.1470016173,
				"z": -0.6023132051,
				"element": "C" 
			},
			{
				"x": 1.4375841007,
				"y": -1.1539668538,
				"z": -1.8851495461,
				"element": "C" 
			},
			{
				"x": 0.0454441963,
				"y": -0.1367328469,
				"z": -2.0342999513,
				"element": "S" 
			},
			{
				"x": 0.206246101,
				"y": 0.2403503798,
				"z": -0.3272386491,
				"element": "C" 
			},
			{
				"x": 1.2116938176,
				"y": -0.3514293218,
				"z": 0.2682380773,
				"element": "N" 
			},
			{
				"x": -0.6962658685,
				"y": 1.1330840482,
				"z": 0.3734167906,
				"element": "C" 
			},
			{
				"x": -1.6426426479,
				"y": 1.7880199577,
				"z": -0.2222003642,
				"element": "N" 
			},
			{
				"x": -2.3077666877,
				"y": 2.5497413068,
				"z": 0.6904858455,
				"element": "O" 
			},
			{
				"x": -1.7838928362,
				"y": 2.2489676834,
				"z": 1.9967419759,
				"element": "N" 
			},
			{
				"x": -0.623611958,
				"y": 1.4691040502,
				"z": 1.8171071982,
				"element": "C" 
			},
			{
				"x": 0.1943888569,
				"y": 1.1892691227,
				"z": 2.7487882933,
				"element": "N" 
			},
			{
				"x": 2.8211411085,
				"y": -2.5922707858,
				"z": 0.7048077794,
				"element": "H" 
			},
			{
				"x": 3.8620188906,
				"y": -1.2236199505,
				"z": 0.3123188789,
				"element": "H" 
			},
			{
				"x": 3.5765819393,
				"y": -2.4900422412,
				"z": -0.8981317317,
				"element": "H" 
			},
			{
				"x": 1.8197642067,
				"y": -1.697680904,
				"z": -2.7375076547,
				"element": "H" 
			},
			{
				"x": -1.6764355316,
				"y": 3.1299271521,
				"z": 2.4926295447,
				"element": "H" 
			},
			{
				"x": 0.9167813527,
				"y": 0.569362451,
				"z": 2.3780717744,
				"element": "H" 
			}
		],
		 "valence_orbital": [ 
			{
				"type": "occ",
				"energy": -0.30548,
				"method": "rhf"
			},
			{
				"type": "occ",
				"energy": -0.29841,
				"method": "rhf"
			},
			{
				"type": "occ",
				"energy": -0.26474,
				"method": "rhf"
			},
			{
				"type": "occ",
				"energy": -0.2604,
				"method": "rhf"
			},
			{
				"type": "occ",
				"energy": -0.22938,
				"method": "rhf"
			},
			{
				"type": "unocc",
				"energy": -0.08254,
				"method": "rhf"
			},
			{
				"type": "unocc",
				"energy": -0.01799,
				"method": "rhf"
			},
			{
				"type": "unocc",
				"energy": 0.00537,
				"method": "rhf"
			},
			{
				"type": "unocc",
				"energy": 0.02729,
				"method": "rhf"
			},
			{
				"type": "unocc",
				"energy": 0.05319,
				"method": "rhf"
			}
		],
		"cosmo_sigma_profile": { 
			"-0.025": 0.0,
			"-0.024": 0.0,
			"-0.023": 0.0,
			"-0.022": 0.0,
			"-0.021": 0.0,
			"-0.02": 0.0,
			"-0.019": 0.0,
			"-0.018": 0.116132243998,
			"-0.017": 1.16142640618,
			"-0.016": 1.79531179731,
			"-0.015": 0.685189406981,
			"-0.014": 0.774215727206,
			"-0.013": 1.1622791365,
			"-0.012": 1.13819369198,
			"-0.011": 0.790488887283,
			"-0.01": 1.51119953253,
			"-0.009": 2.84465082244,
			"-0.008": 3.22714392348,
			"-0.007": 3.74015137319,
			"-0.006": 4.39943817265,
			"-0.005": 8.88974652618,
			"-0.004": 10.8456682644,
			"-0.003": 13.9833048371,
			"-0.002": 15.2725552425,
			"-0.001": 19.5288146489,
			"0.0": 21.9219718053,
			"0.001": 19.5667608861,
			"0.002": 14.5245399885,
			"0.003": 8.00445536767,
			"0.004": 7.35557378113,
			"0.005": 10.1849598786,
			"0.006": 9.50180094386,
			"0.007": 3.44530883527,
			"0.008": 2.32276994466,
			"0.009": 3.09989232761,
			"0.01": 2.00035901837,
			"0.011": 1.05805003278,
			"0.012": 0.746379592324,
			"0.013": 1.18457231178,
			"0.014": 1.43557665157,
			"0.015": 1.08162607433,
			"0.016": 0.931015814699,
			"0.017": 0.970233927781,
			"0.018": 0.0135993709346,
			"0.019": 0.0,
			"0.02": 0.0,
			"0.021": 0.0,
			"0.022": 0.0,
			"0.023": 0.0,
			"0.024": 0.0,
			"0.025": 0.0
		}
	}
}
