{
	 "smiles": "NC1=C(C=C(C#N)C(S)=N1)C#N", 
	 "Tm": 554.15, 
	 "num_atms": 16, 
	 "gaussian": { 
		 "optdone": 1, 
		 "sigma_profile": "yes", 
		 "theory": "DFT", 
		 "functional": "B3LYP", 
		 "basiset": "6-31G**", 
		 "properties": { 
			 "R2extent": 3316.5106, 
			 "electric_dipole_moment_norm": 3.46111744672, 
			 "electric_quadrupole_moment_norm": 11.3026497544, 
			 "total_energy": -886.322554877, 
			 "HOMO_LUMO_gap": 0.17051, 
			 "cosmo_polarized_energy": -16.42, 
			 "cosmo_cavitation_energy": 24.86, 
			 "cosmo_dispersion_energy": -17.8, 
			 "cosmo_repulsion_energy": 1.38, 
			 "cosmo_total_nonelectrostatic_energy": 8.44, 
			 "SMD_solvation_energy": 4.85 
		},
		"coords": [
			{
				"x": -1.4333873789,
				"y": 1.1926963841,
				"z": -1.1492322794,
				"element": "N" 
			},
			{
				"x": -1.0506698906,
				"y": -0.0561412498,
				"z": -0.8101025308,
				"element": "C" 
			},
			{
				"x": -0.5301338955,
				"y": -0.9660972022,
				"z": -1.7844487133,
				"element": "C" 
			},
			{
				"x": -0.1575610627,
				"y": -2.235384172,
				"z": -1.3546394976,
				"element": "C" 
			},
			{
				"x": -0.293939923,
				"y": -2.5949677985,
				"z": -0.0083990365,
				"element": "C" 
			},
			{
				"x": 0.0857112778,
				"y": -3.8930617126,
				"z": 0.4383284674,
				"element": "C" 
			},
			{
				"x": 0.3896783668,
				"y": -4.9489118665,
				"z": 0.8255660201,
				"element": "N" 
			},
			{
				"x": -0.8225817273,
				"y": -1.615134599,
				"z": 0.8793969422,
				"element": "C" 
			},
			{
				"x": -1.0673925413,
				"y": -1.8849853487,
				"z": 2.6103417045,
				"element": "S" 
			},
			{
				"x": -1.1812936806,
				"y": -0.4009132614,
				"z": 0.4795429119,
				"element": "N" 
			},
			{
				"x": -0.4110547526,
				"y": -0.5525037805,
				"z": -3.1420077422,
				"element": "C" 
			},
			{
				"x": -0.3419248211,
				"y": -0.147129239,
				"z": -4.2320883981,
				"element": "N" 
			},
			{
				"x": -1.3672856057,
				"y": 1.5245089741,
				"z": -2.0982876562,
				"element": "H" 
			},
			{
				"x": -1.7948516547,
				"y": 1.7948692177,
				"z": -0.4267961123,
				"element": "H" 
			},
			{
				"x": 0.2408051634,
				"y": -2.9510114623,
				"z": -2.0654237148,
				"element": "H" 
			},
			{
				"x": -0.6153178743,
				"y": -3.1547328835,
				"z": 2.6388496351,
				"element": "H" 
			}
		],
		 "valence_orbital": [ 
			{
				"type": "occ",
				"energy": -0.34937,
				"method": "rhf"
			},
			{
				"type": "occ",
				"energy": -0.32042,
				"method": "rhf"
			},
			{
				"type": "occ",
				"energy": -0.30376,
				"method": "rhf"
			},
			{
				"type": "occ",
				"energy": -0.27876,
				"method": "rhf"
			},
			{
				"type": "occ",
				"energy": -0.24646,
				"method": "rhf"
			},
			{
				"type": "unocc",
				"energy": -0.07595,
				"method": "rhf"
			},
			{
				"type": "unocc",
				"energy": -0.06248,
				"method": "rhf"
			},
			{
				"type": "unocc",
				"energy": -0.00363,
				"method": "rhf"
			},
			{
				"type": "unocc",
				"energy": 0.00522,
				"method": "rhf"
			},
			{
				"type": "unocc",
				"energy": 0.02064,
				"method": "rhf"
			}
		],
		"cosmo_sigma_profile": { 
			"-0.025": 0.0,
			"-0.024": 0.0,
			"-0.023": 0.0,
			"-0.022": 0.0,
			"-0.021": 0.0,
			"-0.02": 0.0,
			"-0.019": 0.0,
			"-0.018": 0.0,
			"-0.017": 0.0,
			"-0.016": 0.169485265266,
			"-0.015": 1.75811148019,
			"-0.014": 2.12206512207,
			"-0.013": 2.2479905593,
			"-0.012": 2.01437822257,
			"-0.011": 3.63389708982,
			"-0.01": 5.43749452265,
			"-0.009": 6.31207073576,
			"-0.008": 4.75943063254,
			"-0.007": 5.44149260499,
			"-0.006": 5.80613929791,
			"-0.005": 8.18299526438,
			"-0.004": 11.0485966949,
			"-0.003": 14.6017521277,
			"-0.002": 16.7228883819,
			"-0.001": 12.5369926567,
			"0.0": 8.69489786384,
			"0.001": 10.0845862989,
			"0.002": 10.4009485789,
			"0.003": 9.59632607863,
			"0.004": 9.14309760836,
			"0.005": 8.59113018584,
			"0.006": 8.22126229585,
			"0.007": 6.70666666939,
			"0.008": 6.41386391155,
			"0.009": 6.62020662387,
			"0.01": 6.77298157419,
			"0.011": 5.27301038287,
			"0.012": 4.45002895232,
			"0.013": 1.32142284584,
			"0.014": 0.0,
			"0.015": 0.0,
			"0.016": 0.0,
			"0.017": 0.0,
			"0.018": 0.0,
			"0.019": 0.0,
			"0.02": 0.0,
			"0.021": 0.0,
			"0.022": 0.0,
			"0.023": 0.0,
			"0.024": 0.0,
			"0.025": 0.0
		}
	}
}
