{
	 "smiles": "CCC(=C)C(=O)C1=C(Cl)C(Cl)=C(OCC(O)=O)C=C1", 
	 "Tm": 395.15, 
	 "num_atms": 31, 
	 "gaussian": { 
		 "optdone": 1, 
		 "sigma_profile": "yes", 
		 "theory": "DFT", 
		 "functional": "B3LYP", 
		 "basiset": "6-31G**", 
		 "properties": { 
			 "R2extent": 7269.2425, 
			 "electric_dipole_moment_norm": 4.49075779129, 
			 "electric_quadrupole_moment_norm": 19.8985594499, 
			 "total_energy": -1723.85614831, 
			 "HOMO_LUMO_gap": 0.18447, 
			 "cosmo_polarized_energy": -17.24, 
			 "cosmo_cavitation_energy": 39.52, 
			 "cosmo_dispersion_energy": -26.72, 
			 "cosmo_repulsion_energy": 2.1, 
			 "cosmo_total_nonelectrostatic_energy": 14.9, 
			 "SMD_solvation_energy": 8.96 
		},
		"coords": [
			{
				"x": 3.2587431333,
				"y": -1.2888783731,
				"z": 0.6635982043,
				"element": "C" 
			},
			{
				"x": 2.1381670097,
				"y": -2.3055894257,
				"z": 0.3793727958,
				"element": "C" 
			},
			{
				"x": 2.0371050832,
				"y": -2.6674013392,
				"z": -1.0876760793,
				"element": "C" 
			},
			{
				"x": 2.3849913769,
				"y": -3.8694373027,
				"z": -1.5683849839,
				"element": "C" 
			},
			{
				"x": 1.5790303529,
				"y": -1.6390919613,
				"z": -2.0926583175,
				"element": "C" 
			},
			{
				"x": 1.938711694,
				"y": -1.6715669423,
				"z": -3.2566305131,
				"element": "O" 
			},
			{
				"x": 0.5789494296,
				"y": -0.5937134265,
				"z": -1.6416296897,
				"element": "C" 
			},
			{
				"x": 0.7470351833,
				"y": 0.7800141295,
				"z": -1.8832895825,
				"element": "C" 
			},
			{
				"x": 2.2357580209,
				"y": 1.3742481849,
				"z": -2.5724710683,
				"element": "Cl" 
			},
			{
				"x": -0.2688972511,
				"y": 1.6873841661,
				"z": -1.542284341,
				"element": "C" 
			},
			{
				"x": -0.0948217621,
				"y": 3.3945662045,
				"z": -1.8498884611,
				"element": "Cl" 
			},
			{
				"x": -1.4654301493,
				"y": 1.2201558172,
				"z": -0.9655940745,
				"element": "C" 
			},
			{
				"x": -2.4998281807,
				"y": 2.0812749315,
				"z": -0.6960923154,
				"element": "O" 
			},
			{
				"x": -2.4073208627,
				"y": 2.8563535718,
				"z": 0.491426376,
				"element": "C" 
			},
			{
				"x": -2.9406561609,
				"y": 2.1892902266,
				"z": 1.7543394613,
				"element": "C" 
			},
			{
				"x": -3.6144050063,
				"y": 1.0431026635,
				"z": 1.5289287406,
				"element": "O" 
			},
			{
				"x": -2.7947870225,
				"y": 2.67596125,
				"z": 2.8521885454,
				"element": "O" 
			},
			{
				"x": -1.6363914342,
				"y": -0.144710914,
				"z": -0.7382102897,
				"element": "C" 
			},
			{
				"x": -0.6189341956,
				"y": -1.0335682799,
				"z": -1.0653140172,
				"element": "C" 
			},
			{
				"x": 4.2315343593,
				"y": -1.6863412097,
				"z": 0.358380301,
				"element": "H" 
			},
			{
				"x": 3.3046602137,
				"y": -1.0538622253,
				"z": 1.7316547819,
				"element": "H" 
			},
			{
				"x": 3.0988028733,
				"y": -0.3509459042,
				"z": 0.121900438,
				"element": "H" 
			},
			{
				"x": 1.1872851509,
				"y": -1.8953694585,
				"z": 0.7378068029,
				"element": "H" 
			},
			{
				"x": 2.3201888444,
				"y": -3.2204895251,
				"z": 0.9537966555,
				"element": "H" 
			},
			{
				"x": 2.7300818498,
				"y": -4.6654717419,
				"z": -0.9146644521,
				"element": "H" 
			},
			{
				"x": 2.3326812072,
				"y": -4.0749900807,
				"z": -2.6325791542,
				"element": "H" 
			},
			{
				"x": -3.0095562794,
				"y": 3.7552370934,
				"z": 0.3259906151,
				"element": "H" 
			},
			{
				"x": -1.3835564897,
				"y": 3.182227787,
				"z": 0.6988209083,
				"element": "H" 
			},
			{
				"x": -3.918415406,
				"y": 0.7375926463,
				"z": 2.4010452499,
				"element": "H" 
			},
			{
				"x": -2.5699501493,
				"y": -0.4778743568,
				"z": -0.3017364505,
				"element": "H" 
			},
			{
				"x": -0.7562754327,
				"y": -2.0964062054,
				"z": -0.889546086,
				"element": "H" 
			}
		],
		 "valence_orbital": [ 
			{
				"type": "occ",
				"energy": -0.28482,
				"method": "rhf"
			},
			{
				"type": "occ",
				"energy": -0.27507,
				"method": "rhf"
			},
			{
				"type": "occ",
				"energy": -0.26221,
				"method": "rhf"
			},
			{
				"type": "occ",
				"energy": -0.25913,
				"method": "rhf"
			},
			{
				"type": "occ",
				"energy": -0.25265,
				"method": "rhf"
			},
			{
				"type": "unocc",
				"energy": -0.06818,
				"method": "rhf"
			},
			{
				"type": "unocc",
				"energy": -0.03494,
				"method": "rhf"
			},
			{
				"type": "unocc",
				"energy": -0.02697,
				"method": "rhf"
			},
			{
				"type": "unocc",
				"energy": -0.0101,
				"method": "rhf"
			},
			{
				"type": "unocc",
				"energy": -0.00335,
				"method": "rhf"
			}
		],
		"cosmo_sigma_profile": { 
			"-0.025": 0.0,
			"-0.024": 0.0,
			"-0.023": 0.0,
			"-0.022": 0.0,
			"-0.021": 0.0,
			"-0.02": 0.0,
			"-0.019": 0.452365107655,
			"-0.018": 0.889446585954,
			"-0.017": 1.15095868363,
			"-0.016": 0.716803615571,
			"-0.015": 0.977929449269,
			"-0.014": 0.552992346129,
			"-0.013": 0.35877594825,
			"-0.012": 0.482701229107,
			"-0.011": 1.03837844714,
			"-0.01": 0.62697370041,
			"-0.009": 3.060546782,
			"-0.008": 6.59849974219,
			"-0.007": 8.33644659816,
			"-0.006": 12.4463376933,
			"-0.005": 12.6152421994,
			"-0.004": 17.3224095372,
			"-0.003": 21.7619448471,
			"-0.002": 26.8836459548,
			"-0.001": 36.5390457452,
			"0.0": 35.9609118426,
			"0.001": 28.2077150936,
			"0.002": 18.2890580716,
			"0.003": 16.4039722352,
			"0.004": 15.5315220666,
			"0.005": 8.73056244549,
			"0.006": 5.1798341891,
			"0.007": 5.54398218954,
			"0.008": 5.75100332892,
			"0.009": 5.91914838498,
			"0.01": 6.46839523191,
			"0.011": 9.06972642663,
			"0.012": 4.6929331919,
			"0.013": 0.175139639459,
			"0.014": 0.0,
			"0.015": 0.0,
			"0.016": 0.0,
			"0.017": 0.0,
			"0.018": 0.0,
			"0.019": 0.0,
			"0.02": 0.0,
			"0.021": 0.0,
			"0.022": 0.0,
			"0.023": 0.0,
			"0.024": 0.0,
			"0.025": 0.0
		}
	}
}
