{
	 "smiles": "NCCC1=CC=CC(CCO)=C1", 
	 "Tm": 537.15, 
	 "num_atms": 27, 
	 "gaussian": { 
		 "optdone": 1, 
		 "sigma_profile": "yes", 
		 "theory": "DFT", 
		 "functional": "B3LYP", 
		 "basiset": "6-31G**", 
		 "properties": { 
			 "R2extent": 2826.4442, 
			 "electric_dipole_moment_norm": 0.604798991401, 
			 "electric_quadrupole_moment_norm": 11.3850966671, 
			 "total_energy": -520.071887856, 
			 "HOMO_LUMO_gap": 0.23314, 
			 "cosmo_polarized_energy": -12.87, 
			 "cosmo_cavitation_energy": 29.35, 
			 "cosmo_dispersion_energy": -20.71, 
			 "cosmo_repulsion_energy": 1.71, 
			 "cosmo_total_nonelectrostatic_energy": 10.35, 
			 "SMD_solvation_energy": 3.86 
		},
		"coords": [
			{
				"x": -2.0348441958,
				"y": 0.655497734,
				"z": -2.2579346117,
				"element": "N" 
			},
			{
				"x": -2.8623552867,
				"y": 0.2663384956,
				"z": -1.1158505792,
				"element": "C" 
			},
			{
				"x": -2.0357234473,
				"y": 0.2157233302,
				"z": 0.1845593937,
				"element": "C" 
			},
			{
				"x": -0.9598591298,
				"y": -0.848423717,
				"z": 0.1930360966,
				"element": "C" 
			},
			{
				"x": -1.2464203624,
				"y": -2.1428301777,
				"z": 0.6444581285,
				"element": "C" 
			},
			{
				"x": -0.2655768996,
				"y": -3.1341726955,
				"z": 0.6174216526,
				"element": "C" 
			},
			{
				"x": 1.0113178475,
				"y": -2.8410811513,
				"z": 0.139960908,
				"element": "C" 
			},
			{
				"x": 1.3275507025,
				"y": -1.5510790783,
				"z": -0.3085040526,
				"element": "C" 
			},
			{
				"x": 2.7318615212,
				"y": -1.25366583,
				"z": -0.8046196578,
				"element": "C" 
			},
			{
				"x": 2.8521715707,
				"y": -0.270842231,
				"z": -1.9776876555,
				"element": "C" 
			},
			{
				"x": 2.5883608483,
				"y": 1.0861013753,
				"z": -1.62948126,
				"element": "O" 
			},
			{
				"x": 0.3306678495,
				"y": -0.5670369637,
				"z": -0.2720985548,
				"element": "C" 
			},
			{
				"x": -1.7487101366,
				"y": 1.6276765777,
				"z": -2.1668576555,
				"element": "H" 
			},
			{
				"x": -2.570232664,
				"y": 0.5907299518,
				"z": -3.119379796,
				"element": "H" 
			},
			{
				"x": -3.2644730862,
				"y": -0.7339263146,
				"z": -1.3177551172,
				"element": "H" 
			},
			{
				"x": -3.7313593286,
				"y": 0.9274685812,
				"z": -0.9428336298,
				"element": "H" 
			},
			{
				"x": -2.7292837393,
				"y": 0.0481256431,
				"z": 1.0178025854,
				"element": "H" 
			},
			{
				"x": -1.5854088425,
				"y": 1.2036425737,
				"z": 0.3499180182,
				"element": "H" 
			},
			{
				"x": -2.2411488878,
				"y": -2.3749794505,
				"z": 1.0188817398,
				"element": "H" 
			},
			{
				"x": -0.4965149603,
				"y": -4.1368750703,
				"z": 0.9672585136,
				"element": "H" 
			},
			{
				"x": 1.7708789599,
				"y": -3.6194170615,
				"z": 0.1165561878,
				"element": "H" 
			},
			{
				"x": 3.3505165849,
				"y": -0.8703193601,
				"z": 0.0236703328,
				"element": "H" 
			},
			{
				"x": 3.2069714443,
				"y": -2.1963479029,
				"z": -1.104780913,
				"element": "H" 
			},
			{
				"x": 3.8570309166,
				"y": -0.3646032903,
				"z": -2.4196654071,
				"element": "H" 
			},
			{
				"x": 2.1246548488,
				"y": -0.521043814,
				"z": -2.7556396328,
				"element": "H" 
			},
			{
				"x": 3.2044702804,
				"y": 1.3305206135,
				"z": -0.9262364534,
				"element": "H" 
			},
			{
				"x": 0.5654575923,
				"y": 0.4309192327,
				"z": -0.6257985807,
				"element": "H" 
			}
		],
		 "valence_orbital": [ 
			{
				"type": "occ",
				"energy": -0.31345,
				"method": "rhf"
			},
			{
				"type": "occ",
				"energy": -0.26307,
				"method": "rhf"
			},
			{
				"type": "occ",
				"energy": -0.23128,
				"method": "rhf"
			},
			{
				"type": "occ",
				"energy": -0.22563,
				"method": "rhf"
			},
			{
				"type": "occ",
				"energy": -0.22089,
				"method": "rhf"
			},
			{
				"type": "unocc",
				"energy": 0.01225,
				"method": "rhf"
			},
			{
				"type": "unocc",
				"energy": 0.01399,
				"method": "rhf"
			},
			{
				"type": "unocc",
				"energy": 0.0781,
				"method": "rhf"
			},
			{
				"type": "unocc",
				"energy": 0.08942,
				"method": "rhf"
			},
			{
				"type": "unocc",
				"energy": 0.11211,
				"method": "rhf"
			}
		],
		"cosmo_sigma_profile": { 
			"-0.025": 0.0,
			"-0.024": 0.0,
			"-0.023": 0.0,
			"-0.022": 0.0,
			"-0.021": 0.0,
			"-0.02": 0.0,
			"-0.019": 0.0,
			"-0.018": 0.0,
			"-0.017": 0.0,
			"-0.016": 0.0549271859777,
			"-0.015": 0.738400546824,
			"-0.014": 1.09724015802,
			"-0.013": 1.23044289419,
			"-0.012": 0.374746972192,
			"-0.011": 1.07469072809,
			"-0.01": 1.92220781529,
			"-0.009": 3.45748771897,
			"-0.008": 3.72346937909,
			"-0.007": 3.93387136966,
			"-0.006": 4.38905181557,
			"-0.005": 8.90699336409,
			"-0.004": 18.8310529907,
			"-0.003": 27.0364929922,
			"-0.002": 26.5374722168,
			"-0.001": 25.703096566,
			"0.0": 17.7420745236,
			"0.001": 10.058749094,
			"0.002": 9.27613048533,
			"0.003": 9.03792352463,
			"0.004": 8.81895913227,
			"0.005": 7.8477698663,
			"0.006": 8.46663934583,
			"0.007": 8.3730100682,
			"0.008": 3.65288414572,
			"0.009": 1.98135618965,
			"0.01": 2.66830674657,
			"0.011": 1.55776112001,
			"0.012": 2.25233076696,
			"0.013": 1.80294115708,
			"0.014": 2.04884776333,
			"0.015": 1.58349098387,
			"0.016": 0.952908974846,
			"0.017": 0.612979230311,
			"0.018": 0.715655379333,
			"0.019": 0.0342182533957,
			"0.02": 0.0,
			"0.021": 0.0,
			"0.022": 0.0,
			"0.023": 0.0,
			"0.024": 0.0,
			"0.025": 0.0
		}
	}
}
