{
	 "smiles": "COC1=C(Cl)C(Cl)=C(Cl)C(Cl)=C1OC", 
	 "Tm": 363.15, 
	 "num_atms": 20, 
	 "gaussian": { 
		 "optdone": 1, 
		 "sigma_profile": "yes", 
		 "theory": "DFT", 
		 "functional": "B3LYP", 
		 "basiset": "6-31G**", 
		 "properties": { 
			 "R2extent": 4689.0397, 
			 "electric_dipole_moment_norm": 3.71149526471, 
			 "electric_quadrupole_moment_norm": 8.84522349124, 
			 "total_energy": -2299.624272, 
			 "HOMO_LUMO_gap": 0.20967, 
			 "cosmo_polarized_energy": -7.59, 
			 "cosmo_cavitation_energy": 30.48, 
			 "cosmo_dispersion_energy": -22.62, 
			 "cosmo_repulsion_energy": 1.77, 
			 "cosmo_total_nonelectrostatic_energy": 9.63, 
			 "SMD_solvation_energy": 5.96 
		},
		"coords": [
			{
				"x": -0.9475071359,
				"y": -0.1964760465,
				"z": 3.6815955717,
				"element": "C" 
			},
			{
				"x": -0.0750314775,
				"y": 0.6138583622,
				"z": 2.8841691611,
				"element": "O" 
			},
			{
				"x": 0.3210095647,
				"y": 0.0930516518,
				"z": 1.6901591581,
				"element": "C" 
			},
			{
				"x": 1.3945554125,
				"y": -0.808554882,
				"z": 1.6067154215,
				"element": "C" 
			},
			{
				"x": 2.1854009846,
				"y": -1.2958071913,
				"z": 3.0791639457,
				"element": "Cl" 
			},
			{
				"x": 1.8391531787,
				"y": -1.2831737633,
				"z": 0.3633694824,
				"element": "C" 
			},
			{
				"x": 3.158873575,
				"y": -2.410046358,
				"z": 0.2808134219,
				"element": "Cl" 
			},
			{
				"x": 1.220727093,
				"y": -0.8306358675,
				"z": -0.8149870683,
				"element": "C" 
			},
			{
				"x": 1.7711992911,
				"y": -1.3945350637,
				"z": -2.363322924,
				"element": "Cl" 
			},
			{
				"x": 0.1655029844,
				"y": 0.0907500281,
				"z": -0.7350612309,
				"element": "C" 
			},
			{
				"x": -0.574051712,
				"y": 0.7233674932,
				"z": -2.1785770975,
				"element": "Cl" 
			},
			{
				"x": -0.2985828633,
				"y": 0.5463314868,
				"z": 0.5097067669,
				"element": "C" 
			},
			{
				"x": -1.27470982,
				"y": 1.4913264918,
				"z": 0.5987256077,
				"element": "O" 
			},
			{
				"x": -2.6270889836,
				"y": 1.0319239577,
				"z": 0.4812963585,
				"element": "C" 
			},
			{
				"x": -0.4795177774,
				"y": -1.1486440329,
				"z": 3.9503072269,
				"element": "H" 
			},
			{
				"x": -1.8934402996,
				"y": -0.3881683156,
				"z": 3.1619522173,
				"element": "H" 
			},
			{
				"x": -1.1433474722,
				"y": 0.3793850974,
				"z": 4.5870822971,
				"element": "H" 
			},
			{
				"x": -3.2522106403,
				"y": 1.9215000638,
				"z": 0.5693899444,
				"element": "H" 
			},
			{
				"x": -2.8776799325,
				"y": 0.3313353968,
				"z": 1.286250355,
				"element": "H" 
			},
			{
				"x": -2.8079539697,
				"y": 0.554811491,
				"z": -0.4869486155,
				"element": "H" 
			}
		],
		 "valence_orbital": [ 
			{
				"type": "occ",
				"energy": -0.30847,
				"method": "rhf"
			},
			{
				"type": "occ",
				"energy": -0.29689,
				"method": "rhf"
			},
			{
				"type": "occ",
				"energy": -0.2953,
				"method": "rhf"
			},
			{
				"type": "occ",
				"energy": -0.25289,
				"method": "rhf"
			},
			{
				"type": "occ",
				"energy": -0.2516,
				"method": "rhf"
			},
			{
				"type": "unocc",
				"energy": -0.04193,
				"method": "rhf"
			},
			{
				"type": "unocc",
				"energy": -0.03584,
				"method": "rhf"
			},
			{
				"type": "unocc",
				"energy": -0.03457,
				"method": "rhf"
			},
			{
				"type": "unocc",
				"energy": 0.02291,
				"method": "rhf"
			},
			{
				"type": "unocc",
				"energy": 0.05283,
				"method": "rhf"
			}
		],
		"cosmo_sigma_profile": { 
			"-0.025": 0.0,
			"-0.024": 0.0,
			"-0.023": 0.0,
			"-0.022": 0.0,
			"-0.021": 0.0,
			"-0.02": 0.0,
			"-0.019": 0.0,
			"-0.018": 0.0,
			"-0.017": 0.0,
			"-0.016": 0.0,
			"-0.015": 0.0,
			"-0.014": 0.0,
			"-0.013": 0.0,
			"-0.012": 0.0,
			"-0.011": 0.0,
			"-0.01": 0.0544272373997,
			"-0.009": 0.235993064752,
			"-0.008": 0.870303574486,
			"-0.007": 3.26019724663,
			"-0.006": 7.67455099199,
			"-0.005": 11.5265464261,
			"-0.004": 23.2535128084,
			"-0.003": 25.6722558457,
			"-0.002": 25.1453187044,
			"-0.001": 26.8691591061,
			"0.0": 19.6909337158,
			"0.001": 16.6069720011,
			"0.002": 21.0131658811,
			"0.003": 30.9440099859,
			"0.004": 19.5702640927,
			"0.005": 4.69889383115,
			"0.006": 2.32449933197,
			"0.007": 2.98808595067,
			"0.008": 2.6315427877,
			"0.009": 2.73871236911,
			"0.01": 2.90235164474,
			"0.011": 1.69185740441,
			"0.012": 0.425878614589,
			"0.013": 0.0,
			"0.014": 0.0,
			"0.015": 0.0,
			"0.016": 0.0,
			"0.017": 0.0,
			"0.018": 0.0,
			"0.019": 0.0,
			"0.02": 0.0,
			"0.021": 0.0,
			"0.022": 0.0,
			"0.023": 0.0,
			"0.024": 0.0,
			"0.025": 0.0
		}
	}
}
