{
	 "smiles": "NC1=NC2=C(O1)C(Cl)=CC(Cl)=C2", 
	 "Tm": 521.15, 
	 "num_atms": 16, 
	 "gaussian": { 
		 "optdone": 1, 
		 "sigma_profile": "yes", 
		 "theory": "DFT", 
		 "functional": "B3LYP", 
		 "basiset": "6-31G**", 
		 "properties": { 
			 "R2extent": 3269.0984, 
			 "electric_dipole_moment_norm": 4.00791847472, 
			 "electric_quadrupole_moment_norm": 12.5492679536, 
			 "total_energy": -1374.26932498, 
			 "HOMO_LUMO_gap": 0.20089, 
			 "cosmo_polarized_energy": -10.92, 
			 "cosmo_cavitation_energy": 24.8, 
			 "cosmo_dispersion_energy": -19.02, 
			 "cosmo_repulsion_energy": 1.53, 
			 "cosmo_total_nonelectrostatic_energy": 7.31, 
			 "SMD_solvation_energy": 2.06 
		},
		"coords": [
			{
				"x": 1.0207569785,
				"y": -0.962078714,
				"z": -3.1988598399,
				"element": "N" 
			},
			{
				"x": 0.8230483686,
				"y": -0.7652139632,
				"z": -1.8710288184,
				"element": "C" 
			},
			{
				"x": 1.6247462038,
				"y": -0.1999025022,
				"z": -1.0176984781,
				"element": "N" 
			},
			{
				"x": 0.9534581506,
				"y": -0.3288884544,
				"z": 0.1973066901,
				"element": "C" 
			},
			{
				"x": -0.2667050711,
				"y": -0.9875796446,
				"z": -0.0245137492,
				"element": "C" 
			},
			{
				"x": -0.3514050754,
				"y": -1.2722867137,
				"z": -1.3683486323,
				"element": "O" 
			},
			{
				"x": -1.1692300572,
				"y": -1.2602621131,
				"z": 0.9863479052,
				"element": "C" 
			},
			{
				"x": -2.6769702779,
				"y": -2.0792841803,
				"z": 0.6651627969,
				"element": "Cl" 
			},
			{
				"x": -0.8273241388,
				"y": -0.8538103848,
				"z": 2.2808453835,
				"element": "C" 
			},
			{
				"x": 0.3912512292,
				"y": -0.1977369884,
				"z": 2.499925119,
				"element": "C" 
			},
			{
				"x": 0.7797834536,
				"y": 0.2954260683,
				"z": 4.1434250626,
				"element": "Cl" 
			},
			{
				"x": 1.305689036,
				"y": 0.0817764808,
				"z": 1.4828189161,
				"element": "C" 
			},
			{
				"x": 0.2043657581,
				"y": -1.125008125,
				"z": -3.7685179879,
				"element": "H" 
			},
			{
				"x": 1.7615405411,
				"y": -0.4161105979,
				"z": -3.6116576885,
				"element": "H" 
			},
			{
				"x": -1.5026494014,
				"y": -1.047571662,
				"z": 3.1043375422,
				"element": "H" 
			},
			{
				"x": 2.2402443025,
				"y": 0.5909314945,
				"z": 1.6811557786,
				"element": "H" 
			}
		],
		 "valence_orbital": [ 
			{
				"type": "occ",
				"energy": -0.31398,
				"method": "rhf"
			},
			{
				"type": "occ",
				"energy": -0.30019,
				"method": "rhf"
			},
			{
				"type": "occ",
				"energy": -0.29273,
				"method": "rhf"
			},
			{
				"type": "occ",
				"energy": -0.24408,
				"method": "rhf"
			},
			{
				"type": "occ",
				"energy": -0.22852,
				"method": "rhf"
			},
			{
				"type": "unocc",
				"energy": -0.02763,
				"method": "rhf"
			},
			{
				"type": "unocc",
				"energy": -0.00879,
				"method": "rhf"
			},
			{
				"type": "unocc",
				"energy": 0.0055,
				"method": "rhf"
			},
			{
				"type": "unocc",
				"energy": 0.04035,
				"method": "rhf"
			},
			{
				"type": "unocc",
				"energy": 0.04805,
				"method": "rhf"
			}
		],
		"cosmo_sigma_profile": { 
			"-0.025": 0.0,
			"-0.024": 0.0,
			"-0.023": 0.0,
			"-0.022": 0.0,
			"-0.021": 0.0,
			"-0.02": 0.0,
			"-0.019": 0.0,
			"-0.018": 0.0,
			"-0.017": 0.0,
			"-0.016": 0.747816402921,
			"-0.015": 2.61025641191,
			"-0.014": 2.41901512038,
			"-0.013": 2.62172847683,
			"-0.012": 2.70687744376,
			"-0.011": 1.70029090634,
			"-0.01": 1.22683033423,
			"-0.009": 2.29558296352,
			"-0.008": 4.23689420632,
			"-0.007": 4.23679070875,
			"-0.006": 4.41360489356,
			"-0.005": 4.48588739374,
			"-0.004": 6.42102282541,
			"-0.003": 8.77828657994,
			"-0.002": 10.63686791,
			"-0.001": 12.1508010416,
			"0.0": 19.482104171,
			"0.001": 24.3368814802,
			"0.002": 25.3469168413,
			"0.003": 19.4092404829,
			"0.004": 21.8391457375,
			"0.005": 8.04121012059,
			"0.006": 3.23170922011,
			"0.007": 1.97048647565,
			"0.008": 1.42432498707,
			"0.009": 1.46019440548,
			"0.01": 1.18153973273,
			"0.011": 0.711227402999,
			"0.012": 1.45300357694,
			"0.013": 0.892491432219,
			"0.014": 0.826431903285,
			"0.015": 0.915631449237,
			"0.016": 0.24377406053,
			"0.017": 0.0,
			"0.018": 0.0,
			"0.019": 0.0,
			"0.02": 0.0,
			"0.021": 0.0,
			"0.022": 0.0,
			"0.023": 0.0,
			"0.024": 0.0,
			"0.025": 0.0
		}
	}
}
