{
	 "smiles": "FC1=CC(Br)=CN=C1", 
	 "Tm": 299.15, 
	 "num_atms": 11, 
	 "gaussian": { 
		 "optdone": 1, 
		 "sigma_profile": "yes", 
		 "theory": "DFT", 
		 "functional": "B3LYP", 
		 "basiset": "6-31G**", 
		 "properties": { 
			 "R2extent": 2398.2371, 
			 "electric_dipole_moment_norm": 0.888238408312, 
			 "electric_quadrupole_moment_norm": 1.68504314188, 
			 "total_energy": -2918.31563789, 
			 "HOMO_LUMO_gap": 0.21298, 
			 "cosmo_polarized_energy": -4.58, 
			 "cosmo_cavitation_energy": 18.42, 
			 "cosmo_dispersion_energy": -14.1, 
			 "cosmo_repulsion_energy": 1.14, 
			 "cosmo_total_nonelectrostatic_energy": 5.46, 
			 "SMD_solvation_energy": 1.31 
		},
		"coords": [
			{
				"x": 0.5969063601,
				"y": -2.6115519761,
				"z": 0.7745657273,
				"element": "F" 
			},
			{
				"x": 0.722259415,
				"y": -1.4317458543,
				"z": 0.1443628516,
				"element": "C" 
			},
			{
				"x": 1.5423279941,
				"y": -0.4498039611,
				"z": 0.6855035544,
				"element": "C" 
			},
			{
				"x": 1.6268140098,
				"y": 0.7483932952,
				"z": -0.0183156515,
				"element": "C" 
			},
			{
				"x": 2.7223670779,
				"y": 2.1648430775,
				"z": 0.631652358,
				"element": "Br" 
			},
			{
				"x": 0.9068272863,
				"y": 0.9134935289,
				"z": -1.2045646173,
				"element": "C" 
			},
			{
				"x": 0.1248781889,
				"y": -0.0487942139,
				"z": -1.7025444699,
				"element": "N" 
			},
			{
				"x": 0.0295964941,
				"y": -1.2065895055,
				"z": -1.042863928,
				"element": "C" 
			},
			{
				"x": 2.0825274006,
				"y": -0.6215104084,
				"z": 1.6086389076,
				"element": "H" 
			},
			{
				"x": 0.9664904632,
				"y": 1.8446768808,
				"z": -1.760461378,
				"element": "H" 
			},
			{
				"x": -0.6094946899,
				"y": -1.9817108631,
				"z": -1.4578733541,
				"element": "H" 
			}
		],
		 "valence_orbital": [ 
			{
				"type": "occ",
				"energy": -0.34276,
				"method": "rhf"
			},
			{
				"type": "occ",
				"energy": -0.30537,
				"method": "rhf"
			},
			{
				"type": "occ",
				"energy": -0.29169,
				"method": "rhf"
			},
			{
				"type": "occ",
				"energy": -0.27586,
				"method": "rhf"
			},
			{
				"type": "occ",
				"energy": -0.26111,
				"method": "rhf"
			},
			{
				"type": "unocc",
				"energy": -0.04813,
				"method": "rhf"
			},
			{
				"type": "unocc",
				"energy": -0.02725,
				"method": "rhf"
			},
			{
				"type": "unocc",
				"energy": -0.00888,
				"method": "rhf"
			},
			{
				"type": "unocc",
				"energy": 0.10432,
				"method": "rhf"
			},
			{
				"type": "unocc",
				"energy": 0.12488,
				"method": "rhf"
			}
		],
		"cosmo_sigma_profile": { 
			"-0.025": 0.0,
			"-0.024": 0.0,
			"-0.023": 0.0,
			"-0.022": 0.0,
			"-0.021": 0.0,
			"-0.02": 0.0,
			"-0.019": 0.0,
			"-0.018": 0.0,
			"-0.017": 0.0,
			"-0.016": 0.0,
			"-0.015": 0.0,
			"-0.014": 0.0,
			"-0.013": 0.0,
			"-0.012": 0.0,
			"-0.011": 0.0,
			"-0.01": 0.657595936595,
			"-0.009": 2.01128017593,
			"-0.008": 3.89945061547,
			"-0.007": 4.64554750273,
			"-0.006": 4.90875795976,
			"-0.005": 6.33610855736,
			"-0.004": 6.27578669274,
			"-0.003": 7.50121481661,
			"-0.002": 15.5617656245,
			"-0.001": 19.1524128445,
			"0.0": 16.5252600418,
			"0.001": 10.6407453676,
			"0.002": 10.3302726556,
			"0.003": 20.3443668106,
			"0.004": 12.6279438286,
			"0.005": 1.00846833437,
			"0.006": 1.70703763685,
			"0.007": 1.55049087006,
			"0.008": 0.641516801973,
			"0.009": 0.867779024744,
			"0.01": 1.25153818866,
			"0.011": 0.659644709344,
			"0.012": 1.06623044297,
			"0.013": 0.987618339181,
			"0.014": 0.726193571835,
			"0.015": 0.506105894551,
			"0.016": 0.0,
			"0.017": 0.0,
			"0.018": 0.0,
			"0.019": 0.0,
			"0.02": 0.0,
			"0.021": 0.0,
			"0.022": 0.0,
			"0.023": 0.0,
			"0.024": 0.0,
			"0.025": 0.0
		}
	}
}
