{
	 "smiles": "NC1=C(C=C(NC(=O)C2=COC=C2)C=C1)C(F)(F)F", 
	 "Tm": 395.15, 
	 "num_atms": 28, 
	 "gaussian": { 
		 "optdone": 1, 
		 "sigma_profile": "yes", 
		 "theory": "DFT", 
		 "functional": "B3LYP", 
		 "basiset": "6-31G**", 
		 "properties": { 
			 "R2extent": 5306.2353, 
			 "electric_dipole_moment_norm": 5.12849848884, 
			 "electric_quadrupole_moment_norm": 12.5911872494, 
			 "total_energy": -1022.16399353, 
			 "HOMO_LUMO_gap": 0.18157, 
			 "cosmo_polarized_energy": -15.93, 
			 "cosmo_cavitation_energy": 34.38, 
			 "cosmo_dispersion_energy": -23.52, 
			 "cosmo_repulsion_energy": 1.76, 
			 "cosmo_total_nonelectrostatic_energy": 12.62, 
			 "SMD_solvation_energy": 8.82 
		},
		"coords": [
			{
				"x": 2.0703855681,
				"y": -3.1487462126,
				"z": 0.365738338,
				"element": "N" 
			},
			{
				"x": 1.5723749318,
				"y": -2.0193605563,
				"z": -0.25976806,
				"element": "C" 
			},
			{
				"x": 1.5113847364,
				"y": -0.7620496688,
				"z": 0.3896149653,
				"element": "C" 
			},
			{
				"x": 1.0591483707,
				"y": 0.3687518069,
				"z": -0.2915348473,
				"element": "C" 
			},
			{
				"x": 0.6240708685,
				"y": 0.2881749785,
				"z": -1.6159866124,
				"element": "C" 
			},
			{
				"x": 0.1749247984,
				"y": 1.4351217718,
				"z": -2.3275222624,
				"element": "N" 
			},
			{
				"x": -0.7151966135,
				"y": 2.4202790689,
				"z": -1.9381898567,
				"element": "C" 
			},
			{
				"x": -0.713202064,
				"y": 3.5057384912,
				"z": -2.5125919907,
				"element": "O" 
			},
			{
				"x": -1.6955721113,
				"y": 2.1265457688,
				"z": -0.8642754778,
				"element": "C" 
			},
			{
				"x": -2.408715423,
				"y": 3.1283732382,
				"z": -0.2629523937,
				"element": "C" 
			},
			{
				"x": -3.2831918689,
				"y": 2.6243111282,
				"z": 0.6368310281,
				"element": "O" 
			},
			{
				"x": -3.1444685417,
				"y": 1.2624609096,
				"z": 0.6080122389,
				"element": "C" 
			},
			{
				"x": -2.1896138948,
				"y": 0.8993450217,
				"z": -0.2863326157,
				"element": "C" 
			},
			{
				"x": 0.6827952302,
				"y": -0.9532281835,
				"z": -2.2631671746,
				"element": "C" 
			},
			{
				"x": 1.1546172586,
				"y": -2.0794449857,
				"z": -1.602893604,
				"element": "C" 
			},
			{
				"x": 1.995469639,
				"y": -0.6242247661,
				"z": 1.8042893334,
				"element": "C" 
			},
			{
				"x": 1.7541122833,
				"y": 0.5946123509,
				"z": 2.3204152297,
				"element": "F" 
			},
			{
				"x": 1.3915765392,
				"y": -1.5306389305,
				"z": 2.6331135892,
				"element": "F" 
			},
			{
				"x": 3.3238488539,
				"y": -0.8543690489,
				"z": 1.9156976168,
				"element": "F" 
			},
			{
				"x": 2.0256937831,
				"y": -3.1726281636,
				"z": 1.3734327493,
				"element": "H" 
			},
			{
				"x": 1.8446353383,
				"y": -4.0298592885,
				"z": -0.0713206169,
				"element": "H" 
			},
			{
				"x": 1.0413616939,
				"y": 1.3221900733,
				"z": 0.2221904835,
				"element": "H" 
			},
			{
				"x": 0.7324455306,
				"y": 1.7385643588,
				"z": -3.1178739133,
				"element": "H" 
			},
			{
				"x": -2.3909351941,
				"y": 4.1993040122,
				"z": -0.3859887112,
				"element": "H" 
			},
			{
				"x": -3.7904349158,
				"y": 0.7111005291,
				"z": 1.273037946,
				"element": "H" 
			},
			{
				"x": -1.8809480233,
				"y": -0.1079216809,
				"z": -0.5173591659,
				"element": "H" 
			},
			{
				"x": 0.3455388902,
				"y": -1.0308354288,
				"z": -3.292676796,
				"element": "H" 
			},
			{
				"x": 1.1956943362,
				"y": -3.0321665938,
				"z": -2.1241394197,
				"element": "H" 
			}
		],
		 "valence_orbital": [ 
			{
				"type": "occ",
				"energy": -0.27434,
				"method": "rhf"
			},
			{
				"type": "occ",
				"energy": -0.26968,
				"method": "rhf"
			},
			{
				"type": "occ",
				"energy": -0.25233,
				"method": "rhf"
			},
			{
				"type": "occ",
				"energy": -0.23363,
				"method": "rhf"
			},
			{
				"type": "occ",
				"energy": -0.21544,
				"method": "rhf"
			},
			{
				"type": "unocc",
				"energy": -0.03387,
				"method": "rhf"
			},
			{
				"type": "unocc",
				"energy": -0.02202,
				"method": "rhf"
			},
			{
				"type": "unocc",
				"energy": -0.00404,
				"method": "rhf"
			},
			{
				"type": "unocc",
				"energy": 0.02451,
				"method": "rhf"
			},
			{
				"type": "unocc",
				"energy": 0.07377,
				"method": "rhf"
			}
		],
		"cosmo_sigma_profile": { 
			"-0.025": 0.0,
			"-0.024": 0.0,
			"-0.023": 0.0,
			"-0.022": 0.0,
			"-0.021": 0.0,
			"-0.02": 0.0,
			"-0.019": 0.0,
			"-0.018": 0.0,
			"-0.017": 0.0,
			"-0.016": 0.0,
			"-0.015": 0.0,
			"-0.014": 0.877983155995,
			"-0.013": 2.35177354499,
			"-0.012": 2.59609747107,
			"-0.011": 3.70414353305,
			"-0.01": 4.69770599884,
			"-0.009": 6.06107364145,
			"-0.008": 6.07968851069,
			"-0.007": 8.8295810307,
			"-0.006": 10.7326663717,
			"-0.005": 11.4266725843,
			"-0.004": 11.7219916287,
			"-0.003": 12.0769285588,
			"-0.002": 14.0948430702,
			"-0.001": 14.5837634559,
			"0.0": 20.1141212393,
			"0.001": 26.068300652,
			"0.002": 35.4473762529,
			"0.003": 38.732689271,
			"0.004": 12.2167318781,
			"0.005": 5.08162329465,
			"0.006": 4.37158330166,
			"0.007": 3.07871625565,
			"0.008": 3.48346630399,
			"0.009": 2.06064596984,
			"0.01": 1.92875309125,
			"0.011": 2.5059030554,
			"0.012": 2.0683269879,
			"0.013": 4.83867651879,
			"0.014": 3.76499378453,
			"0.015": 0.0743216265647,
			"0.016": 0.0,
			"0.017": 0.0,
			"0.018": 0.0,
			"0.019": 0.0,
			"0.02": 0.0,
			"0.021": 0.0,
			"0.022": 0.0,
			"0.023": 0.0,
			"0.024": 0.0,
			"0.025": 0.0
		}
	}
}
