{
	 "smiles": "CCN1C=CN=C(Cl)C1=O", 
	 "Tm": 326.15, 
	 "num_atms": 17, 
	 "gaussian": { 
		 "optdone": 1, 
		 "sigma_profile": "yes", 
		 "theory": "DFT", 
		 "functional": "B3LYP", 
		 "basiset": "6-31G**", 
		 "properties": { 
			 "R2extent": 2989.3849, 
			 "electric_dipole_moment_norm": 5.61064925298, 
			 "electric_quadrupole_moment_norm": 10.9462154725, 
			 "total_energy": -877.772547621, 
			 "HOMO_LUMO_gap": 0.16632, 
			 "cosmo_polarized_energy": -13.84, 
			 "cosmo_cavitation_energy": 22.77, 
			 "cosmo_dispersion_energy": -16.91, 
			 "cosmo_repulsion_energy": 1.37, 
			 "cosmo_total_nonelectrostatic_energy": 7.24, 
			 "SMD_solvation_energy": 3.33 
		},
		"coords": [
			{
				"x": 0.5094012142,
				"y": -1.1651772999,
				"z": -0.6368881524,
				"element": "C" 
			},
			{
				"x": -0.4943701377,
				"y": -0.0590964591,
				"z": -0.310848054,
				"element": "C" 
			},
			{
				"x": -0.0788552347,
				"y": 0.751960587,
				"z": 0.8483734507,
				"element": "N" 
			},
			{
				"x": -0.5671862742,
				"y": 0.4942663289,
				"z": 2.1008988824,
				"element": "C" 
			},
			{
				"x": -0.1586195091,
				"y": 1.2375963143,
				"z": 3.1666933217,
				"element": "C" 
			},
			{
				"x": 0.7441007,
				"y": 2.256209474,
				"z": 3.0204384122,
				"element": "N" 
			},
			{
				"x": 1.2085984283,
				"y": 2.502390567,
				"z": 1.8434538468,
				"element": "C" 
			},
			{
				"x": 2.35785933,
				"y": 3.8012389615,
				"z": 1.6384063059,
				"element": "Cl" 
			},
			{
				"x": 0.8642334719,
				"y": 1.7696063245,
				"z": 0.6070023982,
				"element": "C" 
			},
			{
				"x": 1.311415779,
				"y": 1.9800038789,
				"z": -0.5115187668,
				"element": "O" 
			},
			{
				"x": 0.6308272516,
				"y": -1.8534283814,
				"z": 0.2054653639,
				"element": "H" 
			},
			{
				"x": 0.1588381349,
				"y": -1.7387205953,
				"z": -1.5004351761,
				"element": "H" 
			},
			{
				"x": 1.4807663327,
				"y": -0.7316433708,
				"z": -0.8841270493,
				"element": "H" 
			},
			{
				"x": -0.5890843482,
				"y": 0.6256520789,
				"z": -1.1556360481,
				"element": "H" 
			},
			{
				"x": -1.4809478404,
				"y": -0.4706810964,
				"z": -0.0808400104,
				"element": "H" 
			},
			{
				"x": -1.2840775429,
				"y": -0.3146936655,
				"z": 2.185314976,
				"element": "H" 
			},
			{
				"x": -0.5365997554,
				"y": 1.0507163535,
				"z": 4.1646462995,
				"element": "H" 
			}
		],
		 "valence_orbital": [ 
			{
				"type": "occ",
				"energy": -0.31255,
				"method": "rhf"
			},
			{
				"type": "occ",
				"energy": -0.31018,
				"method": "rhf"
			},
			{
				"type": "occ",
				"energy": -0.30769,
				"method": "rhf"
			},
			{
				"type": "occ",
				"energy": -0.25908,
				"method": "rhf"
			},
			{
				"type": "occ",
				"energy": -0.23283,
				"method": "rhf"
			},
			{
				"type": "unocc",
				"energy": -0.06651,
				"method": "rhf"
			},
			{
				"type": "unocc",
				"energy": -0.00947,
				"method": "rhf"
			},
			{
				"type": "unocc",
				"energy": 0.0405,
				"method": "rhf"
			},
			{
				"type": "unocc",
				"energy": 0.07237,
				"method": "rhf"
			},
			{
				"type": "unocc",
				"energy": 0.10062,
				"method": "rhf"
			}
		],
		"cosmo_sigma_profile": { 
			"-0.025": 0.0,
			"-0.024": 0.0,
			"-0.023": 0.0,
			"-0.022": 0.0,
			"-0.021": 0.0,
			"-0.02": 0.0,
			"-0.019": 0.0,
			"-0.018": 0.0,
			"-0.017": 0.0,
			"-0.016": 0.0,
			"-0.015": 0.0,
			"-0.014": 0.0,
			"-0.013": 0.0,
			"-0.012": 0.0,
			"-0.011": 1.00430892182,
			"-0.01": 3.31030670395,
			"-0.009": 3.3842780714,
			"-0.008": 4.92053440586,
			"-0.007": 5.15030224341,
			"-0.006": 6.35740926195,
			"-0.005": 10.9803690726,
			"-0.004": 17.2162613543,
			"-0.003": 17.1373647207,
			"-0.002": 14.2804838086,
			"-0.001": 13.8574135799,
			"0.0": 14.2872892467,
			"0.001": 11.0124264557,
			"0.002": 7.37368488146,
			"0.003": 7.26270091265,
			"0.004": 11.2762254468,
			"0.005": 5.59232951003,
			"0.006": 5.11900628055,
			"0.007": 3.52328257537,
			"0.008": 2.70169894182,
			"0.009": 2.52728546909,
			"0.01": 2.87071986105,
			"0.011": 3.28353189947,
			"0.012": 4.36208633968,
			"0.013": 4.34724506819,
			"0.014": 0.842140634019,
			"0.015": 0.0,
			"0.016": 0.0,
			"0.017": 0.0,
			"0.018": 0.0,
			"0.019": 0.0,
			"0.02": 0.0,
			"0.021": 0.0,
			"0.022": 0.0,
			"0.023": 0.0,
			"0.024": 0.0,
			"0.025": 0.0
		}
	}
}
