{
	 "smiles": "CC(=O)C1=CC=C(S1)C(O)=O", 
	 "Tm": 483.15, 
	 "num_atms": 17, 
	 "gaussian": { 
		 "optdone": 1, 
		 "sigma_profile": "yes", 
		 "theory": "DFT", 
		 "functional": "B3LYP", 
		 "basiset": "6-31G**", 
		 "properties": { 
			 "R2extent": 3031.9637, 
			 "electric_dipole_moment_norm": 2.27417164919, 
			 "electric_quadrupole_moment_norm": 27.7592365839, 
			 "total_energy": -894.213201396, 
			 "HOMO_LUMO_gap": 0.17242, 
			 "cosmo_polarized_energy": -17.48, 
			 "cosmo_cavitation_energy": 23.85, 
			 "cosmo_dispersion_energy": -17.89, 
			 "cosmo_repulsion_energy": 1.39, 
			 "cosmo_total_nonelectrostatic_energy": 7.34, 
			 "SMD_solvation_energy": 5.94 
		},
		"coords": [
			{
				"x": 2.3593588772,
				"y": -0.1621976239,
				"z": 1.2068055562,
				"element": "C" 
			},
			{
				"x": 1.0570695463,
				"y": -0.8163113935,
				"z": 0.7908725443,
				"element": "C" 
			},
			{
				"x": 0.5567867985,
				"y": -1.7297565107,
				"z": 1.427966913,
				"element": "O" 
			},
			{
				"x": 0.3733129433,
				"y": -0.3227147359,
				"z": -0.4354980995,
				"element": "C" 
			},
			{
				"x": -0.8131538645,
				"y": -0.8299862203,
				"z": -0.9274359948,
				"element": "C" 
			},
			{
				"x": -1.2417633895,
				"y": -0.176953314,
				"z": -2.1045816904,
				"element": "C" 
			},
			{
				"x": -0.3825948702,
				"y": 0.8288355816,
				"z": -2.5061443365,
				"element": "C" 
			},
			{
				"x": 0.9745123085,
				"y": 0.969960801,
				"z": -1.4339917263,
				"element": "S" 
			},
			{
				"x": -0.435612959,
				"y": 1.7438508428,
				"z": -3.6712314398,
				"element": "C" 
			},
			{
				"x": -1.5605089064,
				"y": 1.7046193578,
				"z": -4.4287887996,
				"element": "O" 
			},
			{
				"x": 0.468187296,
				"y": 2.4964562028,
				"z": -3.9532931477,
				"element": "O" 
			},
			{
				"x": 2.7213152771,
				"y": -0.6387438372,
				"z": 2.1181254438,
				"element": "H" 
			},
			{
				"x": 2.2165662564,
				"y": 0.9094015197,
				"z": 1.3868641393,
				"element": "H" 
			},
			{
				"x": 3.113845048,
				"y": -0.2620015108,
				"z": 0.4181553026,
				"element": "H" 
			},
			{
				"x": -1.3315571559,
				"y": -1.6451399211,
				"z": -0.4379235874,
				"element": "H" 
			},
			{
				"x": -2.1451722846,
				"y": -0.4588122041,
				"z": -2.6371707379,
				"element": "H" 
			},
			{
				"x": -2.2237909212,
				"y": 1.1187929657,
				"z": -4.0391303394,
				"element": "H" 
			}
		],
		 "valence_orbital": [ 
			{
				"type": "occ",
				"energy": -0.32884,
				"method": "rhf"
			},
			{
				"type": "occ",
				"energy": -0.28992,
				"method": "rhf"
			},
			{
				"type": "occ",
				"energy": -0.28463,
				"method": "rhf"
			},
			{
				"type": "occ",
				"energy": -0.26755,
				"method": "rhf"
			},
			{
				"type": "occ",
				"energy": -0.26679,
				"method": "rhf"
			},
			{
				"type": "unocc",
				"energy": -0.09437,
				"method": "rhf"
			},
			{
				"type": "unocc",
				"energy": -0.0257,
				"method": "rhf"
			},
			{
				"type": "unocc",
				"energy": 0.0078,
				"method": "rhf"
			},
			{
				"type": "unocc",
				"energy": 0.03947,
				"method": "rhf"
			},
			{
				"type": "unocc",
				"energy": 0.04984,
				"method": "rhf"
			}
		],
		"cosmo_sigma_profile": { 
			"-0.025": 0.0,
			"-0.024": 0.0,
			"-0.023": 0.0,
			"-0.022": 0.0,
			"-0.021": 0.0,
			"-0.02": 0.223299954082,
			"-0.019": 1.15228642467,
			"-0.018": 1.05280935904,
			"-0.017": 0.934505477022,
			"-0.016": 1.07427443554,
			"-0.015": 0.712751519414,
			"-0.014": 1.57067569481,
			"-0.013": 1.50775578551,
			"-0.012": 1.27138824956,
			"-0.011": 0.689172978788,
			"-0.01": 1.63315656394,
			"-0.009": 1.33162717846,
			"-0.008": 3.36946063691,
			"-0.007": 7.66036509383,
			"-0.006": 10.4346657743,
			"-0.005": 10.1858273355,
			"-0.004": 11.3584977667,
			"-0.003": 11.0395961671,
			"-0.002": 13.7600337064,
			"-0.001": 13.6491105083,
			"0.0": 15.3863630154,
			"0.001": 17.0760087201,
			"0.002": 10.6084203553,
			"0.003": 4.45192049928,
			"0.004": 4.61381842362,
			"0.005": 3.56452420459,
			"0.006": 4.23414792312,
			"0.007": 3.76075879434,
			"0.008": 5.46162636834,
			"0.009": 5.96366258532,
			"0.01": 7.34061143456,
			"0.011": 9.86057327368,
			"0.012": 5.03653134065,
			"0.013": 0.971126536743,
			"0.014": 0.0,
			"0.015": 0.0,
			"0.016": 0.0,
			"0.017": 0.0,
			"0.018": 0.0,
			"0.019": 0.0,
			"0.02": 0.0,
			"0.021": 0.0,
			"0.022": 0.0,
			"0.023": 0.0,
			"0.024": 0.0,
			"0.025": 0.0
		}
	}
}
