{
	 "smiles": "[O-]S(=O)(=O)CCC[N+]1=C(SCC1)C=CNC1=CC=CC=C1", 
	 "Tm": 448.15, 
	 "num_atms": 39, 
	 "gaussian": { 
		 "optdone": 1, 
		 "sigma_profile": "yes", 
		 "theory": "DFT", 
		 "functional": "B3LYP", 
		 "basiset": "6-31G**", 
		 "properties": { 
			 "R2extent": 7546.2191, 
			 "electric_dipole_moment_norm": 9.40017819725, 
			 "electric_quadrupole_moment_norm": 33.5271619573, 
			 "total_energy": -1675.81553428, 
			 "HOMO_LUMO_gap": 0.1284, 
			 "cosmo_polarized_energy": -32.59, 
			 "cosmo_cavitation_energy": 41.38, 
			 "cosmo_dispersion_energy": -30.44, 
			 "cosmo_repulsion_energy": 2.22, 
			 "cosmo_total_nonelectrostatic_energy": 13.16, 
			 "SMD_solvation_energy": 4.84 
		},
		"coords": [
			{
				"x": -1.4379247521,
				"y": 0.7898478311,
				"z": -0.2372792113,
				"element": "O" 
			},
			{
				"x": -1.967969817,
				"y": 1.7243206533,
				"z": -1.296960367,
				"element": "S" 
			},
			{
				"x": -3.3883979374,
				"y": 2.0700535989,
				"z": -1.1277663232,
				"element": "O" 
			},
			{
				"x": -1.0551285025,
				"y": 2.8785903376,
				"z": -1.5477849622,
				"element": "O" 
			},
			{
				"x": -1.8902290892,
				"y": 0.741857198,
				"z": -2.8396445357,
				"element": "C" 
			},
			{
				"x": -0.6527771032,
				"y": -0.1401005759,
				"z": -3.0248912274,
				"element": "C" 
			},
			{
				"x": 0.7127962631,
				"y": 0.5348457872,
				"z": -3.2598300535,
				"element": "C" 
			},
			{
				"x": 1.3239243891,
				"y": 1.2006670464,
				"z": -2.0905590162,
				"element": "N" 
			},
			{
				"x": 1.5420630046,
				"y": 0.6023973842,
				"z": -0.928182279,
				"element": "C" 
			},
			{
				"x": 2.0898624854,
				"y": 1.7088854851,
				"z": 0.3220014527,
				"element": "S" 
			},
			{
				"x": 1.7298931603,
				"y": 3.1680578829,
				"z": -0.7399671974,
				"element": "C" 
			},
			{
				"x": 1.7162821944,
				"y": 2.6219183912,
				"z": -2.1693270445,
				"element": "C" 
			},
			{
				"x": 1.5153877847,
				"y": -0.8094088146,
				"z": -0.7164583732,
				"element": "C" 
			},
			{
				"x": 0.9870662363,
				"y": -1.4245492537,
				"z": 0.3986393017,
				"element": "C" 
			},
			{
				"x": 0.132379589,
				"y": -0.8359961646,
				"z": 1.2476079421,
				"element": "N" 
			},
			{
				"x": -0.3741966848,
				"y": -1.4030436534,
				"z": 2.4309035598,
				"element": "C" 
			},
			{
				"x": -1.6421275032,
				"y": -0.9850764182,
				"z": 2.8651012017,
				"element": "C" 
			},
			{
				"x": -2.1841918785,
				"y": -1.5288117579,
				"z": 4.0258191914,
				"element": "C" 
			},
			{
				"x": -1.4790442916,
				"y": -2.488747268,
				"z": 4.7582319336,
				"element": "C" 
			},
			{
				"x": -0.2147317552,
				"y": -2.8930142481,
				"z": 4.3266452971,
				"element": "C" 
			},
			{
				"x": 0.3485317512,
				"y": -2.3470590185,
				"z": 3.1732393644,
				"element": "C" 
			},
			{
				"x": -2.0175213459,
				"y": 1.4590849381,
				"z": -3.656408069,
				"element": "H" 
			},
			{
				"x": -2.7744101415,
				"y": 0.0993901421,
				"z": -2.8167853243,
				"element": "H" 
			},
			{
				"x": -0.8191956476,
				"y": -0.7606901805,
				"z": -3.9154106303,
				"element": "H" 
			},
			{
				"x": -0.5829498471,
				"y": -0.8263941594,
				"z": -2.178721703,
				"element": "H" 
			},
			{
				"x": 0.6263186581,
				"y": 1.3017847522,
				"z": -4.0328077591,
				"element": "H" 
			},
			{
				"x": 1.4200368378,
				"y": -0.2161428379,
				"z": -3.633871816,
				"element": "H" 
			},
			{
				"x": 2.5126786056,
				"y": 3.9121911174,
				"z": -0.5888099719,
				"element": "H" 
			},
			{
				"x": 0.7441711719,
				"y": 3.5499943751,
				"z": -0.4778475583,
				"element": "H" 
			},
			{
				"x": 0.9712650516,
				"y": 3.1540049674,
				"z": -2.7593959324,
				"element": "H" 
			},
			{
				"x": 2.7040863324,
				"y": 2.6843466597,
				"z": -2.6458000061,
				"element": "H" 
			},
			{
				"x": 1.9006086163,
				"y": -1.438698663,
				"z": -1.5125147871,
				"element": "H" 
			},
			{
				"x": 1.1947107796,
				"y": -2.478372336,
				"z": 0.5759078482,
				"element": "H" 
			},
			{
				"x": -0.3760100275,
				"y": -0.017964897,
				"z": 0.8670026409,
				"element": "H" 
			},
			{
				"x": -2.1885390008,
				"y": -0.2556611451,
				"z": 2.273748515,
				"element": "H" 
			},
			{
				"x": -3.1669604545,
				"y": -1.2053124721,
				"z": 4.3555570661,
				"element": "H" 
			},
			{
				"x": -1.907294857,
				"y": -2.9097858393,
				"z": 5.6626065395,
				"element": "H" 
			},
			{
				"x": 0.3486297182,
				"y": -3.6238139403,
				"z": 4.8996051432,
				"element": "H" 
			},
			{
				"x": 1.3531080069,
				"y": -2.6289949045,
				"z": 2.8728071507,
				"element": "H" 
			}
		],
		 "valence_orbital": [ 
			{
				"type": "occ",
				"energy": -0.25131,
				"method": "rhf"
			},
			{
				"type": "occ",
				"energy": -0.24453,
				"method": "rhf"
			},
			{
				"type": "occ",
				"energy": -0.23992,
				"method": "rhf"
			},
			{
				"type": "occ",
				"energy": -0.21529,
				"method": "rhf"
			},
			{
				"type": "occ",
				"energy": -0.20818,
				"method": "rhf"
			},
			{
				"type": "unocc",
				"energy": -0.07978,
				"method": "rhf"
			},
			{
				"type": "unocc",
				"energy": -0.013,
				"method": "rhf"
			},
			{
				"type": "unocc",
				"energy": -0.00847,
				"method": "rhf"
			},
			{
				"type": "unocc",
				"energy": 0.00082,
				"method": "rhf"
			},
			{
				"type": "unocc",
				"energy": 0.02423,
				"method": "rhf"
			}
		],
		"cosmo_sigma_profile": { 
			"-0.025": 0.0,
			"-0.024": 0.0,
			"-0.023": 0.0,
			"-0.022": 0.0,
			"-0.021": 0.0,
			"-0.02": 0.0,
			"-0.019": 0.0,
			"-0.018": 0.0,
			"-0.017": 0.0,
			"-0.016": 0.0,
			"-0.015": 0.0,
			"-0.014": 0.0,
			"-0.013": 0.0,
			"-0.012": 0.0,
			"-0.011": 0.0,
			"-0.01": 0.111875641576,
			"-0.009": 2.67892736669,
			"-0.008": 9.87503688885,
			"-0.007": 18.2694368621,
			"-0.006": 28.4073019691,
			"-0.005": 33.8329244706,
			"-0.004": 29.7608392458,
			"-0.003": 23.3269483452,
			"-0.002": 19.496032549,
			"-0.001": 18.4348515054,
			"0.0": 13.104064911,
			"0.001": 16.3579849057,
			"0.002": 17.8603046434,
			"0.003": 16.4232690371,
			"0.004": 16.4397007064,
			"0.005": 15.2737079517,
			"0.006": 5.81704020519,
			"0.007": 3.66344804585,
			"0.008": 3.73490636986,
			"0.009": 4.62042117553,
			"0.01": 2.57382614572,
			"0.011": 3.13554314508,
			"0.012": 3.68114540132,
			"0.013": 3.29937751415,
			"0.014": 7.77799293944,
			"0.015": 8.47133609138,
			"0.016": 3.48872081409,
			"0.017": 0.118664201955,
			"0.018": 0.0,
			"0.019": 0.0,
			"0.02": 0.0,
			"0.021": 0.0,
			"0.022": 0.0,
			"0.023": 0.0,
			"0.024": 0.0,
			"0.025": 0.0
		}
	}
}
