{
	 "smiles": "OC(=O)C1=C(Br)C=CC(I)=C1", 
	 "Tm": 448.15, 
	 "num_atms": 15, 
	 "gaussian": { 
		 "optdone": 1, 
		 "sigma_profile": "no", 
		 "theory": "DFT", 
		 "functional": "B3LYP", 
		 "basiset": "6-31G**", 
		 "properties": { 
			 "R2extent": 3176.611, 
			 "electric_dipole_moment_norm": 4.71321683036, 
			 "electric_quadrupole_moment_norm": 5.37660851002, 
			 "total_energy": -3002.3944717, 
			 "HOMO_LUMO_gap": 0.18419, 
			 "cosmo_polarized_energy": -98066.26, 
			 "cosmo_cavitation_energy": 25.07, 
			 "cosmo_dispersion_energy": -20.57, 
			 "cosmo_repulsion_energy": 1.6, 
			 "cosmo_total_nonelectrostatic_energy": 6.1, 
			 "SMD_solvation_energy": 3.56 
		},
		"coords": [
			{
				"x": -1.8688975181,
				"y": 0.5803933215,
				"z": 0.5279616124,
				"element": "O" 
			},
			{
				"x": -0.9763332242,
				"y": -0.3104739616,
				"z": 0.9821580751,
				"element": "C" 
			},
			{
				"x": -0.8525765907,
				"y": -0.4860374796,
				"z": 2.1733519412,
				"element": "O" 
			},
			{
				"x": -0.1207007325,
				"y": -1.0983131762,
				"z": -0.0036167847,
				"element": "C" 
			},
			{
				"x": -0.0972710588,
				"y": -1.0595874637,
				"z": -1.4078668699,
				"element": "C" 
			},
			{
				"x": -1.2263985127,
				"y": 0.0832528536,
				"z": -2.4732481282,
				"element": "Br" 
			},
			{
				"x": 0.7685557391,
				"y": -1.868234802,
				"z": -2.1450804409,
				"element": "C" 
			},
			{
				"x": 1.6388637749,
				"y": -2.7416698179,
				"z": -1.49980837,
				"element": "C" 
			},
			{
				"x": 1.6321530821,
				"y": -2.7962798143,
				"z": -0.1047492111,
				"element": "C" 
			},
			{
				"x": 2.9439434271,
				"y": -4.1143262166,
				"z": 0.902467087,
				"element": "I" 
			},
			{
				"x": 0.7689778374,
				"y": -1.9900145315,
				"z": 0.625669408,
				"element": "C" 
			},
			{
				"x": -1.8770405011,
				"y": 0.6327145236,
				"z": -0.444130451,
				"element": "H" 
			},
			{
				"x": 0.7618336616,
				"y": -1.814388458,
				"z": -3.227564022,
				"element": "H" 
			},
			{
				"x": 2.3071504872,
				"y": -3.3651213662,
				"z": -2.0828023253,
				"element": "H" 
			},
			{
				"x": 0.7447401285,
				"y": -2.0141136111,
				"z": 1.7080584794,
				"element": "H" 
			}
		],
		 "valence_orbital": [ 
			{
				"type": "occ",
				"energy": -0.30283,
				"method": "rhf"
			},
			{
				"type": "occ",
				"energy": -0.29042,
				"method": "rhf"
			},
			{
				"type": "occ",
				"energy": -0.28553,
				"method": "rhf"
			},
			{
				"type": "occ",
				"energy": -0.28139,
				"method": "rhf"
			},
			{
				"type": "occ",
				"energy": -0.25735,
				"method": "rhf"
			},
			{
				"type": "unocc",
				"energy": -0.07316,
				"method": "rhf"
			},
			{
				"type": "unocc",
				"energy": -0.05414,
				"method": "rhf"
			},
			{
				"type": "unocc",
				"energy": -0.046,
				"method": "rhf"
			},
			{
				"type": "unocc",
				"energy": -0.03345,
				"method": "rhf"
			},
			{
				"type": "unocc",
				"energy": 0.03084,
				"method": "rhf"
			}
		],
		"cosmo_sigma_profile": { 
			"0.0": 0.0,
			"0.0": 0.0,
			"0.0": 0.0,
			"0.0": 0.0,
			"0.0": 0.0,
			"0.0": 0.0,
			"0.0": 0.0,
			"0.0": 0.0,
			"0.0": 0.0,
			"0.0": 0.0,
			"0.0": 0.0,
			"0.0": 0.0,
			"0.0": 0.0,
			"0.0": 0.0,
			"0.0": 0.0,
			"0.0": 0.0,
			"0.0": 0.0,
			"0.0": 0.0,
			"0.0": 0.0,
			"0.0": 0.0,
			"0.0": 0.0,
			"0.0": 0.0,
			"0.0": 0.0,
			"0.0": 0.0,
			"0.0": 0.0,
			"0.0": 0.0,
			"0.0": 0.0,
			"0.0": 0.0,
			"0.0": 0.0,
			"0.0": 0.0,
			"0.0": 0.0,
			"0.0": 0.0,
			"0.0": 0.0,
			"0.0": 0.0,
			"0.0": 0.0,
			"0.0": 0.0,
			"0.0": 0.0,
			"0.0": 0.0,
			"0.0": 0.0,
			"0.0": 0.0,
			"0.0": 0.0,
			"0.0": 0.0,
			"0.0": 0.0,
			"0.0": 0.0,
			"0.0": 0.0,
			"0.0": 0.0,
			"0.0": 0.0,
			"0.0": 0.0,
			"0.0": 0.0,
			"0.0": 0.0,
			"0.0": 0.0
		}
	}
}
