{
	 "smiles": "C1CN(CCN1)C(C1=CC=CC=C1)C1=CC=CC=C1", 
	 "Tm": 365.15, 
	 "num_atms": 39, 
	 "gaussian": { 
		 "optdone": 1, 
		 "sigma_profile": "yes", 
		 "theory": "DFT", 
		 "functional": "B3LYP", 
		 "basiset": "6-31G**", 
		 "properties": { 
			 "R2extent": 5483.6498, 
			 "electric_dipole_moment_norm": 1.25588081043, 
			 "electric_quadrupole_moment_norm": 7.54981283675, 
			 "total_energy": -769.347086497, 
			 "HOMO_LUMO_gap": 0.18734, 
			 "cosmo_polarized_energy": -9.12, 
			 "cosmo_cavitation_energy": 39.09, 
			 "cosmo_dispersion_energy": -27.04, 
			 "cosmo_repulsion_energy": 2.1, 
			 "cosmo_total_nonelectrostatic_energy": 14.15, 
			 "SMD_solvation_energy": 2.89 
		},
		"coords": [
			{
				"x": 2.6069047008,
				"y": -1.7112063635,
				"z": 0.0867762064,
				"element": "C" 
			},
			{
				"x": 2.1877088333,
				"y": -0.2363551876,
				"z": 0.1674802297,
				"element": "C" 
			},
			{
				"x": 0.7749454968,
				"y": 0.0012569524,
				"z": -0.1799096616,
				"element": "N" 
			},
			{
				"x": 0.5072418073,
				"y": -0.6028276861,
				"z": -1.4984369779,
				"element": "C" 
			},
			{
				"x": 0.9106111528,
				"y": -2.08138187,
				"z": -1.5959183551,
				"element": "C" 
			},
			{
				"x": 2.3305978531,
				"y": -2.2114312728,
				"z": -1.2617785973,
				"element": "N" 
			},
			{
				"x": -0.1988107303,
				"y": -0.3640220957,
				"z": 0.8678829775,
				"element": "C" 
			},
			{
				"x": -1.6240164841,
				"y": 0.0290468031,
				"z": 0.4634416047,
				"element": "C" 
			},
			{
				"x": -1.8971456051,
				"y": 1.2424678323,
				"z": -0.1835019533,
				"element": "C" 
			},
			{
				"x": -3.2084179555,
				"y": 1.6047824271,
				"z": -0.4904639668,
				"element": "C" 
			},
			{
				"x": -4.2707393087,
				"y": 0.7628104041,
				"z": -0.1521649663,
				"element": "C" 
			},
			{
				"x": -4.0091836565,
				"y": -0.4483053757,
				"z": 0.4890509399,
				"element": "C" 
			},
			{
				"x": -2.6947747589,
				"y": -0.8108453449,
				"z": 0.7899146597,
				"element": "C" 
			},
			{
				"x": 0.1417231866,
				"y": 0.2974497889,
				"z": 2.2068217009,
				"element": "C" 
			},
			{
				"x": 0.4470326824,
				"y": 1.6635979024,
				"z": 2.2919196784,
				"element": "C" 
			},
			{
				"x": 0.7086826728,
				"y": 2.2577689886,
				"z": 3.5254232326,
				"element": "C" 
			},
			{
				"x": 0.6636521599,
				"y": 1.4986911747,
				"z": 4.6981813071,
				"element": "C" 
			},
			{
				"x": 0.3618497064,
				"y": 0.1392315936,
				"z": 4.6246530013,
				"element": "C" 
			},
			{
				"x": 0.1068238436,
				"y": -0.4545768497,
				"z": 3.3861140823,
				"element": "C" 
			},
			{
				"x": 2.0864517418,
				"y": -2.2873015521,
				"z": 0.8766053549,
				"element": "H" 
			},
			{
				"x": 3.6821017673,
				"y": -1.7935589025,
				"z": 0.2845252504,
				"element": "H" 
			},
			{
				"x": 2.390710612,
				"y": 0.1602925023,
				"z": 1.163807407,
				"element": "H" 
			},
			{
				"x": 2.7956541151,
				"y": 0.329348306,
				"z": -0.5498270433,
				"element": "H" 
			},
			{
				"x": -0.5491879635,
				"y": -0.4827814174,
				"z": -1.7465015144,
				"element": "H" 
			},
			{
				"x": 1.0921135466,
				"y": -0.041120207,
				"z": -2.2376697391,
				"element": "H" 
			},
			{
				"x": 0.2557726619,
				"y": -2.6884951303,
				"z": -0.9409049094,
				"element": "H" 
			},
			{
				"x": 0.7516685222,
				"y": -2.4324791476,
				"z": -2.6222650012,
				"element": "H" 
			},
			{
				"x": 2.6202144744,
				"y": -3.1822001484,
				"z": -1.3405185236,
				"element": "H" 
			},
			{
				"x": -0.218888636,
				"y": -1.4512845147,
				"z": 1.0578839744,
				"element": "H" 
			},
			{
				"x": -1.0707991026,
				"y": 1.8887514243,
				"z": -0.4614267581,
				"element": "H" 
			},
			{
				"x": -3.4016434645,
				"y": 2.5468849535,
				"z": -0.9964275009,
				"element": "H" 
			},
			{
				"x": -5.2917142283,
				"y": 1.04658177,
				"z": -0.3911973053,
				"element": "H" 
			},
			{
				"x": -4.8262073368,
				"y": -1.1149068638,
				"z": 0.751136346,
				"element": "H" 
			},
			{
				"x": -2.4982750804,
				"y": -1.7578253623,
				"z": 1.2873475443,
				"element": "H" 
			},
			{
				"x": 0.4926124492,
				"y": 2.253529657,
				"z": 1.3822590078,
				"element": "H" 
			},
			{
				"x": 0.9474593833,
				"y": 3.3167910621,
				"z": 3.5726755735,
				"element": "H" 
			},
			{
				"x": 0.8655333154,
				"y": 1.9637304603,
				"z": 5.6589171478,
				"element": "H" 
			},
			{
				"x": 0.3291845931,
				"y": -0.4627715481,
				"z": 5.5285693923,
				"element": "H" 
			},
			{
				"x": -0.1230469669,
				"y": -1.5163371626,
				"z": 3.3358261547,
				"element": "H" 
			}
		],
		 "valence_orbital": [ 
			{
				"type": "occ",
				"energy": -0.24781,
				"method": "rhf"
			},
			{
				"type": "occ",
				"energy": -0.24301,
				"method": "rhf"
			},
			{
				"type": "occ",
				"energy": -0.22859,
				"method": "rhf"
			},
			{
				"type": "occ",
				"energy": -0.22554,
				"method": "rhf"
			},
			{
				"type": "occ",
				"energy": -0.19886,
				"method": "rhf"
			},
			{
				"type": "unocc",
				"energy": -0.01152,
				"method": "rhf"
			},
			{
				"type": "unocc",
				"energy": -0.00386,
				"method": "rhf"
			},
			{
				"type": "unocc",
				"energy": 0.00948,
				"method": "rhf"
			},
			{
				"type": "unocc",
				"energy": 0.01742,
				"method": "rhf"
			},
			{
				"type": "unocc",
				"energy": 0.07694,
				"method": "rhf"
			}
		],
		"cosmo_sigma_profile": { 
			"-0.025": 0.0,
			"-0.024": 0.0,
			"-0.023": 0.0,
			"-0.022": 0.0,
			"-0.021": 0.0,
			"-0.02": 0.0,
			"-0.019": 0.0,
			"-0.018": 0.0,
			"-0.017": 0.0,
			"-0.016": 0.0,
			"-0.015": 0.0,
			"-0.014": 0.0,
			"-0.013": 0.0,
			"-0.012": 0.0,
			"-0.011": 0.0,
			"-0.01": 0.7357820065,
			"-0.009": 1.22181891517,
			"-0.008": 1.41926334185,
			"-0.007": 1.22627979417,
			"-0.006": 4.47607890916,
			"-0.005": 20.5438204425,
			"-0.004": 25.2455528819,
			"-0.003": 36.0682663632,
			"-0.002": 37.8297881292,
			"-0.001": 36.1333819095,
			"0.0": 25.4078346948,
			"0.001": 19.8580578637,
			"0.002": 16.4803658484,
			"0.003": 16.734283884,
			"0.004": 16.7239593392,
			"0.005": 17.6749268082,
			"0.006": 18.0314644419,
			"0.007": 3.71315598123,
			"0.008": 1.63618832271,
			"0.009": 1.05865447396,
			"0.01": 0.782504402318,
			"0.011": 1.16864400608,
			"0.012": 0.788210525038,
			"0.013": 0.458748252836,
			"0.014": 0.427427072521,
			"0.015": 0.432223194314,
			"0.016": 0.319540402863,
			"0.017": 0.56697951008,
			"0.018": 0.529642036087,
			"0.019": 0.040600383666,
			"0.02": 0.0,
			"0.021": 0.0,
			"0.022": 0.0,
			"0.023": 0.0,
			"0.024": 0.0,
			"0.025": 0.0
		}
	}
}
