{
	 "smiles": "FC1=CC(F)=C(F)C=C1NS(=O)(=O)C(F)(F)F", 
	 "Tm": 331.65, 
	 "num_atms": 20, 
	 "gaussian": { 
		 "optdone": 1, 
		 "sigma_profile": "yes", 
		 "theory": "DFT", 
		 "functional": "B3LYP", 
		 "basiset": "6-31G**", 
		 "properties": { 
			 "R2extent": 4795.4082, 
			 "electric_dipole_moment_norm": 2.64060885971, 
			 "electric_quadrupole_moment_norm": 10.9428433613, 
			 "total_energy": -1470.85986173, 
			 "HOMO_LUMO_gap": 0.21049, 
			 "cosmo_polarized_energy": -9.35, 
			 "cosmo_cavitation_energy": 29.81, 
			 "cosmo_dispersion_energy": -20.91, 
			 "cosmo_repulsion_energy": 1.44, 
			 "cosmo_total_nonelectrostatic_energy": 10.34, 
			 "SMD_solvation_energy": 6.95 
		},
		"coords": [
			{
				"x": -0.8414022715,
				"y": -2.5289188356,
				"z": 1.4363492595,
				"element": "F" 
			},
			{
				"x": -1.267975448,
				"y": -1.4720904339,
				"z": 0.7083743111,
				"element": "C" 
			},
			{
				"x": -2.5641010212,
				"y": -1.4583483936,
				"z": 0.2140701903,
				"element": "C" 
			},
			{
				"x": -2.9715799206,
				"y": -0.3585142372,
				"z": -0.5294741352,
				"element": "C" 
			},
			{
				"x": -4.2104367181,
				"y": -0.3073882809,
				"z": -1.0367906105,
				"element": "F" 
			},
			{
				"x": -2.0966433501,
				"y": 0.7059162045,
				"z": -0.7512596719,
				"element": "C" 
			},
			{
				"x": -2.5213111994,
				"y": 1.7586282282,
				"z": -1.4652896918,
				"element": "F" 
			},
			{
				"x": -0.8123479141,
				"y": 0.6940557187,
				"z": -0.2275480817,
				"element": "C" 
			},
			{
				"x": -0.3770744444,
				"y": -0.4146757223,
				"z": 0.5047871286,
				"element": "C" 
			},
			{
				"x": 0.909513463,
				"y": -0.4888320081,
				"z": 1.1013338201,
				"element": "N" 
			},
			{
				"x": 2.3381345674,
				"y": -0.3201935288,
				"z": 0.2127201067,
				"element": "S" 
			},
			{
				"x": 2.0489929104,
				"y": -0.1473814051,
				"z": -1.2036148809,
				"element": "O" 
			},
			{
				"x": 3.2820976657,
				"y": -1.2981182778,
				"z": 0.7398561675,
				"element": "O" 
			},
			{
				"x": 2.9121763695,
				"y": 1.3451703573,
				"z": 0.8319605922,
				"element": "C" 
			},
			{
				"x": 4.055889658,
				"y": 1.6494895492,
				"z": 0.2242533231,
				"element": "F" 
			},
			{
				"x": 1.9944521624,
				"y": 2.2754915062,
				"z": 0.5436141297,
				"element": "F" 
			},
			{
				"x": 3.0983785181,
				"y": 1.3000803796,
				"z": 2.1487161662,
				"element": "F" 
			},
			{
				"x": -3.2367189772,
				"y": -2.2882183571,
				"z": 0.3929524429,
				"element": "H" 
			},
			{
				"x": -0.1617276196,
				"y": 1.5411306426,
				"z": -0.4002447644,
				"element": "H" 
			},
			{
				"x": 1.0163835697,
				"y": -1.263983106,
				"z": 1.7506341985,
				"element": "H" 
			}
		],
		 "valence_orbital": [ 
			{
				"type": "occ",
				"energy": -0.34396,
				"method": "rhf"
			},
			{
				"type": "occ",
				"energy": -0.34185,
				"method": "rhf"
			},
			{
				"type": "occ",
				"energy": -0.33806,
				"method": "rhf"
			},
			{
				"type": "occ",
				"energy": -0.28015,
				"method": "rhf"
			},
			{
				"type": "occ",
				"energy": -0.25182,
				"method": "rhf"
			},
			{
				"type": "unocc",
				"energy": -0.04133,
				"method": "rhf"
			},
			{
				"type": "unocc",
				"energy": -0.02305,
				"method": "rhf"
			},
			{
				"type": "unocc",
				"energy": 0.02263,
				"method": "rhf"
			},
			{
				"type": "unocc",
				"energy": 0.03336,
				"method": "rhf"
			},
			{
				"type": "unocc",
				"energy": 0.03831,
				"method": "rhf"
			}
		],
		"cosmo_sigma_profile": { 
			"-0.025": 0.0,
			"-0.024": 0.0,
			"-0.023": 0.0,
			"-0.022": 0.0,
			"-0.021": 0.0,
			"-0.02": 0.0,
			"-0.019": 0.0,
			"-0.018": 0.0,
			"-0.017": 0.0,
			"-0.016": 0.217121972616,
			"-0.015": 0.72183076233,
			"-0.014": 0.576218985519,
			"-0.013": 0.91447997557,
			"-0.012": 0.485972651627,
			"-0.011": 1.35776574832,
			"-0.01": 2.9057520973,
			"-0.009": 3.47762930967,
			"-0.008": 3.44100001504,
			"-0.007": 4.73532033955,
			"-0.006": 4.12417061099,
			"-0.005": 5.94613720565,
			"-0.004": 7.92314129547,
			"-0.003": 11.848134715,
			"-0.002": 22.8831846818,
			"-0.001": 33.2663834654,
			"0.0": 36.3156674052,
			"0.001": 21.4810428964,
			"0.002": 13.6852517219,
			"0.003": 28.7245060956,
			"0.004": 9.41645533924,
			"0.005": 3.25305805111,
			"0.006": 3.38649860037,
			"0.007": 3.91412816625,
			"0.008": 10.7273563529,
			"0.009": 5.63156776251,
			"0.01": 0.0548080586803,
			"0.011": 0.0,
			"0.012": 0.0,
			"0.013": 0.0,
			"0.014": 0.0,
			"0.015": 0.0,
			"0.016": 0.0,
			"0.017": 0.0,
			"0.018": 0.0,
			"0.019": 0.0,
			"0.02": 0.0,
			"0.021": 0.0,
			"0.022": 0.0,
			"0.023": 0.0,
			"0.024": 0.0,
			"0.025": 0.0
		}
	}
}
