{
	 "smiles": "SC1=NN=C(N1CC1=CC=CO1)C1=CC=C(Cl)C=C1Cl", 
	 "Tm": 432.15, 
	 "num_atms": 29, 
	 "gaussian": { 
		 "optdone": 1, 
		 "sigma_profile": "yes", 
		 "theory": "DFT", 
		 "functional": "B3LYP", 
		 "basiset": "6-31G**", 
		 "properties": { 
			 "R2extent": 8428.3427, 
			 "electric_dipole_moment_norm": 4.7736936789, 
			 "electric_quadrupole_moment_norm": 16.1057351012, 
			 "total_energy": -2058.79860592, 
			 "HOMO_LUMO_gap": 0.18786, 
			 "cosmo_polarized_energy": -17.01, 
			 "cosmo_cavitation_energy": 39.86, 
			 "cosmo_dispersion_energy": -27.58, 
			 "cosmo_repulsion_energy": 2.09, 
			 "cosmo_total_nonelectrostatic_energy": 14.38, 
			 "SMD_solvation_energy": 4.37 
		},
		"coords": [
			{
				"x": -3.4876070234,
				"y": 0.2576540092,
				"z": -0.7791636064,
				"element": "S" 
			},
			{
				"x": -2.2065765698,
				"y": -0.9605227551,
				"z": -0.7556132116,
				"element": "C" 
			},
			{
				"x": -2.3423969114,
				"y": -2.2245384927,
				"z": -1.0852585732,
				"element": "N" 
			},
			{
				"x": -1.1093349128,
				"y": -2.8182659012,
				"z": -0.9173082072,
				"element": "N" 
			},
			{
				"x": -0.2717123811,
				"y": -1.8993936048,
				"z": -0.4910583821,
				"element": "C" 
			},
			{
				"x": -0.9206973893,
				"y": -0.6843983433,
				"z": -0.3651704866,
				"element": "N" 
			},
			{
				"x": -0.3533514589,
				"y": 0.6290682872,
				"z": -0.0317260499,
				"element": "C" 
			},
			{
				"x": -0.13923982,
				"y": 1.5063667981,
				"z": -1.2188718593,
				"element": "C" 
			},
			{
				"x": -0.6924277097,
				"y": 2.6863232409,
				"z": -1.6219672724,
				"element": "C" 
			},
			{
				"x": -0.0436339252,
				"y": 3.0396088218,
				"z": -2.8507915068,
				"element": "C" 
			},
			{
				"x": 0.8519660978,
				"y": 2.046681597,
				"z": -3.1021247276,
				"element": "C" 
			},
			{
				"x": 0.8115086156,
				"y": 1.1045293871,
				"z": -2.116923115,
				"element": "O" 
			},
			{
				"x": 1.1633472412,
				"y": -2.1411504794,
				"z": -0.2456232738,
				"element": "C" 
			},
			{
				"x": 1.9601417648,
				"y": -2.575465461,
				"z": -1.3171152433,
				"element": "C" 
			},
			{
				"x": 3.311118409,
				"y": -2.8660194337,
				"z": -1.1574158261,
				"element": "C" 
			},
			{
				"x": 3.8858614285,
				"y": -2.7190202747,
				"z": 0.1045622125,
				"element": "C" 
			},
			{
				"x": 5.5888597877,
				"y": -3.0664019243,
				"z": 0.3294628188,
				"element": "Cl" 
			},
			{
				"x": 3.1297497342,
				"y": -2.3070563744,
				"z": 1.1998452693,
				"element": "C" 
			},
			{
				"x": 1.7754906849,
				"y": -2.0315367737,
				"z": 1.0142167915,
				"element": "C" 
			},
			{
				"x": 0.837233218,
				"y": -1.5808179729,
				"z": 2.4306646138,
				"element": "Cl" 
			},
			{
				"x": -4.4626325739,
				"y": -0.6703256582,
				"z": -0.8137274255,
				"element": "H" 
			},
			{
				"x": 0.5873865318,
				"y": 0.4460467969,
				"z": 0.4905380587,
				"element": "H" 
			},
			{
				"x": -1.0274327826,
				"y": 1.1294879681,
				"z": 0.668832373,
				"element": "H" 
			},
			{
				"x": -1.4681524011,
				"y": 3.2364848073,
				"z": -1.1087263387,
				"element": "H" 
			},
			{
				"x": -0.2260370775,
				"y": 3.9124605803,
				"z": -3.4604410624,
				"element": "H" 
			},
			{
				"x": 1.5590965026,
				"y": 1.8650225252,
				"z": -3.8964688153,
				"element": "H" 
			},
			{
				"x": 1.493160396,
				"y": -2.6861349606,
				"z": -2.2895563972,
				"element": "H" 
			},
			{
				"x": 3.9110372044,
				"y": -3.1987877552,
				"z": -1.9963755732,
				"element": "H" 
			},
			{
				"x": 3.5779753202,
				"y": -2.2169986538,
				"z": 2.1814048159,
				"element": "H" 
			}
		],
		 "valence_orbital": [ 
			{
				"type": "occ",
				"energy": -0.27353,
				"method": "rhf"
			},
			{
				"type": "occ",
				"energy": -0.26651,
				"method": "rhf"
			},
			{
				"type": "occ",
				"energy": -0.25573,
				"method": "rhf"
			},
			{
				"type": "occ",
				"energy": -0.24152,
				"method": "rhf"
			},
			{
				"type": "occ",
				"energy": -0.23188,
				"method": "rhf"
			},
			{
				"type": "unocc",
				"energy": -0.04402,
				"method": "rhf"
			},
			{
				"type": "unocc",
				"energy": -0.03486,
				"method": "rhf"
			},
			{
				"type": "unocc",
				"energy": -0.01158,
				"method": "rhf"
			},
			{
				"type": "unocc",
				"energy": -0.00286,
				"method": "rhf"
			},
			{
				"type": "unocc",
				"energy": 0.00536,
				"method": "rhf"
			}
		],
		"cosmo_sigma_profile": { 
			"-0.025": 0.0,
			"-0.024": 0.0,
			"-0.023": 0.0,
			"-0.022": 0.0,
			"-0.021": 0.0,
			"-0.02": 0.0,
			"-0.019": 0.0,
			"-0.018": 0.0,
			"-0.017": 0.0,
			"-0.016": 0.0,
			"-0.015": 0.0,
			"-0.014": 0.0,
			"-0.013": 0.102524875485,
			"-0.012": 1.3906502342,
			"-0.011": 1.8482663819,
			"-0.01": 1.14838992688,
			"-0.009": 4.18410171268,
			"-0.008": 11.8584459515,
			"-0.007": 15.6711442736,
			"-0.006": 14.8665621751,
			"-0.005": 14.7166356542,
			"-0.004": 14.4094558248,
			"-0.003": 16.8053873985,
			"-0.002": 20.5341035688,
			"-0.001": 24.4275490846,
			"0.0": 33.9580967433,
			"0.001": 31.6269063673,
			"0.002": 29.0167626117,
			"0.003": 27.2923553517,
			"0.004": 24.1126796052,
			"0.005": 11.0947370156,
			"0.006": 5.45074868326,
			"0.007": 2.12975793782,
			"0.008": 2.68703399859,
			"0.009": 1.84851784632,
			"0.01": 1.81877524897,
			"0.011": 2.01300558317,
			"0.012": 3.24913009776,
			"0.013": 3.09647201171,
			"0.014": 3.1475219828,
			"0.015": 1.92950270452,
			"0.016": 1.69242580877,
			"0.017": 0.0352638342846,
			"0.018": 0.0,
			"0.019": 0.0,
			"0.02": 0.0,
			"0.021": 0.0,
			"0.022": 0.0,
			"0.023": 0.0,
			"0.024": 0.0,
			"0.025": 0.0
		}
	}
}
