{
	 "smiles": "NC1=C(CCCC1)C#N", 
	 "Tm": 366.15, 
	 "num_atms": 19, 
	 "gaussian": { 
		 "optdone": 1, 
		 "sigma_profile": "yes", 
		 "theory": "DFT", 
		 "functional": "B3LYP", 
		 "basiset": "6-31G**", 
		 "properties": { 
			 "R2extent": 1796.9437, 
			 "electric_dipole_moment_norm": 5.12818174112, 
			 "electric_quadrupole_moment_norm": 19.3523036438, 
			 "total_energy": -382.26744163, 
			 "HOMO_LUMO_gap": 0.20003, 
			 "cosmo_polarized_energy": -12.32, 
			 "cosmo_cavitation_energy": 21.84, 
			 "cosmo_dispersion_energy": -16.04, 
			 "cosmo_repulsion_energy": 1.34, 
			 "cosmo_total_nonelectrostatic_energy": 7.15, 
			 "SMD_solvation_energy": 4.34 
		},
		"coords": [
			{
				"x": -3.4040254792,
				"y": 0.0159371276,
				"z": 0.3699911659,
				"element": "N" 
			},
			{
				"x": -2.1151142418,
				"y": -0.3082424417,
				"z": 0.0179434128,
				"element": "C" 
			},
			{
				"x": -1.5364687305,
				"y": 0.0921152044,
				"z": -1.1539988819,
				"element": "C" 
			},
			{
				"x": -0.0772332946,
				"y": -0.1607210128,
				"z": -1.4986549649,
				"element": "C" 
			},
			{
				"x": 0.7374188196,
				"y": -0.5886135296,
				"z": -0.2714885202,
				"element": "C" 
			},
			{
				"x": -0.0189458677,
				"y": -1.6467951263,
				"z": 0.5379296946,
				"element": "C" 
			},
			{
				"x": -1.3403624148,
				"y": -1.0745527654,
				"z": 1.0657971969,
				"element": "C" 
			},
			{
				"x": -2.3430539302,
				"y": 0.7773817202,
				"z": -2.1052587194,
				"element": "C" 
			},
			{
				"x": -3.032130962,
				"y": 1.3310216788,
				"z": -2.8683493018,
				"element": "N" 
			},
			{
				"x": -3.877490611,
				"y": -0.5928184532,
				"z": 1.0202923235,
				"element": "H" 
			},
			{
				"x": -3.9953385011,
				"y": 0.4206093891,
				"z": -0.3441945591,
				"element": "H" 
			},
			{
				"x": 0.356766723,
				"y": 0.743826497,
				"z": -1.9407567186,
				"element": "H" 
			},
			{
				"x": -0.0106915081,
				"y": -0.9365086204,
				"z": -2.2755166985,
				"element": "H" 
			},
			{
				"x": 1.7137367831,
				"y": -0.9701103546,
				"z": -0.5896182818,
				"element": "H" 
			},
			{
				"x": 0.9288078855,
				"y": 0.2847549855,
				"z": 0.3659010069,
				"element": "H" 
			},
			{
				"x": -0.2234889574,
				"y": -2.5163554282,
				"z": -0.0999389847,
				"element": "H" 
			},
			{
				"x": 0.5860381394,
				"y": -2.0052662393,
				"z": 1.3777093978,
				"element": "H" 
			},
			{
				"x": -1.975600738,
				"y": -1.8793496547,
				"z": 1.4611631798,
				"element": "H" 
			},
			{
				"x": -1.151023114,
				"y": -0.3982129763,
				"z": 1.9112482528,
				"element": "H" 
			}
		],
		 "valence_orbital": [ 
			{
				"type": "occ",
				"energy": -0.33976,
				"method": "rhf"
			},
			{
				"type": "occ",
				"energy": -0.32928,
				"method": "rhf"
			},
			{
				"type": "occ",
				"energy": -0.31551,
				"method": "rhf"
			},
			{
				"type": "occ",
				"energy": -0.30752,
				"method": "rhf"
			},
			{
				"type": "occ",
				"energy": -0.20962,
				"method": "rhf"
			},
			{
				"type": "unocc",
				"energy": -0.00959,
				"method": "rhf"
			},
			{
				"type": "unocc",
				"energy": 0.04689,
				"method": "rhf"
			},
			{
				"type": "unocc",
				"energy": 0.07153,
				"method": "rhf"
			},
			{
				"type": "unocc",
				"energy": 0.08794,
				"method": "rhf"
			},
			{
				"type": "unocc",
				"energy": 0.11224,
				"method": "rhf"
			}
		],
		"cosmo_sigma_profile": { 
			"-0.025": 0.0,
			"-0.024": 0.0,
			"-0.023": 0.0,
			"-0.022": 0.0,
			"-0.021": 0.0,
			"-0.02": 0.0,
			"-0.019": 0.0,
			"-0.018": 0.0,
			"-0.017": 0.0,
			"-0.016": 0.0,
			"-0.015": 0.0,
			"-0.014": 0.307120770943,
			"-0.013": 1.39247243939,
			"-0.012": 2.39513301289,
			"-0.011": 2.13503993827,
			"-0.01": 2.56845454914,
			"-0.009": 2.38318154378,
			"-0.008": 2.37632283131,
			"-0.007": 1.92271089967,
			"-0.006": 2.57433166685,
			"-0.005": 4.64060904366,
			"-0.004": 7.69780623114,
			"-0.003": 20.6945159449,
			"-0.002": 26.2147827709,
			"-0.001": 22.3941792233,
			"0.0": 16.3928151584,
			"0.001": 8.22755678917,
			"0.002": 5.56507313641,
			"0.003": 6.15502059541,
			"0.004": 4.24986950702,
			"0.005": 2.6179194556,
			"0.006": 3.15749708194,
			"0.007": 2.39898887333,
			"0.008": 3.03817542766,
			"0.009": 2.77108150955,
			"0.01": 4.18060556155,
			"0.011": 3.48525677815,
			"0.012": 3.41002987879,
			"0.013": 2.76347207274,
			"0.014": 2.40950360382,
			"0.015": 0.918214470287,
			"0.016": 0.0,
			"0.017": 0.0,
			"0.018": 0.0,
			"0.019": 0.0,
			"0.02": 0.0,
			"0.021": 0.0,
			"0.022": 0.0,
			"0.023": 0.0,
			"0.024": 0.0,
			"0.025": 0.0
		}
	}
}
