{
	 "smiles": "COC1=CC(=CC(OC)=C1O)C(C)=O", 
	 "Tm": 399.15, 
	 "num_atms": 26, 
	 "gaussian": { 
		 "optdone": 1, 
		 "sigma_profile": "yes", 
		 "theory": "DFT", 
		 "functional": "B3LYP", 
		 "basiset": "6-31G**", 
		 "properties": { 
			 "R2extent": 3411.0068, 
			 "electric_dipole_moment_norm": 1.17534611498, 
			 "electric_quadrupole_moment_norm": 26.6467623232, 
			 "total_energy": -689.165103174, 
			 "HOMO_LUMO_gap": 0.16387, 
			 "cosmo_polarized_energy": -14.2, 
			 "cosmo_cavitation_energy": 29.87, 
			 "cosmo_dispersion_energy": -21.65, 
			 "cosmo_repulsion_energy": 1.72, 
			 "cosmo_total_nonelectrostatic_energy": 9.93, 
			 "SMD_solvation_energy": 7.73 
		},
		"coords": [
			{
				"x": 2.0353946233,
				"y": -2.7030479121,
				"z": -2.2511243956,
				"element": "C" 
			},
			{
				"x": 1.600476261,
				"y": -1.3670769806,
				"z": -2.4352130445,
				"element": "O" 
			},
			{
				"x": 1.1993116462,
				"y": -0.6684520593,
				"z": -1.3357526751,
				"element": "C" 
			},
			{
				"x": 1.1793490938,
				"y": -1.158921822,
				"z": -0.0275817212,
				"element": "C" 
			},
			{
				"x": 0.7442761467,
				"y": -0.3464668461,
				"z": 1.0322893568,
				"element": "C" 
			},
			{
				"x": 0.3248028628,
				"y": 0.9693583895,
				"z": 0.7830246392,
				"element": "C" 
			},
			{
				"x": 0.3447854073,
				"y": 1.4561450837,
				"z": -0.5162853335,
				"element": "C" 
			},
			{
				"x": -0.0335706134,
				"y": 2.7154208086,
				"z": -0.9145252327,
				"element": "O" 
			},
			{
				"x": -0.4918993223,
				"y": 3.6191622594,
				"z": 0.0827649729,
				"element": "C" 
			},
			{
				"x": 0.7789332549,
				"y": 0.6502916462,
				"z": -1.5851379063,
				"element": "C" 
			},
			{
				"x": 0.7954562619,
				"y": 1.132624978,
				"z": -2.8507485242,
				"element": "O" 
			},
			{
				"x": 0.7048322187,
				"y": -0.8243715282,
				"z": 2.4447652713,
				"element": "C" 
			},
			{
				"x": 1.151346271,
				"y": -2.2455653385,
				"z": 2.7556695501,
				"element": "C" 
			},
			{
				"x": 0.3199052397,
				"y": -0.0908488882,
				"z": 3.3467581204,
				"element": "O" 
			},
			{
				"x": 1.2396135923,
				"y": -3.3367078462,
				"z": -1.8373732116,
				"element": "H" 
			},
			{
				"x": 2.305564066,
				"y": -3.0694877787,
				"z": -3.2425113147,
				"element": "H" 
			},
			{
				"x": 2.9141980417,
				"y": -2.7582540395,
				"z": -1.5948891447,
				"element": "H" 
			},
			{
				"x": 1.5021890806,
				"y": -2.1729174037,
				"z": 0.1669856537,
				"element": "H" 
			},
			{
				"x": -0.0038062003,
				"y": 1.565725922,
				"z": 1.6247342549,
				"element": "H" 
			},
			{
				"x": -1.3866954057,
				"y": 3.2346376079,
				"z": 0.5866066824,
				"element": "H" 
			},
			{
				"x": 0.2862651726,
				"y": 3.8141568969,
				"z": 0.8302897729,
				"element": "H" 
			},
			{
				"x": -0.7371720276,
				"y": 4.5459693215,
				"z": -0.4374843706,
				"element": "H" 
			},
			{
				"x": 0.47171882,
				"y": 2.046291269,
				"z": -2.8012233332,
				"element": "H" 
			},
			{
				"x": 1.0533615748,
				"y": -2.4127125766,
				"z": 3.8286100074,
				"element": "H" 
			},
			{
				"x": 0.5397919507,
				"y": -2.9782905581,
				"z": 2.2176083745,
				"element": "H" 
			},
			{
				"x": 2.1933719833,
				"y": -2.4062626048,
				"z": 2.4577435513,
				"element": "H" 
			}
		],
		 "valence_orbital": [ 
			{
				"type": "occ",
				"energy": -0.33591,
				"method": "rhf"
			},
			{
				"type": "occ",
				"energy": -0.30147,
				"method": "rhf"
			},
			{
				"type": "occ",
				"energy": -0.24034,
				"method": "rhf"
			},
			{
				"type": "occ",
				"energy": -0.22641,
				"method": "rhf"
			},
			{
				"type": "occ",
				"energy": -0.20681,
				"method": "rhf"
			},
			{
				"type": "unocc",
				"energy": -0.04294,
				"method": "rhf"
			},
			{
				"type": "unocc",
				"energy": 0.01507,
				"method": "rhf"
			},
			{
				"type": "unocc",
				"energy": 0.05728,
				"method": "rhf"
			},
			{
				"type": "unocc",
				"energy": 0.06902,
				"method": "rhf"
			},
			{
				"type": "unocc",
				"energy": 0.08985,
				"method": "rhf"
			}
		],
		"cosmo_sigma_profile": { 
			"-0.025": 0.0,
			"-0.024": 0.0,
			"-0.023": 0.0,
			"-0.022": 0.0,
			"-0.021": 0.0,
			"-0.02": 0.0,
			"-0.019": 0.0,
			"-0.018": 0.0,
			"-0.017": 0.0,
			"-0.016": 0.0,
			"-0.015": 0.187989875133,
			"-0.014": 0.733997401096,
			"-0.013": 0.341674735457,
			"-0.012": 0.320412727143,
			"-0.011": 0.867650615137,
			"-0.01": 0.451145539859,
			"-0.009": 1.01749935423,
			"-0.008": 0.756559746962,
			"-0.007": 2.62357052527,
			"-0.006": 16.824317155,
			"-0.005": 26.9096064012,
			"-0.004": 25.0468309081,
			"-0.003": 23.689341003,
			"-0.002": 14.9903463712,
			"-0.001": 14.2613053002,
			"0.0": 12.2730152148,
			"0.001": 12.6133761122,
			"0.002": 15.1135274613,
			"0.003": 12.6047394033,
			"0.004": 12.9697907073,
			"0.005": 6.24011035591,
			"0.006": 4.87195298042,
			"0.007": 2.8870411168,
			"0.008": 3.49302506103,
			"0.009": 3.59961371709,
			"0.01": 4.59413521348,
			"0.011": 4.00983714369,
			"0.012": 6.66790352332,
			"0.013": 4.48121334605,
			"0.014": 1.12779971733,
			"0.015": 0.0,
			"0.016": 0.0,
			"0.017": 0.0,
			"0.018": 0.0,
			"0.019": 0.0,
			"0.02": 0.0,
			"0.021": 0.0,
			"0.022": 0.0,
			"0.023": 0.0,
			"0.024": 0.0,
			"0.025": 0.0
		}
	}
}
