{
	 "smiles": "ClS(=O)(=O)C1=CNC2=C1C(Br)=CC=N2", 
	 "Tm": 451.15, 
	 "num_atms": 18, 
	 "gaussian": { 
		 "optdone": 1, 
		 "sigma_profile": "yes", 
		 "theory": "DFT", 
		 "functional": "B3LYP", 
		 "basiset": "6-31G**", 
		 "properties": { 
			 "R2extent": 4471.1528, 
			 "electric_dipole_moment_norm": 5.48974515711, 
			 "electric_quadrupole_moment_norm": 10.3378862395, 
			 "total_energy": -3958.81638234, 
			 "HOMO_LUMO_gap": 0.17408, 
			 "cosmo_polarized_energy": -15.72, 
			 "cosmo_cavitation_energy": 28.11, 
			 "cosmo_dispersion_energy": -21.68, 
			 "cosmo_repulsion_energy": 1.63, 
			 "cosmo_total_nonelectrostatic_energy": 8.07, 
			 "SMD_solvation_energy": 0.95 
		},
		"coords": [
			{
				"x": -2.1976290329,
				"y": -1.7033659796,
				"z": -1.7116026544,
				"element": "Cl" 
			},
			{
				"x": -0.1863917177,
				"y": -1.622165223,
				"z": -1.0133305801,
				"element": "S" 
			},
			{
				"x": 0.0206684773,
				"y": -2.85405118,
				"z": -0.2574715291,
				"element": "O" 
			},
			{
				"x": 0.6356771197,
				"y": -1.2840748529,
				"z": -2.1651550902,
				"element": "O" 
			},
			{
				"x": -0.2400078398,
				"y": -0.3028528425,
				"z": 0.1419469875,
				"element": "C" 
			},
			{
				"x": -0.1098168997,
				"y": -0.5943985128,
				"z": 1.4858657461,
				"element": "C" 
			},
			{
				"x": -0.1234361317,
				"y": 0.564798666,
				"z": 2.1959309175,
				"element": "N" 
			},
			{
				"x": -0.2693912914,
				"y": 1.6381945091,
				"z": 1.3366467296,
				"element": "C" 
			},
			{
				"x": -0.3540160405,
				"y": 1.1298378237,
				"z": 0.0047463575,
				"element": "C" 
			},
			{
				"x": -0.5245104881,
				"y": 2.1050165657,
				"z": -0.9913705097,
				"element": "C" 
			},
			{
				"x": -0.7002061589,
				"y": 1.6836724113,
				"z": -2.8281256592,
				"element": "Br" 
			},
			{
				"x": -0.5764291232,
				"y": 3.4411688169,
				"z": -0.6045021857,
				"element": "C" 
			},
			{
				"x": -0.4678710918,
				"y": 3.7874818649,
				"z": 0.751194911,
				"element": "C" 
			},
			{
				"x": -0.3167766616,
				"y": 2.9018365343,
				"z": 1.7384934018,
				"element": "N" 
			},
			{
				"x": -0.0032041147,
				"y": -1.5626535237,
				"z": 1.9502379005,
				"element": "H" 
			},
			{
				"x": -0.0312912961,
				"y": 0.6585965382,
				"z": 3.1968310555,
				"element": "H" 
			},
			{
				"x": -0.7049835638,
				"y": 4.215182056,
				"z": -1.351051923,
				"element": "H" 
			},
			{
				"x": -0.5097841451,
				"y": 4.8339763284,
				"z": 1.0427161244,
				"element": "H" 
			}
		],
		 "valence_orbital": [ 
			{
				"type": "occ",
				"energy": -0.30081,
				"method": "rhf"
			},
			{
				"type": "occ",
				"energy": -0.29802,
				"method": "rhf"
			},
			{
				"type": "occ",
				"energy": -0.29315,
				"method": "rhf"
			},
			{
				"type": "occ",
				"energy": -0.27295,
				"method": "rhf"
			},
			{
				"type": "occ",
				"energy": -0.25598,
				"method": "rhf"
			},
			{
				"type": "unocc",
				"energy": -0.0819,
				"method": "rhf"
			},
			{
				"type": "unocc",
				"energy": -0.06417,
				"method": "rhf"
			},
			{
				"type": "unocc",
				"energy": -0.01968,
				"method": "rhf"
			},
			{
				"type": "unocc",
				"energy": -0.00897,
				"method": "rhf"
			},
			{
				"type": "unocc",
				"energy": -0.00212,
				"method": "rhf"
			}
		],
		"cosmo_sigma_profile": { 
			"-0.025": 0.0,
			"-0.024": 0.0,
			"-0.023": 0.0,
			"-0.022": 0.0,
			"-0.021": 0.0,
			"-0.02": 0.0,
			"-0.019": 0.0569473933697,
			"-0.018": 1.47955677838,
			"-0.017": 1.5127264254,
			"-0.016": 1.03718520451,
			"-0.015": 1.67824489204,
			"-0.014": 1.00313898624,
			"-0.013": 1.21430471799,
			"-0.012": 1.91871121969,
			"-0.011": 2.02251711927,
			"-0.01": 2.13484311566,
			"-0.009": 2.29959939687,
			"-0.008": 4.60463974411,
			"-0.007": 6.29370431076,
			"-0.006": 6.26048822116,
			"-0.005": 6.47805333648,
			"-0.004": 9.04077802518,
			"-0.003": 10.6272090807,
			"-0.002": 18.8045538408,
			"-0.001": 20.5949101841,
			"0.0": 21.2535076699,
			"0.001": 18.6331414865,
			"0.002": 14.4247595595,
			"0.003": 21.2846688275,
			"0.004": 18.0775394773,
			"0.005": 6.0452861252,
			"0.006": 5.26073015442,
			"0.007": 6.70277326346,
			"0.008": 10.4500557283,
			"0.009": 7.21033742166,
			"0.01": 1.30103485889,
			"0.011": 0.512558603759,
			"0.012": 1.30315999421,
			"0.013": 0.703712837441,
			"0.014": 0.44871638918,
			"0.015": 0.0,
			"0.016": 0.0,
			"0.017": 0.0,
			"0.018": 0.0,
			"0.019": 0.0,
			"0.02": 0.0,
			"0.021": 0.0,
			"0.022": 0.0,
			"0.023": 0.0,
			"0.024": 0.0,
			"0.025": 0.0
		}
	}
}
