{
	 "smiles": "CC1=C(C)C2=C(N1)C=CC(=C2)C#N", 
	 "Tm": 419.15, 
	 "num_atms": 23, 
	 "gaussian": { 
		 "optdone": 1, 
		 "sigma_profile": "yes", 
		 "theory": "DFT", 
		 "functional": "B3LYP", 
		 "basiset": "6-31G**", 
		 "properties": { 
			 "R2extent": 3292.5121, 
			 "electric_dipole_moment_norm": 7.84047061725, 
			 "electric_quadrupole_moment_norm": 21.9106253795, 
			 "total_energy": -534.707151222, 
			 "HOMO_LUMO_gap": 0.18003, 
			 "cosmo_polarized_energy": -14.3, 
			 "cosmo_cavitation_energy": 27.8, 
			 "cosmo_dispersion_energy": -19.68, 
			 "cosmo_repulsion_energy": 1.55, 
			 "cosmo_total_nonelectrostatic_energy": 9.67, 
			 "SMD_solvation_energy": 5.82 
		},
		"coords": [
			{
				"x": 1.4128573789,
				"y": -1.5834687705,
				"z": -2.8479742563,
				"element": "C" 
			},
			{
				"x": 0.6326953871,
				"y": -0.5800641457,
				"z": -2.0540910611,
				"element": "C" 
			},
			{
				"x": -0.3354287512,
				"y": -0.7619867084,
				"z": -1.0929386954,
				"element": "C" 
			},
			{
				"x": -0.870186188,
				"y": -2.0660379157,
				"z": -0.5823921208,
				"element": "C" 
			},
			{
				"x": -0.7438172632,
				"y": 0.5520280504,
				"z": -0.6640487903,
				"element": "C" 
			},
			{
				"x": 0.017736756,
				"y": 1.500234034,
				"z": -1.4065344943,
				"element": "C" 
			},
			{
				"x": 0.8415715367,
				"y": 0.783498906,
				"z": -2.2391266526,
				"element": "N" 
			},
			{
				"x": -0.1302754802,
				"y": 2.8808031521,
				"z": -1.2358497996,
				"element": "C" 
			},
			{
				"x": -1.0579942234,
				"y": 3.321446148,
				"z": -0.3044566056,
				"element": "C" 
			},
			{
				"x": -1.8285432501,
				"y": 2.3968367987,
				"z": 0.4473864744,
				"element": "C" 
			},
			{
				"x": -1.6752950782,
				"y": 1.0157873751,
				"z": 0.271474983,
				"element": "C" 
			},
			{
				"x": -2.7777788947,
				"y": 2.889686716,
				"z": 1.4010847179,
				"element": "C" 
			},
			{
				"x": -3.548506596,
				"y": 3.2917903133,
				"z": 2.175466591,
				"element": "N" 
			},
			{
				"x": 2.1091535596,
				"y": -1.0915507508,
				"z": -3.5339279152,
				"element": "H" 
			},
			{
				"x": 0.7551391944,
				"y": -2.2204500264,
				"z": -3.4491287957,
				"element": "H" 
			},
			{
				"x": 2.0012650068,
				"y": -2.2408332981,
				"z": -2.1988314888,
				"element": "H" 
			},
			{
				"x": -0.3899098614,
				"y": -2.9165756383,
				"z": -1.0742346113,
				"element": "H" 
			},
			{
				"x": -1.9501346749,
				"y": -2.1550469753,
				"z": -0.7529238365,
				"element": "H" 
			},
			{
				"x": -0.706772461,
				"y": -2.1756200038,
				"z": 0.4967599787,
				"element": "H" 
			},
			{
				"x": 1.501674282,
				"y": 1.1780584479,
				"z": -2.8898568236,
				"element": "H" 
			},
			{
				"x": 0.4588042535,
				"y": 3.5894119683,
				"z": -1.810600853,
				"element": "H" 
			},
			{
				"x": -1.2047341037,
				"y": 4.3832732638,
				"z": -0.1404090885,
				"element": "H" 
			},
			{
				"x": -2.2752205289,
				"y": 0.3269790594,
				"z": 0.8573531434,
				"element": "H" 
			}
		],
		 "valence_orbital": [ 
			{
				"type": "occ",
				"energy": -0.31334,
				"method": "rhf"
			},
			{
				"type": "occ",
				"energy": -0.31286,
				"method": "rhf"
			},
			{
				"type": "occ",
				"energy": -0.28322,
				"method": "rhf"
			},
			{
				"type": "occ",
				"energy": -0.22932,
				"method": "rhf"
			},
			{
				"type": "occ",
				"energy": -0.20995,
				"method": "rhf"
			},
			{
				"type": "unocc",
				"energy": -0.02992,
				"method": "rhf"
			},
			{
				"type": "unocc",
				"energy": -0.01127,
				"method": "rhf"
			},
			{
				"type": "unocc",
				"energy": 0.05334,
				"method": "rhf"
			},
			{
				"type": "unocc",
				"energy": 0.05462,
				"method": "rhf"
			},
			{
				"type": "unocc",
				"energy": 0.06375,
				"method": "rhf"
			}
		],
		"cosmo_sigma_profile": { 
			"-0.025": 0.0,
			"-0.024": 0.0,
			"-0.023": 0.0,
			"-0.022": 0.0,
			"-0.021": 0.0,
			"-0.02": 0.0,
			"-0.019": 0.0,
			"-0.018": 0.0,
			"-0.017": 0.0,
			"-0.016": 0.201945478139,
			"-0.015": 1.53797643348,
			"-0.014": 1.18776652838,
			"-0.013": 1.47846478557,
			"-0.012": 1.47563075581,
			"-0.011": 1.32887252003,
			"-0.01": 1.64329210649,
			"-0.009": 1.89425286018,
			"-0.008": 1.04741586874,
			"-0.007": 5.82031947588,
			"-0.006": 7.86564879346,
			"-0.005": 10.4679630433,
			"-0.004": 14.9769007935,
			"-0.003": 19.1002393781,
			"-0.002": 18.8561919249,
			"-0.001": 19.3248942982,
			"0.0": 18.2604839698,
			"0.001": 16.6679516856,
			"0.002": 11.420102282,
			"0.003": 15.2484082571,
			"0.004": 18.5904888863,
			"0.005": 9.30645448064,
			"0.006": 2.47086867332,
			"0.007": 2.59436871252,
			"0.008": 2.62343540172,
			"0.009": 4.0997692995,
			"0.01": 3.20896356088,
			"0.011": 3.54886304446,
			"0.012": 2.55108535283,
			"0.013": 2.47410641265,
			"0.014": 1.15554767248,
			"0.015": 0.0,
			"0.016": 0.0,
			"0.017": 0.0,
			"0.018": 0.0,
			"0.019": 0.0,
			"0.02": 0.0,
			"0.021": 0.0,
			"0.022": 0.0,
			"0.023": 0.0,
			"0.024": 0.0,
			"0.025": 0.0
		}
	}
}
