{
	 "smiles": "NC1=CC(=CC=C1)N1C=CNC1=O", 
	 "Tm": 429.15, 
	 "num_atms": 22, 
	 "gaussian": { 
		 "optdone": 1, 
		 "sigma_profile": "yes", 
		 "theory": "DFT", 
		 "functional": "B3LYP", 
		 "basiset": "6-31G**", 
		 "properties": { 
			 "R2extent": 2997.5399, 
			 "electric_dipole_moment_norm": 1.87097424354, 
			 "electric_quadrupole_moment_norm": 24.3887354947, 
			 "total_energy": -587.870613053, 
			 "HOMO_LUMO_gap": 0.19125, 
			 "cosmo_polarized_energy": -17.26, 
			 "cosmo_cavitation_energy": 25.99, 
			 "cosmo_dispersion_energy": -19.55, 
			 "cosmo_repulsion_energy": 1.53, 
			 "cosmo_total_nonelectrostatic_energy": 7.97, 
			 "SMD_solvation_energy": 5.78 
		},
		"coords": [
			{
				"x": 2.2930111255,
				"y": -1.4994280005,
				"z": -0.6656342487,
				"element": "N" 
			},
			{
				"x": 1.4554918055,
				"y": -0.3886958524,
				"z": -0.5562606129,
				"element": "C" 
			},
			{
				"x": 0.0678607644,
				"y": -0.5439206206,
				"z": -0.6992540909,
				"element": "C" 
			},
			{
				"x": -0.7727361864,
				"y": 0.570366581,
				"z": -0.6375965091,
				"element": "C" 
			},
			{
				"x": -0.2412139492,
				"y": 1.852339731,
				"z": -0.4318931364,
				"element": "C" 
			},
			{
				"x": 1.1395548683,
				"y": 1.9965567242,
				"z": -0.3066094167,
				"element": "C" 
			},
			{
				"x": 1.9904419121,
				"y": 0.8972770011,
				"z": -0.3671650411,
				"element": "C" 
			},
			{
				"x": -2.1757832194,
				"y": 0.4116756392,
				"z": -0.7940059982,
				"element": "N" 
			},
			{
				"x": -3.0591025131,
				"y": 1.4129104092,
				"z": -1.2270014936,
				"element": "C" 
			},
			{
				"x": -4.3130107299,
				"y": 0.9169736932,
				"z": -1.1881398624,
				"element": "C" 
			},
			{
				"x": -4.2218325766,
				"y": -0.3929602454,
				"z": -0.7256834732,
				"element": "N" 
			},
			{
				"x": -2.9055489449,
				"y": -0.750878394,
				"z": -0.4760497067,
				"element": "C" 
			},
			{
				"x": -2.4965450722,
				"y": -1.8314787276,
				"z": -0.0707347458,
				"element": "O" 
			},
			{
				"x": 1.8544907836,
				"y": -2.3862833418,
				"z": -0.4583459211,
				"element": "H" 
			},
			{
				"x": 3.1915326541,
				"y": -1.4062653272,
				"z": -0.2126810997,
				"element": "H" 
			},
			{
				"x": -0.3628537324,
				"y": -1.5274076338,
				"z": -0.8363315235,
				"element": "H" 
			},
			{
				"x": -0.890384681,
				"y": 2.7149032304,
				"z": -0.3376210427,
				"element": "H" 
			},
			{
				"x": 1.5575775946,
				"y": 2.9861971507,
				"z": -0.1446615103,
				"element": "H" 
			},
			{
				"x": 3.0646671389,
				"y": 1.026632338,
				"z": -0.2652990609,
				"element": "H" 
			},
			{
				"x": -2.7058517635,
				"y": 2.3705883361,
				"z": -1.5685785043,
				"element": "H" 
			},
			{
				"x": -5.2503323365,
				"y": 1.3708427324,
				"z": -1.465675977,
				"element": "H" 
			},
			{
				"x": -4.9752329419,
				"y": -1.0452454233,
				"z": -0.5849770249,
				"element": "H" 
			}
		],
		 "valence_orbital": [ 
			{
				"type": "occ",
				"energy": -0.29163,
				"method": "rhf"
			},
			{
				"type": "occ",
				"energy": -0.25624,
				"method": "rhf"
			},
			{
				"type": "occ",
				"energy": -0.23795,
				"method": "rhf"
			},
			{
				"type": "occ",
				"energy": -0.20105,
				"method": "rhf"
			},
			{
				"type": "occ",
				"energy": -0.19088,
				"method": "rhf"
			},
			{
				"type": "unocc",
				"energy": 0.00037,
				"method": "rhf"
			},
			{
				"type": "unocc",
				"energy": 0.01561,
				"method": "rhf"
			},
			{
				"type": "unocc",
				"energy": 0.04424,
				"method": "rhf"
			},
			{
				"type": "unocc",
				"energy": 0.07583,
				"method": "rhf"
			},
			{
				"type": "unocc",
				"energy": 0.08373,
				"method": "rhf"
			}
		],
		"cosmo_sigma_profile": { 
			"-0.025": 0.0,
			"-0.024": 0.0,
			"-0.023": 0.0,
			"-0.022": 0.0,
			"-0.021": 0.0,
			"-0.02": 0.0,
			"-0.019": 0.0,
			"-0.018": 0.0,
			"-0.017": 0.019797339622,
			"-0.016": 1.02096044461,
			"-0.015": 1.51263373946,
			"-0.014": 1.01816687493,
			"-0.013": 1.47235238328,
			"-0.012": 2.9625765124,
			"-0.011": 3.76906629175,
			"-0.01": 3.86066479153,
			"-0.009": 7.28772031837,
			"-0.008": 8.00229891004,
			"-0.007": 7.25734072604,
			"-0.006": 8.4145088474,
			"-0.005": 10.1136410481,
			"-0.004": 10.4969043916,
			"-0.003": 10.043581713,
			"-0.002": 7.04522879643,
			"-0.001": 8.86124657885,
			"0.0": 11.3927325834,
			"0.001": 13.0679371555,
			"0.002": 15.1583646863,
			"0.003": 12.1460129435,
			"0.004": 10.1639435115,
			"0.005": 12.0846998944,
			"0.006": 12.5916561677,
			"0.007": 5.5348718796,
			"0.008": 2.48436482408,
			"0.009": 2.16575172113,
			"0.01": 1.73766496297,
			"0.011": 3.28966455978,
			"0.012": 1.83071141361,
			"0.013": 3.26535202689,
			"0.014": 6.03529618367,
			"0.015": 1.5832392096,
			"0.016": 0.0,
			"0.017": 0.0,
			"0.018": 0.0,
			"0.019": 0.0,
			"0.02": 0.0,
			"0.021": 0.0,
			"0.022": 0.0,
			"0.023": 0.0,
			"0.024": 0.0,
			"0.025": 0.0
		}
	}
}
