{
	 "smiles": "NNC(=O)C1=NC=CC=C1", 
	 "Tm": 370.65, 
	 "num_atms": 17, 
	 "gaussian": { 
		 "optdone": 1, 
		 "sigma_profile": "yes", 
		 "theory": "DFT", 
		 "functional": "B3LYP", 
		 "basiset": "6-31G**", 
		 "properties": { 
			 "R2extent": 2530.1021, 
			 "electric_dipole_moment_norm": 2.8714920268, 
			 "electric_quadrupole_moment_norm": 5.2518421292, 
			 "total_energy": -472.317820262, 
			 "HOMO_LUMO_gap": 0.19625, 
			 "cosmo_polarized_energy": -11.42, 
			 "cosmo_cavitation_energy": 21.66, 
			 "cosmo_dispersion_energy": -16.24, 
			 "cosmo_repulsion_energy": 1.33, 
			 "cosmo_total_nonelectrostatic_energy": 6.75, 
			 "SMD_solvation_energy": 4.06 
		},
		"coords": [
			{
				"x": 0.6290674352,
				"y": -0.4836942285,
				"z": -4.8194083237,
				"element": "N" 
			},
			{
				"x": 0.0520298105,
				"y": 0.1276875072,
				"z": -3.6935040021,
				"element": "N" 
			},
			{
				"x": 0.7213628395,
				"y": 0.2714164302,
				"z": -2.5216981612,
				"element": "C" 
			},
			{
				"x": 1.8745171483,
				"y": -0.1190095522,
				"z": -2.3491589865,
				"element": "O" 
			},
			{
				"x": -0.0690075114,
				"y": 0.9560342037,
				"z": -1.4337536095,
				"element": "C" 
			},
			{
				"x": -1.321148221,
				"y": 1.3462402837,
				"z": -1.7228306333,
				"element": "N" 
			},
			{
				"x": -2.0203777305,
				"y": 1.9523970248,
				"z": -0.7586119988,
				"element": "C" 
			},
			{
				"x": -1.5119744338,
				"y": 2.1945127262,
				"z": 0.5199142499,
				"element": "C" 
			},
			{
				"x": -0.2101794932,
				"y": 1.7847020425,
				"z": 0.8083440784,
				"element": "C" 
			},
			{
				"x": 0.5301087496,
				"y": 1.151546293,
				"z": -0.1875976971,
				"element": "C" 
			},
			{
				"x": 1.4940061198,
				"y": 0.0163504838,
				"z": -5.0272398472,
				"element": "H" 
			},
			{
				"x": 0.9259425236,
				"y": -1.4190242932,
				"z": -4.539423914,
				"element": "H" 
			},
			{
				"x": -0.8942673051,
				"y": 0.4717541331,
				"z": -3.7755000289,
				"element": "H" 
			},
			{
				"x": -3.0318858196,
				"y": 2.2588907991,
				"z": -1.0177827785,
				"element": "H" 
			},
			{
				"x": -2.1249172683,
				"y": 2.6914072148,
				"z": 1.2651090767,
				"element": "H" 
			},
			{
				"x": 0.2190972198,
				"y": 1.9558257757,
				"z": 1.7912605956,
				"element": "H" 
			},
			{
				"x": 1.5462259367,
				"y": 0.8062631562,
				"z": -0.0363180198,
				"element": "H" 
			}
		],
		 "valence_orbital": [ 
			{
				"type": "occ",
				"energy": -0.28621,
				"method": "rhf"
			},
			{
				"type": "occ",
				"energy": -0.27263,
				"method": "rhf"
			},
			{
				"type": "occ",
				"energy": -0.27048,
				"method": "rhf"
			},
			{
				"type": "occ",
				"energy": -0.25568,
				"method": "rhf"
			},
			{
				"type": "occ",
				"energy": -0.24815,
				"method": "rhf"
			},
			{
				"type": "unocc",
				"energy": -0.0519,
				"method": "rhf"
			},
			{
				"type": "unocc",
				"energy": -0.02962,
				"method": "rhf"
			},
			{
				"type": "unocc",
				"energy": 0.05981,
				"method": "rhf"
			},
			{
				"type": "unocc",
				"energy": 0.08952,
				"method": "rhf"
			},
			{
				"type": "unocc",
				"energy": 0.093,
				"method": "rhf"
			}
		],
		"cosmo_sigma_profile": { 
			"-0.025": 0.0,
			"-0.024": 0.0,
			"-0.023": 0.0,
			"-0.022": 0.0,
			"-0.021": 0.0,
			"-0.02": 0.0,
			"-0.019": 0.0,
			"-0.018": 0.0,
			"-0.017": 0.0,
			"-0.016": 0.0,
			"-0.015": 0.0,
			"-0.014": 0.0,
			"-0.013": 0.0,
			"-0.012": 0.639824419389,
			"-0.011": 2.92486769669,
			"-0.01": 2.65592667715,
			"-0.009": 3.16964937237,
			"-0.008": 4.17804627852,
			"-0.007": 9.49862948534,
			"-0.006": 11.1951203207,
			"-0.005": 10.5821324043,
			"-0.004": 7.67268426957,
			"-0.003": 7.71580684298,
			"-0.002": 9.73528425569,
			"-0.001": 11.4151860822,
			"0.0": 14.3186605865,
			"0.001": 21.1333071707,
			"0.002": 14.5006970473,
			"0.003": 5.13074914154,
			"0.004": 3.31471545137,
			"0.005": 3.52309584167,
			"0.006": 4.03578053775,
			"0.007": 3.0765716268,
			"0.008": 3.130133176,
			"0.009": 3.17031374299,
			"0.01": 1.35372866489,
			"0.011": 2.4295794202,
			"0.012": 2.74947505724,
			"0.013": 5.29506908464,
			"0.014": 2.93524761413,
			"0.015": 0.372298443464,
			"0.016": 0.911475853275,
			"0.017": 0.0445376826057,
			"0.018": 0.0,
			"0.019": 0.0,
			"0.02": 0.0,
			"0.021": 0.0,
			"0.022": 0.0,
			"0.023": 0.0,
			"0.024": 0.0,
			"0.025": 0.0
		}
	}
}
