{
	 "smiles": "CCC1=C(C)C(Cl)=NC(NC(=O)NS(=O)(=O)C2=CC=CS2)=N1", 
	 "Tm": 461.15, 
	 "num_atms": 35, 
	 "gaussian": { 
		 "optdone": 1, 
		 "sigma_profile": "yes", 
		 "theory": "DFT", 
		 "functional": "B3LYP", 
		 "basiset": "6-31G**", 
		 "properties": { 
			 "R2extent": 8481.6917, 
			 "electric_dipole_moment_norm": 7.71646847593, 
			 "electric_quadrupole_moment_norm": 11.0400688309, 
			 "total_energy": -2166.29504802, 
			 "HOMO_LUMO_gap": 0.19012, 
			 "cosmo_polarized_energy": -20.69, 
			 "cosmo_cavitation_energy": 43.38, 
			 "cosmo_dispersion_energy": -29.78, 
			 "cosmo_repulsion_energy": 2.22, 
			 "cosmo_total_nonelectrostatic_energy": 15.81, 
			 "SMD_solvation_energy": 5.13 
		},
		"coords": [
			{
				"x": 3.4976684639,
				"y": -1.1441010646,
				"z": -0.6658275245,
				"element": "C" 
			},
			{
				"x": 2.3462844715,
				"y": -0.4207463455,
				"z": 0.0582653123,
				"element": "C" 
			},
			{
				"x": 1.0676349286,
				"y": -1.2280599057,
				"z": 0.0329771607,
				"element": "C" 
			},
			{
				"x": 0.7971661636,
				"y": -2.2565365174,
				"z": 0.9589594378,
				"element": "C" 
			},
			{
				"x": 1.702141509,
				"y": -2.6327513582,
				"z": 2.1029191367,
				"element": "C" 
			},
			{
				"x": -0.4100048784,
				"y": -2.9312110455,
				"z": 0.717036754,
				"element": "C" 
			},
			{
				"x": -0.8959889796,
				"y": -4.2395279588,
				"z": 1.7901277192,
				"element": "Cl" 
			},
			{
				"x": -1.2367883174,
				"y": -2.6759120055,
				"z": -0.2750391966,
				"element": "N" 
			},
			{
				"x": -0.8664060542,
				"y": -1.6742045053,
				"z": -1.0879157526,
				"element": "C" 
			},
			{
				"x": -1.7305920173,
				"y": -1.4892147415,
				"z": -2.1622056462,
				"element": "N" 
			},
			{
				"x": -1.7247358721,
				"y": -0.6076888405,
				"z": -3.2279380272,
				"element": "C" 
			},
			{
				"x": -2.1650969342,
				"y": -0.9344684531,
				"z": -4.3150793331,
				"element": "O" 
			},
			{
				"x": -1.2131170386,
				"y": 0.6983456846,
				"z": -3.0456168389,
				"element": "N" 
			},
			{
				"x": -1.7243563423,
				"y": 1.7922276079,
				"z": -1.8163390013,
				"element": "S" 
			},
			{
				"x": -2.308839805,
				"y": 2.9046664747,
				"z": -2.5647565626,
				"element": "O" 
			},
			{
				"x": -2.4666127175,
				"y": 1.0539033925,
				"z": -0.8006428053,
				"element": "O" 
			},
			{
				"x": -0.2421258304,
				"y": 2.3851466679,
				"z": -1.0574227413,
				"element": "C" 
			},
			{
				"x": -0.0412398472,
				"y": 2.4098982328,
				"z": 0.2988413933,
				"element": "C" 
			},
			{
				"x": 1.1491161473,
				"y": 3.1090889153,
				"z": 0.6502081195,
				"element": "C" 
			},
			{
				"x": 1.8145029882,
				"y": 3.5997448251,
				"z": -0.4423798324,
				"element": "C" 
			},
			{
				"x": 1.0019658921,
				"y": 3.234650754,
				"z": -1.9265627069,
				"element": "S" 
			},
			{
				"x": 0.2317630373,
				"y": -0.9356335506,
				"z": -0.9798955602,
				"element": "N" 
			},
			{
				"x": 4.3982452261,
				"y": -0.5224649572,
				"z": -0.6673372889,
				"element": "H" 
			},
			{
				"x": 3.745145543,
				"y": -2.0960619618,
				"z": -0.1854197824,
				"element": "H" 
			},
			{
				"x": 3.225340343,
				"y": -1.3514248454,
				"z": -1.7048223524,
				"element": "H" 
			},
			{
				"x": 2.1430674715,
				"y": 0.5274077952,
				"z": -0.4424202381,
				"element": "H" 
			},
			{
				"x": 2.6387455397,
				"y": -0.1907131983,
				"z": 1.0876231571,
				"element": "H" 
			},
			{
				"x": 1.1877375552,
				"y": -2.5223581232,
				"z": 3.0634905071,
				"element": "H" 
			},
			{
				"x": 2.0114211763,
				"y": -3.6806238864,
				"z": 2.030024605,
				"element": "H" 
			},
			{
				"x": 2.6022885186,
				"y": -2.0189751495,
				"z": 2.1286347772,
				"element": "H" 
			},
			{
				"x": -2.3542283647,
				"y": -2.2713322503,
				"z": -2.3158751391,
				"element": "H" 
			},
			{
				"x": -1.3061579672,
				"y": 1.1830952776,
				"z": -3.9364727285,
				"element": "H" 
			},
			{
				"x": -0.7266044578,
				"y": 1.9482633079,
				"z": 0.9982050212,
				"element": "H" 
			},
			{
				"x": 1.4945792771,
				"y": 3.2402450695,
				"z": 1.668842906,
				"element": "H" 
			},
			{
				"x": 2.7419811718,
				"y": 4.1559266595,
				"z": -0.4674869484,
				"element": "H" 
			}
		],
		 "valence_orbital": [ 
			{
				"type": "occ",
				"energy": -0.28761,
				"method": "rhf"
			},
			{
				"type": "occ",
				"energy": -0.28155,
				"method": "rhf"
			},
			{
				"type": "occ",
				"energy": -0.26928,
				"method": "rhf"
			},
			{
				"type": "occ",
				"energy": -0.2631,
				"method": "rhf"
			},
			{
				"type": "occ",
				"energy": -0.24888,
				"method": "rhf"
			},
			{
				"type": "unocc",
				"energy": -0.05876,
				"method": "rhf"
			},
			{
				"type": "unocc",
				"energy": -0.04984,
				"method": "rhf"
			},
			{
				"type": "unocc",
				"energy": -0.04007,
				"method": "rhf"
			},
			{
				"type": "unocc",
				"energy": 0.00032,
				"method": "rhf"
			},
			{
				"type": "unocc",
				"energy": 0.00961,
				"method": "rhf"
			}
		],
		"cosmo_sigma_profile": { 
			"-0.025": 0.0,
			"-0.024": 0.0,
			"-0.023": 0.0,
			"-0.022": 0.0,
			"-0.021": 0.0,
			"-0.02": 0.0,
			"-0.019": 0.0,
			"-0.018": 0.0,
			"-0.017": 0.0,
			"-0.016": 0.493727046467,
			"-0.015": 1.38346764003,
			"-0.014": 1.1932897846,
			"-0.013": 2.1071759965,
			"-0.012": 1.26803663223,
			"-0.011": 2.46437081116,
			"-0.01": 2.82476836906,
			"-0.009": 4.36951469046,
			"-0.008": 6.30579764309,
			"-0.007": 8.1922280213,
			"-0.006": 10.814116848,
			"-0.005": 13.8387227376,
			"-0.004": 19.0886532954,
			"-0.003": 29.646810815,
			"-0.002": 37.0926953712,
			"-0.001": 37.7373387686,
			"0.0": 31.5149881377,
			"0.001": 25.9530051175,
			"0.002": 20.4587499063,
			"0.003": 17.4171718152,
			"0.004": 12.938314998,
			"0.005": 8.24889454414,
			"0.006": 7.19762280032,
			"0.007": 7.23229910991,
			"0.008": 7.91121169492,
			"0.009": 10.6580621188,
			"0.01": 11.2305870672,
			"0.011": 7.52807992308,
			"0.012": 3.30467543522,
			"0.013": 0.0682176440595,
			"0.014": 0.0,
			"0.015": 0.0,
			"0.016": 0.0,
			"0.017": 0.0,
			"0.018": 0.0,
			"0.019": 0.0,
			"0.02": 0.0,
			"0.021": 0.0,
			"0.022": 0.0,
			"0.023": 0.0,
			"0.024": 0.0,
			"0.025": 0.0
		}
	}
}
