{
	 "smiles": "CC1=CC=C(C=C1)S(=O)(=O)CCCl", 
	 "Tm": 350.65, 
	 "num_atms": 24, 
	 "gaussian": { 
		 "optdone": 1, 
		 "sigma_profile": "yes", 
		 "theory": "DFT", 
		 "functional": "B3LYP", 
		 "basiset": "6-31G**", 
		 "properties": { 
			 "R2extent": 4077.5225, 
			 "electric_dipole_moment_norm": 6.8986005204, 
			 "electric_quadrupole_moment_norm": 8.81787568239, 
			 "total_energy": -1358.35788982, 
			 "HOMO_LUMO_gap": 0.22617, 
			 "cosmo_polarized_energy": -17.79, 
			 "cosmo_cavitation_energy": 30.71, 
			 "cosmo_dispersion_energy": -22.49, 
			 "cosmo_repulsion_energy": 1.75, 
			 "cosmo_total_nonelectrostatic_energy": 9.98, 
			 "SMD_solvation_energy": 4.27 
		},
		"coords": [
			{
				"x": 4.9726507208,
				"y": -0.0744015002,
				"z": 1.6241192819,
				"element": "C" 
			},
			{
				"x": 3.5092738592,
				"y": 0.0646704726,
				"z": 1.2806773287,
				"element": "C" 
			},
			{
				"x": 2.5932106675,
				"y": -0.939948608,
				"z": 1.6255505176,
				"element": "C" 
			},
			{
				"x": 1.2448221981,
				"y": -0.8321257062,
				"z": 1.2899840788,
				"element": "C" 
			},
			{
				"x": 0.8077075013,
				"y": 0.2976002144,
				"z": 0.5963939039,
				"element": "C" 
			},
			{
				"x": 1.6934761579,
				"y": 1.320981415,
				"z": 0.2530805374,
				"element": "C" 
			},
			{
				"x": 3.0376452647,
				"y": 1.1958609882,
				"z": 0.5973524052,
				"element": "C" 
			},
			{
				"x": -0.9299945534,
				"y": 0.4433022161,
				"z": 0.1602188071,
				"element": "S" 
			},
			{
				"x": -1.6995066276,
				"y": -0.403317137,
				"z": 1.0818572933,
				"element": "O" 
			},
			{
				"x": -1.2412317994,
				"y": 1.8740706914,
				"z": -0.0113893962,
				"element": "O" 
			},
			{
				"x": -0.9769740185,
				"y": -0.2892573333,
				"z": -1.5234533691,
				"element": "C" 
			},
			{
				"x": -2.237445807,
				"y": 0.0825902678,
				"z": -2.2907616805,
				"element": "C" 
			},
			{
				"x": -3.6897000119,
				"y": -0.8663286518,
				"z": -1.7825929803,
				"element": "Cl" 
			},
			{
				"x": 5.4431660045,
				"y": 0.9013572225,
				"z": 1.7746813528,
				"element": "H" 
			},
			{
				"x": 5.1162097546,
				"y": -0.6670757541,
				"z": 2.5319945681,
				"element": "H" 
			},
			{
				"x": 5.5175427557,
				"y": -0.5782746088,
				"z": 0.8160399047,
				"element": "H" 
			},
			{
				"x": 2.9383729403,
				"y": -1.8130677471,
				"z": 2.1728734555,
				"element": "H" 
			},
			{
				"x": 0.5315541636,
				"y": -1.5965488406,
				"z": 1.5797954647,
				"element": "H" 
			},
			{
				"x": 1.3244909459,
				"y": 2.208437088,
				"z": -0.2506514629,
				"element": "H" 
			},
			{
				"x": 3.7304102404,
				"y": 1.9934386252,
				"z": 0.3422862745,
				"element": "H" 
			},
			{
				"x": -0.849284511,
				"y": -1.3692849162,
				"z": -1.4233982407,
				"element": "H" 
			},
			{
				"x": -0.1096099831,
				"y": 0.1312499302,
				"z": -2.0426772554,
				"element": "H" 
			},
			{
				"x": -2.4738154622,
				"y": 1.1386484221,
				"z": -2.1528696825,
				"element": "H" 
			},
			{
				"x": -2.0903704005,
				"y": -0.1208767498,
				"z": -3.3526111066,
				"element": "H" 
			}
		],
		 "valence_orbital": [ 
			{
				"type": "occ",
				"energy": -0.29832,
				"method": "rhf"
			},
			{
				"type": "occ",
				"energy": -0.29628,
				"method": "rhf"
			},
			{
				"type": "occ",
				"energy": -0.28158,
				"method": "rhf"
			},
			{
				"type": "occ",
				"energy": -0.27437,
				"method": "rhf"
			},
			{
				"type": "occ",
				"energy": -0.26878,
				"method": "rhf"
			},
			{
				"type": "unocc",
				"energy": -0.04261,
				"method": "rhf"
			},
			{
				"type": "unocc",
				"energy": -0.02596,
				"method": "rhf"
			},
			{
				"type": "unocc",
				"energy": 0.0213,
				"method": "rhf"
			},
			{
				"type": "unocc",
				"energy": 0.05842,
				"method": "rhf"
			},
			{
				"type": "unocc",
				"energy": 0.06036,
				"method": "rhf"
			}
		],
		"cosmo_sigma_profile": { 
			"-0.025": 0.0,
			"-0.024": 0.0,
			"-0.023": 0.0,
			"-0.022": 0.0,
			"-0.021": 0.0,
			"-0.02": 0.0,
			"-0.019": 0.0,
			"-0.018": 0.0,
			"-0.017": 0.0,
			"-0.016": 0.0,
			"-0.015": 0.0,
			"-0.014": 0.0,
			"-0.013": 0.0,
			"-0.012": 0.0,
			"-0.011": 0.0,
			"-0.01": 0.404510310057,
			"-0.009": 6.07617948384,
			"-0.008": 7.65165616394,
			"-0.007": 10.6340833046,
			"-0.006": 17.4137633644,
			"-0.005": 20.097797438,
			"-0.004": 17.5575649554,
			"-0.003": 14.0235589212,
			"-0.002": 13.9473137896,
			"-0.001": 18.4137916575,
			"0.0": 15.2763299055,
			"0.001": 12.1194115345,
			"0.002": 14.248938558,
			"0.003": 18.0507563533,
			"0.004": 9.31227245268,
			"0.005": 7.91310972343,
			"0.006": 9.96625480577,
			"0.007": 4.13132217748,
			"0.008": 4.07543169569,
			"0.009": 3.6422209538,
			"0.01": 5.85180393381,
			"0.011": 8.88495886296,
			"0.012": 6.03483328957,
			"0.013": 0.312747731064,
			"0.014": 0.0,
			"0.015": 0.0,
			"0.016": 0.0,
			"0.017": 0.0,
			"0.018": 0.0,
			"0.019": 0.0,
			"0.02": 0.0,
			"0.021": 0.0,
			"0.022": 0.0,
			"0.023": 0.0,
			"0.024": 0.0,
			"0.025": 0.0
		}
	}
}
