{
	 "smiles": "CC1=NNC2=C1N=C(C)N(CC1=CC=C(Cl)C=C1)C2=O", 
	 "Tm": 492.15, 
	 "num_atms": 33, 
	 "gaussian": { 
		 "optdone": 1, 
		 "sigma_profile": "yes", 
		 "theory": "DFT", 
		 "functional": "B3LYP", 
		 "basiset": "6-31G**", 
		 "properties": { 
			 "R2extent": 8788.9819, 
			 "electric_dipole_moment_norm": 2.4683838174, 
			 "electric_quadrupole_moment_norm": 20.5095085139, 
			 "total_energy": -1295.76386057, 
			 "HOMO_LUMO_gap": 0.18745, 
			 "cosmo_polarized_energy": -15.48, 
			 "cosmo_cavitation_energy": 38.62, 
			 "cosmo_dispersion_energy": -27.86, 
			 "cosmo_repulsion_energy": 2.13, 
			 "cosmo_total_nonelectrostatic_energy": 12.89, 
			 "SMD_solvation_energy": 4.05 
		},
		"coords": [
			{
				"x": 2.8942625381,
				"y": 0.1224226144,
				"z": -3.9738114879,
				"element": "C" 
			},
			{
				"x": 1.5336731782,
				"y": 0.1627066177,
				"z": -3.3562964407,
				"element": "C" 
			},
			{
				"x": 0.5324866834,
				"y": -0.5871636826,
				"z": -3.8205624588,
				"element": "N" 
			},
			{
				"x": -0.5434584097,
				"y": -0.3163304249,
				"z": -3.0465064987,
				"element": "N" 
			},
			{
				"x": -0.2566009384,
				"y": 0.6011080624,
				"z": -2.0890899484,
				"element": "C" 
			},
			{
				"x": 1.0820107976,
				"y": 0.941795317,
				"z": -2.2492611994,
				"element": "C" 
			},
			{
				"x": 1.7296801322,
				"y": 1.8473983429,
				"z": -1.4507133856,
				"element": "N" 
			},
			{
				"x": 1.0143811571,
				"y": 2.3929683026,
				"z": -0.5088025572,
				"element": "C" 
			},
			{
				"x": 1.6840279648,
				"y": 3.4040225224,
				"z": 0.3826043265,
				"element": "C" 
			},
			{
				"x": -0.3375237567,
				"y": 2.1016916736,
				"z": -0.281423605,
				"element": "N" 
			},
			{
				"x": -1.1101817397,
				"y": 2.7724577673,
				"z": 0.7907880726,
				"element": "C" 
			},
			{
				"x": -0.9775482431,
				"y": 2.1317414851,
				"z": 2.1601511068,
				"element": "C" 
			},
			{
				"x": -1.3671050885,
				"y": 0.8002477271,
				"z": 2.3686322952,
				"element": "C" 
			},
			{
				"x": -1.2701562952,
				"y": 0.217433013,
				"z": 3.6302192251,
				"element": "C" 
			},
			{
				"x": -0.7887891693,
				"y": 0.9758275754,
				"z": 4.6986546218,
				"element": "C" 
			},
			{
				"x": -0.6660006008,
				"y": 0.2448336757,
				"z": 6.2922830638,
				"element": "Cl" 
			},
			{
				"x": -0.4098072736,
				"y": 2.3041943503,
				"z": 4.5226898153,
				"element": "C" 
			},
			{
				"x": -0.506723788,
				"y": 2.8715375473,
				"z": 3.2505314324,
				"element": "C" 
			},
			{
				"x": -1.0743033679,
				"y": 1.1645502103,
				"z": -1.0560611812,
				"element": "C" 
			},
			{
				"x": -2.2541521954,
				"y": 0.9006907897,
				"z": -0.8250257778,
				"element": "O" 
			},
			{
				"x": 3.6489347512,
				"y": -0.1883914303,
				"z": -3.2436052707,
				"element": "H" 
			},
			{
				"x": 2.9033072482,
				"y": -0.5803852949,
				"z": -4.809370973,
				"element": "H" 
			},
			{
				"x": 3.1895109387,
				"y": 1.11091299,
				"z": -4.3412748583,
				"element": "H" 
			},
			{
				"x": -1.423731517,
				"y": -0.7755095248,
				"z": -3.2205768815,
				"element": "H" 
			},
			{
				"x": 1.603742815,
				"y": 3.1344396214,
				"z": 1.4394617324,
				"element": "H" 
			},
			{
				"x": 2.7352630855,
				"y": 3.442807443,
				"z": 0.0997217117,
				"element": "H" 
			},
			{
				"x": 1.2544381085,
				"y": 4.4049795244,
				"z": 0.2580593535,
				"element": "H" 
			},
			{
				"x": -2.1504599336,
				"y": 2.7254700009,
				"z": 0.4626591596,
				"element": "H" 
			},
			{
				"x": -0.8121621379,
				"y": 3.820678733,
				"z": 0.83107912,
				"element": "H" 
			},
			{
				"x": -1.7650461855,
				"y": 0.2249720408,
				"z": 1.5388820409,
				"element": "H" 
			},
			{
				"x": -1.572440011,
				"y": -0.8119175257,
				"z": 3.7884088035,
				"element": "H" 
			},
			{
				"x": -0.0438974579,
				"y": 2.8836258928,
				"z": 5.362974003,
				"element": "H" 
			},
			{
				"x": -0.2155312897,
				"y": 3.9100840425,
				"z": 3.1141826399,
				"element": "H" 
			}
		],
		 "valence_orbital": [ 
			{
				"type": "occ",
				"energy": -0.27483,
				"method": "rhf"
			},
			{
				"type": "occ",
				"energy": -0.26983,
				"method": "rhf"
			},
			{
				"type": "occ",
				"energy": -0.26029,
				"method": "rhf"
			},
			{
				"type": "occ",
				"energy": -0.24964,
				"method": "rhf"
			},
			{
				"type": "occ",
				"energy": -0.22685,
				"method": "rhf"
			},
			{
				"type": "unocc",
				"energy": -0.0394,
				"method": "rhf"
			},
			{
				"type": "unocc",
				"energy": -0.02393,
				"method": "rhf"
			},
			{
				"type": "unocc",
				"energy": -0.02137,
				"method": "rhf"
			},
			{
				"type": "unocc",
				"energy": -0.0149,
				"method": "rhf"
			},
			{
				"type": "unocc",
				"energy": 0.02576,
				"method": "rhf"
			}
		],
		"cosmo_sigma_profile": { 
			"-0.025": 0.0,
			"-0.024": 0.0,
			"-0.023": 0.0,
			"-0.022": 0.0,
			"-0.021": 0.0,
			"-0.02": 0.0,
			"-0.019": 0.0,
			"-0.018": 0.0,
			"-0.017": 0.633754504076,
			"-0.016": 1.54713201856,
			"-0.015": 0.757859271815,
			"-0.014": 0.843867934906,
			"-0.013": 0.708608155195,
			"-0.012": 0.718832984282,
			"-0.011": 1.28894640138,
			"-0.01": 0.696588018572,
			"-0.009": 0.514618444027,
			"-0.008": 4.56113123216,
			"-0.007": 10.5478265625,
			"-0.006": 11.168157877,
			"-0.005": 16.3626417437,
			"-0.004": 22.9079398998,
			"-0.003": 27.1195082589,
			"-0.002": 25.7213258281,
			"-0.001": 26.1033131164,
			"0.0": 22.8222652623,
			"0.001": 24.7373624936,
			"0.002": 24.6232830827,
			"0.003": 21.9605724326,
			"0.004": 19.1064299501,
			"0.005": 11.4926816547,
			"0.006": 5.3587770308,
			"0.007": 3.11004941545,
			"0.008": 3.52440374293,
			"0.009": 3.0242089625,
			"0.01": 4.59243948837,
			"0.011": 3.66633049905,
			"0.012": 4.2890405912,
			"0.013": 4.34358025529,
			"0.014": 1.6109543551,
			"0.015": 0.618218024359,
			"0.016": 0.000348597593113,
			"0.017": 0.0,
			"0.018": 0.0,
			"0.019": 0.0,
			"0.02": 0.0,
			"0.021": 0.0,
			"0.022": 0.0,
			"0.023": 0.0,
			"0.024": 0.0,
			"0.025": 0.0
		}
	}
}
