{
	 "smiles": "CN(C)C(=O)COC1=CC=C(C=C1)C(C)=O", 
	 "Tm": 399.15, 
	 "num_atms": 31, 
	 "gaussian": { 
		 "optdone": 1, 
		 "sigma_profile": "yes", 
		 "theory": "DFT", 
		 "functional": "B3LYP", 
		 "basiset": "6-31G**", 
		 "properties": { 
			 "R2extent": 5551.9573, 
			 "electric_dipole_moment_norm": 5.72059307153, 
			 "electric_quadrupole_moment_norm": 25.1934275088, 
			 "total_energy": -746.738802774, 
			 "HOMO_LUMO_gap": 0.18366, 
			 "cosmo_polarized_energy": -19.63, 
			 "cosmo_cavitation_energy": 34.66, 
			 "cosmo_dispersion_energy": -24.76, 
			 "cosmo_repulsion_energy": 1.94, 
			 "cosmo_total_nonelectrostatic_energy": 11.84, 
			 "SMD_solvation_energy": 7.39 
		},
		"coords": [
			{
				"x": 3.8833188017,
				"y": -1.3167197974,
				"z": 2.9499537334,
				"element": "C" 
			},
			{
				"x": 2.841097898,
				"y": -1.9449671689,
				"z": 2.1478585754,
				"element": "N" 
			},
			{
				"x": 2.5401195498,
				"y": -3.3281463827,
				"z": 2.4795538863,
				"element": "C" 
			},
			{
				"x": 2.3249929659,
				"y": -1.2552535668,
				"z": 1.0783760898,
				"element": "C" 
			},
			{
				"x": 2.6627511615,
				"y": -0.1158514215,
				"z": 0.7921437725,
				"element": "O" 
			},
			{
				"x": 1.2633343426,
				"y": -1.988266715,
				"z": 0.2289398224,
				"element": "C" 
			},
			{
				"x": 0.8453571468,
				"y": -1.2093241542,
				"z": -0.8688539088,
				"element": "O" 
			},
			{
				"x": -0.047637987,
				"y": -0.1955034335,
				"z": -0.6821516038,
				"element": "C" 
			},
			{
				"x": -0.4503357695,
				"y": 0.4653437154,
				"z": -1.8521270329,
				"element": "C" 
			},
			{
				"x": -1.384735655,
				"y": 1.4888091023,
				"z": -1.7860000411,
				"element": "C" 
			},
			{
				"x": -1.9448266587,
				"y": 1.87657818,
				"z": -0.5558276022,
				"element": "C" 
			},
			{
				"x": -1.526472595,
				"y": 1.2082801999,
				"z": 0.6042033658,
				"element": "C" 
			},
			{
				"x": -0.5870792673,
				"y": 0.1851544164,
				"z": 0.5551097197,
				"element": "C" 
			},
			{
				"x": -2.9567429902,
				"y": 2.9643326702,
				"z": -0.422847555,
				"element": "C" 
			},
			{
				"x": -3.4002304461,
				"y": 3.7094516968,
				"z": -1.6732014868,
				"element": "C" 
			},
			{
				"x": -3.4268665633,
				"y": 3.2580377426,
				"z": 0.6685344805,
				"element": "O" 
			},
			{
				"x": 4.0091187605,
				"y": -0.2911633429,
				"z": 2.6071789584,
				"element": "H" 
			},
			{
				"x": 4.8341371202,
				"y": -1.854859743,
				"z": 2.8432617158,
				"element": "H" 
			},
			{
				"x": 3.6004535765,
				"y": -1.3207054592,
				"z": 4.0092967967,
				"element": "H" 
			},
			{
				"x": 2.312626567,
				"y": -3.4142743451,
				"z": 3.5488196331,
				"element": "H" 
			},
			{
				"x": 1.6771423149,
				"y": -3.6980876697,
				"z": 1.927909112,
				"element": "H" 
			},
			{
				"x": 3.3938443402,
				"y": -3.9855734051,
				"z": 2.2634930657,
				"element": "H" 
			},
			{
				"x": 0.40679076,
				"y": -2.2936810726,
				"z": 0.8449388767,
				"element": "H" 
			},
			{
				"x": 1.6961916342,
				"y": -2.8922972914,
				"z": -0.2104759965,
				"element": "H" 
			},
			{
				"x": -0.0155092936,
				"y": 0.1552069872,
				"z": -2.7962990859,
				"element": "H" 
			},
			{
				"x": -1.6806375282,
				"y": 1.9855322778,
				"z": -2.704487295,
				"element": "H" 
			},
			{
				"x": -1.9541525695,
				"y": 1.5189612091,
				"z": 1.5517146398,
				"element": "H" 
			},
			{
				"x": -0.2678211262,
				"y": -0.2878334359,
				"z": 1.4758659466,
				"element": "H" 
			},
			{
				"x": -2.5505776559,
				"y": 4.1973668426,
				"z": -2.16353579,
				"element": "H" 
			},
			{
				"x": -4.1341008881,
				"y": 4.4632837628,
				"z": -1.3867279228,
				"element": "H" 
			},
			{
				"x": -3.8487499461,
				"y": 3.0252696017,
				"z": -2.4021168696,
				"element": "H" 
			}
		],
		 "valence_orbital": [ 
			{
				"type": "occ",
				"energy": -0.26123,
				"method": "rhf"
			},
			{
				"type": "occ",
				"energy": -0.2548,
				"method": "rhf"
			},
			{
				"type": "occ",
				"energy": -0.24965,
				"method": "rhf"
			},
			{
				"type": "occ",
				"energy": -0.23561,
				"method": "rhf"
			},
			{
				"type": "occ",
				"energy": -0.2223,
				"method": "rhf"
			},
			{
				"type": "unocc",
				"energy": -0.03864,
				"method": "rhf"
			},
			{
				"type": "unocc",
				"energy": -0.00292,
				"method": "rhf"
			},
			{
				"type": "unocc",
				"energy": 0.01735,
				"method": "rhf"
			},
			{
				"type": "unocc",
				"energy": 0.05657,
				"method": "rhf"
			},
			{
				"type": "unocc",
				"energy": 0.06825,
				"method": "rhf"
			}
		],
		"cosmo_sigma_profile": { 
			"-0.025": 0.0,
			"-0.024": 0.0,
			"-0.023": 0.0,
			"-0.022": 0.0,
			"-0.021": 0.0,
			"-0.02": 0.0,
			"-0.019": 0.0,
			"-0.018": 0.0,
			"-0.017": 0.0,
			"-0.016": 0.0,
			"-0.015": 0.0,
			"-0.014": 0.0,
			"-0.013": 0.0,
			"-0.012": 0.0,
			"-0.011": 0.0,
			"-0.01": 0.0938368366748,
			"-0.009": 2.22774975718,
			"-0.008": 8.15843022363,
			"-0.007": 7.74206162088,
			"-0.006": 14.955218476,
			"-0.005": 26.6094188225,
			"-0.004": 26.3751339042,
			"-0.003": 27.4623875094,
			"-0.002": 24.801014576,
			"-0.001": 18.1489976007,
			"0.0": 15.1985331925,
			"0.001": 10.6260969724,
			"0.002": 13.4327501595,
			"0.003": 13.6433171553,
			"0.004": 14.9739421034,
			"0.005": 4.95999013478,
			"0.006": 5.29318824067,
			"0.007": 5.54039957159,
			"0.008": 3.87315320251,
			"0.009": 4.04596395446,
			"0.01": 3.74662645987,
			"0.011": 5.10900508388,
			"0.012": 6.29863080292,
			"0.013": 7.42029408277,
			"0.014": 3.56870281047,
			"0.015": 0.053541391821,
			"0.016": 0.0,
			"0.017": 0.0,
			"0.018": 0.0,
			"0.019": 0.0,
			"0.02": 0.0,
			"0.021": 0.0,
			"0.022": 0.0,
			"0.023": 0.0,
			"0.024": 0.0,
			"0.025": 0.0
		}
	}
}
