{
	 "smiles": "CS(=O)(=O)NC1=C(Br)C=C(N)C=C1", 
	 "Tm": 420.15, 
	 "num_atms": 22, 
	 "gaussian": { 
		 "optdone": 1, 
		 "sigma_profile": "yes", 
		 "theory": "DFT", 
		 "functional": "B3LYP", 
		 "basiset": "6-31G**", 
		 "properties": { 
			 "R2extent": 4635.093, 
			 "electric_dipole_moment_norm": 4.42764680276, 
			 "electric_quadrupole_moment_norm": 22.3119237629, 
			 "total_energy": -3501.64659339, 
			 "HOMO_LUMO_gap": 0.18893, 
			 "cosmo_polarized_energy": -19.19, 
			 "cosmo_cavitation_energy": 29.64, 
			 "cosmo_dispersion_energy": -22.23, 
			 "cosmo_repulsion_energy": 1.72, 
			 "cosmo_total_nonelectrostatic_energy": 9.13, 
			 "SMD_solvation_energy": 3.45 
		},
		"coords": [
			{
				"x": 3.4257514945,
				"y": -1.4602165781,
				"z": -1.2525542906,
				"element": "C" 
			},
			{
				"x": 2.0305827525,
				"y": -2.1427929828,
				"z": -0.3428710019,
				"element": "S" 
			},
			{
				"x": 2.0485519339,
				"y": -1.5702018753,
				"z": 1.0028016578,
				"element": "O" 
			},
			{
				"x": 2.0161701993,
				"y": -3.5894230883,
				"z": -0.5733640316,
				"element": "O" 
			},
			{
				"x": 0.6994178866,
				"y": -1.5243627498,
				"z": -1.2310024313,
				"element": "N" 
			},
			{
				"x": -0.1650677496,
				"y": -0.5400996112,
				"z": -0.6843143803,
				"element": "C" 
			},
			{
				"x": -1.548891094,
				"y": -0.7422608882,
				"z": -0.5761574869,
				"element": "C" 
			},
			{
				"x": -2.3169392165,
				"y": -2.4105112808,
				"z": -1.1246827152,
				"element": "Br" 
			},
			{
				"x": -2.406336382,
				"y": 0.2424608795,
				"z": -0.0969719651,
				"element": "C" 
			},
			{
				"x": -1.8968845052,
				"y": 1.4786732856,
				"z": 0.3273936651,
				"element": "C" 
			},
			{
				"x": -2.7509996093,
				"y": 2.4873136493,
				"z": 0.7722521923,
				"element": "N" 
			},
			{
				"x": -0.5111185748,
				"y": 1.6924567064,
				"z": 0.2300197446,
				"element": "C" 
			},
			{
				"x": 0.3249715489,
				"y": 0.7087949522,
				"z": -0.2780345356,
				"element": "C" 
			},
			{
				"x": 3.3915623319,
				"y": -0.3716567444,
				"z": -1.2003462545,
				"element": "H" 
			},
			{
				"x": 4.3306696598,
				"y": -1.8357274055,
				"z": -0.7711856913,
				"element": "H" 
			},
			{
				"x": 3.3694108889,
				"y": -1.8023020762,
				"z": -2.2859056994,
				"element": "H" 
			},
			{
				"x": 0.1994287383,
				"y": -2.3257814018,
				"z": -1.611513231,
				"element": "H" 
			},
			{
				"x": -3.4715232227,
				"y": 0.0440551019,
				"z": -0.0480093041,
				"element": "H" 
			},
			{
				"x": -2.3241133012,
				"y": 3.1733149945,
				"z": 1.3793839567,
				"element": "H" 
			},
			{
				"x": -3.6420851696,
				"y": 2.1719795036,
				"z": 1.130077154,
				"element": "H" 
			},
			{
				"x": -0.0905177256,
				"y": 2.6446085,
				"z": 0.5410288927,
				"element": "H" 
			},
			{
				"x": 1.3883591158,
				"y": 0.9061791094,
				"z": -0.3540442441,
				"element": "H" 
			}
		],
		 "valence_orbital": [ 
			{
				"type": "occ",
				"energy": -0.30233,
				"method": "rhf"
			},
			{
				"type": "occ",
				"energy": -0.29743,
				"method": "rhf"
			},
			{
				"type": "occ",
				"energy": -0.28355,
				"method": "rhf"
			},
			{
				"type": "occ",
				"energy": -0.25092,
				"method": "rhf"
			},
			{
				"type": "occ",
				"energy": -0.20547,
				"method": "rhf"
			},
			{
				"type": "unocc",
				"energy": -0.01654,
				"method": "rhf"
			},
			{
				"type": "unocc",
				"energy": -0.00358,
				"method": "rhf"
			},
			{
				"type": "unocc",
				"energy": -0.00095,
				"method": "rhf"
			},
			{
				"type": "unocc",
				"energy": 0.06249,
				"method": "rhf"
			},
			{
				"type": "unocc",
				"energy": 0.06912,
				"method": "rhf"
			}
		],
		"cosmo_sigma_profile": { 
			"-0.025": 0.0,
			"-0.024": 0.0,
			"-0.023": 0.0,
			"-0.022": 0.0,
			"-0.021": 0.0,
			"-0.02": 0.0,
			"-0.019": 0.0,
			"-0.018": 0.0,
			"-0.017": 0.0,
			"-0.016": 0.0,
			"-0.015": 0.0,
			"-0.014": 0.0,
			"-0.013": 1.48208274288,
			"-0.012": 2.86777654828,
			"-0.011": 3.09078370312,
			"-0.01": 4.6024547066,
			"-0.009": 8.6636657895,
			"-0.008": 10.8903102489,
			"-0.007": 10.5374483193,
			"-0.006": 11.6031450389,
			"-0.005": 14.2620565624,
			"-0.004": 14.4336612373,
			"-0.003": 11.1560040265,
			"-0.002": 10.2867784898,
			"-0.001": 9.77242231033,
			"0.0": 9.54623320895,
			"0.001": 11.2927029939,
			"0.002": 15.3723935127,
			"0.003": 16.8981724865,
			"0.004": 21.3550855736,
			"0.005": 7.65816559856,
			"0.006": 4.2671453096,
			"0.007": 4.58527305937,
			"0.008": 5.36014917042,
			"0.009": 3.45041715594,
			"0.01": 8.76176479536,
			"0.011": 12.4387170956,
			"0.012": 3.5849998666,
			"0.013": 0.412998134805,
			"0.014": 0.427509139751,
			"0.015": 0.0420220233511,
			"0.016": 0.0,
			"0.017": 0.0,
			"0.018": 0.0,
			"0.019": 0.0,
			"0.02": 0.0,
			"0.021": 0.0,
			"0.022": 0.0,
			"0.023": 0.0,
			"0.024": 0.0,
			"0.025": 0.0
		}
	}
}
