{
	 "smiles": "NNC(=O)COC1=CC=C(Br)C=C1", 
	 "Tm": 444.15, 
	 "num_atms": 22, 
	 "gaussian": { 
		 "optdone": 1, 
		 "sigma_profile": "yes", 
		 "theory": "DFT", 
		 "functional": "B3LYP", 
		 "basiset": "6-31G**", 
		 "properties": { 
			 "R2extent": 6357.9221, 
			 "electric_dipole_moment_norm": 2.4115829117, 
			 "electric_quadrupole_moment_norm": 14.4466559321, 
			 "total_energy": -3141.58928767, 
			 "HOMO_LUMO_gap": 0.20714, 
			 "cosmo_polarized_energy": -15.63, 
			 "cosmo_cavitation_energy": 29.21, 
			 "cosmo_dispersion_energy": -21.54, 
			 "cosmo_repulsion_energy": 1.73, 
			 "cosmo_total_nonelectrostatic_energy": 9.39, 
			 "SMD_solvation_energy": 5.25 
		},
		"coords": [
			{
				"x": -0.1830715595,
				"y": 1.7996231583,
				"z": 2.662653638,
				"element": "N" 
			},
			{
				"x": -1.2769638527,
				"y": 1.0065945876,
				"z": 3.0506804795,
				"element": "N" 
			},
			{
				"x": -2.0272669675,
				"y": 0.1729989992,
				"z": 2.2701038792,
				"element": "C" 
			},
			{
				"x": -2.950066336,
				"y": -0.4883373803,
				"z": 2.7227387357,
				"element": "O" 
			},
			{
				"x": -1.6793953058,
				"y": 0.1284322425,
				"z": 0.7787745571,
				"element": "C" 
			},
			{
				"x": -0.3164237935,
				"y": -0.2668853504,
				"z": 0.6263259415,
				"element": "O" 
			},
			{
				"x": 0.1694617288,
				"y": -0.4503850428,
				"z": -0.642896925,
				"element": "C" 
			},
			{
				"x": 1.5035418769,
				"y": -0.8726296374,
				"z": -0.7258119006,
				"element": "C" 
			},
			{
				"x": 2.0969311373,
				"y": -1.080588845,
				"z": -1.9651667487,
				"element": "C" 
			},
			{
				"x": 1.3541052773,
				"y": -0.8672683975,
				"z": -3.1287606474,
				"element": "C" 
			},
			{
				"x": 2.1684111069,
				"y": -1.1513984106,
				"z": -4.8341768781,
				"element": "Br" 
			},
			{
				"x": 0.029252869,
				"y": -0.4518887593,
				"z": -3.0569639687,
				"element": "C" 
			},
			{
				"x": -0.5698027835,
				"y": -0.2412844678,
				"z": -1.8111505654,
				"element": "C" 
			},
			{
				"x": -0.5050444251,
				"y": 2.5777404249,
				"z": 2.0906730877,
				"element": "H" 
			},
			{
				"x": 0.4557575276,
				"y": 1.2353769039,
				"z": 2.1097289627,
				"element": "H" 
			},
			{
				"x": -1.4711057088,
				"y": 0.9785466544,
				"z": 4.0432248319,
				"element": "H" 
			},
			{
				"x": -1.8483668251,
				"y": 1.1126257824,
				"z": 0.3155761485,
				"element": "H" 
			},
			{
				"x": -2.3547781483,
				"y": -0.6011142372,
				"z": 0.3235118376,
				"element": "H" 
			},
			{
				"x": 2.0591709887,
				"y": -1.0379240224,
				"z": 0.1914805837,
				"element": "H" 
			},
			{
				"x": 3.1284380271,
				"y": -1.4077483682,
				"z": -2.0284616454,
				"element": "H" 
			},
			{
				"x": -0.5417312555,
				"y": -0.2910850687,
				"z": -3.9643088343,
				"element": "H" 
			},
			{
				"x": -1.6037535782,
				"y": 0.0797992343,
				"z": -1.7740745696,
				"element": "H" 
			}
		],
		 "valence_orbital": [ 
			{
				"type": "occ",
				"energy": -0.29019,
				"method": "rhf"
			},
			{
				"type": "occ",
				"energy": -0.27365,
				"method": "rhf"
			},
			{
				"type": "occ",
				"energy": -0.26542,
				"method": "rhf"
			},
			{
				"type": "occ",
				"energy": -0.25385,
				"method": "rhf"
			},
			{
				"type": "occ",
				"energy": -0.23177,
				"method": "rhf"
			},
			{
				"type": "unocc",
				"energy": -0.02463,
				"method": "rhf"
			},
			{
				"type": "unocc",
				"energy": -0.01131,
				"method": "rhf"
			},
			{
				"type": "unocc",
				"energy": 0.00139,
				"method": "rhf"
			},
			{
				"type": "unocc",
				"energy": 0.00405,
				"method": "rhf"
			},
			{
				"type": "unocc",
				"energy": 0.0648,
				"method": "rhf"
			}
		],
		"cosmo_sigma_profile": { 
			"-0.025": 0.0,
			"-0.024": 0.0,
			"-0.023": 0.0,
			"-0.022": 0.0,
			"-0.021": 0.0,
			"-0.02": 0.0,
			"-0.019": 0.0,
			"-0.018": 0.0,
			"-0.017": 0.0,
			"-0.016": 0.0,
			"-0.015": 0.0109631962724,
			"-0.014": 0.652027784762,
			"-0.013": 1.14567601077,
			"-0.012": 1.57249847462,
			"-0.011": 2.56185959726,
			"-0.01": 3.34128825275,
			"-0.009": 3.87674762728,
			"-0.008": 7.49416758466,
			"-0.007": 14.9553927188,
			"-0.006": 13.4801561741,
			"-0.005": 11.7465837014,
			"-0.004": 11.8038974127,
			"-0.003": 10.3222965956,
			"-0.002": 11.8708967978,
			"-0.001": 11.6071701127,
			"0.0": 12.3113419054,
			"0.001": 16.4373275101,
			"0.002": 19.9915127759,
			"0.003": 23.039064107,
			"0.004": 18.1052330256,
			"0.005": 12.0153293136,
			"0.006": 2.71613067983,
			"0.007": 2.58420552617,
			"0.008": 1.97952160276,
			"0.009": 1.39169866345,
			"0.01": 2.20514527234,
			"0.011": 1.96757984267,
			"0.012": 3.23520057156,
			"0.013": 6.72303412339,
			"0.014": 3.26265924498,
			"0.015": 0.655684883769,
			"0.016": 0.424885758085,
			"0.017": 0.0317045599152,
			"0.018": 0.0,
			"0.019": 0.0,
			"0.02": 0.0,
			"0.021": 0.0,
			"0.022": 0.0,
			"0.023": 0.0,
			"0.024": 0.0,
			"0.025": 0.0
		}
	}
}
