{
	 "smiles": "CC1=NC(=NO1)C1=CC(=CC=C1)S(Cl)(=O)=O", 
	 "Tm": 341.15, 
	 "num_atms": 23, 
	 "gaussian": { 
		 "optdone": 1, 
		 "sigma_profile": "yes", 
		 "theory": "DFT", 
		 "functional": "B3LYP", 
		 "basiset": "6-31G**", 
		 "properties": { 
			 "R2extent": 6078.8056, 
			 "electric_dipole_moment_norm": 7.23037992363, 
			 "electric_quadrupole_moment_norm": 11.4648861848, 
			 "total_energy": -1540.63295161, 
			 "HOMO_LUMO_gap": 0.18192, 
			 "cosmo_polarized_energy": -12.6, 
			 "cosmo_cavitation_energy": 32.2, 
			 "cosmo_dispersion_energy": -24.03, 
			 "cosmo_repulsion_energy": 1.83, 
			 "cosmo_total_nonelectrostatic_energy": 10.0, 
			 "SMD_solvation_energy": 2.88 
		},
		"coords": [
			{
				"x": -5.1979776191,
				"y": 0.9814146072,
				"z": -0.3367948683,
				"element": "C" 
			},
			{
				"x": -3.8165083768,
				"y": 0.5496162389,
				"z": 0.0036695293,
				"element": "C" 
			},
			{
				"x": -2.745044969,
				"y": 0.5882502145,
				"z": -0.7331150116,
				"element": "N" 
			},
			{
				"x": -1.7856031828,
				"y": 0.0623313553,
				"z": 0.1091776349,
				"element": "C" 
			},
			{
				"x": -2.2331191154,
				"y": -0.2818365931,
				"z": 1.2951104178,
				"element": "N" 
			},
			{
				"x": -3.5931216833,
				"y": 0.042302723,
				"z": 1.2310540655,
				"element": "O" 
			},
			{
				"x": -0.3793651036,
				"y": -0.1010241616,
				"z": -0.2866085718,
				"element": "C" 
			},
			{
				"x": 0.5548562297,
				"y": -0.6360759484,
				"z": 0.6111867135,
				"element": "C" 
			},
			{
				"x": 1.8740176636,
				"y": -0.7673413387,
				"z": 0.1906762345,
				"element": "C" 
			},
			{
				"x": 2.3047592507,
				"y": -0.3865080775,
				"z": -1.0825116419,
				"element": "C" 
			},
			{
				"x": 1.363404919,
				"y": 0.1445257768,
				"z": -1.9623505766,
				"element": "C" 
			},
			{
				"x": 0.0318996383,
				"y": 0.2851158099,
				"z": -1.5704843805,
				"element": "C" 
			},
			{
				"x": 3.0757823213,
				"y": -1.4318654643,
				"z": 1.3379994667,
				"element": "S" 
			},
			{
				"x": 2.9675592834,
				"y": -3.5159211756,
				"z": 0.8901376616,
				"element": "Cl" 
			},
			{
				"x": 4.409308159,
				"y": -1.000611666,
				"z": 0.937472931,
				"element": "O" 
			},
			{
				"x": 2.5829161587,
				"y": -1.2816150161,
				"z": 2.7006048134,
				"element": "O" 
			},
			{
				"x": -5.8940697,
				"y": 0.1411376705,
				"z": -0.2551498454,
				"element": "H" 
			},
			{
				"x": -5.5366780336,
				"y": 1.7623618853,
				"z": 0.3507132008,
				"element": "H" 
			},
			{
				"x": -5.2124412,
				"y": 1.3656644303,
				"z": -1.3565227111,
				"element": "H" 
			},
			{
				"x": 0.2563134851,
				"y": -0.9318204082,
				"z": 1.6104491261,
				"element": "H" 
			},
			{
				"x": 3.3460732656,
				"y": -0.4963952196,
				"z": -1.3628558487,
				"element": "H" 
			},
			{
				"x": 1.6701957164,
				"y": 0.45310176,
				"z": -2.9564873962,
				"element": "H" 
			},
			{
				"x": -0.7050571072,
				"y": 0.6972925976,
				"z": -2.2508709429,
				"element": "H" 
			}
		],
		 "valence_orbital": [ 
			{
				"type": "occ",
				"energy": -0.31517,
				"method": "rhf"
			},
			{
				"type": "occ",
				"energy": -0.31345,
				"method": "rhf"
			},
			{
				"type": "occ",
				"energy": -0.31263,
				"method": "rhf"
			},
			{
				"type": "occ",
				"energy": -0.29273,
				"method": "rhf"
			},
			{
				"type": "occ",
				"energy": -0.27221,
				"method": "rhf"
			},
			{
				"type": "unocc",
				"energy": -0.09029,
				"method": "rhf"
			},
			{
				"type": "unocc",
				"energy": -0.07068,
				"method": "rhf"
			},
			{
				"type": "unocc",
				"energy": -0.04546,
				"method": "rhf"
			},
			{
				"type": "unocc",
				"energy": -0.02159,
				"method": "rhf"
			},
			{
				"type": "unocc",
				"energy": 0.03396,
				"method": "rhf"
			}
		],
		"cosmo_sigma_profile": { 
			"-0.025": 0.0,
			"-0.024": 0.0,
			"-0.023": 0.0,
			"-0.022": 0.0,
			"-0.021": 0.0,
			"-0.02": 0.0,
			"-0.019": 0.0,
			"-0.018": 0.0,
			"-0.017": 0.0,
			"-0.016": 0.0,
			"-0.015": 0.0,
			"-0.014": 0.0,
			"-0.013": 0.0,
			"-0.012": 0.0,
			"-0.011": 0.0,
			"-0.01": 0.0,
			"-0.009": 0.963720175414,
			"-0.008": 5.77255509745,
			"-0.007": 14.2524765523,
			"-0.006": 14.3509480995,
			"-0.005": 14.2371432335,
			"-0.004": 17.8084205238,
			"-0.003": 17.7616501728,
			"-0.002": 21.6436125507,
			"-0.001": 25.3601384707,
			"0.0": 23.0220942077,
			"0.001": 15.6368736085,
			"0.002": 12.5918394793,
			"0.003": 18.5599429837,
			"0.004": 11.6020171779,
			"0.005": 7.14258339332,
			"0.006": 9.24772738138,
			"0.007": 9.92408507607,
			"0.008": 12.1663638315,
			"0.009": 5.4686829965,
			"0.01": 2.32148374953,
			"0.011": 1.85870117611,
			"0.012": 0.630960945231,
			"0.013": 0.0,
			"0.014": 0.0,
			"0.015": 0.0,
			"0.016": 0.0,
			"0.017": 0.0,
			"0.018": 0.0,
			"0.019": 0.0,
			"0.02": 0.0,
			"0.021": 0.0,
			"0.022": 0.0,
			"0.023": 0.0,
			"0.024": 0.0,
			"0.025": 0.0
		}
	}
}
