{
	 "smiles": "FC1=CC=C(C=C1)N=C=S", 
	 "Tm": 299.65, 
	 "num_atms": 14, 
	 "gaussian": { 
		 "optdone": 1, 
		 "sigma_profile": "yes", 
		 "theory": "DFT", 
		 "functional": "B3LYP", 
		 "basiset": "6-31G**", 
		 "properties": { 
			 "R2extent": 3088.6083, 
			 "electric_dipole_moment_norm": 2.62111767382, 
			 "electric_quadrupole_moment_norm": 19.4388561616, 
			 "total_energy": -821.921047844, 
			 "HOMO_LUMO_gap": 0.18283, 
			 "cosmo_polarized_energy": -5.67, 
			 "cosmo_cavitation_energy": 22.37, 
			 "cosmo_dispersion_energy": -16.65, 
			 "cosmo_repulsion_energy": 1.3, 
			 "cosmo_total_nonelectrostatic_energy": 7.01, 
			 "SMD_solvation_energy": 5.03 
		},
		"coords": [
			{
				"x": -1.4656404681,
				"y": -2.4102163005,
				"z": 0.4397242267,
				"element": "F" 
			},
			{
				"x": -1.0477571859,
				"y": -1.1386478902,
				"z": 0.2954242064,
				"element": "C" 
			},
			{
				"x": -1.9952133757,
				"y": -0.1260497937,
				"z": 0.1787923003,
				"element": "C" 
			},
			{
				"x": -1.5639822266,
				"y": 1.1882958413,
				"z": 0.0297060513,
				"element": "C" 
			},
			{
				"x": -0.1884796418,
				"y": 1.4759341707,
				"z": -0.0011531199,
				"element": "C" 
			},
			{
				"x": 0.751217162,
				"y": 0.4374718887,
				"z": 0.1183355322,
				"element": "C" 
			},
			{
				"x": 0.318667251,
				"y": -0.8764327462,
				"z": 0.2674462539,
				"element": "C" 
			},
			{
				"x": 0.2373623002,
				"y": 2.7719523772,
				"z": -0.1483151847,
				"element": "N" 
			},
			{
				"x": 0.6056750221,
				"y": 3.8929436445,
				"z": -0.2751735553,
				"element": "C" 
			},
			{
				"x": 1.1005815579,
				"y": 5.3986952944,
				"z": -0.4445816802,
				"element": "S" 
			},
			{
				"x": -3.0505368701,
				"y": -0.3735826626,
				"z": 0.2054602017,
				"element": "H" 
			},
			{
				"x": -2.2794239731,
				"y": 1.9977857327,
				"z": -0.0634834504,
				"element": "H" 
			},
			{
				"x": 1.8096666548,
				"y": 0.671700915,
				"z": 0.0930888264,
				"element": "H" 
			},
			{
				"x": 1.0236637934,
				"y": -1.6948504712,
				"z": 0.3616293917,
				"element": "H" 
			}
		],
		 "valence_orbital": [ 
			{
				"type": "occ",
				"energy": -0.36614,
				"method": "rhf"
			},
			{
				"type": "occ",
				"energy": -0.29081,
				"method": "rhf"
			},
			{
				"type": "occ",
				"energy": -0.28386,
				"method": "rhf"
			},
			{
				"type": "occ",
				"energy": -0.25427,
				"method": "rhf"
			},
			{
				"type": "occ",
				"energy": -0.23128,
				"method": "rhf"
			},
			{
				"type": "unocc",
				"energy": -0.04845,
				"method": "rhf"
			},
			{
				"type": "unocc",
				"energy": -0.03253,
				"method": "rhf"
			},
			{
				"type": "unocc",
				"energy": 0.00193,
				"method": "rhf"
			},
			{
				"type": "unocc",
				"energy": 0.04512,
				"method": "rhf"
			},
			{
				"type": "unocc",
				"energy": 0.06687,
				"method": "rhf"
			}
		],
		"cosmo_sigma_profile": { 
			"-0.025": 0.0,
			"-0.024": 0.0,
			"-0.023": 0.0,
			"-0.022": 0.0,
			"-0.021": 0.0,
			"-0.02": 0.0,
			"-0.019": 0.0,
			"-0.018": 0.0,
			"-0.017": 0.0,
			"-0.016": 0.0,
			"-0.015": 0.0,
			"-0.014": 0.0,
			"-0.013": 0.0,
			"-0.012": 0.0,
			"-0.011": 0.0,
			"-0.01": 0.0,
			"-0.009": 0.0974893374668,
			"-0.008": 6.17535143394,
			"-0.007": 8.22152384783,
			"-0.006": 9.17807607657,
			"-0.005": 6.98506741563,
			"-0.004": 6.9614423099,
			"-0.003": 7.99698302079,
			"-0.002": 10.1774551927,
			"-0.001": 20.0963008798,
			"0.0": 20.168929544,
			"0.001": 20.3648862645,
			"0.002": 17.562444099,
			"0.003": 12.546893878,
			"0.004": 14.5284319836,
			"0.005": 8.35365972641,
			"0.006": 13.0109236236,
			"0.007": 2.51387474333,
			"0.008": 0.0,
			"0.009": 0.0,
			"0.01": 0.0,
			"0.011": 0.0,
			"0.012": 0.0,
			"0.013": 0.0,
			"0.014": 0.0,
			"0.015": 0.0,
			"0.016": 0.0,
			"0.017": 0.0,
			"0.018": 0.0,
			"0.019": 0.0,
			"0.02": 0.0,
			"0.021": 0.0,
			"0.022": 0.0,
			"0.023": 0.0,
			"0.024": 0.0,
			"0.025": 0.0
		}
	}
}
