{
	 "smiles": "CN1N=C2C=CC(NC(=O)C3=CC=C(C=C3)N(=O)=O)=CC2=N1", 
	 "Tm": 553.15, 
	 "num_atms": 33, 
	 "gaussian": { 
		 "optdone": 1, 
		 "sigma_profile": "yes", 
		 "theory": "DFT", 
		 "functional": "B3LYP", 
		 "basiset": "6-31G**", 
		 "properties": { 
			 "R2extent": 8057.3053, 
			 "electric_dipole_moment_norm": 5.42962013496, 
			 "electric_quadrupole_moment_norm": 20.4427870967, 
			 "total_energy": -1039.42819716, 
			 "HOMO_LUMO_gap": 0.13648, 
			 "cosmo_polarized_energy": -18.92, 
			 "cosmo_cavitation_energy": 39.58, 
			 "cosmo_dispersion_energy": -27.82, 
			 "cosmo_repulsion_energy": 2.12, 
			 "cosmo_total_nonelectrostatic_energy": 13.88, 
			 "SMD_solvation_energy": 7.44 
		},
		"coords": [
			{
				"x": -1.7475495876,
				"y": 4.7366172567,
				"z": 1.8489893714,
				"element": "C" 
			},
			{
				"x": -0.8091802095,
				"y": 3.6281171908,
				"z": 1.765572023,
				"element": "N" 
			},
			{
				"x": -0.2709746021,
				"y": 3.1028280834,
				"z": 2.8595284244,
				"element": "N" 
			},
			{
				"x": 0.4725337231,
				"y": 2.0868770545,
				"z": 2.3645731262,
				"element": "C" 
			},
			{
				"x": 1.3056299686,
				"y": 1.1488063966,
				"z": 3.0154558317,
				"element": "C" 
			},
			{
				"x": 1.9377278814,
				"y": 0.2161560276,
				"z": 2.2261909318,
				"element": "C" 
			},
			{
				"x": 1.788450361,
				"y": 0.1965889553,
				"z": 0.8002605072,
				"element": "C" 
			},
			{
				"x": 2.5155607088,
				"y": -0.8022255596,
				"z": 0.0986860203,
				"element": "N" 
			},
			{
				"x": 2.2161980287,
				"y": -1.4708071831,
				"z": -1.0733101286,
				"element": "C" 
			},
			{
				"x": 3.1113325236,
				"y": -1.9652811102,
				"z": -1.7478112633,
				"element": "O" 
			},
			{
				"x": 0.7757991549,
				"y": -1.6592522644,
				"z": -1.4664686703,
				"element": "C" 
			},
			{
				"x": -0.2506897013,
				"y": -1.858281598,
				"z": -0.5311523292,
				"element": "C" 
			},
			{
				"x": -1.5469003727,
				"y": -2.1310674515,
				"z": -0.957768176,
				"element": "C" 
			},
			{
				"x": -1.8017709339,
				"y": -2.1902698665,
				"z": -2.3264668532,
				"element": "C" 
			},
			{
				"x": -0.7997057014,
				"y": -2.0072614433,
				"z": -3.2776425102,
				"element": "C" 
			},
			{
				"x": 0.4951855143,
				"y": -1.7555383104,
				"z": -2.8369609004,
				"element": "C" 
			},
			{
				"x": -3.1761170245,
				"y": -2.4639281703,
				"z": -2.7822884408,
				"element": "N" 
			},
			{
				"x": -3.375445169,
				"y": -2.5089156796,
				"z": -3.9952367085,
				"element": "O" 
			},
			{
				"x": -4.0395449,
				"y": -2.6295452662,
				"z": -1.9215592087,
				"element": "O" 
			},
			{
				"x": 1.0022856616,
				"y": 1.126101515,
				"z": 0.14468077,
				"element": "C" 
			},
			{
				"x": 0.320268416,
				"y": 2.0660774682,
				"z": 0.9476074963,
				"element": "C" 
			},
			{
				"x": -0.512630495,
				"y": 3.0724372144,
				"z": 0.5947932008,
				"element": "N" 
			},
			{
				"x": -1.537672339,
				"y": 5.2883271254,
				"z": 2.7640862836,
				"element": "H" 
			},
			{
				"x": -2.7733010004,
				"y": 4.3580593659,
				"z": 1.8713676063,
				"element": "H" 
			},
			{
				"x": -1.6117313414,
				"y": 5.3696137573,
				"z": 0.9725061982,
				"element": "H" 
			},
			{
				"x": 1.4288494029,
				"y": 1.1605151519,
				"z": 4.0928547312,
				"element": "H" 
			},
			{
				"x": 2.5685352109,
				"y": -0.5424598209,
				"z": 2.680291771,
				"element": "H" 
			},
			{
				"x": 3.5018846255,
				"y": -0.879940881,
				"z": 0.3212201748,
				"element": "H" 
			},
			{
				"x": -0.0374830436,
				"y": -1.812074677,
				"z": 0.5305728632,
				"element": "H" 
			},
			{
				"x": -2.355429738,
				"y": -2.2971415874,
				"z": -0.2572980669,
				"element": "H" 
			},
			{
				"x": -1.0439958819,
				"y": -2.0730126934,
				"z": -4.3302965512,
				"element": "H" 
			},
			{
				"x": 1.3082295296,
				"y": -1.6402482279,
				"z": -3.5450031252,
				"element": "H" 
			},
			{
				"x": 0.9131513304,
				"y": 1.1434292278,
				"z": -0.934674399,
				"element": "H" 
			}
		],
		 "valence_orbital": [ 
			{
				"type": "occ",
				"energy": -0.28954,
				"method": "rhf"
			},
			{
				"type": "occ",
				"energy": -0.28336,
				"method": "rhf"
			},
			{
				"type": "occ",
				"energy": -0.26713,
				"method": "rhf"
			},
			{
				"type": "occ",
				"energy": -0.25572,
				"method": "rhf"
			},
			{
				"type": "occ",
				"energy": -0.23421,
				"method": "rhf"
			},
			{
				"type": "unocc",
				"energy": -0.09773,
				"method": "rhf"
			},
			{
				"type": "unocc",
				"energy": -0.06418,
				"method": "rhf"
			},
			{
				"type": "unocc",
				"energy": -0.03184,
				"method": "rhf"
			},
			{
				"type": "unocc",
				"energy": -0.03137,
				"method": "rhf"
			},
			{
				"type": "unocc",
				"energy": 0.00411,
				"method": "rhf"
			}
		],
		"cosmo_sigma_profile": { 
			"-0.025": 0.0,
			"-0.024": 0.0,
			"-0.023": 0.0,
			"-0.022": 0.0,
			"-0.021": 0.0,
			"-0.02": 0.0,
			"-0.019": 0.0,
			"-0.018": 0.0,
			"-0.017": 0.0,
			"-0.016": 0.0,
			"-0.015": 0.593017196704,
			"-0.014": 0.887434690263,
			"-0.013": 1.44108454556,
			"-0.012": 0.817600469302,
			"-0.011": 0.804556961371,
			"-0.01": 1.21461930785,
			"-0.009": 1.1006594778,
			"-0.008": 6.74674032355,
			"-0.007": 20.6134684718,
			"-0.006": 19.798156733,
			"-0.005": 21.5695105433,
			"-0.004": 22.2844736634,
			"-0.003": 19.6111659768,
			"-0.002": 18.968656782,
			"-0.001": 22.1673191584,
			"0.0": 25.8181962499,
			"0.001": 25.3988984803,
			"0.002": 19.3638820774,
			"0.003": 13.8638550478,
			"0.004": 7.51245498165,
			"0.005": 8.22626934327,
			"0.006": 8.09506974674,
			"0.007": 11.5291579531,
			"0.008": 10.289573585,
			"0.009": 8.00269418404,
			"0.01": 5.15749810856,
			"0.011": 4.08002144395,
			"0.012": 6.81869545279,
			"0.013": 4.49847827687,
			"0.014": 0.960899630611,
			"0.015": 0.0,
			"0.016": 0.0,
			"0.017": 0.0,
			"0.018": 0.0,
			"0.019": 0.0,
			"0.02": 0.0,
			"0.021": 0.0,
			"0.022": 0.0,
			"0.023": 0.0,
			"0.024": 0.0,
			"0.025": 0.0
		}
	}
}
