{
	 "smiles": "COC1(CC(CO)(CO)C1)OC", 
	 "Tm": 322.15, 
	 "num_atms": 28, 
	 "gaussian": { 
		 "optdone": 1, 
		 "sigma_profile": "yes", 
		 "theory": "DFT", 
		 "functional": "B3LYP", 
		 "basiset": "6-31G**", 
		 "properties": { 
			 "R2extent": 3802.4434, 
			 "electric_dipole_moment_norm": 3.0150201923, 
			 "electric_quadrupole_moment_norm": 14.5678529204, 
			 "total_energy": -615.329960865, 
			 "HOMO_LUMO_gap": 0.30472, 
			 "cosmo_polarized_energy": -12.21, 
			 "cosmo_cavitation_energy": 28.68, 
			 "cosmo_dispersion_energy": -20.42, 
			 "cosmo_repulsion_energy": 1.63, 
			 "cosmo_total_nonelectrostatic_energy": 9.89, 
			 "SMD_solvation_energy": 5.7 
		},
		"coords": [
			{
				"x": -0.2069107328,
				"y": 1.4535277499,
				"z": -0.233356045,
				"element": "C" 
			},
			{
				"x": 1.0761359312,
				"y": 0.8563611381,
				"z": -0.0744537794,
				"element": "O" 
			},
			{
				"x": 1.0465634748,
				"y": -0.4906120892,
				"z": 0.3121247091,
				"element": "C" 
			},
			{
				"x": 0.4397494192,
				"y": -0.8454625953,
				"z": 1.6915416829,
				"element": "C" 
			},
			{
				"x": 1.7514957729,
				"y": -1.6189331276,
				"z": 2.0402994072,
				"element": "C" 
			},
			{
				"x": 2.377898875,
				"y": -1.2494266357,
				"z": 3.3891653319,
				"element": "C" 
			},
			{
				"x": 1.5386683672,
				"y": -1.5473933828,
				"z": 4.4897877767,
				"element": "O" 
			},
			{
				"x": 1.6103896791,
				"y": -3.1372061952,
				"z": 1.8811124288,
				"element": "C" 
			},
			{
				"x": 0.822792396,
				"y": -3.7460375834,
				"z": 2.9156843393,
				"element": "O" 
			},
			{
				"x": 2.4362582608,
				"y": -0.9816642651,
				"z": 0.7908072474,
				"element": "C" 
			},
			{
				"x": 0.4345193648,
				"y": -1.3145956272,
				"z": -0.6620938337,
				"element": "O" 
			},
			{
				"x": 1.0455834479,
				"y": -1.2781188516,
				"z": -1.9479630845,
				"element": "C" 
			},
			{
				"x": -0.0330028854,
				"y": 2.4832168753,
				"z": -0.5521696574,
				"element": "H" 
			},
			{
				"x": -0.7663659243,
				"y": 1.4638451023,
				"z": 0.7118839019,
				"element": "H" 
			},
			{
				"x": -0.8067358325,
				"y": 0.9331532494,
				"z": -0.9886894246,
				"element": "H" 
			},
			{
				"x": 0.3014431227,
				"y": 0.032677707,
				"z": 2.3265590258,
				"element": "H" 
			},
			{
				"x": -0.495121399,
				"y": -1.4133269186,
				"z": 1.6537891143,
				"element": "H" 
			},
			{
				"x": 2.5642614789,
				"y": -0.1692673951,
				"z": 3.4214911731,
				"element": "H" 
			},
			{
				"x": 3.3607388936,
				"y": -1.7480439334,
				"z": 3.4768716769,
				"element": "H" 
			},
			{
				"x": 1.2771215394,
				"y": -2.4757828619,
				"z": 4.3748454181,
				"element": "H" 
			},
			{
				"x": 2.5971702,
				"y": -3.6083686837,
				"z": 1.9551801782,
				"element": "H" 
			},
			{
				"x": 1.1947149492,
				"y": -3.374225399,
				"z": 0.892992578,
				"element": "H" 
			},
			{
				"x": -0.0947235839,
				"y": -3.4716633706,
				"z": 2.7817996962,
				"element": "H" 
			},
			{
				"x": 3.0898754818,
				"y": -0.1434222508,
				"z": 1.0442691674,
				"element": "H" 
			},
			{
				"x": 2.9699376148,
				"y": -1.6621076186,
				"z": 0.1206960251,
				"element": "H" 
			},
			{
				"x": 2.0740962527,
				"y": -1.6629076484,
				"z": -1.9244909727,
				"element": "H" 
			},
			{
				"x": 1.064731534,
				"y": -0.2624699185,
				"z": -2.3572869047,
				"element": "H" 
			},
			{
				"x": 0.443914302,
				"y": -1.9212454703,
				"z": -2.5935971766,
				"element": "H" 
			}
		],
		 "valence_orbital": [ 
			{
				"type": "occ",
				"energy": -0.29452,
				"method": "rhf"
			},
			{
				"type": "occ",
				"energy": -0.27468,
				"method": "rhf"
			},
			{
				"type": "occ",
				"energy": -0.27093,
				"method": "rhf"
			},
			{
				"type": "occ",
				"energy": -0.26478,
				"method": "rhf"
			},
			{
				"type": "occ",
				"energy": -0.2483,
				"method": "rhf"
			},
			{
				"type": "unocc",
				"energy": 0.05642,
				"method": "rhf"
			},
			{
				"type": "unocc",
				"energy": 0.08449,
				"method": "rhf"
			},
			{
				"type": "unocc",
				"energy": 0.09606,
				"method": "rhf"
			},
			{
				"type": "unocc",
				"energy": 0.10457,
				"method": "rhf"
			},
			{
				"type": "unocc",
				"energy": 0.12146,
				"method": "rhf"
			}
		],
		"cosmo_sigma_profile": { 
			"-0.025": 0.0,
			"-0.024": 0.0,
			"-0.023": 0.0,
			"-0.022": 0.0,
			"-0.021": 0.0,
			"-0.02": 0.0,
			"-0.019": 0.0,
			"-0.018": 0.0,
			"-0.017": 0.0,
			"-0.016": 0.0733604593896,
			"-0.015": 0.822942406429,
			"-0.014": 1.08804681748,
			"-0.013": 0.83789836866,
			"-0.012": 1.15013040366,
			"-0.011": 1.01765298167,
			"-0.01": 1.20087983246,
			"-0.009": 1.01325902687,
			"-0.008": 1.58769981996,
			"-0.007": 0.926203605209,
			"-0.006": 2.24919020914,
			"-0.005": 9.4227910778,
			"-0.004": 27.8267160993,
			"-0.003": 31.7876952635,
			"-0.002": 34.6741167295,
			"-0.001": 22.0538230736,
			"0.0": 13.1857034486,
			"0.001": 9.3575287884,
			"0.002": 7.56534783703,
			"0.003": 5.3851972594,
			"0.004": 6.12724243188,
			"0.005": 5.47240565649,
			"0.006": 4.50379617264,
			"0.007": 3.7996333985,
			"0.008": 4.51512897694,
			"0.009": 4.37126895476,
			"0.01": 3.71997325193,
			"0.011": 3.92472511022,
			"0.012": 3.96689348356,
			"0.013": 3.03496796999,
			"0.014": 2.54918174925,
			"0.015": 1.92014781884,
			"0.016": 0.498454592064,
			"0.017": 0.0,
			"0.018": 0.0,
			"0.019": 0.0,
			"0.02": 0.0,
			"0.021": 0.0,
			"0.022": 0.0,
			"0.023": 0.0,
			"0.024": 0.0,
			"0.025": 0.0
		}
	}
}
