{
	 "smiles": "CC(=O)C1=CSC=C1", 
	 "Tm": 333.15, 
	 "num_atms": 14, 
	 "gaussian": { 
		 "optdone": 1, 
		 "sigma_profile": "yes", 
		 "theory": "DFT", 
		 "functional": "B3LYP", 
		 "basiset": "6-31G**", 
		 "properties": { 
			 "R2extent": 1811.7218, 
			 "electric_dipole_moment_norm": 2.51224864414, 
			 "electric_quadrupole_moment_norm": 12.0276420515, 
			 "total_energy": -705.651915827, 
			 "HOMO_LUMO_gap": 0.19718, 
			 "cosmo_polarized_energy": -8.22, 
			 "cosmo_cavitation_energy": 19.79, 
			 "cosmo_dispersion_energy": -15.15, 
			 "cosmo_repulsion_energy": 1.2, 
			 "cosmo_total_nonelectrostatic_energy": 5.84, 
			 "SMD_solvation_energy": 4.4 
		},
		"coords": [
			{
				"x": 1.000923383,
				"y": 1.2038644071,
				"z": -1.4492244186,
				"element": "C" 
			},
			{
				"x": 1.770162876,
				"y": 0.8363495793,
				"z": -0.1920521929,
				"element": "C" 
			},
			{
				"x": 2.9852009529,
				"y": 0.7048387545,
				"z": -0.207754195,
				"element": "O" 
			},
			{
				"x": 1.0098035506,
				"y": 0.6383321912,
				"z": 1.0703667787,
				"element": "C" 
			},
			{
				"x": -0.3540026394,
				"y": 0.756910943,
				"z": 1.2185605013,
				"element": "C" 
			},
			{
				"x": -0.8538748646,
				"y": 0.4491181209,
				"z": 2.8411700749,
				"element": "S" 
			},
			{
				"x": 0.7879491566,
				"y": 0.1547111766,
				"z": 3.3408210134,
				"element": "C" 
			},
			{
				"x": 1.659280264,
				"y": 0.2902024321,
				"z": 2.3028203147,
				"element": "C" 
			},
			{
				"x": 0.4555402398,
				"y": 2.1440400156,
				"z": -1.3107489023,
				"element": "H" 
			},
			{
				"x": 0.2648323845,
				"y": 0.4303710066,
				"z": -1.6950420249,
				"element": "H" 
			},
			{
				"x": 1.7039208264,
				"y": 1.3109844527,
				"z": -2.2757986362,
				"element": "H" 
			},
			{
				"x": -1.0902300063,
				"y": 1.0069698458,
				"z": 0.4676536609,
				"element": "H" 
			},
			{
				"x": 0.9988785628,
				"y": -0.0992571608,
				"z": 4.3703288896,
				"element": "H" 
			},
			{
				"x": 2.7312153136,
				"y": 0.1552642353,
				"z": 2.3730991364,
				"element": "H" 
			}
		],
		 "valence_orbital": [ 
			{
				"type": "occ",
				"energy": -0.35939,
				"method": "rhf"
			},
			{
				"type": "occ",
				"energy": -0.35529,
				"method": "rhf"
			},
			{
				"type": "occ",
				"energy": -0.26086,
				"method": "rhf"
			},
			{
				"type": "occ",
				"energy": -0.24977,
				"method": "rhf"
			},
			{
				"type": "occ",
				"energy": -0.24857,
				"method": "rhf"
			},
			{
				"type": "unocc",
				"energy": -0.05139,
				"method": "rhf"
			},
			{
				"type": "unocc",
				"energy": -0.00129,
				"method": "rhf"
			},
			{
				"type": "unocc",
				"energy": 0.02073,
				"method": "rhf"
			},
			{
				"type": "unocc",
				"energy": 0.08268,
				"method": "rhf"
			},
			{
				"type": "unocc",
				"energy": 0.09661,
				"method": "rhf"
			}
		],
		"cosmo_sigma_profile": { 
			"-0.025": 0.0,
			"-0.024": 0.0,
			"-0.023": 0.0,
			"-0.022": 0.0,
			"-0.021": 0.0,
			"-0.02": 0.0,
			"-0.019": 0.0,
			"-0.018": 0.0,
			"-0.017": 0.0,
			"-0.016": 0.0,
			"-0.015": 0.0,
			"-0.014": 0.0,
			"-0.013": 0.0,
			"-0.012": 0.0,
			"-0.011": 0.0,
			"-0.01": 0.211542959056,
			"-0.009": 2.95798708041,
			"-0.008": 4.09786086199,
			"-0.007": 5.03335405778,
			"-0.006": 9.49171668856,
			"-0.005": 10.8688320081,
			"-0.004": 11.3524221152,
			"-0.003": 10.6051418727,
			"-0.002": 11.0154627548,
			"-0.001": 12.0861669436,
			"0.0": 11.19687054,
			"0.001": 11.1080898683,
			"0.002": 14.6029321318,
			"0.003": 17.5217371421,
			"0.004": 6.96009026071,
			"0.005": 3.27407573998,
			"0.006": 2.26108225905,
			"0.007": 1.07490551709,
			"0.008": 1.58581060287,
			"0.009": 1.87452536424,
			"0.01": 2.21317558977,
			"0.011": 2.70515210544,
			"0.012": 4.27996404925,
			"0.013": 1.89010887781,
			"0.014": 0.2527996585,
			"0.015": 0.0,
			"0.016": 0.0,
			"0.017": 0.0,
			"0.018": 0.0,
			"0.019": 0.0,
			"0.02": 0.0,
			"0.021": 0.0,
			"0.022": 0.0,
			"0.023": 0.0,
			"0.024": 0.0,
			"0.025": 0.0
		}
	}
}
