{
	 "smiles": "CCC1(CC2(CO2)C2=CC=CC(Cl)=C2)C(=O)C2=CC=CC=C2C1=O", 
	 "Tm": 334.15, 
	 "num_atms": 41, 
	 "gaussian": { 
		 "optdone": 1, 
		 "sigma_profile": "yes", 
		 "theory": "DFT", 
		 "functional": "B3LYP", 
		 "basiset": "6-31G**", 
		 "properties": { 
			 "R2extent": 9261.0573, 
			 "electric_dipole_moment_norm": 3.18992110874, 
			 "electric_quadrupole_moment_norm": 10.3178671783, 
			 "total_energy": -1458.20821819, 
			 "HOMO_LUMO_gap": 0.16622, 
			 "cosmo_polarized_energy": -13.85, 
			 "cosmo_cavitation_energy": 45.59, 
			 "cosmo_dispersion_energy": -30.53, 
			 "cosmo_repulsion_energy": 2.32, 
			 "cosmo_total_nonelectrostatic_energy": 17.38, 
			 "SMD_solvation_energy": 8.17 
		},
		"coords": [
			{
				"x": -1.0943557741,
				"y": 0.5193781673,
				"z": -3.6350984749,
				"element": "C" 
			},
			{
				"x": -1.8146087979,
				"y": 0.9354617865,
				"z": -2.3477156531,
				"element": "C" 
			},
			{
				"x": -1.1264731834,
				"y": 0.5025627856,
				"z": -1.0093454576,
				"element": "C" 
			},
			{
				"x": 0.3111736133,
				"y": 1.0470900927,
				"z": -0.9402861808,
				"element": "C" 
			},
			{
				"x": 1.0478295093,
				"y": 0.7675492859,
				"z": 0.3805640532,
				"element": "C" 
			},
			{
				"x": 0.7302691143,
				"y": 1.5705648975,
				"z": 1.5847582724,
				"element": "C" 
			},
			{
				"x": 0.2308603768,
				"y": 0.2318997175,
				"z": 1.440214011,
				"element": "O" 
			},
			{
				"x": 2.422186511,
				"y": 0.1573305254,
				"z": 0.2852889812,
				"element": "C" 
			},
			{
				"x": 2.8053253321,
				"y": -0.869716039,
				"z": 1.1552347833,
				"element": "C" 
			},
			{
				"x": 4.0874725221,
				"y": -1.4131618721,
				"z": 1.0785208242,
				"element": "C" 
			},
			{
				"x": 5.0088061722,
				"y": -0.9416764809,
				"z": 0.1429085826,
				"element": "C" 
			},
			{
				"x": 4.6178350242,
				"y": 0.0847642031,
				"z": -0.7154752648,
				"element": "C" 
			},
			{
				"x": 5.7638967736,
				"y": 0.7021793755,
				"z": -1.9006550976,
				"element": "Cl" 
			},
			{
				"x": 3.3402557898,
				"y": 0.6366023443,
				"z": -0.6587624444,
				"element": "C" 
			},
			{
				"x": -1.2018785695,
				"y": -1.0319119586,
				"z": -0.8755091022,
				"element": "C" 
			},
			{
				"x": -0.4894836307,
				"y": -1.8335207501,
				"z": -1.4515871817,
				"element": "O" 
			},
			{
				"x": -2.3152064012,
				"y": -1.3565771348,
				"z": 0.0583279575,
				"element": "C" 
			},
			{
				"x": -2.8477216631,
				"y": -2.6024802346,
				"z": 0.3867023882,
				"element": "C" 
			},
			{
				"x": -3.8929811848,
				"y": -2.6422056848,
				"z": 1.310788921,
				"element": "C" 
			},
			{
				"x": -4.3885367145,
				"y": -1.4627369784,
				"z": 1.8930512088,
				"element": "C" 
			},
			{
				"x": -3.8494225336,
				"y": -0.2177235332,
				"z": 1.5648525487,
				"element": "C" 
			},
			{
				"x": -2.8070064933,
				"y": -0.1827111893,
				"z": 0.6401980395,
				"element": "C" 
			},
			{
				"x": -2.0528585083,
				"y": 0.9917296717,
				"z": 0.1231699509,
				"element": "C" 
			},
			{
				"x": -2.1876500665,
				"y": 2.1505340369,
				"z": 0.4755854837,
				"element": "O" 
			},
			{
				"x": -1.7122685759,
				"y": 0.7748246984,
				"z": -4.5018722637,
				"element": "H" 
			},
			{
				"x": -0.900182829,
				"y": -0.5560354499,
				"z": -3.6578890837,
				"element": "H" 
			},
			{
				"x": -0.1374809791,
				"y": 1.0360348207,
				"z": -3.7540423073,
				"element": "H" 
			},
			{
				"x": -1.9263817125,
				"y": 2.0256381315,
				"z": -2.3083037931,
				"element": "H" 
			},
			{
				"x": -2.8320788323,
				"y": 0.5241789026,
				"z": -2.3552683605,
				"element": "H" 
			},
			{
				"x": 0.8731271034,
				"y": 0.5854008093,
				"z": -1.7547140529,
				"element": "H" 
			},
			{
				"x": 0.2810310211,
				"y": 2.1260770709,
				"z": -1.1291847348,
				"element": "H" 
			},
			{
				"x": -0.0265311536,
				"y": 2.3506921858,
				"z": 1.5205029603,
				"element": "H" 
			},
			{
				"x": 1.491404308,
				"y": 1.6915310259,
				"z": 2.3543748818,
				"element": "H" 
			},
			{
				"x": 2.086090215,
				"y": -1.2386333255,
				"z": 1.8775151865,
				"element": "H" 
			},
			{
				"x": 4.3742098555,
				"y": -2.216914709,
				"z": 1.7503610279,
				"element": "H" 
			},
			{
				"x": 6.0072452561,
				"y": -1.3588346496,
				"z": 0.0760601359,
				"element": "H" 
			},
			{
				"x": 3.0745082066,
				"y": 1.4369167335,
				"z": -1.3408212135,
				"element": "H" 
			},
			{
				"x": -2.4518624788,
				"y": -3.5053813006,
				"z": -0.0675289998,
				"element": "H" 
			},
			{
				"x": -4.3314341051,
				"y": -3.5962827615,
				"z": 1.588862543,
				"element": "H" 
			},
			{
				"x": -5.2012372009,
				"y": -1.5262109481,
				"z": 2.6109425375,
				"element": "H" 
			},
			{
				"x": -4.2191853162,
				"y": 0.7001737316,
				"z": 2.0108743874,
				"element": "H" 
			}
		],
		 "valence_orbital": [ 
			{
				"type": "occ",
				"energy": -0.27088,
				"method": "rhf"
			},
			{
				"type": "occ",
				"energy": -0.26453,
				"method": "rhf"
			},
			{
				"type": "occ",
				"energy": -0.25479,
				"method": "rhf"
			},
			{
				"type": "occ",
				"energy": -0.24292,
				"method": "rhf"
			},
			{
				"type": "occ",
				"energy": -0.24131,
				"method": "rhf"
			},
			{
				"type": "unocc",
				"energy": -0.07509,
				"method": "rhf"
			},
			{
				"type": "unocc",
				"energy": -0.05556,
				"method": "rhf"
			},
			{
				"type": "unocc",
				"energy": -0.01647,
				"method": "rhf"
			},
			{
				"type": "unocc",
				"energy": -0.01189,
				"method": "rhf"
			},
			{
				"type": "unocc",
				"energy": 0.03018,
				"method": "rhf"
			}
		],
		"cosmo_sigma_profile": { 
			"-0.025": 0.0,
			"-0.024": 0.0,
			"-0.023": 0.0,
			"-0.022": 0.0,
			"-0.021": 0.0,
			"-0.02": 0.0,
			"-0.019": 0.0,
			"-0.018": 0.0,
			"-0.017": 0.0,
			"-0.016": 0.0,
			"-0.015": 0.0,
			"-0.014": 0.0,
			"-0.013": 0.0,
			"-0.012": 0.0,
			"-0.011": 0.0,
			"-0.01": 0.0,
			"-0.009": 0.0,
			"-0.008": 1.18816273583,
			"-0.007": 12.4243274138,
			"-0.006": 19.9136308991,
			"-0.005": 25.5411009322,
			"-0.004": 29.6232501782,
			"-0.003": 28.4124974514,
			"-0.002": 27.6751269063,
			"-0.001": 30.2603764311,
			"0.0": 28.5396368228,
			"0.001": 30.3115490013,
			"0.002": 35.8542601669,
			"0.003": 27.8614316138,
			"0.004": 22.6154461275,
			"0.005": 12.7406378804,
			"0.006": 4.51602687239,
			"0.007": 5.0872779781,
			"0.008": 3.25899582644,
			"0.009": 4.73727984862,
			"0.01": 4.36976568016,
			"0.011": 6.57116178648,
			"0.012": 3.75079314892,
			"0.013": 0.0538312212069,
			"0.014": 0.0,
			"0.015": 0.0,
			"0.016": 0.0,
			"0.017": 0.0,
			"0.018": 0.0,
			"0.019": 0.0,
			"0.02": 0.0,
			"0.021": 0.0,
			"0.022": 0.0,
			"0.023": 0.0,
			"0.024": 0.0,
			"0.025": 0.0
		}
	}
}
