{
	 "smiles": "O=C1CC(=NN1C1=CC=CC=C1)C1=CC(=CC=C1)C1=NN(C(=O)C1)C1=CC=CC=C1", 
	 "Tm": 536.15, 
	 "num_atms": 48, 
	 "gaussian": { 
		 "optdone": 1, 
		 "sigma_profile": "yes", 
		 "theory": "DFT", 
		 "functional": "B3LYP", 
		 "basiset": "6-31G**", 
		 "properties": { 
			 "R2extent": 20912.3648, 
			 "electric_dipole_moment_norm": 2.91218627323, 
			 "electric_quadrupole_moment_norm": 19.5553417996, 
			 "total_energy": -1294.83803741, 
			 "HOMO_LUMO_gap": 0.13789, 
			 "cosmo_polarized_energy": -19.26, 
			 "cosmo_cavitation_energy": 53.24, 
			 "cosmo_dispersion_energy": -38.17, 
			 "cosmo_repulsion_energy": 2.79, 
			 "cosmo_total_nonelectrostatic_energy": 17.85, 
			 "SMD_solvation_energy": 8.57 
		},
		"coords": [
			{
				"x": -0.2005330185,
				"y": -1.1238283146,
				"z": 4.7468700959,
				"element": "O" 
			},
			{
				"x": 0.4049518617,
				"y": -0.9339445161,
				"z": 3.7093655491,
				"element": "C" 
			},
			{
				"x": -0.0897223453,
				"y": -0.2240922136,
				"z": 2.4525318684,
				"element": "C" 
			},
			{
				"x": 1.1083882326,
				"y": -0.3214921881,
				"z": 1.5524259832,
				"element": "C" 
			},
			{
				"x": 2.0932943752,
				"y": -0.9398085834,
				"z": 2.121992957,
				"element": "N" 
			},
			{
				"x": 1.7147424951,
				"y": -1.3191258657,
				"z": 3.4038593441,
				"element": "N" 
			},
			{
				"x": 2.649085254,
				"y": -2.0167952618,
				"z": 4.2163565238,
				"element": "C" 
			},
			{
				"x": 3.9243779721,
				"y": -2.3002669028,
				"z": 3.7051190035,
				"element": "C" 
			},
			{
				"x": 4.8480977824,
				"y": -2.983482043,
				"z": 4.4926096413,
				"element": "C" 
			},
			{
				"x": 4.5196559696,
				"y": -3.3903217589,
				"z": 5.786846638,
				"element": "C" 
			},
			{
				"x": 3.2492500458,
				"y": -3.104206352,
				"z": 6.2870286109,
				"element": "C" 
			},
			{
				"x": 2.3083528637,
				"y": -2.4213906163,
				"z": 5.5165781853,
				"element": "C" 
			},
			{
				"x": 1.2098187857,
				"y": 0.2009120304,
				"z": 0.1860730547,
				"element": "C" 
			},
			{
				"x": 0.1249198312,
				"y": 0.8628189876,
				"z": -0.3954268327,
				"element": "C" 
			},
			{
				"x": 0.2021978188,
				"y": 1.3711241433,
				"z": -1.7039117296,
				"element": "C" 
			},
			{
				"x": 1.3923881851,
				"y": 1.2049604781,
				"z": -2.4268092836,
				"element": "C" 
			},
			{
				"x": 2.4804188965,
				"y": 0.5438655066,
				"z": -1.850534401,
				"element": "C" 
			},
			{
				"x": 2.3977206209,
				"y": 0.044093052,
				"z": -0.5577060185,
				"element": "C" 
			},
			{
				"x": -0.9434371596,
				"y": 2.0633509932,
				"z": -2.3016305102,
				"element": "C" 
			},
			{
				"x": -2.0547944206,
				"y": 2.230076571,
				"z": -1.657831139,
				"element": "N" 
			},
			{
				"x": -2.9543033456,
				"y": 2.9138902291,
				"z": -2.4668941596,
				"element": "N" 
			},
			{
				"x": -2.4164089181,
				"y": 3.222137312,
				"z": -3.7205065889,
				"element": "C" 
			},
			{
				"x": -2.9586412366,
				"y": 3.8106266536,
				"z": -4.6363496628,
				"element": "O" 
			},
			{
				"x": -1.0003286746,
				"y": 2.6545209121,
				"z": -3.6810948879,
				"element": "C" 
			},
			{
				"x": -4.2491445262,
				"y": 3.2064035992,
				"z": -1.9586953477,
				"element": "C" 
			},
			{
				"x": -5.1878511441,
				"y": 3.89750822,
				"z": -2.7406972808,
				"element": "C" 
			},
			{
				"x": -6.4494584223,
				"y": 4.1681204577,
				"z": -2.2113452111,
				"element": "C" 
			},
			{
				"x": -6.79163501,
				"y": 3.7638884342,
				"z": -0.9208094096,
				"element": "C" 
			},
			{
				"x": -5.850729507,
				"y": 3.0773297911,
				"z": -0.1516102404,
				"element": "C" 
			},
			{
				"x": -4.584698925,
				"y": 2.7961422959,
				"z": -0.6598605144,
				"element": "C" 
			},
			{
				"x": -0.9774537985,
				"y": -0.7287547783,
				"z": 2.0561653815,
				"element": "H" 
			},
			{
				"x": -0.3788740529,
				"y": 0.8060751009,
				"z": 2.6870046404,
				"element": "H" 
			},
			{
				"x": 4.177437042,
				"y": -1.9843415315,
				"z": 2.7018272055,
				"element": "H" 
			},
			{
				"x": 5.8326118191,
				"y": -3.1975460481,
				"z": 4.0863799935,
				"element": "H" 
			},
			{
				"x": 5.2438190422,
				"y": -3.9225659735,
				"z": 6.3961357744,
				"element": "H" 
			},
			{
				"x": 2.9775436789,
				"y": -3.4137471974,
				"z": 7.2921788244,
				"element": "H" 
			},
			{
				"x": 1.3253569252,
				"y": -2.2016861297,
				"z": 5.9080208127,
				"element": "H" 
			},
			{
				"x": -0.8004971526,
				"y": 0.9975783145,
				"z": 0.1534762453,
				"element": "H" 
			},
			{
				"x": 1.4740155353,
				"y": 1.5896270169,
				"z": -3.4387523058,
				"element": "H" 
			},
			{
				"x": 3.3970734067,
				"y": 0.4207696356,
				"z": -2.4193140059,
				"element": "H" 
			},
			{
				"x": 3.2383368091,
				"y": -0.4696960678,
				"z": -0.1050260764,
				"element": "H" 
			},
			{
				"x": -0.8656355393,
				"y": 1.9171165068,
				"z": -4.4798058044,
				"element": "H" 
			},
			{
				"x": -0.2679908927,
				"y": 3.4521079552,
				"z": -3.8465700083,
				"element": "H" 
			},
			{
				"x": -4.9272210694,
				"y": 4.2124718486,
				"z": -3.741007925,
				"element": "H" 
			},
			{
				"x": -7.1700051167,
				"y": 4.7033611018,
				"z": -2.8231109718,
				"element": "H" 
			},
			{
				"x": -7.7770125102,
				"y": 3.9803380245,
				"z": -0.5195219144,
				"element": "H" 
			},
			{
				"x": -6.0994301123,
				"y": 2.7547645117,
				"z": 0.8554354419,
				"element": "H" 
			},
			{
				"x": -3.854548351,
				"y": 2.2641126592,
				"z": -0.064759545,
				"element": "H" 
			}
		],
		 "valence_orbital": [ 
			{
				"type": "occ",
				"energy": -0.26231,
				"method": "rhf"
			},
			{
				"type": "occ",
				"energy": -0.25102,
				"method": "rhf"
			},
			{
				"type": "occ",
				"energy": -0.24965,
				"method": "rhf"
			},
			{
				"type": "occ",
				"energy": -0.21575,
				"method": "rhf"
			},
			{
				"type": "occ",
				"energy": -0.21211,
				"method": "rhf"
			},
			{
				"type": "unocc",
				"energy": -0.07422,
				"method": "rhf"
			},
			{
				"type": "unocc",
				"energy": -0.0621,
				"method": "rhf"
			},
			{
				"type": "unocc",
				"energy": -0.02345,
				"method": "rhf"
			},
			{
				"type": "unocc",
				"energy": -0.02056,
				"method": "rhf"
			},
			{
				"type": "unocc",
				"energy": -0.0019,
				"method": "rhf"
			}
		],
		"cosmo_sigma_profile": { 
			"-0.025": 0.0,
			"-0.024": 0.0,
			"-0.023": 0.0,
			"-0.022": 0.0,
			"-0.021": 0.0,
			"-0.02": 0.0,
			"-0.019": 0.0,
			"-0.018": 0.0,
			"-0.017": 0.0,
			"-0.016": 0.0,
			"-0.015": 0.0,
			"-0.014": 0.0,
			"-0.013": 0.0,
			"-0.012": 0.0,
			"-0.011": 0.0,
			"-0.01": 0.00598474068832,
			"-0.009": 6.86132546874,
			"-0.008": 15.9337420511,
			"-0.007": 15.3196439514,
			"-0.006": 22.2191717651,
			"-0.005": 28.6659125656,
			"-0.004": 29.9632875192,
			"-0.003": 28.8363763267,
			"-0.002": 21.3307594296,
			"-0.001": 23.7643745854,
			"0.0": 26.9858391417,
			"0.001": 31.3227199649,
			"0.002": 40.1930697318,
			"0.003": 40.6041025945,
			"0.004": 27.7902888245,
			"0.005": 27.5327183918,
			"0.006": 13.808524642,
			"0.007": 4.14813037584,
			"0.008": 2.55825836049,
			"0.009": 2.90487103502,
			"0.01": 4.37012078225,
			"0.011": 5.83829009805,
			"0.012": 6.06030439971,
			"0.013": 2.07886096098,
			"0.014": 0.0023576889628,
			"0.015": 0.0,
			"0.016": 0.0,
			"0.017": 0.0,
			"0.018": 0.0,
			"0.019": 0.0,
			"0.02": 0.0,
			"0.021": 0.0,
			"0.022": 0.0,
			"0.023": 0.0,
			"0.024": 0.0,
			"0.025": 0.0
		}
	}
}
