{
	 "smiles": "CCCC(C)(O)C#CC(C)(O)CCC", 
	 "Tm": 341.65, 
	 "num_atms": 36, 
	 "gaussian": { 
		 "optdone": 1, 
		 "sigma_profile": "yes", 
		 "theory": "DFT", 
		 "functional": "B3LYP", 
		 "basiset": "6-31G**", 
		 "properties": { 
			 "R2extent": 3947.9551, 
			 "electric_dipole_moment_norm": 1.14840751478, 
			 "electric_quadrupole_moment_norm": 6.85724037496, 
			 "total_energy": -620.926518729, 
			 "HOMO_LUMO_gap": 0.28614, 
			 "cosmo_polarized_energy": -10.58, 
			 "cosmo_cavitation_energy": 37.21, 
			 "cosmo_dispersion_energy": -24.19, 
			 "cosmo_repulsion_energy": 1.97, 
			 "cosmo_total_nonelectrostatic_energy": 14.99, 
			 "SMD_solvation_energy": 6.49 
		},
		"coords": [
			{
				"x": -2.4046644822,
				"y": -1.1042869368,
				"z": -1.9190692728,
				"element": "C" 
			},
			{
				"x": -3.6104029735,
				"y": -0.6200021654,
				"z": -1.1051738362,
				"element": "C" 
			},
			{
				"x": -3.338994827,
				"y": -0.254535814,
				"z": 0.3648666133,
				"element": "C" 
			},
			{
				"x": -2.4873569968,
				"y": 1.0058016749,
				"z": 0.6819053062,
				"element": "C" 
			},
			{
				"x": -3.0195744772,
				"y": 2.2591040494,
				"z": -0.0264682295,
				"element": "C" 
			},
			{
				"x": -2.6278607228,
				"y": 1.295502834,
				"z": 2.0867153397,
				"element": "O" 
			},
			{
				"x": -1.0549144241,
				"y": 0.8063405164,
				"z": 0.3771902207,
				"element": "C" 
			},
			{
				"x": 0.1323003381,
				"y": 0.6499514298,
				"z": 0.1879745568,
				"element": "C" 
			},
			{
				"x": 1.5871679181,
				"y": 0.5148781134,
				"z": -0.0433208591,
				"element": "C" 
			},
			{
				"x": 2.3353709305,
				"y": 0.6397466674,
				"z": 1.297124595,
				"element": "C" 
			},
			{
				"x": 2.0355924627,
				"y": 1.5509695324,
				"z": -0.9336792197,
				"element": "O" 
			},
			{
				"x": 1.9078190972,
				"y": -0.7912949899,
				"z": -0.8082645328,
				"element": "C" 
			},
			{
				"x": 1.5325747675,
				"y": -2.1164485297,
				"z": -0.1157061807,
				"element": "C" 
			},
			{
				"x": 2.6420151299,
				"y": -2.7471533173,
				"z": 0.7370550971,
				"element": "C" 
			},
			{
				"x": -2.720049567,
				"y": -1.4220285167,
				"z": -2.9186417889,
				"element": "H" 
			},
			{
				"x": -1.6481336539,
				"y": -0.3246478032,
				"z": -2.0358434838,
				"element": "H" 
			},
			{
				"x": -1.9201191717,
				"y": -1.9599404004,
				"z": -1.4350276714,
				"element": "H" 
			},
			{
				"x": -4.3706769952,
				"y": -1.4116219314,
				"z": -1.1004174486,
				"element": "H" 
			},
			{
				"x": -4.0794115334,
				"y": 0.2318299611,
				"z": -1.6130120251,
				"element": "H" 
			},
			{
				"x": -2.8732521166,
				"y": -1.1111429554,
				"z": 0.8720655048,
				"element": "H" 
			},
			{
				"x": -4.2977235454,
				"y": -0.0768942607,
				"z": 0.8661320625,
				"element": "H" 
			},
			{
				"x": -4.0792255408,
				"y": 2.3910167091,
				"z": 0.2121368887,
				"element": "H" 
			},
			{
				"x": -2.902378466,
				"y": 2.1843386463,
				"z": -1.109575923,
				"element": "H" 
			},
			{
				"x": -2.4717942471,
				"y": 3.1355905069,
				"z": 0.3268024984,
				"element": "H" 
			},
			{
				"x": -2.2158671685,
				"y": 0.5677303358,
				"z": 2.5722935586,
				"element": "H" 
			},
			{
				"x": 2.1415425377,
				"y": 1.6211542685,
				"z": 1.7426282617,
				"element": "H" 
			},
			{
				"x": 2.0127501615,
				"y": -0.1189411874,
				"z": 2.0147615963,
				"element": "H" 
			},
			{
				"x": 3.4111872793,
				"y": 0.5403137689,
				"z": 1.1268668314,
				"element": "H" 
			},
			{
				"x": 1.7349991365,
				"y": 2.394653867,
				"z": -0.5691466958,
				"element": "H" 
			},
			{
				"x": 1.3837239096,
				"y": -0.70891516,
				"z": -1.765410726,
				"element": "H" 
			},
			{
				"x": 2.9797672982,
				"y": -0.7683167873,
				"z": -1.0399793642,
				"element": "H" 
			},
			{
				"x": 0.62898752,
				"y": -1.9683271075,
				"z": 0.4891367251,
				"element": "H" 
			},
			{
				"x": 1.2508343865,
				"y": -2.8377566353,
				"z": -0.8919675709,
				"element": "H" 
			},
			{
				"x": 2.9486354936,
				"y": -2.1049143561,
				"z": 1.5677211973,
				"element": "H" 
			},
			{
				"x": 2.3119868093,
				"y": -3.7006183785,
				"z": 1.1632516314,
				"element": "H" 
			},
			{
				"x": 3.533245733,
				"y": -2.9468356485,
				"z": 0.1312763437,
				"element": "H" 
			}
		],
		 "valence_orbital": [ 
			{
				"type": "occ",
				"energy": -0.31782,
				"method": "rhf"
			},
			{
				"type": "occ",
				"energy": -0.28415,
				"method": "rhf"
			},
			{
				"type": "occ",
				"energy": -0.275,
				"method": "rhf"
			},
			{
				"type": "occ",
				"energy": -0.25535,
				"method": "rhf"
			},
			{
				"type": "occ",
				"energy": -0.25214,
				"method": "rhf"
			},
			{
				"type": "unocc",
				"energy": 0.034,
				"method": "rhf"
			},
			{
				"type": "unocc",
				"energy": 0.04373,
				"method": "rhf"
			},
			{
				"type": "unocc",
				"energy": 0.07138,
				"method": "rhf"
			},
			{
				"type": "unocc",
				"energy": 0.08598,
				"method": "rhf"
			},
			{
				"type": "unocc",
				"energy": 0.10329,
				"method": "rhf"
			}
		],
		"cosmo_sigma_profile": { 
			"-0.025": 0.0,
			"-0.024": 0.0,
			"-0.023": 0.0,
			"-0.022": 0.0,
			"-0.021": 0.0,
			"-0.02": 0.0,
			"-0.019": 0.0,
			"-0.018": 0.0,
			"-0.017": 0.0,
			"-0.016": 0.0316434336146,
			"-0.015": 1.26697262437,
			"-0.014": 1.72258889749,
			"-0.013": 1.52532190271,
			"-0.012": 1.73625475769,
			"-0.011": 1.41601452145,
			"-0.01": 0.999092979603,
			"-0.009": 2.02830747847,
			"-0.008": 1.96282387158,
			"-0.007": 2.39368607925,
			"-0.006": 1.8251310266,
			"-0.005": 2.2307666341,
			"-0.004": 8.91458660521,
			"-0.003": 25.3489342507,
			"-0.002": 40.2098842702,
			"-0.001": 46.0460254675,
			"0.0": 45.2269517893,
			"0.001": 37.1028298355,
			"0.002": 17.0076740303,
			"0.003": 9.31043085301,
			"0.004": 6.40696360187,
			"0.005": 4.72718664667,
			"0.006": 3.67663971331,
			"0.007": 3.31735653686,
			"0.008": 3.01549037701,
			"0.009": 2.98668042149,
			"0.01": 2.89919799955,
			"0.011": 3.15356624441,
			"0.012": 1.78198203043,
			"0.013": 4.0131950731,
			"0.014": 2.76024646968,
			"0.015": 0.0,
			"0.016": 0.0,
			"0.017": 0.0,
			"0.018": 0.0,
			"0.019": 0.0,
			"0.02": 0.0,
			"0.021": 0.0,
			"0.022": 0.0,
			"0.023": 0.0,
			"0.024": 0.0,
			"0.025": 0.0
		}
	}
}
