{
	 "smiles": "OC(=O)C(F)(F)C(F)(F)C(F)(F)C(F)(F)C(F)(F)C(F)(F)C(F)(F)C(F)(F)C(F)(F)C(F)(F)C(F)(F)C(F)(F)C(F)(F)C(F)(F)C(F)(F)F", 
	 "Tm": 427.15, 
	 "num_atms": 50, 
	 "gaussian": { 
		 "optdone": 1, 
		 "sigma_profile": "yes", 
		 "theory": "DFT", 
		 "functional": "B3LYP", 
		 "basiset": "6-31G**", 
		 "properties": { 
			 "R2extent": 34738.2947, 
			 "electric_dipole_moment_norm": 1.9546742414, 
			 "electric_quadrupole_moment_norm": 18.4995286908, 
			 "total_energy": -3855.65414622, 
			 "HOMO_LUMO_gap": 0.26705, 
			 "cosmo_polarized_energy": -9.02, 
			 "cosmo_cavitation_energy": 64.05, 
			 "cosmo_dispersion_energy": -40.08, 
			 "cosmo_repulsion_energy": 2.43, 
			 "cosmo_total_nonelectrostatic_energy": 26.41, 
			 "SMD_solvation_energy": 20.77 
		},
		"coords": [
			{
				"x": -2.2449528801,
				"y": 0.8284871943,
				"z": 6.1331644618,
				"element": "O" 
			},
			{
				"x": -1.2907906585,
				"y": 0.0817558265,
				"z": 6.7010424921,
				"element": "C" 
			},
			{
				"x": -0.9485221707,
				"y": 0.1237663275,
				"z": 7.8535420693,
				"element": "O" 
			},
			{
				"x": -0.6486283678,
				"y": -0.8923726576,
				"z": 5.6853851369,
				"element": "C" 
			},
			{
				"x": -1.4361296542,
				"y": -1.065652382,
				"z": 4.5958001215,
				"element": "F" 
			},
			{
				"x": -0.4985965834,
				"y": -2.0857641173,
				"z": 6.3054001021,
				"element": "F" 
			},
			{
				"x": 0.7654974054,
				"y": -0.4707299945,
				"z": 5.2018765654,
				"element": "C" 
			},
			{
				"x": 1.2431225504,
				"y": -1.4496715069,
				"z": 4.4033718475,
				"element": "F" 
			},
			{
				"x": 1.5593972614,
				"y": -0.3709379079,
				"z": 6.2926031982,
				"element": "F" 
			},
			{
				"x": 0.8949973828,
				"y": 0.8914057917,
				"z": 4.4572566932,
				"element": "C" 
			},
			{
				"x": 2.2142506164,
				"y": 1.0609383115,
				"z": 4.2091208092,
				"element": "F" 
			},
			{
				"x": 0.4793396974,
				"y": 1.8601770255,
				"z": 5.31320168,
				"element": "F" 
			},
			{
				"x": 0.1139910563,
				"y": 1.0612844618,
				"z": 3.118124225,
				"element": "C" 
			},
			{
				"x": 0.18426154,
				"y": -0.0860683565,
				"z": 2.4050618314,
				"element": "F" 
			},
			{
				"x": -1.1783302193,
				"y": 1.3250623404,
				"z": 3.4152632408,
				"element": "F" 
			},
			{
				"x": 0.6674560993,
				"y": 2.2120730947,
				"z": 2.2288739879,
				"element": "C" 
			},
			{
				"x": 1.8330797502,
				"y": 1.8197507457,
				"z": 1.676819876,
				"element": "F" 
			},
			{
				"x": 0.8919548953,
				"y": 3.2895839941,
				"z": 3.020944567,
				"element": "F" 
			},
			{
				"x": -0.271004368,
				"y": 2.7224275407,
				"z": 1.0836577725,
				"element": "C" 
			},
			{
				"x": -1.3423299104,
				"y": 3.3182679739,
				"z": 1.6453436389,
				"element": "F" 
			},
			{
				"x": 0.449178576,
				"y": 3.6528104615,
				"z": 0.4111183677,
				"element": "F" 
			},
			{
				"x": -0.7648565596,
				"y": 1.6539381325,
				"z": 0.0657475226,
				"element": "C" 
			},
			{
				"x": -1.7296363864,
				"y": 0.920338112,
				"z": 0.6688158912,
				"element": "F" 
			},
			{
				"x": 0.2709341251,
				"y": 0.8474006126,
				"z": -0.2631357624,
				"element": "F" 
			},
			{
				"x": -1.3392486043,
				"y": 2.2621019016,
				"z": -1.2459413804,
				"element": "C" 
			},
			{
				"x": -2.1479730291,
				"y": 3.298456546,
				"z": -0.9118414175,
				"element": "F" 
			},
			{
				"x": -0.3232303824,
				"y": 2.7355491444,
				"z": -1.9944490316,
				"element": "F" 
			},
			{
				"x": -2.2262223207,
				"y": 1.3223614493,
				"z": -2.1299858398,
				"element": "C" 
			},
			{
				"x": -3.3820849566,
				"y": 1.1227160859,
				"z": -1.4573399478,
				"element": "F" 
			},
			{
				"x": -2.4903678514,
				"y": 2.0206384249,
				"z": -3.2593859292,
				"element": "F" 
			},
			{
				"x": -1.7440432759,
				"y": -0.1005723945,
				"z": -2.5634927199,
				"element": "C" 
			},
			{
				"x": -1.4883855764,
				"y": -0.8328994042,
				"z": -1.4535149561,
				"element": "F" 
			},
			{
				"x": -2.7982008487,
				"y": -0.6435068906,
				"z": -3.2145349869,
				"element": "F" 
			},
			{
				"x": -0.5146115911,
				"y": -0.1805561691,
				"z": -3.5117524344,
				"element": "C" 
			},
			{
				"x": 0.5134908518,
				"y": 0.5032280029,
				"z": -2.9619125063,
				"element": "F" 
			},
			{
				"x": -0.8522766936,
				"y": 0.3894321322,
				"z": -4.6898713964,
				"element": "F" 
			},
			{
				"x": -0.0184085838,
				"y": -1.6403064284,
				"z": -3.7691128987,
				"element": "C" 
			},
			{
				"x": -1.0815213399,
				"y": -2.454133703,
				"z": -3.9704569472,
				"element": "F" 
			},
			{
				"x": 0.6518128431,
				"y": -2.0511273962,
				"z": -2.6702404963,
				"element": "F" 
			},
			{
				"x": 0.9091376157,
				"y": -1.7595450884,
				"z": -5.0126151567,
				"element": "C" 
			},
			{
				"x": 1.7830180036,
				"y": -0.7240293896,
				"z": -5.0007059164,
				"element": "F" 
			},
			{
				"x": 0.1457076346,
				"y": -1.6818074681,
				"z": -6.1233463529,
				"element": "F" 
			},
			{
				"x": 1.7764586293,
				"y": -3.0517629632,
				"z": -5.1102556761,
				"element": "C" 
			},
			{
				"x": 2.6829406684,
				"y": -3.0473164756,
				"z": -4.1098324654,
				"element": "F" 
			},
			{
				"x": 2.4264382829,
				"y": -2.974316132,
				"z": -6.2948594792,
				"element": "F" 
			},
			{
				"x": 1.0330996949,
				"y": -4.4089466401,
				"z": -5.0814604539,
				"element": "C" 
			},
			{
				"x": 0.0382183268,
				"y": -4.4201275221,
				"z": -5.9765576358,
				"element": "F" 
			},
			{
				"x": 1.898554819,
				"y": -5.3834920684,
				"z": -5.3798488278,
				"element": "F" 
			},
			{
				"x": 0.5298849686,
				"y": -4.6391729102,
				"z": -3.8614410411,
				"element": "F" 
			},
			{
				"x": -2.5909704825,
				"y": 1.418864332,
				"z": 6.8249555581,
				"element": "H" 
			}
		],
		 "valence_orbital": [ 
			{
				"type": "occ",
				"energy": -0.36309,
				"method": "rhf"
			},
			{
				"type": "occ",
				"energy": -0.35667,
				"method": "rhf"
			},
			{
				"type": "occ",
				"energy": -0.34907,
				"method": "rhf"
			},
			{
				"type": "occ",
				"energy": -0.34476,
				"method": "rhf"
			},
			{
				"type": "occ",
				"energy": -0.31305,
				"method": "rhf"
			},
			{
				"type": "unocc",
				"energy": -0.046,
				"method": "rhf"
			},
			{
				"type": "unocc",
				"energy": -0.01004,
				"method": "rhf"
			},
			{
				"type": "unocc",
				"energy": 0.00296,
				"method": "rhf"
			},
			{
				"type": "unocc",
				"energy": 0.00414,
				"method": "rhf"
			},
			{
				"type": "unocc",
				"energy": 0.01442,
				"method": "rhf"
			}
		],
		"cosmo_sigma_profile": { 
			"-0.025": 0.0,
			"-0.024": 0.0,
			"-0.023": 0.0,
			"-0.022": 0.0,
			"-0.021": 0.201205374067,
			"-0.02": 1.16462569746,
			"-0.019": 0.985480136548,
			"-0.018": 0.98211224724,
			"-0.017": 1.26904586501,
			"-0.016": 0.410670768201,
			"-0.015": 0.314345327445,
			"-0.014": 0.980466675076,
			"-0.013": 1.15842551763,
			"-0.012": 0.423989013475,
			"-0.011": 0.479138954295,
			"-0.01": 1.03108597139,
			"-0.009": 1.48639752429,
			"-0.008": 0.820034521397,
			"-0.007": 1.36228184824,
			"-0.006": 2.35881328974,
			"-0.005": 3.16598942641,
			"-0.004": 6.47208734029,
			"-0.003": 11.7189505446,
			"-0.002": 25.0701067884,
			"-0.001": 58.0556676837,
			"0.0": 162.737842037,
			"0.001": 187.672971521,
			"0.002": 16.9306989249,
			"0.003": 4.76267386175,
			"0.004": 5.19174897939,
			"0.005": 3.41258134846,
			"0.006": 3.03662249922,
			"0.007": 2.63726566822,
			"0.008": 2.60243060386,
			"0.009": 4.74395033157,
			"0.01": 1.20060671186,
			"0.011": 0.0,
			"0.012": 0.0,
			"0.013": 0.0,
			"0.014": 0.0,
			"0.015": 0.0,
			"0.016": 0.0,
			"0.017": 0.0,
			"0.018": 0.0,
			"0.019": 0.0,
			"0.02": 0.0,
			"0.021": 0.0,
			"0.022": 0.0,
			"0.023": 0.0,
			"0.024": 0.0,
			"0.025": 0.0
		}
	}
}
