{
	 "smiles": "CN(CC(O)=O)S(=O)(=O)C1=CC=C(C)C=C1", 
	 "Tm": 502.15, 
	 "num_atms": 29, 
	 "gaussian": { 
		 "optdone": 1, 
		 "sigma_profile": "yes", 
		 "theory": "DFT", 
		 "functional": "B3LYP", 
		 "basiset": "6-31G**", 
		 "properties": { 
			 "R2extent": 4132.4376, 
			 "electric_dipole_moment_norm": 5.59101608744, 
			 "electric_quadrupole_moment_norm": 17.4500630403, 
			 "total_energy": -1142.67484637, 
			 "HOMO_LUMO_gap": 0.21045, 
			 "cosmo_polarized_energy": -18.61, 
			 "cosmo_cavitation_energy": 33.78, 
			 "cosmo_dispersion_energy": -23.8, 
			 "cosmo_repulsion_energy": 1.83, 
			 "cosmo_total_nonelectrostatic_energy": 11.8, 
			 "SMD_solvation_energy": 6.09 
		},
		"coords": [
			{
				"x": -0.4646013058,
				"y": 0.9091833969,
				"z": 2.7525913924,
				"element": "C" 
			},
			{
				"x": -0.141456504,
				"y": -0.4632279977,
				"z": 2.3658627573,
				"element": "N" 
			},
			{
				"x": -1.1958835562,
				"y": -1.4576841405,
				"z": 2.3719498843,
				"element": "C" 
			},
			{
				"x": -2.367161605,
				"y": -1.2731465047,
				"z": 1.4094070378,
				"element": "C" 
			},
			{
				"x": -2.1348651915,
				"y": -0.3558485983,
				"z": 0.4445135556,
				"element": "O" 
			},
			{
				"x": -3.3976691337,
				"y": -1.9008724071,
				"z": 1.4941219645,
				"element": "O" 
			},
			{
				"x": 1.3035467361,
				"y": -0.7681563738,
				"z": 1.5542863778,
				"element": "S" 
			},
			{
				"x": 1.4314768808,
				"y": -2.2284705481,
				"z": 1.5144519756,
				"element": "O" 
			},
			{
				"x": 2.3076523634,
				"y": 0.0884585667,
				"z": 2.1888426737,
				"element": "O" 
			},
			{
				"x": 1.136017829,
				"y": -0.2006810305,
				"z": -0.1403255393,
				"element": "C" 
			},
			{
				"x": 1.4310340212,
				"y": 1.1273936821,
				"z": -0.4550566168,
				"element": "C" 
			},
			{
				"x": 1.2923448361,
				"y": 1.5611106306,
				"z": -1.7720309355,
				"element": "C" 
			},
			{
				"x": 0.8672815496,
				"y": 0.6875851964,
				"z": -2.7832539197,
				"element": "C" 
			},
			{
				"x": 0.6985998003,
				"y": 1.1724491736,
				"z": -4.2030820894,
				"element": "C" 
			},
			{
				"x": 0.5928434522,
				"y": -0.6447257113,
				"z": -2.4413911816,
				"element": "C" 
			},
			{
				"x": 0.7212753728,
				"y": -1.0944685887,
				"z": -1.1292800171,
				"element": "C" 
			},
			{
				"x": -1.0245440817,
				"y": 1.4426120174,
				"z": 1.9747833953,
				"element": "H" 
			},
			{
				"x": 0.4589714372,
				"y": 1.4420391997,
				"z": 2.9784189271,
				"element": "H" 
			},
			{
				"x": -1.0687579971,
				"y": 0.8765825689,
				"z": 3.6652886974,
				"element": "H" 
			},
			{
				"x": -1.6321010106,
				"y": -1.5178983964,
				"z": 3.3761863857,
				"element": "H" 
			},
			{
				"x": -0.7549799732,
				"y": -2.4373497705,
				"z": 2.1686164701,
				"element": "H" 
			},
			{
				"x": -2.9302715588,
				"y": -0.342942118,
				"z": -0.1147580922,
				"element": "H" 
			},
			{
				"x": 1.7938916246,
				"y": 1.7985637546,
				"z": 0.3155294975,
				"element": "H" 
			},
			{
				"x": 1.5315978963,
				"y": 2.5916759402,
				"z": -2.0210510845,
				"element": "H" 
			},
			{
				"x": 0.8569695573,
				"y": 0.3649253356,
				"z": -4.9235842157,
				"element": "H" 
			},
			{
				"x": 1.3986379206,
				"y": 1.979934134,
				"z": -4.4363314122,
				"element": "H" 
			},
			{
				"x": -0.3139178815,
				"y": 1.5621903914,
				"z": -4.3673188703,
				"element": "H" 
			},
			{
				"x": 0.2846224281,
				"y": -1.3425983681,
				"z": -3.2156074739,
				"element": "H" 
			},
			{
				"x": 0.5317460936,
				"y": -2.1311334342,
				"z": -0.8739795437,
				"element": "H" 
			}
		],
		 "valence_orbital": [ 
			{
				"type": "occ",
				"energy": -0.302,
				"method": "rhf"
			},
			{
				"type": "occ",
				"energy": -0.29724,
				"method": "rhf"
			},
			{
				"type": "occ",
				"energy": -0.26987,
				"method": "rhf"
			},
			{
				"type": "occ",
				"energy": -0.26808,
				"method": "rhf"
			},
			{
				"type": "occ",
				"energy": -0.2461,
				"method": "rhf"
			},
			{
				"type": "unocc",
				"energy": -0.03565,
				"method": "rhf"
			},
			{
				"type": "unocc",
				"energy": -0.01993,
				"method": "rhf"
			},
			{
				"type": "unocc",
				"energy": -0.00274,
				"method": "rhf"
			},
			{
				"type": "unocc",
				"energy": 0.05696,
				"method": "rhf"
			},
			{
				"type": "unocc",
				"energy": 0.06109,
				"method": "rhf"
			}
		],
		"cosmo_sigma_profile": { 
			"-0.025": 0.0,
			"-0.024": 0.0,
			"-0.023": 0.0,
			"-0.022": 0.0,
			"-0.021": 0.0,
			"-0.02": 0.0,
			"-0.019": 0.145479258088,
			"-0.018": 1.05095451675,
			"-0.017": 0.928487803901,
			"-0.016": 1.051208283,
			"-0.015": 0.488684027305,
			"-0.014": 0.365846570641,
			"-0.013": 0.539533434529,
			"-0.012": 0.825297294582,
			"-0.011": 0.549927584025,
			"-0.01": 1.1568019054,
			"-0.009": 0.560727952172,
			"-0.008": 3.48536262766,
			"-0.007": 9.14444896866,
			"-0.006": 15.1922473538,
			"-0.005": 21.6392106559,
			"-0.004": 23.4872977149,
			"-0.003": 22.732462906,
			"-0.002": 20.5588339646,
			"-0.001": 18.4026230984,
			"0.0": 16.5818532273,
			"0.001": 12.4405275696,
			"0.002": 13.7043326243,
			"0.003": 15.1919058991,
			"0.004": 11.809099977,
			"0.005": 7.41316217052,
			"0.006": 5.73468460847,
			"0.007": 4.56891606258,
			"0.008": 5.5135697942,
			"0.009": 5.17319797476,
			"0.01": 7.96498371779,
			"0.011": 12.2348000395,
			"0.012": 6.74564048527,
			"0.013": 0.165338953356,
			"0.014": 0.0,
			"0.015": 0.0,
			"0.016": 0.0,
			"0.017": 0.0,
			"0.018": 0.0,
			"0.019": 0.0,
			"0.02": 0.0,
			"0.021": 0.0,
			"0.022": 0.0,
			"0.023": 0.0,
			"0.024": 0.0,
			"0.0": 0.0
		}
	}
}
