{
	 "smiles": "NNC(=O)C1=C2C=CC=CC2=NC(=C1)C1=CC=CO1", 
	 "Tm": 493.15, 
	 "num_atms": 30, 
	 "gaussian": { 
		 "optdone": 1, 
		 "sigma_profile": "yes", 
		 "theory": "DFT", 
		 "functional": "B3LYP", 
		 "basiset": "6-31G**", 
		 "properties": { 
			 "R2extent": 5538.7194, 
			 "electric_dipole_moment_norm": 4.96040140009, 
			 "electric_quadrupole_moment_norm": 20.5836551565, 
			 "total_energy": -854.777218332, 
			 "HOMO_LUMO_gap": 0.14655, 
			 "cosmo_polarized_energy": -21.51, 
			 "cosmo_cavitation_energy": 35.18, 
			 "cosmo_dispersion_energy": -25.42, 
			 "cosmo_repulsion_energy": 1.96, 
			 "cosmo_total_nonelectrostatic_energy": 11.72, 
			 "SMD_solvation_energy": 6.66 
		},
		"coords": [
			{
				"x": -0.4860756846,
				"y": 3.3825007715,
				"z": 1.304209176,
				"element": "N" 
			},
			{
				"x": 0.3659505776,
				"y": 2.6622623916,
				"z": 2.1529340555,
				"element": "N" 
			},
			{
				"x": 0.36545571,
				"y": 1.2854517135,
				"z": 2.2476186311,
				"element": "C" 
			},
			{
				"x": 0.8965712587,
				"y": 0.7516704704,
				"z": 3.2146064384,
				"element": "O" 
			},
			{
				"x": -0.2410688356,
				"y": 0.4924046762,
				"z": 1.1225547748,
				"element": "C" 
			},
			{
				"x": -1.0696214949,
				"y": -0.6431155436,
				"z": 1.3979533318,
				"element": "C" 
			},
			{
				"x": -1.4534587009,
				"y": -1.0645234657,
				"z": 2.6985455756,
				"element": "C" 
			},
			{
				"x": -2.286455848,
				"y": -2.1501509715,
				"z": 2.8635760216,
				"element": "C" 
			},
			{
				"x": -2.7711880246,
				"y": -2.8672370937,
				"z": 1.7433388745,
				"element": "C" 
			},
			{
				"x": -2.4117196308,
				"y": -2.4883187761,
				"z": 0.4707288818,
				"element": "C" 
			},
			{
				"x": -1.5551183961,
				"y": -1.3732437872,
				"z": 0.2626905171,
				"element": "C" 
			},
			{
				"x": -1.2345619969,
				"y": -1.0599669043,
				"z": -1.0221205972,
				"element": "N" 
			},
			{
				"x": -0.4439138913,
				"y": -0.0207038492,
				"z": -1.2387369373,
				"element": "C" 
			},
			{
				"x": 0.0638638776,
				"y": 0.7918197833,
				"z": -0.1837363699,
				"element": "C" 
			},
			{
				"x": -0.0908563481,
				"y": 0.2997469447,
				"z": -2.6199442397,
				"element": "C" 
			},
			{
				"x": 0.7119806366,
				"y": 1.2644428083,
				"z": -3.1808052305,
				"element": "C" 
			},
			{
				"x": 0.6655410577,
				"y": 1.0673414334,
				"z": -4.5934745373,
				"element": "C" 
			},
			{
				"x": -0.1597744412,
				"y": -0.0002155127,
				"z": -4.7932630456,
				"element": "C" 
			},
			{
				"x": -0.6248434086,
				"y": -0.4755708817,
				"z": -3.6109922303,
				"element": "O" 
			},
			{
				"x": -1.2458541907,
				"y": 3.8060337124,
				"z": 1.8327902921,
				"element": "H" 
			},
			{
				"x": 0.0385203933,
				"y": 4.1170520077,
				"z": 0.8384722906,
				"element": "H" 
			},
			{
				"x": 0.7551282072,
				"y": 3.1051461583,
				"z": 2.9818183627,
				"element": "H" 
			},
			{
				"x": -1.0640541305,
				"y": -0.5349788119,
				"z": 3.5592177914,
				"element": "H" 
			},
			{
				"x": -2.5697268567,
				"y": -2.4629883258,
				"z": 3.8644064235,
				"element": "H" 
			},
			{
				"x": -3.4259061044,
				"y": -3.7209916203,
				"z": 1.8933991914,
				"element": "H" 
			},
			{
				"x": -2.7614483558,
				"y": -3.0173350853,
				"z": -0.409578531,
				"element": "H" 
			},
			{
				"x": 0.6886503017,
				"y": 1.6458273144,
				"z": -0.4125551881,
				"element": "H" 
			},
			{
				"x": 1.2736415245,
				"y": 2.0213735618,
				"z": -2.6532957682,
				"element": "H" 
			},
			{
				"x": 1.1767713175,
				"y": 1.6399065447,
				"z": -5.353767211,
				"element": "H" 
			},
			{
				"x": -0.5011285229,
				"y": -0.519839663,
				"z": -5.6752907438,
				"element": "H" 
			}
		],
		 "valence_orbital": [ 
			{
				"type": "occ",
				"energy": -0.26338,
				"method": "rhf"
			},
			{
				"type": "occ",
				"energy": -0.2607,
				"method": "rhf"
			},
			{
				"type": "occ",
				"energy": -0.2447,
				"method": "rhf"
			},
			{
				"type": "occ",
				"energy": -0.22839,
				"method": "rhf"
			},
			{
				"type": "occ",
				"energy": -0.20718,
				"method": "rhf"
			},
			{
				"type": "unocc",
				"energy": -0.06063,
				"method": "rhf"
			},
			{
				"type": "unocc",
				"energy": -0.02568,
				"method": "rhf"
			},
			{
				"type": "unocc",
				"energy": 0.00295,
				"method": "rhf"
			},
			{
				"type": "unocc",
				"energy": 0.02545,
				"method": "rhf"
			},
			{
				"type": "unocc",
				"energy": 0.05389,
				"method": "rhf"
			}
		],
		"cosmo_sigma_profile": { 
			"-0.025": 0.0,
			"-0.024": 0.0,
			"-0.023": 0.0,
			"-0.022": 0.0,
			"-0.021": 0.0,
			"-0.02": 0.0,
			"-0.019": 0.0,
			"-0.018": 0.0,
			"-0.017": 0.0,
			"-0.016": 0.0,
			"-0.015": 0.0,
			"-0.014": 0.326323364053,
			"-0.013": 1.45842179571,
			"-0.012": 4.33458187805,
			"-0.011": 5.22068058711,
			"-0.01": 4.96261960437,
			"-0.009": 7.65479062002,
			"-0.008": 7.96395238327,
			"-0.007": 8.46946205385,
			"-0.006": 13.370721129,
			"-0.005": 12.8793267057,
			"-0.004": 16.8285941296,
			"-0.003": 15.8835820531,
			"-0.002": 13.5097526124,
			"-0.001": 11.9556177044,
			"0.0": 16.6284773016,
			"0.001": 22.6943990938,
			"0.002": 23.8231984006,
			"0.003": 23.4765681925,
			"0.004": 21.6953314322,
			"0.005": 10.1003181163,
			"0.006": 4.97280329891,
			"0.007": 4.68756368834,
			"0.008": 3.5099579297,
			"0.009": 3.11116995961,
			"0.01": 4.23920411241,
			"0.011": 3.87115365862,
			"0.012": 4.4996049907,
			"0.013": 6.65172027406,
			"0.014": 1.72970545581,
			"0.015": 0.903859693588,
			"0.016": 0.828897405715,
			"0.017": 0.0999982609325,
			"0.018": 0.0,
			"0.019": 0.0,
			"0.02": 0.0,
			"0.021": 0.0,
			"0.022": 0.0,
			"0.023": 0.0,
			"0.024": 0.0,
			"0.025": 0.0
		}
	}
}
