{
	 "smiles": "OCC#CC#CCO", 
	 "Tm": 385.15, 
	 "num_atms": 14, 
	 "gaussian": { 
		 "optdone": 1, 
		 "sigma_profile": "yes", 
		 "theory": "DFT", 
		 "functional": "B3LYP", 
		 "basiset": "6-31G**", 
		 "properties": { 
			 "R2extent": 2770.177, 
			 "electric_dipole_moment_norm": 0.372048894636, 
			 "electric_quadrupole_moment_norm": 11.1136858917, 
			 "total_energy": -382.544568876, 
			 "HOMO_LUMO_gap": 0.20752, 
			 "cosmo_polarized_energy": -12.12, 
			 "cosmo_cavitation_energy": 20.78, 
			 "cosmo_dispersion_energy": -14.83, 
			 "cosmo_repulsion_energy": 1.32, 
			 "cosmo_total_nonelectrostatic_energy": 7.27, 
			 "SMD_solvation_energy": 4.64 
		},
		"coords": [
			{
				"x": 4.9743211486,
				"y": 0.6969622002,
				"z": 0.8026984006,
				"element": "O" 
			},
			{
				"x": 4.257516231,
				"y": -0.5144190331,
				"z": 1.000075182,
				"element": "C" 
			},
			{
				"x": 3.0065727561,
				"y": -0.5828399663,
				"z": 0.2380612228,
				"element": "C" 
			},
			{
				"x": 2.0021057359,
				"y": -0.6073322575,
				"z": -0.4479326567,
				"element": "C" 
			},
			{
				"x": 0.8657639544,
				"y": -0.6480149466,
				"z": -1.205281609,
				"element": "C" 
			},
			{
				"x": -0.1497151375,
				"y": -0.7008408055,
				"z": -1.8732087834,
				"element": "C" 
			},
			{
				"x": -1.3662656018,
				"y": -0.6802620033,
				"z": -2.6916196913,
				"element": "C" 
			},
			{
				"x": -1.277407589,
				"y": 0.1859079008,
				"z": -3.8150295446,
				"element": "O" 
			},
			{
				"x": 5.1290194025,
				"y": 0.7932624825,
				"z": -0.1464575045,
				"element": "H" 
			},
			{
				"x": 4.8737568741,
				"y": -1.3960671747,
				"z": 0.758625931,
				"element": "H" 
			},
			{
				"x": 4.04263102,
				"y": -0.5641532429,
				"z": 2.073495349,
				"element": "H" 
			},
			{
				"x": -1.5583728472,
				"y": -1.6796849574,
				"z": -3.0979970188,
				"element": "H" 
			},
			{
				"x": -2.2264798983,
				"y": -0.4278781341,
				"z": -2.0499852102,
				"element": "H" 
			},
			{
				"x": -1.0527460487,
				"y": 1.0669599379,
				"z": -3.487344067,
				"element": "H" 
			}
		],
		 "valence_orbital": [ 
			{
				"type": "occ",
				"energy": -0.33511,
				"method": "rhf"
			},
			{
				"type": "occ",
				"energy": -0.29197,
				"method": "rhf"
			},
			{
				"type": "occ",
				"energy": -0.29111,
				"method": "rhf"
			},
			{
				"type": "occ",
				"energy": -0.25016,
				"method": "rhf"
			},
			{
				"type": "occ",
				"energy": -0.24104,
				"method": "rhf"
			},
			{
				"type": "unocc",
				"energy": -0.03352,
				"method": "rhf"
			},
			{
				"type": "unocc",
				"energy": -0.01348,
				"method": "rhf"
			},
			{
				"type": "unocc",
				"energy": 0.06926,
				"method": "rhf"
			},
			{
				"type": "unocc",
				"energy": 0.08914,
				"method": "rhf"
			},
			{
				"type": "unocc",
				"energy": 0.12337,
				"method": "rhf"
			}
		],
		"cosmo_sigma_profile": { 
			"-0.025": 0.0,
			"-0.024": 0.0,
			"-0.023": 0.0,
			"-0.022": 0.0,
			"-0.021": 0.0,
			"-0.02": 0.0,
			"-0.019": 0.0,
			"-0.018": 0.0,
			"-0.017": 0.240727897408,
			"-0.016": 1.73811249781,
			"-0.015": 1.59024559697,
			"-0.014": 2.13422789052,
			"-0.013": 2.27585943491,
			"-0.012": 1.30722836325,
			"-0.011": 1.70783549687,
			"-0.01": 1.90217057742,
			"-0.009": 1.6956941853,
			"-0.008": 2.10508518326,
			"-0.007": 8.64329531388,
			"-0.006": 12.914895635,
			"-0.005": 10.9000636405,
			"-0.004": 8.99797566729,
			"-0.003": 5.19587689949,
			"-0.002": 6.19295721281,
			"-0.001": 5.46723461392,
			"0.0": 5.37345550658,
			"0.001": 5.16988791736,
			"0.002": 6.31100954935,
			"0.003": 18.5217448734,
			"0.004": 21.0785468292,
			"0.005": 9.78066107148,
			"0.006": 2.95504394447,
			"0.007": 2.66530407101,
			"0.008": 3.67429174057,
			"0.009": 1.6488912256,
			"0.01": 1.59210318006,
			"0.011": 2.87817615138,
			"0.012": 4.37403659237,
			"0.013": 4.24779888002,
			"0.014": 1.1421380226,
			"0.015": 0.0,
			"0.016": 0.0,
			"0.017": 0.0,
			"0.018": 0.0,
			"0.019": 0.0,
			"0.02": 0.0,
			"0.021": 0.0,
			"0.022": 0.0,
			"0.023": 0.0,
			"0.024": 0.0,
			"0.025": 0.0
		}
	}
}
