{
	 "smiles": "OC(=O)CSCCC1=CC=CC=C1", 
	 "Tm": 330.15, 
	 "num_atms": 25, 
	 "gaussian": { 
		 "optdone": 1, 
		 "sigma_profile": "yes", 
		 "theory": "DFT", 
		 "functional": "B3LYP", 
		 "basiset": "6-31G**", 
		 "properties": { 
			 "R2extent": 4040.9419, 
			 "electric_dipole_moment_norm": 1.78656769533, 
			 "electric_quadrupole_moment_norm": 12.439717701, 
			 "total_energy": -936.944238637, 
			 "HOMO_LUMO_gap": 0.21607, 
			 "cosmo_polarized_energy": -14.16, 
			 "cosmo_cavitation_energy": 30.84, 
			 "cosmo_dispersion_energy": -22.23, 
			 "cosmo_repulsion_energy": 1.77, 
			 "cosmo_total_nonelectrostatic_energy": 10.38, 
			 "SMD_solvation_energy": 5.92 
		},
		"coords": [
			{
				"x": 3.8489367414,
				"y": -0.8868816837,
				"z": -1.9354960176,
				"element": "O" 
			},
			{
				"x": 3.8261637479,
				"y": -0.0053121586,
				"z": -0.9103339162,
				"element": "C" 
			},
			{
				"x": 4.6459373542,
				"y": -0.0053772389,
				"z": -0.0207555387,
				"element": "O" 
			},
			{
				"x": 2.6788848055,
				"y": 0.9750457818,
				"z": -1.0328218032,
				"element": "C" 
			},
			{
				"x": 1.0658702237,
				"y": 0.100109524,
				"z": -1.1867930026,
				"element": "S" 
			},
			{
				"x": -0.0321586156,
				"y": 1.5266795961,
				"z": -0.8047735297,
				"element": "C" 
			},
			{
				"x": -1.5093402487,
				"y": 1.1800751977,
				"z": -1.0640314053,
				"element": "C" 
			},
			{
				"x": -2.074837782,
				"y": 0.1070948972,
				"z": -0.1554187093,
				"element": "C" 
			},
			{
				"x": -2.4103708453,
				"y": 0.4045866282,
				"z": 1.1731164494,
				"element": "C" 
			},
			{
				"x": -2.9169841775,
				"y": -0.579568059,
				"z": 2.021285631,
				"element": "C" 
			},
			{
				"x": -3.0998993545,
				"y": -1.8823336304,
				"z": 1.5516968473,
				"element": "C" 
			},
			{
				"x": -2.7743869163,
				"y": -2.190203637,
				"z": 0.2304928004,
				"element": "C" 
			},
			{
				"x": -2.2675306538,
				"y": -1.2015377642,
				"z": -0.6153120067,
				"element": "C" 
			},
			{
				"x": 4.6013029182,
				"y": -1.4792694841,
				"z": -1.7683610456,
				"element": "H" 
			},
			{
				"x": 2.8430525068,
				"y": 1.6077642384,
				"z": -1.9124539695,
				"element": "H" 
			},
			{
				"x": 2.6854370897,
				"y": 1.5938216269,
				"z": -0.1344639089,
				"element": "H" 
			},
			{
				"x": 0.2607165671,
				"y": 2.3682783095,
				"z": -1.4417754958,
				"element": "H" 
			},
			{
				"x": 0.1128425414,
				"y": 1.818297168,
				"z": 0.2409964419,
				"element": "H" 
			},
			{
				"x": -2.0816482382,
				"y": 2.1074814552,
				"z": -0.9339291348,
				"element": "H" 
			},
			{
				"x": -1.6272589577,
				"y": 0.8830212498,
				"z": -2.1118298308,
				"element": "H" 
			},
			{
				"x": -2.2785573687,
				"y": 1.4186098897,
				"z": 1.5447390792,
				"element": "H" 
			},
			{
				"x": -3.1738218956,
				"y": -0.3291470531,
				"z": 3.0468380979,
				"element": "H" 
			},
			{
				"x": -3.496783287,
				"y": -2.6495241454,
				"z": 2.210289824,
				"element": "H" 
			},
			{
				"x": -2.9160473704,
				"y": -3.1997714347,
				"z": -0.1448859225,
				"element": "H" 
			},
			{
				"x": -2.0183187846,
				"y": -1.4477392735,
				"z": -1.6444199341,
				"element": "H" 
			}
		],
		 "valence_orbital": [ 
			{
				"type": "occ",
				"energy": -0.31132,
				"method": "rhf"
			},
			{
				"type": "occ",
				"energy": -0.28011,
				"method": "rhf"
			},
			{
				"type": "occ",
				"energy": -0.24791,
				"method": "rhf"
			},
			{
				"type": "occ",
				"energy": -0.24255,
				"method": "rhf"
			},
			{
				"type": "occ",
				"energy": -0.2239,
				"method": "rhf"
			},
			{
				"type": "unocc",
				"energy": -0.00783,
				"method": "rhf"
			},
			{
				"type": "unocc",
				"energy": -0.00143,
				"method": "rhf"
			},
			{
				"type": "unocc",
				"energy": 0.00188,
				"method": "rhf"
			},
			{
				"type": "unocc",
				"energy": 0.03451,
				"method": "rhf"
			},
			{
				"type": "unocc",
				"energy": 0.07499,
				"method": "rhf"
			}
		],
		"cosmo_sigma_profile": { 
			"-0.025": 0.0,
			"-0.024": 0.0,
			"-0.023": 0.0,
			"-0.022": 0.0,
			"-0.021": 0.0,
			"-0.02": 0.0,
			"-0.019": 0.141623977866,
			"-0.018": 1.14843115642,
			"-0.017": 0.863636277986,
			"-0.016": 0.613834240029,
			"-0.015": 1.2569376976,
			"-0.014": 0.640276524338,
			"-0.013": 0.176181897491,
			"-0.012": 0.334762557889,
			"-0.011": 1.39949507469,
			"-0.01": 0.807411672045,
			"-0.009": 0.520504980718,
			"-0.008": 2.08960200881,
			"-0.007": 5.47676392705,
			"-0.006": 9.81710706193,
			"-0.005": 22.8496983076,
			"-0.004": 27.8656806095,
			"-0.003": 23.6808407743,
			"-0.002": 16.4029476785,
			"-0.001": 14.0831760343,
			"0.0": 11.1853300514,
			"0.001": 10.4927591478,
			"0.002": 10.7800198395,
			"0.003": 11.1690440486,
			"0.004": 11.8637477215,
			"0.005": 11.9814866818,
			"0.006": 12.9503889467,
			"0.007": 8.44773020186,
			"0.008": 6.65464871825,
			"0.009": 6.30101992686,
			"0.01": 4.62801551937,
			"0.011": 5.74281360453,
			"0.012": 2.78784005696,
			"0.013": 0.193893960664,
			"0.014": 0.0,
			"0.015": 0.0,
			"0.016": 0.0,
			"0.017": 0.0,
			"0.018": 0.0,
			"0.019": 0.0,
			"0.02": 0.0,
			"0.021": 0.0,
			"0.022": 0.0,
			"0.023": 0.0,
			"0.024": 0.0,
			"0.025": 0.0
		}
	}
}
