{
	 "smiles": "C=COC=C", 
	 "Tm": 172.15, 
	 "num_atms": 11, 
	 "gaussian": { 
		 "optdone": 1, 
		 "sigma_profile": "yes", 
		 "theory": "DFT", 
		 "functional": "B3LYP", 
		 "basiset": "6-31G**", 
		 "properties": { 
			 "R2extent": 1213.2527, 
			 "electric_dipole_moment_norm": 0.799813690806, 
			 "electric_quadrupole_moment_norm": 4.62707613726, 
			 "total_energy": -231.201405708, 
			 "HOMO_LUMO_gap": 0.23497, 
			 "cosmo_polarized_energy": -3.61, 
			 "cosmo_cavitation_energy": 15.12, 
			 "cosmo_dispersion_energy": -10.84, 
			 "cosmo_repulsion_energy": 0.96, 
			 "cosmo_total_nonelectrostatic_energy": 5.25, 
			 "SMD_solvation_energy": 5.34 
		},
		"coords": [
			{
				"x": -0.2016142234,
				"y": 2.0647296293,
				"z": -1.1984092739,
				"element": "C" 
			},
			{
				"x": -0.6406026608,
				"y": 1.5794638002,
				"z": -0.0406848182,
				"element": "C" 
			},
			{
				"x": -1.8436329715,
				"y": 1.9720236306,
				"z": 0.4933741167,
				"element": "O" 
			},
			{
				"x": -1.990911651,
				"y": 1.9616363833,
				"z": 1.8539541731,
				"element": "C" 
			},
			{
				"x": -1.0267008313,
				"y": 1.9368989025,
				"z": 2.7754221585,
				"element": "C" 
			},
			{
				"x": -0.7464954474,
				"y": 2.8353253082,
				"z": -1.7321279401,
				"element": "H" 
			},
			{
				"x": 0.7113901734,
				"y": 1.6781676214,
				"z": -1.6345614519,
				"element": "H" 
			},
			{
				"x": -0.1202669513,
				"y": 0.8117753658,
				"z": 0.5289255235,
				"element": "H" 
			},
			{
				"x": -3.0456563766,
				"y": 1.9920375423,
				"z": 2.1087571777,
				"element": "H" 
			},
			{
				"x": 0.0286599928,
				"y": 1.9524900905,
				"z": 2.5302387284,
				"element": "H" 
			},
			{
				"x": -1.300569053,
				"y": 1.9199517257,
				"z": 3.8232116061,
				"element": "H" 
			}
		],
		 "valence_orbital": [ 
			{
				"type": "occ",
				"energy": -0.39333,
				"method": "rhf"
			},
			{
				"type": "occ",
				"energy": -0.38115,
				"method": "rhf"
			},
			{
				"type": "occ",
				"energy": -0.35225,
				"method": "rhf"
			},
			{
				"type": "occ",
				"energy": -0.27288,
				"method": "rhf"
			},
			{
				"type": "occ",
				"energy": -0.22487,
				"method": "rhf"
			},
			{
				"type": "unocc",
				"energy": 0.0101,
				"method": "rhf"
			},
			{
				"type": "unocc",
				"energy": 0.04536,
				"method": "rhf"
			},
			{
				"type": "unocc",
				"energy": 0.1173,
				"method": "rhf"
			},
			{
				"type": "unocc",
				"energy": 0.12124,
				"method": "rhf"
			},
			{
				"type": "unocc",
				"energy": 0.13544,
				"method": "rhf"
			}
		],
		"cosmo_sigma_profile": { 
			"-0.025": 0.0,
			"-0.024": 0.0,
			"-0.023": 0.0,
			"-0.022": 0.0,
			"-0.021": 0.0,
			"-0.02": 0.0,
			"-0.019": 0.0,
			"-0.018": 0.0,
			"-0.017": 0.0,
			"-0.016": 0.0,
			"-0.015": 0.0,
			"-0.014": 0.0,
			"-0.013": 0.0,
			"-0.012": 0.0,
			"-0.011": 0.0,
			"-0.01": 0.0,
			"-0.009": 0.0,
			"-0.008": 0.505597916429,
			"-0.007": 3.11343562774,
			"-0.006": 8.35198688346,
			"-0.005": 10.3945520808,
			"-0.004": 8.87212989503,
			"-0.003": 9.47906125546,
			"-0.002": 8.19512303779,
			"-0.001": 8.61916391526,
			"0.0": 10.0386236544,
			"0.001": 7.42062686023,
			"0.002": 6.646126354,
			"0.003": 8.35527349811,
			"0.004": 9.24144821877,
			"0.005": 8.68213495254,
			"0.006": 6.60817649843,
			"0.007": 2.49923768571,
			"0.008": 1.74367019765,
			"0.009": 1.54592096436,
			"0.01": 0.418819282795,
			"0.011": 0.0,
			"0.012": 0.0,
			"0.013": 0.0,
			"0.014": 0.0,
			"0.015": 0.0,
			"0.016": 0.0,
			"0.017": 0.0,
			"0.018": 0.0,
			"0.019": 0.0,
			"0.02": 0.0,
			"0.021": 0.0,
			"0.022": 0.0,
			"0.023": 0.0,
			"0.024": 0.0,
			"0.025": 0.0
		}
	}
}
