{
	 "smiles": "NS(=O)(=O)C1=C(OC(F)F)C=CC=C1", 
	 "Tm": 407.15, 
	 "num_atms": 21, 
	 "gaussian": { 
		 "optdone": 1, 
		 "sigma_profile": "yes", 
		 "theory": "DFT", 
		 "functional": "B3LYP", 
		 "basiset": "6-31G**", 
		 "properties": { 
			 "R2extent": 3270.8637, 
			 "electric_dipole_moment_norm": 2.96858393346, 
			 "electric_quadrupole_moment_norm": 18.1094279181, 
			 "total_energy": -1149.17535255, 
			 "HOMO_LUMO_gap": 0.22554, 
			 "cosmo_polarized_energy": -14.12, 
			 "cosmo_cavitation_energy": 27.4, 
			 "cosmo_dispersion_energy": -20.18, 
			 "cosmo_repulsion_energy": 1.5, 
			 "cosmo_total_nonelectrostatic_energy": 8.72, 
			 "SMD_solvation_energy": 5.42 
		},
		"coords": [
			{
				"x": 1.5844948593,
				"y": -0.1592280359,
				"z": 0.1208362517,
				"element": "N" 
			},
			{
				"x": 0.4435372402,
				"y": -1.3872059692,
				"z": 0.2834997789,
				"element": "S" 
			},
			{
				"x": -0.2427320884,
				"y": -1.6389546997,
				"z": -0.9914206429,
				"element": "O" 
			},
			{
				"x": 1.1191760131,
				"y": -2.4740931813,
				"z": 0.9944662058,
				"element": "O" 
			},
			{
				"x": -0.7578392532,
				"y": -0.6459688556,
				"z": 1.3881316751,
				"element": "C" 
			},
			{
				"x": -1.4563447786,
				"y": 0.5016904135,
				"z": 0.997979375,
				"element": "C" 
			},
			{
				"x": -1.0814008631,
				"y": 1.1458309825,
				"z": -0.1751707414,
				"element": "O" 
			},
			{
				"x": -1.9193613922,
				"y": 0.9856478062,
				"z": -1.2704859648,
				"element": "C" 
			},
			{
				"x": -3.0645969297,
				"y": 1.7001226132,
				"z": -1.0909549625,
				"element": "F" 
			},
			{
				"x": -1.2589498468,
				"y": 1.5142887087,
				"z": -2.3139055971,
				"element": "F" 
			},
			{
				"x": -2.4477702588,
				"y": 1.0308726856,
				"z": 1.8191472648,
				"element": "C" 
			},
			{
				"x": -2.7374302556,
				"y": 0.4008757246,
				"z": 3.0318709346,
				"element": "C" 
			},
			{
				"x": -2.0372479434,
				"y": -0.7408359093,
				"z": 3.4252628825,
				"element": "C" 
			},
			{
				"x": -1.0410936955,
				"y": -1.2687757214,
				"z": 2.6020298434,
				"element": "C" 
			},
			{
				"x": 2.5007251514,
				"y": -0.5799668619,
				"z": -0.0122434493,
				"element": "H" 
			},
			{
				"x": 1.3311158868,
				"y": 0.4746752599,
				"z": -0.633129874,
				"element": "H" 
			},
			{
				"x": -2.1694131855,
				"y": -0.0610723199,
				"z": -1.4600736182,
				"element": "H" 
			},
			{
				"x": -2.9700950114,
				"y": 1.9263037497,
				"z": 1.5036096474,
				"element": "H" 
			},
			{
				"x": -3.5107709697,
				"y": 0.8117988319,
				"z": 3.673561331,
				"element": "H" 
			},
			{
				"x": -2.2631258467,
				"y": -1.2204941524,
				"z": 4.372168343,
				"element": "H" 
			},
			{
				"x": -0.4808768325,
				"y": -2.1545110691,
				"z": 2.8807213171,
				"element": "H" 
			}
		],
		 "valence_orbital": [ 
			{
				"type": "occ",
				"energy": -0.32509,
				"method": "rhf"
			},
			{
				"type": "occ",
				"energy": -0.31505,
				"method": "rhf"
			},
			{
				"type": "occ",
				"energy": -0.29536,
				"method": "rhf"
			},
			{
				"type": "occ",
				"energy": -0.2793,
				"method": "rhf"
			},
			{
				"type": "occ",
				"energy": -0.27148,
				"method": "rhf"
			},
			{
				"type": "unocc",
				"energy": -0.04594,
				"method": "rhf"
			},
			{
				"type": "unocc",
				"energy": -0.03046,
				"method": "rhf"
			},
			{
				"type": "unocc",
				"energy": 0.04847,
				"method": "rhf"
			},
			{
				"type": "unocc",
				"energy": 0.06477,
				"method": "rhf"
			},
			{
				"type": "unocc",
				"energy": 0.07444,
				"method": "rhf"
			}
		],
		"cosmo_sigma_profile": { 
			"-0.025": 0.0,
			"-0.024": 0.0,
			"-0.023": 0.0,
			"-0.022": 0.0,
			"-0.021": 0.0,
			"-0.02": 0.0,
			"-0.019": 0.0,
			"-0.018": 0.0,
			"-0.017": 0.0,
			"-0.016": 0.10235048564,
			"-0.015": 1.06686602808,
			"-0.014": 1.93223997266,
			"-0.013": 2.26708461859,
			"-0.012": 2.31613115797,
			"-0.011": 1.93319489347,
			"-0.01": 2.19774754028,
			"-0.009": 3.30523526156,
			"-0.008": 4.9165139446,
			"-0.007": 10.7215632604,
			"-0.006": 11.5317872191,
			"-0.005": 9.73173702684,
			"-0.004": 9.31158640387,
			"-0.003": 10.7642928323,
			"-0.002": 8.71995322331,
			"-0.001": 10.8499073862,
			"0.0": 14.1147141503,
			"0.001": 19.2357246862,
			"0.002": 21.5072706512,
			"0.003": 24.485501926,
			"0.004": 10.8772052053,
			"0.005": 4.68095474692,
			"0.006": 3.16173680421,
			"0.007": 4.0099442282,
			"0.008": 4.45841511668,
			"0.009": 4.4972859888,
			"0.01": 7.50820312762,
			"0.011": 7.38891766894,
			"0.012": 1.63855425688,
			"0.013": 0.0,
			"0.014": 0.0,
			"0.015": 0.0,
			"0.016": 0.0,
			"0.017": 0.0,
			"0.018": 0.0,
			"0.019": 0.0,
			"0.02": 0.0,
			"0.021": 0.0,
			"0.022": 0.0,
			"0.023": 0.0,
			"0.024": 0.0,
			"0.025": 0.0
		}
	}
}
