{
	 "smiles": "BrCC=CC(=O)OCC(=O)C1=CC=CC=C1", 
	 "Tm": 363.15, 
	 "num_atms": 27, 
	 "gaussian": { 
		 "optdone": 1, 
		 "sigma_profile": "yes", 
		 "theory": "DFT", 
		 "functional": "B3LYP", 
		 "basiset": "6-31G**", 
		 "properties": { 
			 "R2extent": 9602.2156, 
			 "electric_dipole_moment_norm": 2.67090342955, 
			 "electric_quadrupole_moment_norm": 20.6656782995, 
			 "total_energy": -3260.9691842, 
			 "HOMO_LUMO_gap": 0.18712, 
			 "cosmo_polarized_energy": -13.94, 
			 "cosmo_cavitation_energy": 35.53, 
			 "cosmo_dispersion_energy": -25.24, 
			 "cosmo_repulsion_energy": 2.02, 
			 "cosmo_total_nonelectrostatic_energy": 12.31, 
			 "SMD_solvation_energy": 6.46 
		},
		"coords": [
			{
				"x": 3.0574457372,
				"y": 3.5074479661,
				"z": -4.4163396708,
				"element": "Br" 
			},
			{
				"x": 2.720366875,
				"y": 4.0942740252,
				"z": -2.5379849329,
				"element": "C" 
			},
			{
				"x": 1.3758024128,
				"y": 3.6482756275,
				"z": -2.0946813381,
				"element": "C" 
			},
			{
				"x": 1.1727560965,
				"y": 2.7780733091,
				"z": -1.0971878463,
				"element": "C" 
			},
			{
				"x": -0.2036502887,
				"y": 2.4068241542,
				"z": -0.6946816856,
				"element": "C" 
			},
			{
				"x": -1.2301802054,
				"y": 2.8287760122,
				"z": -1.1865257118,
				"element": "O" 
			},
			{
				"x": -0.1736643984,
				"y": 1.5058359228,
				"z": 0.3219924218,
				"element": "O" 
			},
			{
				"x": -1.4599658044,
				"y": 1.092425262,
				"z": 0.8196958064,
				"element": "C" 
			},
			{
				"x": -1.270645133,
				"y": -0.0673369941,
				"z": 1.7993529161,
				"element": "C" 
			},
			{
				"x": -1.7531938907,
				"y": 0.0354837187,
				"z": 2.916744319,
				"element": "O" 
			},
			{
				"x": -0.5599673851,
				"y": -1.3063103377,
				"z": 1.3654923958,
				"element": "C" 
			},
			{
				"x": -0.1397380177,
				"y": -1.525752794,
				"z": 0.0439739164,
				"element": "C" 
			},
			{
				"x": 0.4864626758,
				"y": -2.7221665784,
				"z": -0.3034349059,
				"element": "C" 
			},
			{
				"x": 0.7054217075,
				"y": -3.7045720828,
				"z": 0.6643246888,
				"element": "C" 
			},
			{
				"x": 0.2921173142,
				"y": -3.4927904778,
				"z": 1.9835793499,
				"element": "C" 
			},
			{
				"x": -0.3396582851,
				"y": -2.3034010192,
				"z": 2.330617107,
				"element": "C" 
			},
			{
				"x": 2.8062681461,
				"y": 5.1802306965,
				"z": -2.5798300508,
				"element": "H" 
			},
			{
				"x": 3.5300239595,
				"y": 3.6727124683,
				"z": -1.9444867731,
				"element": "H" 
			},
			{
				"x": 0.512196958,
				"y": 4.0650602561,
				"z": -2.6079239026,
				"element": "H" 
			},
			{
				"x": 1.9914164296,
				"y": 2.3183845004,
				"z": -0.551336039,
				"element": "H" 
			},
			{
				"x": -1.9372718492,
				"y": 1.9145871389,
				"z": 1.3567777427,
				"element": "H" 
			},
			{
				"x": -2.1055661626,
				"y": 0.8044705278,
				"z": -0.0180756054,
				"element": "H" 
			},
			{
				"x": -0.2950950575,
				"y": -0.7668485754,
				"z": -0.714085807,
				"element": "H" 
			},
			{
				"x": 0.8048634597,
				"y": -2.8867265416,
				"z": -1.3284914198,
				"element": "H" 
			},
			{
				"x": 1.1967281301,
				"y": -4.6342688758,
				"z": 0.39154834,
				"element": "H" 
			},
			{
				"x": 0.4614875645,
				"y": -4.2571652011,
				"z": 2.7362439595,
				"element": "H" 
			},
			{
				"x": -0.6778609888,
				"y": -2.1189221079,
				"z": 3.3447227256,
				"element": "H" 
			}
		],
		 "valence_orbital": [ 
			{
				"type": "occ",
				"energy": -0.28271,
				"method": "rhf"
			},
			{
				"type": "occ",
				"energy": -0.27987,
				"method": "rhf"
			},
			{
				"type": "occ",
				"energy": -0.2658,
				"method": "rhf"
			},
			{
				"type": "occ",
				"energy": -0.2643,
				"method": "rhf"
			},
			{
				"type": "occ",
				"energy": -0.26007,
				"method": "rhf"
			},
			{
				"type": "unocc",
				"energy": -0.07295,
				"method": "rhf"
			},
			{
				"type": "unocc",
				"energy": -0.067,
				"method": "rhf"
			},
			{
				"type": "unocc",
				"energy": -0.01381,
				"method": "rhf"
			},
			{
				"type": "unocc",
				"energy": 0.00122,
				"method": "rhf"
			},
			{
				"type": "unocc",
				"energy": 0.02582,
				"method": "rhf"
			}
		],
		"cosmo_sigma_profile": { 
			"-0.025": 0.0,
			"-0.024": 0.0,
			"-0.023": 0.0,
			"-0.022": 0.0,
			"-0.021": 0.0,
			"-0.02": 0.0,
			"-0.019": 0.0,
			"-0.018": 0.0,
			"-0.017": 0.0,
			"-0.016": 0.0,
			"-0.015": 0.0,
			"-0.014": 0.0,
			"-0.013": 0.0,
			"-0.012": 0.0,
			"-0.011": 0.0,
			"-0.01": 0.0,
			"-0.009": 2.7534349588,
			"-0.008": 10.4801812181,
			"-0.007": 14.6984730817,
			"-0.006": 19.1390873668,
			"-0.005": 20.8852932624,
			"-0.004": 18.5138165033,
			"-0.003": 16.9928467445,
			"-0.002": 15.9368678951,
			"-0.001": 18.3033296311,
			"0.0": 17.742057904,
			"0.001": 18.903935879,
			"0.002": 18.4755071682,
			"0.003": 21.5066208055,
			"0.004": 21.6566652812,
			"0.005": 13.1757370085,
			"0.006": 11.7032771043,
			"0.007": 3.11195056985,
			"0.008": 3.55987588009,
			"0.009": 2.98403500794,
			"0.01": 5.11414006768,
			"0.011": 8.07501321855,
			"0.012": 3.63374920307,
			"0.013": 0.0789749123023,
			"0.014": 0.0,
			"0.015": 0.0,
			"0.016": 0.0,
			"0.017": 0.0,
			"0.018": 0.0,
			"0.019": 0.0,
			"0.02": 0.0,
			"0.021": 0.0,
			"0.022": 0.0,
			"0.023": 0.0,
			"0.024": 0.0,
			"0.025": 0.0
		}
	}
}
