{
	 "smiles": "CC1=C(C=C(C=C1)S(N)(=O)=O)C(O)=O", 
	 "Tm": 455.15, 
	 "num_atms": 23, 
	 "gaussian": { 
		 "optdone": 1, 
		 "sigma_profile": "yes", 
		 "theory": "DFT", 
		 "functional": "B3LYP", 
		 "basiset": "6-31G**", 
		 "properties": { 
			 "R2extent": 3726.6841, 
			 "electric_dipole_moment_norm": 5.06527458683, 
			 "electric_quadrupole_moment_norm": 30.9899956855, 
			 "total_energy": -1064.05069465, 
			 "HOMO_LUMO_gap": 0.2097, 
			 "cosmo_polarized_energy": -24.21, 
			 "cosmo_cavitation_energy": 28.85, 
			 "cosmo_dispersion_energy": -21.57, 
			 "cosmo_repulsion_energy": 1.65, 
			 "cosmo_total_nonelectrostatic_energy": 8.94, 
			 "SMD_solvation_energy": 5.64 
		},
		"coords": [
			{
				"x": 0.5557174511,
				"y": 1.0444467991,
				"z": 3.442978158,
				"element": "C" 
			},
			{
				"x": 0.294212833,
				"y": 0.3992588498,
				"z": 2.0968054474,
				"element": "C" 
			},
			{
				"x": 1.2165897017,
				"y": -0.4474964044,
				"z": 1.4411600803,
				"element": "C" 
			},
			{
				"x": 0.9193347795,
				"y": -0.9618330277,
				"z": 0.1710406432,
				"element": "C" 
			},
			{
				"x": -0.2986083245,
				"y": -0.672119501,
				"z": -0.4295335965,
				"element": "C" 
			},
			{
				"x": -1.2355887419,
				"y": 0.1417355326,
				"z": 0.2080905623,
				"element": "C" 
			},
			{
				"x": -0.9225173439,
				"y": 0.6754431465,
				"z": 1.4535882615,
				"element": "C" 
			},
			{
				"x": -0.6777931278,
				"y": -1.3566088265,
				"z": -2.0439744288,
				"element": "S" 
			},
			{
				"x": -0.0915740021,
				"y": -0.1780186694,
				"z": -3.1089842757,
				"element": "N" 
			},
			{
				"x": -2.1356748236,
				"y": -1.3545894109,
				"z": -2.1946492778,
				"element": "O" 
			},
			{
				"x": 0.1286770206,
				"y": -2.5685835167,
				"z": -2.2068204593,
				"element": "O" 
			},
			{
				"x": 2.5741573779,
				"y": -0.8284782884,
				"z": 1.9734665284,
				"element": "C" 
			},
			{
				"x": 2.7002872631,
				"y": -0.9937306578,
				"z": 3.3164742332,
				"element": "O" 
			},
			{
				"x": 3.5283663764,
				"y": -1.0060129492,
				"z": 1.2555740342,
				"element": "O" 
			},
			{
				"x": 0.2715260035,
				"y": 0.3855773938,
				"z": 4.2763260854,
				"element": "H" 
			},
			{
				"x": -0.0503367221,
				"y": 1.947132329,
				"z": 3.5514150202,
				"element": "H" 
			},
			{
				"x": 1.603055849,
				"y": 1.322074887,
				"z": 3.5800671965,
				"element": "H" 
			},
			{
				"x": 1.6467382564,
				"y": -1.5948216506,
				"z": -0.3240532624,
				"element": "H" 
			},
			{
				"x": -2.1896065078,
				"y": 0.3452045633,
				"z": -0.2656316131,
				"element": "H" 
			},
			{
				"x": -1.6379352165,
				"y": 1.3291460159,
				"z": 1.9446691212,
				"element": "H" 
			},
			{
				"x": -0.8260766752,
				"y": 0.0611174691,
				"z": -3.7701438457,
				"element": "H" 
			},
			{
				"x": 0.7404892904,
				"y": -0.5193221751,
				"z": -3.5834911513,
				"element": "H" 
			},
			{
				"x": 1.8349592831,
				"y": -0.9596219083,
				"z": 3.7457265388,
				"element": "H" 
			}
		],
		 "valence_orbital": [ 
			{
				"type": "occ",
				"energy": -0.31189,
				"method": "rhf"
			},
			{
				"type": "occ",
				"energy": -0.30647,
				"method": "rhf"
			},
			{
				"type": "occ",
				"energy": -0.2919,
				"method": "rhf"
			},
			{
				"type": "occ",
				"energy": -0.27443,
				"method": "rhf"
			},
			{
				"type": "occ",
				"energy": -0.27355,
				"method": "rhf"
			},
			{
				"type": "unocc",
				"energy": -0.06385,
				"method": "rhf"
			},
			{
				"type": "unocc",
				"energy": -0.04463,
				"method": "rhf"
			},
			{
				"type": "unocc",
				"energy": 0.02031,
				"method": "rhf"
			},
			{
				"type": "unocc",
				"energy": 0.04989,
				"method": "rhf"
			},
			{
				"type": "unocc",
				"energy": 0.05038,
				"method": "rhf"
			}
		],
		"cosmo_sigma_profile": { 
			"-0.025": 0.0,
			"-0.024": 0.0,
			"-0.023": 0.0,
			"-0.022": 0.0,
			"-0.021": 0.0,
			"-0.02": 0.0,
			"-0.019": 0.0,
			"-0.018": 0.677746647784,
			"-0.017": 1.12463575344,
			"-0.016": 0.780205876703,
			"-0.015": 2.69153801412,
			"-0.014": 3.13809585051,
			"-0.013": 3.08695365683,
			"-0.012": 3.95995742064,
			"-0.011": 3.3007531995,
			"-0.01": 2.54387826608,
			"-0.009": 2.37413340034,
			"-0.008": 4.6899984391,
			"-0.007": 10.0040693407,
			"-0.006": 11.7872403295,
			"-0.005": 13.1481909993,
			"-0.004": 12.7108587268,
			"-0.003": 13.6754169992,
			"-0.002": 14.2062763833,
			"-0.001": 11.7718158337,
			"0.0": 11.0847288897,
			"0.001": 15.9327632921,
			"0.002": 10.2727781801,
			"0.003": 6.74728682359,
			"0.004": 4.96450454859,
			"0.005": 3.62192352294,
			"0.006": 5.78071919082,
			"0.007": 7.83151746733,
			"0.008": 5.44877308972,
			"0.009": 7.98267264465,
			"0.01": 13.5711379395,
			"0.011": 14.531562751,
			"0.012": 5.71887834527,
			"0.013": 0.575249477238,
			"0.014": 0.0,
			"0.015": 0.0,
			"0.016": 0.0,
			"0.017": 0.0,
			"0.018": 0.0,
			"0.019": 0.0,
			"0.02": 0.0,
			"0.021": 0.0,
			"0.022": 0.0,
			"0.023": 0.0,
			"0.024": 0.0,
			"0.025": 0.0
		}
	}
}
