{
	 "smiles": "OC(=O)CCCCCCCCCCBr", 
	 "Tm": 330.15, 
	 "num_atms": 35, 
	 "gaussian": { 
		 "optdone": 1, 
		 "sigma_profile": "yes", 
		 "theory": "DFT", 
		 "functional": "B3LYP", 
		 "basiset": "6-31G**", 
		 "properties": { 
			 "R2extent": 7819.9095, 
			 "electric_dipole_moment_norm": 6.51618564116, 
			 "electric_quadrupole_moment_norm": 27.1949919436, 
			 "total_energy": -3153.70963215, 
			 "HOMO_LUMO_gap": 0.26706, 
			 "cosmo_polarized_energy": -17.05, 
			 "cosmo_cavitation_energy": 38.77, 
			 "cosmo_dispersion_energy": -26.11, 
			 "cosmo_repulsion_energy": 2.15, 
			 "cosmo_total_nonelectrostatic_energy": 14.82, 
			 "SMD_solvation_energy": 5.25 
		},
		"coords": [
			{
				"x": -1.6392915671,
				"y": 2.2256950227,
				"z": -4.3826656037,
				"element": "O" 
			},
			{
				"x": -0.80845613,
				"y": 1.1504760481,
				"z": -4.2581578622,
				"element": "C" 
			},
			{
				"x": -0.5054971733,
				"y": 0.5123274346,
				"z": -5.2338795566,
				"element": "O" 
			},
			{
				"x": -0.3250277941,
				"y": 0.852632223,
				"z": -2.8443596479,
				"element": "C" 
			},
			{
				"x": 0.4776912005,
				"y": 2.0112305127,
				"z": -2.2138998826,
				"element": "C" 
			},
			{
				"x": 1.0709771498,
				"y": 1.710983012,
				"z": -0.8207365927,
				"element": "C" 
			},
			{
				"x": 0.1689006885,
				"y": 2.0234570717,
				"z": 0.3898309498,
				"element": "C" 
			},
			{
				"x": -1.0965083641,
				"y": 1.1698486214,
				"z": 0.5858783674,
				"element": "C" 
			},
			{
				"x": -0.8335437236,
				"y": -0.319194878,
				"z": 0.8530045519,
				"element": "C" 
			},
			{
				"x": -2.1241167777,
				"y": -1.1162171137,
				"z": 1.0917507618,
				"element": "C" 
			},
			{
				"x": -1.944827954,
				"y": -2.5812099312,
				"z": 1.5271526869,
				"element": "C" 
			},
			{
				"x": -1.2355987503,
				"y": -3.5081261204,
				"z": 0.5093275647,
				"element": "C" 
			},
			{
				"x": 0.2698548322,
				"y": -3.5889745133,
				"z": 0.7302073515,
				"element": "C" 
			},
			{
				"x": 1.1395964285,
				"y": -4.781515355,
				"z": -0.5954868531,
				"element": "Br" 
			},
			{
				"x": -1.7946052459,
				"y": 2.630133786,
				"z": -3.517692929,
				"element": "H" 
			},
			{
				"x": -1.1966675815,
				"y": 0.6019617916,
				"z": -2.2274097837,
				"element": "H" 
			},
			{
				"x": 0.2973686784,
				"y": -0.0425763816,
				"z": -2.9105866949,
				"element": "H" 
			},
			{
				"x": -0.1396255149,
				"y": 2.919271985,
				"z": -2.1481781443,
				"element": "H" 
			},
			{
				"x": 1.2951272171,
				"y": 2.2580068663,
				"z": -2.9013513601,
				"element": "H" 
			},
			{
				"x": 1.9768601895,
				"y": 2.3183779929,
				"z": -0.7070133801,
				"element": "H" 
			},
			{
				"x": 1.4126485292,
				"y": 0.6685216014,
				"z": -0.7879187664,
				"element": "H" 
			},
			{
				"x": -0.1278592208,
				"y": 3.0797691046,
				"z": 0.3319148494,
				"element": "H" 
			},
			{
				"x": 0.7823280243,
				"y": 1.9373663624,
				"z": 1.2970370286,
				"element": "H" 
			},
			{
				"x": -1.7665995325,
				"y": 1.2749059393,
				"z": -0.2781414273,
				"element": "H" 
			},
			{
				"x": -1.6550196042,
				"y": 1.5826281082,
				"z": 1.436833088,
				"element": "H" 
			},
			{
				"x": -0.2840686737,
				"y": -0.7530016021,
				"z": 0.0083359694,
				"element": "H" 
			},
			{
				"x": -0.1761342176,
				"y": -0.412214894,
				"z": 1.729789678,
				"element": "H" 
			},
			{
				"x": -2.7345682499,
				"y": -1.0908574429,
				"z": 0.1778307368,
				"element": "H" 
			},
			{
				"x": -2.7159679629,
				"y": -0.6030045873,
				"z": 1.8619230488,
				"element": "H" 
			},
			{
				"x": -1.4147736142,
				"y": -2.6155436665,
				"z": 2.4896493364,
				"element": "H" 
			},
			{
				"x": -2.9411699559,
				"y": -2.9932091138,
				"z": 1.7257089471,
				"element": "H" 
			},
			{
				"x": -1.4405520932,
				"y": -3.1725434765,
				"z": -0.5139289603,
				"element": "H" 
			},
			{
				"x": -1.6433522959,
				"y": -4.5211379765,
				"z": 0.5874297708,
				"element": "H" 
			},
			{
				"x": 0.5167427628,
				"y": -4.0161466801,
				"z": 1.7027035185,
				"element": "H" 
			},
			{
				"x": 0.7746362965,
				"y": -2.6308197512,
				"z": 0.6207992392,
				"element": "H" 
			}
		],
		 "valence_orbital": [ 
			{
				"type": "occ",
				"energy": -0.31782,
				"method": "rhf"
			},
			{
				"type": "occ",
				"energy": -0.31171,
				"method": "rhf"
			},
			{
				"type": "occ",
				"energy": -0.27001,
				"method": "rhf"
			},
			{
				"type": "occ",
				"energy": -0.26956,
				"method": "rhf"
			},
			{
				"type": "occ",
				"energy": -0.26449,
				"method": "rhf"
			},
			{
				"type": "unocc",
				"energy": 0.00257,
				"method": "rhf"
			},
			{
				"type": "unocc",
				"energy": 0.00936,
				"method": "rhf"
			},
			{
				"type": "unocc",
				"energy": 0.04095,
				"method": "rhf"
			},
			{
				"type": "unocc",
				"energy": 0.06721,
				"method": "rhf"
			},
			{
				"type": "unocc",
				"energy": 0.08292,
				"method": "rhf"
			}
		],
		"cosmo_sigma_profile": { 
			"-0.025": 0.0,
			"-0.024": 0.0,
			"-0.023": 0.0,
			"-0.022": 0.0,
			"-0.021": 0.0,
			"-0.02": 0.0,
			"-0.019": 0.0,
			"-0.018": 0.34614516269,
			"-0.017": 0.944453928494,
			"-0.016": 0.811400597909,
			"-0.015": 1.18027208414,
			"-0.014": 1.05280059737,
			"-0.013": 0.975166287471,
			"-0.012": 0.979707119561,
			"-0.011": 1.73770192275,
			"-0.01": 0.649104852299,
			"-0.009": 1.09974848501,
			"-0.008": 1.17077322846,
			"-0.007": 2.54136716405,
			"-0.006": 5.57680085554,
			"-0.005": 7.94384940259,
			"-0.004": 17.0807501262,
			"-0.003": 32.7199969842,
			"-0.002": 50.3287501778,
			"-0.001": 43.0820868205,
			"0.0": 35.946808697,
			"0.001": 21.5701791324,
			"0.002": 7.73969629076,
			"0.003": 5.80675041055,
			"0.004": 6.87851880992,
			"0.005": 7.16804252146,
			"0.006": 13.0379138032,
			"0.007": 8.98765817917,
			"0.008": 2.61774899682,
			"0.009": 3.43894868218,
			"0.01": 3.98823960169,
			"0.011": 5.66358674641,
			"0.012": 6.18814162156,
			"0.013": 3.50807961844,
			"0.014": 0.23898701932,
			"0.015": 0.0,
			"0.016": 0.0,
			"0.017": 0.0,
			"0.018": 0.0,
			"0.019": 0.0,
			"0.02": 0.0,
			"0.021": 0.0,
			"0.022": 0.0,
			"0.023": 0.0,
			"0.024": 0.0,
			"0.025": 0.0
		}
	}
}
