{
	 "smiles": "CC(C)(C)OC(=O)NC(CC1=CC=CC=C1)C(=O)NN", 
	 "Tm": 407.15, 
	 "num_atms": 41, 
	 "gaussian": { 
		 "optdone": 1, 
		 "sigma_profile": "yes", 
		 "theory": "DFT", 
		 "functional": "B3LYP", 
		 "basiset": "6-31G**", 
		 "properties": { 
			 "R2extent": 6982.1217, 
			 "electric_dipole_moment_norm": 3.16423849449, 
			 "electric_quadrupole_moment_norm": 8.78791609484, 
			 "total_energy": -936.097098372, 
			 "HOMO_LUMO_gap": 0.23534, 
			 "cosmo_polarized_energy": -16.1, 
			 "cosmo_cavitation_energy": 43.04, 
			 "cosmo_dispersion_energy": -28.51, 
			 "cosmo_repulsion_energy": 2.22, 
			 "cosmo_total_nonelectrostatic_energy": 16.75, 
			 "SMD_solvation_energy": 8.67 
		},
		"coords": [
			{
				"x": -1.0818875423,
				"y": 3.7749453651,
				"z": 0.705197074,
				"element": "C" 
			},
			{
				"x": -0.9360114703,
				"y": 2.5102717713,
				"z": 1.557829034,
				"element": "C" 
			},
			{
				"x": -2.2600154675,
				"y": 1.7540476505,
				"z": 1.7078781098,
				"element": "C" 
			},
			{
				"x": -0.3414517196,
				"y": 2.8429382918,
				"z": 2.9286640933,
				"element": "C" 
			},
			{
				"x": 0.08800129,
				"y": 1.6263733906,
				"z": 0.9735797771,
				"element": "O" 
			},
			{
				"x": -0.0698453269,
				"y": 1.0917426087,
				"z": -0.2600155924,
				"element": "C" 
			},
			{
				"x": -1.0168019332,
				"y": 1.2708722462,
				"z": -1.0106800941,
				"element": "O" 
			},
			{
				"x": 1.005635453,
				"y": 0.2824222493,
				"z": -0.5348738522,
				"element": "N" 
			},
			{
				"x": 1.3058287532,
				"y": -0.1829479562,
				"z": -1.8892436016,
				"element": "C" 
			},
			{
				"x": 0.2022378248,
				"y": -1.0969522586,
				"z": -2.503474754,
				"element": "C" 
			},
			{
				"x": -0.1108894356,
				"y": -2.3502030586,
				"z": -1.7167312991,
				"element": "C" 
			},
			{
				"x": -1.0872492391,
				"y": -2.3349090723,
				"z": -0.7095093493,
				"element": "C" 
			},
			{
				"x": -1.3737361061,
				"y": -3.4863952628,
				"z": 0.025193164,
				"element": "C" 
			},
			{
				"x": -0.6888079831,
				"y": -4.6750384132,
				"z": -0.235836257,
				"element": "C" 
			},
			{
				"x": 0.2810969847,
				"y": -4.7056449863,
				"z": -1.2395219834,
				"element": "C" 
			},
			{
				"x": 0.5650582579,
				"y": -3.5525067958,
				"z": -1.9733007241,
				"element": "C" 
			},
			{
				"x": 2.6536443278,
				"y": -0.9090571492,
				"z": -1.914787909,
				"element": "C" 
			},
			{
				"x": 3.3248869416,
				"y": -0.9716838118,
				"z": -2.9366885679,
				"element": "O" 
			},
			{
				"x": 3.0496433585,
				"y": -1.4993039348,
				"z": -0.7373922229,
				"element": "N" 
			},
			{
				"x": 4.171418214,
				"y": -2.3646067458,
				"z": -0.7469714063,
				"element": "N" 
			},
			{
				"x": -1.4828059942,
				"y": 3.5387235432,
				"z": -0.2808046386,
				"element": "H" 
			},
			{
				"x": -0.1115089456,
				"y": 4.2673214999,
				"z": 0.5862009758,
				"element": "H" 
			},
			{
				"x": -1.7591724238,
				"y": 4.4766566445,
				"z": 1.2026772146,
				"element": "H" 
			},
			{
				"x": -2.9753972618,
				"y": 2.3736777823,
				"z": 2.2582360226,
				"element": "H" 
			},
			{
				"x": -2.1072456792,
				"y": 0.829311302,
				"z": 2.273383256,
				"element": "H" 
			},
			{
				"x": -2.6844222952,
				"y": 1.50923715,
				"z": 0.7339168808,
				"element": "H" 
			},
			{
				"x": 0.626985619,
				"y": 3.3397529758,
				"z": 2.8196032717,
				"element": "H" 
			},
			{
				"x": -0.1981740258,
				"y": 1.9333816463,
				"z": 3.5191967578,
				"element": "H" 
			},
			{
				"x": -1.0130666339,
				"y": 3.5100997237,
				"z": 3.4769009861,
				"element": "H" 
			},
			{
				"x": 1.7941136048,
				"y": 0.4086150201,
				"z": 0.085180481,
				"element": "H" 
			},
			{
				"x": 1.4227942544,
				"y": 0.6667073424,
				"z": -2.5734823347,
				"element": "H" 
			},
			{
				"x": -0.6930657634,
				"y": -0.4822983437,
				"z": -2.6086820165,
				"element": "H" 
			},
			{
				"x": 0.5547287382,
				"y": -1.3555139542,
				"z": -3.5073385367,
				"element": "H" 
			},
			{
				"x": -1.6308728648,
				"y": -1.4145868469,
				"z": -0.5156517543,
				"element": "H" 
			},
			{
				"x": -2.1368934938,
				"y": -3.4568106628,
				"z": 0.798127964,
				"element": "H" 
			},
			{
				"x": -0.9139649023,
				"y": -5.5723108875,
				"z": 0.3335968924,
				"element": "H" 
			},
			{
				"x": 0.8134359268,
				"y": -5.6276530217,
				"z": -1.4557063967,
				"element": "H" 
			},
			{
				"x": 1.314506531,
				"y": -3.5852177412,
				"z": -2.7607997932,
				"element": "H" 
			},
			{
				"x": 2.3176898613,
				"y": -1.7957364478,
				"z": -0.1018221156,
				"element": "H" 
			},
			{
				"x": 4.9896958,
				"y": -1.796824811,
				"z": -0.5307852518,
				"element": "H" 
			},
			{
				"x": 4.2944847664,
				"y": -2.6588960414,
				"z": -1.717761504,
				"element": "H" 
			}
		],
		 "valence_orbital": [ 
			{
				"type": "occ",
				"energy": -0.2655,
				"method": "rhf"
			},
			{
				"type": "occ",
				"energy": -0.26317,
				"method": "rhf"
			},
			{
				"type": "occ",
				"energy": -0.25775,
				"method": "rhf"
			},
			{
				"type": "occ",
				"energy": -0.24691,
				"method": "rhf"
			},
			{
				"type": "occ",
				"energy": -0.24068,
				"method": "rhf"
			},
			{
				"type": "unocc",
				"energy": -0.00534,
				"method": "rhf"
			},
			{
				"type": "unocc",
				"energy": -0.00044,
				"method": "rhf"
			},
			{
				"type": "unocc",
				"energy": 0.01246,
				"method": "rhf"
			},
			{
				"type": "unocc",
				"energy": 0.04028,
				"method": "rhf"
			},
			{
				"type": "unocc",
				"energy": 0.07649,
				"method": "rhf"
			}
		],
		"cosmo_sigma_profile": { 
			"-0.025": 0.0,
			"-0.024": 0.0,
			"-0.023": 0.0,
			"-0.022": 0.0,
			"-0.021": 0.0,
			"-0.02": 0.0,
			"-0.019": 0.0,
			"-0.018": 0.0,
			"-0.017": 0.0,
			"-0.016": 0.0,
			"-0.015": 0.0,
			"-0.014": 0.0,
			"-0.013": 0.202674741522,
			"-0.012": 1.70744967455,
			"-0.011": 3.46987111548,
			"-0.01": 4.12910432568,
			"-0.009": 3.96850136685,
			"-0.008": 3.63363017581,
			"-0.007": 3.26583895861,
			"-0.006": 7.186550531,
			"-0.005": 16.0951435097,
			"-0.004": 29.5481194124,
			"-0.003": 36.2871354405,
			"-0.002": 29.6048134283,
			"-0.001": 33.0844353368,
			"0.0": 36.6903026706,
			"0.001": 27.6440791478,
			"0.002": 15.9795423781,
			"0.003": 14.3820489309,
			"0.004": 14.3108288329,
			"0.005": 12.8282495043,
			"0.006": 10.6307458701,
			"0.007": 5.0054278806,
			"0.008": 3.48912294391,
			"0.009": 3.02248004494,
			"0.01": 3.04170452753,
			"0.011": 3.32916135534,
			"0.012": 6.00060169145,
			"0.013": 5.53734411582,
			"0.014": 1.50622107378,
			"0.015": 0.382990712619,
			"0.016": 0.824056494588,
			"0.017": 0.086588363456,
			"0.018": 0.0,
			"0.019": 0.0,
			"0.02": 0.0,
			"0.021": 0.0,
			"0.022": 0.0,
			"0.023": 0.0,
			"0.024": 0.0,
			"0.025": 0.0
		}
	}
}
