{
	 "smiles": "OC(=O)C1=CC=C(S1)C1=CC(Cl)=CC=C1", 
	 "Tm": 496.15, 
	 "num_atms": 22, 
	 "gaussian": { 
		 "optdone": 1, 
		 "sigma_profile": "yes", 
		 "theory": "DFT", 
		 "functional": "B3LYP", 
		 "basiset": "6-31G**", 
		 "properties": { 
			 "R2extent": 5613.5102, 
			 "electric_dipole_moment_norm": 4.66813358099, 
			 "electric_quadrupole_moment_norm": 26.2298080237, 
			 "total_energy": -1432.21668434, 
			 "HOMO_LUMO_gap": 0.16014, 
			 "cosmo_polarized_energy": -14.52, 
			 "cosmo_cavitation_energy": 30.69, 
			 "cosmo_dispersion_energy": -23.06, 
			 "cosmo_repulsion_energy": 1.75, 
			 "cosmo_total_nonelectrostatic_energy": 9.37, 
			 "SMD_solvation_energy": 5.77 
		},
		"coords": [
			{
				"x": 2.3509306439,
				"y": -3.3078760044,
				"z": 2.9336310154,
				"element": "O" 
			},
			{
				"x": 1.5016204106,
				"y": -2.405184395,
				"z": 3.4934771788,
				"element": "C" 
			},
			{
				"x": 1.2077455147,
				"y": -2.49278328,
				"z": 4.6630338463,
				"element": "O" 
			},
			{
				"x": 0.9689200582,
				"y": -1.3317438494,
				"z": 2.6234412325,
				"element": "C" 
			},
			{
				"x": -0.0253900923,
				"y": -0.4558394742,
				"z": 2.9912728945,
				"element": "C" 
			},
			{
				"x": -0.3609880211,
				"y": 0.4706288628,
				"z": 1.9749188139,
				"element": "C" 
			},
			{
				"x": 0.3760345834,
				"y": 0.3180161021,
				"z": 0.8173289967,
				"element": "C" 
			},
			{
				"x": 1.5222900324,
				"y": -0.9901184279,
				"z": 1.0000859051,
				"element": "S" 
			},
			{
				"x": 0.299933468,
				"y": 1.1026939445,
				"z": -0.4213406481,
				"element": "C" 
			},
			{
				"x": 0.6416809536,
				"y": 0.5358483074,
				"z": -1.6615073725,
				"element": "C" 
			},
			{
				"x": 0.5551655579,
				"y": 1.3019697174,
				"z": -2.8201616565,
				"element": "C" 
			},
			{
				"x": 0.9853723092,
				"y": 0.572730332,
				"z": -4.3591531095,
				"element": "Cl" 
			},
			{
				"x": 0.1249395163,
				"y": 2.6280476822,
				"z": -2.7877177436,
				"element": "C" 
			},
			{
				"x": -0.2162775937,
				"y": 3.1883851582,
				"z": -1.5555518276,
				"element": "C" 
			},
			{
				"x": -0.1260858396,
				"y": 2.4428912527,
				"z": -0.383296221,
				"element": "C" 
			},
			{
				"x": 2.4070424766,
				"y": -3.2000542156,
				"z": 1.9733122507,
				"element": "H" 
			},
			{
				"x": -0.4944911278,
				"y": -0.50815248,
				"z": 3.9661452063,
				"element": "H" 
			},
			{
				"x": -1.1438322266,
				"y": 1.2132729116,
				"z": 2.0747874972,
				"element": "H" 
			},
			{
				"x": 0.9516997031,
				"y": -0.5012186155,
				"z": -1.7281399924,
				"element": "H" 
			},
			{
				"x": 0.0626435059,
				"y": 3.2045169551,
				"z": -3.703596866,
				"element": "H" 
			},
			{
				"x": -0.5439264731,
				"y": 4.2225991364,
				"z": -1.5120493026,
				"element": "H" 
			},
			{
				"x": -0.3632273597,
				"y": 2.9037703798,
				"z": 0.5695799024,
				"element": "H" 
			}
		],
		 "valence_orbital": [ 
			{
				"type": "occ",
				"energy": -0.2971,
				"method": "rhf"
			},
			{
				"type": "occ",
				"energy": -0.27978,
				"method": "rhf"
			},
			{
				"type": "occ",
				"energy": -0.27885,
				"method": "rhf"
			},
			{
				"type": "occ",
				"energy": -0.26554,
				"method": "rhf"
			},
			{
				"type": "occ",
				"energy": -0.23974,
				"method": "rhf"
			},
			{
				"type": "unocc",
				"energy": -0.0796,
				"method": "rhf"
			},
			{
				"type": "unocc",
				"energy": -0.03203,
				"method": "rhf"
			},
			{
				"type": "unocc",
				"energy": -0.02482,
				"method": "rhf"
			},
			{
				"type": "unocc",
				"energy": -0.00684,
				"method": "rhf"
			},
			{
				"type": "unocc",
				"energy": 0.01854,
				"method": "rhf"
			}
		],
		"cosmo_sigma_profile": { 
			"-0.025": 0.0,
			"-0.024": 0.0,
			"-0.023": 0.0,
			"-0.022": 0.0,
			"-0.021": 0.0,
			"-0.02": 0.0,
			"-0.019": 0.0,
			"-0.018": 0.539946254119,
			"-0.017": 0.761725995416,
			"-0.016": 1.01092441877,
			"-0.015": 1.25593939823,
			"-0.014": 0.501077581047,
			"-0.013": 0.919383059691,
			"-0.012": 1.34182254505,
			"-0.011": 0.70192880108,
			"-0.01": 0.968892479178,
			"-0.009": 0.954969576029,
			"-0.008": 4.91622493252,
			"-0.007": 11.7716723013,
			"-0.006": 13.0619688254,
			"-0.005": 13.3431933549,
			"-0.004": 10.8948717914,
			"-0.003": 11.830175963,
			"-0.002": 12.6922988332,
			"-0.001": 16.7779923573,
			"0.0": 19.9801280555,
			"0.001": 29.4888055208,
			"0.002": 31.1298774257,
			"0.003": 20.4605664701,
			"0.004": 12.66825907,
			"0.005": 6.37802081137,
			"0.006": 2.15232731902,
			"0.007": 2.83574011055,
			"0.008": 3.14029470136,
			"0.009": 2.75311633149,
			"0.01": 5.19064587469,
			"0.011": 5.39516968417,
			"0.012": 4.54258663628,
			"0.013": 1.26340471479,
			"0.014": 0.0111569203819,
			"0.015": 0.0,
			"0.016": 0.0,
			"0.017": 0.0,
			"0.018": 0.0,
			"0.019": 0.0,
			"0.02": 0.0,
			"0.021": 0.0,
			"0.022": 0.0,
			"0.023": 0.0,
			"0.024": 0.0,
			"0.025": 0.0
		}
	}
}
