{
	 "smiles": "CCCCCCCOC1=CC=C(N)C=C1", 
	 "Tm": 318.15, 
	 "num_atms": 36, 
	 "gaussian": { 
		 "optdone": 1, 
		 "sigma_profile": "yes", 
		 "theory": "DFT", 
		 "functional": "B3LYP", 
		 "basiset": "6-31G**", 
		 "properties": { 
			 "R2extent": 7088.5988, 
			 "electric_dipole_moment_norm": 2.58616609095, 
			 "electric_quadrupole_moment_norm": 14.3487528124, 
			 "total_energy": -638.025631041, 
			 "HOMO_LUMO_gap": 0.19751, 
			 "cosmo_polarized_energy": -9.91, 
			 "cosmo_cavitation_energy": 38.07, 
			 "cosmo_dispersion_energy": -26.81, 
			 "cosmo_repulsion_energy": 2.17, 
			 "cosmo_total_nonelectrostatic_energy": 13.44, 
			 "SMD_solvation_energy": 5.83 
		},
		"coords": [
			{
				"x": -1.8352608033,
				"y": 0.5464555907,
				"z": -4.7435010873,
				"element": "C" 
			},
			{
				"x": -2.5370417903,
				"y": 0.1946552568,
				"z": -3.4264371818,
				"element": "C" 
			},
			{
				"x": -2.4124237004,
				"y": -1.2836719521,
				"z": -3.0164189952,
				"element": "C" 
			},
			{
				"x": -0.9852139827,
				"y": -1.7872785246,
				"z": -2.7379821519,
				"element": "C" 
			},
			{
				"x": -0.2902511805,
				"y": -1.1092087067,
				"z": -1.5496725144,
				"element": "C" 
			},
			{
				"x": 1.0922274334,
				"y": -1.7017596098,
				"z": -1.2483202699,
				"element": "C" 
			},
			{
				"x": 1.7881730982,
				"y": -1.0573834935,
				"z": -0.0571855688,
				"element": "C" 
			},
			{
				"x": 1.0063534648,
				"y": -1.3102105069,
				"z": 1.1162589997,
				"element": "O" 
			},
			{
				"x": 1.4944105157,
				"y": -0.7362619603,
				"z": 2.2762057966,
				"element": "C" 
			},
			{
				"x": 2.254855409,
				"y": -1.4993686938,
				"z": 3.1645378634,
				"element": "C" 
			},
			{
				"x": 2.7122508748,
				"y": -0.9446414799,
				"z": 4.3579634869,
				"element": "C" 
			},
			{
				"x": 2.4239358101,
				"y": 0.3907212335,
				"z": 4.6860759133,
				"element": "C" 
			},
			{
				"x": 2.8325380047,
				"y": 0.9322991198,
				"z": 5.9120706235,
				"element": "N" 
			},
			{
				"x": 1.6579062065,
				"y": 1.1498529189,
				"z": 3.7848583772,
				"element": "C" 
			},
			{
				"x": 1.1985691814,
				"y": 0.5916615889,
				"z": 2.5942786319,
				"element": "C" 
			},
			{
				"x": -0.7515722904,
				"y": 0.4012881864,
				"z": -4.6814874095,
				"element": "H" 
			},
			{
				"x": -2.0095360137,
				"y": 1.5926318431,
				"z": -5.01632244,
				"element": "H" 
			},
			{
				"x": -2.2043164868,
				"y": -0.0771059616,
				"z": -5.5664091582,
				"element": "H" 
			},
			{
				"x": -2.1526850882,
				"y": 0.8376553687,
				"z": -2.6244147424,
				"element": "H" 
			},
			{
				"x": -3.6038148134,
				"y": 0.4370316385,
				"z": -3.5158739347,
				"element": "H" 
			},
			{
				"x": -2.8550743019,
				"y": -1.9042864646,
				"z": -3.8078681424,
				"element": "H" 
			},
			{
				"x": -3.0247229319,
				"y": -1.4530705587,
				"z": -2.1202035281,
				"element": "H" 
			},
			{
				"x": -1.0332074688,
				"y": -2.8680379334,
				"z": -2.5470752893,
				"element": "H" 
			},
			{
				"x": -0.3656335068,
				"y": -1.6727145641,
				"z": -3.6380518682,
				"element": "H" 
			},
			{
				"x": -0.1798413076,
				"y": -0.0330677235,
				"z": -1.7417199681,
				"element": "H" 
			},
			{
				"x": -0.916251219,
				"y": -1.1996364173,
				"z": -0.6539721322,
				"element": "H" 
			},
			{
				"x": 1.0021302598,
				"y": -2.7788714568,
				"z": -1.0572968027,
				"element": "H" 
			},
			{
				"x": 1.7475521312,
				"y": -1.5912082975,
				"z": -2.1231261343,
				"element": "H" 
			},
			{
				"x": 2.7988352937,
				"y": -1.4721606808,
				"z": 0.0752953348,
				"element": "H" 
			},
			{
				"x": 1.8943104294,
				"y": 0.028052898,
				"z": -0.209230398,
				"element": "H" 
			},
			{
				"x": 2.4736452167,
				"y": -2.5335743107,
				"z": 2.9164552326,
				"element": "H" 
			},
			{
				"x": 3.293332937,
				"y": -1.5520170194,
				"z": 5.0479062098,
				"element": "H" 
			},
			{
				"x": 2.9213039874,
				"y": 1.9395681484,
				"z": 5.9181086277,
				"element": "H" 
			},
			{
				"x": 3.6479737769,
				"y": 0.4909977537,
				"z": 6.3156195223,
				"element": "H" 
			},
			{
				"x": 1.4123861388,
				"y": 2.1810438539,
				"z": 4.0276944236,
				"element": "H" 
			},
			{
				"x": 0.5956567162,
				"y": 1.1796209168,
				"z": 1.9085406741,
				"element": "H" 
			}
		],
		 "valence_orbital": [ 
			{
				"type": "occ",
				"energy": -0.30108,
				"method": "rhf"
			},
			{
				"type": "occ",
				"energy": -0.29062,
				"method": "rhf"
			},
			{
				"type": "occ",
				"energy": -0.25716,
				"method": "rhf"
			},
			{
				"type": "occ",
				"energy": -0.24356,
				"method": "rhf"
			},
			{
				"type": "occ",
				"energy": -0.19305,
				"method": "rhf"
			},
			{
				"type": "unocc",
				"energy": 0.00446,
				"method": "rhf"
			},
			{
				"type": "unocc",
				"energy": 0.02554,
				"method": "rhf"
			},
			{
				"type": "unocc",
				"energy": 0.08208,
				"method": "rhf"
			},
			{
				"type": "unocc",
				"energy": 0.08535,
				"method": "rhf"
			},
			{
				"type": "unocc",
				"energy": 0.10346,
				"method": "rhf"
			}
		],
		"cosmo_sigma_profile": { 
			"-0.025": 0.0,
			"-0.024": 0.0,
			"-0.023": 0.0,
			"-0.022": 0.0,
			"-0.021": 0.0,
			"-0.02": 0.0,
			"-0.019": 0.0,
			"-0.018": 0.0,
			"-0.017": 0.0,
			"-0.016": 0.0,
			"-0.015": 0.0,
			"-0.014": 0.0,
			"-0.013": 0.0698062705858,
			"-0.012": 2.07130443333,
			"-0.011": 2.85225177451,
			"-0.01": 2.6872576457,
			"-0.009": 2.74200651824,
			"-0.008": 3.00717016427,
			"-0.007": 3.38725643861,
			"-0.006": 5.07792724897,
			"-0.005": 8.13889944578,
			"-0.004": 9.55263278341,
			"-0.003": 18.6294410899,
			"-0.002": 38.5751455594,
			"-0.001": 42.3432730306,
			"0.0": 40.7523691935,
			"0.001": 37.7857179667,
			"0.002": 19.1312545165,
			"0.003": 7.88601783454,
			"0.004": 8.48513807258,
			"0.005": 10.6906608459,
			"0.006": 12.7815421402,
			"0.007": 6.8214294799,
			"0.008": 2.64741832648,
			"0.009": 2.69953962539,
			"0.01": 1.40097138915,
			"0.011": 1.24107188389,
			"0.012": 2.08658990502,
			"0.013": 1.12717843826,
			"0.014": 0.577013230212,
			"0.015": 0.49215547027,
			"0.016": 0.060131231325,
			"0.017": 0.0,
			"0.018": 0.0,
			"0.019": 0.0,
			"0.02": 0.0,
			"0.021": 0.0,
			"0.022": 0.0,
			"0.023": 0.0,
			"0.024": 0.0,
			"0.025": 0.0
		}
	}
}
