{
	 "smiles": "CC1(O)CCC2=C(C1)C=CC=C2", 
	 "Tm": 313.15, 
	 "num_atms": 26, 
	 "gaussian": { 
		 "optdone": 1, 
		 "sigma_profile": "yes", 
		 "theory": "DFT", 
		 "functional": "B3LYP", 
		 "basiset": "6-31G**", 
		 "properties": { 
			 "R2extent": 2339.093, 
			 "electric_dipole_moment_norm": 1.14905506395, 
			 "electric_quadrupole_moment_norm": 7.88037449808, 
			 "total_energy": -502.847443705, 
			 "HOMO_LUMO_gap": 0.2327, 
			 "cosmo_polarized_energy": -7.78, 
			 "cosmo_cavitation_energy": 26.86, 
			 "cosmo_dispersion_energy": -19.75, 
			 "cosmo_repulsion_energy": 1.55, 
			 "cosmo_total_nonelectrostatic_energy": 8.65, 
			 "SMD_solvation_energy": 3.94 
		},
		"coords": [
			{
				"x": -2.2824598726,
				"y": -2.4605005273,
				"z": -0.6089277056,
				"element": "C" 
			},
			{
				"x": -0.8524674583,
				"y": -2.4952338397,
				"z": -0.0509786013,
				"element": "C" 
			},
			{
				"x": -0.5388358065,
				"y": -3.8270130153,
				"z": 0.37609895,
				"element": "O" 
			},
			{
				"x": 0.1974136746,
				"y": -2.1593276998,
				"z": -1.1176566667,
				"element": "C" 
			},
			{
				"x": 0.0364416245,
				"y": -0.7352629584,
				"z": -1.6638017773,
				"element": "C" 
			},
			{
				"x": -0.2059128487,
				"y": 0.3101950127,
				"z": -0.5887362873,
				"element": "C" 
			},
			{
				"x": -0.5879208053,
				"y": -0.0563357171,
				"z": 0.7143694849,
				"element": "C" 
			},
			{
				"x": -0.675876463,
				"y": -1.5154244552,
				"z": 1.1249365671,
				"element": "C" 
			},
			{
				"x": -0.8525423898,
				"y": 0.9488259288,
				"z": 1.6562288323,
				"element": "C" 
			},
			{
				"x": -0.7335400631,
				"y": 2.2970922005,
				"z": 1.3300255671,
				"element": "C" 
			},
			{
				"x": -0.3467931942,
				"y": 2.6614827527,
				"z": 0.0378817855,
				"element": "C" 
			},
			{
				"x": -0.0894527465,
				"y": 1.6713869768,
				"z": -0.906449567,
				"element": "C" 
			},
			{
				"x": -2.9954968871,
				"y": -2.7849460123,
				"z": 0.1591845743,
				"element": "H" 
			},
			{
				"x": -2.3739909506,
				"y": -3.1376086091,
				"z": -1.4636509317,
				"element": "H" 
			},
			{
				"x": -2.5790235768,
				"y": -1.4550591731,
				"z": -0.9215935379,
				"element": "H" 
			},
			{
				"x": -1.1836696314,
				"y": -4.0778763769,
				"z": 1.0515281925,
				"element": "H" 
			},
			{
				"x": 0.1359886092,
				"y": -2.8922401123,
				"z": -1.929345188,
				"element": "H" 
			},
			{
				"x": 1.1844715709,
				"y": -2.2792115063,
				"z": -0.6556030039,
				"element": "H" 
			},
			{
				"x": -0.8020513317,
				"y": -0.707736317,
				"z": -2.3741517967,
				"element": "H" 
			},
			{
				"x": 0.9229071758,
				"y": -0.46256325,
				"z": -2.248804949,
				"element": "H" 
			},
			{
				"x": 0.2476996276,
				"y": -1.8067795429,
				"z": 1.6430874672,
				"element": "H" 
			},
			{
				"x": -1.4904120999,
				"y": -1.6478846754,
				"z": 1.8504727489,
				"element": "H" 
			},
			{
				"x": -1.1530493634,
				"y": 0.6621273993,
				"z": 2.6617100553,
				"element": "H" 
			},
			{
				"x": -0.9419097229,
				"y": 3.0584785695,
				"z": 2.0763704919,
				"element": "H" 
			},
			{
				"x": -0.2479265394,
				"y": 3.7094653389,
				"z": -0.2307556413,
				"element": "H" 
			},
			{
				"x": 0.2074094684,
				"y": 1.9528496091,
				"z": -1.9146390635,
				"element": "H" 
			}
		],
		 "valence_orbital": [ 
			{
				"type": "occ",
				"energy": -0.32377,
				"method": "rhf"
			},
			{
				"type": "occ",
				"energy": -0.30206,
				"method": "rhf"
			},
			{
				"type": "occ",
				"energy": -0.26283,
				"method": "rhf"
			},
			{
				"type": "occ",
				"energy": -0.23895,
				"method": "rhf"
			},
			{
				"type": "occ",
				"energy": -0.23212,
				"method": "rhf"
			},
			{
				"type": "unocc",
				"energy": 0.00058,
				"method": "rhf"
			},
			{
				"type": "unocc",
				"energy": 0.00663,
				"method": "rhf"
			},
			{
				"type": "unocc",
				"energy": 0.07447,
				"method": "rhf"
			},
			{
				"type": "unocc",
				"energy": 0.09578,
				"method": "rhf"
			},
			{
				"type": "unocc",
				"energy": 0.10982,
				"method": "rhf"
			}
		],
		"cosmo_sigma_profile": { 
			"-0.025": 0.0,
			"-0.024": 0.0,
			"-0.023": 0.0,
			"-0.022": 0.0,
			"-0.021": 0.0,
			"-0.02": 0.0,
			"-0.019": 0.0,
			"-0.018": 0.0,
			"-0.017": 0.0,
			"-0.016": 0.0,
			"-0.015": 0.235548869098,
			"-0.014": 0.806873004962,
			"-0.013": 1.24939163432,
			"-0.012": 0.650448602128,
			"-0.011": 0.829026076099,
			"-0.01": 0.991370427013,
			"-0.009": 1.43475623039,
			"-0.008": 0.849924474765,
			"-0.007": 1.30237082759,
			"-0.006": 1.64686983567,
			"-0.005": 8.27056417696,
			"-0.004": 13.7141628315,
			"-0.003": 26.4582345187,
			"-0.002": 28.4006762688,
			"-0.001": 25.1728987063,
			"0.0": 21.8978058548,
			"0.001": 15.6662098514,
			"0.002": 9.50449399388,
			"0.003": 8.04925519316,
			"0.004": 7.46635500833,
			"0.005": 9.37717041938,
			"0.006": 8.13072362165,
			"0.007": 6.92856684118,
			"0.008": 1.63667596873,
			"0.009": 1.23024204417,
			"0.01": 0.805984302244,
			"0.011": 1.17382476585,
			"0.012": 1.27287892237,
			"0.013": 1.36378684657,
			"0.014": 2.11006684325,
			"0.015": 0.863924243793,
			"0.016": 0.0,
			"0.017": 0.0,
			"0.018": 0.0,
			"0.019": 0.0,
			"0.02": 0.0,
			"0.021": 0.0,
			"0.022": 0.0,
			"0.023": 0.0,
			"0.024": 0.0,
			"0.025": 0.0
		}
	}
}
