{
	 "smiles": "CC(O)[C@H](NC(=O)OCC1=CC=CC=C1)C(=O)OCC1=CC=CC=C1", 
	 "Tm": 353.15, 
	 "num_atms": 46, 
	 "gaussian": { 
		 "optdone": 1, 
		 "sigma_profile": "yes", 
		 "theory": "DFT", 
		 "functional": "B3LYP", 
		 "basiset": "6-31G**", 
		 "properties": { 
			 "R2extent": 12717.9638, 
			 "electric_dipole_moment_norm": 5.80840083844, 
			 "electric_quadrupole_moment_norm": 11.5756568976, 
			 "total_energy": -1167.58346549, 
			 "HOMO_LUMO_gap": 0.21705, 
			 "cosmo_polarized_energy": -17.63, 
			 "cosmo_cavitation_energy": 50.77, 
			 "cosmo_dispersion_energy": -34.18, 
			 "cosmo_repulsion_energy": 2.66, 
			 "cosmo_total_nonelectrostatic_energy": 19.26, 
			 "SMD_solvation_energy": 9.67 
		},
		"coords": [
			{
				"x": 1.1345390087,
				"y": 2.9646875809,
				"z": 0.8041154194,
				"element": "C" 
			},
			{
				"x": -0.3822751956,
				"y": 2.7599440745,
				"z": 0.7899591692,
				"element": "C" 
			},
			{
				"x": -1.0719076355,
				"y": 3.8837839895,
				"z": 0.2801777021,
				"element": "O" 
			},
			{
				"x": -0.8224956982,
				"y": 1.4636634753,
				"z": 0.033335339,
				"element": "C" 
			},
			{
				"x": -0.3852052482,
				"y": 0.2490494538,
				"z": 0.6932512138,
				"element": "N" 
			},
			{
				"x": -1.1253416871,
				"y": -0.2992726216,
				"z": 1.6993872473,
				"element": "C" 
			},
			{
				"x": -2.1100280836,
				"y": 0.2204750792,
				"z": 2.2008915462,
				"element": "O" 
			},
			{
				"x": -0.6016649926,
				"y": -1.5000560516,
				"z": 2.0575436669,
				"element": "O" 
			},
			{
				"x": -1.2537713342,
				"y": -2.172445352,
				"z": 3.1671582691,
				"element": "C" 
			},
			{
				"x": -0.6122973131,
				"y": -1.8309236331,
				"z": 4.4898695974,
				"element": "C" 
			},
			{
				"x": 0.3720866622,
				"y": -2.6629752943,
				"z": 5.036573044,
				"element": "C" 
			},
			{
				"x": 0.974185042,
				"y": -2.3472114384,
				"z": 6.2554625943,
				"element": "C" 
			},
			{
				"x": 0.5964163851,
				"y": -1.1906570483,
				"z": 6.9397437329,
				"element": "C" 
			},
			{
				"x": -0.3842529447,
				"y": -0.3537808738,
				"z": 6.4013903962,
				"element": "C" 
			},
			{
				"x": -0.9869771158,
				"y": -0.6713474105,
				"z": 5.1842623198,
				"element": "C" 
			},
			{
				"x": -0.3679374595,
				"y": 1.5235823887,
				"z": -1.4185018438,
				"element": "C" 
			},
			{
				"x": -0.5132412848,
				"y": 2.512183319,
				"z": -2.1169574778,
				"element": "O" 
			},
			{
				"x": 0.2245307255,
				"y": 0.3983246009,
				"z": -1.8472495023,
				"element": "O" 
			},
			{
				"x": 0.6933364243,
				"y": 0.4082783282,
				"z": -3.2325019686,
				"element": "C" 
			},
			{
				"x": 1.372810112,
				"y": -0.903877481,
				"z": -3.5017809786,
				"element": "C" 
			},
			{
				"x": 0.6290945222,
				"y": -2.0168223989,
				"z": -3.9145989109,
				"element": "C" 
			},
			{
				"x": 1.256066046,
				"y": -3.2406438209,
				"z": -4.1469922304,
				"element": "C" 
			},
			{
				"x": 2.6360962636,
				"y": -3.3630579478,
				"z": -3.9696893151,
				"element": "C" 
			},
			{
				"x": 3.3859326915,
				"y": -2.2589427058,
				"z": -3.5597261419,
				"element": "C" 
			},
			{
				"x": 2.7558484132,
				"y": -1.0361318704,
				"z": -3.3269173336,
				"element": "C" 
			},
			{
				"x": 1.6496182657,
				"y": 2.0986530242,
				"z": 1.2323991765,
				"element": "H" 
			},
			{
				"x": 1.3770404583,
				"y": 3.8439782591,
				"z": 1.4064255837,
				"element": "H" 
			},
			{
				"x": 1.5191376302,
				"y": 3.1380867115,
				"z": -0.2077168282,
				"element": "H" 
			},
			{
				"x": -0.7402528962,
				"y": 2.6235010872,
				"z": 1.8153169247,
				"element": "H" 
			},
			{
				"x": -0.9185922332,
				"y": 3.8920306045,
				"z": -0.6789247367,
				"element": "H" 
			},
			{
				"x": -1.9191934086,
				"y": 1.490400733,
				"z": 0.0267666736,
				"element": "H" 
			},
			{
				"x": 0.3198075838,
				"y": -0.3242470124,
				"z": 0.2547315046,
				"element": "H" 
			},
			{
				"x": -2.311830627,
				"y": -1.904076697,
				"z": 3.158007775,
				"element": "H" 
			},
			{
				"x": -1.1423909885,
				"y": -3.2354962561,
				"z": 2.9424381503,
				"element": "H" 
			},
			{
				"x": 0.6661884745,
				"y": -3.5651219735,
				"z": 4.5052214853,
				"element": "H" 
			},
			{
				"x": 1.7342142492,
				"y": -3.003162063,
				"z": 6.6705493107,
				"element": "H" 
			},
			{
				"x": 1.0618467399,
				"y": -0.9436747685,
				"z": 7.8898318581,
				"element": "H" 
			},
			{
				"x": -0.6827851593,
				"y": 0.5456674626,
				"z": 6.9325157706,
				"element": "H" 
			},
			{
				"x": -1.7443989182,
				"y": -0.021743264,
				"z": 4.75630633,
				"element": "H" 
			},
			{
				"x": -0.1739739602,
				"y": 0.5674988121,
				"z": -3.8785037672,
				"element": "H" 
			},
			{
				"x": 1.368375712,
				"y": 1.2585763384,
				"z": -3.356912846,
				"element": "H" 
			},
			{
				"x": -0.4446824804,
				"y": -1.9216906077,
				"z": -4.054757498,
				"element": "H" 
			},
			{
				"x": 0.6701498167,
				"y": -4.0963196771,
				"z": -4.4694892646,
				"element": "H" 
			},
			{
				"x": 3.1257681372,
				"y": -4.3147876215,
				"z": -4.1544381127,
				"element": "H" 
			},
			{
				"x": 4.4597832098,
				"y": -2.3489111882,
				"z": -3.4246707759,
				"element": "H" 
			},
			{
				"x": 3.3408240907,
				"y": -0.176188245,
				"z": -3.0103022684,
				"element": "H" 
			}
		],
		 "valence_orbital": [ 
			{
				"type": "occ",
				"energy": -0.26547,
				"method": "rhf"
			},
			{
				"type": "occ",
				"energy": -0.26311,
				"method": "rhf"
			},
			{
				"type": "occ",
				"energy": -0.24907,
				"method": "rhf"
			},
			{
				"type": "occ",
				"energy": -0.24798,
				"method": "rhf"
			},
			{
				"type": "occ",
				"energy": -0.24331,
				"method": "rhf"
			},
			{
				"type": "unocc",
				"energy": -0.02626,
				"method": "rhf"
			},
			{
				"type": "unocc",
				"energy": -0.01813,
				"method": "rhf"
			},
			{
				"type": "unocc",
				"energy": -0.00893,
				"method": "rhf"
			},
			{
				"type": "unocc",
				"energy": -0.00727,
				"method": "rhf"
			},
			{
				"type": "unocc",
				"energy": -6e-05,
				"method": "rhf"
			}
		],
		"cosmo_sigma_profile": { 
			"-0.025": 0.0,
			"-0.024": 0.0,
			"-0.023": 0.0,
			"-0.022": 0.0,
			"-0.021": 0.0,
			"-0.02": 0.0,
			"-0.019": 0.0,
			"-0.018": 0.0,
			"-0.017": 0.0,
			"-0.016": 0.0,
			"-0.015": 0.0,
			"-0.014": 0.0,
			"-0.013": 0.0292039271028,
			"-0.012": 0.437476125064,
			"-0.011": 0.427289677307,
			"-0.01": 0.34426972796,
			"-0.009": 0.424092842495,
			"-0.008": 2.1141099064,
			"-0.007": 8.70922525439,
			"-0.006": 26.7216866573,
			"-0.005": 30.0930042595,
			"-0.004": 39.8622584328,
			"-0.003": 37.3077833612,
			"-0.002": 31.9984592382,
			"-0.001": 29.20584185,
			"0.0": 26.2136378381,
			"0.001": 27.241829445,
			"0.002": 22.5211796782,
			"0.003": 22.7435361889,
			"0.004": 24.9919216154,
			"0.005": 27.1935107326,
			"0.006": 12.2919693516,
			"0.007": 4.25118778713,
			"0.008": 5.1541875326,
			"0.009": 3.49309643413,
			"0.01": 5.28992119495,
			"0.011": 3.48490278078,
			"0.012": 3.93879305415,
			"0.013": 3.19879882687,
			"0.014": 2.46857347986,
			"0.015": 0.348789719117,
			"0.016": 0.0,
			"0.017": 0.0,
			"0.018": 0.0,
			"0.019": 0.0,
			"0.02": 0.0,
			"0.021": 0.0,
			"0.022": 0.0,
			"0.023": 0.0,
			"0.024": 0.0,
			"0.025": 0.0
		}
	}
}
