{
	 "smiles": "CCOC(=O)C1=C(OC2=CC(Cl)=CC(Cl)=C2)C2=C(N=C1)N(C)N=C2C", 
	 "Tm": 389.15, 
	 "num_atms": 40, 
	 "gaussian": { 
		 "optdone": 1, 
		 "sigma_profile": "yes", 
		 "theory": "DFT", 
		 "functional": "B3LYP", 
		 "basiset": "6-31G**", 
		 "properties": { 
			 "R2extent": 11689.1631, 
			 "electric_dipole_moment_norm": 2.68634283181, 
			 "electric_quadrupole_moment_norm": 9.10388987137, 
			 "total_energy": -1967.16244549, 
			 "HOMO_LUMO_gap": 0.17483, 
			 "cosmo_polarized_energy": -12.12, 
			 "cosmo_cavitation_energy": 48.84, 
			 "cosmo_dispersion_energy": -33.19, 
			 "cosmo_repulsion_energy": 2.6, 
			 "cosmo_total_nonelectrostatic_energy": 18.26, 
			 "SMD_solvation_energy": 6.54 
		},
		"coords": [
			{
				"x": 2.3643609933,
				"y": -4.6090428955,
				"z": 0.6576795552,
				"element": "C" 
			},
			{
				"x": 2.7481594519,
				"y": -3.2639192279,
				"z": 0.0598469048,
				"element": "C" 
			},
			{
				"x": 1.5823765567,
				"y": -2.5381701938,
				"z": -0.400463283,
				"element": "O" 
			},
			{
				"x": 0.9264613413,
				"y": -1.7993553299,
				"z": 0.5266566423,
				"element": "C" 
			},
			{
				"x": 1.2842172363,
				"y": -1.7150404339,
				"z": 1.686039444,
				"element": "O" 
			},
			{
				"x": -0.2693411565,
				"y": -1.1302584806,
				"z": -0.0511999566,
				"element": "C" 
			},
			{
				"x": -1.0601950748,
				"y": -0.2386207419,
				"z": 0.6986646845,
				"element": "C" 
			},
			{
				"x": -0.8189668702,
				"y": 0.1074377234,
				"z": 2.0023573383,
				"element": "O" 
			},
			{
				"x": 0.2743469969,
				"y": 0.8692969305,
				"z": 2.3547368207,
				"element": "C" 
			},
			{
				"x": 0.624930027,
				"y": 0.8354120249,
				"z": 3.705185885,
				"element": "C" 
			},
			{
				"x": 1.6734518509,
				"y": 1.6405413453,
				"z": 4.1336703648,
				"element": "C" 
			},
			{
				"x": 2.131901691,
				"y": 1.6108468958,
				"z": 5.8272030064,
				"element": "Cl" 
			},
			{
				"x": 2.3807623179,
				"y": 2.4698611562,
				"z": 3.260783715,
				"element": "C" 
			},
			{
				"x": 1.9957143412,
				"y": 2.4718892922,
				"z": 1.9226686906,
				"element": "C" 
			},
			{
				"x": 2.8551647621,
				"y": 3.5071623813,
				"z": 0.7941712961,
				"element": "Cl" 
			},
			{
				"x": 0.9450203061,
				"y": 1.6887107158,
				"z": 1.446333434,
				"element": "C" 
			},
			{
				"x": -2.2149414847,
				"y": 0.2728030823,
				"z": 0.0976211589,
				"element": "C" 
			},
			{
				"x": -2.496701274,
				"y": -0.1381397774,
				"z": -1.2298348467,
				"element": "C" 
			},
			{
				"x": -1.7671061852,
				"y": -0.9708839756,
				"z": -1.9865784402,
				"element": "N" 
			},
			{
				"x": -0.6848031966,
				"y": -1.4396353623,
				"z": -1.3798597567,
				"element": "C" 
			},
			{
				"x": -3.6471803634,
				"y": 0.4883041025,
				"z": -1.5878564275,
				"element": "N" 
			},
			{
				"x": -4.3510970605,
				"y": 0.3976185312,
				"z": -2.8507889249,
				"element": "C" 
			},
			{
				"x": -4.1243643096,
				"y": 1.2726402327,
				"z": -0.5748197933,
				"element": "N" 
			},
			{
				"x": -3.2856272988,
				"y": 1.1628484261,
				"z": 0.4432950501,
				"element": "C" 
			},
			{
				"x": -3.5207242684,
				"y": 1.9024795424,
				"z": 1.721654212,
				"element": "C" 
			},
			{
				"x": 1.7924987897,
				"y": -5.2061638851,
				"z": -0.0587392986,
				"element": "H" 
			},
			{
				"x": 1.7672207084,
				"y": -4.4714389539,
				"z": 1.5622690116,
				"element": "H" 
			},
			{
				"x": 3.2683806966,
				"y": -5.1662648338,
				"z": 0.9250098974,
				"element": "H" 
			},
			{
				"x": 3.3606375205,
				"y": -3.3830443327,
				"z": -0.8369440186,
				"element": "H" 
			},
			{
				"x": 3.2816076935,
				"y": -2.646619527,
				"z": 0.7860053249,
				"element": "H" 
			},
			{
				"x": 0.092719914,
				"y": 0.1820057514,
				"z": 4.384200913,
				"element": "H" 
			},
			{
				"x": 3.1973416332,
				"y": 3.0872347134,
				"z": 3.6113951658,
				"element": "H" 
			},
			{
				"x": 0.6627685227,
				"y": 1.7213965528,
				"z": 0.4018088769,
				"element": "H" 
			},
			{
				"x": -0.0713205682,
				"y": -2.1270818054,
				"z": -1.9523992329,
				"element": "H" 
			},
			{
				"x": -3.7878975622,
				"y": -0.2778091306,
				"z": -3.4955831093,
				"element": "H" 
			},
			{
				"x": -4.4193229959,
				"y": 1.3841873777,
				"z": -3.3169918405,
				"element": "H" 
			},
			{
				"x": -5.3596151719,
				"y": 0.0056045517,
				"z": -2.694033425,
				"element": "H" 
			},
			{
				"x": -3.5978453875,
				"y": 1.2136228458,
				"z": 2.568902233,
				"element": "H" 
			},
			{
				"x": -4.4462764173,
				"y": 2.4766831322,
				"z": 1.6461829316,
				"element": "H" 
			},
			{
				"x": -2.6971167052,
				"y": 2.5907015797,
				"z": 1.939749797,
				"element": "H" 
			}
		],
		 "valence_orbital": [ 
			{
				"type": "occ",
				"energy": -0.2726,
				"method": "rhf"
			},
			{
				"type": "occ",
				"energy": -0.26347,
				"method": "rhf"
			},
			{
				"type": "occ",
				"energy": -0.25358,
				"method": "rhf"
			},
			{
				"type": "occ",
				"energy": -0.24684,
				"method": "rhf"
			},
			{
				"type": "occ",
				"energy": -0.23634,
				"method": "rhf"
			},
			{
				"type": "unocc",
				"energy": -0.06151,
				"method": "rhf"
			},
			{
				"type": "unocc",
				"energy": -0.03978,
				"method": "rhf"
			},
			{
				"type": "unocc",
				"energy": -0.02399,
				"method": "rhf"
			},
			{
				"type": "unocc",
				"energy": -0.0138,
				"method": "rhf"
			},
			{
				"type": "unocc",
				"energy": 0.00422,
				"method": "rhf"
			}
		],
		"cosmo_sigma_profile": { 
			"-0.025": 0.0,
			"-0.024": 0.0,
			"-0.023": 0.0,
			"-0.022": 0.0,
			"-0.021": 0.0,
			"-0.02": 0.0,
			"-0.019": 0.0,
			"-0.018": 0.0,
			"-0.017": 0.0,
			"-0.016": 0.0,
			"-0.015": 0.0,
			"-0.014": 0.0,
			"-0.013": 0.0,
			"-0.012": 0.0,
			"-0.011": 0.0,
			"-0.01": 0.0,
			"-0.009": 0.520739305528,
			"-0.008": 3.41834125679,
			"-0.007": 6.02999474796,
			"-0.006": 12.603503658,
			"-0.005": 19.5290696566,
			"-0.004": 30.9921019831,
			"-0.003": 37.3611873368,
			"-0.002": 39.5466934785,
			"-0.001": 45.5782161678,
			"0.0": 43.4599803463,
			"0.001": 36.1476594785,
			"0.002": 26.9754090005,
			"0.003": 23.7006802165,
			"0.004": 27.1940493573,
			"0.005": 9.8342273886,
			"0.006": 5.41551613769,
			"0.007": 4.51853740852,
			"0.008": 5.34910725248,
			"0.009": 4.21220167277,
			"0.01": 3.94011375804,
			"0.011": 4.27021920549,
			"0.012": 2.32181241028,
			"0.013": 1.23446244783,
			"0.014": 0.76883228596,
			"0.015": 0.199958327194,
			"0.016": 0.0,
			"0.017": 0.0,
			"0.018": 0.0,
			"0.019": 0.0,
			"0.02": 0.0,
			"0.021": 0.0,
			"0.022": 0.0,
			"0.023": 0.0,
			"0.024": 0.0,
			"0.025": 0.0
		}
	}
}
