{
	 "smiles": "CC(=O)NC1=C(C=C/C2=CC=CC=C2)C=CC=C1", 
	 "Tm": 389.15, 
	 "num_atms": 33, 
	 "gaussian": { 
		 "optdone": 1, 
		 "sigma_profile": "yes", 
		 "theory": "DFT", 
		 "functional": "B3LYP", 
		 "basiset": "6-31G**", 
		 "properties": { 
			 "R2extent": 5511.3478, 
			 "electric_dipole_moment_norm": 3.3760330182, 
			 "electric_quadrupole_moment_norm": 19.1601873138, 
			 "total_energy": -748.721631866, 
			 "HOMO_LUMO_gap": 0.17325, 
			 "cosmo_polarized_energy": -14.81, 
			 "cosmo_cavitation_energy": 36.87, 
			 "cosmo_dispersion_energy": -25.56, 
			 "cosmo_repulsion_energy": 2.01, 
			 "cosmo_total_nonelectrostatic_energy": 13.32, 
			 "SMD_solvation_energy": 6.95 
		},
		"coords": [
			{
				"x": 2.5685054156,
				"y": -2.5689030629,
				"z": 3.1109455368,
				"element": "C" 
			},
			{
				"x": 1.6486834434,
				"y": -2.6597232075,
				"z": 1.901332035,
				"element": "C" 
			},
			{
				"x": 0.5602247262,
				"y": -3.2133604073,
				"z": 1.9552133748,
				"element": "O" 
			},
			{
				"x": 2.1245037588,
				"y": -2.0302569865,
				"z": 0.77123946,
				"element": "N" 
			},
			{
				"x": 1.4996919125,
				"y": -2.0271510882,
				"z": -0.5123582263,
				"element": "C" 
			},
			{
				"x": 0.2276584113,
				"y": -1.4525640322,
				"z": -0.7279044579,
				"element": "C" 
			},
			{
				"x": -0.5827996365,
				"y": -0.8854776917,
				"z": 0.3732735133,
				"element": "C" 
			},
			{
				"x": -1.1812240178,
				"y": 0.3206308136,
				"z": 0.4290462022,
				"element": "C" 
			},
			{
				"x": -1.1111232833,
				"y": 1.4764278542,
				"z": -0.4842877835,
				"element": "C" 
			},
			{
				"x": -2.1850253311,
				"y": 2.38603864,
				"z": -0.4967845225,
				"element": "C" 
			},
			{
				"x": -2.1725138607,
				"y": 3.5099692565,
				"z": -1.3208855463,
				"element": "C" 
			},
			{
				"x": -1.0722648094,
				"y": 3.7623904604,
				"z": -2.1419068452,
				"element": "C" 
			},
			{
				"x": 0.0135748358,
				"y": 2.8828359964,
				"z": -2.124205174,
				"element": "C" 
			},
			{
				"x": -0.002746248,
				"y": 1.7553590665,
				"z": -1.3062982071,
				"element": "C" 
			},
			{
				"x": -0.2836996488,
				"y": -1.4742865919,
				"z": -2.0382357619,
				"element": "C" 
			},
			{
				"x": 0.4437403974,
				"y": -1.9958543215,
				"z": -3.1038869602,
				"element": "C" 
			},
			{
				"x": 1.7159335285,
				"y": -2.5258178104,
				"z": -2.8807238598,
				"element": "C" 
			},
			{
				"x": 2.2319298895,
				"y": -2.5453787472,
				"z": -1.5879710481,
				"element": "C" 
			},
			{
				"x": 2.2026223903,
				"y": -1.780027514,
				"z": 3.7764134125,
				"element": "H" 
			},
			{
				"x": 2.5176103918,
				"y": -3.5127949867,
				"z": 3.6564094074,
				"element": "H" 
			},
			{
				"x": 3.610217148,
				"y": -2.3493242789,
				"z": 2.8591191551,
				"element": "H" 
			},
			{
				"x": 3.0934664323,
				"y": -1.745830619,
				"z": 0.7864995453,
				"element": "H" 
			},
			{
				"x": -0.7326310871,
				"y": -1.5588061284,
				"z": 1.2134951702,
				"element": "H" 
			},
			{
				"x": -1.8226109758,
				"y": 0.4879339934,
				"z": 1.294321905,
				"element": "H" 
			},
			{
				"x": -3.0415424338,
				"y": 2.1994293107,
				"z": 0.146486412,
				"element": "H" 
			},
			{
				"x": -3.0187822928,
				"y": 4.1913289149,
				"z": -1.3171400451,
				"element": "H" 
			},
			{
				"x": -1.0553714783,
				"y": 4.6403886926,
				"z": -2.7812399322,
				"element": "H" 
			},
			{
				"x": 0.8821994273,
				"y": 3.0803852694,
				"z": -2.7464612532,
				"element": "H" 
			},
			{
				"x": 0.8536685045,
				"y": 1.0911284405,
				"z": -1.2918498698,
				"element": "H" 
			},
			{
				"x": -1.2715038882,
				"y": -1.0586459859,
				"z": -2.2082948843,
				"element": "H" 
			},
			{
				"x": 0.0192780886,
				"y": -1.9896941804,
				"z": -4.1034396792,
				"element": "H" 
			},
			{
				"x": 2.295872966,
				"y": -2.9364452572,
				"z": -3.7018408004,
				"element": "H" 
			},
			{
				"x": 3.2104573237,
				"y": -2.9781038113,
				"z": -1.3961802723,
				"element": "H" 
			}
		],
		 "valence_orbital": [ 
			{
				"type": "occ",
				"energy": -0.25559,
				"method": "rhf"
			},
			{
				"type": "occ",
				"energy": -0.25197,
				"method": "rhf"
			},
			{
				"type": "occ",
				"energy": -0.24535,
				"method": "rhf"
			},
			{
				"type": "occ",
				"energy": -0.2348,
				"method": "rhf"
			},
			{
				"type": "occ",
				"energy": -0.20995,
				"method": "rhf"
			},
			{
				"type": "unocc",
				"energy": -0.0367,
				"method": "rhf"
			},
			{
				"type": "unocc",
				"energy": -0.0119,
				"method": "rhf"
			},
			{
				"type": "unocc",
				"energy": 0.00536,
				"method": "rhf"
			},
			{
				"type": "unocc",
				"energy": 0.00566,
				"method": "rhf"
			},
			{
				"type": "unocc",
				"energy": 0.03152,
				"method": "rhf"
			}
		],
		"cosmo_sigma_profile": { 
			"-0.025": 0.0,
			"-0.024": 0.0,
			"-0.023": 0.0,
			"-0.022": 0.0,
			"-0.021": 0.0,
			"-0.02": 0.0,
			"-0.019": 0.0,
			"-0.018": 0.0,
			"-0.017": 0.0,
			"-0.016": 0.0,
			"-0.015": 0.400712173999,
			"-0.014": 1.18960102958,
			"-0.013": 1.4258918887,
			"-0.012": 1.41217702716,
			"-0.011": 1.02071467396,
			"-0.01": 1.84524274183,
			"-0.009": 1.54873072265,
			"-0.008": 1.78911813401,
			"-0.007": 2.64187507252,
			"-0.006": 11.9741857262,
			"-0.005": 25.1575382296,
			"-0.004": 25.6696359703,
			"-0.003": 26.6722162129,
			"-0.002": 23.0364783405,
			"-0.001": 22.4999244849,
			"0.0": 15.2638047689,
			"0.001": 18.1796223746,
			"0.002": 18.5617765281,
			"0.003": 21.1979840137,
			"0.004": 22.3246954971,
			"0.005": 21.8965349747,
			"0.006": 10.1520070446,
			"0.007": 2.37474030396,
			"0.008": 2.10288792487,
			"0.009": 1.44215571096,
			"0.01": 1.16589110745,
			"0.011": 2.10598418285,
			"0.012": 2.04581739041,
			"0.013": 3.43283935773,
			"0.014": 3.1063400732,
			"0.015": 0.573571926162,
			"0.016": 0.0,
			"0.017": 0.0,
			"0.018": 0.0,
			"0.019": 0.0,
			"0.02": 0.0,
			"0.021": 0.0,
			"0.022": 0.0,
			"0.023": 0.0,
			"0.024": 0.0,
			"0.025": 0.0
		}
	}
}
