{
	 "smiles": "CCC1=C(NC(=O)CCl)C=CC=C1", 
	 "Tm": 380.15, 
	 "num_atms": 25, 
	 "gaussian": { 
		 "optdone": 1, 
		 "sigma_profile": "yes", 
		 "theory": "DFT", 
		 "functional": "B3LYP", 
		 "basiset": "6-31G**", 
		 "properties": { 
			 "R2extent": 3245.1496, 
			 "electric_dipole_moment_norm": 4.43405102023, 
			 "electric_quadrupole_moment_norm": 11.0243004671, 
			 "total_energy": -978.483376162, 
			 "HOMO_LUMO_gap": 0.20344, 
			 "cosmo_polarized_energy": -11.76, 
			 "cosmo_cavitation_energy": 29.88, 
			 "cosmo_dispersion_energy": -20.99, 
			 "cosmo_repulsion_energy": 1.69, 
			 "cosmo_total_nonelectrostatic_energy": 10.58, 
			 "SMD_solvation_energy": 5.64 
		},
		"coords": [
			{
				"x": 2.7704280251,
				"y": -1.319042644,
				"z": -0.5359444565,
				"element": "C" 
			},
			{
				"x": 1.6576621493,
				"y": -2.3463712634,
				"z": -0.8130530415,
				"element": "C" 
			},
			{
				"x": 0.3431941747,
				"y": -1.7139115934,
				"z": -1.2258090297,
				"element": "C" 
			},
			{
				"x": -0.5340181336,
				"y": -1.1218861342,
				"z": -0.2903372568,
				"element": "C" 
			},
			{
				"x": -0.2098534892,
				"y": -1.1778078345,
				"z": 1.0936764403,
				"element": "N" 
			},
			{
				"x": -0.2322005445,
				"y": -0.2131434633,
				"z": 2.0765069548,
				"element": "C" 
			},
			{
				"x": 0.0575170719,
				"y": -0.485379223,
				"z": 3.2308900085,
				"element": "O" 
			},
			{
				"x": -0.5647663224,
				"y": 1.2208155358,
				"z": 1.6691716433,
				"element": "C" 
			},
			{
				"x": -2.2611015912,
				"y": 1.6555050614,
				"z": 2.1421825141,
				"element": "Cl" 
			},
			{
				"x": -1.7335652217,
				"y": -0.5359477454,
				"z": -0.7151958524,
				"element": "C" 
			},
			{
				"x": -2.0528238318,
				"y": -0.4865666672,
				"z": -2.071470936,
				"element": "C" 
			},
			{
				"x": -1.1947604102,
				"y": -1.0606844827,
				"z": -3.0079933183,
				"element": "C" 
			},
			{
				"x": -0.0186081711,
				"y": -1.6751335146,
				"z": -2.5774194356,
				"element": "C" 
			},
			{
				"x": 3.7027141729,
				"y": -1.8225066041,
				"z": -0.2610160203,
				"element": "H" 
			},
			{
				"x": 2.4965903469,
				"y": -0.6477566747,
				"z": 0.2830087878,
				"element": "H" 
			},
			{
				"x": 2.9624771729,
				"y": -0.7073461717,
				"z": -1.4229179054,
				"element": "H" 
			},
			{
				"x": 1.5253569543,
				"y": -2.9806411023,
				"z": 0.0730844028,
				"element": "H" 
			},
			{
				"x": 1.9824129198,
				"y": -3.0220614798,
				"z": -1.6117176014,
				"element": "H" 
			},
			{
				"x": 0.1361442768,
				"y": -2.0593702672,
				"z": 1.4546715698,
				"element": "H" 
			},
			{
				"x": -0.4711965811,
				"y": 1.4075865466,
				"z": 0.6007169639,
				"element": "H" 
			},
			{
				"x": 0.0898926624,
				"y": 1.8794821412,
				"z": 2.2378427691,
				"element": "H" 
			},
			{
				"x": -2.4205373151,
				"y": -0.1345616833,
				"z": 0.0220457726,
				"element": "H" 
			},
			{
				"x": -2.981882262,
				"y": -0.0213634315,
				"z": -2.3867274551,
				"element": "H" 
			},
			{
				"x": -1.4420360569,
				"y": -1.0410824661,
				"z": -4.0651164782,
				"element": "H" 
			},
			{
				"x": 0.6461600038,
				"y": -2.1319248385,
				"z": -3.3064790399,
				"element": "H" 
			}
		],
		 "valence_orbital": [ 
			{
				"type": "occ",
				"energy": -0.30679,
				"method": "rhf"
			},
			{
				"type": "occ",
				"energy": -0.29582,
				"method": "rhf"
			},
			{
				"type": "occ",
				"energy": -0.26217,
				"method": "rhf"
			},
			{
				"type": "occ",
				"energy": -0.25773,
				"method": "rhf"
			},
			{
				"type": "occ",
				"energy": -0.23589,
				"method": "rhf"
			},
			{
				"type": "unocc",
				"energy": -0.03245,
				"method": "rhf"
			},
			{
				"type": "unocc",
				"energy": -0.01421,
				"method": "rhf"
			},
			{
				"type": "unocc",
				"energy": -0.00637,
				"method": "rhf"
			},
			{
				"type": "unocc",
				"energy": 0.05421,
				"method": "rhf"
			},
			{
				"type": "unocc",
				"energy": 0.07396,
				"method": "rhf"
			}
		],
		"cosmo_sigma_profile": { 
			"-0.025": 0.0,
			"-0.024": 0.0,
			"-0.023": 0.0,
			"-0.022": 0.0,
			"-0.021": 0.0,
			"-0.02": 0.0,
			"-0.019": 0.0,
			"-0.018": 0.0,
			"-0.017": 0.0,
			"-0.016": 0.0,
			"-0.015": 0.00078984290885,
			"-0.014": 0.641539180114,
			"-0.013": 1.02982226989,
			"-0.012": 1.4223296238,
			"-0.011": 1.06809135549,
			"-0.01": 0.679664017124,
			"-0.009": 1.74328731184,
			"-0.008": 4.02756018699,
			"-0.007": 4.79695151765,
			"-0.006": 9.54233766349,
			"-0.005": 13.9889075591,
			"-0.004": 16.9012280382,
			"-0.003": 21.2319717047,
			"-0.002": 19.4246638951,
			"-0.001": 23.285852264,
			"0.0": 18.619141457,
			"0.001": 21.7769607753,
			"0.002": 12.0812833742,
			"0.003": 12.4924106378,
			"0.004": 13.7115332205,
			"0.005": 15.8052943435,
			"0.006": 6.98462190493,
			"0.007": 2.09766954291,
			"0.008": 1.12014092339,
			"0.009": 0.92065113749,
			"0.01": 1.28450760666,
			"0.011": 1.9829600918,
			"0.012": 3.69726688338,
			"0.013": 5.34539554705,
			"0.014": 1.13086055361,
			"0.015": 0.0,
			"0.016": 0.0,
			"0.017": 0.0,
			"0.018": 0.0,
			"0.019": 0.0,
			"0.02": 0.0,
			"0.021": 0.0,
			"0.022": 0.0,
			"0.023": 0.0,
			"0.024": 0.0,
			"0.025": 0.0
		}
	}
}
