{
	 "smiles": "CC1=C(C)C2=C(S1)N=CN=C2N", 
	 "Tm": 531.15, 
	 "num_atms": 21, 
	 "gaussian": { 
		 "optdone": 1, 
		 "sigma_profile": "yes", 
		 "theory": "DFT", 
		 "functional": "B3LYP", 
		 "basiset": "6-31G**", 
		 "properties": { 
			 "R2extent": 2660.978, 
			 "electric_dipole_moment_norm": 4.76629782536, 
			 "electric_quadrupole_moment_norm": 8.95492146978, 
			 "total_energy": -872.738190338, 
			 "HOMO_LUMO_gap": 0.18487, 
			 "cosmo_polarized_energy": -12.43, 
			 "cosmo_cavitation_energy": 25.45, 
			 "cosmo_dispersion_energy": -19.84, 
			 "cosmo_repulsion_energy": 1.51, 
			 "cosmo_total_nonelectrostatic_energy": 7.12, 
			 "SMD_solvation_energy": 0.92 
		},
		"coords": [
			{
				"x": -2.2489246235,
				"y": -0.8982842312,
				"z": 3.4145612665,
				"element": "C" 
			},
			{
				"x": -1.2781736469,
				"y": -0.7226784002,
				"z": 2.2837950932,
				"element": "C" 
			},
			{
				"x": 0.06282061,
				"y": -0.9936071276,
				"z": 2.235259014,
				"element": "C" 
			},
			{
				"x": 0.8642040808,
				"y": -1.5445841856,
				"z": 3.3872670388,
				"element": "C" 
			},
			{
				"x": 0.6322779281,
				"y": -0.6792112355,
				"z": 0.9369033817,
				"element": "C" 
			},
			{
				"x": -0.3143175926,
				"y": -0.1638528308,
				"z": 0.0310531417,
				"element": "C" 
			},
			{
				"x": -1.9021130266,
				"y": -0.0746660338,
				"z": 0.7639669331,
				"element": "S" 
			},
			{
				"x": -0.076743562,
				"y": 0.2250053511,
				"z": -1.2261846576,
				"element": "N" 
			},
			{
				"x": 1.1966601114,
				"y": 0.0834198466,
				"z": -1.5894146352,
				"element": "C" 
			},
			{
				"x": 2.2081822706,
				"y": -0.3975326929,
				"z": -0.8567676778,
				"element": "N" 
			},
			{
				"x": 1.9460434546,
				"y": -0.7830182051,
				"z": 0.4016213637,
				"element": "C" 
			},
			{
				"x": 3.0239122291,
				"y": -1.2329910207,
				"z": 1.119032016,
				"element": "N" 
			},
			{
				"x": -2.7333082279,
				"y": 0.0494057233,
				"z": 3.676422425,
				"element": "H" 
			},
			{
				"x": -1.7532122752,
				"y": -1.2754458555,
				"z": 4.3112417515,
				"element": "H" 
			},
			{
				"x": -3.0429193479,
				"y": -1.6074039721,
				"z": 3.1526167561,
				"element": "H" 
			},
			{
				"x": 1.2311876594,
				"y": -2.5587367717,
				"z": 3.1779668311,
				"element": "H" 
			},
			{
				"x": 1.7302825098,
				"y": -0.9109875753,
				"z": 3.6090215747,
				"element": "H" 
			},
			{
				"x": 0.2708914356,
				"y": -1.6102935607,
				"z": 4.300670889,
				"element": "H" 
			},
			{
				"x": 1.4474599909,
				"y": 0.3882316749,
				"z": -2.6036421133,
				"element": "H" 
			},
			{
				"x": 2.8794242848,
				"y": -1.8308959523,
				"z": 1.9148607751,
				"element": "H" 
			},
			{
				"x": 3.8499657375,
				"y": -1.4057729449,
				"z": 0.5641488328,
				"element": "H" 
			}
		],
		 "valence_orbital": [ 
			{
				"type": "occ",
				"energy": -0.29079,
				"method": "rhf"
			},
			{
				"type": "occ",
				"energy": -0.2662,
				"method": "rhf"
			},
			{
				"type": "occ",
				"energy": -0.25141,
				"method": "rhf"
			},
			{
				"type": "occ",
				"energy": -0.24853,
				"method": "rhf"
			},
			{
				"type": "occ",
				"energy": -0.20971,
				"method": "rhf"
			},
			{
				"type": "unocc",
				"energy": -0.02484,
				"method": "rhf"
			},
			{
				"type": "unocc",
				"energy": -0.0088,
				"method": "rhf"
			},
			{
				"type": "unocc",
				"energy": 0.02382,
				"method": "rhf"
			},
			{
				"type": "unocc",
				"energy": 0.03702,
				"method": "rhf"
			},
			{
				"type": "unocc",
				"energy": 0.06834,
				"method": "rhf"
			}
		],
		"cosmo_sigma_profile": { 
			"-0.025": 0.0,
			"-0.024": 0.0,
			"-0.023": 0.0,
			"-0.022": 0.0,
			"-0.021": 0.0,
			"-0.02": 0.0,
			"-0.019": 0.0,
			"-0.018": 0.0,
			"-0.017": 0.0,
			"-0.016": 0.0,
			"-0.015": 0.0,
			"-0.014": 0.207705437618,
			"-0.013": 1.63984333026,
			"-0.012": 2.17624485261,
			"-0.011": 2.21708583171,
			"-0.01": 2.98143384196,
			"-0.009": 2.77935288048,
			"-0.008": 2.44682789194,
			"-0.007": 3.885280809,
			"-0.006": 6.42747878831,
			"-0.005": 10.699114824,
			"-0.004": 12.7919403997,
			"-0.003": 16.1010161405,
			"-0.002": 14.5794492939,
			"-0.001": 17.7390117521,
			"0.0": 16.2280970054,
			"0.001": 16.682201935,
			"0.002": 17.4306950124,
			"0.003": 16.0697486189,
			"0.004": 11.1998212617,
			"0.005": 6.61473551558,
			"0.006": 4.44712235609,
			"0.007": 2.72169721226,
			"0.008": 3.92644852724,
			"0.009": 2.43965781315,
			"0.01": 1.81881822054,
			"0.011": 2.01684555253,
			"0.012": 1.6900062535,
			"0.013": 2.02251156737,
			"0.014": 1.27716663066,
			"0.015": 1.62198494264,
			"0.016": 0.230815588924,
			"0.017": 0.0,
			"0.018": 0.0,
			"0.019": 0.0,
			"0.02": 0.0,
			"0.021": 0.0,
			"0.022": 0.0,
			"0.023": 0.0,
			"0.024": 0.0,
			"0.025": 0.0
		}
	}
}
