{
	 "smiles": "[O-][N+](=O)C1=CC=C(NN=C(/C#N)C2=NC3=C(C=CC=C3)C(=O)N2)C=C1", 
	 "Tm": 546.15, 
	 "num_atms": 35, 
	 "gaussian": { 
		 "optdone": 1, 
		 "sigma_profile": "yes", 
		 "theory": "DFT", 
		 "functional": "B3LYP", 
		 "basiset": "6-31G**", 
		 "properties": { 
			 "R2extent": 14958.5447, 
			 "electric_dipole_moment_norm": 3.79355677432, 
			 "electric_quadrupole_moment_norm": 24.6772241723, 
			 "total_energy": -1169.79432258, 
			 "HOMO_LUMO_gap": 0.1202, 
			 "cosmo_polarized_energy": -25.04, 
			 "cosmo_cavitation_energy": 43.73, 
			 "cosmo_dispersion_energy": -30.97, 
			 "cosmo_repulsion_energy": 2.3, 
			 "cosmo_total_nonelectrostatic_energy": 15.05, 
			 "SMD_solvation_energy": 9.57 
		},
		"coords": [
			{
				"x": -6.7037363382,
				"y": 3.9311180344,
				"z": 0.4948892327,
				"element": "O" 
			},
			{
				"x": -6.0114238718,
				"y": 4.3261962232,
				"z": -0.4435869956,
				"element": "N" 
			},
			{
				"x": -6.2582797349,
				"y": 5.3182237549,
				"z": -1.1304131751,
				"element": "O" 
			},
			{
				"x": -4.8052843624,
				"y": 3.5601680808,
				"z": -0.7672129903,
				"element": "C" 
			},
			{
				"x": -4.491576434,
				"y": 2.4298988559,
				"z": -0.0112275714,
				"element": "C" 
			},
			{
				"x": -3.3503079675,
				"y": 1.7006075332,
				"z": -0.3133923755,
				"element": "C" 
			},
			{
				"x": -2.5274428551,
				"y": 2.1103567477,
				"z": -1.3755044662,
				"element": "C" 
			},
			{
				"x": -1.3687174656,
				"y": 1.4140158765,
				"z": -1.7221688306,
				"element": "N" 
			},
			{
				"x": -0.9750767528,
				"y": 0.3295150747,
				"z": -1.0751717985,
				"element": "N" 
			},
			{
				"x": 0.1176579085,
				"y": -0.2861977747,
				"z": -1.4389011934,
				"element": "C" 
			},
			{
				"x": 0.9122628394,
				"y": 0.189656974,
				"z": -2.5360397516,
				"element": "C" 
			},
			{
				"x": 1.4173636904,
				"y": 0.7214141125,
				"z": -3.4403645627,
				"element": "N" 
			},
			{
				"x": 0.5471341361,
				"y": -1.4895501444,
				"z": -0.7151327791,
				"element": "C" 
			},
			{
				"x": 1.6366393502,
				"y": -2.0831164459,
				"z": -1.0958283742,
				"element": "N" 
			},
			{
				"x": 2.0167286567,
				"y": -3.2167887082,
				"z": -0.3934168777,
				"element": "C" 
			},
			{
				"x": 1.2656719234,
				"y": -3.7256155478,
				"z": 0.6966880182,
				"element": "C" 
			},
			{
				"x": 1.6910385778,
				"y": -4.875465496,
				"z": 1.3756818345,
				"element": "C" 
			},
			{
				"x": 2.8540866693,
				"y": -5.5219700028,
				"z": 0.9806683723,
				"element": "C" 
			},
			{
				"x": 3.6034463848,
				"y": -5.0227498611,
				"z": -0.0993944075,
				"element": "C" 
			},
			{
				"x": 3.1944316596,
				"y": -3.8858481501,
				"z": -0.7803825292,
				"element": "C" 
			},
			{
				"x": 0.0345559681,
				"y": -3.0375154157,
				"z": 1.1113131484,
				"element": "C" 
			},
			{
				"x": -0.7078318739,
				"y": -3.3598236898,
				"z": 2.0260702318,
				"element": "O" 
			},
			{
				"x": -0.2423992759,
				"y": -1.90866971,
				"z": 0.3262373912,
				"element": "N" 
			},
			{
				"x": -2.8560361188,
				"y": 3.2510952313,
				"z": -2.1283879866,
				"element": "C" 
			},
			{
				"x": -3.9974614854,
				"y": 3.9785271555,
				"z": -1.8244074832,
				"element": "C" 
			},
			{
				"x": -5.1452104999,
				"y": 2.1388002194,
				"z": 0.8014795334,
				"element": "H" 
			},
			{
				"x": -3.090226811,
				"y": 0.8212682509,
				"z": 0.2612994308,
				"element": "H" 
			},
			{
				"x": -0.8100706147,
				"y": 1.7587044788,
				"z": -2.5030803258,
				"element": "H" 
			},
			{
				"x": 1.0903940564,
				"y": -5.2348453753,
				"z": 2.2046942769,
				"element": "H" 
			},
			{
				"x": 3.1864346907,
				"y": -6.4128749783,
				"z": 1.504405995,
				"element": "H" 
			},
			{
				"x": 4.5126946624,
				"y": -5.5327451778,
				"z": -0.4040956196,
				"element": "H" 
			},
			{
				"x": 3.7595270822,
				"y": -3.4862355729,
				"z": -1.6157018642,
				"element": "H" 
			},
			{
				"x": -1.0783588555,
				"y": -1.384169414,
				"z": 0.5561288542,
				"element": "H" 
			},
			{
				"x": -2.2165803335,
				"y": 3.5641782904,
				"z": -2.9489936736,
				"element": "H" 
			},
			{
				"x": -4.2730466054,
				"y": 4.8605365709,
				"z": -2.3884506877,
				"element": "H" 
			}
		],
		 "valence_orbital": [ 
			{
				"type": "occ",
				"energy": -0.29606,
				"method": "rhf"
			},
			{
				"type": "occ",
				"energy": -0.27567,
				"method": "rhf"
			},
			{
				"type": "occ",
				"energy": -0.27227,
				"method": "rhf"
			},
			{
				"type": "occ",
				"energy": -0.26327,
				"method": "rhf"
			},
			{
				"type": "occ",
				"energy": -0.23611,
				"method": "rhf"
			},
			{
				"type": "unocc",
				"energy": -0.11591,
				"method": "rhf"
			},
			{
				"type": "unocc",
				"energy": -0.0844,
				"method": "rhf"
			},
			{
				"type": "unocc",
				"energy": -0.0521,
				"method": "rhf"
			},
			{
				"type": "unocc",
				"energy": -0.04431,
				"method": "rhf"
			},
			{
				"type": "unocc",
				"energy": -0.03432,
				"method": "rhf"
			}
		],
		"cosmo_sigma_profile": { 
			"-0.025": 0.0,
			"-0.024": 0.0,
			"-0.023": 0.0,
			"-0.022": 0.0,
			"-0.021": 0.0,
			"-0.02": 0.0,
			"-0.019": 0.0,
			"-0.018": 0.0,
			"-0.017": 0.0,
			"-0.016": 0.934363020358,
			"-0.015": 1.39598484739,
			"-0.014": 1.23141889805,
			"-0.013": 1.96455903823,
			"-0.012": 2.07057160781,
			"-0.011": 2.32106120239,
			"-0.01": 2.9032343475,
			"-0.009": 3.8540434852,
			"-0.008": 8.15634813043,
			"-0.007": 13.3015732113,
			"-0.006": 17.8632487549,
			"-0.005": 20.0648352805,
			"-0.004": 26.6251239372,
			"-0.003": 22.9298364154,
			"-0.002": 24.8603221287,
			"-0.001": 24.6412154208,
			"0.0": 27.7288325501,
			"0.001": 25.8470978286,
			"0.002": 20.9199065689,
			"0.003": 17.8680994712,
			"0.004": 9.80974634947,
			"0.005": 8.85786953196,
			"0.006": 8.49742721615,
			"0.007": 13.7945268346,
			"0.008": 13.47753373,
			"0.009": 8.86310081461,
			"0.01": 9.10767631199,
			"0.011": 5.58187872169,
			"0.012": 5.16674381413,
			"0.013": 3.81104468803,
			"0.014": 0.0972111623554,
			"0.015": 0.0,
			"0.016": 0.0,
			"0.017": 0.0,
			"0.018": 0.0,
			"0.019": 0.0,
			"0.02": 0.0,
			"0.021": 0.0,
			"0.022": 0.0,
			"0.023": 0.0,
			"0.024": 0.0,
			"0.025": 0.0
		}
	}
}
