{
	 "smiles": "BrCC1=C(COC2=CC=CC=C2)C=CC=C1", 
	 "Tm": 329.15, 
	 "num_atms": 29, 
	 "gaussian": { 
		 "optdone": 1, 
		 "sigma_profile": "yes", 
		 "theory": "DFT", 
		 "functional": "B3LYP", 
		 "basiset": "6-31G**", 
		 "properties": { 
			 "R2extent": 5862.7308, 
			 "electric_dipole_moment_norm": 2.66075715164, 
			 "electric_quadrupole_moment_norm": 9.01709717259, 
			 "total_energy": -3187.94924656, 
			 "HOMO_LUMO_gap": 0.17718, 
			 "cosmo_polarized_energy": -8.93, 
			 "cosmo_cavitation_energy": 34.38, 
			 "cosmo_dispersion_energy": -24.55, 
			 "cosmo_repulsion_energy": 1.92, 
			 "cosmo_total_nonelectrostatic_energy": 11.75, 
			 "SMD_solvation_energy": 4.72 
		},
		"coords": [
			{
				"x": -1.2825569657,
				"y": 1.930496239,
				"z": -3.4988625283,
				"element": "Br" 
			},
			{
				"x": -1.5172777747,
				"y": 0.2867715788,
				"z": -2.3575881582,
				"element": "C" 
			},
			{
				"x": -1.9715575503,
				"y": 0.6343298398,
				"z": -0.9753677099,
				"element": "C" 
			},
			{
				"x": -1.0644114291,
				"y": 1.0363121571,
				"z": 0.030500508,
				"element": "C" 
			},
			{
				"x": 0.4211881513,
				"y": 1.1758941678,
				"z": -0.2487613231,
				"element": "C" 
			},
			{
				"x": 1.0533552865,
				"y": -0.0116903478,
				"z": -0.7421188369,
				"element": "O" 
			},
			{
				"x": 1.4102537873,
				"y": -1.0186262027,
				"z": 0.1179517961,
				"element": "C" 
			},
			{
				"x": 2.1046040982,
				"y": -2.0843377158,
				"z": -0.473684035,
				"element": "C" 
			},
			{
				"x": 2.5306557134,
				"y": -3.1557993679,
				"z": 0.3037184956,
				"element": "C" 
			},
			{
				"x": 2.2740931188,
				"y": -3.1819919696,
				"z": 1.678666527,
				"element": "C" 
			},
			{
				"x": 1.5822442472,
				"y": -2.1218690188,
				"z": 2.2597847348,
				"element": "C" 
			},
			{
				"x": 1.1442967913,
				"y": -1.0382635389,
				"z": 1.4912512314,
				"element": "C" 
			},
			{
				"x": -1.561793673,
				"y": 1.3757863392,
				"z": 1.2921635758,
				"element": "C" 
			},
			{
				"x": -2.9261349331,
				"y": 1.3103455546,
				"z": 1.5798604988,
				"element": "C" 
			},
			{
				"x": -3.8180907054,
				"y": 0.8953659461,
				"z": 0.5927647742,
				"element": "C" 
			},
			{
				"x": -3.3376382359,
				"y": 0.564858624,
				"z": -0.6736377411,
				"element": "C" 
			},
			{
				"x": -0.5422377128,
				"y": -0.1893203386,
				"z": -2.3848649594,
				"element": "H" 
			},
			{
				"x": -2.2538515345,
				"y": -0.3047114032,
				"z": -2.897090123,
				"element": "H" 
			},
			{
				"x": 0.9421327856,
				"y": 1.5375716671,
				"z": 0.6455596814,
				"element": "H" 
			},
			{
				"x": 0.5784896148,
				"y": 1.9048508407,
				"z": -1.0493770231,
				"element": "H" 
			},
			{
				"x": 2.303128177,
				"y": -2.0444659971,
				"z": -1.5399514614,
				"element": "H" 
			},
			{
				"x": 3.0692472845,
				"y": -3.9738800044,
				"z": -0.1663296817,
				"element": "H" 
			},
			{
				"x": 2.6075697874,
				"y": -4.0187625997,
				"z": 2.2844414966,
				"element": "H" 
			},
			{
				"x": 1.3696764737,
				"y": -2.1298957745,
				"z": 3.325281342,
				"element": "H" 
			},
			{
				"x": 0.5898926979,
				"y": -0.2386619679,
				"z": 1.9645576545,
				"element": "H" 
			},
			{
				"x": -0.8682378303,
				"y": 1.7021697851,
				"z": 2.0637376198,
				"element": "H" 
			},
			{
				"x": -3.2857297935,
				"y": 1.5771900362,
				"z": 2.5691942947,
				"element": "H" 
			},
			{
				"x": -4.8814852075,
				"y": 0.8327895691,
				"z": 0.8034929878,
				"element": "H" 
			},
			{
				"x": -4.0327246692,
				"y": 0.2556439024,
				"z": -1.4499936372,
				"element": "H" 
			}
		],
		 "valence_orbital": [ 
			{
				"type": "occ",
				"energy": -0.26826,
				"method": "rhf"
			},
			{
				"type": "occ",
				"energy": -0.26109,
				"method": "rhf"
			},
			{
				"type": "occ",
				"energy": -0.25205,
				"method": "rhf"
			},
			{
				"type": "occ",
				"energy": -0.24876,
				"method": "rhf"
			},
			{
				"type": "occ",
				"energy": -0.2198,
				"method": "rhf"
			},
			{
				"type": "unocc",
				"energy": -0.04262,
				"method": "rhf"
			},
			{
				"type": "unocc",
				"energy": -0.01652,
				"method": "rhf"
			},
			{
				"type": "unocc",
				"energy": -0.00022,
				"method": "rhf"
			},
			{
				"type": "unocc",
				"energy": 0.01313,
				"method": "rhf"
			},
			{
				"type": "unocc",
				"energy": 0.02576,
				"method": "rhf"
			}
		],
		"cosmo_sigma_profile": { 
			"-0.025": 0.0,
			"-0.024": 0.0,
			"-0.023": 0.0,
			"-0.022": 0.0,
			"-0.021": 0.0,
			"-0.02": 0.0,
			"-0.019": 0.0,
			"-0.018": 0.0,
			"-0.017": 0.0,
			"-0.016": 0.0,
			"-0.015": 0.0,
			"-0.014": 0.0,
			"-0.013": 0.0,
			"-0.012": 0.0,
			"-0.011": 0.0,
			"-0.01": 0.0421693004509,
			"-0.009": 0.683653422289,
			"-0.008": 2.78656926212,
			"-0.007": 7.10470695355,
			"-0.006": 14.8354797982,
			"-0.005": 22.3374617473,
			"-0.004": 25.345021487,
			"-0.003": 21.9355038909,
			"-0.002": 16.6581086571,
			"-0.001": 17.9475244977,
			"0.0": 16.0201367917,
			"0.001": 18.5416683619,
			"0.002": 19.163863113,
			"0.003": 20.7398083479,
			"0.004": 26.1682849672,
			"0.005": 22.0935447002,
			"0.006": 19.2738206708,
			"0.007": 4.71739475393,
			"0.008": 0.518947452049,
			"0.009": 0.942905121483,
			"0.01": 0.125997252338,
			"0.011": 0.0,
			"0.012": 0.0,
			"0.013": 0.0,
			"0.014": 0.0,
			"0.015": 0.0,
			"0.016": 0.0,
			"0.017": 0.0,
			"0.018": 0.0,
			"0.019": 0.0,
			"0.02": 0.0,
			"0.021": 0.0,
			"0.022": 0.0,
			"0.023": 0.0,
			"0.024": 0.0,
			"0.025": 0.0
		}
	}
}
