{
	 "smiles": "OCCOCCN1C(=O)C2=CC=CC=C2C1=O", 
	 "Tm": 337.15, 
	 "num_atms": 30, 
	 "gaussian": { 
		 "optdone": 1, 
		 "sigma_profile": "yes", 
		 "theory": "DFT", 
		 "functional": "B3LYP", 
		 "basiset": "6-31G**", 
		 "properties": { 
			 "R2extent": 4765.0171, 
			 "electric_dipole_moment_norm": 3.37196645001, 
			 "electric_quadrupole_moment_norm": 16.5423299532, 
			 "total_energy": -820.774233888, 
			 "HOMO_LUMO_gap": 0.14674, 
			 "cosmo_polarized_energy": -13.24, 
			 "cosmo_cavitation_energy": 33.07, 
			 "cosmo_dispersion_energy": -23.89, 
			 "cosmo_repulsion_energy": 1.82, 
			 "cosmo_total_nonelectrostatic_energy": 11.01, 
			 "SMD_solvation_energy": 6.25 
		},
		"coords": [
			{
				"x": 1.1697702079,
				"y": -0.7615026875,
				"z": -2.644020397,
				"element": "O" 
			},
			{
				"x": 2.3455894745,
				"y": -1.4053820477,
				"z": -2.1902564811,
				"element": "C" 
			},
			{
				"x": 3.3001818758,
				"y": -0.4691566415,
				"z": -1.4562264717,
				"element": "C" 
			},
			{
				"x": 2.8073881399,
				"y": -0.0618254526,
				"z": -0.1797112465,
				"element": "O" 
			},
			{
				"x": 2.4250212673,
				"y": 1.2915351767,
				"z": -0.0392402197,
				"element": "C" 
			},
			{
				"x": 0.9297707679,
				"y": 1.5272438234,
				"z": -0.2860412136,
				"element": "C" 
			},
			{
				"x": 0.0922388176,
				"y": 0.8661270831,
				"z": 0.7115434344,
				"element": "N" 
			},
			{
				"x": -0.5417985676,
				"y": -0.3667425894,
				"z": 0.5639380938,
				"element": "C" 
			},
			{
				"x": -0.5480333686,
				"y": -1.0696752426,
				"z": -0.4356003771,
				"element": "O" 
			},
			{
				"x": -1.2329614687,
				"y": -0.6352450255,
				"z": 1.8584718822,
				"element": "C" 
			},
			{
				"x": -2.0112294424,
				"y": -1.714813217,
				"z": 2.2485792927,
				"element": "C" 
			},
			{
				"x": -2.5402182448,
				"y": -1.6899235482,
				"z": 3.5464333529,
				"element": "C" 
			},
			{
				"x": -2.2910381697,
				"y": -0.6148458917,
				"z": 4.409097403,
				"element": "C" 
			},
			{
				"x": -1.5043228343,
				"y": 0.4719993317,
				"z": 4.003206455,
				"element": "C" 
			},
			{
				"x": -0.9847993768,
				"y": 0.4362917421,
				"z": 2.7178013892,
				"element": "C" 
			},
			{
				"x": -0.1253987325,
				"y": 1.4161617895,
				"z": 1.993319683,
				"element": "C" 
			},
			{
				"x": 0.31837033,
				"y": 2.4806283285,
				"z": 2.3732459312,
				"element": "O" 
			},
			{
				"x": 0.4865304658,
				"y": -0.8947135647,
				"z": -1.964274675,
				"element": "H" 
			},
			{
				"x": 2.8767924708,
				"y": -1.8006605592,
				"z": -3.0677032807,
				"element": "H" 
			},
			{
				"x": 2.1110973339,
				"y": -2.258215741,
				"z": -1.5375545048,
				"element": "H" 
			},
			{
				"x": 3.5028917913,
				"y": 0.4065624872,
				"z": -2.0883760649,
				"element": "H" 
			},
			{
				"x": 4.2525693079,
				"y": -0.9926647577,
				"z": -1.2881198988,
				"element": "H" 
			},
			{
				"x": 2.6696850598,
				"y": 1.5926698437,
				"z": 0.985380571,
				"element": "H" 
			},
			{
				"x": 2.9931611549,
				"y": 1.940089184,
				"z": -0.7225094115,
				"element": "H" 
			},
			{
				"x": 0.7185399124,
				"y": 2.5995435502,
				"z": -0.2297442934,
				"element": "H" 
			},
			{
				"x": 0.6514218481,
				"y": 1.1523876541,
				"z": -1.272118692,
				"element": "H" 
			},
			{
				"x": -2.198342235,
				"y": -2.5417372253,
				"z": 1.5713932647,
				"element": "H" 
			},
			{
				"x": -3.1537871457,
				"y": -2.5169798775,
				"z": 3.8907556314,
				"element": "H" 
			},
			{
				"x": -2.7152839379,
				"y": -0.6255954498,
				"z": 5.4085820318,
				"element": "H" 
			},
			{
				"x": -1.3054067018,
				"y": 1.3104395247,
				"z": 4.6627488115,
				"element": "H" 
			}
		],
		 "valence_orbital": [ 
			{
				"type": "occ",
				"energy": -0.28268,
				"method": "rhf"
			},
			{
				"type": "occ",
				"energy": -0.2813,
				"method": "rhf"
			},
			{
				"type": "occ",
				"energy": -0.27706,
				"method": "rhf"
			},
			{
				"type": "occ",
				"energy": -0.26229,
				"method": "rhf"
			},
			{
				"type": "occ",
				"energy": -0.23572,
				"method": "rhf"
			},
			{
				"type": "unocc",
				"energy": -0.08898,
				"method": "rhf"
			},
			{
				"type": "unocc",
				"energy": -0.04576,
				"method": "rhf"
			},
			{
				"type": "unocc",
				"energy": 0.02211,
				"method": "rhf"
			},
			{
				"type": "unocc",
				"energy": 0.06625,
				"method": "rhf"
			},
			{
				"type": "unocc",
				"energy": 0.08266,
				"method": "rhf"
			}
		],
		"cosmo_sigma_profile": { 
			"-0.025": 0.0,
			"-0.024": 0.0,
			"-0.023": 0.0,
			"-0.022": 0.0,
			"-0.021": 0.0,
			"-0.02": 0.0,
			"-0.019": 0.0,
			"-0.018": 0.0,
			"-0.017": 0.0,
			"-0.016": 0.0,
			"-0.015": 0.0,
			"-0.014": 0.0,
			"-0.013": 0.0,
			"-0.012": 0.0,
			"-0.011": 0.0,
			"-0.01": 0.0,
			"-0.009": 0.0,
			"-0.008": 2.39274794939,
			"-0.007": 8.56278882816,
			"-0.006": 14.1008871125,
			"-0.005": 20.2240616592,
			"-0.004": 27.5280731588,
			"-0.003": 30.9394970985,
			"-0.002": 21.2748740261,
			"-0.001": 20.0708110845,
			"0.0": 18.7832576705,
			"0.001": 19.5530393035,
			"0.002": 17.3677304286,
			"0.003": 7.86737575036,
			"0.004": 7.58688239347,
			"0.005": 5.43537306373,
			"0.006": 5.37617447937,
			"0.007": 4.90135381989,
			"0.008": 5.32068609054,
			"0.009": 4.69411076324,
			"0.01": 5.76236648968,
			"0.011": 6.91958121309,
			"0.012": 2.82446670868,
			"0.013": 2.20411889274,
			"0.014": 1.20317955445,
			"0.015": 1.98204115165,
			"0.016": 0.06595460159,
			"0.017": 0.0,
			"0.018": 0.0,
			"0.019": 0.0,
			"0.02": 0.0,
			"0.021": 0.0,
			"0.022": 0.0,
			"0.023": 0.0,
			"0.024": 0.0,
			"0.025": 0.0
		}
	}
}
