{
	 "smiles": "[O-][N+](=O)C1=CC=C(OC2=CC=C(Cl)C=C2Cl)C=C1", 
	 "Tm": 343.35, 
	 "num_atms": 25, 
	 "gaussian": { 
		 "optdone": 1, 
		 "sigma_profile": "yes", 
		 "theory": "DFT", 
		 "functional": "B3LYP", 
		 "basiset": "6-31G**", 
		 "properties": { 
			 "R2extent": 8020.9016, 
			 "electric_dipole_moment_norm": 4.62895851893, 
			 "electric_quadrupole_moment_norm": 26.9792242103, 
			 "total_energy": -1662.19093398, 
			 "HOMO_LUMO_gap": 0.17449, 
			 "cosmo_polarized_energy": -11.01, 
			 "cosmo_cavitation_energy": 35.02, 
			 "cosmo_dispersion_energy": -25.02, 
			 "cosmo_repulsion_energy": 1.94, 
			 "cosmo_total_nonelectrostatic_energy": 11.95, 
			 "SMD_solvation_energy": 7.89 
		},
		"coords": [
			{
				"x": -4.9449210883,
				"y": -2.786422427,
				"z": 0.0569467913,
				"element": "O" 
			},
			{
				"x": -4.3729195514,
				"y": -2.1350813815,
				"z": -0.8181917965,
				"element": "N" 
			},
			{
				"x": -4.7442429073,
				"y": -2.0603777844,
				"z": -1.9903936314,
				"element": "O" 
			},
			{
				"x": -3.1667394778,
				"y": -1.3967895307,
				"z": -0.4372746766,
				"element": "C" 
			},
			{
				"x": -2.4936791978,
				"y": -0.6506468513,
				"z": -1.4022191198,
				"element": "C" 
			},
			{
				"x": -1.3486383541,
				"y": 0.0546738047,
				"z": -1.0450147348,
				"element": "C" 
			},
			{
				"x": -0.8953701167,
				"y": -0.0006087222,
				"z": 0.278180817,
				"element": "C" 
			},
			{
				"x": 0.2193661795,
				"y": 0.6606272556,
				"z": 0.731893106,
				"element": "O" 
			},
			{
				"x": 0.9542715636,
				"y": 1.4567383451,
				"z": -0.1230939306,
				"element": "C" 
			},
			{
				"x": 0.6260040014,
				"y": 2.8051779629,
				"z": -0.266316762,
				"element": "C" 
			},
			{
				"x": 1.4075541536,
				"y": 3.6464681212,
				"z": -1.0548078591,
				"element": "C" 
			},
			{
				"x": 2.5284377477,
				"y": 3.1214922822,
				"z": -1.6988405839,
				"element": "C" 
			},
			{
				"x": 3.524457686,
				"y": 4.1661978032,
				"z": -2.6923685233,
				"element": "Cl" 
			},
			{
				"x": 2.8782211765,
				"y": 1.778564199,
				"z": -1.5658863593,
				"element": "C" 
			},
			{
				"x": 2.084688201,
				"y": 0.9465257479,
				"z": -0.7752435512,
				"element": "C" 
			},
			{
				"x": 2.515067482,
				"y": -0.7345171997,
				"z": -0.595812473,
				"element": "Cl" 
			},
			{
				"x": -1.5777213382,
				"y": -0.7560129775,
				"z": 1.2421484728,
				"element": "C" 
			},
			{
				"x": -2.718871504,
				"y": -1.4578158745,
				"z": 0.8844603274,
				"element": "C" 
			},
			{
				"x": -2.8717340572,
				"y": -0.6317414823,
				"z": -2.4167090463,
				"element": "H" 
			},
			{
				"x": -0.8152517851,
				"y": 0.6378963988,
				"z": -1.7859668885,
				"element": "H" 
			},
			{
				"x": -0.2447758669,
				"y": 3.1861045655,
				"z": 0.2568906043,
				"element": "H" 
			},
			{
				"x": 1.1546112651,
				"y": 4.6944501577,
				"z": -1.1649966358,
				"element": "H" 
			},
			{
				"x": 3.7529597928,
				"y": 1.3806099157,
				"z": -2.0653073768,
				"element": "H" 
			},
			{
				"x": -1.1959838049,
				"y": -0.7783893142,
				"z": 2.2567293976,
				"element": "H" 
			},
			{
				"x": -3.2685901994,
				"y": -2.0501230142,
				"z": 1.6049944323,
				"element": "H" 
			}
		],
		 "valence_orbital": [ 
			{
				"type": "occ",
				"energy": -0.28804,
				"method": "rhf"
			},
			{
				"type": "occ",
				"energy": -0.285,
				"method": "rhf"
			},
			{
				"type": "occ",
				"energy": -0.2822,
				"method": "rhf"
			},
			{
				"type": "occ",
				"energy": -0.26537,
				"method": "rhf"
			},
			{
				"type": "occ",
				"energy": -0.25998,
				"method": "rhf"
			},
			{
				"type": "unocc",
				"energy": -0.08549,
				"method": "rhf"
			},
			{
				"type": "unocc",
				"energy": -0.04698,
				"method": "rhf"
			},
			{
				"type": "unocc",
				"energy": -0.04116,
				"method": "rhf"
			},
			{
				"type": "unocc",
				"energy": -0.03133,
				"method": "rhf"
			},
			{
				"type": "unocc",
				"energy": -0.0094,
				"method": "rhf"
			}
		],
		"cosmo_sigma_profile": { 
			"-0.025": 0.0,
			"-0.024": 0.0,
			"-0.023": 0.0,
			"-0.022": 0.0,
			"-0.021": 0.0,
			"-0.02": 0.0,
			"-0.019": 0.0,
			"-0.018": 0.0,
			"-0.017": 0.0,
			"-0.016": 0.0,
			"-0.015": 0.0,
			"-0.014": 0.0,
			"-0.013": 0.0,
			"-0.012": 0.0,
			"-0.011": 0.0,
			"-0.01": 0.0,
			"-0.009": 1.86490642591,
			"-0.008": 9.03142143555,
			"-0.007": 12.3401481975,
			"-0.006": 13.3978675883,
			"-0.005": 12.630603936,
			"-0.004": 12.6763626083,
			"-0.003": 15.1888370306,
			"-0.002": 18.4728732386,
			"-0.001": 24.2673971196,
			"0.0": 36.3994411542,
			"0.001": 35.9708687493,
			"0.002": 21.3990713978,
			"0.003": 20.1549321925,
			"0.004": 17.184573073,
			"0.005": 6.64874421068,
			"0.006": 4.62490403973,
			"0.007": 7.20547047424,
			"0.008": 8.85537518807,
			"0.009": 4.94719893654,
			"0.01": 3.43952797992,
			"0.011": 0.571949182821,
			"0.012": 0.0,
			"0.013": 0.0,
			"0.014": 0.0,
			"0.015": 0.0,
			"0.016": 0.0,
			"0.017": 0.0,
			"0.018": 0.0,
			"0.019": 0.0,
			"0.02": 0.0,
			"0.021": 0.0,
			"0.022": 0.0,
			"0.023": 0.0,
			"0.024": 0.0,
			"0.025": 0.0
		}
	}
}
