{
	 "smiles": "CCOC(=O)C1(CCN(CCC2=CC=C(N)C=C2)CC1)C1=CC=CC=C1", 
	 "Tm": 356.15, 
	 "num_atms": 54, 
	 "gaussian": { 
		 "optdone": 1, 
		 "sigma_profile": "yes", 
		 "theory": "DFT", 
		 "functional": "B3LYP", 
		 "basiset": "6-31G**", 
		 "properties": { 
			 "R2extent": 10484.2573, 
			 "electric_dipole_moment_norm": 2.98095550621, 
			 "electric_quadrupole_moment_norm": 8.94401377123, 
			 "total_energy": -1115.18029306, 
			 "HOMO_LUMO_gap": 0.18927, 
			 "cosmo_polarized_energy": -15.64, 
			 "cosmo_cavitation_energy": 53.53, 
			 "cosmo_dispersion_energy": -34.36, 
			 "cosmo_repulsion_energy": 2.59, 
			 "cosmo_total_nonelectrostatic_energy": 21.77, 
			 "SMD_solvation_energy": 8.19 
		},
		"coords": [
			{
				"x": 1.961470528,
				"y": -3.0756058448,
				"z": 1.2470650018,
				"element": "C" 
			},
			{
				"x": 0.9492457919,
				"y": -3.0284497506,
				"z": 0.1180471105,
				"element": "C" 
			},
			{
				"x": 0.8430462238,
				"y": -1.6549712942,
				"z": -0.3238946875,
				"element": "O" 
			},
			{
				"x": 0.0589962138,
				"y": -1.4543069294,
				"z": -1.4092209384,
				"element": "C" 
			},
			{
				"x": -0.5355574807,
				"y": -2.3572061527,
				"z": -1.9610325622,
				"element": "O" 
			},
			{
				"x": 0.0825521343,
				"y": -0.0022204492,
				"z": -1.9285078407,
				"element": "C" 
			},
			{
				"x": -1.2426010779,
				"y": 0.2247248112,
				"z": -2.6846775758,
				"element": "C" 
			},
			{
				"x": -2.4650331387,
				"y": 0.0215752979,
				"z": -1.7610905971,
				"element": "C" 
			},
			{
				"x": -2.0980098609,
				"y": 0.1911820334,
				"z": -0.3510743869,
				"element": "N" 
			},
			{
				"x": -3.2583458692,
				"y": 0.1534794962,
				"z": 0.5396553107,
				"element": "C" 
			},
			{
				"x": -2.9943971917,
				"y": -0.5364564505,
				"z": 1.8972110663,
				"element": "C" 
			},
			{
				"x": -2.0781671167,
				"y": 0.186959765,
				"z": 2.8610558733,
				"element": "C" 
			},
			{
				"x": -2.5714658078,
				"y": 1.1641252591,
				"z": 3.7368954101,
				"element": "C" 
			},
			{
				"x": -1.7372324817,
				"y": 1.8463753543,
				"z": 4.6189871183,
				"element": "C" 
			},
			{
				"x": -0.3607609731,
				"y": 1.5685291286,
				"z": 4.6601970437,
				"element": "C" 
			},
			{
				"x": 0.4727198165,
				"y": 2.2032353265,
				"z": 5.5873909676,
				"element": "N" 
			},
			{
				"x": 0.1434754593,
				"y": 0.5894139418,
				"z": 3.7879375621,
				"element": "C" 
			},
			{
				"x": -0.703724387,
				"y": -0.0854284237,
				"z": 2.912079304,
				"element": "C" 
			},
			{
				"x": -1.2379750023,
				"y": 1.3651412403,
				"z": -0.2012319502,
				"element": "C" 
			},
			{
				"x": 0.1567854851,
				"y": 1.0537418969,
				"z": -0.7832067881,
				"element": "C" 
			},
			{
				"x": 1.3279490878,
				"y": 0.1168250939,
				"z": -2.8318424637,
				"element": "C" 
			},
			{
				"x": 1.2361183083,
				"y": 0.3508699159,
				"z": -4.2104327585,
				"element": "C" 
			},
			{
				"x": 2.3834410715,
				"y": 0.4763821638,
				"z": -4.9981872333,
				"element": "C" 
			},
			{
				"x": 3.648843292,
				"y": 0.3666979878,
				"z": -4.425028943,
				"element": "C" 
			},
			{
				"x": 3.7565042054,
				"y": 0.1286625864,
				"z": -3.0533644754,
				"element": "C" 
			},
			{
				"x": 2.6113065255,
				"y": 0.0050144335,
				"z": -2.268636583,
				"element": "C" 
			},
			{
				"x": 1.6421185648,
				"y": -2.4615045054,
				"z": 2.094268317,
				"element": "H" 
			},
			{
				"x": 2.9396791356,
				"y": -2.7190013211,
				"z": 0.9111902959,
				"element": "H" 
			},
			{
				"x": 2.0748604123,
				"y": -4.1061930183,
				"z": 1.5981094901,
				"element": "H" 
			},
			{
				"x": 1.2519673635,
				"y": -3.6486539442,
				"z": -0.7307934676,
				"element": "H" 
			},
			{
				"x": -0.0399509442,
				"y": -3.3705964102,
				"z": 0.4383739767,
				"element": "H" 
			},
			{
				"x": -1.2316495382,
				"y": 1.2449490988,
				"z": -3.0834190204,
				"element": "H" 
			},
			{
				"x": -1.3241202252,
				"y": -0.4605475125,
				"z": -3.5304587025,
				"element": "H" 
			},
			{
				"x": -3.2614124262,
				"y": 0.7295464943,
				"z": -2.0625584182,
				"element": "H" 
			},
			{
				"x": -2.8576925706,
				"y": -0.9917165727,
				"z": -1.887672323,
				"element": "H" 
			},
			{
				"x": -3.6763975244,
				"y": 1.1633007593,
				"z": 0.7045180828,
				"element": "H" 
			},
			{
				"x": -4.0419534883,
				"y": -0.4235829019,
				"z": 0.0352033111,
				"element": "H" 
			},
			{
				"x": -2.5940972446,
				"y": -1.5339812202,
				"z": 1.6843148065,
				"element": "H" 
			},
			{
				"x": -3.9709556084,
				"y": -0.6828431295,
				"z": 2.3774297536,
				"element": "H" 
			},
			{
				"x": -3.6342991074,
				"y": 1.3969674135,
				"z": 3.7331004725,
				"element": "H" 
			},
			{
				"x": -2.1532870609,
				"y": 2.5927744466,
				"z": 5.2918994954,
				"element": "H" 
			},
			{
				"x": 0.1454733633,
				"y": 3.1061339774,
				"z": 5.9034723153,
				"element": "H" 
			},
			{
				"x": 1.4495368664,
				"y": 2.233562859,
				"z": 5.3282862711,
				"element": "H" 
			},
			{
				"x": 1.2051700719,
				"y": 0.3530937192,
				"z": 3.8054473223,
				"element": "H" 
			},
			{
				"x": -0.2856389566,
				"y": -0.8242616624,
				"z": 2.2337428338,
				"element": "H" 
			},
			{
				"x": -1.6816922296,
				"y": 2.2480243777,
				"z": -0.7032930216,
				"element": "H" 
			},
			{
				"x": -1.1501906489,
				"y": 1.6171776752,
				"z": 0.8558638765,
				"element": "H" 
			},
			{
				"x": 0.602318995,
				"y": 1.9699937384,
				"z": -1.1843352977,
				"element": "H" 
			},
			{
				"x": 0.8170503986,
				"y": 0.6910846225,
				"z": 0.0064611336,
				"element": "H" 
			},
			{
				"x": 0.2670286154,
				"y": 0.4405384666,
				"z": -4.6869221362,
				"element": "H" 
			},
			{
				"x": 2.2813649914,
				"y": 0.6593016464,
				"z": -6.0643717006,
				"element": "H" 
			},
			{
				"x": 4.5403911794,
				"y": 0.4632933379,
				"z": -5.038009696,
				"element": "H" 
			},
			{
				"x": 4.735725833,
				"y": 0.0374255528,
				"z": -2.5911065281,
				"element": "H" 
			},
			{
				"x": 2.7123680276,
				"y": -0.1910764246,
				"z": -1.206733427,
				"element": "H" 
			}
		],
		 "valence_orbital": [ 
			{
				"type": "occ",
				"energy": -0.24478,
				"method": "rhf"
			},
			{
				"type": "occ",
				"energy": -0.24227,
				"method": "rhf"
			},
			{
				"type": "occ",
				"energy": -0.23605,
				"method": "rhf"
			},
			{
				"type": "occ",
				"energy": -0.20527,
				"method": "rhf"
			},
			{
				"type": "occ",
				"energy": -0.19303,
				"method": "rhf"
			},
			{
				"type": "unocc",
				"energy": -0.00376,
				"method": "rhf"
			},
			{
				"type": "unocc",
				"energy": 0.00285,
				"method": "rhf"
			},
			{
				"type": "unocc",
				"energy": 0.00523,
				"method": "rhf"
			},
			{
				"type": "unocc",
				"energy": 0.01939,
				"method": "rhf"
			},
			{
				"type": "unocc",
				"energy": 0.03643,
				"method": "rhf"
			}
		],
		"cosmo_sigma_profile": { 
			"-0.025": 0.0,
			"-0.024": 0.0,
			"-0.023": 0.0,
			"-0.022": 0.0,
			"-0.021": 0.0,
			"-0.02": 0.0,
			"-0.019": 0.0,
			"-0.018": 0.0,
			"-0.017": 0.0,
			"-0.016": 0.0,
			"-0.015": 0.0,
			"-0.014": 0.0,
			"-0.013": 0.00536877681036,
			"-0.012": 1.85033024084,
			"-0.011": 2.36609904618,
			"-0.01": 2.76801844469,
			"-0.009": 3.55081328502,
			"-0.008": 2.50001879397,
			"-0.007": 3.15146411184,
			"-0.006": 5.77997456499,
			"-0.005": 18.0890977029,
			"-0.004": 30.328552828,
			"-0.003": 50.0674416904,
			"-0.002": 51.836492637,
			"-0.001": 51.2120938043,
			"0.0": 42.949953983,
			"0.001": 25.8572566071,
			"0.002": 19.8553976321,
			"0.003": 20.2894302361,
			"0.004": 18.5692204666,
			"0.005": 18.968644713,
			"0.006": 18.1687044893,
			"0.007": 10.0836516842,
			"0.008": 4.8282108901,
			"0.009": 2.95907987574,
			"0.01": 2.32642868487,
			"0.011": 2.86194428254,
			"0.012": 4.49216211783,
			"0.013": 2.07071456344,
			"0.014": 0.526809064973,
			"0.015": 0.734329343027,
			"0.016": 0.0,
			"0.017": 0.0,
			"0.018": 0.0,
			"0.019": 0.0,
			"0.02": 0.0,
			"0.021": 0.0,
			"0.022": 0.0,
			"0.023": 0.0,
			"0.024": 0.0,
			"0.025": 0.0
		}
	}
}
