{
	 "smiles": "CC(C)C1CCCCC1", 
	 "Tm": 183.75, 
	 "num_atms": 27, 
	 "gaussian": { 
		 "optdone": 1, 
		 "sigma_profile": "yes", 
		 "theory": "DFT", 
		 "functional": "B3LYP", 
		 "basiset": "6-31G**", 
		 "properties": { 
			 "R2extent": 1770.3141, 
			 "electric_dipole_moment_norm": 0.0749095454532, 
			 "electric_quadrupole_moment_norm": 0.492272526148, 
			 "total_energy": -353.824939824, 
			 "HOMO_LUMO_gap": 0.35644, 
			 "cosmo_polarized_energy": -0.64, 
			 "cosmo_cavitation_energy": 25.35, 
			 "cosmo_dispersion_energy": -18.75, 
			 "cosmo_repulsion_energy": 1.52, 
			 "cosmo_total_nonelectrostatic_energy": 8.12, 
			 "SMD_solvation_energy": 3.6 
		},
		"coords": [
			{
				"x": -2.0353883325,
				"y": 0.3810893284,
				"z": 0.4267977741,
				"element": "C" 
			},
			{
				"x": -1.0624429076,
				"y": -0.81143972,
				"z": 0.4328821578,
				"element": "C" 
			},
			{
				"x": -1.5884710655,
				"y": -1.8919068755,
				"z": -0.5264352801,
				"element": "C" 
			},
			{
				"x": 0.3855471947,
				"y": -0.3494034502,
				"z": 0.0985036726,
				"element": "C" 
			},
			{
				"x": 0.9769263779,
				"y": 0.5830993909,
				"z": 1.209928392,
				"element": "C" 
			},
			{
				"x": 2.1585261519,
				"y": -0.0381957795,
				"z": 1.9821850512,
				"element": "C" 
			},
			{
				"x": 1.8693342594,
				"y": -1.5010203368,
				"z": 2.3430592293,
				"element": "C" 
			},
			{
				"x": 1.6700171968,
				"y": -2.3655453974,
				"z": 1.0695326659,
				"element": "C" 
			},
			{
				"x": 1.3703535944,
				"y": -1.5064150346,
				"z": -0.1751568636,
				"element": "C" 
			},
			{
				"x": -1.724235808,
				"y": 1.1820969703,
				"z": 1.1037106232,
				"element": "H" 
			},
			{
				"x": -2.1097112053,
				"y": 0.8101614574,
				"z": -0.5803797251,
				"element": "H" 
			},
			{
				"x": -3.0410921983,
				"y": 0.0677703456,
				"z": 0.7273240578,
				"element": "H" 
			},
			{
				"x": -1.0581242534,
				"y": -1.2370153759,
				"z": 1.4476488996,
				"element": "H" 
			},
			{
				"x": -1.5386768243,
				"y": -1.5505977934,
				"z": -1.5681892133,
				"element": "H" 
			},
			{
				"x": -2.6369044534,
				"y": -2.1223148015,
				"z": -0.3076021934,
				"element": "H" 
			},
			{
				"x": -1.0267344767,
				"y": -2.827312979,
				"z": -0.454106001,
				"element": "H" 
			},
			{
				"x": 0.30920721,
				"y": 0.2298148332,
				"z": -0.8331836367,
				"element": "H" 
			},
			{
				"x": 1.2897032848,
				"y": 1.5398013757,
				"z": 0.7758773156,
				"element": "H" 
			},
			{
				"x": 0.192834536,
				"y": 0.8265043267,
				"z": 1.9365017684,
				"element": "H" 
			},
			{
				"x": 3.0774519787,
				"y": 0.0166877894,
				"z": 1.3841266847,
				"element": "H" 
			},
			{
				"x": 2.3514208081,
				"y": 0.5489846906,
				"z": 2.8878062664,
				"element": "H" 
			},
			{
				"x": 0.9631804561,
				"y": -1.5319737767,
				"z": 2.9623394734,
				"element": "H" 
			},
			{
				"x": 2.6742160509,
				"y": -1.9117165531,
				"z": 2.9630435028,
				"element": "H" 
			},
			{
				"x": 2.5682153072,
				"y": -2.9632641226,
				"z": 0.8738387534,
				"element": "H" 
			},
			{
				"x": 0.8597993293,
				"y": -3.0855129516,
				"z": 1.2343880387,
				"element": "H" 
			},
			{
				"x": 1.0110894115,
				"y": -2.1396815772,
				"z": -0.9923600811,
				"element": "H" 
			},
			{
				"x": 2.3077583772,
				"y": -1.0663939832,
				"z": -0.5377813327,
				"element": "H" 
			}
		],
		 "valence_orbital": [ 
			{
				"type": "occ",
				"energy": -0.32748,
				"method": "rhf"
			},
			{
				"type": "occ",
				"energy": -0.31909,
				"method": "rhf"
			},
			{
				"type": "occ",
				"energy": -0.2891,
				"method": "rhf"
			},
			{
				"type": "occ",
				"energy": -0.28531,
				"method": "rhf"
			},
			{
				"type": "occ",
				"energy": -0.28253,
				"method": "rhf"
			},
			{
				"type": "unocc",
				"energy": 0.07391,
				"method": "rhf"
			},
			{
				"type": "unocc",
				"energy": 0.09831,
				"method": "rhf"
			},
			{
				"type": "unocc",
				"energy": 0.111,
				"method": "rhf"
			},
			{
				"type": "unocc",
				"energy": 0.12229,
				"method": "rhf"
			},
			{
				"type": "unocc",
				"energy": 0.13342,
				"method": "rhf"
			}
		],
		"cosmo_sigma_profile": { 
			"-0.025": 0.0,
			"-0.024": 0.0,
			"-0.023": 0.0,
			"-0.022": 0.0,
			"-0.021": 0.0,
			"-0.02": 0.0,
			"-0.019": 0.0,
			"-0.018": 0.0,
			"-0.017": 0.0,
			"-0.016": 0.0,
			"-0.015": 0.0,
			"-0.014": 0.0,
			"-0.013": 0.0,
			"-0.012": 0.0,
			"-0.011": 0.0,
			"-0.01": 0.0,
			"-0.009": 0.0,
			"-0.008": 0.0,
			"-0.007": 0.0,
			"-0.006": 0.0,
			"-0.005": 0.0,
			"-0.004": 0.0,
			"-0.003": 1.58060310037,
			"-0.002": 25.7908838806,
			"-0.001": 46.316265316,
			"0.0": 48.2640309608,
			"0.001": 41.1343184989,
			"0.002": 28.9047713428,
			"0.003": 1.35688400847,
			"0.004": 0.0,
			"0.005": 0.0,
			"0.006": 0.0,
			"0.007": 0.0,
			"0.008": 0.0,
			"0.009": 0.0,
			"0.01": 0.0,
			"0.011": 0.0,
			"0.012": 0.0,
			"0.013": 0.0,
			"0.014": 0.0,
			"0.015": 0.0,
			"0.016": 0.0,
			"0.017": 0.0,
			"0.018": 0.0,
			"0.019": 0.0,
			"0.02": 0.0,
			"0.021": 0.0,
			"0.022": 0.0,
			"0.023": 0.0,
			"0.024": 0.0,
			"0.025": 0.0
		}
	}
}
