{
	 "smiles": "CC1=C(CN)C=CC(=C1)N1CCNC(=O)C1", 
	 "Tm": 428.15, 
	 "num_atms": 33, 
	 "gaussian": { 
		 "optdone": 1, 
		 "sigma_profile": "yes", 
		 "theory": "DFT", 
		 "functional": "B3LYP", 
		 "basiset": "6-31G**", 
		 "properties": { 
			 "R2extent": 4765.8497, 
			 "electric_dipole_moment_norm": 4.44921910002, 
			 "electric_quadrupole_moment_norm": 17.2900017227, 
			 "total_energy": -707.006125775, 
			 "HOMO_LUMO_gap": 0.1932, 
			 "cosmo_polarized_energy": -17.23, 
			 "cosmo_cavitation_energy": 34.28, 
			 "cosmo_dispersion_energy": -25.07, 
			 "cosmo_repulsion_energy": 1.97, 
			 "cosmo_total_nonelectrostatic_energy": 11.19, 
			 "SMD_solvation_energy": 3.93 
		},
		"coords": [
			{
				"x": -0.9480921342,
				"y": -0.9372384262,
				"z": 3.2575769031,
				"element": "C" 
			},
			{
				"x": -0.9444437655,
				"y": -0.0319231211,
				"z": 2.0478697736,
				"element": "C" 
			},
			{
				"x": -1.1589974736,
				"y": 1.3586305405,
				"z": 2.1814263249,
				"element": "C" 
			},
			{
				"x": -1.3455114243,
				"y": 2.014845118,
				"z": 3.5320253628,
				"element": "C" 
			},
			{
				"x": -0.0961820851,
				"y": 1.9938435998,
				"z": 4.3136475681,
				"element": "N" 
			},
			{
				"x": -1.1762731718,
				"y": 2.1329538328,
				"z": 1.0206609153,
				"element": "C" 
			},
			{
				"x": -0.9771527796,
				"y": 1.5878903758,
				"z": -0.2474976856,
				"element": "C" 
			},
			{
				"x": -0.7597011838,
				"y": 0.2069136863,
				"z": -0.3947224804,
				"element": "C" 
			},
			{
				"x": -0.7593445822,
				"y": -0.5780896463,
				"z": 0.7783639226,
				"element": "C" 
			},
			{
				"x": -0.5920655904,
				"y": -0.3996560511,
				"z": -1.6487492039,
				"element": "N" 
			},
			{
				"x": -0.8097693782,
				"y": 0.3236124941,
				"z": -2.8875248666,
				"element": "C" 
			},
			{
				"x": 0.5007543106,
				"y": 0.8923273958,
				"z": -3.435472091,
				"element": "C" 
			},
			{
				"x": 1.4840470748,
				"y": -0.184108353,
				"z": -3.5046124388,
				"element": "N" 
			},
			{
				"x": 1.4714929391,
				"y": -1.3363866029,
				"z": -2.7706371122,
				"element": "C" 
			},
			{
				"x": 2.3459921103,
				"y": -2.1870650944,
				"z": -2.8658659076,
				"element": "O" 
			},
			{
				"x": 0.2783946283,
				"y": -1.5549319893,
				"z": -1.8274331164,
				"element": "C" 
			},
			{
				"x": -0.2615172466,
				"y": -0.5596888525,
				"z": 4.0202363511,
				"element": "H" 
			},
			{
				"x": -1.9447690439,
				"y": -0.9810420803,
				"z": 3.7159402182,
				"element": "H" 
			},
			{
				"x": -0.6633169663,
				"y": -1.9583896948,
				"z": 2.9900286908,
				"element": "H" 
			},
			{
				"x": -2.0994831624,
				"y": 1.4714606052,
				"z": 4.1165351019,
				"element": "H" 
			},
			{
				"x": -1.7509003679,
				"y": 3.0286690381,
				"z": 3.3723063844,
				"element": "H" 
			},
			{
				"x": -0.2391881735,
				"y": 2.4573837482,
				"z": 5.2083485395,
				"element": "H" 
			},
			{
				"x": 0.6186341572,
				"y": 2.5228897696,
				"z": 3.819500608,
				"element": "H" 
			},
			{
				"x": -1.3387531644,
				"y": 3.205689193,
				"z": 1.1051850877,
				"element": "H" 
			},
			{
				"x": -0.970931022,
				"y": 2.2507515983,
				"z": -1.1051782623,
				"element": "H" 
			},
			{
				"x": -0.644959128,
				"y": -1.6546073195,
				"z": 0.6982369795,
				"element": "H" 
			},
			{
				"x": -1.54758201,
				"y": 1.1136290531,
				"z": -2.7413414116,
				"element": "H" 
			},
			{
				"x": -1.2266554208,
				"y": -0.3762842431,
				"z": -3.6258211756,
				"element": "H" 
			},
			{
				"x": 0.8568992295,
				"y": 1.7087784571,
				"z": -2.7916922686,
				"element": "H" 
			},
			{
				"x": 0.3459319364,
				"y": 1.3019762958,
				"z": -4.4410018965,
				"element": "H" 
			},
			{
				"x": 2.3140528709,
				"y": -0.064355572,
				"z": -4.0706506218,
				"element": "H" 
			},
			{
				"x": 0.7092711082,
				"y": -1.8604305881,
				"z": -0.8743607133,
				"element": "H" 
			},
			{
				"x": -0.2745810908,
				"y": -2.4216471669,
				"z": -2.2204274794,
				"element": "H" 
			}
		],
		 "valence_orbital": [ 
			{
				"type": "occ",
				"energy": -0.25135,
				"method": "rhf"
			},
			{
				"type": "occ",
				"energy": -0.248,
				"method": "rhf"
			},
			{
				"type": "occ",
				"energy": -0.23444,
				"method": "rhf"
			},
			{
				"type": "occ",
				"energy": -0.23231,
				"method": "rhf"
			},
			{
				"type": "occ",
				"energy": -0.18685,
				"method": "rhf"
			},
			{
				"type": "unocc",
				"energy": 0.00635,
				"method": "rhf"
			},
			{
				"type": "unocc",
				"energy": 0.01357,
				"method": "rhf"
			},
			{
				"type": "unocc",
				"energy": 0.03042,
				"method": "rhf"
			},
			{
				"type": "unocc",
				"energy": 0.0765,
				"method": "rhf"
			},
			{
				"type": "unocc",
				"energy": 0.0904,
				"method": "rhf"
			}
		],
		"cosmo_sigma_profile": { 
			"-0.025": 0.0,
			"-0.024": 0.0,
			"-0.023": 0.0,
			"-0.022": 0.0,
			"-0.021": 0.0,
			"-0.02": 0.0,
			"-0.019": 0.0,
			"-0.018": 0.0,
			"-0.017": 0.0,
			"-0.016": 0.0,
			"-0.015": 0.0,
			"-0.014": 0.392290443942,
			"-0.013": 1.44934420898,
			"-0.012": 0.954229529816,
			"-0.011": 0.973125378889,
			"-0.01": 1.15222662427,
			"-0.009": 3.47180764221,
			"-0.008": 3.89313803622,
			"-0.007": 5.88200956981,
			"-0.006": 13.4527183663,
			"-0.005": 21.5205917205,
			"-0.004": 25.231845659,
			"-0.003": 29.1125847476,
			"-0.002": 23.313661384,
			"-0.001": 19.1210160976,
			"0.0": 17.0658737546,
			"0.001": 14.9881117474,
			"0.002": 12.1495219348,
			"0.003": 9.45635509191,
			"0.004": 8.6507965289,
			"0.005": 8.16987964163,
			"0.006": 10.0355396755,
			"0.007": 10.8395781631,
			"0.008": 3.92337655657,
			"0.009": 2.15262770227,
			"0.01": 2.54564765597,
			"0.011": 2.25731362749,
			"0.012": 2.69871070616,
			"0.013": 3.0760004405,
			"0.014": 7.02470454763,
			"0.015": 3.39174588538,
			"0.016": 0.0268678872388,
			"0.017": 0.0,
			"0.018": 0.0,
			"0.019": 0.0,
			"0.02": 0.0,
			"0.021": 0.0,
			"0.022": 0.0,
			"0.023": 0.0,
			"0.024": 0.0,
			"0.025": 0.0
		}
	}
}
