{
	 "smiles": "CC1=CC=C2C=C(F)C=CC2=N1", 
	 "Tm": 327.15, 
	 "num_atms": 20, 
	 "gaussian": { 
		 "optdone": 1, 
		 "sigma_profile": "yes", 
		 "theory": "DFT", 
		 "functional": "B3LYP", 
		 "basiset": "6-31G**", 
		 "properties": { 
			 "R2extent": 3577.1942, 
			 "electric_dipole_moment_norm": 1.80634999377, 
			 "electric_quadrupole_moment_norm": 6.70828324834, 
			 "total_energy": -540.486918898, 
			 "HOMO_LUMO_gap": 0.17791, 
			 "cosmo_polarized_energy": -6.46, 
			 "cosmo_cavitation_energy": 24.4, 
			 "cosmo_dispersion_energy": -18.1, 
			 "cosmo_repulsion_energy": 1.4, 
			 "cosmo_total_nonelectrostatic_energy": 7.7, 
			 "SMD_solvation_energy": 3.18 
		},
		"coords": [
			{
				"x": 0.5161516777,
				"y": -0.0872546935,
				"z": 1.9327034109,
				"element": "C" 
			},
			{
				"x": 0.6395754087,
				"y": 0.0701983639,
				"z": 0.4375113507,
				"element": "C" 
			},
			{
				"x": 1.1949510147,
				"y": -0.9843788495,
				"z": -0.3477515703,
				"element": "C" 
			},
			{
				"x": 1.3046160185,
				"y": -0.8353386847,
				"z": -1.706647345,
				"element": "C" 
			},
			{
				"x": 0.8625662178,
				"y": 0.369710476,
				"z": -2.3140220158,
				"element": "C" 
			},
			{
				"x": 0.9362108328,
				"y": 0.6128317489,
				"z": -3.7090291295,
				"element": "C" 
			},
			{
				"x": 0.4816422812,
				"y": 1.8115959067,
				"z": -4.1978848359,
				"element": "C" 
			},
			{
				"x": 0.5450924304,
				"y": 2.0577627717,
				"z": -5.5235517077,
				"element": "F" 
			},
			{
				"x": -0.0577906282,
				"y": 2.8153419616,
				"z": -3.3663665852,
				"element": "C" 
			},
			{
				"x": -0.1352295126,
				"y": 2.5925877982,
				"z": -2.0102831735,
				"element": "C" 
			},
			{
				"x": 0.3200562108,
				"y": 1.3701453629,
				"z": -1.4470401951,
				"element": "C" 
			},
			{
				"x": 0.2193108509,
				"y": 1.2027416337,
				"z": -0.0956094368,
				"element": "N" 
			},
			{
				"x": 0.0731649384,
				"y": 0.8123813608,
				"z": 2.3620041596,
				"element": "H" 
			},
			{
				"x": -0.1116591784,
				"y": -0.9488877296,
				"z": 2.1888674722,
				"element": "H" 
			},
			{
				"x": 1.4962344194,
				"y": -0.2553297383,
				"z": 2.3946198594,
				"element": "H" 
			},
			{
				"x": 1.525983156,
				"y": -1.8966165913,
				"z": 0.1401673034,
				"element": "H" 
			},
			{
				"x": 1.7243138574,
				"y": -1.6248104853,
				"z": -2.3250711844,
				"element": "H" 
			},
			{
				"x": 1.3439320122,
				"y": -0.1317798289,
				"z": -4.385220403,
				"element": "H" 
			},
			{
				"x": -0.3995779094,
				"y": 3.7411640399,
				"z": -3.8166496354,
				"element": "H" 
			},
			{
				"x": -0.5430440981,
				"y": 3.3377351767,
				"z": -1.3355463383,
				"element": "H" 
			}
		],
		 "valence_orbital": [ 
			{
				"type": "occ",
				"energy": -0.32591,
				"method": "rhf"
			},
			{
				"type": "occ",
				"energy": -0.30815,
				"method": "rhf"
			},
			{
				"type": "occ",
				"energy": -0.25365,
				"method": "rhf"
			},
			{
				"type": "occ",
				"energy": -0.24751,
				"method": "rhf"
			},
			{
				"type": "occ",
				"energy": -0.23034,
				"method": "rhf"
			},
			{
				"type": "unocc",
				"energy": -0.05243,
				"method": "rhf"
			},
			{
				"type": "unocc",
				"energy": -0.01483,
				"method": "rhf"
			},
			{
				"type": "unocc",
				"energy": 0.01812,
				"method": "rhf"
			},
			{
				"type": "unocc",
				"energy": 0.08643,
				"method": "rhf"
			},
			{
				"type": "unocc",
				"energy": 0.09235,
				"method": "rhf"
			}
		],
		"cosmo_sigma_profile": { 
			"-0.025": 0.0,
			"-0.024": 0.0,
			"-0.023": 0.0,
			"-0.022": 0.0,
			"-0.021": 0.0,
			"-0.02": 0.0,
			"-0.019": 0.0,
			"-0.018": 0.0,
			"-0.017": 0.0,
			"-0.016": 0.0,
			"-0.015": 0.0,
			"-0.014": 0.0,
			"-0.013": 0.0,
			"-0.012": 0.0,
			"-0.011": 0.0,
			"-0.01": 0.0,
			"-0.009": 0.0,
			"-0.008": 1.71192378311,
			"-0.007": 7.54710633436,
			"-0.006": 8.71161581445,
			"-0.005": 12.5378311666,
			"-0.004": 14.4561671153,
			"-0.003": 13.3094875888,
			"-0.002": 11.978282305,
			"-0.001": 13.3592391453,
			"0.0": 17.2784312914,
			"0.001": 20.70099089,
			"0.002": 26.7441472328,
			"0.003": 17.9220993656,
			"0.004": 12.5871510068,
			"0.005": 5.89433579703,
			"0.006": 1.47263509392,
			"0.007": 1.65396378778,
			"0.008": 1.69502883755,
			"0.009": 1.28073967284,
			"0.01": 0.963026443723,
			"0.011": 0.701813055514,
			"0.012": 0.989460049451,
			"0.013": 0.812013202667,
			"0.014": 0.609225971701,
			"0.015": 0.677474101515,
			"0.016": 0.242432456718,
			"0.017": 0.0,
			"0.018": 0.0,
			"0.019": 0.0,
			"0.02": 0.0,
			"0.021": 0.0,
			"0.022": 0.0,
			"0.023": 0.0,
			"0.024": 0.0,
			"0.025": 0.0
		}
	}
}
