{
	 "smiles": "C1=CN=C(N=C1)C1=NC=CC=N1", 
	 "Tm": 387.15, 
	 "num_atms": 18, 
	 "gaussian": { 
		 "optdone": 1, 
		 "sigma_profile": "yes", 
		 "theory": "DFT", 
		 "functional": "B3LYP", 
		 "basiset": "6-31G**", 
		 "properties": { 
			 "R2extent": 2708.8273, 
			 "electric_dipole_moment_norm": 0.0001, 
			 "electric_quadrupole_moment_norm": 19.5294450364, 
			 "total_energy": -527.449331664, 
			 "HOMO_LUMO_gap": 0.16689, 
			 "cosmo_polarized_energy": -16.02, 
			 "cosmo_cavitation_energy": 23.32, 
			 "cosmo_dispersion_energy": -17.64, 
			 "cosmo_repulsion_energy": 1.39, 
			 "cosmo_total_nonelectrostatic_energy": 7.07, 
			 "SMD_solvation_energy": -0.65 
		},
		"coords": [
			{
				"x": 0.6155918154,
				"y": 2.4763767278,
				"z": 2.2295550034,
				"element": "C" 
			},
			{
				"x": -0.4188239009,
				"y": 1.8022689147,
				"z": 1.582939391,
				"element": "C" 
			},
			{
				"x": -0.2262690637,
				"y": 1.0855859122,
				"z": 0.4737305457,
				"element": "N" 
			},
			{
				"x": 1.0284321839,
				"y": 1.0419089497,
				"z": 0.000444855,
				"element": "C" 
			},
			{
				"x": 2.0954883469,
				"y": 1.6502358248,
				"z": 0.5403734416,
				"element": "N" 
			},
			{
				"x": 1.8773201517,
				"y": 2.3606709034,
				"z": 1.6488609177,
				"element": "C" 
			},
			{
				"x": 1.2599478624,
				"y": 0.2374993685,
				"z": -1.2494069502,
				"element": "C" 
			},
			{
				"x": 2.5146433601,
				"y": 0.19389763,
				"z": -1.7227389756,
				"element": "N" 
			},
			{
				"x": 2.7071897339,
				"y": -0.5227477089,
				"z": -2.8319653409,
				"element": "C" 
			},
			{
				"x": 1.6727795835,
				"y": -1.1968895392,
				"z": -3.4785696612,
				"element": "C" 
			},
			{
				"x": 0.4110683572,
				"y": -1.0812491667,
				"z": -2.897841556,
				"element": "C" 
			},
			{
				"x": 0.1929064801,
				"y": -0.3708425628,
				"z": -1.789325719,
				"element": "N" 
			},
			{
				"x": 0.4486725889,
				"y": 3.0563549499,
				"z": 3.1307835714,
				"element": "H" 
			},
			{
				"x": -1.4380551039,
				"y": 1.8363295807,
				"z": 1.9652656286,
				"element": "H" 
			},
			{
				"x": 2.7448898319,
				"y": 2.8535853641,
				"z": 2.0853512618,
				"element": "H" 
			},
			{
				"x": 3.7264087844,
				"y": -0.5567639857,
				"z": -3.2143303621,
				"element": "H" 
			},
			{
				"x": 1.839708499,
				"y": -1.7768360887,
				"z": -4.3798165461,
				"element": "H" 
			},
			{
				"x": -0.4564995106,
				"y": -1.5741850738,
				"z": -3.3343095048,
				"element": "H" 
			}
		],
		 "valence_orbital": [ 
			{
				"type": "occ",
				"energy": -0.30548,
				"method": "rhf"
			},
			{
				"type": "occ",
				"energy": -0.29716,
				"method": "rhf"
			},
			{
				"type": "occ",
				"energy": -0.26348,
				"method": "rhf"
			},
			{
				"type": "occ",
				"energy": -0.25686,
				"method": "rhf"
			},
			{
				"type": "occ",
				"energy": -0.23195,
				"method": "rhf"
			},
			{
				"type": "unocc",
				"energy": -0.06506,
				"method": "rhf"
			},
			{
				"type": "unocc",
				"energy": -0.04305,
				"method": "rhf"
			},
			{
				"type": "unocc",
				"energy": -0.03071,
				"method": "rhf"
			},
			{
				"type": "unocc",
				"energy": 0.01543,
				"method": "rhf"
			},
			{
				"type": "unocc",
				"energy": 0.10312,
				"method": "rhf"
			}
		],
		"cosmo_sigma_profile": { 
			"-0.025": 0.0,
			"-0.024": 0.0,
			"-0.023": 0.0,
			"-0.022": 0.0,
			"-0.021": 0.0,
			"-0.02": 0.0,
			"-0.019": 0.0,
			"-0.018": 0.0,
			"-0.017": 0.0,
			"-0.016": 0.0,
			"-0.015": 0.0,
			"-0.014": 0.0,
			"-0.013": 0.0,
			"-0.012": 0.0,
			"-0.011": 0.0,
			"-0.01": 0.0,
			"-0.009": 0.57735703751,
			"-0.008": 10.6604996769,
			"-0.007": 17.348427288,
			"-0.006": 13.0121932629,
			"-0.005": 9.45511984485,
			"-0.004": 9.31071373425,
			"-0.003": 9.44432107407,
			"-0.002": 16.6477556306,
			"-0.001": 22.1268829863,
			"0.0": 20.8449287493,
			"0.001": 8.87366044229,
			"0.002": 5.80856638842,
			"0.003": 5.33795618485,
			"0.004": 3.2817773612,
			"0.005": 2.72919809484,
			"0.006": 4.53202102644,
			"0.007": 3.13860053363,
			"0.008": 2.74054763218,
			"0.009": 2.33727531287,
			"0.01": 2.05387152989,
			"0.011": 2.13269309575,
			"0.012": 3.34492510886,
			"0.013": 1.3271836396,
			"0.014": 2.78373984675,
			"0.015": 1.29449129848,
			"0.016": 1.26805035926,
			"0.017": 2.36589055308,
			"0.018": 2.11591052477,
			"0.019": 1.18020331716,
			"0.02": 1.01822101031,
			"0.021": 0.226025836644,
			"0.022": 0.0,
			"0.023": 0.0,
			"0.024": 0.0,
			"0.025": 0.0
		}
	}
}
