{
	 "smiles": "OC1=NC=C(Br)C=C1", 
	 "Tm": 453.15, 
	 "num_atms": 12, 
	 "gaussian": { 
		 "optdone": 1, 
		 "sigma_profile": "yes", 
		 "theory": "DFT", 
		 "functional": "B3LYP", 
		 "basiset": "6-31G**", 
		 "properties": { 
			 "R2extent": 2403.1094, 
			 "electric_dipole_moment_norm": 0.856131140655, 
			 "electric_quadrupole_moment_norm": 4.3368028189, 
			 "total_energy": -2894.32089396, 
			 "HOMO_LUMO_gap": 0.19853, 
			 "cosmo_polarized_energy": -6.52, 
			 "cosmo_cavitation_energy": 18.84, 
			 "cosmo_dispersion_energy": -14.76, 
			 "cosmo_repulsion_energy": 1.22, 
			 "cosmo_total_nonelectrostatic_energy": 5.31, 
			 "SMD_solvation_energy": 1.34 
		},
		"coords": [
			{
				"x": 1.7946268372,
				"y": 1.1236494477,
				"z": -1.1431556776,
				"element": "O" 
			},
			{
				"x": 0.6175389107,
				"y": 0.5591650575,
				"z": -0.797920862,
				"element": "C" 
			},
			{
				"x": 0.6532638178,
				"y": -0.6559525619,
				"z": -0.2565542726,
				"element": "N" 
			},
			{
				"x": -0.5065937984,
				"y": -1.2289904961,
				"z": 0.0911965835,
				"element": "C" 
			},
			{
				"x": -1.732616819,
				"y": -0.5993597715,
				"z": -0.0944746169,
				"element": "C" 
			},
			{
				"x": -3.3450155994,
				"y": -1.474261684,
				"z": 0.4242400146,
				"element": "Br" 
			},
			{
				"x": -1.7645436837,
				"y": 0.6776278388,
				"z": -0.6638634135,
				"element": "C" 
			},
			{
				"x": -0.5673112816,
				"y": 1.276620052,
				"z": -1.0261599548,
				"element": "C" 
			},
			{
				"x": 2.4817596462,
				"y": 0.479671677,
				"z": -0.9086872002,
				"element": "H" 
			},
			{
				"x": -0.4527643,
				"y": -2.2209298284,
				"z": 0.5312100982,
				"element": "H" 
			},
			{
				"x": -2.709252095,
				"y": 1.1872311261,
				"z": -0.8178585725,
				"element": "H" 
			},
			{
				"x": -0.5299916347,
				"y": 2.2640291428,
				"z": -1.4712721262,
				"element": "H" 
			}
		],
		 "valence_orbital": [ 
			{
				"type": "occ",
				"energy": -0.31564,
				"method": "rhf"
			},
			{
				"type": "occ",
				"energy": -0.29936,
				"method": "rhf"
			},
			{
				"type": "occ",
				"energy": -0.29344,
				"method": "rhf"
			},
			{
				"type": "occ",
				"energy": -0.28017,
				"method": "rhf"
			},
			{
				"type": "occ",
				"energy": -0.23586,
				"method": "rhf"
			},
			{
				"type": "unocc",
				"energy": -0.03733,
				"method": "rhf"
			},
			{
				"type": "unocc",
				"energy": -0.01132,
				"method": "rhf"
			},
			{
				"type": "unocc",
				"energy": 0.00266,
				"method": "rhf"
			},
			{
				"type": "unocc",
				"energy": 0.08403,
				"method": "rhf"
			},
			{
				"type": "unocc",
				"energy": 0.11708,
				"method": "rhf"
			}
		],
		"cosmo_sigma_profile": { 
			"-0.025": 0.0,
			"-0.024": 0.0,
			"-0.023": 0.0,
			"-0.022": 0.0,
			"-0.021": 0.0,
			"-0.02": 0.0,
			"-0.019": 0.0,
			"-0.018": 0.0595208442899,
			"-0.017": 0.542590231803,
			"-0.016": 0.771201733581,
			"-0.015": 0.985838845289,
			"-0.014": 0.436909836036,
			"-0.013": 0.719908363239,
			"-0.012": 1.02108729502,
			"-0.011": 0.538984054566,
			"-0.01": 0.205967745713,
			"-0.009": 1.24456928759,
			"-0.008": 4.10239679455,
			"-0.007": 5.57706303426,
			"-0.006": 6.19286787352,
			"-0.005": 6.74433458296,
			"-0.004": 6.57151446506,
			"-0.003": 6.68974124086,
			"-0.002": 7.34707747014,
			"-0.001": 8.95001612744,
			"0.0": 16.7630656846,
			"0.001": 21.0672156041,
			"0.002": 13.1289697872,
			"0.003": 11.2709385373,
			"0.004": 13.2046032417,
			"0.005": 5.50565663996,
			"0.006": 1.81877305484,
			"0.007": 3.01727375187,
			"0.008": 2.32138281557,
			"0.009": 2.55694068492,
			"0.01": 2.72616392806,
			"0.011": 1.66764537421,
			"0.012": 0.287087919872,
			"0.013": 0.695439174034,
			"0.014": 0.0383595858121,
			"0.015": 0.0,
			"0.016": 0.0,
			"0.017": 0.0,
			"0.018": 0.0,
			"0.019": 0.0,
			"0.02": 0.0,
			"0.021": 0.0,
			"0.022": 0.0,
			"0.023": 0.0,
			"0.024": 0.0,
			"0.025": 0.0
		}
	}
}
