{
	 "smiles": "BrC1=CC(=C(Br)C=C1)S(=O)(=O)CC#N", 
	 "Tm": 408.15, 
	 "num_atms": 19, 
	 "gaussian": { 
		 "optdone": 1, 
		 "sigma_profile": "yes", 
		 "theory": "DFT", 
		 "functional": "B3LYP", 
		 "basiset": "6-31G**", 
		 "properties": { 
			 "R2extent": 6616.1684, 
			 "electric_dipole_moment_norm": 3.95161804961, 
			 "electric_quadrupole_moment_norm": 17.7824547616, 
			 "total_energy": -6053.95298482, 
			 "HOMO_LUMO_gap": 0.19312, 
			 "cosmo_polarized_energy": -16.23, 
			 "cosmo_cavitation_energy": 30.6, 
			 "cosmo_dispersion_energy": -22.24, 
			 "cosmo_repulsion_energy": 1.71, 
			 "cosmo_total_nonelectrostatic_energy": 10.07, 
			 "SMD_solvation_energy": 3.92 
		},
		"coords": [
			{
				"x": 1.9935431658,
				"y": -2.4777440017,
				"z": 2.9429231095,
				"element": "Br" 
			},
			{
				"x": 0.3622965886,
				"y": -1.9069927685,
				"z": 2.1501615036,
				"element": "C" 
			},
			{
				"x": 0.3149509036,
				"y": -1.6528613523,
				"z": 0.782696027,
				"element": "C" 
			},
			{
				"x": -0.8859387402,
				"y": -1.2373131077,
				"z": 0.1994623204,
				"element": "C" 
			},
			{
				"x": -2.0342155591,
				"y": -1.0733870002,
				"z": 0.9866341963,
				"element": "C" 
			},
			{
				"x": -3.7120200989,
				"y": -0.4959567628,
				"z": 0.2908859791,
				"element": "Br" 
			},
			{
				"x": -1.9665554873,
				"y": -1.3259946175,
				"z": 2.3573611226,
				"element": "C" 
			},
			{
				"x": -0.7734311063,
				"y": -1.7453683797,
				"z": 2.9418973368,
				"element": "C" 
			},
			{
				"x": -0.8246534708,
				"y": -1.0053257631,
				"z": -1.6002442203,
				"element": "S" 
			},
			{
				"x": -1.9692747655,
				"y": -1.6646924441,
				"z": -2.2314350002,
				"element": "O" 
			},
			{
				"x": 0.5484244158,
				"y": -1.2983058855,
				"z": -2.0214179259,
				"element": "O" 
			},
			{
				"x": -1.0909464265,
				"y": 0.8099171269,
				"z": -1.8361728109,
				"element": "C" 
			},
			{
				"x": -0.0788375114,
				"y": 1.622183696,
				"z": -1.1843345607,
				"element": "C" 
			},
			{
				"x": 0.7239518638,
				"y": 2.2592253818,
				"z": -0.6399797429,
				"element": "N" 
			},
			{
				"x": 1.1903370168,
				"y": -1.7728886239,
				"z": 0.1561965851,
				"element": "H" 
			},
			{
				"x": -2.8529821608,
				"y": -1.1952229658,
				"z": 2.967167944,
				"element": "H" 
			},
			{
				"x": -0.7309679062,
				"y": -1.9423399512,
				"z": 4.0069246727,
				"element": "H" 
			},
			{
				"x": -2.0928623544,
				"y": 1.0420216802,
				"z": -1.4664938676,
				"element": "H" 
			},
			{
				"x": -1.0680183669,
				"y": 0.936345739,
				"z": -2.9232326687,
				"element": "H" 
			}
		],
		 "valence_orbital": [ 
			{
				"type": "occ",
				"energy": -0.31647,
				"method": "rhf"
			},
			{
				"type": "occ",
				"energy": -0.31288,
				"method": "rhf"
			},
			{
				"type": "occ",
				"energy": -0.30767,
				"method": "rhf"
			},
			{
				"type": "occ",
				"energy": -0.30286,
				"method": "rhf"
			},
			{
				"type": "occ",
				"energy": -0.26608,
				"method": "rhf"
			},
			{
				"type": "unocc",
				"energy": -0.07296,
				"method": "rhf"
			},
			{
				"type": "unocc",
				"energy": -0.05332,
				"method": "rhf"
			},
			{
				"type": "unocc",
				"energy": -0.03939,
				"method": "rhf"
			},
			{
				"type": "unocc",
				"energy": -0.01871,
				"method": "rhf"
			},
			{
				"type": "unocc",
				"energy": -0.01085,
				"method": "rhf"
			}
		],
		"cosmo_sigma_profile": { 
			"-0.025": 0.0,
			"-0.024": 0.0,
			"-0.023": 0.0,
			"-0.022": 0.0,
			"-0.021": 0.0,
			"-0.02": 0.0,
			"-0.019": 0.0,
			"-0.018": 0.0,
			"-0.017": 0.0,
			"-0.016": 0.0,
			"-0.015": 0.0,
			"-0.014": 0.28424924938,
			"-0.013": 1.8838476336,
			"-0.012": 2.28623397738,
			"-0.011": 2.34558200848,
			"-0.01": 3.75595933202,
			"-0.009": 8.21461551819,
			"-0.008": 8.36033678352,
			"-0.007": 6.90350469913,
			"-0.006": 9.3801294187,
			"-0.005": 10.6304998492,
			"-0.004": 10.9206403173,
			"-0.003": 13.4746839484,
			"-0.002": 19.6165311469,
			"-0.001": 25.536459731,
			"0.0": 21.0835913677,
			"0.001": 13.1124263775,
			"0.002": 16.1681162944,
			"0.003": 17.9034682066,
			"0.004": 10.6880231341,
			"0.005": 5.18985791302,
			"0.006": 6.78490238418,
			"0.007": 6.39745253166,
			"0.008": 7.19204772355,
			"0.009": 10.7838252898,
			"0.01": 11.0934185487,
			"0.011": 3.03323521262,
			"0.012": 1.10975334094,
			"0.013": 0.0,
			"0.014": 0.0,
			"0.015": 0.0,
			"0.016": 0.0,
			"0.017": 0.0,
			"0.018": 0.0,
			"0.019": 0.0,
			"0.02": 0.0,
			"0.021": 0.0,
			"0.022": 0.0,
			"0.023": 0.0,
			"0.024": 0.0,
			"0.025": 0.0
		}
	}
}
