{
	 "smiles": "CN1C=CC(CCl)=CC1=O", 
	 "Tm": 338.15, 
	 "num_atms": 18, 
	 "gaussian": { 
		 "optdone": 1, 
		 "sigma_profile": "yes", 
		 "theory": "DFT", 
		 "functional": "B3LYP", 
		 "basiset": "6-31G**", 
		 "properties": { 
			 "R2extent": 2546.1395, 
			 "electric_dipole_moment_norm": 3.56929534502, 
			 "electric_quadrupole_moment_norm": 14.5852367824, 
			 "total_energy": -861.741557579, 
			 "HOMO_LUMO_gap": 0.1701, 
			 "cosmo_polarized_energy": -13.54, 
			 "cosmo_cavitation_energy": 23.59, 
			 "cosmo_dispersion_energy": -17.45, 
			 "cosmo_repulsion_energy": 1.42, 
			 "cosmo_total_nonelectrostatic_energy": 7.56, 
			 "SMD_solvation_energy": 4.78 
		},
		"coords": [
			{
				"x": -1.2179716041,
				"y": 1.9077568429,
				"z": 0.0836428122,
				"element": "C" 
			},
			{
				"x": -0.6055497369,
				"y": 0.6089809134,
				"z": 0.3608329843,
				"element": "N" 
			},
			{
				"x": 0.5578920515,
				"y": 0.5038449009,
				"z": 1.0687418331,
				"element": "C" 
			},
			{
				"x": 1.1381961937,
				"y": -0.7011443353,
				"z": 1.3328951878,
				"element": "C" 
			},
			{
				"x": 0.5074053683,
				"y": -1.8868279478,
				"z": 0.8460588769,
				"element": "C" 
			},
			{
				"x": 1.0988703291,
				"y": -3.2342952271,
				"z": 1.1512130414,
				"element": "C" 
			},
			{
				"x": 2.7479904235,
				"y": -3.4519904021,
				"z": 0.3950226907,
				"element": "Cl" 
			},
			{
				"x": -0.6561130004,
				"y": -1.7899626592,
				"z": 0.1321317516,
				"element": "C" 
			},
			{
				"x": -1.2939552126,
				"y": -0.5197193872,
				"z": -0.1543329233,
				"element": "C" 
			},
			{
				"x": -2.3385318566,
				"y": -0.3611813535,
				"z": -0.7833952105,
				"element": "O" 
			},
			{
				"x": -2.2279968545,
				"y": 1.9386017715,
				"z": 0.4987563632,
				"element": "H" 
			},
			{
				"x": -0.6065262353,
				"y": 2.6949589261,
				"z": 0.5263119364,
				"element": "H" 
			},
			{
				"x": -1.2988897859,
				"y": 2.0579121783,
				"z": -0.9954134174,
				"element": "H" 
			},
			{
				"x": 0.9887207386,
				"y": 1.4395262615,
				"z": 1.4083650044,
				"element": "H" 
			},
			{
				"x": 2.0672347945,
				"y": -0.7468292186,
				"z": 1.887190661,
				"element": "H" 
			},
			{
				"x": 1.2523813945,
				"y": -3.3706797667,
				"z": 2.2234402269,
				"element": "H" 
			},
			{
				"x": 0.4760586029,
				"y": -4.0420769897,
				"z": 0.768760391,
				"element": "H" 
			},
			{
				"x": -1.1636156103,
				"y": -2.6652745075,
				"z": -0.2584222097,
				"element": "H" 
			}
		],
		 "valence_orbital": [ 
			{
				"type": "occ",
				"energy": -0.30889,
				"method": "rhf"
			},
			{
				"type": "occ",
				"energy": -0.30116,
				"method": "rhf"
			},
			{
				"type": "occ",
				"energy": -0.2907,
				"method": "rhf"
			},
			{
				"type": "occ",
				"energy": -0.25121,
				"method": "rhf"
			},
			{
				"type": "occ",
				"energy": -0.21984,
				"method": "rhf"
			},
			{
				"type": "unocc",
				"energy": -0.04974,
				"method": "rhf"
			},
			{
				"type": "unocc",
				"energy": -0.00143,
				"method": "rhf"
			},
			{
				"type": "unocc",
				"energy": 0.03513,
				"method": "rhf"
			},
			{
				"type": "unocc",
				"energy": 0.07911,
				"method": "rhf"
			},
			{
				"type": "unocc",
				"energy": 0.0939,
				"method": "rhf"
			}
		],
		"cosmo_sigma_profile": { 
			"-0.025": 0.0,
			"-0.024": 0.0,
			"-0.023": 0.0,
			"-0.022": 0.0,
			"-0.021": 0.0,
			"-0.02": 0.0,
			"-0.019": 0.0,
			"-0.018": 0.0,
			"-0.017": 0.0,
			"-0.016": 0.0,
			"-0.015": 0.0,
			"-0.014": 0.0,
			"-0.013": 0.0,
			"-0.012": 0.0,
			"-0.011": 0.0325205608197,
			"-0.01": 1.52010461941,
			"-0.009": 3.29557713741,
			"-0.008": 7.89230225967,
			"-0.007": 10.6187559243,
			"-0.006": 11.8782292278,
			"-0.005": 13.5936732951,
			"-0.004": 13.4104295435,
			"-0.003": 14.5362229242,
			"-0.002": 10.9418229295,
			"-0.001": 10.5349354565,
			"0.0": 9.91010370402,
			"0.001": 10.8154003543,
			"0.002": 12.9550093894,
			"0.003": 9.3806606136,
			"0.004": 8.29519393978,
			"0.005": 8.20669779812,
			"0.006": 11.1356009753,
			"0.007": 3.19269465585,
			"0.008": 1.47163759751,
			"0.009": 1.5144114974,
			"0.01": 1.18398810992,
			"0.011": 0.668196704221,
			"0.012": 1.81686523791,
			"0.013": 2.36975985065,
			"0.014": 4.95390519226,
			"0.015": 3.14195592239,
			"0.016": 0.49620523826,
			"0.017": 0.0,
			"0.018": 0.0,
			"0.019": 0.0,
			"0.02": 0.0,
			"0.021": 0.0,
			"0.022": 0.0,
			"0.023": 0.0,
			"0.024": 0.0,
			"0.025": 0.0
		}
	}
}
