{
	 "smiles": "NC(=O)C1=C(N)N(CCO)N=C1", 
	 "Tm": 512.15, 
	 "num_atms": 22, 
	 "gaussian": { 
		 "optdone": 1, 
		 "sigma_profile": "yes", 
		 "theory": "DFT", 
		 "functional": "B3LYP", 
		 "basiset": "6-31G**", 
		 "properties": { 
			 "R2extent": 3213.0696, 
			 "electric_dipole_moment_norm": 4.46142528908, 
			 "electric_quadrupole_moment_norm": 24.4413006139, 
			 "total_energy": -604.105542252, 
			 "HOMO_LUMO_gap": 0.21724, 
			 "cosmo_polarized_energy": -24.2, 
			 "cosmo_cavitation_energy": 26.34, 
			 "cosmo_dispersion_energy": -19.1, 
			 "cosmo_repulsion_energy": 1.55, 
			 "cosmo_total_nonelectrostatic_energy": 8.79, 
			 "SMD_solvation_energy": 4.39 
		},
		"coords": [
			{
				"x": 2.8105125092,
				"y": -3.2016236535,
				"z": -1.6286267295,
				"element": "N" 
			},
			{
				"x": 1.4395158729,
				"y": -3.3867383721,
				"z": -1.8702407594,
				"element": "C" 
			},
			{
				"x": 1.0395190776,
				"y": -4.2562649069,
				"z": -2.6329088086,
				"element": "O" 
			},
			{
				"x": 0.5557423832,
				"y": -2.4387732209,
				"z": -1.1872021548,
				"element": "C" 
			},
			{
				"x": 0.8591833145,
				"y": -1.1966228537,
				"z": -0.6152933472,
				"element": "C" 
			},
			{
				"x": 2.0768245364,
				"y": -0.5431975484,
				"z": -0.4888794544,
				"element": "N" 
			},
			{
				"x": -0.3052521454,
				"y": -0.7020179264,
				"z": -0.1210923471,
				"element": "N" 
			},
			{
				"x": -0.5456089464,
				"y": 0.5781484969,
				"z": 0.5164348922,
				"element": "C" 
			},
			{
				"x": -0.9940496697,
				"y": 1.6591748149,
				"z": -0.480803741,
				"element": "C" 
			},
			{
				"x": -1.1853266202,
				"y": 2.9067419376,
				"z": 0.1633027411,
				"element": "O" 
			},
			{
				"x": -1.3720360784,
				"y": -1.5400851101,
				"z": -0.363206981,
				"element": "N" 
			},
			{
				"x": -0.8462439018,
				"y": -2.5678776947,
				"z": -1.0034075746,
				"element": "C" 
			},
			{
				"x": 3.0649143523,
				"y": -2.9868263167,
				"z": -0.6709482951,
				"element": "H" 
			},
			{
				"x": 3.3651861977,
				"y": -3.9494383634,
				"z": -2.0294147262,
				"element": "H" 
			},
			{
				"x": 2.7536829574,
				"y": -0.8827408858,
				"z": -1.1644106956,
				"element": "H" 
			},
			{
				"x": 2.0236229307,
				"y": 0.4676908431,
				"z": -0.4933442044,
				"element": "H" 
			},
			{
				"x": 0.3614783078,
				"y": 0.8996041812,
				"z": 1.0378362337,
				"element": "H" 
			},
			{
				"x": -1.3219880398,
				"y": 0.4183865598,
				"z": 1.2702497193,
				"element": "H" 
			},
			{
				"x": -0.2157721511,
				"y": 1.8174322347,
				"z": -1.2358714067,
				"element": "H" 
			},
			{
				"x": -1.8929029781,
				"y": 1.3106221408,
				"z": -1.0073586591,
				"element": "H" 
			},
			{
				"x": -2.0060219029,
				"y": 2.8604581753,
				"z": 0.6703183793,
				"element": "H" 
			},
			{
				"x": -1.4648800057,
				"y": -3.3975525316,
				"z": -1.316932081,
				"element": "H" 
			}
		],
		 "valence_orbital": [ 
			{
				"type": "occ",
				"energy": -0.28823,
				"method": "rhf"
			},
			{
				"type": "occ",
				"energy": -0.27803,
				"method": "rhf"
			},
			{
				"type": "occ",
				"energy": -0.25085,
				"method": "rhf"
			},
			{
				"type": "occ",
				"energy": -0.24289,
				"method": "rhf"
			},
			{
				"type": "occ",
				"energy": -0.21906,
				"method": "rhf"
			},
			{
				"type": "unocc",
				"energy": -0.00182,
				"method": "rhf"
			},
			{
				"type": "unocc",
				"energy": 0.02371,
				"method": "rhf"
			},
			{
				"type": "unocc",
				"energy": 0.05086,
				"method": "rhf"
			},
			{
				"type": "unocc",
				"energy": 0.06316,
				"method": "rhf"
			},
			{
				"type": "unocc",
				"energy": 0.08516,
				"method": "rhf"
			}
		],
		"cosmo_sigma_profile": { 
			"-0.025": 0.0,
			"-0.024": 0.0,
			"-0.023": 0.0,
			"-0.022": 0.0,
			"-0.021": 0.0,
			"-0.02": 0.0,
			"-0.019": 0.0,
			"-0.018": 0.0,
			"-0.017": 0.0248226113828,
			"-0.016": 0.756848085329,
			"-0.015": 1.31965543391,
			"-0.014": 1.48897779363,
			"-0.013": 3.73802180719,
			"-0.012": 6.17245288602,
			"-0.011": 6.05549475931,
			"-0.01": 5.77104441469,
			"-0.009": 6.64877947921,
			"-0.008": 6.30462001142,
			"-0.007": 8.20161291933,
			"-0.006": 8.78168886492,
			"-0.005": 8.98770603824,
			"-0.004": 10.4509460056,
			"-0.003": 10.8094558263,
			"-0.002": 11.0698622083,
			"-0.001": 7.47208622385,
			"0.0": 7.2837352604,
			"0.001": 9.15216446782,
			"0.002": 9.53953416044,
			"0.003": 9.36023557009,
			"0.004": 10.2681451643,
			"0.005": 6.57414352031,
			"0.006": 5.15433046171,
			"0.007": 5.29737414352,
			"0.008": 4.860479842,
			"0.009": 4.480828877,
			"0.01": 4.79174779766,
			"0.011": 4.66040074638,
			"0.012": 4.9688762084,
			"0.013": 6.54936479061,
			"0.014": 8.31894681803,
			"0.015": 1.45018059851,
			"0.016": 0.378204902081,
			"0.017": 0.0,
			"0.018": 0.0,
			"0.019": 0.0,
			"0.02": 0.0,
			"0.021": 0.0,
			"0.022": 0.0,
			"0.023": 0.0,
			"0.024": 0.0,
			"0.025": 0.0
		}
	}
}
