{
	 "smiles": "CC12CCC3C(=CCC4=C3C=CC(O)=C4)C1CCC2O", 
	 "Tm": 447.15, 
	 "num_atms": 42, 
	 "gaussian": { 
		 "optdone": 1, 
		 "sigma_profile": "yes", 
		 "theory": "DFT", 
		 "functional": "B3LYP", 
		 "basiset": "6-31G**", 
		 "properties": { 
			 "R2extent": 6679.4557, 
			 "electric_dipole_moment_norm": 1.21509132579, 
			 "electric_quadrupole_moment_norm": 16.9914820757, 
			 "total_energy": -849.614445916, 
			 "HOMO_LUMO_gap": 0.20929, 
			 "cosmo_polarized_energy": -13.24, 
			 "cosmo_cavitation_energy": 39.73, 
			 "cosmo_dispersion_energy": -28.52, 
			 "cosmo_repulsion_energy": 2.13, 
			 "cosmo_total_nonelectrostatic_energy": 13.34, 
			 "SMD_solvation_energy": 5.58 
		},
		"coords": [
			{
				"x": -3.534503246,
				"y": -0.472584393,
				"z": -1.2320066954,
				"element": "C" 
			},
			{
				"x": -2.8057909842,
				"y": -0.0075464089,
				"z": 0.0379045375,
				"element": "C" 
			},
			{
				"x": -1.8465743682,
				"y": -1.1083648691,
				"z": 0.5419132876,
				"element": "C" 
			},
			{
				"x": -0.6447269647,
				"y": -1.3606447333,
				"z": -0.3879919115,
				"element": "C" 
			},
			{
				"x": -0.074957847,
				"y": -0.0340458583,
				"z": -0.9971708972,
				"element": "C" 
			},
			{
				"x": -0.5040924171,
				"y": 1.1212166615,
				"z": -0.1173031843,
				"element": "C" 
			},
			{
				"x": 0.3730995316,
				"y": 1.7979823816,
				"z": 0.6300442439,
				"element": "C" 
			},
			{
				"x": 1.8545604854,
				"y": 1.5340930238,
				"z": 0.6403866344,
				"element": "C" 
			},
			{
				"x": 2.3331160853,
				"y": 0.6151898984,
				"z": -0.4639995,
				"element": "C" 
			},
			{
				"x": 1.4185032838,
				"y": -0.1081127341,
				"z": -1.2460773505,
				"element": "C" 
			},
			{
				"x": 1.9145496583,
				"y": -0.924470226,
				"z": -2.2710635397,
				"element": "C" 
			},
			{
				"x": 3.2794118538,
				"y": -1.0431819881,
				"z": -2.5177273269,
				"element": "C" 
			},
			{
				"x": 4.1834184785,
				"y": -0.325185888,
				"z": -1.7269531719,
				"element": "C" 
			},
			{
				"x": 5.5385999814,
				"y": -0.3874358939,
				"z": -1.9093834249,
				"element": "O" 
			},
			{
				"x": 3.7051840143,
				"y": 0.5017799391,
				"z": -0.7108285262,
				"element": "C" 
			},
			{
				"x": -2.0061895371,
				"y": 1.3515362511,
				"z": -0.1744001961,
				"element": "C" 
			},
			{
				"x": -2.6040958847,
				"y": 2.3538662781,
				"z": 0.8498146737,
				"element": "C" 
			},
			{
				"x": -3.219181182,
				"y": 1.4867909357,
				"z": 1.9530411309,
				"element": "C" 
			},
			{
				"x": -3.8529335947,
				"y": 0.3452957009,
				"z": 1.1513538993,
				"element": "C" 
			},
			{
				"x": -4.3221167789,
				"y": -0.7557893473,
				"z": 1.9134805204,
				"element": "O" 
			},
			{
				"x": -4.1774763098,
				"y": -1.3309683319,
				"z": -1.006587714,
				"element": "H" 
			},
			{
				"x": -2.8428043956,
				"y": -0.7696749129,
				"z": -2.0271243243,
				"element": "H" 
			},
			{
				"x": -4.1711158599,
				"y": 0.3255208354,
				"z": -1.6312044002,
				"element": "H" 
			},
			{
				"x": -1.4539932005,
				"y": -0.8104628793,
				"z": 1.5235404003,
				"element": "H" 
			},
			{
				"x": -2.4037681962,
				"y": -2.0394614822,
				"z": 0.693098445,
				"element": "H" 
			},
			{
				"x": -0.919036602,
				"y": -2.044623939,
				"z": -1.1988223456,
				"element": "H" 
			},
			{
				"x": 0.1458528,
				"y": -1.8601624727,
				"z": 0.1817372622,
				"element": "H" 
			},
			{
				"x": -0.5681919223,
				"y": 0.1057527437,
				"z": -1.9711399701,
				"element": "H" 
			},
			{
				"x": 0.0372296379,
				"y": 2.5952723441,
				"z": 1.288367203,
				"element": "H" 
			},
			{
				"x": 2.3967104688,
				"y": 2.4883854805,
				"z": 0.5754139722,
				"element": "H" 
			},
			{
				"x": 2.145409438,
				"y": 1.1169278262,
				"z": 1.6185111169,
				"element": "H" 
			},
			{
				"x": 1.2164125541,
				"y": -1.4792581787,
				"z": -2.8937546116,
				"element": "H" 
			},
			{
				"x": 3.6399218599,
				"y": -1.6818909032,
				"z": -3.321688525,
				"element": "H" 
			},
			{
				"x": 5.7286623843,
				"y": -0.9866720386,
				"z": -2.6425256219,
				"element": "H" 
			},
			{
				"x": 4.4223679268,
				"y": 1.0618775521,
				"z": -0.1172314943,
				"element": "H" 
			},
			{
				"x": -2.2146986293,
				"y": 1.711058056,
				"z": -1.1923354576,
				"element": "H" 
			},
			{
				"x": -3.3989092795,
				"y": 2.9307691859,
				"z": 0.3621756086,
				"element": "H" 
			},
			{
				"x": -1.880758612,
				"y": 3.083092339,
				"z": 1.2203427847,
				"element": "H" 
			},
			{
				"x": -2.4361199838,
				"y": 1.0928131014,
				"z": 2.6160877813,
				"element": "H" 
			},
			{
				"x": -3.946183336,
				"y": 2.0138253883,
				"z": 2.5780959887,
				"element": "H" 
			},
			{
				"x": -4.7533289539,
				"y": 0.7331229675,
				"z": 0.6578231136,
				"element": "H" 
			},
			{
				"x": -3.5890623569,
				"y": -1.0705314117,
				"z": 2.4583875854,
				"element": "H" 
			}
		],
		 "valence_orbital": [ 
			{
				"type": "occ",
				"energy": -0.28876,
				"method": "rhf"
			},
			{
				"type": "occ",
				"energy": -0.25439,
				"method": "rhf"
			},
			{
				"type": "occ",
				"energy": -0.24223,
				"method": "rhf"
			},
			{
				"type": "occ",
				"energy": -0.22739,
				"method": "rhf"
			},
			{
				"type": "occ",
				"energy": -0.20957,
				"method": "rhf"
			},
			{
				"type": "unocc",
				"energy": -0.00028,
				"method": "rhf"
			},
			{
				"type": "unocc",
				"energy": 0.02008,
				"method": "rhf"
			},
			{
				"type": "unocc",
				"energy": 0.02849,
				"method": "rhf"
			},
			{
				"type": "unocc",
				"energy": 0.07388,
				"method": "rhf"
			},
			{
				"type": "unocc",
				"energy": 0.07572,
				"method": "rhf"
			}
		],
		"cosmo_sigma_profile": { 
			"-0.025": 0.0,
			"-0.024": 0.0,
			"-0.023": 0.0,
			"-0.022": 0.0,
			"-0.021": 0.0,
			"-0.02": 0.0,
			"-0.019": 0.0,
			"-0.018": 0.0692374600132,
			"-0.017": 0.90973735236,
			"-0.016": 1.27941973721,
			"-0.015": 0.874977263016,
			"-0.014": 1.05498154642,
			"-0.013": 1.68331589765,
			"-0.012": 1.99604434057,
			"-0.011": 2.12275042329,
			"-0.01": 1.85249487696,
			"-0.009": 2.71741423288,
			"-0.008": 2.34164692546,
			"-0.007": 1.55901444334,
			"-0.006": 3.60054908937,
			"-0.005": 7.3442633031,
			"-0.004": 14.288838516,
			"-0.003": 35.1575196819,
			"-0.002": 39.245334003,
			"-0.001": 36.4278100807,
			"0.0": 31.1824714797,
			"0.001": 30.6137658055,
			"0.002": 16.8965690719,
			"0.003": 11.1035091238,
			"0.004": 13.5897686926,
			"0.005": 13.5190155314,
			"0.006": 12.7191954774,
			"0.007": 6.2426603398,
			"0.008": 2.76678754239,
			"0.009": 2.03675308254,
			"0.01": 2.80426238458,
			"0.011": 2.99057460097,
			"0.012": 3.3093134721,
			"0.013": 1.35081853567,
			"0.014": 2.15344607878,
			"0.015": 0.835389870595,
			"0.016": 0.0,
			"0.017": 0.0,
			"0.018": 0.0,
			"0.019": 0.0,
			"0.02": 0.0,
			"0.021": 0.0,
			"0.022": 0.0,
			"0.023": 0.0,
			"0.024": 0.0,
			"0.025": 0.0
		}
	}
}
