{
	 "smiles": "CC1=C(N)C=C(C=C1)C(=O)NC1=CC(=CC=C1)C(F)(F)F", 
	 "Tm": 383.15, 
	 "num_atms": 34, 
	 "gaussian": { 
		 "optdone": 1, 
		 "sigma_profile": "yes", 
		 "theory": "DFT", 
		 "functional": "B3LYP", 
		 "basiset": "6-31G**", 
		 "properties": { 
			 "R2extent": 11145.5275, 
			 "electric_dipole_moment_norm": 4.80059576511, 
			 "electric_quadrupole_moment_norm": 21.8034268944, 
			 "total_energy": -1063.72072642, 
			 "HOMO_LUMO_gap": 0.16962, 
			 "cosmo_polarized_energy": -17.66, 
			 "cosmo_cavitation_energy": 39.92, 
			 "cosmo_dispersion_energy": -28.43, 
			 "cosmo_repulsion_energy": 2.09, 
			 "cosmo_total_nonelectrostatic_energy": 13.58, 
			 "SMD_solvation_energy": 8.13 
		},
		"coords": [
			{
				"x": 4.2927621938,
				"y": 2.7968729642,
				"z": 1.7938317773,
				"element": "C" 
			},
			{
				"x": 3.149871696,
				"y": 2.0154363946,
				"z": 1.197729606,
				"element": "C" 
			},
			{
				"x": 2.3789819781,
				"y": 1.1509002058,
				"z": 2.0110233468,
				"element": "C" 
			},
			{
				"x": 2.7101833446,
				"y": 0.9713448485,
				"z": 3.3554337867,
				"element": "N" 
			},
			{
				"x": 1.3261885434,
				"y": 0.4223469889,
				"z": 1.4383809257,
				"element": "C" 
			},
			{
				"x": 1.0293086621,
				"y": 0.5309887234,
				"z": 0.0736586663,
				"element": "C" 
			},
			{
				"x": 1.8026331953,
				"y": 1.371416724,
				"z": -0.7335419624,
				"element": "C" 
			},
			{
				"x": 2.8401774452,
				"y": 2.1033337171,
				"z": -0.1618592521,
				"element": "C" 
			},
			{
				"x": -0.0789728045,
				"y": -0.2334533731,
				"z": -0.5904448076,
				"element": "C" 
			},
			{
				"x": -0.0564788376,
				"y": -0.4961721214,
				"z": -1.7874898608,
				"element": "O" 
			},
			{
				"x": -1.1216729274,
				"y": -0.590163253,
				"z": 0.2470030834,
				"element": "N" 
			},
			{
				"x": -2.2838158749,
				"y": -1.321809961,
				"z": -0.055582431,
				"element": "C" 
			},
			{
				"x": -3.2229219715,
				"y": -1.4866124916,
				"z": 0.9741960785,
				"element": "C" 
			},
			{
				"x": -4.3905669533,
				"y": -2.2123669332,
				"z": 0.7534392877,
				"element": "C" 
			},
			{
				"x": -4.6444296481,
				"y": -2.7881708862,
				"z": -0.4941202677,
				"element": "C" 
			},
			{
				"x": -3.708769421,
				"y": -2.6214704318,
				"z": -1.5131596511,
				"element": "C" 
			},
			{
				"x": -2.5344013732,
				"y": -1.8963758926,
				"z": -1.3130733133,
				"element": "C" 
			},
			{
				"x": -5.413009471,
				"y": -2.3263178396,
				"z": 1.8512545644,
				"element": "C" 
			},
			{
				"x": -6.0603347147,
				"y": -3.5116154219,
				"z": 1.8144001495,
				"element": "F" 
			},
			{
				"x": -6.3586698982,
				"y": -1.3620073853,
				"z": 1.7561321431,
				"element": "F" 
			},
			{
				"x": -4.8563704137,
				"y": -2.2061348885,
				"z": 3.0792425856,
				"element": "F" 
			},
			{
				"x": 3.950859962,
				"y": 3.5073832898,
				"z": 2.5601104682,
				"element": "H" 
			},
			{
				"x": 4.8150760883,
				"y": 3.3750598768,
				"z": 1.0280605818,
				"element": "H" 
			},
			{
				"x": 5.0233048524,
				"y": 2.1337156603,
				"z": 2.2738471015,
				"element": "H" 
			},
			{
				"x": 3.1558224471,
				"y": 1.756502974,
				"z": 3.8082081927,
				"element": "H" 
			},
			{
				"x": 1.9826667128,
				"y": 0.5679906009,
				"z": 3.9290689139,
				"element": "H" 
			},
			{
				"x": 0.7809055552,
				"y": -0.2754129499,
				"z": 2.0705338487,
				"element": "H" 
			},
			{
				"x": 1.5788405062,
				"y": 1.4361303124,
				"z": -1.791872709,
				"element": "H" 
			},
			{
				"x": 3.4355964918,
				"y": 2.7634316501,
				"z": -0.787677947,
				"element": "H" 
			},
			{
				"x": -1.0919449609,
				"y": -0.1984032916,
				"z": 1.1766127236,
				"element": "H" 
			},
			{
				"x": -3.0392792302,
				"y": -1.0561119239,
				"z": 1.9541654876,
				"element": "H" 
			},
			{
				"x": -5.5513276412,
				"y": -3.3596062465,
				"z": -0.6565156831,
				"element": "H" 
			},
			{
				"x": -3.8912811379,
				"y": -3.0652935718,
				"z": -2.4872654786,
				"element": "H" 
			},
			{
				"x": -1.8134323949,
				"y": -1.7636560678,
				"z": -2.1066299553,
				"element": "H" 
			}
		],
		 "valence_orbital": [ 
			{
				"type": "occ",
				"energy": -0.26497,
				"method": "rhf"
			},
			{
				"type": "occ",
				"energy": -0.26148,
				"method": "rhf"
			},
			{
				"type": "occ",
				"energy": -0.25312,
				"method": "rhf"
			},
			{
				"type": "occ",
				"energy": -0.22842,
				"method": "rhf"
			},
			{
				"type": "occ",
				"energy": -0.21329,
				"method": "rhf"
			},
			{
				"type": "unocc",
				"energy": -0.04367,
				"method": "rhf"
			},
			{
				"type": "unocc",
				"energy": -0.0219,
				"method": "rhf"
			},
			{
				"type": "unocc",
				"energy": -0.00442,
				"method": "rhf"
			},
			{
				"type": "unocc",
				"energy": 0.00467,
				"method": "rhf"
			},
			{
				"type": "unocc",
				"energy": 0.05853,
				"method": "rhf"
			}
		],
		"cosmo_sigma_profile": { 
			"-0.025": 0.0,
			"-0.024": 0.0,
			"-0.023": 0.0,
			"-0.022": 0.0,
			"-0.021": 0.0,
			"-0.02": 0.0,
			"-0.019": 0.0,
			"-0.018": 0.0,
			"-0.017": 0.0,
			"-0.016": 0.0,
			"-0.015": 0.722048712969,
			"-0.014": 1.76972139896,
			"-0.013": 1.27259891795,
			"-0.012": 3.30854414281,
			"-0.011": 4.82481144041,
			"-0.01": 3.98735558883,
			"-0.009": 5.77285060166,
			"-0.008": 5.74303531883,
			"-0.007": 5.65372266937,
			"-0.006": 8.86359219041,
			"-0.005": 14.453269056,
			"-0.004": 18.559613873,
			"-0.003": 16.6200393787,
			"-0.002": 17.672623583,
			"-0.001": 19.4565296098,
			"0.0": 23.2770172508,
			"0.001": 26.6707253549,
			"0.002": 34.6397294164,
			"0.003": 47.5959437362,
			"0.004": 18.9351461996,
			"0.005": 12.8518204446,
			"0.006": 6.35311055298,
			"0.007": 2.79063378051,
			"0.008": 2.61417539524,
			"0.009": 2.48778118341,
			"0.01": 2.6779578547,
			"0.011": 2.03248094591,
			"0.012": 3.75421926218,
			"0.013": 2.72945338824,
			"0.014": 0.80089186489,
			"0.015": 0.0121693286412,
			"0.016": 0.0,
			"0.017": 0.0,
			"0.018": 0.0,
			"0.019": 0.0,
			"0.02": 0.0,
			"0.021": 0.0,
			"0.022": 0.0,
			"0.023": 0.0,
			"0.024": 0.0,
			"0.025": 0.0
		}
	}
}
