{
	 "smiles": "O=C1CCCC(=C1)C1=CC=CC=C1", 
	 "Tm": 337.15, 
	 "num_atms": 25, 
	 "gaussian": { 
		 "optdone": 1, 
		 "sigma_profile": "yes", 
		 "theory": "DFT", 
		 "functional": "B3LYP", 
		 "basiset": "6-31G**", 
		 "properties": { 
			 "R2extent": 2996.8081, 
			 "electric_dipole_moment_norm": 4.23801615971, 
			 "electric_quadrupole_moment_norm": 13.8955836409, 
			 "total_energy": -539.731434184, 
			 "HOMO_LUMO_gap": 0.17038, 
			 "cosmo_polarized_energy": -10.21, 
			 "cosmo_cavitation_energy": 27.72, 
			 "cosmo_dispersion_energy": -20.48, 
			 "cosmo_repulsion_energy": 1.62, 
			 "cosmo_total_nonelectrostatic_energy": 8.86, 
			 "SMD_solvation_energy": 4.78 
		},
		"coords": [
			{
				"x": -1.0222126711,
				"y": 1.0944361488,
				"z": 3.6192540973,
				"element": "O" 
			},
			{
				"x": -0.2152020879,
				"y": 0.9053447627,
				"z": 2.7181203955,
				"element": "C" 
			},
			{
				"x": 1.2718443635,
				"y": 0.7186613389,
				"z": 2.994999621,
				"element": "C" 
			},
			{
				"x": 2.1316696344,
				"y": 1.1901287163,
				"z": 1.8181763512,
				"element": "C" 
			},
			{
				"x": 1.6976306873,
				"y": 0.5142883887,
				"z": 0.51162427,
				"element": "C" 
			},
			{
				"x": 0.2018383303,
				"y": 0.5952284729,
				"z": 0.2748325623,
				"element": "C" 
			},
			{
				"x": -0.6457439574,
				"y": 0.8062982455,
				"z": 1.311294567,
				"element": "C" 
			},
			{
				"x": -0.3148661183,
				"y": 0.3961673043,
				"z": -1.1023508479,
				"element": "C" 
			},
			{
				"x": 0.362950355,
				"y": 0.900306885,
				"z": -2.2271479778,
				"element": "C" 
			},
			{
				"x": -0.1492191054,
				"y": 0.7245734181,
				"z": -3.511814245,
				"element": "C" 
			},
			{
				"x": -1.342526985,
				"y": 0.0268257726,
				"z": -3.7044911195,
				"element": "C" 
			},
			{
				"x": -2.0221816052,
				"y": -0.4913482989,
				"z": -2.5999847861,
				"element": "C" 
			},
			{
				"x": -1.514998466,
				"y": -0.3084918995,
				"z": -1.3157542746,
				"element": "C" 
			},
			{
				"x": 1.4379654893,
				"y": -0.3545628309,
				"z": 3.172812631,
				"element": "H" 
			},
			{
				"x": 1.5144789872,
				"y": 1.2357682877,
				"z": 3.9274192359,
				"element": "H" 
			},
			{
				"x": 2.0286549546,
				"y": 2.2771858175,
				"z": 1.7080377499,
				"element": "H" 
			},
			{
				"x": 3.1914355376,
				"y": 0.9902221323,
				"z": 2.0097262719,
				"element": "H" 
			},
			{
				"x": 1.9821888547,
				"y": -0.549394343,
				"z": 0.5228856117,
				"element": "H" 
			},
			{
				"x": 2.2407342981,
				"y": 0.9478612514,
				"z": -0.3338103115,
				"element": "H" 
			},
			{
				"x": -1.7153401692,
				"y": 0.9067249769,
				"z": 1.1503763108,
				"element": "H" 
			},
			{
				"x": 1.2834301748,
				"y": 1.4611658665,
				"z": -2.1007229424,
				"element": "H" 
			},
			{
				"x": 0.3850921761,
				"y": 1.1356207116,
				"z": -4.3635307092,
				"element": "H" 
			},
			{
				"x": -1.73666516,
				"y": -0.1164098957,
				"z": -4.7063278878,
				"element": "H" 
			},
			{
				"x": -2.9451274665,
				"y": -1.0468947752,
				"z": -2.7391152422,
				"element": "H" 
			},
			{
				"x": -2.0362300508,
				"y": -0.7362064547,
				"z": -0.4652093317,
				"element": "H" 
			}
		],
		 "valence_orbital": [ 
			{
				"type": "occ",
				"energy": -0.33309,
				"method": "rhf"
			},
			{
				"type": "occ",
				"energy": -0.28635,
				"method": "rhf"
			},
			{
				"type": "occ",
				"energy": -0.26033,
				"method": "rhf"
			},
			{
				"type": "occ",
				"energy": -0.23887,
				"method": "rhf"
			},
			{
				"type": "occ",
				"energy": -0.23124,
				"method": "rhf"
			},
			{
				"type": "unocc",
				"energy": -0.06086,
				"method": "rhf"
			},
			{
				"type": "unocc",
				"energy": -0.01111,
				"method": "rhf"
			},
			{
				"type": "unocc",
				"energy": 0.00614,
				"method": "rhf"
			},
			{
				"type": "unocc",
				"energy": 0.06198,
				"method": "rhf"
			},
			{
				"type": "unocc",
				"energy": 0.08234,
				"method": "rhf"
			}
		],
		"cosmo_sigma_profile": { 
			"-0.025": 0.0,
			"-0.024": 0.0,
			"-0.023": 0.0,
			"-0.022": 0.0,
			"-0.021": 0.0,
			"-0.02": 0.0,
			"-0.019": 0.0,
			"-0.018": 0.0,
			"-0.017": 0.0,
			"-0.016": 0.0,
			"-0.015": 0.0,
			"-0.014": 0.0,
			"-0.013": 0.0,
			"-0.012": 0.0,
			"-0.011": 0.0,
			"-0.01": 0.0,
			"-0.009": 0.0,
			"-0.008": 0.12110734797,
			"-0.007": 1.92175532005,
			"-0.006": 9.31868567409,
			"-0.005": 18.8477886517,
			"-0.004": 24.7708088612,
			"-0.003": 25.5406757333,
			"-0.002": 24.546899566,
			"-0.001": 19.6931041179,
			"0.0": 14.2111665654,
			"0.001": 12.5143997736,
			"0.002": 12.4014153094,
			"0.003": 11.811705976,
			"0.004": 12.0105011247,
			"0.005": 10.7893735633,
			"0.006": 1.87799704949,
			"0.007": 1.85223550126,
			"0.008": 1.78257668952,
			"0.009": 0.915179067174,
			"0.01": 1.45297744678,
			"0.011": 2.26180553926,
			"0.012": 3.26087938224,
			"0.013": 4.91155750151,
			"0.014": 2.68663978081,
			"0.015": 0.433447539216,
			"0.016": 0.0,
			"0.017": 0.0,
			"0.018": 0.0,
			"0.019": 0.0,
			"0.02": 0.0,
			"0.021": 0.0,
			"0.022": 0.0,
			"0.023": 0.0,
			"0.024": 0.0,
			"0.025": 0.0
		}
	}
}
