{
	 "smiles": "CCC(C)N1N=CC2=C1N=C(C=C2C(O)=O)C1CC1", 
	 "Tm": 408.15, 
	 "num_atms": 36, 
	 "gaussian": { 
		 "optdone": 1, 
		 "sigma_profile": "yes", 
		 "theory": "DFT", 
		 "functional": "B3LYP", 
		 "basiset": "6-31G**", 
		 "properties": { 
			 "R2extent": 7055.495, 
			 "electric_dipole_moment_norm": 4.45568245727, 
			 "electric_quadrupole_moment_norm": 27.5099447748, 
			 "total_energy": -858.42476291, 
			 "HOMO_LUMO_gap": 0.16463, 
			 "cosmo_polarized_energy": -14.05, 
			 "cosmo_cavitation_energy": 38.93, 
			 "cosmo_dispersion_energy": -26.41, 
			 "cosmo_repulsion_energy": 2.03, 
			 "cosmo_total_nonelectrostatic_energy": 14.55, 
			 "SMD_solvation_energy": 6.21 
		},
		"coords": [
			{
				"x": 2.023082478,
				"y": -1.6491232703,
				"z": -1.9393070932,
				"element": "C" 
			},
			{
				"x": 0.6918305753,
				"y": -1.8449337763,
				"z": -1.2088182689,
				"element": "C" 
			},
			{
				"x": 0.5996302347,
				"y": -1.101183581,
				"z": 0.1357707983,
				"element": "C" 
			},
			{
				"x": -0.6967467299,
				"y": -1.4088082919,
				"z": 0.8946780796,
				"element": "C" 
			},
			{
				"x": 0.7728413763,
				"y": 0.351824747,
				"z": -0.0363442744,
				"element": "N" 
			},
			{
				"x": 1.8541726803,
				"y": 0.966115246,
				"z": 0.5105430583,
				"element": "N" 
			},
			{
				"x": 1.7777536736,
				"y": 2.2504742815,
				"z": 0.1964900428,
				"element": "C" 
			},
			{
				"x": 0.6135470211,
				"y": 2.517380562,
				"z": -0.5814620295,
				"element": "C" 
			},
			{
				"x": -0.0080351771,
				"y": 1.2462714345,
				"z": -0.7191162456,
				"element": "C" 
			},
			{
				"x": -1.1302741234,
				"y": 0.9743734022,
				"z": -1.3951539346,
				"element": "N" 
			},
			{
				"x": -1.7013573847,
				"y": 2.0148499665,
				"z": -2.0125011394,
				"element": "C" 
			},
			{
				"x": -1.1700406974,
				"y": 3.3305351611,
				"z": -1.9472148822,
				"element": "C" 
			},
			{
				"x": -0.023350802,
				"y": 3.6049577147,
				"z": -1.2181962163,
				"element": "C" 
			},
			{
				"x": 0.4696340252,
				"y": 5.0211050101,
				"z": -1.1475753691,
				"element": "C" 
			},
			{
				"x": 1.2213626102,
				"y": 5.331209902,
				"z": -0.0593172998,
				"element": "O" 
			},
			{
				"x": 0.2238120729,
				"y": 5.8556780788,
				"z": -1.9840779941,
				"element": "O" 
			},
			{
				"x": -2.9447015561,
				"y": 1.7664388402,
				"z": -2.7867479938,
				"element": "C" 
			},
			{
				"x": -3.9483965877,
				"y": 0.7319288003,
				"z": -2.3024840397,
				"element": "C" 
			},
			{
				"x": -3.1316944291,
				"y": 0.449560524,
				"z": -3.5226809225,
				"element": "C" 
			},
			{
				"x": 2.1928512444,
				"y": -0.5976412684,
				"z": -2.1903315011,
				"element": "H" 
			},
			{
				"x": 2.0404219274,
				"y": -2.2205258836,
				"z": -2.8724955392,
				"element": "H" 
			},
			{
				"x": 2.8675518083,
				"y": -1.9829661156,
				"z": -1.3263350913,
				"element": "H" 
			},
			{
				"x": 0.5389357125,
				"y": -2.9106165858,
				"z": -0.9976050567,
				"element": "H" 
			},
			{
				"x": -0.1425907719,
				"y": -1.5290862301,
				"z": -1.8442788862,
				"element": "H" 
			},
			{
				"x": 1.4568395408,
				"y": -1.3807431844,
				"z": 0.755648448,
				"element": "H" 
			},
			{
				"x": -1.570742438,
				"y": -1.1113420248,
				"z": 0.3100453621,
				"element": "H" 
			},
			{
				"x": -0.7627399464,
				"y": -2.4828303183,
				"z": 1.0938776164,
				"element": "H" 
			},
			{
				"x": -0.7204138824,
				"y": -0.8813452848,
				"z": 1.8526624763,
				"element": "H" 
			},
			{
				"x": 2.572114333,
				"y": 2.9183979723,
				"z": 0.5039378137,
				"element": "H" 
			},
			{
				"x": -1.6680947989,
				"y": 4.1442046731,
				"z": -2.462215966,
				"element": "H" 
			},
			{
				"x": 1.1929534963,
				"y": 4.60521225,
				"z": 0.581076086,
				"element": "H" 
			},
			{
				"x": -3.35422451,
				"y": 2.6505899353,
				"z": -3.2657187568,
				"element": "H" 
			},
			{
				"x": -3.6876929876,
				"y": 0.2053798847,
				"z": -1.3902362773,
				"element": "H" 
			},
			{
				"x": -5.0018644764,
				"y": 0.9678695941,
				"z": -2.4172887469,
				"element": "H" 
			},
			{
				"x": -2.3220490271,
				"y": -0.2669389322,
				"z": -3.4307839734,
				"element": "H" 
			},
			{
				"x": -3.6102244842,
				"y": 0.4867267673,
				"z": -4.4964422838,
				"element": "H" 
			}
		],
		 "valence_orbital": [ 
			{
				"type": "occ",
				"energy": -0.30669,
				"method": "rhf"
			},
			{
				"type": "occ",
				"energy": -0.28607,
				"method": "rhf"
			},
			{
				"type": "occ",
				"energy": -0.27446,
				"method": "rhf"
			},
			{
				"type": "occ",
				"energy": -0.24868,
				"method": "rhf"
			},
			{
				"type": "occ",
				"energy": -0.24203,
				"method": "rhf"
			},
			{
				"type": "unocc",
				"energy": -0.0774,
				"method": "rhf"
			},
			{
				"type": "unocc",
				"energy": -0.0104,
				"method": "rhf"
			},
			{
				"type": "unocc",
				"energy": 0.02199,
				"method": "rhf"
			},
			{
				"type": "unocc",
				"energy": 0.0404,
				"method": "rhf"
			},
			{
				"type": "unocc",
				"energy": 0.07875,
				"method": "rhf"
			}
		],
		"cosmo_sigma_profile": { 
			"-0.025": 0.0,
			"-0.024": 0.0,
			"-0.023": 0.0,
			"-0.022": 0.0,
			"-0.021": 0.0,
			"-0.02": 0.0,
			"-0.019": 0.0,
			"-0.018": 0.032704555032,
			"-0.017": 0.550032332635,
			"-0.016": 1.10163820227,
			"-0.015": 0.657324727303,
			"-0.014": 1.10466520569,
			"-0.013": 1.0252190138,
			"-0.012": 1.49229215185,
			"-0.011": 0.940451597866,
			"-0.01": 1.14389313814,
			"-0.009": 1.51073883776,
			"-0.008": 2.65739010669,
			"-0.007": 4.60261655971,
			"-0.006": 6.11672436836,
			"-0.005": 11.8071032256,
			"-0.004": 22.3433855951,
			"-0.003": 26.8881168318,
			"-0.002": 28.7754877347,
			"-0.001": 35.113194781,
			"0.0": 40.6881961834,
			"0.001": 31.8381408984,
			"0.002": 19.6098770068,
			"0.003": 15.948271228,
			"0.004": 9.11859229084,
			"0.005": 6.22119486497,
			"0.006": 4.53529840389,
			"0.007": 4.20394921245,
			"0.008": 4.15182612121,
			"0.009": 5.40135141328,
			"0.01": 6.39009081938,
			"0.011": 6.13810267507,
			"0.012": 3.55760930093,
			"0.013": 1.45174650885,
			"0.014": 0.634141335358,
			"0.015": 0.0468400487722,
			"0.016": 0.0,
			"0.017": 0.0,
			"0.018": 0.0,
			"0.019": 0.0,
			"0.02": 0.0,
			"0.021": 0.0,
			"0.022": 0.0,
			"0.023": 0.0,
			"0.024": 0.0,
			"0.025": 0.0
		}
	}
}
