{
	 "smiles": "N#CCC1=CSC(=N1)C1=CC=CC=C1", 
	 "Tm": 331.15, 
	 "num_atms": 22, 
	 "gaussian": { 
		 "optdone": 1, 
		 "sigma_profile": "yes", 
		 "theory": "DFT", 
		 "functional": "B3LYP", 
		 "basiset": "6-31G**", 
		 "properties": { 
			 "R2extent": 4635.7516, 
			 "electric_dipole_moment_norm": 4.03357864185, 
			 "electric_quadrupole_moment_norm": 19.5518519798, 
			 "total_energy": -931.664062273, 
			 "HOMO_LUMO_gap": 0.16867, 
			 "cosmo_polarized_energy": -10.59, 
			 "cosmo_cavitation_energy": 29.18, 
			 "cosmo_dispersion_energy": -21.48, 
			 "cosmo_repulsion_energy": 1.63, 
			 "cosmo_total_nonelectrostatic_energy": 9.34, 
			 "SMD_solvation_energy": 4.87 
		},
		"coords": [
			{
				"x": -5.2969727152,
				"y": -3.4309655066,
				"z": 1.1549047876,
				"element": "N" 
			},
			{
				"x": -4.5444457715,
				"y": -2.7731692228,
				"z": 0.5657056977,
				"element": "C" 
			},
			{
				"x": -3.5883423642,
				"y": -1.9390660349,
				"z": -0.164488955,
				"element": "C" 
			},
			{
				"x": -2.5853971202,
				"y": -1.2442089322,
				"z": 0.7300746976,
				"element": "C" 
			},
			{
				"x": -2.5036941185,
				"y": -1.3267904339,
				"z": 2.0913321884,
				"element": "C" 
			},
			{
				"x": -1.191593665,
				"y": -0.3528607944,
				"z": 2.6606916867,
				"element": "S" 
			},
			{
				"x": -0.8402716543,
				"y": 0.1050684947,
				"z": 0.9896103894,
				"element": "C" 
			},
			{
				"x": -1.6525502638,
				"y": -0.4423902421,
				"z": 0.1217039089,
				"element": "N" 
			},
			{
				"x": 0.2584724522,
				"y": 1.0111909186,
				"z": 0.6297066626,
				"element": "C" 
			},
			{
				"x": 0.4682240318,
				"y": 1.3234129369,
				"z": -0.7254416266,
				"element": "C" 
			},
			{
				"x": 1.500959084,
				"y": 2.1786832403,
				"z": -1.0979489477,
				"element": "C" 
			},
			{
				"x": 2.3401330604,
				"y": 2.7360107024,
				"z": -0.1293251707,
				"element": "C" 
			},
			{
				"x": 2.1385996905,
				"y": 2.4310846843,
				"z": 1.218438567,
				"element": "C" 
			},
			{
				"x": 1.1063070672,
				"y": 1.5755834256,
				"z": 1.5964532471,
				"element": "C" 
			},
			{
				"x": -3.0586458094,
				"y": -2.5637235333,
				"z": -0.8944285,
				"element": "H" 
			},
			{
				"x": -4.1422231057,
				"y": -1.1913516847,
				"z": -0.7456505236,
				"element": "H" 
			},
			{
				"x": -3.1271619923,
				"y": -1.8921471609,
				"z": 2.7688653227,
				"element": "H" 
			},
			{
				"x": -0.1892720944,
				"y": 0.8848999219,
				"z": -1.4676494299,
				"element": "H" 
			},
			{
				"x": 1.6522455146,
				"y": 2.4117301399,
				"z": -2.1479308089,
				"element": "H" 
			},
			{
				"x": 3.1453341093,
				"y": 3.4031303804,
				"z": -0.4225504343,
				"element": "H" 
			},
			{
				"x": 2.7859633098,
				"y": 2.8597257409,
				"z": 1.9776236095,
				"element": "H" 
			},
			{
				"x": 0.9627323545,
				"y": 1.3482529601,
				"z": 2.6493036314,
				"element": "H" 
			}
		],
		 "valence_orbital": [ 
			{
				"type": "occ",
				"energy": -0.30042,
				"method": "rhf"
			},
			{
				"type": "occ",
				"energy": -0.28746,
				"method": "rhf"
			},
			{
				"type": "occ",
				"energy": -0.2836,
				"method": "rhf"
			},
			{
				"type": "occ",
				"energy": -0.26285,
				"method": "rhf"
			},
			{
				"type": "occ",
				"energy": -0.23098,
				"method": "rhf"
			},
			{
				"type": "unocc",
				"energy": -0.06231,
				"method": "rhf"
			},
			{
				"type": "unocc",
				"energy": -0.01313,
				"method": "rhf"
			},
			{
				"type": "unocc",
				"energy": 0.01055,
				"method": "rhf"
			},
			{
				"type": "unocc",
				"energy": 0.01088,
				"method": "rhf"
			},
			{
				"type": "unocc",
				"energy": 0.02963,
				"method": "rhf"
			}
		],
		"cosmo_sigma_profile": { 
			"-0.025": 0.0,
			"-0.024": 0.0,
			"-0.023": 0.0,
			"-0.022": 0.0,
			"-0.021": 0.0,
			"-0.02": 0.0,
			"-0.019": 0.0,
			"-0.018": 0.0,
			"-0.017": 0.0,
			"-0.016": 0.0,
			"-0.015": 0.0,
			"-0.014": 0.0,
			"-0.013": 0.0,
			"-0.012": 0.0,
			"-0.011": 0.0,
			"-0.01": 0.64990969933,
			"-0.009": 6.75693241147,
			"-0.008": 6.11088750245,
			"-0.007": 7.56684097693,
			"-0.006": 14.0763275661,
			"-0.005": 15.5815356615,
			"-0.004": 15.9130628346,
			"-0.003": 12.6024003733,
			"-0.002": 13.3439279119,
			"-0.001": 15.0069384482,
			"0.0": 17.8976225264,
			"0.001": 21.5081867691,
			"0.002": 20.2098621683,
			"0.003": 18.4370000483,
			"0.004": 15.9681166974,
			"0.005": 9.01280316945,
			"0.006": 4.02963239101,
			"0.007": 3.55700652844,
			"0.008": 5.01370629704,
			"0.009": 4.24420889706,
			"0.01": 4.13204818421,
			"0.011": 2.84237481945,
			"0.012": 2.3921075711,
			"0.013": 1.32215214466,
			"0.014": 0.0335489672587,
			"0.015": 0.0,
			"0.016": 0.0,
			"0.017": 0.0,
			"0.018": 0.0,
			"0.019": 0.0,
			"0.02": 0.0,
			"0.021": 0.0,
			"0.022": 0.0,
			"0.023": 0.0,
			"0.024": 0.0,
			"0.025": 0.0
		}
	}
}
