{
	 "smiles": "CC1=C(C=C(C=C1N)N(=O)=O)C(N)=O", 
	 "Tm": 472.15, 
	 "num_atms": 23, 
	 "gaussian": { 
		 "optdone": 1, 
		 "sigma_profile": "yes", 
		 "theory": "DFT", 
		 "functional": "B3LYP", 
		 "basiset": "6-31G**", 
		 "properties": { 
			 "R2extent": 2977.636, 
			 "electric_dipole_moment_norm": 4.81646038809, 
			 "electric_quadrupole_moment_norm": 25.5731188505, 
			 "total_energy": -700.128234413, 
			 "HOMO_LUMO_gap": 0.14149, 
			 "cosmo_polarized_energy": -19.88, 
			 "cosmo_cavitation_energy": 27.62, 
			 "cosmo_dispersion_energy": -20.33, 
			 "cosmo_repulsion_energy": 1.61, 
			 "cosmo_total_nonelectrostatic_energy": 8.9, 
			 "SMD_solvation_energy": 7.72 
		},
		"coords": [
			{
				"x": 0.3835438213,
				"y": -2.3507594603,
				"z": -1.8906496514,
				"element": "C" 
			},
			{
				"x": 0.2838636533,
				"y": -1.3240719544,
				"z": -0.7901295361,
				"element": "C" 
			},
			{
				"x": -0.3693241153,
				"y": -0.0831556423,
				"z": -0.9358285512,
				"element": "C" 
			},
			{
				"x": -0.422475513,
				"y": 0.830975785,
				"z": 0.1254897156,
				"element": "C" 
			},
			{
				"x": 0.1757534265,
				"y": 0.4906004258,
				"z": 1.3309190122,
				"element": "C" 
			},
			{
				"x": 0.813311853,
				"y": -0.7263740006,
				"z": 1.5247612972,
				"element": "C" 
			},
			{
				"x": 0.8682424138,
				"y": -1.6421325734,
				"z": 0.4663153604,
				"element": "C" 
			},
			{
				"x": 1.5481051847,
				"y": -2.8409909839,
				"z": 0.633784775,
				"element": "N" 
			},
			{
				"x": 0.1267314339,
				"y": 1.4476087464,
				"z": 2.4467869537,
				"element": "N" 
			},
			{
				"x": -0.4577681469,
				"y": 2.5149679293,
				"z": 2.260221892,
				"element": "O" 
			},
			{
				"x": 0.6681624351,
				"y": 1.1229716414,
				"z": 3.503876618,
				"element": "O" 
			},
			{
				"x": -0.9973563459,
				"y": 0.3296712181,
				"z": -2.2483413894,
				"element": "C" 
			},
			{
				"x": -2.1602988602,
				"y": 1.0417886249,
				"z": -2.1269751638,
				"element": "N" 
			},
			{
				"x": -0.5045425688,
				"y": 0.086450468,
				"z": -3.3437269325,
				"element": "O" 
			},
			{
				"x": -0.0308126997,
				"y": -1.9850244002,
				"z": -2.8258833367,
				"element": "H" 
			},
			{
				"x": 1.434020278,
				"y": -2.6128739172,
				"z": -2.0675249737,
				"element": "H" 
			},
			{
				"x": -0.1374976227,
				"y": -3.2777124773,
				"z": -1.6093118896,
				"element": "H" 
			},
			{
				"x": -0.8828594278,
				"y": 1.8036296801,
				"z": 0.0172009377,
				"element": "H" 
			},
			{
				"x": 1.2618401351,
				"y": -0.9457096086,
				"z": 2.4864106499,
				"element": "H" 
			},
			{
				"x": 1.2791924452,
				"y": -3.6083473577,
				"z": 0.0371471838,
				"element": "H" 
			},
			{
				"x": 1.723572494,
				"y": -3.1207137478,
				"z": 1.587712881,
				"element": "H" 
			},
			{
				"x": -2.6262052268,
				"y": 1.3060878231,
				"z": -2.9822190147,
				"element": "H" 
			},
			{
				"x": -2.6733990468,
				"y": 1.0854137817,
				"z": -1.2616368373,
				"element": "H" 
			}
		],
		 "valence_orbital": [ 
			{
				"type": "occ",
				"energy": -0.28871,
				"method": "rhf"
			},
			{
				"type": "occ",
				"energy": -0.27781,
				"method": "rhf"
			},
			{
				"type": "occ",
				"energy": -0.27457,
				"method": "rhf"
			},
			{
				"type": "occ",
				"energy": -0.25635,
				"method": "rhf"
			},
			{
				"type": "occ",
				"energy": -0.22778,
				"method": "rhf"
			},
			{
				"type": "unocc",
				"energy": -0.08629,
				"method": "rhf"
			},
			{
				"type": "unocc",
				"energy": -0.03812,
				"method": "rhf"
			},
			{
				"type": "unocc",
				"energy": 0.0071,
				"method": "rhf"
			},
			{
				"type": "unocc",
				"energy": 0.04551,
				"method": "rhf"
			},
			{
				"type": "unocc",
				"energy": 0.06383,
				"method": "rhf"
			}
		],
		"cosmo_sigma_profile": { 
			"-0.025": 0.0,
			"-0.024": 0.0,
			"-0.023": 0.0,
			"-0.022": 0.0,
			"-0.021": 0.0,
			"-0.02": 0.0,
			"-0.019": 0.0,
			"-0.018": 0.0,
			"-0.017": 0.0,
			"-0.016": 0.0,
			"-0.015": 0.12892932157,
			"-0.014": 2.43017009806,
			"-0.013": 4.39981984427,
			"-0.012": 4.55364126058,
			"-0.011": 4.9291846435,
			"-0.01": 6.45575588173,
			"-0.009": 6.01515849079,
			"-0.008": 4.94015396209,
			"-0.007": 4.42900965968,
			"-0.006": 6.13442973898,
			"-0.005": 8.71480821345,
			"-0.004": 9.27678550334,
			"-0.003": 9.64596614468,
			"-0.002": 11.807164896,
			"-0.001": 17.6029134463,
			"0.0": 16.918318096,
			"0.001": 16.5118761938,
			"0.002": 14.8591963191,
			"0.003": 6.8488062146,
			"0.004": 6.22439375685,
			"0.005": 6.89180916177,
			"0.006": 5.68045858296,
			"0.007": 9.07428170838,
			"0.008": 10.5464978722,
			"0.009": 7.5769951283,
			"0.01": 4.66356956389,
			"0.011": 2.4068895002,
			"0.012": 2.68581470331,
			"0.013": 4.52556115129,
			"0.014": 2.40298077748,
			"0.015": 0.026550090756,
			"0.016": 0.0,
			"0.017": 0.0,
			"0.018": 0.0,
			"0.019": 0.0,
			"0.02": 0.0,
			"0.021": 0.0,
			"0.022": 0.0,
			"0.023": 0.0,
			"0.024": 0.0,
			"0.025": 0.0
		}
	}
}
