{
	 "smiles": "CN1C(=O)N(CC2=CC=C(Br)C=C2)C(=O)C2=C1N=C(C=C2)C(F)(F)F", 
	 "Tm": 377.15, 
	 "num_atms": 36, 
	 "gaussian": { 
		 "optdone": 1, 
		 "sigma_profile": "yes", 
		 "theory": "DFT", 
		 "functional": "B3LYP", 
		 "basiset": "6-31G**", 
		 "properties": { 
			 "R2extent": 15920.2289, 
			 "electric_dipole_moment_norm": 2.03348018431, 
			 "electric_quadrupole_moment_norm": 15.7584199547, 
			 "total_energy": -3802.02287783, 
			 "HOMO_LUMO_gap": 0.155, 
			 "cosmo_polarized_energy": -11.78, 
			 "cosmo_cavitation_energy": 44.45, 
			 "cosmo_dispersion_energy": -31.49, 
			 "cosmo_repulsion_energy": 2.28, 
			 "cosmo_total_nonelectrostatic_energy": 15.25, 
			 "SMD_solvation_energy": 7.47 
		},
		"coords": [
			{
				"x": 1.5818590016,
				"y": -2.1947431036,
				"z": -1.1461301185,
				"element": "C" 
			},
			{
				"x": 1.4345655073,
				"y": -0.7757571558,
				"z": -0.7934285359,
				"element": "N" 
			},
			{
				"x": 1.426668829,
				"y": -0.4283572096,
				"z": 0.5582719692,
				"element": "C" 
			},
			{
				"x": 1.5438438521,
				"y": -1.2625443205,
				"z": 1.4426895374,
				"element": "O" 
			},
			{
				"x": 1.2840777546,
				"y": 0.9355791488,
				"z": 0.8581819128,
				"element": "N" 
			},
			{
				"x": 1.2691941988,
				"y": 1.3052930839,
				"z": 2.2956244294,
				"element": "C" 
			},
			{
				"x": -0.1192235989,
				"y": 1.280545781,
				"z": 2.9030842584,
				"element": "C" 
			},
			{
				"x": -0.6151340069,
				"y": 0.1152113589,
				"z": 3.5019490581,
				"element": "C" 
			},
			{
				"x": -1.8906948395,
				"y": 0.0890174044,
				"z": 4.0662258169,
				"element": "C" 
			},
			{
				"x": -2.6733156764,
				"y": 1.2416064807,
				"z": 4.027209376,
				"element": "C" 
			},
			{
				"x": -4.4222020769,
				"y": 1.2159683572,
				"z": 4.8017253822,
				"element": "Br" 
			},
			{
				"x": -2.2039748206,
				"y": 2.4130597587,
				"z": 3.4355837516,
				"element": "C" 
			},
			{
				"x": -0.9265210102,
				"y": 2.4253682931,
				"z": 2.8753860038,
				"element": "C" 
			},
			{
				"x": 1.1337819824,
				"y": 1.9636167492,
				"z": -0.0759281642,
				"element": "C" 
			},
			{
				"x": 0.9989043017,
				"y": 3.1322470781,
				"z": 0.2634566306,
				"element": "O" 
			},
			{
				"x": 1.1574991724,
				"y": 1.5262646141,
				"z": -1.4799574278,
				"element": "C" 
			},
			{
				"x": 1.306317875,
				"y": 0.1628854206,
				"z": -1.8034142241,
				"element": "C" 
			},
			{
				"x": 1.3298828542,
				"y": -0.2843551006,
				"z": -3.0620353987,
				"element": "N" 
			},
			{
				"x": 1.2064562489,
				"y": 0.6165505099,
				"z": -4.0377950128,
				"element": "C" 
			},
			{
				"x": 1.054080099,
				"y": 1.989085102,
				"z": -3.8364478764,
				"element": "C" 
			},
			{
				"x": 1.029474693,
				"y": 2.4429280096,
				"z": -2.5204599382,
				"element": "C" 
			},
			{
				"x": 1.2453064665,
				"y": 0.0285015623,
				"z": -5.4377452761,
				"element": "C" 
			},
			{
				"x": 2.4112011536,
				"y": -0.6036508213,
				"z": -5.6641302424,
				"element": "F" 
			},
			{
				"x": 0.2540813472,
				"y": -0.8631367998,
				"z": -5.6157559339,
				"element": "F" 
			},
			{
				"x": 1.1089330382,
				"y": 0.9890312839,
				"z": -6.3771729075,
				"element": "F" 
			},
			{
				"x": 2.4772178467,
				"y": -2.335278718,
				"z": -1.7546012114,
				"element": "H" 
			},
			{
				"x": 0.7160472265,
				"y": -2.5254038894,
				"z": -1.7227734638,
				"element": "H" 
			},
			{
				"x": 1.6593812848,
				"y": -2.7533029591,
				"z": -0.2173171882,
				"element": "H" 
			},
			{
				"x": 1.6921749056,
				"y": 2.3080592594,
				"z": 2.3502003089,
				"element": "H" 
			},
			{
				"x": 1.9260780871,
				"y": 0.6012670175,
				"z": 2.8042703776,
				"element": "H" 
			},
			{
				"x": -0.0008867727,
				"y": -0.7795954689,
				"z": 3.517039664,
				"element": "H" 
			},
			{
				"x": -2.2705451261,
				"y": -0.813433302,
				"z": 4.5315360597,
				"element": "H" 
			},
			{
				"x": -2.8250266921,
				"y": 3.3013738427,
				"z": 3.4150812302,
				"element": "H" 
			},
			{
				"x": -0.5537616439,
				"y": 3.3291727705,
				"z": 2.4034086405,
				"element": "H" 
			},
			{
				"x": 0.9587719827,
				"y": 2.6643768628,
				"z": -4.6764269224,
				"element": "H" 
			},
			{
				"x": 0.9131865548,
				"y": 3.4925490991,
				"z": -2.2721045646,
				"element": "H" 
			}
		],
		 "valence_orbital": [ 
			{
				"type": "occ",
				"energy": -0.28621,
				"method": "rhf"
			},
			{
				"type": "occ",
				"energy": -0.27962,
				"method": "rhf"
			},
			{
				"type": "occ",
				"energy": -0.26334,
				"method": "rhf"
			},
			{
				"type": "occ",
				"energy": -0.25923,
				"method": "rhf"
			},
			{
				"type": "occ",
				"energy": -0.24154,
				"method": "rhf"
			},
			{
				"type": "unocc",
				"energy": -0.08654,
				"method": "rhf"
			},
			{
				"type": "unocc",
				"energy": -0.04748,
				"method": "rhf"
			},
			{
				"type": "unocc",
				"energy": -0.01971,
				"method": "rhf"
			},
			{
				"type": "unocc",
				"energy": -0.01449,
				"method": "rhf"
			},
			{
				"type": "unocc",
				"energy": -0.00254,
				"method": "rhf"
			}
		],
		"cosmo_sigma_profile": { 
			"-0.025": 0.0,
			"-0.024": 0.0,
			"-0.023": 0.0,
			"-0.022": 0.0,
			"-0.021": 0.0,
			"-0.02": 0.0,
			"-0.019": 0.0,
			"-0.018": 0.0,
			"-0.017": 0.0,
			"-0.016": 0.0,
			"-0.015": 0.0,
			"-0.014": 0.0,
			"-0.013": 0.0,
			"-0.012": 0.0,
			"-0.011": 0.0,
			"-0.01": 0.0,
			"-0.009": 0.951134138322,
			"-0.008": 4.73747925358,
			"-0.007": 7.77245542594,
			"-0.006": 14.8039310531,
			"-0.005": 21.5616619777,
			"-0.004": 31.6906634601,
			"-0.003": 35.9303801553,
			"-0.002": 28.3746641877,
			"-0.001": 23.0740582274,
			"0.0": 21.9472377101,
			"0.001": 24.4219143666,
			"0.002": 44.4002702006,
			"0.003": 40.712326866,
			"0.004": 22.4855571083,
			"0.005": 12.6647753593,
			"0.006": 3.39786280911,
			"0.007": 4.85640399276,
			"0.008": 4.24982663765,
			"0.009": 2.63040392821,
			"0.01": 3.20186263328,
			"0.011": 5.35764208895,
			"0.012": 1.84595563303,
			"0.013": 0.0,
			"0.014": 0.0,
			"0.015": 0.0,
			"0.016": 0.0,
			"0.017": 0.0,
			"0.018": 0.0,
			"0.019": 0.0,
			"0.02": 0.0,
			"0.021": 0.0,
			"0.022": 0.0,
			"0.023": 0.0,
			"0.024": 0.0,
			"0.025": 0.0
		}
	}
}
