{
	 "smiles": "OC(=O)C=CC1=CC=CO1", 
	 "Tm": 416.15, 
	 "num_atms": 16, 
	 "gaussian": { 
		 "optdone": 1, 
		 "sigma_profile": "yes", 
		 "theory": "DFT", 
		 "functional": "B3LYP", 
		 "basiset": "6-31G**", 
		 "properties": { 
			 "R2extent": 2366.6737, 
			 "electric_dipole_moment_norm": 5.51983516873, 
			 "electric_quadrupole_moment_norm": 15.5702600136, 
			 "total_energy": -495.999623478, 
			 "HOMO_LUMO_gap": 0.15835, 
			 "cosmo_polarized_energy": -15.39, 
			 "cosmo_cavitation_energy": 21.76, 
			 "cosmo_dispersion_energy": -15.94, 
			 "cosmo_repulsion_energy": 1.3, 
			 "cosmo_total_nonelectrostatic_energy": 7.12, 
			 "SMD_solvation_energy": 6.17 
		},
		"coords": [
			{
				"x": 1.4569528154,
				"y": -3.1321782025,
				"z": 1.0952045996,
				"element": "O" 
			},
			{
				"x": 1.8882241533,
				"y": -2.183104069,
				"z": 0.2157284254,
				"element": "C" 
			},
			{
				"x": 2.7442227532,
				"y": -2.4617654753,
				"z": -0.5950624186,
				"element": "O" 
			},
			{
				"x": 1.2460860979,
				"y": -0.8542492783,
				"z": 0.3387992073,
				"element": "C" 
			},
			{
				"x": 1.6139628122,
				"y": 0.1420052157,
				"z": -0.4924728888,
				"element": "C" 
			},
			{
				"x": 1.0933119918,
				"y": 1.4763932766,
				"z": -0.5038489292,
				"element": "C" 
			},
			{
				"x": 1.3834959278,
				"y": 2.5666832115,
				"z": -1.2913129853,
				"element": "C" 
			},
			{
				"x": 0.5490309836,
				"y": 3.6323507163,
				"z": -0.8450395367,
				"element": "C" 
			},
			{
				"x": -0.192549597,
				"y": 3.1231161065,
				"z": 0.1818120459,
				"element": "C" 
			},
			{
				"x": 0.1209883192,
				"y": 1.8209553249,
				"z": 0.4044457543,
				"element": "O" 
			},
			{
				"x": 0.7766088817,
				"y": -2.765150172,
				"z": 1.6764054272,
				"element": "H" 
			},
			{
				"x": 0.4836163585,
				"y": -0.6877138934,
				"z": 1.0958359872,
				"element": "H" 
			},
			{
				"x": 2.3812275351,
				"y": -0.0791208381,
				"z": -1.2311049413,
				"element": "H" 
			},
			{
				"x": 2.1094657029,
				"y": 2.5913480919,
				"z": -2.0914593073,
				"element": "H" 
			},
			{
				"x": 0.5041777812,
				"y": 4.6397235279,
				"z": -1.2322692214,
				"element": "H" 
			},
			{
				"x": -0.9510225167,
				"y": 3.5418064572,
				"z": 0.8254387816,
				"element": "H" 
			}
		],
		 "valence_orbital": [ 
			{
				"type": "occ",
				"energy": -0.32461,
				"method": "rhf"
			},
			{
				"type": "occ",
				"energy": -0.30269,
				"method": "rhf"
			},
			{
				"type": "occ",
				"energy": -0.29535,
				"method": "rhf"
			},
			{
				"type": "occ",
				"energy": -0.26607,
				"method": "rhf"
			},
			{
				"type": "occ",
				"energy": -0.22812,
				"method": "rhf"
			},
			{
				"type": "unocc",
				"energy": -0.06977,
				"method": "rhf"
			},
			{
				"type": "unocc",
				"energy": 0.02185,
				"method": "rhf"
			},
			{
				"type": "unocc",
				"energy": 0.06356,
				"method": "rhf"
			},
			{
				"type": "unocc",
				"energy": 0.06357,
				"method": "rhf"
			},
			{
				"type": "unocc",
				"energy": 0.09907,
				"method": "rhf"
			}
		],
		"cosmo_sigma_profile": { 
			"-0.025": 0.0,
			"-0.024": 0.0,
			"-0.023": 0.0,
			"-0.022": 0.0,
			"-0.021": 0.0,
			"-0.02": 0.0,
			"-0.019": 0.266482195247,
			"-0.018": 1.3360021906,
			"-0.017": 1.20827342111,
			"-0.016": 1.06022950165,
			"-0.015": 1.04752646046,
			"-0.014": 1.30099833811,
			"-0.013": 0.820955723578,
			"-0.012": 1.08733010046,
			"-0.011": 1.1248599215,
			"-0.01": 1.86426390149,
			"-0.009": 2.89973767287,
			"-0.008": 6.0078550346,
			"-0.007": 9.22207030024,
			"-0.006": 7.26640496209,
			"-0.005": 7.34878646315,
			"-0.004": 7.21803410923,
			"-0.003": 8.14502568941,
			"-0.002": 7.53530051984,
			"-0.001": 8.04161680945,
			"0.0": 10.2473100502,
			"0.001": 16.5154847874,
			"0.002": 18.305719046,
			"0.003": 12.6395828042,
			"0.004": 8.03617086871,
			"0.005": 4.05766646868,
			"0.006": 3.59455725927,
			"0.007": 2.20027196685,
			"0.008": 2.22781465063,
			"0.009": 3.32537167199,
			"0.01": 3.45327592789,
			"0.011": 5.27070153508,
			"0.012": 5.55053195305,
			"0.013": 3.76538924316,
			"0.014": 0.906874694734,
			"0.015": 0.0,
			"0.016": 0.0,
			"0.017": 0.0,
			"0.018": 0.0,
			"0.019": 0.0,
			"0.02": 0.0,
			"0.021": 0.0,
			"0.022": 0.0,
			"0.023": 0.0,
			"0.024": 0.0,
			"0.025": 0.0
		}
	}
}
