{
	 "smiles": "COC1=C(C=CC=N1)C(O)=O", 
	 "Tm": 422.15, 
	 "num_atms": 18, 
	 "gaussian": { 
		 "optdone": 1, 
		 "sigma_profile": "yes", 
		 "theory": "DFT", 
		 "functional": "B3LYP", 
		 "basiset": "6-31G**", 
		 "properties": { 
			 "R2extent": 1853.0665, 
			 "electric_dipole_moment_norm": 4.98205758397, 
			 "electric_quadrupole_moment_norm": 15.3790860223, 
			 "total_energy": -551.393756942, 
			 "HOMO_LUMO_gap": 0.1981, 
			 "cosmo_polarized_energy": -11.87, 
			 "cosmo_cavitation_energy": 22.39, 
			 "cosmo_dispersion_energy": -16.89, 
			 "cosmo_repulsion_energy": 1.35, 
			 "cosmo_total_nonelectrostatic_energy": 6.86, 
			 "SMD_solvation_energy": 5.16 
		},
		"coords": [
			{
				"x": -0.8006532028,
				"y": -1.8966025814,
				"z": 1.6788116469,
				"element": "C" 
			},
			{
				"x": -1.0808082684,
				"y": -0.6569621793,
				"z": 1.0070938831,
				"element": "O" 
			},
			{
				"x": -0.0263664324,
				"y": 0.0931175739,
				"z": 0.5797001139,
				"element": "C" 
			},
			{
				"x": -0.3100796408,
				"y": 1.3119051595,
				"z": -0.0803918908,
				"element": "C" 
			},
			{
				"x": 0.7934242432,
				"y": 2.053638427,
				"z": -0.504100459,
				"element": "C" 
			},
			{
				"x": 2.086799945,
				"y": 1.5880412689,
				"z": -0.2723414224,
				"element": "C" 
			},
			{
				"x": 2.231992055,
				"y": 0.3724478587,
				"z": 0.3884064144,
				"element": "C" 
			},
			{
				"x": 1.1946699944,
				"y": -0.3663517768,
				"z": 0.8093652115,
				"element": "N" 
			},
			{
				"x": -1.6774747578,
				"y": 1.8774943352,
				"z": -0.3653616,
				"element": "C" 
			},
			{
				"x": -2.7439986603,
				"y": 1.1668313783,
				"z": 0.0406995181,
				"element": "O" 
			},
			{
				"x": -1.8150613934,
				"y": 2.9356831674,
				"z": -0.9400669133,
				"element": "O" 
			},
			{
				"x": -0.2179183635,
				"y": -1.7191591041,
				"z": 2.5852031111,
				"element": "H" 
			},
			{
				"x": -1.7768818367,
				"y": -2.3148963679,
				"z": 1.9239037741,
				"element": "H" 
			},
			{
				"x": -0.2447741676,
				"y": -2.571150886,
				"z": 1.0241396779,
				"element": "H" 
			},
			{
				"x": 0.5995595876,
				"y": 2.9921505105,
				"z": -1.0128208786,
				"element": "H" 
			},
			{
				"x": 2.9563368714,
				"y": 2.1502802384,
				"z": -0.5940751632,
				"element": "H" 
			},
			{
				"x": 3.2186593454,
				"y": -0.0369098188,
				"z": 0.5947653048,
				"element": "H" 
			},
			{
				"x": -2.4479253182,
				"y": 0.3482427965,
				"z": 0.4820696714,
				"element": "H" 
			}
		],
		 "valence_orbital": [ 
			{
				"type": "occ",
				"energy": -0.3117,
				"method": "rhf"
			},
			{
				"type": "occ",
				"energy": -0.29552,
				"method": "rhf"
			},
			{
				"type": "occ",
				"energy": -0.29443,
				"method": "rhf"
			},
			{
				"type": "occ",
				"energy": -0.26496,
				"method": "rhf"
			},
			{
				"type": "occ",
				"energy": -0.25723,
				"method": "rhf"
			},
			{
				"type": "unocc",
				"energy": -0.05913,
				"method": "rhf"
			},
			{
				"type": "unocc",
				"energy": -0.02296,
				"method": "rhf"
			},
			{
				"type": "unocc",
				"energy": 0.04859,
				"method": "rhf"
			},
			{
				"type": "unocc",
				"energy": 0.08663,
				"method": "rhf"
			},
			{
				"type": "unocc",
				"energy": 0.09586,
				"method": "rhf"
			}
		],
		"cosmo_sigma_profile": { 
			"-0.025": 0.0,
			"-0.024": 0.0,
			"-0.023": 0.0,
			"-0.022": 0.0,
			"-0.021": 0.0,
			"-0.02": 0.0,
			"-0.019": 0.0,
			"-0.018": 0.0,
			"-0.017": 0.0,
			"-0.016": 0.0,
			"-0.015": 0.0,
			"-0.014": 0.0,
			"-0.013": 0.0,
			"-0.012": 0.0,
			"-0.011": 0.0254763311481,
			"-0.01": 0.513709158426,
			"-0.009": 0.341579915215,
			"-0.008": 2.20596557675,
			"-0.007": 8.49459512705,
			"-0.006": 14.364196768,
			"-0.005": 16.1263856058,
			"-0.004": 15.4885735828,
			"-0.003": 14.2028838926,
			"-0.002": 13.1896455674,
			"-0.001": 13.6929201114,
			"0.0": 15.254900381,
			"0.001": 12.4584166273,
			"0.002": 8.21828339086,
			"0.003": 4.62764444885,
			"0.004": 3.81773049065,
			"0.005": 3.33523580489,
			"0.006": 3.1817187561,
			"0.007": 3.27986577887,
			"0.008": 3.73581834915,
			"0.009": 4.11803032975,
			"0.01": 4.64326506565,
			"0.011": 6.26854732084,
			"0.012": 5.52532659663,
			"0.013": 2.16074108448,
			"0.014": 0.316592682223,
			"0.015": 0.0,
			"0.016": 0.0,
			"0.017": 0.0,
			"0.018": 0.0,
			"0.019": 0.0,
			"0.02": 0.0,
			"0.021": 0.0,
			"0.022": 0.0,
			"0.023": 0.0,
			"0.024": 0.0,
			"0.025": 0.0
		}
	}
}
