{
	 "smiles": "N#CCCCCCCCCC#N", 
	 "Tm": 280.15, 
	 "num_atms": 28, 
	 "gaussian": { 
		 "optdone": 1, 
		 "sigma_profile": "yes", 
		 "theory": "DFT", 
		 "functional": "B3LYP", 
		 "basiset": "6-31G**", 
		 "properties": { 
			 "R2extent": 3326.5556, 
			 "electric_dipole_moment_norm": 3.36921687934, 
			 "electric_quadrupole_moment_norm": 27.177942942, 
			 "total_energy": -500.193106362, 
			 "HOMO_LUMO_gap": 0.3356, 
			 "cosmo_polarized_energy": -14.64, 
			 "cosmo_cavitation_energy": 31.23, 
			 "cosmo_dispersion_energy": -20.32, 
			 "cosmo_repulsion_energy": 1.66, 
			 "cosmo_total_nonelectrostatic_energy": 12.57, 
			 "SMD_solvation_energy": 6.85 
		},
		"coords": [
			{
				"x": -3.9016506994,
				"y": 1.88322206,
				"z": 2.2007506613,
				"element": "N" 
			},
			{
				"x": -3.2748029584,
				"y": 2.2537644187,
				"z": 1.2962610775,
				"element": "C" 
			},
			{
				"x": -2.476805482,
				"y": 2.7380876244,
				"z": 0.1650651232,
				"element": "C" 
			},
			{
				"x": -1.1239585721,
				"y": 2.0138547338,
				"z": -0.0364064333,
				"element": "C" 
			},
			{
				"x": -1.2000900451,
				"y": 0.6012388685,
				"z": -0.6371275438,
				"element": "C" 
			},
			{
				"x": -1.8603750753,
				"y": -0.4613268606,
				"z": 0.2557109394,
				"element": "C" 
			},
			{
				"x": -1.7484995123,
				"y": -1.8966367887,
				"z": -0.2987147402,
				"element": "C" 
			},
			{
				"x": -0.3388016122,
				"y": -2.5255936539,
				"z": -0.3397262091,
				"element": "C" 
			},
			{
				"x": 0.1419623204,
				"y": -3.21941757,
				"z": 0.9465074394,
				"element": "C" 
			},
			{
				"x": 0.3315612156,
				"y": -2.3205489324,
				"z": 2.1917537675,
				"element": "C" 
			},
			{
				"x": 1.1920898431,
				"y": -1.1608591887,
				"z": 1.9383141769,
				"element": "C" 
			},
			{
				"x": 1.8591138915,
				"y": -0.2386252603,
				"z": 1.7074856654,
				"element": "N" 
			},
			{
				"x": -3.0871422714,
				"y": 2.6621729843,
				"z": -0.7436741596,
				"element": "H" 
			},
			{
				"x": -2.2981708796,
				"y": 3.8068711359,
				"z": 0.3323308828,
				"element": "H" 
			},
			{
				"x": -0.5816666119,
				"y": 1.9838594219,
				"z": 0.9153022637,
				"element": "H" 
			},
			{
				"x": -0.5312243163,
				"y": 2.6447523261,
				"z": -0.7085096576,
				"element": "H" 
			},
			{
				"x": -0.1709348139,
				"y": 0.2995149787,
				"z": -0.8630716427,
				"element": "H" 
			},
			{
				"x": -1.7252480383,
				"y": 0.6422118572,
				"z": -1.6026461793,
				"element": "H" 
			},
			{
				"x": -1.4292404687,
				"y": -0.3959358994,
				"z": 1.2610052609,
				"element": "H" 
			},
			{
				"x": -2.9237561965,
				"y": -0.2302137023,
				"z": 0.3802123564,
				"element": "H" 
			},
			{
				"x": -2.1520792691,
				"y": -1.8922767291,
				"z": -1.3200207647,
				"element": "H" 
			},
			{
				"x": -2.4144316977,
				"y": -2.5545702345,
				"z": 0.2762874006,
				"element": "H" 
			},
			{
				"x": 0.4044323161,
				"y": -1.7787443207,
				"z": -0.6438454071,
				"element": "H" 
			},
			{
				"x": -0.3256590147,
				"y": -3.2894602262,
				"z": -1.1265951778,
				"element": "H" 
			},
			{
				"x": 1.096470564,
				"y": -3.7160142205,
				"z": 0.7377724077,
				"element": "H" 
			},
			{
				"x": -0.5660676319,
				"y": -4.0088878109,
				"z": 1.2270997229,
				"element": "H" 
			},
			{
				"x": -0.632074303,
				"y": -1.9521673114,
				"z": 2.5590700393,
				"element": "H" 
			},
			{
				"x": 0.7731493193,
				"y": -2.9054716999,
				"z": 3.0068087305,
				"element": "H" 
			}
		],
		 "valence_orbital": [ 
			{
				"type": "occ",
				"energy": -0.32345,
				"method": "rhf"
			},
			{
				"type": "occ",
				"energy": -0.32108,
				"method": "rhf"
			},
			{
				"type": "occ",
				"energy": -0.32044,
				"method": "rhf"
			},
			{
				"type": "occ",
				"energy": -0.31498,
				"method": "rhf"
			},
			{
				"type": "occ",
				"energy": -0.30523,
				"method": "rhf"
			},
			{
				"type": "unocc",
				"energy": 0.03037,
				"method": "rhf"
			},
			{
				"type": "unocc",
				"energy": 0.03427,
				"method": "rhf"
			},
			{
				"type": "unocc",
				"energy": 0.03543,
				"method": "rhf"
			},
			{
				"type": "unocc",
				"energy": 0.0427,
				"method": "rhf"
			},
			{
				"type": "unocc",
				"energy": 0.07233,
				"method": "rhf"
			}
		],
		"cosmo_sigma_profile": { 
			"-0.025": 0.0,
			"-0.024": 0.0,
			"-0.023": 0.0,
			"-0.022": 0.0,
			"-0.021": 0.0,
			"-0.02": 0.0,
			"-0.019": 0.0,
			"-0.018": 0.0,
			"-0.017": 0.0,
			"-0.016": 0.0,
			"-0.015": 0.0,
			"-0.014": 0.0,
			"-0.013": 0.0,
			"-0.012": 0.0,
			"-0.011": 0.0,
			"-0.01": 0.0,
			"-0.009": 0.0,
			"-0.008": 3.47292336172,
			"-0.007": 11.0590031447,
			"-0.006": 10.8743058747,
			"-0.005": 14.5721132025,
			"-0.004": 25.6571180116,
			"-0.003": 23.9654158451,
			"-0.002": 29.5027010261,
			"-0.001": 28.6199895851,
			"0.0": 19.4550913988,
			"0.001": 12.3505208743,
			"0.002": 6.81497459197,
			"0.003": 5.04455425914,
			"0.004": 6.1857281762,
			"0.005": 3.82125501658,
			"0.006": 4.92925093387,
			"0.007": 4.85869751113,
			"0.008": 4.93032511595,
			"0.009": 6.17229341082,
			"0.01": 5.91835463536,
			"0.011": 5.41014450701,
			"0.012": 5.04187826104,
			"0.013": 4.4741092241,
			"0.014": 1.73336228817,
			"0.015": 0.0,
			"0.016": 0.0,
			"0.017": 0.0,
			"0.018": 0.0,
			"0.019": 0.0,
			"0.02": 0.0,
			"0.021": 0.0,
			"0.022": 0.0,
			"0.023": 0.0,
			"0.024": 0.0,
			"0.025": 0.0
		}
	}
}
