{
	 "smiles": "CC1=C(C=O)C(C)=NO1", 
	 "Tm": 309.65, 
	 "num_atms": 16, 
	 "gaussian": { 
		 "optdone": 1, 
		 "sigma_profile": "yes", 
		 "theory": "DFT", 
		 "functional": "B3LYP", 
		 "basiset": "6-31G**", 
		 "properties": { 
			 "R2extent": 1841.8087, 
			 "electric_dipole_moment_norm": 2.77159132088, 
			 "electric_quadrupole_moment_norm": 12.9440942607, 
			 "total_energy": -438.006988547, 
			 "HOMO_LUMO_gap": 0.203, 
			 "cosmo_polarized_energy": -10.64, 
			 "cosmo_cavitation_energy": 20.68, 
			 "cosmo_dispersion_energy": -14.93, 
			 "cosmo_repulsion_energy": 1.23, 
			 "cosmo_total_nonelectrostatic_energy": 6.98, 
			 "SMD_solvation_energy": 4.81 
		},
		"coords": [
			{
				"x": 2.4239925007,
				"y": 0.3096754031,
				"z": -2.0691116278,
				"element": "C" 
			},
			{
				"x": 1.5465996666,
				"y": 1.1433880985,
				"z": -1.1966803883,
				"element": "C" 
			},
			{
				"x": 0.1878073821,
				"y": 1.1933169705,
				"z": -0.9791406299,
				"element": "C" 
			},
			{
				"x": -0.8442599236,
				"y": 0.373006814,
				"z": -1.5978212445,
				"element": "C" 
			},
			{
				"x": -2.0372777794,
				"y": 0.468966718,
				"z": -1.3591921321,
				"element": "O" 
			},
			{
				"x": 0.0299036627,
				"y": 2.2399382173,
				"z": -0.0032236783,
				"element": "C" 
			},
			{
				"x": -1.2358969997,
				"y": 2.7402557667,
				"z": 0.6139436557,
				"element": "C" 
			},
			{
				"x": 1.1850242807,
				"y": 2.7618921858,
				"z": 0.3272857709,
				"element": "N" 
			},
			{
				"x": 2.1518326152,
				"y": 2.0605205447,
				"z": -0.4355799647,
				"element": "O" 
			},
			{
				"x": 2.1614326003,
				"y": 0.4345445535,
				"z": -3.1242756334,
				"element": "H" 
			},
			{
				"x": 3.4660388233,
				"y": 0.6042957697,
				"z": -1.932119842,
				"element": "H" 
			},
			{
				"x": 2.3261699027,
				"y": -0.7525610191,
				"z": -1.8241863154,
				"element": "H" 
			},
			{
				"x": -0.4721597279,
				"y": -0.3768839526,
				"z": -2.3302024527,
				"element": "H" 
			},
			{
				"x": -1.0155864343,
				"y": 3.5431519819,
				"z": 1.3199717021,
				"element": "H" 
			},
			{
				"x": -1.9180469668,
				"y": 3.1071727828,
				"z": -0.1579873061,
				"element": "H" 
			},
			{
				"x": -1.7551736026,
				"y": 1.9287191654,
				"z": 1.1312200865,
				"element": "H" 
			}
		],
		 "valence_orbital": [ 
			{
				"type": "occ",
				"energy": -0.38144,
				"method": "rhf"
			},
			{
				"type": "occ",
				"energy": -0.31403,
				"method": "rhf"
			},
			{
				"type": "occ",
				"energy": -0.29674,
				"method": "rhf"
			},
			{
				"type": "occ",
				"energy": -0.26869,
				"method": "rhf"
			},
			{
				"type": "occ",
				"energy": -0.26004,
				"method": "rhf"
			},
			{
				"type": "unocc",
				"energy": -0.05704,
				"method": "rhf"
			},
			{
				"type": "unocc",
				"energy": -0.00824,
				"method": "rhf"
			},
			{
				"type": "unocc",
				"energy": 0.07703,
				"method": "rhf"
			},
			{
				"type": "unocc",
				"energy": 0.08655,
				"method": "rhf"
			},
			{
				"type": "unocc",
				"energy": 0.08966,
				"method": "rhf"
			}
		],
		"cosmo_sigma_profile": { 
			"-0.025": 0.0,
			"-0.024": 0.0,
			"-0.023": 0.0,
			"-0.022": 0.0,
			"-0.021": 0.0,
			"-0.02": 0.0,
			"-0.019": 0.0,
			"-0.018": 0.0,
			"-0.017": 0.0,
			"-0.016": 0.0,
			"-0.015": 0.0,
			"-0.014": 0.0,
			"-0.013": 0.0,
			"-0.012": 0.0,
			"-0.011": 0.0,
			"-0.01": 0.0,
			"-0.009": 0.0,
			"-0.008": 1.19406048932,
			"-0.007": 10.777786054,
			"-0.006": 11.1148287481,
			"-0.005": 13.3887959853,
			"-0.004": 14.3253516554,
			"-0.003": 18.6547576334,
			"-0.002": 15.7572741548,
			"-0.001": 16.379736796,
			"0.0": 8.06495064293,
			"0.001": 4.68593751803,
			"0.002": 4.03691937996,
			"0.003": 4.41242943752,
			"0.004": 3.35311430143,
			"0.005": 4.37568951898,
			"0.006": 4.27998414842,
			"0.007": 5.46170255077,
			"0.008": 5.29193190835,
			"0.009": 3.78766416214,
			"0.01": 2.99111718092,
			"0.011": 4.91603250669,
			"0.012": 4.00701208067,
			"0.013": 2.60443493433,
			"0.014": 0.824877235535,
			"0.015": 0.0,
			"0.016": 0.0,
			"0.017": 0.0,
			"0.018": 0.0,
			"0.019": 0.0,
			"0.02": 0.0,
			"0.021": 0.0,
			"0.022": 0.0,
			"0.023": 0.0,
			"0.024": 0.0,
			"0.025": 0.0
		}
	}
}
