{
	 "smiles": "ClCC1=CN(N=C1)C1=CC=CC=C1", 
	 "Tm": 340.15, 
	 "num_atms": 22, 
	 "gaussian": { 
		 "optdone": 1, 
		 "sigma_profile": "yes", 
		 "theory": "DFT", 
		 "functional": "B3LYP", 
		 "basiset": "6-31G**", 
		 "properties": { 
			 "R2extent": 4833.0174, 
			 "electric_dipole_moment_norm": 3.1580855894, 
			 "electric_quadrupole_moment_norm": 15.0962173232, 
			 "total_energy": -956.165708902, 
			 "HOMO_LUMO_gap": 0.19755, 
			 "cosmo_polarized_energy": -10.47, 
			 "cosmo_cavitation_energy": 28.22, 
			 "cosmo_dispersion_energy": -20.79, 
			 "cosmo_repulsion_energy": 1.65, 
			 "cosmo_total_nonelectrostatic_energy": 9.07, 
			 "SMD_solvation_energy": 4.18 
		},
		"coords": [
			{
				"x": 1.5506791768,
				"y": 1.6033116871,
				"z": -5.5669124283,
				"element": "Cl" 
			},
			{
				"x": 0.1089986856,
				"y": 2.0802404666,
				"z": -4.515215001,
				"element": "C" 
			},
			{
				"x": 0.2129254258,
				"y": 1.5826554373,
				"z": -3.1233158593,
				"element": "C" 
			},
			{
				"x": -0.2781570723,
				"y": 0.3955744894,
				"z": -2.6096790724,
				"element": "C" 
			},
			{
				"x": 0.0440211536,
				"y": 0.3652726604,
				"z": -1.2857875694,
				"element": "N" 
			},
			{
				"x": 0.7198182755,
				"y": 1.4829396551,
				"z": -0.9042203235,
				"element": "N" 
			},
			{
				"x": 0.8254627262,
				"y": 2.2098871736,
				"z": -2.007605369,
				"element": "C" 
			},
			{
				"x": -0.2618509679,
				"y": -0.6434140324,
				"z": -0.3319610803,
				"element": "C" 
			},
			{
				"x": -0.523953197,
				"y": -1.9529544447,
				"z": -0.7487669998,
				"element": "C" 
			},
			{
				"x": -0.8432158014,
				"y": -2.9252871378,
				"z": 0.1985218822,
				"element": "C" 
			},
			{
				"x": -0.884774062,
				"y": -2.6043245601,
				"z": 1.5559940615,
				"element": "C" 
			},
			{
				"x": -0.6034788589,
				"y": -1.2980754811,
				"z": 1.9630246917,
				"element": "C" 
			},
			{
				"x": -0.2959800277,
				"y": -0.3130919173,
				"z": 1.0270422553,
				"element": "C" 
			},
			{
				"x": 0.0815415216,
				"y": 3.1688662183,
				"z": -4.5577557255,
				"element": "H" 
			},
			{
				"x": -0.7618776827,
				"y": 1.679502813,
				"z": -5.0334109487,
				"element": "H" 
			},
			{
				"x": -0.8420956241,
				"y": -0.3947240549,
				"z": -3.0808221198,
				"element": "H" 
			},
			{
				"x": 1.3389449354,
				"y": 3.162298244,
				"z": -1.9764457176,
				"element": "H" 
			},
			{
				"x": -0.4565877804,
				"y": -2.2206288895,
				"z": -1.7978126222,
				"element": "H" 
			},
			{
				"x": -1.045335441,
				"y": -3.9405565528,
				"z": -0.1294296402,
				"element": "H" 
			},
			{
				"x": -1.1278486358,
				"y": -3.3662195937,
				"z": 2.2901798459,
				"element": "H" 
			},
			{
				"x": -0.6289501663,
				"y": -1.0389750105,
				"z": 3.0173445498,
				"element": "H" 
			},
			{
				"x": -0.0777865832,
				"y": 0.7047028299,
				"z": 1.3257331909,
				"element": "H" 
			}
		],
		 "valence_orbital": [ 
			{
				"type": "occ",
				"energy": -0.29258,
				"method": "rhf"
			},
			{
				"type": "occ",
				"energy": -0.28796,
				"method": "rhf"
			},
			{
				"type": "occ",
				"energy": -0.26347,
				"method": "rhf"
			},
			{
				"type": "occ",
				"energy": -0.25698,
				"method": "rhf"
			},
			{
				"type": "occ",
				"energy": -0.23157,
				"method": "rhf"
			},
			{
				"type": "unocc",
				"energy": -0.03402,
				"method": "rhf"
			},
			{
				"type": "unocc",
				"energy": -0.01348,
				"method": "rhf"
			},
			{
				"type": "unocc",
				"energy": 0.0024,
				"method": "rhf"
			},
			{
				"type": "unocc",
				"energy": 0.03094,
				"method": "rhf"
			},
			{
				"type": "unocc",
				"energy": 0.07386,
				"method": "rhf"
			}
		],
		"cosmo_sigma_profile": { 
			"-0.025": 0.0,
			"-0.024": 0.0,
			"-0.023": 0.0,
			"-0.022": 0.0,
			"-0.021": 0.0,
			"-0.02": 0.0,
			"-0.019": 0.0,
			"-0.018": 0.0,
			"-0.017": 0.0,
			"-0.016": 0.0,
			"-0.015": 0.0,
			"-0.014": 0.0,
			"-0.013": 0.0,
			"-0.012": 0.0,
			"-0.011": 0.0,
			"-0.01": 1.91748648609,
			"-0.009": 2.57736144542,
			"-0.008": 7.14625760992,
			"-0.007": 10.4521338355,
			"-0.006": 14.7449812079,
			"-0.005": 16.0527284167,
			"-0.004": 16.5044776053,
			"-0.003": 11.2489026686,
			"-0.002": 11.5356922325,
			"-0.001": 10.0334759213,
			"0.0": 13.3749874152,
			"0.001": 15.0894705301,
			"0.002": 17.0173543961,
			"0.003": 18.2707775496,
			"0.004": 18.9716916504,
			"0.005": 14.9601461583,
			"0.006": 9.00718124489,
			"0.007": 12.2806633969,
			"0.008": 2.11180291858,
			"0.009": 1.25919884612,
			"0.01": 1.2366069976,
			"0.011": 1.02739349363,
			"0.012": 1.16571199174,
			"0.013": 0.633794869368,
			"0.014": 0.264089767565,
			"0.015": 0.0,
			"0.016": 0.0,
			"0.017": 0.0,
			"0.018": 0.0,
			"0.019": 0.0,
			"0.02": 0.0,
			"0.021": 0.0,
			"0.022": 0.0,
			"0.023": 0.0,
			"0.024": 0.0,
			"0.025": 0.0
		}
	}
}
