{
	 "smiles": "CC(=O)CBr", 
	 "Tm": 236.65, 
	 "num_atms": 10, 
	 "gaussian": { 
		 "optdone": 1, 
		 "sigma_profile": "yes", 
		 "theory": "DFT", 
		 "functional": "B3LYP", 
		 "basiset": "6-31G**", 
		 "properties": { 
			 "R2extent": 1189.7313, 
			 "electric_dipole_moment_norm": 1.86170683782, 
			 "electric_quadrupole_moment_norm": 6.32546127646, 
			 "total_energy": -2763.95695377, 
			 "HOMO_LUMO_gap": 0.21039, 
			 "cosmo_polarized_energy": -6.92, 
			 "cosmo_cavitation_energy": 16.06, 
			 "cosmo_dispersion_energy": -12.19, 
			 "cosmo_repulsion_energy": 1.09, 
			 "cosmo_total_nonelectrostatic_energy": 4.95, 
			 "SMD_solvation_energy": 2.69 
		},
		"coords": [
			{
				"x": 1.2712276819,
				"y": 1.6845699237,
				"z": -1.8391848336,
				"element": "C" 
			},
			{
				"x": 0.7450154504,
				"y": 1.1734944854,
				"z": -0.5169201301,
				"element": "C" 
			},
			{
				"x": 1.33765945,
				"y": 1.325873504,
				"z": 0.5322916306,
				"element": "O" 
			},
			{
				"x": -0.616378212,
				"y": 0.4806588669,
				"z": -0.4892763468,
				"element": "C" 
			},
			{
				"x": -0.7963022894,
				"y": -0.9418729583,
				"z": -1.8504291144,
				"element": "Br" 
			},
			{
				"x": 1.5968837095,
				"y": 0.8425055868,
				"z": -2.4583430673,
				"element": "H" 
			},
			{
				"x": 0.4898337489,
				"y": 2.2060801563,
				"z": -2.4020030164,
				"element": "H" 
			},
			{
				"x": 2.1161156844,
				"y": 2.3491999767,
				"z": -1.6558229219,
				"element": "H" 
			},
			{
				"x": -0.769706912,
				"y": 0.0182586185,
				"z": 0.4830751616,
				"element": "H" 
			},
			{
				"x": -1.4154483118,
				"y": 1.19313184,
				"z": -0.7061873615,
				"element": "H" 
			}
		],
		 "valence_orbital": [ 
			{
				"type": "occ",
				"energy": -0.39462,
				"method": "rhf"
			},
			{
				"type": "occ",
				"energy": -0.36279,
				"method": "rhf"
			},
			{
				"type": "occ",
				"energy": -0.29828,
				"method": "rhf"
			},
			{
				"type": "occ",
				"energy": -0.28699,
				"method": "rhf"
			},
			{
				"type": "occ",
				"energy": -0.25997,
				"method": "rhf"
			},
			{
				"type": "unocc",
				"energy": -0.04958,
				"method": "rhf"
			},
			{
				"type": "unocc",
				"energy": 0.01073,
				"method": "rhf"
			},
			{
				"type": "unocc",
				"energy": 0.09618,
				"method": "rhf"
			},
			{
				"type": "unocc",
				"energy": 0.12357,
				"method": "rhf"
			},
			{
				"type": "unocc",
				"energy": 0.13397,
				"method": "rhf"
			}
		],
		"cosmo_sigma_profile": { 
			"-0.025": 0.0,
			"-0.024": 0.0,
			"-0.023": 0.0,
			"-0.022": 0.0,
			"-0.021": 0.0,
			"-0.02": 0.0,
			"-0.019": 0.0,
			"-0.018": 0.0,
			"-0.017": 0.0,
			"-0.016": 0.0,
			"-0.015": 0.0,
			"-0.014": 0.0,
			"-0.013": 0.0,
			"-0.012": 0.0,
			"-0.011": 0.0,
			"-0.01": 1.28852127652,
			"-0.009": 3.33336286839,
			"-0.008": 3.71609400711,
			"-0.007": 4.44929218583,
			"-0.006": 6.40384067634,
			"-0.005": 9.41673476671,
			"-0.004": 9.03940606358,
			"-0.003": 10.307688591,
			"-0.002": 12.3657504959,
			"-0.001": 8.80539937778,
			"0.0": 6.83481337751,
			"0.001": 5.49536698171,
			"0.002": 5.63544466837,
			"0.003": 6.85047575915,
			"0.004": 7.26057482059,
			"0.005": 9.55781386663,
			"0.006": 4.50483808149,
			"0.007": 1.90794484064,
			"0.008": 1.49169834757,
			"0.009": 1.82768289514,
			"0.01": 3.22457817994,
			"0.011": 4.49992456893,
			"0.012": 1.97611125742,
			"0.013": 0.0499668727285,
			"0.014": 0.0,
			"0.015": 0.0,
			"0.016": 0.0,
			"0.017": 0.0,
			"0.018": 0.0,
			"0.019": 0.0,
			"0.02": 0.0,
			"0.021": 0.0,
			"0.022": 0.0,
			"0.023": 0.0,
			"0.024": 0.0,
			"0.025": 0.0
		}
	}
}
