{
	 "smiles": "CC(=O)C1=C(C)OC(N)=C1C#N", 
	 "Tm": 515.15, 
	 "num_atms": 20, 
	 "gaussian": { 
		 "optdone": 1, 
		 "sigma_profile": "yes", 
		 "theory": "DFT", 
		 "functional": "B3LYP", 
		 "basiset": "6-31G**", 
		 "properties": { 
			 "R2extent": 2543.883, 
			 "electric_dipole_moment_norm": 4.55916978188, 
			 "electric_quadrupole_moment_norm": 13.0023732761, 
			 "total_energy": -569.60010741, 
			 "HOMO_LUMO_gap": 0.16651, 
			 "cosmo_polarized_energy": -15.85, 
			 "cosmo_cavitation_energy": 25.39, 
			 "cosmo_dispersion_energy": -17.98, 
			 "cosmo_repulsion_energy": 1.45, 
			 "cosmo_total_nonelectrostatic_energy": 8.86, 
			 "SMD_solvation_energy": 6.82 
		},
		"coords": [
			{
				"x": 1.6139056875,
				"y": -2.2010015073,
				"z": 0.9720629449,
				"element": "C" 
			},
			{
				"x": 0.6938691612,
				"y": -1.6222272974,
				"z": 2.0271353269,
				"element": "C" 
			},
			{
				"x": 0.7247461739,
				"y": -2.0364478391,
				"z": 3.1797967178,
				"element": "O" 
			},
			{
				"x": -0.2446059607,
				"y": -0.5434637769,
				"z": 1.6254079106,
				"element": "C" 
			},
			{
				"x": -1.1455950233,
				"y": 0.0632358318,
				"z": 2.4585083985,
				"element": "C" 
			},
			{
				"x": -1.5023032982,
				"y": -0.0791407059,
				"z": 3.8912434463,
				"element": "C" 
			},
			{
				"x": -1.8601263248,
				"y": 1.0178098234,
				"z": 1.7545246149,
				"element": "O" 
			},
			{
				"x": -1.4139317523,
				"y": 1.0224516609,
				"z": 0.4789515791,
				"element": "C" 
			},
			{
				"x": -2.0462677717,
				"y": 1.8615806276,
				"z": -0.3915487923,
				"element": "N" 
			},
			{
				"x": -0.4129652649,
				"y": 0.0898790019,
				"z": 0.3159325553,
				"element": "C" 
			},
			{
				"x": 0.2604056379,
				"y": -0.1095779541,
				"z": -0.9091386427,
				"element": "C" 
			},
			{
				"x": 0.7875624835,
				"y": -0.2285786585,
				"z": -1.9432098404,
				"element": "N" 
			},
			{
				"x": 2.262096745,
				"y": -1.42738197,
				"z": 0.5467253074,
				"element": "H" 
			},
			{
				"x": 1.0416051503,
				"y": -2.6223311097,
				"z": 0.1386225268,
				"element": "H" 
			},
			{
				"x": 2.2234217711,
				"y": -2.9798103659,
				"z": 1.4313891857,
				"element": "H" 
			},
			{
				"x": -1.3417378796,
				"y": 0.8630406979,
				"z": 4.4286545931,
				"element": "H" 
			},
			{
				"x": -0.8796629973,
				"y": -0.8571406524,
				"z": 4.3300371391,
				"element": "H" 
			},
			{
				"x": -2.5593036371,
				"y": -0.347010986,
				"z": 4.0051216747,
				"element": "H" 
			},
			{
				"x": -1.5741733183,
				"y": 2.0084561201,
				"z": -1.2728150041,
				"element": "H" 
			},
			{
				"x": -2.4608395822,
				"y": 2.6900590598,
				"z": 0.0119983585,
				"element": "H" 
			}
		],
		 "valence_orbital": [ 
			{
				"type": "occ",
				"energy": -0.34483,
				"method": "rhf"
			},
			{
				"type": "occ",
				"energy": -0.32835,
				"method": "rhf"
			},
			{
				"type": "occ",
				"energy": -0.28601,
				"method": "rhf"
			},
			{
				"type": "occ",
				"energy": -0.25245,
				"method": "rhf"
			},
			{
				"type": "occ",
				"energy": -0.21639,
				"method": "rhf"
			},
			{
				"type": "unocc",
				"energy": -0.04988,
				"method": "rhf"
			},
			{
				"type": "unocc",
				"energy": -0.01224,
				"method": "rhf"
			},
			{
				"type": "unocc",
				"energy": 0.02102,
				"method": "rhf"
			},
			{
				"type": "unocc",
				"energy": 0.05801,
				"method": "rhf"
			},
			{
				"type": "unocc",
				"energy": 0.06238,
				"method": "rhf"
			}
		],
		"cosmo_sigma_profile": { 
			"-0.025": 0.0,
			"-0.024": 0.0,
			"-0.023": 0.0,
			"-0.022": 0.0,
			"-0.021": 0.0,
			"-0.02": 0.0,
			"-0.019": 0.0,
			"-0.018": 0.0,
			"-0.017": 0.0,
			"-0.016": 0.254077324264,
			"-0.015": 2.2033134155,
			"-0.014": 2.39657522533,
			"-0.013": 2.50468326611,
			"-0.012": 2.83983311726,
			"-0.011": 1.7766613361,
			"-0.01": 1.81048136852,
			"-0.009": 2.10912106487,
			"-0.008": 2.59197570658,
			"-0.007": 2.17343324359,
			"-0.006": 8.88813736146,
			"-0.005": 11.1834327913,
			"-0.004": 13.0857889706,
			"-0.003": 13.2454762741,
			"-0.002": 19.7175080056,
			"-0.001": 20.7963937174,
			"0.0": 13.889195011,
			"0.001": 15.4536738186,
			"0.002": 8.82324274428,
			"0.003": 5.64781475329,
			"0.004": 6.35877519519,
			"0.005": 5.62804841063,
			"0.006": 4.5473270596,
			"0.007": 4.31753773532,
			"0.008": 4.67189111198,
			"0.009": 4.50583715768,
			"0.01": 5.97560246758,
			"0.011": 5.18339489089,
			"0.012": 5.37338768426,
			"0.013": 3.98269302779,
			"0.014": 1.08574161227,
			"0.015": 0.0,
			"0.016": 0.0,
			"0.017": 0.0,
			"0.018": 0.0,
			"0.019": 0.0,
			"0.02": 0.0,
			"0.021": 0.0,
			"0.022": 0.0,
			"0.023": 0.0,
			"0.024": 0.0,
			"0.025": 0.0
		}
	}
}
