{
	 "smiles": "CCNC(=S)N1N=CC(C(=O)OCC)=C1N", 
	 "Tm": 367.15, 
	 "num_atms": 30, 
	 "gaussian": { 
		 "optdone": 1, 
		 "sigma_profile": "yes", 
		 "theory": "DFT", 
		 "functional": "B3LYP", 
		 "basiset": "6-31G**", 
		 "properties": { 
			 "R2extent": 5852.2786, 
			 "electric_dipole_moment_norm": 1.75454290629, 
			 "electric_quadrupole_moment_norm": 27.284431244, 
			 "total_energy": -1119.05163073, 
			 "HOMO_LUMO_gap": 0.16869, 
			 "cosmo_polarized_energy": -14.72, 
			 "cosmo_cavitation_energy": 35.18, 
			 "cosmo_dispersion_energy": -25.79, 
			 "cosmo_repulsion_energy": 2.0, 
			 "cosmo_total_nonelectrostatic_energy": 11.39, 
			 "SMD_solvation_energy": 5.85 
		},
		"coords": [
			{
				"x": 0.4031081665,
				"y": 2.5273615834,
				"z": -5.0313191165,
				"element": "C" 
			},
			{
				"x": -0.0868168284,
				"y": 3.1036932666,
				"z": -3.703808082,
				"element": "C" 
			},
			{
				"x": -1.3987630087,
				"y": 2.5707727059,
				"z": -3.3048902687,
				"element": "N" 
			},
			{
				"x": -1.7894457737,
				"y": 1.7411012743,
				"z": -2.3218658164,
				"element": "C" 
			},
			{
				"x": -3.4300480888,
				"y": 1.6181263274,
				"z": -1.9315201292,
				"element": "S" 
			},
			{
				"x": -0.799003514,
				"y": 0.9883375917,
				"z": -1.6790931024,
				"element": "N" 
			},
			{
				"x": 0.3845405807,
				"y": 0.6638450037,
				"z": -2.3633979805,
				"element": "N" 
			},
			{
				"x": 1.0495463346,
				"y": -0.0981683776,
				"z": -1.5309196627,
				"element": "C" 
			},
			{
				"x": 0.3721164986,
				"y": -0.3178267963,
				"z": -0.3026463261,
				"element": "C" 
			},
			{
				"x": 0.8597313399,
				"y": -1.1390811686,
				"z": 0.7932821729,
				"element": "C" 
			},
			{
				"x": 1.9241134956,
				"y": -1.7290394302,
				"z": 0.8057105169,
				"element": "O" 
			},
			{
				"x": -0.0237950548,
				"y": -1.1857499654,
				"z": 1.8389365462,
				"element": "O" 
			},
			{
				"x": 0.3881631754,
				"y": -1.9898011091,
				"z": 2.9678287227,
				"element": "C" 
			},
			{
				"x": -0.7087098412,
				"y": -1.9118660335,
				"z": 4.0129636892,
				"element": "C" 
			},
			{
				"x": -0.8336517947,
				"y": 0.3845034113,
				"z": -0.4245741421,
				"element": "C" 
			},
			{
				"x": -1.8226191458,
				"y": 0.5441898517,
				"z": 0.4750044264,
				"element": "N" 
			},
			{
				"x": 0.5648574829,
				"y": 1.452851062,
				"z": -4.9297391082,
				"element": "H" 
			},
			{
				"x": 1.3472619155,
				"y": 3.0028567151,
				"z": -5.3165971107,
				"element": "H" 
			},
			{
				"x": -0.320058626,
				"y": 2.7054944072,
				"z": -5.8342500109,
				"element": "H" 
			},
			{
				"x": 0.6292829176,
				"y": 2.9003989935,
				"z": -2.9114668204,
				"element": "H" 
			},
			{
				"x": -0.2121177137,
				"y": 4.1906746952,
				"z": -3.7803362975,
				"element": "H" 
			},
			{
				"x": -2.1989251537,
				"y": 2.9935791364,
				"z": -3.7586842791,
				"element": "H" 
			},
			{
				"x": 2.0107687266,
				"y": -0.5064221853,
				"z": -1.8141246404,
				"element": "H" 
			},
			{
				"x": 0.5585917948,
				"y": -3.0156846916,
				"z": 2.6271873321,
				"element": "H" 
			},
			{
				"x": 1.3414442069,
				"y": -1.6062424803,
				"z": 3.3439657993,
				"element": "H" 
			},
			{
				"x": -1.6535798552,
				"y": -2.3017064439,
				"z": 3.6220042091,
				"element": "H" 
			},
			{
				"x": -0.8669674991,
				"y": -0.8799839041,
				"z": 4.3408428958,
				"element": "H" 
			},
			{
				"x": -0.4307532682,
				"y": -2.5084608748,
				"z": 4.8872924523,
				"element": "H" 
			},
			{
				"x": -2.7338781099,
				"y": 0.8160861394,
				"z": 0.1175994891,
				"element": "H" 
			},
			{
				"x": -1.7447933598,
				"y": -0.0399387042,
				"z": 1.2958146421,
				"element": "H" 
			}
		],
		 "valence_orbital": [ 
			{
				"type": "occ",
				"energy": -0.27375,
				"method": "rhf"
			},
			{
				"type": "occ",
				"energy": -0.27132,
				"method": "rhf"
			},
			{
				"type": "occ",
				"energy": -0.23732,
				"method": "rhf"
			},
			{
				"type": "occ",
				"energy": -0.22641,
				"method": "rhf"
			},
			{
				"type": "occ",
				"energy": -0.22109,
				"method": "rhf"
			},
			{
				"type": "unocc",
				"energy": -0.0524,
				"method": "rhf"
			},
			{
				"type": "unocc",
				"energy": -0.00777,
				"method": "rhf"
			},
			{
				"type": "unocc",
				"energy": 0.03097,
				"method": "rhf"
			},
			{
				"type": "unocc",
				"energy": 0.062,
				"method": "rhf"
			},
			{
				"type": "unocc",
				"energy": 0.08645,
				"method": "rhf"
			}
		],
		"cosmo_sigma_profile": { 
			"-0.025": 0.0,
			"-0.024": 0.0,
			"-0.023": 0.0,
			"-0.022": 0.0,
			"-0.021": 0.0,
			"-0.02": 0.0,
			"-0.019": 0.0,
			"-0.018": 0.0,
			"-0.017": 0.0,
			"-0.016": 0.0,
			"-0.015": 0.607145836805,
			"-0.014": 1.26483283001,
			"-0.013": 1.05088636779,
			"-0.012": 0.758163607582,
			"-0.011": 1.28644843133,
			"-0.01": 2.22742613654,
			"-0.009": 3.95436206368,
			"-0.008": 3.21452725704,
			"-0.007": 4.20539442872,
			"-0.006": 6.67435919497,
			"-0.005": 12.5489693998,
			"-0.004": 25.2591714657,
			"-0.003": 26.9172784257,
			"-0.002": 26.3168623635,
			"-0.001": 26.606885117,
			"0.0": 28.8476797096,
			"0.001": 23.7910163052,
			"0.002": 14.7602115569,
			"0.003": 11.1610951122,
			"0.004": 7.52127143205,
			"0.005": 8.72037773804,
			"0.006": 7.37483674161,
			"0.007": 7.12883605158,
			"0.008": 7.14460213707,
			"0.009": 7.36639693256,
			"0.01": 4.72836425684,
			"0.011": 2.53120317134,
			"0.012": 4.42673003905,
			"0.013": 2.69802416481,
			"0.014": 0.0,
			"0.015": 0.0,
			"0.016": 0.0,
			"0.017": 0.0,
			"0.018": 0.0,
			"0.019": 0.0,
			"0.02": 0.0,
			"0.021": 0.0,
			"0.022": 0.0,
			"0.023": 0.0,
			"0.024": 0.0,
			"0.025": 0.0
		}
	}
}
