{
	 "smiles": "CNCC1=NC(=CN1)C1=CC=CC=C1", 
	 "Tm": 391.15, 
	 "num_atms": 27, 
	 "gaussian": { 
		 "optdone": 1, 
		 "sigma_profile": "yes", 
		 "theory": "DFT", 
		 "functional": "B3LYP", 
		 "basiset": "6-31G**", 
		 "properties": { 
			 "R2extent": 4656.1448, 
			 "electric_dipole_moment_norm": 3.78744206028, 
			 "electric_quadrupole_moment_norm": 10.3945418302, 
			 "total_energy": -591.262698613, 
			 "HOMO_LUMO_gap": 0.189, 
			 "cosmo_polarized_energy": -13.09, 
			 "cosmo_cavitation_energy": 30.64, 
			 "cosmo_dispersion_energy": -22.74, 
			 "cosmo_repulsion_energy": 1.8, 
			 "cosmo_total_nonelectrostatic_energy": 9.71, 
			 "SMD_solvation_energy": 2.59 
		},
		"coords": [
			{
				"x": 4.0875729357,
				"y": -1.3968251265,
				"z": -3.2719382431,
				"element": "C" 
			},
			{
				"x": 3.2955390753,
				"y": -1.483149071,
				"z": -2.0474397593,
				"element": "N" 
			},
			{
				"x": 2.5778176771,
				"y": -0.2447859283,
				"z": -1.7332634896,
				"element": "C" 
			},
			{
				"x": 1.9456875979,
				"y": -0.3442052043,
				"z": -0.378214451,
				"element": "C" 
			},
			{
				"x": 0.8452736393,
				"y": 0.2467834868,
				"z": 0.0329718177,
				"element": "N" 
			},
			{
				"x": 0.695508349,
				"y": -0.1081978108,
				"z": 1.3647421157,
				"element": "C" 
			},
			{
				"x": 1.7354708371,
				"y": -0.9364569846,
				"z": 1.7426012757,
				"element": "C" 
			},
			{
				"x": 2.5237890853,
				"y": -1.0727880374,
				"z": 0.6225074935,
				"element": "N" 
			},
			{
				"x": -0.4411996605,
				"y": 0.3724102721,
				"z": 2.1619218159,
				"element": "C" 
			},
			{
				"x": -1.4111845422,
				"y": 1.1981416997,
				"z": 1.5694655272,
				"element": "C" 
			},
			{
				"x": -2.4970712337,
				"y": 1.6629098097,
				"z": 2.3088964748,
				"element": "C" 
			},
			{
				"x": -2.6386650396,
				"y": 1.3145745466,
				"z": 3.6538938558,
				"element": "C" 
			},
			{
				"x": -1.6795557041,
				"y": 0.4946328429,
				"z": 4.2535226021,
				"element": "C" 
			},
			{
				"x": -0.5929801597,
				"y": 0.0290170552,
				"z": 3.5164131751,
				"element": "C" 
			},
			{
				"x": 3.5108610045,
				"y": -1.0988821425,
				"z": -4.1645655762,
				"element": "H" 
			},
			{
				"x": 4.8894601868,
				"y": -0.6628917584,
				"z": -3.1353412208,
				"element": "H" 
			},
			{
				"x": 4.5534932065,
				"y": -2.3657356841,
				"z": -3.4736521564,
				"element": "H" 
			},
			{
				"x": 2.6175511213,
				"y": -2.2366367462,
				"z": -2.1392805469,
				"element": "H" 
			},
			{
				"x": 3.3152374403,
				"y": 0.5710395282,
				"z": -1.740634202,
				"element": "H" 
			},
			{
				"x": 1.7991731753,
				"y": 0.0343063928,
				"z": -2.4615329918,
				"element": "H" 
			},
			{
				"x": 1.9720790833,
				"y": -1.4343158817,
				"z": 2.6696665712,
				"element": "H" 
			},
			{
				"x": 3.3558866561,
				"y": -1.6314203279,
				"z": 0.4991897309,
				"element": "H" 
			},
			{
				"x": -1.2936221272,
				"y": 1.4642122593,
				"z": 0.5246737622,
				"element": "H" 
			},
			{
				"x": -3.2367500961,
				"y": 2.3006906074,
				"z": 1.8322611254,
				"element": "H" 
			},
			{
				"x": -3.4855045288,
				"y": 1.67762453,
				"z": 4.2292959558,
				"element": "H" 
			},
			{
				"x": -1.777468193,
				"y": 0.2171401618,
				"z": 5.2996126891,
				"element": "H" 
			},
			{
				"x": 0.1443002141,
				"y": -0.6058924889,
				"z": 4.0003266488,
				"element": "H" 
			}
		],
		 "valence_orbital": [ 
			{
				"type": "occ",
				"energy": -0.26238,
				"method": "rhf"
			},
			{
				"type": "occ",
				"energy": -0.25035,
				"method": "rhf"
			},
			{
				"type": "occ",
				"energy": -0.24055,
				"method": "rhf"
			},
			{
				"type": "occ",
				"energy": -0.23536,
				"method": "rhf"
			},
			{
				"type": "occ",
				"energy": -0.19532,
				"method": "rhf"
			},
			{
				"type": "unocc",
				"energy": -0.00632,
				"method": "rhf"
			},
			{
				"type": "unocc",
				"energy": 0.01307,
				"method": "rhf"
			},
			{
				"type": "unocc",
				"energy": 0.03466,
				"method": "rhf"
			},
			{
				"type": "unocc",
				"energy": 0.07849,
				"method": "rhf"
			},
			{
				"type": "unocc",
				"energy": 0.09739,
				"method": "rhf"
			}
		],
		"cosmo_sigma_profile": { 
			"-0.025": 0.0,
			"-0.024": 0.0,
			"-0.023": 0.0,
			"-0.022": 0.0,
			"-0.021": 0.0,
			"-0.02": 0.0,
			"-0.019": 0.0,
			"-0.018": 0.0,
			"-0.017": 0.0,
			"-0.016": 0.0,
			"-0.015": 0.380305306459,
			"-0.014": 1.01560120008,
			"-0.013": 0.637336043214,
			"-0.012": 1.02983630784,
			"-0.011": 1.03110708855,
			"-0.01": 2.38818655507,
			"-0.009": 2.43176805908,
			"-0.008": 4.53745506657,
			"-0.007": 5.17082239949,
			"-0.006": 6.30456338045,
			"-0.005": 13.5662096659,
			"-0.004": 19.9391631232,
			"-0.003": 24.0225482904,
			"-0.002": 23.723186718,
			"-0.001": 20.929057769,
			"0.0": 15.4825544948,
			"0.001": 10.5658079345,
			"0.002": 10.1465566068,
			"0.003": 12.2293127334,
			"0.004": 15.5640030102,
			"0.005": 19.156846934,
			"0.006": 13.0735853772,
			"0.007": 5.74841564344,
			"0.008": 2.82041652434,
			"0.009": 1.92553959214,
			"0.01": 2.8802266914,
			"0.011": 1.18924631458,
			"0.012": 1.72148939352,
			"0.013": 1.28839897926,
			"0.014": 1.06343035256,
			"0.015": 0.96190272574,
			"0.016": 0.183398225774,
			"0.017": 0.0,
			"0.018": 0.0,
			"0.019": 0.0,
			"0.02": 0.0,
			"0.021": 0.0,
			"0.022": 0.0,
			"0.023": 0.0,
			"0.024": 0.0,
			"0.025": 0.0
		}
	}
}
