{
	 "smiles": "CC1=CC=C(C=C1)S(=O)(=O)OCC1CCN(CC1)C(=O)OC(C)(C)C", 
	 "Tm": 346.15, 
	 "num_atms": 52, 
	 "gaussian": { 
		 "optdone": 1, 
		 "sigma_profile": "yes", 
		 "theory": "DFT", 
		 "functional": "B3LYP", 
		 "basiset": "6-31G**", 
		 "properties": { 
			 "R2extent": 17380.7901, 
			 "electric_dipole_moment_norm": 5.66420649782, 
			 "electric_quadrupole_moment_norm": 28.908051571, 
			 "total_energy": -1531.23419317, 
			 "HOMO_LUMO_gap": 0.19219, 
			 "cosmo_polarized_energy": -17.48, 
			 "cosmo_cavitation_energy": 54.39, 
			 "cosmo_dispersion_energy": -37.73, 
			 "cosmo_repulsion_energy": 2.86, 
			 "cosmo_total_nonelectrostatic_energy": 19.52, 
			 "SMD_solvation_energy": 8.33 
		},
		"coords": [
			{
				"x": 3.1018117175,
				"y": 0.6719724347,
				"z": -7.0533159498,
				"element": "C" 
			},
			{
				"x": 3.1612310053,
				"y": 0.0350498647,
				"z": -5.6860979124,
				"element": "C" 
			},
			{
				"x": 2.9660789701,
				"y": -1.3454081893,
				"z": -5.5300021863,
				"element": "C" 
			},
			{
				"x": 3.0496558463,
				"y": -1.9479098469,
				"z": -4.2771216318,
				"element": "C" 
			},
			{
				"x": 3.3270751741,
				"y": -1.1524481097,
				"z": -3.1645772582,
				"element": "C" 
			},
			{
				"x": 3.5312927873,
				"y": 0.2225657117,
				"z": -3.2865588362,
				"element": "C" 
			},
			{
				"x": 3.4435666067,
				"y": 0.8056758034,
				"z": -4.5484434458,
				"element": "C" 
			},
			{
				"x": 3.4400649519,
				"y": -1.9105261454,
				"z": -1.5582288973,
				"element": "S" 
			},
			{
				"x": 4.2355670814,
				"y": -1.0665773645,
				"z": -0.6661188637,
				"element": "O" 
			},
			{
				"x": 3.7571076857,
				"y": -3.3318836538,
				"z": -1.7005674276,
				"element": "O" 
			},
			{
				"x": 1.8566429222,
				"y": -1.7713477237,
				"z": -1.134984321,
				"element": "O" 
			},
			{
				"x": 1.5194393461,
				"y": -2.3117342952,
				"z": 0.1750747787,
				"element": "C" 
			},
			{
				"x": 0.0346852051,
				"y": -2.0638707615,
				"z": 0.4097586299,
				"element": "C" 
			},
			{
				"x": -0.3171407758,
				"y": -0.5664567412,
				"z": 0.4314106963,
				"element": "C" 
			},
			{
				"x": -1.8049916704,
				"y": -0.3434750386,
				"z": 0.7314993314,
				"element": "C" 
			},
			{
				"x": -2.1947003623,
				"y": -1.0357982109,
				"z": 1.9585791461,
				"element": "N" 
			},
			{
				"x": -1.9032780778,
				"y": -2.4659169739,
				"z": 1.9954916863,
				"element": "C" 
			},
			{
				"x": -0.4168600898,
				"y": -2.7289245837,
				"z": 1.7236821713,
				"element": "C" 
			},
			{
				"x": -2.9100269892,
				"y": -0.4756452017,
				"z": 2.9872389409,
				"element": "C" 
			},
			{
				"x": -3.271001402,
				"y": -1.0959902651,
				"z": 3.9788776731,
				"element": "O" 
			},
			{
				"x": -3.1487323033,
				"y": 0.8403732155,
				"z": 2.7595057995,
				"element": "O" 
			},
			{
				"x": -3.8797570109,
				"y": 1.6546204768,
				"z": 3.742022257,
				"element": "C" 
			},
			{
				"x": -5.3039805533,
				"y": 1.1163734326,
				"z": 3.9175687891,
				"element": "C" 
			},
			{
				"x": -3.9010380936,
				"y": 3.0341430753,
				"z": 3.0774664953,
				"element": "C" 
			},
			{
				"x": -3.1092646518,
				"y": 1.7033633938,
				"z": 5.0659406437,
				"element": "C" 
			},
			{
				"x": 4.0901405374,
				"y": 0.6658810697,
				"z": -7.529476088,
				"element": "H" 
			},
			{
				"x": 2.4179843826,
				"y": 0.1342967255,
				"z": -7.7163059447,
				"element": "H" 
			},
			{
				"x": 2.7746529008,
				"y": 1.7140396763,
				"z": -6.9959470112,
				"element": "H" 
			},
			{
				"x": 2.7493827457,
				"y": -1.9567457861,
				"z": -6.4018648188,
				"element": "H" 
			},
			{
				"x": 2.9121113583,
				"y": -3.0168821591,
				"z": -4.1574013335,
				"element": "H" 
			},
			{
				"x": 3.7627414919,
				"y": 0.8150965279,
				"z": -2.4083203204,
				"element": "H" 
			},
			{
				"x": 3.6003258508,
				"y": 1.8758860115,
				"z": -4.6529699925,
				"element": "H" 
			},
			{
				"x": 1.7486140404,
				"y": -3.3826675662,
				"z": 0.1822662405,
				"element": "H" 
			},
			{
				"x": 2.1309500066,
				"y": -1.8089629501,
				"z": 0.9331172705,
				"element": "H" 
			},
			{
				"x": -0.5127265266,
				"y": -2.5363871858,
				"z": -0.4195927906,
				"element": "H" 
			},
			{
				"x": -0.0639394816,
				"y": -0.105625748,
				"z": -0.5285583374,
				"element": "H" 
			},
			{
				"x": 0.2821146158,
				"y": -0.0650514268,
				"z": 1.203263354,
				"element": "H" 
			},
			{
				"x": -2.0254957109,
				"y": 0.7160929003,
				"z": 0.8404019247,
				"element": "H" 
			},
			{
				"x": -2.4096945752,
				"y": -0.7264723457,
				"z": -0.1066387655,
				"element": "H" 
			},
			{
				"x": -2.5111558396,
				"y": -2.980660771,
				"z": 1.2341334995,
				"element": "H" 
			},
			{
				"x": -2.2034553299,
				"y": -2.8402052877,
				"z": 2.9736470873,
				"element": "H" 
			},
			{
				"x": -0.2436537801,
				"y": -3.8113218109,
				"z": 1.6862018158,
				"element": "H" 
			},
			{
				"x": 0.1740683532,
				"y": -2.3331845086,
				"z": 2.5601268944,
				"element": "H" 
			},
			{
				"x": -5.8764303997,
				"y": 1.7944545253,
				"z": 4.5590203119,
				"element": "H" 
			},
			{
				"x": -5.2926145798,
				"y": 0.1251721395,
				"z": 4.3706422593,
				"element": "H" 
			},
			{
				"x": -5.8096615964,
				"y": 1.0587408011,
				"z": 2.9482838104,
				"element": "H" 
			},
			{
				"x": -4.4119196168,
				"y": 2.9898575587,
				"z": 2.1110455476,
				"element": "H" 
			},
			{
				"x": -2.8831727922,
				"y": 3.4003898244,
				"z": 2.9138343727,
				"element": "H" 
			},
			{
				"x": -4.4279492582,
				"y": 3.7504132641,
				"z": 3.7148627832,
				"element": "H" 
			},
			{
				"x": -3.598507817,
				"y": 2.4045122961,
				"z": 5.7500417892,
				"element": "H" 
			},
			{
				"x": -2.0858640559,
				"y": 2.053380695,
				"z": 4.8965879041,
				"element": "H" 
			},
			{
				"x": -3.0743922432,
				"y": 0.7191292271,
				"z": 5.5328982292,
				"element": "H" 
			}
		],
		 "valence_orbital": [ 
			{
				"type": "occ",
				"energy": -0.28399,
				"method": "rhf"
			},
			{
				"type": "occ",
				"energy": -0.27256,
				"method": "rhf"
			},
			{
				"type": "occ",
				"energy": -0.26717,
				"method": "rhf"
			},
			{
				"type": "occ",
				"energy": -0.25643,
				"method": "rhf"
			},
			{
				"type": "occ",
				"energy": -0.23417,
				"method": "rhf"
			},
			{
				"type": "unocc",
				"energy": -0.04198,
				"method": "rhf"
			},
			{
				"type": "unocc",
				"energy": -0.02295,
				"method": "rhf"
			},
			{
				"type": "unocc",
				"energy": 0.04905,
				"method": "rhf"
			},
			{
				"type": "unocc",
				"energy": 0.05424,
				"method": "rhf"
			},
			{
				"type": "unocc",
				"energy": 0.07646,
				"method": "rhf"
			}
		],
		"cosmo_sigma_profile": { 
			"-0.025": 0.0,
			"-0.024": 0.0,
			"-0.023": 0.0,
			"-0.022": 0.0,
			"-0.021": 0.0,
			"-0.02": 0.0,
			"-0.019": 0.0,
			"-0.018": 0.0,
			"-0.017": 0.0,
			"-0.016": 0.0,
			"-0.015": 0.0,
			"-0.014": 0.0,
			"-0.013": 0.0,
			"-0.012": 0.0,
			"-0.011": 0.0,
			"-0.01": 0.0,
			"-0.009": 0.0,
			"-0.008": 0.390647551539,
			"-0.007": 4.58476557478,
			"-0.006": 11.622936235,
			"-0.005": 20.8787689705,
			"-0.004": 45.800813984,
			"-0.003": 54.0160227454,
			"-0.002": 46.6771230436,
			"-0.001": 43.4640306078,
			"0.0": 45.4868365191,
			"0.001": 37.9286802937,
			"0.002": 22.7060313175,
			"0.003": 23.8059883193,
			"0.004": 11.0675477683,
			"0.005": 7.90808433538,
			"0.006": 6.98952531216,
			"0.007": 6.04865109558,
			"0.008": 4.99963879819,
			"0.009": 6.39457446126,
			"0.01": 11.6983603139,
			"0.011": 6.85544981793,
			"0.012": 2.06486161596,
			"0.013": 2.58618630758,
			"0.014": 1.68200308549,
			"0.015": 0.0,
			"0.016": 0.0,
			"0.017": 0.0,
			"0.018": 0.0,
			"0.019": 0.0,
			"0.02": 0.0,
			"0.021": 0.0,
			"0.022": 0.0,
			"0.023": 0.0,
			"0.024": 0.0,
			"0.025": 0.0
		}
	}
}
