{
	 "smiles": "CC1=CC=NC=C1N", 
	 "Tm": 377.15, 
	 "num_atms": 16, 
	 "gaussian": { 
		 "optdone": 1, 
		 "sigma_profile": "yes", 
		 "theory": "DFT", 
		 "functional": "B3LYP", 
		 "basiset": "6-31G**", 
		 "properties": { 
			 "R2extent": 955.1782, 
			 "electric_dipole_moment_norm": 3.47072114409, 
			 "electric_quadrupole_moment_norm": 10.7518989579, 
			 "total_energy": -342.965600879, 
			 "HOMO_LUMO_gap": 0.20046, 
			 "cosmo_polarized_energy": -10.83, 
			 "cosmo_cavitation_energy": 19.23, 
			 "cosmo_dispersion_energy": -14.5, 
			 "cosmo_repulsion_energy": 1.2, 
			 "cosmo_total_nonelectrostatic_energy": 5.92, 
			 "SMD_solvation_energy": 1.97 
		},
		"coords": [
			{
				"x": 1.9769218956,
				"y": -0.0433741003,
				"z": -0.1947015397,
				"element": "C" 
			},
			{
				"x": 0.4921071954,
				"y": -0.2342775184,
				"z": -0.3615518255,
				"element": "C" 
			},
			{
				"x": -0.1441966909,
				"y": -0.0760422906,
				"z": -1.593472249,
				"element": "C" 
			},
			{
				"x": -1.519485468,
				"y": -0.2785589197,
				"z": -1.7068537836,
				"element": "C" 
			},
			{
				"x": -2.2889846559,
				"y": -0.6253779125,
				"z": -0.6681517708,
				"element": "N" 
			},
			{
				"x": -1.6915309784,
				"y": -0.7732446641,
				"z": 0.5144929412,
				"element": "C" 
			},
			{
				"x": -0.3152441102,
				"y": -0.5962921641,
				"z": 0.7373332324,
				"element": "C" 
			},
			{
				"x": 0.2408031448,
				"y": -0.833957932,
				"z": 1.9964976698,
				"element": "N" 
			},
			{
				"x": 2.4583782263,
				"y": 0.1667796745,
				"z": -1.1527313914,
				"element": "H" 
			},
			{
				"x": 2.2078572682,
				"y": 0.7946791214,
				"z": 0.4779965718,
				"element": "H" 
			},
			{
				"x": 2.4447201033,
				"y": -0.9374993718,
				"z": 0.2350889495,
				"element": "H" 
			},
			{
				"x": 0.4376017384,
				"y": 0.2029613338,
				"z": -2.4682508306,
				"element": "H" 
			},
			{
				"x": -2.0202299148,
				"y": -0.1579401777,
				"z": -2.665221603,
				"element": "H" 
			},
			{
				"x": -2.333089452,
				"y": -1.0547178237,
				"z": 1.3512590063,
				"element": "H" 
			},
			{
				"x": -0.4286252499,
				"y": -0.8456168341,
				"z": 2.754609788,
				"element": "H" 
			},
			{
				"x": 1.0517969481,
				"y": -0.2762204208,
				"z": 2.2269568344,
				"element": "H" 
			}
		],
		 "valence_orbital": [ 
			{
				"type": "occ",
				"energy": -0.35493,
				"method": "rhf"
			},
			{
				"type": "occ",
				"energy": -0.32509,
				"method": "rhf"
			},
			{
				"type": "occ",
				"energy": -0.26164,
				"method": "rhf"
			},
			{
				"type": "occ",
				"energy": -0.24228,
				"method": "rhf"
			},
			{
				"type": "occ",
				"energy": -0.20916,
				"method": "rhf"
			},
			{
				"type": "unocc",
				"energy": -0.0087,
				"method": "rhf"
			},
			{
				"type": "unocc",
				"energy": 0.01223,
				"method": "rhf"
			},
			{
				"type": "unocc",
				"energy": 0.06928,
				"method": "rhf"
			},
			{
				"type": "unocc",
				"energy": 0.10835,
				"method": "rhf"
			},
			{
				"type": "unocc",
				"energy": 0.11751,
				"method": "rhf"
			}
		],
		"cosmo_sigma_profile": { 
			"-0.025": 0.0,
			"-0.024": 0.0,
			"-0.023": 0.0,
			"-0.022": 0.0,
			"-0.021": 0.0,
			"-0.02": 0.0,
			"-0.019": 0.0,
			"-0.018": 0.0,
			"-0.017": 0.0,
			"-0.016": 0.0,
			"-0.015": 0.0,
			"-0.014": 0.0,
			"-0.013": 0.306081538945,
			"-0.012": 2.10569107351,
			"-0.011": 2.92921024077,
			"-0.01": 3.59515793546,
			"-0.009": 3.28218647821,
			"-0.008": 2.62105021432,
			"-0.007": 2.72594555871,
			"-0.006": 4.79463696922,
			"-0.005": 10.3157521145,
			"-0.004": 12.6649672212,
			"-0.003": 10.4110818789,
			"-0.002": 10.2905211634,
			"-0.001": 11.0605839748,
			"0.0": 10.7632323359,
			"0.001": 7.84078163925,
			"0.002": 6.37568671759,
			"0.003": 8.86264182755,
			"0.004": 12.480343286,
			"0.005": 7.13365052844,
			"0.006": 2.88667882259,
			"0.007": 2.83151521721,
			"0.008": 1.78721180178,
			"0.009": 2.57174344033,
			"0.01": 2.28628794812,
			"0.011": 1.38553928793,
			"0.012": 1.35040467154,
			"0.013": 1.92414039072,
			"0.014": 1.21255548446,
			"0.015": 1.15141966321,
			"0.016": 1.062975694,
			"0.017": 0.8331330926,
			"0.018": 0.296833765957,
			"0.019": 0.0,
			"0.02": 0.0,
			"0.021": 0.0,
			"0.022": 0.0,
			"0.023": 0.0,
			"0.024": 0.0,
			"0.025": 0.0
		}
	}
}
