{
	 "smiles": "C1=CC2=CC=CC(C3=CC=CC4=CC=CC=C34)=C2C=C1", 
	 "Tm": 433.15, 
	 "num_atms": 34, 
	 "gaussian": { 
		 "optdone": 1, 
		 "sigma_profile": "yes", 
		 "theory": "DFT", 
		 "functional": "B3LYP", 
		 "basiset": "6-31G**", 
		 "properties": { 
			 "R2extent": 5596.1253, 
			 "electric_dipole_moment_norm": 0.0745059729149, 
			 "electric_quadrupole_moment_norm": 6.86065179994, 
			 "total_energy": -770.593325675, 
			 "HOMO_LUMO_gap": 0.1701, 
			 "cosmo_polarized_energy": -6.76, 
			 "cosmo_cavitation_energy": 36.93, 
			 "cosmo_dispersion_energy": -26.16, 
			 "cosmo_repulsion_energy": 1.97, 
			 "cosmo_total_nonelectrostatic_energy": 12.74, 
			 "SMD_solvation_energy": 5.62 
		},
		"coords": [
			{
				"x": -2.4716552569,
				"y": -0.5312885704,
				"z": 2.5159291185,
				"element": "C" 
			},
			{
				"x": -3.0416782136,
				"y": 0.2643443199,
				"z": 1.5488484994,
				"element": "C" 
			},
			{
				"x": -2.4576718973,
				"y": 0.3804991532,
				"z": 0.2580411728,
				"element": "C" 
			},
			{
				"x": -3.0464370334,
				"y": 1.1868970888,
				"z": -0.7525243149,
				"element": "C" 
			},
			{
				"x": -2.473260905,
				"y": 1.2744089119,
				"z": -1.998977978,
				"element": "C" 
			},
			{
				"x": -1.282174197,
				"y": 0.5668346181,
				"z": -2.2857330385,
				"element": "C" 
			},
			{
				"x": -0.6629491371,
				"y": -0.2238728554,
				"z": -1.3341425672,
				"element": "C" 
			},
			{
				"x": 0.5863476128,
				"y": -0.9637374138,
				"z": -1.6985137301,
				"element": "C" 
			},
			{
				"x": 0.499810186,
				"y": -2.0715457135,
				"z": -2.5228011486,
				"element": "C" 
			},
			{
				"x": 1.6506318149,
				"y": -2.797291372,
				"z": -2.9107290331,
				"element": "C" 
			},
			{
				"x": 2.8938390987,
				"y": -2.4088506763,
				"z": -2.4709778608,
				"element": "C" 
			},
			{
				"x": 3.0402713566,
				"y": -1.2721644386,
				"z": -1.6315304994,
				"element": "C" 
			},
			{
				"x": 4.3176430395,
				"y": -0.8446420716,
				"z": -1.1773592742,
				"element": "C" 
			},
			{
				"x": 4.4500924604,
				"y": 0.266579106,
				"z": -0.3768282399,
				"element": "C" 
			},
			{
				"x": 3.3039076536,
				"y": 1.0052500597,
				"z": 0.0031779304,
				"element": "C" 
			},
			{
				"x": 2.051109764,
				"y": 0.617466396,
				"z": -0.4172072632,
				"element": "C" 
			},
			{
				"x": 1.8755315013,
				"y": -0.5312735956,
				"z": -1.2381137613,
				"element": "C" 
			},
			{
				"x": -1.2508491238,
				"y": -0.3413560547,
				"z": -0.0296982317,
				"element": "C" 
			},
			{
				"x": -0.6943943647,
				"y": -1.1612204153,
				"z": 0.9913393891,
				"element": "C" 
			},
			{
				"x": -1.2876666144,
				"y": -1.2528349907,
				"z": 2.2307905616,
				"element": "C" 
			},
			{
				"x": -2.9294880714,
				"y": -0.6113494501,
				"z": 3.4977097125,
				"element": "H" 
			},
			{
				"x": -3.9543695782,
				"y": 0.8170663494,
				"z": 1.7572649435,
				"element": "H" 
			},
			{
				"x": -3.9598055107,
				"y": 1.7298036403,
				"z": -0.5230314392,
				"element": "H" 
			},
			{
				"x": -2.9279123156,
				"y": 1.8892840053,
				"z": -2.770374811,
				"element": "H" 
			},
			{
				"x": -0.8350277348,
				"y": 0.6507367353,
				"z": -3.2720187415,
				"element": "H" 
			},
			{
				"x": -0.4774708248,
				"y": -2.393590099,
				"z": -2.8705699146,
				"element": "H" 
			},
			{
				"x": 1.542615764,
				"y": -3.664958644,
				"z": -3.5551801924,
				"element": "H" 
			},
			{
				"x": 3.7827804346,
				"y": -2.9628045843,
				"z": -2.7617927988,
				"element": "H" 
			},
			{
				"x": 5.1931606155,
				"y": -1.4141641343,
				"z": -1.4791179227,
				"element": "H" 
			},
			{
				"x": 5.4326623163,
				"y": 0.5822663452,
				"z": -0.0379911168,
				"element": "H" 
			},
			{
				"x": 3.4152489708,
				"y": 1.8859299889,
				"z": 0.6292517675,
				"element": "H" 
			},
			{
				"x": 1.1783323586,
				"y": 1.1913462743,
				"z": -0.1252670687,
				"element": "H" 
			},
			{
				"x": 0.2102969444,
				"y": -1.7206375268,
				"z": 0.7794227415,
				"element": "H" 
			},
			{
				"x": -0.8461711133,
				"y": -1.8851303857,
				"z": 2.9958051098,
				"element": "H" 
			}
		],
		 "valence_orbital": [ 
			{
				"type": "occ",
				"energy": -0.27639,
				"method": "rhf"
			},
			{
				"type": "occ",
				"energy": -0.2431,
				"method": "rhf"
			},
			{
				"type": "occ",
				"energy": -0.23965,
				"method": "rhf"
			},
			{
				"type": "occ",
				"energy": -0.21387,
				"method": "rhf"
			},
			{
				"type": "occ",
				"energy": -0.20984,
				"method": "rhf"
			},
			{
				"type": "unocc",
				"energy": -0.03974,
				"method": "rhf"
			},
			{
				"type": "unocc",
				"energy": -0.03507,
				"method": "rhf"
			},
			{
				"type": "unocc",
				"energy": -0.01196,
				"method": "rhf"
			},
			{
				"type": "unocc",
				"energy": -0.00197,
				"method": "rhf"
			},
			{
				"type": "unocc",
				"energy": 0.03058,
				"method": "rhf"
			}
		],
		"cosmo_sigma_profile": { 
			"-0.025": 0.0,
			"-0.024": 0.0,
			"-0.023": 0.0,
			"-0.022": 0.0,
			"-0.021": 0.0,
			"-0.02": 0.0,
			"-0.019": 0.0,
			"-0.018": 0.0,
			"-0.017": 0.0,
			"-0.016": 0.0,
			"-0.015": 0.0,
			"-0.014": 0.0,
			"-0.013": 0.0,
			"-0.012": 0.0,
			"-0.011": 0.0,
			"-0.01": 0.0,
			"-0.009": 0.0,
			"-0.008": 0.0,
			"-0.007": 0.0,
			"-0.006": 14.9645391531,
			"-0.005": 26.8984856482,
			"-0.004": 28.5575639521,
			"-0.003": 25.7101126647,
			"-0.002": 19.443376863,
			"-0.001": 19.5024428838,
			"0.0": 18.7790792736,
			"0.001": 19.9209939545,
			"0.002": 24.4009770817,
			"0.003": 28.4368853218,
			"0.004": 37.3671445529,
			"0.005": 28.6352273705,
			"0.006": 4.40234261715,
			"0.007": 0.0,
			"0.008": 0.0,
			"0.009": 0.0,
			"0.01": 0.0,
			"0.011": 0.0,
			"0.012": 0.0,
			"0.013": 0.0,
			"0.014": 0.0,
			"0.015": 0.0,
			"0.016": 0.0,
			"0.017": 0.0,
			"0.018": 0.0,
			"0.019": 0.0,
			"0.02": 0.0,
			"0.021": 0.0,
			"0.022": 0.0,
			"0.023": 0.0,
			"0.024": 0.0,
			"0.025": 0.0
		}
	}
}
