{
	 "smiles": "CC(CN(C)C)CN1C2=CC=CC=C2S(=O)(=O)C2=CC=CC=C12", 
	 "Tm": 388.15, 
	 "num_atms": 45, 
	 "gaussian": { 
		 "optdone": 1, 
		 "sigma_profile": "yes", 
		 "theory": "DFT", 
		 "functional": "B3LYP", 
		 "basiset": "6-31G**", 
		 "properties": { 
			 "R2extent": 9163.072, 
			 "electric_dipole_moment_norm": 6.46092845727, 
			 "electric_quadrupole_moment_norm": 21.7618115997, 
			 "total_energy": -1357.23982727, 
			 "HOMO_LUMO_gap": 0.17076, 
			 "cosmo_polarized_energy": -16.92, 
			 "cosmo_cavitation_energy": 46.35, 
			 "cosmo_dispersion_energy": -31.54, 
			 "cosmo_repulsion_energy": 2.32, 
			 "cosmo_total_nonelectrostatic_energy": 17.13, 
			 "SMD_solvation_energy": 6.16 
		},
		"coords": [
			{
				"x": -0.7480167984,
				"y": 1.6845830989,
				"z": 0.7719693227,
				"element": "C" 
			},
			{
				"x": 0.0192178752,
				"y": 0.439413606,
				"z": 1.2350749387,
				"element": "C" 
			},
			{
				"x": 0.0099856855,
				"y": 0.3128890374,
				"z": 2.7698248831,
				"element": "C" 
			},
			{
				"x": 0.540679429,
				"y": -0.9679647999,
				"z": 3.2516663237,
				"element": "N" 
			},
			{
				"x": 1.0388510737,
				"y": -0.8725277729,
				"z": 4.6200857138,
				"element": "C" 
			},
			{
				"x": -0.4382458906,
				"y": -2.0458607756,
				"z": 3.1387380355,
				"element": "C" 
			},
			{
				"x": 1.4808824219,
				"y": 0.4517912209,
				"z": 0.7414595667,
				"element": "C" 
			},
			{
				"x": 1.6007621041,
				"y": 0.296728108,
				"z": -0.7180309621,
				"element": "N" 
			},
			{
				"x": 1.1560547893,
				"y": -0.898783597,
				"z": -1.3107087064,
				"element": "C" 
			},
			{
				"x": 1.1276271721,
				"y": -2.113079139,
				"z": -0.5954881633,
				"element": "C" 
			},
			{
				"x": 0.756419997,
				"y": -3.2957115038,
				"z": -1.2289017685,
				"element": "C" 
			},
			{
				"x": 0.4147506752,
				"y": -3.3208057158,
				"z": -2.5854582403,
				"element": "C" 
			},
			{
				"x": 0.4196496324,
				"y": -2.1308898395,
				"z": -3.3047253209,
				"element": "C" 
			},
			{
				"x": 0.763384936,
				"y": -0.94012362,
				"z": -2.6640033444,
				"element": "C" 
			},
			{
				"x": 0.573168955,
				"y": 0.6042415228,
				"z": -3.5137937504,
				"element": "S" 
			},
			{
				"x": -0.6456182,
				"y": 1.2670275174,
				"z": -3.011018571,
				"element": "O" 
			},
			{
				"x": 0.7342738237,
				"y": 0.408765534,
				"z": -4.9642370273,
				"element": "O" 
			},
			{
				"x": 1.9860968769,
				"y": 1.4447739405,
				"z": -2.8508036991,
				"element": "C" 
			},
			{
				"x": 2.7041791116,
				"y": 2.3265430168,
				"z": -3.6593769652,
				"element": "C" 
			},
			{
				"x": 3.7282406121,
				"y": 3.0874327948,
				"z": -3.1074581335,
				"element": "C" 
			},
			{
				"x": 4.0273532227,
				"y": 2.9368926733,
				"z": -1.7493270073,
				"element": "C" 
			},
			{
				"x": 3.3326525645,
				"y": 2.0335536009,
				"z": -0.9506658993,
				"element": "C" 
			},
			{
				"x": 2.2828941643,
				"y": 1.2595718819,
				"z": -1.4844820859,
				"element": "C" 
			},
			{
				"x": -1.790168917,
				"y": 1.6450975073,
				"z": 1.1059311741,
				"element": "H" 
			},
			{
				"x": -0.3019779087,
				"y": 2.5993718034,
				"z": 1.182664688,
				"element": "H" 
			},
			{
				"x": -0.7512350842,
				"y": 1.765200907,
				"z": -0.3185615863,
				"element": "H" 
			},
			{
				"x": -0.4810352354,
				"y": -0.4393860952,
				"z": 0.8128451293,
				"element": "H" 
			},
			{
				"x": 0.6325193792,
				"y": 1.1146777696,
				"z": 3.1884101588,
				"element": "H" 
			},
			{
				"x": -1.0152524869,
				"y": 0.4931830853,
				"z": 3.1450793957,
				"element": "H" 
			},
			{
				"x": 1.4783778608,
				"y": -1.8296358626,
				"z": 4.919254862,
				"element": "H" 
			},
			{
				"x": 1.8200569014,
				"y": -0.1085022494,
				"z": 4.6813987848,
				"element": "H" 
			},
			{
				"x": 0.2523572083,
				"y": -0.6182883171,
				"z": 5.3560824189,
				"element": "H" 
			},
			{
				"x": -0.7728908927,
				"y": -2.155957602,
				"z": 2.1040490979,
				"element": "H" 
			},
			{
				"x": 0.0198513576,
				"y": -2.9924220766,
				"z": 3.4429880048,
				"element": "H" 
			},
			{
				"x": -1.3324104367,
				"y": -1.8804326496,
				"z": 3.7700337737,
				"element": "H" 
			},
			{
				"x": 2.0571411739,
				"y": -0.3144576237,
				"z": 1.2700965633,
				"element": "H" 
			},
			{
				"x": 1.9134562749,
				"y": 1.4180791223,
				"z": 1.003322078,
				"element": "H" 
			},
			{
				"x": 1.4134903957,
				"y": -2.1360383484,
				"z": 0.4492559498,
				"element": "H" 
			},
			{
				"x": 0.7547986714,
				"y": -4.2179377864,
				"z": -0.6548876876,
				"element": "H" 
			},
			{
				"x": 0.1418500598,
				"y": -4.2530870806,
				"z": -3.0687071083,
				"element": "H" 
			},
			{
				"x": 0.1507391956,
				"y": -2.0972243106,
				"z": -4.355526933,
				"element": "H" 
			},
			{
				"x": 2.4370545161,
				"y": 2.4037663806,
				"z": -4.7083265822,
				"element": "H" 
			},
			{
				"x": 4.2880963281,
				"y": 3.7840867872,
				"z": -3.7224829889,
				"element": "H" 
			},
			{
				"x": 4.835999392,
				"y": 3.5116541062,
				"z": -1.3070692648,
				"element": "H" 
			},
			{
				"x": 3.6375380136,
				"y": 1.9003917432,
				"z": 0.0804109328,
				"element": "H" 
			}
		],
		 "valence_orbital": [ 
			{
				"type": "occ",
				"energy": -0.26773,
				"method": "rhf"
			},
			{
				"type": "occ",
				"energy": -0.26498,
				"method": "rhf"
			},
			{
				"type": "occ",
				"energy": -0.25701,
				"method": "rhf"
			},
			{
				"type": "occ",
				"energy": -0.22586,
				"method": "rhf"
			},
			{
				"type": "occ",
				"energy": -0.2098,
				"method": "rhf"
			},
			{
				"type": "unocc",
				"energy": -0.03904,
				"method": "rhf"
			},
			{
				"type": "unocc",
				"energy": -0.02327,
				"method": "rhf"
			},
			{
				"type": "unocc",
				"energy": -0.01286,
				"method": "rhf"
			},
			{
				"type": "unocc",
				"energy": -0.00265,
				"method": "rhf"
			},
			{
				"type": "unocc",
				"energy": 0.05959,
				"method": "rhf"
			}
		],
		"cosmo_sigma_profile": { 
			"-0.025": 0.0,
			"-0.024": 0.0,
			"-0.023": 0.0,
			"-0.022": 0.0,
			"-0.021": 0.0,
			"-0.02": 0.0,
			"-0.019": 0.0,
			"-0.018": 0.0,
			"-0.017": 0.0,
			"-0.016": 0.0,
			"-0.015": 0.0,
			"-0.014": 0.0,
			"-0.013": 0.0,
			"-0.012": 0.0,
			"-0.011": 0.0,
			"-0.01": 0.0,
			"-0.009": 0.0214363879572,
			"-0.008": 1.62612810689,
			"-0.007": 8.65662768887,
			"-0.006": 17.2153349495,
			"-0.005": 19.7117417599,
			"-0.004": 27.818351181,
			"-0.003": 30.1247232692,
			"-0.002": 37.4235406678,
			"-0.001": 44.5277565527,
			"0.0": 41.5625132077,
			"0.001": 29.5615098091,
			"0.002": 26.5488096074,
			"0.003": 26.6704684928,
			"0.004": 12.8138633056,
			"0.005": 4.44809405078,
			"0.006": 4.18622298538,
			"0.007": 4.14178782699,
			"0.008": 3.06301645101,
			"0.009": 4.36613902609,
			"0.01": 6.30186983596,
			"0.011": 8.58042492531,
			"0.012": 6.53506848461,
			"0.013": 0.515167504478,
			"0.014": 0.0,
			"0.015": 0.0,
			"0.016": 0.0,
			"0.017": 0.0,
			"0.018": 0.0,
			"0.019": 0.0,
			"0.02": 0.0,
			"0.021": 0.0,
			"0.022": 0.0,
			"0.023": 0.0,
			"0.024": 0.0,
			"0.025": 0.0
		}
	}
}
