{
	 "smiles": "OC(=O)C1=CC2=C(O1)C(Cl)=CC=C2", 
	 "Tm": 517.15, 
	 "num_atms": 18, 
	 "gaussian": { 
		 "optdone": 1, 
		 "sigma_profile": "yes", 
		 "theory": "DFT", 
		 "functional": "B3LYP", 
		 "basiset": "6-31G**", 
		 "properties": { 
			 "R2extent": 3354.9326, 
			 "electric_dipole_moment_norm": 1.81582409941, 
			 "electric_quadrupole_moment_norm": 11.233230672, 
			 "total_energy": -1031.83479699, 
			 "HOMO_LUMO_gap": 0.17136, 
			 "cosmo_polarized_energy": -10.92, 
			 "cosmo_cavitation_energy": 25.56, 
			 "cosmo_dispersion_energy": -19.01, 
			 "cosmo_repulsion_energy": 1.51, 
			 "cosmo_total_nonelectrostatic_energy": 8.06, 
			 "SMD_solvation_energy": 5.76 
		},
		"coords": [
			{
				"x": -0.5388207085,
				"y": 2.830802751,
				"z": -3.2328553286,
				"element": "O" 
			},
			{
				"x": -1.3873160764,
				"y": 2.0262664273,
				"z": -2.5602706624,
				"element": "C" 
			},
			{
				"x": -2.5818973646,
				"y": 1.9695633681,
				"z": -2.7753736759,
				"element": "O" 
			},
			{
				"x": -0.720407464,
				"y": 1.2177497272,
				"z": -1.5312921521,
				"element": "C" 
			},
			{
				"x": -1.2680198427,
				"y": 0.3088241999,
				"z": -0.6754240489,
				"element": "C" 
			},
			{
				"x": -0.1860326612,
				"y": -0.1963925258,
				"z": 0.1216815037,
				"element": "C" 
			},
			{
				"x": 0.9589223099,
				"y": 0.4829740129,
				"z": -0.3473685818,
				"element": "C" 
			},
			{
				"x": 0.6396968182,
				"y": 1.3416266646,
				"z": -1.3497755177,
				"element": "O" 
			},
			{
				"x": 2.2283569867,
				"y": 0.2622473324,
				"z": 0.1855525918,
				"element": "C" 
			},
			{
				"x": 3.6165924789,
				"y": 1.1244366042,
				"z": -0.4247003866,
				"element": "Cl" 
			},
			{
				"x": 2.3388781665,
				"y": -0.6664125448,
				"z": 1.2151596751,
				"element": "C" 
			},
			{
				"x": 1.2046481992,
				"y": -1.3524151389,
				"z": 1.693888407,
				"element": "C" 
			},
			{
				"x": -0.0591520913,
				"y": -1.1319346493,
				"z": 1.1625625208,
				"element": "C" 
			},
			{
				"x": -1.0829585573,
				"y": 3.3116899783,
				"z": -3.8786314721,
				"element": "H" 
			},
			{
				"x": -2.3143545014,
				"y": 0.0450620437,
				"z": -0.6328576208,
				"element": "H" 
			},
			{
				"x": 3.3146545314,
				"y": -0.8575029421,
				"z": 1.6479528383,
				"element": "H" 
			},
			{
				"x": 1.3340807144,
				"y": -2.0691080717,
				"z": 2.4987520922,
				"element": "H" 
			},
			{
				"x": -0.9252709379,
				"y": -1.666077237,
				"z": 1.5392998179,
				"element": "H" 
			}
		],
		 "valence_orbital": [ 
			{
				"type": "occ",
				"energy": -0.32034,
				"method": "rhf"
			},
			{
				"type": "occ",
				"energy": -0.29924,
				"method": "rhf"
			},
			{
				"type": "occ",
				"energy": -0.29014,
				"method": "rhf"
			},
			{
				"type": "occ",
				"energy": -0.25573,
				"method": "rhf"
			},
			{
				"type": "occ",
				"energy": -0.23996,
				"method": "rhf"
			},
			{
				"type": "unocc",
				"energy": -0.0686,
				"method": "rhf"
			},
			{
				"type": "unocc",
				"energy": -0.01072,
				"method": "rhf"
			},
			{
				"type": "unocc",
				"energy": 0.00601,
				"method": "rhf"
			},
			{
				"type": "unocc",
				"energy": 0.02274,
				"method": "rhf"
			},
			{
				"type": "unocc",
				"energy": 0.07333,
				"method": "rhf"
			}
		],
		"cosmo_sigma_profile": { 
			"-0.025": 0.0,
			"-0.024": 0.0,
			"-0.023": 0.0,
			"-0.022": 0.0,
			"-0.021": 0.0,
			"-0.02": 0.0,
			"-0.019": 0.477639613,
			"-0.018": 1.06365836599,
			"-0.017": 1.32740582294,
			"-0.016": 0.456393546218,
			"-0.015": 0.387764568568,
			"-0.014": 0.285887636752,
			"-0.013": 0.858419198289,
			"-0.012": 1.50192791117,
			"-0.011": 0.853411709704,
			"-0.01": 0.52312904898,
			"-0.009": 1.83982370478,
			"-0.008": 3.2311799335,
			"-0.007": 8.43794515903,
			"-0.006": 8.99060182954,
			"-0.005": 9.56766934409,
			"-0.004": 8.82763492108,
			"-0.003": 10.8976036015,
			"-0.002": 11.7870685228,
			"-0.001": 15.8742453044,
			"0.0": 19.7657975219,
			"0.001": 21.6573871713,
			"0.002": 17.6475573339,
			"0.003": 16.3300520203,
			"0.004": 14.687055966,
			"0.005": 6.33430565917,
			"0.006": 3.26942998198,
			"0.007": 2.54265920648,
			"0.008": 4.48140970679,
			"0.009": 3.94604503159,
			"0.01": 3.36174429346,
			"0.011": 5.32762050876,
			"0.012": 1.99340974718,
			"0.013": 0.0,
			"0.014": 0.0,
			"0.015": 0.0,
			"0.016": 0.0,
			"0.017": 0.0,
			"0.018": 0.0,
			"0.019": 0.0,
			"0.02": 0.0,
			"0.021": 0.0,
			"0.022": 0.0,
			"0.023": 0.0,
			"0.024": 0.0,
			"0.025": 0.0
		}
	}
}
