{
	 "smiles": "CC1=CC=CC(F)=C1", 
	 "Tm": 186.15, 
	 "num_atms": 15, 
	 "gaussian": { 
		 "optdone": 1, 
		 "sigma_profile": "yes", 
		 "theory": "DFT", 
		 "functional": "B3LYP", 
		 "basiset": "6-31G**", 
		 "properties": { 
			 "R2extent": 1310.7441, 
			 "electric_dipole_moment_norm": 1.56801539852, 
			 "electric_quadrupole_moment_norm": 5.68274643372, 
			 "total_energy": -370.804638504, 
			 "HOMO_LUMO_gap": 0.23128, 
			 "cosmo_polarized_energy": -3.24, 
			 "cosmo_cavitation_energy": 18.97, 
			 "cosmo_dispersion_energy": -14.0, 
			 "cosmo_repulsion_energy": 1.14, 
			 "cosmo_total_nonelectrostatic_energy": 6.12, 
			 "SMD_solvation_energy": 3.93 
		},
		"coords": [
			{
				"x": 1.7553651767,
				"y": -2.3446750539,
				"z": -0.300001136,
				"element": "C" 
			},
			{
				"x": 1.4112683498,
				"y": -0.8904253834,
				"z": -0.0779181353,
				"element": "C" 
			},
			{
				"x": 1.0564652131,
				"y": -0.0586822011,
				"z": -1.1485426153,
				"element": "C" 
			},
			{
				"x": 0.7646279618,
				"y": 1.2910528417,
				"z": -0.9409498086,
				"element": "C" 
			},
			{
				"x": 0.817929608,
				"y": 1.8408995882,
				"z": 0.3398369125,
				"element": "C" 
			},
			{
				"x": 1.1687202427,
				"y": 1.0042365,
				"z": 1.3934708373,
				"element": "C" 
			},
			{
				"x": 1.2226946241,
				"y": 1.5156025595,
				"z": 2.6431708517,
				"element": "F" 
			},
			{
				"x": 1.4629653469,
				"y": -0.3405986338,
				"z": 1.2102172149,
				"element": "C" 
			},
			{
				"x": 1.3495924358,
				"y": -2.9784402587,
				"z": 0.4948752022,
				"element": "H" 
			},
			{
				"x": 1.3636767304,
				"y": -2.7057053604,
				"z": -1.2549855175,
				"element": "H" 
			},
			{
				"x": 2.8418341526,
				"y": -2.4960190391,
				"z": -0.3115627126,
				"element": "H" 
			},
			{
				"x": 1.0072916716,
				"y": -0.4722609801,
				"z": -2.1520489846,
				"element": "H" 
			},
			{
				"x": 0.4896206705,
				"y": 1.9203121488,
				"z": -1.7824330101,
				"element": "H" 
			},
			{
				"x": 0.5932141936,
				"y": 2.884395866,
				"z": 0.5309840787,
				"element": "H" 
			},
			{
				"x": 1.727633622,
				"y": -0.9454925936,
				"z": 2.0720868227,
				"element": "H" 
			}
		],
		 "valence_orbital": [ 
			{
				"type": "occ",
				"energy": -0.36179,
				"method": "rhf"
			},
			{
				"type": "occ",
				"energy": -0.3456,
				"method": "rhf"
			},
			{
				"type": "occ",
				"energy": -0.33893,
				"method": "rhf"
			},
			{
				"type": "occ",
				"energy": -0.24979,
				"method": "rhf"
			},
			{
				"type": "occ",
				"energy": -0.23833,
				"method": "rhf"
			},
			{
				"type": "unocc",
				"energy": -0.00705,
				"method": "rhf"
			},
			{
				"type": "unocc",
				"energy": 0.00661,
				"method": "rhf"
			},
			{
				"type": "unocc",
				"energy": 0.08958,
				"method": "rhf"
			},
			{
				"type": "unocc",
				"energy": 0.11766,
				"method": "rhf"
			},
			{
				"type": "unocc",
				"energy": 0.13536,
				"method": "rhf"
			}
		],
		"cosmo_sigma_profile": { 
			"-0.025": 0.0,
			"-0.024": 0.0,
			"-0.023": 0.0,
			"-0.022": 0.0,
			"-0.021": 0.0,
			"-0.02": 0.0,
			"-0.019": 0.0,
			"-0.018": 0.0,
			"-0.017": 0.0,
			"-0.016": 0.0,
			"-0.015": 0.0,
			"-0.014": 0.0,
			"-0.013": 0.0,
			"-0.012": 0.0,
			"-0.011": 0.0,
			"-0.01": 0.0,
			"-0.009": 0.0,
			"-0.008": 0.0,
			"-0.007": 1.33796926923,
			"-0.006": 5.59773474955,
			"-0.005": 8.31088354746,
			"-0.004": 15.9044891912,
			"-0.003": 12.3985216563,
			"-0.002": 12.1843209047,
			"-0.001": 12.9038820669,
			"0.0": 13.7280455972,
			"0.001": 12.2593450986,
			"0.002": 12.0857402419,
			"0.003": 11.5162835119,
			"0.004": 16.3239920932,
			"0.005": 15.1612147185,
			"0.006": 1.57091803652,
			"0.007": 0.0,
			"0.008": 0.0,
			"0.009": 0.0,
			"0.01": 0.0,
			"0.011": 0.0,
			"0.012": 0.0,
			"0.013": 0.0,
			"0.014": 0.0,
			"0.015": 0.0,
			"0.016": 0.0,
			"0.017": 0.0,
			"0.018": 0.0,
			"0.019": 0.0,
			"0.02": 0.0,
			"0.021": 0.0,
			"0.022": 0.0,
			"0.023": 0.0,
			"0.024": 0.0,
			"0.025": 0.0
		}
	}
}
