{
	 "smiles": "FC1=CC=C(C=C1)P(C1=CC=C(F)C=C1)C1=CC=C(F)C=C1", 
	 "Tm": 353.15, 
	 "num_atms": 34, 
	 "gaussian": { 
		 "optdone": 1, 
		 "sigma_profile": "yes", 
		 "theory": "DFT", 
		 "functional": "B3LYP", 
		 "basiset": "6-31G**", 
		 "properties": { 
			 "R2extent": 8284.8666, 
			 "electric_dipole_moment_norm": 0.0794778585519, 
			 "electric_quadrupole_moment_norm": 6.67743322318, 
			 "total_energy": -1333.9989343, 
			 "HOMO_LUMO_gap": 0.1938, 
			 "cosmo_polarized_energy": -7.57, 
			 "cosmo_cavitation_energy": 41.7, 
			 "cosmo_dispersion_energy": -28.49, 
			 "cosmo_repulsion_energy": 2.19, 
			 "cosmo_total_nonelectrostatic_energy": 15.41, 
			 "SMD_solvation_energy": 8.65 
		},
		"coords": [
			{
				"x": 0.2275541858,
				"y": -1.6584249913,
				"z": -5.370976473,
				"element": "F" 
			},
			{
				"x": 0.4363757243,
				"y": -1.2178522922,
				"z": -4.1137369547,
				"element": "C" 
			},
			{
				"x": 1.0562172939,
				"y": 0.0127087682,
				"z": -3.9246192627,
				"element": "C" 
			},
			{
				"x": 1.2770892373,
				"y": 0.4533225546,
				"z": -2.620925812,
				"element": "C" 
			},
			{
				"x": 0.8703693958,
				"y": -0.3099919904,
				"z": -1.5123625515,
				"element": "C" 
			},
			{
				"x": 0.2516606191,
				"y": -1.5484516098,
				"z": -1.7466616019,
				"element": "C" 
			},
			{
				"x": 0.0327770443,
				"y": -2.0102766667,
				"z": -3.0454184149,
				"element": "C" 
			},
			{
				"x": 1.2366518668,
				"y": 0.3849046446,
				"z": 0.1649278449,
				"element": "P" 
			},
			{
				"x": -0.2998333635,
				"y": 1.3463321568,
				"z": 0.5460774925,
				"element": "C" 
			},
			{
				"x": -0.2132909213,
				"y": 2.305675558,
				"z": 1.5703681954,
				"element": "C" 
			},
			{
				"x": -1.31105036,
				"y": 3.0873754398,
				"z": 1.9259190418,
				"element": "C" 
			},
			{
				"x": -2.5028183166,
				"y": 2.9143586587,
				"z": 1.2302184445,
				"element": "C" 
			},
			{
				"x": -3.5679719361,
				"y": 3.6730764486,
				"z": 1.5590936264,
				"element": "F" 
			},
			{
				"x": -2.6262004005,
				"y": 1.9881227573,
				"z": 0.2011500181,
				"element": "C" 
			},
			{
				"x": -1.5200382735,
				"y": 1.2058850812,
				"z": -0.1342549563,
				"element": "C" 
			},
			{
				"x": 1.0647640836,
				"y": -1.0983380799,
				"z": 1.2607945186,
				"element": "C" 
			},
			{
				"x": 2.2288892529,
				"y": -1.8477401196,
				"z": 1.5061126626,
				"element": "C" 
			},
			{
				"x": 2.2058007807,
				"y": -2.9753464638,
				"z": 2.3249691943,
				"element": "C" 
			},
			{
				"x": 1.0020717008,
				"y": -3.3410853746,
				"z": 2.9178589161,
				"element": "C" 
			},
			{
				"x": 0.9710669376,
				"y": -4.4242690339,
				"z": 3.7204227006,
				"element": "F" 
			},
			{
				"x": -0.1679523626,
				"y": -2.6189202798,
				"z": 2.7137591128,
				"element": "C" 
			},
			{
				"x": -0.1290887598,
				"y": -1.4989376189,
				"z": 1.8818378207,
				"element": "C" 
			},
			{
				"x": 1.3645601677,
				"y": 0.5965938077,
				"z": -4.785200485,
				"element": "H" 
			},
			{
				"x": 1.7782868404,
				"y": 1.4046277261,
				"z": -2.4625527399,
				"element": "H" 
			},
			{
				"x": -0.0590866474,
				"y": -2.1647882147,
				"z": -0.9092287534,
				"element": "H" 
			},
			{
				"x": -0.4410863688,
				"y": -2.9671912537,
				"z": -3.2371646076,
				"element": "H" 
			},
			{
				"x": 0.7280082442,
				"y": 2.4470632714,
				"z": 2.094988987,
				"element": "H" 
			},
			{
				"x": -1.2533452255,
				"y": 3.8278236873,
				"z": 2.7164866734,
				"element": "H" 
			},
			{
				"x": -3.5722899396,
				"y": 1.8898673468,
				"z": -0.3206341834,
				"element": "H" 
			},
			{
				"x": -1.6107082991,
				"y": 0.4832827804,
				"z": -0.9388465191,
				"element": "H" 
			},
			{
				"x": 3.1688179032,
				"y": -1.5424654087,
				"z": 1.0537842917,
				"element": "H" 
			},
			{
				"x": 3.098759126,
				"y": -3.5603348819,
				"z": 2.5173445001,
				"element": "H" 
			},
			{
				"x": -1.0843477514,
				"y": -2.9346697921,
				"z": 3.201124348,
				"element": "H" 
			},
			{
				"x": -1.0393114786,
				"y": -0.9301366155,
				"z": 1.7215449261,
				"element": "H" 
			}
		],
		 "valence_orbital": [ 
			{
				"type": "occ",
				"energy": -0.26625,
				"method": "rhf"
			},
			{
				"type": "occ",
				"energy": -0.26624,
				"method": "rhf"
			},
			{
				"type": "occ",
				"energy": -0.25432,
				"method": "rhf"
			},
			{
				"type": "occ",
				"energy": -0.2543,
				"method": "rhf"
			},
			{
				"type": "occ",
				"energy": -0.21923,
				"method": "rhf"
			},
			{
				"type": "unocc",
				"energy": -0.02543,
				"method": "rhf"
			},
			{
				"type": "unocc",
				"energy": -0.02542,
				"method": "rhf"
			},
			{
				"type": "unocc",
				"energy": -0.02494,
				"method": "rhf"
			},
			{
				"type": "unocc",
				"energy": -0.01245,
				"method": "rhf"
			},
			{
				"type": "unocc",
				"energy": -0.01244,
				"method": "rhf"
			}
		],
		"cosmo_sigma_profile": { 
			"-0.025": 0.0,
			"-0.024": 0.0,
			"-0.023": 0.0,
			"-0.022": 0.0,
			"-0.021": 0.0,
			"-0.02": 0.0,
			"-0.019": 0.0,
			"-0.018": 0.0,
			"-0.017": 0.0,
			"-0.016": 0.0,
			"-0.015": 0.0,
			"-0.014": 0.0,
			"-0.013": 0.0,
			"-0.012": 0.0,
			"-0.011": 0.0,
			"-0.01": 0.0,
			"-0.009": 0.0,
			"-0.008": 1.39934697929,
			"-0.007": 11.4574990037,
			"-0.006": 16.0410138498,
			"-0.005": 22.4652796026,
			"-0.004": 20.347966685,
			"-0.003": 20.3422581419,
			"-0.002": 21.6720557871,
			"-0.001": 19.308254638,
			"0.0": 29.4661762689,
			"0.001": 38.1668625693,
			"0.002": 40.4422642646,
			"0.003": 37.8252946016,
			"0.004": 43.0885489245,
			"0.005": 9.54997192325,
			"0.006": 1.10892646882,
			"0.007": 0.569950971539,
			"0.008": 0.489619248293,
			"0.009": 0.816382214668,
			"0.01": 0.822021753513,
			"0.011": 0.492942765944,
			"0.012": 0.560020372673,
			"0.013": 0.532062344888,
			"0.014": 0.00607698006901,
			"0.015": 0.0,
			"0.016": 0.0,
			"0.017": 0.0,
			"0.018": 0.0,
			"0.019": 0.0,
			"0.02": 0.0,
			"0.021": 0.0,
			"0.022": 0.0,
			"0.023": 0.0,
			"0.024": 0.0,
			"0.025": 0.0
		}
	}
}
