{
	 "smiles": "NNC(=O)C1=CC(=CC(=C1)[N+]([O-])=O)[N+]([O-])=O", 
	 "Tm": 431.15, 
	 "num_atms": 22, 
	 "gaussian": { 
		 "optdone": 1, 
		 "sigma_profile": "yes", 
		 "theory": "DFT", 
		 "functional": "B3LYP", 
		 "basiset": "6-31G**", 
		 "properties": { 
			 "R2extent": 6020.8641, 
			 "electric_dipole_moment_norm": 3.59103834984, 
			 "electric_quadrupole_moment_norm": 13.7672229237, 
			 "total_energy": -865.259390657, 
			 "HOMO_LUMO_gap": 0.15825, 
			 "cosmo_polarized_energy": -19.35, 
			 "cosmo_cavitation_energy": 29.35, 
			 "cosmo_dispersion_energy": -21.14, 
			 "cosmo_repulsion_energy": 1.65, 
			 "cosmo_total_nonelectrostatic_energy": 9.87, 
			 "SMD_solvation_energy": 10.72 
		},
		"coords": [
			{
				"x": -2.1224569692,
				"y": 2.0413892215,
				"z": 1.0802933543,
				"element": "N" 
			},
			{
				"x": -1.2976650465,
				"y": 0.9326027252,
				"z": 1.367110356,
				"element": "N" 
			},
			{
				"x": -0.6027861906,
				"y": 0.3130404618,
				"z": 0.3627039989,
				"element": "C" 
			},
			{
				"x": -0.7493556701,
				"y": 0.6106367041,
				"z": -0.8169988639,
				"element": "O" 
			},
			{
				"x": 0.3632958069,
				"y": -0.7618078389,
				"z": 0.7886662151,
				"element": "C" 
			},
			{
				"x": 1.3660494037,
				"y": -1.1131429835,
				"z": -0.1232684023,
				"element": "C" 
			},
			{
				"x": 2.2732315826,
				"y": -2.1099235045,
				"z": 0.2167891305,
				"element": "C" 
			},
			{
				"x": 2.2179592312,
				"y": -2.7906182469,
				"z": 1.4289642841,
				"element": "C" 
			},
			{
				"x": 1.2017691498,
				"y": -2.4323815857,
				"z": 2.3057874715,
				"element": "C" 
			},
			{
				"x": 0.2731041017,
				"y": -1.4363882014,
				"z": 2.0103164133,
				"element": "C" 
			},
			{
				"x": 1.0969752899,
				"y": -3.1402340366,
				"z": 3.5980615644,
				"element": "N" 
			},
			{
				"x": 1.9243354782,
				"y": -4.0162873296,
				"z": 3.8302783915,
				"element": "O" 
			},
			{
				"x": 0.1886283538,
				"y": -2.7997525397,
				"z": 4.353219057,
				"element": "O" 
			},
			{
				"x": 3.3383692616,
				"y": -2.4690010614,
				"z": -0.7443941007,
				"element": "N" 
			},
			{
				"x": 4.1154162528,
				"y": -3.3606899413,
				"z": -0.41365437,
				"element": "O" 
			},
			{
				"x": 3.3716937124,
				"y": -1.8501625379,
				"z": -1.8037771393,
				"element": "O" 
			},
			{
				"x": -3.0281665741,
				"y": 1.67975473,
				"z": 0.7834672127,
				"element": "H" 
			},
			{
				"x": -1.7255654519,
				"y": 2.4979657751,
				"z": 0.257653043,
				"element": "H" 
			},
			{
				"x": -0.9312262303,
				"y": 0.929940589,
				"z": 2.3086419624,
				"element": "H" 
			},
			{
				"x": 1.4234827525,
				"y": -0.6139622749,
				"z": -1.082527517,
				"element": "H" 
			},
			{
				"x": 2.9295868093,
				"y": -3.5671066677,
				"z": 1.6743644698,
				"element": "H" 
			},
			{
				"x": -0.5112750536,
				"y": -1.2329714569,
				"z": 2.7289034685,
				"element": "H" 
			}
		],
		 "valence_orbital": [ 
			{
				"type": "occ",
				"energy": -0.31459,
				"method": "rhf"
			},
			{
				"type": "occ",
				"energy": -0.31415,
				"method": "rhf"
			},
			{
				"type": "occ",
				"energy": -0.31336,
				"method": "rhf"
			},
			{
				"type": "occ",
				"energy": -0.29043,
				"method": "rhf"
			},
			{
				"type": "occ",
				"energy": -0.27931,
				"method": "rhf"
			},
			{
				"type": "unocc",
				"energy": -0.12106,
				"method": "rhf"
			},
			{
				"type": "unocc",
				"energy": -0.1121,
				"method": "rhf"
			},
			{
				"type": "unocc",
				"energy": -0.07112,
				"method": "rhf"
			},
			{
				"type": "unocc",
				"energy": -0.01821,
				"method": "rhf"
			},
			{
				"type": "unocc",
				"energy": 0.02504,
				"method": "rhf"
			}
		],
		"cosmo_sigma_profile": { 
			"-0.025": 0.0,
			"-0.024": 0.0,
			"-0.023": 0.0,
			"-0.022": 0.0,
			"-0.021": 0.0,
			"-0.02": 0.0,
			"-0.019": 0.0,
			"-0.018": 0.0,
			"-0.017": 0.0,
			"-0.016": 0.79267679383,
			"-0.015": 1.32734423978,
			"-0.014": 1.33005616738,
			"-0.013": 1.44066960587,
			"-0.012": 2.50197956911,
			"-0.011": 2.64475983492,
			"-0.01": 4.33099406361,
			"-0.009": 3.91316183844,
			"-0.008": 6.63779123975,
			"-0.007": 8.8259511147,
			"-0.006": 11.0519336436,
			"-0.005": 14.3415994741,
			"-0.004": 24.4976470209,
			"-0.003": 20.2544139602,
			"-0.002": 10.5572022333,
			"-0.001": 9.4031741503,
			"0.0": 8.48286329558,
			"0.001": 7.9921236439,
			"0.002": 6.80317918564,
			"0.003": 6.24353930431,
			"0.004": 8.5461717293,
			"0.005": 9.67739336974,
			"0.006": 15.4521549583,
			"0.007": 16.5239434624,
			"0.008": 10.9917759271,
			"0.009": 7.5377211391,
			"0.01": 2.18720518606,
			"0.011": 2.37404749894,
			"0.012": 4.94545366355,
			"0.013": 2.14378170619,
			"0.014": 0.660995113696,
			"0.015": 0.514329661273,
			"0.016": 0.422729146855,
			"0.017": 0.0530511804127,
			"0.018": 0.0,
			"0.019": 0.0,
			"0.02": 0.0,
			"0.021": 0.0,
			"0.022": 0.0,
			"0.023": 0.0,
			"0.024": 0.0,
			"0.025": 0.0
		}
	}
}
