{
	 "smiles": "CC(C)(C)OC(=O)NCCCC[C@H](NC(=O)OCC1C2=CC=CC=C2C2=CC=CC=C12)C(O)=O", 
	 "Tm": 409.15, 
	 "num_atms": 66, 
	 "gaussian": { 
		 "optdone": 1, 
		 "sigma_profile": "yes", 
		 "theory": "DFT", 
		 "functional": "B3LYP", 
		 "basiset": "6-31G**", 
		 "properties": { 
			 "R2extent": 17072.3948, 
			 "electric_dipole_moment_norm": 5.05496707111, 
			 "electric_quadrupole_moment_norm": 18.8867866184, 
			 "total_energy": -1570.99479163, 
			 "HOMO_LUMO_gap": 0.18386, 
			 "cosmo_polarized_energy": -28.02, 
			 "cosmo_cavitation_energy": 68.23, 
			 "cosmo_dispersion_energy": -39.26, 
			 "cosmo_repulsion_energy": 2.91, 
			 "cosmo_total_nonelectrostatic_energy": 31.88, 
			 "SMD_solvation_energy": 12.81 
		},
		"coords": [
			{
				"x": -4.1992376994,
				"y": -2.3207310559,
				"z": -0.1993315416,
				"element": "C" 
			},
			{
				"x": -3.2910188515,
				"y": -3.2396039887,
				"z": 0.6226977328,
				"element": "C" 
			},
			{
				"x": -4.0091538248,
				"y": -4.5504609449,
				"z": 0.9620186458,
				"element": "C" 
			},
			{
				"x": -2.7785176788,
				"y": -2.5181048447,
				"z": 1.8740795353,
				"element": "C" 
			},
			{
				"x": -2.1784859194,
				"y": -3.4988552816,
				"z": -0.3021125762,
				"element": "O" 
			},
			{
				"x": -1.1526759125,
				"y": -4.3100293555,
				"z": 0.0609296436,
				"element": "C" 
			},
			{
				"x": -1.00942217,
				"y": -4.8460665996,
				"z": 1.1485919022,
				"element": "O" 
			},
			{
				"x": -0.2737526064,
				"y": -4.4763053922,
				"z": -0.9750343606,
				"element": "N" 
			},
			{
				"x": -0.3306322978,
				"y": -3.8353454554,
				"z": -2.2817039837,
				"element": "C" 
			},
			{
				"x": 0.4104278676,
				"y": -2.4906796146,
				"z": -2.3708079808,
				"element": "C" 
			},
			{
				"x": 1.9229438301,
				"y": -2.6188627278,
				"z": -2.1438086914,
				"element": "C" 
			},
			{
				"x": 2.7246161433,
				"y": -1.3378308544,
				"z": -2.4323737463,
				"element": "C" 
			},
			{
				"x": 2.4444475133,
				"y": -0.1318418152,
				"z": -1.5127440789,
				"element": "C" 
			},
			{
				"x": 2.9863342877,
				"y": 1.1138605822,
				"z": -2.0696336216,
				"element": "N" 
			},
			{
				"x": 2.2642911298,
				"y": 2.0881405826,
				"z": -2.7290648431,
				"element": "C" 
			},
			{
				"x": 2.7784102583,
				"y": 2.9465181073,
				"z": -3.4190523901,
				"element": "O" 
			},
			{
				"x": 0.9375079687,
				"y": 1.9762921363,
				"z": -2.4696814323,
				"element": "O" 
			},
			{
				"x": 0.1155683531,
				"y": 3.1060995392,
				"z": -2.8219762349,
				"element": "C" 
			},
			{
				"x": -0.3146269213,
				"y": 3.8590007294,
				"z": -1.551619241,
				"element": "C" 
			},
			{
				"x": -1.1735170022,
				"y": 3.0301914231,
				"z": -0.6071424354,
				"element": "C" 
			},
			{
				"x": -2.400960445,
				"y": 2.4220683532,
				"z": -0.8430956036,
				"element": "C" 
			},
			{
				"x": -3.0141627011,
				"y": 1.7071484938,
				"z": 0.1929624437,
				"element": "C" 
			},
			{
				"x": -2.3992189017,
				"y": 1.6035343433,
				"z": 1.4459223045,
				"element": "C" 
			},
			{
				"x": -1.1657931324,
				"y": 2.2134675363,
				"z": 1.6874391397,
				"element": "C" 
			},
			{
				"x": -0.5562315577,
				"y": 2.9302971459,
				"z": 0.6557792418,
				"element": "C" 
			},
			{
				"x": 0.7053634136,
				"y": 3.6835861899,
				"z": 0.620788049,
				"element": "C" 
			},
			{
				"x": 1.6773542975,
				"y": 3.8835929918,
				"z": 1.6042527436,
				"element": "C" 
			},
			{
				"x": 2.7937977806,
				"y": 4.6665139302,
				"z": 1.2976122472,
				"element": "C" 
			},
			{
				"x": 2.9373318657,
				"y": 5.2400623689,
				"z": 0.0293780104,
				"element": "C" 
			},
			{
				"x": 1.9670056569,
				"y": 5.0359100155,
				"z": -0.9595810698,
				"element": "C" 
			},
			{
				"x": 0.8547709118,
				"y": 4.2565872127,
				"z": -0.6595625532,
				"element": "C" 
			},
			{
				"x": 2.9800354489,
				"y": -0.3331765629,
				"z": -0.0778469651,
				"element": "C" 
			},
			{
				"x": 3.214578888,
				"y": 0.8000542821,
				"z": 0.6100344463,
				"element": "O" 
			},
			{
				"x": 3.1506794814,
				"y": -1.4186363415,
				"z": 0.4243826604,
				"element": "O" 
			},
			{
				"x": -5.0846857487,
				"y": -2.0488668453,
				"z": 0.3835172889,
				"element": "H" 
			},
			{
				"x": -3.6697565838,
				"y": -1.4042398252,
				"z": -0.4760964398,
				"element": "H" 
			},
			{
				"x": -4.5288890155,
				"y": -2.8207672096,
				"z": -1.1150021332,
				"element": "H" 
			},
			{
				"x": -4.3256862022,
				"y": -5.0583821108,
				"z": 0.0452329906,
				"element": "H" 
			},
			{
				"x": -3.3569171229,
				"y": -5.2154935826,
				"z": 1.5282754687,
				"element": "H" 
			},
			{
				"x": -4.9027423025,
				"y": -4.3371680608,
				"z": 1.5578282396,
				"element": "H" 
			},
			{
				"x": -2.106207149,
				"y": -3.1595991503,
				"z": 2.4436435389,
				"element": "H" 
			},
			{
				"x": -3.6263546596,
				"y": -2.2387408466,
				"z": 2.5089333309,
				"element": "H" 
			},
			{
				"x": -2.2460442139,
				"y": -1.6036835266,
				"z": 1.5939622853,
				"element": "H" 
			},
			{
				"x": 0.5452142123,
				"y": -5.004865192,
				"z": -0.7157286624,
				"element": "H" 
			},
			{
				"x": 0.0919259139,
				"y": -4.5361683544,
				"z": -3.012877801,
				"element": "H" 
			},
			{
				"x": -1.3824868727,
				"y": -3.6957341992,
				"z": -2.5370944793,
				"element": "H" 
			},
			{
				"x": 0.2186561369,
				"y": -2.066927719,
				"z": -3.3670562015,
				"element": "H" 
			},
			{
				"x": -0.04027999,
				"y": -1.8043690858,
				"z": -1.6436136427,
				"element": "H" 
			},
			{
				"x": 2.3116437173,
				"y": -3.4003865281,
				"z": -2.8119081472,
				"element": "H" 
			},
			{
				"x": 2.126731178,
				"y": -2.9428840343,
				"z": -1.1203291125,
				"element": "H" 
			},
			{
				"x": 3.7962018545,
				"y": -1.5683712038,
				"z": -2.3838829328,
				"element": "H" 
			},
			{
				"x": 2.5159914083,
				"y": -1.0094844109,
				"z": -3.4584862546,
				"element": "H" 
			},
			{
				"x": 1.3660836278,
				"y": 0.0223157157,
				"z": -1.414824055,
				"element": "H" 
			},
			{
				"x": 3.9454360806,
				"y": 1.0835869462,
				"z": -2.3943654593,
				"element": "H" 
			},
			{
				"x": 0.6768044515,
				"y": 3.7517411856,
				"z": -3.4996866545,
				"element": "H" 
			},
			{
				"x": -0.7551974322,
				"y": 2.7015451442,
				"z": -3.3446604761,
				"element": "H" 
			},
			{
				"x": -0.8671947839,
				"y": 4.7477115227,
				"z": -1.8918425526,
				"element": "H" 
			},
			{
				"x": -2.8876521553,
				"y": 2.500327823,
				"z": -1.8123691411,
				"element": "H" 
			},
			{
				"x": -3.9772952313,
				"y": 1.2342212829,
				"z": 0.0252174677,
				"element": "H" 
			},
			{
				"x": -2.8882534768,
				"y": 1.0468235353,
				"z": 2.2398186345,
				"element": "H" 
			},
			{
				"x": -0.6952787127,
				"y": 2.1309193439,
				"z": 2.6629964589,
				"element": "H" 
			},
			{
				"x": 1.5736807277,
				"y": 3.4383722356,
				"z": 2.5894105828,
				"element": "H" 
			},
			{
				"x": 3.5582873215,
				"y": 4.8299102851,
				"z": 2.0516249876,
				"element": "H" 
			},
			{
				"x": 3.8117465476,
				"y": 5.8443854512,
				"z": -0.1929969248,
				"element": "H" 
			},
			{
				"x": 2.0990486235,
				"y": 5.4646965758,
				"z": -1.9484004466,
				"element": "H" 
			},
			{
				"x": 3.0804123777,
				"y": 1.5600797098,
				"z": 0.0164648461,
				"element": "H" 
			}
		],
		 "valence_orbital": [ 
			{
				"type": "occ",
				"energy": -0.25737,
				"method": "rhf"
			},
			{
				"type": "occ",
				"energy": -0.2532,
				"method": "rhf"
			},
			{
				"type": "occ",
				"energy": -0.25208,
				"method": "rhf"
			},
			{
				"type": "occ",
				"energy": -0.24259,
				"method": "rhf"
			},
			{
				"type": "occ",
				"energy": -0.22323,
				"method": "rhf"
			},
			{
				"type": "unocc",
				"energy": -0.03937,
				"method": "rhf"
			},
			{
				"type": "unocc",
				"energy": -0.02138,
				"method": "rhf"
			},
			{
				"type": "unocc",
				"energy": -0.00027,
				"method": "rhf"
			},
			{
				"type": "unocc",
				"energy": 0.00643,
				"method": "rhf"
			},
			{
				"type": "unocc",
				"energy": 0.03021,
				"method": "rhf"
			}
		],
		"cosmo_sigma_profile": { 
			"-0.025": 0.0,
			"-0.024": 0.0,
			"-0.023": 0.0,
			"-0.022": 0.0,
			"-0.021": 0.0,
			"-0.02": 0.0,
			"-0.019": 0.0,
			"-0.018": 0.0,
			"-0.017": 0.0,
			"-0.016": 0.0,
			"-0.015": 0.560434077798,
			"-0.014": 1.31353681438,
			"-0.013": 2.41886330759,
			"-0.012": 1.88415709078,
			"-0.011": 2.28115743608,
			"-0.01": 1.57659133796,
			"-0.009": 2.53070983161,
			"-0.008": 4.04162833154,
			"-0.007": 6.73723357407,
			"-0.006": 25.2755203833,
			"-0.005": 32.3280255729,
			"-0.004": 46.3752622043,
			"-0.003": 51.605500827,
			"-0.002": 47.0280446583,
			"-0.001": 51.1264885504,
			"0.0": 49.2032613158,
			"0.001": 42.88015027,
			"0.002": 27.7971777608,
			"0.003": 25.6570492853,
			"0.004": 23.9708695012,
			"0.005": 24.6169359057,
			"0.006": 12.3876005589,
			"0.007": 6.02125241487,
			"0.008": 6.0369229758,
			"0.009": 6.48461345319,
			"0.01": 6.97974820542,
			"0.011": 7.64083603621,
			"0.012": 8.71109836425,
			"0.013": 6.83744266145,
			"0.014": 3.41211258119,
			"0.015": 0.417561319032,
			"0.016": 0.0,
			"0.017": 0.0,
			"0.018": 0.0,
			"0.019": 0.0,
			"0.02": 0.0,
			"0.021": 0.0,
			"0.022": 0.0,
			"0.023": 0.0,
			"0.024": 0.0,
			"0.025": 0.0
		}
	}
}
