{
	 "smiles": "CC(C)CCNCCC(C)C", 
	 "Tm": 229.15, 
	 "num_atms": 34, 
	 "gaussian": { 
		 "optdone": 1, 
		 "sigma_profile": "yes", 
		 "theory": "DFT", 
		 "functional": "B3LYP", 
		 "basiset": "6-31G**", 
		 "properties": { 
			 "R2extent": 2830.8821, 
			 "electric_dipole_moment_norm": 1.01052045007, 
			 "electric_quadrupole_moment_norm": 1.75488683396, 
			 "total_energy": -449.695964243, 
			 "HOMO_LUMO_gap": 0.29093, 
			 "cosmo_polarized_energy": -2.58, 
			 "cosmo_cavitation_energy": 33.1, 
			 "cosmo_dispersion_energy": -22.41, 
			 "cosmo_repulsion_energy": 1.82, 
			 "cosmo_total_nonelectrostatic_energy": 12.52, 
			 "SMD_solvation_energy": 5.13 
		},
		"coords": [
			{
				"x": -0.1401300047,
				"y": 1.3297056293,
				"z": 2.1828978347,
				"element": "C" 
			},
			{
				"x": -1.2069270178,
				"y": 0.2232034086,
				"z": 2.1849395245,
				"element": "C" 
			},
			{
				"x": -1.9487625435,
				"y": 0.2028157509,
				"z": 3.531247722,
				"element": "C" 
			},
			{
				"x": -0.6262029152,
				"y": -1.1745236878,
				"z": 1.8728756831,
				"element": "C" 
			},
			{
				"x": -0.3291120179,
				"y": -1.4960165387,
				"z": 0.4018501169,
				"element": "C" 
			},
			{
				"x": 0.746977065,
				"y": -0.6861125488,
				"z": -0.1728908484,
				"element": "N" 
			},
			{
				"x": 1.2347354532,
				"y": -1.1737693745,
				"z": -1.4676094784,
				"element": "C" 
			},
			{
				"x": 0.2997915883,
				"y": -0.9170793509,
				"z": -2.6616410359,
				"element": "C" 
			},
			{
				"x": -0.0010805515,
				"y": 0.5505406293,
				"z": -3.053354773,
				"element": "C" 
			},
			{
				"x": -1.0449292394,
				"y": 1.2192178475,
				"z": -2.1449541154,
				"element": "C" 
			},
			{
				"x": 1.2702932218,
				"y": 1.4066962546,
				"z": -3.1553826812,
				"element": "C" 
			},
			{
				"x": 0.3822946711,
				"y": 1.3743974861,
				"z": 1.2251681819,
				"element": "H" 
			},
			{
				"x": 0.603069297,
				"y": 1.1489625816,
				"z": 2.9708072473,
				"element": "H" 
			},
			{
				"x": -0.5921904755,
				"y": 2.3086503009,
				"z": 2.3786494599,
				"element": "H" 
			},
			{
				"x": -1.9410239851,
				"y": 0.458132793,
				"z": 1.3999995892,
				"element": "H" 
			},
			{
				"x": -1.2677995714,
				"y": -0.0647442342,
				"z": 4.3490728147,
				"element": "H" 
			},
			{
				"x": -2.7679464405,
				"y": -0.5249310426,
				"z": 3.5300301746,
				"element": "H" 
			},
			{
				"x": -2.3728294243,
				"y": 1.1854624885,
				"z": 3.7650557381,
				"element": "H" 
			},
			{
				"x": -1.3406860605,
				"y": -1.9339311449,
				"z": 2.2167167989,
				"element": "H" 
			},
			{
				"x": 0.283338086,
				"y": -1.3327911476,
				"z": 2.4735709304,
				"element": "H" 
			},
			{
				"x": -1.24072384,
				"y": -1.3318895581,
				"z": -0.1868604946,
				"element": "H" 
			},
			{
				"x": -0.1047293811,
				"y": -2.5787271265,
				"z": 0.3240414401,
				"element": "H" 
			},
			{
				"x": 1.5274638132,
				"y": -0.6873712727,
				"z": 0.4797791154,
				"element": "H" 
			},
			{
				"x": 1.4377223732,
				"y": -2.2627929662,
				"z": -1.4389118401,
				"element": "H" 
			},
			{
				"x": 2.1972257951,
				"y": -0.6858287229,
				"z": -1.6573403122,
				"element": "H" 
			},
			{
				"x": -0.6503334423,
				"y": -1.4448924413,
				"z": -2.506316162,
				"element": "H" 
			},
			{
				"x": 0.7717132825,
				"y": -1.4109490069,
				"z": -3.5224042958,
				"element": "H" 
			},
			{
				"x": -0.4389285742,
				"y": 0.5009315642,
				"z": -4.0615713969,
				"element": "H" 
			},
			{
				"x": -1.2883615607,
				"y": 2.2249916349,
				"z": -2.5069433896,
				"element": "H" 
			},
			{
				"x": -0.6742161345,
				"y": 1.2995095782,
				"z": -1.1202754989,
				"element": "H" 
			},
			{
				"x": -1.9768775091,
				"y": 0.6420927141,
				"z": -2.124442516,
				"element": "H" 
			},
			{
				"x": 1.0419509333,
				"y": 2.39008088,
				"z": -3.5805942978,
				"element": "H" 
			},
			{
				"x": 1.7179770883,
				"y": 1.5725007381,
				"z": -2.169589294,
				"element": "H" 
			},
			{
				"x": 2.0258380212,
				"y": 0.9358578849,
				"z": -3.7955199415,
				"element": "H" 
			}
		],
		 "valence_orbital": [ 
			{
				"type": "occ",
				"energy": -0.31344,
				"method": "rhf"
			},
			{
				"type": "occ",
				"energy": -0.31139,
				"method": "rhf"
			},
			{
				"type": "occ",
				"energy": -0.30582,
				"method": "rhf"
			},
			{
				"type": "occ",
				"energy": -0.30044,
				"method": "rhf"
			},
			{
				"type": "occ",
				"energy": -0.21595,
				"method": "rhf"
			},
			{
				"type": "unocc",
				"energy": 0.07498,
				"method": "rhf"
			},
			{
				"type": "unocc",
				"energy": 0.09134,
				"method": "rhf"
			},
			{
				"type": "unocc",
				"energy": 0.09664,
				"method": "rhf"
			},
			{
				"type": "unocc",
				"energy": 0.11749,
				"method": "rhf"
			},
			{
				"type": "unocc",
				"energy": 0.12706,
				"method": "rhf"
			}
		],
		"cosmo_sigma_profile": { 
			"-0.025": 0.0,
			"-0.024": 0.0,
			"-0.023": 0.0,
			"-0.022": 0.0,
			"-0.021": 0.0,
			"-0.02": 0.0,
			"-0.019": 0.0,
			"-0.018": 0.0,
			"-0.017": 0.0,
			"-0.016": 0.0,
			"-0.015": 0.0,
			"-0.014": 0.0,
			"-0.013": 0.0,
			"-0.012": 0.0,
			"-0.011": 0.0,
			"-0.01": 0.0,
			"-0.009": 0.521357201589,
			"-0.008": 0.994269553906,
			"-0.007": 1.53692706917,
			"-0.006": 1.16447169143,
			"-0.005": 1.80511521763,
			"-0.004": 1.94062390396,
			"-0.003": 5.96476520487,
			"-0.002": 30.9654638432,
			"-0.001": 56.3925845431,
			"0.0": 56.5043285314,
			"0.001": 45.0218402439,
			"0.002": 33.3124858013,
			"0.003": 9.44045706043,
			"0.004": 1.57937585295,
			"0.005": 1.59419705743,
			"0.006": 1.24042481017,
			"0.007": 1.11720362971,
			"0.008": 0.774899239345,
			"0.009": 0.651343202247,
			"0.01": 0.0128885573481,
			"0.011": 0.0,
			"0.012": 0.0,
			"0.013": 0.0,
			"0.014": 0.0,
			"0.015": 0.0,
			"0.016": 0.0,
			"0.017": 0.0,
			"0.018": 0.0,
			"0.019": 0.0,
			"0.02": 0.0,
			"0.021": 0.0,
			"0.022": 0.0,
			"0.023": 0.0,
			"0.024": 0.0,
			"0.025": 0.0
		}
	}
}
