{
	 "smiles": "COC1=C(Br)C=C(CCl)C=C1", 
	 "Tm": 321.15, 
	 "num_atms": 19, 
	 "gaussian": { 
		 "optdone": 1, 
		 "sigma_profile": "yes", 
		 "theory": "DFT", 
		 "functional": "B3LYP", 
		 "basiset": "6-31G**", 
		 "properties": { 
			 "R2extent": 4233.9684, 
			 "electric_dipole_moment_norm": 1.5070780869, 
			 "electric_quadrupole_moment_norm": 16.5309274906, 
			 "total_energy": -3416.47976415, 
			 "HOMO_LUMO_gap": 0.20863, 
			 "cosmo_polarized_energy": -8.28, 
			 "cosmo_cavitation_energy": 27.08, 
			 "cosmo_dispersion_energy": -19.91, 
			 "cosmo_repulsion_energy": 1.62, 
			 "cosmo_total_nonelectrostatic_energy": 8.8, 
			 "SMD_solvation_energy": 3.99 
		},
		"coords": [
			{
				"x": -0.5029617621,
				"y": 2.1659411473,
				"z": -3.5026153311,
				"element": "C" 
			},
			{
				"x": -1.0811492897,
				"y": 1.8316012066,
				"z": -2.2356983832,
				"element": "O" 
			},
			{
				"x": -0.3302612892,
				"y": 0.9910812399,
				"z": -1.4596093357,
				"element": "C" 
			},
			{
				"x": -0.4364895705,
				"y": -0.4041707391,
				"z": -1.5612144086,
				"element": "C" 
			},
			{
				"x": -1.6183748752,
				"y": -1.1759961652,
				"z": -2.8432373959,
				"element": "Br" 
			},
			{
				"x": 0.2959469622,
				"y": -1.2378245197,
				"z": -0.7204464418,
				"element": "C" 
			},
			{
				"x": 1.1532045882,
				"y": -0.6953085503,
				"z": 0.2441322075,
				"element": "C" 
			},
			{
				"x": 1.9370265858,
				"y": -1.5970361131,
				"z": 1.1488154937,
				"element": "C" 
			},
			{
				"x": 3.6033205514,
				"y": -1.9875505339,
				"z": 0.4780840845,
				"element": "Cl" 
			},
			{
				"x": 1.2586249861,
				"y": 0.6972138175,
				"z": 0.350987082,
				"element": "C" 
			},
			{
				"x": 0.5264190801,
				"y": 1.5274103901,
				"z": -0.4920050723,
				"element": "C" 
			},
			{
				"x": 0.4631619972,
				"y": 2.669606969,
				"z": -3.3730124481,
				"element": "H" 
			},
			{
				"x": -1.2054755267,
				"y": 2.8455019726,
				"z": -3.987864322,
				"element": "H" 
			},
			{
				"x": -0.3691202062,
				"y": 1.2752439007,
				"z": -4.1263168202,
				"element": "H" 
			},
			{
				"x": 0.1954873058,
				"y": -2.3135829624,
				"z": -0.8191456949,
				"element": "H" 
			},
			{
				"x": 1.4492145697,
				"y": -2.5615207497,
				"z": 1.2887800689,
				"element": "H" 
			},
			{
				"x": 2.1194833098,
				"y": -1.1396152146,
				"z": 2.1212364253,
				"element": "H" 
			},
			{
				"x": 1.9181962589,
				"y": 1.132116194,
				"z": 1.0966572104,
				"element": "H" 
			},
			{
				"x": 0.5892463243,
				"y": 2.6077887103,
				"z": -0.4090269185,
				"element": "H" 
			}
		],
		 "valence_orbital": [ 
			{
				"type": "occ",
				"energy": -0.29676,
				"method": "rhf"
			},
			{
				"type": "occ",
				"energy": -0.29016,
				"method": "rhf"
			},
			{
				"type": "occ",
				"energy": -0.28305,
				"method": "rhf"
			},
			{
				"type": "occ",
				"energy": -0.26116,
				"method": "rhf"
			},
			{
				"type": "occ",
				"energy": -0.24519,
				"method": "rhf"
			},
			{
				"type": "unocc",
				"energy": -0.03656,
				"method": "rhf"
			},
			{
				"type": "unocc",
				"energy": -0.02348,
				"method": "rhf"
			},
			{
				"type": "unocc",
				"energy": 0.0024,
				"method": "rhf"
			},
			{
				"type": "unocc",
				"energy": 0.03633,
				"method": "rhf"
			},
			{
				"type": "unocc",
				"energy": 0.08969,
				"method": "rhf"
			}
		],
		"cosmo_sigma_profile": { 
			"-0.025": 0.0,
			"-0.024": 0.0,
			"-0.023": 0.0,
			"-0.022": 0.0,
			"-0.021": 0.0,
			"-0.02": 0.0,
			"-0.019": 0.0,
			"-0.018": 0.0,
			"-0.017": 0.0,
			"-0.016": 0.0,
			"-0.015": 0.0,
			"-0.014": 0.0,
			"-0.013": 0.0,
			"-0.012": 0.0,
			"-0.011": 0.0,
			"-0.01": 0.0,
			"-0.009": 0.253338171576,
			"-0.008": 6.2231585519,
			"-0.007": 10.0230764646,
			"-0.006": 10.0431453381,
			"-0.005": 14.7471971451,
			"-0.004": 16.5042039838,
			"-0.003": 18.4041979042,
			"-0.002": 13.6704562853,
			"-0.001": 11.7905576058,
			"0.0": 11.1316797259,
			"0.001": 16.3751948871,
			"0.002": 21.2977993132,
			"0.003": 18.6408211192,
			"0.004": 16.274127688,
			"0.005": 10.5576890014,
			"0.006": 10.943738551,
			"0.007": 8.19539878256,
			"0.008": 1.32021040942,
			"0.009": 1.73438255438,
			"0.01": 1.41873297631,
			"0.011": 1.56775563202,
			"0.012": 0.128542873157,
			"0.013": 0.0,
			"0.014": 0.0,
			"0.015": 0.0,
			"0.016": 0.0,
			"0.017": 0.0,
			"0.018": 0.0,
			"0.019": 0.0,
			"0.02": 0.0,
			"0.021": 0.0,
			"0.022": 0.0,
			"0.023": 0.0,
			"0.024": 0.0,
			"0.025": 0.0
		}
	}
}
