{
	 "smiles": "COC1=CC=CC2=C(O)C3=CC=CC=C3N=C12", 
	 "Tm": 559.15, 
	 "num_atms": 28, 
	 "gaussian": { 
		 "optdone": 1, 
		 "sigma_profile": "yes", 
		 "theory": "DFT", 
		 "functional": "B3LYP", 
		 "basiset": "6-31G**", 
		 "properties": { 
			 "R2extent": 4099.1471, 
			 "electric_dipole_moment_norm": 3.21613126287, 
			 "electric_quadrupole_moment_norm": 12.46161874, 
			 "total_energy": -745.310849685, 
			 "HOMO_LUMO_gap": 0.12918, 
			 "cosmo_polarized_energy": -13.09, 
			 "cosmo_cavitation_energy": 31.33, 
			 "cosmo_dispersion_energy": -23.41, 
			 "cosmo_repulsion_energy": 1.77, 
			 "cosmo_total_nonelectrostatic_energy": 9.68, 
			 "SMD_solvation_energy": 5.25 
		},
		"coords": [
			{
				"x": 2.8980804983,
				"y": -1.9511706766,
				"z": -0.5070780285,
				"element": "C" 
			},
			{
				"x": 1.7368914466,
				"y": -2.694918461,
				"z": -0.8946827107,
				"element": "O" 
			},
			{
				"x": 0.6183433178,
				"y": -2.5745283721,
				"z": -0.1193985254,
				"element": "C" 
			},
			{
				"x": 0.0923103932,
				"y": -3.71912566,
				"z": 0.4339289308,
				"element": "C" 
			},
			{
				"x": -1.1091369167,
				"y": -3.6913972513,
				"z": 1.1892985799,
				"element": "C" 
			},
			{
				"x": -1.7771853628,
				"y": -2.5124835309,
				"z": 1.3973783271,
				"element": "C" 
			},
			{
				"x": -1.2700979773,
				"y": -1.3051186682,
				"z": 0.8353047695,
				"element": "C" 
			},
			{
				"x": -1.9276176272,
				"y": -0.0699352537,
				"z": 0.9961929664,
				"element": "C" 
			},
			{
				"x": -3.0622241961,
				"y": -0.0731642887,
				"z": 1.7386202116,
				"element": "O" 
			},
			{
				"x": -1.4092850873,
				"y": 1.0959643609,
				"z": 0.3973468579,
				"element": "C" 
			},
			{
				"x": -2.010461172,
				"y": 2.3862898105,
				"z": 0.5089325598,
				"element": "C" 
			},
			{
				"x": -1.4557977091,
				"y": 3.4779942484,
				"z": -0.1077959912,
				"element": "C" 
			},
			{
				"x": -0.2636673115,
				"y": 3.3394356042,
				"z": -0.8740911396,
				"element": "C" 
			},
			{
				"x": 0.3434253489,
				"y": 2.1180554153,
				"z": -1.0015801223,
				"element": "C" 
			},
			{
				"x": -0.1980157575,
				"y": 0.9522852176,
				"z": -0.373345022,
				"element": "C" 
			},
			{
				"x": 0.4486877974,
				"y": -0.2125892544,
				"z": -0.5339883855,
				"element": "N" 
			},
			{
				"x": -0.0586452622,
				"y": -1.3097503762,
				"z": 0.0519522833,
				"element": "C" 
			},
			{
				"x": 3.1978185718,
				"y": -2.2090083165,
				"z": 0.5173664478,
				"element": "H" 
			},
			{
				"x": 3.6882052602,
				"y": -2.2561284628,
				"z": -1.1965710863,
				"element": "H" 
			},
			{
				"x": 2.7229256931,
				"y": -0.8770100361,
				"z": -0.5855711163,
				"element": "H" 
			},
			{
				"x": 0.621905265,
				"y": -4.6522942528,
				"z": 0.2711049708,
				"element": "H" 
			},
			{
				"x": -1.4912500192,
				"y": -4.6171654167,
				"z": 1.6090929325,
				"element": "H" 
			},
			{
				"x": -2.6926412552,
				"y": -2.4780522034,
				"z": 1.9760507688,
				"element": "H" 
			},
			{
				"x": -3.4436957887,
				"y": 0.8131682593,
				"z": 1.765321283,
				"element": "H" 
			},
			{
				"x": -2.9209708373,
				"y": 2.526994226,
				"z": 1.0892559033,
				"element": "H" 
			},
			{
				"x": -1.9245629071,
				"y": 4.4526794303,
				"z": -0.013498279,
				"element": "H" 
			},
			{
				"x": 0.1623424211,
				"y": 4.2132669642,
				"z": -1.3584026347,
				"element": "H" 
			},
			{
				"x": 1.2514191739,
				"y": 1.9873069449,
				"z": -1.581044751,
				"element": "H" 
			}
		],
		 "valence_orbital": [ 
			{
				"type": "occ",
				"energy": -0.27473,
				"method": "rhf"
			},
			{
				"type": "occ",
				"energy": -0.2502,
				"method": "rhf"
			},
			{
				"type": "occ",
				"energy": -0.24665,
				"method": "rhf"
			},
			{
				"type": "occ",
				"energy": -0.24051,
				"method": "rhf"
			},
			{
				"type": "occ",
				"energy": -0.19647,
				"method": "rhf"
			},
			{
				"type": "unocc",
				"energy": -0.06729,
				"method": "rhf"
			},
			{
				"type": "unocc",
				"energy": -0.01888,
				"method": "rhf"
			},
			{
				"type": "unocc",
				"energy": 0.00413,
				"method": "rhf"
			},
			{
				"type": "unocc",
				"energy": 0.04089,
				"method": "rhf"
			},
			{
				"type": "unocc",
				"energy": 0.04572,
				"method": "rhf"
			}
		],
		"cosmo_sigma_profile": { 
			"-0.025": 0.0,
			"-0.024": 0.0,
			"-0.023": 0.0,
			"-0.022": 0.0,
			"-0.021": 0.0,
			"-0.02": 0.0,
			"-0.019": 0.209246717752,
			"-0.018": 1.26183628747,
			"-0.017": 0.725307092954,
			"-0.016": 0.97870566786,
			"-0.015": 1.27401875014,
			"-0.014": 0.958560353349,
			"-0.013": 1.00467092023,
			"-0.012": 1.09842956191,
			"-0.011": 0.932176120583,
			"-0.01": 0.670714759267,
			"-0.009": 0.983482056153,
			"-0.008": 1.58058049072,
			"-0.007": 2.51269346415,
			"-0.006": 10.4054226927,
			"-0.005": 16.6946214377,
			"-0.004": 18.0355016488,
			"-0.003": 16.559314519,
			"-0.002": 18.3646248479,
			"-0.001": 14.0480527156,
			"0.0": 16.7258835663,
			"0.001": 20.5875163379,
			"0.002": 24.2140569819,
			"0.003": 25.4980402675,
			"0.004": 22.5467112972,
			"0.005": 10.6494856035,
			"0.006": 5.67364275223,
			"0.007": 4.07866957908,
			"0.008": 2.89895522207,
			"0.009": 1.99922117673,
			"0.01": 2.37504627837,
			"0.011": 2.75582035733,
			"0.012": 2.29178417417,
			"0.013": 0.683474075243,
			"0.014": 0.340268242159,
			"0.015": 0.0,
			"0.016": 0.0,
			"0.017": 0.0,
			"0.018": 0.0,
			"0.019": 0.0,
			"0.02": 0.0,
			"0.021": 0.0,
			"0.022": 0.0,
			"0.023": 0.0,
			"0.024": 0.0,
			"0.025": 0.0
		}
	}
}
