{
	 "smiles": "CCS(=O)(=O)NC1=CC=C(N)C=C1", 
	 "Tm": 362.15, 
	 "num_atms": 25, 
	 "gaussian": { 
		 "optdone": 1, 
		 "sigma_profile": "yes", 
		 "theory": "DFT", 
		 "functional": "B3LYP", 
		 "basiset": "6-31G**", 
		 "properties": { 
			 "R2extent": 3866.1036, 
			 "electric_dipole_moment_norm": 2.97846216864, 
			 "electric_quadrupole_moment_norm": 26.8345419946, 
			 "total_energy": -970.16298764, 
			 "HOMO_LUMO_gap": 0.1956, 
			 "cosmo_polarized_energy": -19.81, 
			 "cosmo_cavitation_energy": 30.02, 
			 "cosmo_dispersion_energy": -21.82, 
			 "cosmo_repulsion_energy": 1.69, 
			 "cosmo_total_nonelectrostatic_energy": 9.89, 
			 "SMD_solvation_energy": 4.31 
		},
		"coords": [
			{
				"x": -3.0180145593,
				"y": 0.4964308713,
				"z": -2.4080992671,
				"element": "C" 
			},
			{
				"x": -2.4569761742,
				"y": 1.8845826724,
				"z": -2.6877764314,
				"element": "C" 
			},
			{
				"x": -1.1139343265,
				"y": 2.3662537596,
				"z": -1.567880154,
				"element": "S" 
			},
			{
				"x": -0.6750722726,
				"y": 3.7065319538,
				"z": -1.9806166212,
				"element": "O" 
			},
			{
				"x": -1.5254690362,
				"y": 2.0833685622,
				"z": -0.1916436835,
				"element": "O" 
			},
			{
				"x": 0.1200465217,
				"y": 1.2437926662,
				"z": -2.0046239448,
				"element": "N" 
			},
			{
				"x": 0.8677024182,
				"y": 0.5837379902,
				"z": -0.9733058686,
				"element": "C" 
			},
			{
				"x": 0.2988985243,
				"y": -0.4696673931,
				"z": -0.2502330471,
				"element": "C" 
			},
			{
				"x": 1.0330548632,
				"y": -1.1349646545,
				"z": 0.7243231183,
				"element": "C" 
			},
			{
				"x": 2.3685633301,
				"y": -0.7831869105,
				"z": 0.9890704233,
				"element": "C" 
			},
			{
				"x": 3.1257404278,
				"y": -1.4994891374,
				"z": 1.9187253469,
				"element": "N" 
			},
			{
				"x": 2.9385709846,
				"y": 0.2667175955,
				"z": 0.2501674088,
				"element": "C" 
			},
			{
				"x": 2.1909519724,
				"y": 0.949322348,
				"z": -0.7046196347,
				"element": "C" 
			},
			{
				"x": -2.2554612793,
				"y": -0.2708686408,
				"z": -2.5645950762,
				"element": "H" 
			},
			{
				"x": -3.3844932804,
				"y": 0.426607489,
				"z": -1.3812019936,
				"element": "H" 
			},
			{
				"x": -3.8515562113,
				"y": 0.2944188546,
				"z": -3.0876441172,
				"element": "H" 
			},
			{
				"x": -2.0508142692,
				"y": 1.9813781417,
				"z": -3.6982773979,
				"element": "H" 
			},
			{
				"x": -3.2052520625,
				"y": 2.6704007309,
				"z": -2.5453952482,
				"element": "H" 
			},
			{
				"x": 0.7255784647,
				"y": 1.7284814942,
				"z": -2.6628761737,
				"element": "H" 
			},
			{
				"x": -0.7267535092,
				"y": -0.7609576392,
				"z": -0.4474706351,
				"element": "H" 
			},
			{
				"x": 0.5740357372,
				"y": -1.948732421,
				"z": 1.2799887255,
				"element": "H" 
			},
			{
				"x": 3.9127569359,
				"y": -0.9969951671,
				"z": 2.3061390367,
				"element": "H" 
			},
			{
				"x": 2.5890837715,
				"y": -1.9629328079,
				"z": 2.6392283526,
				"element": "H" 
			},
			{
				"x": 3.9702677163,
				"y": 0.5557820099,
				"z": 0.4335883396,
				"element": "H" 
			},
			{
				"x": 2.6428453126,
				"y": 1.775987632,
				"z": -1.2472714574,
				"element": "H" 
			}
		],
		 "valence_orbital": [ 
			{
				"type": "occ",
				"energy": -0.30115,
				"method": "rhf"
			},
			{
				"type": "occ",
				"energy": -0.2942,
				"method": "rhf"
			},
			{
				"type": "occ",
				"energy": -0.27445,
				"method": "rhf"
			},
			{
				"type": "occ",
				"energy": -0.25077,
				"method": "rhf"
			},
			{
				"type": "occ",
				"energy": -0.1979,
				"method": "rhf"
			},
			{
				"type": "unocc",
				"energy": -0.0023,
				"method": "rhf"
			},
			{
				"type": "unocc",
				"energy": 0.00638,
				"method": "rhf"
			},
			{
				"type": "unocc",
				"energy": 0.06518,
				"method": "rhf"
			},
			{
				"type": "unocc",
				"energy": 0.07099,
				"method": "rhf"
			},
			{
				"type": "unocc",
				"energy": 0.08738,
				"method": "rhf"
			}
		],
		"cosmo_sigma_profile": { 
			"-0.025": 0.0,
			"-0.024": 0.0,
			"-0.023": 0.0,
			"-0.022": 0.0,
			"-0.021": 0.0,
			"-0.02": 0.0,
			"-0.019": 0.0,
			"-0.018": 0.0,
			"-0.017": 0.0,
			"-0.016": 0.0,
			"-0.015": 0.192486622319,
			"-0.014": 0.780600915938,
			"-0.013": 1.70563133596,
			"-0.012": 3.77903506025,
			"-0.011": 3.24902357289,
			"-0.01": 4.61798299029,
			"-0.009": 6.00453321788,
			"-0.008": 8.19211802532,
			"-0.007": 8.13909778365,
			"-0.006": 11.3978110935,
			"-0.005": 13.5277783584,
			"-0.004": 19.1676503285,
			"-0.003": 16.9061459433,
			"-0.002": 14.7414722759,
			"-0.001": 14.3218841405,
			"0.0": 11.3828277334,
			"0.001": 6.67220926027,
			"0.002": 7.80808870145,
			"0.003": 8.69405835411,
			"0.004": 9.58302655952,
			"0.005": 12.0612474032,
			"0.006": 11.2523168833,
			"0.007": 6.06265615822,
			"0.008": 5.08428450113,
			"0.009": 4.27486449488,
			"0.01": 6.37987613719,
			"0.011": 11.7079375673,
			"0.012": 7.61514942971,
			"0.013": 0.822875655138,
			"0.014": 0.591720825397,
			"0.015": 0.181863067365,
			"0.016": 0.0,
			"0.017": 0.0,
			"0.018": 0.0,
			"0.019": 0.0,
			"0.02": 0.0,
			"0.021": 0.0,
			"0.022": 0.0,
			"0.023": 0.0,
			"0.024": 0.0,
			"0.025": 0.0
		}
	}
}
