{
	 "smiles": "CCC(C)C1NC(CS1)C(O)=O", 
	 "Tm": 451.15, 
	 "num_atms": 27, 
	 "gaussian": { 
		 "optdone": 1, 
		 "sigma_profile": "yes", 
		 "theory": "DFT", 
		 "functional": "B3LYP", 
		 "basiset": "6-31G**", 
		 "properties": { 
			 "R2extent": 3074.6323, 
			 "electric_dipole_moment_norm": 2.12325055752, 
			 "electric_quadrupole_moment_norm": 11.2992830711, 
			 "total_energy": -917.295819906, 
			 "HOMO_LUMO_gap": 0.2121, 
			 "cosmo_polarized_energy": -13.59, 
			 "cosmo_cavitation_energy": 29.49, 
			 "cosmo_dispersion_energy": -21.51, 
			 "cosmo_repulsion_energy": 1.69, 
			 "cosmo_total_nonelectrostatic_energy": 9.67, 
			 "SMD_solvation_energy": 4.58 
		},
		"coords": [
			{
				"x": -0.4204679018,
				"y": -2.4003322043,
				"z": -0.1404753058,
				"element": "C" 
			},
			{
				"x": -0.1826412224,
				"y": -1.5584663475,
				"z": -1.3997916641,
				"element": "C" 
			},
			{
				"x": 0.8638646891,
				"y": -0.4200134075,
				"z": -1.2894361868,
				"element": "C" 
			},
			{
				"x": 1.3042896963,
				"y": 0.0093608817,
				"z": -2.6995820493,
				"element": "C" 
			},
			{
				"x": 0.3340346527,
				"y": 0.7881878586,
				"z": -0.503715017,
				"element": "C" 
			},
			{
				"x": 0.0228600377,
				"y": 0.5074153008,
				"z": 0.8807882203,
				"element": "N" 
			},
			{
				"x": -0.0421162278,
				"y": 1.7432954726,
				"z": 1.6423563216,
				"element": "C" 
			},
			{
				"x": 1.1758813494,
				"y": 2.6476452771,
				"z": 1.2650386174,
				"element": "C" 
			},
			{
				"x": 1.5803942272,
				"y": 2.2513591455,
				"z": -0.4799883272,
				"element": "S" 
			},
			{
				"x": -1.3629860259,
				"y": 2.4708373805,
				"z": 1.3965818769,
				"element": "C" 
			},
			{
				"x": -1.4964767865,
				"y": 3.5061872054,
				"z": 2.2619787736,
				"element": "O" 
			},
			{
				"x": -2.1957531722,
				"y": 2.2018551159,
				"z": 0.5634738946,
				"element": "O" 
			},
			{
				"x": -0.8637917461,
				"y": -1.8071964698,
				"z": 0.6617093992,
				"element": "H" 
			},
			{
				"x": 0.5181811,
				"y": -2.8327760795,
				"z": 0.2281739765,
				"element": "H" 
			},
			{
				"x": -1.0968751465,
				"y": -3.232966292,
				"z": -0.3611921475,
				"element": "H" 
			},
			{
				"x": 0.1510584488,
				"y": -2.2267087793,
				"z": -2.2040129594,
				"element": "H" 
			},
			{
				"x": -1.1341617907,
				"y": -1.1295846142,
				"z": -1.7413640319,
				"element": "H" 
			},
			{
				"x": 1.7490362074,
				"y": -0.8031314178,
				"z": -0.758066792,
				"element": "H" 
			},
			{
				"x": 2.0876758577,
				"y": 0.7718649527,
				"z": -2.6698587733,
				"element": "H" 
			},
			{
				"x": 0.45781354,
				"y": 0.4138778581,
				"z": -3.2668933862,
				"element": "H" 
			},
			{
				"x": 1.6959261131,
				"y": -0.8489975595,
				"z": -3.2540779455,
				"element": "H" 
			},
			{
				"x": -0.561662098,
				"y": 1.1829868965,
				"z": -0.9865114546,
				"element": "H" 
			},
			{
				"x": 0.7561228937,
				"y": -0.0767105037,
				"z": 1.2770388308,
				"element": "H" 
			},
			{
				"x": -0.0084209387,
				"y": 1.5141108562,
				"z": 2.7128171477,
				"element": "H" 
			},
			{
				"x": 0.946595302,
				"y": 3.7087631869,
				"z": 1.3765646723,
				"element": "H" 
			},
			{
				"x": 2.0278255712,
				"y": 2.408599829,
				"z": 1.9069052695,
				"element": "H" 
			},
			{
				"x": -2.3396066298,
				"y": 3.9370364577,
				"z": 2.0422390404,
				"element": "H" 
			}
		],
		 "valence_orbital": [ 
			{
				"type": "occ",
				"energy": -0.32253,
				"method": "rhf"
			},
			{
				"type": "occ",
				"energy": -0.30657,
				"method": "rhf"
			},
			{
				"type": "occ",
				"energy": -0.28185,
				"method": "rhf"
			},
			{
				"type": "occ",
				"energy": -0.24486,
				"method": "rhf"
			},
			{
				"type": "occ",
				"energy": -0.21621,
				"method": "rhf"
			},
			{
				"type": "unocc",
				"energy": -0.00411,
				"method": "rhf"
			},
			{
				"type": "unocc",
				"energy": 0.02904,
				"method": "rhf"
			},
			{
				"type": "unocc",
				"energy": 0.0615,
				"method": "rhf"
			},
			{
				"type": "unocc",
				"energy": 0.06979,
				"method": "rhf"
			},
			{
				"type": "unocc",
				"energy": 0.08603,
				"method": "rhf"
			}
		],
		"cosmo_sigma_profile": { 
			"-0.025": 0.0,
			"-0.024": 0.0,
			"-0.023": 0.0,
			"-0.022": 0.0,
			"-0.021": 0.0,
			"-0.02": 0.0,
			"-0.019": 0.182910076106,
			"-0.018": 0.740523968966,
			"-0.017": 1.11930618993,
			"-0.016": 0.753283457915,
			"-0.015": 1.05783727596,
			"-0.014": 0.557647645513,
			"-0.013": 0.399748392611,
			"-0.012": 0.825283919416,
			"-0.011": 2.776883452,
			"-0.01": 2.11428545059,
			"-0.009": 2.06614109749,
			"-0.008": 5.11646202207,
			"-0.007": 5.16608627968,
			"-0.006": 6.2639657605,
			"-0.005": 6.50339411023,
			"-0.004": 8.65688182921,
			"-0.003": 20.338101006,
			"-0.002": 25.3562894887,
			"-0.001": 21.2548256221,
			"0.0": 24.3084617489,
			"0.001": 23.720496836,
			"0.002": 14.2674549747,
			"0.003": 6.68698149468,
			"0.004": 6.30132888654,
			"0.005": 5.54784143077,
			"0.006": 6.07307226726,
			"0.007": 5.38009635653,
			"0.008": 5.68179789909,
			"0.009": 5.57959302595,
			"0.01": 4.78254686992,
			"0.011": 6.37019994305,
			"0.012": 3.75770786211,
			"0.013": 0.656552690534,
			"0.014": 0.310981683963,
			"0.015": 0.0,
			"0.016": 0.0,
			"0.017": 0.0,
			"0.018": 0.0,
			"0.019": 0.0,
			"0.02": 0.0,
			"0.021": 0.0,
			"0.022": 0.0,
			"0.023": 0.0,
			"0.024": 0.0,
			"0.025": 0.0
		}
	}
}
