{
	 "smiles": "CCCC(=O)C1=CC=CC=C1", 
	 "Tm": 285.15, 
	 "num_atms": 23, 
	 "gaussian": { 
		 "optdone": 1, 
		 "sigma_profile": "yes", 
		 "theory": "DFT", 
		 "functional": "B3LYP", 
		 "basiset": "6-31G**", 
		 "properties": { 
			 "R2extent": 2757.3512, 
			 "electric_dipole_moment_norm": 2.77045432556, 
			 "electric_quadrupole_moment_norm": 5.63325113766, 
			 "total_energy": -463.531988076, 
			 "HOMO_LUMO_gap": 0.19231, 
			 "cosmo_polarized_energy": -7.31, 
			 "cosmo_cavitation_energy": 26.02, 
			 "cosmo_dispersion_energy": -19.02, 
			 "cosmo_repulsion_energy": 1.53, 
			 "cosmo_total_nonelectrostatic_energy": 8.53, 
			 "SMD_solvation_energy": 4.8 
		},
		"coords": [
			{
				"x": 1.1023090934,
				"y": 3.6396321084,
				"z": 0.4801109703,
				"element": "C" 
			},
			{
				"x": 1.7070770258,
				"y": 2.3724418633,
				"z": 1.0943914933,
				"element": "C" 
			},
			{
				"x": 1.8775074597,
				"y": 1.2253520404,
				"z": 0.0916688431,
				"element": "C" 
			},
			{
				"x": 0.565593524,
				"y": 0.561989332,
				"z": -0.3208101759,
				"element": "C" 
			},
			{
				"x": -0.4910010344,
				"y": 0.8733757466,
				"z": 0.2106393168,
				"element": "O" 
			},
			{
				"x": 0.5935028821,
				"y": -0.5021037194,
				"z": -1.3808009897,
				"element": "C" 
			},
			{
				"x": -0.6255439238,
				"y": -1.0914212867,
				"z": -1.7531551915,
				"element": "C" 
			},
			{
				"x": -0.6629655906,
				"y": -2.0843553817,
				"z": -2.7271138433,
				"element": "C" 
			},
			{
				"x": 0.5202783687,
				"y": -2.5048906926,
				"z": -3.3422953189,
				"element": "C" 
			},
			{
				"x": 1.7383919283,
				"y": -1.9278627671,
				"z": -2.9785902878,
				"element": "C" 
			},
			{
				"x": 1.7758788756,
				"y": -0.9308629665,
				"z": -2.0035750017,
				"element": "C" 
			},
			{
				"x": 0.1008519543,
				"y": 3.4428014948,
				"z": 0.0891918509,
				"element": "H" 
			},
			{
				"x": 1.7232825238,
				"y": 4.0180274989,
				"z": -0.3408822581,
				"element": "H" 
			},
			{
				"x": 1.0209746723,
				"y": 4.4360207823,
				"z": 1.2270262074,
				"element": "H" 
			},
			{
				"x": 1.0735630352,
				"y": 2.0278025543,
				"z": 1.918245419,
				"element": "H" 
			},
			{
				"x": 2.689872499,
				"y": 2.605084069,
				"z": 1.5219247792,
				"element": "H" 
			},
			{
				"x": 2.520150961,
				"y": 0.4392024626,
				"z": 0.5135303893,
				"element": "H" 
			},
			{
				"x": 2.3982761629,
				"y": 1.5761917216,
				"z": -0.8097015395,
				"element": "H" 
			},
			{
				"x": -1.5290619767,
				"y": -0.7492210097,
				"z": -1.2597577648,
				"element": "H" 
			},
			{
				"x": -1.6113507982,
				"y": -2.5326964511,
				"z": -3.0088872443,
				"element": "H" 
			},
			{
				"x": 0.492501434,
				"y": -3.2802799271,
				"z": -4.1027124921,
				"element": "H" 
			},
			{
				"x": 2.6589438647,
				"y": -2.2536559333,
				"z": -3.454055367,
				"element": "H" 
			},
			{
				"x": 2.730367059,
				"y": -0.4928715388,
				"z": -1.7309917943,
				"element": "H" 
			}
		],
		 "valence_orbital": [ 
			{
				"type": "occ",
				"energy": -0.33336,
				"method": "rhf"
			},
			{
				"type": "occ",
				"energy": -0.32987,
				"method": "rhf"
			},
			{
				"type": "occ",
				"energy": -0.26068,
				"method": "rhf"
			},
			{
				"type": "occ",
				"energy": -0.2573,
				"method": "rhf"
			},
			{
				"type": "occ",
				"energy": -0.24644,
				"method": "rhf"
			},
			{
				"type": "unocc",
				"energy": -0.05413,
				"method": "rhf"
			},
			{
				"type": "unocc",
				"energy": -0.00903,
				"method": "rhf"
			},
			{
				"type": "unocc",
				"energy": 0.04041,
				"method": "rhf"
			},
			{
				"type": "unocc",
				"energy": 0.08671,
				"method": "rhf"
			},
			{
				"type": "unocc",
				"energy": 0.1002,
				"method": "rhf"
			}
		],
		"cosmo_sigma_profile": { 
			"-0.025": 0.0,
			"-0.024": 0.0,
			"-0.023": 0.0,
			"-0.022": 0.0,
			"-0.021": 0.0,
			"-0.02": 0.0,
			"-0.019": 0.0,
			"-0.018": 0.0,
			"-0.017": 0.0,
			"-0.016": 0.0,
			"-0.015": 0.0,
			"-0.014": 0.0,
			"-0.013": 0.0,
			"-0.012": 0.0,
			"-0.011": 0.0,
			"-0.01": 0.0,
			"-0.009": 0.0,
			"-0.008": 0.0,
			"-0.007": 1.33940719468,
			"-0.006": 10.4380138359,
			"-0.005": 16.2185634499,
			"-0.004": 16.1356406894,
			"-0.003": 16.251660752,
			"-0.002": 19.6028929789,
			"-0.001": 20.32269109,
			"0.0": 21.9803486788,
			"0.001": 18.871359043,
			"0.002": 16.3451918078,
			"0.003": 11.834621058,
			"0.004": 14.2600833364,
			"0.005": 6.08037657158,
			"0.006": 2.39167428395,
			"0.007": 1.25444094294,
			"0.008": 1.47309807172,
			"0.009": 2.48820265084,
			"0.01": 1.52294149408,
			"0.011": 2.60767321414,
			"0.012": 3.40570254614,
			"0.013": 0.773671688618,
			"0.014": 0.0,
			"0.015": 0.0,
			"0.016": 0.0,
			"0.017": 0.0,
			"0.018": 0.0,
			"0.019": 0.0,
			"0.02": 0.0,
			"0.021": 0.0,
			"0.022": 0.0,
			"0.023": 0.0,
			"0.024": 0.0,
			"0.025": 0.0
		}
	}
}
