{
	 "smiles": "CCCCCCCCCCCCCCCC(=O)OC1=CC=C(C=C1)N=CC1=CC=CN=C1", 
	 "Tm": 360.75, 
	 "num_atms": 72, 
	 "gaussian": { 
		 "optdone": 1, 
		 "sigma_profile": "yes", 
		 "theory": "DFT", 
		 "functional": "B3LYP", 
		 "basiset": "6-31G**", 
		 "properties": { 
			 "R2extent": 33445.4061, 
			 "electric_dipole_moment_norm": 1.82462618911, 
			 "electric_quadrupole_moment_norm": 16.6677799137, 
			 "total_energy": -1351.0775476, 
			 "HOMO_LUMO_gap": 0.1517, 
			 "cosmo_polarized_energy": -13.61, 
			 "cosmo_cavitation_energy": 73.79, 
			 "cosmo_dispersion_energy": -48.48, 
			 "cosmo_repulsion_energy": 3.8, 
			 "cosmo_total_nonelectrostatic_energy": 29.1, 
			 "SMD_solvation_energy": 8.84 
		},
		"coords": [
			{
				"x": -2.9808349296,
				"y": -4.0050259323,
				"z": 7.0170426918,
				"element": "C" 
			},
			{
				"x": -2.8681540446,
				"y": -4.145838343,
				"z": 5.4956394311,
				"element": "C" 
			},
			{
				"x": -1.42005538,
				"y": -4.1203887263,
				"z": 4.9900426203,
				"element": "C" 
			},
			{
				"x": -1.2970562087,
				"y": -4.2623600051,
				"z": 3.4674583079,
				"element": "C" 
			},
			{
				"x": 0.155807162,
				"y": -4.2366160548,
				"z": 2.971502622,
				"element": "C" 
			},
			{
				"x": 0.3266732425,
				"y": -4.4527560674,
				"z": 1.4586620201,
				"element": "C" 
			},
			{
				"x": -0.241711195,
				"y": -3.3308065273,
				"z": 0.5774769157,
				"element": "C" 
			},
			{
				"x": 0.03984313,
				"y": -3.5484006919,
				"z": -0.9178057496,
				"element": "C" 
			},
			{
				"x": -0.4536151814,
				"y": -2.4337962683,
				"z": -1.8663211601,
				"element": "C" 
			},
			{
				"x": -1.8871761314,
				"y": -2.5847612817,
				"z": -2.4125851205,
				"element": "C" 
			},
			{
				"x": -3.0476550342,
				"y": -2.4839452845,
				"z": -1.4052494447,
				"element": "C" 
			},
			{
				"x": -3.1689813141,
				"y": -1.1480609412,
				"z": -0.6503731194,
				"element": "C" 
			},
			{
				"x": -3.4509431761,
				"y": 0.0615953159,
				"z": -1.5547609477,
				"element": "C" 
			},
			{
				"x": -3.7263603398,
				"y": 1.3721848949,
				"z": -0.7975063756,
				"element": "C" 
			},
			{
				"x": -2.5295418845,
				"y": 1.9341128369,
				"z": -0.0200296022,
				"element": "C" 
			},
			{
				"x": -1.4243832155,
				"y": 2.4580394503,
				"z": -0.9153064541,
				"element": "C" 
			},
			{
				"x": -1.5128061131,
				"y": 2.6840508287,
				"z": -2.0982519309,
				"element": "O" 
			},
			{
				"x": -0.2919035361,
				"y": 2.6679496533,
				"z": -0.1712866848,
				"element": "O" 
			},
			{
				"x": 0.8708539481,
				"y": 3.1901236848,
				"z": -0.7375942184,
				"element": "C" 
			},
			{
				"x": 2.0659226492,
				"y": 2.6394672894,
				"z": -0.27535793,
				"element": "C" 
			},
			{
				"x": 3.2823300816,
				"y": 3.143400709,
				"z": -0.7262964586,
				"element": "C" 
			},
			{
				"x": 3.3143352329,
				"y": 4.2080992165,
				"z": -1.6446620407,
				"element": "C" 
			},
			{
				"x": 2.0981260161,
				"y": 4.7712710398,
				"z": -2.0654978836,
				"element": "C" 
			},
			{
				"x": 0.877607579,
				"y": 4.2633101547,
				"z": -1.6321522517,
				"element": "C" 
			},
			{
				"x": 4.4996746487,
				"y": 4.7838309852,
				"z": -2.1327781364,
				"element": "N" 
			},
			{
				"x": 5.5308863483,
				"y": 4.0564237979,
				"z": -2.3548830316,
				"element": "C" 
			},
			{
				"x": 6.8028877533,
				"y": 4.6268981624,
				"z": -2.8083543955,
				"element": "C" 
			},
			{
				"x": 6.9803688374,
				"y": 6.0053136972,
				"z": -3.0095577438,
				"element": "C" 
			},
			{
				"x": 8.2178273397,
				"y": 6.4623442759,
				"z": -3.4421869913,
				"element": "C" 
			},
			{
				"x": 9.2404721774,
				"y": 5.5311571711,
				"z": -3.6582506531,
				"element": "C" 
			},
			{
				"x": 9.0954778561,
				"y": 4.2135231868,
				"z": -3.4721447182,
				"element": "N" 
			},
			{
				"x": 7.8988315963,
				"y": 3.7867998927,
				"z": -3.0574887475,
				"element": "C" 
			},
			{
				"x": -2.4538368572,
				"y": -4.8175917534,
				"z": 7.5302728696,
				"element": "H" 
			},
			{
				"x": -2.5434730393,
				"y": -3.0606811021,
				"z": 7.361136791,
				"element": "H" 
			},
			{
				"x": -4.0250326442,
				"y": -4.026697052,
				"z": 7.3460596769,
				"element": "H" 
			},
			{
				"x": -3.434773011,
				"y": -3.339248037,
				"z": 5.0103742324,
				"element": "H" 
			},
			{
				"x": -3.3452482117,
				"y": -5.0832181441,
				"z": 5.1783515832,
				"element": "H" 
			},
			{
				"x": -0.9428127392,
				"y": -3.1818211065,
				"z": 5.3073306466,
				"element": "H" 
			},
			{
				"x": -0.8524287575,
				"y": -4.9263637198,
				"z": 5.4772670181,
				"element": "H" 
			},
			{
				"x": -1.7689085041,
				"y": -5.2043409522,
				"z": 3.151736182,
				"element": "H" 
			},
			{
				"x": -1.8720457547,
				"y": -3.4596347662,
				"z": 2.9869913648,
				"element": "H" 
			},
			{
				"x": 0.6187282628,
				"y": -3.2802710848,
				"z": 3.2552049845,
				"element": "H" 
			},
			{
				"x": 0.7213719719,
				"y": -5.013826664,
				"z": 3.5034571913,
				"element": "H" 
			},
			{
				"x": -0.1394459297,
				"y": -5.4074798549,
				"z": 1.1749133571,
				"element": "H" 
			},
			{
				"x": 1.3972349222,
				"y": -4.5637733499,
				"z": 1.2377453326,
				"element": "H" 
			},
			{
				"x": -1.3195411395,
				"y": -3.2364520738,
				"z": 0.7484691435,
				"element": "H" 
			},
			{
				"x": 0.200763363,
				"y": -2.372445212,
				"z": 0.8873908515,
				"element": "H" 
			},
			{
				"x": 1.1263916708,
				"y": -3.6548360928,
				"z": -1.0391247807,
				"element": "H" 
			},
			{
				"x": -0.3877191627,
				"y": -4.5107370423,
				"z": -1.2347466865,
				"element": "H" 
			},
			{
				"x": -0.3337149117,
				"y": -1.4577539314,
				"z": -1.3765141067,
				"element": "H" 
			},
			{
				"x": 0.2136261454,
				"y": -2.4040183192,
				"z": -2.7367961196,
				"element": "H" 
			},
			{
				"x": -1.9597582641,
				"y": -3.5571141579,
				"z": -2.9190075632,
				"element": "H" 
			},
			{
				"x": -2.0325575729,
				"y": -1.8327633241,
				"z": -3.1985391829,
				"element": "H" 
			},
			{
				"x": -2.9716899065,
				"y": -3.2992790209,
				"z": -0.675435463,
				"element": "H" 
			},
			{
				"x": -3.9856142967,
				"y": -2.6620485759,
				"z": -1.9495399616,
				"element": "H" 
			},
			{
				"x": -3.9832105568,
				"y": -1.2382741069,
				"z": 0.0824829551,
				"element": "H" 
			},
			{
				"x": -2.2573676538,
				"y": -0.976767063,
				"z": -0.0638429847,
				"element": "H" 
			},
			{
				"x": -2.620652936,
				"y": 0.2238605195,
				"z": -2.2511032335,
				"element": "H" 
			},
			{
				"x": -4.327472104,
				"y": -0.1632418429,
				"z": -2.1773372757,
				"element": "H" 
			},
			{
				"x": -4.5508649655,
				"y": 1.2174522716,
				"z": -0.0899918855,
				"element": "H" 
			},
			{
				"x": -4.0593669747,
				"y": 2.1331874264,
				"z": -1.511042508,
				"element": "H" 
			},
			{
				"x": -2.0989740334,
				"y": 1.2021957054,
				"z": 0.6706612246,
				"element": "H" 
			},
			{
				"x": -2.8447005172,
				"y": 2.7779067501,
				"z": 0.6088217687,
				"element": "H" 
			},
			{
				"x": 2.0280092131,
				"y": 1.829656928,
				"z": 0.4458850371,
				"element": "H" 
			},
			{
				"x": 4.2094968252,
				"y": 2.7338215115,
				"z": -0.3377254719,
				"element": "H" 
			},
			{
				"x": 2.1302497772,
				"y": 5.6101076181,
				"z": -2.7530660983,
				"element": "H" 
			},
			{
				"x": -0.0520527927,
				"y": 4.6909003402,
				"z": -1.9826912587,
				"element": "H" 
			},
			{
				"x": 5.5150662959,
				"y": 2.9634531165,
				"z": -2.2310909904,
				"element": "H" 
			},
			{
				"x": 6.148525917,
				"y": 6.677001185,
				"z": -2.8239780073,
				"element": "H" 
			},
			{
				"x": 8.3982169593,
				"y": 7.5193989115,
				"z": -3.6111835535,
				"element": "H" 
			},
			{
				"x": 10.2210238158,
				"y": 5.8616442523,
				"z": -3.9965469914,
				"element": "H" 
			},
			{
				"x": 7.7974101825,
				"y": 2.7110516942,
				"z": -2.9115909065,
				"element": "H" 
			}
		],
		 "valence_orbital": [ 
			{
				"type": "occ",
				"energy": -0.27908,
				"method": "rhf"
			},
			{
				"type": "occ",
				"energy": -0.26376,
				"method": "rhf"
			},
			{
				"type": "occ",
				"energy": -0.25962,
				"method": "rhf"
			},
			{
				"type": "occ",
				"energy": -0.25775,
				"method": "rhf"
			},
			{
				"type": "occ",
				"energy": -0.22119,
				"method": "rhf"
			},
			{
				"type": "unocc",
				"energy": -0.06949,
				"method": "rhf"
			},
			{
				"type": "unocc",
				"energy": -0.02582,
				"method": "rhf"
			},
			{
				"type": "unocc",
				"energy": -0.00911,
				"method": "rhf"
			},
			{
				"type": "unocc",
				"energy": -0.00819,
				"method": "rhf"
			},
			{
				"type": "unocc",
				"energy": 0.01523,
				"method": "rhf"
			}
		],
		"cosmo_sigma_profile": { 
			"-0.025": 0.0,
			"-0.024": 0.0,
			"-0.023": 0.0,
			"-0.022": 0.0,
			"-0.021": 0.0,
			"-0.02": 0.0,
			"-0.019": 0.0,
			"-0.018": 0.0,
			"-0.017": 0.0,
			"-0.016": 0.0,
			"-0.015": 0.0,
			"-0.014": 0.0,
			"-0.013": 0.0,
			"-0.012": 0.0,
			"-0.011": 0.0,
			"-0.01": 0.0,
			"-0.009": 0.0939344602181,
			"-0.008": 2.21778956248,
			"-0.007": 12.0585636066,
			"-0.006": 19.0483092541,
			"-0.005": 21.4266205273,
			"-0.004": 20.4315843348,
			"-0.003": 24.4132049619,
			"-0.002": 56.5121781284,
			"-0.001": 97.1957961252,
			"0.0": 99.5453614766,
			"0.001": 90.0929336361,
			"0.002": 51.9795337901,
			"0.003": 19.0680310087,
			"0.004": 18.1601670336,
			"0.005": 8.38744354483,
			"0.006": 6.01406739245,
			"0.007": 6.43213380564,
			"0.008": 4.06235374236,
			"0.009": 3.72943690362,
			"0.01": 4.30456637481,
			"0.011": 5.0801531146,
			"0.012": 2.6806766614,
			"0.013": 0.91546616256,
			"0.014": 0.29727201995,
			"0.015": 1.33118842089,
			"0.016": 0.553163030612,
			"0.017": 0.0785188531421,
			"0.018": 0.0,
			"0.019": 0.0,
			"0.02": 0.0,
			"0.021": 0.0,
			"0.022": 0.0,
			"0.023": 0.0,
			"0.024": 0.0,
			"0.025": 0.0
		}
	}
}
