{
	 "smiles": "NC(=S)NC1CCCCC1", 
	 "Tm": 435.15, 
	 "num_atms": 24, 
	 "gaussian": { 
		 "optdone": 1, 
		 "sigma_profile": "yes", 
		 "theory": "DFT", 
		 "functional": "B3LYP", 
		 "basiset": "6-31G**", 
		 "properties": { 
			 "R2extent": 2163.034, 
			 "electric_dipole_moment_norm": 6.10560012529, 
			 "electric_quadrupole_moment_norm": 18.7115569622, 
			 "total_energy": -782.898918183, 
			 "HOMO_LUMO_gap": 0.2056, 
			 "cosmo_polarized_energy": -17.82, 
			 "cosmo_cavitation_energy": 26.2, 
			 "cosmo_dispersion_energy": -19.81, 
			 "cosmo_repulsion_energy": 1.58, 
			 "cosmo_total_nonelectrostatic_energy": 7.97, 
			 "SMD_solvation_energy": 2.43 
		},
		"coords": [
			{
				"x": 0.2511814934,
				"y": 2.9820727351,
				"z": 0.6178087352,
				"element": "N" 
			},
			{
				"x": 0.7774398394,
				"y": 1.8513702,
				"z": 1.1688062059,
				"element": "C" 
			},
			{
				"x": 1.2218455435,
				"y": 1.7872643558,
				"z": 2.7953182274,
				"element": "S" 
			},
			{
				"x": 0.9048761316,
				"y": 0.776324319,
				"z": 0.3516852288,
				"element": "N" 
			},
			{
				"x": 0.5000390438,
				"y": 0.665153639,
				"z": -1.0537075678,
				"element": "C" 
			},
			{
				"x": 1.1541162615,
				"y": -0.5856963525,
				"z": -1.6606216448,
				"element": "C" 
			},
			{
				"x": 0.6661148281,
				"y": -1.8968043832,
				"z": -0.9952140217,
				"element": "C" 
			},
			{
				"x": -0.8012010918,
				"y": -1.8061014433,
				"z": -0.5103208198,
				"element": "C" 
			},
			{
				"x": -1.6027953796,
				"y": -0.8186628982,
				"z": -1.3681626901,
				"element": "C" 
			},
			{
				"x": -1.0478121901,
				"y": 0.6181348463,
				"z": -1.2439084016,
				"element": "C" 
			},
			{
				"x": 0.2928714773,
				"y": 3.8084501803,
				"z": 1.1927756149,
				"element": "H" 
			},
			{
				"x": 0.1905280507,
				"y": 3.1079882894,
				"z": -0.3815659822,
				"element": "H" 
			},
			{
				"x": 1.2760593907,
				"y": -0.0385966173,
				"z": 0.8175046177,
				"element": "H" 
			},
			{
				"x": 0.8987885738,
				"y": 1.5423321797,
				"z": -1.5829827688,
				"element": "H" 
			},
			{
				"x": 0.8975077195,
				"y": -0.5954561935,
				"z": -2.7256423769,
				"element": "H" 
			},
			{
				"x": 2.2449038079,
				"y": -0.5049144258,
				"z": -1.6041561704,
				"element": "H" 
			},
			{
				"x": 1.3185314464,
				"y": -2.1672788327,
				"z": -0.1562916038,
				"element": "H" 
			},
			{
				"x": 0.7717771999,
				"y": -2.7096878649,
				"z": -1.7223228912,
				"element": "H" 
			},
			{
				"x": -1.2640102266,
				"y": -2.7984185948,
				"z": -0.5294252891,
				"element": "H" 
			},
			{
				"x": -0.8323138228,
				"y": -1.4720037909,
				"z": 0.5339599761,
				"element": "H" 
			},
			{
				"x": -1.5666859688,
				"y": -1.1435091767,
				"z": -2.4164514479,
				"element": "H" 
			},
			{
				"x": -2.6599627219,
				"y": -0.8294462284,
				"z": -1.0823829611,
				"element": "H" 
			},
			{
				"x": -1.5154731364,
				"y": 1.1295138719,
				"z": -0.396891439,
				"element": "H" 
			},
			{
				"x": -1.3142262695,
				"y": 1.190672186,
				"z": -2.1408105298,
				"element": "H" 
			}
		],
		 "valence_orbital": [ 
			{
				"type": "occ",
				"energy": -0.32184,
				"method": "rhf"
			},
			{
				"type": "occ",
				"energy": -0.31594,
				"method": "rhf"
			},
			{
				"type": "occ",
				"energy": -0.26707,
				"method": "rhf"
			},
			{
				"type": "occ",
				"energy": -0.20057,
				"method": "rhf"
			},
			{
				"type": "occ",
				"energy": -0.19503,
				"method": "rhf"
			},
			{
				"type": "unocc",
				"energy": 0.01057,
				"method": "rhf"
			},
			{
				"type": "unocc",
				"energy": 0.05012,
				"method": "rhf"
			},
			{
				"type": "unocc",
				"energy": 0.06602,
				"method": "rhf"
			},
			{
				"type": "unocc",
				"energy": 0.07889,
				"method": "rhf"
			},
			{
				"type": "unocc",
				"energy": 0.10254,
				"method": "rhf"
			}
		],
		"cosmo_sigma_profile": { 
			"-0.025": 0.0,
			"-0.024": 0.0,
			"-0.023": 0.0,
			"-0.022": 0.0,
			"-0.021": 0.0,
			"-0.02": 0.0,
			"-0.019": 0.0,
			"-0.018": 0.0,
			"-0.017": 0.0,
			"-0.016": 0.0,
			"-0.015": 0.350548691407,
			"-0.014": 1.75814378627,
			"-0.013": 2.51257085817,
			"-0.012": 2.66535890592,
			"-0.011": 2.85857702027,
			"-0.01": 3.54875255774,
			"-0.009": 3.21125734828,
			"-0.008": 2.69928961276,
			"-0.007": 3.69002058751,
			"-0.006": 3.74346557723,
			"-0.005": 4.1258491283,
			"-0.004": 8.98005300582,
			"-0.003": 20.792982338,
			"-0.002": 26.7456530502,
			"-0.001": 26.1769919779,
			"0.0": 24.5846372741,
			"0.001": 15.2872035457,
			"0.002": 3.59257477436,
			"0.003": 3.17931540869,
			"0.004": 2.49465671713,
			"0.005": 4.19033311367,
			"0.006": 4.41828375829,
			"0.007": 3.41102499718,
			"0.008": 3.43717878605,
			"0.009": 2.78598744363,
			"0.01": 4.69176697934,
			"0.011": 4.15988505711,
			"0.012": 7.75948357715,
			"0.013": 7.25627704275,
			"0.014": 0.60508141108,
			"0.015": 0.0,
			"0.016": 0.0,
			"0.017": 0.0,
			"0.018": 0.0,
			"0.019": 0.0,
			"0.02": 0.0,
			"0.021": 0.0,
			"0.022": 0.0,
			"0.023": 0.0,
			"0.024": 0.0,
			"0.025": 0.0
		}
	}
}
