{
	 "smiles": "CCCCCCCCCCCCC(=O)OC", 
	 "Tm": 279.65, 
	 "num_atms": 44, 
	 "gaussian": { 
		 "optdone": 1, 
		 "sigma_profile": "yes", 
		 "theory": "DFT", 
		 "functional": "B3LYP", 
		 "basiset": "6-31G**", 
		 "properties": { 
			 "R2extent": 7802.0096, 
			 "electric_dipole_moment_norm": 1.81548308998, 
			 "electric_quadrupole_moment_norm": 9.29279287136, 
			 "total_energy": -700.85467978, 
			 "HOMO_LUMO_gap": 0.27736, 
			 "cosmo_polarized_energy": -6.69, 
			 "cosmo_cavitation_energy": 44.35, 
			 "cosmo_dispersion_energy": -29.83, 
			 "cosmo_repulsion_energy": 2.45, 
			 "cosmo_total_nonelectrostatic_energy": 16.97, 
			 "SMD_solvation_energy": 7.74 
		},
		"coords": [
			{
				"x": 4.3433365671,
				"y": 0.4030870468,
				"z": -3.1568579356,
				"element": "C" 
			},
			{
				"x": 3.6393451971,
				"y": 1.3923204576,
				"z": -2.2219614487,
				"element": "C" 
			},
			{
				"x": 2.4243627331,
				"y": 2.0681410686,
				"z": -2.8726865027,
				"element": "C" 
			},
			{
				"x": 1.7408430886,
				"y": 3.1391914281,
				"z": -2.0040722026,
				"element": "C" 
			},
			{
				"x": 1.1220334646,
				"y": 2.6443759172,
				"z": -0.6841701446,
				"element": "C" 
			},
			{
				"x": -0.0316351459,
				"y": 1.6455774785,
				"z": -0.863085539,
				"element": "C" 
			},
			{
				"x": -0.7636413899,
				"y": 1.2740783099,
				"z": 0.4386030225,
				"element": "C" 
			},
			{
				"x": 0.0835364534,
				"y": 0.47478023,
				"z": 1.4398687748,
				"element": "C" 
			},
			{
				"x": -0.6395627094,
				"y": 0.1224365443,
				"z": 2.7521938216,
				"element": "C" 
			},
			{
				"x": -1.8819674651,
				"y": -0.7864759049,
				"z": 2.6699876565,
				"element": "C" 
			},
			{
				"x": -1.638987105,
				"y": -2.2368853309,
				"z": 2.2013369033,
				"element": "C" 
			},
			{
				"x": -1.7134688302,
				"y": -2.4428610909,
				"z": 0.6731008124,
				"element": "C" 
			},
			{
				"x": -1.4906711889,
				"y": -3.8858305385,
				"z": 0.2695522724,
				"element": "C" 
			},
			{
				"x": -0.5529691018,
				"y": -4.3028647674,
				"z": -0.3758241568,
				"element": "O" 
			},
			{
				"x": -2.482377945,
				"y": -4.6840213655,
				"z": 0.735417438,
				"element": "O" 
			},
			{
				"x": -2.3463368169,
				"y": -6.0784503703,
				"z": 0.4205159743,
				"element": "C" 
			},
			{
				"x": 5.2059628315,
				"y": -0.0645821536,
				"z": -2.6708605669,
				"element": "H" 
			},
			{
				"x": 3.6640384842,
				"y": -0.3983353118,
				"z": -3.4692393409,
				"element": "H" 
			},
			{
				"x": 4.7024404997,
				"y": 0.9023924561,
				"z": -4.0642396169,
				"element": "H" 
			},
			{
				"x": 3.3307239429,
				"y": 0.8664786431,
				"z": -1.3095437694,
				"element": "H" 
			},
			{
				"x": 4.3522109089,
				"y": 2.1646999376,
				"z": -1.900795348,
				"element": "H" 
			},
			{
				"x": 2.7463922446,
				"y": 2.5403797603,
				"z": -3.8110704086,
				"element": "H" 
			},
			{
				"x": 1.6961628154,
				"y": 1.2989416233,
				"z": -3.1633830496,
				"element": "H" 
			},
			{
				"x": 2.47439641,
				"y": 3.9242857229,
				"z": -1.7742324842,
				"element": "H" 
			},
			{
				"x": 0.9552301943,
				"y": 3.6250091321,
				"z": -2.5991975624,
				"element": "H" 
			},
			{
				"x": 1.9047917552,
				"y": 2.2060649021,
				"z": -0.05325993,
				"element": "H" 
			},
			{
				"x": 0.7466032423,
				"y": 3.5169026892,
				"z": -0.1313393276,
				"element": "H" 
			},
			{
				"x": -0.7597727177,
				"y": 2.0756659156,
				"z": -1.5648126053,
				"element": "H" 
			},
			{
				"x": 0.3380032935,
				"y": 0.7267699474,
				"z": -1.338253652,
				"element": "H" 
			},
			{
				"x": -1.1248362026,
				"y": 2.1916559152,
				"z": 0.9259360948,
				"element": "H" 
			},
			{
				"x": -1.6612788397,
				"y": 0.6990753161,
				"z": 0.1783408741,
				"element": "H" 
			},
			{
				"x": 0.977093771,
				"y": 1.0552209962,
				"z": 1.7008685903,
				"element": "H" 
			},
			{
				"x": 0.4581163027,
				"y": -0.4376726184,
				"z": 0.9569294286,
				"element": "H" 
			},
			{
				"x": -0.939692865,
				"y": 1.0595727913,
				"z": 3.2414598901,
				"element": "H" 
			},
			{
				"x": 0.0833380838,
				"y": -0.3502513519,
				"z": 3.4311571411,
				"element": "H" 
			},
			{
				"x": -2.654388575,
				"y": -0.3234735661,
				"z": 2.0417784883,
				"element": "H" 
			},
			{
				"x": -2.3124109332,
				"y": -0.8272295756,
				"z": 3.6783359452,
				"element": "H" 
			},
			{
				"x": -2.387869808,
				"y": -2.8927869654,
				"z": 2.6572834497,
				"element": "H" 
			},
			{
				"x": -0.6631664608,
				"y": -2.5827350813,
				"z": 2.5678872509,
				"element": "H" 
			},
			{
				"x": -2.7054946769,
				"y": -2.1354195636,
				"z": 0.3203331541,
				"element": "H" 
			},
			{
				"x": -0.9654761536,
				"y": -1.8493248718,
				"z": 0.1460390069,
				"element": "H" 
			},
			{
				"x": -3.2118092752,
				"y": -6.5684802975,
				"z": 0.8668633718,
				"element": "H" 
			},
			{
				"x": -1.419981449,
				"y": -6.4807772636,
				"z": 0.8385750391,
				"element": "H" 
			},
			{
				"x": -2.3360666289,
				"y": -6.2304462406,
				"z": -0.6618788091,
				"element": "H" 
			}
		],
		 "valence_orbital": [ 
			{
				"type": "occ",
				"energy": -0.30514,
				"method": "rhf"
			},
			{
				"type": "occ",
				"energy": -0.30125,
				"method": "rhf"
			},
			{
				"type": "occ",
				"energy": -0.29858,
				"method": "rhf"
			},
			{
				"type": "occ",
				"energy": -0.29615,
				"method": "rhf"
			},
			{
				"type": "occ",
				"energy": -0.26307,
				"method": "rhf"
			},
			{
				"type": "unocc",
				"energy": 0.01429,
				"method": "rhf"
			},
			{
				"type": "unocc",
				"energy": 0.07651,
				"method": "rhf"
			},
			{
				"type": "unocc",
				"energy": 0.08797,
				"method": "rhf"
			},
			{
				"type": "unocc",
				"energy": 0.10342,
				"method": "rhf"
			},
			{
				"type": "unocc",
				"energy": 0.10417,
				"method": "rhf"
			}
		],
		"cosmo_sigma_profile": { 
			"-0.025": 0.0,
			"-0.024": 0.0,
			"-0.023": 0.0,
			"-0.022": 0.0,
			"-0.021": 0.0,
			"-0.02": 0.0,
			"-0.019": 0.0,
			"-0.018": 0.0,
			"-0.017": 0.0,
			"-0.016": 0.0,
			"-0.015": 0.0,
			"-0.014": 0.0,
			"-0.013": 0.0,
			"-0.012": 0.0,
			"-0.011": 0.0,
			"-0.01": 0.0,
			"-0.009": 0.0,
			"-0.008": 0.0,
			"-0.007": 0.376918344283,
			"-0.006": 3.37003456993,
			"-0.005": 8.40613930094,
			"-0.004": 11.9675116168,
			"-0.003": 23.6439817436,
			"-0.002": 49.5282965453,
			"-0.001": 66.8468324365,
			"0.0": 66.6485599728,
			"0.001": 55.5941776104,
			"0.002": 23.0867032471,
			"0.003": 4.41287887504,
			"0.004": 2.89295797131,
			"0.005": 2.23079952393,
			"0.006": 3.32043627953,
			"0.007": 2.03835089038,
			"0.008": 2.4763681552,
			"0.009": 2.14635515682,
			"0.01": 1.70960843434,
			"0.011": 2.74877555421,
			"0.012": 4.44331392166,
			"0.013": 2.63016850166,
			"0.014": 0.242671416239,
			"0.015": 0.0,
			"0.016": 0.0,
			"0.017": 0.0,
			"0.018": 0.0,
			"0.019": 0.0,
			"0.02": 0.0,
			"0.021": 0.0,
			"0.022": 0.0,
			"0.023": 0.0,
			"0.024": 0.0,
			"0.025": 0.0
		}
	}
}
