{
	 "smiles": "NC1=CC=NN1CC1=C2C=CC=CC2=CC=C1", 
	 "Tm": 411.15, 
	 "num_atms": 30, 
	 "gaussian": { 
		 "optdone": 1, 
		 "sigma_profile": "yes", 
		 "theory": "DFT", 
		 "functional": "B3LYP", 
		 "basiset": "6-31G**", 
		 "properties": { 
			 "R2extent": 4185.7264, 
			 "electric_dipole_moment_norm": 3.08384116647, 
			 "electric_quadrupole_moment_norm": 7.6116930574, 
			 "total_energy": -705.568674701, 
			 "HOMO_LUMO_gap": 0.15767, 
			 "cosmo_polarized_energy": -12.64, 
			 "cosmo_cavitation_energy": 32.72, 
			 "cosmo_dispersion_energy": -23.55, 
			 "cosmo_repulsion_energy": 1.79, 
			 "cosmo_total_nonelectrostatic_energy": 10.96, 
			 "SMD_solvation_energy": 4.57 
		},
		"coords": [
			{
				"x": -0.9714982831,
				"y": -3.5918378312,
				"z": -1.4757507752,
				"element": "N" 
			},
			{
				"x": -0.0491398033,
				"y": -2.7962679541,
				"z": -2.1587822128,
				"element": "C" 
			},
			{
				"x": 0.2354672325,
				"y": -2.6550207107,
				"z": -3.5103344074,
				"element": "C" 
			},
			{
				"x": 1.3407987513,
				"y": -1.7777543625,
				"z": -3.5439832896,
				"element": "C" 
			},
			{
				"x": 1.7221803793,
				"y": -1.3932768235,
				"z": -2.33002933,
				"element": "N" 
			},
			{
				"x": 0.859188086,
				"y": -2.034403022,
				"z": -1.485060017,
				"element": "N" 
			},
			{
				"x": 1.0145179265,
				"y": -1.9025018723,
				"z": -0.0418926569,
				"element": "C" 
			},
			{
				"x": -0.1285342821,
				"y": -1.1935026709,
				"z": 0.6677358211,
				"element": "C" 
			},
			{
				"x": -0.402748723,
				"y": 0.1987459311,
				"z": 0.4524240658,
				"element": "C" 
			},
			{
				"x": 0.3431061831,
				"y": 1.0032502262,
				"z": -0.4545061575,
				"element": "C" 
			},
			{
				"x": 0.0511536772,
				"y": 2.341261739,
				"z": -0.612168429,
				"element": "C" 
			},
			{
				"x": -0.9977912429,
				"y": 2.9450133251,
				"z": 0.1194670094,
				"element": "C" 
			},
			{
				"x": -1.7419441736,
				"y": 2.1937724572,
				"z": 1.0002682171,
				"element": "C" 
			},
			{
				"x": -1.4697408911,
				"y": 0.8129583364,
				"z": 1.1922326212,
				"element": "C" 
			},
			{
				"x": -2.2296048086,
				"y": 0.0333974217,
				"z": 2.1068320907,
				"element": "C" 
			},
			{
				"x": -1.9494471199,
				"y": -1.2981126288,
				"z": 2.2951304807,
				"element": "C" 
			},
			{
				"x": -0.8939881476,
				"y": -1.9055407991,
				"z": 1.5727992592,
				"element": "C" 
			},
			{
				"x": -1.6233775663,
				"y": -4.039035456,
				"z": -2.1075370211,
				"element": "H" 
			},
			{
				"x": -1.4738616211,
				"y": -3.0913251144,
				"z": -0.749081481,
				"element": "H" 
			},
			{
				"x": -0.2857914741,
				"y": -3.1133370414,
				"z": -4.3377597792,
				"element": "H" 
			},
			{
				"x": 1.8710676233,
				"y": -1.4053456166,
				"z": -4.4109872545,
				"element": "H" 
			},
			{
				"x": 1.1314302861,
				"y": -2.9035915672,
				"z": 0.3876153494,
				"element": "H" 
			},
			{
				"x": 1.9582005395,
				"y": -1.3688305995,
				"z": 0.0941092294,
				"element": "H" 
			},
			{
				"x": 1.1333830096,
				"y": 0.5545468009,
				"z": -1.0472587191,
				"element": "H" 
			},
			{
				"x": 0.6310084865,
				"y": 2.9376200097,
				"z": -1.3107139173,
				"element": "H" 
			},
			{
				"x": -1.2149230271,
				"y": 4.0005254463,
				"z": -0.0172593782,
				"element": "H" 
			},
			{
				"x": -2.5511499923,
				"y": 2.6478770533,
				"z": 1.5666273833,
				"element": "H" 
			},
			{
				"x": -3.0346532925,
				"y": 0.5126025583,
				"z": 2.6581031165,
				"element": "H" 
			},
			{
				"x": -2.5284809493,
				"y": -1.889333842,
				"z": 2.9984389123,
				"element": "H" 
			},
			{
				"x": -0.6716267831,
				"y": -2.9567533929,
				"z": 1.7420212696,
				"element": "H" 
			}
		],
		 "valence_orbital": [ 
			{
				"type": "occ",
				"energy": -0.27502,
				"method": "rhf"
			},
			{
				"type": "occ",
				"energy": -0.24653,
				"method": "rhf"
			},
			{
				"type": "occ",
				"energy": -0.23513,
				"method": "rhf"
			},
			{
				"type": "occ",
				"energy": -0.21802,
				"method": "rhf"
			},
			{
				"type": "occ",
				"energy": -0.2014,
				"method": "rhf"
			},
			{
				"type": "unocc",
				"energy": -0.04373,
				"method": "rhf"
			},
			{
				"type": "unocc",
				"energy": -0.01319,
				"method": "rhf"
			},
			{
				"type": "unocc",
				"energy": 0.02777,
				"method": "rhf"
			},
			{
				"type": "unocc",
				"energy": 0.03924,
				"method": "rhf"
			},
			{
				"type": "unocc",
				"energy": 0.0793,
				"method": "rhf"
			}
		],
		"cosmo_sigma_profile": { 
			"-0.025": 0.0,
			"-0.024": 0.0,
			"-0.023": 0.0,
			"-0.022": 0.0,
			"-0.021": 0.0,
			"-0.02": 0.0,
			"-0.019": 0.0,
			"-0.018": 0.0,
			"-0.017": 0.0,
			"-0.016": 0.0,
			"-0.015": 0.0,
			"-0.014": 0.0,
			"-0.013": 0.844894633218,
			"-0.012": 1.5910207893,
			"-0.011": 1.3985687825,
			"-0.01": 2.3191696087,
			"-0.009": 2.72113147942,
			"-0.008": 1.84553205443,
			"-0.007": 4.06716069502,
			"-0.006": 18.8124133435,
			"-0.005": 21.8902301526,
			"-0.004": 20.8916641935,
			"-0.003": 20.5763722559,
			"-0.002": 14.1091397755,
			"-0.001": 15.7659657023,
			"0.0": 14.6034672763,
			"0.001": 10.9116997659,
			"0.002": 16.4722156742,
			"0.003": 18.4705330635,
			"0.004": 26.8404924122,
			"0.005": 19.3117836009,
			"0.006": 9.3047511377,
			"0.007": 5.32350331249,
			"0.008": 2.75573278742,
			"0.009": 2.5967396358,
			"0.01": 1.33486549002,
			"0.011": 1.04863581249,
			"0.012": 2.04774239695,
			"0.013": 1.56518586083,
			"0.014": 1.29748719953,
			"0.015": 0.577312396814,
			"0.016": 0.468631648184,
			"0.017": 0.0,
			"0.018": 0.0,
			"0.019": 0.0,
			"0.02": 0.0,
			"0.021": 0.0,
			"0.022": 0.0,
			"0.023": 0.0,
			"0.024": 0.0,
			"0.025": 0.0
		}
	}
}
