{
	 "smiles": "CC1=CC2=C(C=C1)N=C(S2)C1=CC=C(C=C1)N=C=S", 
	 "Tm": 517.15, 
	 "num_atms": 29, 
	 "gaussian": { 
		 "optdone": 1, 
		 "sigma_profile": "yes", 
		 "theory": "DFT", 
		 "functional": "B3LYP", 
		 "basiset": "6-31G**", 
		 "properties": { 
			 "R2extent": 11831.7213, 
			 "electric_dipole_moment_norm": 4.07953476024, 
			 "electric_quadrupole_moment_norm": 13.315674764, 
			 "total_energy": -1483.52119243, 
			 "HOMO_LUMO_gap": 0.14287, 
			 "cosmo_polarized_energy": -7.89, 
			 "cosmo_cavitation_energy": 38.54, 
			 "cosmo_dispersion_energy": -29.01, 
			 "cosmo_repulsion_energy": 2.12, 
			 "cosmo_total_nonelectrostatic_energy": 11.65, 
			 "SMD_solvation_energy": 4.83 
		},
		"coords": [
			{
				"x": -0.2711015697,
				"y": 3.920111598,
				"z": -4.6097186026,
				"element": "C" 
			},
			{
				"x": -0.2218158847,
				"y": 2.7505677257,
				"z": -3.6548572173,
				"element": "C" 
			},
			{
				"x": 0.8302708304,
				"y": 2.6129915371,
				"z": -2.7474861629,
				"element": "C" 
			},
			{
				"x": 0.8399012915,
				"y": 1.5175009915,
				"z": -1.8806836841,
				"element": "C" 
			},
			{
				"x": -0.1892960252,
				"y": 0.5463486778,
				"z": -1.9007636177,
				"element": "C" 
			},
			{
				"x": -1.2448514001,
				"y": 0.6906168021,
				"z": -2.8160580954,
				"element": "C" 
			},
			{
				"x": -1.2492293661,
				"y": 1.7795573386,
				"z": -3.6737637708,
				"element": "C" 
			},
			{
				"x": -0.053858839,
				"y": -0.4822060956,
				"z": -0.990868745,
				"element": "N" 
			},
			{
				"x": 1.022330558,
				"y": -0.3546032908,
				"z": -0.2733141836,
				"element": "C" 
			},
			{
				"x": 2.0113246883,
				"y": 1.0877643764,
				"z": -0.6534309276,
				"element": "S" 
			},
			{
				"x": 1.4196686244,
				"y": -1.3028031612,
				"z": 0.7726725686,
				"element": "C" 
			},
			{
				"x": 0.5998611615,
				"y": -2.4193678996,
				"z": 1.0279750403,
				"element": "C" 
			},
			{
				"x": 0.9368071643,
				"y": -3.3405940598,
				"z": 2.007209595,
				"element": "C" 
			},
			{
				"x": 2.1127585704,
				"y": -3.1627931119,
				"z": 2.7594551894,
				"element": "C" 
			},
			{
				"x": 2.9378905046,
				"y": -2.0556511604,
				"z": 2.5154222211,
				"element": "C" 
			},
			{
				"x": 2.5901971499,
				"y": -1.1387058658,
				"z": 1.5314140979,
				"element": "C" 
			},
			{
				"x": 2.4688165034,
				"y": -4.0668989065,
				"z": 3.7398994331,
				"element": "N" 
			},
			{
				"x": 2.2940354902,
				"y": -5.0586794561,
				"z": 4.3873258494,
				"element": "C" 
			},
			{
				"x": 2.1612882416,
				"y": -6.3490890515,
				"z": 5.301586293,
				"element": "S" 
			},
			{
				"x": 0.5883890542,
				"y": 4.5826599412,
				"z": -4.4776790669,
				"element": "H" 
			},
			{
				"x": -0.2761250945,
				"y": 3.5819333732,
				"z": -5.6524054004,
				"element": "H" 
			},
			{
				"x": -1.1791173139,
				"y": 4.516079304,
				"z": -4.4616136982,
				"element": "H" 
			},
			{
				"x": 1.626726542,
				"y": 3.3506641883,
				"z": -2.7210242095,
				"element": "H" 
			},
			{
				"x": -2.0363498668,
				"y": -0.0513228573,
				"z": -2.8354096036,
				"element": "H" 
			},
			{
				"x": -2.0644354181,
				"y": 1.894550631,
				"z": -4.3834506727,
				"element": "H" 
			},
			{
				"x": -0.3029652781,
				"y": -2.5436491468,
				"z": 0.4408799884,
				"element": "H" 
			},
			{
				"x": 0.3031062202,
				"y": -4.1996832624,
				"z": 2.2014754711,
				"element": "H" 
			},
			{
				"x": 3.8416520165,
				"y": -1.9285600169,
				"z": 3.1009699518,
				"element": "H" 
			},
			{
				"x": 3.2408214444,
				"y": -0.2872391422,
				"z": 1.3558419594,
				"element": "H" 
			}
		],
		 "valence_orbital": [ 
			{
				"type": "occ",
				"energy": -0.27519,
				"method": "rhf"
			},
			{
				"type": "occ",
				"energy": -0.26337,
				"method": "rhf"
			},
			{
				"type": "occ",
				"energy": -0.25152,
				"method": "rhf"
			},
			{
				"type": "occ",
				"energy": -0.23896,
				"method": "rhf"
			},
			{
				"type": "occ",
				"energy": -0.21842,
				"method": "rhf"
			},
			{
				"type": "unocc",
				"energy": -0.07555,
				"method": "rhf"
			},
			{
				"type": "unocc",
				"energy": -0.02305,
				"method": "rhf"
			},
			{
				"type": "unocc",
				"energy": -0.02172,
				"method": "rhf"
			},
			{
				"type": "unocc",
				"energy": -0.01753,
				"method": "rhf"
			},
			{
				"type": "unocc",
				"energy": -0.01028,
				"method": "rhf"
			}
		],
		"cosmo_sigma_profile": { 
			"-0.025": 0.0,
			"-0.024": 0.0,
			"-0.023": 0.0,
			"-0.022": 0.0,
			"-0.021": 0.0,
			"-0.02": 0.0,
			"-0.019": 0.0,
			"-0.018": 0.0,
			"-0.017": 0.0,
			"-0.016": 0.0,
			"-0.015": 0.0,
			"-0.014": 0.0,
			"-0.013": 0.0,
			"-0.012": 0.0,
			"-0.011": 0.0,
			"-0.01": 0.0,
			"-0.009": 0.0,
			"-0.008": 2.57207441262,
			"-0.007": 8.80923595077,
			"-0.006": 14.3844904998,
			"-0.005": 16.3720257597,
			"-0.004": 18.1310712724,
			"-0.003": 20.695956242,
			"-0.002": 20.9016900674,
			"-0.001": 27.8447984887,
			"0.0": 37.3919259324,
			"0.001": 34.3414704476,
			"0.002": 36.5355568885,
			"0.003": 26.5513658213,
			"0.004": 24.6469429386,
			"0.005": 18.4375935403,
			"0.006": 3.39169973797,
			"0.007": 1.06749222445,
			"0.008": 1.239395359,
			"0.009": 1.11710830663,
			"0.01": 1.55189865334,
			"0.011": 0.795091561599,
			"0.012": 0.0848328168251,
			"0.013": 0.0,
			"0.014": 0.0,
			"0.015": 0.0,
			"0.016": 0.0,
			"0.017": 0.0,
			"0.018": 0.0,
			"0.019": 0.0,
			"0.02": 0.0,
			"0.021": 0.0,
			"0.022": 0.0,
			"0.023": 0.0,
			"0.024": 0.0,
			"0.0": 0.0
		}
	}
}
