{
	 "smiles": "ClC(=O)C1=CC(=CC(=C1)C(Cl)=O)C(Cl)=O", 
	 "Tm": 309.25, 
	 "num_atms": 18, 
	 "gaussian": { 
		 "optdone": 1, 
		 "sigma_profile": "yes", 
		 "theory": "DFT", 
		 "functional": "B3LYP", 
		 "basiset": "6-31G**", 
		 "properties": { 
			 "R2extent": 5512.4289, 
			 "electric_dipole_moment_norm": 0.000538516480713, 
			 "electric_quadrupole_moment_norm": 11.8898428043, 
			 "total_energy": -1951.02815966, 
			 "HOMO_LUMO_gap": 0.20105, 
			 "cosmo_polarized_energy": -9.59, 
			 "cosmo_cavitation_energy": 30.32, 
			 "cosmo_dispersion_energy": -21.92, 
			 "cosmo_repulsion_energy": 1.73, 
			 "cosmo_total_nonelectrostatic_energy": 10.12, 
			 "SMD_solvation_energy": 7.0 
		},
		"coords": [
			{
				"x": -3.4445822267,
				"y": -1.9399457378,
				"z": 2.4671113395,
				"element": "Cl" 
			},
			{
				"x": -1.8741787149,
				"y": -2.2533899822,
				"z": 1.6232767214,
				"element": "C" 
			},
			{
				"x": -1.4704361157,
				"y": -3.3720219518,
				"z": 1.5168376462,
				"element": "O" 
			},
			{
				"x": -1.1744195707,
				"y": -1.0426355596,
				"z": 1.103407126,
				"element": "C" 
			},
			{
				"x": 0.0453315214,
				"y": -1.2684376377,
				"z": 0.4454483226,
				"element": "C" 
			},
			{
				"x": 0.7677862335,
				"y": -0.1934674165,
				"z": -0.0726886035,
				"element": "C" 
			},
			{
				"x": 0.2752776268,
				"y": 1.1143914764,
				"z": 0.063751115,
				"element": "C" 
			},
			{
				"x": -0.9364867856,
				"y": 1.3387202952,
				"z": 0.7174259951,
				"element": "C" 
			},
			{
				"x": -1.6637164922,
				"y": 0.2566687535,
				"z": 1.2389447571,
				"element": "C" 
			},
			{
				"x": -1.5394589356,
				"y": 2.6895802349,
				"z": 0.9110064137,
				"element": "C" 
			},
			{
				"x": -0.5857894173,
				"y": 4.0698964243,
				"z": 0.2315189412,
				"element": "Cl" 
			},
			{
				"x": -2.5747430493,
				"y": 2.9002747986,
				"z": 1.4673070066,
				"element": "O" 
			},
			{
				"x": 2.070503863,
				"y": -0.3335970327,
				"z": -0.7862284591,
				"element": "C" 
			},
			{
				"x": 2.6868791093,
				"y": -2.0275498516,
				"z": -0.9513124039,
				"element": "Cl" 
			},
			{
				"x": 2.7022617258,
				"y": 0.5743735649,
				"z": -1.2358208693,
				"element": "O" 
			},
			{
				"x": 0.4104373075,
				"y": -2.283363595,
				"z": 0.3491474064,
				"element": "H" 
			},
			{
				"x": 0.8489143653,
				"y": 1.9371865812,
				"z": -0.3444254327,
				"element": "H" 
			},
			{
				"x": -2.6024804445,
				"y": 0.4488166358,
				"z": 1.7433929779,
				"element": "H" 
			}
		],
		 "valence_orbital": [ 
			{
				"type": "occ",
				"energy": -0.32399,
				"method": "rhf"
			},
			{
				"type": "occ",
				"energy": -0.32071,
				"method": "rhf"
			},
			{
				"type": "occ",
				"energy": -0.32071,
				"method": "rhf"
			},
			{
				"type": "occ",
				"energy": -0.31843,
				"method": "rhf"
			},
			{
				"type": "occ",
				"energy": -0.31843,
				"method": "rhf"
			},
			{
				"type": "unocc",
				"energy": -0.11738,
				"method": "rhf"
			},
			{
				"type": "unocc",
				"energy": -0.11738,
				"method": "rhf"
			},
			{
				"type": "unocc",
				"energy": -0.07914,
				"method": "rhf"
			},
			{
				"type": "unocc",
				"energy": -0.00618,
				"method": "rhf"
			},
			{
				"type": "unocc",
				"energy": 0.00036,
				"method": "rhf"
			}
		],
		"cosmo_sigma_profile": { 
			"-0.025": 0.0,
			"-0.024": 0.0,
			"-0.023": 0.0,
			"-0.022": 0.0,
			"-0.021": 0.0,
			"-0.02": 0.0,
			"-0.019": 0.0,
			"-0.018": 0.0,
			"-0.017": 0.0,
			"-0.016": 0.0,
			"-0.015": 0.0,
			"-0.014": 0.0,
			"-0.013": 0.0,
			"-0.012": 0.0,
			"-0.011": 0.0,
			"-0.01": 0.0,
			"-0.009": 0.0,
			"-0.008": 0.0,
			"-0.007": 3.23434804659,
			"-0.006": 16.6237938335,
			"-0.005": 24.7061253614,
			"-0.004": 25.9745156779,
			"-0.003": 21.6456536045,
			"-0.002": 13.6121146205,
			"-0.001": 15.1046523236,
			"0.0": 17.9250925819,
			"0.001": 16.0574951283,
			"0.002": 17.8843072433,
			"0.003": 25.7139557462,
			"0.004": 17.6689931088,
			"0.005": 7.22816590289,
			"0.006": 6.89148539653,
			"0.007": 9.62312582413,
			"0.008": 10.3934311544,
			"0.009": 2.74822997856,
			"0.01": 0.0,
			"0.011": 0.0,
			"0.012": 0.0,
			"0.013": 0.0,
			"0.014": 0.0,
			"0.015": 0.0,
			"0.016": 0.0,
			"0.017": 0.0,
			"0.018": 0.0,
			"0.019": 0.0,
			"0.02": 0.0,
			"0.021": 0.0,
			"0.022": 0.0,
			"0.023": 0.0,
			"0.024": 0.0,
			"0.025": 0.0
		}
	}
}
