{
	 "smiles": "OC(=O)CC(S)C(O)=O", 
	 "Tm": 423.15, 
	 "num_atms": 15, 
	 "gaussian": { 
		 "optdone": 1, 
		 "sigma_profile": "yes", 
		 "theory": "DFT", 
		 "functional": "B3LYP", 
		 "basiset": "6-31G**", 
		 "properties": { 
			 "R2extent": 1710.2101, 
			 "electric_dipole_moment_norm": 4.12473424841, 
			 "electric_quadrupole_moment_norm": 14.7017323024, 
			 "total_energy": -855.135555198, 
			 "HOMO_LUMO_gap": 0.21827, 
			 "cosmo_polarized_energy": -18.92, 
			 "cosmo_cavitation_energy": 20.71, 
			 "cosmo_dispersion_energy": -15.75, 
			 "cosmo_repulsion_energy": 1.26, 
			 "cosmo_total_nonelectrostatic_energy": 6.22, 
			 "SMD_solvation_energy": 5.1 
		},
		"coords": [
			{
				"x": -0.7990482318,
				"y": 0.4356738264,
				"z": -1.7642425509,
				"element": "O" 
			},
			{
				"x": -1.5501571721,
				"y": -0.5533541424,
				"z": -1.2516598319,
				"element": "C" 
			},
			{
				"x": -2.682006748,
				"y": -0.7421020295,
				"z": -1.636275193,
				"element": "O" 
			},
			{
				"x": -0.9112323992,
				"y": -1.431448535,
				"z": -0.1673657442,
				"element": "C" 
			},
			{
				"x": -0.8130651736,
				"y": -0.8158056487,
				"z": 1.2448595929,
				"element": "C" 
			},
			{
				"x": -2.3858672713,
				"y": 0.0071455648,
				"z": 1.8229135834,
				"element": "S" 
			},
			{
				"x": 0.3334204093,
				"y": 0.1538930713,
				"z": 1.4998537852,
				"element": "C" 
			},
			{
				"x": 0.9694221826,
				"y": 0.5715508879,
				"z": 0.3618183289,
				"element": "O" 
			},
			{
				"x": 0.6860693974,
				"y": 0.5205287966,
				"z": 2.5917019542,
				"element": "O" 
			},
			{
				"x": 0.0250379102,
				"y": 0.5246963623,
				"z": -1.2532738352,
				"element": "H" 
			},
			{
				"x": -1.541038873,
				"y": -2.3198814405,
				"z": -0.1025937045,
				"element": "H" 
			},
			{
				"x": 0.0901596497,
				"y": -1.747586669,
				"z": -0.4812289208,
				"element": "H" 
			},
			{
				"x": -0.6378294273,
				"y": -1.6310811513,
				"z": 1.9516932796,
				"element": "H" 
			},
			{
				"x": -3.0642057325,
				"y": -0.1633381739,
				"z": 0.6699855066,
				"element": "H" 
			},
			{
				"x": 1.6615414796,
				"y": 1.194809281,
				"z": 0.6431137497,
				"element": "H" 
			}
		],
		 "valence_orbital": [ 
			{
				"type": "occ",
				"energy": -0.3476,
				"method": "rhf"
			},
			{
				"type": "occ",
				"energy": -0.3209,
				"method": "rhf"
			},
			{
				"type": "occ",
				"energy": -0.31109,
				"method": "rhf"
			},
			{
				"type": "occ",
				"energy": -0.27823,
				"method": "rhf"
			},
			{
				"type": "occ",
				"energy": -0.25832,
				"method": "rhf"
			},
			{
				"type": "unocc",
				"energy": -0.04005,
				"method": "rhf"
			},
			{
				"type": "unocc",
				"energy": -0.00878,
				"method": "rhf"
			},
			{
				"type": "unocc",
				"energy": 0.0236,
				"method": "rhf"
			},
			{
				"type": "unocc",
				"energy": 0.03727,
				"method": "rhf"
			},
			{
				"type": "unocc",
				"energy": 0.06035,
				"method": "rhf"
			}
		],
		"cosmo_sigma_profile": { 
			"-0.025": 0.0,
			"-0.024": 0.0,
			"-0.023": 0.0,
			"-0.022": 0.0,
			"-0.021": 0.0,
			"-0.02": 0.292404836949,
			"-0.019": 1.14319401906,
			"-0.018": 0.593620356902,
			"-0.017": 1.1035715467,
			"-0.016": 1.08255144508,
			"-0.015": 0.818311789225,
			"-0.014": 0.619836702577,
			"-0.013": 0.887059041208,
			"-0.012": 0.436754499386,
			"-0.011": 1.9088449297,
			"-0.01": 2.71059078022,
			"-0.009": 8.18681210231,
			"-0.008": 8.62385811212,
			"-0.007": 7.7598760207,
			"-0.006": 8.94202340579,
			"-0.005": 10.3957066511,
			"-0.004": 9.27062364386,
			"-0.003": 6.26641828367,
			"-0.002": 5.81124583496,
			"-0.001": 5.41947751508,
			"0.0": 5.3181743193,
			"0.001": 5.69959191615,
			"0.002": 5.13749599633,
			"0.003": 6.78478608103,
			"0.004": 6.62607765471,
			"0.005": 6.67045434343,
			"0.006": 5.95367145511,
			"0.007": 6.58839190236,
			"0.008": 6.55896737793,
			"0.009": 5.93239214288,
			"0.01": 8.9368981915,
			"0.011": 8.27234452927,
			"0.012": 4.22887856849,
			"0.013": 1.30988365288,
			"0.014": 0.0,
			"0.015": 0.0,
			"0.016": 0.0,
			"0.017": 0.0,
			"0.018": 0.0,
			"0.019": 0.0,
			"0.02": 0.0,
			"0.021": 0.0,
			"0.022": 0.0,
			"0.023": 0.0,
			"0.024": 0.0,
			"0.025": 0.0
		}
	}
}
