{
	 "smiles": "NC1=CC=C(OCC2=CN=CC=C2)C=C1", 
	 "Tm": 353.15, 
	 "num_atms": 27, 
	 "gaussian": { 
		 "optdone": 1, 
		 "sigma_profile": "yes", 
		 "theory": "DFT", 
		 "functional": "B3LYP", 
		 "basiset": "6-31G**", 
		 "properties": { 
			 "R2extent": 4449.9108, 
			 "electric_dipole_moment_norm": 2.26392485962, 
			 "electric_quadrupole_moment_norm": 9.59188552475, 
			 "total_energy": -649.218559175, 
			 "HOMO_LUMO_gap": 0.16199, 
			 "cosmo_polarized_energy": -13.42, 
			 "cosmo_cavitation_energy": 31.06, 
			 "cosmo_dispersion_energy": -22.42, 
			 "cosmo_repulsion_energy": 1.77, 
			 "cosmo_total_nonelectrostatic_energy": 10.41, 
			 "SMD_solvation_energy": 3.88 
		},
		"coords": [
			{
				"x": 3.6644065392,
				"y": 0.4354000191,
				"z": 1.175271975,
				"element": "N" 
			},
			{
				"x": 2.3484084725,
				"y": 0.6081964858,
				"z": 0.7174521577,
				"element": "C" 
			},
			{
				"x": 2.0941835541,
				"y": 1.1494105302,
				"z": -0.5553930219,
				"element": "C" 
			},
			{
				"x": 0.7937912758,
				"y": 1.3810408664,
				"z": -0.9860696085,
				"element": "C" 
			},
			{
				"x": -0.2949210525,
				"y": 1.0779767077,
				"z": -0.160004849,
				"element": "C" 
			},
			{
				"x": -1.5395615048,
				"y": 1.3514940053,
				"z": -0.6898802462,
				"element": "O" 
			},
			{
				"x": -2.6782684191,
				"y": 1.2576365952,
				"z": 0.1534041458,
				"element": "C" 
			},
			{
				"x": -3.1878519029,
				"y": -0.1577052318,
				"z": 0.344720139,
				"element": "C" 
			},
			{
				"x": -3.8901729368,
				"y": -0.5166518008,
				"z": 1.5008362229,
				"element": "C" 
			},
			{
				"x": -4.4180060364,
				"y": -1.7268149571,
				"z": 1.7183750941,
				"element": "N" 
			},
			{
				"x": -4.2493857643,
				"y": -2.6477267206,
				"z": 0.7617477154,
				"element": "C" 
			},
			{
				"x": -3.5583594331,
				"y": -2.4036937087,
				"z": -0.4268124028,
				"element": "C" 
			},
			{
				"x": -3.0214734507,
				"y": -1.1362636419,
				"z": -0.6391634284,
				"element": "C" 
			},
			{
				"x": -0.0592816168,
				"y": 0.5336902329,
				"z": 1.1047203359,
				"element": "C" 
			},
			{
				"x": 1.2510082719,
				"y": 0.3061430993,
				"z": 1.5335837851,
				"element": "C" 
			},
			{
				"x": 3.7628532675,
				"y": -0.2666369845,
				"z": 1.8969783116,
				"element": "H" 
			},
			{
				"x": 4.3432079894,
				"y": 0.2901498448,
				"z": 0.4393866536,
				"element": "H" 
			},
			{
				"x": 2.9270628437,
				"y": 1.3991743212,
				"z": -1.2083110365,
				"element": "H" 
			},
			{
				"x": 0.6006352124,
				"y": 1.8038542083,
				"z": -1.966885239,
				"element": "H" 
			},
			{
				"x": -3.4429135817,
				"y": 1.8573317637,
				"z": -0.3537767555,
				"element": "H" 
			},
			{
				"x": -2.4853618692,
				"y": 1.7311360095,
				"z": 1.1258759694,
				"element": "H" 
			},
			{
				"x": -4.0327936825,
				"y": 0.2144345928,
				"z": 2.2977120086,
				"element": "H" 
			},
			{
				"x": -4.6829565174,
				"y": -3.6271712156,
				"z": 0.9564816489,
				"element": "H" 
			},
			{
				"x": -3.4453160664,
				"y": -3.1906947498,
				"z": -1.1661719175,
				"element": "H" 
			},
			{
				"x": -2.4712849458,
				"y": -0.9002064641,
				"z": -1.5447851917,
				"element": "H" 
			},
			{
				"x": -0.8787213274,
				"y": 0.2614091171,
				"z": 1.7591470673,
				"element": "H" 
			},
			{
				"x": 1.4174726813,
				"y": -0.1166129245,
				"z": 2.5214604667,
				"element": "H" 
			}
		],
		 "valence_orbital": [ 
			{
				"type": "occ",
				"energy": -0.27802,
				"method": "rhf"
			},
			{
				"type": "occ",
				"energy": -0.25764,
				"method": "rhf"
			},
			{
				"type": "occ",
				"energy": -0.25207,
				"method": "rhf"
			},
			{
				"type": "occ",
				"energy": -0.24549,
				"method": "rhf"
			},
			{
				"type": "occ",
				"energy": -0.18666,
				"method": "rhf"
			},
			{
				"type": "unocc",
				"energy": -0.02467,
				"method": "rhf"
			},
			{
				"type": "unocc",
				"energy": -0.01405,
				"method": "rhf"
			},
			{
				"type": "unocc",
				"energy": 0.00326,
				"method": "rhf"
			},
			{
				"type": "unocc",
				"energy": 0.02995,
				"method": "rhf"
			},
			{
				"type": "unocc",
				"energy": 0.08261,
				"method": "rhf"
			}
		],
		"cosmo_sigma_profile": { 
			"-0.025": 0.0,
			"-0.024": 0.0,
			"-0.023": 0.0,
			"-0.022": 0.0,
			"-0.021": 0.0,
			"-0.02": 0.0,
			"-0.019": 0.0,
			"-0.018": 0.0,
			"-0.017": 0.0,
			"-0.016": 0.0,
			"-0.015": 0.0,
			"-0.014": 0.0,
			"-0.013": 0.00175820847746,
			"-0.012": 1.56745727624,
			"-0.011": 2.78263848891,
			"-0.01": 2.69897913302,
			"-0.009": 3.02178351201,
			"-0.008": 3.08265913247,
			"-0.007": 8.58347392449,
			"-0.006": 18.8165646258,
			"-0.005": 20.5371401533,
			"-0.004": 19.1257031741,
			"-0.003": 15.3101572706,
			"-0.002": 13.5603763693,
			"-0.001": 12.4263275563,
			"0.0": 11.90567678,
			"0.001": 14.0623438637,
			"0.002": 18.6027770467,
			"0.003": 17.2767832363,
			"0.004": 11.7397708231,
			"0.005": 11.4896233192,
			"0.006": 12.950132412,
			"0.007": 8.81684158946,
			"0.008": 3.17038716728,
			"0.009": 3.34652488557,
			"0.01": 2.62069505534,
			"0.011": 2.16028841642,
			"0.012": 1.4767058627,
			"0.013": 2.02017377091,
			"0.014": 1.33407085016,
			"0.015": 1.7683875265,
			"0.016": 0.836054322818,
			"0.017": 0.468144844765,
			"0.018": 0.0,
			"0.019": 0.0,
			"0.02": 0.0,
			"0.021": 0.0,
			"0.022": 0.0,
			"0.023": 0.0,
			"0.024": 0.0,
			"0.025": 0.0
		}
	}
}
