{
	 "smiles": "[O-][N+](=O)OCC(CO[N+]([O-])=O)(CO[N+]([O-])=O)CO[N+]([O-])=O", 
	 "Tm": 413.15, 
	 "num_atms": 29, 
	 "gaussian": { 
		 "optdone": 1, 
		 "sigma_profile": "yes", 
		 "theory": "DFT", 
		 "functional": "B3LYP", 
		 "basiset": "6-31G**", 
		 "properties": { 
			 "R2extent": 7523.7888, 
			 "electric_dipole_moment_norm": 3.79656738252, 
			 "electric_quadrupole_moment_norm": 6.50639924843, 
			 "total_energy": -1316.45137654, 
			 "HOMO_LUMO_gap": 0.23491, 
			 "cosmo_polarized_energy": -20.69, 
			 "cosmo_cavitation_energy": 38.33, 
			 "cosmo_dispersion_energy": -24.83, 
			 "cosmo_repulsion_energy": 2.01, 
			 "cosmo_total_nonelectrostatic_energy": 15.51, 
			 "SMD_solvation_energy": 17.96 
		},
		"coords": [
			{
				"x": -0.8953520232,
				"y": 1.0758353891,
				"z": 4.0336845988,
				"element": "O" 
			},
			{
				"x": -0.63598086,
				"y": 0.1525758499,
				"z": 3.3117424564,
				"element": "N" 
			},
			{
				"x": -0.2047276835,
				"y": -0.9497407751,
				"z": 3.5649983292,
				"element": "O" 
			},
			{
				"x": -0.9012001267,
				"y": 0.4738365569,
				"z": 1.9267432966,
				"element": "O" 
			},
			{
				"x": -0.6589887884,
				"y": -0.5860985484,
				"z": 0.9848326569,
				"element": "C" 
			},
			{
				"x": 0.6027980169,
				"y": -0.3148421808,
				"z": 0.1266526186,
				"element": "C" 
			},
			{
				"x": 0.4126532283,
				"y": 1.0685832567,
				"z": -0.5321222773,
				"element": "C" 
			},
			{
				"x": 1.4376825692,
				"y": 1.2369667456,
				"z": -1.5264114933,
				"element": "O" 
			},
			{
				"x": 1.3398453288,
				"y": 2.4771899227,
				"z": -2.2313532124,
				"element": "N" 
			},
			{
				"x": 0.4415826349,
				"y": 3.225025017,
				"z": -1.9065905384,
				"element": "O" 
			},
			{
				"x": 2.1927806338,
				"y": 2.5965389176,
				"z": -3.0700456574,
				"element": "O" 
			},
			{
				"x": 0.6739842027,
				"y": -1.3876464046,
				"z": -0.9789754571,
				"element": "C" 
			},
			{
				"x": 0.7041485508,
				"y": -2.6600920796,
				"z": -0.3021469578,
				"element": "O" 
			},
			{
				"x": 0.8336757489,
				"y": -3.7766150259,
				"z": -1.1882256359,
				"element": "N" 
			},
			{
				"x": 0.8742105849,
				"y": -3.5332580781,
				"z": -2.3740300937,
				"element": "O" 
			},
			{
				"x": 0.8777386671,
				"y": -4.8242070669,
				"z": -0.5991220393,
				"element": "O" 
			},
			{
				"x": 1.8368105226,
				"y": -0.3743420193,
				"z": 1.0502778647,
				"element": "C" 
			},
			{
				"x": 3.0073748545,
				"y": -0.2779455995,
				"z": 0.2203551986,
				"element": "O" 
			},
			{
				"x": 4.2288347283,
				"y": -0.361531783,
				"z": 0.9571843868,
				"element": "N" 
			},
			{
				"x": 4.1394369886,
				"y": -0.4612803888,
				"z": 2.1624901224,
				"element": "O" 
			},
			{
				"x": 5.1973565251,
				"y": -0.314796025,
				"z": 0.2456718782,
				"element": "O" 
			},
			{
				"x": -0.5777860819,
				"y": -1.5381493198,
				"z": 1.5079836938,
				"element": "H" 
			},
			{
				"x": -1.5488726777,
				"y": -0.6046705547,
				"z": 0.3475649531,
				"element": "H" 
			},
			{
				"x": -0.5703379526,
				"y": 1.1285941605,
				"z": -1.0112872023,
				"element": "H" 
			},
			{
				"x": 0.4735207024,
				"y": 1.8619833011,
				"z": 0.2166812278,
				"element": "H" 
			},
			{
				"x": -0.2051641275,
				"y": -1.3345843402,
				"z": -1.630144133,
				"element": "H" 
			},
			{
				"x": 1.5701885727,
				"y": -1.2612970907,
				"z": -1.5862203108,
				"element": "H" 
			},
			{
				"x": 1.8219200386,
				"y": 0.4525631772,
				"z": 1.7657912897,
				"element": "H" 
			},
			{
				"x": 1.8546672223,
				"y": -1.3156950137,
				"z": 1.6036204373,
				"element": "H" 
			}
		],
		 "valence_orbital": [ 
			{
				"type": "occ",
				"energy": -0.34558,
				"method": "rhf"
			},
			{
				"type": "occ",
				"energy": -0.34083,
				"method": "rhf"
			},
			{
				"type": "occ",
				"energy": -0.33789,
				"method": "rhf"
			},
			{
				"type": "occ",
				"energy": -0.33481,
				"method": "rhf"
			},
			{
				"type": "occ",
				"energy": -0.33106,
				"method": "rhf"
			},
			{
				"type": "unocc",
				"energy": -0.09615,
				"method": "rhf"
			},
			{
				"type": "unocc",
				"energy": -0.08689,
				"method": "rhf"
			},
			{
				"type": "unocc",
				"energy": -0.08393,
				"method": "rhf"
			},
			{
				"type": "unocc",
				"energy": -0.0797,
				"method": "rhf"
			},
			{
				"type": "unocc",
				"energy": -0.00328,
				"method": "rhf"
			}
		],
		"cosmo_sigma_profile": { 
			"-0.025": 0.0,
			"-0.024": 0.0,
			"-0.023": 0.0,
			"-0.022": 0.0,
			"-0.021": 0.0,
			"-0.02": 0.0,
			"-0.019": 0.0,
			"-0.018": 0.0,
			"-0.017": 0.0,
			"-0.016": 0.0,
			"-0.015": 0.0,
			"-0.014": 0.00128918245697,
			"-0.013": 0.310544065651,
			"-0.012": 1.16862370572,
			"-0.011": 2.53036002741,
			"-0.01": 6.00299922676,
			"-0.009": 15.2053203296,
			"-0.008": 14.4081204354,
			"-0.007": 13.1785651023,
			"-0.006": 15.6918047084,
			"-0.005": 11.9824796323,
			"-0.004": 13.7968311324,
			"-0.003": 12.8422559889,
			"-0.002": 13.2101715882,
			"-0.001": 12.014663568,
			"0.0": 10.727946767,
			"0.001": 12.9747730478,
			"0.002": 12.8782000072,
			"0.003": 16.277865035,
			"0.004": 21.8138850217,
			"0.005": 40.6060839247,
			"0.006": 37.8377857137,
			"0.007": 17.0195584655,
			"0.008": 1.50046878775,
			"0.009": 0.0,
			"0.01": 0.0,
			"0.011": 0.0,
			"0.012": 0.0,
			"0.013": 0.0,
			"0.014": 0.0,
			"0.015": 0.0,
			"0.016": 0.0,
			"0.017": 0.0,
			"0.018": 0.0,
			"0.019": 0.0,
			"0.02": 0.0,
			"0.021": 0.0,
			"0.022": 0.0,
			"0.023": 0.0,
			"0.024": 0.0,
			"0.025": 0.0
		}
	}
}
