{
	 "smiles": "OC(=O)C1=NC2=C(C=CC=C2)C(OCC2CC2)=C1", 
	 "Tm": 438.15, 
	 "num_atms": 31, 
	 "gaussian": { 
		 "optdone": 1, 
		 "sigma_profile": "yes", 
		 "theory": "DFT", 
		 "functional": "B3LYP", 
		 "basiset": "6-31G**", 
		 "properties": { 
			 "R2extent": 6292.2691, 
			 "electric_dipole_moment_norm": 6.02546749805, 
			 "electric_quadrupole_moment_norm": 25.364379308, 
			 "total_energy": -821.742894896, 
			 "HOMO_LUMO_gap": 0.1672, 
			 "cosmo_polarized_energy": -12.73, 
			 "cosmo_cavitation_energy": 35.42, 
			 "cosmo_dispersion_energy": -25.54, 
			 "cosmo_repulsion_energy": 1.98, 
			 "cosmo_total_nonelectrostatic_energy": 11.85, 
			 "SMD_solvation_energy": 5.97 
		},
		"coords": [
			{
				"x": 2.3207429879,
				"y": -4.5245086805,
				"z": 1.4784245861,
				"element": "O" 
			},
			{
				"x": 2.1616018135,
				"y": -3.5420585346,
				"z": 0.5812529292,
				"element": "C" 
			},
			{
				"x": 2.5225412821,
				"y": -3.6252043432,
				"z": -0.5721154917,
				"element": "O" 
			},
			{
				"x": 1.4852042653,
				"y": -2.3148415716,
				"z": 1.1502153342,
				"element": "C" 
			},
			{
				"x": 1.1545104009,
				"y": -2.3902119327,
				"z": 2.4269333077,
				"element": "N" 
			},
			{
				"x": 0.5393276375,
				"y": -1.3073894343,
				"z": 2.9880154682,
				"element": "C" 
			},
			{
				"x": 0.2533230747,
				"y": -0.1231500479,
				"z": 2.2409145768,
				"element": "C" 
			},
			{
				"x": -0.3875433979,
				"y": 0.9661126291,
				"z": 2.8797619387,
				"element": "C" 
			},
			{
				"x": -0.7319175123,
				"y": 0.8834842537,
				"z": 4.2124921295,
				"element": "C" 
			},
			{
				"x": -0.4497926546,
				"y": -0.2874364007,
				"z": 4.9552260857,
				"element": "C" 
			},
			{
				"x": 0.1725162132,
				"y": -1.3610021322,
				"z": 4.3571352439,
				"element": "C" 
			},
			{
				"x": 0.6357091594,
				"y": -0.0963539977,
				"z": 0.8586091168,
				"element": "C" 
			},
			{
				"x": 0.3456969979,
				"y": 1.0381123596,
				"z": 0.1931611489,
				"element": "O" 
			},
			{
				"x": 0.7193953913,
				"y": 1.1430103084,
				"z": -1.1942719589,
				"element": "C" 
			},
			{
				"x": 0.3158638538,
				"y": 2.5028970577,
				"z": -1.6859560544,
				"element": "C" 
			},
			{
				"x": -0.0156935709,
				"y": 2.6812275495,
				"z": -3.1496321736,
				"element": "C" 
			},
			{
				"x": -1.1085189047,
				"y": 2.7568435213,
				"z": -2.1145892723,
				"element": "C" 
			},
			{
				"x": 1.2566328593,
				"y": -1.2048916042,
				"z": 0.3119841647,
				"element": "C" 
			},
			{
				"x": 1.9387025256,
				"y": -4.178568665,
				"z": 2.3151090036,
				"element": "H" 
			},
			{
				"x": -0.6001217149,
				"y": 1.8585001874,
				"z": 2.3023774132,
				"element": "H" 
			},
			{
				"x": -1.2232581827,
				"y": 1.7215724124,
				"z": 4.6975743678,
				"element": "H" 
			},
			{
				"x": -0.7272122825,
				"y": -0.3372255536,
				"z": 6.0040471049,
				"element": "H" 
			},
			{
				"x": 0.3987663733,
				"y": -2.2691970276,
				"z": 4.9060325656,
				"element": "H" 
			},
			{
				"x": 0.213015183,
				"y": 0.3548346247,
				"z": -1.7671250282,
				"element": "H" 
			},
			{
				"x": 1.8026983909,
				"y": 0.9907325099,
				"z": -1.2849286359,
				"element": "H" 
			},
			{
				"x": 0.8351502721,
				"y": 3.3247669775,
				"z": -1.1989352408,
				"element": "H" 
			},
			{
				"x": 0.0190524458,
				"y": 1.8059160603,
				"z": -3.7924027321,
				"element": "H" 
			},
			{
				"x": 0.3077963125,
				"y": 3.5969631175,
				"z": -3.6337848014,
				"element": "H" 
			},
			{
				"x": -1.8105969852,
				"y": 1.9302827594,
				"z": -2.0519677074,
				"element": "H" 
			},
			{
				"x": -1.5421546336,
				"y": 3.7258650715,
				"z": -1.8891599494,
				"element": "H" 
			},
			{
				"x": 1.5762623991,
				"y": -1.2709814741,
				"z": -0.7187974394,
				"element": "H" 
			}
		],
		 "valence_orbital": [ 
			{
				"type": "occ",
				"energy": -0.29488,
				"method": "rhf"
			},
			{
				"type": "occ",
				"energy": -0.28258,
				"method": "rhf"
			},
			{
				"type": "occ",
				"energy": -0.26323,
				"method": "rhf"
			},
			{
				"type": "occ",
				"energy": -0.26021,
				"method": "rhf"
			},
			{
				"type": "occ",
				"energy": -0.23587,
				"method": "rhf"
			},
			{
				"type": "unocc",
				"energy": -0.06867,
				"method": "rhf"
			},
			{
				"type": "unocc",
				"energy": -0.03749,
				"method": "rhf"
			},
			{
				"type": "unocc",
				"energy": 0.00829,
				"method": "rhf"
			},
			{
				"type": "unocc",
				"energy": 0.04438,
				"method": "rhf"
			},
			{
				"type": "unocc",
				"energy": 0.08221,
				"method": "rhf"
			}
		],
		"cosmo_sigma_profile": { 
			"-0.025": 0.0,
			"-0.024": 0.0,
			"-0.023": 0.0,
			"-0.022": 0.0,
			"-0.021": 0.0,
			"-0.02": 0.0,
			"-0.019": 0.0,
			"-0.018": 0.0,
			"-0.017": 0.0,
			"-0.016": 0.0,
			"-0.015": 0.0,
			"-0.014": 0.0,
			"-0.013": 0.0479761934632,
			"-0.012": 0.518028241256,
			"-0.011": 0.45086345351,
			"-0.01": 0.447497687316,
			"-0.009": 0.778968423617,
			"-0.008": 0.748242033585,
			"-0.007": 5.81610435013,
			"-0.006": 16.7372390742,
			"-0.005": 22.7855036682,
			"-0.004": 26.3001558473,
			"-0.003": 21.7183909774,
			"-0.002": 18.9667072278,
			"-0.001": 21.5507951415,
			"0.0": 25.6852181465,
			"0.001": 23.1269998362,
			"0.002": 22.3499705961,
			"0.003": 22.2942842987,
			"0.004": 13.5859624954,
			"0.005": 7.86582630052,
			"0.006": 4.26645041955,
			"0.007": 3.72402362826,
			"0.008": 3.37089577944,
			"0.009": 3.86663454692,
			"0.01": 5.41233296856,
			"0.011": 4.83313016683,
			"0.012": 4.07715875657,
			"0.013": 1.31506653854,
			"0.014": 0.0394765186255,
			"0.015": 0.0,
			"0.016": 0.0,
			"0.017": 0.0,
			"0.018": 0.0,
			"0.019": 0.0,
			"0.02": 0.0,
			"0.021": 0.0,
			"0.022": 0.0,
			"0.023": 0.0,
			"0.024": 0.0,
			"0.025": 0.0
		}
	}
}
