{
	 "smiles": "CC1=CC=C(OC2=CC=C(N)C=C2)C=C1", 
	 "Tm": 393.15, 
	 "num_atms": 28, 
	 "gaussian": { 
		 "optdone": 1, 
		 "sigma_profile": "yes", 
		 "theory": "DFT", 
		 "functional": "B3LYP", 
		 "basiset": "6-31G**", 
		 "properties": { 
			 "R2extent": 4581.0409, 
			 "electric_dipole_moment_norm": 2.29012550093, 
			 "electric_quadrupole_moment_norm": 15.6201478546, 
			 "total_energy": -633.192966634, 
			 "HOMO_LUMO_gap": 0.19091, 
			 "cosmo_polarized_energy": -10.56, 
			 "cosmo_cavitation_energy": 32.01, 
			 "cosmo_dispersion_energy": -23.18, 
			 "cosmo_repulsion_energy": 1.83, 
			 "cosmo_total_nonelectrostatic_energy": 10.66, 
			 "SMD_solvation_energy": 5.6 
		},
		"coords": [
			{
				"x": -2.9027846015,
				"y": -3.3907895344,
				"z": -1.8794976949,
				"element": "C" 
			},
			{
				"x": -2.2972521078,
				"y": -2.1407929962,
				"z": -1.2841333069,
				"element": "C" 
			},
			{
				"x": -2.690356475,
				"y": -0.8672940913,
				"z": -1.7247939851,
				"element": "C" 
			},
			{
				"x": -2.1229927252,
				"y": 0.2895746694,
				"z": -1.2012712926,
				"element": "C" 
			},
			{
				"x": -1.1405972972,
				"y": 0.1956473626,
				"z": -0.2090181286,
				"element": "C" 
			},
			{
				"x": -0.6576396084,
				"y": 1.393100966,
				"z": 0.2763413205,
				"element": "O" 
			},
			{
				"x": 0.4887475834,
				"y": 1.4070324416,
				"z": 1.0604127223,
				"element": "C" 
			},
			{
				"x": 0.383171349,
				"y": 1.7674426719,
				"z": 2.4026082702,
				"element": "C" 
			},
			{
				"x": 1.5285737362,
				"y": 1.8806966076,
				"z": 3.1880249308,
				"element": "C" 
			},
			{
				"x": 2.7996614688,
				"y": 1.6267263733,
				"z": 2.6461551718,
				"element": "C" 
			},
			{
				"x": 3.9447454845,
				"y": 1.6778339214,
				"z": 3.4485873751,
				"element": "N" 
			},
			{
				"x": 2.8881159364,
				"y": 1.2628329614,
				"z": 1.2906049299,
				"element": "C" 
			},
			{
				"x": 1.7447663296,
				"y": 1.1581730311,
				"z": 0.503457689,
				"element": "C" 
			},
			{
				"x": -0.7358437181,
				"y": -1.0578627215,
				"z": 0.2531603897,
				"element": "C" 
			},
			{
				"x": -1.316709698,
				"y": -2.2071618696,
				"z": -0.2894817747,
				"element": "C" 
			},
			{
				"x": -2.5227873953,
				"y": -3.580752743,
				"z": -2.8913048865,
				"element": "H" 
			},
			{
				"x": -2.6731939401,
				"y": -4.272215525,
				"z": -1.2736264418,
				"element": "H" 
			},
			{
				"x": -3.9928260586,
				"y": -3.3126702594,
				"z": -1.9562184984,
				"element": "H" 
			},
			{
				"x": -3.4543407611,
				"y": -0.7792527391,
				"z": -2.493919623,
				"element": "H" 
			},
			{
				"x": -2.4283454268,
				"y": 1.2735763563,
				"z": -1.5423889184,
				"element": "H" 
			},
			{
				"x": -0.5982823819,
				"y": 1.968605278,
				"z": 2.8198418186,
				"element": "H" 
			},
			{
				"x": 1.4379865037,
				"y": 2.163027773,
				"z": 4.233982274,
				"element": "H" 
			},
			{
				"x": 4.8058467694,
				"y": 1.8506746,
				"z": 2.9477181315,
				"element": "H" 
			},
			{
				"x": 3.8656472943,
				"y": 2.2728945832,
				"z": 4.2621146426,
				"element": "H" 
			},
			{
				"x": 3.8629303841,
				"y": 1.0644513324,
				"z": 0.8518724638,
				"element": "H" 
			},
			{
				"x": 1.8214660972,
				"y": 0.8896080545,
				"z": -0.54540615,
				"element": "H" 
			},
			{
				"x": 0.0173042897,
				"y": -1.1376062908,
				"z": 1.0286529684,
				"element": "H" 
			},
			{
				"x": -0.9963110314,
				"y": -3.1788002136,
				"z": 0.0792256026,
				"element": "H" 
			}
		],
		 "valence_orbital": [ 
			{
				"type": "occ",
				"energy": -0.29507,
				"method": "rhf"
			},
			{
				"type": "occ",
				"energy": -0.25138,
				"method": "rhf"
			},
			{
				"type": "occ",
				"energy": -0.24159,
				"method": "rhf"
			},
			{
				"type": "occ",
				"energy": -0.21202,
				"method": "rhf"
			},
			{
				"type": "occ",
				"energy": -0.19549,
				"method": "rhf"
			},
			{
				"type": "unocc",
				"energy": -0.00458,
				"method": "rhf"
			},
			{
				"type": "unocc",
				"energy": 0.00904,
				"method": "rhf"
			},
			{
				"type": "unocc",
				"energy": 0.01527,
				"method": "rhf"
			},
			{
				"type": "unocc",
				"energy": 0.02472,
				"method": "rhf"
			},
			{
				"type": "unocc",
				"energy": 0.0786,
				"method": "rhf"
			}
		],
		"cosmo_sigma_profile": { 
			"-0.025": 0.0,
			"-0.024": 0.0,
			"-0.023": 0.0,
			"-0.022": 0.0,
			"-0.021": 0.0,
			"-0.02": 0.0,
			"-0.019": 0.0,
			"-0.018": 0.0,
			"-0.017": 0.0,
			"-0.016": 0.0,
			"-0.015": 0.0,
			"-0.014": 0.0,
			"-0.013": 0.105426708059,
			"-0.012": 2.40262668578,
			"-0.011": 2.86940022505,
			"-0.01": 2.82164120979,
			"-0.009": 3.57707356525,
			"-0.008": 3.14680426172,
			"-0.007": 3.16720689162,
			"-0.006": 9.14158862744,
			"-0.005": 14.1792218596,
			"-0.004": 19.2164876174,
			"-0.003": 22.0349977929,
			"-0.002": 17.032297085,
			"-0.001": 18.7872625367,
			"0.0": 19.7787437705,
			"0.001": 18.1186152071,
			"0.002": 15.2389122244,
			"0.003": 14.4799177223,
			"0.004": 18.1165283954,
			"0.005": 20.7808884295,
			"0.006": 17.3048234302,
			"0.007": 2.94217477657,
			"0.008": 1.97530863917,
			"0.009": 1.86034289203,
			"0.01": 2.33820531108,
			"0.011": 0.40456827498,
			"0.012": 1.07102603186,
			"0.013": 0.609150787262,
			"0.014": 0.566660343811,
			"0.015": 0.365411363927,
			"0.016": 0.0151581176461,
			"0.017": 0.0,
			"0.018": 0.0,
			"0.019": 0.0,
			"0.02": 0.0,
			"0.021": 0.0,
			"0.022": 0.0,
			"0.023": 0.0,
			"0.024": 0.0,
			"0.025": 0.0
		}
	}
}
