{
	 "smiles": "CN(C)C1=CC=C(C=C1)P(=O)(C1=CC=C(C=C1)N(C)C)C1=CC=C(C=C1)N(C)C", 
	 "Tm": 551.15, 
	 "num_atms": 59, 
	 "gaussian": { 
		 "optdone": 1, 
		 "sigma_profile": "yes", 
		 "theory": "DFT", 
		 "functional": "B3LYP", 
		 "basiset": "6-31G**", 
		 "properties": { 
			 "R2extent": 16963.958, 
			 "electric_dipole_moment_norm": 6.34796399564, 
			 "electric_quadrupole_moment_norm": 33.7490245991, 
			 "total_energy": -1513.47496912, 
			 "HOMO_LUMO_gap": 0.18198, 
			 "cosmo_polarized_energy": -26.26, 
			 "cosmo_cavitation_energy": 60.55, 
			 "cosmo_dispersion_energy": -41.79, 
			 "cosmo_repulsion_energy": 3.12, 
			 "cosmo_total_nonelectrostatic_energy": 21.87, 
			 "SMD_solvation_energy": 10.03 
		},
		"coords": [
			{
				"x": 4.9193442287,
				"y": 1.9325155348,
				"z": 4.0161041143,
				"element": "C" 
			},
			{
				"x": 5.025314331,
				"y": 1.105974221,
				"z": 2.8265728106,
				"element": "N" 
			},
			{
				"x": 6.0806908027,
				"y": 0.1112053701,
				"z": 2.7492639993,
				"element": "C" 
			},
			{
				"x": 3.9901526987,
				"y": 1.0849576931,
				"z": 1.9077527987,
				"element": "C" 
			},
			{
				"x": 4.0014184021,
				"y": 0.1962997144,
				"z": 0.8062782421,
				"element": "C" 
			},
			{
				"x": 2.9677662674,
				"y": 0.196127233,
				"z": -0.1217637555,
				"element": "C" 
			},
			{
				"x": 1.8669538444,
				"y": 1.0592590774,
				"z": -0.0020368588,
				"element": "C" 
			},
			{
				"x": 1.8552445417,
				"y": 1.9395419382,
				"z": 1.0916483799,
				"element": "C" 
			},
			{
				"x": 2.8798138617,
				"y": 1.9540539911,
				"z": 2.0295974948,
				"element": "C" 
			},
			{
				"x": 0.6014709436,
				"y": 1.161565777,
				"z": -1.3086647613,
				"element": "P" 
			},
			{
				"x": 0.8931848187,
				"y": 2.1301046334,
				"z": -2.4275344605,
				"element": "O" 
			},
			{
				"x": -0.952870944,
				"y": 1.5962350791,
				"z": -0.4570238113,
				"element": "C" 
			},
			{
				"x": -1.4203435261,
				"y": 0.9853696207,
				"z": 0.7157230607,
				"element": "C" 
			},
			{
				"x": -2.6368148541,
				"y": 1.3417600081,
				"z": 1.2854364225,
				"element": "C" 
			},
			{
				"x": -3.4553600744,
				"y": 2.3333300004,
				"z": 0.6923429264,
				"element": "C" 
			},
			{
				"x": -2.971640514,
				"y": 2.9597690492,
				"z": -0.4798268881,
				"element": "C" 
			},
			{
				"x": -1.7525226838,
				"y": 2.590899907,
				"z": -1.0367509504,
				"element": "C" 
			},
			{
				"x": -4.6845361328,
				"y": 2.6733509727,
				"z": 1.2386572591,
				"element": "N" 
			},
			{
				"x": -5.0609921953,
				"y": 2.1509602737,
				"z": 2.5405700151,
				"element": "C" 
			},
			{
				"x": -5.4061213409,
				"y": 3.8222739559,
				"z": 0.7184349975,
				"element": "C" 
			},
			{
				"x": 0.4140463855,
				"y": -0.5374545721,
				"z": -1.9477972324,
				"element": "C" 
			},
			{
				"x": 0.2868422796,
				"y": -1.6831363323,
				"z": -1.1488457509,
				"element": "C" 
			},
			{
				"x": 0.1067570155,
				"y": -2.9426277784,
				"z": -1.7079630552,
				"element": "C" 
			},
			{
				"x": 0.0355186022,
				"y": -3.112084774,
				"z": -3.1119550613,
				"element": "C" 
			},
			{
				"x": 0.1821772028,
				"y": -1.9566538432,
				"z": -3.9143510579,
				"element": "C" 
			},
			{
				"x": 0.3614358513,
				"y": -0.7041008363,
				"z": -3.3385858557,
				"element": "C" 
			},
			{
				"x": -0.1734795379,
				"y": -4.3621578253,
				"z": -3.676472681,
				"element": "N" 
			},
			{
				"x": -0.1263189637,
				"y": -5.5462079839,
				"z": -2.8365618121,
				"element": "C" 
			},
			{
				"x": -0.048564766,
				"y": -4.5281141407,
				"z": -5.1145942655,
				"element": "C" 
			},
			{
				"x": 4.0704318457,
				"y": 1.6478389871,
				"z": 4.6562310353,
				"element": "H" 
			},
			{
				"x": 5.8336328336,
				"y": 1.8348329488,
				"z": 4.6031456109,
				"element": "H" 
			},
			{
				"x": 4.8042285183,
				"y": 2.9919719641,
				"z": 3.7566819839,
				"element": "H" 
			},
			{
				"x": 5.7050873848,
				"y": -0.9160748052,
				"z": 2.8719621055,
				"element": "H" 
			},
			{
				"x": 6.6087382979,
				"y": 0.1635763398,
				"z": 1.7893433664,
				"element": "H" 
			},
			{
				"x": 6.8107297988,
				"y": 0.3011051426,
				"z": 3.5373162033,
				"element": "H" 
			},
			{
				"x": 4.8215589338,
				"y": -0.4980484961,
				"z": 0.6707192887,
				"element": "H" 
			},
			{
				"x": 3.0173403657,
				"y": -0.4983382687,
				"z": -0.9551854551,
				"element": "H" 
			},
			{
				"x": 1.0235477386,
				"y": 2.6260605589,
				"z": 1.2195087071,
				"element": "H" 
			},
			{
				"x": 2.814772123,
				"y": 2.6469007209,
				"z": 2.8595628302,
				"element": "H" 
			},
			{
				"x": -0.8210520964,
				"y": 0.2270509208,
				"z": 1.2124952682,
				"element": "H" 
			},
			{
				"x": -2.9475581561,
				"y": 0.8484637055,
				"z": 2.1982440685,
				"element": "H" 
			},
			{
				"x": -3.5463620942,
				"y": 3.7420058752,
				"z": -0.9603231964,
				"element": "H" 
			},
			{
				"x": -1.394117703,
				"y": 3.0839819052,
				"z": -1.9354902477,
				"element": "H" 
			},
			{
				"x": -6.0633265214,
				"y": 2.5021165327,
				"z": 2.7907894653,
				"element": "H" 
			},
			{
				"x": -5.0888603588,
				"y": 1.0550909957,
				"z": 2.5338795181,
				"element": "H" 
			},
			{
				"x": -4.37690386,
				"y": 2.4665836986,
				"z": 3.3439202146,
				"element": "H" 
			},
			{
				"x": -6.3550254523,
				"y": 3.9186258054,
				"z": 1.2484648738,
				"element": "H" 
			},
			{
				"x": -4.8503344669,
				"y": 4.7656223905,
				"z": 0.8348050107,
				"element": "H" 
			},
			{
				"x": -5.6347774096,
				"y": 3.6958600533,
				"z": -0.3460002205,
				"element": "H" 
			},
			{
				"x": 0.3462403612,
				"y": -1.6035521625,
				"z": -0.0666588071,
				"element": "H" 
			},
			{
				"x": 0.025757198,
				"y": -3.7974646502,
				"z": -1.047800686,
				"element": "H" 
			},
			{
				"x": 0.1598875212,
				"y": -2.0329324433,
				"z": -4.9945185126,
				"element": "H" 
			},
			{
				"x": 0.4755075401,
				"y": 0.1726847032,
				"z": -3.969100998,
				"element": "H" 
			},
			{
				"x": -0.3377397236,
				"y": -6.4260583796,
				"z": -3.4462914534,
				"element": "H" 
			},
			{
				"x": 0.85285102,
				"y": -5.6912211763,
				"z": -2.3536890937,
				"element": "H" 
			},
			{
				"x": -0.8867980685,
				"y": -5.5023137701,
				"z": -2.048217156,
				"element": "H" 
			},
			{
				"x": -0.7637254104,
				"y": -3.892150569,
				"z": -5.6487800663,
				"element": "H" 
			},
			{
				"x": -0.2718584148,
				"y": -5.5637420958,
				"z": -5.3758460097,
				"element": "H" 
			},
			{
				"x": 0.9596617105,
				"y": -4.2894923955,
				"z": -5.4873219111,
				"element": "H" 
			}
		],
		 "valence_orbital": [ 
			{
				"type": "occ",
				"energy": -0.23127,
				"method": "rhf"
			},
			{
				"type": "occ",
				"energy": -0.22987,
				"method": "rhf"
			},
			{
				"type": "occ",
				"energy": -0.19235,
				"method": "rhf"
			},
			{
				"type": "occ",
				"energy": -0.18693,
				"method": "rhf"
			},
			{
				"type": "occ",
				"energy": -0.18209,
				"method": "rhf"
			},
			{
				"type": "unocc",
				"energy": -0.00011,
				"method": "rhf"
			},
			{
				"type": "unocc",
				"energy": 0.00415,
				"method": "rhf"
			},
			{
				"type": "unocc",
				"energy": 0.00485,
				"method": "rhf"
			},
			{
				"type": "unocc",
				"energy": 0.01096,
				"method": "rhf"
			},
			{
				"type": "unocc",
				"energy": 0.02112,
				"method": "rhf"
			}
		],
		"cosmo_sigma_profile": { 
			"-0.025": 0.0,
			"-0.024": 0.0,
			"-0.023": 0.0,
			"-0.022": 0.0,
			"-0.021": 0.0,
			"-0.02": 0.0,
			"-0.019": 0.0,
			"-0.018": 0.0,
			"-0.017": 0.0,
			"-0.016": 0.0,
			"-0.015": 0.0,
			"-0.014": 0.0,
			"-0.013": 0.0,
			"-0.012": 0.0,
			"-0.011": 0.0,
			"-0.01": 0.0,
			"-0.009": 0.0,
			"-0.008": 0.0169938236233,
			"-0.007": 4.29490523117,
			"-0.006": 16.3605545233,
			"-0.005": 35.9050992083,
			"-0.004": 53.1216223942,
			"-0.003": 58.3135717771,
			"-0.002": 62.5349306497,
			"-0.001": 47.6954039355,
			"0.0": 24.8673111015,
			"0.001": 21.8192018417,
			"0.002": 23.9307228943,
			"0.003": 21.1484850777,
			"0.004": 23.4214880903,
			"0.005": 29.4596974453,
			"0.006": 28.4578065689,
			"0.007": 5.03347395562,
			"0.008": 1.75676085084,
			"0.009": 1.68017788318,
			"0.01": 1.66259301261,
			"0.011": 1.05307855653,
			"0.012": 1.41399422877,
			"0.013": 1.19258392181,
			"0.014": 1.50034911531,
			"0.015": 1.42533846262,
			"0.016": 3.04793182229,
			"0.017": 3.83507354717,
			"0.018": 1.9982256307,
			"0.019": 0.0,
			"0.02": 0.0,
			"0.021": 0.0,
			"0.022": 0.0,
			"0.023": 0.0,
			"0.024": 0.0,
			"0.025": 0.0
		}
	}
}
