{
	 "smiles": "OC(=O)CCCN1C=NC=N1", 
	 "Tm": 414.15, 
	 "num_atms": 20, 
	 "gaussian": { 
		 "optdone": 1, 
		 "sigma_profile": "yes", 
		 "theory": "DFT", 
		 "functional": "B3LYP", 
		 "basiset": "6-31G**", 
		 "properties": { 
			 "R2extent": 2326.2823, 
			 "electric_dipole_moment_norm": 3.31046740658, 
			 "electric_quadrupole_moment_norm": 7.45323757169, 
			 "total_energy": -548.764754883, 
			 "HOMO_LUMO_gap": 0.25642, 
			 "cosmo_polarized_energy": -15.75, 
			 "cosmo_cavitation_energy": 24.1, 
			 "cosmo_dispersion_energy": -16.87, 
			 "cosmo_repulsion_energy": 1.35, 
			 "cosmo_total_nonelectrostatic_energy": 8.57, 
			 "SMD_solvation_energy": 2.75 
		},
		"coords": [
			{
				"x": -2.0781803602,
				"y": -1.455608261,
				"z": -2.2402275003,
				"element": "O" 
			},
			{
				"x": -1.8111341897,
				"y": -0.1592384539,
				"z": -1.9653233073,
				"element": "C" 
			},
			{
				"x": -2.2355455033,
				"y": 0.4058606616,
				"z": -0.9796741753,
				"element": "O" 
			},
			{
				"x": -0.9209088295,
				"y": 0.4709272814,
				"z": -3.015633173,
				"element": "C" 
			},
			{
				"x": 0.5103438389,
				"y": -0.102655982,
				"z": -3.0571871798,
				"element": "C" 
			},
			{
				"x": 1.2995704451,
				"y": 0.0199113039,
				"z": -1.742829595,
				"element": "C" 
			},
			{
				"x": 0.9800483078,
				"y": -1.0294867398,
				"z": -0.7808551321,
				"element": "N" 
			},
			{
				"x": 0.311221934,
				"y": -0.9742811053,
				"z": 0.3953357721,
				"element": "C" 
			},
			{
				"x": 0.2381662006,
				"y": -2.1765409791,
				"z": 0.9428918666,
				"element": "N" 
			},
			{
				"x": 0.898349064,
				"y": -2.9512248313,
				"z": 0.0368349406,
				"element": "C" 
			},
			{
				"x": 1.368063034,
				"y": -2.3099040414,
				"z": -1.023467004,
				"element": "N" 
			},
			{
				"x": -2.6042722176,
				"y": -1.7939442341,
				"z": -1.495661686,
				"element": "H" 
			},
			{
				"x": -0.8989243424,
				"y": 1.5440731452,
				"z": -2.8090325412,
				"element": "H" 
			},
			{
				"x": -1.3867339141,
				"y": 0.3203368824,
				"z": -3.9957177547,
				"element": "H" 
			},
			{
				"x": 0.4919867078,
				"y": -1.1562531264,
				"z": -3.3501697887,
				"element": "H" 
			},
			{
				"x": 1.0630375008,
				"y": 0.4377315351,
				"z": -3.8336233353,
				"element": "H" 
			},
			{
				"x": 2.3710425538,
				"y": -0.0511426862,
				"z": -1.9484735852,
				"element": "H" 
			},
			{
				"x": 1.1127053878,
				"y": 0.9807555712,
				"z": -1.2533199466,
				"element": "H" 
			},
			{
				"x": -0.112590205,
				"y": -0.0609195383,
				"z": 0.7877459755,
				"element": "H" 
			},
			{
				"x": 1.0429545873,
				"y": -4.0155964023,
				"z": 0.1633871498,
				"element": "H" 
			}
		],
		 "valence_orbital": [ 
			{
				"type": "occ",
				"energy": -0.32298,
				"method": "rhf"
			},
			{
				"type": "occ",
				"energy": -0.2852,
				"method": "rhf"
			},
			{
				"type": "occ",
				"energy": -0.27906,
				"method": "rhf"
			},
			{
				"type": "occ",
				"energy": -0.27199,
				"method": "rhf"
			},
			{
				"type": "occ",
				"energy": -0.26191,
				"method": "rhf"
			},
			{
				"type": "unocc",
				"energy": -0.00549,
				"method": "rhf"
			},
			{
				"type": "unocc",
				"energy": 0.01159,
				"method": "rhf"
			},
			{
				"type": "unocc",
				"energy": 0.05628,
				"method": "rhf"
			},
			{
				"type": "unocc",
				"energy": 0.07005,
				"method": "rhf"
			},
			{
				"type": "unocc",
				"energy": 0.09262,
				"method": "rhf"
			}
		],
		"cosmo_sigma_profile": { 
			"-0.025": 0.0,
			"-0.024": 0.0,
			"-0.023": 0.0,
			"-0.022": 0.0,
			"-0.021": 0.0,
			"-0.02": 0.0,
			"-0.019": 0.0349395280408,
			"-0.018": 0.66275801039,
			"-0.017": 0.63144537313,
			"-0.016": 1.22332203336,
			"-0.015": 0.487101111951,
			"-0.014": 0.624130361954,
			"-0.013": 0.756136661415,
			"-0.012": 0.401756357811,
			"-0.011": 0.537101615358,
			"-0.01": 1.45832571799,
			"-0.009": 3.15835778559,
			"-0.008": 5.25326798596,
			"-0.007": 7.60404063349,
			"-0.006": 13.6425865862,
			"-0.005": 17.2514579382,
			"-0.004": 16.7573663699,
			"-0.003": 13.2765814446,
			"-0.002": 11.1835556536,
			"-0.001": 8.5514746569,
			"0.0": 7.60832935139,
			"0.001": 7.69214718331,
			"0.002": 8.41676053067,
			"0.003": 8.61711685707,
			"0.004": 6.54777077675,
			"0.005": 5.08307784634,
			"0.006": 5.49280957517,
			"0.007": 6.46052786227,
			"0.008": 4.51137234875,
			"0.009": 3.91772619136,
			"0.01": 4.30531178316,
			"0.011": 5.08034440691,
			"0.012": 5.69470248028,
			"0.013": 2.51343398596,
			"0.014": 2.02489580941,
			"0.015": 1.34922421052,
			"0.016": 1.01163286946,
			"0.017": 0.446150215378,
			"0.018": 0.0,
			"0.019": 0.0,
			"0.02": 0.0,
			"0.021": 0.0,
			"0.022": 0.0,
			"0.023": 0.0,
			"0.024": 0.0,
			"0.025": 0.0
		}
	}
}
