{
	 "smiles": "OCCN1CCN(CC1)C1=NN=C(CO)C=C1", 
	 "Tm": 403.15, 
	 "num_atms": 35, 
	 "gaussian": { 
		 "optdone": 1, 
		 "sigma_profile": "yes", 
		 "theory": "DFT", 
		 "functional": "B3LYP", 
		 "basiset": "6-31G**", 
		 "properties": { 
			 "R2extent": 7017.9957, 
			 "electric_dipole_moment_norm": 4.75557698077, 
			 "electric_quadrupole_moment_norm": 44.7728726572, 
			 "total_energy": -799.393808578, 
			 "HOMO_LUMO_gap": 0.16118, 
			 "cosmo_polarized_energy": -19.54, 
			 "cosmo_cavitation_energy": 36.16, 
			 "cosmo_dispersion_energy": -26.71, 
			 "cosmo_repulsion_energy": 2.09, 
			 "cosmo_total_nonelectrostatic_energy": 11.54, 
			 "SMD_solvation_energy": 1.48 
		},
		"coords": [
			{
				"x": 3.9186352678,
				"y": 0.3251472947,
				"z": 2.7245513023,
				"element": "O" 
			},
			{
				"x": 2.7707443405,
				"y": 0.0759571034,
				"z": 1.9241895555,
				"element": "C" 
			},
			{
				"x": 2.4313428849,
				"y": -1.4276125418,
				"z": 1.8727642541,
				"element": "C" 
			},
			{
				"x": 1.2963093054,
				"y": -1.8231937038,
				"z": 1.0542809917,
				"element": "N" 
			},
			{
				"x": 1.4210646905,
				"y": -1.6506770269,
				"z": -0.3913608851,
				"element": "C" 
			},
			{
				"x": 0.5551628995,
				"y": -0.5211505833,
				"z": -0.9671567295,
				"element": "C" 
			},
			{
				"x": -0.8387558084,
				"y": -0.7243389991,
				"z": -0.577805046,
				"element": "N" 
			},
			{
				"x": -1.1030069564,
				"y": -1.6476071688,
				"z": 0.5315514498,
				"element": "C" 
			},
			{
				"x": -0.022842293,
				"y": -1.5010266252,
				"z": 1.6008224834,
				"element": "C" 
			},
			{
				"x": -1.8556374986,
				"y": -0.0197195148,
				"z": -1.1702383237,
				"element": "C" 
			},
			{
				"x": -3.1119531171,
				"y": -0.3240638413,
				"z": -0.7868880518,
				"element": "N" 
			},
			{
				"x": -4.1413599828,
				"y": 0.3227456194,
				"z": -1.3231745431,
				"element": "N" 
			},
			{
				"x": -3.9773085162,
				"y": 1.2628533865,
				"z": -2.2459304132,
				"element": "C" 
			},
			{
				"x": -5.2589869573,
				"y": 1.8900694307,
				"z": -2.7647351666,
				"element": "C" 
			},
			{
				"x": -6.3989847286,
				"y": 1.3672093428,
				"z": -2.1348533509,
				"element": "O" 
			},
			{
				"x": -2.6939016265,
				"y": 1.6314825422,
				"z": -2.6872684498,
				"element": "C" 
			},
			{
				"x": -1.6075712284,
				"y": 0.9896972625,
				"z": -2.1426881781,
				"element": "C" 
			},
			{
				"x": 3.7014042685,
				"y": 0.0885942398,
				"z": 3.6356587796,
				"element": "H" 
			},
			{
				"x": 3.0258267948,
				"y": 0.4382667179,
				"z": 0.9224092975,
				"element": "H" 
			},
			{
				"x": 1.903972201,
				"y": 0.6609929334,
				"z": 2.2687702885,
				"element": "H" 
			},
			{
				"x": 3.326387644,
				"y": -1.9612360347,
				"z": 1.5302350991,
				"element": "H" 
			},
			{
				"x": 2.2403946368,
				"y": -1.7775815902,
				"z": 2.8981241594,
				"element": "H" 
			},
			{
				"x": 2.4673202294,
				"y": -1.4538564481,
				"z": -0.6438092671,
				"element": "H" 
			},
			{
				"x": 1.147568934,
				"y": -2.5827709843,
				"z": -0.90740067,
				"element": "H" 
			},
			{
				"x": 0.9246521878,
				"y": 0.4575056474,
				"z": -0.6205118272,
				"element": "H" 
			},
			{
				"x": 0.6459357589,
				"y": -0.5343007926,
				"z": -2.0616238072,
				"element": "H" 
			},
			{
				"x": -1.1442587391,
				"y": -2.6860138665,
				"z": 0.1741253165,
				"element": "H" 
			},
			{
				"x": -2.0838036086,
				"y": -1.4093969293,
				"z": 0.9414080786,
				"element": "H" 
			},
			{
				"x": -0.2493344794,
				"y": -2.1801030866,
				"z": 2.4350214146,
				"element": "H" 
			},
			{
				"x": -0.0808164352,
				"y": -0.4739799179,
				"z": 2.0020062737,
				"element": "H" 
			},
			{
				"x": -5.207276868,
				"y": 2.9818504557,
				"z": -2.6153412574,
				"element": "H" 
			},
			{
				"x": -5.3149758236,
				"y": 1.7314044105,
				"z": -3.855570524,
				"element": "H" 
			},
			{
				"x": -6.0622337755,
				"y": 0.6896431933,
				"z": -1.5194057611,
				"element": "H" 
			},
			{
				"x": -2.5662177094,
				"y": 2.4121571601,
				"z": -3.4326625487,
				"element": "H" 
			},
			{
				"x": -0.5998958915,
				"y": 1.2571529148,
				"z": -2.4360939434,
				"element": "H" 
			}
		],
		 "valence_orbital": [ 
			{
				"type": "occ",
				"energy": -0.28413,
				"method": "rhf"
			},
			{
				"type": "occ",
				"energy": -0.24941,
				"method": "rhf"
			},
			{
				"type": "occ",
				"energy": -0.23181,
				"method": "rhf"
			},
			{
				"type": "occ",
				"energy": -0.21283,
				"method": "rhf"
			},
			{
				"type": "occ",
				"energy": -0.20779,
				"method": "rhf"
			},
			{
				"type": "unocc",
				"energy": -0.04661,
				"method": "rhf"
			},
			{
				"type": "unocc",
				"energy": -0.00386,
				"method": "rhf"
			},
			{
				"type": "unocc",
				"energy": 0.06074,
				"method": "rhf"
			},
			{
				"type": "unocc",
				"energy": 0.06751,
				"method": "rhf"
			},
			{
				"type": "unocc",
				"energy": 0.09139,
				"method": "rhf"
			}
		],
		"cosmo_sigma_profile": { 
			"-0.025": 0.0,
			"-0.024": 0.0,
			"-0.023": 0.0,
			"-0.022": 0.0,
			"-0.021": 0.0,
			"-0.02": 0.0,
			"-0.019": 0.0,
			"-0.018": 0.0,
			"-0.017": 0.0,
			"-0.016": 0.158052354189,
			"-0.015": 0.851200968377,
			"-0.014": 0.858983095355,
			"-0.013": 1.29089194466,
			"-0.012": 0.656237926015,
			"-0.011": 1.06552804743,
			"-0.01": 1.0440212258,
			"-0.009": 0.631697609439,
			"-0.008": 4.20576851485,
			"-0.007": 7.57755011848,
			"-0.006": 10.2600418986,
			"-0.005": 18.3603731853,
			"-0.004": 30.2327883933,
			"-0.003": 40.3167176909,
			"-0.002": 26.4889399953,
			"-0.001": 19.7342106688,
			"0.0": 19.7505783509,
			"0.001": 17.7257753082,
			"0.002": 11.8080719216,
			"0.003": 7.67803715576,
			"0.004": 6.97942155176,
			"0.005": 6.19082198662,
			"0.006": 4.68534823768,
			"0.007": 4.88963561293,
			"0.008": 5.56432407041,
			"0.009": 4.7655233332,
			"0.01": 3.98985608904,
			"0.011": 4.82274413097,
			"0.012": 4.99729867582,
			"0.013": 5.3824516101,
			"0.014": 6.25804272967,
			"0.015": 3.18269876547,
			"0.016": 0.0,
			"0.017": 0.0,
			"0.018": 0.0,
			"0.019": 0.0,
			"0.02": 0.0,
			"0.021": 0.0,
			"0.022": 0.0,
			"0.023": 0.0,
			"0.024": 0.0,
			"0.025": 0.0
		}
	}
}
