{
	 "smiles": "CCCCCC(O)C#C", 
	 "Tm": 213.15, 
	 "num_atms": 23, 
	 "gaussian": { 
		 "optdone": 1, 
		 "sigma_profile": "yes", 
		 "theory": "DFT", 
		 "functional": "B3LYP", 
		 "basiset": "6-31G**", 
		 "properties": { 
			 "R2extent": 2516.1241, 
			 "electric_dipole_moment_norm": 1.94423602734, 
			 "electric_quadrupole_moment_norm": 10.9080605137, 
			 "total_energy": -388.438300579, 
			 "HOMO_LUMO_gap": 0.29071, 
			 "cosmo_polarized_energy": -9.13, 
			 "cosmo_cavitation_energy": 25.99, 
			 "cosmo_dispersion_energy": -17.84, 
			 "cosmo_repulsion_energy": 1.5, 
			 "cosmo_total_nonelectrostatic_energy": 9.65, 
			 "SMD_solvation_energy": 5.44 
		},
		"coords": [
			{
				"x": -0.0399812185,
				"y": 0.0618501988,
				"z": 3.0130477766,
				"element": "C" 
			},
			{
				"x": 0.8735269672,
				"y": -0.3134960178,
				"z": 1.8401884038,
				"element": "C" 
			},
			{
				"x": 0.1407093368,
				"y": -0.5043927328,
				"z": 0.5003381412,
				"element": "C" 
			},
			{
				"x": -0.5752104969,
				"y": 0.7361702406,
				"z": -0.06252269,
				"element": "C" 
			},
			{
				"x": 0.3641932585,
				"y": 1.8956554056,
				"z": -0.4153665319,
				"element": "C" 
			},
			{
				"x": -0.3486519091,
				"y": 3.1169570444,
				"z": -1.0324877366,
				"element": "C" 
			},
			{
				"x": 0.5691797656,
				"y": 4.1835626522,
				"z": -1.2809801169,
				"element": "O" 
			},
			{
				"x": -0.9990348351,
				"y": 2.7888157221,
				"z": -2.3061753137,
				"element": "C" 
			},
			{
				"x": -1.5475063673,
				"y": 2.4942527889,
				"z": -3.3403300141,
				"element": "C" 
			},
			{
				"x": 0.5248725644,
				"y": 0.1217972356,
				"z": 3.9491549853,
				"element": "H" 
			},
			{
				"x": -0.5250605337,
				"y": 1.032142858,
				"z": 2.8619870632,
				"element": "H" 
			},
			{
				"x": -0.8320751071,
				"y": -0.6835103532,
				"z": 3.1503226958,
				"element": "H" 
			},
			{
				"x": 1.3949805898,
				"y": -1.2486956135,
				"z": 2.0806005032,
				"element": "H" 
			},
			{
				"x": 1.6608485897,
				"y": 0.4439085658,
				"z": 1.7321170666,
				"element": "H" 
			},
			{
				"x": -0.6001378435,
				"y": -1.3067907643,
				"z": 0.6182060838,
				"element": "H" 
			},
			{
				"x": 0.8600938839,
				"y": -0.8640019804,
				"z": -0.2477344073,
				"element": "H" 
			},
			{
				"x": -1.1221175884,
				"y": 0.4434939507,
				"z": -0.9662628067,
				"element": "H" 
			},
			{
				"x": -1.3347537855,
				"y": 1.0853346756,
				"z": 0.6500241894,
				"element": "H" 
			},
			{
				"x": 0.8833244265,
				"y": 2.2488429845,
				"z": 0.4864710913,
				"element": "H" 
			},
			{
				"x": 1.1371696127,
				"y": 1.56452553,
				"z": -1.1188875685,
				"element": "H" 
			},
			{
				"x": -1.1346525659,
				"y": 3.4496372546,
				"z": -0.3315039209,
				"element": "H" 
			},
			{
				"x": 0.9820790463,
				"y": 4.4021654405,
				"z": -0.4346282788,
				"element": "H" 
			},
			{
				"x": -2.0262957903,
				"y": 2.2455749141,
				"z": -4.2589786146,
				"element": "H" 
			}
		],
		 "valence_orbital": [ 
			{
				"type": "occ",
				"energy": -0.31935,
				"method": "rhf"
			},
			{
				"type": "occ",
				"energy": -0.31622,
				"method": "rhf"
			},
			{
				"type": "occ",
				"energy": -0.28206,
				"method": "rhf"
			},
			{
				"type": "occ",
				"energy": -0.27166,
				"method": "rhf"
			},
			{
				"type": "occ",
				"energy": -0.25625,
				"method": "rhf"
			},
			{
				"type": "unocc",
				"energy": 0.03446,
				"method": "rhf"
			},
			{
				"type": "unocc",
				"energy": 0.04936,
				"method": "rhf"
			},
			{
				"type": "unocc",
				"energy": 0.08667,
				"method": "rhf"
			},
			{
				"type": "unocc",
				"energy": 0.09561,
				"method": "rhf"
			},
			{
				"type": "unocc",
				"energy": 0.11467,
				"method": "rhf"
			}
		],
		"cosmo_sigma_profile": { 
			"-0.025": 0.0,
			"-0.024": 0.0,
			"-0.023": 0.0,
			"-0.022": 0.0,
			"-0.021": 0.0,
			"-0.02": 0.0,
			"-0.019": 0.0,
			"-0.018": 0.0,
			"-0.017": 0.0,
			"-0.016": 0.359983610029,
			"-0.015": 1.17805163792,
			"-0.014": 0.684760475355,
			"-0.013": 0.950020641871,
			"-0.012": 1.67385491054,
			"-0.011": 2.31647572147,
			"-0.01": 2.2619574503,
			"-0.009": 1.9799903634,
			"-0.008": 2.26893048961,
			"-0.007": 2.12720365452,
			"-0.006": 2.80943769751,
			"-0.005": 5.8351384022,
			"-0.004": 5.86597498651,
			"-0.003": 10.5738330454,
			"-0.002": 25.5543332376,
			"-0.001": 25.2287902562,
			"0.0": 30.8628174452,
			"0.001": 25.0224859275,
			"0.002": 12.0004291762,
			"0.003": 6.39229508156,
			"0.004": 5.66703124294,
			"0.005": 4.77529200727,
			"0.006": 6.64119985038,
			"0.007": 6.30861790384,
			"0.008": 2.35028649122,
			"0.009": 1.75086853824,
			"0.01": 1.5243310851,
			"0.011": 1.80625446396,
			"0.012": 1.61563835805,
			"0.013": 2.22892953454,
			"0.014": 1.75740251965,
			"0.015": 0.0,
			"0.016": 0.0,
			"0.017": 0.0,
			"0.018": 0.0,
			"0.019": 0.0,
			"0.02": 0.0,
			"0.021": 0.0,
			"0.022": 0.0,
			"0.023": 0.0,
			"0.024": 0.0,
			"0.025": 0.0
		}
	}
}
