{
	 "smiles": "FC(F)(F)C(=O)CC(=O)C1=CC2=CC=CC=C2C=C1", 
	 "Tm": 347.15, 
	 "num_atms": 28, 
	 "gaussian": { 
		 "optdone": 1, 
		 "sigma_profile": "yes", 
		 "theory": "DFT", 
		 "functional": "B3LYP", 
		 "basiset": "6-31G**", 
		 "properties": { 
			 "R2extent": 7309.7516, 
			 "electric_dipole_moment_norm": 6.01154958808, 
			 "electric_quadrupole_moment_norm": 10.8456221836, 
			 "total_energy": -988.880906895, 
			 "HOMO_LUMO_gap": 0.15684, 
			 "cosmo_polarized_energy": -12.79, 
			 "cosmo_cavitation_energy": 34.85, 
			 "cosmo_dispersion_energy": -24.3, 
			 "cosmo_repulsion_energy": 1.78, 
			 "cosmo_total_nonelectrostatic_energy": 12.33, 
			 "SMD_solvation_energy": 7.8 
		},
		"coords": [
			{
				"x": 3.0420109554,
				"y": 4.384179996,
				"z": -0.3439141082,
				"element": "F" 
			},
			{
				"x": 3.1440036161,
				"y": 3.376122961,
				"z": -1.2453645211,
				"element": "C" 
			},
			{
				"x": 3.6311674046,
				"y": 2.302829616,
				"z": -0.5942822923,
				"element": "F" 
			},
			{
				"x": 4.0054131025,
				"y": 3.7383670702,
				"z": -2.1931215449,
				"element": "F" 
			},
			{
				"x": 1.7299308406,
				"y": 3.1081303266,
				"z": -1.8164290529,
				"element": "C" 
			},
			{
				"x": 1.4190450571,
				"y": 3.5683587632,
				"z": -2.8861016753,
				"element": "O" 
			},
			{
				"x": 0.7978622121,
				"y": 2.3199384408,
				"z": -0.9168411417,
				"element": "C" 
			},
			{
				"x": 1.0228171443,
				"y": 0.8096864011,
				"z": -1.1051905638,
				"element": "C" 
			},
			{
				"x": 1.8087221925,
				"y": 0.418906458,
				"z": -1.9536030103,
				"element": "O" 
			},
			{
				"x": 0.2551398405,
				"y": -0.1392783232,
				"z": -0.2514070883,
				"element": "C" 
			},
			{
				"x": -0.6656741223,
				"y": 0.2783553032,
				"z": 0.69441223,
				"element": "C" 
			},
			{
				"x": -1.382663318,
				"y": -0.655605641,
				"z": 1.4847455842,
				"element": "C" 
			},
			{
				"x": -2.3321114864,
				"y": -0.2455021827,
				"z": 2.4600954149,
				"element": "C" 
			},
			{
				"x": -3.0120471843,
				"y": -1.1758623327,
				"z": 3.2128468289,
				"element": "C" 
			},
			{
				"x": -2.7722929793,
				"y": -2.5592091066,
				"z": 3.0231738384,
				"element": "C" 
			},
			{
				"x": -1.8584416439,
				"y": -2.988239669,
				"z": 2.0855713017,
				"element": "C" 
			},
			{
				"x": -1.1406473604,
				"y": -2.0553856083,
				"z": 1.292779105,
				"element": "C" 
			},
			{
				"x": -0.1892581377,
				"y": -2.4584818727,
				"z": 0.3132843241,
				"element": "C" 
			},
			{
				"x": 0.4883830786,
				"y": -1.5328179868,
				"z": -0.4378780824,
				"element": "C" 
			},
			{
				"x": -0.2305848262,
				"y": 2.5727435515,
				"z": -1.1938353025,
				"element": "H" 
			},
			{
				"x": 0.9497158424,
				"y": 2.5968475149,
				"z": 0.1323008788,
				"element": "H" 
			},
			{
				"x": -0.862962636,
				"y": 1.3347980196,
				"z": 0.8520562847,
				"element": "H" 
			},
			{
				"x": -2.512632537,
				"y": 0.8169406679,
				"z": 2.6020542497,
				"element": "H" 
			},
			{
				"x": -3.735379732,
				"y": -0.853133694,
				"z": 3.955601141,
				"element": "H" 
			},
			{
				"x": -3.3150616324,
				"y": -3.2836069435,
				"z": 3.6233154586,
				"element": "H" 
			},
			{
				"x": -1.6750782891,
				"y": -4.049472288,
				"z": 1.940429855,
				"element": "H" 
			},
			{
				"x": -0.0071737748,
				"y": -3.5200973637,
				"z": 0.1684738247,
				"element": "H" 
			},
			{
				"x": 1.2133983731,
				"y": -1.8305120777,
				"z": -1.1870719362,
				"element": "H" 
			}
		],
		 "valence_orbital": [ 
			{
				"type": "occ",
				"energy": -0.30346,
				"method": "rhf"
			},
			{
				"type": "occ",
				"energy": -0.2815,
				"method": "rhf"
			},
			{
				"type": "occ",
				"energy": -0.26884,
				"method": "rhf"
			},
			{
				"type": "occ",
				"energy": -0.26152,
				"method": "rhf"
			},
			{
				"type": "occ",
				"energy": -0.23582,
				"method": "rhf"
			},
			{
				"type": "unocc",
				"energy": -0.07898,
				"method": "rhf"
			},
			{
				"type": "unocc",
				"energy": -0.05545,
				"method": "rhf"
			},
			{
				"type": "unocc",
				"energy": -0.04371,
				"method": "rhf"
			},
			{
				"type": "unocc",
				"energy": 0.00037,
				"method": "rhf"
			},
			{
				"type": "unocc",
				"energy": 0.0218,
				"method": "rhf"
			}
		],
		"cosmo_sigma_profile": { 
			"-0.025": 0.0,
			"-0.024": 0.0,
			"-0.023": 0.0,
			"-0.022": 0.0,
			"-0.021": 0.0,
			"-0.02": 0.0,
			"-0.019": 0.0,
			"-0.018": 0.0,
			"-0.017": 0.0,
			"-0.016": 0.0,
			"-0.015": 0.0,
			"-0.014": 0.0,
			"-0.013": 0.0,
			"-0.012": 0.0,
			"-0.011": 0.0,
			"-0.01": 0.303464584119,
			"-0.009": 4.9101629775,
			"-0.008": 7.81102230633,
			"-0.007": 11.2606453061,
			"-0.006": 17.7631079508,
			"-0.005": 16.3332824735,
			"-0.004": 15.07750617,
			"-0.003": 13.0535452746,
			"-0.002": 14.3979984221,
			"-0.001": 13.6731744163,
			"0.0": 17.1656515385,
			"0.001": 25.447397337,
			"0.002": 46.0729466499,
			"0.003": 27.5711819535,
			"0.004": 17.4665556971,
			"0.005": 6.03677980001,
			"0.006": 3.4402270582,
			"0.007": 4.18493989202,
			"0.008": 5.18748902362,
			"0.009": 6.35055099315,
			"0.01": 4.19672027305,
			"0.011": 2.30433283781,
			"0.012": 0.0281192768324,
			"0.013": 0.0,
			"0.014": 0.0,
			"0.015": 0.0,
			"0.016": 0.0,
			"0.017": 0.0,
			"0.018": 0.0,
			"0.019": 0.0,
			"0.02": 0.0,
			"0.021": 0.0,
			"0.022": 0.0,
			"0.023": 0.0,
			"0.024": 0.0,
			"0.025": 0.0
		}
	}
}
