{
	 "smiles": "OC1=C(F)C=CC(F)=C1F", 
	 "Tm": 306.65, 
	 "num_atms": 13, 
	 "gaussian": { 
		 "optdone": 1, 
		 "sigma_profile": "yes", 
		 "theory": "DFT", 
		 "functional": "B3LYP", 
		 "basiset": "6-31G**", 
		 "properties": { 
			 "R2extent": 2285.5628, 
			 "electric_dipole_moment_norm": 0.605511560583, 
			 "electric_quadrupole_moment_norm": 10.270492438, 
			 "total_energy": -605.149965119, 
			 "HOMO_LUMO_gap": 0.22414, 
			 "cosmo_polarized_energy": -6.31, 
			 "cosmo_cavitation_energy": 19.13, 
			 "cosmo_dispersion_energy": -14.0, 
			 "cosmo_repulsion_energy": 1.07, 
			 "cosmo_total_nonelectrostatic_energy": 6.2, 
			 "SMD_solvation_energy": 5.24 
		},
		"coords": [
			{
				"x": -0.585501266,
				"y": -0.8092238706,
				"z": -1.4240863819,
				"element": "O" 
			},
			{
				"x": -0.7104871261,
				"y": -1.1384180383,
				"z": -0.1151397816,
				"element": "C" 
			},
			{
				"x": -1.1084714418,
				"y": -0.1775742771,
				"z": 0.8229218289,
				"element": "C" 
			},
			{
				"x": -1.3598544991,
				"y": 1.0694034456,
				"z": 0.3867690458,
				"element": "F" 
			},
			{
				"x": -1.2429486068,
				"y": -0.4923775782,
				"z": 2.1674007783,
				"element": "C" 
			},
			{
				"x": -0.9801811719,
				"y": -1.7906909883,
				"z": 2.6150084056,
				"element": "C" 
			},
			{
				"x": -0.5847162344,
				"y": -2.7544451347,
				"z": 1.6975104921,
				"element": "C" 
			},
			{
				"x": -0.3221852363,
				"y": -4.0144714854,
				"z": 2.0850795878,
				"element": "F" 
			},
			{
				"x": -0.4529551864,
				"y": -2.4281759974,
				"z": 0.3516521881,
				"element": "C" 
			},
			{
				"x": -0.0683402689,
				"y": -3.3550410801,
				"z": -0.5573646196,
				"element": "F" 
			},
			{
				"x": -0.3042990257,
				"y": -1.6023283994,
				"z": -1.9035916242,
				"element": "H" 
			},
			{
				"x": -1.5536977632,
				"y": 0.2854872628,
				"z": 2.8554079452,
				"element": "H" 
			},
			{
				"x": -1.0777621734,
				"y": -2.061943859,
				"z": 3.6594321355,
				"element": "H" 
			}
		],
		 "valence_orbital": [ 
			{
				"type": "occ",
				"energy": -0.37682,
				"method": "rhf"
			},
			{
				"type": "occ",
				"energy": -0.37451,
				"method": "rhf"
			},
			{
				"type": "occ",
				"energy": -0.34261,
				"method": "rhf"
			},
			{
				"type": "occ",
				"energy": -0.25357,
				"method": "rhf"
			},
			{
				"type": "occ",
				"energy": -0.23782,
				"method": "rhf"
			},
			{
				"type": "unocc",
				"energy": -0.01368,
				"method": "rhf"
			},
			{
				"type": "unocc",
				"energy": -0.00203,
				"method": "rhf"
			},
			{
				"type": "unocc",
				"energy": 0.03368,
				"method": "rhf"
			},
			{
				"type": "unocc",
				"energy": 0.08924,
				"method": "rhf"
			},
			{
				"type": "unocc",
				"energy": 0.12332,
				"method": "rhf"
			}
		],
		"cosmo_sigma_profile": { 
			"-0.025": 0.0,
			"-0.024": 0.0,
			"-0.023": 0.0,
			"-0.022": 0.0,
			"-0.021": 0.0,
			"-0.02": 0.0,
			"-0.019": 0.0,
			"-0.018": 0.117164693899,
			"-0.017": 0.554143820757,
			"-0.016": 1.16046698104,
			"-0.015": 0.288278624537,
			"-0.014": 0.553182036977,
			"-0.013": 0.554622842128,
			"-0.012": 1.35224047976,
			"-0.011": 1.02894304745,
			"-0.01": 0.946285353034,
			"-0.009": 1.13596168081,
			"-0.008": 4.09109834099,
			"-0.007": 4.62494602594,
			"-0.006": 4.54466505946,
			"-0.005": 5.32828674836,
			"-0.004": 3.91749789937,
			"-0.003": 4.48743770865,
			"-0.002": 6.93779935798,
			"-0.001": 14.5531013789,
			"0.0": 17.5877259325,
			"0.001": 14.2645210417,
			"0.002": 13.5353868967,
			"0.003": 22.5385623669,
			"0.004": 17.9062037965,
			"0.005": 3.38324123928,
			"0.006": 1.54179166573,
			"0.007": 2.07112098629,
			"0.008": 1.93103759511,
			"0.009": 2.05830184855,
			"0.01": 1.56072687349,
			"0.011": 0.00510870220091,
			"0.012": 0.0,
			"0.013": 0.0,
			"0.014": 0.0,
			"0.015": 0.0,
			"0.016": 0.0,
			"0.017": 0.0,
			"0.018": 0.0,
			"0.019": 0.0,
			"0.02": 0.0,
			"0.021": 0.0,
			"0.022": 0.0,
			"0.023": 0.0,
			"0.024": 0.0,
			"0.025": 0.0
		}
	}
}
