{
	 "smiles": "CC1=NOC(=N1)C1=CC=C(CO)C=C1", 
	 "Tm": 376.15, 
	 "num_atms": 24, 
	 "gaussian": { 
		 "optdone": 1, 
		 "sigma_profile": "yes", 
		 "theory": "DFT", 
		 "functional": "B3LYP", 
		 "basiset": "6-31G**", 
		 "properties": { 
			 "R2extent": 4175.754, 
			 "electric_dipole_moment_norm": 2.39530384085, 
			 "electric_quadrupole_moment_norm": 6.94236984322, 
			 "total_energy": -647.006970157, 
			 "HOMO_LUMO_gap": 0.1861, 
			 "cosmo_polarized_energy": -11.9, 
			 "cosmo_cavitation_energy": 28.86, 
			 "cosmo_dispersion_energy": -21.38, 
			 "cosmo_repulsion_energy": 1.68, 
			 "cosmo_total_nonelectrostatic_energy": 9.16, 
			 "SMD_solvation_energy": 3.23 
		},
		"coords": [
			{
				"x": -2.051585448,
				"y": -3.196269202,
				"z": 2.4547407288,
				"element": "C" 
			},
			{
				"x": -1.2098199785,
				"y": -2.5557396904,
				"z": 1.4026473682,
				"element": "C" 
			},
			{
				"x": -0.859367782,
				"y": -3.1900337674,
				"z": 0.3090393471,
				"element": "N" 
			},
			{
				"x": -0.0901480965,
				"y": -2.2356201048,
				"z": -0.3842514954,
				"element": "O" 
			},
			{
				"x": -0.0681188038,
				"y": -1.1277585033,
				"z": 0.3814595336,
				"element": "C" 
			},
			{
				"x": -0.7402431903,
				"y": -1.2650547828,
				"z": 1.4944690627,
				"element": "N" 
			},
			{
				"x": 0.6647442531,
				"y": 0.0438488899,
				"z": -0.0898068358,
				"element": "C" 
			},
			{
				"x": 1.339501424,
				"y": 0.0343805472,
				"z": -1.3202758564,
				"element": "C" 
			},
			{
				"x": 2.0313563571,
				"y": 1.1652278344,
				"z": -1.7440789893,
				"element": "C" 
			},
			{
				"x": 2.0671720927,
				"y": 2.3202748388,
				"z": -0.9528099286,
				"element": "C" 
			},
			{
				"x": 2.7978565409,
				"y": 3.5600640535,
				"z": -1.4340547344,
				"element": "C" 
			},
			{
				"x": 3.8574351035,
				"y": 3.2891696005,
				"z": -2.3370725007,
				"element": "O" 
			},
			{
				"x": 1.3962442291,
				"y": 2.3204214789,
				"z": 0.2779888514,
				"element": "C" 
			},
			{
				"x": 0.6968477305,
				"y": 1.1986336111,
				"z": 0.7082747599,
				"element": "C" 
			},
			{
				"x": -1.5169841767,
				"y": -3.2116926638,
				"z": 3.4093175664,
				"element": "H" 
			},
			{
				"x": -2.3046521741,
				"y": -4.2181616871,
				"z": 2.1679439862,
				"element": "H" 
			},
			{
				"x": -2.9728784573,
				"y": -2.6245679537,
				"z": 2.6017706133,
				"element": "H" 
			},
			{
				"x": 1.3167358539,
				"y": -0.8570692777,
				"z": -1.9381855318,
				"element": "H" 
			},
			{
				"x": 2.5553320403,
				"y": 1.1643335209,
				"z": -2.6943350127,
				"element": "H" 
			},
			{
				"x": 2.1043010652,
				"y": 4.2034704967,
				"z": -1.9893348674,
				"element": "H" 
			},
			{
				"x": 3.1415782174,
				"y": 4.144192923,
				"z": -0.5657626409,
				"element": "H" 
			},
			{
				"x": 4.5032244309,
				"y": 2.7380213249,
				"z": -1.8748578004,
				"element": "H" 
			},
			{
				"x": 1.4254044021,
				"y": 3.2071016936,
				"z": 0.9068504802,
				"element": "H" 
			},
			{
				"x": 0.1779643666,
				"y": 1.1943268198,
				"z": 1.6608238963,
				"element": "H" 
			}
		],
		 "valence_orbital": [ 
			{
				"type": "occ",
				"energy": -0.30142,
				"method": "rhf"
			},
			{
				"type": "occ",
				"energy": -0.29191,
				"method": "rhf"
			},
			{
				"type": "occ",
				"energy": -0.28472,
				"method": "rhf"
			},
			{
				"type": "occ",
				"energy": -0.26616,
				"method": "rhf"
			},
			{
				"type": "occ",
				"energy": -0.24348,
				"method": "rhf"
			},
			{
				"type": "unocc",
				"energy": -0.05738,
				"method": "rhf"
			},
			{
				"type": "unocc",
				"energy": -0.01634,
				"method": "rhf"
			},
			{
				"type": "unocc",
				"energy": 0.01815,
				"method": "rhf"
			},
			{
				"type": "unocc",
				"energy": 0.05681,
				"method": "rhf"
			},
			{
				"type": "unocc",
				"energy": 0.07718,
				"method": "rhf"
			}
		],
		"cosmo_sigma_profile": { 
			"-0.025": 0.0,
			"-0.024": 0.0,
			"-0.023": 0.0,
			"-0.022": 0.0,
			"-0.021": 0.0,
			"-0.02": 0.0,
			"-0.019": 0.0,
			"-0.018": 0.0,
			"-0.017": 0.0,
			"-0.016": 0.571452382008,
			"-0.015": 0.883821646344,
			"-0.014": 1.06234689008,
			"-0.013": 1.0235133503,
			"-0.012": 0.841810037513,
			"-0.011": 0.166240050028,
			"-0.01": 0.837272408064,
			"-0.009": 0.855445802996,
			"-0.008": 1.21440402959,
			"-0.007": 2.59961320956,
			"-0.006": 14.1561444465,
			"-0.005": 19.0371096023,
			"-0.004": 18.5778513145,
			"-0.003": 19.1890752093,
			"-0.002": 21.6359542181,
			"-0.001": 19.3316681823,
			"0.0": 14.8632192204,
			"0.001": 14.2437237009,
			"0.002": 13.6133021033,
			"0.003": 16.256179447,
			"0.004": 8.86425913512,
			"0.005": 5.02835976705,
			"0.006": 7.49185525137,
			"0.007": 4.98685703199,
			"0.008": 2.89083954867,
			"0.009": 3.28560172881,
			"0.01": 4.29216072639,
			"0.011": 3.34820836345,
			"0.012": 3.84290904293,
			"0.013": 3.34131305589,
			"0.014": 1.88229937534,
			"0.015": 0.0,
			"0.016": 0.0,
			"0.017": 0.0,
			"0.018": 0.0,
			"0.019": 0.0,
			"0.02": 0.0,
			"0.021": 0.0,
			"0.022": 0.0,
			"0.023": 0.0,
			"0.024": 0.0,
			"0.025": 0.0
		}
	}
}
