{
	 "smiles": "FC1=CC(F)=C(C=C1)C1=NN=C2C=C(Cl)N=CN12", 
	 "Tm": 444.15, 
	 "num_atms": 23, 
	 "gaussian": { 
		 "optdone": 1, 
		 "sigma_profile": "yes", 
		 "theory": "DFT", 
		 "functional": "B3LYP", 
		 "basiset": "6-31G**", 
		 "properties": { 
			 "R2extent": 7427.6051, 
			 "electric_dipole_moment_norm": 2.77929366207, 
			 "electric_quadrupole_moment_norm": 10.9804332879, 
			 "total_energy": -1301.01537293, 
			 "HOMO_LUMO_gap": 0.15987, 
			 "cosmo_polarized_energy": -13.47, 
			 "cosmo_cavitation_energy": 31.34, 
			 "cosmo_dispersion_energy": -23.15, 
			 "cosmo_repulsion_energy": 1.7, 
			 "cosmo_total_nonelectrostatic_energy": 9.89, 
			 "SMD_solvation_energy": 2.71 
		},
		"coords": [
			{
				"x": 3.1386180803,
				"y": 2.5041070863,
				"z": 3.9748200294,
				"element": "F" 
			},
			{
				"x": 2.024078495,
				"y": 2.3277228919,
				"z": 3.246697631,
				"element": "C" 
			},
			{
				"x": 2.0944066103,
				"y": 2.5002671171,
				"z": 1.8693772978,
				"element": "C" 
			},
			{
				"x": 0.9293665776,
				"y": 2.3149494893,
				"z": 1.1392231967,
				"element": "C" 
			},
			{
				"x": 0.9866401127,
				"y": 2.5186367966,
				"z": -0.1988496121,
				"element": "F" 
			},
			{
				"x": -0.2874529577,
				"y": 1.9399252022,
				"z": 1.719998101,
				"element": "C" 
			},
			{
				"x": -0.3047450115,
				"y": 1.7908954892,
				"z": 3.1204076119,
				"element": "C" 
			},
			{
				"x": 0.8379173699,
				"y": 1.9808800536,
				"z": 3.8885038975,
				"element": "C" 
			},
			{
				"x": -1.5420223712,
				"y": 1.7791899812,
				"z": 0.9799348474,
				"element": "C" 
			},
			{
				"x": -2.7249661885,
				"y": 2.0999400314,
				"z": 1.476652269,
				"element": "N" 
			},
			{
				"x": -3.7093021111,
				"y": 1.7834766673,
				"z": 0.5884290685,
				"element": "N" 
			},
			{
				"x": -3.1179786661,
				"y": 1.2544350466,
				"z": -0.4692156054,
				"element": "C" 
			},
			{
				"x": -3.6327928808,
				"y": 0.7347125341,
				"z": -1.6814213542,
				"element": "C" 
			},
			{
				"x": -2.723332176,
				"y": 0.2080137182,
				"z": -2.5578796656,
				"element": "C" 
			},
			{
				"x": -3.2566626281,
				"y": -0.4635560999,
				"z": -4.0796807704,
				"element": "Cl" 
			},
			{
				"x": -1.379560121,
				"y": 0.151348448,
				"z": -2.3347036544,
				"element": "N" 
			},
			{
				"x": -0.9125579195,
				"y": 0.6432446527,
				"z": -1.2298899078,
				"element": "C" 
			},
			{
				"x": -1.7270886659,
				"y": 1.2194337281,
				"z": -0.2795461875,
				"element": "N" 
			},
			{
				"x": 3.0167257897,
				"y": 2.7892185156,
				"z": 1.3809094031,
				"element": "H" 
			},
			{
				"x": -1.2442657904,
				"y": 1.5260485378,
				"z": 3.5916033217,
				"element": "H" 
			},
			{
				"x": 0.8242474238,
				"y": 1.8609108073,
				"z": 4.9655091228,
				"element": "H" 
			},
			{
				"x": -4.697417706,
				"y": 0.7563300202,
				"z": -1.8716583275,
				"element": "H" 
			},
			{
				"x": 0.1498447344,
				"y": 0.6223692852,
				"z": -1.0283207129,
				"element": "H" 
			}
		],
		 "valence_orbital": [ 
			{
				"type": "occ",
				"energy": -0.31084,
				"method": "rhf"
			},
			{
				"type": "occ",
				"energy": -0.28492,
				"method": "rhf"
			},
			{
				"type": "occ",
				"energy": -0.2796,
				"method": "rhf"
			},
			{
				"type": "occ",
				"energy": -0.27117,
				"method": "rhf"
			},
			{
				"type": "occ",
				"energy": -0.23514,
				"method": "rhf"
			},
			{
				"type": "unocc",
				"energy": -0.07527,
				"method": "rhf"
			},
			{
				"type": "unocc",
				"energy": -0.05717,
				"method": "rhf"
			},
			{
				"type": "unocc",
				"energy": -0.03335,
				"method": "rhf"
			},
			{
				"type": "unocc",
				"energy": -0.01712,
				"method": "rhf"
			},
			{
				"type": "unocc",
				"energy": 0.01976,
				"method": "rhf"
			}
		],
		"cosmo_sigma_profile": { 
			"-0.025": 0.0,
			"-0.024": 0.0,
			"-0.023": 0.0,
			"-0.022": 0.0,
			"-0.021": 0.0,
			"-0.02": 0.0,
			"-0.019": 0.0,
			"-0.018": 0.0,
			"-0.017": 0.0,
			"-0.016": 0.0,
			"-0.015": 0.0,
			"-0.014": 0.0,
			"-0.013": 0.0,
			"-0.012": 0.0,
			"-0.011": 1.00500336749,
			"-0.01": 3.73452973714,
			"-0.009": 5.12685524053,
			"-0.008": 7.04234908084,
			"-0.007": 9.95905762543,
			"-0.006": 11.8412994464,
			"-0.005": 12.6019375094,
			"-0.004": 10.8942819523,
			"-0.003": 14.5237754517,
			"-0.002": 21.82790059,
			"-0.001": 27.2390386671,
			"0.0": 22.9254333343,
			"0.001": 19.0883652587,
			"0.002": 18.0695304391,
			"0.003": 23.6759875768,
			"0.004": 13.8308066646,
			"0.005": 4.51026609674,
			"0.006": 3.12293912462,
			"0.007": 2.80037950745,
			"0.008": 3.26523486001,
			"0.009": 3.95330776453,
			"0.01": 2.21029571547,
			"0.011": 3.31332279874,
			"0.012": 4.13603103774,
			"0.013": 2.91018968908,
			"0.014": 2.20133849489,
			"0.015": 1.42922557067,
			"0.016": 0.40933163421,
			"0.017": 0.0,
			"0.018": 0.0,
			"0.019": 0.0,
			"0.02": 0.0,
			"0.021": 0.0,
			"0.022": 0.0,
			"0.023": 0.0,
			"0.024": 0.0,
			"0.025": 0.0
		}
	}
}
