{
	 "smiles": "FC1=CC(=CC(F)=C1)S(Cl)(=O)=O", 
	 "Tm": 331.15, 
	 "num_atms": 15, 
	 "gaussian": { 
		 "optdone": 1, 
		 "sigma_profile": "yes", 
		 "theory": "DFT", 
		 "functional": "B3LYP", 
		 "basiset": "6-31G**", 
		 "properties": { 
			 "R2extent": 4107.4246, 
			 "electric_dipole_moment_norm": 3.76063218489, 
			 "electric_quadrupole_moment_norm": 10.9282216929, 
			 "total_energy": -1438.86550277, 
			 "HOMO_LUMO_gap": 0.18532, 
			 "cosmo_polarized_energy": -7.67, 
			 "cosmo_cavitation_energy": 24.6, 
			 "cosmo_dispersion_energy": -18.19, 
			 "cosmo_repulsion_energy": 1.36, 
			 "cosmo_total_nonelectrostatic_energy": 7.77, 
			 "SMD_solvation_energy": 4.02 
		},
		"coords": [
			{
				"x": 0.3168319645,
				"y": 2.0277723037,
				"z": 1.4264038135,
				"element": "F" 
			},
			{
				"x": 0.359419666,
				"y": 0.8488755553,
				"z": 0.789901229,
				"element": "C" 
			},
			{
				"x": 0.7667851409,
				"y": -0.2800522519,
				"z": 1.4934463738,
				"element": "C" 
			},
			{
				"x": 0.7915945683,
				"y": -1.4828592116,
				"z": 0.7899532881,
				"element": "C" 
			},
			{
				"x": 0.4309021661,
				"y": -1.5982011529,
				"z": -0.5512615684,
				"element": "C" 
			},
			{
				"x": 0.0332184339,
				"y": -0.431120687,
				"z": -1.1956122567,
				"element": "C" 
			},
			{
				"x": -0.325866955,
				"y": -0.4941165395,
				"z": -2.4855105604,
				"element": "F" 
			},
			{
				"x": -0.0103745207,
				"y": 0.8010297607,
				"z": -0.5506431451,
				"element": "C" 
			},
			{
				"x": 1.2960231229,
				"y": -2.9658676309,
				"z": 1.6630577639,
				"element": "S" 
			},
			{
				"x": 3.3933947625,
				"y": -2.9486069658,
				"z": 1.3093883371,
				"element": "Cl" 
			},
			{
				"x": 0.7702354506,
				"y": -4.1313517457,
				"z": 0.9655812226,
				"element": "O" 
			},
			{
				"x": 1.1178712074,
				"y": -2.7601343105,
				"z": 3.0938628606,
				"element": "O" 
			},
			{
				"x": 1.039679978,
				"y": -0.2199982567,
				"z": 2.539570977,
				"element": "H" 
			},
			{
				"x": 0.446554474,
				"y": -2.547815969,
				"z": -1.0712980652,
				"element": "H" 
			},
			{
				"x": -0.3257694593,
				"y": 1.6948471019,
				"z": -1.0750402701,
				"element": "H" 
			}
		],
		 "valence_orbital": [ 
			{
				"type": "occ",
				"energy": -0.34729,
				"method": "rhf"
			},
			{
				"type": "occ",
				"energy": -0.34187,
				"method": "rhf"
			},
			{
				"type": "occ",
				"energy": -0.32312,
				"method": "rhf"
			},
			{
				"type": "occ",
				"energy": -0.30122,
				"method": "rhf"
			},
			{
				"type": "occ",
				"energy": -0.28625,
				"method": "rhf"
			},
			{
				"type": "unocc",
				"energy": -0.10093,
				"method": "rhf"
			},
			{
				"type": "unocc",
				"energy": -0.05748,
				"method": "rhf"
			},
			{
				"type": "unocc",
				"energy": -0.03979,
				"method": "rhf"
			},
			{
				"type": "unocc",
				"energy": 0.03563,
				"method": "rhf"
			},
			{
				"type": "unocc",
				"energy": 0.06065,
				"method": "rhf"
			}
		],
		"cosmo_sigma_profile": { 
			"-0.025": 0.0,
			"-0.024": 0.0,
			"-0.023": 0.0,
			"-0.022": 0.0,
			"-0.021": 0.0,
			"-0.02": 0.0,
			"-0.019": 0.0,
			"-0.018": 0.0,
			"-0.017": 0.0,
			"-0.016": 0.0,
			"-0.015": 0.0,
			"-0.014": 0.0,
			"-0.013": 0.0,
			"-0.012": 0.0,
			"-0.011": 0.106093594656,
			"-0.01": 2.73215846536,
			"-0.009": 3.65356879095,
			"-0.008": 4.33575255754,
			"-0.007": 5.31043486566,
			"-0.006": 5.5798010815,
			"-0.005": 7.18254186408,
			"-0.004": 6.13597936892,
			"-0.003": 15.1159230775,
			"-0.002": 28.2146013808,
			"-0.001": 18.8902585116,
			"0.0": 12.2432640934,
			"0.001": 11.6547242392,
			"0.002": 17.1901760074,
			"0.003": 32.1595865539,
			"0.004": 6.12121385461,
			"0.005": 2.75527198104,
			"0.006": 3.98483555426,
			"0.007": 7.97473140066,
			"0.008": 8.54985591529,
			"0.009": 1.77640703865,
			"0.01": 0.0,
			"0.011": 0.0,
			"0.012": 0.0,
			"0.013": 0.0,
			"0.014": 0.0,
			"0.015": 0.0,
			"0.016": 0.0,
			"0.017": 0.0,
			"0.018": 0.0,
			"0.019": 0.0,
			"0.02": 0.0,
			"0.021": 0.0,
			"0.022": 0.0,
			"0.023": 0.0,
			"0.024": 0.0,
			"0.025": 0.0
		}
	}
}
