{
	 "smiles": "ClC1=NC=NC2=C1C=C(S2)C1=CC=CC=C1", 
	 "Tm": 413.15, 
	 "num_atms": 23, 
	 "gaussian": { 
		 "optdone": 1, 
		 "sigma_profile": "yes", 
		 "theory": "DFT", 
		 "functional": "B3LYP", 
		 "basiset": "6-31G**", 
		 "properties": { 
			 "R2extent": 5888.0438, 
			 "electric_dipole_moment_norm": 3.84090106876, 
			 "electric_quadrupole_moment_norm": 10.5980523404, 
			 "total_energy": -1429.38070059, 
			 "HOMO_LUMO_gap": 0.16114, 
			 "cosmo_polarized_energy": -7.76, 
			 "cosmo_cavitation_energy": 31.2, 
			 "cosmo_dispersion_energy": -23.75, 
			 "cosmo_repulsion_energy": 1.76, 
			 "cosmo_total_nonelectrostatic_energy": 9.22, 
			 "SMD_solvation_energy": 1.42 
		},
		"coords": [
			{
				"x": 0.2583640979,
				"y": 0.5247176607,
				"z": -4.1339683089,
				"element": "Cl" 
			},
			{
				"x": 1.097293629,
				"y": 1.2894208637,
				"z": -2.7931623597,
				"element": "C" 
			},
			{
				"x": 1.5889349962,
				"y": 2.4933097574,
				"z": -2.9918926118,
				"element": "N" 
			},
			{
				"x": 2.2297720653,
				"y": 3.0733056805,
				"z": -1.9581441618,
				"element": "C" 
			},
			{
				"x": 2.420889288,
				"y": 2.558768559,
				"z": -0.7442074981,
				"element": "N" 
			},
			{
				"x": 1.9109657917,
				"y": 1.3398594712,
				"z": -0.5795328607,
				"element": "C" 
			},
			{
				"x": 1.2166581643,
				"y": 0.6046012357,
				"z": -1.5727139521,
				"element": "C" 
			},
			{
				"x": 0.7774868619,
				"y": -0.6743317023,
				"z": -1.1117618386,
				"element": "C" 
			},
			{
				"x": 1.1228543578,
				"y": -0.9218661583,
				"z": 0.1902136691,
				"element": "C" 
			},
			{
				"x": 2.0212449305,
				"y": 0.4267171225,
				"z": 0.9111409203,
				"element": "S" 
			},
			{
				"x": 0.8392205216,
				"y": -2.1276637711,
				"z": 0.9796738409,
				"element": "C" 
			},
			{
				"x": 0.6815847896,
				"y": -3.3697905792,
				"z": 0.3371333922,
				"element": "C" 
			},
			{
				"x": 0.3927153028,
				"y": -4.5170030237,
				"z": 1.0712526221,
				"element": "C" 
			},
			{
				"x": 0.2664745193,
				"y": -4.451225561,
				"z": 2.4610071645,
				"element": "C" 
			},
			{
				"x": 0.4304283451,
				"y": -3.2268177675,
				"z": 3.1110918503,
				"element": "C" 
			},
			{
				"x": 0.712444145,
				"y": -2.0752991216,
				"z": 2.379094298,
				"element": "C" 
			},
			{
				"x": 2.6300365181,
				"y": 4.0668155126,
				"z": -2.1403870375,
				"element": "H" 
			},
			{
				"x": 0.2023109267,
				"y": -1.3614297432,
				"z": -1.7188552932,
				"element": "H" 
			},
			{
				"x": 0.8095224086,
				"y": -3.4362977969,
				"z": -0.7386742327,
				"element": "H" 
			},
			{
				"x": 0.2778350873,
				"y": -5.4671640083,
				"z": 0.5579870424,
				"element": "H" 
			},
			{
				"x": 0.0464905652,
				"y": -5.3479963081,
				"z": 3.0324208166,
				"element": "H" 
			},
			{
				"x": 0.3321576516,
				"y": -3.1649809245,
				"z": 4.190798998,
				"element": "H" 
			},
			{
				"x": 0.8142150365,
				"y": -1.1246493978,
				"z": 2.8945855406,
				"element": "H" 
			}
		],
		 "valence_orbital": [ 
			{
				"type": "occ",
				"energy": -0.29109,
				"method": "rhf"
			},
			{
				"type": "occ",
				"energy": -0.27291,
				"method": "rhf"
			},
			{
				"type": "occ",
				"energy": -0.26919,
				"method": "rhf"
			},
			{
				"type": "occ",
				"energy": -0.2663,
				"method": "rhf"
			},
			{
				"type": "occ",
				"energy": -0.23262,
				"method": "rhf"
			},
			{
				"type": "unocc",
				"energy": -0.07148,
				"method": "rhf"
			},
			{
				"type": "unocc",
				"energy": -0.04383,
				"method": "rhf"
			},
			{
				"type": "unocc",
				"energy": -0.02036,
				"method": "rhf"
			},
			{
				"type": "unocc",
				"energy": -0.01568,
				"method": "rhf"
			},
			{
				"type": "unocc",
				"energy": 0.00333,
				"method": "rhf"
			}
		],
		"cosmo_sigma_profile": { 
			"-0.025": 0.0,
			"-0.024": 0.0,
			"-0.023": 0.0,
			"-0.022": 0.0,
			"-0.021": 0.0,
			"-0.02": 0.0,
			"-0.019": 0.0,
			"-0.018": 0.0,
			"-0.017": 0.0,
			"-0.016": 0.0,
			"-0.015": 0.0,
			"-0.014": 0.0,
			"-0.013": 0.0,
			"-0.012": 0.0,
			"-0.011": 0.0,
			"-0.01": 0.0,
			"-0.009": 0.422737444844,
			"-0.008": 3.58573641541,
			"-0.007": 5.35474295225,
			"-0.006": 12.2600778724,
			"-0.005": 15.2010678795,
			"-0.004": 16.3344231009,
			"-0.003": 16.2074793586,
			"-0.002": 25.3201069917,
			"-0.001": 23.0281877516,
			"0.0": 25.9989537976,
			"0.001": 25.8928874781,
			"0.002": 23.0584749062,
			"0.003": 21.4450090501,
			"0.004": 17.8933466082,
			"0.005": 8.98603658849,
			"0.006": 2.75054237064,
			"0.007": 2.47839179292,
			"0.008": 2.44782368531,
			"0.009": 1.63470527017,
			"0.01": 1.50473090163,
			"0.011": 2.04876717307,
			"0.012": 1.70619893438,
			"0.013": 1.31608408656,
			"0.014": 0.418414185317,
			"0.015": 0.0,
			"0.016": 0.0,
			"0.017": 0.0,
			"0.018": 0.0,
			"0.019": 0.0,
			"0.02": 0.0,
			"0.021": 0.0,
			"0.022": 0.0,
			"0.023": 0.0,
			"0.024": 0.0,
			"0.025": 0.0
		}
	}
}
