{
	 "smiles": "CCOC(=O)C=P(C1=CC=CC=C1)(C1=CC=CC=C1)C1=CC=CC=C1", 
	 "Tm": 399.15, 
	 "num_atms": 46, 
	 "gaussian": { 
		 "optdone": 1, 
		 "sigma_profile": "yes", 
		 "theory": "DFT", 
		 "functional": "B3LYP", 
		 "basiset": "6-31G**", 
		 "properties": { 
			 "R2extent": 9125.7548, 
			 "electric_dipole_moment_norm": 4.80763679369, 
			 "electric_quadrupole_moment_norm": 3.69086901149, 
			 "total_energy": -1342.78352334, 
			 "HOMO_LUMO_gap": 0.14782, 
			 "cosmo_polarized_energy": -16.19, 
			 "cosmo_cavitation_energy": 50.04, 
			 "cosmo_dispersion_energy": -33.19, 
			 "cosmo_repulsion_energy": 2.56, 
			 "cosmo_total_nonelectrostatic_energy": 19.41, 
			 "SMD_solvation_energy": 9.86 
		},
		"coords": [
			{
				"x": -3.0839045945,
				"y": -2.3701879676,
				"z": -3.2941777828,
				"element": "C" 
			},
			{
				"x": -3.5739964459,
				"y": -1.7139220599,
				"z": -2.0093648151,
				"element": "C" 
			},
			{
				"x": -2.6048433736,
				"y": -1.8216968954,
				"z": -0.9550794749,
				"element": "O" 
			},
			{
				"x": -1.6315102116,
				"y": -0.8513607302,
				"z": -0.9252755933,
				"element": "C" 
			},
			{
				"x": -1.6191705258,
				"y": 0.0752864135,
				"z": -1.7491714768,
				"element": "O" 
			},
			{
				"x": -0.7105454297,
				"y": -1.0457633966,
				"z": 0.1399003358,
				"element": "C" 
			},
			{
				"x": 0.5497240838,
				"y": 0.0832008176,
				"z": 0.4181880024,
				"element": "P" 
			},
			{
				"x": 1.8393463155,
				"y": 0.2646348015,
				"z": -0.8841105638,
				"element": "C" 
			},
			{
				"x": 3.2059234734,
				"y": 0.1920601179,
				"z": -0.5725137761,
				"element": "C" 
			},
			{
				"x": 4.1652247558,
				"y": 0.3225365231,
				"z": -1.5791171207,
				"element": "C" 
			},
			{
				"x": 3.7687080278,
				"y": 0.5231307488,
				"z": -2.9014082154,
				"element": "C" 
			},
			{
				"x": 2.4093604416,
				"y": 0.5936909118,
				"z": -3.2164922063,
				"element": "C" 
			},
			{
				"x": 1.4432834943,
				"y": 0.4681691264,
				"z": -2.2187649044,
				"element": "C" 
			},
			{
				"x": -0.019305443,
				"y": 1.7989945074,
				"z": 0.7425831883,
				"element": "C" 
			},
			{
				"x": -1.3249734772,
				"y": 1.9889539082,
				"z": 1.214190634,
				"element": "C" 
			},
			{
				"x": -1.7838344077,
				"y": 3.2729254982,
				"z": 1.5072697355,
				"element": "C" 
			},
			{
				"x": -0.9433253095,
				"y": 4.3740868658,
				"z": 1.33115899,
				"element": "C" 
			},
			{
				"x": 0.3572485769,
				"y": 4.1913407987,
				"z": 0.8561703867,
				"element": "C" 
			},
			{
				"x": 0.8183789456,
				"y": 2.9087912892,
				"z": 0.5568312587,
				"element": "C" 
			},
			{
				"x": 1.4203766949,
				"y": -0.4957090788,
				"z": 1.9191997214,
				"element": "C" 
			},
			{
				"x": 1.699754256,
				"y": 0.3631596291,
				"z": 2.9907131935,
				"element": "C" 
			},
			{
				"x": 2.3585610049,
				"y": -0.1181620897,
				"z": 4.1241405934,
				"element": "C" 
			},
			{
				"x": 2.7438479639,
				"y": -1.456911351,
				"z": 4.196510445,
				"element": "C" 
			},
			{
				"x": 2.4703650075,
				"y": -2.3183124554,
				"z": 3.1310443348,
				"element": "C" 
			},
			{
				"x": 1.8144442013,
				"y": -1.8426819168,
				"z": 1.9966804152,
				"element": "C" 
			},
			{
				"x": -3.8699960134,
				"y": -2.3455322409,
				"z": -4.0574589924,
				"element": "H" 
			},
			{
				"x": -2.8083985859,
				"y": -3.4145484901,
				"z": -3.1171145147,
				"element": "H" 
			},
			{
				"x": -2.2120109624,
				"y": -1.8360778023,
				"z": -3.6796218962,
				"element": "H" 
			},
			{
				"x": -3.8069848953,
				"y": -0.6599081612,
				"z": -2.1821864786,
				"element": "H" 
			},
			{
				"x": -4.463970551,
				"y": -2.2212558191,
				"z": -1.6241092315,
				"element": "H" 
			},
			{
				"x": -0.8096687359,
				"y": -1.876521551,
				"z": 0.8243712098,
				"element": "H" 
			},
			{
				"x": 3.5265310398,
				"y": 0.0305765915,
				"z": 0.4513881357,
				"element": "H" 
			},
			{
				"x": 5.2203668107,
				"y": 0.2647200016,
				"z": -1.3270962665,
				"element": "H" 
			},
			{
				"x": 4.5156521123,
				"y": 0.6225876079,
				"z": -3.6840840833,
				"element": "H" 
			},
			{
				"x": 2.0970499043,
				"y": 0.7471563057,
				"z": -4.2455569135,
				"element": "H" 
			},
			{
				"x": 0.3846933556,
				"y": 0.5148590589,
				"z": -2.4566507873,
				"element": "H" 
			},
			{
				"x": -1.9733663795,
				"y": 1.1264893906,
				"z": 1.3341720406,
				"element": "H" 
			},
			{
				"x": -2.7995308135,
				"y": 3.4140548186,
				"z": 1.8651081716,
				"element": "H" 
			},
			{
				"x": -1.3030977373,
				"y": 5.3740895993,
				"z": 1.5564324144,
				"element": "H" 
			},
			{
				"x": 1.009849339,
				"y": 5.0471620236,
				"z": 0.7094752632,
				"element": "H" 
			},
			{
				"x": 1.8239877821,
				"y": 2.7739905327,
				"z": 0.1705856967,
				"element": "H" 
			},
			{
				"x": 1.3981703999,
				"y": 1.4041448443,
				"z": 2.9454748203,
				"element": "H" 
			},
			{
				"x": 2.5659525569,
				"y": 0.5548948921,
				"z": 4.950887089,
				"element": "H" 
			},
			{
				"x": 3.2548590724,
				"y": -1.8294316316,
				"z": 5.0796407661,
				"element": "H" 
			},
			{
				"x": 2.7676575147,
				"y": -3.3615949669,
				"z": 3.1825409858,
				"element": "H" 
			},
			{
				"x": 1.6023167618,
				"y": -2.5157090193,
				"z": 1.1718972655,
				"element": "H" 
			}
		],
		 "valence_orbital": [ 
			{
				"type": "occ",
				"energy": -0.25616,
				"method": "rhf"
			},
			{
				"type": "occ",
				"energy": -0.25368,
				"method": "rhf"
			},
			{
				"type": "occ",
				"energy": -0.25101,
				"method": "rhf"
			},
			{
				"type": "occ",
				"energy": -0.22882,
				"method": "rhf"
			},
			{
				"type": "occ",
				"energy": -0.18183,
				"method": "rhf"
			},
			{
				"type": "unocc",
				"energy": -0.03401,
				"method": "rhf"
			},
			{
				"type": "unocc",
				"energy": -0.02812,
				"method": "rhf"
			},
			{
				"type": "unocc",
				"energy": -0.02296,
				"method": "rhf"
			},
			{
				"type": "unocc",
				"energy": -0.01924,
				"method": "rhf"
			},
			{
				"type": "unocc",
				"energy": -0.00687,
				"method": "rhf"
			}
		],
		"cosmo_sigma_profile": { 
			"-0.025": 0.0,
			"-0.024": 0.0,
			"-0.023": 0.0,
			"-0.022": 0.0,
			"-0.021": 0.0,
			"-0.02": 0.0,
			"-0.019": 0.0,
			"-0.018": 0.0,
			"-0.017": 0.0,
			"-0.016": 0.0,
			"-0.015": 0.0,
			"-0.014": 0.0,
			"-0.013": 0.0,
			"-0.012": 0.0,
			"-0.011": 0.0,
			"-0.01": 0.0,
			"-0.009": 0.0,
			"-0.008": 0.0,
			"-0.007": 3.84795708355,
			"-0.006": 22.5791260828,
			"-0.005": 32.1781127539,
			"-0.004": 36.0863075091,
			"-0.003": 33.0528239714,
			"-0.002": 37.2743250162,
			"-0.001": 32.0756123296,
			"0.0": 31.0234596881,
			"0.001": 32.2356221745,
			"0.002": 30.443644511,
			"0.003": 29.6780061232,
			"0.004": 32.8161765468,
			"0.005": 12.8914547138,
			"0.006": 5.7368099814,
			"0.007": 5.12159695291,
			"0.008": 4.92460659001,
			"0.009": 3.92192707681,
			"0.01": 3.4774322009,
			"0.011": 2.97624738868,
			"0.012": 1.95186785663,
			"0.013": 1.4582831922,
			"0.014": 1.82792576336,
			"0.015": 1.24971052218,
			"0.016": 0.0,
			"0.017": 0.0,
			"0.018": 0.0,
			"0.019": 0.0,
			"0.02": 0.0,
			"0.021": 0.0,
			"0.022": 0.0,
			"0.023": 0.0,
			"0.024": 0.0,
			"0.025": 0.0
		}
	}
}
