{
	 "smiles": "[O-][N+](=O)C1=CC2=C(C=C1)C(=O)N(C2=O)C1=CC=C(F)C=C1", 
	 "Tm": 481.15, 
	 "num_atms": 28, 
	 "gaussian": { 
		 "optdone": 1, 
		 "sigma_profile": "yes", 
		 "theory": "DFT", 
		 "functional": "B3LYP", 
		 "basiset": "6-31G**", 
		 "properties": { 
			 "R2extent": 8706.302, 
			 "electric_dipole_moment_norm": 2.05970887991, 
			 "electric_quadrupole_moment_norm": 21.6068624428, 
			 "total_energy": -1047.86070569, 
			 "HOMO_LUMO_gap": 0.11507, 
			 "cosmo_polarized_energy": -12.17, 
			 "cosmo_cavitation_energy": 35.03, 
			 "cosmo_dispersion_energy": -25.57, 
			 "cosmo_repulsion_energy": 1.84, 
			 "cosmo_total_nonelectrostatic_energy": 11.3, 
			 "SMD_solvation_energy": 9.83 
		},
		"coords": [
			{
				"x": 4.7868739872,
				"y": -3.9574108465,
				"z": 1.6539064448,
				"element": "O" 
			},
			{
				"x": 4.1543395615,
				"y": -3.5967680407,
				"z": 2.6433925394,
				"element": "N" 
			},
			{
				"x": 4.37371636,
				"y": -3.9609145379,
				"z": 3.7965076686,
				"element": "O" 
			},
			{
				"x": 3.0410646533,
				"y": -2.6491496005,
				"z": 2.4265139931,
				"element": "C" 
			},
			{
				"x": 2.7758539177,
				"y": -2.2231404829,
				"z": 1.1217846314,
				"element": "C" 
			},
			{
				"x": 1.7207226397,
				"y": -1.3359665637,
				"z": 0.9840296969,
				"element": "C" 
			},
			{
				"x": 0.9774687414,
				"y": -0.9005990262,
				"z": 2.0731348412,
				"element": "C" 
			},
			{
				"x": 1.2466759442,
				"y": -1.3280062095,
				"z": 3.3664125932,
				"element": "C" 
			},
			{
				"x": 2.306191141,
				"y": -2.2241984409,
				"z": 3.5379081921,
				"element": "C" 
			},
			{
				"x": -0.0708625905,
				"y": 0.0372083387,
				"z": 1.5827479763,
				"element": "C" 
			},
			{
				"x": -0.8943341071,
				"y": 0.6022629241,
				"z": 2.2720375983,
				"element": "O" 
			},
			{
				"x": 0.0911468179,
				"y": 0.1297000567,
				"z": 0.1710217604,
				"element": "N" 
			},
			{
				"x": 1.1784993775,
				"y": -0.6951402227,
				"z": -0.2451307911,
				"element": "C" 
			},
			{
				"x": 1.5929894744,
				"y": -0.8548435012,
				"z": -1.3734069537,
				"element": "O" 
			},
			{
				"x": -0.7206299615,
				"y": 0.9346067486,
				"z": -0.7051299237,
				"element": "C" 
			},
			{
				"x": -0.4727570309,
				"y": 0.9540646838,
				"z": -2.0894084505,
				"element": "C" 
			},
			{
				"x": -1.2598767614,
				"y": 1.7337066378,
				"z": -2.9338366421,
				"element": "C" 
			},
			{
				"x": -2.2921272211,
				"y": 2.4926908818,
				"z": -2.4003966048,
				"element": "C" 
			},
			{
				"x": -3.051927896,
				"y": 3.2460506368,
				"z": -3.2200128339,
				"element": "F" 
			},
			{
				"x": -2.5558444121,
				"y": 2.4896198647,
				"z": -1.0378706457,
				"element": "C" 
			},
			{
				"x": -1.7723899146,
				"y": 1.7120795205,
				"z": -0.1880566528,
				"element": "C" 
			},
			{
				"x": 3.3658297261,
				"y": -2.5730355086,
				"z": 0.28410797,
				"element": "H" 
			},
			{
				"x": 0.6570977813,
				"y": -0.9789249745,
				"z": 4.2070274158,
				"element": "H" 
			},
			{
				"x": 2.5776639749,
				"y": -2.6030547597,
				"z": 4.5153757951,
				"element": "H" 
			},
			{
				"x": 0.32858427,
				"y": 0.365432687,
				"z": -2.5072997615,
				"element": "H" 
			},
			{
				"x": -1.0734553558,
				"y": 1.7526804296,
				"z": -4.0020145826,
				"element": "H" 
			},
			{
				"x": -3.3681696459,
				"y": 3.0911707744,
				"z": -0.6449492585,
				"element": "H" 
			},
			{
				"x": -1.9800434713,
				"y": 1.7118785311,
				"z": 0.870303984,
				"element": "H" 
			}
		],
		 "valence_orbital": [ 
			{
				"type": "occ",
				"energy": -0.31045,
				"method": "rhf"
			},
			{
				"type": "occ",
				"energy": -0.30834,
				"method": "rhf"
			},
			{
				"type": "occ",
				"energy": -0.29038,
				"method": "rhf"
			},
			{
				"type": "occ",
				"energy": -0.26915,
				"method": "rhf"
			},
			{
				"type": "occ",
				"energy": -0.23958,
				"method": "rhf"
			},
			{
				"type": "unocc",
				"energy": -0.12451,
				"method": "rhf"
			},
			{
				"type": "unocc",
				"energy": -0.09201,
				"method": "rhf"
			},
			{
				"type": "unocc",
				"energy": -0.06087,
				"method": "rhf"
			},
			{
				"type": "unocc",
				"energy": -0.01929,
				"method": "rhf"
			},
			{
				"type": "unocc",
				"energy": -0.01022,
				"method": "rhf"
			}
		],
		"cosmo_sigma_profile": { 
			"-0.025": 0.0,
			"-0.024": 0.0,
			"-0.023": 0.0,
			"-0.022": 0.0,
			"-0.021": 0.0,
			"-0.02": 0.0,
			"-0.019": 0.0,
			"-0.018": 0.0,
			"-0.017": 0.0,
			"-0.016": 0.0,
			"-0.015": 0.0,
			"-0.014": 0.0,
			"-0.013": 0.0,
			"-0.012": 0.0,
			"-0.011": 0.0,
			"-0.01": 0.222577518777,
			"-0.009": 3.39600685008,
			"-0.008": 7.99254887215,
			"-0.007": 13.8681640322,
			"-0.006": 10.4175191809,
			"-0.005": 17.5300999531,
			"-0.004": 19.1701593376,
			"-0.003": 24.1598156297,
			"-0.002": 24.1618783331,
			"-0.001": 18.4069933037,
			"0.0": 17.3175717482,
			"0.001": 20.7154050094,
			"0.002": 18.1890051123,
			"0.003": 20.7259825806,
			"0.004": 17.8636231993,
			"0.005": 8.01412228657,
			"0.006": 9.47298663741,
			"0.007": 11.4022769085,
			"0.008": 8.82298495316,
			"0.009": 7.89398538023,
			"0.01": 4.57903435932,
			"0.011": 0.434847091849,
			"0.012": 0.0,
			"0.013": 0.0,
			"0.014": 0.0,
			"0.015": 0.0,
			"0.016": 0.0,
			"0.017": 0.0,
			"0.018": 0.0,
			"0.019": 0.0,
			"0.02": 0.0,
			"0.021": 0.0,
			"0.022": 0.0,
			"0.023": 0.0,
			"0.024": 0.0,
			"0.025": 0.0
		}
	}
}
