{
	 "smiles": "CS(=O)(=O)NC1=CC=C(C=C1)C#N", 
	 "Tm": 467.15, 
	 "num_atms": 21, 
	 "gaussian": { 
		 "optdone": 1, 
		 "sigma_profile": "yes", 
		 "theory": "DFT", 
		 "functional": "B3LYP", 
		 "basiset": "6-31G**", 
		 "properties": { 
			 "R2extent": 3785.5554, 
			 "electric_dipole_moment_norm": 4.29951198277, 
			 "electric_quadrupole_moment_norm": 28.4342190788, 
			 "total_energy": -967.728610365, 
			 "HOMO_LUMO_gap": 0.19382, 
			 "cosmo_polarized_energy": -21.34, 
			 "cosmo_cavitation_energy": 27.86, 
			 "cosmo_dispersion_energy": -20.22, 
			 "cosmo_repulsion_energy": 1.55, 
			 "cosmo_total_nonelectrostatic_energy": 9.19, 
			 "SMD_solvation_energy": 5.91 
		},
		"coords": [
			{
				"x": 2.4661740996,
				"y": 0.8845383448,
				"z": 0.2093811664,
				"element": "C" 
			},
			{
				"x": 1.5294195857,
				"y": 2.1536073666,
				"z": 1.0846023897,
				"element": "S" 
			},
			{
				"x": 1.3023013459,
				"y": 1.6693306494,
				"z": 2.443834728,
				"element": "O" 
			},
			{
				"x": 2.1277625673,
				"y": 3.4575571292,
				"z": 0.812104949,
				"element": "O" 
			},
			{
				"x": 0.0404202404,
				"y": 2.2161794931,
				"z": 0.2771536797,
				"element": "N" 
			},
			{
				"x": -0.8865962153,
				"y": 1.1675746482,
				"z": 0.129290342,
				"element": "C" 
			},
			{
				"x": -1.0518405358,
				"y": 0.1718748269,
				"z": 1.1076136225,
				"element": "C" 
			},
			{
				"x": -1.9903106777,
				"y": -0.8348423521,
				"z": 0.9153000906,
				"element": "C" 
			},
			{
				"x": -2.7943033262,
				"y": -0.860680597,
				"z": -0.2365707803,
				"element": "C" 
			},
			{
				"x": -2.638647818,
				"y": 0.1481954963,
				"z": -1.2025198163,
				"element": "C" 
			},
			{
				"x": -1.6892283588,
				"y": 1.1442722059,
				"z": -1.0246805013,
				"element": "C" 
			},
			{
				"x": -3.76249447,
				"y": -1.898916822,
				"z": -0.4241563264,
				"element": "C" 
			},
			{
				"x": -4.5473691328,
				"y": -2.743827094,
				"z": -0.5797433064,
				"element": "N" 
			},
			{
				"x": 2.643460736,
				"y": 1.2178799569,
				"z": -0.8136337993,
				"element": "H" 
			},
			{
				"x": 1.9028764541,
				"y": -0.0496973142,
				"z": 0.2295761624,
				"element": "H" 
			},
			{
				"x": 3.4109148436,
				"y": 0.7666426113,
				"z": 0.7429813884,
				"element": "H" 
			},
			{
				"x": 0.0462570896,
				"y": 2.9347803263,
				"z": -0.4373681784,
				"element": "H" 
			},
			{
				"x": -0.4638575396,
				"y": 0.2052182143,
				"z": 2.0165167517,
				"element": "H" 
			},
			{
				"x": -2.1158570343,
				"y": -1.6026247963,
				"z": 1.6713761648,
				"element": "H" 
			},
			{
				"x": -3.2564263509,
				"y": 0.1395994664,
				"z": -2.0940946728,
				"element": "H" 
			},
			{
				"x": -1.5663555029,
				"y": 1.9128382403,
				"z": -1.7829640538,
				"element": "H" 
			}
		],
		 "valence_orbital": [ 
			{
				"type": "occ",
				"energy": -0.32876,
				"method": "rhf"
			},
			{
				"type": "occ",
				"energy": -0.32667,
				"method": "rhf"
			},
			{
				"type": "occ",
				"energy": -0.31958,
				"method": "rhf"
			},
			{
				"type": "occ",
				"energy": -0.28766,
				"method": "rhf"
			},
			{
				"type": "occ",
				"energy": -0.24965,
				"method": "rhf"
			},
			{
				"type": "unocc",
				"energy": -0.05583,
				"method": "rhf"
			},
			{
				"type": "unocc",
				"energy": -0.03682,
				"method": "rhf"
			},
			{
				"type": "unocc",
				"energy": 0.0318,
				"method": "rhf"
			},
			{
				"type": "unocc",
				"energy": 0.03914,
				"method": "rhf"
			},
			{
				"type": "unocc",
				"energy": 0.0484,
				"method": "rhf"
			}
		],
		"cosmo_sigma_profile": { 
			"-0.025": 0.0,
			"-0.024": 0.0,
			"-0.023": 0.0,
			"-0.022": 0.0,
			"-0.021": 0.0,
			"-0.02": 0.0,
			"-0.019": 0.0,
			"-0.018": 0.0,
			"-0.017": 0.176438887807,
			"-0.016": 0.9409239136,
			"-0.015": 1.18343209599,
			"-0.014": 1.63345232232,
			"-0.013": 1.27759539861,
			"-0.012": 1.16169049694,
			"-0.011": 1.49935148534,
			"-0.01": 2.45815721003,
			"-0.009": 5.4423889603,
			"-0.008": 11.1396341056,
			"-0.007": 13.106753331,
			"-0.006": 14.7165884887,
			"-0.005": 13.5398136332,
			"-0.004": 11.8255064861,
			"-0.003": 9.59609180147,
			"-0.002": 8.47835317969,
			"-0.001": 12.3658403528,
			"0.0": 10.7245625414,
			"0.001": 14.8567954095,
			"0.002": 17.1168843072,
			"0.003": 7.03598848697,
			"0.004": 5.99318637509,
			"0.005": 4.39997316009,
			"0.006": 4.45233689374,
			"0.007": 6.42696684768,
			"0.008": 6.99247745516,
			"0.009": 7.31151446028,
			"0.01": 12.3385877485,
			"0.011": 10.9531676115,
			"0.012": 2.90705188574,
			"0.013": 1.94334541562,
			"0.014": 0.246894601822,
			"0.015": 0.0,
			"0.016": 0.0,
			"0.017": 0.0,
			"0.018": 0.0,
			"0.019": 0.0,
			"0.02": 0.0,
			"0.021": 0.0,
			"0.022": 0.0,
			"0.023": 0.0,
			"0.024": 0.0,
			"0.025": 0.0
		}
	}
}
