{
	 "smiles": "COC1=CC=C(C=C1)C(O)C(O)C1=CC=CC=C1", 
	 "Tm": 402.15, 
	 "num_atms": 34, 
	 "gaussian": { 
		 "optdone": 1, 
		 "sigma_profile": "yes", 
		 "theory": "DFT", 
		 "functional": "B3LYP", 
		 "basiset": "6-31G**", 
		 "properties": { 
			 "R2extent": 6786.0559, 
			 "electric_dipole_moment_norm": 0.808517049913, 
			 "electric_quadrupole_moment_norm": 20.1122692862, 
			 "total_energy": -806.887546513, 
			 "HOMO_LUMO_gap": 0.20565, 
			 "cosmo_polarized_energy": -12.96, 
			 "cosmo_cavitation_energy": 36.72, 
			 "cosmo_dispersion_energy": -26.37, 
			 "cosmo_repulsion_energy": 2.03, 
			 "cosmo_total_nonelectrostatic_energy": 12.38, 
			 "SMD_solvation_energy": 6.55 
		},
		"coords": [
			{
				"x": -1.5819362451,
				"y": -2.9479334495,
				"z": -5.6025633051,
				"element": "C" 
			},
			{
				"x": -1.1121444271,
				"y": -3.4910458644,
				"z": -4.3789880611,
				"element": "O" 
			},
			{
				"x": -0.5983055151,
				"y": -2.6352766065,
				"z": -3.4485478924,
				"element": "C" 
			},
			{
				"x": -0.502256118,
				"y": -1.2487486049,
				"z": -3.6045204418,
				"element": "C" 
			},
			{
				"x": 0.0469526128,
				"y": -0.4715572157,
				"z": -2.5782897562,
				"element": "C" 
			},
			{
				"x": 0.5080314294,
				"y": -1.0534869728,
				"z": -1.3942024636,
				"element": "C" 
			},
			{
				"x": 0.4072385002,
				"y": -2.4477868137,
				"z": -1.2561018168,
				"element": "C" 
			},
			{
				"x": -0.136819355,
				"y": -3.2315197803,
				"z": -2.2635643463,
				"element": "C" 
			},
			{
				"x": 1.0464806136,
				"y": -0.2047882255,
				"z": -0.2599234672,
				"element": "C" 
			},
			{
				"x": 1.5412480329,
				"y": 1.0061251109,
				"z": -0.7991979072,
				"element": "O" 
			},
			{
				"x": -0.06478169,
				"y": 0.0538383045,
				"z": 0.8151860943,
				"element": "C" 
			},
			{
				"x": -1.1961046418,
				"y": 0.6878480191,
				"z": 0.2516304856,
				"element": "O" 
			},
			{
				"x": 0.4696678969,
				"y": 0.9202227816,
				"z": 1.9390181126,
				"element": "C" 
			},
			{
				"x": 1.232024569,
				"y": 0.3493112944,
				"z": 2.9675034709,
				"element": "C" 
			},
			{
				"x": 1.7837439326,
				"y": 1.1459206573,
				"z": 3.9699918707,
				"element": "C" 
			},
			{
				"x": 1.5797462969,
				"y": 2.5283571811,
				"z": 3.9583615135,
				"element": "C" 
			},
			{
				"x": 0.8188774075,
				"y": 3.1047230453,
				"z": 2.9408089862,
				"element": "C" 
			},
			{
				"x": 0.2668779987,
				"y": 2.3071058258,
				"z": 1.9347949746,
				"element": "C" 
			},
			{
				"x": -2.408415711,
				"y": -2.2433276373,
				"z": -5.4429034859,
				"element": "H" 
			},
			{
				"x": -0.7807079037,
				"y": -2.4399769874,
				"z": -6.1547159224,
				"element": "H" 
			},
			{
				"x": -1.9413620941,
				"y": -3.7942495148,
				"z": -6.1899573632,
				"element": "H" 
			},
			{
				"x": -0.8399294706,
				"y": -0.7640387981,
				"z": -4.5129826696,
				"element": "H" 
			},
			{
				"x": 0.1476322936,
				"y": 0.6007460338,
				"z": -2.7063651421,
				"element": "H" 
			},
			{
				"x": 0.7695521629,
				"y": -2.9270668319,
				"z": -0.3494108074,
				"element": "H" 
			},
			{
				"x": -0.2102867532,
				"y": -4.3095501899,
				"z": -2.1639518393,
				"element": "H" 
			},
			{
				"x": 1.8481573809,
				"y": -0.7643146209,
				"z": 0.2516411518,
				"element": "H" 
			},
			{
				"x": 1.6748003495,
				"y": 1.6210770162,
				"z": -0.0634938846,
				"element": "H" 
			},
			{
				"x": -0.3317906899,
				"y": -0.9337004306,
				"z": 1.2283040192,
				"element": "H" 
			},
			{
				"x": -1.3741818579,
				"y": 0.2583009548,
				"z": -0.5978810193,
				"element": "H" 
			},
			{
				"x": 1.3861338395,
				"y": -0.7272579615,
				"z": 2.9880011526,
				"element": "H" 
			},
			{
				"x": 2.3673719504,
				"y": 0.6880242981,
				"z": 4.7636640709,
				"element": "H" 
			},
			{
				"x": 2.005740978,
				"y": 3.1489951237,
				"z": 4.7414278421,
				"element": "H" 
			},
			{
				"x": 0.6479010014,
				"y": 4.1776467058,
				"z": 2.9305935045,
				"element": "H" 
			},
			{
				"x": -0.3479567746,
				"y": 2.7414841531,
				"z": 1.1541343421,
				"element": "H" 
			}
		],
		 "valence_orbital": [ 
			{
				"type": "occ",
				"energy": -0.26677,
				"method": "rhf"
			},
			{
				"type": "occ",
				"energy": -0.25335,
				"method": "rhf"
			},
			{
				"type": "occ",
				"energy": -0.25186,
				"method": "rhf"
			},
			{
				"type": "occ",
				"energy": -0.24414,
				"method": "rhf"
			},
			{
				"type": "occ",
				"energy": -0.21682,
				"method": "rhf"
			},
			{
				"type": "unocc",
				"energy": -0.01117,
				"method": "rhf"
			},
			{
				"type": "unocc",
				"energy": -0.00568,
				"method": "rhf"
			},
			{
				"type": "unocc",
				"energy": -0.00443,
				"method": "rhf"
			},
			{
				"type": "unocc",
				"energy": 0.0119,
				"method": "rhf"
			},
			{
				"type": "unocc",
				"energy": 0.08717,
				"method": "rhf"
			}
		],
		"cosmo_sigma_profile": { 
			"-0.025": 0.0,
			"-0.024": 0.0,
			"-0.023": 0.0,
			"-0.022": 0.0,
			"-0.021": 0.0,
			"-0.02": 0.0,
			"-0.019": 0.0,
			"-0.018": 0.0,
			"-0.017": 0.0,
			"-0.016": 0.0,
			"-0.015": 0.0,
			"-0.014": 0.0,
			"-0.013": 0.0,
			"-0.012": 0.0163218954093,
			"-0.011": 0.630496101678,
			"-0.01": 1.51284406059,
			"-0.009": 1.1148196101,
			"-0.008": 1.34701943295,
			"-0.007": 2.63906970597,
			"-0.006": 18.9231376396,
			"-0.005": 29.2423690295,
			"-0.004": 31.5313456964,
			"-0.003": 29.6569475887,
			"-0.002": 20.3468180348,
			"-0.001": 16.2957683446,
			"0.0": 13.7763970319,
			"0.001": 14.3718783283,
			"0.002": 14.5492011195,
			"0.003": 18.0935734412,
			"0.004": 19.686059346,
			"0.005": 21.3302685552,
			"0.006": 9.87126618076,
			"0.007": 4.08768430986,
			"0.008": 4.41319874756,
			"0.009": 6.00039422259,
			"0.01": 3.94389606088,
			"0.011": 2.28961411349,
			"0.012": 2.17479446331,
			"0.013": 2.07207332723,
			"0.014": 0.99666139005,
			"0.015": 0.0,
			"0.016": 0.0,
			"0.017": 0.0,
			"0.018": 0.0,
			"0.019": 0.0,
			"0.02": 0.0,
			"0.021": 0.0,
			"0.022": 0.0,
			"0.023": 0.0,
			"0.024": 0.0,
			"0.025": 0.0
		}
	}
}
