{
	 "smiles": "CC(C)N1N=CC2=C1N=C(C=C2C(O)=O)C1=CC=CC=C1", 
	 "Tm": 472.15, 
	 "num_atms": 36, 
	 "gaussian": { 
		 "optdone": 1, 
		 "sigma_profile": "yes", 
		 "theory": "DFT", 
		 "functional": "B3LYP", 
		 "basiset": "6-31G**", 
		 "properties": { 
			 "R2extent": 6964.8026, 
			 "electric_dipole_moment_norm": 5.17609753482, 
			 "electric_quadrupole_moment_norm": 17.5861505279, 
			 "total_energy": -933.458778066, 
			 "HOMO_LUMO_gap": 0.15274, 
			 "cosmo_polarized_energy": -17.29, 
			 "cosmo_cavitation_energy": 39.98, 
			 "cosmo_dispersion_energy": -27.91, 
			 "cosmo_repulsion_energy": 2.1, 
			 "cosmo_total_nonelectrostatic_energy": 14.17, 
			 "SMD_solvation_energy": 6.41 
		},
		"coords": [
			{
				"x": 1.6704099394,
				"y": -0.7019856187,
				"z": 2.8025932494,
				"element": "C" 
			},
			{
				"x": 1.389082121,
				"y": -1.9641441595,
				"z": 1.9782837229,
				"element": "C" 
			},
			{
				"x": 2.5688987576,
				"y": -2.3659226599,
				"z": 1.0845447224,
				"element": "C" 
			},
			{
				"x": 0.1557505821,
				"y": -1.8169013082,
				"z": 1.1885626364,
				"element": "N" 
			},
			{
				"x": -0.8800796021,
				"y": -2.6780424358,
				"z": 1.394359511,
				"element": "N" 
			},
			{
				"x": -1.8517827028,
				"y": -2.3375984907,
				"z": 0.5622855549,
				"element": "C" 
			},
			{
				"x": -1.4672103282,
				"y": -1.2205396259,
				"z": -0.2277351082,
				"element": "C" 
			},
			{
				"x": -0.1492372528,
				"y": -0.9140651277,
				"z": 0.2079631781,
				"element": "C" 
			},
			{
				"x": 0.6356217612,
				"y": 0.0665359246,
				"z": -0.2500838013,
				"element": "N" 
			},
			{
				"x": 0.1124058929,
				"y": 0.8307880601,
				"z": -1.2171751909,
				"element": "C" 
			},
			{
				"x": -1.1971761663,
				"y": 0.612009292,
				"z": -1.7314920116,
				"element": "C" 
			},
			{
				"x": -2.0081492381,
				"y": -0.4050473706,
				"z": -1.237826894,
				"element": "C" 
			},
			{
				"x": -3.3863637529,
				"y": -0.686894946,
				"z": -1.7613330543,
				"element": "C" 
			},
			{
				"x": -4.0205330715,
				"y": 0.3373558824,
				"z": -2.3871889285,
				"element": "O" 
			},
			{
				"x": -3.9275541435,
				"y": -1.7604604361,
				"z": -1.6445644304,
				"element": "O" 
			},
			{
				"x": 0.9720096257,
				"y": 1.9183958176,
				"z": -1.7538847599,
				"element": "C" 
			},
			{
				"x": 2.369035888,
				"y": 1.8266082618,
				"z": -1.634547876,
				"element": "C" 
			},
			{
				"x": 3.193611221,
				"y": 2.8302500918,
				"z": -2.1359607307,
				"element": "C" 
			},
			{
				"x": 2.640234433,
				"y": 3.9504219561,
				"z": -2.7612147616,
				"element": "C" 
			},
			{
				"x": 1.2536805458,
				"y": 4.0598081894,
				"z": -2.8759183445,
				"element": "C" 
			},
			{
				"x": 0.4275406848,
				"y": 3.053691883,
				"z": -2.3770049648,
				"element": "C" 
			},
			{
				"x": 2.5441451697,
				"y": -0.8661529437,
				"z": 3.4409808856,
				"element": "H" 
			},
			{
				"x": 1.8726093147,
				"y": 0.1521697949,
				"z": 2.151612449,
				"element": "H" 
			},
			{
				"x": 0.8184558468,
				"y": -0.459572142,
				"z": 3.4444590267,
				"element": "H" 
			},
			{
				"x": 1.1530927526,
				"y": -2.7909208593,
				"z": 2.6534983329,
				"element": "H" 
			},
			{
				"x": 2.8068618426,
				"y": -1.5711511211,
				"z": 0.3727459971,
				"element": "H" 
			},
			{
				"x": 3.4539067771,
				"y": -2.5526807762,
				"z": 1.7008447401,
				"element": "H" 
			},
			{
				"x": 2.3402140386,
				"y": -3.2786135296,
				"z": 0.5268628086,
				"element": "H" 
			},
			{
				"x": -2.7780881129,
				"y": -2.8913883649,
				"z": 0.5372177926,
				"element": "H" 
			},
			{
				"x": -1.5256444861,
				"y": 1.2135736037,
				"z": -2.5721671276,
				"element": "H" 
			},
			{
				"x": -3.5269199728,
				"y": 1.159967567,
				"z": -2.2614143989,
				"element": "H" 
			},
			{
				"x": 2.7930701272,
				"y": 0.9556001633,
				"z": -1.1481437878,
				"element": "H" 
			},
			{
				"x": 4.2717605211,
				"y": 2.7371820322,
				"z": -2.0418523809,
				"element": "H" 
			},
			{
				"x": 3.283990315,
				"y": 4.7330847298,
				"z": -3.151783963,
				"element": "H" 
			},
			{
				"x": 0.8122966868,
				"y": 4.9331800932,
				"z": -3.3471074257,
				"element": "H" 
			},
			{
				"x": -0.6490460145,
				"y": 3.1730585727,
				"z": -2.449514667,
				"element": "H" 
			}
		],
		 "valence_orbital": [ 
			{
				"type": "occ",
				"energy": -0.28312,
				"method": "rhf"
			},
			{
				"type": "occ",
				"energy": -0.2738,
				"method": "rhf"
			},
			{
				"type": "occ",
				"energy": -0.2615,
				"method": "rhf"
			},
			{
				"type": "occ",
				"energy": -0.24473,
				"method": "rhf"
			},
			{
				"type": "occ",
				"energy": -0.23464,
				"method": "rhf"
			},
			{
				"type": "unocc",
				"energy": -0.0819,
				"method": "rhf"
			},
			{
				"type": "unocc",
				"energy": -0.04164,
				"method": "rhf"
			},
			{
				"type": "unocc",
				"energy": -0.01165,
				"method": "rhf"
			},
			{
				"type": "unocc",
				"energy": 0.01678,
				"method": "rhf"
			},
			{
				"type": "unocc",
				"energy": 0.03052,
				"method": "rhf"
			}
		],
		"cosmo_sigma_profile": { 
			"-0.025": 0.0,
			"-0.024": 0.0,
			"-0.023": 0.0,
			"-0.022": 0.0,
			"-0.021": 0.0,
			"-0.02": 0.0,
			"-0.019": 0.37165913419,
			"-0.018": 1.2863377435,
			"-0.017": 0.834576816991,
			"-0.016": 1.05671416986,
			"-0.015": 0.885340201746,
			"-0.014": 1.06553490487,
			"-0.013": 1.5076957825,
			"-0.012": 1.36230950878,
			"-0.011": 1.30880946543,
			"-0.01": 1.47030151814,
			"-0.009": 1.6796662414,
			"-0.008": 2.34177102085,
			"-0.007": 4.17801235534,
			"-0.006": 9.4266898921,
			"-0.005": 14.2077990653,
			"-0.004": 25.6216441411,
			"-0.003": 24.1470578063,
			"-0.002": 25.3359885825,
			"-0.001": 30.6013082487,
			"0.0": 39.7518717699,
			"0.001": 25.8970133932,
			"0.002": 18.5552521857,
			"0.003": 15.554255121,
			"0.004": 16.6483837342,
			"0.005": 16.3401568545,
			"0.006": 6.6657833513,
			"0.007": 4.54185120171,
			"0.008": 5.05128365748,
			"0.009": 4.77944670212,
			"0.01": 6.7401491409,
			"0.011": 5.1999197837,
			"0.012": 2.91387877624,
			"0.013": 1.29263255114,
			"0.014": 0.694907272181,
			"0.015": 0.0628904891444,
			"0.016": 0.0,
			"0.017": 0.0,
			"0.018": 0.0,
			"0.019": 0.0,
			"0.02": 0.0,
			"0.021": 0.0,
			"0.022": 0.0,
			"0.023": 0.0,
			"0.024": 0.0,
			"0.025": 0.0
		}
	}
}
