{
	 "smiles": "O=C(C=CC1=CC=C(O1)C1=CC=CC=C1)C1=CC=CC=C1", 
	 "Tm": 371.65, 
	 "num_atms": 35, 
	 "gaussian": { 
		 "optdone": 1, 
		 "sigma_profile": "yes", 
		 "theory": "DFT", 
		 "functional": "B3LYP", 
		 "basiset": "6-31G**", 
		 "properties": { 
			 "R2extent": 9855.5766, 
			 "electric_dipole_moment_norm": 3.74842232946, 
			 "electric_quadrupole_moment_norm": 18.3285539091, 
			 "total_energy": -882.889008321, 
			 "HOMO_LUMO_gap": 0.12465, 
			 "cosmo_polarized_energy": -12.44, 
			 "cosmo_cavitation_energy": 40.9, 
			 "cosmo_dispersion_energy": -29.23, 
			 "cosmo_repulsion_energy": 2.19, 
			 "cosmo_total_nonelectrostatic_energy": 13.85, 
			 "SMD_solvation_energy": 7.66 
		},
		"coords": [
			{
				"x": 3.870882794,
				"y": 0.5688286721,
				"z": 0.4544691152,
				"element": "O" 
			},
			{
				"x": 2.8768022263,
				"y": 0.0153480438,
				"z": 0.9272050128,
				"element": "C" 
			},
			{
				"x": 1.5581561126,
				"y": 0.1293201565,
				"z": 0.2688672229,
				"element": "C" 
			},
			{
				"x": 1.424273562,
				"y": 0.8952102856,
				"z": -0.8387132003,
				"element": "C" 
			},
			{
				"x": 0.2285399678,
				"y": 1.0977456488,
				"z": -1.5930467195,
				"element": "C" 
			},
			{
				"x": -0.0268659518,
				"y": 1.8481899013,
				"z": -2.721524657,
				"element": "C" 
			},
			{
				"x": -1.3976842394,
				"y": 1.6755019876,
				"z": -3.0322134817,
				"element": "C" 
			},
			{
				"x": -1.9178316291,
				"y": 0.8263042904,
				"z": -2.0782299377,
				"element": "C" 
			},
			{
				"x": -0.9311367459,
				"y": 0.4738669651,
				"z": -1.2021779834,
				"element": "O" 
			},
			{
				"x": -3.2458196289,
				"y": 0.2734727431,
				"z": -1.8533782136,
				"element": "C" 
			},
			{
				"x": -4.3103837418,
				"y": 0.6055763071,
				"z": -2.7122931204,
				"element": "C" 
			},
			{
				"x": -5.5805398706,
				"y": 0.0786310341,
				"z": -2.5006972357,
				"element": "C" 
			},
			{
				"x": -5.8154391559,
				"y": -0.7886593172,
				"z": -1.4301312837,
				"element": "C" 
			},
			{
				"x": -4.7657095118,
				"y": -1.1240010901,
				"z": -0.5723910172,
				"element": "C" 
			},
			{
				"x": -3.4918696366,
				"y": -0.6002939256,
				"z": -0.7785247337,
				"element": "C" 
			},
			{
				"x": 3.0037305396,
				"y": -0.7996519618,
				"z": 2.183480683,
				"element": "C" 
			},
			{
				"x": 1.9081390013,
				"y": -1.3114700214,
				"z": 2.8963452756,
				"element": "C" 
			},
			{
				"x": 2.1057308673,
				"y": -2.0504979105,
				"z": 4.0631287248,
				"element": "C" 
			},
			{
				"x": 3.3989213719,
				"y": -2.2917899635,
				"z": 4.5293501309,
				"element": "C" 
			},
			{
				"x": 4.497124787,
				"y": -1.7840867907,
				"z": 3.8283279798,
				"element": "C" 
			},
			{
				"x": 4.2996599431,
				"y": -1.0414406224,
				"z": 2.6686809041,
				"element": "C" 
			},
			{
				"x": 0.7042364412,
				"y": -0.4110754125,
				"z": 0.6590921954,
				"element": "H" 
			},
			{
				"x": 2.3097436305,
				"y": 1.4129441521,
				"z": -1.2007364538,
				"element": "H" 
			},
			{
				"x": 0.6966958151,
				"y": 2.4485672613,
				"z": -3.2545453054,
				"element": "H" 
			},
			{
				"x": -1.9363632553,
				"y": 2.1194649254,
				"z": -3.8561474528,
				"element": "H" 
			},
			{
				"x": -4.1416531165,
				"y": 1.2788003484,
				"z": -3.5471076218,
				"element": "H" 
			},
			{
				"x": -6.3906109474,
				"y": 0.3455480237,
				"z": -3.1731284524,
				"element": "H" 
			},
			{
				"x": -6.807640119,
				"y": -1.1986231666,
				"z": -1.2669822555,
				"element": "H" 
			},
			{
				"x": -4.9390522521,
				"y": -1.7975053027,
				"z": 0.2619464524,
				"element": "H" 
			},
			{
				"x": -2.678706154,
				"y": -0.8631526543,
				"z": -0.1112992837,
				"element": "H" 
			},
			{
				"x": 0.8939060354,
				"y": -1.1260971343,
				"z": 2.5599916161,
				"element": "H" 
			},
			{
				"x": 1.2492488794,
				"y": -2.4364206253,
				"z": 4.6084212577,
				"element": "H" 
			},
			{
				"x": 3.5508850124,
				"y": -2.870733309,
				"z": 5.4360118457,
				"element": "H" 
			},
			{
				"x": 5.5050546084,
				"y": -1.9679511524,
				"z": 4.1893105313,
				"element": "H" 
			},
			{
				"x": 5.1345743607,
				"y": -0.6307703862,
				"z": 2.1112394613,
				"element": "H" 
			}
		],
		 "valence_orbital": [ 
			{
				"type": "occ",
				"energy": -0.2605,
				"method": "rhf"
			},
			{
				"type": "occ",
				"energy": -0.25455,
				"method": "rhf"
			},
			{
				"type": "occ",
				"energy": -0.25067,
				"method": "rhf"
			},
			{
				"type": "occ",
				"energy": -0.24117,
				"method": "rhf"
			},
			{
				"type": "occ",
				"energy": -0.20443,
				"method": "rhf"
			},
			{
				"type": "unocc",
				"energy": -0.07978,
				"method": "rhf"
			},
			{
				"type": "unocc",
				"energy": -0.03558,
				"method": "rhf"
			},
			{
				"type": "unocc",
				"energy": -0.01079,
				"method": "rhf"
			},
			{
				"type": "unocc",
				"energy": -0.00608,
				"method": "rhf"
			},
			{
				"type": "unocc",
				"energy": 6e-05,
				"method": "rhf"
			}
		],
		"cosmo_sigma_profile": { 
			"-0.025": 0.0,
			"-0.024": 0.0,
			"-0.023": 0.0,
			"-0.022": 0.0,
			"-0.021": 0.0,
			"-0.02": 0.0,
			"-0.019": 0.0,
			"-0.018": 0.0,
			"-0.017": 0.0,
			"-0.016": 0.0,
			"-0.015": 0.0,
			"-0.014": 0.0,
			"-0.013": 0.0,
			"-0.012": 0.0,
			"-0.011": 0.0,
			"-0.01": 0.0,
			"-0.009": 0.719563894778,
			"-0.008": 6.35849789865,
			"-0.007": 8.76193542262,
			"-0.006": 19.7762515635,
			"-0.005": 23.8390052054,
			"-0.004": 25.669899252,
			"-0.003": 19.8818487841,
			"-0.002": 19.4751846605,
			"-0.001": 18.4261585083,
			"0.0": 22.7130459041,
			"0.001": 33.4450990652,
			"0.002": 35.3157146294,
			"0.003": 33.497684621,
			"0.004": 28.5383336889,
			"0.005": 15.7919792645,
			"0.006": 2.01338966191,
			"0.007": 2.24285392897,
			"0.008": 1.20267442771,
			"0.009": 1.3927491402,
			"0.01": 2.01620115174,
			"0.011": 2.08054315638,
			"0.012": 2.83093363254,
			"0.013": 3.82839265707,
			"0.014": 0.0766162965209,
			"0.015": 0.0,
			"0.016": 0.0,
			"0.017": 0.0,
			"0.018": 0.0,
			"0.019": 0.0,
			"0.02": 0.0,
			"0.021": 0.0,
			"0.022": 0.0,
			"0.023": 0.0,
			"0.024": 0.0,
			"0.025": 0.0
		}
	}
}
