{
	 "smiles": "CC(C)NS(=O)(=O)CC1=CC=C(CN)C=C1", 
	 "Tm": 422.15, 
	 "num_atms": 34, 
	 "gaussian": { 
		 "optdone": 1, 
		 "sigma_profile": "yes", 
		 "theory": "DFT", 
		 "functional": "B3LYP", 
		 "basiset": "6-31G**", 
		 "properties": { 
			 "R2extent": 5118.412, 
			 "electric_dipole_moment_norm": 3.12142834933, 
			 "electric_quadrupole_moment_norm": 21.0424738123, 
			 "total_energy": -1088.10476336, 
			 "HOMO_LUMO_gap": 0.21066, 
			 "cosmo_polarized_energy": -18.03, 
			 "cosmo_cavitation_energy": 37.95, 
			 "cosmo_dispersion_energy": -25.37, 
			 "cosmo_repulsion_energy": 1.97, 
			 "cosmo_total_nonelectrostatic_energy": 14.54, 
			 "SMD_solvation_energy": 3.82 
		},
		"coords": [
			{
				"x": -1.9480092131,
				"y": -1.1333760979,
				"z": -1.8519749349,
				"element": "C" 
			},
			{
				"x": -2.1622473681,
				"y": -1.5099681363,
				"z": -0.38289346,
				"element": "C" 
			},
			{
				"x": -3.4477552037,
				"y": -2.3174233342,
				"z": -0.1680394192,
				"element": "C" 
			},
			{
				"x": -0.9536117059,
				"y": -2.2318952239,
				"z": 0.0877276223,
				"element": "N" 
			},
			{
				"x": -0.5743391769,
				"y": -2.268386485,
				"z": 1.7309090201,
				"element": "S" 
			},
			{
				"x": -0.1141906036,
				"y": -3.6322640571,
				"z": 2.0221000463,
				"element": "O" 
			},
			{
				"x": -1.6513013224,
				"y": -1.6421276363,
				"z": 2.509605021,
				"element": "O" 
			},
			{
				"x": 0.8916494239,
				"y": -1.1788646119,
				"z": 1.8461839261,
				"element": "C" 
			},
			{
				"x": 0.6553944136,
				"y": 0.2324187299,
				"z": 1.387498847,
				"element": "C" 
			},
			{
				"x": 1.1135674628,
				"y": 0.6595996253,
				"z": 0.1343292804,
				"element": "C" 
			},
			{
				"x": 0.9041027168,
				"y": 1.9715185563,
				"z": -0.2898529305,
				"element": "C" 
			},
			{
				"x": 0.2248872265,
				"y": 2.8916168786,
				"z": 0.5195124464,
				"element": "C" 
			},
			{
				"x": -0.0566783749,
				"y": 4.3028391219,
				"z": 0.0325609939,
				"element": "C" 
			},
			{
				"x": -1.3414994872,
				"y": 4.4865442667,
				"z": -0.6625073577,
				"element": "N" 
			},
			{
				"x": -0.2315724574,
				"y": 2.4580428042,
				"z": 1.772636202,
				"element": "C" 
			},
			{
				"x": -0.0221130716,
				"y": 1.1499898149,
				"z": 2.2035188589,
				"element": "C" 
			},
			{
				"x": -2.805259614,
				"y": -0.5652883349,
				"z": -2.2272348217,
				"element": "H" 
			},
			{
				"x": -1.8446652803,
				"y": -2.0284577549,
				"z": -2.4768626559,
				"element": "H" 
			},
			{
				"x": -1.0465142956,
				"y": -0.526703537,
				"z": -1.9685431876,
				"element": "H" 
			},
			{
				"x": -2.2159897648,
				"y": -0.5952592684,
				"z": 0.213617314,
				"element": "H" 
			},
			{
				"x": -3.4119209922,
				"y": -3.2620019783,
				"z": -0.7249907914,
				"element": "H" 
			},
			{
				"x": -4.318803308,
				"y": -1.755900261,
				"z": -0.5222356219,
				"element": "H" 
			},
			{
				"x": -3.5893311373,
				"y": -2.5400732413,
				"z": 0.8918542125,
				"element": "H" 
			},
			{
				"x": -0.8853536274,
				"y": -3.1864021707,
				"z": -0.2591835958,
				"element": "H" 
			},
			{
				"x": 1.6662242739,
				"y": -1.6832876646,
				"z": 1.2650498889,
				"element": "H" 
			},
			{
				"x": 1.1578544743,
				"y": -1.2345474816,
				"z": 2.9061447225,
				"element": "H" 
			},
			{
				"x": 1.6474613059,
				"y": -0.0371144906,
				"z": -0.5064191585,
				"element": "H" 
			},
			{
				"x": 1.2823260857,
				"y": 2.2879146874,
				"z": -1.2595578463,
				"element": "H" 
			},
			{
				"x": -0.0383632699,
				"y": 4.9960759186,
				"z": 0.8811406691,
				"element": "H" 
			},
			{
				"x": 0.7384908737,
				"y": 4.6216994032,
				"z": -0.6508532378,
				"element": "H" 
			},
			{
				"x": -1.3882099685,
				"y": 3.8489714566,
				"z": -1.4552011998,
				"element": "H" 
			},
			{
				"x": -2.1010943902,
				"y": 4.209462213,
				"z": -0.0434095213,
				"element": "H" 
			},
			{
				"x": -0.7503016838,
				"y": 3.1578974789,
				"z": 2.4242487075,
				"element": "H" 
			},
			{
				"x": -0.3895329401,
				"y": 0.8321508102,
				"z": 3.1745219613,
				"element": "H" 
			}
		],
		 "valence_orbital": [ 
			{
				"type": "occ",
				"energy": -0.29666,
				"method": "rhf"
			},
			{
				"type": "occ",
				"energy": -0.27015,
				"method": "rhf"
			},
			{
				"type": "occ",
				"energy": -0.25966,
				"method": "rhf"
			},
			{
				"type": "occ",
				"energy": -0.25804,
				"method": "rhf"
			},
			{
				"type": "occ",
				"energy": -0.23449,
				"method": "rhf"
			},
			{
				"type": "unocc",
				"energy": -0.02383,
				"method": "rhf"
			},
			{
				"type": "unocc",
				"energy": -0.01336,
				"method": "rhf"
			},
			{
				"type": "unocc",
				"energy": 0.05652,
				"method": "rhf"
			},
			{
				"type": "unocc",
				"energy": 0.08051,
				"method": "rhf"
			},
			{
				"type": "unocc",
				"energy": 0.08137,
				"method": "rhf"
			}
		],
		"cosmo_sigma_profile": { 
			"-0.025": 0.0,
			"-0.024": 0.0,
			"-0.023": 0.0,
			"-0.022": 0.0,
			"-0.021": 0.0,
			"-0.02": 0.0,
			"-0.019": 0.0,
			"-0.018": 0.0,
			"-0.017": 0.0,
			"-0.016": 0.0,
			"-0.015": 0.0,
			"-0.014": 0.286502122029,
			"-0.013": 0.638925262407,
			"-0.012": 1.03180435446,
			"-0.011": 1.21635382106,
			"-0.01": 1.2770700508,
			"-0.009": 3.44408285359,
			"-0.008": 8.13126678925,
			"-0.007": 7.95188874088,
			"-0.006": 14.0496228731,
			"-0.005": 20.052423234,
			"-0.004": 26.3194777065,
			"-0.003": 26.2546302141,
			"-0.002": 22.6328586382,
			"-0.001": 23.0594756428,
			"0.0": 27.859549914,
			"0.001": 21.4397527575,
			"0.002": 12.5742001891,
			"0.003": 12.031357968,
			"0.004": 12.2135963755,
			"0.005": 10.0077796486,
			"0.006": 4.71610341764,
			"0.007": 4.20313893097,
			"0.008": 3.64537987433,
			"0.009": 4.05350404834,
			"0.01": 5.40733607913,
			"0.011": 9.98340826417,
			"0.012": 7.54096529047,
			"0.013": 0.675677862708,
			"0.014": 0.617981761896,
			"0.015": 0.239443256842,
			"0.016": 0.723069220079,
			"0.017": 1.05213717304,
			"0.018": 0.573742833956,
			"0.019": 0.588970016348,
			"0.02": 0.29508218031,
			"0.021": 0.0,
			"0.022": 0.0,
			"0.023": 0.0,
			"0.024": 0.0,
			"0.025": 0.0
		}
	}
}
