{
	 "smiles": "[O-][N+](=O)N1CN(CN(C1)[N+]([O-])=O)[N+]([O-])=O", 
	 "Tm": 478.15, 
	 "num_atms": 21, 
	 "gaussian": { 
		 "optdone": 1, 
		 "sigma_profile": "yes", 
		 "theory": "DFT", 
		 "functional": "B3LYP", 
		 "basiset": "6-31G**", 
		 "properties": { 
			 "R2extent": 3208.1987, 
			 "electric_dipole_moment_norm": 2.84169876658, 
			 "electric_quadrupole_moment_norm": 16.6789899044, 
			 "total_energy": -897.400163354, 
			 "HOMO_LUMO_gap": 0.21075, 
			 "cosmo_polarized_energy": -17.96, 
			 "cosmo_cavitation_energy": 26.39, 
			 "cosmo_dispersion_energy": -18.92, 
			 "cosmo_repulsion_energy": 1.46, 
			 "cosmo_total_nonelectrostatic_energy": 8.93, 
			 "SMD_solvation_energy": 7.2 
		},
		"coords": [
			{
				"x": 0.4562422131,
				"y": -2.352480809,
				"z": -2.1750441242,
				"element": "O" 
			},
			{
				"x": 1.091478212,
				"y": -1.3138367182,
				"z": -2.2867144981,
				"element": "N" 
			},
			{
				"x": 2.3062858715,
				"y": -1.2011733883,
				"z": -2.3828450958,
				"element": "O" 
			},
			{
				"x": 0.3309925213,
				"y": -0.115186558,
				"z": -2.3830739355,
				"element": "N" 
			},
			{
				"x": 1.0246454826,
				"y": 1.1172591868,
				"z": -1.9859624981,
				"element": "C" 
			},
			{
				"x": 0.4833382667,
				"y": 1.6014468404,
				"z": -0.7082603923,
				"element": "N" 
			},
			{
				"x": -0.0197142147,
				"y": 0.5931540665,
				"z": 0.2023331599,
				"element": "C" 
			},
			{
				"x": -1.129690743,
				"y": -0.1185784047,
				"z": -0.4681543366,
				"element": "N" 
			},
			{
				"x": -1.0503115828,
				"y": -0.2107825339,
				"z": -1.9326981744,
				"element": "C" 
			},
			{
				"x": -1.6268531865,
				"y": -1.2241536797,
				"z": 0.2218561427,
				"element": "N" 
			},
			{
				"x": -2.3988422677,
				"y": -1.9599341876,
				"z": -0.3786514875,
				"element": "O" 
			},
			{
				"x": -1.2740053203,
				"y": -1.3149917546,
				"z": 1.3953878223,
				"element": "O" 
			},
			{
				"x": -0.2515579108,
				"y": 2.8192792972,
				"z": -0.7502236905,
				"element": "N" 
			},
			{
				"x": -0.0403393267,
				"y": 3.5520975904,
				"z": -1.707904801,
				"element": "O" 
			},
			{
				"x": -0.9794614996,
				"y": 3.0507344432,
				"z": 0.2026938882,
				"element": "O" 
			},
			{
				"x": 0.8773410331,
				"y": 1.8988763277,
				"z": -2.7296048746,
				"element": "H" 
			},
			{
				"x": 2.0863776381,
				"y": 0.891662563,
				"z": -1.8946917653,
				"element": "H" 
			},
			{
				"x": 0.8039561976,
				"y": -0.0886618042,
				"z": 0.4417328322,
				"element": "H" 
			},
			{
				"x": -0.3726451309,
				"y": 1.059359934,
				"z": 1.1167954773,
				"element": "H" 
			},
			{
				"x": -1.5884615271,
				"y": 0.6246631664,
				"z": -2.3880117287,
				"element": "H" 
			},
			{
				"x": -1.499574726,
				"y": -1.1484535775,
				"z": -2.2478579201,
				"element": "H" 
			}
		],
		 "valence_orbital": [ 
			{
				"type": "occ",
				"energy": -0.33088,
				"method": "rhf"
			},
			{
				"type": "occ",
				"energy": -0.32907,
				"method": "rhf"
			},
			{
				"type": "occ",
				"energy": -0.32221,
				"method": "rhf"
			},
			{
				"type": "occ",
				"energy": -0.31194,
				"method": "rhf"
			},
			{
				"type": "occ",
				"energy": -0.30312,
				"method": "rhf"
			},
			{
				"type": "unocc",
				"energy": -0.09237,
				"method": "rhf"
			},
			{
				"type": "unocc",
				"energy": -0.08203,
				"method": "rhf"
			},
			{
				"type": "unocc",
				"energy": -0.06952,
				"method": "rhf"
			},
			{
				"type": "unocc",
				"energy": 0.04591,
				"method": "rhf"
			},
			{
				"type": "unocc",
				"energy": 0.04913,
				"method": "rhf"
			}
		],
		"cosmo_sigma_profile": { 
			"-0.025": 0.0,
			"-0.024": 0.0,
			"-0.023": 0.0,
			"-0.022": 0.0,
			"-0.021": 0.0,
			"-0.02": 0.0,
			"-0.019": 0.0,
			"-0.018": 0.0,
			"-0.017": 0.0,
			"-0.016": 0.000831353653244,
			"-0.015": 0.201598181455,
			"-0.014": 0.916575637993,
			"-0.013": 2.55064637958,
			"-0.012": 2.26466945433,
			"-0.011": 4.3700120195,
			"-0.01": 5.22712004818,
			"-0.009": 8.06841585682,
			"-0.008": 8.75756024763,
			"-0.007": 10.1083789099,
			"-0.006": 8.34418057972,
			"-0.005": 9.65552835057,
			"-0.004": 10.1025142992,
			"-0.003": 9.70020187714,
			"-0.002": 8.64601066924,
			"-0.001": 8.10611324812,
			"0.0": 7.72031356566,
			"0.001": 7.18074755261,
			"0.002": 7.75126626876,
			"0.003": 7.23101081165,
			"0.004": 9.70165940544,
			"0.005": 11.8121049883,
			"0.006": 19.8361827819,
			"0.007": 22.7169264209,
			"0.008": 13.4957980195,
			"0.009": 5.35293772502,
			"0.01": 0.395376861184,
			"0.011": 0.0,
			"0.012": 0.0,
			"0.013": 0.0,
			"0.014": 0.0,
			"0.015": 0.0,
			"0.016": 0.0,
			"0.017": 0.0,
			"0.018": 0.0,
			"0.019": 0.0,
			"0.02": 0.0,
			"0.021": 0.0,
			"0.022": 0.0,
			"0.023": 0.0,
			"0.024": 0.0,
			"0.025": 0.0
		}
	}
}
