{
	 "smiles": "OC(=O)C1=CC(=CN=C1)C1=CC=CS1", 
	 "Tm": 534.15, 
	 "num_atms": 21, 
	 "gaussian": { 
		 "optdone": 1, 
		 "sigma_profile": "yes", 
		 "theory": "DFT", 
		 "functional": "B3LYP", 
		 "basiset": "6-31G**", 
		 "properties": { 
			 "R2extent": 3976.2431, 
			 "electric_dipole_moment_norm": 3.21619739444, 
			 "electric_quadrupole_moment_norm": 19.8670652576, 
			 "total_energy": -988.658217026, 
			 "HOMO_LUMO_gap": 0.16471, 
			 "cosmo_polarized_energy": -15.6, 
			 "cosmo_cavitation_energy": 27.75, 
			 "cosmo_dispersion_energy": -21.01, 
			 "cosmo_repulsion_energy": 1.57, 
			 "cosmo_total_nonelectrostatic_energy": 8.32, 
			 "SMD_solvation_energy": 4.4 
		},
		"coords": [
			{
				"x": -3.6995226501,
				"y": -0.8310552208,
				"z": -3.6292002887,
				"element": "O" 
			},
			{
				"x": -2.4481600646,
				"y": -1.0540241156,
				"z": -3.1528471025,
				"element": "C" 
			},
			{
				"x": -1.7887830241,
				"y": -1.9704642061,
				"z": -3.5829496497,
				"element": "O" 
			},
			{
				"x": -1.9502835515,
				"y": -0.1204441968,
				"z": -2.089416668,
				"element": "C" 
			},
			{
				"x": -0.846004598,
				"y": -0.51746036,
				"z": -1.3328999688,
				"element": "C" 
			},
			{
				"x": -0.3495790881,
				"y": 0.3240133317,
				"z": -0.3294787782,
				"element": "C" 
			},
			{
				"x": -1.0064420545,
				"y": 1.5614248816,
				"z": -0.1638408248,
				"element": "C" 
			},
			{
				"x": -2.0341410448,
				"y": 1.9757730461,
				"z": -0.9057357827,
				"element": "N" 
			},
			{
				"x": -2.4933215033,
				"y": 1.1482500321,
				"z": -1.8488957148,
				"element": "C" 
			},
			{
				"x": 0.7880882574,
				"y": -0.0713347581,
				"z": 0.5040606253,
				"element": "C" 
			},
			{
				"x": 1.2374068931,
				"y": -1.3440801132,
				"z": 0.7802398944,
				"element": "C" 
			},
			{
				"x": 2.3762404074,
				"y": -1.3731143041,
				"z": 1.6334672887,
				"element": "C" 
			},
			{
				"x": 2.7916788136,
				"y": -0.1228868627,
				"z": 2.0038944618,
				"element": "C" 
			},
			{
				"x": 1.7974370301,
				"y": 1.1133374757,
				"z": 1.3110250278,
				"element": "S" 
			},
			{
				"x": -4.1552437577,
				"y": -0.1642924869,
				"z": -3.0968280383,
				"element": "H" 
			},
			{
				"x": -0.3847260176,
				"y": -1.4739190864,
				"z": -1.5537093921,
				"element": "H" 
			},
			{
				"x": -0.6797963307,
				"y": 2.2468594458,
				"z": 0.6164313874,
				"element": "H" 
			},
			{
				"x": -3.3096913349,
				"y": 1.5406073361,
				"z": -2.4557668994,
				"element": "H" 
			},
			{
				"x": 0.7512982107,
				"y": -2.2359014222,
				"z": 0.4014569022,
				"element": "H" 
			},
			{
				"x": 2.8613460294,
				"y": -2.2852097397,
				"z": 1.9611410002,
				"element": "H" 
			},
			{
				"x": 3.6234993782,
				"y": 0.1487213235,
				"z": 2.6388525202,
				"element": "H" 
			}
		],
		 "valence_orbital": [ 
			{
				"type": "occ",
				"energy": -0.29801,
				"method": "rhf"
			},
			{
				"type": "occ",
				"energy": -0.28772,
				"method": "rhf"
			},
			{
				"type": "occ",
				"energy": -0.27069,
				"method": "rhf"
			},
			{
				"type": "occ",
				"energy": -0.26543,
				"method": "rhf"
			},
			{
				"type": "occ",
				"energy": -0.23325,
				"method": "rhf"
			},
			{
				"type": "unocc",
				"energy": -0.06854,
				"method": "rhf"
			},
			{
				"type": "unocc",
				"energy": -0.05956,
				"method": "rhf"
			},
			{
				"type": "unocc",
				"energy": -0.01122,
				"method": "rhf"
			},
			{
				"type": "unocc",
				"energy": 0.01641,
				"method": "rhf"
			},
			{
				"type": "unocc",
				"energy": 0.03802,
				"method": "rhf"
			}
		],
		"cosmo_sigma_profile": { 
			"-0.025": 0.0,
			"-0.024": 0.0,
			"-0.023": 0.0,
			"-0.022": 0.0,
			"-0.021": 0.0,
			"-0.02": 0.055194186517,
			"-0.019": 0.760157937034,
			"-0.018": 1.16897380152,
			"-0.017": 1.21706982006,
			"-0.016": 0.850797917573,
			"-0.015": 0.775587621314,
			"-0.014": 1.18933576268,
			"-0.013": 1.26742881634,
			"-0.012": 1.39414501921,
			"-0.011": 0.44515734247,
			"-0.01": 1.29596454299,
			"-0.009": 3.50071428152,
			"-0.008": 5.67655917587,
			"-0.007": 9.2673264922,
			"-0.006": 9.73240670521,
			"-0.005": 11.6379359982,
			"-0.004": 11.9154427445,
			"-0.003": 12.3651386066,
			"-0.002": 11.9450509034,
			"-0.001": 17.6379317838,
			"0.0": 20.1298304492,
			"0.001": 14.2597598055,
			"0.002": 13.3570572334,
			"0.003": 17.0584031116,
			"0.004": 15.0245826638,
			"0.005": 6.95021302621,
			"0.006": 3.43493883802,
			"0.007": 3.5001788251,
			"0.008": 4.21981535224,
			"0.009": 4.728858132,
			"0.01": 5.89350045517,
			"0.011": 5.96658467206,
			"0.012": 4.52363326519,
			"0.013": 1.28594991364,
			"0.014": 1.00088930508,
			"0.015": 0.59237874117,
			"0.016": 0.158170310522,
			"0.017": 0.0,
			"0.018": 0.0,
			"0.019": 0.0,
			"0.02": 0.0,
			"0.021": 0.0,
			"0.022": 0.0,
			"0.023": 0.0,
			"0.024": 0.0,
			"0.025": 0.0
		}
	}
}
