{
	 "smiles": "NNC(=O)C1=CC(=CC=C1)C#N", 
	 "Tm": 440.15, 
	 "num_atms": 19, 
	 "gaussian": { 
		 "optdone": 1, 
		 "sigma_profile": "yes", 
		 "theory": "DFT", 
		 "functional": "B3LYP", 
		 "basiset": "6-31G**", 
		 "properties": { 
			 "R2extent": 3150.4597, 
			 "electric_dipole_moment_norm": 2.77134206478, 
			 "electric_quadrupole_moment_norm": 17.435083136, 
			 "total_energy": -548.504374994, 
			 "HOMO_LUMO_gap": 0.19271, 
			 "cosmo_polarized_energy": -18.06, 
			 "cosmo_cavitation_energy": 25.05, 
			 "cosmo_dispersion_energy": -17.51, 
			 "cosmo_repulsion_energy": 1.42, 
			 "cosmo_total_nonelectrostatic_energy": 8.96, 
			 "SMD_solvation_energy": 6.87 
		},
		"coords": [
			{
				"x": -1.4029649396,
				"y": -0.9395937314,
				"z": 2.8410408021,
				"element": "N" 
			},
			{
				"x": -1.0524587811,
				"y": 0.3222582249,
				"z": 3.3650406878,
				"element": "N" 
			},
			{
				"x": -0.4173717179,
				"y": 1.3453229124,
				"z": 2.6927858352,
				"element": "C" 
			},
			{
				"x": 0.2489923135,
				"y": 2.1726798019,
				"z": 3.3023756996,
				"element": "O" 
			},
			{
				"x": -0.5736858763,
				"y": 1.4339817794,
				"z": 1.1973389305,
				"element": "C" 
			},
			{
				"x": -1.7679242072,
				"y": 1.1478125761,
				"z": 0.530521471,
				"element": "C" 
			},
			{
				"x": -1.8604720778,
				"y": 1.334626112,
				"z": -0.8582405208,
				"element": "C" 
			},
			{
				"x": -0.7510639988,
				"y": 1.8006972452,
				"z": -1.5830130728,
				"element": "C" 
			},
			{
				"x": 0.4328065476,
				"y": 2.0981620404,
				"z": -0.9113099509,
				"element": "C" 
			},
			{
				"x": 0.517658384,
				"y": 1.9304022249,
				"z": 0.4696493011,
				"element": "C" 
			},
			{
				"x": -3.0928211872,
				"y": 1.0453743059,
				"z": -1.5335178674,
				"element": "C" 
			},
			{
				"x": -4.0921029608,
				"y": 0.8033261889,
				"z": -2.0773890148,
				"element": "N" 
			},
			{
				"x": -0.7458005325,
				"y": -1.2264927249,
				"z": 2.1205508888,
				"element": "H" 
			},
			{
				"x": -2.3339949761,
				"y": -0.907369634,
				"z": 2.4374795508,
				"element": "H" 
			},
			{
				"x": -0.8085463675,
				"y": 0.2971568074,
				"z": 4.3486104148,
				"element": "H" 
			},
			{
				"x": -2.6438048612,
				"y": 0.814777668,
				"z": 1.0750895675,
				"element": "H" 
			},
			{
				"x": -0.8300177888,
				"y": 1.9335637778,
				"z": -2.6567034362,
				"element": "H" 
			},
			{
				"x": 1.2877604719,
				"y": 2.4712628114,
				"z": -1.4661673164,
				"element": "H" 
			},
			{
				"x": 1.4225125558,
				"y": 2.1888516137,
				"z": 1.0092580302,
				"element": "H" 
			}
		],
		 "valence_orbital": [ 
			{
				"type": "occ",
				"energy": -0.31109,
				"method": "rhf"
			},
			{
				"type": "occ",
				"energy": -0.29069,
				"method": "rhf"
			},
			{
				"type": "occ",
				"energy": -0.27994,
				"method": "rhf"
			},
			{
				"type": "occ",
				"energy": -0.26643,
				"method": "rhf"
			},
			{
				"type": "occ",
				"energy": -0.26035,
				"method": "rhf"
			},
			{
				"type": "unocc",
				"energy": -0.06764,
				"method": "rhf"
			},
			{
				"type": "unocc",
				"energy": -0.05451,
				"method": "rhf"
			},
			{
				"type": "unocc",
				"energy": 0.01725,
				"method": "rhf"
			},
			{
				"type": "unocc",
				"energy": 0.02742,
				"method": "rhf"
			},
			{
				"type": "unocc",
				"energy": 0.05174,
				"method": "rhf"
			}
		],
		"cosmo_sigma_profile": { 
			"-0.025": 0.0,
			"-0.024": 0.0,
			"-0.023": 0.0,
			"-0.022": 0.0,
			"-0.021": 0.0,
			"-0.02": 0.0,
			"-0.019": 0.0,
			"-0.018": 0.0,
			"-0.017": 0.0,
			"-0.016": 0.0,
			"-0.015": 0.0,
			"-0.014": 0.235037747026,
			"-0.013": 2.32069023729,
			"-0.012": 3.7203592059,
			"-0.011": 3.96231648144,
			"-0.01": 4.40997749861,
			"-0.009": 4.77642943545,
			"-0.008": 7.19014427879,
			"-0.007": 10.6711897352,
			"-0.006": 10.6173731584,
			"-0.005": 9.63298021728,
			"-0.004": 9.55783994176,
			"-0.003": 11.0129762243,
			"-0.002": 10.9974749661,
			"-0.001": 12.7289371323,
			"0.0": 12.6475682505,
			"0.001": 14.4962614019,
			"0.002": 11.504763061,
			"0.003": 5.12591562892,
			"0.004": 4.97049608568,
			"0.005": 5.05121851413,
			"0.006": 4.35139451322,
			"0.007": 4.66596945438,
			"0.008": 5.59453012656,
			"0.009": 5.60577700955,
			"0.01": 4.9417262839,
			"0.011": 4.89034652812,
			"0.012": 6.4482233177,
			"0.013": 6.63116213191,
			"0.014": 1.77002959445,
			"0.015": 0.453502414346,
			"0.016": 0.268539371749,
			"0.017": 0.0,
			"0.018": 0.0,
			"0.019": 0.0,
			"0.02": 0.0,
			"0.021": 0.0,
			"0.022": 0.0,
			"0.023": 0.0,
			"0.024": 0.0,
			"0.025": 0.0
		}
	}
}
