{
	 "smiles": "CCOC(=O)CC1=CC=C(F)C=C1", 
	 "Tm": 303.15, 
	 "num_atms": 24, 
	 "gaussian": { 
		 "optdone": 1, 
		 "sigma_profile": "yes", 
		 "theory": "DFT", 
		 "functional": "B3LYP", 
		 "basiset": "6-31G**", 
		 "properties": { 
			 "R2extent": 3473.1515, 
			 "electric_dipole_moment_norm": 2.49937321943, 
			 "electric_quadrupole_moment_norm": 5.99052047071, 
			 "total_energy": -637.994440445, 
			 "HOMO_LUMO_gap": 0.22684, 
			 "cosmo_polarized_energy": -7.92, 
			 "cosmo_cavitation_energy": 28.93, 
			 "cosmo_dispersion_energy": -20.55, 
			 "cosmo_repulsion_energy": 1.65, 
			 "cosmo_total_nonelectrostatic_energy": 10.03, 
			 "SMD_solvation_energy": 6.44 
		},
		"coords": [
			{
				"x": 3.2126067187,
				"y": -1.5002903188,
				"z": 2.8348699361,
				"element": "C" 
			},
			{
				"x": 2.859732509,
				"y": -1.6559188996,
				"z": 1.36810012,
				"element": "C" 
			},
			{
				"x": 1.4305444637,
				"y": -1.4581396504,
				"z": 1.2409418107,
				"element": "O" 
			},
			{
				"x": 0.9326737528,
				"y": -1.5585567143,
				"z": -0.0071833537,
				"element": "C" 
			},
			{
				"x": 1.6052753003,
				"y": -1.8120179211,
				"z": -0.9850221824,
				"element": "O" 
			},
			{
				"x": -0.5653565465,
				"y": -1.2940807762,
				"z": -0.0367771797,
				"element": "C" 
			},
			{
				"x": -0.8881339107,
				"y": 0.0663452594,
				"z": -0.6354894466,
				"element": "C" 
			},
			{
				"x": -1.5812797883,
				"y": 1.0261872525,
				"z": 0.1105524875,
				"element": "C" 
			},
			{
				"x": -1.8946549036,
				"y": 2.2735996876,
				"z": -0.4325906731,
				"element": "C" 
			},
			{
				"x": -1.4995242283,
				"y": 2.5494992115,
				"z": -1.735075607,
				"element": "C" 
			},
			{
				"x": -1.7978766427,
				"y": 3.7525726259,
				"z": -2.2707598272,
				"element": "F" 
			},
			{
				"x": -0.8042673578,
				"y": 1.6215779298,
				"z": -2.5036501478,
				"element": "C" 
			},
			{
				"x": -0.5019390365,
				"y": 0.3803180437,
				"z": -1.9470144275,
				"element": "C" 
			},
			{
				"x": 4.2887606572,
				"y": -1.6424978256,
				"z": 2.9743359839,
				"element": "H" 
			},
			{
				"x": 2.6862027329,
				"y": -2.239882635,
				"z": 3.4450855943,
				"element": "H" 
			},
			{
				"x": 2.9476986844,
				"y": -0.5029562586,
				"z": 3.1974333542,
				"element": "H" 
			},
			{
				"x": 3.3726382818,
				"y": -0.9214603741,
				"z": 0.7393699028,
				"element": "H" 
			},
			{
				"x": 3.1125422238,
				"y": -2.6496615888,
				"z": 0.9853966022,
				"element": "H" 
			},
			{
				"x": -0.970933066,
				"y": -1.3692203681,
				"z": 0.9740317131,
				"element": "H" 
			},
			{
				"x": -1.0114105633,
				"y": -2.0875485891,
				"z": -0.64675342,
				"element": "H" 
			},
			{
				"x": -1.8844383614,
				"y": 0.7997560098,
				"z": 1.1292133043,
				"element": "H" 
			},
			{
				"x": -2.433275946,
				"y": 3.023702878,
				"z": 0.1362994407,
				"element": "H" 
			},
			{
				"x": -0.5111320259,
				"y": 1.8769227819,
				"z": -3.5163113479,
				"element": "H" 
			},
			{
				"x": 0.0531470524,
				"y": -0.3507497607,
				"z": -2.5262026369,
				"element": "H" 
			}
		],
		 "valence_orbital": [ 
			{
				"type": "occ",
				"energy": -0.34235,
				"method": "rhf"
			},
			{
				"type": "occ",
				"energy": -0.30214,
				"method": "rhf"
			},
			{
				"type": "occ",
				"energy": -0.27408,
				"method": "rhf"
			},
			{
				"type": "occ",
				"energy": -0.25902,
				"method": "rhf"
			},
			{
				"type": "occ",
				"energy": -0.23774,
				"method": "rhf"
			},
			{
				"type": "unocc",
				"energy": -0.0109,
				"method": "rhf"
			},
			{
				"type": "unocc",
				"energy": -0.00705,
				"method": "rhf"
			},
			{
				"type": "unocc",
				"energy": 0.01945,
				"method": "rhf"
			},
			{
				"type": "unocc",
				"energy": 0.08961,
				"method": "rhf"
			},
			{
				"type": "unocc",
				"energy": 0.09883,
				"method": "rhf"
			}
		],
		"cosmo_sigma_profile": { 
			"-0.025": 0.0,
			"-0.024": 0.0,
			"-0.023": 0.0,
			"-0.022": 0.0,
			"-0.021": 0.0,
			"-0.02": 0.0,
			"-0.019": 0.0,
			"-0.018": 0.0,
			"-0.017": 0.0,
			"-0.016": 0.0,
			"-0.015": 0.0,
			"-0.014": 0.0,
			"-0.013": 0.0,
			"-0.012": 0.0,
			"-0.011": 0.0,
			"-0.01": 0.0,
			"-0.009": 0.0,
			"-0.008": 0.112721451815,
			"-0.007": 4.82823163379,
			"-0.006": 10.8680719769,
			"-0.005": 16.5152582142,
			"-0.004": 23.4809993198,
			"-0.003": 22.6908343907,
			"-0.002": 20.0748496858,
			"-0.001": 15.0570403613,
			"0.0": 18.1070197583,
			"0.001": 17.1952632842,
			"0.002": 15.218966134,
			"0.003": 15.5869272103,
			"0.004": 21.7160898359,
			"0.005": 9.61112196784,
			"0.006": 3.17831676854,
			"0.007": 1.79902213261,
			"0.008": 2.91015040485,
			"0.009": 1.85420683601,
			"0.01": 1.73475974861,
			"0.011": 2.64962343557,
			"0.012": 4.01599211014,
			"0.013": 0.281512084836,
			"0.014": 0.0,
			"0.015": 0.0,
			"0.016": 0.0,
			"0.017": 0.0,
			"0.018": 0.0,
			"0.019": 0.0,
			"0.02": 0.0,
			"0.021": 0.0,
			"0.022": 0.0,
			"0.023": 0.0,
			"0.024": 0.0,
			"0.025": 0.0
		}
	}
}
