{
	 "smiles": "CC1=CC(=C(C)C(Br)=C1O)C1(OS(=O)(=O)C2=C1C=CC=C2)C1=CC(C)=C(O)C(Br)=C1C", 
	 "Tm": 491.15, 
	 "num_atms": 51, 
	 "gaussian": { 
		 "optdone": 1, 
		 "sigma_profile": "yes", 
		 "theory": "DFT", 
		 "functional": "B3LYP", 
		 "basiset": "6-31G**", 
		 "properties": { 
			 "R2extent": 18614.6508, 
			 "electric_dipole_moment_norm": 7.13466909534, 
			 "electric_quadrupole_moment_norm": 26.6587703852, 
			 "total_energy": -6805.54839106, 
			 "HOMO_LUMO_gap": 0.17883, 
			 "cosmo_polarized_energy": -23.4, 
			 "cosmo_cavitation_energy": 56.87, 
			 "cosmo_dispersion_energy": -38.2, 
			 "cosmo_repulsion_energy": 2.87, 
			 "cosmo_total_nonelectrostatic_energy": 21.54, 
			 "SMD_solvation_energy": 7.09 
		},
		"coords": [
			{
				"x": 0.8183060921,
				"y": -3.4086443982,
				"z": 2.4049725261,
				"element": "C" 
			},
			{
				"x": 1.2909936886,
				"y": -2.2187571439,
				"z": 1.6108868946,
				"element": "C" 
			},
			{
				"x": 0.4230978406,
				"y": -1.4275740987,
				"z": 0.8631711736,
				"element": "C" 
			},
			{
				"x": 0.8390961212,
				"y": -0.3208762813,
				"z": 0.1114189317,
				"element": "C" 
			},
			{
				"x": 2.211053228,
				"y": 0.0314801861,
				"z": 0.1004591404,
				"element": "C" 
			},
			{
				"x": 2.7770987872,
				"y": 1.2045838296,
				"z": -0.6655707893,
				"element": "C" 
			},
			{
				"x": 3.07501122,
				"y": -0.7802679343,
				"z": 0.8480419536,
				"element": "C" 
			},
			{
				"x": 4.9700147614,
				"y": -0.4182401543,
				"z": 0.8800272294,
				"element": "Br" 
			},
			{
				"x": 2.6534127391,
				"y": -1.8881397666,
				"z": 1.5965566071,
				"element": "C" 
			},
			{
				"x": 3.4935550402,
				"y": -2.6683759024,
				"z": 2.3176504049,
				"element": "O" 
			},
			{
				"x": -0.1867563751,
				"y": 0.4870132521,
				"z": -0.7135860604,
				"element": "C" 
			},
			{
				"x": 0.3455125804,
				"y": 0.5765556444,
				"z": -2.0895897599,
				"element": "O" 
			},
			{
				"x": -0.1717481737,
				"y": -0.6527327732,
				"z": -3.0737003734,
				"element": "S" 
			},
			{
				"x": 0.7443463815,
				"y": -1.7850445943,
				"z": -2.9946082749,
				"element": "O" 
			},
			{
				"x": -0.4859190657,
				"y": -0.057852432,
				"z": -4.3670774585,
				"element": "O" 
			},
			{
				"x": -1.6285423007,
				"y": -0.9341323597,
				"z": -2.0911911414,
				"element": "C" 
			},
			{
				"x": -1.5196395092,
				"y": -0.2570098111,
				"z": -0.8833709941,
				"element": "C" 
			},
			{
				"x": -2.5876127963,
				"y": -0.3014209461,
				"z": 0.0130084094,
				"element": "C" 
			},
			{
				"x": -3.7226115232,
				"y": -1.0445871945,
				"z": -0.3219424025,
				"element": "C" 
			},
			{
				"x": -3.8039095544,
				"y": -1.7311748884,
				"z": -1.5397109378,
				"element": "C" 
			},
			{
				"x": -2.7478352001,
				"y": -1.6777055025,
				"z": -2.4505211203,
				"element": "C" 
			},
			{
				"x": -0.4175685045,
				"y": 1.9159259165,
				"z": -0.1827382102,
				"element": "C" 
			},
			{
				"x": -0.0748226231,
				"y": 2.1694932168,
				"z": 1.150044609,
				"element": "C" 
			},
			{
				"x": -0.2693541221,
				"y": 3.404005677,
				"z": 1.7650003248,
				"element": "C" 
			},
			{
				"x": 0.1164579225,
				"y": 3.6399689196,
				"z": 3.2061813312,
				"element": "C" 
			},
			{
				"x": -0.8216262466,
				"y": 4.4385898794,
				"z": 0.9981494317,
				"element": "C" 
			},
			{
				"x": -1.0249812558,
				"y": 5.6825751412,
				"z": 1.5071751125,
				"element": "O" 
			},
			{
				"x": -1.1857536354,
				"y": 4.1958342918,
				"z": -0.3353389666,
				"element": "C" 
			},
			{
				"x": -1.9220528916,
				"y": 5.689380679,
				"z": -1.2842222423,
				"element": "Br" 
			},
			{
				"x": -1.0227166682,
				"y": 2.9443919266,
				"z": -0.9541892464,
				"element": "C" 
			},
			{
				"x": -1.4850962295,
				"y": 2.7343241609,
				"z": -2.3771905121,
				"element": "C" 
			},
			{
				"x": -0.2634874102,
				"y": -3.5339505046,
				"z": 2.311715654,
				"element": "H" 
			},
			{
				"x": 1.3031813141,
				"y": -4.3291712246,
				"z": 2.0625075116,
				"element": "H" 
			},
			{
				"x": 1.0651529868,
				"y": -3.3022646843,
				"z": 3.4670365994,
				"element": "H" 
			},
			{
				"x": -0.6243278797,
				"y": -1.7036608778,
				"z": 0.8674555386,
				"element": "H" 
			},
			{
				"x": 2.0064315147,
				"y": 1.8772712332,
				"z": -1.029387581,
				"element": "H" 
			},
			{
				"x": 3.3462885312,
				"y": 0.8515376247,
				"z": -1.5325661205,
				"element": "H" 
			},
			{
				"x": 3.4653698527,
				"y": 1.774749606,
				"z": -0.035353999,
				"element": "H" 
			},
			{
				"x": 4.4002324914,
				"y": -2.3392630402,
				"z": 2.1984370263,
				"element": "H" 
			},
			{
				"x": -2.539216457,
				"y": 0.2452758614,
				"z": 0.9493564952,
				"element": "H" 
			},
			{
				"x": -4.5594499323,
				"y": -1.0800763697,
				"z": 0.369023839,
				"element": "H" 
			},
			{
				"x": -4.6985025197,
				"y": -2.2949494295,
				"z": -1.784533617,
				"element": "H" 
			},
			{
				"x": -2.8023260863,
				"y": -2.1803970933,
				"z": -3.4105237985,
				"element": "H" 
			},
			{
				"x": 0.3711219679,
				"y": 1.3760037247,
				"z": 1.7378292679,
				"element": "H" 
			},
			{
				"x": 0.8852890923,
				"y": 4.4185516724,
				"z": 3.3060145619,
				"element": "H" 
			},
			{
				"x": 0.5258797888,
				"y": 2.7301081213,
				"z": 3.6506516132,
				"element": "H" 
			},
			{
				"x": -0.7428765374,
				"y": 3.9411264303,
				"z": 3.8207972333,
				"element": "H" 
			},
			{
				"x": -0.7187854071,
				"y": 5.7058146488,
				"z": 2.4227062584,
				"element": "H" 
			},
			{
				"x": -1.9920599739,
				"y": 1.7767194787,
				"z": -2.4951376267,
				"element": "H" 
			},
			{
				"x": -0.6443254419,
				"y": 2.7364143788,
				"z": -3.0757791304,
				"element": "H" 
			},
			{
				"x": -2.1770996221,
				"y": 3.519573904,
				"z": -2.6762453156,
				"element": "H" 
			}
		],
		 "valence_orbital": [ 
			{
				"type": "occ",
				"energy": -0.27601,
				"method": "rhf"
			},
			{
				"type": "occ",
				"energy": -0.24538,
				"method": "rhf"
			},
			{
				"type": "occ",
				"energy": -0.2418,
				"method": "rhf"
			},
			{
				"type": "occ",
				"energy": -0.2299,
				"method": "rhf"
			},
			{
				"type": "occ",
				"energy": -0.22743,
				"method": "rhf"
			},
			{
				"type": "unocc",
				"energy": -0.0486,
				"method": "rhf"
			},
			{
				"type": "unocc",
				"energy": -0.03998,
				"method": "rhf"
			},
			{
				"type": "unocc",
				"energy": -0.02215,
				"method": "rhf"
			},
			{
				"type": "unocc",
				"energy": -0.01675,
				"method": "rhf"
			},
			{
				"type": "unocc",
				"energy": -0.01,
				"method": "rhf"
			}
		],
		"cosmo_sigma_profile": { 
			"-0.025": 0.0,
			"-0.024": 0.0,
			"-0.023": 0.0,
			"-0.022": 0.0,
			"-0.021": 0.0,
			"-0.02": 0.0,
			"-0.019": 0.0,
			"-0.018": 0.0,
			"-0.017": 0.399581102104,
			"-0.016": 0.616605395622,
			"-0.015": 0.888511383428,
			"-0.014": 1.03794543556,
			"-0.013": 1.41179638159,
			"-0.012": 1.81703719734,
			"-0.011": 2.52990051484,
			"-0.01": 2.12605014454,
			"-0.009": 4.25162296525,
			"-0.008": 5.80325642395,
			"-0.007": 12.6162562074,
			"-0.006": 15.6157806515,
			"-0.005": 20.6724305493,
			"-0.004": 26.7688978966,
			"-0.003": 29.0943144595,
			"-0.002": 36.298080869,
			"-0.001": 46.6861164966,
			"0.0": 49.243922461,
			"0.001": 42.5657725015,
			"0.002": 44.9722130276,
			"0.003": 26.7443807841,
			"0.004": 19.5647934271,
			"0.005": 12.6261807128,
			"0.006": 10.1339130222,
			"0.007": 7.23599650883,
			"0.008": 7.70350547313,
			"0.009": 13.2862262348,
			"0.01": 13.3602767518,
			"0.011": 3.41485566668,
			"0.012": 0.00269805039372,
			"0.013": 0.0,
			"0.014": 0.0,
			"0.015": 0.0,
			"0.016": 0.0,
			"0.017": 0.0,
			"0.018": 0.0,
			"0.019": 0.0,
			"0.02": 0.0,
			"0.021": 0.0,
			"0.022": 0.0,
			"0.023": 0.0,
			"0.024": 0.0,
			"0.025": 0.0
		}
	}
}
