{
	 "smiles": "NC1=C(C(=O)NC2CC2)C2=C(CCC2)S1", 
	 "Tm": 444.15, 
	 "num_atms": 29, 
	 "gaussian": { 
		 "optdone": 1, 
		 "sigma_profile": "yes", 
		 "theory": "DFT", 
		 "functional": "B3LYP", 
		 "basiset": "6-31G**", 
		 "properties": { 
			 "R2extent": 3836.3364, 
			 "electric_dipole_moment_norm": 2.65866015504, 
			 "electric_quadrupole_moment_norm": 10.8407128354, 
			 "total_energy": -1010.48913313, 
			 "HOMO_LUMO_gap": 0.17487, 
			 "cosmo_polarized_energy": -13.61, 
			 "cosmo_cavitation_energy": 32.57, 
			 "cosmo_dispersion_energy": -23.78, 
			 "cosmo_repulsion_energy": 1.86, 
			 "cosmo_total_nonelectrostatic_energy": 10.66, 
			 "SMD_solvation_energy": 4.31 
		},
		"coords": [
			{
				"x": -1.707980956,
				"y": -2.142798604,
				"z": 1.1915785501,
				"element": "N" 
			},
			{
				"x": -0.6384115975,
				"y": -1.7677351995,
				"z": 0.39131169,
				"element": "C" 
			},
			{
				"x": -0.1005618967,
				"y": -0.5042537897,
				"z": 0.1904600335,
				"element": "C" 
			},
			{
				"x": -0.4977725016,
				"y": 0.7224500937,
				"z": 0.9107288704,
				"element": "C" 
			},
			{
				"x": 0.3146091965,
				"y": 1.5737178609,
				"z": 1.2608829776,
				"element": "O" 
			},
			{
				"x": -1.8523528927,
				"y": 0.8582444516,
				"z": 1.2445866311,
				"element": "N" 
			},
			{
				"x": -2.9235155173,
				"y": 0.5779069668,
				"z": 0.3031716566,
				"element": "C" 
			},
			{
				"x": -4.0142278208,
				"y": 1.6027441932,
				"z": 0.1483798843,
				"element": "C" 
			},
			{
				"x": -3.0448257658,
				"y": 1.3593006188,
				"z": -0.9843353863,
				"element": "C" 
			},
			{
				"x": 1.041140768,
				"y": -0.5627351235,
				"z": -0.6855338499,
				"element": "C" 
			},
			{
				"x": 1.3258659418,
				"y": -1.8027062397,
				"z": -1.1547544914,
				"element": "C" 
			},
			{
				"x": 2.4586609722,
				"y": -1.846998844,
				"z": -2.1394035344,
				"element": "C" 
			},
			{
				"x": 3.0791535846,
				"y": -0.428326464,
				"z": -1.929181999,
				"element": "C" 
			},
			{
				"x": 1.9771811603,
				"y": 0.4609536491,
				"z": -1.2755858114,
				"element": "C" 
			},
			{
				"x": 0.2101646767,
				"y": -3.0019987567,
				"z": -0.5377568418,
				"element": "S" 
			},
			{
				"x": -1.6340808604,
				"y": -3.0655235112,
				"z": 1.6004190141,
				"element": "H" 
			},
			{
				"x": -1.94779189,
				"y": -1.4342804028,
				"z": 1.877854607,
				"element": "H" 
			},
			{
				"x": -1.9806766803,
				"y": 1.7112758121,
				"z": 1.7794065455,
				"element": "H" 
			},
			{
				"x": -3.2264307462,
				"y": -0.4643199815,
				"z": 0.2708578382,
				"element": "H" 
			},
			{
				"x": -3.9149836566,
				"y": 2.5346972453,
				"z": 0.6992415566,
				"element": "H" 
			},
			{
				"x": -5.0371030023,
				"y": 1.2513193691,
				"z": 0.0554084743,
				"element": "H" 
			},
			{
				"x": -2.2977787478,
				"y": 2.1235286186,
				"z": -1.1760138202,
				"element": "H" 
			},
			{
				"x": -3.3928835574,
				"y": 0.8340283141,
				"z": -1.8684363466,
				"element": "H" 
			},
			{
				"x": 2.0964501204,
				"y": -1.9849250875,
				"z": -3.1683114007,
				"element": "H" 
			},
			{
				"x": 3.185490875,
				"y": -2.6450988913,
				"z": -1.9493538526,
				"element": "H" 
			},
			{
				"x": 3.4614287331,
				"y": -0.0047417993,
				"z": -2.8622557642,
				"element": "H" 
			},
			{
				"x": 3.9248183998,
				"y": -0.5128699378,
				"z": -1.239409373,
				"element": "H" 
			},
			{
				"x": 1.4578908528,
				"y": 1.0767485013,
				"z": -2.0234272054,
				"element": "H" 
			},
			{
				"x": 2.3752228081,
				"y": 1.1483969379,
				"z": -0.5246286525,
				"element": "H" 
			}
		],
		 "valence_orbital": [ 
			{
				"type": "occ",
				"energy": -0.29497,
				"method": "rhf"
			},
			{
				"type": "occ",
				"energy": -0.25685,
				"method": "rhf"
			},
			{
				"type": "occ",
				"energy": -0.24393,
				"method": "rhf"
			},
			{
				"type": "occ",
				"energy": -0.23187,
				"method": "rhf"
			},
			{
				"type": "occ",
				"energy": -0.19037,
				"method": "rhf"
			},
			{
				"type": "unocc",
				"energy": -0.0155,
				"method": "rhf"
			},
			{
				"type": "unocc",
				"energy": 0.01916,
				"method": "rhf"
			},
			{
				"type": "unocc",
				"energy": 0.02608,
				"method": "rhf"
			},
			{
				"type": "unocc",
				"energy": 0.07775,
				"method": "rhf"
			},
			{
				"type": "unocc",
				"energy": 0.09069,
				"method": "rhf"
			}
		],
		"cosmo_sigma_profile": { 
			"-0.025": 0.0,
			"-0.024": 0.0,
			"-0.023": 0.0,
			"-0.022": 0.0,
			"-0.021": 0.0,
			"-0.02": 0.0,
			"-0.019": 0.0,
			"-0.018": 0.0,
			"-0.017": 0.0,
			"-0.016": 0.0,
			"-0.015": 0.0309542207501,
			"-0.014": 0.905479151567,
			"-0.013": 1.54835699251,
			"-0.012": 2.20344050971,
			"-0.011": 3.53988132139,
			"-0.01": 3.39651153007,
			"-0.009": 3.21375522466,
			"-0.008": 3.02164527339,
			"-0.007": 2.76353970234,
			"-0.006": 4.14205397576,
			"-0.005": 7.78050802784,
			"-0.004": 16.1590957015,
			"-0.003": 23.2836800916,
			"-0.002": 29.9940321468,
			"-0.001": 27.4382149775,
			"0.0": 26.0674408296,
			"0.001": 16.895189515,
			"0.002": 14.8129668735,
			"0.003": 15.3345655056,
			"0.004": 16.0299167349,
			"0.005": 13.2560580102,
			"0.006": 4.79717365363,
			"0.007": 2.95551814079,
			"0.008": 2.42071744735,
			"0.009": 2.68333723296,
			"0.01": 1.3453120363,
			"0.011": 2.36967626321,
			"0.012": 2.36842103138,
			"0.013": 3.61608748465,
			"0.014": 3.95415001186,
			"0.015": 0.231420693616,
			"0.016": 0.0,
			"0.017": 0.0,
			"0.018": 0.0,
			"0.019": 0.0,
			"0.02": 0.0,
			"0.021": 0.0,
			"0.022": 0.0,
			"0.023": 0.0,
			"0.024": 0.0,
			"0.025": 0.0
		}
	}
}
