{
	 "smiles": "CC1=C(N=C(N)S1)C1=CC=C(Br)C=C1", 
	 "Tm": 421.15, 
	 "num_atms": 23, 
	 "gaussian": { 
		 "optdone": 1, 
		 "sigma_profile": "yes", 
		 "theory": "DFT", 
		 "functional": "B3LYP", 
		 "basiset": "6-31G**", 
		 "properties": { 
			 "R2extent": 6858.2472, 
			 "electric_dipole_moment_norm": 3.54173572984, 
			 "electric_quadrupole_moment_norm": 14.3458120018, 
			 "total_energy": -3465.59041228, 
			 "HOMO_LUMO_gap": 0.17096, 
			 "cosmo_polarized_energy": -11.12, 
			 "cosmo_cavitation_energy": 30.95, 
			 "cosmo_dispersion_energy": -23.71, 
			 "cosmo_repulsion_energy": 1.83, 
			 "cosmo_total_nonelectrostatic_energy": 9.07, 
			 "SMD_solvation_energy": 2.41 
		},
		"coords": [
			{
				"x": 0.6754330579,
				"y": 4.0445180111,
				"z": 0.1982012806,
				"element": "C" 
			},
			{
				"x": -0.2863253611,
				"y": 3.0673039848,
				"z": -0.4102777604,
				"element": "C" 
			},
			{
				"x": -0.3935383193,
				"y": 1.7026827426,
				"z": -0.2861224796,
				"element": "C" 
			},
			{
				"x": -1.4946880398,
				"y": 1.1195031067,
				"z": -0.9065197521,
				"element": "N" 
			},
			{
				"x": -2.2102558624,
				"y": 2.0012556168,
				"z": -1.5328392935,
				"element": "C" 
			},
			{
				"x": -3.3043669829,
				"y": 1.6965279297,
				"z": -2.3131545297,
				"element": "N" 
			},
			{
				"x": -1.6083593953,
				"y": 3.6575377213,
				"z": -1.4148342348,
				"element": "S" 
			},
			{
				"x": 0.5055032158,
				"y": 0.8104063556,
				"z": 0.4745557825,
				"element": "C" 
			},
			{
				"x": 1.880849799,
				"y": 1.0600313187,
				"z": 0.6151699339,
				"element": "C" 
			},
			{
				"x": 2.7003683103,
				"y": 0.2009766594,
				"z": 1.347182086,
				"element": "C" 
			},
			{
				"x": 2.1447440425,
				"y": -0.9304907276,
				"z": 1.9388571069,
				"element": "C" 
			},
			{
				"x": 3.2611520413,
				"y": -2.1134229282,
				"z": 2.9449610494,
				"element": "Br" 
			},
			{
				"x": 0.7877901299,
				"y": -1.2196551332,
				"z": 1.7961085467,
				"element": "C" 
			},
			{
				"x": -0.0191416851,
				"y": -0.3538507398,
				"z": 1.0638822655,
				"element": "C" 
			},
			{
				"x": 1.488940828,
				"y": 4.3156841871,
				"z": -0.4869739823,
				"element": "H" 
			},
			{
				"x": 1.1246534902,
				"y": 3.6239070064,
				"z": 1.1012760913,
				"element": "H" 
			},
			{
				"x": 0.1680162211,
				"y": 4.9725918953,
				"z": 0.4809159542,
				"element": "H" 
			},
			{
				"x": -4.0445867322,
				"y": 2.3834931362,
				"z": -2.3453091315,
				"element": "H" 
			},
			{
				"x": -3.6332542172,
				"y": 0.7504403081,
				"z": -2.1679088128,
				"element": "H" 
			},
			{
				"x": 2.3315150076,
				"y": 1.9135308181,
				"z": 0.1213344594,
				"element": "H" 
			},
			{
				"x": 3.7612881128,
				"y": 0.4023798001,
				"z": 1.4430295295,
				"element": "H" 
			},
			{
				"x": 0.3694489292,
				"y": -2.1102685202,
				"z": 2.2514260985,
				"element": "H" 
			},
			{
				"x": -1.0731865905,
				"y": -0.5732825492,
				"z": 0.9356397922,
				"element": "H" 
			}
		],
		 "valence_orbital": [ 
			{
				"type": "occ",
				"energy": -0.27578,
				"method": "rhf"
			},
			{
				"type": "occ",
				"energy": -0.27327,
				"method": "rhf"
			},
			{
				"type": "occ",
				"energy": -0.25783,
				"method": "rhf"
			},
			{
				"type": "occ",
				"energy": -0.24081,
				"method": "rhf"
			},
			{
				"type": "occ",
				"energy": -0.20188,
				"method": "rhf"
			},
			{
				"type": "unocc",
				"energy": -0.03092,
				"method": "rhf"
			},
			{
				"type": "unocc",
				"energy": -0.00972,
				"method": "rhf"
			},
			{
				"type": "unocc",
				"energy": 0.00425,
				"method": "rhf"
			},
			{
				"type": "unocc",
				"energy": 0.00931,
				"method": "rhf"
			},
			{
				"type": "unocc",
				"energy": 0.01523,
				"method": "rhf"
			}
		],
		"cosmo_sigma_profile": { 
			"-0.025": 0.0,
			"-0.024": 0.0,
			"-0.023": 0.0,
			"-0.022": 0.0,
			"-0.021": 0.0,
			"-0.02": 0.0,
			"-0.019": 0.0,
			"-0.018": 0.0,
			"-0.017": 0.0,
			"-0.016": 0.0,
			"-0.015": 0.0963551465098,
			"-0.014": 1.73641170722,
			"-0.013": 2.40744203607,
			"-0.012": 3.12953298784,
			"-0.011": 2.70388623254,
			"-0.01": 2.29417275213,
			"-0.009": 1.60605270091,
			"-0.008": 1.95640735472,
			"-0.007": 4.43872821167,
			"-0.006": 6.83487614278,
			"-0.005": 13.8550093941,
			"-0.004": 16.7050858598,
			"-0.003": 15.7093463847,
			"-0.002": 17.7322016352,
			"-0.001": 15.458982423,
			"0.0": 14.9350642586,
			"0.001": 17.5603648662,
			"0.002": 25.0528522112,
			"0.003": 30.2961021446,
			"0.004": 29.6167188778,
			"0.005": 12.4825738318,
			"0.006": 4.21723833838,
			"0.007": 2.52111182145,
			"0.008": 2.37580953941,
			"0.009": 2.21283989704,
			"0.01": 1.46295584751,
			"0.011": 1.76870970933,
			"0.012": 0.685885041897,
			"0.013": 0.941929656881,
			"0.014": 0.252887504667,
			"0.015": 0.0,
			"0.016": 0.0,
			"0.017": 0.0,
			"0.018": 0.0,
			"0.019": 0.0,
			"0.02": 0.0,
			"0.021": 0.0,
			"0.022": 0.0,
			"0.023": 0.0,
			"0.024": 0.0,
			"0.025": 0.0
		}
	}
}
