{
	 "smiles": "NNC(=O)COC1=CC=CC=C1Cl", 
	 "Tm": 384.65, 
	 "num_atms": 22, 
	 "gaussian": { 
		 "optdone": 1, 
		 "sigma_profile": "yes", 
		 "theory": "DFT", 
		 "functional": "B3LYP", 
		 "basiset": "6-31G**", 
		 "properties": { 
			 "R2extent": 3668.3879, 
			 "electric_dipole_moment_norm": 2.50425086203, 
			 "electric_quadrupole_moment_norm": 8.14897899556, 
			 "total_energy": -1030.38615012, 
			 "HOMO_LUMO_gap": 0.21523, 
			 "cosmo_polarized_energy": -13.23, 
			 "cosmo_cavitation_energy": 28.64, 
			 "cosmo_dispersion_energy": -20.81, 
			 "cosmo_repulsion_energy": 1.67, 
			 "cosmo_total_nonelectrostatic_energy": 9.5, 
			 "SMD_solvation_energy": 6.01 
		},
		"coords": [
			{
				"x": 2.3812395285,
				"y": 1.3386470777,
				"z": -4.2313772687,
				"element": "N" 
			},
			{
				"x": 1.7444730721,
				"y": 1.2156312962,
				"z": -2.9826529459,
				"element": "N" 
			},
			{
				"x": 1.884576455,
				"y": 2.1514033371,
				"z": -2.0120849865,
				"element": "C" 
			},
			{
				"x": 2.5620014767,
				"y": 3.1651813492,
				"z": -2.1302911731,
				"element": "O" 
			},
			{
				"x": 1.1333290899,
				"y": 1.881186329,
				"z": -0.7104144447,
				"element": "C" 
			},
			{
				"x": 0.4190056825,
				"y": 0.6554987999,
				"z": -0.8019790388,
				"element": "O" 
			},
			{
				"x": -0.3182478468,
				"y": 0.2301878836,
				"z": 0.2604204498,
				"element": "C" 
			},
			{
				"x": -0.4351743172,
				"y": 0.922231116,
				"z": 1.4709013415,
				"element": "C" 
			},
			{
				"x": -1.2175831984,
				"y": 0.4028915694,
				"z": 2.5050199537,
				"element": "C" 
			},
			{
				"x": -1.8898646062,
				"y": -0.8062866351,
				"z": 2.3466972904,
				"element": "C" 
			},
			{
				"x": -1.7793519336,
				"y": -1.5045175968,
				"z": 1.1418289273,
				"element": "C" 
			},
			{
				"x": -1.0015424033,
				"y": -0.9910189036,
				"z": 0.1100568544,
				"element": "C" 
			},
			{
				"x": -0.8671034022,
				"y": -1.872803229,
				"z": -1.3999735697,
				"element": "Cl" 
			},
			{
				"x": 3.3812843236,
				"y": 1.4366224196,
				"z": -4.0554403939,
				"element": "H" 
			},
			{
				"x": 2.0923369171,
				"y": 2.2300951787,
				"z": -4.6344877647,
				"element": "H" 
			},
			{
				"x": 1.1742369931,
				"y": 0.3950097324,
				"z": -2.8387554051,
				"element": "H" 
			},
			{
				"x": 1.8686401747,
				"y": 1.8539826404,
				"z": 0.1035486998,
				"element": "H" 
			},
			{
				"x": 0.4553224323,
				"y": 2.7250922166,
				"z": -0.5313082259,
				"element": "H" 
			},
			{
				"x": 0.081260619,
				"y": 1.8644674308,
				"z": 1.6104884573,
				"element": "H" 
			},
			{
				"x": -1.2958684033,
				"y": 0.9545972994,
				"z": 3.4367558822,
				"element": "H" 
			},
			{
				"x": -2.4977575502,
				"y": -1.2101941665,
				"z": 3.1496056886,
				"element": "H" 
			},
			{
				"x": -2.2933131033,
				"y": -2.448105145,
				"z": 0.9944416722,
				"element": "H" 
			}
		],
		 "valence_orbital": [ 
			{
				"type": "occ",
				"energy": -0.27984,
				"method": "rhf"
			},
			{
				"type": "occ",
				"energy": -0.26529,
				"method": "rhf"
			},
			{
				"type": "occ",
				"energy": -0.25994,
				"method": "rhf"
			},
			{
				"type": "occ",
				"energy": -0.25975,
				"method": "rhf"
			},
			{
				"type": "occ",
				"energy": -0.23615,
				"method": "rhf"
			},
			{
				"type": "unocc",
				"energy": -0.02092,
				"method": "rhf"
			},
			{
				"type": "unocc",
				"energy": -0.00749,
				"method": "rhf"
			},
			{
				"type": "unocc",
				"energy": 0.02215,
				"method": "rhf"
			},
			{
				"type": "unocc",
				"energy": 0.02292,
				"method": "rhf"
			},
			{
				"type": "unocc",
				"energy": 0.08247,
				"method": "rhf"
			}
		],
		"cosmo_sigma_profile": { 
			"-0.025": 0.0,
			"-0.024": 0.0,
			"-0.023": 0.0,
			"-0.022": 0.0,
			"-0.021": 0.0,
			"-0.02": 0.0,
			"-0.019": 0.0,
			"-0.018": 0.0,
			"-0.017": 0.0,
			"-0.016": 0.0,
			"-0.015": 0.0,
			"-0.014": 0.0,
			"-0.013": 0.0,
			"-0.012": 0.406868923329,
			"-0.011": 2.69457081322,
			"-0.01": 2.9327582521,
			"-0.009": 2.73073095242,
			"-0.008": 7.40372675858,
			"-0.007": 12.9807016105,
			"-0.006": 14.4086689179,
			"-0.005": 14.5111102532,
			"-0.004": 12.1982771963,
			"-0.003": 12.3615144014,
			"-0.002": 11.5419296359,
			"-0.001": 13.6219719076,
			"0.0": 14.8888789738,
			"0.001": 17.2558475203,
			"0.002": 17.2455982712,
			"0.003": 17.3287786906,
			"0.004": 19.841935614,
			"0.005": 10.8639730786,
			"0.006": 1.43183249428,
			"0.007": 1.97138574503,
			"0.008": 2.00339954546,
			"0.009": 1.93861548073,
			"0.01": 1.80006816301,
			"0.011": 2.13489681958,
			"0.012": 2.46184889242,
			"0.013": 5.11131069219,
			"0.014": 4.41337649298,
			"0.015": 0.800454515958,
			"0.016": 0.519807187941,
			"0.017": 0.150100287395,
			"0.018": 0.0,
			"0.019": 0.0,
			"0.02": 0.0,
			"0.021": 0.0,
			"0.022": 0.0,
			"0.023": 0.0,
			"0.024": 0.0,
			"0.025": 0.0
		}
	}
}
