{
	 "smiles": "[O-][N+](=O)C1=CC(F)=C(C=O)C=C1", 
	 "Tm": 358.15, 
	 "num_atms": 16, 
	 "gaussian": { 
		 "optdone": 1, 
		 "sigma_profile": "yes", 
		 "theory": "DFT", 
		 "functional": "B3LYP", 
		 "basiset": "6-31G**", 
		 "properties": { 
			 "R2extent": 2755.7276, 
			 "electric_dipole_moment_norm": 2.68467057942, 
			 "electric_quadrupole_moment_norm": 25.2032795943, 
			 "total_energy": -649.291908298, 
			 "HOMO_LUMO_gap": 0.15617, 
			 "cosmo_polarized_energy": -11.88, 
			 "cosmo_cavitation_energy": 22.63, 
			 "cosmo_dispersion_energy": -16.36, 
			 "cosmo_repulsion_energy": 1.27, 
			 "cosmo_total_nonelectrostatic_energy": 7.54, 
			 "SMD_solvation_energy": 7.79 
		},
		"coords": [
			{
				"x": 3.267598944,
				"y": 1.1839457722,
				"z": 1.1891654191,
				"element": "O" 
			},
			{
				"x": 2.4578984578,
				"y": 0.2596835098,
				"z": 1.180384972,
				"element": "N" 
			},
			{
				"x": 2.745087467,
				"y": -0.9345960382,
				"z": 1.1970437747,
				"element": "O" 
			},
			{
				"x": 1.0233164035,
				"y": 0.6151783241,
				"z": 1.1468393755,
				"element": "C" 
			},
			{
				"x": 0.0884021279,
				"y": -0.4156642653,
				"z": 1.1362214,
				"element": "C" 
			},
			{
				"x": -1.2563865332,
				"y": -0.0707026274,
				"z": 1.1047096925,
				"element": "C" 
			},
			{
				"x": -2.1559869653,
				"y": -1.0555057145,
				"z": 1.0943961773,
				"element": "F" 
			},
			{
				"x": -1.6765088137,
				"y": 1.2709486428,
				"z": 1.0839184143,
				"element": "C" 
			},
			{
				"x": -3.105799465,
				"y": 1.6817323888,
				"z": 1.0500583428,
				"element": "C" 
			},
			{
				"x": -4.0592594953,
				"y": 0.9342891972,
				"z": 1.0365261104,
				"element": "O" 
			},
			{
				"x": -0.6913782786,
				"y": 2.2707727381,
				"z": 1.0958690473,
				"element": "C" 
			},
			{
				"x": 0.663687747,
				"y": 1.9611801508,
				"z": 1.1272728132,
				"element": "C" 
			},
			{
				"x": 0.3994840159,
				"y": -1.4519544727,
				"z": 1.1520250638,
				"element": "H" 
			},
			{
				"x": -3.2394828097,
				"y": 2.786627292,
				"z": 1.0370450041,
				"element": "H" 
			},
			{
				"x": -1.006516236,
				"y": 3.3107902163,
				"z": 1.0799640903,
				"element": "H" 
			},
			{
				"x": 1.4323434336,
				"y": 2.722674886,
				"z": 1.1367603026,
				"element": "H" 
			}
		],
		 "valence_orbital": [ 
			{
				"type": "occ",
				"energy": -0.32548,
				"method": "rhf"
			},
			{
				"type": "occ",
				"energy": -0.31001,
				"method": "rhf"
			},
			{
				"type": "occ",
				"energy": -0.30678,
				"method": "rhf"
			},
			{
				"type": "occ",
				"energy": -0.28801,
				"method": "rhf"
			},
			{
				"type": "occ",
				"energy": -0.2761,
				"method": "rhf"
			},
			{
				"type": "unocc",
				"energy": -0.11993,
				"method": "rhf"
			},
			{
				"type": "unocc",
				"energy": -0.06022,
				"method": "rhf"
			},
			{
				"type": "unocc",
				"energy": -0.04493,
				"method": "rhf"
			},
			{
				"type": "unocc",
				"energy": 0.02085,
				"method": "rhf"
			},
			{
				"type": "unocc",
				"energy": 0.06184,
				"method": "rhf"
			}
		],
		"cosmo_sigma_profile": { 
			"-0.025": 0.0,
			"-0.024": 0.0,
			"-0.023": 0.0,
			"-0.022": 0.0,
			"-0.021": 0.0,
			"-0.02": 0.0,
			"-0.019": 0.0,
			"-0.018": 0.0,
			"-0.017": 0.0,
			"-0.016": 0.0,
			"-0.015": 0.0,
			"-0.014": 0.0,
			"-0.013": 0.0,
			"-0.012": 0.0,
			"-0.011": 0.000390177396567,
			"-0.01": 1.41684655567,
			"-0.009": 5.35845926193,
			"-0.008": 7.50816197791,
			"-0.007": 9.77336188423,
			"-0.006": 7.58500958987,
			"-0.005": 9.26143771521,
			"-0.004": 10.3958690523,
			"-0.003": 18.1513213741,
			"-0.002": 19.5369315036,
			"-0.001": 11.7888207951,
			"0.0": 8.49471461511,
			"0.001": 5.69117655755,
			"0.002": 5.95442124513,
			"0.003": 9.96973735155,
			"0.004": 5.20634409534,
			"0.005": 5.47509512747,
			"0.006": 8.19184269004,
			"0.007": 11.1577781688,
			"0.008": 6.83994432255,
			"0.009": 6.37683837248,
			"0.01": 4.58298333205,
			"0.011": 3.63745437284,
			"0.012": 0.706751307805,
			"0.013": 0.0,
			"0.014": 0.0,
			"0.015": 0.0,
			"0.016": 0.0,
			"0.017": 0.0,
			"0.018": 0.0,
			"0.019": 0.0,
			"0.02": 0.0,
			"0.021": 0.0,
			"0.022": 0.0,
			"0.023": 0.0,
			"0.024": 0.0,
			"0.025": 0.0
		}
	}
}
