{
	 "smiles": "ClC#CCl", 
	 "Tm": 207.15, 
	 "num_atms": 4, 
	 "gaussian": { 
		 "optdone": 1, 
		 "sigma_profile": "yes", 
		 "theory": "DFT", 
		 "functional": "B3LYP", 
		 "basiset": "6-31G**", 
		 "properties": { 
			 "R2extent": 1270.6829, 
			 "electric_dipole_moment_norm": 0.000244948974278, 
			 "electric_quadrupole_moment_norm": 3.38602573381, 
			 "total_energy": -996.49042216, 
			 "HOMO_LUMO_gap": 0.26621, 
			 "cosmo_polarized_energy": -0.88, 
			 "cosmo_cavitation_energy": 12.89, 
			 "cosmo_dispersion_energy": -9.85, 
			 "cosmo_repulsion_energy": 0.93, 
			 "cosmo_total_nonelectrostatic_energy": 3.97, 
			 "SMD_solvation_energy": 3.57 
		},
		"coords": [
			{
				"x": -2.5495168132,
				"y": -0.7834477446,
				"z": -2.250623552,
				"element": "Cl" 
			},
			{
				"x": -1.1577379673,
				"y": -1.1571832557,
				"z": -1.4491111574,
				"element": "C" 
			},
			{
				"x": -0.1399796063,
				"y": -1.4305512032,
				"z": -0.8629968897,
				"element": "C" 
			},
			{
				"x": 1.2514343868,
				"y": -1.8041177965,
				"z": -0.0607684009,
				"element": "Cl" 
			}
		],
		 "valence_orbital": [ 
			{
				"type": "occ",
				"energy": -0.41577,
				"method": "rhf"
			},
			{
				"type": "occ",
				"energy": -0.381,
				"method": "rhf"
			},
			{
				"type": "occ",
				"energy": -0.381,
				"method": "rhf"
			},
			{
				"type": "occ",
				"energy": -0.26635,
				"method": "rhf"
			},
			{
				"type": "occ",
				"energy": -0.26635,
				"method": "rhf"
			},
			{
				"type": "unocc",
				"energy": -0.00014,
				"method": "rhf"
			},
			{
				"type": "unocc",
				"energy": 0.03833,
				"method": "rhf"
			},
			{
				"type": "unocc",
				"energy": 0.03833,
				"method": "rhf"
			},
			{
				"type": "unocc",
				"energy": 0.05438,
				"method": "rhf"
			},
			{
				"type": "unocc",
				"energy": 0.23902,
				"method": "rhf"
			}
		],
		"cosmo_sigma_profile": { 
			"-0.025": 0.0,
			"-0.024": 0.0,
			"-0.023": 0.0,
			"-0.022": 0.0,
			"-0.021": 0.0,
			"-0.02": 0.0,
			"-0.019": 0.0,
			"-0.018": 0.0,
			"-0.017": 0.0,
			"-0.016": 0.0,
			"-0.015": 0.0,
			"-0.014": 0.0,
			"-0.013": 0.0,
			"-0.012": 0.0,
			"-0.011": 0.0,
			"-0.01": 0.0,
			"-0.009": 0.0,
			"-0.008": 0.0,
			"-0.007": 0.624597770606,
			"-0.006": 2.43062134955,
			"-0.005": 3.22786302856,
			"-0.004": 2.74883915174,
			"-0.003": 3.75688374156,
			"-0.002": 4.20198339193,
			"-0.001": 14.3969605668,
			"0.0": 28.7952501809,
			"0.001": 31.1911948815,
			"0.002": 9.09290784219,
			"0.003": 9.68464865526,
			"0.004": 0.205086451345,
			"0.005": 0.0,
			"0.006": 0.0,
			"0.007": 0.0,
			"0.008": 0.0,
			"0.009": 0.0,
			"0.01": 0.0,
			"0.011": 0.0,
			"0.012": 0.0,
			"0.013": 0.0,
			"0.014": 0.0,
			"0.015": 0.0,
			"0.016": 0.0,
			"0.017": 0.0,
			"0.018": 0.0,
			"0.019": 0.0,
			"0.02": 0.0,
			"0.021": 0.0,
			"0.022": 0.0,
			"0.023": 0.0,
			"0.024": 0.0,
			"0.025": 0.0
		}
	}
}
