{
	 "smiles": "NC1=CC(=CC=C1)C1=NNC2=C1CCCC2", 
	 "Tm": 433.15, 
	 "num_atms": 31, 
	 "gaussian": { 
		 "optdone": 1, 
		 "sigma_profile": "yes", 
		 "theory": "DFT", 
		 "functional": "B3LYP", 
		 "basiset": "6-31G**", 
		 "properties": { 
			 "R2extent": 4836.8702, 
			 "electric_dipole_moment_norm": 2.94535228793, 
			 "electric_quadrupole_moment_norm": 16.8505482291, 
			 "total_energy": -668.684846551, 
			 "HOMO_LUMO_gap": 0.18528, 
			 "cosmo_polarized_energy": -15.93, 
			 "cosmo_cavitation_energy": 32.74, 
			 "cosmo_dispersion_energy": -24.46, 
			 "cosmo_repulsion_energy": 1.92, 
			 "cosmo_total_nonelectrostatic_energy": 10.2, 
			 "SMD_solvation_energy": 3.57 
		},
		"coords": [
			{
				"x": 1.1589434859,
				"y": 1.7925708357,
				"z": -4.5390968191,
				"element": "N" 
			},
			{
				"x": -0.0333315158,
				"y": 1.4351924414,
				"z": -3.89536212,
				"element": "C" 
			},
			{
				"x": -0.0887545458,
				"y": 1.3603963932,
				"z": -2.4943783973,
				"element": "C" 
			},
			{
				"x": -1.2548057328,
				"y": 0.9523166293,
				"z": -1.832839357,
				"element": "C" 
			},
			{
				"x": -2.3910537818,
				"y": 0.62269538,
				"z": -2.5928061938,
				"element": "C" 
			},
			{
				"x": -2.3389220491,
				"y": 0.6998766148,
				"z": -3.9814445601,
				"element": "C" 
			},
			{
				"x": -1.1748048451,
				"y": 1.0972981067,
				"z": -4.6383697193,
				"element": "C" 
			},
			{
				"x": -1.3085434454,
				"y": 0.8740536307,
				"z": -0.3608359,
				"element": "C" 
			},
			{
				"x": -2.4942514252,
				"y": 0.9363685013,
				"z": 0.2614604477,
				"element": "N" 
			},
			{
				"x": -2.2046372108,
				"y": 0.808559779,
				"z": 1.5732318567,
				"element": "N" 
			},
			{
				"x": -0.8740249695,
				"y": 0.6687376692,
				"z": 1.8166885587,
				"element": "C" 
			},
			{
				"x": -0.2487644004,
				"y": 0.7032144795,
				"z": 0.583884412,
				"element": "C" 
			},
			{
				"x": 1.2398064484,
				"y": 0.5300347083,
				"z": 0.444535932,
				"element": "C" 
			},
			{
				"x": 1.8345789532,
				"y": -0.059014993,
				"z": 1.740687434,
				"element": "C" 
			},
			{
				"x": 1.3024845262,
				"y": 0.6546454255,
				"z": 2.9954816085,
				"element": "C" 
			},
			{
				"x": -0.221830191,
				"y": 0.4710340583,
				"z": 3.150300848,
				"element": "C" 
			},
			{
				"x": 1.0342351353,
				"y": 2.1854716331,
				"z": -5.4625674112,
				"element": "H" 
			},
			{
				"x": 1.782528787,
				"y": 2.3609365534,
				"z": -3.9814857438,
				"element": "H" 
			},
			{
				"x": 0.7882896617,
				"y": 1.6453726253,
				"z": -1.9218469808,
				"element": "H" 
			},
			{
				"x": -3.2949191102,
				"y": 0.3112149617,
				"z": -2.0826419158,
				"element": "H" 
			},
			{
				"x": -3.2178049316,
				"y": 0.4440007823,
				"z": -4.5673974152,
				"element": "H" 
			},
			{
				"x": -1.144690654,
				"y": 1.145462196,
				"z": -5.7242746619,
				"element": "H" 
			},
			{
				"x": -2.9575070169,
				"y": 0.8436102935,
				"z": 2.2426072095,
				"element": "H" 
			},
			{
				"x": 1.7237113645,
				"y": 1.4962851798,
				"z": 0.2360699475,
				"element": "H" 
			},
			{
				"x": 1.4791616318,
				"y": -0.1175903154,
				"z": -0.4069822489,
				"element": "H" 
			},
			{
				"x": 1.5826682281,
				"y": -1.1262267978,
				"z": 1.8014495477,
				"element": "H" 
			},
			{
				"x": 2.9279917086,
				"y": 0.0052878985,
				"z": 1.7091841224,
				"element": "H" 
			},
			{
				"x": 1.5307934888,
				"y": 1.7261074167,
				"z": 2.9243520028,
				"element": "H" 
			},
			{
				"x": 1.8098778305,
				"y": 0.2815889777,
				"z": 3.8917258608,
				"element": "H" 
			},
			{
				"x": -0.6179908309,
				"y": 1.1727389409,
				"z": 3.8958360823,
				"element": "H" 
			},
			{
				"x": -0.4368345936,
				"y": -0.5382400056,
				"z": 3.5306335732,
				"element": "H" 
			}
		],
		 "valence_orbital": [ 
			{
				"type": "occ",
				"energy": -0.27293,
				"method": "rhf"
			},
			{
				"type": "occ",
				"energy": -0.26108,
				"method": "rhf"
			},
			{
				"type": "occ",
				"energy": -0.2222,
				"method": "rhf"
			},
			{
				"type": "occ",
				"energy": -0.2122,
				"method": "rhf"
			},
			{
				"type": "occ",
				"energy": -0.18907,
				"method": "rhf"
			},
			{
				"type": "unocc",
				"energy": -0.00379,
				"method": "rhf"
			},
			{
				"type": "unocc",
				"energy": 0.0243,
				"method": "rhf"
			},
			{
				"type": "unocc",
				"energy": 0.04019,
				"method": "rhf"
			},
			{
				"type": "unocc",
				"energy": 0.08448,
				"method": "rhf"
			},
			{
				"type": "unocc",
				"energy": 0.08709,
				"method": "rhf"
			}
		],
		"cosmo_sigma_profile": { 
			"-0.025": 0.0,
			"-0.024": 0.0,
			"-0.023": 0.0,
			"-0.022": 0.0,
			"-0.021": 0.0,
			"-0.02": 0.0,
			"-0.019": 0.0,
			"-0.018": 0.0,
			"-0.017": 0.0,
			"-0.016": 0.69675611102,
			"-0.015": 1.24203362811,
			"-0.014": 1.36588858018,
			"-0.013": 1.6822700182,
			"-0.012": 2.15666895799,
			"-0.011": 3.49125891101,
			"-0.01": 4.39655701019,
			"-0.009": 4.15458714071,
			"-0.008": 4.23934922109,
			"-0.007": 3.23345124275,
			"-0.006": 4.90711894091,
			"-0.005": 8.08671228819,
			"-0.004": 12.7544434938,
			"-0.003": 24.1626210287,
			"-0.002": 28.602136119,
			"-0.001": 28.7466097642,
			"0.0": 21.3330914666,
			"0.001": 14.2188845566,
			"0.002": 8.34190376473,
			"0.003": 9.15063732217,
			"0.004": 10.1808271249,
			"0.005": 15.2547864148,
			"0.006": 15.0509592669,
			"0.007": 12.0298043119,
			"0.008": 3.53215973974,
			"0.009": 3.22233576382,
			"0.01": 2.68466172015,
			"0.011": 1.5132865557,
			"0.012": 2.00834119758,
			"0.013": 1.98519948733,
			"0.014": 1.45513751179,
			"0.015": 1.1754498274,
			"0.016": 0.65521070793,
			"0.017": 0.000953937821451,
			"0.018": 0.0,
			"0.019": 0.0,
			"0.02": 0.0,
			"0.021": 0.0,
			"0.022": 0.0,
			"0.023": 0.0,
			"0.024": 0.0,
			"0.025": 0.0
		}
	}
}
