{
	 "smiles": "NC1=CC=C(C=O)C=C1", 
	 "Tm": 344.65, 
	 "num_atms": 16, 
	 "gaussian": { 
		 "optdone": 1, 
		 "sigma_profile": "yes", 
		 "theory": "DFT", 
		 "functional": "B3LYP", 
		 "basiset": "6-31G**", 
		 "properties": { 
			 "R2extent": 1475.0661, 
			 "electric_dipole_moment_norm": 5.52649752194, 
			 "electric_quadrupole_moment_norm": 7.96796842677, 
			 "total_energy": -400.937179691, 
			 "HOMO_LUMO_gap": 0.17256, 
			 "cosmo_polarized_energy": -13.54, 
			 "cosmo_cavitation_energy": 20.41, 
			 "cosmo_dispersion_energy": -15.1, 
			 "cosmo_repulsion_energy": 1.24, 
			 "cosmo_total_nonelectrostatic_energy": 6.54, 
			 "SMD_solvation_energy": 4.6 
		},
		"coords": [
			{
				"x": 3.2632365428,
				"y": -1.217882633,
				"z": -0.1710626013,
				"element": "N" 
			},
			{
				"x": 1.9428397095,
				"y": -0.8746912591,
				"z": -0.3943850003,
				"element": "C" 
			},
			{
				"x": 1.5531692873,
				"y": 0.483273172,
				"z": -0.4336105237,
				"element": "C" 
			},
			{
				"x": 0.2412101837,
				"y": 0.828178834,
				"z": -0.7042921485,
				"element": "C" 
			},
			{
				"x": -0.7284027175,
				"y": -0.161780007,
				"z": -0.9453977681,
				"element": "C" 
			},
			{
				"x": -2.1219413044,
				"y": 0.2063288232,
				"z": -1.229633064,
				"element": "C" 
			},
			{
				"x": -2.550168602,
				"y": 1.3475362841,
				"z": -1.2799603801,
				"element": "O" 
			},
			{
				"x": -0.3399311955,
				"y": -1.5094232065,
				"z": -0.9072674134,
				"element": "C" 
			},
			{
				"x": 0.9725095833,
				"y": -1.8682577334,
				"z": -0.6361033096,
				"element": "C" 
			},
			{
				"x": 3.8482768184,
				"y": -0.5262334209,
				"z": 0.273676531,
				"element": "H" 
			},
			{
				"x": 3.4481747354,
				"y": -2.1627624777,
				"z": 0.1312819387,
				"element": "H" 
			},
			{
				"x": 2.2972996907,
				"y": 1.2548646006,
				"z": -0.2516710482,
				"element": "H" 
			},
			{
				"x": -0.0681438483,
				"y": 1.8684044597,
				"z": -0.7342072643,
				"element": "H" 
			},
			{
				"x": -2.7991951111,
				"y": -0.6611268722,
				"z": -1.4051838855,
				"element": "H" 
			},
			{
				"x": -1.0816819619,
				"y": -2.2838933049,
				"z": -1.0907708318,
				"element": "H" 
			},
			{
				"x": 1.2623481896,
				"y": -2.9156352588,
				"z": -0.6119132308,
				"element": "H" 
			}
		],
		 "valence_orbital": [ 
			{
				"type": "occ",
				"energy": -0.34698,
				"method": "rhf"
			},
			{
				"type": "occ",
				"energy": -0.31365,
				"method": "rhf"
			},
			{
				"type": "occ",
				"energy": -0.26073,
				"method": "rhf"
			},
			{
				"type": "occ",
				"energy": -0.23946,
				"method": "rhf"
			},
			{
				"type": "occ",
				"energy": -0.21605,
				"method": "rhf"
			},
			{
				"type": "unocc",
				"energy": -0.04349,
				"method": "rhf"
			},
			{
				"type": "unocc",
				"energy": -0.00768,
				"method": "rhf"
			},
			{
				"type": "unocc",
				"energy": 0.05424,
				"method": "rhf"
			},
			{
				"type": "unocc",
				"energy": 0.0711,
				"method": "rhf"
			},
			{
				"type": "unocc",
				"energy": 0.10138,
				"method": "rhf"
			}
		],
		"cosmo_sigma_profile": { 
			"-0.025": 0.0,
			"-0.024": 0.0,
			"-0.023": 0.0,
			"-0.022": 0.0,
			"-0.021": 0.0,
			"-0.02": 0.0,
			"-0.019": 0.0,
			"-0.018": 0.0,
			"-0.017": 0.0,
			"-0.016": 0.0,
			"-0.015": 0.0,
			"-0.014": 0.306440366283,
			"-0.013": 2.84415405704,
			"-0.012": 2.67006634305,
			"-0.011": 3.35990496,
			"-0.01": 3.74870083349,
			"-0.009": 2.34393640288,
			"-0.008": 2.48037573178,
			"-0.007": 5.28138375466,
			"-0.006": 8.92655468082,
			"-0.005": 10.2670884546,
			"-0.004": 10.6541453678,
			"-0.003": 7.70342659271,
			"-0.002": 8.25979267179,
			"-0.001": 8.55647063134,
			"0.0": 7.41636699637,
			"0.001": 7.24499555123,
			"0.002": 10.0001917891,
			"0.003": 10.7658040202,
			"0.004": 14.9833539785,
			"0.005": 10.0615407133,
			"0.006": 2.59713675268,
			"0.007": 2.52484181683,
			"0.008": 2.14581234915,
			"0.009": 2.18158296508,
			"0.01": 3.10772521918,
			"0.011": 3.14563899735,
			"0.012": 4.77778038324,
			"0.013": 3.16463510473,
			"0.014": 1.08280337876,
			"0.015": 0.0,
			"0.016": 0.0,
			"0.017": 0.0,
			"0.018": 0.0,
			"0.019": 0.0,
			"0.02": 0.0,
			"0.021": 0.0,
			"0.022": 0.0,
			"0.023": 0.0,
			"0.024": 0.0,
			"0.025": 0.0
		}
	}
}
