{
	 "smiles": "BrCC1=NN(N=C1)C1=CC=CC=C1", 
	 "Tm": 318.15, 
	 "num_atms": 21, 
	 "gaussian": { 
		 "optdone": 1, 
		 "sigma_profile": "yes", 
		 "theory": "DFT", 
		 "functional": "B3LYP", 
		 "basiset": "6-31G**", 
		 "properties": { 
			 "R2extent": 6827.2911, 
			 "electric_dipole_moment_norm": 2.18185332917, 
			 "electric_quadrupole_moment_norm": 12.2525867803, 
			 "total_energy": -3083.40943908, 
			 "HOMO_LUMO_gap": 0.18484, 
			 "cosmo_polarized_energy": -8.19, 
			 "cosmo_cavitation_energy": 28.16, 
			 "cosmo_dispersion_energy": -21.17, 
			 "cosmo_repulsion_energy": 1.69, 
			 "cosmo_total_nonelectrostatic_energy": 8.68, 
			 "SMD_solvation_energy": 2.25 
		},
		"coords": [
			{
				"x": 4.2259173697,
				"y": -2.1933718022,
				"z": 3.3572957558,
				"element": "Br" 
			},
			{
				"x": 2.9807453737,
				"y": -0.6266181135,
				"z": 3.4182426615,
				"element": "C" 
			},
			{
				"x": 2.6453239946,
				"y": -0.121880407,
				"z": 2.0683061275,
				"element": "C" 
			},
			{
				"x": 1.4783074464,
				"y": -0.4147898731,
				"z": 1.4852146162,
				"element": "N" 
			},
			{
				"x": 1.5352751538,
				"y": 0.2150927435,
				"z": 0.3116494438,
				"element": "N" 
			},
			{
				"x": 2.663450138,
				"y": 0.9018938708,
				"z": 0.0862909838,
				"element": "N" 
			},
			{
				"x": 3.380234911,
				"y": 0.699990728,
				"z": 1.1874431247,
				"element": "C" 
			},
			{
				"x": 0.4704137908,
				"y": 0.1696313852,
				"z": -0.6329193087,
				"element": "C" 
			},
			{
				"x": -0.671459089,
				"y": -0.5833839568,
				"z": -0.3455967007,
				"element": "C" 
			},
			{
				"x": -1.7078821109,
				"y": -0.6214526829,
				"z": -1.2764907633,
				"element": "C" 
			},
			{
				"x": -1.6090727657,
				"y": 0.0805928934,
				"z": -2.4796367653,
				"element": "C" 
			},
			{
				"x": -0.460424085,
				"y": 0.8270569382,
				"z": -2.7509000997,
				"element": "C" 
			},
			{
				"x": 0.5862541702,
				"y": 0.8780345058,
				"z": -1.8321776547,
				"element": "C" 
			},
			{
				"x": 3.506369873,
				"y": 0.1100013605,
				"z": 4.0224761399,
				"element": "H" 
			},
			{
				"x": 2.0944807346,
				"y": -0.9857781755,
				"z": 3.9357299258,
				"element": "H" 
			},
			{
				"x": 4.3643870596,
				"y": 1.1307940699,
				"z": 1.3004440012,
				"element": "H" 
			},
			{
				"x": -0.7331774489,
				"y": -1.1240554138,
				"z": 0.5906183858,
				"element": "H" 
			},
			{
				"x": -2.5965254336,
				"y": -1.2056406254,
				"z": -1.057179829,
				"element": "H" 
			},
			{
				"x": -2.4203580282,
				"y": 0.0456995186,
				"z": -3.2002855081,
				"element": "H" 
			},
			{
				"x": -0.3742224831,
				"y": 1.3757718244,
				"z": -3.6839315433,
				"element": "H" 
			},
			{
				"x": 1.483161429,
				"y": 1.4521112117,
				"z": -2.0284929935,
				"element": "H" 
			}
		],
		 "valence_orbital": [ 
			{
				"type": "occ",
				"energy": -0.29885,
				"method": "rhf"
			},
			{
				"type": "occ",
				"energy": -0.27599,
				"method": "rhf"
			},
			{
				"type": "occ",
				"energy": -0.27421,
				"method": "rhf"
			},
			{
				"type": "occ",
				"energy": -0.26178,
				"method": "rhf"
			},
			{
				"type": "occ",
				"energy": -0.23531,
				"method": "rhf"
			},
			{
				"type": "unocc",
				"energy": -0.05047,
				"method": "rhf"
			},
			{
				"type": "unocc",
				"energy": -0.02152,
				"method": "rhf"
			},
			{
				"type": "unocc",
				"energy": -0.0106,
				"method": "rhf"
			},
			{
				"type": "unocc",
				"energy": 0.02552,
				"method": "rhf"
			},
			{
				"type": "unocc",
				"energy": 0.06172,
				"method": "rhf"
			}
		],
		"cosmo_sigma_profile": { 
			"-0.025": 0.0,
			"-0.024": 0.0,
			"-0.023": 0.0,
			"-0.022": 0.0,
			"-0.021": 0.0,
			"-0.02": 0.0,
			"-0.019": 0.0,
			"-0.018": 0.0,
			"-0.017": 0.0,
			"-0.016": 0.0,
			"-0.015": 0.0,
			"-0.014": 0.0,
			"-0.013": 0.0,
			"-0.012": 0.0,
			"-0.011": 0.0,
			"-0.01": 0.307575311657,
			"-0.009": 3.28282605228,
			"-0.008": 6.72498860463,
			"-0.007": 6.69768800818,
			"-0.006": 13.0704879501,
			"-0.005": 15.5553721031,
			"-0.004": 14.693460901,
			"-0.003": 11.3257428606,
			"-0.002": 12.0887215262,
			"-0.001": 16.094240761,
			"0.0": 16.8983769703,
			"0.001": 17.8695675842,
			"0.002": 19.640181669,
			"0.003": 19.3348001214,
			"0.004": 19.4413490859,
			"0.005": 14.6420679933,
			"0.006": 13.2601214326,
			"0.007": 2.55893233988,
			"0.008": 2.35026867246,
			"0.009": 2.61510937669,
			"0.01": 1.22201898762,
			"0.011": 0.339840045815,
			"0.012": 0.0,
			"0.013": 0.0,
			"0.014": 0.0,
			"0.015": 0.0,
			"0.016": 0.0,
			"0.017": 0.0,
			"0.018": 0.0,
			"0.019": 0.0,
			"0.02": 0.0,
			"0.021": 0.0,
			"0.022": 0.0,
			"0.023": 0.0,
			"0.024": 0.0,
			"0.025": 0.0
		}
	}
}
