{
	 "smiles": "CS(=O)(=O)N1CCCC(C1)C(O)=O", 
	 "Tm": 381.15, 
	 "num_atms": 26, 
	 "gaussian": { 
		 "optdone": 1, 
		 "sigma_profile": "yes", 
		 "theory": "DFT", 
		 "functional": "B3LYP", 
		 "basiset": "6-31G**", 
		 "properties": { 
			 "R2extent": 3033.1871, 
			 "electric_dipole_moment_norm": 8.4007988882, 
			 "electric_quadrupole_moment_norm": 22.1126924044, 
			 "total_energy": -1028.35752874, 
			 "HOMO_LUMO_gap": 0.26903, 
			 "cosmo_polarized_energy": -21.54, 
			 "cosmo_cavitation_energy": 27.72, 
			 "cosmo_dispersion_energy": -20.99, 
			 "cosmo_repulsion_energy": 1.58, 
			 "cosmo_total_nonelectrostatic_energy": 8.31, 
			 "SMD_solvation_energy": 4.11 
		},
		"coords": [
			{
				"x": 0.0677930349,
				"y": 2.2253792081,
				"z": 2.7726420133,
				"element": "C" 
			},
			{
				"x": 1.0892349133,
				"y": 1.0296062331,
				"z": 1.9005642525,
				"element": "S" 
			},
			{
				"x": 1.7822585944,
				"y": 0.2024056002,
				"z": 2.8885534359,
				"element": "O" 
			},
			{
				"x": 1.8740529275,
				"y": 1.7779016915,
				"z": 0.8910386403,
				"element": "O" 
			},
			{
				"x": -0.0382829238,
				"y": 0.0535049158,
				"z": 1.1242110092,
				"element": "N" 
			},
			{
				"x": -0.7456478748,
				"y": 0.6293323017,
				"z": -0.0410579792,
				"element": "C" 
			},
			{
				"x": -0.0634495788,
				"y": 0.3212263127,
				"z": -1.3787057804,
				"element": "C" 
			},
			{
				"x": 0.165001832,
				"y": -1.1876290745,
				"z": -1.534019097,
				"element": "C" 
			},
			{
				"x": 0.9245604681,
				"y": -1.8167317916,
				"z": -0.3379429179,
				"element": "C" 
			},
			{
				"x": 0.2781937208,
				"y": -1.3850779542,
				"z": 1.0020288401,
				"element": "C" 
			},
			{
				"x": 2.4543521944,
				"y": -1.6839747786,
				"z": -0.4779512612,
				"element": "C" 
			},
			{
				"x": 3.0541696697,
				"y": -0.4789600445,
				"z": -0.4077943612,
				"element": "O" 
			},
			{
				"x": 3.1218134253,
				"y": -2.6636810027,
				"z": -0.7218913155,
				"element": "O" 
			},
			{
				"x": -0.5340899974,
				"y": 1.6878043853,
				"z": 3.5048013256,
				"element": "H" 
			},
			{
				"x": -0.5592468826,
				"y": 2.7727528282,
				"z": 2.0690641396,
				"element": "H" 
			},
			{
				"x": 0.7589802268,
				"y": 2.910598956,
				"z": 3.2664976792,
				"element": "H" 
			},
			{
				"x": -1.7565438691,
				"y": 0.2004468124,
				"z": -0.0281703621,
				"element": "H" 
			},
			{
				"x": -0.8545147922,
				"y": 1.7071499138,
				"z": 0.1002919351,
				"element": "H" 
			},
			{
				"x": 0.8807886717,
				"y": 0.8705924728,
				"z": -1.4435370851,
				"element": "H" 
			},
			{
				"x": -0.6987462939,
				"y": 0.688958225,
				"z": -2.1928013286,
				"element": "H" 
			},
			{
				"x": 0.6931532353,
				"y": -1.4067659692,
				"z": -2.4674150914,
				"element": "H" 
			},
			{
				"x": -0.8116707343,
				"y": -1.6857572555,
				"z": -1.6050231909,
				"element": "H" 
			},
			{
				"x": 0.7910551261,
				"y": -2.9006045351,
				"z": -0.3926727737,
				"element": "H" 
			},
			{
				"x": -0.6809098654,
				"y": -1.9120092619,
				"z": 1.086040847,
				"element": "H" 
			},
			{
				"x": 0.886915289,
				"y": -1.6760263494,
				"z": 1.8589463582,
				"element": "H" 
			},
			{
				"x": 2.506579483,
				"y": 0.2673581609,
				"z": -0.0983979319,
				"element": "H" 
			}
		],
		 "valence_orbital": [ 
			{
				"type": "occ",
				"energy": -0.32597,
				"method": "rhf"
			},
			{
				"type": "occ",
				"energy": -0.31966,
				"method": "rhf"
			},
			{
				"type": "occ",
				"energy": -0.29519,
				"method": "rhf"
			},
			{
				"type": "occ",
				"energy": -0.27094,
				"method": "rhf"
			},
			{
				"type": "occ",
				"energy": -0.24895,
				"method": "rhf"
			},
			{
				"type": "unocc",
				"energy": 0.02008,
				"method": "rhf"
			},
			{
				"type": "unocc",
				"energy": 0.04351,
				"method": "rhf"
			},
			{
				"type": "unocc",
				"energy": 0.0461,
				"method": "rhf"
			},
			{
				"type": "unocc",
				"energy": 0.06449,
				"method": "rhf"
			},
			{
				"type": "unocc",
				"energy": 0.06986,
				"method": "rhf"
			}
		],
		"cosmo_sigma_profile": { 
			"-0.025": 0.0,
			"-0.024": 0.0,
			"-0.023": 0.0,
			"-0.022": 0.0,
			"-0.021": 0.0,
			"-0.02": 0.0,
			"-0.019": 0.0,
			"-0.018": 0.0,
			"-0.017": 0.0,
			"-0.016": 0.0,
			"-0.015": 0.0,
			"-0.014": 0.0,
			"-0.013": 0.0,
			"-0.012": 0.0,
			"-0.011": 0.325261849079,
			"-0.01": 2.34914776194,
			"-0.009": 4.98110243655,
			"-0.008": 6.33478248032,
			"-0.007": 7.60889256391,
			"-0.006": 17.2874790214,
			"-0.005": 23.3800895983,
			"-0.004": 25.4450588363,
			"-0.003": 18.2267551081,
			"-0.002": 14.0619578381,
			"-0.001": 11.883422064,
			"0.0": 5.87773828273,
			"0.001": 5.86668149332,
			"0.002": 6.39949027372,
			"0.003": 4.93285504562,
			"0.004": 4.97949746156,
			"0.005": 5.11271910454,
			"0.006": 4.61909825539,
			"0.007": 4.42068899036,
			"0.008": 5.35695470929,
			"0.009": 6.44894107302,
			"0.01": 9.81232256417,
			"0.011": 9.99284642911,
			"0.012": 6.61194506612,
			"0.013": 4.16226355785,
			"0.014": 0.7132154672,
			"0.015": 0.0,
			"0.016": 0.0,
			"0.017": 0.0,
			"0.018": 0.0,
			"0.019": 0.0,
			"0.02": 0.0,
			"0.021": 0.0,
			"0.022": 0.0,
			"0.023": 0.0,
			"0.024": 0.0,
			"0.025": 0.0
		}
	}
}
