{
	 "smiles": "CN(C)CC1=CC(N)=NC=C1", 
	 "Tm": 332.15, 
	 "num_atms": 24, 
	 "gaussian": { 
		 "optdone": 1, 
		 "sigma_profile": "yes", 
		 "theory": "DFT", 
		 "functional": "B3LYP", 
		 "basiset": "6-31G**", 
		 "properties": { 
			 "R2extent": 2641.7421, 
			 "electric_dipole_moment_norm": 1.83980354114, 
			 "electric_quadrupole_moment_norm": 10.0185235599, 
			 "total_energy": -476.935461855, 
			 "HOMO_LUMO_gap": 0.1949, 
			 "cosmo_polarized_energy": -10.39, 
			 "cosmo_cavitation_energy": 26.42, 
			 "cosmo_dispersion_energy": -18.99, 
			 "cosmo_repulsion_energy": 1.53, 
			 "cosmo_total_nonelectrostatic_energy": 8.96, 
			 "SMD_solvation_energy": 0.7 
		},
		"coords": [
			{
				"x": -1.8633733702,
				"y": 0.7642262038,
				"z": -1.7516349648,
				"element": "C" 
			},
			{
				"x": -1.0262881534,
				"y": 1.9365179756,
				"z": -1.957125223,
				"element": "N" 
			},
			{
				"x": -0.5040622803,
				"y": 2.0142946903,
				"z": -3.3138816454,
				"element": "C" 
			},
			{
				"x": -0.0193187062,
				"y": 2.1460346657,
				"z": -0.9102477915,
				"element": "C" 
			},
			{
				"x": 1.0733405143,
				"y": 1.0896830329,
				"z": -0.7971280589,
				"element": "C" 
			},
			{
				"x": 0.9178406988,
				"y": -0.0153300106,
				"z": 0.034859443,
				"element": "C" 
			},
			{
				"x": 1.9308759487,
				"y": -0.9951207325,
				"z": 0.0818796687,
				"element": "C" 
			},
			{
				"x": 1.8371186765,
				"y": -2.0826408878,
				"z": 0.932931147,
				"element": "N" 
			},
			{
				"x": 3.054713259,
				"y": -0.9114230696,
				"z": -0.6467337868,
				"element": "N" 
			},
			{
				"x": 3.1987035562,
				"y": 0.1634052787,
				"z": -1.4316865663,
				"element": "C" 
			},
			{
				"x": 2.2573055718,
				"y": 1.1806308518,
				"z": -1.5485651002,
				"element": "C" 
			},
			{
				"x": -2.6847576163,
				"y": 0.778502184,
				"z": -2.4763622665,
				"element": "H" 
			},
			{
				"x": -1.3325737652,
				"y": -0.1984949857,
				"z": -1.862031785,
				"element": "H" 
			},
			{
				"x": -2.3012134601,
				"y": 0.7952908307,
				"z": -0.747668353,
				"element": "H" 
			},
			{
				"x": 0.0504045209,
				"y": 2.9504019972,
				"z": -3.4419753753,
				"element": "H" 
			},
			{
				"x": -1.3414542184,
				"y": 2.0209216445,
				"z": -4.0202330744,
				"element": "H" 
			},
			{
				"x": 0.1657921526,
				"y": 1.1812160139,
				"z": -3.591587976,
				"element": "H" 
			},
			{
				"x": -0.5519629498,
				"y": 2.2151841229,
				"z": 0.0460105007,
				"element": "H" 
			},
			{
				"x": 0.4451991596,
				"y": 3.1221862561,
				"z": -1.0944752256,
				"element": "H" 
			},
			{
				"x": 0.0337558019,
				"y": -0.1171493002,
				"z": 0.6594445469,
				"element": "H" 
			},
			{
				"x": 2.4933215797,
				"y": -2.8213480796,
				"z": 0.7211670778,
				"element": "H" 
			},
			{
				"x": 0.9106180776,
				"y": -2.397519094,
				"z": 1.1788734474,
				"element": "H" 
			},
			{
				"x": 4.1263711618,
				"y": 0.208404377,
				"z": -2.0009013433,
				"element": "H" 
			},
			{
				"x": 2.4429438405,
				"y": 2.0293260349,
				"z": -2.1993272955,
				"element": "H" 
			}
		],
		 "valence_orbital": [ 
			{
				"type": "occ",
				"energy": -0.3096,
				"method": "rhf"
			},
			{
				"type": "occ",
				"energy": -0.26848,
				"method": "rhf"
			},
			{
				"type": "occ",
				"energy": -0.25205,
				"method": "rhf"
			},
			{
				"type": "occ",
				"energy": -0.20988,
				"method": "rhf"
			},
			{
				"type": "occ",
				"energy": -0.2075,
				"method": "rhf"
			},
			{
				"type": "unocc",
				"energy": -0.0126,
				"method": "rhf"
			},
			{
				"type": "unocc",
				"energy": 0.01235,
				"method": "rhf"
			},
			{
				"type": "unocc",
				"energy": 0.08251,
				"method": "rhf"
			},
			{
				"type": "unocc",
				"energy": 0.09159,
				"method": "rhf"
			},
			{
				"type": "unocc",
				"energy": 0.11689,
				"method": "rhf"
			}
		],
		"cosmo_sigma_profile": { 
			"-0.025": 0.0,
			"-0.024": 0.0,
			"-0.023": 0.0,
			"-0.022": 0.0,
			"-0.021": 0.0,
			"-0.02": 0.0,
			"-0.019": 0.0,
			"-0.018": 0.0,
			"-0.017": 0.0,
			"-0.016": 0.0,
			"-0.015": 0.0,
			"-0.014": 0.0,
			"-0.013": 0.912914555236,
			"-0.012": 2.04311238399,
			"-0.011": 2.1766642434,
			"-0.01": 2.75600264379,
			"-0.009": 2.75714427668,
			"-0.008": 2.10128468681,
			"-0.007": 2.2711529623,
			"-0.006": 3.61578360442,
			"-0.005": 9.12213395299,
			"-0.004": 19.820182304,
			"-0.003": 20.1533653188,
			"-0.002": 15.7169703422,
			"-0.001": 21.137831104,
			"0.0": 24.2245227898,
			"0.001": 12.3927459017,
			"0.002": 11.1843386672,
			"0.003": 8.89086267552,
			"0.004": 12.588436224,
			"0.005": 6.24987342972,
			"0.006": 3.93402697836,
			"0.007": 3.44374266218,
			"0.008": 2.9119189126,
			"0.009": 3.61168523197,
			"0.01": 2.91079624642,
			"0.011": 2.09085725372,
			"0.012": 2.08555580349,
			"0.013": 1.81325131158,
			"0.014": 1.21773901069,
			"0.015": 1.46393711715,
			"0.016": 1.0026369928,
			"0.017": 0.0833804475032,
			"0.018": 0.0,
			"0.019": 0.0,
			"0.02": 0.0,
			"0.021": 0.0,
			"0.022": 0.0,
			"0.023": 0.0,
			"0.024": 0.0,
			"0.025": 0.0
		}
	}
}
