{
	 "smiles": "CC(=O)C1=C(F)C(F)=C(F)C(F)=C1F", 
	 "Tm": 403.15, 
	 "num_atms": 17, 
	 "gaussian": { 
		 "optdone": 1, 
		 "sigma_profile": "yes", 
		 "theory": "DFT", 
		 "functional": "B3LYP", 
		 "basiset": "6-31G**", 
		 "properties": { 
			 "R2extent": 3512.5955, 
			 "electric_dipole_moment_norm": 2.20055253743, 
			 "electric_quadrupole_moment_norm": 7.47641483065, 
			 "total_energy": -881.0118605, 
			 "HOMO_LUMO_gap": 0.19169, 
			 "cosmo_polarized_energy": -7.11, 
			 "cosmo_cavitation_energy": 24.7, 
			 "cosmo_dispersion_energy": -17.34, 
			 "cosmo_repulsion_energy": 1.26, 
			 "cosmo_total_nonelectrostatic_energy": 8.61, 
			 "SMD_solvation_energy": 7.34 
		},
		"coords": [
			{
				"x": 0.3979100823,
				"y": -1.2015093515,
				"z": 1.8725776094,
				"element": "C" 
			},
			{
				"x": -0.1775376699,
				"y": 0.1792118951,
				"z": 1.6241384337,
				"element": "C" 
			},
			{
				"x": -0.991262968,
				"y": 0.6681715711,
				"z": 2.3838867865,
				"element": "O" 
			},
			{
				"x": 0.2635768966,
				"y": 0.9477774962,
				"z": 0.3970591661,
				"element": "C" 
			},
			{
				"x": 1.5066674905,
				"y": 0.7591177093,
				"z": -0.2241586754,
				"element": "C" 
			},
			{
				"x": 2.3804347109,
				"y": -0.1469119142,
				"z": 0.2454066074,
				"element": "F" 
			},
			{
				"x": 1.9098230301,
				"y": 1.4996302145,
				"z": -1.3309058173,
				"element": "C" 
			},
			{
				"x": 3.1105543903,
				"y": 1.2966986312,
				"z": -1.8822020558,
				"element": "F" 
			},
			{
				"x": 1.0530975769,
				"y": 2.460662414,
				"z": -1.8606620547,
				"element": "C" 
			},
			{
				"x": 1.42357991,
				"y": 3.173235049,
				"z": -2.9232885165,
				"element": "F" 
			},
			{
				"x": -0.1941055782,
				"y": 2.671344112,
				"z": -1.277710243,
				"element": "C" 
			},
			{
				"x": -1.0212906449,
				"y": 3.5837641058,
				"z": -1.7955977263,
				"element": "F" 
			},
			{
				"x": -0.5745840557,
				"y": 1.9304992166,
				"z": -0.1610667999,
				"element": "C" 
			},
			{
				"x": -1.7888471387,
				"y": 2.1684612423,
				"z": 0.3310193124,
				"element": "F" 
			},
			{
				"x": 0.4395018394,
				"y": -1.7993759115,
				"z": 0.9577442908,
				"element": "H" 
			},
			{
				"x": 1.4214041285,
				"y": -1.1208931331,
				"z": 2.2514070625,
				"element": "H" 
			},
			{
				"x": -0.2232219999,
				"y": -1.6935833468,
				"z": 2.6219526202,
				"element": "H" 
			}
		],
		 "valence_orbital": [ 
			{
				"type": "occ",
				"energy": -0.37891,
				"method": "rhf"
			},
			{
				"type": "occ",
				"energy": -0.35643,
				"method": "rhf"
			},
			{
				"type": "occ",
				"energy": -0.28095,
				"method": "rhf"
			},
			{
				"type": "occ",
				"energy": -0.2676,
				"method": "rhf"
			},
			{
				"type": "occ",
				"energy": -0.26594,
				"method": "rhf"
			},
			{
				"type": "unocc",
				"energy": -0.07425,
				"method": "rhf"
			},
			{
				"type": "unocc",
				"energy": -0.02747,
				"method": "rhf"
			},
			{
				"type": "unocc",
				"energy": 0.00313,
				"method": "rhf"
			},
			{
				"type": "unocc",
				"energy": 0.00894,
				"method": "rhf"
			},
			{
				"type": "unocc",
				"energy": 0.09215,
				"method": "rhf"
			}
		],
		"cosmo_sigma_profile": { 
			"-0.025": 0.0,
			"-0.024": 0.0,
			"-0.023": 0.0,
			"-0.022": 0.0,
			"-0.021": 0.0,
			"-0.02": 0.0,
			"-0.019": 0.0,
			"-0.018": 0.0,
			"-0.017": 0.0,
			"-0.016": 0.0,
			"-0.015": 0.0,
			"-0.014": 0.0,
			"-0.013": 0.0,
			"-0.012": 0.0,
			"-0.011": 0.0,
			"-0.01": 0.0,
			"-0.009": 0.0,
			"-0.008": 0.0,
			"-0.007": 2.36586087377,
			"-0.006": 8.04399421739,
			"-0.005": 13.6301321941,
			"-0.004": 25.3738673878,
			"-0.003": 17.3268799523,
			"-0.002": 15.708889803,
			"-0.001": 12.9775961585,
			"0.0": 9.80667045894,
			"0.001": 13.8698716197,
			"0.002": 41.0817689322,
			"0.003": 17.5702356963,
			"0.004": 2.79928712433,
			"0.005": 1.89368245565,
			"0.006": 1.93817824962,
			"0.007": 2.05864955865,
			"0.008": 1.55028857548,
			"0.009": 2.86036233028,
			"0.01": 3.2512571802,
			"0.011": 4.47938417821,
			"0.012": 1.29317890495,
			"0.013": 0.0641022126404,
			"0.014": 0.0,
			"0.015": 0.0,
			"0.016": 0.0,
			"0.017": 0.0,
			"0.018": 0.0,
			"0.019": 0.0,
			"0.02": 0.0,
			"0.021": 0.0,
			"0.022": 0.0,
			"0.023": 0.0,
			"0.024": 0.0,
			"0.025": 0.0
		}
	}
}
