{
	 "smiles": "CCCC1=C(C)SC(=C1)C(O)=O", 
	 "Tm": 368.15, 
	 "num_atms": 24, 
	 "gaussian": { 
		 "optdone": 1, 
		 "sigma_profile": "yes", 
		 "theory": "DFT", 
		 "functional": "B3LYP", 
		 "basiset": "6-31G**", 
		 "properties": { 
			 "R2extent": 3735.2694, 
			 "electric_dipole_moment_norm": 6.05117383902, 
			 "electric_quadrupole_moment_norm": 22.4544253732, 
			 "total_energy": -898.838207496, 
			 "HOMO_LUMO_gap": 0.18301, 
			 "cosmo_polarized_energy": -15.17, 
			 "cosmo_cavitation_energy": 28.75, 
			 "cosmo_dispersion_energy": -20.79, 
			 "cosmo_repulsion_energy": 1.64, 
			 "cosmo_total_nonelectrostatic_energy": 9.6, 
			 "SMD_solvation_energy": 5.66 
		},
		"coords": [
			{
				"x": 0.938888996,
				"y": -1.9545125994,
				"z": -1.2195701449,
				"element": "C" 
			},
			{
				"x": 0.416953342,
				"y": -0.8730338773,
				"z": -2.169701084,
				"element": "C" 
			},
			{
				"x": -0.4269953013,
				"y": 0.2204126155,
				"z": -1.4770181689,
				"element": "C" 
			},
			{
				"x": 0.3315030084,
				"y": 1.0584895356,
				"z": -0.4733786321,
				"element": "C" 
			},
			{
				"x": 1.1271645983,
				"y": 2.1453495632,
				"z": -0.7920736567,
				"element": "C" 
			},
			{
				"x": 1.4184962891,
				"y": 2.7148485341,
				"z": -2.1504667429,
				"element": "C" 
			},
			{
				"x": 1.8475655531,
				"y": 2.8554554923,
				"z": 0.6207668886,
				"element": "S" 
			},
			{
				"x": 1.0923045103,
				"y": 1.6856449066,
				"z": 1.6631996482,
				"element": "C" 
			},
			{
				"x": 0.3197082727,
				"y": 0.8124657603,
				"z": 0.9308395792,
				"element": "C" 
			},
			{
				"x": 1.327644559,
				"y": 1.7895035131,
				"z": 3.1160054706,
				"element": "C" 
			},
			{
				"x": 0.8208731271,
				"y": 0.7896385283,
				"z": 3.8884666841,
				"element": "O" 
			},
			{
				"x": 1.9351792264,
				"y": 2.7032056994,
				"z": 3.6277051073,
				"element": "O" 
			},
			{
				"x": 0.1128644189,
				"y": -2.4697774486,
				"z": -0.7148764597,
				"element": "H" 
			},
			{
				"x": 1.5160696777,
				"y": -2.7095552544,
				"z": -1.7625659166,
				"element": "H" 
			},
			{
				"x": 1.5895846787,
				"y": -1.5303061794,
				"z": -0.4481188449,
				"element": "H" 
			},
			{
				"x": 1.2611654454,
				"y": -0.4006439035,
				"z": -2.6874232369,
				"element": "H" 
			},
			{
				"x": -0.1997568735,
				"y": -1.338479898,
				"z": -2.9488696567,
				"element": "H" 
			},
			{
				"x": -0.8569421153,
				"y": 0.8718525787,
				"z": -2.2473920035,
				"element": "H" 
			},
			{
				"x": -1.2785749212,
				"y": -0.2537440792,
				"z": -0.9728121981,
				"element": "H" 
			},
			{
				"x": 0.5783755988,
				"y": 2.5427931567,
				"z": -2.829726395,
				"element": "H" 
			},
			{
				"x": 2.3056315363,
				"y": 2.252250346,
				"z": -2.5998326018,
				"element": "H" 
			},
			{
				"x": 1.5976448421,
				"y": 3.7928655424,
				"z": -2.1061915708,
				"element": "H" 
			},
			{
				"x": -0.2777396488,
				"y": 0.0156905035,
				"z": 1.3664399691,
				"element": "H" 
			},
			{
				"x": 0.4452911797,
				"y": 0.0899869641,
				"z": 3.3368939662,
				"element": "H" 
			}
		],
		 "valence_orbital": [ 
			{
				"type": "occ",
				"energy": -0.3359,
				"method": "rhf"
			},
			{
				"type": "occ",
				"energy": -0.31162,
				"method": "rhf"
			},
			{
				"type": "occ",
				"energy": -0.27209,
				"method": "rhf"
			},
			{
				"type": "occ",
				"energy": -0.26066,
				"method": "rhf"
			},
			{
				"type": "occ",
				"energy": -0.23825,
				"method": "rhf"
			},
			{
				"type": "unocc",
				"energy": -0.05524,
				"method": "rhf"
			},
			{
				"type": "unocc",
				"energy": 0.01949,
				"method": "rhf"
			},
			{
				"type": "unocc",
				"energy": 0.02698,
				"method": "rhf"
			},
			{
				"type": "unocc",
				"energy": 0.05352,
				"method": "rhf"
			},
			{
				"type": "unocc",
				"energy": 0.07848,
				"method": "rhf"
			}
		],
		"cosmo_sigma_profile": { 
			"-0.025": 0.0,
			"-0.024": 0.0,
			"-0.023": 0.0,
			"-0.022": 0.0,
			"-0.021": 0.0,
			"-0.02": 0.0,
			"-0.019": 0.238697727523,
			"-0.018": 1.09778913595,
			"-0.017": 1.08098950436,
			"-0.016": 0.722721141189,
			"-0.015": 0.980480137258,
			"-0.014": 0.873273449935,
			"-0.013": 1.08274323673,
			"-0.012": 1.44160080372,
			"-0.011": 1.25570022847,
			"-0.01": 0.729720663434,
			"-0.009": 1.00802241923,
			"-0.008": 1.58144682564,
			"-0.007": 1.93943765984,
			"-0.006": 3.93310970993,
			"-0.005": 10.4422625285,
			"-0.004": 11.6304195761,
			"-0.003": 18.0932868613,
			"-0.002": 29.1682514072,
			"-0.001": 27.2613008029,
			"0.0": 23.5171209199,
			"0.001": 20.207915096,
			"0.002": 16.5802664868,
			"0.003": 14.898206758,
			"0.004": 6.83972957702,
			"0.005": 2.75355046365,
			"0.006": 2.17761067633,
			"0.007": 2.76003660617,
			"0.008": 3.14316172517,
			"0.009": 3.32487052048,
			"0.01": 4.194070222,
			"0.011": 5.42250918823,
			"0.012": 5.56489073002,
			"0.013": 2.2225125862,
			"0.014": 0.270300399706,
			"0.015": 0.0,
			"0.016": 0.0,
			"0.017": 0.0,
			"0.018": 0.0,
			"0.019": 0.0,
			"0.02": 0.0,
			"0.021": 0.0,
			"0.022": 0.0,
			"0.023": 0.0,
			"0.024": 0.0,
			"0.025": 0.0
		}
	}
}
