{
	 "smiles": "CN1C(S)=NN=C1CCC(N)=O", 
	 "Tm": 290.15, 
	 "num_atms": 22, 
	 "gaussian": { 
		 "optdone": 1, 
		 "sigma_profile": "yes", 
		 "theory": "DFT", 
		 "functional": "B3LYP", 
		 "basiset": "6-31G**", 
		 "properties": { 
			 "R2extent": 3071.0141, 
			 "electric_dipole_moment_norm": 5.13550186155, 
			 "electric_quadrupole_moment_norm": 15.4324229582, 
			 "total_energy": -927.082520024, 
			 "HOMO_LUMO_gap": 0.2287, 
			 "cosmo_polarized_energy": -20.12, 
			 "cosmo_cavitation_energy": 27.42, 
			 "cosmo_dispersion_energy": -20.47, 
			 "cosmo_repulsion_energy": 1.61, 
			 "cosmo_total_nonelectrostatic_energy": 8.57, 
			 "SMD_solvation_energy": 3.33 
		},
		"coords": [
			{
				"x": 1.1667376494,
				"y": 2.1387670448,
				"z": -0.5085346765,
				"element": "C" 
			},
			{
				"x": 0.3018546191,
				"y": 1.258834776,
				"z": 0.2640324555,
				"element": "N" 
			},
			{
				"x": -0.4429147431,
				"y": 1.5875927236,
				"z": 1.3698104603,
				"element": "C" 
			},
			{
				"x": -0.4375039092,
				"y": 3.2130033602,
				"z": 2.0623792332,
				"element": "S" 
			},
			{
				"x": -1.1230756577,
				"y": 0.5569368452,
				"z": 1.808993246,
				"element": "N" 
			},
			{
				"x": -0.8262983844,
				"y": -0.4961934843,
				"z": 0.9634587003,
				"element": "N" 
			},
			{
				"x": 0.0162439881,
				"y": -0.0738817542,
				"z": 0.0487928337,
				"element": "C" 
			},
			{
				"x": 0.5794337063,
				"y": -0.8831702824,
				"z": -1.0819017813,
				"element": "C" 
			},
			{
				"x": 0.0854771426,
				"y": -2.3433185983,
				"z": -1.0941698842,
				"element": "C" 
			},
			{
				"x": 0.780098333,
				"y": -3.2108397745,
				"z": -0.0369135424,
				"element": "C" 
			},
			{
				"x": 0.1057592075,
				"y": -3.3310687127,
				"z": 1.1432324724,
				"element": "N" 
			},
			{
				"x": 1.8517029522,
				"y": -3.7569569399,
				"z": -0.2692003056,
				"element": "O" 
			},
			{
				"x": 1.8090245545,
				"y": 2.7137100584,
				"z": 0.1637338783,
				"element": "H" 
			},
			{
				"x": 0.5787983821,
				"y": 2.8297614141,
				"z": -1.1207972055,
				"element": "H" 
			},
			{
				"x": 1.7999564753,
				"y": 1.5374739149,
				"z": -1.1609376239,
				"element": "H" 
			},
			{
				"x": -1.2386513726,
				"y": 2.8535577886,
				"z": 3.0827343664,
				"element": "H" 
			},
			{
				"x": 0.3027433233,
				"y": -0.4051764185,
				"z": -2.0310796692,
				"element": "H" 
			},
			{
				"x": 1.6769814971,
				"y": -0.8792377696,
				"z": -1.0431709538,
				"element": "H" 
			},
			{
				"x": -1.0012091005,
				"y": -2.3656634544,
				"z": -0.9757887701,
				"element": "H" 
			},
			{
				"x": 0.3419881394,
				"y": -2.7822557172,
				"z": -2.0607823642,
				"element": "H" 
			},
			{
				"x": -0.5650258369,
				"y": -2.6046580261,
				"z": 1.378913092,
				"element": "H" 
			},
			{
				"x": 0.6125790343,
				"y": -3.7727169936,
				"z": 1.8977960387,
				"element": "H" 
			}
		],
		 "valence_orbital": [ 
			{
				"type": "occ",
				"energy": -0.30098,
				"method": "rhf"
			},
			{
				"type": "occ",
				"energy": -0.27247,
				"method": "rhf"
			},
			{
				"type": "occ",
				"energy": -0.25377,
				"method": "rhf"
			},
			{
				"type": "occ",
				"energy": -0.23847,
				"method": "rhf"
			},
			{
				"type": "occ",
				"energy": -0.23335,
				"method": "rhf"
			},
			{
				"type": "unocc",
				"energy": -0.00465,
				"method": "rhf"
			},
			{
				"type": "unocc",
				"energy": 0.00461,
				"method": "rhf"
			},
			{
				"type": "unocc",
				"energy": 0.02859,
				"method": "rhf"
			},
			{
				"type": "unocc",
				"energy": 0.03799,
				"method": "rhf"
			},
			{
				"type": "unocc",
				"energy": 0.0517,
				"method": "rhf"
			}
		],
		"cosmo_sigma_profile": { 
			"-0.025": 0.0,
			"-0.024": 0.0,
			"-0.023": 0.0,
			"-0.022": 0.0,
			"-0.021": 0.0,
			"-0.02": 0.0,
			"-0.019": 0.0,
			"-0.018": 0.0,
			"-0.017": 0.0,
			"-0.016": 0.0,
			"-0.015": 0.0,
			"-0.014": 0.0059792596903,
			"-0.013": 1.06053783929,
			"-0.012": 2.46166274965,
			"-0.011": 1.98040346848,
			"-0.01": 2.88327722292,
			"-0.009": 2.20658879284,
			"-0.008": 5.33306441167,
			"-0.007": 14.012240848,
			"-0.006": 15.9258081614,
			"-0.005": 18.7470843943,
			"-0.004": 19.657290406,
			"-0.003": 15.1644982245,
			"-0.002": 13.4656569553,
			"-0.001": 9.57525339397,
			"0.0": 9.48772118931,
			"0.001": 10.7372599289,
			"0.002": 9.53933710795,
			"0.003": 8.33073478723,
			"0.004": 7.06948897835,
			"0.005": 5.8280699789,
			"0.006": 6.47977057186,
			"0.007": 4.5782827195,
			"0.008": 3.6375149587,
			"0.009": 3.67612365576,
			"0.01": 2.96141616735,
			"0.011": 3.28701986175,
			"0.012": 4.60684613721,
			"0.013": 4.32833929686,
			"0.014": 7.02784772801,
			"0.015": 3.93408198529,
			"0.016": 1.00391791799,
			"0.017": 0.248141900019,
			"0.018": 0.0,
			"0.019": 0.0,
			"0.02": 0.0,
			"0.021": 0.0,
			"0.022": 0.0,
			"0.023": 0.0,
			"0.024": 0.0,
			"0.025": 0.0
		}
	}
}
