{
	 "smiles": "FC1=C2C(NC=C2C=O)=CC=C1", 
	 "Tm": 443.15, 
	 "num_atms": 18, 
	 "gaussian": { 
		 "optdone": 1, 
		 "sigma_profile": "yes", 
		 "theory": "DFT", 
		 "functional": "B3LYP", 
		 "basiset": "6-31G**", 
		 "properties": { 
			 "R2extent": 2277.5466, 
			 "electric_dipole_moment_norm": 5.34104734111, 
			 "electric_quadrupole_moment_norm": 10.2315247686, 
			 "total_energy": -576.379155559, 
			 "HOMO_LUMO_gap": 0.1747, 
			 "cosmo_polarized_energy": -13.9, 
			 "cosmo_cavitation_energy": 23.14, 
			 "cosmo_dispersion_energy": -17.08, 
			 "cosmo_repulsion_energy": 1.32, 
			 "cosmo_total_nonelectrostatic_energy": 7.38, 
			 "SMD_solvation_energy": 5.4 
		},
		"coords": [
			{
				"x": 0.8937121103,
				"y": -1.7886312543,
				"z": 2.954736531,
				"element": "F" 
			},
			{
				"x": 0.0939187517,
				"y": -1.7265585775,
				"z": 1.8662089165,
				"element": "C" 
			},
			{
				"x": 0.2808331626,
				"y": -0.6899921759,
				"z": 0.9455117402,
				"element": "C" 
			},
			{
				"x": -0.5801887877,
				"y": -0.6628655438,
				"z": -0.1820050044,
				"element": "C" 
			},
			{
				"x": -0.2079261367,
				"y": 0.4390910517,
				"z": -0.9396406605,
				"element": "N" 
			},
			{
				"x": 0.8335317206,
				"y": 1.0884593742,
				"z": -0.33850896,
				"element": "C" 
			},
			{
				"x": 1.1794829372,
				"y": 0.4372192514,
				"z": 0.8304873088,
				"element": "C" 
			},
			{
				"x": 2.2541048982,
				"y": 0.8604596935,
				"z": 1.7266707898,
				"element": "C" 
			},
			{
				"x": 2.9584365562,
				"y": 1.8392209073,
				"z": 1.5278108406,
				"element": "O" 
			},
			{
				"x": -1.5843721249,
				"y": -1.6123365385,
				"z": -0.400071514,
				"element": "C" 
			},
			{
				"x": -1.722897716,
				"y": -2.6187649096,
				"z": 0.548604331,
				"element": "C" 
			},
			{
				"x": -0.8887558192,
				"y": -2.6822265111,
				"z": 1.6824588378,
				"element": "C" 
			},
			{
				"x": -0.6421458029,
				"y": 0.7185756869,
				"z": -1.8053808532,
				"element": "H" 
			},
			{
				"x": 1.2762744551,
				"y": 1.9757908919,
				"z": -0.7663949257,
				"element": "H" 
			},
			{
				"x": 2.3976561617,
				"y": 0.2221302198,
				"z": 2.6207727332,
				"element": "H" 
			},
			{
				"x": -2.2290415119,
				"y": -1.5671232133,
				"z": -1.2720694684,
				"element": "H" 
			},
			{
				"x": -2.4895259809,
				"y": -3.3758692637,
				"z": 0.4181806198,
				"element": "H" 
			},
			{
				"x": -1.0021968733,
				"y": -3.4700790891,
				"z": 2.4187287373,
				"element": "H" 
			}
		],
		 "valence_orbital": [ 
			{
				"type": "occ",
				"energy": -0.3441,
				"method": "rhf"
			},
			{
				"type": "occ",
				"energy": -0.28578,
				"method": "rhf"
			},
			{
				"type": "occ",
				"energy": -0.2447,
				"method": "rhf"
			},
			{
				"type": "occ",
				"energy": -0.24115,
				"method": "rhf"
			},
			{
				"type": "occ",
				"energy": -0.21978,
				"method": "rhf"
			},
			{
				"type": "unocc",
				"energy": -0.04508,
				"method": "rhf"
			},
			{
				"type": "unocc",
				"energy": -0.00987,
				"method": "rhf"
			},
			{
				"type": "unocc",
				"energy": 0.01008,
				"method": "rhf"
			},
			{
				"type": "unocc",
				"energy": 0.06178,
				"method": "rhf"
			},
			{
				"type": "unocc",
				"energy": 0.08762,
				"method": "rhf"
			}
		],
		"cosmo_sigma_profile": { 
			"-0.025": 0.0,
			"-0.024": 0.0,
			"-0.023": 0.0,
			"-0.022": 0.0,
			"-0.021": 0.0,
			"-0.02": 0.0,
			"-0.019": 0.0,
			"-0.018": 0.0,
			"-0.017": 1.1817744446,
			"-0.016": 1.85302289762,
			"-0.015": 1.30467011631,
			"-0.014": 1.76839214706,
			"-0.013": 1.31208932872,
			"-0.012": 0.990630669802,
			"-0.011": 1.34933876264,
			"-0.01": 1.84934751195,
			"-0.009": 3.73358122897,
			"-0.008": 2.98726838484,
			"-0.007": 4.615250101,
			"-0.006": 7.01895702407,
			"-0.005": 7.62258931209,
			"-0.004": 9.17825593151,
			"-0.003": 10.4351374839,
			"-0.002": 10.1868943475,
			"-0.001": 9.81444564894,
			"0.0": 10.6379397102,
			"0.001": 17.1295159553,
			"0.002": 19.57415318,
			"0.003": 17.7110005827,
			"0.004": 15.8994978694,
			"0.005": 8.70695318204,
			"0.006": 2.03484056144,
			"0.007": 1.18078473947,
			"0.008": 1.73372100797,
			"0.009": 1.75035108307,
			"0.01": 1.79795605606,
			"0.011": 2.23679511675,
			"0.012": 4.82497788807,
			"0.013": 3.23933912377,
			"0.014": 1.04086111914,
			"0.015": 0.0222614951543,
			"0.016": 0.0,
			"0.017": 0.0,
			"0.018": 0.0,
			"0.019": 0.0,
			"0.02": 0.0,
			"0.021": 0.0,
			"0.022": 0.0,
			"0.023": 0.0,
			"0.024": 0.0,
			"0.025": 0.0
		}
	}
}
