{
	 "smiles": "ClC1=CC2=C(NC=C2)C=C1", 
	 "Tm": 344.15, 
	 "num_atms": 16, 
	 "gaussian": { 
		 "optdone": 1, 
		 "sigma_profile": "yes", 
		 "theory": "DFT", 
		 "functional": "B3LYP", 
		 "basiset": "6-31G**", 
		 "properties": { 
			 "R2extent": 2083.9224, 
			 "electric_dipole_moment_norm": 4.33361122045, 
			 "electric_quadrupole_moment_norm": 7.33734951464, 
			 "total_energy": -823.413787046, 
			 "HOMO_LUMO_gap": 0.19367, 
			 "cosmo_polarized_energy": -9.25, 
			 "cosmo_cavitation_energy": 21.7, 
			 "cosmo_dispersion_energy": -16.65, 
			 "cosmo_repulsion_energy": 1.34, 
			 "cosmo_total_nonelectrostatic_energy": 6.39, 
			 "SMD_solvation_energy": 3.4 
		},
		"coords": [
			{
				"x": -0.7192942698,
				"y": -2.6129474367,
				"z": -3.0029715518,
				"element": "Cl" 
			},
			{
				"x": -0.1109827741,
				"y": -1.4290708821,
				"z": -1.8445486343,
				"element": "C" 
			},
			{
				"x": -0.0231453451,
				"y": -1.7771899248,
				"z": -0.5057677129,
				"element": "C" 
			},
			{
				"x": 0.4645881951,
				"y": -0.8167048833,
				"z": 0.3974593778,
				"element": "C" 
			},
			{
				"x": 0.8461721515,
				"y": 0.4648185745,
				"z": -0.0923263967,
				"element": "C" 
			},
			{
				"x": 1.2821630525,
				"y": 1.2014716518,
				"z": 0.9901358709,
				"element": "N" 
			},
			{
				"x": 1.1873210247,
				"y": 0.4302002296,
				"z": 2.133608572,
				"element": "C" 
			},
			{
				"x": 0.6932369806,
				"y": -0.807292543,
				"z": 1.8156327423,
				"element": "C" 
			},
			{
				"x": 0.7519962922,
				"y": 0.8018926998,
				"z": -1.4460657568,
				"element": "C" 
			},
			{
				"x": 0.2679101492,
				"y": -0.1595695996,
				"z": -2.3240943428,
				"element": "C" 
			},
			{
				"x": -0.3238133143,
				"y": -2.7641592748,
				"z": -0.1714757414,
				"element": "H" 
			},
			{
				"x": 1.6166621178,
				"y": 2.1502601538,
				"z": 0.9543746537,
				"element": "H" 
			},
			{
				"x": 1.4839418625,
				"y": 0.8333080546,
				"z": 3.0913895811,
				"element": "H" 
			},
			{
				"x": 0.513239164,
				"y": -1.6164835429,
				"z": 2.5084841984,
				"element": "H" 
			},
			{
				"x": 1.0455643492,
				"y": 1.7821695752,
				"z": -1.8102057555,
				"element": "H" 
			},
			{
				"x": 0.1779403639,
				"y": 0.0581971481,
				"z": -3.382129104,
				"element": "H" 
			}
		],
		 "valence_orbital": [ 
			{
				"type": "occ",
				"energy": -0.30559,
				"method": "rhf"
			},
			{
				"type": "occ",
				"energy": -0.30049,
				"method": "rhf"
			},
			{
				"type": "occ",
				"energy": -0.28359,
				"method": "rhf"
			},
			{
				"type": "occ",
				"energy": -0.22018,
				"method": "rhf"
			},
			{
				"type": "occ",
				"energy": -0.21109,
				"method": "rhf"
			},
			{
				"type": "unocc",
				"energy": -0.01742,
				"method": "rhf"
			},
			{
				"type": "unocc",
				"energy": 0.01886,
				"method": "rhf"
			},
			{
				"type": "unocc",
				"energy": 0.04053,
				"method": "rhf"
			},
			{
				"type": "unocc",
				"energy": 0.064,
				"method": "rhf"
			},
			{
				"type": "unocc",
				"energy": 0.07395,
				"method": "rhf"
			}
		],
		"cosmo_sigma_profile": { 
			"-0.025": 0.0,
			"-0.024": 0.0,
			"-0.023": 0.0,
			"-0.022": 0.0,
			"-0.021": 0.0,
			"-0.02": 0.0,
			"-0.019": 0.0,
			"-0.018": 0.0,
			"-0.017": 0.0,
			"-0.016": 0.826533057617,
			"-0.015": 1.92725914931,
			"-0.014": 1.02491540791,
			"-0.013": 1.27192649821,
			"-0.012": 1.22825196758,
			"-0.011": 1.38571440648,
			"-0.01": 1.15859437033,
			"-0.009": 1.77004025133,
			"-0.008": 3.92426121794,
			"-0.007": 5.00401384858,
			"-0.006": 8.50875043779,
			"-0.005": 8.062731674,
			"-0.004": 9.33459000977,
			"-0.003": 8.28986070927,
			"-0.002": 7.86668259191,
			"-0.001": 8.11932438557,
			"0.0": 9.76408096777,
			"0.001": 9.13040058864,
			"0.002": 11.6702428769,
			"0.003": 16.5103740325,
			"0.004": 21.6374447373,
			"0.005": 27.0596318273,
			"0.006": 10.1051257147,
			"0.007": 1.20031245526,
			"0.008": 0.0,
			"0.009": 0.0,
			"0.01": 0.0,
			"0.011": 0.0,
			"0.012": 0.0,
			"0.013": 0.0,
			"0.014": 0.0,
			"0.015": 0.0,
			"0.016": 0.0,
			"0.017": 0.0,
			"0.018": 0.0,
			"0.019": 0.0,
			"0.02": 0.0,
			"0.021": 0.0,
			"0.022": 0.0,
			"0.023": 0.0,
			"0.024": 0.0,
			"0.025": 0.0
		}
	}
}
