{
	 "smiles": "CCOC(=O)C1=C(C)NC(C)=C(C1)C(=O)OCC", 
	 "Tm": 453.15, 
	 "num_atms": 37, 
	 "gaussian": { 
		 "optdone": 1, 
		 "sigma_profile": "yes", 
		 "theory": "DFT", 
		 "functional": "B3LYP", 
		 "basiset": "6-31G**", 
		 "properties": { 
			 "R2extent": 6445.3052, 
			 "electric_dipole_moment_norm": 3.85284593775, 
			 "electric_quadrupole_moment_norm": 12.5900754402, 
			 "total_energy": -862.512053095, 
			 "HOMO_LUMO_gap": 0.14942, 
			 "cosmo_polarized_energy": -16.82, 
			 "cosmo_cavitation_energy": 39.56, 
			 "cosmo_dispersion_energy": -27.95, 
			 "cosmo_repulsion_energy": 2.21, 
			 "cosmo_total_nonelectrostatic_energy": 13.82, 
			 "SMD_solvation_energy": 8.67 
		},
		"coords": [
			{
				"x": 0.836131655,
				"y": 1.7892101268,
				"z": -4.8952952468,
				"element": "C" 
			},
			{
				"x": 0.1594268298,
				"y": 0.4884444016,
				"z": -4.4868704443,
				"element": "C" 
			},
			{
				"x": -0.4412299536,
				"y": 0.5888347151,
				"z": -3.176979221,
				"element": "O" 
			},
			{
				"x": 0.3916696351,
				"y": 0.3688666901,
				"z": -2.1176879684,
				"element": "C" 
			},
			{
				"x": 1.574422023,
				"y": 0.099646704,
				"z": -2.2649808417,
				"element": "O" 
			},
			{
				"x": -0.237107091,
				"y": 0.4764163722,
				"z": -0.7954502816,
				"element": "C" 
			},
			{
				"x": -1.5480152023,
				"y": 0.7619083323,
				"z": -0.5715317178,
				"element": "C" 
			},
			{
				"x": -2.623106011,
				"y": 1.0221025223,
				"z": -1.5993883012,
				"element": "C" 
			},
			{
				"x": -2.0043515023,
				"y": 0.8356814356,
				"z": 0.7356995712,
				"element": "N" 
			},
			{
				"x": -1.2209586754,
				"y": 0.6548244852,
				"z": 1.8692158819,
				"element": "C" 
			},
			{
				"x": -2.0009286141,
				"y": 0.8192021416,
				"z": 3.1452192555,
				"element": "C" 
			},
			{
				"x": 0.0995679578,
				"y": 0.3644300407,
				"z": 1.7281230835,
				"element": "C" 
			},
			{
				"x": 0.7330087566,
				"y": 0.2289206565,
				"z": 0.3504640989,
				"element": "C" 
			},
			{
				"x": 0.9772607742,
				"y": 0.1627942291,
				"z": 2.8992672303,
				"element": "C" 
			},
			{
				"x": 0.6853618338,
				"y": 0.2252046822,
				"z": 4.0861558794,
				"element": "O" 
			},
			{
				"x": 2.2437596783,
				"y": -0.1225145032,
				"z": 2.4975332814,
				"element": "O" 
			},
			{
				"x": 3.2040245255,
				"y": -0.3426122337,
				"z": 3.5494248598,
				"element": "C" 
			},
			{
				"x": 4.5382379547,
				"y": -0.6418221242,
				"z": 2.8912186446,
				"element": "C" 
			},
			{
				"x": 0.1310661591,
				"y": 2.625355608,
				"z": -4.8568144585,
				"element": "H" 
			},
			{
				"x": 1.2151577637,
				"y": 1.7070886675,
				"z": -5.9197330794,
				"element": "H" 
			},
			{
				"x": 1.6780531538,
				"y": 2.0038974298,
				"z": -4.2332861933,
				"element": "H" 
			},
			{
				"x": -0.6748860017,
				"y": 0.248207401,
				"z": -5.1515417434,
				"element": "H" 
			},
			{
				"x": 0.8731622087,
				"y": -0.3386544528,
				"z": -4.4871912234,
				"element": "H" 
			},
			{
				"x": -3.5850630986,
				"y": 1.2135781085,
				"z": -1.1130855334,
				"element": "H" 
			},
			{
				"x": -2.7379144363,
				"y": 0.1707481482,
				"z": -2.2725952763,
				"element": "H" 
			},
			{
				"x": -2.3718498992,
				"y": 1.8821082746,
				"z": -2.2229094525,
				"element": "H" 
			},
			{
				"x": -2.9777051381,
				"y": 1.0531592707,
				"z": 0.88029206,
				"element": "H" 
			},
			{
				"x": -2.4300696274,
				"y": 1.8283141004,
				"z": 3.1930071221,
				"element": "H" 
			},
			{
				"x": -2.8354249306,
				"y": 0.1065780615,
				"z": 3.1664391334,
				"element": "H" 
			},
			{
				"x": -1.3678869811,
				"y": 0.65833047,
				"z": 4.0126932671,
				"element": "H" 
			},
			{
				"x": 1.1843301724,
				"y": -0.7654058983,
				"z": 0.2383984224,
				"element": "H" 
			},
			{
				"x": 1.58582348,
				"y": 0.9130114414,
				"z": 0.2585696579,
				"element": "H" 
			},
			{
				"x": 3.2487603797,
				"y": 0.5488232622,
				"z": 4.1837416617,
				"element": "H" 
			},
			{
				"x": 2.8605596511,
				"y": -1.1706073435,
				"z": 4.1782917711,
				"element": "H" 
			},
			{
				"x": 4.8623463174,
				"y": 0.1953834338,
				"z": 2.2663955956,
				"element": "H" 
			},
			{
				"x": 4.4719184416,
				"y": -1.5332054088,
				"z": 2.2608284161,
				"element": "H" 
			},
			{
				"x": 5.3004478114,
				"y": -0.8164492485,
				"z": 3.6572620893,
				"element": "H" 
			}
		],
		 "valence_orbital": [ 
			{
				"type": "occ",
				"energy": -0.28479,
				"method": "rhf"
			},
			{
				"type": "occ",
				"energy": -0.26006,
				"method": "rhf"
			},
			{
				"type": "occ",
				"energy": -0.25849,
				"method": "rhf"
			},
			{
				"type": "occ",
				"energy": -0.25354,
				"method": "rhf"
			},
			{
				"type": "occ",
				"energy": -0.19326,
				"method": "rhf"
			},
			{
				"type": "unocc",
				"energy": -0.04384,
				"method": "rhf"
			},
			{
				"type": "unocc",
				"energy": 0.0084,
				"method": "rhf"
			},
			{
				"type": "unocc",
				"energy": 0.06506,
				"method": "rhf"
			},
			{
				"type": "unocc",
				"energy": 0.09423,
				"method": "rhf"
			},
			{
				"type": "unocc",
				"energy": 0.09818,
				"method": "rhf"
			}
		],
		"cosmo_sigma_profile": { 
			"-0.025": 0.0,
			"-0.024": 0.0,
			"-0.023": 0.0,
			"-0.022": 0.0,
			"-0.021": 0.0,
			"-0.02": 0.0,
			"-0.019": 0.0,
			"-0.018": 0.0,
			"-0.017": 0.0,
			"-0.016": 0.0691625308346,
			"-0.015": 0.951285628483,
			"-0.014": 1.27330108519,
			"-0.013": 1.03484108898,
			"-0.012": 1.3645481282,
			"-0.011": 1.41513569763,
			"-0.01": 1.70994674824,
			"-0.009": 1.45392235765,
			"-0.008": 1.53982998764,
			"-0.007": 2.51032439567,
			"-0.006": 4.63563688712,
			"-0.005": 12.1351039677,
			"-0.004": 25.4371366496,
			"-0.003": 33.1625071625,
			"-0.002": 34.6491694787,
			"-0.001": 33.3911981034,
			"0.0": 37.8156712315,
			"0.001": 28.7388710042,
			"0.002": 21.0716374587,
			"0.003": 13.9557480293,
			"0.004": 9.27739354468,
			"0.005": 6.23529337574,
			"0.006": 5.87929375885,
			"0.007": 4.67114646048,
			"0.008": 3.95687053354,
			"0.009": 2.9678745397,
			"0.01": 2.97780506409,
			"0.011": 3.2407456417,
			"0.012": 5.18045029537,
			"0.013": 6.1637409107,
			"0.014": 1.47620050489,
			"0.015": 0.0,
			"0.016": 0.0,
			"0.017": 0.0,
			"0.018": 0.0,
			"0.019": 0.0,
			"0.02": 0.0,
			"0.021": 0.0,
			"0.022": 0.0,
			"0.023": 0.0,
			"0.024": 0.0,
			"0.025": 0.0
		}
	}
}
