{
	 "smiles": "OC(=O)C1=CC=C(OC2=C(C=CC=C2)[N+]([O-])=O)C=C1", 
	 "Tm": 470.15, 
	 "num_atms": 28, 
	 "gaussian": { 
		 "optdone": 1, 
		 "sigma_profile": "yes", 
		 "theory": "DFT", 
		 "functional": "B3LYP", 
		 "basiset": "6-31G**", 
		 "properties": { 
			 "R2extent": 6595.8946, 
			 "electric_dipole_moment_norm": 6.50146027443, 
			 "electric_quadrupole_moment_norm": 36.785918528, 
			 "total_energy": -931.566091171, 
			 "HOMO_LUMO_gap": 0.14927, 
			 "cosmo_polarized_energy": -20.47, 
			 "cosmo_cavitation_energy": 34.24, 
			 "cosmo_dispersion_energy": -24.19, 
			 "cosmo_repulsion_energy": 1.85, 
			 "cosmo_total_nonelectrostatic_energy": 11.9, 
			 "SMD_solvation_energy": 9.27 
		},
		"coords": [
			{
				"x": -2.9101355038,
				"y": 0.931055061,
				"z": -3.1028040889,
				"element": "O" 
			},
			{
				"x": -2.7654869428,
				"y": 1.5849067891,
				"z": -1.9173487455,
				"element": "C" 
			},
			{
				"x": -3.3094789617,
				"y": 2.6514635736,
				"z": -1.748200825,
				"element": "O" 
			},
			{
				"x": -1.9207348306,
				"y": 0.9178381538,
				"z": -0.8785835109,
				"element": "C" 
			},
			{
				"x": -1.4168298045,
				"y": 1.7111544786,
				"z": 0.1600212784,
				"element": "C" 
			},
			{
				"x": -0.62875277,
				"y": 1.1602266681,
				"z": 1.1650858408,
				"element": "C" 
			},
			{
				"x": -0.3502118784,
				"y": -0.2094100209,
				"z": 1.1377566677,
				"element": "C" 
			},
			{
				"x": 0.3722425819,
				"y": -0.8539850189,
				"z": 2.1192169815,
				"element": "O" 
			},
			{
				"x": 1.198353524,
				"y": -0.1571693467,
				"z": 2.9629842266,
				"element": "C" 
			},
			{
				"x": 2.3922541864,
				"y": 0.4836584724,
				"z": 2.5732953455,
				"element": "C" 
			},
			{
				"x": 3.1888346426,
				"y": 1.1308641253,
				"z": 3.5220370967,
				"element": "C" 
			},
			{
				"x": 2.8256452737,
				"y": 1.1293918943,
				"z": 4.8638163311,
				"element": "C" 
			},
			{
				"x": 1.6534316042,
				"y": 0.4812281313,
				"z": 5.2606469582,
				"element": "C" 
			},
			{
				"x": 0.8468634657,
				"y": -0.1477853161,
				"z": 4.3154617521,
				"element": "C" 
			},
			{
				"x": 2.8847698102,
				"y": 0.4776273215,
				"z": 1.1859650757,
				"element": "N" 
			},
			{
				"x": 3.7669394496,
				"y": 1.2870559764,
				"z": 0.899398756,
				"element": "O" 
			},
			{
				"x": 2.4090035061,
				"y": -0.3423939747,
				"z": 0.4040826667,
				"element": "O" 
			},
			{
				"x": -0.8640594345,
				"y": -1.0248041936,
				"z": 0.1269306133,
				"element": "C" 
			},
			{
				"x": -1.6446607187,
				"y": -0.4588698676,
				"z": -0.8735609734,
				"element": "C" 
			},
			{
				"x": -2.2803903204,
				"y": 0.1993353677,
				"z": -3.1594119575,
				"element": "H" 
			},
			{
				"x": -1.6595552604,
				"y": 2.7682444128,
				"z": 0.1652513241,
				"element": "H" 
			},
			{
				"x": -0.2453679086,
				"y": 1.7847278888,
				"z": 1.9644874229,
				"element": "H" 
			},
			{
				"x": 4.092053663,
				"y": 1.61855736,
				"z": 3.1774320128,
				"element": "H" 
			},
			{
				"x": 3.455921737,
				"y": 1.6260070007,
				"z": 5.5938100767,
				"element": "H" 
			},
			{
				"x": 1.3602542435,
				"y": 0.4714173,
				"z": 6.3058741943,
				"element": "H" 
			},
			{
				"x": -0.0734005962,
				"y": -0.6469870504,
				"z": 4.5988343276,
				"element": "H" 
			},
			{
				"x": -0.64110189,
				"y": -2.0855473934,
				"z": 0.1426125567,
				"element": "H" 
			},
			{
				"x": -2.0631008672,
				"y": -1.113607793,
				"z": -1.6339914039,
				"element": "H" 
			}
		],
		 "valence_orbital": [ 
			{
				"type": "occ",
				"energy": -0.29121,
				"method": "rhf"
			},
			{
				"type": "occ",
				"energy": -0.28213,
				"method": "rhf"
			},
			{
				"type": "occ",
				"energy": -0.27633,
				"method": "rhf"
			},
			{
				"type": "occ",
				"energy": -0.27045,
				"method": "rhf"
			},
			{
				"type": "occ",
				"energy": -0.24761,
				"method": "rhf"
			},
			{
				"type": "unocc",
				"energy": -0.09834,
				"method": "rhf"
			},
			{
				"type": "unocc",
				"energy": -0.04765,
				"method": "rhf"
			},
			{
				"type": "unocc",
				"energy": -0.0361,
				"method": "rhf"
			},
			{
				"type": "unocc",
				"energy": -0.02559,
				"method": "rhf"
			},
			{
				"type": "unocc",
				"energy": -0.01469,
				"method": "rhf"
			}
		],
		"cosmo_sigma_profile": { 
			"-0.025": 0.0,
			"-0.024": 0.0,
			"-0.023": 0.0,
			"-0.022": 0.0,
			"-0.021": 0.0,
			"-0.02": 0.0,
			"-0.019": 0.198681785789,
			"-0.018": 1.17976935944,
			"-0.017": 1.03307951805,
			"-0.016": 0.851840707789,
			"-0.015": 0.491879527067,
			"-0.014": 0.789407802465,
			"-0.013": 1.37699215323,
			"-0.012": 1.35277076808,
			"-0.011": 1.08069156779,
			"-0.01": 1.09507200175,
			"-0.009": 1.71036796154,
			"-0.008": 7.22300248759,
			"-0.007": 15.1930172637,
			"-0.006": 18.2641113107,
			"-0.005": 16.6713243468,
			"-0.004": 13.9953941939,
			"-0.003": 15.3466741575,
			"-0.002": 16.139722678,
			"-0.001": 17.6858907911,
			"0.0": 19.8669719669,
			"0.001": 20.9273758222,
			"0.002": 20.749576965,
			"0.003": 11.8312396188,
			"0.004": 6.46056901493,
			"0.005": 7.48953521488,
			"0.006": 8.38850153846,
			"0.007": 11.3803497938,
			"0.008": 10.7894524762,
			"0.009": 6.95621563065,
			"0.01": 6.5660247342,
			"0.011": 5.56642404657,
			"0.012": 5.12746598613,
			"0.013": 1.76321278737,
			"0.014": 0.102422216468,
			"0.015": 0.0,
			"0.016": 0.0,
			"0.017": 0.0,
			"0.018": 0.0,
			"0.019": 0.0,
			"0.02": 0.0,
			"0.021": 0.0,
			"0.022": 0.0,
			"0.023": 0.0,
			"0.024": 0.0,
			"0.025": 0.0
		}
	}
}
