{
	 "smiles": "[O-][N+](=O)C1=CC=C(C=O)C=C1", 
	 "Tm": 379.15, 
	 "num_atms": 16, 
	 "gaussian": { 
		 "optdone": 1, 
		 "sigma_profile": "yes", 
		 "theory": "DFT", 
		 "functional": "B3LYP", 
		 "basiset": "6-31G**", 
		 "properties": { 
			 "R2extent": 3469.3102, 
			 "electric_dipole_moment_norm": 2.49480122455, 
			 "electric_quadrupole_moment_norm": 14.1387319743, 
			 "total_energy": -550.06828211, 
			 "HOMO_LUMO_gap": 0.16339, 
			 "cosmo_polarized_energy": -10.74, 
			 "cosmo_cavitation_energy": 21.91, 
			 "cosmo_dispersion_energy": -15.97, 
			 "cosmo_repulsion_energy": 1.27, 
			 "cosmo_total_nonelectrostatic_energy": 7.21, 
			 "SMD_solvation_energy": 7.21 
		},
		"coords": [
			{
				"x": -1.1536072113,
				"y": 0.8670192053,
				"z": 2.8429687514,
				"element": "O" 
			},
			{
				"x": -1.2634498781,
				"y": 0.4639467344,
				"z": 1.6866911239,
				"element": "N" 
			},
			{
				"x": -1.7492997903,
				"y": 1.1071994532,
				"z": 0.7580045041,
				"element": "O" 
			},
			{
				"x": -0.7752022151,
				"y": -0.8972304405,
				"z": 1.3908554864,
				"element": "C" 
			},
			{
				"x": -0.8881216704,
				"y": -1.3786010687,
				"z": 0.0881696247,
				"element": "C" 
			},
			{
				"x": -0.4251041726,
				"y": -2.6635851927,
				"z": -0.1817598261,
				"element": "C" 
			},
			{
				"x": 0.1374125197,
				"y": -3.4418275948,
				"z": 0.8385428098,
				"element": "C" 
			},
			{
				"x": 0.6283877244,
				"y": -4.8125810984,
				"z": 0.5384253938,
				"element": "C" 
			},
			{
				"x": 1.1278779281,
				"y": -5.5516595482,
				"z": 1.3624984833,
				"element": "O" 
			},
			{
				"x": 0.2385522484,
				"y": -2.9312665074,
				"z": 2.1419774005,
				"element": "C" 
			},
			{
				"x": -0.2190264224,
				"y": -1.6509611454,
				"z": 2.4265498247,
				"element": "C" 
			},
			{
				"x": -1.3279387895,
				"y": -0.7510778712,
				"z": -0.676593759,
				"element": "H" 
			},
			{
				"x": -0.4999724893,
				"y": -3.0659030139,
				"z": -1.1886949255,
				"element": "H" 
			},
			{
				"x": 0.5062936811,
				"y": -5.1299839312,
				"z": -0.5199197037,
				"element": "H" 
			},
			{
				"x": 0.6784260285,
				"y": -3.5555298884,
				"z": 2.912658481,
				"element": "H" 
			},
			{
				"x": -0.1568274911,
				"y": -1.2253580922,
				"z": 3.4202263306,
				"element": "H" 
			}
		],
		 "valence_orbital": [ 
			{
				"type": "occ",
				"energy": -0.31915,
				"method": "rhf"
			},
			{
				"type": "occ",
				"energy": -0.30342,
				"method": "rhf"
			},
			{
				"type": "occ",
				"energy": -0.29744,
				"method": "rhf"
			},
			{
				"type": "occ",
				"energy": -0.29377,
				"method": "rhf"
			},
			{
				"type": "occ",
				"energy": -0.27781,
				"method": "rhf"
			},
			{
				"type": "unocc",
				"energy": -0.11442,
				"method": "rhf"
			},
			{
				"type": "unocc",
				"energy": -0.05725,
				"method": "rhf"
			},
			{
				"type": "unocc",
				"energy": -0.04258,
				"method": "rhf"
			},
			{
				"type": "unocc",
				"energy": 0.02625,
				"method": "rhf"
			},
			{
				"type": "unocc",
				"energy": 0.07372,
				"method": "rhf"
			}
		],
		"cosmo_sigma_profile": { 
			"-0.025": 0.0,
			"-0.024": 0.0,
			"-0.023": 0.0,
			"-0.022": 0.0,
			"-0.021": 0.0,
			"-0.02": 0.0,
			"-0.019": 0.0,
			"-0.018": 0.0,
			"-0.017": 0.0,
			"-0.016": 0.0,
			"-0.015": 0.0,
			"-0.014": 0.0,
			"-0.013": 0.0,
			"-0.012": 0.0,
			"-0.011": 0.0,
			"-0.01": 0.326678244934,
			"-0.009": 2.85909135127,
			"-0.008": 7.65866545782,
			"-0.007": 10.5809704956,
			"-0.006": 11.2819423079,
			"-0.005": 10.0994206028,
			"-0.004": 9.23800908205,
			"-0.003": 11.100331546,
			"-0.002": 14.3438295973,
			"-0.001": 15.7231602668,
			"0.0": 17.4885888656,
			"0.001": 9.72983711147,
			"0.002": 2.53430773448,
			"0.003": 5.06225738479,
			"0.004": 4.36846006341,
			"0.005": 3.61088821351,
			"0.006": 6.78844968772,
			"0.007": 10.8804475958,
			"0.008": 7.75894973734,
			"0.009": 6.3102767963,
			"0.01": 4.51005737189,
			"0.011": 3.38702169765,
			"0.012": 1.06729525847,
			"0.013": 0.0164880860347,
			"0.014": 0.0,
			"0.015": 0.0,
			"0.016": 0.0,
			"0.017": 0.0,
			"0.018": 0.0,
			"0.019": 0.0,
			"0.02": 0.0,
			"0.021": 0.0,
			"0.022": 0.0,
			"0.023": 0.0,
			"0.024": 0.0,
			"0.025": 0.0
		}
	}
}
