{
	 "smiles": "OC(=O)C1(CC2=CC=CC=C2)CC2CCC1C2", 
	 "Tm": 363.15, 
	 "num_atms": 35, 
	 "gaussian": { 
		 "optdone": 1, 
		 "sigma_profile": "yes", 
		 "theory": "DFT", 
		 "functional": "B3LYP", 
		 "basiset": "6-31G**", 
		 "properties": { 
			 "R2extent": 4125.3031, 
			 "electric_dipole_moment_norm": 1.5830152305, 
			 "electric_quadrupole_moment_norm": 9.1603522536, 
			 "total_energy": -732.908700332, 
			 "HOMO_LUMO_gap": 0.23405, 
			 "cosmo_polarized_energy": -9.22, 
			 "cosmo_cavitation_energy": 34.3, 
			 "cosmo_dispersion_energy": -24.47, 
			 "cosmo_repulsion_energy": 1.87, 
			 "cosmo_total_nonelectrostatic_energy": 11.7, 
			 "SMD_solvation_energy": 5.75 
		},
		"coords": [
			{
				"x": 0.6381784404,
				"y": -0.8371920949,
				"z": 3.3905439164,
				"element": "O" 
			},
			{
				"x": 1.4082823358,
				"y": -0.0009372465,
				"z": 2.6441522689,
				"element": "C" 
			},
			{
				"x": 2.2883369437,
				"y": 0.6617201205,
				"z": 3.1511636702,
				"element": "O" 
			},
			{
				"x": 1.0095946138,
				"y": -0.0220731037,
				"z": 1.1669007422,
				"element": "C" 
			},
			{
				"x": -0.4733473711,
				"y": 0.4997461508,
				"z": 1.1385455463,
				"element": "C" 
			},
			{
				"x": -1.1960347957,
				"y": 0.543346551,
				"z": -0.1910508822,
				"element": "C" 
			},
			{
				"x": -1.1784367012,
				"y": 1.6945578204,
				"z": -0.992486096,
				"element": "C" 
			},
			{
				"x": -1.8563434384,
				"y": 1.7343628764,
				"z": -2.2123465874,
				"element": "C" 
			},
			{
				"x": -2.5769353257,
				"y": 0.6224223323,
				"z": -2.6502360037,
				"element": "C" 
			},
			{
				"x": -2.6221330633,
				"y": -0.5239633853,
				"z": -1.85396052,
				"element": "C" 
			},
			{
				"x": -1.942602023,
				"y": -0.5586155225,
				"z": -0.6362141003,
				"element": "C" 
			},
			{
				"x": 2.0067925514,
				"y": 0.8285832816,
				"z": 0.3125336901,
				"element": "C" 
			},
			{
				"x": 2.7223224457,
				"y": -0.216802878,
				"z": -0.5715136376,
				"element": "C" 
			},
			{
				"x": 3.6103237943,
				"y": -1.1189730258,
				"z": 0.3214906751,
				"element": "C" 
			},
			{
				"x": 2.5668841891,
				"y": -2.0351386766,
				"z": 1.0399309496,
				"element": "C" 
			},
			{
				"x": 1.2080280311,
				"y": -1.4616768392,
				"z": 0.5626002184,
				"element": "C" 
			},
			{
				"x": 1.5508166454,
				"y": -1.1592249024,
				"z": -0.9148265895,
				"element": "C" 
			},
			{
				"x": 0.9618320388,
				"y": -0.7506872319,
				"z": 4.302962066,
				"element": "H" 
			},
			{
				"x": -0.4615973524,
				"y": 1.5115850857,
				"z": 1.5633724409,
				"element": "H" 
			},
			{
				"x": -1.0503571797,
				"y": -0.1209621166,
				"z": 1.8299369622,
				"element": "H" 
			},
			{
				"x": -0.6391940413,
				"y": 2.5744623363,
				"z": -0.65096009,
				"element": "H" 
			},
			{
				"x": -1.8282475519,
				"y": 2.6377959368,
				"z": -2.815192165,
				"element": "H" 
			},
			{
				"x": -3.1083717406,
				"y": 0.652463358,
				"z": -3.5970567506,
				"element": "H" 
			},
			{
				"x": -3.1933754887,
				"y": -1.3896869752,
				"z": -2.1775295576,
				"element": "H" 
			},
			{
				"x": -1.9943543879,
				"y": -1.4512501086,
				"z": -0.0181012161,
				"element": "H" 
			},
			{
				"x": 1.4605395988,
				"y": 1.5365918439,
				"z": -0.3173742398,
				"element": "H" 
			},
			{
				"x": 2.689372387,
				"y": 1.3957048618,
				"z": 0.9488282309,
				"element": "H" 
			},
			{
				"x": 3.2510603105,
				"y": 0.2243046325,
				"z": -1.4210101181,
				"element": "H" 
			},
			{
				"x": 4.3059304255,
				"y": -1.7094679335,
				"z": -0.2838144634,
				"element": "H" 
			},
			{
				"x": 4.2049924325,
				"y": -0.5336032079,
				"z": 1.0292901326,
				"element": "H" 
			},
			{
				"x": 2.6571906003,
				"y": -3.073424852,
				"z": 0.703491895,
				"element": "H" 
			},
			{
				"x": 2.6804117529,
				"y": -2.0467463486,
				"z": 2.1270243889,
				"element": "H" 
			},
			{
				"x": 0.3620575524,
				"y": -2.127419272,
				"z": 0.7481172855,
				"element": "H" 
			},
			{
				"x": 1.8595557524,
				"y": -2.0600423979,
				"z": -1.4576077467,
				"element": "H" 
			},
			{
				"x": 0.7497276191,
				"y": -0.6707590688,
				"z": -1.4714043153,
				"element": "H" 
			}
		],
		 "valence_orbital": [ 
			{
				"type": "occ",
				"energy": -0.30269,
				"method": "rhf"
			},
			{
				"type": "occ",
				"energy": -0.29161,
				"method": "rhf"
			},
			{
				"type": "occ",
				"energy": -0.26803,
				"method": "rhf"
			},
			{
				"type": "occ",
				"energy": -0.2504,
				"method": "rhf"
			},
			{
				"type": "occ",
				"energy": -0.24103,
				"method": "rhf"
			},
			{
				"type": "unocc",
				"energy": -0.00698,
				"method": "rhf"
			},
			{
				"type": "unocc",
				"energy": -0.00338,
				"method": "rhf"
			},
			{
				"type": "unocc",
				"energy": 0.01392,
				"method": "rhf"
			},
			{
				"type": "unocc",
				"energy": 0.07283,
				"method": "rhf"
			},
			{
				"type": "unocc",
				"energy": 0.08413,
				"method": "rhf"
			}
		],
		"cosmo_sigma_profile": { 
			"-0.025": 0.0,
			"-0.024": 0.0,
			"-0.023": 0.0,
			"-0.022": 0.0,
			"-0.021": 0.0,
			"-0.02": 0.0,
			"-0.019": 0.0026469675606,
			"-0.018": 0.521768208064,
			"-0.017": 1.03673059086,
			"-0.016": 1.04382740811,
			"-0.015": 0.226766645594,
			"-0.014": 0.511353049261,
			"-0.013": 0.251140506759,
			"-0.012": 0.936248424628,
			"-0.011": 1.23773132093,
			"-0.01": 0.683934384694,
			"-0.009": 0.72182504308,
			"-0.008": 0.334740402086,
			"-0.007": 1.01713776494,
			"-0.006": 2.95414845278,
			"-0.005": 14.1459255924,
			"-0.004": 19.0399574905,
			"-0.003": 24.0348147559,
			"-0.002": 27.9758496911,
			"-0.001": 28.9736232678,
			"0.0": 30.434997771,
			"0.001": 31.5076532113,
			"0.002": 18.798181761,
			"0.003": 13.0120674975,
			"0.004": 12.7472363197,
			"0.005": 11.8577079075,
			"0.006": 7.10068124283,
			"0.007": 2.40325085715,
			"0.008": 2.97987083077,
			"0.009": 2.5188410259,
			"0.01": 1.98397446375,
			"0.011": 3.32643226092,
			"0.012": 3.77634980475,
			"0.013": 0.0605076159792,
			"0.014": 0.0,
			"0.015": 0.0,
			"0.016": 0.0,
			"0.017": 0.0,
			"0.018": 0.0,
			"0.019": 0.0,
			"0.02": 0.0,
			"0.021": 0.0,
			"0.022": 0.0,
			"0.023": 0.0,
			"0.024": 0.0,
			"0.025": 0.0
		}
	}
}
