{
	 "smiles": "FC1=CC=C(C=C1)C1=CN2N=C(Br)SC2=N1", 
	 "Tm": 480.15, 
	 "num_atms": 21, 
	 "gaussian": { 
		 "optdone": 1, 
		 "sigma_profile": "yes", 
		 "theory": "DFT", 
		 "functional": "B3LYP", 
		 "basiset": "6-31G**", 
		 "properties": { 
			 "R2extent": 11464.6959, 
			 "electric_dipole_moment_norm": 2.46754135325, 
			 "electric_quadrupole_moment_norm": 8.1167273251, 
			 "total_energy": -3617.7058719, 
			 "HOMO_LUMO_gap": 0.15973, 
			 "cosmo_polarized_energy": -8.16, 
			 "cosmo_cavitation_energy": 31.15, 
			 "cosmo_dispersion_energy": -24.09, 
			 "cosmo_repulsion_energy": 1.77, 
			 "cosmo_total_nonelectrostatic_energy": 8.83, 
			 "SMD_solvation_energy": 2.01 
		},
		"coords": [
			{
				"x": -2.2196999525,
				"y": -1.7989495178,
				"z": -3.5374297702,
				"element": "F" 
			},
			{
				"x": -1.6595516926,
				"y": -1.1905149989,
				"z": -2.4707226177,
				"element": "C" 
			},
			{
				"x": -0.8776926224,
				"y": -1.9416139133,
				"z": -1.599265816,
				"element": "C" 
			},
			{
				"x": -0.3024899136,
				"y": -1.3086577843,
				"z": -0.5007859232,
				"element": "C" 
			},
			{
				"x": -0.5015698859,
				"y": 0.0628078805,
				"z": -0.2674163831,
				"element": "C" 
			},
			{
				"x": -1.2975299915,
				"y": 0.7885967162,
				"z": -1.1694625786,
				"element": "C" 
			},
			{
				"x": -1.8787293423,
				"y": 0.1678275371,
				"z": -2.2721120044,
				"element": "C" 
			},
			{
				"x": 0.0996474437,
				"y": 0.7427883979,
				"z": 0.8874124322,
				"element": "C" 
			},
			{
				"x": 0.9066447179,
				"y": 0.2071600989,
				"z": 1.8786477323,
				"element": "C" 
			},
			{
				"x": 1.1884164169,
				"y": 1.2735935767,
				"z": 2.7081074331,
				"element": "N" 
			},
			{
				"x": 1.9190727586,
				"y": 1.4172361505,
				"z": 3.8479103115,
				"element": "N" 
			},
			{
				"x": 1.8457585524,
				"y": 2.6534627587,
				"z": 4.215748079,
				"element": "C" 
			},
			{
				"x": 2.7141625023,
				"y": 3.2899498889,
				"z": 5.7500694805,
				"element": "Br" 
			},
			{
				"x": 0.8835807327,
				"y": 3.7578376016,
				"z": 3.2134860617,
				"element": "S" 
			},
			{
				"x": 0.5485026587,
				"y": 2.3754759348,
				"z": 2.1831944976,
				"element": "C" 
			},
			{
				"x": -0.1151039605,
				"y": 2.1057045898,
				"z": 1.0941822163,
				"element": "N" 
			},
			{
				"x": -0.729705527,
				"y": -2.9993912347,
				"z": -1.7876111875,
				"element": "H" 
			},
			{
				"x": 0.3079479195,
				"y": -1.8948488406,
				"z": 0.1796604098,
				"element": "H" 
			},
			{
				"x": -1.4526021016,
				"y": 1.8467204249,
				"z": -0.991553551,
				"element": "H" 
			},
			{
				"x": -2.4947946705,
				"y": 0.7192905932,
				"z": -2.9742093792,
				"element": "H" 
			},
			{
				"x": 1.2933359577,
				"y": -0.7789758604,
				"z": 2.0722505569,
				"element": "H" 
			}
		],
		 "valence_orbital": [ 
			{
				"type": "occ",
				"energy": -0.29219,
				"method": "rhf"
			},
			{
				"type": "occ",
				"energy": -0.27928,
				"method": "rhf"
			},
			{
				"type": "occ",
				"energy": -0.26111,
				"method": "rhf"
			},
			{
				"type": "occ",
				"energy": -0.25412,
				"method": "rhf"
			},
			{
				"type": "occ",
				"energy": -0.21412,
				"method": "rhf"
			},
			{
				"type": "unocc",
				"energy": -0.05439,
				"method": "rhf"
			},
			{
				"type": "unocc",
				"energy": -0.04079,
				"method": "rhf"
			},
			{
				"type": "unocc",
				"energy": -0.0167,
				"method": "rhf"
			},
			{
				"type": "unocc",
				"energy": -0.01132,
				"method": "rhf"
			},
			{
				"type": "unocc",
				"energy": -0.01019,
				"method": "rhf"
			}
		],
		"cosmo_sigma_profile": { 
			"-0.025": 0.0,
			"-0.024": 0.0,
			"-0.023": 0.0,
			"-0.022": 0.0,
			"-0.021": 0.0,
			"-0.02": 0.0,
			"-0.019": 0.0,
			"-0.018": 0.0,
			"-0.017": 0.0,
			"-0.016": 0.0,
			"-0.015": 0.0,
			"-0.014": 0.0,
			"-0.013": 0.0,
			"-0.012": 0.0,
			"-0.011": 0.103667620451,
			"-0.01": 2.02077405822,
			"-0.009": 2.06921082033,
			"-0.008": 3.67585213402,
			"-0.007": 6.72682025744,
			"-0.006": 9.19745236781,
			"-0.005": 13.3390270337,
			"-0.004": 17.723228095,
			"-0.003": 16.9180195411,
			"-0.002": 20.1101862743,
			"-0.001": 19.6100274904,
			"0.0": 23.2120147112,
			"0.001": 28.3425699027,
			"0.002": 24.5274017788,
			"0.003": 23.7001891702,
			"0.004": 24.7994303567,
			"0.005": 7.90968271314,
			"0.006": 2.70564272068,
			"0.007": 2.361336567,
			"0.008": 2.59086292574,
			"0.009": 2.83998818558,
			"0.01": 1.84812318351,
			"0.011": 0.768031015577,
			"0.012": 1.23381565925,
			"0.013": 0.507311241194,
			"0.014": 0.0,
			"0.015": 0.0,
			"0.016": 0.0,
			"0.017": 0.0,
			"0.018": 0.0,
			"0.019": 0.0,
			"0.02": 0.0,
			"0.021": 0.0,
			"0.022": 0.0,
			"0.023": 0.0,
			"0.024": 0.0,
			"0.025": 0.0
		}
	}
}
