{
	 "smiles": "C(NC1=CN=CC=C1)C1=CSC=C1", 
	 "Tm": 336.15, 
	 "num_atms": 23, 
	 "gaussian": { 
		 "optdone": 1, 
		 "sigma_profile": "yes", 
		 "theory": "DFT", 
		 "functional": "B3LYP", 
		 "basiset": "6-31G**", 
		 "properties": { 
			 "R2extent": 3765.5153, 
			 "electric_dipole_moment_norm": 3.59441111867, 
			 "electric_quadrupole_moment_norm": 12.134351862, 
			 "total_energy": -894.75445622, 
			 "HOMO_LUMO_gap": 0.19314, 
			 "cosmo_polarized_energy": -12.23, 
			 "cosmo_cavitation_energy": 28.44, 
			 "cosmo_dispersion_energy": -21.19, 
			 "cosmo_repulsion_energy": 1.63, 
			 "cosmo_total_nonelectrostatic_energy": 8.88, 
			 "SMD_solvation_energy": 3.04 
		},
		"coords": [
			{
				"x": -0.850317872,
				"y": 0.9984935346,
				"z": -1.6744614427,
				"element": "C" 
			},
			{
				"x": -1.094366671,
				"y": -0.198011724,
				"z": -0.8808042938,
				"element": "N" 
			},
			{
				"x": -0.3693649272,
				"y": -1.371121343,
				"z": -1.0690655899,
				"element": "C" 
			},
			{
				"x": 0.8915755767,
				"y": -1.3916390606,
				"z": -1.7006274021,
				"element": "C" 
			},
			{
				"x": 1.6118927439,
				"y": -2.5020087947,
				"z": -1.8814776684,
				"element": "N" 
			},
			{
				"x": 1.1186445059,
				"y": -3.6609448119,
				"z": -1.433082438,
				"element": "C" 
			},
			{
				"x": -0.1147308977,
				"y": -3.7528921548,
				"z": -0.7837348552,
				"element": "C" 
			},
			{
				"x": -0.8669907628,
				"y": -2.5995998596,
				"z": -0.6008753676,
				"element": "C" 
			},
			{
				"x": 0.2203556912,
				"y": 1.9106657009,
				"z": -1.1118491913,
				"element": "C" 
			},
			{
				"x": 0.7310876028,
				"y": 1.8280051685,
				"z": 0.1552482978,
				"element": "C" 
			},
			{
				"x": 1.910513198,
				"y": 3.0613021205,
				"z": 0.4608040311,
				"element": "S" 
			},
			{
				"x": 1.7167442437,
				"y": 3.7059928622,
				"z": -1.1376233111,
				"element": "C" 
			},
			{
				"x": 0.7952847981,
				"y": 2.9957832008,
				"z": -1.8539527796,
				"element": "C" 
			},
			{
				"x": -0.5926758591,
				"y": 0.7336073291,
				"z": -2.71201974,
				"element": "H" 
			},
			{
				"x": -1.796212046,
				"y": 1.551143034,
				"z": -1.7290448619,
				"element": "H" 
			},
			{
				"x": -2.0621119023,
				"y": -0.3491780571,
				"z": -0.6378252642,
				"element": "H" 
			},
			{
				"x": 1.3387838944,
				"y": -0.4676384576,
				"z": -2.0575703134,
				"element": "H" 
			},
			{
				"x": 1.7298578162,
				"y": -4.5460490741,
				"z": -1.5963177368,
				"element": "H" 
			},
			{
				"x": -0.4815904961,
				"y": -4.7126773592,
				"z": -0.4321694312,
				"element": "H" 
			},
			{
				"x": -1.8335011857,
				"y": -2.6396732392,
				"z": -0.1026755831,
				"element": "H" 
			},
			{
				"x": 0.4798214961,
				"y": 1.1033738113,
				"z": 0.9159394996,
				"element": "H" 
			},
			{
				"x": 2.2973497637,
				"y": 4.5613661846,
				"z": -1.4540804242,
				"element": "H" 
			},
			{
				"x": 0.5302512892,
				"y": 3.2303009894,
				"z": -2.8798341341,
				"element": "H" 
			}
		],
		 "valence_orbital": [ 
			{
				"type": "occ",
				"energy": -0.26912,
				"method": "rhf"
			},
			{
				"type": "occ",
				"energy": -0.24576,
				"method": "rhf"
			},
			{
				"type": "occ",
				"energy": -0.24187,
				"method": "rhf"
			},
			{
				"type": "occ",
				"energy": -0.23191,
				"method": "rhf"
			},
			{
				"type": "occ",
				"energy": -0.20729,
				"method": "rhf"
			},
			{
				"type": "unocc",
				"energy": -0.01415,
				"method": "rhf"
			},
			{
				"type": "unocc",
				"energy": -0.00827,
				"method": "rhf"
			},
			{
				"type": "unocc",
				"energy": 0.01135,
				"method": "rhf"
			},
			{
				"type": "unocc",
				"energy": 0.03429,
				"method": "rhf"
			},
			{
				"type": "unocc",
				"energy": 0.05171,
				"method": "rhf"
			}
		],
		"cosmo_sigma_profile": { 
			"-0.025": 0.0,
			"-0.024": 0.0,
			"-0.023": 0.0,
			"-0.022": 0.0,
			"-0.021": 0.0,
			"-0.02": 0.0,
			"-0.019": 0.0,
			"-0.018": 0.0,
			"-0.017": 0.0,
			"-0.016": 0.0,
			"-0.015": 0.0,
			"-0.014": 0.120798631706,
			"-0.013": 1.39338691494,
			"-0.012": 1.62986409698,
			"-0.011": 1.41159750928,
			"-0.01": 1.91478713462,
			"-0.009": 1.50782844853,
			"-0.008": 4.09177812712,
			"-0.007": 6.52547654114,
			"-0.006": 12.3806185802,
			"-0.005": 16.0457707268,
			"-0.004": 19.0961615535,
			"-0.003": 14.8982691624,
			"-0.002": 13.9047437822,
			"-0.001": 11.2946407625,
			"0.0": 12.1398552519,
			"0.001": 12.5031608148,
			"0.002": 16.761000835,
			"0.003": 20.1900144845,
			"0.004": 25.4714463507,
			"0.005": 17.2981527572,
			"0.006": 5.98567783301,
			"0.007": 1.90413120061,
			"0.008": 1.18419121893,
			"0.009": 1.92691015304,
			"0.01": 1.17170568985,
			"0.011": 1.0505740444,
			"0.012": 1.25591362899,
			"0.013": 0.802647556172,
			"0.014": 0.924877593554,
			"0.015": 0.885645627116,
			"0.016": 0.912406933717,
			"0.017": 0.942673541045,
			"0.018": 0.118877356718,
			"0.019": 0.0,
			"0.02": 0.0,
			"0.021": 0.0,
			"0.022": 0.0,
			"0.023": 0.0,
			"0.024": 0.0,
			"0.025": 0.0
		}
	}
}
