{
	 "smiles": "IC1=C(I)C(I)=C(I)C=C1", 
	 "Tm": 409.15, 
	 "num_atms": 12, 
	 "gaussian": { 
		 "optdone": 1, 
		 "sigma_profile": "yes", 
		 "theory": "DFT", 
		 "functional": "B3LYP", 
		 "basiset": "6-31G**", 
		 "properties": { 
			 "R2extent": 1959.4928, 
			 "electric_dipole_moment_norm": 1.17333632007, 
			 "electric_quadrupole_moment_norm": 8.29981639195, 
			 "total_energy": -275.358064541, 
			 "HOMO_LUMO_gap": 0.14724, 
			 "cosmo_polarized_energy": -5.08, 
			 "cosmo_cavitation_energy": 28.08, 
			 "cosmo_dispersion_energy": -25.81, 
			 "cosmo_repulsion_energy": 1.92, 
			 "cosmo_total_nonelectrostatic_energy": 4.19, 
			 "SMD_solvation_energy": 1.6 
		},
		"coords": [
			{
				"x": 2.081062274,
				"y": 1.8491950524,
				"z": -0.7519772649,
				"element": "I" 
			},
			{
				"x": 0.389354483,
				"y": 1.0317828541,
				"z": 0.2255575124,
				"element": "C" 
			},
			{
				"x": 0.0905824897,
				"y": -0.34229243,
				"z": 0.2851175431,
				"element": "C" 
			},
			{
				"x": 1.3851475595,
				"y": -1.7334882889,
				"z": -0.6476893167,
				"element": "I" 
			},
			{
				"x": -1.0750559526,
				"y": -0.771580738,
				"z": 0.9706858924,
				"element": "C" 
			},
			{
				"x": -1.5773152484,
				"y": -2.8243749566,
				"z": 1.0937871902,
				"element": "I" 
			},
			{
				"x": -1.9099246252,
				"y": 0.1849572541,
				"z": 1.578084214,
				"element": "C" 
			},
			{
				"x": -3.6841342116,
				"y": -0.2741327164,
				"z": 2.6396847235,
				"element": "I" 
			},
			{
				"x": -1.5931445019,
				"y": 1.5432474613,
				"z": 1.5059758296,
				"element": "C" 
			},
			{
				"x": -0.4539953481,
				"y": 1.9628232045,
				"z": 0.8358210102,
				"element": "C" 
			},
			{
				"x": -2.2380850942,
				"y": 2.2769504355,
				"z": 1.9747193483,
				"element": "H" 
			},
			{
				"x": -0.2209918241,
				"y": 3.0199128679,
				"z": 0.7880333178,
				"element": "H" 
			}
		],
		 "valence_orbital": [ 
			{
				"type": "occ",
				"energy": -0.28082,
				"method": "rhf"
			},
			{
				"type": "occ",
				"energy": -0.26994,
				"method": "rhf"
			},
			{
				"type": "occ",
				"energy": -0.25591,
				"method": "rhf"
			},
			{
				"type": "occ",
				"energy": -0.247,
				"method": "rhf"
			},
			{
				"type": "occ",
				"energy": -0.2427,
				"method": "rhf"
			},
			{
				"type": "unocc",
				"energy": -0.09546,
				"method": "rhf"
			},
			{
				"type": "unocc",
				"energy": -0.05396,
				"method": "rhf"
			},
			{
				"type": "unocc",
				"energy": -0.04946,
				"method": "rhf"
			},
			{
				"type": "unocc",
				"energy": -0.04746,
				"method": "rhf"
			},
			{
				"type": "unocc",
				"energy": -0.02853,
				"method": "rhf"
			}
		],
		"cosmo_sigma_profile": { 
			"-0.025": 0.0,
			"-0.024": 0.0,
			"-0.023": 0.0,
			"-0.022": 0.0,
			"-0.021": 0.0,
			"-0.02": 0.0,
			"-0.019": 0.0,
			"-0.018": 0.0,
			"-0.017": 0.0,
			"-0.016": 0.0,
			"-0.015": 0.0,
			"-0.014": 0.0,
			"-0.013": 0.0,
			"-0.012": 0.0,
			"-0.011": 0.0,
			"-0.01": 0.0,
			"-0.009": 0.649672432564,
			"-0.008": 7.62826740941,
			"-0.007": 9.05544343361,
			"-0.006": 8.30777957003,
			"-0.005": 9.17754703201,
			"-0.004": 8.63039102572,
			"-0.003": 10.4461417365,
			"-0.002": 11.3177971755,
			"-0.001": 21.4915205915,
			"0.0": 31.825691442,
			"0.001": 29.7695167085,
			"0.002": 23.7830433969,
			"0.003": 34.0461179445,
			"0.004": 38.9110743436,
			"0.005": 0.304217965548,
			"0.006": 0.0,
			"0.007": 0.0,
			"0.008": 0.0,
			"0.009": 0.0,
			"0.01": 0.0,
			"0.011": 0.0,
			"0.012": 0.0,
			"0.013": 0.0,
			"0.014": 0.0,
			"0.015": 0.0,
			"0.016": 0.0,
			"0.017": 0.0,
			"0.018": 0.0,
			"0.019": 0.0,
			"0.02": 0.0,
			"0.021": 0.0,
			"0.022": 0.0,
			"0.023": 0.0,
			"0.024": 0.0,
			"0.025": 0.0
		}
	}
}
