{
	 "smiles": "CC(C)(C)OC(=O)N[C@@H](CC(O)=O)C(=O)OCC1=CC=CC=C1", 
	 "Tm": 369.15, 
	 "num_atms": 44, 
	 "gaussian": { 
		 "optdone": 1, 
		 "sigma_profile": "yes", 
		 "theory": "DFT", 
		 "functional": "B3LYP", 
		 "basiset": "6-31G**", 
		 "properties": { 
			 "R2extent": 9934.584, 
			 "electric_dipole_moment_norm": 2.93390438495, 
			 "electric_quadrupole_moment_norm": 17.3676622316, 
			 "total_energy": -1128.51912665, 
			 "HOMO_LUMO_gap": 0.23028, 
			 "cosmo_polarized_energy": -19.47, 
			 "cosmo_cavitation_energy": 47.87, 
			 "cosmo_dispersion_energy": -31.1, 
			 "cosmo_repulsion_energy": 2.39, 
			 "cosmo_total_nonelectrostatic_energy": 19.16, 
			 "SMD_solvation_energy": 10.05 
		},
		"coords": [
			{
				"x": 4.5523706958,
				"y": -2.3776677779,
				"z": -2.5219731206,
				"element": "C" 
			},
			{
				"x": 3.4847984172,
				"y": -1.2975734539,
				"z": -2.320321446,
				"element": "C" 
			},
			{
				"x": 4.0920089233,
				"y": 0.0901684768,
				"z": -2.0903426907,
				"element": "C" 
			},
			{
				"x": 2.503695931,
				"y": -1.2749051652,
				"z": -3.4951723976,
				"element": "C" 
			},
			{
				"x": 2.6161071339,
				"y": -1.6548242914,
				"z": -1.1855898384,
				"element": "O" 
			},
			{
				"x": 3.1156740694,
				"y": -1.746838575,
				"z": 0.0688327207,
				"element": "C" 
			},
			{
				"x": 4.2808759587,
				"y": -1.6216504893,
				"z": 0.3990799634,
				"element": "O" 
			},
			{
				"x": 2.1113222778,
				"y": -2.0551179894,
				"z": 0.960592057,
				"element": "N" 
			},
			{
				"x": 0.7052610801,
				"y": -1.9245591136,
				"z": 0.6529589511,
				"element": "C" 
			},
			{
				"x": -0.1665938482,
				"y": -2.5462865531,
				"z": 1.7757803051,
				"element": "C" 
			},
			{
				"x": -0.1131264418,
				"y": -1.7525854521,
				"z": 3.0652756959,
				"element": "C" 
			},
			{
				"x": 1.0472116601,
				"y": -1.9590250517,
				"z": 3.7393585408,
				"element": "O" 
			},
			{
				"x": -0.9684843238,
				"y": -0.9944263375,
				"z": 3.4649686951,
				"element": "O" 
			},
			{
				"x": 0.2842109154,
				"y": -0.4612182888,
				"z": 0.4180977039,
				"element": "C" 
			},
			{
				"x": 0.9469684634,
				"y": 0.5035567878,
				"z": 0.7226501934,
				"element": "O" 
			},
			{
				"x": -0.9425703816,
				"y": -0.4249696704,
				"z": -0.1350590014,
				"element": "O" 
			},
			{
				"x": -1.5641441561,
				"y": 0.8815940512,
				"z": -0.2931809327,
				"element": "C" 
			},
			{
				"x": -3.0433361007,
				"y": 0.7532748287,
				"z": -0.0425994337,
				"element": "C" 
			},
			{
				"x": -3.5127382656,
				"y": 0.2961789347,
				"z": 1.1980323615,
				"element": "C" 
			},
			{
				"x": -4.8828932372,
				"y": 0.199971888,
				"z": 1.4355327582,
				"element": "C" 
			},
			{
				"x": -5.798455431,
				"y": 0.5653456193,
				"z": 0.4441461436,
				"element": "C" 
			},
			{
				"x": -5.3372658083,
				"y": 1.022143435,
				"z": -0.7903121446,
				"element": "C" 
			},
			{
				"x": -3.9644175554,
				"y": 1.110049163,
				"z": -1.032375426,
				"element": "C" 
			},
			{
				"x": 4.0828954336,
				"y": -3.359189214,
				"z": -2.6430118898,
				"element": "H" 
			},
			{
				"x": 5.2343944743,
				"y": -2.4135596772,
				"z": -1.6723784102,
				"element": "H" 
			},
			{
				"x": 5.1259627689,
				"y": -2.1614622965,
				"z": -3.4292609404,
				"element": "H" 
			},
			{
				"x": 3.3022913196,
				"y": 0.8169205978,
				"z": -1.8763831184,
				"element": "H" 
			},
			{
				"x": 4.7917156544,
				"y": 0.0769782898,
				"z": -1.2545192694,
				"element": "H" 
			},
			{
				"x": 4.6222354497,
				"y": 0.4128701542,
				"z": -2.9923010771,
				"element": "H" 
			},
			{
				"x": 2.0312500774,
				"y": -2.2532557661,
				"z": -3.6241716187,
				"element": "H" 
			},
			{
				"x": 3.0311399473,
				"y": -1.0211069069,
				"z": -4.419410578,
				"element": "H" 
			},
			{
				"x": 1.7189254504,
				"y": -0.531026449,
				"z": -3.3291791755,
				"element": "H" 
			},
			{
				"x": 2.3882659106,
				"y": -1.9292851907,
				"z": 1.9252931418,
				"element": "H" 
			},
			{
				"x": 0.4895324683,
				"y": -2.4744017192,
				"z": -0.2662057708,
				"element": "H" 
			},
			{
				"x": -1.2048531961,
				"y": -2.5644655894,
				"z": 1.4450515237,
				"element": "H" 
			},
			{
				"x": 0.1827351927,
				"y": -3.566786001,
				"z": 1.9558545059,
				"element": "H" 
			},
			{
				"x": 1.0280934845,
				"y": -1.3729693498,
				"z": 4.5156899405,
				"element": "H" 
			},
			{
				"x": -1.0809868473,
				"y": 1.5686675708,
				"z": 0.4061053415,
				"element": "H" 
			},
			{
				"x": -1.3603313462,
				"y": 1.2278718179,
				"z": -1.3109275078,
				"element": "H" 
			},
			{
				"x": -2.8049589326,
				"y": 0.0083444079,
				"z": 1.9713555459,
				"element": "H" 
			},
			{
				"x": -5.2378798435,
				"y": -0.1562127273,
				"z": 2.3984854527,
				"element": "H" 
			},
			{
				"x": -6.8655340023,
				"y": 0.4928706948,
				"z": 0.6344083062,
				"element": "H" 
			},
			{
				"x": -6.0424242085,
				"y": 1.3046531256,
				"z": -1.5667826035,
				"element": "H" 
			},
			{
				"x": -3.6067492316,
				"y": 1.459409253,
				"z": -1.9979914565,
				"element": "H" 
			}
		],
		 "valence_orbital": [ 
			{
				"type": "occ",
				"energy": -0.28498,
				"method": "rhf"
			},
			{
				"type": "occ",
				"energy": -0.26231,
				"method": "rhf"
			},
			{
				"type": "occ",
				"energy": -0.25595,
				"method": "rhf"
			},
			{
				"type": "occ",
				"energy": -0.25198,
				"method": "rhf"
			},
			{
				"type": "occ",
				"energy": -0.2457,
				"method": "rhf"
			},
			{
				"type": "unocc",
				"energy": -0.01542,
				"method": "rhf"
			},
			{
				"type": "unocc",
				"energy": -0.01093,
				"method": "rhf"
			},
			{
				"type": "unocc",
				"energy": -0.00395,
				"method": "rhf"
			},
			{
				"type": "unocc",
				"energy": 0.00453,
				"method": "rhf"
			},
			{
				"type": "unocc",
				"energy": 0.05254,
				"method": "rhf"
			}
		],
		"cosmo_sigma_profile": { 
			"-0.025": 0.0,
			"-0.024": 0.0,
			"-0.023": 0.0,
			"-0.022": 0.0,
			"-0.021": 0.0,
			"-0.02": 0.0,
			"-0.019": 0.553091580906,
			"-0.018": 0.967346988045,
			"-0.017": 0.880186138731,
			"-0.016": 1.32364405627,
			"-0.015": 0.293854234843,
			"-0.014": 0.485662723899,
			"-0.013": 0.570493320061,
			"-0.012": 0.886268450941,
			"-0.011": 0.983011786541,
			"-0.01": 0.564294137769,
			"-0.009": 0.724915421021,
			"-0.008": 3.49525508373,
			"-0.007": 8.61568555646,
			"-0.006": 17.4587467927,
			"-0.005": 20.8872880994,
			"-0.004": 32.9188584367,
			"-0.003": 31.5164476292,
			"-0.002": 28.5841584332,
			"-0.001": 29.6034992519,
			"0.0": 40.2423651913,
			"0.001": 30.90597942,
			"0.002": 19.228596525,
			"0.003": 18.4983267926,
			"0.004": 18.8209939052,
			"0.005": 19.0719959837,
			"0.006": 12.8578915207,
			"0.007": 5.65394942462,
			"0.008": 4.92126553875,
			"0.009": 5.26212559532,
			"0.01": 5.09465110223,
			"0.011": 7.58321023985,
			"0.012": 3.09831289961,
			"0.013": 3.40263236298,
			"0.014": 0.825722160125,
			"0.015": 0.0,
			"0.016": 0.0,
			"0.017": 0.0,
			"0.018": 0.0,
			"0.019": 0.0,
			"0.02": 0.0,
			"0.021": 0.0,
			"0.022": 0.0,
			"0.023": 0.0,
			"0.024": 0.0,
			"0.025": 0.0
		}
	}
}
