{
	 "smiles": "OC1=C(CC=C)C=C(Cl)C=C1", 
	 "Tm": 321.15, 
	 "num_atms": 20, 
	 "gaussian": { 
		 "optdone": 1, 
		 "sigma_profile": "yes", 
		 "theory": "DFT", 
		 "functional": "B3LYP", 
		 "basiset": "6-31G**", 
		 "properties": { 
			 "R2extent": 3019.7891, 
			 "electric_dipole_moment_norm": 2.55824942881, 
			 "electric_quadrupole_moment_norm": 14.1636264901, 
			 "total_energy": -883.774225758, 
			 "HOMO_LUMO_gap": 0.20455, 
			 "cosmo_polarized_energy": -9.39, 
			 "cosmo_cavitation_energy": 26.05, 
			 "cosmo_dispersion_energy": -18.67, 
			 "cosmo_repulsion_energy": 1.52, 
			 "cosmo_total_nonelectrostatic_energy": 8.89, 
			 "SMD_solvation_energy": 4.99 
		},
		"coords": [
			{
				"x": 1.62836853,
				"y": 1.3466069434,
				"z": 1.0790977214,
				"element": "O" 
			},
			{
				"x": 1.4586101196,
				"y": 0.9415314165,
				"z": -0.2155068549,
				"element": "C" 
			},
			{
				"x": 0.1545421954,
				"y": 1.0020891318,
				"z": -0.7430667986,
				"element": "C" 
			},
			{
				"x": -1.0053415742,
				"y": 1.4581933132,
				"z": 0.1224176282,
				"element": "C" 
			},
			{
				"x": -1.5463045295,
				"y": 0.3488437337,
				"z": 0.9965292212,
				"element": "C" 
			},
			{
				"x": -1.5638051184,
				"y": 0.3681206351,
				"z": 2.3285342456,
				"element": "C" 
			},
			{
				"x": -0.0410429035,
				"y": 0.6054756475,
				"z": -2.0676542597,
				"element": "C" 
			},
			{
				"x": 1.0263199331,
				"y": 0.1572904756,
				"z": -2.8464101873,
				"element": "C" 
			},
			{
				"x": 0.7383210815,
				"y": -0.3329716145,
				"z": -4.5131236663,
				"element": "Cl" 
			},
			{
				"x": 2.3137507793,
				"y": 0.0979391212,
				"z": -2.3227277312,
				"element": "C" 
			},
			{
				"x": 2.5237591602,
				"y": 0.4960743376,
				"z": -1.0023323284,
				"element": "C" 
			},
			{
				"x": 2.5596317315,
				"y": 1.2603212794,
				"z": 1.319690002,
				"element": "H" 
			},
			{
				"x": -1.8050604833,
				"y": 1.8234453699,
				"z": -0.534974538,
				"element": "H" 
			},
			{
				"x": -0.6913731819,
				"y": 2.2962640721,
				"z": 0.7521124137,
				"element": "H" 
			},
			{
				"x": -1.9367869784,
				"y": -0.5197919993,
				"z": 0.4657420818,
				"element": "H" 
			},
			{
				"x": -1.9694711547,
				"y": -0.4582776894,
				"z": 2.9049514223,
				"element": "H" 
			},
			{
				"x": -1.1692486331,
				"y": 1.2110884846,
				"z": 2.8902502603,
				"element": "H" 
			},
			{
				"x": -1.0366881074,
				"y": 0.6498663618,
				"z": -2.4977662456,
				"element": "H" 
			},
			{
				"x": 3.1405650638,
				"y": -0.2481735701,
				"z": -2.9325839262,
				"element": "H" 
			},
			{
				"x": 3.52715407,
				"y": 0.4586645499,
				"z": -0.5832784603,
				"element": "H" 
			}
		],
		 "valence_orbital": [ 
			{
				"type": "occ",
				"energy": -0.30815,
				"method": "rhf"
			},
			{
				"type": "occ",
				"energy": -0.30753,
				"method": "rhf"
			},
			{
				"type": "occ",
				"energy": -0.25993,
				"method": "rhf"
			},
			{
				"type": "occ",
				"energy": -0.25192,
				"method": "rhf"
			},
			{
				"type": "occ",
				"energy": -0.22037,
				"method": "rhf"
			},
			{
				"type": "unocc",
				"energy": -0.01582,
				"method": "rhf"
			},
			{
				"type": "unocc",
				"energy": 0.00204,
				"method": "rhf"
			},
			{
				"type": "unocc",
				"energy": 0.02599,
				"method": "rhf"
			},
			{
				"type": "unocc",
				"energy": 0.03524,
				"method": "rhf"
			},
			{
				"type": "unocc",
				"energy": 0.0643,
				"method": "rhf"
			}
		],
		"cosmo_sigma_profile": { 
			"-0.025": 0.0,
			"-0.024": 0.0,
			"-0.023": 0.0,
			"-0.022": 0.0,
			"-0.021": 0.0,
			"-0.02": 0.0,
			"-0.019": 0.0,
			"-0.018": 0.651847710703,
			"-0.017": 1.26523239235,
			"-0.016": 0.854686506064,
			"-0.015": 1.72875593437,
			"-0.014": 0.609018725037,
			"-0.013": 0.729976606407,
			"-0.012": 0.89608270204,
			"-0.011": 1.04163835128,
			"-0.01": 1.61683615337,
			"-0.009": 0.976855146139,
			"-0.008": 1.18106136854,
			"-0.007": 3.91717334876,
			"-0.006": 6.80535580896,
			"-0.005": 10.3169107743,
			"-0.004": 13.7195587965,
			"-0.003": 12.4197869568,
			"-0.002": 14.6938448642,
			"-0.001": 13.4592439282,
			"0.0": 15.369618523,
			"0.001": 14.1956435907,
			"0.002": 16.9262780632,
			"0.003": 22.1249849802,
			"0.004": 20.9969887172,
			"0.005": 16.3502020996,
			"0.006": 6.37055758382,
			"0.007": 3.20068212378,
			"0.008": 3.42811166191,
			"0.009": 2.46191864969,
			"0.01": 1.00950065452,
			"0.011": 0.115609215334,
			"0.012": 0.0,
			"0.013": 0.0,
			"0.014": 0.0,
			"0.015": 0.0,
			"0.016": 0.0,
			"0.017": 0.0,
			"0.018": 0.0,
			"0.019": 0.0,
			"0.02": 0.0,
			"0.021": 0.0,
			"0.022": 0.0,
			"0.023": 0.0,
			"0.024": 0.0,
			"0.025": 0.0
		}
	}
}
