{
	 "smiles": "CC(=O)CS(=O)(=O)C1=CC=C(C)C=C1", 
	 "Tm": 326.15, 
	 "num_atms": 26, 
	 "gaussian": { 
		 "optdone": 1, 
		 "sigma_profile": "yes", 
		 "theory": "DFT", 
		 "functional": "B3LYP", 
		 "basiset": "6-31G**", 
		 "properties": { 
			 "R2extent": 3933.8268, 
			 "electric_dipole_moment_norm": 3.01273436765, 
			 "electric_quadrupole_moment_norm": 23.1866898798, 
			 "total_energy": -1012.09448023, 
			 "HOMO_LUMO_gap": 0.21315, 
			 "cosmo_polarized_energy": -15.74, 
			 "cosmo_cavitation_energy": 31.16, 
			 "cosmo_dispersion_energy": -22.23, 
			 "cosmo_repulsion_energy": 1.71, 
			 "cosmo_total_nonelectrostatic_energy": 10.65, 
			 "SMD_solvation_energy": 5.47 
		},
		"coords": [
			{
				"x": 0.5428643499,
				"y": 0.1901715519,
				"z": -4.656453676,
				"element": "C" 
			},
			{
				"x": 0.1001959773,
				"y": 0.7614820468,
				"z": -3.3307689928,
				"element": "C" 
			},
			{
				"x": 0.838223729,
				"y": 1.375677208,
				"z": -2.5854681152,
				"element": "O" 
			},
			{
				"x": -1.3540609111,
				"y": 0.5106222227,
				"z": -2.9276175759,
				"element": "C" 
			},
			{
				"x": -1.5699196851,
				"y": -1.0687396845,
				"z": -2.0091320009,
				"element": "S" 
			},
			{
				"x": -0.7695223068,
				"y": -2.0875392901,
				"z": -2.711414523,
				"element": "O" 
			},
			{
				"x": -3.019451785,
				"y": -1.2344508554,
				"z": -1.8251976572,
				"element": "O" 
			},
			{
				"x": -0.8299676644,
				"y": -0.7765061545,
				"z": -0.4034376347,
				"element": "C" 
			},
			{
				"x": 0.5212516111,
				"y": -1.0619309244,
				"z": -0.2023380589,
				"element": "C" 
			},
			{
				"x": 1.0791351535,
				"y": -0.8288811088,
				"z": 1.0524542228,
				"element": "C" 
			},
			{
				"x": 0.3076159676,
				"y": -0.3195178758,
				"z": 2.1070145919,
				"element": "C" 
			},
			{
				"x": 0.915987289,
				"y": -0.0990170336,
				"z": 3.4706824137,
				"element": "C" 
			},
			{
				"x": -1.0491238595,
				"y": -0.0480211897,
				"z": 1.8754610868,
				"element": "C" 
			},
			{
				"x": -1.6257962945,
				"y": -0.2745382595,
				"z": 0.6280899006,
				"element": "C" 
			},
			{
				"x": 0.3550907597,
				"y": -0.8892264685,
				"z": -4.663795748,
				"element": "H" 
			},
			{
				"x": 1.6026760603,
				"y": 0.3941451239,
				"z": -4.8131850144,
				"element": "H" 
			},
			{
				"x": -0.0430937176,
				"y": 0.6283691347,
				"z": -5.4733670336,
				"element": "H" 
			},
			{
				"x": -1.7116550003,
				"y": 1.307291403,
				"z": -2.2731511625,
				"element": "H" 
			},
			{
				"x": -2.022315207,
				"y": 0.3935294692,
				"z": -3.7853286021,
				"element": "H" 
			},
			{
				"x": 1.1171296796,
				"y": -1.4689368457,
				"z": -1.0112584996,
				"element": "H" 
			},
			{
				"x": 2.131107621,
				"y": -1.0463608784,
				"z": 1.2157697388,
				"element": "H" 
			},
			{
				"x": 0.8237507991,
				"y": -1.0003923962,
				"z": 4.0892777236,
				"element": "H" 
			},
			{
				"x": 0.4173030176,
				"y": 0.7148136601,
				"z": 4.0047619125,
				"element": "H" 
			},
			{
				"x": 1.9808589884,
				"y": 0.1399709108,
				"z": 3.3997516507,
				"element": "H" 
			},
			{
				"x": -1.6624915578,
				"y": 0.3408810548,
				"z": 2.6838464586,
				"element": "H" 
			},
			{
				"x": -2.6796930141,
				"y": -0.0841948209,
				"z": 0.4553045945,
				"element": "H" 
			}
		],
		 "valence_orbital": [ 
			{
				"type": "occ",
				"energy": -0.30401,
				"method": "rhf"
			},
			{
				"type": "occ",
				"energy": -0.29342,
				"method": "rhf"
			},
			{
				"type": "occ",
				"energy": -0.26984,
				"method": "rhf"
			},
			{
				"type": "occ",
				"energy": -0.26562,
				"method": "rhf"
			},
			{
				"type": "occ",
				"energy": -0.25929,
				"method": "rhf"
			},
			{
				"type": "unocc",
				"energy": -0.04614,
				"method": "rhf"
			},
			{
				"type": "unocc",
				"energy": -0.03415,
				"method": "rhf"
			},
			{
				"type": "unocc",
				"energy": -0.02096,
				"method": "rhf"
			},
			{
				"type": "unocc",
				"energy": 0.06086,
				"method": "rhf"
			},
			{
				"type": "unocc",
				"energy": 0.07596,
				"method": "rhf"
			}
		],
		"cosmo_sigma_profile": { 
			"-0.025": 0.0,
			"-0.024": 0.0,
			"-0.023": 0.0,
			"-0.022": 0.0,
			"-0.021": 0.0,
			"-0.02": 0.0,
			"-0.019": 0.0,
			"-0.018": 0.0,
			"-0.017": 0.0,
			"-0.016": 0.0,
			"-0.015": 0.0,
			"-0.014": 0.0,
			"-0.013": 0.0,
			"-0.012": 0.0,
			"-0.011": 0.0,
			"-0.01": 1.12067782888,
			"-0.009": 5.45223054369,
			"-0.008": 5.37539410339,
			"-0.007": 9.78975531777,
			"-0.006": 14.9340460973,
			"-0.005": 20.0503442807,
			"-0.004": 20.3347188449,
			"-0.003": 18.3683942861,
			"-0.002": 20.6648770878,
			"-0.001": 21.7566389815,
			"0.0": 14.4649895523,
			"0.001": 10.8202269619,
			"0.002": 12.8019457696,
			"0.003": 14.9960044625,
			"0.004": 5.79749245342,
			"0.005": 5.24420264808,
			"0.006": 4.04471911714,
			"0.007": 4.40571823559,
			"0.008": 5.21552247634,
			"0.009": 6.01691725403,
			"0.01": 7.97821685432,
			"0.011": 11.9865579418,
			"0.012": 5.55324673708,
			"0.013": 0.100755003011,
			"0.014": 0.0,
			"0.015": 0.0,
			"0.016": 0.0,
			"0.017": 0.0,
			"0.018": 0.0,
			"0.019": 0.0,
			"0.02": 0.0,
			"0.021": 0.0,
			"0.022": 0.0,
			"0.023": 0.0,
			"0.024": 0.0,
			"0.025": 0.0
		}
	}
}
