{
	 "smiles": "NC1=CC=C(C=C1)C1CCCCC1", 
	 "Tm": 326.95, 
	 "num_atms": 30, 
	 "gaussian": { 
		 "optdone": 1, 
		 "sigma_profile": "yes", 
		 "theory": "DFT", 
		 "functional": "B3LYP", 
		 "basiset": "6-31G**", 
		 "properties": { 
			 "R2extent": 3496.7658, 
			 "electric_dipole_moment_norm": 1.54952845085, 
			 "electric_quadrupole_moment_norm": 12.01404632, 
			 "total_energy": -522.300940612, 
			 "HOMO_LUMO_gap": 0.2011, 
			 "cosmo_polarized_energy": -7.63, 
			 "cosmo_cavitation_energy": 30.53, 
			 "cosmo_dispersion_energy": -22.43, 
			 "cosmo_repulsion_energy": 1.79, 
			 "cosmo_total_nonelectrostatic_energy": 9.9, 
			 "SMD_solvation_energy": 4.13 
		},
		"coords": [
			{
				"x": 2.7443353582,
				"y": -3.9306645972,
				"z": 0.3968452607,
				"element": "N" 
			},
			{
				"x": 1.8027022648,
				"y": -2.9123446789,
				"z": 0.2073160757,
				"element": "C" 
			},
			{
				"x": 1.9466063323,
				"y": -1.9783041963,
				"z": -0.8301799269,
				"element": "C" 
			},
			{
				"x": 1.035675358,
				"y": -0.9336498808,
				"z": -0.973619024,
				"element": "C" 
			},
			{
				"x": -0.0490687987,
				"y": -0.7713635645,
				"z": -0.1026465109,
				"element": "C" 
			},
			{
				"x": -0.183043106,
				"y": -1.711430497,
				"z": 0.9305778217,
				"element": "C" 
			},
			{
				"x": 0.7181831407,
				"y": -2.7604281703,
				"z": 1.0878033946,
				"element": "C" 
			},
			{
				"x": -1.030555371,
				"y": 0.3750369141,
				"z": -0.278521054,
				"element": "C" 
			},
			{
				"x": -2.4675554321,
				"y": -0.1118773812,
				"z": -0.5772346082,
				"element": "C" 
			},
			{
				"x": -3.4425402974,
				"y": 1.0584479538,
				"z": -0.7793492129,
				"element": "C" 
			},
			{
				"x": -3.4327675818,
				"y": 2.0167715657,
				"z": 0.4208176767,
				"element": "C" 
			},
			{
				"x": -2.0111152353,
				"y": 2.5120471956,
				"z": 0.7250965711,
				"element": "C" 
			},
			{
				"x": -1.0355323053,
				"y": 1.3424585945,
				"z": 0.9278777831,
				"element": "C" 
			},
			{
				"x": 3.2513490493,
				"y": -4.197007483,
				"z": -0.4364809016,
				"element": "H" 
			},
			{
				"x": 2.3958092654,
				"y": -4.74131349,
				"z": 0.8906159014,
				"element": "H" 
			},
			{
				"x": 2.7796005924,
				"y": -2.0705381701,
				"z": -1.5235346253,
				"element": "H" 
			},
			{
				"x": 1.1725439008,
				"y": -0.2262272029,
				"z": -1.7886958452,
				"element": "H" 
			},
			{
				"x": -1.0101106112,
				"y": -1.6290178686,
				"z": 1.6313633524,
				"element": "H" 
			},
			{
				"x": 0.5875023833,
				"y": -3.4692739156,
				"z": 1.902498339,
				"element": "H" 
			},
			{
				"x": -0.6990612069,
				"y": 0.9541703494,
				"z": -1.1535682857,
				"element": "H" 
			},
			{
				"x": -2.8174277549,
				"y": -0.7339565298,
				"z": 0.2585726714,
				"element": "H" 
			},
			{
				"x": -2.4585008232,
				"y": -0.7603465353,
				"z": -1.4613711914,
				"element": "H" 
			},
			{
				"x": -3.1580154927,
				"y": 1.6128022685,
				"z": -1.6853932155,
				"element": "H" 
			},
			{
				"x": -4.4559667867,
				"y": 0.6773379869,
				"z": -0.9553189808,
				"element": "H" 
			},
			{
				"x": -3.8294680153,
				"y": 1.4940837872,
				"z": 1.3032103463,
				"element": "H" 
			},
			{
				"x": -4.1013331309,
				"y": 2.8663777089,
				"z": 0.2358839223,
				"element": "H" 
			},
			{
				"x": -2.0134972004,
				"y": 3.1576257306,
				"z": 1.6118881914,
				"element": "H" 
			},
			{
				"x": -1.6598282293,
				"y": 3.1344097106,
				"z": -0.1106305188,
				"element": "H" 
			},
			{
				"x": -0.0195911119,
				"y": 1.7161257317,
				"z": 1.1019617508,
				"element": "H" 
			},
			{
				"x": -1.3194291544,
				"y": 0.786948664,
				"z": 1.8327148425,
				"element": "H" 
			}
		],
		 "valence_orbital": [ 
			{
				"type": "occ",
				"energy": -0.30299,
				"method": "rhf"
			},
			{
				"type": "occ",
				"energy": -0.2898,
				"method": "rhf"
			},
			{
				"type": "occ",
				"energy": -0.28273,
				"method": "rhf"
			},
			{
				"type": "occ",
				"energy": -0.23873,
				"method": "rhf"
			},
			{
				"type": "occ",
				"energy": -0.19204,
				"method": "rhf"
			},
			{
				"type": "unocc",
				"energy": 0.00906,
				"method": "rhf"
			},
			{
				"type": "unocc",
				"energy": 0.02521,
				"method": "rhf"
			},
			{
				"type": "unocc",
				"energy": 0.0854,
				"method": "rhf"
			},
			{
				"type": "unocc",
				"energy": 0.09403,
				"method": "rhf"
			},
			{
				"type": "unocc",
				"energy": 0.10306,
				"method": "rhf"
			}
		],
		"cosmo_sigma_profile": { 
			"-0.025": 0.0,
			"-0.024": 0.0,
			"-0.023": 0.0,
			"-0.022": 0.0,
			"-0.021": 0.0,
			"-0.02": 0.0,
			"-0.019": 0.0,
			"-0.018": 0.0,
			"-0.017": 0.0,
			"-0.016": 0.0,
			"-0.015": 0.0,
			"-0.014": 0.0,
			"-0.013": 0.0,
			"-0.012": 1.98195480668,
			"-0.011": 2.18522303698,
			"-0.01": 2.46866212178,
			"-0.009": 3.45271476503,
			"-0.008": 3.16604311464,
			"-0.007": 2.55841789846,
			"-0.006": 3.40147807351,
			"-0.005": 5.50489171681,
			"-0.004": 9.31511358486,
			"-0.003": 12.8874648587,
			"-0.002": 26.4075526294,
			"-0.001": 34.3443374453,
			"0.0": 35.1451461064,
			"0.001": 30.6273418926,
			"0.002": 15.0013973555,
			"0.003": 7.44044338535,
			"0.004": 7.72106741531,
			"0.005": 6.51948312008,
			"0.006": 8.27518104068,
			"0.007": 9.02113714814,
			"0.008": 4.38292915136,
			"0.009": 1.01296349801,
			"0.01": 0.80872949984,
			"0.011": 0.913647586463,
			"0.012": 0.746060586061,
			"0.013": 0.326871709242,
			"0.014": 0.714359532403,
			"0.015": 0.712048152116,
			"0.016": 0.0405917863042,
			"0.017": 0.0,
			"0.018": 0.0,
			"0.019": 0.0,
			"0.02": 0.0,
			"0.021": 0.0,
			"0.022": 0.0,
			"0.023": 0.0,
			"0.024": 0.0,
			"0.025": 0.0
		}
	}
}
