{
	 "smiles": "O=C(NC1=CC=CC=C1)C1CCC2=C(N1)C=CC=C2", 
	 "Tm": 398.15, 
	 "num_atms": 35, 
	 "gaussian": { 
		 "optdone": 1, 
		 "sigma_profile": "yes", 
		 "theory": "DFT", 
		 "functional": "B3LYP", 
		 "basiset": "6-31G**", 
		 "properties": { 
			 "R2extent": 6266.5103, 
			 "electric_dipole_moment_norm": 2.83538060408, 
			 "electric_quadrupole_moment_norm": 11.4204344388, 
			 "total_energy": -804.106727825, 
			 "HOMO_LUMO_gap": 0.19338, 
			 "cosmo_polarized_energy": -14.07, 
			 "cosmo_cavitation_energy": 37.4, 
			 "cosmo_dispersion_energy": -26.92, 
			 "cosmo_repulsion_energy": 2.06, 
			 "cosmo_total_nonelectrostatic_energy": 12.54, 
			 "SMD_solvation_energy": 5.95 
		},
		"coords": [
			{
				"x": 0.9363268743,
				"y": -3.0097765098,
				"z": 0.4109447275,
				"element": "O" 
			},
			{
				"x": 0.7894961734,
				"y": -1.8552362283,
				"z": 0.7973370979,
				"element": "C" 
			},
			{
				"x": -0.4011660207,
				"y": -1.2339908419,
				"z": 1.0353822457,
				"element": "N" 
			},
			{
				"x": -1.7109538861,
				"y": -1.7388977274,
				"z": 0.9133308287,
				"element": "C" 
			},
			{
				"x": -2.7696433379,
				"y": -0.8670527266,
				"z": 1.2149072787,
				"element": "C" 
			},
			{
				"x": -4.0887124587,
				"y": -1.3013527571,
				"z": 1.1180316038,
				"element": "C" 
			},
			{
				"x": -4.3717877433,
				"y": -2.6094237985,
				"z": 0.7193610252,
				"element": "C" 
			},
			{
				"x": -3.3173903856,
				"y": -3.4732160153,
				"z": 0.419433878,
				"element": "C" 
			},
			{
				"x": -1.9897237548,
				"y": -3.0546135369,
				"z": 0.5111544747,
				"element": "C" 
			},
			{
				"x": 2.0374466921,
				"y": -0.9731065559,
				"z": 1.0690898719,
				"element": "C" 
			},
			{
				"x": 2.9116012575,
				"y": -0.9177787104,
				"z": -0.1955463091,
				"element": "C" 
			},
			{
				"x": 2.334507365,
				"y": 0.0863527925,
				"z": -1.202196174,
				"element": "C" 
			},
			{
				"x": 2.2181646664,
				"y": 1.4507720908,
				"z": -0.5624838822,
				"element": "C" 
			},
			{
				"x": 1.9492642919,
				"y": 1.5301197589,
				"z": 0.8183861378,
				"element": "C" 
			},
			{
				"x": 1.7026709879,
				"y": 0.3655919671,
				"z": 1.5715877806,
				"element": "N" 
			},
			{
				"x": 1.8824889508,
				"y": 2.785052157,
				"z": 1.4445867911,
				"element": "C" 
			},
			{
				"x": 2.0686420272,
				"y": 3.9518323844,
				"z": 0.7087058336,
				"element": "C" 
			},
			{
				"x": 2.3284990468,
				"y": 3.8850054255,
				"z": -0.6620049618,
				"element": "C" 
			},
			{
				"x": 2.4070597996,
				"y": 2.6362383731,
				"z": -1.2781238103,
				"element": "C" 
			},
			{
				"x": -0.2945852398,
				"y": -0.2746492599,
				"z": 1.3498974932,
				"element": "H" 
			},
			{
				"x": -2.5538485653,
				"y": 0.1534294207,
				"z": 1.523321147,
				"element": "H" 
			},
			{
				"x": -4.8957482944,
				"y": -0.613737515,
				"z": 1.354488861,
				"element": "H" 
			},
			{
				"x": -5.4001570619,
				"y": -2.9493105491,
				"z": 0.6431632017,
				"element": "H" 
			},
			{
				"x": -3.5250231114,
				"y": -4.4930691651,
				"z": 0.1075219458,
				"element": "H" 
			},
			{
				"x": -1.1708065286,
				"y": -3.7209188625,
				"z": 0.2785187183,
				"element": "H" 
			},
			{
				"x": 2.5895964509,
				"y": -1.512391602,
				"z": 1.8477934453,
				"element": "H" 
			},
			{
				"x": 3.9262985857,
				"y": -0.6131002419,
				"z": 0.0839272408,
				"element": "H" 
			},
			{
				"x": 2.9605174273,
				"y": -1.9254347879,
				"z": -0.6135137574,
				"element": "H" 
			},
			{
				"x": 2.968556632,
				"y": 0.1413004611,
				"z": -2.0933496025,
				"element": "H" 
			},
			{
				"x": 1.3513660776,
				"y": -0.2678558411,
				"z": -1.5445149681,
				"element": "H" 
			},
			{
				"x": 1.8672983413,
				"y": 0.488096371,
				"z": 2.5614214435,
				"element": "H" 
			},
			{
				"x": 1.678823389,
				"y": 2.8390912332,
				"z": 2.5120947897,
				"element": "H" 
			},
			{
				"x": 2.0131336317,
				"y": 4.9140686785,
				"z": 1.2098510122,
				"element": "H" 
			},
			{
				"x": 2.4770073076,
				"y": 4.7916591406,
				"z": -1.2400951597,
				"element": "H" 
			},
			{
				"x": 2.6274804124,
				"y": 2.5708029782,
				"z": -2.3413102487,
				"element": "H" 
			}
		],
		 "valence_orbital": [ 
			{
				"type": "occ",
				"energy": -0.25148,
				"method": "rhf"
			},
			{
				"type": "occ",
				"energy": -0.24696,
				"method": "rhf"
			},
			{
				"type": "occ",
				"energy": -0.24252,
				"method": "rhf"
			},
			{
				"type": "occ",
				"energy": -0.21658,
				"method": "rhf"
			},
			{
				"type": "occ",
				"energy": -0.20436,
				"method": "rhf"
			},
			{
				"type": "unocc",
				"energy": -0.01098,
				"method": "rhf"
			},
			{
				"type": "unocc",
				"energy": -0.00104,
				"method": "rhf"
			},
			{
				"type": "unocc",
				"energy": 0.0028,
				"method": "rhf"
			},
			{
				"type": "unocc",
				"energy": 0.01334,
				"method": "rhf"
			},
			{
				"type": "unocc",
				"energy": 0.04725,
				"method": "rhf"
			}
		],
		"cosmo_sigma_profile": { 
			"-0.025": 0.0,
			"-0.024": 0.0,
			"-0.023": 0.0,
			"-0.022": 0.0,
			"-0.021": 0.0,
			"-0.02": 0.0,
			"-0.019": 0.0,
			"-0.018": 0.0,
			"-0.017": 0.0,
			"-0.016": 0.0,
			"-0.015": 0.0,
			"-0.014": 0.0374394386079,
			"-0.013": 1.23204387115,
			"-0.012": 1.49839992222,
			"-0.011": 2.44549796204,
			"-0.01": 2.59513649323,
			"-0.009": 2.96561994151,
			"-0.008": 3.72319673447,
			"-0.007": 5.13717278627,
			"-0.006": 8.82659981434,
			"-0.005": 16.9606326445,
			"-0.004": 25.822664214,
			"-0.003": 29.3639306352,
			"-0.002": 26.6432262192,
			"-0.001": 25.4344711154,
			"0.0": 18.8602516293,
			"0.001": 15.8208700401,
			"0.002": 15.8308756465,
			"0.003": 17.4824643847,
			"0.004": 18.0211457454,
			"0.005": 18.3209043134,
			"0.006": 16.4562655612,
			"0.007": 8.94577250802,
			"0.008": 3.62790999332,
			"0.009": 1.28837223135,
			"0.01": 1.43339981289,
			"0.011": 1.75972687081,
			"0.012": 2.42821741598,
			"0.013": 2.91576495179,
			"0.014": 1.35359445241,
			"0.015": 0.0241220717745,
			"0.016": 0.0,
			"0.017": 0.0,
			"0.018": 0.0,
			"0.019": 0.0,
			"0.02": 0.0,
			"0.021": 0.0,
			"0.022": 0.0,
			"0.023": 0.0,
			"0.024": 0.0,
			"0.025": 0.0
		}
	}
}
