{
	 "smiles": "[O-][N+](=O)C1=CC(Cl)=C(OC2=CC=C(Cl)C=C2Cl)C=C1", 
	 "Tm": 344.15, 
	 "num_atms": 25, 
	 "gaussian": { 
		 "optdone": 1, 
		 "sigma_profile": "yes", 
		 "theory": "DFT", 
		 "functional": "B3LYP", 
		 "basiset": "6-31G**", 
		 "properties": { 
			 "R2extent": 9388.0223, 
			 "electric_dipole_moment_norm": 1.97016962975, 
			 "electric_quadrupole_moment_norm": 19.26595101, 
			 "total_energy": -2121.7730555, 
			 "HOMO_LUMO_gap": 0.14103, 
			 "cosmo_polarized_energy": -11.02, 
			 "cosmo_cavitation_energy": 36.98, 
			 "cosmo_dispersion_energy": -26.21, 
			 "cosmo_repulsion_energy": 2.03, 
			 "cosmo_total_nonelectrostatic_energy": 12.81, 
			 "SMD_solvation_energy": 7.95 
		},
		"coords": [
			{
				"x": 2.2379454647,
				"y": -2.4800090816,
				"z": 4.1468393882,
				"element": "O" 
			},
			{
				"x": 2.6293844427,
				"y": -1.6545459612,
				"z": 3.3240591347,
				"element": "N" 
			},
			{
				"x": 3.7364340431,
				"y": -1.1199393598,
				"z": 3.3306132132,
				"element": "O" 
			},
			{
				"x": 1.6982061031,
				"y": -1.2796073781,
				"z": 2.2458256111,
				"element": "C" 
			},
			{
				"x": 2.1161052772,
				"y": -0.3431556263,
				"z": 1.3037282324,
				"element": "C" 
			},
			{
				"x": 1.2390212329,
				"y": 0.0130003876,
				"z": 0.283537421,
				"element": "C" 
			},
			{
				"x": 1.7229749795,
				"y": 1.2003063191,
				"z": -0.8952705954,
				"element": "Cl" 
			},
			{
				"x": -0.0388184396,
				"y": -0.5713105967,
				"z": 0.2167967688,
				"element": "C" 
			},
			{
				"x": -0.9544523348,
				"y": -0.1718236508,
				"z": -0.7231559903,
				"element": "O" 
			},
			{
				"x": -0.912102587,
				"y": -0.6828734329,
				"z": -2.0014887966,
				"element": "C" 
			},
			{
				"x": -0.0790990567,
				"y": -1.7317408361,
				"z": -2.3919967146,
				"element": "C" 
			},
			{
				"x": -0.1102967507,
				"y": -2.2093901142,
				"z": -3.701742402,
				"element": "C" 
			},
			{
				"x": -0.9852248263,
				"y": -1.6339752288,
				"z": -4.6195305985,
				"element": "C" 
			},
			{
				"x": -1.0343481056,
				"y": -2.2277618877,
				"z": -6.2694055889,
				"element": "Cl" 
			},
			{
				"x": -1.828887741,
				"y": -0.5880339032,
				"z": -4.2465655188,
				"element": "C" 
			},
			{
				"x": -1.7894863022,
				"y": -0.1146777808,
				"z": -2.9374908206,
				"element": "C" 
			},
			{
				"x": -2.8432104007,
				"y": 1.1930430748,
				"z": -2.4624056971,
				"element": "Cl" 
			},
			{
				"x": -0.4306141993,
				"y": -1.5039081019,
				"z": 1.181213058,
				"element": "C" 
			},
			{
				"x": 0.4358075142,
				"y": -1.8665876993,
				"z": 2.2068469959,
				"element": "C" 
			},
			{
				"x": 3.1022282002,
				"y": 0.0963914164,
				"z": 1.377021567,
				"element": "H" 
			},
			{
				"x": 0.5969043842,
				"y": -2.1789142348,
				"z": -1.6720523586,
				"element": "H" 
			},
			{
				"x": 0.5401762486,
				"y": -3.0226714894,
				"z": -4.0018831255,
				"element": "H" 
			},
			{
				"x": -2.5096265101,
				"y": -0.141578882,
				"z": -4.9609002782,
				"element": "H" 
			},
			{
				"x": -1.4271092924,
				"y": -1.9262573391,
				"z": 1.1127735741,
				"element": "H" 
			},
			{
				"x": 0.1547886562,
				"y": -2.5852786131,
				"z": 2.9657335208,
				"element": "H" 
			}
		],
		 "valence_orbital": [ 
			{
				"type": "occ",
				"energy": -0.30607,
				"method": "rhf"
			},
			{
				"type": "occ",
				"energy": -0.29764,
				"method": "rhf"
			},
			{
				"type": "occ",
				"energy": -0.28165,
				"method": "rhf"
			},
			{
				"type": "occ",
				"energy": -0.27385,
				"method": "rhf"
			},
			{
				"type": "occ",
				"energy": -0.24646,
				"method": "rhf"
			},
			{
				"type": "unocc",
				"energy": -0.10543,
				"method": "rhf"
			},
			{
				"type": "unocc",
				"energy": -0.05393,
				"method": "rhf"
			},
			{
				"type": "unocc",
				"energy": -0.0364,
				"method": "rhf"
			},
			{
				"type": "unocc",
				"energy": -0.02582,
				"method": "rhf"
			},
			{
				"type": "unocc",
				"energy": -0.01983,
				"method": "rhf"
			}
		],
		"cosmo_sigma_profile": { 
			"-0.025": 0.0,
			"-0.024": 0.0,
			"-0.023": 0.0,
			"-0.022": 0.0,
			"-0.021": 0.0,
			"-0.02": 0.0,
			"-0.019": 0.0,
			"-0.018": 0.0,
			"-0.017": 0.0,
			"-0.016": 0.0,
			"-0.015": 0.0,
			"-0.014": 0.0,
			"-0.013": 0.0,
			"-0.012": 0.0,
			"-0.011": 0.0,
			"-0.01": 0.0545992484973,
			"-0.009": 3.59634192883,
			"-0.008": 10.3187334843,
			"-0.007": 12.0038001494,
			"-0.006": 10.8681360104,
			"-0.005": 11.3878808765,
			"-0.004": 15.1812524386,
			"-0.003": 16.4340226971,
			"-0.002": 27.1213026818,
			"-0.001": 26.5183536117,
			"0.0": 26.8650219114,
			"0.001": 31.2223898188,
			"0.002": 27.4076592099,
			"0.003": 25.2310129288,
			"0.004": 23.6751417128,
			"0.005": 9.29842054652,
			"0.006": 6.3138074152,
			"0.007": 11.2356890098,
			"0.008": 6.08250744751,
			"0.009": 3.58547794615,
			"0.01": 1.16403678407,
			"0.011": 0.0,
			"0.012": 0.0,
			"0.013": 0.0,
			"0.014": 0.0,
			"0.015": 0.0,
			"0.016": 0.0,
			"0.017": 0.0,
			"0.018": 0.0,
			"0.019": 0.0,
			"0.02": 0.0,
			"0.021": 0.0,
			"0.022": 0.0,
			"0.023": 0.0,
			"0.024": 0.0,
			"0.025": 0.0
		}
	}
}
