{
	 "smiles": "CCOC1=CC2=C(CCNC2CC(C)C)C=C1OC", 
	 "Tm": 424.15, 
	 "num_atms": 44, 
	 "gaussian": { 
		 "optdone": 1, 
		 "sigma_profile": "yes", 
		 "theory": "DFT", 
		 "functional": "B3LYP", 
		 "basiset": "6-31G**", 
		 "properties": { 
			 "R2extent": 7014.8689, 
			 "electric_dipole_moment_norm": 1.0733542705, 
			 "electric_quadrupole_moment_norm": 6.10618924289, 
			 "total_energy": -829.957910141, 
			 "HOMO_LUMO_gap": 0.21363, 
			 "cosmo_polarized_energy": -7.92, 
			 "cosmo_cavitation_energy": 43.22, 
			 "cosmo_dispersion_energy": -29.82, 
			 "cosmo_repulsion_energy": 2.34, 
			 "cosmo_total_nonelectrostatic_energy": 15.74, 
			 "SMD_solvation_energy": 6.79 
		},
		"coords": [
			{
				"x": -2.5839039808,
				"y": 4.6044119894,
				"z": -1.7239749561,
				"element": "C" 
			},
			{
				"x": -2.2589364832,
				"y": 3.1237526133,
				"z": -1.6453907332,
				"element": "C" 
			},
			{
				"x": -2.0927714201,
				"y": 2.7838000292,
				"z": -0.255232503,
				"element": "O" 
			},
			{
				"x": -1.771123832,
				"y": 1.465033533,
				"z": -0.0136954111,
				"element": "C" 
			},
			{
				"x": -0.4964890099,
				"y": 1.1479473174,
				"z": 0.445929777,
				"element": "C" 
			},
			{
				"x": -0.1211012806,
				"y": -0.1706611431,
				"z": 0.7402893752,
				"element": "C" 
			},
			{
				"x": -1.0606639349,
				"y": -1.1996637913,
				"z": 0.5612641952,
				"element": "C" 
			},
			{
				"x": -0.7200693206,
				"y": -2.6381459019,
				"z": 0.9048215889,
				"element": "C" 
			},
			{
				"x": 0.7926563128,
				"y": -2.8532978645,
				"z": 1.0446248953,
				"element": "C" 
			},
			{
				"x": 1.4474192615,
				"y": -1.8035513812,
				"z": 1.8305341217,
				"element": "N" 
			},
			{
				"x": 1.3006872611,
				"y": -0.4656467515,
				"z": 1.2310867723,
				"element": "C" 
			},
			{
				"x": 2.3288449753,
				"y": -0.2244416042,
				"z": 0.09623834,
				"element": "C" 
			},
			{
				"x": 3.8347296652,
				"y": -0.2863424167,
				"z": 0.4559265075,
				"element": "C" 
			},
			{
				"x": 4.1834615173,
				"y": 0.5440131204,
				"z": 1.7007246676,
				"element": "C" 
			},
			{
				"x": 4.3837104624,
				"y": -1.7170481101,
				"z": 0.5764915548,
				"element": "C" 
			},
			{
				"x": -2.3465932676,
				"y": -0.8769612996,
				"z": 0.1056023677,
				"element": "C" 
			},
			{
				"x": -2.7154966253,
				"y": 0.4337186196,
				"z": -0.1800066825,
				"element": "C" 
			},
			{
				"x": -3.9850538937,
				"y": 0.6868148147,
				"z": -0.6562745177,
				"element": "O" 
			},
			{
				"x": -4.8336691607,
				"y": 1.3927371878,
				"z": 0.2549151141,
				"element": "C" 
			},
			{
				"x": -2.6995306794,
				"y": 4.909719486,
				"z": -2.7687968722,
				"element": "H" 
			},
			{
				"x": -1.7843773933,
				"y": 5.2004191131,
				"z": -1.2743531625,
				"element": "H" 
			},
			{
				"x": -3.5155558715,
				"y": 4.8265540821,
				"z": -1.1951321569,
				"element": "H" 
			},
			{
				"x": -3.0596513653,
				"y": 2.5154257654,
				"z": -2.0812890007,
				"element": "H" 
			},
			{
				"x": -1.3269639235,
				"y": 2.8979332778,
				"z": -2.1825075441,
				"element": "H" 
			},
			{
				"x": 0.2070209083,
				"y": 1.9661838424,
				"z": 0.5778333593,
				"element": "H" 
			},
			{
				"x": -1.1373489065,
				"y": -3.3162645213,
				"z": 0.1494241194,
				"element": "H" 
			},
			{
				"x": -1.2100518246,
				"y": -2.9069963126,
				"z": 1.8530683727,
				"element": "H" 
			},
			{
				"x": 1.0012238111,
				"y": -3.8223200114,
				"z": 1.5111574715,
				"element": "H" 
			},
			{
				"x": 1.2601406874,
				"y": -2.8766185563,
				"z": 0.053911458,
				"element": "H" 
			},
			{
				"x": 1.0318546586,
				"y": -1.7897383299,
				"z": 2.7598044905,
				"element": "H" 
			},
			{
				"x": 1.5269175543,
				"y": 0.2508543631,
				"z": 2.0298534334,
				"element": "H" 
			},
			{
				"x": 2.1268830847,
				"y": -0.9216945183,
				"z": -0.7271211933,
				"element": "H" 
			},
			{
				"x": 2.1171489394,
				"y": 0.7721006028,
				"z": -0.3103242375,
				"element": "H" 
			},
			{
				"x": 4.3498648471,
				"y": 0.181813746,
				"z": -0.3963347917,
				"element": "H" 
			},
			{
				"x": 3.778027695,
				"y": 0.0876965404,
				"z": 2.6102192563,
				"element": "H" 
			},
			{
				"x": 3.7929935107,
				"y": 1.5663216086,
				"z": 1.6303494487,
				"element": "H" 
			},
			{
				"x": 5.2694119785,
				"y": 0.6129649376,
				"z": 1.8271117489,
				"element": "H" 
			},
			{
				"x": 4.1850495479,
				"y": -2.2930059185,
				"z": -0.3350416418,
				"element": "H" 
			},
			{
				"x": 3.9197832471,
				"y": -2.2414296454,
				"z": 1.4148044744,
				"element": "H" 
			},
			{
				"x": 5.4697039971,
				"y": -1.702136934,
				"z": 0.7266864118,
				"element": "H" 
			},
			{
				"x": -3.0916041695,
				"y": -1.6558984454,
				"z": -0.035371838,
				"element": "H" 
			},
			{
				"x": -4.9945747979,
				"y": 0.8075198275,
				"z": 1.169589024,
				"element": "H" 
			},
			{
				"x": -4.4128271873,
				"y": 2.3683447009,
				"z": 0.517757059,
				"element": "H" 
			},
			{
				"x": -5.788875595,
				"y": 1.5284823387,
				"z": -0.2570721628,
				"element": "H" 
			}
		],
		 "valence_orbital": [ 
			{
				"type": "occ",
				"energy": -0.28564,
				"method": "rhf"
			},
			{
				"type": "occ",
				"energy": -0.25663,
				"method": "rhf"
			},
			{
				"type": "occ",
				"energy": -0.23347,
				"method": "rhf"
			},
			{
				"type": "occ",
				"energy": -0.22085,
				"method": "rhf"
			},
			{
				"type": "occ",
				"energy": -0.21249,
				"method": "rhf"
			},
			{
				"type": "unocc",
				"energy": 0.00114,
				"method": "rhf"
			},
			{
				"type": "unocc",
				"energy": 0.01016,
				"method": "rhf"
			},
			{
				"type": "unocc",
				"energy": 0.0766,
				"method": "rhf"
			},
			{
				"type": "unocc",
				"energy": 0.09155,
				"method": "rhf"
			},
			{
				"type": "unocc",
				"energy": 0.09708,
				"method": "rhf"
			}
		],
		"cosmo_sigma_profile": { 
			"-0.025": 0.0,
			"-0.024": 0.0,
			"-0.023": 0.0,
			"-0.022": 0.0,
			"-0.021": 0.0,
			"-0.02": 0.0,
			"-0.019": 0.0,
			"-0.018": 0.0,
			"-0.017": 0.0,
			"-0.016": 0.0,
			"-0.015": 0.0,
			"-0.014": 0.0,
			"-0.013": 0.0,
			"-0.012": 0.0,
			"-0.011": 0.0,
			"-0.01": 0.385986956735,
			"-0.009": 1.43663416512,
			"-0.008": 1.51141172789,
			"-0.007": 1.02903653288,
			"-0.006": 2.80402174468,
			"-0.005": 7.76902470462,
			"-0.004": 20.2641002769,
			"-0.003": 38.755693553,
			"-0.002": 48.8857758427,
			"-0.001": 48.3490506828,
			"0.0": 42.8511777526,
			"0.001": 32.5409475978,
			"0.002": 25.0336032236,
			"0.003": 15.7921888375,
			"0.004": 12.6421637401,
			"0.005": 11.815215885,
			"0.006": 6.62544974598,
			"0.007": 2.4722334471,
			"0.008": 4.53355093997,
			"0.009": 2.81492107403,
			"0.01": 2.81809291798,
			"0.011": 1.83755990641,
			"0.012": 2.35614049054,
			"0.013": 0.200261155189,
			"0.014": 0.0,
			"0.015": 0.0,
			"0.016": 0.0,
			"0.017": 0.0,
			"0.018": 0.0,
			"0.019": 0.0,
			"0.02": 0.0,
			"0.021": 0.0,
			"0.022": 0.0,
			"0.023": 0.0,
			"0.024": 0.0,
			"0.025": 0.0
		}
	}
}
