{
	 "smiles": "NC1=CC=C(NC(=O)NC2CC2)C=C1", 
	 "Tm": 435.15, 
	 "num_atms": 27, 
	 "gaussian": { 
		 "optdone": 1, 
		 "sigma_profile": "yes", 
		 "theory": "DFT", 
		 "functional": "B3LYP", 
		 "basiset": "6-31G**", 
		 "properties": { 
			 "R2extent": 4764.3288, 
			 "electric_dipole_moment_norm": 3.61944827978, 
			 "electric_quadrupole_moment_norm": 19.8972561706, 
			 "total_energy": -628.370435317, 
			 "HOMO_LUMO_gap": 0.18745, 
			 "cosmo_polarized_energy": -20.29, 
			 "cosmo_cavitation_energy": 30.95, 
			 "cosmo_dispersion_energy": -22.8, 
			 "cosmo_repulsion_energy": 1.81, 
			 "cosmo_total_nonelectrostatic_energy": 9.96, 
			 "SMD_solvation_energy": 4.85 
		},
		"coords": [
			{
				"x": 5.020564051,
				"y": 1.8942655582,
				"z": 0.4287976095,
				"element": "N" 
			},
			{
				"x": 3.6967351312,
				"y": 1.4291540589,
				"z": 0.4030943092,
				"element": "C" 
			},
			{
				"x": 2.638241448,
				"y": 2.2793061909,
				"z": 0.048797031,
				"element": "C" 
			},
			{
				"x": 1.3228290486,
				"y": 1.8279579399,
				"z": 0.083150055,
				"element": "C" 
			},
			{
				"x": 1.0145523821,
				"y": 0.5175501989,
				"z": 0.4748080479,
				"element": "C" 
			},
			{
				"x": -0.3469517135,
				"y": 0.134511178,
				"z": 0.4715298624,
				"element": "N" 
			},
			{
				"x": -0.8943686199,
				"y": -1.0794902509,
				"z": 0.8493312057,
				"element": "C" 
			},
			{
				"x": -0.258258646,
				"y": -2.032741476,
				"z": 1.2776518395,
				"element": "O" 
			},
			{
				"x": -2.2842450681,
				"y": -1.1028089943,
				"z": 0.7120802521,
				"element": "N" 
			},
			{
				"x": -2.9740678928,
				"y": -2.3462293024,
				"z": 0.9246986406,
				"element": "C" 
			},
			{
				"x": -3.3586646547,
				"y": -2.716339966,
				"z": 2.3303820798,
				"element": "C" 
			},
			{
				"x": -4.4168132367,
				"y": -2.2635191454,
				"z": 1.3542846462,
				"element": "C" 
			},
			{
				"x": 2.0661791671,
				"y": -0.3389553008,
				"z": 0.8326089166,
				"element": "C" 
			},
			{
				"x": 3.3808939798,
				"y": 0.1186745355,
				"z": 0.7927265532,
				"element": "C" 
			},
			{
				"x": 5.2054639564,
				"y": 2.658841779,
				"z": -0.2072670184,
				"element": "H" 
			},
			{
				"x": 5.7164663715,
				"y": 1.1668830731,
				"z": 0.3290228487,
				"element": "H" 
			},
			{
				"x": 2.8453337071,
				"y": 3.3032507772,
				"z": -0.252594766,
				"element": "H" 
			},
			{
				"x": 0.5228240575,
				"y": 2.5080290641,
				"z": -0.2036098954,
				"element": "H" 
			},
			{
				"x": -0.997136634,
				"y": 0.8867015522,
				"z": 0.2964537789,
				"element": "H" 
			},
			{
				"x": -2.6704895645,
				"y": -0.5199197263,
				"z": -0.020187164,
				"element": "H" 
			},
			{
				"x": -2.6904289035,
				"y": -3.1650113678,
				"z": 0.2644236826,
				"element": "H" 
			},
			{
				"x": -3.3127511942,
				"y": -3.7649880355,
				"z": 2.6051271311,
				"element": "H" 
			},
			{
				"x": -3.0672660437,
				"y": -2.025882989,
				"z": 3.1142401108,
				"element": "H" 
			},
			{
				"x": -4.8394694342,
				"y": -1.2733541871,
				"z": 1.4968519832,
				"element": "H" 
			},
			{
				"x": -5.1092289012,
				"y": -2.9962555473,
				"z": 0.9518485671,
				"element": "H" 
			},
			{
				"x": 1.8428555857,
				"y": -1.3503191112,
				"z": 1.1416483028,
				"element": "H" 
			},
			{
				"x": 4.181501621,
				"y": -0.5595105058,
				"z": 1.0791013899,
				"element": "H" 
			}
		],
		 "valence_orbital": [ 
			{
				"type": "occ",
				"energy": -0.26512,
				"method": "rhf"
			},
			{
				"type": "occ",
				"energy": -0.25771,
				"method": "rhf"
			},
			{
				"type": "occ",
				"energy": -0.24368,
				"method": "rhf"
			},
			{
				"type": "occ",
				"energy": -0.24023,
				"method": "rhf"
			},
			{
				"type": "occ",
				"energy": -0.17961,
				"method": "rhf"
			},
			{
				"type": "unocc",
				"energy": 0.00784,
				"method": "rhf"
			},
			{
				"type": "unocc",
				"energy": 0.02019,
				"method": "rhf"
			},
			{
				"type": "unocc",
				"energy": 0.06317,
				"method": "rhf"
			},
			{
				"type": "unocc",
				"energy": 0.07087,
				"method": "rhf"
			},
			{
				"type": "unocc",
				"energy": 0.0879,
				"method": "rhf"
			}
		],
		"cosmo_sigma_profile": { 
			"-0.025": 0.0,
			"-0.024": 0.0,
			"-0.023": 0.0,
			"-0.022": 0.0,
			"-0.021": 0.0,
			"-0.02": 0.0,
			"-0.019": 0.0,
			"-0.018": 0.0,
			"-0.017": 0.0730332936889,
			"-0.016": 0.816323737366,
			"-0.015": 1.96950262965,
			"-0.014": 2.18472374312,
			"-0.013": 1.7748303819,
			"-0.012": 3.17848924507,
			"-0.011": 4.92602664894,
			"-0.01": 4.48546093871,
			"-0.009": 5.18585605822,
			"-0.008": 4.8667572469,
			"-0.007": 4.76008370181,
			"-0.006": 6.95938476373,
			"-0.005": 12.3399751479,
			"-0.004": 17.8559979146,
			"-0.003": 15.2145619507,
			"-0.002": 16.6874515982,
			"-0.001": 15.0994025264,
			"0.0": 13.999167458,
			"0.001": 12.0159997222,
			"0.002": 13.3644224436,
			"0.003": 13.4927434672,
			"0.004": 12.6077272927,
			"0.005": 13.1422243635,
			"0.006": 13.1729473823,
			"0.007": 11.276806118,
			"0.008": 2.9811059777,
			"0.009": 2.52645499172,
			"0.01": 2.52755681891,
			"0.011": 2.69949799948,
			"0.012": 2.78423777523,
			"0.013": 3.9582886698,
			"0.014": 3.84069554614,
			"0.015": 1.48865941071,
			"0.016": 0.239454680874,
			"0.017": 0.0,
			"0.018": 0.0,
			"0.019": 0.0,
			"0.02": 0.0,
			"0.021": 0.0,
			"0.022": 0.0,
			"0.023": 0.0,
			"0.024": 0.0,
			"0.025": 0.0
		}
	}
}
