{
	 "smiles": "CC(O)C1=CC2=C(SC3=C(N2)C=CC=C3)C=C1", 
	 "Tm": 423.15, 
	 "num_atms": 30, 
	 "gaussian": { 
		 "optdone": 1, 
		 "sigma_profile": "yes", 
		 "theory": "DFT", 
		 "functional": "B3LYP", 
		 "basiset": "6-31G**", 
		 "properties": { 
			 "R2extent": 5632.9599, 
			 "electric_dipole_moment_norm": 2.77143511019, 
			 "electric_quadrupole_moment_norm": 7.1363537013, 
			 "total_energy": -1069.49387067, 
			 "HOMO_LUMO_gap": 0.16667, 
			 "cosmo_polarized_energy": -13.52, 
			 "cosmo_cavitation_energy": 34.49, 
			 "cosmo_dispersion_energy": -25.75, 
			 "cosmo_repulsion_energy": 1.92, 
			 "cosmo_total_nonelectrostatic_energy": 10.67, 
			 "SMD_solvation_energy": 4.79 
		},
		"coords": [
			{
				"x": -1.7923752017,
				"y": 3.046566551,
				"z": -3.3028601047,
				"element": "C" 
			},
			{
				"x": -2.3367841828,
				"y": 1.7213466115,
				"z": -2.7667695694,
				"element": "C" 
			},
			{
				"x": -2.9847888361,
				"y": 1.085661187,
				"z": -3.866385095,
				"element": "O" 
			},
			{
				"x": -1.2402783341,
				"y": 0.8519031381,
				"z": -2.1674595903,
				"element": "C" 
			},
			{
				"x": -0.9491774133,
				"y": 0.9267904088,
				"z": -0.8018909685,
				"element": "C" 
			},
			{
				"x": 0.0920303871,
				"y": 0.1805709734,
				"z": -0.2380194784,
				"element": "C" 
			},
			{
				"x": 0.8381089246,
				"y": -0.682370449,
				"z": -1.0610077824,
				"element": "C" 
			},
			{
				"x": 2.2483640681,
				"y": -1.5506081964,
				"z": -0.3953831676,
				"element": "S" 
			},
			{
				"x": 1.7057915245,
				"y": -1.7570385598,
				"z": 1.2932783699,
				"element": "C" 
			},
			{
				"x": 0.8742831151,
				"y": -0.7891943765,
				"z": 1.8855828995,
				"element": "C" 
			},
			{
				"x": 0.3878952516,
				"y": 0.2891113988,
				"z": 1.1293565779,
				"element": "N" 
			},
			{
				"x": 0.5461130755,
				"y": -0.9124110895,
				"z": 3.2415631214,
				"element": "C" 
			},
			{
				"x": 1.0500050012,
				"y": -1.9680733413,
				"z": 4.0009746044,
				"element": "C" 
			},
			{
				"x": 1.8605991731,
				"y": -2.9352896589,
				"z": 3.4074551767,
				"element": "C" 
			},
			{
				"x": 2.1735452944,
				"y": -2.8320923009,
				"z": 2.0502217587,
				"element": "C" 
			},
			{
				"x": 0.5179039955,
				"y": -0.7936236593,
				"z": -2.4142194568,
				"element": "C" 
			},
			{
				"x": -0.5029600592,
				"y": -0.0226416834,
				"z": -2.9721341785,
				"element": "C" 
			},
			{
				"x": -1.0490466788,
				"y": 2.8580777623,
				"z": -4.08288861,
				"element": "H" 
			},
			{
				"x": -2.6067587338,
				"y": 3.6375475994,
				"z": -3.7320448426,
				"element": "H" 
			},
			{
				"x": -1.318869093,
				"y": 3.6222508274,
				"z": -2.5026229169,
				"element": "H" 
			},
			{
				"x": -3.0708522957,
				"y": 1.9436664783,
				"z": -1.9736387123,
				"element": "H" 
			},
			{
				"x": -3.28618409,
				"y": 0.21744847,
				"z": -3.5668250273,
				"element": "H" 
			},
			{
				"x": -1.5390370853,
				"y": 1.5797063205,
				"z": -0.160063181,
				"element": "H" 
			},
			{
				"x": -0.2271083267,
				"y": 0.9084064177,
				"z": 1.6389925455,
				"element": "H" 
			},
			{
				"x": -0.1027968225,
				"y": -0.1699301625,
				"z": 3.7006440839,
				"element": "H" 
			},
			{
				"x": 0.7948306827,
				"y": -2.0373751188,
				"z": 5.054128562,
				"element": "H" 
			},
			{
				"x": 2.245988237,
				"y": -3.7657240479,
				"z": 3.9903282546,
				"element": "H" 
			},
			{
				"x": 2.798306165,
				"y": -3.581693285,
				"z": 1.573493956,
				"element": "H" 
			},
			{
				"x": 1.0848175858,
				"y": -1.4794861433,
				"z": -3.0370974546,
				"element": "H" 
			},
			{
				"x": -0.7379653282,
				"y": -0.1013020719,
				"z": -4.0282097741,
				"element": "H" 
			}
		],
		 "valence_orbital": [ 
			{
				"type": "occ",
				"energy": -0.27517,
				"method": "rhf"
			},
			{
				"type": "occ",
				"energy": -0.25845,
				"method": "rhf"
			},
			{
				"type": "occ",
				"energy": -0.25083,
				"method": "rhf"
			},
			{
				"type": "occ",
				"energy": -0.2258,
				"method": "rhf"
			},
			{
				"type": "occ",
				"energy": -0.18479,
				"method": "rhf"
			},
			{
				"type": "unocc",
				"energy": -0.01812,
				"method": "rhf"
			},
			{
				"type": "unocc",
				"energy": -0.00969,
				"method": "rhf"
			},
			{
				"type": "unocc",
				"energy": -0.00485,
				"method": "rhf"
			},
			{
				"type": "unocc",
				"energy": 0.02086,
				"method": "rhf"
			},
			{
				"type": "unocc",
				"energy": 0.03685,
				"method": "rhf"
			}
		],
		"cosmo_sigma_profile": { 
			"-0.025": 0.0,
			"-0.024": 0.0,
			"-0.023": 0.0,
			"-0.022": 0.0,
			"-0.021": 0.0,
			"-0.02": 0.0,
			"-0.019": 0.0,
			"-0.018": 0.0,
			"-0.017": 0.0,
			"-0.016": 0.0156314631586,
			"-0.015": 0.695994323445,
			"-0.014": 2.19162140825,
			"-0.013": 1.86636516049,
			"-0.012": 2.70672737094,
			"-0.011": 2.62732407811,
			"-0.01": 2.24550083765,
			"-0.009": 2.92938246306,
			"-0.008": 2.12416387518,
			"-0.007": 3.72382752131,
			"-0.006": 11.471965978,
			"-0.005": 15.5066448539,
			"-0.004": 19.4505692068,
			"-0.003": 20.9563843688,
			"-0.002": 18.9292938998,
			"-0.001": 18.6715592881,
			"0.0": 18.2312207539,
			"0.001": 19.0085205787,
			"0.002": 17.6896167079,
			"0.003": 17.7070555292,
			"0.004": 26.1914671805,
			"0.005": 23.29010272,
			"0.006": 10.7550362128,
			"0.007": 4.57864147674,
			"0.008": 3.99313822128,
			"0.009": 1.94272562344,
			"0.01": 0.845404480958,
			"0.011": 1.15248065588,
			"0.012": 1.37309999952,
			"0.013": 1.4971200605,
			"0.014": 1.70760659351,
			"0.015": 0.0978405823468,
			"0.016": 0.0,
			"0.017": 0.0,
			"0.018": 0.0,
			"0.019": 0.0,
			"0.02": 0.0,
			"0.021": 0.0,
			"0.022": 0.0,
			"0.023": 0.0,
			"0.024": 0.0,
			"0.025": 0.0
		}
	}
}
