{
	 "smiles": "C[Si](C)(C)N[Si](C)(C)C", 
	 "Tm": 195.15, 
	 "num_atms": 28, 
	 "gaussian": { 
		 "optdone": 1, 
		 "sigma_profile": "yes", 
		 "theory": "DFT", 
		 "functional": "B3LYP", 
		 "basiset": "6-31G**", 
		 "properties": { 
			 "R2extent": 2435.732, 
			 "electric_dipole_moment_norm": 0.468626599757, 
			 "electric_quadrupole_moment_norm": 1.75380598129, 
			 "total_energy": -873.971748874, 
			 "HOMO_LUMO_gap": 0.28623, 
			 "cosmo_polarized_energy": -2.92, 
			 "cosmo_cavitation_energy": 32.86, 
			 "cosmo_dispersion_energy": -17.79, 
			 "cosmo_repulsion_energy": 1.69, 
			 "cosmo_total_nonelectrostatic_energy": 16.76, 
			 "SMD_solvation_energy": 8.44 
		},
		"coords": [
			{
				"x": -0.7124149451,
				"y": -2.2878099066,
				"z": 1.760148832,
				"element": "C" 
			},
			{
				"x": -0.5238971879,
				"y": -1.994894148,
				"z": -0.0983866697,
				"element": "Si" 
			},
			{
				"x": -2.0974555298,
				"y": -2.5913246106,
				"z": -0.9655868363,
				"element": "C" 
			},
			{
				"x": 0.9505214371,
				"y": -2.9767890682,
				"z": -0.7622425484,
				"element": "C" 
			},
			{
				"x": -0.2042158001,
				"y": -0.2996877873,
				"z": -0.4129066811,
				"element": "N" 
			},
			{
				"x": -0.8124236663,
				"y": 1.198290285,
				"z": 0.2664375982,
				"element": "Si" 
			},
			{
				"x": -0.4366091697,
				"y": 2.5698641601,
				"z": -0.9810701056,
				"element": "C" 
			},
			{
				"x": -2.6779460933,
				"y": 1.0789921956,
				"z": 0.5529024392,
				"element": "C" 
			},
			{
				"x": 0.02359425,
				"y": 1.6189679526,
				"z": 1.9118276328,
				"element": "C" 
			},
			{
				"x": -1.5400942397,
				"y": -1.7089370266,
				"z": 2.1850542717,
				"element": "H" 
			},
			{
				"x": -0.9166434808,
				"y": -3.3442134934,
				"z": 1.9693866787,
				"element": "H" 
			},
			{
				"x": 0.1990766523,
				"y": -2.0090243724,
				"z": 2.299320434,
				"element": "H" 
			},
			{
				"x": -2.0267045644,
				"y": -2.4554216603,
				"z": -2.0505604079,
				"element": "H" 
			},
			{
				"x": -2.9760498158,
				"y": -2.0342718963,
				"z": -0.6221176374,
				"element": "H" 
			},
			{
				"x": -2.2833932031,
				"y": -3.6548869434,
				"z": -0.7740076578,
				"element": "H" 
			},
			{
				"x": 0.7993827106,
				"y": -4.053419645,
				"z": -0.6249870302,
				"element": "H" 
			},
			{
				"x": 1.0996428534,
				"y": -2.8055388142,
				"z": -1.8349242239,
				"element": "H" 
			},
			{
				"x": 1.8780894669,
				"y": -2.7027042653,
				"z": -0.2482031392,
				"element": "H" 
			},
			{
				"x": 0.4758994485,
				"y": -0.1533194493,
				"z": -1.1520222925,
				"element": "H" 
			},
			{
				"x": 0.6380612116,
				"y": 2.6475166829,
				"z": -1.1840005256,
				"element": "H" 
			},
			{
				"x": -0.7654375035,
				"y": 3.5445370406,
				"z": -0.6033882997,
				"element": "H" 
			},
			{
				"x": -0.9451502914,
				"y": 2.3944457756,
				"z": -1.9352442768,
				"element": "H" 
			},
			{
				"x": -3.2108380565,
				"y": 0.8883884779,
				"z": -0.3846609365,
				"element": "H" 
			},
			{
				"x": -2.9351301956,
				"y": 0.2740380368,
				"z": 1.2505483201,
				"element": "H" 
			},
			{
				"x": -3.0681970055,
				"y": 2.0111082898,
				"z": 0.9776784597,
				"element": "H" 
			},
			{
				"x": -0.1536228159,
				"y": 0.8381044193,
				"z": 2.6594946623,
				"element": "H" 
			},
			{
				"x": 1.1081406318,
				"y": 1.7163799908,
				"z": 1.7901008824,
				"element": "H" 
			},
			{
				"x": -0.3524850978,
				"y": 2.5632097801,
				"z": 2.3234090573,
				"element": "H" 
			}
		],
		 "valence_orbital": [ 
			{
				"type": "occ",
				"energy": -0.30956,
				"method": "rhf"
			},
			{
				"type": "occ",
				"energy": -0.28988,
				"method": "rhf"
			},
			{
				"type": "occ",
				"energy": -0.28892,
				"method": "rhf"
			},
			{
				"type": "occ",
				"energy": -0.2883,
				"method": "rhf"
			},
			{
				"type": "occ",
				"energy": -0.22818,
				"method": "rhf"
			},
			{
				"type": "unocc",
				"energy": 0.05805,
				"method": "rhf"
			},
			{
				"type": "unocc",
				"energy": 0.07727,
				"method": "rhf"
			},
			{
				"type": "unocc",
				"energy": 0.09035,
				"method": "rhf"
			},
			{
				"type": "unocc",
				"energy": 0.10088,
				"method": "rhf"
			},
			{
				"type": "unocc",
				"energy": 0.11118,
				"method": "rhf"
			}
		],
		"cosmo_sigma_profile": { 
			"-0.025": 0.0,
			"-0.024": 0.0,
			"-0.023": 0.0,
			"-0.022": 0.0,
			"-0.021": 0.0,
			"-0.02": 0.0,
			"-0.019": 0.0,
			"-0.018": 0.0,
			"-0.017": 0.0,
			"-0.016": 0.0,
			"-0.015": 0.0,
			"-0.014": 0.0,
			"-0.013": 0.0,
			"-0.012": 0.0,
			"-0.011": 0.0,
			"-0.01": 0.535025889713,
			"-0.009": 0.902819361436,
			"-0.008": 0.74271665089,
			"-0.007": 0.862291385791,
			"-0.006": 1.30279686266,
			"-0.005": 1.37135074682,
			"-0.004": 4.21741087047,
			"-0.003": 23.7083325037,
			"-0.002": 32.9713734341,
			"-0.001": 36.5012340442,
			"0.0": 38.7959087134,
			"0.001": 34.3524455828,
			"0.002": 37.9724177823,
			"0.003": 16.7727176202,
			"0.004": 5.22153704416,
			"0.005": 1.68017630185,
			"0.006": 1.34169047541,
			"0.007": 1.14380267991,
			"0.008": 1.14321248869,
			"0.009": 1.25260846748,
			"0.01": 0.355468380995,
			"0.011": 0.0,
			"0.012": 0.0,
			"0.013": 0.0,
			"0.014": 0.0,
			"0.015": 0.0,
			"0.016": 0.0,
			"0.017": 0.0,
			"0.018": 0.0,
			"0.019": 0.0,
			"0.02": 0.0,
			"0.021": 0.0,
			"0.022": 0.0,
			"0.023": 0.0,
			"0.024": 0.0,
			"0.025": 0.0
		}
	}
}
