{
	 "smiles": "OC(=O)C1=C(NC2=CC=CC(=C2)C(F)(F)F)N=CC=C1", 
	 "Tm": 477.15, 
	 "num_atms": 29, 
	 "gaussian": { 
		 "optdone": 1, 
		 "sigma_profile": "yes", 
		 "theory": "DFT", 
		 "functional": "B3LYP", 
		 "basiset": "6-31G**", 
		 "properties": { 
			 "R2extent": 7705.674, 
			 "electric_dipole_moment_norm": 4.14617328871, 
			 "electric_quadrupole_moment_norm": 20.6031101866, 
			 "total_energy": -1060.29847045, 
			 "HOMO_LUMO_gap": 0.1674, 
			 "cosmo_polarized_energy": -16.71, 
			 "cosmo_cavitation_energy": 35.67, 
			 "cosmo_dispersion_energy": -25.25, 
			 "cosmo_repulsion_energy": 1.86, 
			 "cosmo_total_nonelectrostatic_energy": 12.28, 
			 "SMD_solvation_energy": 7.79 
		},
		"coords": [
			{
				"x": 0.7061129655,
				"y": 2.1810905099,
				"z": 3.1414006629,
				"element": "O" 
			},
			{
				"x": -0.303666828,
				"y": 1.3937270613,
				"z": 3.5880317274,
				"element": "C" 
			},
			{
				"x": -1.0587493602,
				"y": 1.7969227376,
				"z": 4.4420807805,
				"element": "O" 
			},
			{
				"x": -0.4095173653,
				"y": 0.0127544417,
				"z": 3.0049400299,
				"element": "C" 
			},
			{
				"x": 0.1565068729,
				"y": -0.4247542367,
				"z": 1.7791358408,
				"element": "C" 
			},
			{
				"x": 0.7765379856,
				"y": 0.5137397711,
				"z": 0.9261093787,
				"element": "N" 
			},
			{
				"x": 1.4911444121,
				"y": 0.2035999531,
				"z": -0.2585383749,
				"element": "C" 
			},
			{
				"x": 2.3955774063,
				"y": -0.8657560477,
				"z": -0.3331649567,
				"element": "C" 
			},
			{
				"x": 3.132397603,
				"y": -1.0680212312,
				"z": -1.4973673485,
				"element": "C" 
			},
			{
				"x": 2.9961482947,
				"y": -0.2160155103,
				"z": -2.593555188,
				"element": "C" 
			},
			{
				"x": 2.1015599318,
				"y": 0.8518190798,
				"z": -2.5119442903,
				"element": "C" 
			},
			{
				"x": 1.3487371233,
				"y": 1.0598409975,
				"z": -1.3560601791,
				"element": "C" 
			},
			{
				"x": 1.8929217936,
				"y": 1.7491073873,
				"z": -3.7026902881,
				"element": "C" 
			},
			{
				"x": 0.9474739179,
				"y": 1.2576960983,
				"z": -4.5367624851,
				"element": "F" 
			},
			{
				"x": 1.4878095141,
				"y": 2.9865080566,
				"z": -3.3372942863,
				"element": "F" 
			},
			{
				"x": 3.0227852134,
				"y": 1.888373565,
				"z": -4.4294385202,
				"element": "F" 
			},
			{
				"x": 0.1274226714,
				"y": -1.6988652804,
				"z": 1.3863187901,
				"element": "N" 
			},
			{
				"x": -0.5019314421,
				"y": -2.5904388269,
				"z": 2.158850791,
				"element": "C" 
			},
			{
				"x": -1.1646237329,
				"y": -2.2590384977,
				"z": 3.339125273,
				"element": "C" 
			},
			{
				"x": -1.1078869072,
				"y": -0.9340343415,
				"z": 3.7594243038,
				"element": "C" 
			},
			{
				"x": 1.2793800629,
				"y": 1.6792557736,
				"z": 2.5337578175,
				"element": "H" 
			},
			{
				"x": 0.2596187214,
				"y": 1.3819277334,
				"z": 0.8504515175,
				"element": "H" 
			},
			{
				"x": 2.5111909684,
				"y": -1.5338381529,
				"z": 0.5097023937,
				"element": "H" 
			},
			{
				"x": 3.8301309401,
				"y": -1.8984180084,
				"z": -1.5446352615,
				"element": "H" 
			},
			{
				"x": 3.5799816548,
				"y": -0.3698462659,
				"z": -3.4938662391,
				"element": "H" 
			},
			{
				"x": 0.6574011493,
				"y": 1.8962333606,
				"z": -1.3114893028,
				"element": "H" 
			},
			{
				"x": -0.482321092,
				"y": -3.618799062,
				"z": 1.8030125356,
				"element": "H" 
			},
			{
				"x": -1.6874073356,
				"y": -3.0149726075,
				"z": 3.9143502583,
				"element": "H" 
			},
			{
				"x": -1.5754351394,
				"y": -0.6024984577,
				"z": 4.6806146197,
				"element": "H" 
			}
		],
		 "valence_orbital": [ 
			{
				"type": "occ",
				"energy": -0.29821,
				"method": "rhf"
			},
			{
				"type": "occ",
				"energy": -0.28281,
				"method": "rhf"
			},
			{
				"type": "occ",
				"energy": -0.27745,
				"method": "rhf"
			},
			{
				"type": "occ",
				"energy": -0.27012,
				"method": "rhf"
			},
			{
				"type": "occ",
				"energy": -0.23358,
				"method": "rhf"
			},
			{
				"type": "unocc",
				"energy": -0.06618,
				"method": "rhf"
			},
			{
				"type": "unocc",
				"energy": -0.04426,
				"method": "rhf"
			},
			{
				"type": "unocc",
				"energy": -0.03078,
				"method": "rhf"
			},
			{
				"type": "unocc",
				"energy": -0.00858,
				"method": "rhf"
			},
			{
				"type": "unocc",
				"energy": 0.0334,
				"method": "rhf"
			}
		],
		"cosmo_sigma_profile": { 
			"-0.025": 0.0,
			"-0.024": 0.0,
			"-0.023": 0.0,
			"-0.022": 0.0,
			"-0.021": 0.0,
			"-0.02": 0.0,
			"-0.019": 0.0,
			"-0.018": 0.0,
			"-0.017": 0.0,
			"-0.016": 0.260667549712,
			"-0.015": 1.52189752488,
			"-0.014": 1.73646767987,
			"-0.013": 2.41707193587,
			"-0.012": 2.55876295423,
			"-0.011": 3.64213047744,
			"-0.01": 2.1934415557,
			"-0.009": 2.27268447636,
			"-0.008": 3.24197672143,
			"-0.007": 10.3329697511,
			"-0.006": 14.6346983547,
			"-0.005": 14.9778726959,
			"-0.004": 13.6870688087,
			"-0.003": 14.1470434796,
			"-0.002": 14.8743897457,
			"-0.001": 16.8081567043,
			"0.0": 20.2469463136,
			"0.001": 25.7962189041,
			"0.002": 30.8993188533,
			"0.003": 42.2455417265,
			"0.004": 11.1118118907,
			"0.005": 4.43716805637,
			"0.006": 3.37037210526,
			"0.007": 3.11423377206,
			"0.008": 3.87786521213,
			"0.009": 5.04062148988,
			"0.01": 5.18778651887,
			"0.011": 6.22655994603,
			"0.012": 5.16664037852,
			"0.013": 1.25785839908,
			"0.014": 0.0,
			"0.015": 0.0,
			"0.016": 0.0,
			"0.017": 0.0,
			"0.018": 0.0,
			"0.019": 0.0,
			"0.02": 0.0,
			"0.021": 0.0,
			"0.022": 0.0,
			"0.023": 0.0,
			"0.024": 0.0,
			"0.025": 0.0
		}
	}
}
