{
	 "smiles": "ClC1C=CC2C1C1(Cl)C(Cl)=C(Cl)C2(Cl)C1(Cl)Cl", 
	 "Tm": 368.35, 
	 "num_atms": 22, 
	 "gaussian": { 
		 "optdone": 1, 
		 "sigma_profile": "yes", 
		 "theory": "DFT", 
		 "functional": "B3LYP", 
		 "basiset": "6-31G**", 
		 "properties": { 
			 "R2extent": 5768.1513, 
			 "electric_dipole_moment_norm": 2.27780369216, 
			 "electric_quadrupole_moment_norm": 9.12214781343, 
			 "total_energy": -3605.35073264, 
			 "HOMO_LUMO_gap": 0.21892, 
			 "cosmo_polarized_energy": -7.01, 
			 "cosmo_cavitation_energy": 35.42, 
			 "cosmo_dispersion_energy": -24.76, 
			 "cosmo_repulsion_energy": 1.9, 
			 "cosmo_total_nonelectrostatic_energy": 12.56, 
			 "SMD_solvation_energy": 3.51 
		},
		"coords": [
			{
				"x": -0.0244182443,
				"y": -4.0188703409,
				"z": -1.4148725839,
				"element": "Cl" 
			},
			{
				"x": 0.6960151432,
				"y": -2.528455462,
				"z": -0.6053820929,
				"element": "C" 
			},
			{
				"x": 0.8548784474,
				"y": -2.7643168532,
				"z": 0.8679866138,
				"element": "C" 
			},
			{
				"x": 0.1371688371,
				"y": -1.9140574595,
				"z": 1.6085132206,
				"element": "C" 
			},
			{
				"x": -0.6380646449,
				"y": -0.9379660262,
				"z": 0.7691578926,
				"element": "C" 
			},
			{
				"x": -0.2573002727,
				"y": -1.3142875084,
				"z": -0.7052108895,
				"element": "C" 
			},
			{
				"x": 0.3668601231,
				"y": 0.0124644957,
				"z": -1.2529707509,
				"element": "C" 
			},
			{
				"x": 0.4914976544,
				"y": 0.0825512094,
				"z": -3.0225367886,
				"element": "Cl" 
			},
			{
				"x": 1.659330758,
				"y": 0.2901864771,
				"z": -0.4818522327,
				"element": "C" 
			},
			{
				"x": 3.236449037,
				"y": 0.0902897905,
				"z": -1.1254674298,
				"element": "Cl" 
			},
			{
				"x": 1.3211542382,
				"y": 0.6236825792,
				"z": 0.7723047447,
				"element": "C" 
			},
			{
				"x": 2.3622392892,
				"y": 0.9255923691,
				"z": 2.0972366898,
				"element": "Cl" 
			},
			{
				"x": -0.2015625599,
				"y": 0.5739984995,
				"z": 0.8660692506,
				"element": "C" 
			},
			{
				"x": -0.9290296563,
				"y": 1.4530799429,
				"z": 2.2262539371,
				"element": "Cl" 
			},
			{
				"x": -0.5611865377,
				"y": 1.0851409173,
				"z": -0.5731502995,
				"element": "C" 
			},
			{
				"x": -0.0848049951,
				"y": 2.7792471717,
				"z": -0.8954592708,
				"element": "Cl" 
			},
			{
				"x": -2.2996168025,
				"y": 0.9156884011,
				"z": -0.9914285906,
				"element": "Cl" 
			},
			{
				"x": 1.6413215015,
				"y": -2.3885225523,
				"z": -1.1312615094,
				"element": "H" 
			},
			{
				"x": 1.4817866126,
				"y": -3.5628848352,
				"z": 1.2487448115,
				"element": "H" 
			},
			{
				"x": 0.0983154037,
				"y": -1.9086672068,
				"z": 2.6926036073,
				"element": "H" 
			},
			{
				"x": -1.7142133888,
				"y": -0.9888704919,
				"z": 0.9545786564,
				"element": "H" 
			},
			{
				"x": -1.1360199431,
				"y": -1.5572231172,
				"z": -1.3002569858,
				"element": "H" 
			}
		],
		 "valence_orbital": [ 
			{
				"type": "occ",
				"energy": -0.31858,
				"method": "rhf"
			},
			{
				"type": "occ",
				"energy": -0.30725,
				"method": "rhf"
			},
			{
				"type": "occ",
				"energy": -0.3055,
				"method": "rhf"
			},
			{
				"type": "occ",
				"energy": -0.28443,
				"method": "rhf"
			},
			{
				"type": "occ",
				"energy": -0.26961,
				"method": "rhf"
			},
			{
				"type": "unocc",
				"energy": -0.05069,
				"method": "rhf"
			},
			{
				"type": "unocc",
				"energy": -0.0492,
				"method": "rhf"
			},
			{
				"type": "unocc",
				"energy": -0.03421,
				"method": "rhf"
			},
			{
				"type": "unocc",
				"energy": -0.01317,
				"method": "rhf"
			},
			{
				"type": "unocc",
				"energy": -0.00013,
				"method": "rhf"
			}
		],
		"cosmo_sigma_profile": { 
			"-0.025": 0.0,
			"-0.024": 0.0,
			"-0.023": 0.0,
			"-0.022": 0.0,
			"-0.021": 0.0,
			"-0.02": 0.0,
			"-0.019": 0.0,
			"-0.018": 0.0,
			"-0.017": 0.0,
			"-0.016": 0.0,
			"-0.015": 0.0,
			"-0.014": 0.0,
			"-0.013": 0.0,
			"-0.012": 0.0,
			"-0.011": 0.0,
			"-0.01": 0.0,
			"-0.009": 0.0740633206145,
			"-0.008": 3.21225997973,
			"-0.007": 7.92642600194,
			"-0.006": 10.7423493278,
			"-0.005": 13.8964075987,
			"-0.004": 16.4292180604,
			"-0.003": 18.2251512542,
			"-0.002": 18.5205757142,
			"-0.001": 25.0713309009,
			"0.0": 29.85684707,
			"0.001": 34.2343184457,
			"0.002": 43.7732962999,
			"0.003": 44.2249810246,
			"0.004": 15.4374188458,
			"0.005": 7.07672985812,
			"0.006": 8.3281209641,
			"0.007": 0.683608649317,
			"0.008": 0.0,
			"0.009": 0.0,
			"0.01": 0.0,
			"0.011": 0.0,
			"0.012": 0.0,
			"0.013": 0.0,
			"0.014": 0.0,
			"0.015": 0.0,
			"0.016": 0.0,
			"0.017": 0.0,
			"0.018": 0.0,
			"0.019": 0.0,
			"0.02": 0.0,
			"0.021": 0.0,
			"0.022": 0.0,
			"0.023": 0.0,
			"0.024": 0.0,
			"0.025": 0.0
		}
	}
}
