{
	 "smiles": "CCOC(=O)C1(CCN(C)CC1)C1=CC(O)=CC=C1", 
	 "Tm": 383.15, 
	 "num_atms": 40, 
	 "gaussian": { 
		 "optdone": 1, 
		 "sigma_profile": "yes", 
		 "theory": "DFT", 
		 "functional": "B3LYP", 
		 "basiset": "6-31G**", 
		 "properties": { 
			 "R2extent": 7284.5666, 
			 "electric_dipole_moment_norm": 2.17027402187, 
			 "electric_quadrupole_moment_norm": 13.568646578, 
			 "total_energy": -864.677682707, 
			 "HOMO_LUMO_gap": 0.20526, 
			 "cosmo_polarized_energy": -13.97, 
			 "cosmo_cavitation_energy": 40.33, 
			 "cosmo_dispersion_energy": -27.33, 
			 "cosmo_repulsion_energy": 2.13, 
			 "cosmo_total_nonelectrostatic_energy": 15.12, 
			 "SMD_solvation_energy": 6.78 
		},
		"coords": [
			{
				"x": -1.962047427,
				"y": 2.7588201891,
				"z": -0.2980002986,
				"element": "C" 
			},
			{
				"x": -1.463792299,
				"y": 2.075818882,
				"z": 0.9615828596,
				"element": "C" 
			},
			{
				"x": -0.2997702187,
				"y": 1.2975304151,
				"z": 0.6041931514,
				"element": "O" 
			},
			{
				"x": 0.2785306781,
				"y": 0.6152076732,
				"z": 1.6165631449,
				"element": "C" 
			},
			{
				"x": -0.1198715453,
				"y": 0.6685024627,
				"z": 2.7619436074,
				"element": "O" 
			},
			{
				"x": 1.5379963163,
				"y": -0.1631217278,
				"z": 1.1851668025,
				"element": "C" 
			},
			{
				"x": 1.6499308163,
				"y": -1.3866343156,
				"z": 2.1172393344,
				"element": "C" 
			},
			{
				"x": 0.3962105971,
				"y": -2.285564605,
				"z": 2.015180661,
				"element": "C" 
			},
			{
				"x": -0.3552924263,
				"y": -2.010363605,
				"z": 0.7902970637,
				"element": "N" 
			},
			{
				"x": -1.4661545459,
				"y": -2.9299127663,
				"z": 0.6196523541,
				"element": "C" 
			},
			{
				"x": 0.5284079951,
				"y": -1.944117185,
				"z": -0.3691667236,
				"element": "C" 
			},
			{
				"x": 1.4424276362,
				"y": -0.6979377708,
				"z": -0.2720873843,
				"element": "C" 
			},
			{
				"x": 2.7287867484,
				"y": 0.8095775532,
				"z": 1.2995802499,
				"element": "C" 
			},
			{
				"x": 3.805956863,
				"y": 0.5604648678,
				"z": 2.1588365229,
				"element": "C" 
			},
			{
				"x": 4.8894316723,
				"y": 1.4440027251,
				"z": 2.2280462173,
				"element": "C" 
			},
			{
				"x": 5.9543696132,
				"y": 1.2242511188,
				"z": 3.0573904167,
				"element": "O" 
			},
			{
				"x": 4.9152280372,
				"y": 2.5949613874,
				"z": 1.4375608613,
				"element": "C" 
			},
			{
				"x": 3.8430048507,
				"y": 2.8472079828,
				"z": 0.585661286,
				"element": "C" 
			},
			{
				"x": 2.7592248041,
				"y": 1.9717801293,
				"z": 0.5119800397,
				"element": "C" 
			},
			{
				"x": -1.1998744181,
				"y": 3.426275174,
				"z": -0.7110250622,
				"element": "H" 
			},
			{
				"x": -2.2272838328,
				"y": 2.0235599797,
				"z": -1.0633126206,
				"element": "H" 
			},
			{
				"x": -2.8517653629,
				"y": 3.3544533847,
				"z": -0.070571921,
				"element": "H" 
			},
			{
				"x": -1.1850075375,
				"y": 2.7948062468,
				"z": 1.738183807,
				"element": "H" 
			},
			{
				"x": -2.214047782,
				"y": 1.4034452136,
				"z": 1.3890233934,
				"element": "H" 
			},
			{
				"x": 2.5440341173,
				"y": -1.9503733214,
				"z": 1.8289253006,
				"element": "H" 
			},
			{
				"x": 1.7764050259,
				"y": -1.0662874408,
				"z": 3.1533210658,
				"element": "H" 
			},
			{
				"x": -0.2696855797,
				"y": -2.0922794269,
				"z": 2.8619590514,
				"element": "H" 
			},
			{
				"x": 0.702354716,
				"y": -3.3490840167,
				"z": 2.0701279545,
				"element": "H" 
			},
			{
				"x": -2.1179458701,
				"y": -2.8855864896,
				"z": 1.4985048126,
				"element": "H" 
			},
			{
				"x": -2.0565005642,
				"y": -2.6445020887,
				"z": -0.2571606372,
				"element": "H" 
			},
			{
				"x": -1.1463259013,
				"y": -3.9822509021,
				"z": 0.4898534403,
				"element": "H" 
			},
			{
				"x": 1.1364372426,
				"y": -2.8657968439,
				"z": -0.4674793717,
				"element": "H" 
			},
			{
				"x": -0.08996285,
				"y": -1.8852253097,
				"z": -1.270751082,
				"element": "H" 
			},
			{
				"x": 1.0758424408,
				"y": 0.0937299207,
				"z": -0.9265523112,
				"element": "H" 
			},
			{
				"x": 2.4534187722,
				"y": -0.9508260453,
				"z": -0.6072406204,
				"element": "H" 
			},
			{
				"x": 3.8173383197,
				"y": -0.3245143138,
				"z": 2.7877603161,
				"element": "H" 
			},
			{
				"x": 5.801850928,
				"y": 0.412567531,
				"z": 3.5583106425,
				"element": "H" 
			},
			{
				"x": 5.7638432882,
				"y": 3.2671140489,
				"z": 1.5063897999,
				"element": "H" 
			},
			{
				"x": 3.8507545133,
				"y": 3.7425203958,
				"z": -0.0298719765,
				"element": "H" 
			},
			{
				"x": 1.9300421688,
				"y": 2.1968808929,
				"z": -0.1486141476,
				"element": "H" 
			}
		],
		 "valence_orbital": [ 
			{
				"type": "occ",
				"energy": -0.28986,
				"method": "rhf"
			},
			{
				"type": "occ",
				"energy": -0.26104,
				"method": "rhf"
			},
			{
				"type": "occ",
				"energy": -0.24259,
				"method": "rhf"
			},
			{
				"type": "occ",
				"energy": -0.21691,
				"method": "rhf"
			},
			{
				"type": "occ",
				"energy": -0.20953,
				"method": "rhf"
			},
			{
				"type": "unocc",
				"energy": -0.00427,
				"method": "rhf"
			},
			{
				"type": "unocc",
				"energy": 0.01417,
				"method": "rhf"
			},
			{
				"type": "unocc",
				"energy": 0.0358,
				"method": "rhf"
			},
			{
				"type": "unocc",
				"energy": 0.07205,
				"method": "rhf"
			},
			{
				"type": "unocc",
				"energy": 0.07915,
				"method": "rhf"
			}
		],
		"cosmo_sigma_profile": { 
			"-0.025": 0.0,
			"-0.024": 0.0,
			"-0.023": 0.0,
			"-0.022": 0.0,
			"-0.021": 0.0,
			"-0.02": 0.0,
			"-0.019": 0.0,
			"-0.018": 0.179124060308,
			"-0.017": 0.933887425682,
			"-0.016": 1.06518335183,
			"-0.015": 0.97841898292,
			"-0.014": 1.45114150232,
			"-0.013": 0.909679569443,
			"-0.012": 0.543545978276,
			"-0.011": 0.845953966759,
			"-0.01": 1.10708791411,
			"-0.009": 1.5821048146,
			"-0.008": 0.814096680389,
			"-0.007": 0.896937207365,
			"-0.006": 2.95920353555,
			"-0.005": 10.2551844661,
			"-0.004": 26.6903762744,
			"-0.003": 36.8237995432,
			"-0.002": 41.7571330169,
			"-0.001": 42.6623602703,
			"0.0": 32.8158146182,
			"0.001": 16.2424888932,
			"0.002": 10.8844278182,
			"0.003": 13.6077688878,
			"0.004": 15.7685952622,
			"0.005": 14.1341456732,
			"0.006": 8.93284875839,
			"0.007": 5.67717917074,
			"0.008": 4.78243450206,
			"0.009": 4.55521764708,
			"0.01": 3.59062325252,
			"0.011": 4.32394269524,
			"0.012": 4.38238769755,
			"0.013": 2.25089345716,
			"0.014": 0.0,
			"0.015": 0.0,
			"0.016": 0.0,
			"0.017": 0.0,
			"0.018": 0.0,
			"0.019": 0.0,
			"0.02": 0.0,
			"0.021": 0.0,
			"0.022": 0.0,
			"0.023": 0.0,
			"0.024": 0.0,
			"0.025": 0.0
		}
	}
}
