{
	 "smiles": "CCCCOC1=CC=C(NC(=O)C(F)(F)C(F)(F)C(F)(F)C(F)(F)C(F)(F)C(F)(F)C(F)(F)C(F)(F)F)C=C1", 
	 "Tm": 410.15, 
	 "num_atms": 53, 
	 "gaussian": { 
		 "optdone": 1, 
		 "sigma_profile": "yes", 
		 "theory": "DFT", 
		 "functional": "B3LYP", 
		 "basiset": "6-31G**", 
		 "properties": { 
			 "R2extent": 29200.11, 
			 "electric_dipole_moment_norm": 4.26175654631, 
			 "electric_quadrupole_moment_norm": 10.2378027389, 
			 "total_energy": -2634.88425025, 
			 "HOMO_LUMO_gap": 0.17858, 
			 "cosmo_polarized_energy": -11.71, 
			 "cosmo_cavitation_energy": 61.83, 
			 "cosmo_dispersion_energy": -40.88, 
			 "cosmo_repulsion_energy": 2.78, 
			 "cosmo_total_nonelectrostatic_energy": 23.73, 
			 "SMD_solvation_energy": 15.6 
		},
		"coords": [
			{
				"x": 1.8575053011,
				"y": 5.4221654433,
				"z": -4.2248366982,
				"element": "C" 
			},
			{
				"x": 1.3071280398,
				"y": 4.2454507647,
				"z": -5.0369881851,
				"element": "C" 
			},
			{
				"x": 1.9686219376,
				"y": 2.9088973548,
				"z": -4.674927734,
				"element": "C" 
			},
			{
				"x": 1.426592679,
				"y": 1.748857563,
				"z": -5.5102168656,
				"element": "C" 
			},
			{
				"x": 2.0864279853,
				"y": 0.5097580057,
				"z": -5.2348949968,
				"element": "O" 
			},
			{
				"x": 1.7165444752,
				"y": -0.2351985621,
				"z": -4.1542920654,
				"element": "C" 
			},
			{
				"x": 2.4407354243,
				"y": -1.4231138382,
				"z": -3.9660883138,
				"element": "C" 
			},
			{
				"x": 2.1391172939,
				"y": -2.2682728862,
				"z": -2.9097422536,
				"element": "C" 
			},
			{
				"x": 1.107197316,
				"y": -1.9516642166,
				"z": -2.0121808978,
				"element": "C" 
			},
			{
				"x": 0.8620109801,
				"y": -2.8630901101,
				"z": -0.9548177147,
				"element": "N" 
			},
			{
				"x": -0.0780015312,
				"y": -2.7842131329,
				"z": 0.0183098379,
				"element": "C" 
			},
			{
				"x": -0.9145781819,
				"y": -1.9099837776,
				"z": 0.1783515425,
				"element": "O" 
			},
			{
				"x": -0.0354252277,
				"y": -3.9732567285,
				"z": 1.0168049227,
				"element": "C" 
			},
			{
				"x": -1.2803078836,
				"y": -4.485297356,
				"z": 1.1442641321,
				"element": "F" 
			},
			{
				"x": 0.776059667,
				"y": -4.9687073408,
				"z": 0.5379053779,
				"element": "F" 
			},
			{
				"x": 0.5211987154,
				"y": -3.5806128099,
				"z": 2.4291528397,
				"element": "C" 
			},
			{
				"x": 1.23658652,
				"y": -4.6309186996,
				"z": 2.8996314988,
				"element": "F" 
			},
			{
				"x": 1.3670888809,
				"y": -2.5300238758,
				"z": 2.281902478,
				"element": "F" 
			},
			{
				"x": -0.491853418,
				"y": -3.2622971044,
				"z": 3.5773155295,
				"element": "C" 
			},
			{
				"x": 0.2774742455,
				"y": -2.9976033675,
				"z": 4.6658362165,
				"element": "F" 
			},
			{
				"x": -1.2107826501,
				"y": -4.3804721795,
				"z": 3.811810591,
				"element": "F" 
			},
			{
				"x": -1.4668060775,
				"y": -2.0644315987,
				"z": 3.3937068588,
				"element": "C" 
			},
			{
				"x": -0.7793886141,
				"y": -1.0179440311,
				"z": 2.883376886,
				"element": "F" 
			},
			{
				"x": -2.4468987016,
				"y": -2.4327050598,
				"z": 2.5441876095,
				"element": "F" 
			},
			{
				"x": -2.1137168306,
				"y": -1.5961519106,
				"z": 4.7344524299,
				"element": "C" 
			},
			{
				"x": -2.4709987201,
				"y": -2.6917421349,
				"z": 5.4476376678,
				"element": "F" 
			},
			{
				"x": -1.2013884464,
				"y": -0.8930947031,
				"z": 5.4433786759,
				"element": "F" 
			},
			{
				"x": -3.4073579994,
				"y": -0.7296459877,
				"z": 4.6318139705,
				"element": "C" 
			},
			{
				"x": -4.3812847437,
				"y": -1.4920160809,
				"z": 4.0872578009,
				"element": "F" 
			},
			{
				"x": -3.7542775439,
				"y": -0.4317641304,
				"z": 5.9074586859,
				"element": "F" 
			},
			{
				"x": -3.3874389373,
				"y": 0.6016040322,
				"z": 3.8288441506,
				"element": "C" 
			},
			{
				"x": -3.1097877051,
				"y": 0.3289282403,
				"z": 2.5345501661,
				"element": "F" 
			},
			{
				"x": -4.643316537,
				"y": 1.102243868,
				"z": 3.9132203262,
				"element": "F" 
			},
			{
				"x": -2.4286692375,
				"y": 1.7247391706,
				"z": 4.2998831338,
				"element": "C" 
			},
			{
				"x": -2.7104411974,
				"y": 2.8371748848,
				"z": 3.6096301573,
				"element": "F" 
			},
			{
				"x": -2.591853497,
				"y": 1.9726502084,
				"z": 5.6046141592,
				"element": "F" 
			},
			{
				"x": -1.1531814787,
				"y": 1.3932727212,
				"z": 4.0721060207,
				"element": "F" 
			},
			{
				"x": 0.3829283612,
				"y": -0.7693959368,
				"z": -2.1933120038,
				"element": "C" 
			},
			{
				"x": 0.6894607237,
				"y": 0.082050517,
				"z": -3.2572676127,
				"element": "C" 
			},
			{
				"x": 1.7008799991,
				"y": 5.2699913464,
				"z": -3.1511500465,
				"element": "H" 
			},
			{
				"x": 2.933893807,
				"y": 5.5459499325,
				"z": -4.3876228549,
				"element": "H" 
			},
			{
				"x": 1.3681042528,
				"y": 6.3608450035,
				"z": -4.5031490286,
				"element": "H" 
			},
			{
				"x": 0.2221180455,
				"y": 4.1706746708,
				"z": -4.8817783731,
				"element": "H" 
			},
			{
				"x": 1.4474601093,
				"y": 4.4432664684,
				"z": -6.1084079347,
				"element": "H" 
			},
			{
				"x": 3.0523951576,
				"y": 2.9703570381,
				"z": -4.8337791111,
				"element": "H" 
			},
			{
				"x": 1.8220181269,
				"y": 2.6995425765,
				"z": -3.6083809937,
				"element": "H" 
			},
			{
				"x": 0.3407729856,
				"y": 1.6388357567,
				"z": -5.3889252801,
				"element": "H" 
			},
			{
				"x": 1.6178663207,
				"y": 1.9296800343,
				"z": -6.5724966394,
				"element": "H" 
			},
			{
				"x": 3.2347460768,
				"y": -1.6636513357,
				"z": -4.664821196,
				"element": "H" 
			},
			{
				"x": 2.7098567313,
				"y": -3.1849483736,
				"z": -2.7789134781,
				"element": "H" 
			},
			{
				"x": 1.442555232,
				"y": -3.6900354534,
				"z": -0.9405142935,
				"element": "H" 
			},
			{
				"x": -0.4128339393,
				"y": -0.5178687839,
				"z": -1.5062194554,
				"element": "H" 
			},
			{
				"x": 0.1138437081,
				"y": 0.992985905,
				"z": -3.3673796392,
				"element": "H" 
			}
		],
		 "valence_orbital": [ 
			{
				"type": "occ",
				"energy": -0.32549,
				"method": "rhf"
			},
			{
				"type": "occ",
				"energy": -0.29444,
				"method": "rhf"
			},
			{
				"type": "occ",
				"energy": -0.28026,
				"method": "rhf"
			},
			{
				"type": "occ",
				"energy": -0.26305,
				"method": "rhf"
			},
			{
				"type": "occ",
				"energy": -0.21348,
				"method": "rhf"
			},
			{
				"type": "unocc",
				"energy": -0.0349,
				"method": "rhf"
			},
			{
				"type": "unocc",
				"energy": -0.01382,
				"method": "rhf"
			},
			{
				"type": "unocc",
				"energy": 0.01126,
				"method": "rhf"
			},
			{
				"type": "unocc",
				"energy": 0.02198,
				"method": "rhf"
			},
			{
				"type": "unocc",
				"energy": 0.02882,
				"method": "rhf"
			}
		],
		"cosmo_sigma_profile": { 
			"-0.025": 0.0,
			"-0.024": 0.0,
			"-0.023": 0.0,
			"-0.022": 0.0,
			"-0.021": 0.0,
			"-0.02": 0.0,
			"-0.019": 0.0,
			"-0.018": 0.0,
			"-0.017": 0.0,
			"-0.016": 0.0542029823285,
			"-0.015": 1.05682083487,
			"-0.014": 1.03239460319,
			"-0.013": 0.735673023918,
			"-0.012": 1.70456767884,
			"-0.011": 1.77130444915,
			"-0.01": 1.20867503376,
			"-0.009": 2.21561186104,
			"-0.008": 1.8200316089,
			"-0.007": 4.23746909887,
			"-0.006": 8.14593567007,
			"-0.005": 13.0145110242,
			"-0.004": 15.3493499407,
			"-0.003": 27.8149588982,
			"-0.002": 38.5962379285,
			"-0.001": 46.9505336156,
			"0.0": 84.8323737545,
			"0.001": 136.056286345,
			"0.002": 43.1114046376,
			"0.003": 17.9875212658,
			"0.004": 16.1594602143,
			"0.005": 10.1390848112,
			"0.006": 3.3690139084,
			"0.007": 4.30622113774,
			"0.008": 4.2909451096,
			"0.009": 3.58294214996,
			"0.01": 2.82405023997,
			"0.011": 0.481778922085,
			"0.012": 0.0,
			"0.013": 0.0,
			"0.014": 0.0,
			"0.015": 0.0,
			"0.016": 0.0,
			"0.017": 0.0,
			"0.018": 0.0,
			"0.019": 0.0,
			"0.02": 0.0,
			"0.021": 0.0,
			"0.022": 0.0,
			"0.023": 0.0,
			"0.024": 0.0,
			"0.025": 0.0
		}
	}
}
