{
	 "smiles": "NC1=CC=C(C=CC(=O)C2=CC=CC=C2)C=C1", 
	 "Tm": 424.15, 
	 "num_atms": 30, 
	 "gaussian": { 
		 "optdone": 1, 
		 "sigma_profile": "yes", 
		 "theory": "DFT", 
		 "functional": "B3LYP", 
		 "basiset": "6-31G**", 
		 "properties": { 
			 "R2extent": 6515.5641, 
			 "electric_dipole_moment_norm": 6.2534461931, 
			 "electric_quadrupole_moment_norm": 25.5603785623, 
			 "total_energy": -709.399519865, 
			 "HOMO_LUMO_gap": 0.14166, 
			 "cosmo_polarized_energy": -16.85, 
			 "cosmo_cavitation_energy": 34.84, 
			 "cosmo_dispersion_energy": -25.04, 
			 "cosmo_repulsion_energy": 1.94, 
			 "cosmo_total_nonelectrostatic_energy": 11.73, 
			 "SMD_solvation_energy": 6.33 
		},
		"coords": [
			{
				"x": -0.2715060592,
				"y": -5.0947246803,
				"z": -3.7825752853,
				"element": "N" 
			},
			{
				"x": -0.0479606231,
				"y": -4.0252846683,
				"z": -2.9296843236,
				"element": "C" 
			},
			{
				"x": -0.6682031678,
				"y": -3.9622251327,
				"z": -1.6684370596,
				"element": "C" 
			},
			{
				"x": -0.4758591179,
				"y": -2.8608984841,
				"z": -0.8464643903,
				"element": "C" 
			},
			{
				"x": 0.3351826355,
				"y": -1.7757758342,
				"z": -1.2316733406,
				"element": "C" 
			},
			{
				"x": 0.5003409439,
				"y": -0.6513739985,
				"z": -0.3179366977,
				"element": "C" 
			},
			{
				"x": 1.1963896718,
				"y": 0.4882998171,
				"z": -0.5317966251,
				"element": "C" 
			},
			{
				"x": 1.2507258541,
				"y": 1.6531648541,
				"z": 0.3739673183,
				"element": "C" 
			},
			{
				"x": 1.5184414408,
				"y": 2.7618006716,
				"z": -0.0880851911,
				"element": "O" 
			},
			{
				"x": 0.9688537405,
				"y": 1.5149634588,
				"z": 1.8458720727,
				"element": "C" 
			},
			{
				"x": 1.3203685092,
				"y": 0.3799086139,
				"z": 2.5921451529,
				"element": "C" 
			},
			{
				"x": 1.0899937799,
				"y": 0.340881808,
				"z": 3.9686095753,
				"element": "C" 
			},
			{
				"x": 0.4985770116,
				"y": 1.4295335586,
				"z": 4.6108640622,
				"element": "C" 
			},
			{
				"x": 0.15562656,
				"y": 2.5690287377,
				"z": 3.8763573925,
				"element": "C" 
			},
			{
				"x": 0.4021885914,
				"y": 2.615863158,
				"z": 2.5071943769,
				"element": "C" 
			},
			{
				"x": 0.9513306194,
				"y": -1.8519544923,
				"z": -2.4982457943,
				"element": "C" 
			},
			{
				"x": 0.7675354728,
				"y": -2.9453115278,
				"z": -3.3279897237,
				"element": "C" 
			},
			{
				"x": -0.5936203648,
				"y": -5.9519556922,
				"z": -3.3576126447,
				"element": "H" 
			},
			{
				"x": 0.4121459344,
				"y": -5.2425441623,
				"z": -4.5105717086,
				"element": "H" 
			},
			{
				"x": -1.3039904829,
				"y": -4.7812165825,
				"z": -1.3416910152,
				"element": "H" 
			},
			{
				"x": -0.9645829852,
				"y": -2.8351140064,
				"z": 0.124479264,
				"element": "H" 
			},
			{
				"x": -0.0249948622,
				"y": -0.7571802943,
				"z": 0.629251982,
				"element": "H" 
			},
			{
				"x": 1.6807433559,
				"y": 0.6789808028,
				"z": -1.4863022322,
				"element": "H" 
			},
			{
				"x": 1.8017900129,
				"y": -0.4596768606,
				"z": 2.1018962676,
				"element": "H" 
			},
			{
				"x": 1.3782833582,
				"y": -0.5375183784,
				"z": 4.5391444682,
				"element": "H" 
			},
			{
				"x": 0.3133884712,
				"y": 1.3952283701,
				"z": 5.6808630291,
				"element": "H" 
			},
			{
				"x": -0.2964795526,
				"y": 3.4216608356,
				"z": 4.3751357876,
				"element": "H" 
			},
			{
				"x": 0.1668010433,
				"y": 3.500521272,
				"z": 1.9247031929,
				"element": "H" 
			},
			{
				"x": 1.5887611907,
				"y": -1.0414686864,
				"z": -2.8376243332,
				"element": "H" 
			},
			{
				"x": 1.2527290182,
				"y": -2.974612477,
				"z": -4.3004935768,
				"element": "H" 
			}
		],
		 "valence_orbital": [ 
			{
				"type": "occ",
				"energy": -0.25926,
				"method": "rhf"
			},
			{
				"type": "occ",
				"energy": -0.251,
				"method": "rhf"
			},
			{
				"type": "occ",
				"energy": -0.25078,
				"method": "rhf"
			},
			{
				"type": "occ",
				"energy": -0.23134,
				"method": "rhf"
			},
			{
				"type": "occ",
				"energy": -0.20204,
				"method": "rhf"
			},
			{
				"type": "unocc",
				"energy": -0.06038,
				"method": "rhf"
			},
			{
				"type": "unocc",
				"energy": -0.01635,
				"method": "rhf"
			},
			{
				"type": "unocc",
				"energy": -0.00633,
				"method": "rhf"
			},
			{
				"type": "unocc",
				"energy": -0.00073,
				"method": "rhf"
			},
			{
				"type": "unocc",
				"energy": 0.03869,
				"method": "rhf"
			}
		],
		"cosmo_sigma_profile": { 
			"-0.025": 0.0,
			"-0.024": 0.0,
			"-0.023": 0.0,
			"-0.022": 0.0,
			"-0.021": 0.0,
			"-0.02": 0.0,
			"-0.019": 0.0,
			"-0.018": 0.0,
			"-0.017": 0.0,
			"-0.016": 0.0,
			"-0.015": 0.0,
			"-0.014": 0.0754593188053,
			"-0.013": 2.29885249096,
			"-0.012": 2.67317781551,
			"-0.011": 3.13232602811,
			"-0.01": 2.80806144194,
			"-0.009": 3.43111430296,
			"-0.008": 3.27457120677,
			"-0.007": 6.17240522617,
			"-0.006": 16.4422953809,
			"-0.005": 20.1072556967,
			"-0.004": 21.7590814921,
			"-0.003": 17.2420207248,
			"-0.002": 15.8846992662,
			"-0.001": 16.4694261978,
			"0.0": 15.967608739,
			"0.001": 15.9510069887,
			"0.002": 19.2783443064,
			"0.003": 19.9545687984,
			"0.004": 25.7722480066,
			"0.005": 21.5451751422,
			"0.006": 5.30653354891,
			"0.007": 2.95139796441,
			"0.008": 2.13337940582,
			"0.009": 1.8530685042,
			"0.01": 2.8740609066,
			"0.011": 2.66895181113,
			"0.012": 3.31956160868,
			"0.013": 4.99581308111,
			"0.014": 2.18370553342,
			"0.015": 0.181140820643,
			"0.016": 0.0,
			"0.017": 0.0,
			"0.018": 0.0,
			"0.019": 0.0,
			"0.02": 0.0,
			"0.021": 0.0,
			"0.022": 0.0,
			"0.023": 0.0,
			"0.024": 0.0,
			"0.025": 0.0
		}
	}
}
