{
	 "smiles": "O=C1N(C(=NC1=C/C1=CC=CC=C1)N1CCOCC1)C1=CC=CC=C1", 
	 "Tm": 508.15, 
	 "num_atms": 44, 
	 "gaussian": { 
		 "optdone": 1, 
		 "sigma_profile": "yes", 
		 "theory": "DFT", 
		 "functional": "B3LYP", 
		 "basiset": "6-31G**", 
		 "properties": { 
			 "R2extent": 10484.2233, 
			 "electric_dipole_moment_norm": 4.58110351007, 
			 "electric_quadrupole_moment_norm": 16.4592430962, 
			 "total_energy": -1088.2670017, 
			 "HOMO_LUMO_gap": 0.1311, 
			 "cosmo_polarized_energy": -16.61, 
			 "cosmo_cavitation_energy": 46.54, 
			 "cosmo_dispersion_energy": -32.43, 
			 "cosmo_repulsion_energy": 2.43, 
			 "cosmo_total_nonelectrostatic_energy": 16.54, 
			 "SMD_solvation_energy": 7.01 
		},
		"coords": [
			{
				"x": -1.127206381,
				"y": -2.9753881123,
				"z": 1.2720009079,
				"element": "O" 
			},
			{
				"x": -1.0057883426,
				"y": -1.8243537075,
				"z": 0.9008696543,
				"element": "C" 
			},
			{
				"x": -0.2917216639,
				"y": -1.4012329258,
				"z": -0.2597105302,
				"element": "N" 
			},
			{
				"x": -0.4134814839,
				"y": -0.0032590173,
				"z": -0.3126384376,
				"element": "C" 
			},
			{
				"x": -1.1162842286,
				"y": 0.5143714801,
				"z": 0.6643215939,
				"element": "N" 
			},
			{
				"x": -1.5332875498,
				"y": -0.5498846886,
				"z": 1.4606371303,
				"element": "C" 
			},
			{
				"x": -2.2796285563,
				"y": -0.5422663804,
				"z": 2.5953414876,
				"element": "C" 
			},
			{
				"x": -2.8895097696,
				"y": 0.5729630757,
				"z": 3.3006139283,
				"element": "C" 
			},
			{
				"x": -2.7729199161,
				"y": 1.9169754434,
				"z": 2.8829000586,
				"element": "C" 
			},
			{
				"x": -3.3849639496,
				"y": 2.9356837111,
				"z": 3.6069550876,
				"element": "C" 
			},
			{
				"x": -4.1245785573,
				"y": 2.6472317031,
				"z": 4.7582367888,
				"element": "C" 
			},
			{
				"x": -4.2486768544,
				"y": 1.3228224745,
				"z": 5.1848477322,
				"element": "C" 
			},
			{
				"x": -3.6383637411,
				"y": 0.3000905489,
				"z": 4.4649148554,
				"element": "C" 
			},
			{
				"x": 0.1531465193,
				"y": 0.7354879737,
				"z": -1.314471668,
				"element": "N" 
			},
			{
				"x": 1.475108088,
				"y": 0.3843058372,
				"z": -1.8755900593,
				"element": "C" 
			},
			{
				"x": 2.3990753807,
				"y": 1.617546558,
				"z": -1.8269621507,
				"element": "C" 
			},
			{
				"x": 2.2402628899,
				"y": 2.3048508457,
				"z": -0.6028004433,
				"element": "O" 
			},
			{
				"x": 0.9547512144,
				"y": 2.9201398287,
				"z": -0.482943317,
				"element": "C" 
			},
			{
				"x": -0.1140054305,
				"y": 2.1760899795,
				"z": -1.303773156,
				"element": "C" 
			},
			{
				"x": 0.0733867077,
				"y": -2.311000249,
				"z": -1.2961612328,
				"element": "C" 
			},
			{
				"x": 0.869391537,
				"y": -3.417136366,
				"z": -0.9799570741,
				"element": "C" 
			},
			{
				"x": 1.1955216064,
				"y": -4.3389007364,
				"z": -1.974741997,
				"element": "C" 
			},
			{
				"x": 0.7414113593,
				"y": -4.1594175117,
				"z": -3.2825097488,
				"element": "C" 
			},
			{
				"x": -0.0575534837,
				"y": -3.0564975434,
				"z": -3.5917640695,
				"element": "C" 
			},
			{
				"x": -0.4046703883,
				"y": -2.1383224211,
				"z": -2.6012360242,
				"element": "C" 
			},
			{
				"x": -2.4366251544,
				"y": -1.527901235,
				"z": 3.0286949585,
				"element": "H" 
			},
			{
				"x": -2.1973567534,
				"y": 2.1368959715,
				"z": 1.9920072983,
				"element": "H" 
			},
			{
				"x": -3.2852467937,
				"y": 3.964943639,
				"z": 3.2728245074,
				"element": "H" 
			},
			{
				"x": -4.5992685121,
				"y": 3.448114635,
				"z": 5.3180144968,
				"element": "H" 
			},
			{
				"x": -4.8205455213,
				"y": 1.0883573736,
				"z": 6.0782424774,
				"element": "H" 
			},
			{
				"x": -3.736251509,
				"y": -0.7297108363,
				"z": 4.7991096608,
				"element": "H" 
			},
			{
				"x": 1.3827952173,
				"y": 0.0169408672,
				"z": -2.9056336993,
				"element": "H" 
			},
			{
				"x": 1.9107904427,
				"y": -0.4157266906,
				"z": -1.2753334923,
				"element": "H" 
			},
			{
				"x": 3.4420097487,
				"y": 1.2931066493,
				"z": -1.8808657857,
				"element": "H" 
			},
			{
				"x": 2.217592715,
				"y": 2.2806519992,
				"z": -2.6876239949,
				"element": "H" 
			},
			{
				"x": 1.0021164853,
				"y": 3.9724781574,
				"z": -0.8054515895,
				"element": "H" 
			},
			{
				"x": 0.701580165,
				"y": 2.8895105468,
				"z": 0.5797306028,
				"element": "H" 
			},
			{
				"x": -0.1193156442,
				"y": 2.5179323642,
				"z": -2.3444566964,
				"element": "H" 
			},
			{
				"x": -1.1042363168,
				"y": 2.3481326989,
				"z": -0.8834711938,
				"element": "H" 
			},
			{
				"x": 1.212034009,
				"y": -3.553243098,
				"z": 0.0387188398,
				"element": "H" 
			},
			{
				"x": 1.8099106759,
				"y": -5.1986158932,
				"z": -1.7243757539,
				"element": "H" 
			},
			{
				"x": 1.0031735401,
				"y": -4.8766064968,
				"z": -4.0546610695,
				"element": "H" 
			},
			{
				"x": -0.4257899586,
				"y": -2.915888309,
				"z": -4.6038538346,
				"element": "H" 
			},
			{
				"x": -1.0414818415,
				"y": -1.2905721431,
				"z": -2.8315950483,
				"element": "H" 
			}
		],
		 "valence_orbital": [ 
			{
				"type": "occ",
				"energy": -0.25302,
				"method": "rhf"
			},
			{
				"type": "occ",
				"energy": -0.24723,
				"method": "rhf"
			},
			{
				"type": "occ",
				"energy": -0.24469,
				"method": "rhf"
			},
			{
				"type": "occ",
				"energy": -0.23852,
				"method": "rhf"
			},
			{
				"type": "occ",
				"energy": -0.19324,
				"method": "rhf"
			},
			{
				"type": "unocc",
				"energy": -0.06214,
				"method": "rhf"
			},
			{
				"type": "unocc",
				"energy": -0.01687,
				"method": "rhf"
			},
			{
				"type": "unocc",
				"energy": -0.0111,
				"method": "rhf"
			},
			{
				"type": "unocc",
				"energy": 0.00633,
				"method": "rhf"
			},
			{
				"type": "unocc",
				"energy": 0.02732,
				"method": "rhf"
			}
		],
		"cosmo_sigma_profile": { 
			"-0.025": 0.0,
			"-0.024": 0.0,
			"-0.023": 0.0,
			"-0.022": 0.0,
			"-0.021": 0.0,
			"-0.02": 0.0,
			"-0.019": 0.0,
			"-0.018": 0.0,
			"-0.017": 0.0,
			"-0.016": 0.0,
			"-0.015": 0.0,
			"-0.014": 0.0,
			"-0.013": 0.0,
			"-0.012": 0.0,
			"-0.011": 0.0,
			"-0.01": 0.0,
			"-0.009": 0.0,
			"-0.008": 0.0,
			"-0.007": 2.88583966088,
			"-0.006": 25.1567625177,
			"-0.005": 38.9216358367,
			"-0.004": 40.0711140507,
			"-0.003": 34.5479255772,
			"-0.002": 28.8503685245,
			"-0.001": 22.9890120818,
			"0.0": 19.5749629657,
			"0.001": 20.6760037206,
			"0.002": 22.3359225083,
			"0.003": 24.9240843623,
			"0.004": 28.9087197886,
			"0.005": 23.6596236479,
			"0.006": 8.42145649625,
			"0.007": 5.49285101777,
			"0.008": 4.11364064735,
			"0.009": 2.94588351132,
			"0.01": 3.5039141533,
			"0.011": 4.19543325813,
			"0.012": 6.46405697656,
			"0.013": 2.19767753244,
			"0.014": 0.178027020968,
			"0.015": 0.0,
			"0.016": 0.0,
			"0.017": 0.0,
			"0.018": 0.0,
			"0.019": 0.0,
			"0.02": 0.0,
			"0.021": 0.0,
			"0.022": 0.0,
			"0.023": 0.0,
			"0.024": 0.0,
			"0.025": 0.0
		}
	}
}
