{
	 "smiles": "OC(=O)CCCOC1=CN=CC=C1", 
	 "Tm": 399.15, 
	 "num_atms": 24, 
	 "gaussian": { 
		 "optdone": 1, 
		 "sigma_profile": "yes", 
		 "theory": "DFT", 
		 "functional": "B3LYP", 
		 "basiset": "6-31G**", 
		 "properties": { 
			 "R2extent": 3450.0089, 
			 "electric_dipole_moment_norm": 2.76044415448, 
			 "electric_quadrupole_moment_norm": 12.2565799753, 
			 "total_energy": -630.014883107, 
			 "HOMO_LUMO_gap": 0.20991, 
			 "cosmo_polarized_energy": -13.41, 
			 "cosmo_cavitation_energy": 28.47, 
			 "cosmo_dispersion_energy": -20.52, 
			 "cosmo_repulsion_energy": 1.66, 
			 "cosmo_total_nonelectrostatic_energy": 9.6, 
			 "SMD_solvation_energy": 4.74 
		},
		"coords": [
			{
				"x": -0.8481085393,
				"y": -4.1707796352,
				"z": 1.2443545893,
				"element": "O" 
			},
			{
				"x": -0.1680271861,
				"y": -3.4128676855,
				"z": 0.3529884941,
				"element": "C" 
			},
			{
				"x": 1.044380606,
				"y": -3.3944382075,
				"z": 0.3063191789,
				"element": "O" 
			},
			{
				"x": -1.1062830091,
				"y": -2.6332397851,
				"z": -0.5430133045,
				"element": "C" 
			},
			{
				"x": -0.3799934032,
				"y": -1.7382574007,
				"z": -1.5513264983,
				"element": "C" 
			},
			{
				"x": 0.3131200288,
				"y": -0.5378537659,
				"z": -0.918275997,
				"element": "C" 
			},
			{
				"x": -0.6954266991,
				"y": 0.2714443218,
				"z": -0.3048991184,
				"element": "O" 
			},
			{
				"x": -0.3129781745,
				"y": 1.3953028448,
				"z": 0.3609116518,
				"element": "C" 
			},
			{
				"x": -1.3457161064,
				"y": 2.149793776,
				"z": 0.9472120348,
				"element": "C" 
			},
			{
				"x": -1.1420726403,
				"y": 3.2729553656,
				"z": 1.6301535179,
				"element": "N" 
			},
			{
				"x": 0.1226259395,
				"y": 3.7045748597,
				"z": 1.7628296834,
				"element": "C" 
			},
			{
				"x": 1.2120934142,
				"y": 3.0302068296,
				"z": 1.2198754329,
				"element": "C" 
			},
			{
				"x": 1.000399646,
				"y": 1.8502135146,
				"z": 0.5017406026,
				"element": "C" 
			},
			{
				"x": -0.1779552597,
				"y": -4.6350826308,
				"z": 1.7738117405,
				"element": "H" 
			},
			{
				"x": -1.7740420365,
				"y": -2.0413803228,
				"z": 0.0922088422,
				"element": "H" 
			},
			{
				"x": -1.7470264429,
				"y": -3.360328801,
				"z": -1.0558313559,
				"element": "H" 
			},
			{
				"x": -1.1018125599,
				"y": -1.3767817317,
				"z": -2.2913317911,
				"element": "H" 
			},
			{
				"x": 0.3772492338,
				"y": -2.3212475335,
				"z": -2.0854566061,
				"element": "H" 
			},
			{
				"x": 1.0435449524,
				"y": -0.8674542704,
				"z": -0.1702175397,
				"element": "H" 
			},
			{
				"x": 0.8408738008,
				"y": 0.0449270314,
				"z": -1.6858423274,
				"element": "H" 
			},
			{
				"x": -2.3713440415,
				"y": 1.8010749985,
				"z": 0.8398318242,
				"element": "H" 
			},
			{
				"x": 0.2621660108,
				"y": 4.6249302075,
				"z": 2.3255377126,
				"element": "H" 
			},
			{
				"x": 2.2182929481,
				"y": 3.4164470552,
				"z": 1.3523439275,
				"element": "H" 
			},
			{
				"x": 1.8372395181,
				"y": 1.3116409655,
				"z": 0.0726753056,
				"element": "H" 
			}
		],
		 "valence_orbital": [ 
			{
				"type": "occ",
				"energy": -0.32375,
				"method": "rhf"
			},
			{
				"type": "occ",
				"energy": -0.2824,
				"method": "rhf"
			},
			{
				"type": "occ",
				"energy": -0.27858,
				"method": "rhf"
			},
			{
				"type": "occ",
				"energy": -0.24861,
				"method": "rhf"
			},
			{
				"type": "occ",
				"energy": -0.22816,
				"method": "rhf"
			},
			{
				"type": "unocc",
				"energy": -0.01825,
				"method": "rhf"
			},
			{
				"type": "unocc",
				"energy": 0.00285,
				"method": "rhf"
			},
			{
				"type": "unocc",
				"energy": 0.00359,
				"method": "rhf"
			},
			{
				"type": "unocc",
				"energy": 0.07408,
				"method": "rhf"
			},
			{
				"type": "unocc",
				"energy": 0.09078,
				"method": "rhf"
			}
		],
		"cosmo_sigma_profile": { 
			"-0.025": 0.0,
			"-0.024": 0.0,
			"-0.023": 0.0,
			"-0.022": 0.0,
			"-0.021": 0.0,
			"-0.02": 0.0,
			"-0.019": 0.0,
			"-0.018": 0.543790157763,
			"-0.017": 1.12965326413,
			"-0.016": 0.649575160969,
			"-0.015": 0.882224139554,
			"-0.014": 0.914039243722,
			"-0.013": 0.542928012184,
			"-0.012": 0.319710003008,
			"-0.011": 0.890541605079,
			"-0.01": 1.12380697257,
			"-0.009": 0.392722582729,
			"-0.008": 0.714976276725,
			"-0.007": 5.24500809769,
			"-0.006": 13.5209151661,
			"-0.005": 17.6526159942,
			"-0.004": 22.7833843374,
			"-0.003": 20.2478868782,
			"-0.002": 16.214489941,
			"-0.001": 13.5235025732,
			"0.0": 11.6249909123,
			"0.001": 12.0012149665,
			"0.002": 16.014116244,
			"0.003": 15.4740564528,
			"0.004": 10.4951751357,
			"0.005": 6.05883739005,
			"0.006": 5.24231409832,
			"0.007": 4.6823998882,
			"0.008": 5.19485016594,
			"0.009": 4.84580296426,
			"0.01": 4.1101454336,
			"0.011": 3.93726803399,
			"0.012": 4.12742450716,
			"0.013": 1.00346211752,
			"0.014": 0.835190821384,
			"0.015": 1.15406336978,
			"0.016": 0.815577465677,
			"0.017": 0.4614624818,
			"0.018": 0.0115095338252,
			"0.019": 0.0,
			"0.02": 0.0,
			"0.021": 0.0,
			"0.022": 0.0,
			"0.023": 0.0,
			"0.024": 0.0,
			"0.025": 0.0
		}
	}
}
