{
	 "smiles": "CNS(=O)(=O)C1=CC(N)=C(NCCOC)C=C1", 
	 "Tm": 385.15, 
	 "num_atms": 34, 
	 "gaussian": { 
		 "optdone": 1, 
		 "sigma_profile": "yes", 
		 "theory": "DFT", 
		 "functional": "B3LYP", 
		 "basiset": "6-31G**", 
		 "properties": { 
			 "R2extent": 6679.7105, 
			 "electric_dipole_moment_norm": 5.79374593333, 
			 "electric_quadrupole_moment_norm": 23.0078917194, 
			 "total_energy": -1179.34079764, 
			 "HOMO_LUMO_gap": 0.18333, 
			 "cosmo_polarized_energy": -19.87, 
			 "cosmo_cavitation_energy": 38.25, 
			 "cosmo_dispersion_energy": -27.09, 
			 "cosmo_repulsion_energy": 2.11, 
			 "cosmo_total_nonelectrostatic_energy": 13.28, 
			 "SMD_solvation_energy": 4.9 
		},
		"coords": [
			{
				"x": -0.0983717191,
				"y": 1.100458497,
				"z": -4.3351896195,
				"element": "C" 
			},
			{
				"x": 1.0360284907,
				"y": 0.2857707325,
				"z": -3.8847597546,
				"element": "N" 
			},
			{
				"x": 2.2810934625,
				"y": 1.0952398414,
				"z": -3.0619094319,
				"element": "S" 
			},
			{
				"x": 3.4300958991,
				"y": 0.1888075087,
				"z": -3.1627071057,
				"element": "O" 
			},
			{
				"x": 2.3773001367,
				"y": 2.4904289338,
				"z": -3.5163836716,
				"element": "O" 
			},
			{
				"x": 1.67905413,
				"y": 1.1158345604,
				"z": -1.379535254,
				"element": "C" 
			},
			{
				"x": 1.2069071112,
				"y": 2.3164376256,
				"z": -0.847605537,
				"element": "C" 
			},
			{
				"x": 0.7478793416,
				"y": 2.3623263148,
				"z": 0.473185302,
				"element": "C" 
			},
			{
				"x": 0.278206177,
				"y": 3.5451660293,
				"z": 1.0497863291,
				"element": "N" 
			},
			{
				"x": 0.7432059911,
				"y": 1.1712637941,
				"z": 1.24413296,
				"element": "C" 
			},
			{
				"x": 0.3012548363,
				"y": 1.2432824578,
				"z": 2.5894102039,
				"element": "N" 
			},
			{
				"x": -1.151928696,
				"y": 1.380729989,
				"z": 2.8063888463,
				"element": "C" 
			},
			{
				"x": -1.9379947455,
				"y": 0.1181272657,
				"z": 2.4661984208,
				"element": "C" 
			},
			{
				"x": -1.4168839483,
				"y": -0.9359066535,
				"z": 3.2594835297,
				"element": "O" 
			},
			{
				"x": -2.0414447109,
				"y": -2.1788769428,
				"z": 3.0126757241,
				"element": "C" 
			},
			{
				"x": 1.2418316618,
				"y": -0.0115622275,
				"z": 0.6845814996,
				"element": "C" 
			},
			{
				"x": 1.7224166421,
				"y": -0.0546908301,
				"z": -0.6223867883,
				"element": "C" 
			},
			{
				"x": 0.1889509382,
				"y": 1.9253366728,
				"z": -4.9969714896,
				"element": "H" 
			},
			{
				"x": -0.6096866494,
				"y": 1.5134342445,
				"z": -3.461485639,
				"element": "H" 
			},
			{
				"x": -0.7995650368,
				"y": 0.4413964681,
				"z": -4.8531904243,
				"element": "H" 
			},
			{
				"x": 1.4856784482,
				"y": -0.2410069074,
				"z": -4.6308039458,
				"element": "H" 
			},
			{
				"x": 1.2399085595,
				"y": 3.2168139425,
				"z": -1.4526739895,
				"element": "H" 
			},
			{
				"x": 0.4442977195,
				"y": 3.56899542,
				"z": 2.0511552454,
				"element": "H" 
			},
			{
				"x": 0.6056573663,
				"y": 4.385929305,
				"z": 0.5916072285,
				"element": "H" 
			},
			{
				"x": 0.6172934584,
				"y": 0.4282945906,
				"z": 3.1070123552,
				"element": "H" 
			},
			{
				"x": -1.3069881489,
				"y": 1.6218586548,
				"z": 3.8637971183,
				"element": "H" 
			},
			{
				"x": -1.524947482,
				"y": 2.2187796795,
				"z": 2.2112757995,
				"element": "H" 
			},
			{
				"x": -3.0100697908,
				"y": 0.273020044,
				"z": 2.6753311761,
				"element": "H" 
			},
			{
				"x": -1.8370724098,
				"y": -0.1219954737,
				"z": 1.395191288,
				"element": "H" 
			},
			{
				"x": -3.1171184261,
				"y": -2.1472546613,
				"z": 3.2456760003,
				"element": "H" 
			},
			{
				"x": -1.5628743451,
				"y": -2.9185624898,
				"z": 3.659117946,
				"element": "H" 
			},
			{
				"x": -1.9256608548,
				"y": -2.4932735712,
				"z": 1.9638326368,
				"element": "H" 
			},
			{
				"x": 1.2429236659,
				"y": -0.9124936605,
				"z": 1.2927205936,
				"element": "H" 
			},
			{
				"x": 2.1160229274,
				"y": -0.9709091539,
				"z": -1.0465575524,
				"element": "H" 
			}
		],
		 "valence_orbital": [ 
			{
				"type": "occ",
				"energy": -0.28597,
				"method": "rhf"
			},
			{
				"type": "occ",
				"energy": -0.26716,
				"method": "rhf"
			},
			{
				"type": "occ",
				"energy": -0.26047,
				"method": "rhf"
			},
			{
				"type": "occ",
				"energy": -0.23698,
				"method": "rhf"
			},
			{
				"type": "occ",
				"energy": -0.20472,
				"method": "rhf"
			},
			{
				"type": "unocc",
				"energy": -0.02139,
				"method": "rhf"
			},
			{
				"type": "unocc",
				"energy": 0.0008,
				"method": "rhf"
			},
			{
				"type": "unocc",
				"energy": 0.06914,
				"method": "rhf"
			},
			{
				"type": "unocc",
				"energy": 0.07717,
				"method": "rhf"
			},
			{
				"type": "unocc",
				"energy": 0.08728,
				"method": "rhf"
			}
		],
		"cosmo_sigma_profile": { 
			"-0.025": 0.0,
			"-0.024": 0.0,
			"-0.023": 0.0,
			"-0.022": 0.0,
			"-0.021": 0.0,
			"-0.02": 0.0,
			"-0.019": 0.0,
			"-0.018": 0.0,
			"-0.017": 0.0,
			"-0.016": 0.0,
			"-0.015": 0.177653121022,
			"-0.014": 1.01893637717,
			"-0.013": 1.65237512946,
			"-0.012": 2.46962417018,
			"-0.011": 3.16956838915,
			"-0.01": 4.38198906477,
			"-0.009": 4.27894152718,
			"-0.008": 4.5558185348,
			"-0.007": 4.62820565028,
			"-0.006": 10.0886788042,
			"-0.005": 14.0192328307,
			"-0.004": 25.1434380648,
			"-0.003": 36.3086501349,
			"-0.002": 34.2158819697,
			"-0.001": 20.477009319,
			"0.0": 15.2109743059,
			"0.001": 14.3297426211,
			"0.002": 11.5178486823,
			"0.003": 15.1198241848,
			"0.004": 16.1756821394,
			"0.005": 8.6513204685,
			"0.006": 6.35003182761,
			"0.007": 6.23112729862,
			"0.008": 6.66656130194,
			"0.009": 6.04548759294,
			"0.01": 7.4591366411,
			"0.011": 11.9833263168,
			"0.012": 7.58950147631,
			"0.013": 0.543140011175,
			"0.014": 0.0,
			"0.015": 0.0,
			"0.016": 0.0,
			"0.017": 0.0,
			"0.018": 0.0,
			"0.019": 0.0,
			"0.02": 0.0,
			"0.021": 0.0,
			"0.022": 0.0,
			"0.023": 0.0,
			"0.024": 0.0,
			"0.025": 0.0
		}
	}
}
