{
	 "smiles": "BrCC(=O)C1=CC=CO1", 
	 "Tm": 307.15, 
	 "num_atms": 14, 
	 "gaussian": { 
		 "optdone": 1, 
		 "sigma_profile": "yes", 
		 "theory": "DFT", 
		 "functional": "B3LYP", 
		 "basiset": "6-31G**", 
		 "properties": { 
			 "R2extent": 2274.5044, 
			 "electric_dipole_moment_norm": 3.57080609807, 
			 "electric_quadrupole_moment_norm": 5.46889097533, 
			 "total_energy": -2953.47073478, 
			 "HOMO_LUMO_gap": 0.17544, 
			 "cosmo_polarized_energy": -9.13, 
			 "cosmo_cavitation_energy": 21.37, 
			 "cosmo_dispersion_energy": -15.8, 
			 "cosmo_repulsion_energy": 1.31, 
			 "cosmo_total_nonelectrostatic_energy": 6.88, 
			 "SMD_solvation_energy": 4.24 
		},
		"coords": [
			{
				"x": -0.125670371,
				"y": -2.0999155982,
				"z": 2.035492043,
				"element": "Br" 
			},
			{
				"x": 1.5732326084,
				"y": -1.0982768088,
				"z": 1.8619503955,
				"element": "C" 
			},
			{
				"x": 1.2892437478,
				"y": 0.3153198345,
				"z": 1.3740901008,
				"element": "C" 
			},
			{
				"x": 1.3012789034,
				"y": 1.2603292495,
				"z": 2.1490998915,
				"element": "O" 
			},
			{
				"x": 1.0186584773,
				"y": 0.5087870238,
				"z": -0.0496248654,
				"element": "C" 
			},
			{
				"x": 0.6924708182,
				"y": 1.6364859641,
				"z": -0.7612829993,
				"element": "C" 
			},
			{
				"x": 0.5565899799,
				"y": 1.2327570429,
				"z": -2.1186986984,
				"element": "C" 
			},
			{
				"x": 0.8120660311,
				"y": -0.111148136,
				"z": -2.1405192852,
				"element": "C" 
			},
			{
				"x": 1.0951958458,
				"y": -0.5681028347,
				"z": -0.8985178099,
				"element": "O" 
			},
			{
				"x": 2.1873196939,
				"y": -1.6744719392,
				"z": 1.1716604206,
				"element": "H" 
			},
			{
				"x": 2.0086489899,
				"y": -1.0538717651,
				"z": 2.8571527553,
				"element": "H" 
			},
			{
				"x": 0.5679999498,
				"y": 2.6236021952,
				"z": -0.3416517885,
				"element": "H" 
			},
			{
				"x": 0.3032999286,
				"y": 1.851103299,
				"z": -2.9674623218,
				"element": "H" 
			},
			{
				"x": 0.8305653967,
				"y": -0.8473975272,
				"z": -2.9296878384,
				"element": "H" 
			}
		],
		 "valence_orbital": [ 
			{
				"type": "occ",
				"energy": -0.30098,
				"method": "rhf"
			},
			{
				"type": "occ",
				"energy": -0.29085,
				"method": "rhf"
			},
			{
				"type": "occ",
				"energy": -0.27911,
				"method": "rhf"
			},
			{
				"type": "occ",
				"energy": -0.26039,
				"method": "rhf"
			},
			{
				"type": "occ",
				"energy": -0.24937,
				"method": "rhf"
			},
			{
				"type": "unocc",
				"energy": -0.07393,
				"method": "rhf"
			},
			{
				"type": "unocc",
				"energy": -0.00812,
				"method": "rhf"
			},
			{
				"type": "unocc",
				"energy": 0.03431,
				"method": "rhf"
			},
			{
				"type": "unocc",
				"energy": 0.08793,
				"method": "rhf"
			},
			{
				"type": "unocc",
				"energy": 0.10425,
				"method": "rhf"
			}
		],
		"cosmo_sigma_profile": { 
			"-0.025": 0.0,
			"-0.024": 0.0,
			"-0.023": 0.0,
			"-0.022": 0.0,
			"-0.021": 0.0,
			"-0.02": 0.0,
			"-0.019": 0.0,
			"-0.018": 0.0,
			"-0.017": 0.0,
			"-0.016": 0.0,
			"-0.015": 0.0,
			"-0.014": 0.0,
			"-0.013": 0.0,
			"-0.012": 0.0,
			"-0.011": 0.0625737317431,
			"-0.01": 1.73793342736,
			"-0.009": 3.52384166718,
			"-0.008": 8.87919018332,
			"-0.007": 8.4470758719,
			"-0.006": 9.12779669114,
			"-0.005": 9.78664160232,
			"-0.004": 8.56332615323,
			"-0.003": 8.27400194929,
			"-0.002": 9.06606507043,
			"-0.001": 8.63029981932,
			"0.0": 12.0282284701,
			"0.001": 15.4981116806,
			"0.002": 15.2710464052,
			"0.003": 13.1227247972,
			"0.004": 10.3961311602,
			"0.005": 13.1218120209,
			"0.006": 4.60510162686,
			"0.007": 1.61015462679,
			"0.008": 1.85301506795,
			"0.009": 1.49288133272,
			"0.01": 2.60014311259,
			"0.011": 4.55289655854,
			"0.012": 2.61903529653,
			"0.013": 0.14740744147,
			"0.014": 0.0,
			"0.015": 0.0,
			"0.016": 0.0,
			"0.017": 0.0,
			"0.018": 0.0,
			"0.019": 0.0,
			"0.02": 0.0,
			"0.021": 0.0,
			"0.022": 0.0,
			"0.023": 0.0,
			"0.024": 0.0,
			"0.025": 0.0
		}
	}
}
