{
	 "smiles": "COC1=CC=C2C=CC=CC2=C1", 
	 "Tm": 346.15, 
	 "num_atms": 22, 
	 "gaussian": { 
		 "optdone": 1, 
		 "sigma_profile": "yes", 
		 "theory": "DFT", 
		 "functional": "B3LYP", 
		 "basiset": "6-31G**", 
		 "properties": { 
			 "R2extent": 2442.2998, 
			 "electric_dipole_moment_norm": 1.19479105286, 
			 "electric_quadrupole_moment_norm": 8.62932710065, 
			 "total_energy": -500.421420327, 
			 "HOMO_LUMO_gap": 0.1734, 
			 "cosmo_polarized_energy": -6.3, 
			 "cosmo_cavitation_energy": 25.31, 
			 "cosmo_dispersion_energy": -18.98, 
			 "cosmo_repulsion_energy": 1.48, 
			 "cosmo_total_nonelectrostatic_energy": 7.81, 
			 "SMD_solvation_energy": 4.83 
		},
		"coords": [
			{
				"x": -1.4815423913,
				"y": 1.6981616292,
				"z": 2.1309682948,
				"element": "C" 
			},
			{
				"x": -1.9131767974,
				"y": 1.0524881664,
				"z": 0.9443625937,
				"element": "O" 
			},
			{
				"x": -0.9613762015,
				"y": 0.5464770788,
				"z": 0.1078856688,
				"element": "C" 
			},
			{
				"x": -1.477604365,
				"y": -0.0849267495,
				"z": -1.0585834546,
				"element": "C" 
			},
			{
				"x": -0.6261921514,
				"y": -0.635173096,
				"z": -1.9812364171,
				"element": "C" 
			},
			{
				"x": 0.7853558709,
				"y": -0.5914393412,
				"z": -1.8012401397,
				"element": "C" 
			},
			{
				"x": 1.6899423021,
				"y": -1.1523566161,
				"z": -2.7391165377,
				"element": "C" 
			},
			{
				"x": 3.051179375,
				"y": -1.0920570008,
				"z": -2.5331236737,
				"element": "C" 
			},
			{
				"x": 3.5633641101,
				"y": -0.4638747101,
				"z": -1.3728158928,
				"element": "C" 
			},
			{
				"x": 2.709867123,
				"y": 0.0901928246,
				"z": -0.4434612367,
				"element": "C" 
			},
			{
				"x": 1.3016075277,
				"y": 0.0446159419,
				"z": -0.6264644828,
				"element": "C" 
			},
			{
				"x": 0.4013511553,
				"y": 0.6100217888,
				"z": 0.3198411371,
				"element": "C" 
			},
			{
				"x": -0.9196096173,
				"y": 1.0147145775,
				"z": 2.7808415741,
				"element": "H" 
			},
			{
				"x": -2.3869479847,
				"y": 2.0224272484,
				"z": 2.6461970946,
				"element": "H" 
			},
			{
				"x": -0.8569709966,
				"y": 2.5735305252,
				"z": 1.9099407615,
				"element": "H" 
			},
			{
				"x": -2.5546549562,
				"y": -0.1135350796,
				"z": -1.1873332703,
				"element": "H" 
			},
			{
				"x": -1.0266693229,
				"y": -1.116106587,
				"z": -2.8701074833,
				"element": "H" 
			},
			{
				"x": 1.2882220088,
				"y": -1.6331614218,
				"z": -3.6278634905,
				"element": "H" 
			},
			{
				"x": 3.7338498005,
				"y": -1.5250946263,
				"z": -3.2583203862,
				"element": "H" 
			},
			{
				"x": 4.637504407,
				"y": -0.4194971849,
				"z": -1.2160800941,
				"element": "H" 
			},
			{
				"x": 3.1064488716,
				"y": 0.5721087936,
				"z": 0.4468745348,
				"element": "H" 
			},
			{
				"x": 0.8133522322,
				"y": 1.0866838389,
				"z": 1.2021349002,
				"element": "H" 
			}
		],
		 "valence_orbital": [ 
			{
				"type": "occ",
				"energy": -0.32158,
				"method": "rhf"
			},
			{
				"type": "occ",
				"energy": -0.29646,
				"method": "rhf"
			},
			{
				"type": "occ",
				"energy": -0.27591,
				"method": "rhf"
			},
			{
				"type": "occ",
				"energy": -0.22586,
				"method": "rhf"
			},
			{
				"type": "occ",
				"energy": -0.20398,
				"method": "rhf"
			},
			{
				"type": "unocc",
				"energy": -0.03058,
				"method": "rhf"
			},
			{
				"type": "unocc",
				"energy": 0.00112,
				"method": "rhf"
			},
			{
				"type": "unocc",
				"energy": 0.03818,
				"method": "rhf"
			},
			{
				"type": "unocc",
				"energy": 0.09544,
				"method": "rhf"
			},
			{
				"type": "unocc",
				"energy": 0.10278,
				"method": "rhf"
			}
		],
		"cosmo_sigma_profile": { 
			"-0.025": 0.0,
			"-0.024": 0.0,
			"-0.023": 0.0,
			"-0.022": 0.0,
			"-0.021": 0.0,
			"-0.02": 0.0,
			"-0.019": 0.0,
			"-0.018": 0.0,
			"-0.017": 0.0,
			"-0.016": 0.0,
			"-0.015": 0.0,
			"-0.014": 0.0,
			"-0.013": 0.0,
			"-0.012": 0.0,
			"-0.011": 0.0,
			"-0.01": 0.0,
			"-0.009": 0.0,
			"-0.008": 0.0,
			"-0.007": 0.194156599102,
			"-0.006": 11.2634968596,
			"-0.005": 23.3683436965,
			"-0.004": 19.8441161243,
			"-0.003": 22.5678150074,
			"-0.002": 12.1984392123,
			"-0.001": 11.3690598179,
			"0.0": 9.02668181387,
			"0.001": 9.50104338499,
			"0.002": 11.6051014738,
			"0.003": 14.256843829,
			"0.004": 22.5158822241,
			"0.005": 21.3196165121,
			"0.006": 7.56859557369,
			"0.007": 0.762488117236,
			"0.008": 1.89220170003,
			"0.009": 1.21430021275,
			"0.01": 1.55561718746,
			"0.011": 0.222345431798,
			"0.012": 0.0,
			"0.013": 0.0,
			"0.014": 0.0,
			"0.015": 0.0,
			"0.016": 0.0,
			"0.017": 0.0,
			"0.018": 0.0,
			"0.019": 0.0,
			"0.02": 0.0,
			"0.021": 0.0,
			"0.022": 0.0,
			"0.023": 0.0,
			"0.024": 0.0,
			"0.025": 0.0
		}
	}
}
