{
	 "smiles": "CC(=O)NC1=C(C=C(I)C=C1)C(F)(F)F", 
	 "Tm": 408.15, 
	 "num_atms": 22, 
	 "gaussian": { 
		 "optdone": 1, 
		 "sigma_profile": "no", 
		 "theory": "DFT", 
		 "functional": "B3LYP", 
		 "basiset": "6-31G**", 
		 "properties": { 
			 "R2extent": 4173.7984, 
			 "electric_dipole_moment_norm": 4.96180543149, 
			 "electric_quadrupole_moment_norm": 9.4197959272, 
			 "total_energy": -788.07396817, 
			 "HOMO_LUMO_gap": 0.19396, 
			 "cosmo_polarized_energy": -102796.66, 
			 "cosmo_cavitation_energy": 30.8, 
			 "cosmo_dispersion_energy": -23.07, 
			 "cosmo_repulsion_energy": 1.74, 
			 "cosmo_total_nonelectrostatic_energy": 9.46, 
			 "SMD_solvation_energy": 6.2 
		},
		"coords": [
			{
				"x": 0.1826907065,
				"y": -3.1758599464,
				"z": 0.7299104292,
				"element": "C" 
			},
			{
				"x": -0.6287762936,
				"y": -2.1205968091,
				"z": -0.0010668662,
				"element": "C" 
			},
			{
				"x": -1.7259198557,
				"y": -2.3361996934,
				"z": -0.4797704149,
				"element": "O" 
			},
			{
				"x": -0.0321526809,
				"y": -0.8668013915,
				"z": -0.0379826079,
				"element": "N" 
			},
			{
				"x": -0.5790636676,
				"y": 0.2620506838,
				"z": -0.6941310702,
				"element": "C" 
			},
			{
				"x": -1.8368339389,
				"y": 0.8168148692,
				"z": -0.3866297473,
				"element": "C" 
			},
			{
				"x": -2.2907445228,
				"y": 1.9321189808,
				"z": -1.1028922568,
				"element": "C" 
			},
			{
				"x": -1.4997902924,
				"y": 2.5188953775,
				"z": -2.0854282712,
				"element": "C" 
			},
			{
				"x": -2.2138454621,
				"y": 4.2105029355,
				"z": -3.1374075462,
				"element": "I" 
			},
			{
				"x": -0.2341184994,
				"y": 2.0048439282,
				"z": -2.3689688973,
				"element": "C" 
			},
			{
				"x": 0.2050732448,
				"y": 0.8810378755,
				"z": -1.6781020555,
				"element": "C" 
			},
			{
				"x": -2.7656645691,
				"y": 0.3176105711,
				"z": 0.7040287114,
				"element": "C" 
			},
			{
				"x": -3.737588198,
				"y": -0.4758668641,
				"z": 0.2257265386,
				"element": "F" 
			},
			{
				"x": -3.3856581624,
				"y": 1.3722327817,
				"z": 1.2955470726,
				"element": "F" 
			},
			{
				"x": -2.1249814631,
				"y": -0.3467934433,
				"z": 1.6857877144,
				"element": "F" 
			},
			{
				"x": -0.088818424,
				"y": -3.1581046968,
				"z": 1.7909815989,
				"element": "H" 
			},
			{
				"x": 1.2634575488,
				"y": -3.0217001399,
				"z": 0.6531770873,
				"element": "H" 
			},
			{
				"x": -0.0768894991,
				"y": -4.1556548732,
				"z": 0.3280072614,
				"element": "H" 
			},
			{
				"x": 0.9497628911,
				"y": -0.8131259946,
				"z": 0.1916720453,
				"element": "H" 
			},
			{
				"x": -3.258311312,
				"y": 2.3512636728,
				"z": -0.8575632799,
				"element": "H" 
			},
			{
				"x": 0.3957149998,
				"y": 2.4583186659,
				"z": -3.1257580366,
				"element": "H" 
			},
			{
				"x": 1.1748574501,
				"y": 0.4532135104,
				"z": -1.9160374092,
				"element": "H" 
			}
		],
		 "valence_orbital": [ 
			{
				"type": "occ",
				"energy": -0.28285,
				"method": "rhf"
			},
			{
				"type": "occ",
				"energy": -0.27945,
				"method": "rhf"
			},
			{
				"type": "occ",
				"energy": -0.27603,
				"method": "rhf"
			},
			{
				"type": "occ",
				"energy": -0.26107,
				"method": "rhf"
			},
			{
				"type": "occ",
				"energy": -0.24094,
				"method": "rhf"
			},
			{
				"type": "unocc",
				"energy": -0.04698,
				"method": "rhf"
			},
			{
				"type": "unocc",
				"energy": -0.0424,
				"method": "rhf"
			},
			{
				"type": "unocc",
				"energy": -0.03567,
				"method": "rhf"
			},
			{
				"type": "unocc",
				"energy": 0.01959,
				"method": "rhf"
			},
			{
				"type": "unocc",
				"energy": 0.04014,
				"method": "rhf"
			}
		],
		"cosmo_sigma_profile": { 
			"0.0": 0.0,
			"0.0": 0.0,
			"0.0": 0.0,
			"0.0": 0.0,
			"0.0": 0.0,
			"0.0": 0.0,
			"0.0": 0.0,
			"0.0": 0.0,
			"0.0": 0.0,
			"0.0": 0.0,
			"0.0": 0.0,
			"0.0": 0.0,
			"0.0": 0.0,
			"0.0": 0.0,
			"0.0": 0.0,
			"0.0": 0.0,
			"0.0": 0.0,
			"0.0": 0.0,
			"0.0": 0.0,
			"0.0": 0.0,
			"0.0": 0.0,
			"0.0": 0.0,
			"0.0": 0.0,
			"0.0": 0.0,
			"0.0": 0.0,
			"0.0": 0.0,
			"0.0": 0.0,
			"0.0": 0.0,
			"0.0": 0.0,
			"0.0": 0.0,
			"0.0": 0.0,
			"0.0": 0.0,
			"0.0": 0.0,
			"0.0": 0.0,
			"0.0": 0.0,
			"0.0": 0.0,
			"0.0": 0.0,
			"0.0": 0.0,
			"0.0": 0.0,
			"0.0": 0.0,
			"0.0": 0.0,
			"0.0": 0.0,
			"0.0": 0.0,
			"0.0": 0.0,
			"0.0": 0.0,
			"0.0": 0.0,
			"0.0": 0.0,
			"0.0": 0.0,
			"0.0": 0.0,
			"0.0": 0.0,
			"0.0": 0.0
		}
	}
}
