{
	 "smiles": "CCC(CO)(CO)CO", 
	 "Tm": 333.15, 
	 "num_atms": 23, 
	 "gaussian": { 
		 "optdone": 1, 
		 "sigma_profile": "yes", 
		 "theory": "DFT", 
		 "functional": "B3LYP", 
		 "basiset": "6-31G**", 
		 "properties": { 
			 "R2extent": 1952.9811, 
			 "electric_dipole_moment_norm": 3.554962087, 
			 "electric_quadrupole_moment_norm": 13.6716430465, 
			 "total_energy": -462.723320015, 
			 "HOMO_LUMO_gap": 0.29851, 
			 "cosmo_polarized_energy": -12.78, 
			 "cosmo_cavitation_energy": 23.44, 
			 "cosmo_dispersion_energy": -17.43, 
			 "cosmo_repulsion_energy": 1.45, 
			 "cosmo_total_nonelectrostatic_energy": 7.46, 
			 "SMD_solvation_energy": 4.29 
		},
		"coords": [
			{
				"x": 0.5537430531,
				"y": -1.4741376057,
				"z": 0.0847359856,
				"element": "C" 
			},
			{
				"x": -0.0717371234,
				"y": -0.4370429375,
				"z": -0.8561125262,
				"element": "C" 
			},
			{
				"x": 0.6083709453,
				"y": 0.9570537175,
				"z": -0.8955105201,
				"element": "C" 
			},
			{
				"x": 2.1402617398,
				"y": 0.8347228923,
				"z": -1.1089080874,
				"element": "C" 
			},
			{
				"x": 2.4974147635,
				"y": -0.0516193038,
				"z": -2.1555159196,
				"element": "O" 
			},
			{
				"x": -0.0110120871,
				"y": 1.7890112456,
				"z": -2.0350549203,
				"element": "C" 
			},
			{
				"x": 0.3026589583,
				"y": 1.1777109039,
				"z": -3.29611358,
				"element": "O" 
			},
			{
				"x": 0.3357130684,
				"y": 1.7025608999,
				"z": 0.4218632249,
				"element": "C" 
			},
			{
				"x": 0.942102431,
				"y": 2.9927768924,
				"z": 0.3727951179,
				"element": "O" 
			},
			{
				"x": 1.570088445,
				"y": -1.7204440247,
				"z": -0.2331808292,
				"element": "H" 
			},
			{
				"x": 0.5903757533,
				"y": -1.1363587553,
				"z": 1.1263184665,
				"element": "H" 
			},
			{
				"x": -0.0327025172,
				"y": -2.3988079129,
				"z": 0.0669097962,
				"element": "H" 
			},
			{
				"x": -1.1300170526,
				"y": -0.2914971684,
				"z": -0.5959191623,
				"element": "H" 
			},
			{
				"x": -0.0606542202,
				"y": -0.8408552367,
				"z": -1.871866501,
				"element": "H" 
			},
			{
				"x": 2.6034098205,
				"y": 0.4402623576,
				"z": -0.1973276525,
				"element": "H" 
			},
			{
				"x": 2.5578257486,
				"y": 1.840009534,
				"z": -1.266524658,
				"element": "H" 
			},
			{
				"x": 1.9763104014,
				"y": 0.2318335338,
				"z": -2.923495675,
				"element": "H" 
			},
			{
				"x": 0.386682904,
				"y": 2.8097149034,
				"z": -1.9910297081,
				"element": "H" 
			},
			{
				"x": -1.1037184356,
				"y": 1.8411968863,
				"z": -1.9028699493,
				"element": "H" 
			},
			{
				"x": 0.0767012242,
				"y": 1.7969751669,
				"z": -3.9999799157,
				"element": "H" 
			},
			{
				"x": 0.7378145847,
				"y": 1.1152811147,
				"z": 1.2599506259,
				"element": "H" 
			},
			{
				"x": -0.7538138701,
				"y": 1.7867782007,
				"z": 0.5723214456,
				"element": "H" 
			},
			{
				"x": 0.8218814651,
				"y": 3.4151746962,
				"z": 1.231614942,
				"element": "H" 
			}
		],
		 "valence_orbital": [ 
			{
				"type": "occ",
				"energy": -0.31099,
				"method": "rhf"
			},
			{
				"type": "occ",
				"energy": -0.29601,
				"method": "rhf"
			},
			{
				"type": "occ",
				"energy": -0.27529,
				"method": "rhf"
			},
			{
				"type": "occ",
				"energy": -0.26983,
				"method": "rhf"
			},
			{
				"type": "occ",
				"energy": -0.23812,
				"method": "rhf"
			},
			{
				"type": "unocc",
				"energy": 0.06039,
				"method": "rhf"
			},
			{
				"type": "unocc",
				"energy": 0.07085,
				"method": "rhf"
			},
			{
				"type": "unocc",
				"energy": 0.0936,
				"method": "rhf"
			},
			{
				"type": "unocc",
				"energy": 0.12053,
				"method": "rhf"
			},
			{
				"type": "unocc",
				"energy": 0.13978,
				"method": "rhf"
			}
		],
		"cosmo_sigma_profile": { 
			"-0.025": 0.0,
			"-0.024": 0.0,
			"-0.023": 0.0,
			"-0.022": 0.0,
			"-0.021": 0.0,
			"-0.02": 0.0,
			"-0.019": 0.0,
			"-0.018": 0.0,
			"-0.017": 0.0920345344215,
			"-0.016": 1.43074111247,
			"-0.015": 2.50715449698,
			"-0.014": 1.87226119726,
			"-0.013": 0.907114471932,
			"-0.012": 2.22340432496,
			"-0.011": 2.02963974191,
			"-0.01": 1.60572754941,
			"-0.009": 1.6985979646,
			"-0.008": 1.38699897114,
			"-0.007": 1.66478869701,
			"-0.006": 3.11806105832,
			"-0.005": 2.35795702218,
			"-0.004": 8.2966109771,
			"-0.003": 21.3787189944,
			"-0.002": 19.538698451,
			"-0.001": 18.2385973265,
			"0.0": 17.1119068405,
			"0.001": 16.603093961,
			"0.002": 11.1710051964,
			"0.003": 5.81125284996,
			"0.004": 4.48319297206,
			"0.005": 3.43418660997,
			"0.006": 3.90379281252,
			"0.007": 4.00727661453,
			"0.008": 3.65027581649,
			"0.009": 3.58950477733,
			"0.01": 3.66854157288,
			"0.011": 3.72808025365,
			"0.012": 2.77187609449,
			"0.013": 1.48120830172,
			"0.014": 1.36643052573,
			"0.015": 1.82515262815,
			"0.016": 0.483778556083,
			"0.017": 0.0,
			"0.018": 0.0,
			"0.019": 0.0,
			"0.02": 0.0,
			"0.021": 0.0,
			"0.022": 0.0,
			"0.023": 0.0,
			"0.024": 0.0,
			"0.025": 0.0
		}
	}
}
