{
	 "smiles": "CN1C(=O)CC2=C1C=CC(Br)=C2", 
	 "Tm": 405.15, 
	 "num_atms": 20, 
	 "gaussian": { 
		 "optdone": 1, 
		 "sigma_profile": "yes", 
		 "theory": "DFT", 
		 "functional": "B3LYP", 
		 "basiset": "6-31G**", 
		 "properties": { 
			 "R2extent": 5367.0748, 
			 "electric_dipole_moment_norm": 1.61915094417, 
			 "electric_quadrupole_moment_norm": 16.4028144323, 
			 "total_energy": -3049.18236434, 
			 "HOMO_LUMO_gap": 0.19148, 
			 "cosmo_polarized_energy": -9.86, 
			 "cosmo_cavitation_energy": 26.08, 
			 "cosmo_dispersion_energy": -19.75, 
			 "cosmo_repulsion_energy": 1.57, 
			 "cosmo_total_nonelectrostatic_energy": 7.9, 
			 "SMD_solvation_energy": 3.77 
		},
		"coords": [
			{
				"x": -0.6080782842,
				"y": 1.8575206259,
				"z": -2.1924216587,
				"element": "C" 
			},
			{
				"x": -0.5167342515,
				"y": 1.2086018188,
				"z": -0.9013070553,
				"element": "N" 
			},
			{
				"x": -1.4920771813,
				"y": 0.3394562811,
				"z": -0.4199451193,
				"element": "C" 
			},
			{
				"x": -2.5096719046,
				"y": 0.0312141546,
				"z": -1.0104071141,
				"element": "O" 
			},
			{
				"x": -1.0284984173,
				"y": -0.1298287033,
				"z": 0.9678051047,
				"element": "C" 
			},
			{
				"x": 0.2852157381,
				"y": 0.5815327998,
				"z": 1.1587863241,
				"element": "C" 
			},
			{
				"x": 0.5325570955,
				"y": 1.3605738829,
				"z": 0.0134027446,
				"element": "C" 
			},
			{
				"x": 1.6798523024,
				"y": 2.1381136124,
				"z": -0.1055915497,
				"element": "C" 
			},
			{
				"x": 2.5958834723,
				"y": 2.1281172499,
				"z": 0.9544137564,
				"element": "C" 
			},
			{
				"x": 2.3488578698,
				"y": 1.356251897,
				"z": 2.0869846492,
				"element": "C" 
			},
			{
				"x": 3.6176958468,
				"y": 1.3616222992,
				"z": 3.5196488613,
				"element": "Br" 
			},
			{
				"x": 1.1923726948,
				"y": 0.573411606,
				"z": 2.2055014412,
				"element": "C" 
			},
			{
				"x": -0.61971363,
				"y": 2.9478578649,
				"z": -2.0839131343,
				"element": "H" 
			},
			{
				"x": -1.5412501323,
				"y": 1.5291836931,
				"z": -2.6522133988,
				"element": "H" 
			},
			{
				"x": 0.2334420741,
				"y": 1.5743109542,
				"z": -2.834589152,
				"element": "H" 
			},
			{
				"x": -0.9441971963,
				"y": -1.2222035169,
				"z": 0.9718067661,
				"element": "H" 
			},
			{
				"x": -1.7870040744,
				"y": 0.1353565458,
				"z": 1.7126297077,
				"element": "H" 
			},
			{
				"x": 1.8717027659,
				"y": 2.7391772979,
				"z": -0.9880259912,
				"element": "H" 
			},
			{
				"x": 3.5002081538,
				"y": 2.7226276029,
				"z": 0.8941216489,
				"element": "H" 
			},
			{
				"x": 1.0217370585,
				"y": -0.0194979661,
				"z": 3.0974131691,
				"element": "H" 
			}
		],
		 "valence_orbital": [ 
			{
				"type": "occ",
				"energy": -0.28804,
				"method": "rhf"
			},
			{
				"type": "occ",
				"energy": -0.28235,
				"method": "rhf"
			},
			{
				"type": "occ",
				"energy": -0.26698,
				"method": "rhf"
			},
			{
				"type": "occ",
				"energy": -0.2642,
				"method": "rhf"
			},
			{
				"type": "occ",
				"energy": -0.2168,
				"method": "rhf"
			},
			{
				"type": "unocc",
				"energy": -0.02532,
				"method": "rhf"
			},
			{
				"type": "unocc",
				"energy": -0.01582,
				"method": "rhf"
			},
			{
				"type": "unocc",
				"energy": 0.00575,
				"method": "rhf"
			},
			{
				"type": "unocc",
				"energy": 0.02363,
				"method": "rhf"
			},
			{
				"type": "unocc",
				"energy": 0.09444,
				"method": "rhf"
			}
		],
		"cosmo_sigma_profile": { 
			"-0.025": 0.0,
			"-0.024": 0.0,
			"-0.023": 0.0,
			"-0.022": 0.0,
			"-0.021": 0.0,
			"-0.02": 0.0,
			"-0.019": 0.0,
			"-0.018": 0.0,
			"-0.017": 0.0,
			"-0.016": 0.0,
			"-0.015": 0.0,
			"-0.014": 0.0,
			"-0.013": 0.0,
			"-0.012": 0.0,
			"-0.011": 0.0,
			"-0.01": 0.0,
			"-0.009": 0.0,
			"-0.008": 1.21896750309,
			"-0.007": 9.11831969998,
			"-0.006": 14.4473314071,
			"-0.005": 18.2464555214,
			"-0.004": 19.3196560062,
			"-0.003": 17.2783000732,
			"-0.002": 15.6643137372,
			"-0.001": 13.5719978925,
			"0.0": 10.8353045412,
			"0.001": 10.8543068974,
			"0.002": 14.8861715382,
			"0.003": 19.6171236755,
			"0.004": 17.0467853772,
			"0.005": 10.5519010754,
			"0.006": 1.79201996976,
			"0.007": 2.54918427278,
			"0.008": 0.697868153885,
			"0.009": 0.393477480104,
			"0.01": 1.74765080107,
			"0.011": 2.50983119823,
			"0.012": 3.82624829088,
			"0.013": 4.62875412914,
			"0.014": 1.05825667753,
			"0.015": 0.0,
			"0.016": 0.0,
			"0.017": 0.0,
			"0.018": 0.0,
			"0.019": 0.0,
			"0.02": 0.0,
			"0.021": 0.0,
			"0.022": 0.0,
			"0.023": 0.0,
			"0.024": 0.0,
			"0.025": 0.0
		}
	}
}
