{
	 "smiles": "NCC(O)C1=CC2=C(C=CC=C2)C=C1", 
	 "Tm": 389.15, 
	 "num_atms": 27, 
	 "gaussian": { 
		 "optdone": 1, 
		 "sigma_profile": "yes", 
		 "theory": "DFT", 
		 "functional": "B3LYP", 
		 "basiset": "6-31G**", 
		 "properties": { 
			 "R2extent": 3146.465, 
			 "electric_dipole_moment_norm": 1.86788719413, 
			 "electric_quadrupole_moment_norm": 6.56962001793, 
			 "total_energy": -595.085372064, 
			 "HOMO_LUMO_gap": 0.17545, 
			 "cosmo_polarized_energy": -13.13, 
			 "cosmo_cavitation_energy": 29.76, 
			 "cosmo_dispersion_energy": -21.58, 
			 "cosmo_repulsion_energy": 1.71, 
			 "cosmo_total_nonelectrostatic_energy": 9.89, 
			 "SMD_solvation_energy": 3.67 
		},
		"coords": [
			{
				"x": -0.6381435502,
				"y": 0.7640501299,
				"z": -3.4694937047,
				"element": "N" 
			},
			{
				"x": 0.4229499986,
				"y": -0.2299387746,
				"z": -3.5993485307,
				"element": "C" 
			},
			{
				"x": 1.395664955,
				"y": -0.2156109209,
				"z": -2.4040155377,
				"element": "C" 
			},
			{
				"x": 2.1350233701,
				"y": 0.9956507362,
				"z": -2.4748693085,
				"element": "O" 
			},
			{
				"x": 0.6807722798,
				"y": -0.3878772157,
				"z": -1.0722285657,
				"element": "C" 
			},
			{
				"x": 0.240547275,
				"y": 0.7093097146,
				"z": -0.3580973696,
				"element": "C" 
			},
			{
				"x": -0.4468822856,
				"y": 0.560532651,
				"z": 0.8763781449,
				"element": "C" 
			},
			{
				"x": -0.6899211228,
				"y": -0.7573849089,
				"z": 1.384642124,
				"element": "C" 
			},
			{
				"x": -1.3764451659,
				"y": -0.903710534,
				"z": 2.6198913669,
				"element": "C" 
			},
			{
				"x": -1.8069428952,
				"y": 0.1999674576,
				"z": 3.3218337556,
				"element": "C" 
			},
			{
				"x": -1.569259959,
				"y": 1.5034098069,
				"z": 2.8192711406,
				"element": "C" 
			},
			{
				"x": -0.9049444758,
				"y": 1.6782964659,
				"z": 1.6259583758,
				"element": "C" 
			},
			{
				"x": -0.2299611469,
				"y": -1.8709792309,
				"z": 0.6304492756,
				"element": "C" 
			},
			{
				"x": 0.4364230257,
				"y": -1.6913005818,
				"z": -0.5593339009,
				"element": "C" 
			},
			{
				"x": -1.1308734576,
				"y": 0.8628994266,
				"z": -4.3519403268,
				"element": "H" 
			},
			{
				"x": -1.3203176248,
				"y": 0.4631917438,
				"z": -2.778917377,
				"element": "H" 
			},
			{
				"x": 1.013917522,
				"y": 0.0123125089,
				"z": -4.489351601,
				"element": "H" 
			},
			{
				"x": 0.0661797359,
				"y": -1.2688295499,
				"z": -3.7185992858,
				"element": "H" 
			},
			{
				"x": 2.0679592965,
				"y": -1.0804643063,
				"z": -2.5439519157,
				"element": "H" 
			},
			{
				"x": 2.6850114695,
				"y": 1.0457086967,
				"z": -1.6818498563,
				"element": "H" 
			},
			{
				"x": 0.4205932919,
				"y": 1.7036044699,
				"z": -0.7558078897,
				"element": "H" 
			},
			{
				"x": -1.5575182874,
				"y": -1.9051113631,
				"z": 3.0026190689,
				"element": "H" 
			},
			{
				"x": -2.3315923696,
				"y": 0.0755136751,
				"z": 4.2647876254,
				"element": "H" 
			},
			{
				"x": -1.9141260102,
				"y": 2.3662948265,
				"z": 3.381820983,
				"element": "H" 
			},
			{
				"x": -0.7216750111,
				"y": 2.6769953666,
				"z": 1.237911779,
				"element": "H" 
			},
			{
				"x": -0.4055347429,
				"y": -2.8727073077,
				"z": 1.0149722145,
				"element": "H" 
			},
			{
				"x": 0.7914958849,
				"y": -2.5550229824,
				"z": -1.1171306844,
				"element": "H" 
			}
		],
		 "valence_orbital": [ 
			{
				"type": "occ",
				"energy": -0.28313,
				"method": "rhf"
			},
			{
				"type": "occ",
				"energy": -0.26784,
				"method": "rhf"
			},
			{
				"type": "occ",
				"energy": -0.2384,
				"method": "rhf"
			},
			{
				"type": "occ",
				"energy": -0.22603,
				"method": "rhf"
			},
			{
				"type": "occ",
				"energy": -0.21305,
				"method": "rhf"
			},
			{
				"type": "unocc",
				"energy": -0.0376,
				"method": "rhf"
			},
			{
				"type": "unocc",
				"energy": -0.00959,
				"method": "rhf"
			},
			{
				"type": "unocc",
				"energy": 0.03303,
				"method": "rhf"
			},
			{
				"type": "unocc",
				"energy": 0.08164,
				"method": "rhf"
			},
			{
				"type": "unocc",
				"energy": 0.09041,
				"method": "rhf"
			}
		],
		"cosmo_sigma_profile": { 
			"-0.025": 0.0,
			"-0.024": 0.0,
			"-0.023": 0.0,
			"-0.022": 0.0,
			"-0.021": 0.0,
			"-0.02": 0.0,
			"-0.019": 0.0,
			"-0.018": 0.0,
			"-0.017": 0.0,
			"-0.016": 0.0,
			"-0.015": 0.460339884515,
			"-0.014": 1.22574837837,
			"-0.013": 0.299183344773,
			"-0.012": 1.14221352099,
			"-0.011": 1.12817028802,
			"-0.01": 0.872390659404,
			"-0.009": 2.29773447036,
			"-0.008": 3.56656971522,
			"-0.007": 3.73153288932,
			"-0.006": 10.4061457424,
			"-0.005": 20.5115372145,
			"-0.004": 19.9443666027,
			"-0.003": 24.6055694182,
			"-0.002": 18.5879886286,
			"-0.001": 17.2860476742,
			"0.0": 11.762451545,
			"0.001": 10.0679656117,
			"0.002": 12.7798163198,
			"0.003": 11.9015344407,
			"0.004": 21.6297509204,
			"0.005": 16.7866502483,
			"0.006": 4.40971311539,
			"0.007": 1.79634272301,
			"0.008": 1.50628307241,
			"0.009": 1.73847206125,
			"0.01": 1.57861893937,
			"0.011": 1.57101930839,
			"0.012": 1.64758751675,
			"0.013": 1.82055088501,
			"0.014": 1.54153382955,
			"0.015": 1.69294947208,
			"0.016": 1.069109642,
			"0.017": 1.46385719583,
			"0.018": 0.518130489648,
			"0.019": 0.73365156216,
			"0.02": 0.618973091496,
			"0.021": 0.0231076843372,
			"0.022": 0.0,
			"0.023": 0.0,
			"0.024": 0.0,
			"0.025": 0.0
		}
	}
}
