{
	 "smiles": "[O-][N+](=O)C1=CC=C(OCC2CO2)C=C1", 
	 "Tm": 327.65, 
	 "num_atms": 23, 
	 "gaussian": { 
		 "optdone": 1, 
		 "sigma_profile": "yes", 
		 "theory": "DFT", 
		 "functional": "B3LYP", 
		 "basiset": "6-31G**", 
		 "properties": { 
			 "R2extent": 4638.2214, 
			 "electric_dipole_moment_norm": 4.96238072905, 
			 "electric_quadrupole_moment_norm": 24.3804072417, 
			 "total_energy": -703.867116977, 
			 "HOMO_LUMO_gap": 0.1686, 
			 "cosmo_polarized_energy": -13.3, 
			 "cosmo_cavitation_energy": 28.29, 
			 "cosmo_dispersion_energy": -20.63, 
			 "cosmo_repulsion_energy": 1.63, 
			 "cosmo_total_nonelectrostatic_energy": 9.28, 
			 "SMD_solvation_energy": 7.42 
		},
		"coords": [
			{
				"x": 4.114952384,
				"y": -0.867824837,
				"z": -3.8327951461,
				"element": "O" 
			},
			{
				"x": 3.5324485726,
				"y": 0.0703134753,
				"z": -3.2857384194,
				"element": "N" 
			},
			{
				"x": 3.5705865148,
				"y": 1.2390161027,
				"z": -3.6753416181,
				"element": "O" 
			},
			{
				"x": 2.7415384661,
				"y": -0.2246079626,
				"z": -2.0917236904,
				"element": "C" 
			},
			{
				"x": 2.6737097654,
				"y": -1.5396302828,
				"z": -1.6219281243,
				"element": "C" 
			},
			{
				"x": 1.9226795901,
				"y": -1.8128417256,
				"z": -0.4913656843,
				"element": "C" 
			},
			{
				"x": 1.2363309013,
				"y": -0.7797910159,
				"z": 0.1739416266,
				"element": "C" 
			},
			{
				"x": 0.5398905701,
				"y": -1.1674050488,
				"z": 1.2734122731,
				"element": "O" 
			},
			{
				"x": -0.1615883454,
				"y": -0.2026686355,
				"z": 2.0643644896,
				"element": "C" 
			},
			{
				"x": -1.529556532,
				"y": 0.1114949378,
				"z": 1.4962907199,
				"element": "C" 
			},
			{
				"x": -2.7197756969,
				"y": -0.614060263,
				"z": 1.9593575161,
				"element": "C" 
			},
			{
				"x": -2.4308357382,
				"y": 0.7100137693,
				"z": 2.4310500716,
				"element": "O" 
			},
			{
				"x": 1.3109753033,
				"y": 0.5359437067,
				"z": -0.3123700327,
				"element": "C" 
			},
			{
				"x": 2.0686669244,
				"y": 0.8100640673,
				"z": -1.4475053644,
				"element": "C" 
			},
			{
				"x": 3.2101067471,
				"y": -2.3195241937,
				"z": -2.1477021652,
				"element": "H" 
			},
			{
				"x": 1.8493329749,
				"y": -2.8195361998,
				"z": -0.094952663,
				"element": "H" 
			},
			{
				"x": 0.4348208615,
				"y": 0.7092444206,
				"z": 2.1854428724,
				"element": "H" 
			},
			{
				"x": -0.2769822784,
				"y": -0.659637353,
				"z": 3.0499426674,
				"element": "H" 
			},
			{
				"x": -1.5476703155,
				"y": 0.5495893719,
				"z": 0.4971016627,
				"element": "H" 
			},
			{
				"x": -2.6104862089,
				"y": -1.4086296642,
				"z": 2.6973780716,
				"element": "H" 
			},
			{
				"x": -3.5866663257,
				"y": -0.6979182562,
				"z": 1.3053259794,
				"element": "H" 
			},
			{
				"x": 0.7856608394,
				"y": 1.3472477442,
				"z": 0.1761266457,
				"element": "H" 
			},
			{
				"x": 2.1419610258,
				"y": 1.8156478425,
				"z": -1.8426116881,
				"element": "H" 
			}
		],
		 "valence_orbital": [ 
			{
				"type": "occ",
				"energy": -0.30231,
				"method": "rhf"
			},
			{
				"type": "occ",
				"energy": -0.29145,
				"method": "rhf"
			},
			{
				"type": "occ",
				"energy": -0.28484,
				"method": "rhf"
			},
			{
				"type": "occ",
				"energy": -0.28179,
				"method": "rhf"
			},
			{
				"type": "occ",
				"energy": -0.25077,
				"method": "rhf"
			},
			{
				"type": "unocc",
				"energy": -0.08217,
				"method": "rhf"
			},
			{
				"type": "unocc",
				"energy": -0.03092,
				"method": "rhf"
			},
			{
				"type": "unocc",
				"energy": 0.01009,
				"method": "rhf"
			},
			{
				"type": "unocc",
				"energy": 0.0585,
				"method": "rhf"
			},
			{
				"type": "unocc",
				"energy": 0.07589,
				"method": "rhf"
			}
		],
		"cosmo_sigma_profile": { 
			"-0.025": 0.0,
			"-0.024": 0.0,
			"-0.023": 0.0,
			"-0.022": 0.0,
			"-0.021": 0.0,
			"-0.02": 0.0,
			"-0.019": 0.0,
			"-0.018": 0.0,
			"-0.017": 0.0,
			"-0.016": 0.0,
			"-0.015": 0.0,
			"-0.014": 0.0,
			"-0.013": 0.0,
			"-0.012": 0.0,
			"-0.011": 0.0,
			"-0.01": 0.452395475943,
			"-0.009": 1.99491230402,
			"-0.008": 5.23280873557,
			"-0.007": 14.6253774922,
			"-0.006": 17.9837655959,
			"-0.005": 17.1604726236,
			"-0.004": 15.5043509897,
			"-0.003": 13.3251949031,
			"-0.002": 12.4171357421,
			"-0.001": 15.4001587879,
			"0.0": 15.9081333971,
			"0.001": 19.4874897903,
			"0.002": 13.5782196806,
			"0.003": 6.6462302869,
			"0.004": 5.706696395,
			"0.005": 5.29606481901,
			"0.006": 5.16099549378,
			"0.007": 7.51565045252,
			"0.008": 13.0942792314,
			"0.009": 7.00386964992,
			"0.01": 6.31926462155,
			"0.011": 4.74755199099,
			"0.012": 1.38560778447,
			"0.013": 0.0794495205264,
			"0.014": 0.0,
			"0.015": 0.0,
			"0.016": 0.0,
			"0.017": 0.0,
			"0.018": 0.0,
			"0.019": 0.0,
			"0.02": 0.0,
			"0.021": 0.0,
			"0.022": 0.0,
			"0.023": 0.0,
			"0.024": 0.0,
			"0.025": 0.0
		}
	}
}
