{
	 "smiles": "OC(=O)C1=CC=C(O1)C1=C(Cl)C=CC=C1", 
	 "Tm": 484.15, 
	 "num_atms": 22, 
	 "gaussian": { 
		 "optdone": 1, 
		 "sigma_profile": "yes", 
		 "theory": "DFT", 
		 "functional": "B3LYP", 
		 "basiset": "6-31G**", 
		 "properties": { 
			 "R2extent": 4487.7953, 
			 "electric_dipole_moment_norm": 5.5277270971, 
			 "electric_quadrupole_moment_norm": 18.4660795793, 
			 "total_energy": -1109.24396541, 
			 "HOMO_LUMO_gap": 0.16306, 
			 "cosmo_polarized_energy": -13.19, 
			 "cosmo_cavitation_energy": 29.12, 
			 "cosmo_dispersion_energy": -21.46, 
			 "cosmo_repulsion_energy": 1.66, 
			 "cosmo_total_nonelectrostatic_energy": 9.32, 
			 "SMD_solvation_energy": 6.33 
		},
		"coords": [
			{
				"x": 2.8544403787,
				"y": 0.2830662306,
				"z": -3.0043798353,
				"element": "O" 
			},
			{
				"x": 3.2449811072,
				"y": -0.6397248358,
				"z": -2.0900591149,
				"element": "C" 
			},
			{
				"x": 4.3800406801,
				"y": -1.0550194116,
				"z": -2.0500726329,
				"element": "O" 
			},
			{
				"x": 2.2003194651,
				"y": -1.0955421694,
				"z": -1.1601592182,
				"element": "C" 
			},
			{
				"x": 2.2361295818,
				"y": -1.9635076819,
				"z": -0.1054074651,
				"element": "C" 
			},
			{
				"x": 0.9234169705,
				"y": -1.9952136358,
				"z": 0.437335589,
				"element": "C" 
			},
			{
				"x": 0.1484806739,
				"y": -1.1437146679,
				"z": -0.3194118826,
				"element": "C" 
			},
			{
				"x": 0.9327187297,
				"y": -0.5899703705,
				"z": -1.3028234423,
				"element": "O" 
			},
			{
				"x": -1.261123856,
				"y": -0.7557044595,
				"z": -0.3487615034,
				"element": "C" 
			},
			{
				"x": -2.1473718943,
				"y": -0.8652264508,
				"z": 0.7431922425,
				"element": "C" 
			},
			{
				"x": -1.6242330529,
				"y": -1.4654005342,
				"z": 2.3114936053,
				"element": "Cl" 
			},
			{
				"x": -3.4830862475,
				"y": -0.4769908989,
				"z": 0.6393902282,
				"element": "C" 
			},
			{
				"x": -3.9732433258,
				"y": 0.0362244627,
				"z": -0.558717664,
				"element": "C" 
			},
			{
				"x": -3.1192941841,
				"y": 0.1607667885,
				"z": -1.6556900977,
				"element": "C" 
			},
			{
				"x": -1.7911809897,
				"y": -0.2307721555,
				"z": -1.5473594783,
				"element": "C" 
			},
			{
				"x": 1.9209013241,
				"y": 0.5056963788,
				"z": -2.8655180124,
				"element": "H" 
			},
			{
				"x": 3.1069334393,
				"y": -2.5062766772,
				"z": 0.2304685129,
				"element": "H" 
			},
			{
				"x": 0.5861902926,
				"y": -2.5858223508,
				"z": 1.2725307527,
				"element": "H" 
			},
			{
				"x": -4.1273639562,
				"y": -0.575459163,
				"z": 1.505795611,
				"element": "H" 
			},
			{
				"x": -5.0141848363,
				"y": 0.3354613917,
				"z": -0.6299352097,
				"element": "H" 
			},
			{
				"x": -3.4879640233,
				"y": 0.5559858381,
				"z": -2.5969629762,
				"element": "H" 
			},
			{
				"x": -1.134506277,
				"y": -0.1462556276,
				"z": -2.4051480086,
				"element": "H" 
			}
		],
		 "valence_orbital": [ 
			{
				"type": "occ",
				"energy": -0.30798,
				"method": "rhf"
			},
			{
				"type": "occ",
				"energy": -0.29658,
				"method": "rhf"
			},
			{
				"type": "occ",
				"energy": -0.27848,
				"method": "rhf"
			},
			{
				"type": "occ",
				"energy": -0.26622,
				"method": "rhf"
			},
			{
				"type": "occ",
				"energy": -0.23367,
				"method": "rhf"
			},
			{
				"type": "unocc",
				"energy": -0.07061,
				"method": "rhf"
			},
			{
				"type": "unocc",
				"energy": -0.02864,
				"method": "rhf"
			},
			{
				"type": "unocc",
				"energy": -0.02063,
				"method": "rhf"
			},
			{
				"type": "unocc",
				"energy": 0.01463,
				"method": "rhf"
			},
			{
				"type": "unocc",
				"energy": 0.04766,
				"method": "rhf"
			}
		],
		"cosmo_sigma_profile": { 
			"-0.025": 0.0,
			"-0.024": 0.0,
			"-0.023": 0.0,
			"-0.022": 0.0,
			"-0.021": 0.0,
			"-0.02": 0.0,
			"-0.019": 0.0,
			"-0.018": 0.0,
			"-0.017": 0.144814438713,
			"-0.016": 0.697078234084,
			"-0.015": 0.735638033201,
			"-0.014": 0.497349563237,
			"-0.013": 0.734676237386,
			"-0.012": 1.28954650527,
			"-0.011": 0.684601834476,
			"-0.01": 1.22298131162,
			"-0.009": 1.54633560868,
			"-0.008": 3.52518936014,
			"-0.007": 10.0750564278,
			"-0.006": 12.906300351,
			"-0.005": 13.7419788444,
			"-0.004": 11.0936325778,
			"-0.003": 13.0581923353,
			"-0.002": 14.9483825593,
			"-0.001": 17.8140627542,
			"0.0": 21.9977502334,
			"0.001": 24.0262355379,
			"0.002": 23.341905536,
			"0.003": 20.9798577658,
			"0.004": 10.9914021194,
			"0.005": 2.96917052528,
			"0.006": 2.62575727032,
			"0.007": 3.15808855582,
			"0.008": 1.98038602105,
			"0.009": 3.78421545781,
			"0.01": 5.3005771082,
			"0.011": 4.96562660093,
			"0.012": 5.01701370797,
			"0.013": 1.35713879416,
			"0.014": 0.0174017344546,
			"0.015": 0.0,
			"0.016": 0.0,
			"0.017": 0.0,
			"0.018": 0.0,
			"0.019": 0.0,
			"0.02": 0.0,
			"0.021": 0.0,
			"0.022": 0.0,
			"0.023": 0.0,
			"0.024": 0.0,
			"0.025": 0.0
		}
	}
}
