{
	 "smiles": "NC(=S)C1=CC=C(C=C1)C(F)(F)F", 
	 "Tm": 409.15, 
	 "num_atms": 19, 
	 "gaussian": { 
		 "optdone": 1, 
		 "sigma_profile": "yes", 
		 "theory": "DFT", 
		 "functional": "B3LYP", 
		 "basiset": "6-31G**", 
		 "properties": { 
			 "R2extent": 4842.6519, 
			 "electric_dipole_moment_norm": 3.95067548908, 
			 "electric_quadrupole_moment_norm": 13.9167734436, 
			 "total_energy": -1060.9433341, 
			 "HOMO_LUMO_gap": 0.14174, 
			 "cosmo_polarized_energy": -14.72, 
			 "cosmo_cavitation_energy": 26.69, 
			 "cosmo_dispersion_energy": -19.55, 
			 "cosmo_repulsion_energy": 1.45, 
			 "cosmo_total_nonelectrostatic_energy": 8.58, 
			 "SMD_solvation_energy": 4.87 
		},
		"coords": [
			{
				"x": -0.7057560451,
				"y": -0.3444363233,
				"z": 3.0335862736,
				"element": "N" 
			},
			{
				"x": -1.7566975456,
				"y": -0.7667030879,
				"z": 2.2937993975,
				"element": "C" 
			},
			{
				"x": -2.9638759319,
				"y": -1.7149194703,
				"z": 2.9422930506,
				"element": "S" 
			},
			{
				"x": -1.7256532715,
				"y": -0.3476196038,
				"z": 0.8618358852,
				"element": "C" 
			},
			{
				"x": -2.9238903383,
				"y": -0.1231879774,
				"z": 0.1665109651,
				"element": "C" 
			},
			{
				"x": -2.9041794362,
				"y": 0.2782018389,
				"z": -1.1642509039,
				"element": "C" 
			},
			{
				"x": -1.6842702242,
				"y": 0.4448674403,
				"z": -1.8278604441,
				"element": "C" 
			},
			{
				"x": -0.4848939814,
				"y": 0.2048358283,
				"z": -1.1551058125,
				"element": "C" 
			},
			{
				"x": -0.5064504097,
				"y": -0.1840616455,
				"z": 0.1820564477,
				"element": "C" 
			},
			{
				"x": -1.6649955514,
				"y": 0.9307293421,
				"z": -3.253103532,
				"element": "C" 
			},
			{
				"x": -2.7441648442,
				"y": 0.504191074,
				"z": -3.9431539277,
				"element": "F" 
			},
			{
				"x": -1.6681654134,
				"y": 2.2828273648,
				"z": -3.3128983784,
				"element": "F" 
			},
			{
				"x": -0.563986231,
				"y": 0.5101159637,
				"z": -3.9131459565,
				"element": "F" 
			},
			{
				"x": -0.6897137202,
				"y": -0.5817255903,
				"z": 4.0149590152,
				"element": "H" 
			},
			{
				"x": -0.0936143756,
				"y": 0.3883413818,
				"z": 2.7060427459,
				"element": "H" 
			},
			{
				"x": -3.8636689058,
				"y": -0.2709278684,
				"z": 0.6864950386,
				"element": "H" 
			},
			{
				"x": -3.834398502,
				"y": 0.4531760321,
				"z": -1.6937492077,
				"element": "H" 
			},
			{
				"x": 0.4588936646,
				"y": 0.3064821498,
				"z": -1.6794298058,
				"element": "H" 
			},
			{
				"x": 0.4305810628,
				"y": -0.4058868488,
				"z": 0.6835191491,
				"element": "H" 
			}
		],
		 "valence_orbital": [ 
			{
				"type": "occ",
				"energy": -0.359,
				"method": "rhf"
			},
			{
				"type": "occ",
				"energy": -0.28286,
				"method": "rhf"
			},
			{
				"type": "occ",
				"energy": -0.27955,
				"method": "rhf"
			},
			{
				"type": "occ",
				"energy": -0.24014,
				"method": "rhf"
			},
			{
				"type": "occ",
				"energy": -0.21717,
				"method": "rhf"
			},
			{
				"type": "unocc",
				"energy": -0.07543,
				"method": "rhf"
			},
			{
				"type": "unocc",
				"energy": -0.0298,
				"method": "rhf"
			},
			{
				"type": "unocc",
				"energy": -0.00197,
				"method": "rhf"
			},
			{
				"type": "unocc",
				"energy": 0.06361,
				"method": "rhf"
			},
			{
				"type": "unocc",
				"energy": 0.08249,
				"method": "rhf"
			}
		],
		"cosmo_sigma_profile": { 
			"-0.025": 0.0,
			"-0.024": 0.0,
			"-0.023": 0.0,
			"-0.022": 0.0,
			"-0.021": 0.0,
			"-0.02": 0.0,
			"-0.019": 0.0,
			"-0.018": 0.0,
			"-0.017": 0.0,
			"-0.016": 0.582992335494,
			"-0.015": 1.83167534765,
			"-0.014": 2.33030798299,
			"-0.013": 3.54642699241,
			"-0.012": 2.25826923301,
			"-0.011": 1.9641380547,
			"-0.01": 2.54350302807,
			"-0.009": 2.1849952316,
			"-0.008": 3.75214862619,
			"-0.007": 6.8039175548,
			"-0.006": 7.57850246391,
			"-0.005": 8.92319758109,
			"-0.004": 8.04339359174,
			"-0.003": 8.18516308226,
			"-0.002": 8.00044860288,
			"-0.001": 12.5922109584,
			"0.0": 16.5647201537,
			"0.001": 18.376688065,
			"0.002": 32.539692175,
			"0.003": 29.6454859702,
			"0.004": 5.22373011652,
			"0.005": 3.94454876528,
			"0.006": 4.27557267711,
			"0.007": 5.94067922803,
			"0.008": 6.18609066511,
			"0.009": 5.80518851392,
			"0.01": 3.77476101982,
			"0.011": 2.97574485382,
			"0.012": 0.540176704331,
			"0.013": 0.0,
			"0.014": 0.0,
			"0.015": 0.0,
			"0.016": 0.0,
			"0.017": 0.0,
			"0.018": 0.0,
			"0.019": 0.0,
			"0.02": 0.0,
			"0.021": 0.0,
			"0.022": 0.0,
			"0.023": 0.0,
			"0.024": 0.0,
			"0.025": 0.0
		}
	}
}
