{
	 "smiles": "CC(=O)N1CCC(CC1)NC(=O)OCC(F)(F)F", 
	 "Tm": 393.15, 
	 "num_atms": 33, 
	 "gaussian": { 
		 "optdone": 1, 
		 "sigma_profile": "yes", 
		 "theory": "DFT", 
		 "functional": "B3LYP", 
		 "basiset": "6-31G**", 
		 "properties": { 
			 "R2extent": 8370.4835, 
			 "electric_dipole_moment_norm": 3.96701996718, 
			 "electric_quadrupole_moment_norm": 24.6457816253, 
			 "total_energy": -1024.84101863, 
			 "HOMO_LUMO_gap": 0.2656, 
			 "cosmo_polarized_energy": -19.27, 
			 "cosmo_cavitation_energy": 37.05, 
			 "cosmo_dispersion_energy": -25.3, 
			 "cosmo_repulsion_energy": 1.91, 
			 "cosmo_total_nonelectrostatic_energy": 13.67, 
			 "SMD_solvation_energy": 7.64 
		},
		"coords": [
			{
				"x": -2.8602626383,
				"y": 2.8580653453,
				"z": -1.3402175381,
				"element": "C" 
			},
			{
				"x": -2.7998818548,
				"y": 1.3567056394,
				"z": -1.5914129032,
				"element": "C" 
			},
			{
				"x": -3.8173673167,
				"y": 0.7086552419,
				"z": -1.8177703853,
				"element": "O" 
			},
			{
				"x": -1.5639771517,
				"y": 0.7547630968,
				"z": -1.5568627789,
				"element": "N" 
			},
			{
				"x": -0.3054983555,
				"y": 1.4533078505,
				"z": -1.2914711827,
				"element": "C" 
			},
			{
				"x": 0.8430865847,
				"y": 0.7774345751,
				"z": -2.0502306799,
				"element": "C" 
			},
			{
				"x": 1.0330103054,
				"y": -0.7075725147,
				"z": -1.6511324662,
				"element": "C" 
			},
			{
				"x": -0.27037554,
				"y": -1.2772191181,
				"z": -1.0421121171,
				"element": "C" 
			},
			{
				"x": -1.5114574764,
				"y": -0.7067411359,
				"z": -1.7264345063,
				"element": "C" 
			},
			{
				"x": 2.1757484532,
				"y": -0.8424622309,
				"z": -0.7392489696,
				"element": "N" 
			},
			{
				"x": 2.7936315175,
				"y": -2.0087301266,
				"z": -0.4086520058,
				"element": "C" 
			},
			{
				"x": 3.6011879498,
				"y": -2.1508764536,
				"z": 0.4878894922,
				"element": "O" 
			},
			{
				"x": 2.4073433679,
				"y": -3.01318201,
				"z": -1.2689143718,
				"element": "O" 
			},
			{
				"x": 2.820756268,
				"y": -4.324071377,
				"z": -0.9151129643,
				"element": "C" 
			},
			{
				"x": 1.6474243291,
				"y": -5.0592219751,
				"z": -0.2894310124,
				"element": "C" 
			},
			{
				"x": 1.2317414423,
				"y": -4.4544774976,
				"z": 0.8396019624,
				"element": "F" 
			},
			{
				"x": 2.0060477263,
				"y": -6.3230539836,
				"z": 0.0123169843,
				"element": "F" 
			},
			{
				"x": 0.5914233019,
				"y": -5.114686031,
				"z": -1.1289360423,
				"element": "F" 
			},
			{
				"x": -2.3749714515,
				"y": 3.1440235891,
				"z": -0.4014667693,
				"element": "H" 
			},
			{
				"x": -3.9125859741,
				"y": 3.1377436106,
				"z": -1.3008290099,
				"element": "H" 
			},
			{
				"x": -2.3796062577,
				"y": 3.4198123957,
				"z": -2.1491851334,
				"element": "H" 
			},
			{
				"x": -0.3887214326,
				"y": 2.4911626791,
				"z": -1.618664932,
				"element": "H" 
			},
			{
				"x": -0.0844250667,
				"y": 1.4788141665,
				"z": -0.2118605793,
				"element": "H" 
			},
			{
				"x": 0.6232946486,
				"y": 0.8349297588,
				"z": -3.1210845485,
				"element": "H" 
			},
			{
				"x": 1.7740216735,
				"y": 1.3327449485,
				"z": -1.8930615707,
				"element": "H" 
			},
			{
				"x": 1.2821859387,
				"y": -1.2797677283,
				"z": -2.5478032557,
				"element": "H" 
			},
			{
				"x": -0.267100344,
				"y": -2.368081277,
				"z": -1.1150055816,
				"element": "H" 
			},
			{
				"x": -0.3025723467,
				"y": -1.0305813012,
				"z": 0.0262346866,
				"element": "H" 
			},
			{
				"x": -2.4275451709,
				"y": -1.1233037772,
				"z": -1.303753735,
				"element": "H" 
			},
			{
				"x": -1.5171066081,
				"y": -0.9658865389,
				"z": -2.7954612443,
				"element": "H" 
			},
			{
				"x": 2.3565858317,
				"y": -0.1005426641,
				"z": -0.0776173113,
				"element": "H" 
			},
			{
				"x": 3.1174350499,
				"y": -4.8445643685,
				"z": -1.8279597368,
				"element": "H" 
			},
			{
				"x": 3.6480305973,
				"y": -4.2911407878,
				"z": -0.2036497939,
				"element": "H" 
			}
		],
		 "valence_orbital": [ 
			{
				"type": "occ",
				"energy": -0.31379,
				"method": "rhf"
			},
			{
				"type": "occ",
				"energy": -0.28807,
				"method": "rhf"
			},
			{
				"type": "occ",
				"energy": -0.26649,
				"method": "rhf"
			},
			{
				"type": "occ",
				"energy": -0.24331,
				"method": "rhf"
			},
			{
				"type": "occ",
				"energy": -0.2368,
				"method": "rhf"
			},
			{
				"type": "unocc",
				"energy": 0.0288,
				"method": "rhf"
			},
			{
				"type": "unocc",
				"energy": 0.035,
				"method": "rhf"
			},
			{
				"type": "unocc",
				"energy": 0.05516,
				"method": "rhf"
			},
			{
				"type": "unocc",
				"energy": 0.08117,
				"method": "rhf"
			},
			{
				"type": "unocc",
				"energy": 0.08638,
				"method": "rhf"
			}
		],
		"cosmo_sigma_profile": { 
			"-0.025": 0.0,
			"-0.024": 0.0,
			"-0.023": 0.0,
			"-0.022": 0.0,
			"-0.021": 0.0,
			"-0.02": 0.0,
			"-0.019": 0.0,
			"-0.018": 0.0,
			"-0.017": 0.0,
			"-0.016": 0.0,
			"-0.015": 0.0207234936611,
			"-0.014": 0.536476897719,
			"-0.013": 1.40391844846,
			"-0.012": 0.756206180563,
			"-0.011": 1.3605351051,
			"-0.01": 1.50883913009,
			"-0.009": 3.55863597791,
			"-0.008": 5.13848273437,
			"-0.007": 5.76177166068,
			"-0.006": 11.5267037702,
			"-0.005": 20.655038837,
			"-0.004": 26.9099216591,
			"-0.003": 25.6879512919,
			"-0.002": 24.5568488027,
			"-0.001": 25.4004160624,
			"0.0": 18.2819380528,
			"0.001": 15.9823971254,
			"0.002": 27.7084362906,
			"0.003": 25.6501083703,
			"0.004": 6.23512380683,
			"0.005": 4.62170120009,
			"0.006": 3.68164993666,
			"0.007": 2.09649731329,
			"0.008": 2.7644023931,
			"0.009": 2.28752576142,
			"0.01": 3.25471378963,
			"0.011": 3.45320302876,
			"0.012": 5.07778352303,
			"0.013": 5.53648676388,
			"0.014": 4.90958568524,
			"0.015": 3.72667152133,
			"0.016": 0.440471929817,
			"0.017": 0.0,
			"0.018": 0.0,
			"0.019": 0.0,
			"0.02": 0.0,
			"0.021": 0.0,
			"0.022": 0.0,
			"0.023": 0.0,
			"0.024": 0.0,
			"0.025": 0.0
		}
	}
}
