{
	 "smiles": "ClCCC(=O)N(C1CS(=O)(=O)C=C1)C1=CC=CC=C1", 
	 "Tm": 396.15, 
	 "num_atms": 33, 
	 "gaussian": { 
		 "optdone": 1, 
		 "sigma_profile": "yes", 
		 "theory": "DFT", 
		 "functional": "B3LYP", 
		 "basiset": "6-31G**", 
		 "properties": { 
			 "R2extent": 7648.4986, 
			 "electric_dipole_moment_norm": 8.8269869293, 
			 "electric_quadrupole_moment_norm": 17.3406726764, 
			 "total_energy": -1642.53892888, 
			 "HOMO_LUMO_gap": 0.2166, 
			 "cosmo_polarized_energy": -25.45, 
			 "cosmo_cavitation_energy": 39.26, 
			 "cosmo_dispersion_energy": -27.01, 
			 "cosmo_repulsion_energy": 2.06, 
			 "cosmo_total_nonelectrostatic_energy": 14.31, 
			 "SMD_solvation_energy": 5.98 
		},
		"coords": [
			{
				"x": -1.6074632551,
				"y": 2.8121650997,
				"z": -4.2623808894,
				"element": "Cl" 
			},
			{
				"x": -2.0498783767,
				"y": 1.054645125,
				"z": -4.1267437906,
				"element": "C" 
			},
			{
				"x": -2.8502787579,
				"y": 0.7475506463,
				"z": -2.8619702059,
				"element": "C" 
			},
			{
				"x": -2.19124288,
				"y": 1.1825709761,
				"z": -1.5515372087,
				"element": "C" 
			},
			{
				"x": -2.6971624888,
				"y": 2.0540598441,
				"z": -0.8583451171,
				"element": "O" 
			},
			{
				"x": -0.9792811429,
				"y": 0.6084290186,
				"z": -1.1947924302,
				"element": "N" 
			},
			{
				"x": -0.2806022204,
				"y": 1.1423226669,
				"z": -0.0118290025,
				"element": "C" 
			},
			{
				"x": -0.9436497824,
				"y": 0.7874128256,
				"z": 1.3357624916,
				"element": "C" 
			},
			{
				"x": -0.3408423948,
				"y": 2.0705729074,
				"z": 2.4938779059,
				"element": "S" 
			},
			{
				"x": -1.4114368292,
				"y": 2.5249070305,
				"z": 3.3908336317,
				"element": "O" 
			},
			{
				"x": 0.9500042448,
				"y": 1.6401366273,
				"z": 3.0590366736,
				"element": "O" 
			},
			{
				"x": -0.0622632141,
				"y": 3.2414735528,
				"z": 1.174885913,
				"element": "C" 
			},
			{
				"x": -0.1013755969,
				"y": 2.6521001056,
				"z": -0.0176072164,
				"element": "C" 
			},
			{
				"x": -0.4706270596,
				"y": -0.6107140122,
				"z": -1.7597444109,
				"element": "C" 
			},
			{
				"x": -1.1537767309,
				"y": -1.8191238678,
				"z": -1.5761728588,
				"element": "C" 
			},
			{
				"x": -0.6391659019,
				"y": -3.0016836656,
				"z": -2.1104661254,
				"element": "C" 
			},
			{
				"x": 0.5693465627,
				"y": -2.9890883771,
				"z": -2.8089187369,
				"element": "C" 
			},
			{
				"x": 1.2620294844,
				"y": -1.7877757174,
				"z": -2.9768676106,
				"element": "C" 
			},
			{
				"x": 0.7436005985,
				"y": -0.600586018,
				"z": -2.4591286142,
				"element": "C" 
			},
			{
				"x": -1.113292536,
				"y": 0.5004937567,
				"z": -4.1671616257,
				"element": "H" 
			},
			{
				"x": -2.6409282677,
				"y": 0.8208138393,
				"z": -5.0129963305,
				"element": "H" 
			},
			{
				"x": -3.0491786074,
				"y": -0.3301160016,
				"z": -2.8615798447,
				"element": "H" 
			},
			{
				"x": -3.8083874261,
				"y": 1.2694670713,
				"z": -2.8870481141,
				"element": "H" 
			},
			{
				"x": 0.7180834369,
				"y": 0.6933195138,
				"z": -0.0412003652,
				"element": "H" 
			},
			{
				"x": -0.6673700628,
				"y": -0.1905251011,
				"z": 1.7314481315,
				"element": "H" 
			},
			{
				"x": -2.0249497295,
				"y": 0.9080524931,
				"z": 1.2677805923,
				"element": "H" 
			},
			{
				"x": 0.1237206219,
				"y": 4.2810768685,
				"z": 1.4117700845,
				"element": "H" 
			},
			{
				"x": 0.0498629333,
				"y": 3.1734277489,
				"z": -0.9576864728,
				"element": "H" 
			},
			{
				"x": -2.0787312888,
				"y": -1.8285313831,
				"z": -1.0070207133,
				"element": "H" 
			},
			{
				"x": -1.1764644369,
				"y": -3.9342399238,
				"z": -1.9664874211,
				"element": "H" 
			},
			{
				"x": 0.9722335624,
				"y": -3.9111645792,
				"z": -3.2164758547,
				"element": "H" 
			},
			{
				"x": 2.2033821251,
				"y": -1.7718004982,
				"z": -3.5177274209,
				"element": "H" 
			},
			{
				"x": 1.2698854167,
				"y": 0.3392514274,
				"z": -2.5986070436,
				"element": "H" 
			}
		],
		 "valence_orbital": [ 
			{
				"type": "occ",
				"energy": -0.28495,
				"method": "rhf"
			},
			{
				"type": "occ",
				"energy": -0.28355,
				"method": "rhf"
			},
			{
				"type": "occ",
				"energy": -0.28092,
				"method": "rhf"
			},
			{
				"type": "occ",
				"energy": -0.25907,
				"method": "rhf"
			},
			{
				"type": "occ",
				"energy": -0.25869,
				"method": "rhf"
			},
			{
				"type": "unocc",
				"energy": -0.04209,
				"method": "rhf"
			},
			{
				"type": "unocc",
				"energy": -0.03717,
				"method": "rhf"
			},
			{
				"type": "unocc",
				"energy": -0.02549,
				"method": "rhf"
			},
			{
				"type": "unocc",
				"energy": -0.00583,
				"method": "rhf"
			},
			{
				"type": "unocc",
				"energy": 0.01758,
				"method": "rhf"
			}
		],
		"cosmo_sigma_profile": { 
			"-0.025": 0.0,
			"-0.024": 0.0,
			"-0.023": 0.0,
			"-0.022": 0.0,
			"-0.021": 0.0,
			"-0.02": 0.0,
			"-0.019": 0.0,
			"-0.018": 0.0,
			"-0.017": 0.0,
			"-0.016": 0.0,
			"-0.015": 0.0,
			"-0.014": 0.0,
			"-0.013": 0.0,
			"-0.012": 0.0,
			"-0.011": 0.189296491511,
			"-0.01": 1.90570412517,
			"-0.009": 3.48238378594,
			"-0.008": 10.3982146439,
			"-0.007": 19.9387493334,
			"-0.006": 27.5178747868,
			"-0.005": 28.9697543708,
			"-0.004": 28.8614648916,
			"-0.003": 18.7419070649,
			"-0.002": 15.7257540445,
			"-0.001": 11.7880232246,
			"0.0": 14.7673531874,
			"0.001": 15.2550025994,
			"0.002": 14.2353474516,
			"0.003": 15.0050494431,
			"0.004": 14.8843361636,
			"0.005": 10.5646285571,
			"0.006": 10.4979467893,
			"0.007": 7.46974126912,
			"0.008": 3.56167370205,
			"0.009": 4.55107624539,
			"0.01": 6.2136966924,
			"0.011": 13.9522183724,
			"0.012": 12.225527658,
			"0.013": 3.39621155542,
			"0.014": 0.546407559563,
			"0.015": 0.0,
			"0.016": 0.0,
			"0.017": 0.0,
			"0.018": 0.0,
			"0.019": 0.0,
			"0.02": 0.0,
			"0.021": 0.0,
			"0.022": 0.0,
			"0.023": 0.0,
			"0.024": 0.0,
			"0.025": 0.0
		}
	}
}
