{
	 "smiles": "COC(=O)C1=C(C)NC(=O)NC1C1=CC=CC(OC)=C1O", 
	 "Tm": 481.15, 
	 "num_atms": 37, 
	 "gaussian": { 
		 "optdone": 1, 
		 "sigma_profile": "yes", 
		 "theory": "DFT", 
		 "functional": "B3LYP", 
		 "basiset": "6-31G**", 
		 "properties": { 
			 "R2extent": 6742.2609, 
			 "electric_dipole_moment_norm": 4.42030602334, 
			 "electric_quadrupole_moment_norm": 22.7418876094, 
			 "total_energy": -1028.77543617, 
			 "HOMO_LUMO_gap": 0.17918, 
			 "cosmo_polarized_energy": -19.44, 
			 "cosmo_cavitation_energy": 40.25, 
			 "cosmo_dispersion_energy": -28.2, 
			 "cosmo_repulsion_energy": 2.2, 
			 "cosmo_total_nonelectrostatic_energy": 14.25, 
			 "SMD_solvation_energy": 9.3 
		},
		"coords": [
			{
				"x": 2.7128152868,
				"y": -0.2958306878,
				"z": -3.0888244716,
				"element": "C" 
			},
			{
				"x": 1.8779560732,
				"y": 0.0110200757,
				"z": -1.9657493463,
				"element": "O" 
			},
			{
				"x": 2.4404092426,
				"y": 0.8233544953,
				"z": -1.0283885365,
				"element": "C" 
			},
			{
				"x": 3.5775095981,
				"y": 1.251950499,
				"z": -1.1607966656,
				"element": "O" 
			},
			{
				"x": 1.5067804151,
				"y": 1.0663622517,
				"z": 0.0821495706,
				"element": "C" 
			},
			{
				"x": 1.8185503929,
				"y": 1.8616862887,
				"z": 1.1471498054,
				"element": "C" 
			},
			{
				"x": 3.1125089228,
				"y": 2.5847678192,
				"z": 1.3990504369,
				"element": "C" 
			},
			{
				"x": 0.8665874799,
				"y": 2.0657522453,
				"z": 2.1289824583,
				"element": "N" 
			},
			{
				"x": -0.5102375834,
				"y": 1.8261189422,
				"z": 1.9778971503,
				"element": "C" 
			},
			{
				"x": -1.3126776844,
				"y": 2.2241783042,
				"z": 2.8091101409,
				"element": "O" 
			},
			{
				"x": -0.8193636671,
				"y": 1.1885485401,
				"z": 0.813969066,
				"element": "N" 
			},
			{
				"x": 0.1518156042,
				"y": 0.3770816758,
				"z": 0.059756463,
				"element": "C" 
			},
			{
				"x": 0.1666043707,
				"y": -1.0743400601,
				"z": 0.5597726507,
				"element": "C" 
			},
			{
				"x": 1.2733081748,
				"y": -1.6881905828,
				"z": 1.1600246145,
				"element": "C" 
			},
			{
				"x": 1.2104559123,
				"y": -3.0083496693,
				"z": 1.5987962754,
				"element": "C" 
			},
			{
				"x": 0.0353398425,
				"y": -3.7535837326,
				"z": 1.4498813501,
				"element": "C" 
			},
			{
				"x": -1.0732670574,
				"y": -3.1554023242,
				"z": 0.8565676605,
				"element": "C" 
			},
			{
				"x": -2.297246103,
				"y": -3.7440245404,
				"z": 0.6376504954,
				"element": "O" 
			},
			{
				"x": -2.4812267582,
				"y": -5.0853263505,
				"z": 1.0652106821,
				"element": "C" 
			},
			{
				"x": -1.004703804,
				"y": -1.8221932578,
				"z": 0.4148876542,
				"element": "C" 
			},
			{
				"x": -2.1072597957,
				"y": -1.2413943781,
				"z": -0.155841512,
				"element": "O" 
			},
			{
				"x": 3.6268992353,
				"y": -0.80086015,
				"z": -2.7659907085,
				"element": "H" 
			},
			{
				"x": 2.1184677667,
				"y": -0.9516673157,
				"z": -3.725511744,
				"element": "H" 
			},
			{
				"x": 2.9891760935,
				"y": 0.614265822,
				"z": -3.6277421161,
				"element": "H" 
			},
			{
				"x": 3.4693807866,
				"y": 2.3567354594,
				"z": 2.4107395028,
				"element": "H" 
			},
			{
				"x": 3.8674389356,
				"y": 2.3058870022,
				"z": 0.6697614949,
				"element": "H" 
			},
			{
				"x": 2.9475474013,
				"y": 3.6679211675,
				"z": 1.3465123255,
				"element": "H" 
			},
			{
				"x": 1.0860839923,
				"y": 2.6566052882,
				"z": 2.9183234363,
				"element": "H" 
			},
			{
				"x": -1.7849478277,
				"y": 0.8954493393,
				"z": 0.7429873112,
				"element": "H" 
			},
			{
				"x": -0.2101279404,
				"y": 0.3555209509,
				"z": -0.9702844374,
				"element": "H" 
			},
			{
				"x": 2.1900739674,
				"y": -1.1207642918,
				"z": 1.2785234091,
				"element": "H" 
			},
			{
				"x": 2.0776277118,
				"y": -3.4686439628,
				"z": 2.0619771378,
				"element": "H" 
			},
			{
				"x": -0.0067210716,
				"y": -4.7802943141,
				"z": 1.7948495813,
				"element": "H" 
			},
			{
				"x": -2.3423213121,
				"y": -5.1807438693,
				"z": 2.1491910037,
				"element": "H" 
			},
			{
				"x": -1.7912058274,
				"y": -5.76607225,
				"z": 0.5513701841,
				"element": "H" 
			},
			{
				"x": -3.5077918764,
				"y": -5.3498541147,
				"z": 0.8076952559,
				"element": "H" 
			},
			{
				"x": -2.8083388976,
				"y": -1.9116703148,
				"z": -0.1627575786,
				"element": "H" 
			}
		],
		 "valence_orbital": [ 
			{
				"type": "occ",
				"energy": -0.26079,
				"method": "rhf"
			},
			{
				"type": "occ",
				"energy": -0.24697,
				"method": "rhf"
			},
			{
				"type": "occ",
				"energy": -0.236,
				"method": "rhf"
			},
			{
				"type": "occ",
				"energy": -0.22209,
				"method": "rhf"
			},
			{
				"type": "occ",
				"energy": -0.21193,
				"method": "rhf"
			},
			{
				"type": "unocc",
				"energy": -0.03275,
				"method": "rhf"
			},
			{
				"type": "unocc",
				"energy": 0.00136,
				"method": "rhf"
			},
			{
				"type": "unocc",
				"energy": 0.01289,
				"method": "rhf"
			},
			{
				"type": "unocc",
				"energy": 0.06339,
				"method": "rhf"
			},
			{
				"type": "unocc",
				"energy": 0.0664,
				"method": "rhf"
			}
		],
		"cosmo_sigma_profile": { 
			"-0.025": 0.0,
			"-0.024": 0.0,
			"-0.023": 0.0,
			"-0.022": 0.0,
			"-0.021": 0.0,
			"-0.02": 0.0,
			"-0.019": 0.0,
			"-0.018": 0.0,
			"-0.017": 0.0,
			"-0.016": 0.0532351866768,
			"-0.015": 0.830192076382,
			"-0.014": 1.69937571821,
			"-0.013": 1.29203884317,
			"-0.012": 1.41577090452,
			"-0.011": 1.8177844545,
			"-0.01": 2.03270190088,
			"-0.009": 2.99293601799,
			"-0.008": 2.6433577036,
			"-0.007": 3.6818607244,
			"-0.006": 16.882022364,
			"-0.005": 25.7625175369,
			"-0.004": 27.6614263277,
			"-0.003": 30.0983250796,
			"-0.002": 23.7459526072,
			"-0.001": 23.1762762065,
			"0.0": 21.3707244933,
			"0.001": 20.0594503491,
			"0.002": 19.9298282988,
			"0.003": 15.9256380448,
			"0.004": 14.2722287667,
			"0.005": 15.2588411152,
			"0.006": 10.8771745558,
			"0.007": 6.08587214472,
			"0.008": 2.97689539168,
			"0.009": 3.47434204246,
			"0.01": 3.344410564,
			"0.011": 3.14590446632,
			"0.012": 4.67880783281,
			"0.013": 7.21521553582,
			"0.014": 4.2575514238,
			"0.015": 0.270358670519,
			"0.016": 0.0,
			"0.017": 0.0,
			"0.018": 0.0,
			"0.019": 0.0,
			"0.02": 0.0,
			"0.021": 0.0,
			"0.022": 0.0,
			"0.023": 0.0,
			"0.024": 0.0,
			"0.025": 0.0
		}
	}
}
