{
	 "smiles": "OCC1=CC(Br)=CS1", 
	 "Tm": 304.15, 
	 "num_atms": 13, 
	 "gaussian": { 
		 "optdone": 1, 
		 "sigma_profile": "yes", 
		 "theory": "DFT", 
		 "functional": "B3LYP", 
		 "basiset": "6-31G**", 
		 "properties": { 
			 "R2extent": 2836.2208, 
			 "electric_dipole_moment_norm": 0.885217973157, 
			 "electric_quadrupole_moment_norm": 8.93370026081, 
			 "total_energy": -3238.33024047, 
			 "HOMO_LUMO_gap": 0.20632, 
			 "cosmo_polarized_energy": -7.75, 
			 "cosmo_cavitation_energy": 21.06, 
			 "cosmo_dispersion_energy": -16.63, 
			 "cosmo_repulsion_energy": 1.35, 
			 "cosmo_total_nonelectrostatic_energy": 5.78, 
			 "SMD_solvation_energy": 2.52 
		},
		"coords": [
			{
				"x": 1.4037163944,
				"y": 1.8619938558,
				"z": -1.560818535,
				"element": "O" 
			},
			{
				"x": 1.7873903921,
				"y": 1.2284821561,
				"z": -0.3496320041,
				"element": "C" 
			},
			{
				"x": 0.6837776525,
				"y": 0.4166446485,
				"z": 0.2706872504,
				"element": "C" 
			},
			{
				"x": 0.3506096833,
				"y": 0.29807929,
				"z": 1.5927464275,
				"element": "C" 
			},
			{
				"x": -0.7355835916,
				"y": -0.6054458395,
				"z": 1.7986597084,
				"element": "C" 
			},
			{
				"x": -1.4400109027,
				"y": -0.9791028568,
				"z": 3.5230545104,
				"element": "Br" 
			},
			{
				"x": -1.2257259616,
				"y": -1.1558995213,
				"z": 0.6506240777,
				"element": "C" 
			},
			{
				"x": -0.3511587867,
				"y": -0.5754842054,
				"z": -0.7311186818,
				"element": "S" 
			},
			{
				"x": 0.6409668652,
				"y": 2.4247974354,
				"z": -1.3697184115,
				"element": "H" 
			},
			{
				"x": 2.1528907744,
				"y": 1.9467336378,
				"z": 0.4007420412,
				"element": "H" 
			},
			{
				"x": 2.6329933664,
				"y": 0.5859623137,
				"z": -0.6197846458,
				"element": "H" 
			},
			{
				"x": 0.8517801233,
				"y": 0.825596187,
				"z": 2.3953392725,
				"element": "H" 
			},
			{
				"x": -2.0513460092,
				"y": -1.8425571012,
				"z": 0.5370189903,
				"element": "H" 
			}
		],
		 "valence_orbital": [ 
			{
				"type": "occ",
				"energy": -0.31672,
				"method": "rhf"
			},
			{
				"type": "occ",
				"energy": -0.29091,
				"method": "rhf"
			},
			{
				"type": "occ",
				"energy": -0.28812,
				"method": "rhf"
			},
			{
				"type": "occ",
				"energy": -0.25718,
				"method": "rhf"
			},
			{
				"type": "occ",
				"energy": -0.2348,
				"method": "rhf"
			},
			{
				"type": "unocc",
				"energy": -0.02848,
				"method": "rhf"
			},
			{
				"type": "unocc",
				"energy": -0.0001,
				"method": "rhf"
			},
			{
				"type": "unocc",
				"energy": 0.03043,
				"method": "rhf"
			},
			{
				"type": "unocc",
				"energy": 0.04553,
				"method": "rhf"
			},
			{
				"type": "unocc",
				"energy": 0.0728,
				"method": "rhf"
			}
		],
		"cosmo_sigma_profile": { 
			"-0.025": 0.0,
			"-0.024": 0.0,
			"-0.023": 0.0,
			"-0.022": 0.0,
			"-0.021": 0.0,
			"-0.02": 0.0,
			"-0.019": 0.0,
			"-0.018": 0.0,
			"-0.017": 0.0,
			"-0.016": 0.282214764645,
			"-0.015": 1.23317906691,
			"-0.014": 0.777786133101,
			"-0.013": 0.761547408616,
			"-0.012": 0.811449392146,
			"-0.011": 1.21719943424,
			"-0.01": 1.17131350287,
			"-0.009": 2.60624429805,
			"-0.008": 2.45433205543,
			"-0.007": 5.40370820094,
			"-0.006": 9.3584952885,
			"-0.005": 8.91444812144,
			"-0.004": 9.39045099704,
			"-0.003": 10.6010216067,
			"-0.002": 7.53531626641,
			"-0.001": 8.64287169068,
			"0.0": 9.95333067641,
			"0.001": 11.3943518295,
			"0.002": 19.0106997667,
			"0.003": 24.2896507609,
			"0.004": 18.8656022806,
			"0.005": 7.47026719282,
			"0.006": 1.41293730376,
			"0.007": 0.924547870504,
			"0.008": 0.493195714409,
			"0.009": 1.40849279493,
			"0.01": 1.78224147418,
			"0.011": 1.21006149362,
			"0.012": 1.0160165996,
			"0.013": 2.26309566327,
			"0.014": 0.783329911185,
			"0.015": 0.0,
			"0.016": 0.0,
			"0.017": 0.0,
			"0.018": 0.0,
			"0.019": 0.0,
			"0.02": 0.0,
			"0.021": 0.0,
			"0.022": 0.0,
			"0.023": 0.0,
			"0.024": 0.0,
			"0.025": 0.0
		}
	}
}
