{
	 "smiles": "OC(=O)C1CCOCC1", 
	 "Tm": 361.15, 
	 "num_atms": 19, 
	 "gaussian": { 
		 "optdone": 1, 
		 "sigma_profile": "yes", 
		 "theory": "DFT", 
		 "functional": "B3LYP", 
		 "basiset": "6-31G**", 
		 "properties": { 
			 "R2extent": 1336.0455, 
			 "electric_dipole_moment_norm": 3.95609308788, 
			 "electric_quadrupole_moment_norm": 14.7236944851, 
			 "total_energy": -460.326383122, 
			 "HOMO_LUMO_gap": 0.24947, 
			 "cosmo_polarized_energy": -15.93, 
			 "cosmo_cavitation_energy": 21.11, 
			 "cosmo_dispersion_energy": -15.92, 
			 "cosmo_repulsion_energy": 1.32, 
			 "cosmo_total_nonelectrostatic_energy": 6.51, 
			 "SMD_solvation_energy": 4.37 
		},
		"coords": [
			{
				"x": 2.0752188071,
				"y": 1.8903538033,
				"z": -1.4529582652,
				"element": "O" 
			},
			{
				"x": 0.92453572,
				"y": 1.4824768371,
				"z": -0.8487998297,
				"element": "C" 
			},
			{
				"x": 0.0705131349,
				"y": 2.2919915908,
				"z": -0.5846660174,
				"element": "O" 
			},
			{
				"x": 0.8593792814,
				"y": -0.0086263886,
				"z": -0.5095262229,
				"element": "C" 
			},
			{
				"x": -0.5947052373,
				"y": -0.4570880604,
				"z": -0.2481735314,
				"element": "C" 
			},
			{
				"x": -0.6456704164,
				"y": -1.6114435286,
				"z": 0.7503842073,
				"element": "C" 
			},
			{
				"x": -0.1068580856,
				"y": -1.26783416,
				"z": 2.0274060232,
				"element": "O" 
			},
			{
				"x": 0.8975529473,
				"y": -0.2568532801,
				"z": 2.0116193051,
				"element": "C" 
			},
			{
				"x": 1.7462852106,
				"y": -0.3054485993,
				"z": 0.742094167,
				"element": "C" 
			},
			{
				"x": 2.6505736762,
				"y": 1.1309698687,
				"z": -1.622874768,
				"element": "H" 
			},
			{
				"x": 1.2718226169,
				"y": -0.5637214575,
				"z": -1.3633020899,
				"element": "H" 
			},
			{
				"x": -1.1562964795,
				"y": 0.3960294549,
				"z": 0.1433683139,
				"element": "H" 
			},
			{
				"x": -1.079510743,
				"y": -0.7538016743,
				"z": -1.1842319694,
				"element": "H" 
			},
			{
				"x": -1.6814459247,
				"y": -1.9209580552,
				"z": 0.9251052593,
				"element": "H" 
			},
			{
				"x": -0.1108949662,
				"y": -2.4860531405,
				"z": 0.3428582785,
				"element": "H" 
			},
			{
				"x": 1.5170602955,
				"y": -0.426953712,
				"z": 2.8982227439,
				"element": "H" 
			},
			{
				"x": 0.4427213613,
				"y": 0.7411832221,
				"z": 2.1116366019,
				"element": "H" 
			},
			{
				"x": 2.5766955744,
				"y": 0.4056850706,
				"z": 0.8185239211,
				"element": "H" 
			},
			{
				"x": 2.1879232271,
				"y": -1.303707791,
				"z": 0.6500138728,
				"element": "H" 
			}
		],
		 "valence_orbital": [ 
			{
				"type": "occ",
				"energy": -0.34514,
				"method": "rhf"
			},
			{
				"type": "occ",
				"energy": -0.31999,
				"method": "rhf"
			},
			{
				"type": "occ",
				"energy": -0.29842,
				"method": "rhf"
			},
			{
				"type": "occ",
				"energy": -0.27317,
				"method": "rhf"
			},
			{
				"type": "occ",
				"energy": -0.24723,
				"method": "rhf"
			},
			{
				"type": "unocc",
				"energy": 0.00224,
				"method": "rhf"
			},
			{
				"type": "unocc",
				"energy": 0.04693,
				"method": "rhf"
			},
			{
				"type": "unocc",
				"energy": 0.08033,
				"method": "rhf"
			},
			{
				"type": "unocc",
				"energy": 0.1043,
				"method": "rhf"
			},
			{
				"type": "unocc",
				"energy": 0.12536,
				"method": "rhf"
			}
		],
		"cosmo_sigma_profile": { 
			"-0.025": 0.0,
			"-0.024": 0.0,
			"-0.023": 0.0,
			"-0.022": 0.0,
			"-0.021": 0.0,
			"-0.02": 0.0,
			"-0.019": 0.15770421835,
			"-0.018": 0.92251477151,
			"-0.017": 1.36534987369,
			"-0.016": 0.829143507117,
			"-0.015": 0.911620551096,
			"-0.014": 1.43550471721,
			"-0.013": 1.03841221801,
			"-0.012": 0.946875145596,
			"-0.011": 1.36849217453,
			"-0.01": 1.09171090388,
			"-0.009": 1.26543335437,
			"-0.008": 1.28840624521,
			"-0.007": 2.02223371456,
			"-0.006": 4.38562500219,
			"-0.005": 11.404146598,
			"-0.004": 20.3573857577,
			"-0.003": 19.7422877191,
			"-0.002": 16.2952430103,
			"-0.001": 12.0191136339,
			"0.0": 7.15147849903,
			"0.001": 4.20799016153,
			"0.002": 4.51449725615,
			"0.003": 3.40285698653,
			"0.004": 3.33034720633,
			"0.005": 3.65007082857,
			"0.006": 3.64151746426,
			"0.007": 3.25102290793,
			"0.008": 4.04566157257,
			"0.009": 5.13937835219,
			"0.01": 5.56928023412,
			"0.011": 5.58321141609,
			"0.012": 6.62315359385,
			"0.013": 3.28808743087,
			"0.014": 1.68800077516,
			"0.015": 0.116146488429,
			"0.016": 0.0,
			"0.017": 0.0,
			"0.018": 0.0,
			"0.019": 0.0,
			"0.02": 0.0,
			"0.021": 0.0,
			"0.022": 0.0,
			"0.023": 0.0,
			"0.024": 0.0,
			"0.025": 0.0
		}
	}
}
