{
	 "smiles": "CN(C)C(=O)C1CCC(CC1)C(O)=O", 
	 "Tm": 443.15, 
	 "num_atms": 31, 
	 "gaussian": { 
		 "optdone": 1, 
		 "sigma_profile": "yes", 
		 "theory": "DFT", 
		 "functional": "B3LYP", 
		 "basiset": "6-31G**", 
		 "properties": { 
			 "R2extent": 3468.7023, 
			 "electric_dipole_moment_norm": 3.62260087506, 
			 "electric_quadrupole_moment_norm": 10.7912596276, 
			 "total_energy": -671.772689012, 
			 "HOMO_LUMO_gap": 0.24697, 
			 "cosmo_polarized_energy": -14.18, 
			 "cosmo_cavitation_energy": 31.16, 
			 "cosmo_dispersion_energy": -22.58, 
			 "cosmo_repulsion_energy": 1.78, 
			 "cosmo_total_nonelectrostatic_energy": 10.36, 
			 "SMD_solvation_energy": 6.13 
		},
		"coords": [
			{
				"x": -1.2379841733,
				"y": 0.1938642969,
				"z": 3.8522189352,
				"element": "C" 
			},
			{
				"x": -0.6961885872,
				"y": -0.4235738483,
				"z": 2.6485459448,
				"element": "N" 
			},
			{
				"x": -0.9754640799,
				"y": -1.844214508,
				"z": 2.5215481783,
				"element": "C" 
			},
			{
				"x": 0.0369707534,
				"y": 0.3552327009,
				"z": 1.7768305245,
				"element": "C" 
			},
			{
				"x": 0.2130719109,
				"y": 1.55340876,
				"z": 2.0011134836,
				"element": "O" 
			},
			{
				"x": 0.599918139,
				"y": -0.3039818194,
				"z": 0.5091030856,
				"element": "C" 
			},
			{
				"x": 1.8440433847,
				"y": 0.4406586341,
				"z": -0.0267135443,
				"element": "C" 
			},
			{
				"x": 1.5422225941,
				"y": 1.7771279805,
				"z": -0.7268469701,
				"element": "C" 
			},
			{
				"x": 0.4248610373,
				"y": 1.675967185,
				"z": -1.7790892385,
				"element": "C" 
			},
			{
				"x": -0.8274169859,
				"y": 0.981932576,
				"z": -1.1873752122,
				"element": "C" 
			},
			{
				"x": -0.488874995,
				"y": -0.3927192262,
				"z": -0.5932821351,
				"element": "C" 
			},
			{
				"x": 0.8840541208,
				"y": 0.9750517265,
				"z": -3.0477592222,
				"element": "C" 
			},
			{
				"x": -0.0463041839,
				"y": 1.066201547,
				"z": -4.0348977049,
				"element": "O" 
			},
			{
				"x": 1.9360946606,
				"y": 0.3952153,
				"z": -3.2197491941,
				"element": "O" 
			},
			{
				"x": -0.959876087,
				"y": 1.2458254074,
				"z": 3.8555708239,
				"element": "H" 
			},
			{
				"x": -0.8362007382,
				"y": -0.2954390605,
				"z": 4.7489755706,
				"element": "H" 
			},
			{
				"x": -2.3315099551,
				"y": 0.1016540577,
				"z": 3.8731052393,
				"element": "H" 
			},
			{
				"x": -0.618383931,
				"y": -2.2453326352,
				"z": 1.5764480513,
				"element": "H" 
			},
			{
				"x": -0.5038997529,
				"y": -2.4098856718,
				"z": 3.3371608886,
				"element": "H" 
			},
			{
				"x": -2.0574845262,
				"y": -2.0225023283,
				"z": 2.5757739089,
				"element": "H" 
			},
			{
				"x": 0.9205340075,
				"y": -1.3220669304,
				"z": 0.7545712742,
				"element": "H" 
			},
			{
				"x": 2.3419142527,
				"y": -0.2238910175,
				"z": -0.7404870758,
				"element": "H" 
			},
			{
				"x": 2.5452366449,
				"y": 0.6176235354,
				"z": 0.7953507763,
				"element": "H" 
			},
			{
				"x": 2.4585584606,
				"y": 2.1480623556,
				"z": -1.1978208998,
				"element": "H" 
			},
			{
				"x": 1.2304898446,
				"y": 2.5045846389,
				"z": 0.0254859916,
				"element": "H" 
			},
			{
				"x": 0.1266602992,
				"y": 2.6843367088,
				"z": -2.0944674096,
				"element": "H" 
			},
			{
				"x": -1.5990627233,
				"y": 0.8815909742,
				"z": -1.9567039778,
				"element": "H" 
			},
			{
				"x": -1.2297260787,
				"y": 1.6318757849,
				"z": -0.402620782,
				"element": "H" 
			},
			{
				"x": -1.4008480201,
				"y": -0.8578043243,
				"z": -0.201452976,
				"element": "H" 
			},
			{
				"x": -0.1177963595,
				"y": -1.0551753938,
				"z": -1.3864990809,
				"element": "H" 
			},
			{
				"x": 0.3286910668,
				"y": 0.5940725939,
				"z": -4.7972372532,
				"element": "H" 
			}
		],
		 "valence_orbital": [ 
			{
				"type": "occ",
				"energy": -0.30227,
				"method": "rhf"
			},
			{
				"type": "occ",
				"energy": -0.29991,
				"method": "rhf"
			},
			{
				"type": "occ",
				"energy": -0.26638,
				"method": "rhf"
			},
			{
				"type": "occ",
				"energy": -0.23868,
				"method": "rhf"
			},
			{
				"type": "occ",
				"energy": -0.23598,
				"method": "rhf"
			},
			{
				"type": "unocc",
				"energy": 0.01099,
				"method": "rhf"
			},
			{
				"type": "unocc",
				"energy": 0.02797,
				"method": "rhf"
			},
			{
				"type": "unocc",
				"energy": 0.07322,
				"method": "rhf"
			},
			{
				"type": "unocc",
				"energy": 0.08195,
				"method": "rhf"
			},
			{
				"type": "unocc",
				"energy": 0.10666,
				"method": "rhf"
			}
		],
		"cosmo_sigma_profile": { 
			"-0.025": 0.0,
			"-0.024": 0.0,
			"-0.023": 0.0,
			"-0.022": 0.0,
			"-0.021": 0.0,
			"-0.02": 0.0,
			"-0.019": 0.0,
			"-0.018": 0.316020607224,
			"-0.017": 0.869293691835,
			"-0.016": 0.801226136426,
			"-0.015": 1.00943766703,
			"-0.014": 0.763498908373,
			"-0.013": 0.771800105014,
			"-0.012": 0.234143468482,
			"-0.011": 0.473910205826,
			"-0.01": 1.68285545516,
			"-0.009": 0.473349826627,
			"-0.008": 0.257955377804,
			"-0.007": 1.60128993756,
			"-0.006": 3.03522685588,
			"-0.005": 10.7294080905,
			"-0.004": 22.49272418,
			"-0.003": 30.0650825727,
			"-0.002": 39.3128043263,
			"-0.001": 29.4142145356,
			"0.0": 20.1897239203,
			"0.001": 13.2666867473,
			"0.002": 9.32864899232,
			"0.003": 6.04881113097,
			"0.004": 4.85335874373,
			"0.005": 5.35763005288,
			"0.006": 4.81456166598,
			"0.007": 4.63387626225,
			"0.008": 4.36482041362,
			"0.009": 4.89885701107,
			"0.01": 3.5730954707,
			"0.011": 4.06333428921,
			"0.012": 6.13364732554,
			"0.013": 2.33697255322,
			"0.014": 3.19078924657,
			"0.015": 0.43214688505,
			"0.016": 0.0,
			"0.017": 0.0,
			"0.018": 0.0,
			"0.019": 0.0,
			"0.02": 0.0,
			"0.021": 0.0,
			"0.022": 0.0,
			"0.023": 0.0,
			"0.024": 0.0,
			"0.025": 0.0
		}
	}
}
