{
	 "smiles": "CC(N1C(=O)C2C3CCC(O3)C2C1=O)C(O)=O", 
	 "Tm": 463.15, 
	 "num_atms": 30, 
	 "gaussian": { 
		 "optdone": 1, 
		 "sigma_profile": "yes", 
		 "theory": "DFT", 
		 "functional": "B3LYP", 
		 "basiset": "6-31G**", 
		 "properties": { 
			 "R2extent": 3959.358, 
			 "electric_dipole_moment_norm": 4.15597536085, 
			 "electric_quadrupole_moment_norm": 12.6938115789, 
			 "total_energy": -857.912559887, 
			 "HOMO_LUMO_gap": 0.23728, 
			 "cosmo_polarized_energy": -19.44, 
			 "cosmo_cavitation_energy": 32.36, 
			 "cosmo_dispersion_energy": -22.92, 
			 "cosmo_repulsion_energy": 1.79, 
			 "cosmo_total_nonelectrostatic_energy": 11.23, 
			 "SMD_solvation_energy": 7.26 
		},
		"coords": [
			{
				"x": 2.3114666257,
				"y": 0.0412239201,
				"z": -3.5734155748,
				"element": "C" 
			},
			{
				"x": 0.9462620102,
				"y": 0.3369664491,
				"z": -2.9488950812,
				"element": "C" 
			},
			{
				"x": 0.9865831674,
				"y": 0.3531502445,
				"z": -1.4889442923,
				"element": "N" 
			},
			{
				"x": 1.1700981488,
				"y": -0.7873563248,
				"z": -0.7089292936,
				"element": "C" 
			},
			{
				"x": 1.3286106465,
				"y": -1.906404214,
				"z": -1.1534726897,
				"element": "O" 
			},
			{
				"x": 1.1186363309,
				"y": -0.3756693298,
				"z": 0.7572792236,
				"element": "C" 
			},
			{
				"x": -0.152780198,
				"y": -0.9088831442,
				"z": 1.4718558358,
				"element": "C" 
			},
			{
				"x": -0.0718309054,
				"y": -0.5693439909,
				"z": 2.9766351568,
				"element": "C" 
			},
			{
				"x": -0.355156249,
				"y": 0.9648794269,
				"z": 2.9545144788,
				"element": "C" 
			},
			{
				"x": -0.5454312882,
				"y": 1.2109130475,
				"z": 1.4413497944,
				"element": "C" 
			},
			{
				"x": -1.1652056464,
				"y": -0.0067096789,
				"z": 0.9953256873,
				"element": "O" 
			},
			{
				"x": 0.8358471248,
				"y": 1.1484369268,
				"z": 0.7343268594,
				"element": "C" 
			},
			{
				"x": 0.7439091308,
				"y": 1.5084844727,
				"z": -0.7431526254,
				"element": "C" 
			},
			{
				"x": 0.5016347874,
				"y": 2.5985355483,
				"z": -1.2192386054,
				"element": "O" 
			},
			{
				"x": -0.1310344549,
				"y": -0.6145745009,
				"z": -3.477260344,
				"element": "C" 
			},
			{
				"x": -1.2099414577,
				"y": -0.6628212647,
				"z": -2.6704793533,
				"element": "O" 
			},
			{
				"x": -0.0582765021,
				"y": -1.2002814535,
				"z": -4.5326069097,
				"element": "O" 
			},
			{
				"x": 3.0338421191,
				"y": 0.8030010774,
				"z": -3.2690601792,
				"element": "H" 
			},
			{
				"x": 2.668990458,
				"y": -0.9422918886,
				"z": -3.2625658835,
				"element": "H" 
			},
			{
				"x": 2.2228820088,
				"y": 0.046834616,
				"z": -4.661046443,
				"element": "H" 
			},
			{
				"x": 0.6209425515,
				"y": 1.3488955121,
				"z": -3.2221216348,
				"element": "H" 
			},
			{
				"x": 2.0432923156,
				"y": -0.6798157216,
				"z": 1.2538131794,
				"element": "H" 
			},
			{
				"x": -0.4165631655,
				"y": -1.9356920061,
				"z": 1.2187746891,
				"element": "H" 
			},
			{
				"x": -0.8462441289,
				"y": -1.1092707835,
				"z": 3.5266145478,
				"element": "H" 
			},
			{
				"x": 0.8961510357,
				"y": -0.8256167462,
				"z": 3.4163420491,
				"element": "H" 
			},
			{
				"x": 0.4554659577,
				"y": 1.562125251,
				"z": 3.381380622,
				"element": "H" 
			},
			{
				"x": -1.2738176166,
				"y": 1.2079052492,
				"z": 3.4936610317,
				"element": "H" 
			},
			{
				"x": -1.1584249111,
				"y": 2.067778719,
				"z": 1.1619700003,
				"element": "H" 
			},
			{
				"x": 1.58730219,
				"y": 1.7790292897,
				"z": 1.2156894518,
				"element": "H" 
			},
			{
				"x": -1.8415100851,
				"y": -1.2675287026,
				"z": -3.0944436974,
				"element": "H" 
			}
		],
		 "valence_orbital": [ 
			{
				"type": "occ",
				"energy": -0.2971,
				"method": "rhf"
			},
			{
				"type": "occ",
				"energy": -0.28637,
				"method": "rhf"
			},
			{
				"type": "occ",
				"energy": -0.27722,
				"method": "rhf"
			},
			{
				"type": "occ",
				"energy": -0.26967,
				"method": "rhf"
			},
			{
				"type": "occ",
				"energy": -0.26238,
				"method": "rhf"
			},
			{
				"type": "unocc",
				"energy": -0.0251,
				"method": "rhf"
			},
			{
				"type": "unocc",
				"energy": 0.00341,
				"method": "rhf"
			},
			{
				"type": "unocc",
				"energy": 0.01137,
				"method": "rhf"
			},
			{
				"type": "unocc",
				"energy": 0.07459,
				"method": "rhf"
			},
			{
				"type": "unocc",
				"energy": 0.07865,
				"method": "rhf"
			}
		],
		"cosmo_sigma_profile": { 
			"-0.025": 0.0,
			"-0.024": 0.0,
			"-0.023": 0.0,
			"-0.022": 0.0,
			"-0.021": 0.0,
			"-0.02": 0.0,
			"-0.019": 0.425518657162,
			"-0.018": 1.18936185734,
			"-0.017": 0.898457007529,
			"-0.016": 0.513275403735,
			"-0.015": 0.439824406254,
			"-0.014": 0.699518406303,
			"-0.013": 0.924609510472,
			"-0.012": 1.11500719733,
			"-0.011": 0.93673088358,
			"-0.01": 0.380178102041,
			"-0.009": 0.878404986604,
			"-0.008": 4.44631552032,
			"-0.007": 13.6439059645,
			"-0.006": 14.9927667734,
			"-0.005": 18.2438553343,
			"-0.004": 23.7476688921,
			"-0.003": 22.970059711,
			"-0.002": 19.1449815403,
			"-0.001": 19.5224715204,
			"0.0": 14.3036737602,
			"0.001": 7.73521718292,
			"0.002": 7.00081923033,
			"0.003": 5.95125578379,
			"0.004": 7.39642733089,
			"0.005": 7.9738313249,
			"0.006": 7.57132914059,
			"0.007": 7.43089303251,
			"0.008": 5.43148949048,
			"0.009": 7.65216034289,
			"0.01": 8.04967930376,
			"0.011": 14.1542429772,
			"0.012": 7.08990178515,
			"0.013": 1.09040855172,
			"0.014": 0.0,
			"0.015": 0.0,
			"0.016": 0.0,
			"0.017": 0.0,
			"0.018": 0.0,
			"0.019": 0.0,
			"0.02": 0.0,
			"0.021": 0.0,
			"0.022": 0.0,
			"0.023": 0.0,
			"0.024": 0.0,
			"0.025": 0.0
		}
	}
}
