{
	 "smiles": "N#CCC1=COC(=N1)C1=CC=CC=C1", 
	 "Tm": 361.15, 
	 "num_atms": 22, 
	 "gaussian": { 
		 "optdone": 1, 
		 "sigma_profile": "yes", 
		 "theory": "DFT", 
		 "functional": "B3LYP", 
		 "basiset": "6-31G**", 
		 "properties": { 
			 "R2extent": 4873.1436, 
			 "electric_dipole_moment_norm": 3.64523048654, 
			 "electric_quadrupole_moment_norm": 20.3761650342, 
			 "total_energy": -608.692672012, 
			 "HOMO_LUMO_gap": 0.18076, 
			 "cosmo_polarized_energy": -10.98, 
			 "cosmo_cavitation_energy": 28.18, 
			 "cosmo_dispersion_energy": -20.23, 
			 "cosmo_repulsion_energy": 1.58, 
			 "cosmo_total_nonelectrostatic_energy": 9.53, 
			 "SMD_solvation_energy": 5.38 
		},
		"coords": [
			{
				"x": -4.1136791816,
				"y": -0.9172960268,
				"z": -5.4280352615,
				"element": "N" 
			},
			{
				"x": -3.9288744836,
				"y": -0.4686032657,
				"z": -4.3742720281,
				"element": "C" 
			},
			{
				"x": -3.6815716698,
				"y": 0.0852340485,
				"z": -3.0404665011,
				"element": "C" 
			},
			{
				"x": -2.5822619556,
				"y": -0.6308940706,
				"z": -2.305989545,
				"element": "C" 
			},
			{
				"x": -1.8104030942,
				"y": -1.6819163251,
				"z": -2.6858211917,
				"element": "C" 
			},
			{
				"x": -0.9535646921,
				"y": -1.9594556882,
				"z": -1.6543464994,
				"element": "O" 
			},
			{
				"x": -1.2573227267,
				"y": -1.0467998347,
				"z": -0.6869142731,
				"element": "C" 
			},
			{
				"x": -2.2208417164,
				"y": -0.2349169691,
				"z": -1.0294126617,
				"element": "N" 
			},
			{
				"x": -0.5060775895,
				"y": -1.079496632,
				"z": 0.5643112366,
				"element": "C" 
			},
			{
				"x": 0.5101492722,
				"y": -2.0242308434,
				"z": 0.7777411046,
				"element": "C" 
			},
			{
				"x": 1.2110991578,
				"y": -2.0322552321,
				"z": 1.9818412914,
				"element": "C" 
			},
			{
				"x": 0.907234301,
				"y": -1.1032696853,
				"z": 2.9795076594,
				"element": "C" 
			},
			{
				"x": -0.1043387558,
				"y": -0.161588519,
				"z": 2.7691511498,
				"element": "C" 
			},
			{
				"x": -0.8095659359,
				"y": -0.1463873855,
				"z": 1.5694977407,
				"element": "C" 
			},
			{
				"x": -4.6106224004,
				"y": 0.0382345898,
				"z": -2.4587503326,
				"element": "H" 
			},
			{
				"x": -3.4333331628,
				"y": 1.1494026801,
				"z": -3.1387364529,
				"element": "H" 
			},
			{
				"x": -1.7386093933,
				"y": -2.2950403772,
				"z": -3.5688936955,
				"element": "H" 
			},
			{
				"x": 0.7446519276,
				"y": -2.7449178111,
				"z": 0.0017508582,
				"element": "H" 
			},
			{
				"x": 1.9961542285,
				"y": -2.7654604994,
				"z": 2.1412305859,
				"element": "H" 
			},
			{
				"x": 1.4558040783,
				"y": -1.112608778,
				"z": 3.9168047235,
				"element": "H" 
			},
			{
				"x": -0.3434100258,
				"y": 0.5622546764,
				"z": 3.5426359301,
				"element": "H" 
			},
			{
				"x": -1.5969161817,
				"y": 0.5784119483,
				"z": 1.3924661624,
				"element": "H" 
			}
		],
		 "valence_orbital": [ 
			{
				"type": "occ",
				"energy": -0.32361,
				"method": "rhf"
			},
			{
				"type": "occ",
				"energy": -0.30188,
				"method": "rhf"
			},
			{
				"type": "occ",
				"energy": -0.28917,
				"method": "rhf"
			},
			{
				"type": "occ",
				"energy": -0.26256,
				"method": "rhf"
			},
			{
				"type": "occ",
				"energy": -0.23145,
				"method": "rhf"
			},
			{
				"type": "unocc",
				"energy": -0.05069,
				"method": "rhf"
			},
			{
				"type": "unocc",
				"energy": -0.01195,
				"method": "rhf"
			},
			{
				"type": "unocc",
				"energy": 0.02129,
				"method": "rhf"
			},
			{
				"type": "unocc",
				"energy": 0.02815,
				"method": "rhf"
			},
			{
				"type": "unocc",
				"energy": 0.03256,
				"method": "rhf"
			}
		],
		"cosmo_sigma_profile": { 
			"-0.025": 0.0,
			"-0.024": 0.0,
			"-0.023": 0.0,
			"-0.022": 0.0,
			"-0.021": 0.0,
			"-0.02": 0.0,
			"-0.019": 0.0,
			"-0.018": 0.0,
			"-0.017": 0.0,
			"-0.016": 0.0,
			"-0.015": 0.0,
			"-0.014": 0.0,
			"-0.013": 0.0,
			"-0.012": 0.0,
			"-0.011": 0.0759421425031,
			"-0.01": 2.70310040355,
			"-0.009": 7.32729342542,
			"-0.008": 4.78319606492,
			"-0.007": 6.19592716629,
			"-0.006": 15.1975653437,
			"-0.005": 13.8878484828,
			"-0.004": 14.0445988719,
			"-0.003": 12.988190099,
			"-0.002": 14.2132119438,
			"-0.001": 14.5594285174,
			"0.0": 18.6416860006,
			"0.001": 17.6777087242,
			"0.002": 15.6927130984,
			"0.003": 14.7816129909,
			"0.004": 17.1488046236,
			"0.005": 9.58026656484,
			"0.006": 3.50083836998,
			"0.007": 4.16979908681,
			"0.008": 3.69466936852,
			"0.009": 4.7829655865,
			"0.01": 3.57614434548,
			"0.011": 3.83138063481,
			"0.012": 3.2135824866,
			"0.013": 1.78979576729,
			"0.014": 0.0336195040935,
			"0.015": 0.0,
			"0.016": 0.0,
			"0.017": 0.0,
			"0.018": 0.0,
			"0.019": 0.0,
			"0.02": 0.0,
			"0.021": 0.0,
			"0.022": 0.0,
			"0.023": 0.0,
			"0.024": 0.0,
			"0.025": 0.0
		}
	}
}
