{
	 "smiles": "CC(=O)NC1=CC=C(Br)C=C1Cl", 
	 "Tm": 424.65, 
	 "num_atms": 19, 
	 "gaussian": { 
		 "optdone": 1, 
		 "sigma_profile": "yes", 
		 "theory": "DFT", 
		 "functional": "B3LYP", 
		 "basiset": "6-31G**", 
		 "properties": { 
			 "R2extent": 6910.84, 
			 "electric_dipole_moment_norm": 2.49841630438, 
			 "electric_quadrupole_moment_norm": 10.7345145056, 
			 "total_energy": -3470.6561125, 
			 "HOMO_LUMO_gap": 0.1978, 
			 "cosmo_polarized_energy": -10.55, 
			 "cosmo_cavitation_energy": 27.45, 
			 "cosmo_dispersion_energy": -20.52, 
			 "cosmo_repulsion_energy": 1.65, 
			 "cosmo_total_nonelectrostatic_energy": 8.58, 
			 "SMD_solvation_energy": 4.14 
		},
		"coords": [
			{
				"x": -2.073014913,
				"y": 0.8439504632,
				"z": -0.6727458106,
				"element": "C" 
			},
			{
				"x": -1.1878987795,
				"y": 0.6725542535,
				"z": 0.5461107562,
				"element": "C" 
			},
			{
				"x": -1.2961676891,
				"y": 1.3854521141,
				"z": 1.5301734707,
				"element": "O" 
			},
			{
				"x": -0.2051036635,
				"y": -0.3142545258,
				"z": 0.5383121904,
				"element": "N" 
			},
			{
				"x": 0.1648628962,
				"y": -1.2565983143,
				"z": -0.4296311528,
				"element": "C" 
			},
			{
				"x": -0.7717213336,
				"y": -1.9540282351,
				"z": -1.2102766846,
				"element": "C" 
			},
			{
				"x": -0.3771146178,
				"y": -2.8928603542,
				"z": -2.1592597001,
				"element": "C" 
			},
			{
				"x": 0.9763364593,
				"y": -3.1797448856,
				"z": -2.3194816668,
				"element": "C" 
			},
			{
				"x": 1.5299540333,
				"y": -4.4730429907,
				"z": -3.6065531307,
				"element": "Br" 
			},
			{
				"x": 1.9347190935,
				"y": -2.5387108821,
				"z": -1.5386776462,
				"element": "C" 
			},
			{
				"x": 1.5244287681,
				"y": -1.5855222467,
				"z": -0.6105894238,
				"element": "C" 
			},
			{
				"x": 2.7510513112,
				"y": -0.7857565684,
				"z": 0.3591217546,
				"element": "Cl" 
			},
			{
				"x": -1.5596065675,
				"y": 0.6249629305,
				"z": -1.6115127878,
				"element": "H" 
			},
			{
				"x": -2.4241769612,
				"y": 1.8762810523,
				"z": -0.6699006152,
				"element": "H" 
			},
			{
				"x": -2.9511106773,
				"y": 0.1931972651,
				"z": -0.6006215653,
				"element": "H" 
			},
			{
				"x": 0.4180262511,
				"y": -0.2159378262,
				"z": 1.3317944039,
				"element": "H" 
			},
			{
				"x": -1.8281907531,
				"y": -1.7755564784,
				"z": -1.0542339106,
				"element": "H" 
			},
			{
				"x": -1.1206235114,
				"y": -3.4125655608,
				"z": -2.752005681,
				"element": "H" 
			},
			{
				"x": 2.9875506543,
				"y": -2.7647192101,
				"z": -1.6515228004,
				"element": "H" 
			}
		],
		 "valence_orbital": [ 
			{
				"type": "occ",
				"energy": -0.29993,
				"method": "rhf"
			},
			{
				"type": "occ",
				"energy": -0.2931,
				"method": "rhf"
			},
			{
				"type": "occ",
				"energy": -0.27357,
				"method": "rhf"
			},
			{
				"type": "occ",
				"energy": -0.26415,
				"method": "rhf"
			},
			{
				"type": "occ",
				"energy": -0.23544,
				"method": "rhf"
			},
			{
				"type": "unocc",
				"energy": -0.03764,
				"method": "rhf"
			},
			{
				"type": "unocc",
				"energy": -0.03658,
				"method": "rhf"
			},
			{
				"type": "unocc",
				"energy": -0.0163,
				"method": "rhf"
			},
			{
				"type": "unocc",
				"energy": 0.01954,
				"method": "rhf"
			},
			{
				"type": "unocc",
				"energy": 0.02893,
				"method": "rhf"
			}
		],
		"cosmo_sigma_profile": { 
			"-0.025": 0.0,
			"-0.024": 0.0,
			"-0.023": 0.0,
			"-0.022": 0.0,
			"-0.021": 0.0,
			"-0.02": 0.0,
			"-0.019": 0.0,
			"-0.018": 0.0,
			"-0.017": 0.0,
			"-0.016": 0.0,
			"-0.015": 0.0,
			"-0.014": 0.0,
			"-0.013": 0.0,
			"-0.012": 0.591505843833,
			"-0.011": 0.643201347532,
			"-0.01": 1.17831542575,
			"-0.009": 2.99207386389,
			"-0.008": 5.81105778196,
			"-0.007": 7.36642749571,
			"-0.006": 9.57056172691,
			"-0.005": 10.6749525239,
			"-0.004": 13.9774950817,
			"-0.003": 15.4846663013,
			"-0.002": 16.7577540781,
			"-0.001": 18.5265213616,
			"0.0": 17.9687212407,
			"0.001": 26.2465297548,
			"0.002": 22.9718833722,
			"0.003": 14.6067460082,
			"0.004": 17.7764547693,
			"0.005": 3.07585343218,
			"0.006": 1.37005850348,
			"0.007": 1.56948714455,
			"0.008": 0.998251070603,
			"0.009": 1.42391413818,
			"0.01": 1.13250707649,
			"0.011": 2.29680819662,
			"0.012": 3.04633590592,
			"0.013": 5.46353625103,
			"0.014": 1.76460078298,
			"0.015": 0.0346976245412,
			"0.016": 0.0,
			"0.017": 0.0,
			"0.018": 0.0,
			"0.019": 0.0,
			"0.02": 0.0,
			"0.021": 0.0,
			"0.022": 0.0,
			"0.023": 0.0,
			"0.024": 0.0,
			"0.025": 0.0
		}
	}
}
