{
	 "smiles": "CC(C)CN", 
	 "Tm": 187.15, 
	 "num_atms": 16, 
	 "gaussian": { 
		 "optdone": 1, 
		 "sigma_profile": "yes", 
		 "theory": "DFT", 
		 "functional": "B3LYP", 
		 "basiset": "6-31G**", 
		 "properties": { 
			 "R2extent": 1382.9703, 
			 "electric_dipole_moment_norm": 1.33913776364, 
			 "electric_quadrupole_moment_norm": 4.41605009143, 
			 "total_energy": -213.811953646, 
			 "HOMO_LUMO_gap": 0.30411, 
			 "cosmo_polarized_energy": -4.39, 
			 "cosmo_cavitation_energy": 17.45, 
			 "cosmo_dispersion_energy": -12.98, 
			 "cosmo_repulsion_energy": 1.16, 
			 "cosmo_total_nonelectrostatic_energy": 5.63, 
			 "SMD_solvation_energy": 2.33 
		},
		"coords": [
			{
				"x": -2.7478624698,
				"y": -1.5984047209,
				"z": -2.051491275,
				"element": "C" 
			},
			{
				"x": -2.1000600717,
				"y": -0.5203952181,
				"z": -1.1684924295,
				"element": "C" 
			},
			{
				"x": -2.6465399735,
				"y": 0.8748404873,
				"z": -1.5006514113,
				"element": "C" 
			},
			{
				"x": -0.5616397933,
				"y": -0.5635841802,
				"z": -1.2547312716,
				"element": "C" 
			},
			{
				"x": -0.075482603,
				"y": -0.2898125224,
				"z": -2.6133231703,
				"element": "N" 
			},
			{
				"x": -2.5653976079,
				"y": -1.4001074238,
				"z": -3.1139565841,
				"element": "H" 
			},
			{
				"x": -2.3595169471,
				"y": -2.5973410183,
				"z": -1.8190294493,
				"element": "H" 
			},
			{
				"x": -3.8333537034,
				"y": -1.6227927701,
				"z": -1.9087501806,
				"element": "H" 
			},
			{
				"x": -2.3522734454,
				"y": -0.7508484986,
				"z": -0.1228621704,
				"element": "H" 
			},
			{
				"x": -2.2570168085,
				"y": 1.6274919447,
				"z": -0.8057007472,
				"element": "H" 
			},
			{
				"x": -3.7401767551,
				"y": 0.896543382,
				"z": -1.4385194006,
				"element": "H" 
			},
			{
				"x": -2.3493061525,
				"y": 1.169420596,
				"z": -2.5110361073,
				"element": "H" 
			},
			{
				"x": -0.2144568137,
				"y": -1.531617281,
				"z": -0.8494922773,
				"element": "H" 
			},
			{
				"x": -0.153542882,
				"y": 0.2133695898,
				"z": -0.5966366429,
				"element": "H" 
			},
			{
				"x": -0.215535937,
				"y": -1.1044647298,
				"z": -3.2050963207,
				"element": "H" 
			},
			{
				"x": 0.926761964,
				"y": -0.1231976365,
				"z": -2.595730562,
				"element": "H" 
			}
		],
		 "valence_orbital": [ 
			{
				"type": "occ",
				"energy": -0.35554,
				"method": "rhf"
			},
			{
				"type": "occ",
				"energy": -0.32554,
				"method": "rhf"
			},
			{
				"type": "occ",
				"energy": -0.3177,
				"method": "rhf"
			},
			{
				"type": "occ",
				"energy": -0.31492,
				"method": "rhf"
			},
			{
				"type": "occ",
				"energy": -0.22868,
				"method": "rhf"
			},
			{
				"type": "unocc",
				"energy": 0.07543,
				"method": "rhf"
			},
			{
				"type": "unocc",
				"energy": 0.11538,
				"method": "rhf"
			},
			{
				"type": "unocc",
				"energy": 0.13378,
				"method": "rhf"
			},
			{
				"type": "unocc",
				"energy": 0.14901,
				"method": "rhf"
			},
			{
				"type": "unocc",
				"energy": 0.15783,
				"method": "rhf"
			}
		],
		"cosmo_sigma_profile": { 
			"-0.025": 0.0,
			"-0.024": 0.0,
			"-0.023": 0.0,
			"-0.022": 0.0,
			"-0.021": 0.0,
			"-0.02": 0.0,
			"-0.019": 0.0,
			"-0.018": 0.0,
			"-0.017": 0.0,
			"-0.016": 0.0,
			"-0.015": 0.0,
			"-0.014": 0.0,
			"-0.013": 0.0,
			"-0.012": 0.0,
			"-0.011": 0.0,
			"-0.01": 0.253238745967,
			"-0.009": 1.81097618604,
			"-0.008": 2.51350828888,
			"-0.007": 2.49344746287,
			"-0.006": 3.30961263052,
			"-0.005": 2.67180957361,
			"-0.004": 2.91064470597,
			"-0.003": 5.78491731732,
			"-0.002": 17.3805949073,
			"-0.001": 22.5342752762,
			"0.0": 24.024080282,
			"0.001": 17.5861832588,
			"0.002": 14.2027667251,
			"0.003": 3.64670457101,
			"0.004": 1.23796035552,
			"0.005": 1.28851241829,
			"0.006": 1.35024826245,
			"0.007": 0.785846071262,
			"0.008": 0.778657812321,
			"0.009": 0.685369253887,
			"0.01": 0.766474222392,
			"0.011": 1.12085988945,
			"0.012": 0.604947519375,
			"0.013": 0.909438363062,
			"0.014": 0.649214963253,
			"0.015": 0.556111829358,
			"0.016": 0.737311064811,
			"0.017": 0.34688308496,
			"0.018": 0.473314021126,
			"0.019": 0.0159373869674,
			"0.02": 0.0,
			"0.021": 0.0,
			"0.022": 0.0,
			"0.023": 0.0,
			"0.024": 0.0,
			"0.025": 0.0
		}
	}
}
