{
	 "smiles": "OC(=O)C=CC1=CC=C(OCC#N)C=C1", 
	 "Tm": 488.15, 
	 "num_atms": 24, 
	 "gaussian": { 
		 "optdone": 1, 
		 "sigma_profile": "yes", 
		 "theory": "DFT", 
		 "functional": "B3LYP", 
		 "basiset": "6-31G**", 
		 "properties": { 
			 "R2extent": 4873.201, 
			 "electric_dipole_moment_norm": 3.47565315588, 
			 "electric_quadrupole_moment_norm": 28.8572886547, 
			 "total_energy": -704.970814846, 
			 "HOMO_LUMO_gap": 0.16398, 
			 "cosmo_polarized_energy": -17.83, 
			 "cosmo_cavitation_energy": 30.42, 
			 "cosmo_dispersion_energy": -21.45, 
			 "cosmo_repulsion_energy": 1.69, 
			 "cosmo_total_nonelectrostatic_energy": 10.67, 
			 "SMD_solvation_energy": 8.26 
		},
		"coords": [
			{
				"x": 0.9527950073,
				"y": 3.3903578713,
				"z": 1.9439556251,
				"element": "O" 
			},
			{
				"x": 2.196738536,
				"y": 3.4768411162,
				"z": 1.4030168132,
				"element": "C" 
			},
			{
				"x": 3.0127972322,
				"y": 4.2773409324,
				"z": 1.8214604455,
				"element": "O" 
			},
			{
				"x": 2.4709822125,
				"y": 2.5891180551,
				"z": 0.2582378304,
				"element": "C" 
			},
			{
				"x": 1.7822889833,
				"y": 1.5718115837,
				"z": -0.3074935375,
				"element": "C" 
			},
			{
				"x": 0.5469424535,
				"y": 0.8507447195,
				"z": 0.0189346282,
				"element": "C" 
			},
			{
				"x": 0.0061339091,
				"y": 0.703190797,
				"z": 1.3133889673,
				"element": "C" 
			},
			{
				"x": -1.1456709193,
				"y": -0.0376189988,
				"z": 1.5257050364,
				"element": "C" 
			},
			{
				"x": -1.8000899408,
				"y": -0.6524068276,
				"z": 0.4498012731,
				"element": "C" 
			},
			{
				"x": -2.9416304669,
				"y": -1.343856511,
				"z": 0.7805158803,
				"element": "O" 
			},
			{
				"x": -3.7395115873,
				"y": -1.8849596437,
				"z": -0.253411644,
				"element": "C" 
			},
			{
				"x": -3.1763347253,
				"y": -3.1143447232,
				"z": -0.8466065574,
				"element": "C" 
			},
			{
				"x": -2.7445794427,
				"y": -4.0828345913,
				"z": -1.3170403443,
				"element": "N" 
			},
			{
				"x": -1.2760011723,
				"y": -0.5447438023,
				"z": -0.8410510238,
				"element": "C" 
			},
			{
				"x": -0.1070837803,
				"y": 0.189017355,
				"z": -1.0351562927,
				"element": "C" 
			},
			{
				"x": 0.9359154809,
				"y": 4.0610009647,
				"z": 2.647322495,
				"element": "H" 
			},
			{
				"x": 3.4092015407,
				"y": 2.8667956827,
				"z": -0.2117919047,
				"element": "H" 
			},
			{
				"x": 2.2463358094,
				"y": 1.192879527,
				"z": -1.2187717802,
				"element": "H" 
			},
			{
				"x": 0.4966772799,
				"y": 1.1691344691,
				"z": 2.156291565,
				"element": "H" 
			},
			{
				"x": -1.5592526994,
				"y": -0.1574975074,
				"z": 2.5214699411,
				"element": "H" 
			},
			{
				"x": -3.9209769803,
				"y": -1.1532320841,
				"z": -1.0515885118,
				"element": "H" 
			},
			{
				"x": -4.6994556583,
				"y": -2.1308423173,
				"z": 0.2087233951,
				"element": "H" 
			},
			{
				"x": -1.7344087596,
				"y": -1.042847059,
				"z": -1.687036969,
				"element": "H" 
			},
			{
				"x": 0.3059876874,
				"y": 0.2529509923,
				"z": -2.0382753304,
				"element": "H" 
			}
		],
		 "valence_orbital": [ 
			{
				"type": "occ",
				"energy": -0.31805,
				"method": "rhf"
			},
			{
				"type": "occ",
				"energy": -0.29513,
				"method": "rhf"
			},
			{
				"type": "occ",
				"energy": -0.2753,
				"method": "rhf"
			},
			{
				"type": "occ",
				"energy": -0.26775,
				"method": "rhf"
			},
			{
				"type": "occ",
				"energy": -0.23111,
				"method": "rhf"
			},
			{
				"type": "unocc",
				"energy": -0.06713,
				"method": "rhf"
			},
			{
				"type": "unocc",
				"energy": -0.01935,
				"method": "rhf"
			},
			{
				"type": "unocc",
				"energy": -0.00484,
				"method": "rhf"
			},
			{
				"type": "unocc",
				"energy": 0.01262,
				"method": "rhf"
			},
			{
				"type": "unocc",
				"energy": 0.02051,
				"method": "rhf"
			}
		],
		"cosmo_sigma_profile": { 
			"-0.025": 0.0,
			"-0.024": 0.0,
			"-0.023": 0.0,
			"-0.022": 0.0,
			"-0.021": 0.0,
			"-0.02": 0.0,
			"-0.019": 0.0,
			"-0.018": 0.441845120622,
			"-0.017": 0.875349415853,
			"-0.016": 0.914789117058,
			"-0.015": 0.94446226534,
			"-0.014": 0.477984278485,
			"-0.013": 0.74646128254,
			"-0.012": 0.137130989333,
			"-0.011": 3.64430858796,
			"-0.01": 7.13489892194,
			"-0.009": 5.74787078043,
			"-0.008": 6.82459465288,
			"-0.007": 11.42935873,
			"-0.006": 12.8457697551,
			"-0.005": 11.8758459322,
			"-0.004": 10.9314896023,
			"-0.003": 10.2138283096,
			"-0.002": 11.1592895969,
			"-0.001": 13.0363904491,
			"0.0": 15.3561621486,
			"0.001": 15.9191079737,
			"0.002": 19.076609262,
			"0.003": 19.2311974274,
			"0.004": 13.6716691047,
			"0.005": 8.46701122646,
			"0.006": 5.55899836932,
			"0.007": 7.00092108423,
			"0.008": 6.39777352593,
			"0.009": 5.2007131324,
			"0.01": 4.42905405455,
			"0.011": 5.08575100155,
			"0.012": 7.28458695008,
			"0.013": 2.49109780579,
			"0.014": 0.0948430236374,
			"0.015": 0.0,
			"0.016": 0.0,
			"0.017": 0.0,
			"0.018": 0.0,
			"0.019": 0.0,
			"0.02": 0.0,
			"0.021": 0.0,
			"0.022": 0.0,
			"0.023": 0.0,
			"0.024": 0.0,
			"0.025": 0.0
		}
	}
}
