{
	 "smiles": "ClCC1=COC(=N1)C1=C(Cl)C=CC=C1", 
	 "Tm": 328.15, 
	 "num_atms": 21, 
	 "gaussian": { 
		 "optdone": 1, 
		 "sigma_profile": "yes", 
		 "theory": "DFT", 
		 "functional": "B3LYP", 
		 "basiset": "6-31G**", 
		 "properties": { 
			 "R2extent": 4562.7904, 
			 "electric_dipole_moment_norm": 1.96491034656, 
			 "electric_quadrupole_moment_norm": 18.333459745, 
			 "total_energy": -1435.63089866, 
			 "HOMO_LUMO_gap": 0.17968, 
			 "cosmo_polarized_energy": -9.69, 
			 "cosmo_cavitation_energy": 29.53, 
			 "cosmo_dispersion_energy": -21.9, 
			 "cosmo_repulsion_energy": 1.74, 
			 "cosmo_total_nonelectrostatic_energy": 9.37, 
			 "SMD_solvation_energy": 3.82 
		},
		"coords": [
			{
				"x": -4.5911303857,
				"y": 0.5291285469,
				"z": -1.1143035112,
				"element": "Cl" 
			},
			{
				"x": -3.1121852275,
				"y": 0.2984915142,
				"z": -2.173198494,
				"element": "C" 
			},
			{
				"x": -1.877340978,
				"y": 0.0666125062,
				"z": -1.3844600429,
				"element": "C" 
			},
			{
				"x": -1.2497782977,
				"y": -1.1075990789,
				"z": -1.0979796636,
				"element": "C" 
			},
			{
				"x": -0.145442412,
				"y": -0.8239964204,
				"z": -0.3519412068,
				"element": "O" 
			},
			{
				"x": -0.1493150805,
				"y": 0.532567446,
				"z": -0.214969703,
				"element": "C" 
			},
			{
				"x": -1.1599460617,
				"y": 1.103394056,
				"z": -0.8131920779,
				"element": "N" 
			},
			{
				"x": 0.8862206162,
				"y": 1.2220481359,
				"z": 0.5601903181,
				"element": "C" 
			},
			{
				"x": 2.0953274226,
				"y": 0.6689206571,
				"z": 1.0259485096,
				"element": "C" 
			},
			{
				"x": 2.5686394111,
				"y": -0.9927501696,
				"z": 0.7094994879,
				"element": "Cl" 
			},
			{
				"x": 2.9996145191,
				"y": 1.4413695346,
				"z": 1.7591571173,
				"element": "C" 
			},
			{
				"x": 2.7217367318,
				"y": 2.7762049427,
				"z": 2.0381065275,
				"element": "C" 
			},
			{
				"x": 1.5326128746,
				"y": 3.3477262467,
				"z": 1.5793605429,
				"element": "C" 
			},
			{
				"x": 0.6336405118,
				"y": 2.5785909503,
				"z": 0.8544191299,
				"element": "C" 
			},
			{
				"x": -3.3393467619,
				"y": -0.5451694701,
				"z": -2.8242964445,
				"element": "H" 
			},
			{
				"x": -3.0293322961,
				"y": 1.2112931366,
				"z": -2.7621961377,
				"element": "H" 
			},
			{
				"x": -1.4323833639,
				"y": -2.1459794421,
				"z": -1.3229911623,
				"element": "H" 
			},
			{
				"x": 3.9207132694,
				"y": 0.9834814721,
				"z": 2.1015964063,
				"element": "H" 
			},
			{
				"x": 3.4333441227,
				"y": 3.3639663573,
				"z": 2.6098645859,
				"element": "H" 
			},
			{
				"x": 1.3047583089,
				"y": 4.3877812179,
				"z": 1.7899360042,
				"element": "H" 
			},
			{
				"x": -0.2963069232,
				"y": 3.0027178607,
				"z": 0.4931498141,
				"element": "H" 
			}
		],
		 "valence_orbital": [ 
			{
				"type": "occ",
				"energy": -0.29968,
				"method": "rhf"
			},
			{
				"type": "occ",
				"energy": -0.29382,
				"method": "rhf"
			},
			{
				"type": "occ",
				"energy": -0.28959,
				"method": "rhf"
			},
			{
				"type": "occ",
				"energy": -0.25715,
				"method": "rhf"
			},
			{
				"type": "occ",
				"energy": -0.23509,
				"method": "rhf"
			},
			{
				"type": "unocc",
				"energy": -0.05541,
				"method": "rhf"
			},
			{
				"type": "unocc",
				"energy": -0.02066,
				"method": "rhf"
			},
			{
				"type": "unocc",
				"energy": -0.01385,
				"method": "rhf"
			},
			{
				"type": "unocc",
				"energy": 0.02491,
				"method": "rhf"
			},
			{
				"type": "unocc",
				"energy": 0.04031,
				"method": "rhf"
			}
		],
		"cosmo_sigma_profile": { 
			"-0.025": 0.0,
			"-0.024": 0.0,
			"-0.023": 0.0,
			"-0.022": 0.0,
			"-0.021": 0.0,
			"-0.02": 0.0,
			"-0.019": 0.0,
			"-0.018": 0.0,
			"-0.017": 0.0,
			"-0.016": 0.0,
			"-0.015": 0.0,
			"-0.014": 0.0,
			"-0.013": 0.0,
			"-0.012": 0.0,
			"-0.011": 1.04871500794,
			"-0.01": 2.02592625158,
			"-0.009": 3.48375636881,
			"-0.008": 6.87222259405,
			"-0.007": 10.0526973964,
			"-0.006": 12.6422154438,
			"-0.005": 12.7163404604,
			"-0.004": 10.9347237935,
			"-0.003": 10.5616729315,
			"-0.002": 14.2819917576,
			"-0.001": 16.0417074286,
			"0.0": 20.5657223583,
			"0.001": 20.9854882359,
			"0.002": 23.4361834339,
			"0.003": 20.9424811187,
			"0.004": 16.7087105553,
			"0.005": 11.196131075,
			"0.006": 15.3321913941,
			"0.007": 7.13482808892,
			"0.008": 1.39936116473,
			"0.009": 1.55102176686,
			"0.01": 0.74398378578,
			"0.011": 0.990446125295,
			"0.012": 0.502233428592,
			"0.013": 0.274026002332,
			"0.014": 0.0,
			"0.015": 0.0,
			"0.016": 0.0,
			"0.017": 0.0,
			"0.018": 0.0,
			"0.019": 0.0,
			"0.02": 0.0,
			"0.021": 0.0,
			"0.022": 0.0,
			"0.023": 0.0,
			"0.024": 0.0,
			"0.025": 0.0
		}
	}
}
