{
	 "smiles": "O=C(OC1=CC=C2C=CC=CC2=C1)C1=CC=CC=C1", 
	 "Tm": 379.15, 
	 "num_atms": 31, 
	 "gaussian": { 
		 "optdone": 1, 
		 "sigma_profile": "yes", 
		 "theory": "DFT", 
		 "functional": "B3LYP", 
		 "basiset": "6-31G**", 
		 "properties": { 
			 "R2extent": 7290.7637, 
			 "electric_dipole_moment_norm": 1.95638536592, 
			 "electric_quadrupole_moment_norm": 14.6853962391, 
			 "total_energy": -805.512224422, 
			 "HOMO_LUMO_gap": 0.15895, 
			 "cosmo_polarized_energy": -8.7, 
			 "cosmo_cavitation_energy": 35.89, 
			 "cosmo_dispersion_energy": -26.25, 
			 "cosmo_repulsion_energy": 1.96, 
			 "cosmo_total_nonelectrostatic_energy": 11.59, 
			 "SMD_solvation_energy": 6.73 
		},
		"coords": [
			{
				"x": -2.0024585978,
				"y": 0.8278889158,
				"z": -0.7637301111,
				"element": "O" 
			},
			{
				"x": -1.3595025584,
				"y": -0.1048837288,
				"z": -1.1950423677,
				"element": "C" 
			},
			{
				"x": -0.0972953286,
				"y": -0.4307005681,
				"z": -0.785351326,
				"element": "O" 
			},
			{
				"x": 0.6043217707,
				"y": 0.2682464087,
				"z": 0.1949852948,
				"element": "C" 
			},
			{
				"x": 1.5843564832,
				"y": -0.5181078461,
				"z": 0.8505262747,
				"element": "C" 
			},
			{
				"x": 2.3932040961,
				"y": 0.0486925256,
				"z": 1.8046013227,
				"element": "C" 
			},
			{
				"x": 2.2643783514,
				"y": 1.4214372496,
				"z": 2.1497823194,
				"element": "C" 
			},
			{
				"x": 3.0827490137,
				"y": 2.0396321114,
				"z": 3.1320295446,
				"element": "C" 
			},
			{
				"x": 2.9300486507,
				"y": 3.373285179,
				"z": 3.4390233612,
				"element": "C" 
			},
			{
				"x": 1.9482412337,
				"y": 4.1489772791,
				"z": 2.7749050825,
				"element": "C" 
			},
			{
				"x": 1.13850756,
				"y": 3.5783788614,
				"z": 1.8185256009,
				"element": "C" 
			},
			{
				"x": 1.2704630742,
				"y": 2.204460205,
				"z": 1.4778003441,
				"element": "C" 
			},
			{
				"x": 0.4432321577,
				"y": 1.6034267934,
				"z": 0.4895761548,
				"element": "C" 
			},
			{
				"x": -1.8452038787,
				"y": -1.0475421474,
				"z": -2.2414473833,
				"element": "C" 
			},
			{
				"x": -3.1383725802,
				"y": -0.842432196,
				"z": -2.7440253888,
				"element": "C" 
			},
			{
				"x": -3.6495602583,
				"y": -1.6891390293,
				"z": -3.7238609536,
				"element": "C" 
			},
			{
				"x": -2.872573232,
				"y": -2.744611242,
				"z": -4.2092049276,
				"element": "C" 
			},
			{
				"x": -1.5835246352,
				"y": -2.9516771054,
				"z": -3.7119362388,
				"element": "C" 
			},
			{
				"x": -1.067785039,
				"y": -2.1077328824,
				"z": -2.7299161939,
				"element": "C" 
			},
			{
				"x": 1.6744021178,
				"y": -1.5647210839,
				"z": 0.5791597324,
				"element": "H" 
			},
			{
				"x": 3.1449416674,
				"y": -0.5535347423,
				"z": 2.3077139198,
				"element": "H" 
			},
			{
				"x": 3.8342531647,
				"y": 1.4396967204,
				"z": 3.6391801892,
				"element": "H" 
			},
			{
				"x": 3.5616829385,
				"y": 3.8354431101,
				"z": 4.1920720146,
				"element": "H" 
			},
			{
				"x": 1.8355952845,
				"y": 5.2000209889,
				"z": 3.0248683273,
				"element": "H" 
			},
			{
				"x": 0.3835730063,
				"y": 4.1719484272,
				"z": 1.3098346133,
				"element": "H" 
			},
			{
				"x": -0.3126270454,
				"y": 2.1940694796,
				"z": -0.0078834783,
				"element": "H" 
			},
			{
				"x": -3.7218314478,
				"y": -0.0161469327,
				"z": -2.3525254557,
				"element": "H" 
			},
			{
				"x": -4.6515399242,
				"y": -1.5276220409,
				"z": -4.1101046729,
				"element": "H" 
			},
			{
				"x": -3.2710844174,
				"y": -3.4049582185,
				"z": -4.9742302408,
				"element": "H" 
			},
			{
				"x": -0.9798666907,
				"y": -3.7715609065,
				"z": -4.0897448926,
				"element": "H" 
			},
			{
				"x": -0.0686249369,
				"y": -2.2630335852,
				"z": -2.3405804654,
				"element": "H" 
			}
		],
		 "valence_orbital": [ 
			{
				"type": "occ",
				"energy": -0.27672,
				"method": "rhf"
			},
			{
				"type": "occ",
				"energy": -0.26374,
				"method": "rhf"
			},
			{
				"type": "occ",
				"energy": -0.26124,
				"method": "rhf"
			},
			{
				"type": "occ",
				"energy": -0.23714,
				"method": "rhf"
			},
			{
				"type": "occ",
				"energy": -0.2134,
				"method": "rhf"
			},
			{
				"type": "unocc",
				"energy": -0.05445,
				"method": "rhf"
			},
			{
				"type": "unocc",
				"energy": -0.03551,
				"method": "rhf"
			},
			{
				"type": "unocc",
				"energy": -0.0108,
				"method": "rhf"
			},
			{
				"type": "unocc",
				"energy": -0.0054,
				"method": "rhf"
			},
			{
				"type": "unocc",
				"energy": 0.03151,
				"method": "rhf"
			}
		],
		"cosmo_sigma_profile": { 
			"-0.025": 0.0,
			"-0.024": 0.0,
			"-0.023": 0.0,
			"-0.022": 0.0,
			"-0.021": 0.0,
			"-0.02": 0.0,
			"-0.019": 0.0,
			"-0.018": 0.0,
			"-0.017": 0.0,
			"-0.016": 0.0,
			"-0.015": 0.0,
			"-0.014": 0.0,
			"-0.013": 0.0,
			"-0.012": 0.0,
			"-0.011": 0.0,
			"-0.01": 0.0,
			"-0.009": 0.0,
			"-0.008": 0.0,
			"-0.007": 3.50397589328,
			"-0.006": 21.1011193749,
			"-0.005": 23.3456438166,
			"-0.004": 23.7268314093,
			"-0.003": 21.3315236302,
			"-0.002": 18.0863510538,
			"-0.001": 18.0592537481,
			"0.0": 20.9931367907,
			"0.001": 22.3807965931,
			"0.002": 26.2484020386,
			"0.003": 33.1805222985,
			"0.004": 31.8449479546,
			"0.005": 11.7156598976,
			"0.006": 2.66678737204,
			"0.007": 1.65974089619,
			"0.008": 1.44838998145,
			"0.009": 2.07624574023,
			"0.01": 2.4744347549,
			"0.011": 3.17920205794,
			"0.012": 0.361870235951,
			"0.013": 0.0,
			"0.014": 0.0,
			"0.015": 0.0,
			"0.016": 0.0,
			"0.017": 0.0,
			"0.018": 0.0,
			"0.019": 0.0,
			"0.02": 0.0,
			"0.021": 0.0,
			"0.022": 0.0,
			"0.023": 0.0,
			"0.024": 0.0,
			"0.025": 0.0
		}
	}
}
