{
	 "smiles": "CN(CC1=CC=C(C=C1)C(=O)NN)S(=O)(=O)C1=CC=C(C)C=C1", 
	 "Tm": 340.15, 
	 "num_atms": 42, 
	 "gaussian": { 
		 "optdone": 1, 
		 "sigma_profile": "yes", 
		 "theory": "DFT", 
		 "functional": "B3LYP", 
		 "basiset": "6-31G**", 
		 "properties": { 
			 "R2extent": 8483.8405, 
			 "electric_dipole_moment_norm": 2.04124531843, 
			 "electric_quadrupole_moment_norm": 29.3100524351, 
			 "total_energy": -1409.18367711, 
			 "HOMO_LUMO_gap": 0.20118, 
			 "cosmo_polarized_energy": -22.61, 
			 "cosmo_cavitation_energy": 46.65, 
			 "cosmo_dispersion_energy": -30.43, 
			 "cosmo_repulsion_energy": 2.3, 
			 "cosmo_total_nonelectrostatic_energy": 18.52, 
			 "SMD_solvation_energy": 7.69 
		},
		"coords": [
			{
				"x": 2.5141902445,
				"y": -4.1275587562,
				"z": 1.2750296413,
				"element": "C" 
			},
			{
				"x": 1.7351543109,
				"y": -2.9027376039,
				"z": 1.0147938969,
				"element": "N" 
			},
			{
				"x": 2.5483897496,
				"y": -1.6688383377,
				"z": 1.107866284,
				"element": "C" 
			},
			{
				"x": 1.9942973885,
				"y": -0.4921524131,
				"z": 0.3311902292,
				"element": "C" 
			},
			{
				"x": 1.7703240884,
				"y": -0.5888572627,
				"z": -1.049912185,
				"element": "C" 
			},
			{
				"x": 1.3091497996,
				"y": 0.5054480198,
				"z": -1.771393515,
				"element": "C" 
			},
			{
				"x": 1.0551553649,
				"y": 1.7249487352,
				"z": -1.1269195473,
				"element": "C" 
			},
			{
				"x": 1.293969442,
				"y": 1.8309061574,
				"z": 0.2493578004,
				"element": "C" 
			},
			{
				"x": 1.7543669363,
				"y": 0.7285326784,
				"z": 0.9698140705,
				"element": "C" 
			},
			{
				"x": 0.5577787776,
				"y": 2.8621875595,
				"z": -1.9658935726,
				"element": "C" 
			},
			{
				"x": 0.6822363142,
				"y": 2.8896668251,
				"z": -3.1879499133,
				"element": "O" 
			},
			{
				"x": -0.0648041272,
				"y": 3.8872954316,
				"z": -1.2887397363,
				"element": "N" 
			},
			{
				"x": -0.7159606405,
				"y": 4.9090977191,
				"z": -2.0187151103,
				"element": "N" 
			},
			{
				"x": 0.2416527377,
				"y": -2.8300970392,
				"z": 1.8656046136,
				"element": "S" 
			},
			{
				"x": -0.1074535215,
				"y": -4.2167555741,
				"z": 2.1952477066,
				"element": "O" 
			},
			{
				"x": 0.3214790352,
				"y": -1.8054300184,
				"z": 2.9174870381,
				"element": "O" 
			},
			{
				"x": -0.9180410269,
				"y": -2.2544112141,
				"z": 0.6279220182,
				"element": "C" 
			},
			{
				"x": -1.5691858959,
				"y": -1.0370830704,
				"z": 0.8125522522,
				"element": "C" 
			},
			{
				"x": -2.5143183405,
				"y": -0.6249438029,
				"z": -0.127419641,
				"element": "C" 
			},
			{
				"x": -2.8159657384,
				"y": -1.4110964869,
				"z": -1.2460967947,
				"element": "C" 
			},
			{
				"x": -3.8149981198,
				"y": -0.9453344407,
				"z": -2.2773499289,
				"element": "C" 
			},
			{
				"x": -2.1525855589,
				"y": -2.6400177922,
				"z": -1.3981434953,
				"element": "C" 
			},
			{
				"x": -1.2109912807,
				"y": -3.0691049547,
				"z": -0.4690416486,
				"element": "C" 
			},
			{
				"x": 3.0186725314,
				"y": -4.1160275935,
				"z": 2.2512965268,
				"element": "H" 
			},
			{
				"x": 1.8579951072,
				"y": -4.9945488117,
				"z": 1.2333998564,
				"element": "H" 
			},
			{
				"x": 3.2693433197,
				"y": -4.2119742489,
				"z": 0.4883946365,
				"element": "H" 
			},
			{
				"x": 3.5222895014,
				"y": -1.9378309874,
				"z": 0.6840114345,
				"element": "H" 
			},
			{
				"x": 2.7151872296,
				"y": -1.3838194644,
				"z": 2.1540679304,
				"element": "H" 
			},
			{
				"x": 1.9505222675,
				"y": -1.534420669,
				"z": -1.5532268103,
				"element": "H" 
			},
			{
				"x": 1.1416901991,
				"y": 0.4445100263,
				"z": -2.8413687529,
				"element": "H" 
			},
			{
				"x": 1.1506845081,
				"y": 2.7777440004,
				"z": 0.7617499191,
				"element": "H" 
			},
			{
				"x": 1.927120142,
				"y": 0.8148350841,
				"z": 2.0386248683,
				"element": "H" 
			},
			{
				"x": -0.5047254731,
				"y": 3.6824099089,
				"z": -0.402760075,
				"element": "H" 
			},
			{
				"x": -0.0253665404,
				"y": 5.6383937907,
				"z": -2.1953273122,
				"element": "H" 
			},
			{
				"x": -0.9225047204,
				"y": 4.5104694708,
				"z": -2.9369862629,
				"element": "H" 
			},
			{
				"x": -1.33515162,
				"y": -0.4308633042,
				"z": 1.6799270095,
				"element": "H" 
			},
			{
				"x": -3.0279905722,
				"y": 0.322269261,
				"z": 0.0139762566,
				"element": "H" 
			},
			{
				"x": -3.3066781626,
				"y": -0.4949385526,
				"z": -3.1388680846,
				"element": "H" 
			},
			{
				"x": -4.4167834092,
				"y": -1.7774610267,
				"z": -2.6555178797,
				"element": "H" 
			},
			{
				"x": -4.493633643,
				"y": -0.192699612,
				"z": -1.8668341855,
				"element": "H" 
			},
			{
				"x": -2.383965539,
				"y": -3.2700433223,
				"z": -2.2530365078,
				"element": "H" 
			},
			{
				"x": -0.7140450652,
				"y": -4.0259683084,
				"z": -0.5872130301,
				"element": "H" 
			}
		],
		 "valence_orbital": [ 
			{
				"type": "occ",
				"energy": -0.26469,
				"method": "rhf"
			},
			{
				"type": "occ",
				"energy": -0.26154,
				"method": "rhf"
			},
			{
				"type": "occ",
				"energy": -0.25432,
				"method": "rhf"
			},
			{
				"type": "occ",
				"energy": -0.25006,
				"method": "rhf"
			},
			{
				"type": "occ",
				"energy": -0.24802,
				"method": "rhf"
			},
			{
				"type": "unocc",
				"energy": -0.04684,
				"method": "rhf"
			},
			{
				"type": "unocc",
				"energy": -0.03281,
				"method": "rhf"
			},
			{
				"type": "unocc",
				"energy": -0.01774,
				"method": "rhf"
			},
			{
				"type": "unocc",
				"energy": -0.0121,
				"method": "rhf"
			},
			{
				"type": "unocc",
				"energy": 0.0449,
				"method": "rhf"
			}
		],
		"cosmo_sigma_profile": { 
			"-0.025": 0.0,
			"-0.024": 0.0,
			"-0.023": 0.0,
			"-0.022": 0.0,
			"-0.021": 0.0,
			"-0.02": 0.0,
			"-0.019": 0.0,
			"-0.018": 0.0,
			"-0.017": 0.0,
			"-0.016": 0.0,
			"-0.015": 0.0188090043114,
			"-0.014": 0.647788409945,
			"-0.013": 0.944574391527,
			"-0.012": 1.50342119899,
			"-0.011": 3.21577156542,
			"-0.01": 2.48641016619,
			"-0.009": 3.66935053266,
			"-0.008": 4.0360722357,
			"-0.007": 9.6356084444,
			"-0.006": 17.950199004,
			"-0.005": 32.3057855698,
			"-0.004": 33.4501625104,
			"-0.003": 28.815843489,
			"-0.002": 29.7674936524,
			"-0.001": 24.5470316966,
			"0.0": 24.3061071206,
			"0.001": 20.2213207345,
			"0.002": 21.707445013,
			"0.003": 26.5452916287,
			"0.004": 21.025923773,
			"0.005": 8.34114653966,
			"0.006": 6.33570712752,
			"0.007": 4.51330149261,
			"0.008": 4.78347871196,
			"0.009": 5.80090798188,
			"0.01": 8.07823512578,
			"0.011": 9.49782035301,
			"0.012": 6.79041849784,
			"0.013": 5.26054457485,
			"0.014": 1.51269577825,
			"0.015": 0.469255499483,
			"0.016": 0.952430238485,
			"0.017": 0.156456928442,
			"0.018": 0.0,
			"0.019": 0.0,
			"0.02": 0.0,
			"0.021": 0.0,
			"0.022": 0.0,
			"0.023": 0.0,
			"0.024": 0.0,
			"0.025": 0.0
		}
	}
}
