{
	 "smiles": "CCCC1=CC=C(C=C1)C1=CC=C(C=C1)C(O)=O", 
	 "Tm": 499.15, 
	 "num_atms": 34, 
	 "gaussian": { 
		 "optdone": 1, 
		 "sigma_profile": "yes", 
		 "theory": "DFT", 
		 "functional": "B3LYP", 
		 "basiset": "6-31G**", 
		 "properties": { 
			 "R2extent": 9193.2538, 
			 "electric_dipole_moment_norm": 5.7912684241, 
			 "electric_quadrupole_moment_norm": 44.4318592345, 
			 "total_energy": -769.826090194, 
			 "HOMO_LUMO_gap": 0.17395, 
			 "cosmo_polarized_energy": -14.98, 
			 "cosmo_cavitation_energy": 37.66, 
			 "cosmo_dispersion_energy": -26.86, 
			 "cosmo_repulsion_energy": 2.07, 
			 "cosmo_total_nonelectrostatic_energy": 12.87, 
			 "SMD_solvation_energy": 7.04 
		},
		"coords": [
			{
				"x": -0.7093976483,
				"y": -0.1537259344,
				"z": 4.1035600291,
				"element": "C" 
			},
			{
				"x": -1.5013413827,
				"y": -1.3576951203,
				"z": 3.5858553619,
				"element": "C" 
			},
			{
				"x": -2.2942933573,
				"y": -1.0779664649,
				"z": 2.2889703275,
				"element": "C" 
			},
			{
				"x": -1.4237173186,
				"y": -0.7828744839,
				"z": 1.0860341058,
				"element": "C" 
			},
			{
				"x": -0.7569241002,
				"y": -1.8179801863,
				"z": 0.4136876498,
				"element": "C" 
			},
			{
				"x": 0.0609935201,
				"y": -1.5595715408,
				"z": -0.6822237649,
				"element": "C" 
			},
			{
				"x": 0.2477124205,
				"y": -0.2478808325,
				"z": -1.1523149557,
				"element": "C" 
			},
			{
				"x": -0.4205548652,
				"y": 0.7888952514,
				"z": -0.4815361835,
				"element": "C" 
			},
			{
				"x": -1.240208874,
				"y": 0.5233229529,
				"z": 0.6139716889,
				"element": "C" 
			},
			{
				"x": 1.1180542928,
				"y": 0.028852166,
				"z": -2.3208992315,
				"element": "C" 
			},
			{
				"x": 1.1675487809,
				"y": -0.8544526592,
				"z": -3.4159036834,
				"element": "C" 
			},
			{
				"x": 1.9823824994,
				"y": -0.5962538889,
				"z": -4.510917018,
				"element": "C" 
			},
			{
				"x": 2.7905741742,
				"y": 0.5485347112,
				"z": -4.5441749706,
				"element": "C" 
			},
			{
				"x": 2.7371493923,
				"y": 1.4426229854,
				"z": -3.4653774753,
				"element": "C" 
			},
			{
				"x": 1.9147419569,
				"y": 1.1858103994,
				"z": -2.3723024505,
				"element": "C" 
			},
			{
				"x": 3.6420789995,
				"y": 0.7680539246,
				"z": -5.7560117678,
				"element": "C" 
			},
			{
				"x": 4.6864470876,
				"y": 1.6316362767,
				"z": -5.624183242,
				"element": "O" 
			},
			{
				"x": 3.4440701873,
				"y": 0.2218258313,
				"z": -6.8162629831,
				"element": "O" 
			},
			{
				"x": -1.373333018,
				"y": 0.6901596034,
				"z": 4.3251375778,
				"element": "H" 
			},
			{
				"x": 0.0264372958,
				"y": 0.187053829,
				"z": 3.3683770424,
				"element": "H" 
			},
			{
				"x": -0.1719550039,
				"y": -0.4031289804,
				"z": 5.0241232583,
				"element": "H" 
			},
			{
				"x": -2.2091421446,
				"y": -1.688937332,
				"z": 4.3561394585,
				"element": "H" 
			},
			{
				"x": -0.8194042136,
				"y": -2.2000158082,
				"z": 3.4122994055,
				"element": "H" 
			},
			{
				"x": -2.9244490072,
				"y": -1.9493243543,
				"z": 2.0711515637,
				"element": "H" 
			},
			{
				"x": -2.9761646078,
				"y": -0.2360446468,
				"z": 2.4615630523,
				"element": "H" 
			},
			{
				"x": -0.879210212,
				"y": -2.8429893197,
				"z": 0.7560399871,
				"element": "H" 
			},
			{
				"x": 0.5797668959,
				"y": -2.3814873949,
				"z": -1.1669143332,
				"element": "H" 
			},
			{
				"x": -0.324195155,
				"y": 1.8096958788,
				"z": -0.8397813586,
				"element": "H" 
			},
			{
				"x": -1.7574968581,
				"y": 1.3446319883,
				"z": 1.1035507417,
				"element": "H" 
			},
			{
				"x": 0.5366524706,
				"y": -1.7378419862,
				"z": -3.4166992071,
				"element": "H" 
			},
			{
				"x": 2.0046906719,
				"y": -1.2675179772,
				"z": -5.3627161573,
				"element": "H" 
			},
			{
				"x": 3.3128100007,
				"y": 2.3655452672,
				"z": -3.4763001518,
				"element": "H" 
			},
			{
				"x": 1.9025886633,
				"y": 1.8812065677,
				"z": -1.538972272,
				"element": "H" 
			},
			{
				"x": 4.8159884567,
				"y": 1.8573412774,
				"z": -4.6928700439,
				"element": "H" 
			}
		],
		 "valence_orbital": [ 
			{
				"type": "occ",
				"energy": -0.2831,
				"method": "rhf"
			},
			{
				"type": "occ",
				"energy": -0.27131,
				"method": "rhf"
			},
			{
				"type": "occ",
				"energy": -0.26622,
				"method": "rhf"
			},
			{
				"type": "occ",
				"energy": -0.25855,
				"method": "rhf"
			},
			{
				"type": "occ",
				"energy": -0.23226,
				"method": "rhf"
			},
			{
				"type": "unocc",
				"energy": -0.05831,
				"method": "rhf"
			},
			{
				"type": "unocc",
				"energy": -0.02122,
				"method": "rhf"
			},
			{
				"type": "unocc",
				"energy": -0.01071,
				"method": "rhf"
			},
			{
				"type": "unocc",
				"energy": -0.0016,
				"method": "rhf"
			},
			{
				"type": "unocc",
				"energy": 0.05438,
				"method": "rhf"
			}
		],
		"cosmo_sigma_profile": { 
			"-0.025": 0.0,
			"-0.024": 0.0,
			"-0.023": 0.0,
			"-0.022": 0.0,
			"-0.021": 0.0,
			"-0.02": 0.0,
			"-0.019": 0.0,
			"-0.018": 0.97124136218,
			"-0.017": 0.677602929121,
			"-0.016": 1.04755893901,
			"-0.015": 1.35664051703,
			"-0.014": 0.825918077847,
			"-0.013": 0.728826511391,
			"-0.012": 1.23693916231,
			"-0.011": 1.3579146285,
			"-0.01": 1.13199655042,
			"-0.009": 1.06523454528,
			"-0.008": 1.59735126703,
			"-0.007": 2.65715612747,
			"-0.006": 11.3502594631,
			"-0.005": 16.403666322,
			"-0.004": 17.9451938069,
			"-0.003": 23.7631948828,
			"-0.002": 26.8148830683,
			"-0.001": 28.4865758752,
			"0.0": 29.2874312426,
			"0.001": 29.0600618907,
			"0.002": 24.3881972752,
			"0.003": 22.5579707102,
			"0.004": 12.9370913408,
			"0.005": 10.649899314,
			"0.006": 5.01611673709,
			"0.007": 2.38652777928,
			"0.008": 3.09342251566,
			"0.009": 2.75644917627,
			"0.01": 4.34856840915,
			"0.011": 5.68193896084,
			"0.012": 5.0925187319,
			"0.013": 1.92628438393,
			"0.014": 0.126878772451,
			"0.015": 0.0,
			"0.016": 0.0,
			"0.017": 0.0,
			"0.018": 0.0,
			"0.019": 0.0,
			"0.02": 0.0,
			"0.021": 0.0,
			"0.022": 0.0,
			"0.023": 0.0,
			"0.024": 0.0,
			"0.025": 0.0
		}
	}
}
