{
	 "smiles": "CC(=O)N1CCC(CC1)C1=CNC2=CC=CC=C12", 
	 "Tm": 448.15, 
	 "num_atms": 36, 
	 "gaussian": { 
		 "optdone": 1, 
		 "sigma_profile": "yes", 
		 "theory": "DFT", 
		 "functional": "B3LYP", 
		 "basiset": "6-31G**", 
		 "properties": { 
			 "R2extent": 5269.3944, 
			 "electric_dipole_moment_norm": 5.52458728685, 
			 "electric_quadrupole_moment_norm": 16.8853739893, 
			 "total_energy": -767.19377948, 
			 "HOMO_LUMO_gap": 0.191, 
			 "cosmo_polarized_energy": -16.16, 
			 "cosmo_cavitation_energy": 36.14, 
			 "cosmo_dispersion_energy": -26.22, 
			 "cosmo_repulsion_energy": 2.01, 
			 "cosmo_total_nonelectrostatic_energy": 11.92, 
			 "SMD_solvation_energy": 5.82 
		},
		"coords": [
			{
				"x": -1.8919817401,
				"y": -3.46826159,
				"z": 2.5039389665,
				"element": "C" 
			},
			{
				"x": -0.9630546184,
				"y": -2.2738503756,
				"z": 2.6966412452,
				"element": "C" 
			},
			{
				"x": -0.3618471883,
				"y": -2.1211443221,
				"z": 3.7567362403,
				"element": "O" 
			},
			{
				"x": -0.8330407223,
				"y": -1.3884772537,
				"z": 1.6507102781,
				"element": "N" 
			},
			{
				"x": -1.4850291399,
				"y": -1.5108571417,
				"z": 0.3474785346,
				"element": "C" 
			},
			{
				"x": -2.2347708741,
				"y": -0.2234143115,
				"z": -0.0217891228,
				"element": "C" 
			},
			{
				"x": -1.3796249434,
				"y": 1.0653355171,
				"z": 0.091410268,
				"element": "C" 
			},
			{
				"x": -0.6435416291,
				"y": 1.0721953623,
				"z": 1.4570350707,
				"element": "C" 
			},
			{
				"x": 0.0675927254,
				"y": -0.2405051112,
				"z": 1.7997358119,
				"element": "C" 
			},
			{
				"x": -0.5337912728,
				"y": 1.4038491826,
				"z": -1.1256427332,
				"element": "C" 
			},
			{
				"x": -0.7983764007,
				"y": 2.5388545295,
				"z": -1.8565721005,
				"element": "C" 
			},
			{
				"x": 0.0744467347,
				"y": 2.6594569142,
				"z": -2.9155998296,
				"element": "N" 
			},
			{
				"x": 0.9432767983,
				"y": 1.5916576535,
				"z": -2.9010739597,
				"element": "C" 
			},
			{
				"x": 1.9924429109,
				"y": 1.2968588102,
				"z": -3.7780833002,
				"element": "C" 
			},
			{
				"x": 2.7281246671,
				"y": 0.1438475333,
				"z": -3.5417722968,
				"element": "C" 
			},
			{
				"x": 2.4183663973,
				"y": -0.6916755813,
				"z": -2.4514573906,
				"element": "C" 
			},
			{
				"x": 1.3749974993,
				"y": -0.3921284543,
				"z": -1.584687913,
				"element": "C" 
			},
			{
				"x": 0.5983511691,
				"y": 0.7686207964,
				"z": -1.7857455718,
				"element": "C" 
			},
			{
				"x": -1.8618912967,
				"y": -4.047179854,
				"z": 3.4264153959,
				"element": "H" 
			},
			{
				"x": -1.5737172604,
				"y": -4.1065046708,
				"z": 1.6730542539,
				"element": "H" 
			},
			{
				"x": -2.9252581743,
				"y": -3.1598939473,
				"z": 2.3129323941,
				"element": "H" 
			},
			{
				"x": -2.1859404811,
				"y": -2.3451025258,
				"z": 0.3663144451,
				"element": "H" 
			},
			{
				"x": -0.7386330088,
				"y": -1.7444827913,
				"z": -0.4226890164,
				"element": "H" 
			},
			{
				"x": -2.6419310546,
				"y": -0.3175883494,
				"z": -1.0343776502,
				"element": "H" 
			},
			{
				"x": -3.0859893452,
				"y": -0.1243708492,
				"z": 0.6643970245,
				"element": "H" 
			},
			{
				"x": -2.1015497498,
				"y": 1.8903277767,
				"z": 0.1418073677,
				"element": "H" 
			},
			{
				"x": 0.0770946503,
				"y": 1.8963561476,
				"z": 1.48946395,
				"element": "H" 
			},
			{
				"x": -1.3891718248,
				"y": 1.263716699,
				"z": 2.2394164943,
				"element": "H" 
			},
			{
				"x": 0.9488457592,
				"y": -0.3771635222,
				"z": 1.1612622531,
				"element": "H" 
			},
			{
				"x": 0.4094943444,
				"y": -0.2418116015,
				"z": 2.8347109522,
				"element": "H" 
			},
			{
				"x": -1.5647466949,
				"y": 3.283885,
				"z": -1.6907565268,
				"element": "H" 
			},
			{
				"x": 0.0813011297,
				"y": 3.4092706213,
				"z": -3.5870414836,
				"element": "H" 
			},
			{
				"x": 2.2214961954,
				"y": 1.9509716752,
				"z": -4.6150808122,
				"element": "H" 
			},
			{
				"x": 3.549969737,
				"y": -0.1151872068,
				"z": -4.2026092447,
				"element": "H" 
			},
			{
				"x": 3.0080636899,
				"y": -1.58796846,
				"z": -2.2829673791,
				"element": "H" 
			},
			{
				"x": 1.1754230115,
				"y": -1.0611362994,
				"z": -0.7571146151,
				"element": "H" 
			}
		],
		 "valence_orbital": [ 
			{
				"type": "occ",
				"energy": -0.27128,
				"method": "rhf"
			},
			{
				"type": "occ",
				"energy": -0.23385,
				"method": "rhf"
			},
			{
				"type": "occ",
				"energy": -0.22502,
				"method": "rhf"
			},
			{
				"type": "occ",
				"energy": -0.2216,
				"method": "rhf"
			},
			{
				"type": "occ",
				"energy": -0.20123,
				"method": "rhf"
			},
			{
				"type": "unocc",
				"energy": -0.01023,
				"method": "rhf"
			},
			{
				"type": "unocc",
				"energy": 0.02581,
				"method": "rhf"
			},
			{
				"type": "unocc",
				"energy": 0.03844,
				"method": "rhf"
			},
			{
				"type": "unocc",
				"energy": 0.06409,
				"method": "rhf"
			},
			{
				"type": "unocc",
				"energy": 0.07444,
				"method": "rhf"
			}
		],
		"cosmo_sigma_profile": { 
			"-0.025": 0.0,
			"-0.024": 0.0,
			"-0.023": 0.0,
			"-0.022": 0.0,
			"-0.021": 0.0,
			"-0.02": 0.0,
			"-0.019": 0.0,
			"-0.018": 0.0,
			"-0.017": 0.0,
			"-0.016": 0.0824851296552,
			"-0.015": 1.47667395331,
			"-0.014": 1.47171399251,
			"-0.013": 1.22715081304,
			"-0.012": 1.45957020125,
			"-0.011": 0.89182315325,
			"-0.01": 1.34825402845,
			"-0.009": 1.16349472266,
			"-0.008": 2.51765847403,
			"-0.007": 3.28078855827,
			"-0.006": 8.89074036876,
			"-0.005": 18.1886050933,
			"-0.004": 18.3588091377,
			"-0.003": 31.7594044982,
			"-0.002": 36.3002830555,
			"-0.001": 29.0753962145,
			"0.0": 23.5726627795,
			"0.001": 13.5611925599,
			"0.002": 12.5643507634,
			"0.003": 9.89559663608,
			"0.004": 10.7695052193,
			"0.005": 14.2851494185,
			"0.006": 14.2876952958,
			"0.007": 8.81636274722,
			"0.008": 3.07881010735,
			"0.009": 1.76909054813,
			"0.01": 1.02106154441,
			"0.011": 1.6995550662,
			"0.012": 1.61094712275,
			"0.013": 2.03335595936,
			"0.014": 5.02547716752,
			"0.015": 3.08706511647,
			"0.016": 0.378970499697,
			"0.017": 0.0,
			"0.018": 0.0,
			"0.019": 0.0,
			"0.02": 0.0,
			"0.021": 0.0,
			"0.022": 0.0,
			"0.023": 0.0,
			"0.024": 0.0,
			"0.025": 0.0
		}
	}
}
