{
	 "smiles": "NC(=O)CCC1=CC=C(N)C=C1", 
	 "Tm": 405.15, 
	 "num_atms": 24, 
	 "gaussian": { 
		 "optdone": 1, 
		 "sigma_profile": "yes", 
		 "theory": "DFT", 
		 "functional": "B3LYP", 
		 "basiset": "6-31G**", 
		 "properties": { 
			 "R2extent": 4181.732, 
			 "electric_dipole_moment_norm": 4.90792487106, 
			 "electric_quadrupole_moment_norm": 21.5502012506, 
			 "total_energy": -534.944143148, 
			 "HOMO_LUMO_gap": 0.20052, 
			 "cosmo_polarized_energy": -18.43, 
			 "cosmo_cavitation_energy": 28.07, 
			 "cosmo_dispersion_energy": -20.27, 
			 "cosmo_repulsion_energy": 1.66, 
			 "cosmo_total_nonelectrostatic_energy": 9.45, 
			 "SMD_solvation_energy": 5.28 
		},
		"coords": [
			{
				"x": 4.660950771,
				"y": -2.6043575267,
				"z": 0.018348027,
				"element": "N" 
			},
			{
				"x": 3.4539702832,
				"y": -3.0553171445,
				"z": -0.4442490151,
				"element": "C" 
			},
			{
				"x": 3.3641820419,
				"y": -4.0277364827,
				"z": -1.1805077587,
				"element": "O" 
			},
			{
				"x": 2.238053063,
				"y": -2.2660580313,
				"z": 0.0391702149,
				"element": "C" 
			},
			{
				"x": 1.0873109685,
				"y": -2.2862309162,
				"z": -0.9834580329,
				"element": "C" 
			},
			{
				"x": -0.1794659635,
				"y": -1.6492627001,
				"z": -0.4565872362,
				"element": "C" 
			},
			{
				"x": -1.1282625087,
				"y": -2.398144028,
				"z": 0.2529853792,
				"element": "C" 
			},
			{
				"x": -2.2810464114,
				"y": -1.8147870697,
				"z": 0.7720489355,
				"element": "C" 
			},
			{
				"x": -2.5299279475,
				"y": -0.4433757777,
				"z": 0.5954948005,
				"element": "C" 
			},
			{
				"x": -3.7159431538,
				"y": 0.1363946834,
				"z": 1.0590314845,
				"element": "N" 
			},
			{
				"x": -1.5864439385,
				"y": 0.315385925,
				"z": -0.1165299923,
				"element": "C" 
			},
			{
				"x": -0.4378395567,
				"y": -0.2830759405,
				"z": -0.6288498339,
				"element": "C" 
			},
			{
				"x": 5.4833999132,
				"y": -3.1467718048,
				"z": -0.1990234618,
				"element": "H" 
			},
			{
				"x": 4.7368002795,
				"y": -1.8479481279,
				"z": 0.6783227337,
				"element": "H" 
			},
			{
				"x": 2.5160739101,
				"y": -1.2346553323,
				"z": 0.2880975052,
				"element": "H" 
			},
			{
				"x": 1.898417775,
				"y": -2.7280242967,
				"z": 0.9761211945,
				"element": "H" 
			},
			{
				"x": 1.4145666298,
				"y": -1.7725740421,
				"z": -1.8950236175,
				"element": "H" 
			},
			{
				"x": 0.9116370095,
				"y": -3.3283333712,
				"z": -1.2660826372,
				"element": "H" 
			},
			{
				"x": -0.9648675988,
				"y": -3.4636765418,
				"z": 0.3997042473,
				"element": "H" 
			},
			{
				"x": -3.003615912,
				"y": -2.4252915319,
				"z": 1.3088796356,
				"element": "H" 
			},
			{
				"x": -3.6660446845,
				"y": 1.1330243627,
				"z": 1.2213655232,
				"element": "H" 
			},
			{
				"x": -4.1476394037,
				"y": -0.3445396129,
				"z": 1.8365033134,
				"element": "H" 
			},
			{
				"x": -1.7633205176,
				"y": 1.3765686712,
				"z": -0.2766688675,
				"element": "H" 
			},
			{
				"x": 0.2726549521,
				"y": 0.3286866368,
				"z": -1.1809925414,
				"element": "H" 
			}
		],
		 "valence_orbital": [ 
			{
				"type": "occ",
				"energy": -0.29547,
				"method": "rhf"
			},
			{
				"type": "occ",
				"energy": -0.26295,
				"method": "rhf"
			},
			{
				"type": "occ",
				"energy": -0.24301,
				"method": "rhf"
			},
			{
				"type": "occ",
				"energy": -0.24137,
				"method": "rhf"
			},
			{
				"type": "occ",
				"energy": -0.19427,
				"method": "rhf"
			},
			{
				"type": "unocc",
				"energy": 0.00625,
				"method": "rhf"
			},
			{
				"type": "unocc",
				"energy": 0.02123,
				"method": "rhf"
			},
			{
				"type": "unocc",
				"energy": 0.03678,
				"method": "rhf"
			},
			{
				"type": "unocc",
				"energy": 0.07596,
				"method": "rhf"
			},
			{
				"type": "unocc",
				"energy": 0.08366,
				"method": "rhf"
			}
		],
		"cosmo_sigma_profile": { 
			"-0.025": 0.0,
			"-0.024": 0.0,
			"-0.023": 0.0,
			"-0.022": 0.0,
			"-0.021": 0.0,
			"-0.02": 0.0,
			"-0.019": 0.0,
			"-0.018": 0.0,
			"-0.017": 0.0,
			"-0.016": 0.0,
			"-0.015": 0.0408844284441,
			"-0.014": 1.24725913329,
			"-0.013": 2.22835399164,
			"-0.012": 4.68722331443,
			"-0.011": 4.70058078097,
			"-0.01": 4.95213493931,
			"-0.009": 5.6124742937,
			"-0.008": 5.83813509799,
			"-0.007": 4.82264438167,
			"-0.006": 5.35319222534,
			"-0.005": 11.3439849178,
			"-0.004": 15.2088781125,
			"-0.003": 19.7860441955,
			"-0.002": 16.4200470218,
			"-0.001": 12.560354305,
			"0.0": 10.4020460542,
			"0.001": 9.70573177223,
			"0.002": 9.74953492489,
			"0.003": 9.65611940076,
			"0.004": 9.50577927801,
			"0.005": 9.05508265315,
			"0.006": 9.99960149619,
			"0.007": 11.2058638793,
			"0.008": 4.4829329011,
			"0.009": 1.97786597315,
			"0.01": 2.89016256782,
			"0.011": 2.5080796259,
			"0.012": 1.55489745294,
			"0.013": 4.03194115159,
			"0.014": 6.65910677313,
			"0.015": 2.12534453603,
			"0.016": 0.0370256102443,
			"0.017": 0.0,
			"0.018": 0.0,
			"0.019": 0.0,
			"0.02": 0.0,
			"0.021": 0.0,
			"0.022": 0.0,
			"0.023": 0.0,
			"0.024": 0.0,
			"0.025": 0.0
		}
	}
}
