{
	 "smiles": "OC(=O)C1=CC=CN2C=CN=C12", 
	 "Tm": 540.15, 
	 "num_atms": 18, 
	 "gaussian": { 
		 "optdone": 1, 
		 "sigma_profile": "yes", 
		 "theory": "DFT", 
		 "functional": "B3LYP", 
		 "basiset": "6-31G**", 
		 "properties": { 
			 "R2extent": 1875.047, 
			 "electric_dipole_moment_norm": 7.48768985335, 
			 "electric_quadrupole_moment_norm": 11.5408876621, 
			 "total_energy": -568.428293059, 
			 "HOMO_LUMO_gap": 0.16355, 
			 "cosmo_polarized_energy": -15.28, 
			 "cosmo_cavitation_energy": 22.4, 
			 "cosmo_dispersion_energy": -17.13, 
			 "cosmo_repulsion_energy": 1.32, 
			 "cosmo_total_nonelectrostatic_energy": 6.59, 
			 "SMD_solvation_energy": 4.95 
		},
		"coords": [
			{
				"x": 2.3653358524,
				"y": -0.5245901887,
				"z": -0.9689141977,
				"element": "O" 
			},
			{
				"x": 2.2904720708,
				"y": 0.5177495109,
				"z": -0.1326623945,
				"element": "C" 
			},
			{
				"x": 3.253255622,
				"y": 1.2062083035,
				"z": 0.1322294877,
				"element": "O" 
			},
			{
				"x": 0.9371883043,
				"y": 0.7963845962,
				"z": 0.469379724,
				"element": "C" 
			},
			{
				"x": 0.7633431179,
				"y": 1.8482005032,
				"z": 1.3415952395,
				"element": "C" 
			},
			{
				"x": -0.5102867882,
				"y": 2.1134220251,
				"z": 1.9106151678,
				"element": "C" 
			},
			{
				"x": -1.5890024152,
				"y": 1.328784632,
				"z": 1.6029760135,
				"element": "C" 
			},
			{
				"x": -1.4274879547,
				"y": 0.2774569023,
				"z": 0.7346036795,
				"element": "N" 
			},
			{
				"x": -2.3150843729,
				"y": -0.6669388177,
				"z": 0.247709521,
				"element": "C" 
			},
			{
				"x": -1.5753929649,
				"y": -1.4704373121,
				"z": -0.5910435121,
				"element": "C" 
			},
			{
				"x": -0.2701643657,
				"y": -1.0694382313,
				"z": -0.6478510456,
				"element": "N" 
			},
			{
				"x": -0.1862266401,
				"y": -0.0108626743,
				"z": 0.1566507357,
				"element": "C" 
			},
			{
				"x": 1.4848375964,
				"y": -0.9678650723,
				"z": -1.0652103112,
				"element": "H" 
			},
			{
				"x": 1.6236819416,
				"y": 2.4639573897,
				"z": 1.5792069444,
				"element": "H" 
			},
			{
				"x": -0.6441660142,
				"y": 2.9416579284,
				"z": 2.5965888735,
				"element": "H" 
			},
			{
				"x": -2.5844301472,
				"y": 1.4787013327,
				"z": 2.0028299778,
				"element": "H" 
			},
			{
				"x": -3.3544405614,
				"y": -0.6775134457,
				"z": 0.5344963393,
				"element": "H" 
			},
			{
				"x": -1.9277322811,
				"y": -2.3215773819,
				"z": -1.1570002425,
				"element": "H" 
			}
		],
		 "valence_orbital": [ 
			{
				"type": "occ",
				"energy": -0.30324,
				"method": "rhf"
			},
			{
				"type": "occ",
				"energy": -0.29607,
				"method": "rhf"
			},
			{
				"type": "occ",
				"energy": -0.26972,
				"method": "rhf"
			},
			{
				"type": "occ",
				"energy": -0.26343,
				"method": "rhf"
			},
			{
				"type": "occ",
				"energy": -0.23519,
				"method": "rhf"
			},
			{
				"type": "unocc",
				"energy": -0.07164,
				"method": "rhf"
			},
			{
				"type": "unocc",
				"energy": -0.01868,
				"method": "rhf"
			},
			{
				"type": "unocc",
				"energy": 0.03532,
				"method": "rhf"
			},
			{
				"type": "unocc",
				"energy": 0.04661,
				"method": "rhf"
			},
			{
				"type": "unocc",
				"energy": 0.07504,
				"method": "rhf"
			}
		],
		"cosmo_sigma_profile": { 
			"-0.025": 0.0,
			"-0.024": 0.0,
			"-0.023": 0.0,
			"-0.022": 0.0,
			"-0.021": 0.0,
			"-0.02": 0.0,
			"-0.019": 0.0,
			"-0.018": 0.0,
			"-0.017": 0.0,
			"-0.016": 0.0,
			"-0.015": 0.0,
			"-0.014": 0.0,
			"-0.013": 0.0,
			"-0.012": 0.0426441787807,
			"-0.011": 1.59170049921,
			"-0.01": 4.08116764691,
			"-0.009": 4.134044866,
			"-0.008": 7.49964091219,
			"-0.007": 8.60027506399,
			"-0.006": 8.59636754477,
			"-0.005": 7.75084462015,
			"-0.004": 8.43072052424,
			"-0.003": 12.6227326504,
			"-0.002": 14.860595134,
			"-0.001": 14.1905388481,
			"0.0": 13.8018766154,
			"0.001": 14.0905434307,
			"0.002": 10.4345292025,
			"0.003": 8.87490367089,
			"0.004": 4.68914521074,
			"0.005": 3.4196057453,
			"0.006": 4.99331867367,
			"0.007": 4.79173357791,
			"0.008": 1.81154555437,
			"0.009": 3.48813906544,
			"0.01": 4.0990467582,
			"0.011": 4.78585400788,
			"0.012": 6.38237044926,
			"0.013": 2.6059228702,
			"0.014": 0.662971858831,
			"0.015": 0.0,
			"0.016": 0.0,
			"0.017": 0.0,
			"0.018": 0.0,
			"0.019": 0.0,
			"0.02": 0.0,
			"0.021": 0.0,
			"0.022": 0.0,
			"0.023": 0.0,
			"0.024": 0.0,
			"0.025": 0.0
		}
	}
}
