{
	 "smiles": "NC1=NNC=C1", 
	 "Tm": 310.15, 
	 "num_atms": 11, 
	 "gaussian": { 
		 "optdone": 1, 
		 "sigma_profile": "yes", 
		 "theory": "DFT", 
		 "functional": "B3LYP", 
		 "basiset": "6-31G**", 
		 "properties": { 
			 "R2extent": 674.8564, 
			 "electric_dipole_moment_norm": 1.87129507561, 
			 "electric_quadrupole_moment_norm": 10.9451825773, 
			 "total_energy": -281.559240113, 
			 "HOMO_LUMO_gap": 0.23367, 
			 "cosmo_polarized_energy": -12.14, 
			 "cosmo_cavitation_energy": 14.85, 
			 "cosmo_dispersion_energy": -11.54, 
			 "cosmo_repulsion_energy": 1.02, 
			 "cosmo_total_nonelectrostatic_energy": 4.33, 
			 "SMD_solvation_energy": 2.11 
		},
		"coords": [
			{
				"x": -0.9971540514,
				"y": -1.8114470263,
				"z": -0.191387809,
				"element": "N" 
			},
			{
				"x": -1.0154424748,
				"y": -0.4261797746,
				"z": -0.3787485857,
				"element": "C" 
			},
			{
				"x": -0.2777467998,
				"y": 0.3749428966,
				"z": 0.3897650603,
				"element": "N" 
			},
			{
				"x": -0.6104540251,
				"y": 1.6276563005,
				"z": -0.0239545415,
				"element": "N" 
			},
			{
				"x": -1.5153149592,
				"y": 1.6299083827,
				"z": -1.0324386698,
				"element": "C" 
			},
			{
				"x": -1.8131281547,
				"y": 0.3083343625,
				"z": -1.2983706756,
				"element": "C" 
			},
			{
				"x": -0.2134341385,
				"y": -2.0945454934,
				"z": 0.3852655467,
				"element": "H" 
			},
			{
				"x": -1.0061927265,
				"y": -2.3317063514,
				"z": -1.0598725222,
				"element": "H" 
			},
			{
				"x": -0.1777421732,
				"y": 2.417998019,
				"z": 0.4242088934,
				"element": "H" 
			},
			{
				"x": -1.8777987699,
				"y": 2.5473348733,
				"z": -1.4735570437,
				"element": "H" 
			},
			{
				"x": -2.509891727,
				"y": -0.0741961889,
				"z": -2.028909653,
				"element": "H" 
			}
		],
		 "valence_orbital": [ 
			{
				"type": "occ",
				"energy": -0.39192,
				"method": "rhf"
			},
			{
				"type": "occ",
				"energy": -0.31513,
				"method": "rhf"
			},
			{
				"type": "occ",
				"energy": -0.27911,
				"method": "rhf"
			},
			{
				"type": "occ",
				"energy": -0.23625,
				"method": "rhf"
			},
			{
				"type": "occ",
				"energy": -0.19981,
				"method": "rhf"
			},
			{
				"type": "unocc",
				"energy": 0.03386,
				"method": "rhf"
			},
			{
				"type": "unocc",
				"energy": 0.08214,
				"method": "rhf"
			},
			{
				"type": "unocc",
				"energy": 0.0889,
				"method": "rhf"
			},
			{
				"type": "unocc",
				"energy": 0.11017,
				"method": "rhf"
			},
			{
				"type": "unocc",
				"energy": 0.13975,
				"method": "rhf"
			}
		],
		"cosmo_sigma_profile": { 
			"-0.025": 0.0,
			"-0.024": 0.0,
			"-0.023": 0.0,
			"-0.022": 0.0,
			"-0.021": 0.0,
			"-0.02": 0.0,
			"-0.019": 0.0,
			"-0.018": 0.0,
			"-0.017": 0.0,
			"-0.016": 0.960517934766,
			"-0.015": 1.27338376171,
			"-0.014": 1.63032133582,
			"-0.013": 1.3049035197,
			"-0.012": 2.17405642233,
			"-0.011": 2.99175852232,
			"-0.01": 3.51740151799,
			"-0.009": 3.95283464488,
			"-0.008": 5.08066282013,
			"-0.007": 4.6775572931,
			"-0.006": 6.10520350443,
			"-0.005": 5.11208104097,
			"-0.004": 5.5293908415,
			"-0.003": 4.68697134323,
			"-0.002": 4.10933271825,
			"-0.001": 4.49673776623,
			"0.0": 4.85113540741,
			"0.001": 4.42562360059,
			"0.002": 3.07237311453,
			"0.003": 4.2206165738,
			"0.004": 4.82824227529,
			"0.005": 5.33698100696,
			"0.006": 8.00769487747,
			"0.007": 6.23022034955,
			"0.008": 3.31827323574,
			"0.009": 2.0227720075,
			"0.01": 2.05310098457,
			"0.011": 2.25573979571,
			"0.012": 1.56435941378,
			"0.013": 2.60558164504,
			"0.014": 1.96138998819,
			"0.015": 1.48894731085,
			"0.016": 1.19608914953,
			"0.017": 0.776792724466,
			"0.018": 0.0125326836577,
			"0.019": 0.0,
			"0.02": 0.0,
			"0.021": 0.0,
			"0.022": 0.0,
			"0.023": 0.0,
			"0.024": 0.0,
			"0.025": 0.0
		}
	}
}
