{
	 "smiles": "CC1=C(CCC(O)=O)C(C)=C(C#N)C(=O)N1", 
	 "Tm": 528.15, 
	 "num_atms": 28, 
	 "gaussian": { 
		 "optdone": 1, 
		 "sigma_profile": "yes", 
		 "theory": "DFT", 
		 "functional": "B3LYP", 
		 "basiset": "6-31G**", 
		 "properties": { 
			 "R2extent": 4656.0807, 
			 "electric_dipole_moment_norm": 8.40124302886, 
			 "electric_quadrupole_moment_norm": 25.8693793636, 
			 "total_energy": -761.600627943, 
			 "HOMO_LUMO_gap": 0.15865, 
			 "cosmo_polarized_energy": -29.2, 
			 "cosmo_cavitation_energy": 33.05, 
			 "cosmo_dispersion_energy": -22.72, 
			 "cosmo_repulsion_energy": 1.78, 
			 "cosmo_total_nonelectrostatic_energy": 12.11, 
			 "SMD_solvation_energy": 8.63 
		},
		"coords": [
			{
				"x": 0.5690207158,
				"y": 2.1729831733,
				"z": 1.1628605814,
				"element": "C" 
			},
			{
				"x": 0.1674113151,
				"y": 0.7483344133,
				"z": 0.877978353,
				"element": "C" 
			},
			{
				"x": 0.5180662698,
				"y": 0.0521433157,
				"z": -0.2623340023,
				"element": "C" 
			},
			{
				"x": 1.3283903406,
				"y": 0.7283049702,
				"z": -1.3507575567,
				"element": "C" 
			},
			{
				"x": 0.4627522418,
				"y": 1.3937906382,
				"z": -2.4351394568,
				"element": "C" 
			},
			{
				"x": 1.2956136873,
				"y": 2.106919738,
				"z": -3.4798740624,
				"element": "C" 
			},
			{
				"x": 0.5243092359,
				"y": 2.6019471559,
				"z": -4.4758403729,
				"element": "O" 
			},
			{
				"x": 2.4993464989,
				"y": 2.2411492438,
				"z": -3.4523138416,
				"element": "O" 
			},
			{
				"x": 0.0913314072,
				"y": -1.3132288143,
				"z": -0.3864449147,
				"element": "C" 
			},
			{
				"x": 0.4867945594,
				"y": -2.1120862727,
				"z": -1.6039435379,
				"element": "C" 
			},
			{
				"x": -0.664315783,
				"y": -1.9057644166,
				"z": 0.6176273209,
				"element": "C" 
			},
			{
				"x": -1.1046079009,
				"y": -3.261552848,
				"z": 0.5252562378,
				"element": "C" 
			},
			{
				"x": -1.4525789871,
				"y": -4.3678819178,
				"z": 0.4248021408,
				"element": "N" 
			},
			{
				"x": -1.0510924215,
				"y": -1.1876587349,
				"z": 1.8275578518,
				"element": "C" 
			},
			{
				"x": -1.7116440662,
				"y": -1.6147659351,
				"z": 2.7646956802,
				"element": "O" 
			},
			{
				"x": -0.572055772,
				"y": 0.134094632,
				"z": 1.8451621598,
				"element": "N" 
			},
			{
				"x": 0.0501199072,
				"y": 2.5616229046,
				"z": 2.0429153152,
				"element": "H" 
			},
			{
				"x": 0.3377428134,
				"y": 2.8319118326,
				"z": 0.3222353054,
				"element": "H" 
			},
			{
				"x": 1.6460959646,
				"y": 2.2462209403,
				"z": 1.3495545626,
				"element": "H" 
			},
			{
				"x": 1.9890833612,
				"y": 1.4866869863,
				"z": -0.923378386,
				"element": "H" 
			},
			{
				"x": 1.9977938388,
				"y": 0.0095712993,
				"z": -1.8300332141,
				"element": "H" 
			},
			{
				"x": -0.2264060473,
				"y": 2.1283440526,
				"z": -1.9997058774,
				"element": "H" 
			},
			{
				"x": -0.1797043901,
				"y": 0.6680175753,
				"z": -2.9462376701,
				"element": "H" 
			},
			{
				"x": 1.128021842,
				"y": 3.0463180896,
				"z": -5.0950313884,
				"element": "H" 
			},
			{
				"x": 1.5750045391,
				"y": -2.2372440699,
				"z": -1.643869521,
				"element": "H" 
			},
			{
				"x": 0.1884412442,
				"y": -1.6060044608,
				"z": -2.5273713546,
				"element": "H" 
			},
			{
				"x": 0.0339984017,
				"y": -3.1035147832,
				"z": -1.5962466226,
				"element": "H" 
			},
			{
				"x": -0.8284328159,
				"y": 0.6416412923,
				"z": 2.6837762706,
				"element": "H" 
			}
		],
		 "valence_orbital": [ 
			{
				"type": "occ",
				"energy": -0.32019,
				"method": "rhf"
			},
			{
				"type": "occ",
				"energy": -0.29577,
				"method": "rhf"
			},
			{
				"type": "occ",
				"energy": -0.29038,
				"method": "rhf"
			},
			{
				"type": "occ",
				"energy": -0.26356,
				"method": "rhf"
			},
			{
				"type": "occ",
				"energy": -0.22583,
				"method": "rhf"
			},
			{
				"type": "unocc",
				"energy": -0.06718,
				"method": "rhf"
			},
			{
				"type": "unocc",
				"energy": -0.00859,
				"method": "rhf"
			},
			{
				"type": "unocc",
				"energy": -0.00744,
				"method": "rhf"
			},
			{
				"type": "unocc",
				"energy": 0.03864,
				"method": "rhf"
			},
			{
				"type": "unocc",
				"energy": 0.05179,
				"method": "rhf"
			}
		],
		"cosmo_sigma_profile": { 
			"-0.025": 0.0,
			"-0.024": 0.0,
			"-0.023": 0.0,
			"-0.022": 0.0,
			"-0.021": 0.0,
			"-0.02": 0.0,
			"-0.019": 0.0,
			"-0.018": 0.744777068087,
			"-0.017": 1.01526645276,
			"-0.016": 1.87367064769,
			"-0.015": 2.05752250168,
			"-0.014": 1.82644957346,
			"-0.013": 1.54234833011,
			"-0.012": 1.87064952393,
			"-0.011": 2.43327801783,
			"-0.01": 1.77692475939,
			"-0.009": 1.36599122791,
			"-0.008": 3.28391600483,
			"-0.007": 11.5517328411,
			"-0.006": 18.9470009061,
			"-0.005": 18.4854238342,
			"-0.004": 17.0167143648,
			"-0.003": 22.4544591906,
			"-0.002": 27.3027562304,
			"-0.001": 20.435206208,
			"0.0": 13.1543969809,
			"0.001": 6.67101041165,
			"0.002": 5.62216374522,
			"0.003": 4.79235510333,
			"0.004": 5.73179213966,
			"0.005": 6.10105786202,
			"0.006": 4.68643248157,
			"0.007": 6.38128196757,
			"0.008": 8.06853408868,
			"0.009": 7.33059941642,
			"0.01": 8.11661064331,
			"0.011": 8.35363987929,
			"0.012": 9.27793879294,
			"0.013": 7.81213096013,
			"0.014": 4.23538873429,
			"0.015": 0.0605215041128,
			"0.016": 0.0,
			"0.017": 0.0,
			"0.018": 0.0,
			"0.019": 0.0,
			"0.02": 0.0,
			"0.021": 0.0,
			"0.022": 0.0,
			"0.023": 0.0,
			"0.024": 0.0,
			"0.025": 0.0
		}
	}
}
