{
	 "smiles": "CC1=C(SC(=N1)C(=N/NC1=CC(C)=CC=C1C)C#N)N=NC1=CC=CC=C1", 
	 "Tm": 475.15, 
	 "num_atms": 45, 
	 "gaussian": { 
		 "optdone": 1, 
		 "sigma_profile": "yes", 
		 "theory": "DFT", 
		 "functional": "B3LYP", 
		 "basiset": "6-31G**", 
		 "properties": { 
			 "R2extent": 17537.6619, 
			 "electric_dipole_moment_norm": 7.09345863525, 
			 "electric_quadrupole_moment_norm": 36.5441862796, 
			 "total_energy": -1499.58173205, 
			 "HOMO_LUMO_gap": 0.10223, 
			 "cosmo_polarized_energy": -17.29, 
			 "cosmo_cavitation_energy": 53.37, 
			 "cosmo_dispersion_energy": -37.01, 
			 "cosmo_repulsion_energy": 2.77, 
			 "cosmo_total_nonelectrostatic_energy": 19.12, 
			 "SMD_solvation_energy": 7.21 
		},
		"coords": [
			{
				"x": -0.3189318806,
				"y": -4.0359169863,
				"z": 2.8250921477,
				"element": "C" 
			},
			{
				"x": -0.3880904362,
				"y": -3.0048369059,
				"z": 1.7413364793,
				"element": "C" 
			},
			{
				"x": 0.5388628857,
				"y": -1.9837860701,
				"z": 1.5126590128,
				"element": "C" 
			},
			{
				"x": 0.0447617584,
				"y": -1.0441787382,
				"z": 0.1175305873,
				"element": "S" 
			},
			{
				"x": -1.3772440317,
				"y": -2.0630362742,
				"z": -0.0288187593,
				"element": "C" 
			},
			{
				"x": -1.4343589058,
				"y": -3.0233303583,
				"z": 0.8746113516,
				"element": "N" 
			},
			{
				"x": -2.398667773,
				"y": -1.9351700767,
				"z": -1.0645052075,
				"element": "C" 
			},
			{
				"x": -2.649470245,
				"y": -0.9477717469,
				"z": -1.8897567319,
				"element": "N" 
			},
			{
				"x": -1.9716192813,
				"y": 0.181817189,
				"z": -1.8824800186,
				"element": "N" 
			},
			{
				"x": -2.3164106797,
				"y": 1.2352714595,
				"z": -2.7585304551,
				"element": "C" 
			},
			{
				"x": -3.3440856144,
				"y": 1.0711215838,
				"z": -3.6942421938,
				"element": "C" 
			},
			{
				"x": -3.6849148333,
				"y": 2.1069545692,
				"z": -4.565783376,
				"element": "C" 
			},
			{
				"x": -4.7741161687,
				"y": 1.9170661549,
				"z": -5.595082991,
				"element": "C" 
			},
			{
				"x": -2.9784095706,
				"y": 3.3142183057,
				"z": -4.4770017765,
				"element": "C" 
			},
			{
				"x": -1.9548817323,
				"y": 3.4680519673,
				"z": -3.5446725328,
				"element": "C" 
			},
			{
				"x": -1.5938674112,
				"y": 2.4417765374,
				"z": -2.6666662158,
				"element": "C" 
			},
			{
				"x": -0.4738460355,
				"y": 2.6291737698,
				"z": -1.6704123697,
				"element": "C" 
			},
			{
				"x": -3.2852951989,
				"y": -3.0609421945,
				"z": -1.2133048679,
				"element": "C" 
			},
			{
				"x": -4.0081100881,
				"y": -3.9604498291,
				"z": -1.3539151811,
				"element": "N" 
			},
			{
				"x": 1.7115132952,
				"y": -1.5869846424,
				"z": 2.1150621491,
				"element": "N" 
			},
			{
				"x": 2.0604034331,
				"y": -2.2719468922,
				"z": 3.1290795553,
				"element": "N" 
			},
			{
				"x": 3.2656470938,
				"y": -1.8510604006,
				"z": 3.7323310531,
				"element": "C" 
			},
			{
				"x": 4.0586178699,
				"y": -0.7773115698,
				"z": 3.2855127379,
				"element": "C" 
			},
			{
				"x": 5.228098623,
				"y": -0.4585312899,
				"z": 3.9644049861,
				"element": "C" 
			},
			{
				"x": 5.6213888744,
				"y": -1.1977174697,
				"z": 5.0881889879,
				"element": "C" 
			},
			{
				"x": 4.8365711898,
				"y": -2.2634240041,
				"z": 5.5332332031,
				"element": "C" 
			},
			{
				"x": 3.662627709,
				"y": -2.5896203848,
				"z": 4.8578236232,
				"element": "C" 
			},
			{
				"x": -0.3197018213,
				"y": -3.5657250329,
				"z": 3.8131887961,
				"element": "H" 
			},
			{
				"x": 0.6114928075,
				"y": -4.6080324022,
				"z": 2.7620397518,
				"element": "H" 
			},
			{
				"x": -1.1748160592,
				"y": -4.7066772287,
				"z": 2.7333659013,
				"element": "H" 
			},
			{
				"x": -1.316896086,
				"y": 0.3973108993,
				"z": -1.1357151722,
				"element": "H" 
			},
			{
				"x": -3.8720278781,
				"y": 0.1252225986,
				"z": -3.7268055476,
				"element": "H" 
			},
			{
				"x": -5.325145281,
				"y": 2.8465245719,
				"z": -5.7682787119,
				"element": "H" 
			},
			{
				"x": -5.4889945909,
				"y": 1.1498384154,
				"z": -5.285192369,
				"element": "H" 
			},
			{
				"x": -4.3547227158,
				"y": 1.603447956,
				"z": -6.5591260696,
				"element": "H" 
			},
			{
				"x": -3.2298793988,
				"y": 4.1369895479,
				"z": -5.1407307989,
				"element": "H" 
			},
			{
				"x": -1.4170261069,
				"y": 4.4110600678,
				"z": -3.4900173815,
				"element": "H" 
			},
			{
				"x": 0.3413260357,
				"y": 1.9105400507,
				"z": -1.8247541806,
				"element": "H" 
			},
			{
				"x": -0.8133170161,
				"y": 2.5208613316,
				"z": -0.6311466268,
				"element": "H" 
			},
			{
				"x": -0.0446426885,
				"y": 3.6296018638,
				"z": -1.7619571475,
				"element": "H" 
			},
			{
				"x": 3.7400375764,
				"y": -0.2166096168,
				"z": 2.414447547,
				"element": "H" 
			},
			{
				"x": 5.8417693062,
				"y": 0.3694174175,
				"z": 3.6209153409,
				"element": "H" 
			},
			{
				"x": 6.5374647599,
				"y": -0.9408242826,
				"z": 5.6120615031,
				"element": "H" 
			},
			{
				"x": 5.1389501055,
				"y": -2.8381695151,
				"z": 6.4034511042,
				"element": "H" 
			},
			{
				"x": 3.0328562053,
				"y": -3.4126123448,
				"z": 5.1802608639,
				"element": "H" 
			}
		],
		 "valence_orbital": [ 
			{
				"type": "occ",
				"energy": -0.26469,
				"method": "rhf"
			},
			{
				"type": "occ",
				"energy": -0.24881,
				"method": "rhf"
			},
			{
				"type": "occ",
				"energy": -0.24084,
				"method": "rhf"
			},
			{
				"type": "occ",
				"energy": -0.23949,
				"method": "rhf"
			},
			{
				"type": "occ",
				"energy": -0.21047,
				"method": "rhf"
			},
			{
				"type": "unocc",
				"energy": -0.10824,
				"method": "rhf"
			},
			{
				"type": "unocc",
				"energy": -0.06477,
				"method": "rhf"
			},
			{
				"type": "unocc",
				"energy": -0.01705,
				"method": "rhf"
			},
			{
				"type": "unocc",
				"energy": -0.01275,
				"method": "rhf"
			},
			{
				"type": "unocc",
				"energy": -0.00742,
				"method": "rhf"
			}
		],
		"cosmo_sigma_profile": { 
			"-0.025": 0.0,
			"-0.024": 0.0,
			"-0.023": 0.0,
			"-0.022": 0.0,
			"-0.021": 0.0,
			"-0.02": 0.0,
			"-0.019": 0.0,
			"-0.018": 0.0,
			"-0.017": 0.0,
			"-0.016": 0.0,
			"-0.015": 0.0,
			"-0.014": 0.0,
			"-0.013": 0.20420783572,
			"-0.012": 1.03198060582,
			"-0.011": 1.08235183959,
			"-0.01": 0.993791103146,
			"-0.009": 1.64820340242,
			"-0.008": 1.91932184868,
			"-0.007": 3.62762945151,
			"-0.006": 14.3857615686,
			"-0.005": 28.3585845327,
			"-0.004": 35.0790254429,
			"-0.003": 34.6715096829,
			"-0.002": 40.1373606021,
			"-0.001": 46.5091785685,
			"0.0": 42.4461731734,
			"0.001": 35.4325994426,
			"0.002": 31.1768756412,
			"0.003": 29.2140038125,
			"0.004": 30.8317239141,
			"0.005": 18.0841128095,
			"0.006": 6.94449842278,
			"0.007": 4.15260712074,
			"0.008": 5.28977777127,
			"0.009": 4.82698963972,
			"0.01": 4.80915953297,
			"0.011": 3.49037953086,
			"0.012": 3.15595321585,
			"0.013": 1.28943690681,
			"0.014": 0.0101303800545,
			"0.015": 0.0,
			"0.016": 0.0,
			"0.017": 0.0,
			"0.018": 0.0,
			"0.019": 0.0,
			"0.02": 0.0,
			"0.021": 0.0,
			"0.022": 0.0,
			"0.023": 0.0,
			"0.024": 0.0,
			"0.025": 0.0
		}
	}
}
