{
	 "smiles": "CCCOC1=CC=C(OCC(O)=O)C=C1", 
	 "Tm": 380.15, 
	 "num_atms": 29, 
	 "gaussian": { 
		 "optdone": 1, 
		 "sigma_profile": "yes", 
		 "theory": "DFT", 
		 "functional": "B3LYP", 
		 "basiset": "6-31G**", 
		 "properties": { 
			 "R2extent": 4983.6739, 
			 "electric_dipole_moment_norm": 3.08515395402, 
			 "electric_quadrupole_moment_norm": 28.4113549511, 
			 "total_energy": -728.485112065, 
			 "HOMO_LUMO_gap": 0.20709, 
			 "cosmo_polarized_energy": -18.96, 
			 "cosmo_cavitation_energy": 32.9, 
			 "cosmo_dispersion_energy": -23.53, 
			 "cosmo_repulsion_energy": 1.89, 
			 "cosmo_total_nonelectrostatic_energy": 11.26, 
			 "SMD_solvation_energy": 7.14 
		},
		"coords": [
			{
				"x": -2.3154823815,
				"y": -0.5186189439,
				"z": 3.3956495683,
				"element": "C" 
			},
			{
				"x": -1.216280526,
				"y": -1.5291281264,
				"z": 3.0541115337,
				"element": "C" 
			},
			{
				"x": -1.5862750887,
				"y": -2.444039504,
				"z": 1.8846592645,
				"element": "C" 
			},
			{
				"x": -1.8537174291,
				"y": -1.7281002974,
				"z": 0.6756220377,
				"element": "O" 
			},
			{
				"x": -0.8192991137,
				"y": -1.3148116576,
				"z": -0.117178668,
				"element": "C" 
			},
			{
				"x": 0.538910668,
				"y": -1.5575512515,
				"z": 0.1279460722,
				"element": "C" 
			},
			{
				"x": 1.505666638,
				"y": -1.0989830476,
				"z": -0.7714330327,
				"element": "C" 
			},
			{
				"x": 1.122240336,
				"y": -0.3999700276,
				"z": -1.912405093,
				"element": "C" 
			},
			{
				"x": 2.0762091303,
				"y": 0.0057969367,
				"z": -2.8435129547,
				"element": "O" 
			},
			{
				"x": 2.5325640821,
				"y": 1.3277701471,
				"z": -2.7223157075,
				"element": "C" 
			},
			{
				"x": 3.6812951378,
				"y": 1.4922955378,
				"z": -1.716745592,
				"element": "C" 
			},
			{
				"x": 4.1270637946,
				"y": 2.7724691251,
				"z": -1.5922161345,
				"element": "O" 
			},
			{
				"x": 4.1873475872,
				"y": 0.6037698336,
				"z": -1.0856503439,
				"element": "O" 
			},
			{
				"x": -0.2318032365,
				"y": -0.1583122082,
				"z": -2.1648836211,
				"element": "C" 
			},
			{
				"x": -1.1959414639,
				"y": -0.6092781041,
				"z": -1.2708960028,
				"element": "C" 
			},
			{
				"x": -2.012872933,
				"y": 0.1267777455,
				"z": 4.2259283036,
				"element": "H" 
			},
			{
				"x": -2.5402126583,
				"y": 0.1176162313,
				"z": 2.5350379251,
				"element": "H" 
			},
			{
				"x": -3.2427131282,
				"y": -1.025859946,
				"z": 3.686151736,
				"element": "H" 
			},
			{
				"x": -0.2827540942,
				"y": -1.0015888258,
				"z": 2.8271805633,
				"element": "H" 
			},
			{
				"x": -1.0080424815,
				"y": -2.1699321522,
				"z": 3.9212321065,
				"element": "H" 
			},
			{
				"x": -0.8162041038,
				"y": -3.2066698085,
				"z": 1.7130180342,
				"element": "H" 
			},
			{
				"x": -2.52365035,
				"y": -2.9667066838,
				"z": 2.1019272284,
				"element": "H" 
			},
			{
				"x": 0.8616600857,
				"y": -2.0946559342,
				"z": 1.0115178853,
				"element": "H" 
			},
			{
				"x": 2.56099365,
				"y": -1.2655892013,
				"z": -0.5908087745,
				"element": "H" 
			},
			{
				"x": 2.9047748623,
				"y": 1.6335716923,
				"z": -3.7092127406,
				"element": "H" 
			},
			{
				"x": 1.7190928538,
				"y": 2.0172142222,
				"z": -2.4451784622,
				"element": "H" 
			},
			{
				"x": 3.6142065657,
				"y": 3.3723019213,
				"z": -2.1540586416,
				"element": "H" 
			},
			{
				"x": -0.5217942083,
				"y": 0.3667592402,
				"z": -3.0702853786,
				"element": "H" 
			},
			{
				"x": -2.2524821947,
				"y": -0.4402469131,
				"z": -1.4512011108,
				"element": "H" 
			}
		],
		 "valence_orbital": [ 
			{
				"type": "occ",
				"energy": -0.30571,
				"method": "rhf"
			},
			{
				"type": "occ",
				"energy": -0.29549,
				"method": "rhf"
			},
			{
				"type": "occ",
				"energy": -0.26934,
				"method": "rhf"
			},
			{
				"type": "occ",
				"energy": -0.25172,
				"method": "rhf"
			},
			{
				"type": "occ",
				"energy": -0.21195,
				"method": "rhf"
			},
			{
				"type": "unocc",
				"energy": -0.00486,
				"method": "rhf"
			},
			{
				"type": "unocc",
				"energy": 0.00498,
				"method": "rhf"
			},
			{
				"type": "unocc",
				"energy": 0.01471,
				"method": "rhf"
			},
			{
				"type": "unocc",
				"energy": 0.04535,
				"method": "rhf"
			},
			{
				"type": "unocc",
				"energy": 0.08799,
				"method": "rhf"
			}
		],
		"cosmo_sigma_profile": { 
			"-0.025": 0.0,
			"-0.024": 0.0,
			"-0.023": 0.0,
			"-0.022": 0.0,
			"-0.021": 0.0,
			"-0.02": 0.534339683518,
			"-0.019": 1.16210789964,
			"-0.018": 1.38691122833,
			"-0.017": 1.23917319317,
			"-0.016": 0.958134889556,
			"-0.015": 0.913305893232,
			"-0.014": 1.49122704841,
			"-0.013": 1.03591630891,
			"-0.012": 1.57828288008,
			"-0.011": 1.32533049919,
			"-0.01": 1.68754270445,
			"-0.009": 3.11747525858,
			"-0.008": 3.20606690447,
			"-0.007": 4.43003732948,
			"-0.006": 9.88541478963,
			"-0.005": 13.2191425893,
			"-0.004": 16.901434768,
			"-0.003": 23.9235933161,
			"-0.002": 18.4884142921,
			"-0.001": 18.2787251145,
			"0.0": 18.9941818201,
			"0.001": 17.8791029871,
			"0.002": 12.0529282636,
			"0.003": 13.8228318462,
			"0.004": 16.416274252,
			"0.005": 14.3018407741,
			"0.006": 5.11415943598,
			"0.007": 5.12951183934,
			"0.008": 5.76303453535,
			"0.009": 6.3153771993,
			"0.01": 8.66894426379,
			"0.011": 7.11028974542,
			"0.012": 2.78915839436,
			"0.013": 0.485996973624,
			"0.014": 0.0,
			"0.015": 0.0,
			"0.016": 0.0,
			"0.017": 0.0,
			"0.018": 0.0,
			"0.019": 0.0,
			"0.02": 0.0,
			"0.021": 0.0,
			"0.022": 0.0,
			"0.023": 0.0,
			"0.024": 0.0,
			"0.025": 0.0
		}
	}
}
