{
	 "smiles": "CC1=CC=C2OC(=S)NC2=C1", 
	 "Tm": 497.15, 
	 "num_atms": 18, 
	 "gaussian": { 
		 "optdone": 1, 
		 "sigma_profile": "yes", 
		 "theory": "DFT", 
		 "functional": "B3LYP", 
		 "basiset": "6-31G**", 
		 "properties": { 
			 "R2extent": 3555.3205, 
			 "electric_dipole_moment_norm": 5.98125807001, 
			 "electric_quadrupole_moment_norm": 23.0724790389, 
			 "total_energy": -837.244906022, 
			 "HOMO_LUMO_gap": 0.17515, 
			 "cosmo_polarized_energy": -14.17, 
			 "cosmo_cavitation_energy": 24.08, 
			 "cosmo_dispersion_energy": -18.66, 
			 "cosmo_repulsion_energy": 1.45, 
			 "cosmo_total_nonelectrostatic_energy": 6.87, 
			 "SMD_solvation_energy": 3.42 
		},
		"coords": [
			{
				"x": 3.0984997208,
				"y": 1.2310696856,
				"z": -1.1580048159,
				"element": "C" 
			},
			{
				"x": 2.2196959696,
				"y": 0.959788482,
				"z": 0.0418150524,
				"element": "C" 
			},
			{
				"x": 1.9495146558,
				"y": 1.9791740273,
				"z": 0.970995239,
				"element": "C" 
			},
			{
				"x": 1.1627211783,
				"y": 1.7687515373,
				"z": 2.111499291,
				"element": "C" 
			},
			{
				"x": 0.6573669114,
				"y": 0.4946359756,
				"z": 2.2805956904,
				"element": "C" 
			},
			{
				"x": -0.1419053306,
				"y": 0.0164188187,
				"z": 3.2981890813,
				"element": "O" 
			},
			{
				"x": -0.4101439485,
				"y": -1.3095004193,
				"z": 3.0580052887,
				"element": "C" 
			},
			{
				"x": -1.3297470433,
				"y": -2.2681722598,
				"z": 4.0288713486,
				"element": "S" 
			},
			{
				"x": 0.229014781,
				"y": -1.6333949145,
				"z": 1.8884816172,
				"element": "N" 
			},
			{
				"x": 0.9082687262,
				"y": -0.5348953203,
				"z": 1.3711786031,
				"element": "C" 
			},
			{
				"x": 1.6871572536,
				"y": -0.3264875507,
				"z": 0.2405712132,
				"element": "C" 
			},
			{
				"x": 4.1152651055,
				"y": 0.8512470059,
				"z": -0.9993225278,
				"element": "H" 
			},
			{
				"x": 3.1765722305,
				"y": 2.3025888146,
				"z": -1.3601201757,
				"element": "H" 
			},
			{
				"x": 2.7085946384,
				"y": 0.7459812981,
				"z": -2.0585705597,
				"element": "H" 
			},
			{
				"x": 2.365121169,
				"y": 2.9674792818,
				"z": 0.7985305909,
				"element": "H" 
			},
			{
				"x": 0.9559167134,
				"y": 2.5598889028,
				"z": 2.822882444,
				"element": "H" 
			},
			{
				"x": 0.1797060643,
				"y": -2.5643149151,
				"z": 1.5047086398,
				"element": "H" 
			},
			{
				"x": 1.8807812046,
				"y": -1.12495845,
				"z": -0.4692060206,
				"element": "H" 
			}
		],
		 "valence_orbital": [ 
			{
				"type": "occ",
				"energy": -0.36439,
				"method": "rhf"
			},
			{
				"type": "occ",
				"energy": -0.27994,
				"method": "rhf"
			},
			{
				"type": "occ",
				"energy": -0.26041,
				"method": "rhf"
			},
			{
				"type": "occ",
				"energy": -0.22243,
				"method": "rhf"
			},
			{
				"type": "occ",
				"energy": -0.21429,
				"method": "rhf"
			},
			{
				"type": "unocc",
				"energy": -0.03914,
				"method": "rhf"
			},
			{
				"type": "unocc",
				"energy": -0.00742,
				"method": "rhf"
			},
			{
				"type": "unocc",
				"energy": 0.00422,
				"method": "rhf"
			},
			{
				"type": "unocc",
				"energy": 0.06839,
				"method": "rhf"
			},
			{
				"type": "unocc",
				"energy": 0.08137,
				"method": "rhf"
			}
		],
		"cosmo_sigma_profile": { 
			"-0.025": 0.0,
			"-0.024": 0.0,
			"-0.023": 0.0,
			"-0.022": 0.0,
			"-0.021": 0.0,
			"-0.02": 0.0,
			"-0.019": 0.0,
			"-0.018": 0.718875352273,
			"-0.017": 1.55235171206,
			"-0.016": 1.03179506005,
			"-0.015": 1.03426163571,
			"-0.014": 1.1917601508,
			"-0.013": 0.987068645341,
			"-0.012": 0.736251860452,
			"-0.011": 1.24148288976,
			"-0.01": 0.778879648338,
			"-0.009": 1.30001711853,
			"-0.008": 2.97753997842,
			"-0.007": 5.12086836929,
			"-0.006": 6.51592180956,
			"-0.005": 10.1957479926,
			"-0.004": 14.5069371196,
			"-0.003": 12.0483361801,
			"-0.002": 15.8266737237,
			"-0.001": 16.8766087493,
			"0.0": 16.0652021564,
			"0.001": 10.5770788516,
			"0.002": 12.6203441404,
			"0.003": 12.0218048144,
			"0.004": 9.44110906569,
			"0.005": 4.45167377049,
			"0.006": 4.65714075905,
			"0.007": 6.33224698713,
			"0.008": 9.10795355248,
			"0.009": 7.75721186701,
			"0.01": 5.27151264053,
			"0.011": 2.5409652118,
			"0.012": 0.386423883262,
			"0.013": 0.0,
			"0.014": 0.0,
			"0.015": 0.0,
			"0.016": 0.0,
			"0.017": 0.0,
			"0.018": 0.0,
			"0.019": 0.0,
			"0.02": 0.0,
			"0.021": 0.0,
			"0.022": 0.0,
			"0.023": 0.0,
			"0.024": 0.0,
			"0.025": 0.0
		}
	}
}
