{
	 "smiles": "NC1=NC=C(S1)[N+]([O-])=O", 
	 "Tm": 473.15, 
	 "num_atms": 12, 
	 "gaussian": { 
		 "optdone": 1, 
		 "sigma_profile": "yes", 
		 "theory": "DFT", 
		 "functional": "B3LYP", 
		 "basiset": "6-31G**", 
		 "properties": { 
			 "R2extent": 1494.0204, 
			 "electric_dipole_moment_norm": 6.4644469253, 
			 "electric_quadrupole_moment_norm": 8.36631485841, 
			 "total_energy": -828.900031248, 
			 "HOMO_LUMO_gap": 0.15487, 
			 "cosmo_polarized_energy": -16.25, 
			 "cosmo_cavitation_energy": 19.23, 
			 "cosmo_dispersion_energy": -14.99, 
			 "cosmo_repulsion_energy": 1.2, 
			 "cosmo_total_nonelectrostatic_energy": 5.43, 
			 "SMD_solvation_energy": 4.08 
		},
		"coords": [
			{
				"x": -0.3321577338,
				"y": 1.9049350874,
				"z": -1.6645768738,
				"element": "N" 
			},
			{
				"x": 0.1432931539,
				"y": 1.1122839778,
				"z": -0.6726162076,
				"element": "C" 
			},
			{
				"x": 1.4342823373,
				"y": 0.948836521,
				"z": -0.4541792418,
				"element": "N" 
			},
			{
				"x": 1.6326367454,
				"y": 0.0714659725,
				"z": 0.5658131029,
				"element": "C" 
			},
			{
				"x": 0.5006134743,
				"y": -0.442427348,
				"z": 1.1408473581,
				"element": "C" 
			},
			{
				"x": -0.9424315156,
				"y": 0.1888938855,
				"z": 0.3704450546,
				"element": "S" 
			},
			{
				"x": 0.4138591117,
				"y": -1.3598582093,
				"z": 2.2202588435,
				"element": "N" 
			},
			{
				"x": -0.7213807229,
				"y": -1.6899863743,
				"z": 2.5888355094,
				"element": "O" 
			},
			{
				"x": 1.4719295737,
				"y": -1.7624743622,
				"z": 2.7134955553,
				"element": "O" 
			},
			{
				"x": 0.3456978586,
				"y": 2.498954399,
				"z": -2.1200112749,
				"element": "H" 
			},
			{
				"x": -1.2928473968,
				"y": 2.2073620129,
				"z": -1.6653299063,
				"element": "H" 
			},
			{
				"x": 2.6347051142,
				"y": -0.1836855621,
				"z": 0.8874180806,
				"element": "H" 
			}
		],
		 "valence_orbital": [ 
			{
				"type": "occ",
				"energy": -0.30957,
				"method": "rhf"
			},
			{
				"type": "occ",
				"energy": -0.29918,
				"method": "rhf"
			},
			{
				"type": "occ",
				"energy": -0.29484,
				"method": "rhf"
			},
			{
				"type": "occ",
				"energy": -0.28271,
				"method": "rhf"
			},
			{
				"type": "occ",
				"energy": -0.24236,
				"method": "rhf"
			},
			{
				"type": "unocc",
				"energy": -0.08749,
				"method": "rhf"
			},
			{
				"type": "unocc",
				"energy": -0.01719,
				"method": "rhf"
			},
			{
				"type": "unocc",
				"energy": -0.00755,
				"method": "rhf"
			},
			{
				"type": "unocc",
				"energy": 0.04643,
				"method": "rhf"
			},
			{
				"type": "unocc",
				"energy": 0.05196,
				"method": "rhf"
			}
		],
		"cosmo_sigma_profile": { 
			"-0.025": 0.0,
			"-0.024": 0.0,
			"-0.023": 0.0,
			"-0.022": 0.0,
			"-0.021": 0.0,
			"-0.02": 0.0,
			"-0.019": 0.0,
			"-0.018": 0.0,
			"-0.017": 0.688662914325,
			"-0.016": 1.84016416914,
			"-0.015": 3.25107692644,
			"-0.014": 2.88819282292,
			"-0.013": 2.13284211818,
			"-0.012": 2.8163212718,
			"-0.011": 2.01848529539,
			"-0.01": 2.31791986035,
			"-0.009": 2.85488909318,
			"-0.008": 3.21858829148,
			"-0.007": 2.68623388638,
			"-0.006": 2.25351179166,
			"-0.005": 4.65367160367,
			"-0.004": 5.85958141755,
			"-0.003": 8.02963237184,
			"-0.002": 11.3906776681,
			"-0.001": 13.1141912981,
			"0.0": 10.1132885874,
			"0.001": 10.4185151608,
			"0.002": 10.2857215453,
			"0.003": 5.51816408392,
			"0.004": 4.44854261307,
			"0.005": 4.38459915167,
			"0.006": 5.24131363678,
			"0.007": 4.59427582743,
			"0.008": 11.5017546737,
			"0.009": 7.70642886746,
			"0.01": 5.48018586205,
			"0.011": 2.76160672951,
			"0.012": 0.883189849289,
			"0.013": 0.571541697385,
			"0.014": 0.568644785662,
			"0.015": 0.0,
			"0.016": 0.0,
			"0.017": 0.0,
			"0.018": 0.0,
			"0.019": 0.0,
			"0.02": 0.0,
			"0.021": 0.0,
			"0.022": 0.0,
			"0.023": 0.0,
			"0.024": 0.0,
			"0.025": 0.0
		}
	}
}
