{
	 "smiles": "C(C1=NC2=C(S1)C=CC=C2)C1=NC2=C(S1)C=CC=C2", 
	 "Tm": 367.15, 
	 "num_atms": 29, 
	 "gaussian": { 
		 "optdone": 1, 
		 "sigma_profile": "yes", 
		 "theory": "DFT", 
		 "functional": "B3LYP", 
		 "basiset": "6-31G**", 
		 "properties": { 
			 "R2extent": 7598.5429, 
			 "electric_dipole_moment_norm": 1.10492060801, 
			 "electric_quadrupole_moment_norm": 10.3540717329, 
			 "total_energy": -1483.52100623, 
			 "HOMO_LUMO_gap": 0.18936, 
			 "cosmo_polarized_energy": -9.59, 
			 "cosmo_cavitation_energy": 37.16, 
			 "cosmo_dispersion_energy": -27.67, 
			 "cosmo_repulsion_energy": 2.02, 
			 "cosmo_total_nonelectrostatic_energy": 11.51, 
			 "SMD_solvation_energy": 1.28 
		},
		"coords": [
			{
				"x": 2.2471370275,
				"y": 0.2275156713,
				"z": -0.7155440775,
				"element": "C" 
			},
			{
				"x": 1.257591016,
				"y": 1.3282402559,
				"z": -0.999043395,
				"element": "C" 
			},
			{
				"x": 1.4176415941,
				"y": 2.5506181852,
				"z": -0.6088146808,
				"element": "N" 
			},
			{
				"x": 0.353364138,
				"y": 3.3489680529,
				"z": -1.0044463103,
				"element": "C" 
			},
			{
				"x": -0.6636738502,
				"y": 2.684434761,
				"z": -1.732658799,
				"element": "C" 
			},
			{
				"x": -0.2360186894,
				"y": 0.994116567,
				"z": -1.9087716765,
				"element": "S" 
			},
			{
				"x": -1.7923706371,
				"y": 3.3669370572,
				"z": -2.1936982761,
				"element": "C" 
			},
			{
				"x": -1.8930838953,
				"y": 4.7280374461,
				"z": -1.9169501228,
				"element": "C" 
			},
			{
				"x": -0.89009584,
				"y": 5.398536292,
				"z": -1.1948787081,
				"element": "C" 
			},
			{
				"x": 0.2325292532,
				"y": 4.7200847658,
				"z": -0.7363909611,
				"element": "C" 
			},
			{
				"x": 1.7244419057,
				"y": -0.8293418108,
				"z": 0.2230618573,
				"element": "C" 
			},
			{
				"x": 1.4897508804,
				"y": -2.049584776,
				"z": -0.1347443222,
				"element": "N" 
			},
			{
				"x": 1.0125967142,
				"y": -2.8032648028,
				"z": 0.9286800954,
				"element": "C" 
			},
			{
				"x": 0.8813650141,
				"y": -2.1054400233,
				"z": 2.154275608,
				"element": "C" 
			},
			{
				"x": 1.3839740026,
				"y": -0.4420221061,
				"z": 1.9272237668,
				"element": "S" 
			},
			{
				"x": 0.4135791517,
				"y": -2.7417167209,
				"z": 3.3069491602,
				"element": "C" 
			},
			{
				"x": 0.0768274363,
				"y": -4.0901756259,
				"z": 3.2197706036,
				"element": "C" 
			},
			{
				"x": 0.2026446695,
				"y": -4.7933884196,
				"z": 2.0087378949,
				"element": "C" 
			},
			{
				"x": 0.667954042,
				"y": -4.1609217365,
				"z": 0.8623275356,
				"element": "C" 
			},
			{
				"x": 2.5284823133,
				"y": -0.2860326491,
				"z": -1.6399327779,
				"element": "H" 
			},
			{
				"x": 3.1381846492,
				"y": 0.7070200767,
				"z": -0.2990193583,
				"element": "H" 
			},
			{
				"x": -2.569819846,
				"y": 2.8546401354,
				"z": -2.7512240145,
				"element": "H" 
			},
			{
				"x": -2.7617061553,
				"y": 5.2786442255,
				"z": -2.2656237439,
				"element": "H" 
			},
			{
				"x": -0.9961513364,
				"y": 6.4602426421,
				"z": -0.99381403,
				"element": "H" 
			},
			{
				"x": 1.0153094211,
				"y": 5.2222480926,
				"z": -0.1775918257,
				"element": "H" 
			},
			{
				"x": 0.3140937989,
				"y": -2.2040159088,
				"z": 4.2443340431,
				"element": "H" 
			},
			{
				"x": -0.288889336,
				"y": -4.6050388004,
				"z": 4.1031806175,
				"element": "H" 
			},
			{
				"x": -0.068013218,
				"y": -5.8442024452,
				"z": 1.970931334,
				"element": "H" 
			},
			{
				"x": 0.7706557762,
				"y": -4.6887384013,
				"z": -0.0800254368,
				"element": "H" 
			}
		],
		 "valence_orbital": [ 
			{
				"type": "occ",
				"energy": -0.27853,
				"method": "rhf"
			},
			{
				"type": "occ",
				"energy": -0.2451,
				"method": "rhf"
			},
			{
				"type": "occ",
				"energy": -0.23835,
				"method": "rhf"
			},
			{
				"type": "occ",
				"energy": -0.23629,
				"method": "rhf"
			},
			{
				"type": "occ",
				"energy": -0.23538,
				"method": "rhf"
			},
			{
				"type": "unocc",
				"energy": -0.04602,
				"method": "rhf"
			},
			{
				"type": "unocc",
				"energy": -0.03046,
				"method": "rhf"
			},
			{
				"type": "unocc",
				"energy": -0.0079,
				"method": "rhf"
			},
			{
				"type": "unocc",
				"energy": -0.00761,
				"method": "rhf"
			},
			{
				"type": "unocc",
				"energy": 0.01012,
				"method": "rhf"
			}
		],
		"cosmo_sigma_profile": { 
			"-0.025": 0.0,
			"-0.024": 0.0,
			"-0.023": 0.0,
			"-0.022": 0.0,
			"-0.021": 0.0,
			"-0.02": 0.0,
			"-0.019": 0.0,
			"-0.018": 0.0,
			"-0.017": 0.0,
			"-0.016": 0.0,
			"-0.015": 0.0,
			"-0.014": 0.0,
			"-0.013": 0.0,
			"-0.012": 0.0,
			"-0.011": 0.0,
			"-0.01": 0.0,
			"-0.009": 0.0,
			"-0.008": 1.85674324004,
			"-0.007": 11.4609569478,
			"-0.006": 21.3308912549,
			"-0.005": 21.0741575695,
			"-0.004": 22.3700976821,
			"-0.003": 16.8095563036,
			"-0.002": 15.8852635739,
			"-0.001": 18.5752595517,
			"0.0": 23.7555239423,
			"0.001": 31.2292278834,
			"0.002": 31.2025972341,
			"0.003": 32.9258855107,
			"0.004": 27.9812641169,
			"0.005": 12.2378126929,
			"0.006": 2.13417488334,
			"0.007": 1.99560944638,
			"0.008": 1.94524462111,
			"0.009": 1.92591108904,
			"0.01": 1.55036696918,
			"0.011": 1.48389672628,
			"0.012": 1.66710960681,
			"0.013": 1.54058870972,
			"0.014": 1.14986600409,
			"0.015": 0.0795139120519,
			"0.016": 0.0,
			"0.017": 0.0,
			"0.018": 0.0,
			"0.019": 0.0,
			"0.02": 0.0,
			"0.021": 0.0,
			"0.022": 0.0,
			"0.023": 0.0,
			"0.024": 0.0,
			"0.025": 0.0
		}
	}
}
