{
	 "smiles": "COC(=O)C(=O)CC(=O)C1=C(F)C=CC=C1F", 
	 "Tm": 362.15, 
	 "num_atms": 25, 
	 "gaussian": { 
		 "optdone": 1, 
		 "sigma_profile": "yes", 
		 "theory": "DFT", 
		 "functional": "B3LYP", 
		 "basiset": "6-31G**", 
		 "properties": { 
			 "R2extent": 4047.0981, 
			 "electric_dipole_moment_norm": 3.29245448564, 
			 "electric_quadrupole_moment_norm": 16.0073790259, 
			 "total_energy": -924.530343657, 
			 "HOMO_LUMO_gap": 0.17151, 
			 "cosmo_polarized_energy": -15.38, 
			 "cosmo_cavitation_energy": 31.38, 
			 "cosmo_dispersion_energy": -21.95, 
			 "cosmo_repulsion_energy": 1.69, 
			 "cosmo_total_nonelectrostatic_energy": 11.12, 
			 "SMD_solvation_energy": 8.8 
		},
		"coords": [
			{
				"x": -1.8653765262,
				"y": 3.192149064,
				"z": 2.6513355916,
				"element": "C" 
			},
			{
				"x": -1.0417479094,
				"y": 3.3609765916,
				"z": 1.4810208918,
				"element": "O" 
			},
			{
				"x": -0.7759750863,
				"y": 2.2436184209,
				"z": 0.8057578157,
				"element": "C" 
			},
			{
				"x": -1.1696602849,
				"y": 1.1340200064,
				"z": 1.0985836843,
				"element": "O" 
			},
			{
				"x": 0.136086273,
				"y": 2.5177382551,
				"z": -0.408455474,
				"element": "C" 
			},
			{
				"x": 0.7883392319,
				"y": 3.5326460113,
				"z": -0.4679258126,
				"element": "O" 
			},
			{
				"x": 0.1614589662,
				"y": 1.4777705642,
				"z": -1.5298704663,
				"element": "C" 
			},
			{
				"x": -0.4487081438,
				"y": 0.0911263705,
				"z": -1.3028821392,
				"element": "C" 
			},
			{
				"x": -1.5531145404,
				"y": -0.1522196815,
				"z": -1.7515355537,
				"element": "O" 
			},
			{
				"x": 0.3788116433,
				"y": -0.9772070374,
				"z": -0.6450763285,
				"element": "C" 
			},
			{
				"x": 0.1177022155,
				"y": -2.3429257813,
				"z": -0.8706819351,
				"element": "C" 
			},
			{
				"x": -0.8569865314,
				"y": -2.7035853545,
				"z": -1.7118585807,
				"element": "F" 
			},
			{
				"x": 0.8559281701,
				"y": -3.3615486498,
				"z": -0.2773242807,
				"element": "C" 
			},
			{
				"x": 1.8950259016,
				"y": -3.0319760062,
				"z": 0.5900897614,
				"element": "C" 
			},
			{
				"x": 2.1973313938,
				"y": -1.6962096572,
				"z": 0.8534504054,
				"element": "C" 
			},
			{
				"x": 1.4414837664,
				"y": -0.7138854336,
				"z": 0.2318424068,
				"element": "C" 
			},
			{
				"x": 1.7585828534,
				"y": 0.5736257387,
				"z": 0.5072142583,
				"element": "F" 
			},
			{
				"x": -2.823763254,
				"y": 2.7429800705,
				"z": 2.3804016728,
				"element": "H" 
			},
			{
				"x": -1.3628751845,
				"y": 2.5494544296,
				"z": 3.3781319002,
				"element": "H" 
			},
			{
				"x": -2.0064815586,
				"y": 4.1937796818,
				"z": 3.0546672229,
				"element": "H" 
			},
			{
				"x": 1.2024645469,
				"y": 1.411610887,
				"z": -1.8583556837,
				"element": "H" 
			},
			{
				"x": -0.4204968377,
				"y": 1.9157249675,
				"z": -2.3493355922,
				"element": "H" 
			},
			{
				"x": 0.6023861782,
				"y": -4.3901271491,
				"z": -0.5063648241,
				"element": "H" 
			},
			{
				"x": 2.4734089339,
				"y": -3.818957558,
				"z": 1.0632835626,
				"element": "H" 
			},
			{
				"x": 2.9954757831,
				"y": -1.4047787504,
				"z": 1.526087497,
				"element": "H" 
			}
		],
		 "valence_orbital": [ 
			{
				"type": "occ",
				"energy": -0.32053,
				"method": "rhf"
			},
			{
				"type": "occ",
				"energy": -0.274,
				"method": "rhf"
			},
			{
				"type": "occ",
				"energy": -0.26484,
				"method": "rhf"
			},
			{
				"type": "occ",
				"energy": -0.25908,
				"method": "rhf"
			},
			{
				"type": "occ",
				"energy": -0.24907,
				"method": "rhf"
			},
			{
				"type": "unocc",
				"energy": -0.07756,
				"method": "rhf"
			},
			{
				"type": "unocc",
				"energy": -0.06061,
				"method": "rhf"
			},
			{
				"type": "unocc",
				"energy": -0.01279,
				"method": "rhf"
			},
			{
				"type": "unocc",
				"energy": 0.01848,
				"method": "rhf"
			},
			{
				"type": "unocc",
				"energy": 0.04681,
				"method": "rhf"
			}
		],
		"cosmo_sigma_profile": { 
			"-0.025": 0.0,
			"-0.024": 0.0,
			"-0.023": 0.0,
			"-0.022": 0.0,
			"-0.021": 0.0,
			"-0.02": 0.0,
			"-0.019": 0.0,
			"-0.018": 0.0,
			"-0.017": 0.0,
			"-0.016": 0.0,
			"-0.015": 0.0,
			"-0.014": 0.0,
			"-0.013": 0.0,
			"-0.012": 0.0,
			"-0.011": 0.0,
			"-0.01": 0.341388620146,
			"-0.009": 2.29941184539,
			"-0.008": 10.0436383674,
			"-0.007": 15.7541026429,
			"-0.006": 18.113349956,
			"-0.005": 19.1384480828,
			"-0.004": 18.6548894269,
			"-0.003": 13.0030035319,
			"-0.002": 12.2011760661,
			"-0.001": 15.7296796329,
			"0.0": 17.0525465554,
			"0.001": 17.4424295831,
			"0.002": 17.422921039,
			"0.003": 12.7532784958,
			"0.004": 8.82996629015,
			"0.005": 4.40736817358,
			"0.006": 6.90171346507,
			"0.007": 5.92156141786,
			"0.008": 7.68032930443,
			"0.009": 9.21100477982,
			"0.01": 9.08343387952,
			"0.011": 6.55605257679,
			"0.012": 2.92489652808,
			"0.013": 0.0418625438117,
			"0.014": 0.0,
			"0.015": 0.0,
			"0.016": 0.0,
			"0.017": 0.0,
			"0.018": 0.0,
			"0.019": 0.0,
			"0.02": 0.0,
			"0.021": 0.0,
			"0.022": 0.0,
			"0.023": 0.0,
			"0.024": 0.0,
			"0.025": 0.0
		}
	}
}
