{
	 "smiles": "CS(=O)(=O)C1=CC(=CC=C1)C(=O)C1=C(F)C=C(F)C=C1", 
	 "Tm": 403.15, 
	 "num_atms": 30, 
	 "gaussian": { 
		 "optdone": 1, 
		 "sigma_profile": "yes", 
		 "theory": "DFT", 
		 "functional": "B3LYP", 
		 "basiset": "6-31G**", 
		 "properties": { 
			 "R2extent": 8363.2648, 
			 "electric_dipole_moment_norm": 5.96184013875, 
			 "electric_quadrupole_moment_norm": 23.7996289767, 
			 "total_energy": -1362.97661295, 
			 "HOMO_LUMO_gap": 0.17971, 
			 "cosmo_polarized_energy": -19.2, 
			 "cosmo_cavitation_energy": 37.59, 
			 "cosmo_dispersion_energy": -26.73, 
			 "cosmo_repulsion_energy": 1.95, 
			 "cosmo_total_nonelectrostatic_energy": 12.81, 
			 "SMD_solvation_energy": 7.46 
		},
		"coords": [
			{
				"x": -1.7652860772,
				"y": -3.8453173484,
				"z": -1.1016929932,
				"element": "C" 
			},
			{
				"x": -0.9393008808,
				"y": -2.9495495779,
				"z": -2.4388835859,
				"element": "S" 
			},
			{
				"x": 0.4544330438,
				"y": -3.4135366462,
				"z": -2.4871318933,
				"element": "O" 
			},
			{
				"x": -1.8102286913,
				"y": -3.0173649869,
				"z": -3.6228908138,
				"element": "O" 
			},
			{
				"x": -0.939990144,
				"y": -1.2397959763,
				"z": -1.8620151123,
				"element": "C" 
			},
			{
				"x": 0.08154004,
				"y": -0.7997612913,
				"z": -1.0265186746,
				"element": "C" 
			},
			{
				"x": 0.0659132798,
				"y": 0.5223594846,
				"z": -0.5592279713,
				"element": "C" 
			},
			{
				"x": -0.9552320472,
				"y": 1.387294168,
				"z": -0.9791142643,
				"element": "C" 
			},
			{
				"x": -1.9526873259,
				"y": 0.9414958836,
				"z": -1.8463091059,
				"element": "C" 
			},
			{
				"x": -1.9573420181,
				"y": -0.3814098511,
				"z": -2.2880352826,
				"element": "C" 
			},
			{
				"x": 1.2157324853,
				"y": 0.9675891384,
				"z": 0.2948187227,
				"element": "C" 
			},
			{
				"x": 2.2791221226,
				"y": 0.3632127294,
				"z": 0.2468053044,
				"element": "O" 
			},
			{
				"x": 1.1089157374,
				"y": 2.180701955,
				"z": 1.1739326164,
				"element": "C" 
			},
			{
				"x": -0.0197617108,
				"y": 2.5386377821,
				"z": 1.9214167149,
				"element": "C" 
			},
			{
				"x": -1.1356717283,
				"y": 1.7843555627,
				"z": 1.8582442859,
				"element": "F" 
			},
			{
				"x": -0.0414196044,
				"y": 3.63860433,
				"z": 2.770444139,
				"element": "C" 
			},
			{
				"x": 1.1166974199,
				"y": 4.4000314218,
				"z": 2.870202384,
				"element": "C" 
			},
			{
				"x": 1.1125614252,
				"y": 5.4712411118,
				"z": 3.6794314297,
				"element": "F" 
			},
			{
				"x": 2.2779825847,
				"y": 4.0831999677,
				"z": 2.1682650342,
				"element": "C" 
			},
			{
				"x": 2.2628376285,
				"y": 2.967521683,
				"z": 1.3408593597,
				"element": "C" 
			},
			{
				"x": -1.7900978728,
				"y": -4.8931120914,
				"z": -1.4082892068,
				"element": "H" 
			},
			{
				"x": -2.7788714875,
				"y": -3.4599993172,
				"z": -0.9826880077,
				"element": "H" 
			},
			{
				"x": -1.1882238978,
				"y": -3.7324912665,
				"z": -0.1829303086,
				"element": "H" 
			},
			{
				"x": 0.8994364921,
				"y": -1.4551061892,
				"z": -0.7468621617,
				"element": "H" 
			},
			{
				"x": -0.9574721394,
				"y": 2.4206305059,
				"z": -0.6500695993,
				"element": "H" 
			},
			{
				"x": -2.7241550787,
				"y": 1.6270608051,
				"z": -2.1826613793,
				"element": "H" 
			},
			{
				"x": -2.7170525533,
				"y": -0.7485053046,
				"z": -2.969982033,
				"element": "H" 
			},
			{
				"x": -0.9273921616,
				"y": 3.8809134037,
				"z": 3.3442947341,
				"element": "H" 
			},
			{
				"x": 3.1621375661,
				"y": 4.6992207618,
				"z": 2.2840272333,
				"element": "H" 
			},
			{
				"x": 3.1542755937,
				"y": 2.6738791523,
				"z": 0.7973604355,
				"element": "H" 
			}
		],
		 "valence_orbital": [ 
			{
				"type": "occ",
				"energy": -0.284,
				"method": "rhf"
			},
			{
				"type": "occ",
				"energy": -0.28225,
				"method": "rhf"
			},
			{
				"type": "occ",
				"energy": -0.28087,
				"method": "rhf"
			},
			{
				"type": "occ",
				"energy": -0.27234,
				"method": "rhf"
			},
			{
				"type": "occ",
				"energy": -0.2636,
				"method": "rhf"
			},
			{
				"type": "unocc",
				"energy": -0.08389,
				"method": "rhf"
			},
			{
				"type": "unocc",
				"energy": -0.04619,
				"method": "rhf"
			},
			{
				"type": "unocc",
				"energy": -0.03404,
				"method": "rhf"
			},
			{
				"type": "unocc",
				"energy": -0.0265,
				"method": "rhf"
			},
			{
				"type": "unocc",
				"energy": 0.02844,
				"method": "rhf"
			}
		],
		"cosmo_sigma_profile": { 
			"-0.025": 0.0,
			"-0.024": 0.0,
			"-0.023": 0.0,
			"-0.022": 0.0,
			"-0.021": 0.0,
			"-0.02": 0.0,
			"-0.019": 0.0,
			"-0.018": 0.0,
			"-0.017": 0.0,
			"-0.016": 0.0,
			"-0.015": 0.0,
			"-0.014": 0.0,
			"-0.013": 0.0,
			"-0.012": 0.0,
			"-0.011": 0.0,
			"-0.01": 0.121417869483,
			"-0.009": 4.14356247212,
			"-0.008": 13.3468281194,
			"-0.007": 17.5196350882,
			"-0.006": 18.3948038907,
			"-0.005": 18.3881359094,
			"-0.004": 18.3057867562,
			"-0.003": 17.1377720432,
			"-0.002": 16.4611765473,
			"-0.001": 25.1387542722,
			"0.0": 26.0704647755,
			"0.001": 24.3735093559,
			"0.002": 20.7330890367,
			"0.003": 20.46761217,
			"0.004": 11.0965098266,
			"0.005": 4.00089681779,
			"0.006": 3.34279631118,
			"0.007": 4.27264619991,
			"0.008": 5.08888587469,
			"0.009": 4.76309686606,
			"0.01": 7.43306209429,
			"0.011": 13.0439690638,
			"0.012": 8.61365024722,
			"0.013": 0.366560668144,
			"0.014": 0.0,
			"0.015": 0.0,
			"0.016": 0.0,
			"0.017": 0.0,
			"0.018": 0.0,
			"0.019": 0.0,
			"0.02": 0.0,
			"0.021": 0.0,
			"0.022": 0.0,
			"0.023": 0.0,
			"0.024": 0.0,
			"0.025": 0.0
		}
	}
}
