{
	 "smiles": "NC1=C(OC2=C1C=CC=C2)C(=O)C1=CC=CO1", 
	 "Tm": 454.15, 
	 "num_atms": 26, 
	 "gaussian": { 
		 "optdone": 1, 
		 "sigma_profile": "yes", 
		 "theory": "DFT", 
		 "functional": "B3LYP", 
		 "basiset": "6-31G**", 
		 "properties": { 
			 "R2extent": 4549.4276, 
			 "electric_dipole_moment_norm": 2.97000912288, 
			 "electric_quadrupole_moment_norm": 17.4409615125, 
			 "total_energy": -781.203063065, 
			 "HOMO_LUMO_gap": 0.13814, 
			 "cosmo_polarized_energy": -14.27, 
			 "cosmo_cavitation_energy": 31.12, 
			 "cosmo_dispersion_energy": -23.14, 
			 "cosmo_repulsion_energy": 1.75, 
			 "cosmo_total_nonelectrostatic_energy": 9.73, 
			 "SMD_solvation_energy": 6.73 
		},
		"coords": [
			{
				"x": 2.0888618402,
				"y": -0.2638894664,
				"z": -2.015643429,
				"element": "N" 
			},
			{
				"x": 1.4437376724,
				"y": -0.6473794994,
				"z": -0.8806584542,
				"element": "C" 
			},
			{
				"x": 0.3463165979,
				"y": -0.0145772656,
				"z": -0.3140308396,
				"element": "C" 
			},
			{
				"x": -0.0966742316,
				"y": -0.7097174645,
				"z": 0.8163564328,
				"element": "O" 
			},
			{
				"x": 0.7363308033,
				"y": -1.7737014455,
				"z": 0.9591839591,
				"element": "C" 
			},
			{
				"x": 1.7122491223,
				"y": -1.8021869085,
				"z": -0.0554461197,
				"element": "C" 
			},
			{
				"x": 2.6585315184,
				"y": -2.8383217099,
				"z": -0.0761633097,
				"element": "C" 
			},
			{
				"x": 2.6004627068,
				"y": -3.8054510258,
				"z": 0.9208176174,
				"element": "C" 
			},
			{
				"x": 1.6150432646,
				"y": -3.7520903601,
				"z": 1.9269793837,
				"element": "C" 
			},
			{
				"x": 0.663370579,
				"y": -2.7353082933,
				"z": 1.9629607187,
				"element": "C" 
			},
			{
				"x": -0.2537761112,
				"y": 1.2192942993,
				"z": -0.7649433578,
				"element": "C" 
			},
			{
				"x": 0.2117756826,
				"y": 1.7870639883,
				"z": -1.7711591636,
				"element": "O" 
			},
			{
				"x": -1.3914961656,
				"y": 1.7954867621,
				"z": -0.0347116566,
				"element": "C" 
			},
			{
				"x": -2.1216355961,
				"y": 1.4323842756,
				"z": 1.0731887974,
				"element": "C" 
			},
			{
				"x": -3.1103156231,
				"y": 2.4409162608,
				"z": 1.2583369704,
				"element": "C" 
			},
			{
				"x": -2.9132796908,
				"y": 3.3453310536,
				"z": 0.252952637,
				"element": "C" 
			},
			{
				"x": -1.8820096497,
				"y": 2.9733735403,
				"z": -0.5364889359,
				"element": "O" 
			},
			{
				"x": 1.8141580279,
				"y": 0.6515669526,
				"z": -2.358646216,
				"element": "H" 
			},
			{
				"x": 3.0403421907,
				"y": -0.5651012959,
				"z": -2.1552250526,
				"element": "H" 
			},
			{
				"x": 3.4147427981,
				"y": -2.8915006728,
				"z": -0.8542274692,
				"element": "H" 
			},
			{
				"x": 3.3209885362,
				"y": -4.6173544418,
				"z": 0.9255062402,
				"element": "H" 
			},
			{
				"x": 1.5954511774,
				"y": -4.5227546876,
				"z": 2.6916936559,
				"element": "H" 
			},
			{
				"x": -0.100557864,
				"y": -2.6873595002,
				"z": 2.7311947122,
				"element": "H" 
			},
			{
				"x": -1.9603627533,
				"y": 0.5498399685,
				"z": 1.6711076797,
				"element": "H" 
			},
			{
				"x": -3.8640142977,
				"y": 2.4887474667,
				"z": 2.0309540137,
				"element": "H" 
			},
			{
				"x": -3.4068405346,
				"y": 4.2657894695,
				"z": -0.0201888143,
				"element": "H" 
			}
		],
		 "valence_orbital": [ 
			{
				"type": "occ",
				"energy": -0.26673,
				"method": "rhf"
			},
			{
				"type": "occ",
				"energy": -0.24838,
				"method": "rhf"
			},
			{
				"type": "occ",
				"energy": -0.24422,
				"method": "rhf"
			},
			{
				"type": "occ",
				"energy": -0.23246,
				"method": "rhf"
			},
			{
				"type": "occ",
				"energy": -0.20123,
				"method": "rhf"
			},
			{
				"type": "unocc",
				"energy": -0.06309,
				"method": "rhf"
			},
			{
				"type": "unocc",
				"energy": -0.01183,
				"method": "rhf"
			},
			{
				"type": "unocc",
				"energy": 0.00479,
				"method": "rhf"
			},
			{
				"type": "unocc",
				"energy": 0.0416,
				"method": "rhf"
			},
			{
				"type": "unocc",
				"energy": 0.06858,
				"method": "rhf"
			}
		],
		"cosmo_sigma_profile": { 
			"-0.025": 0.0,
			"-0.024": 0.0,
			"-0.023": 0.0,
			"-0.022": 0.0,
			"-0.021": 0.0,
			"-0.02": 0.0,
			"-0.019": 0.0,
			"-0.018": 0.0,
			"-0.017": 0.0,
			"-0.016": 0.0,
			"-0.015": 0.029476438372,
			"-0.014": 0.756499747462,
			"-0.013": 1.28474577629,
			"-0.012": 1.58083600158,
			"-0.011": 1.68565944193,
			"-0.01": 2.34296405049,
			"-0.009": 5.02914191878,
			"-0.008": 5.27894877542,
			"-0.007": 8.75075370097,
			"-0.006": 13.1114205095,
			"-0.005": 14.2483072252,
			"-0.004": 14.8356789315,
			"-0.003": 12.0674713963,
			"-0.002": 9.07023338587,
			"-0.001": 11.6600608392,
			"0.0": 18.7005312558,
			"0.001": 28.136283607,
			"0.002": 28.2218090346,
			"0.003": 23.7414107812,
			"0.004": 18.7346016228,
			"0.005": 8.09442406201,
			"0.006": 2.50633516536,
			"0.007": 2.40144237502,
			"0.008": 3.35473944793,
			"0.009": 2.73561318581,
			"0.01": 2.56744599212,
			"0.011": 2.30422320047,
			"0.012": 2.5218057681,
			"0.013": 2.25965414838,
			"0.014": 2.24938020006,
			"0.015": 1.00933020643,
			"0.016": 0.0185771960128,
			"0.017": 0.0,
			"0.018": 0.0,
			"0.019": 0.0,
			"0.02": 0.0,
			"0.021": 0.0,
			"0.022": 0.0,
			"0.023": 0.0,
			"0.024": 0.0,
			"0.025": 0.0
		}
	}
}
