{
	 "smiles": "CCC(O)C1=CC=C(O)C=C1", 
	 "Tm": 355.15, 
	 "num_atms": 23, 
	 "gaussian": { 
		 "optdone": 1, 
		 "sigma_profile": "yes", 
		 "theory": "DFT", 
		 "functional": "B3LYP", 
		 "basiset": "6-31G**", 
		 "properties": { 
			 "R2extent": 2124.4792, 
			 "electric_dipole_moment_norm": 2.50662886363, 
			 "electric_quadrupole_moment_norm": 11.8241489326, 
			 "total_energy": -500.632804228, 
			 "HOMO_LUMO_gap": 0.21338, 
			 "cosmo_polarized_energy": -12.37, 
			 "cosmo_cavitation_energy": 25.76, 
			 "cosmo_dispersion_energy": -18.66, 
			 "cosmo_repulsion_energy": 1.51, 
			 "cosmo_total_nonelectrostatic_energy": 8.61, 
			 "SMD_solvation_energy": 4.71 
		},
		"coords": [
			{
				"x": 1.9915891253,
				"y": 0.7677674852,
				"z": 2.1806338985,
				"element": "C" 
			},
			{
				"x": 2.3557772051,
				"y": -0.1744358114,
				"z": 1.0307175638,
				"element": "C" 
			},
			{
				"x": 1.8243820464,
				"y": 0.2717382165,
				"z": -0.3504501369,
				"element": "C" 
			},
			{
				"x": 2.3121959924,
				"y": 1.5682338842,
				"z": -0.6936073122,
				"element": "O" 
			},
			{
				"x": 0.3078394186,
				"y": 0.3035886297,
				"z": -0.4192963088,
				"element": "C" 
			},
			{
				"x": -0.408901951,
				"y": 1.5065895229,
				"z": -0.3847906788,
				"element": "C" 
			},
			{
				"x": -1.8012380766,
				"y": 1.5166472515,
				"z": -0.4251813188,
				"element": "C" 
			},
			{
				"x": -2.5066040519,
				"y": 0.3119319028,
				"z": -0.5007703712,
				"element": "C" 
			},
			{
				"x": -3.8728375513,
				"y": 0.3771733304,
				"z": -0.5381493524,
				"element": "O" 
			},
			{
				"x": -1.8058713752,
				"y": -0.8981215417,
				"z": -0.5415746702,
				"element": "C" 
			},
			{
				"x": -0.4120789189,
				"y": -0.8930285228,
				"z": -0.5042903897,
				"element": "C" 
			},
			{
				"x": 0.9082001889,
				"y": 0.81570121,
				"z": 2.3240011839,
				"element": "H" 
			},
			{
				"x": 2.344187602,
				"y": 1.7830871213,
				"z": 1.9772151659,
				"element": "H" 
			},
			{
				"x": 2.4434608864,
				"y": 0.4308587451,
				"z": 3.1187869158,
				"element": "H" 
			},
			{
				"x": 3.4502140624,
				"y": -0.2664660221,
				"z": 0.9576095367,
				"element": "H" 
			},
			{
				"x": 1.9828421232,
				"y": -1.1856879239,
				"z": 1.2349144083,
				"element": "H" 
			},
			{
				"x": 2.1793389812,
				"y": -0.4650216165,
				"z": -1.0913667576,
				"element": "H" 
			},
			{
				"x": 3.2719091276,
				"y": 1.5556608226,
				"z": -0.58873346,
				"element": "H" 
			},
			{
				"x": 0.1376824534,
				"y": 2.4413592739,
				"z": -0.3378576508,
				"element": "H" 
			},
			{
				"x": -2.3572914162,
				"y": 2.4483380357,
				"z": -0.4026257143,
				"element": "H" 
			},
			{
				"x": -4.2288614647,
				"y": -0.5187910429,
				"z": -0.595241578,
				"element": "H" 
			},
			{
				"x": -2.3468675579,
				"y": -1.839982295,
				"z": -0.6109888778,
				"element": "H" 
			},
			{
				"x": 0.1188331511,
				"y": -1.8415406558,
				"z": -0.5489540954,
				"element": "H" 
			}
		],
		 "valence_orbital": [ 
			{
				"type": "occ",
				"energy": -0.32229,
				"method": "rhf"
			},
			{
				"type": "occ",
				"energy": -0.31367,
				"method": "rhf"
			},
			{
				"type": "occ",
				"energy": -0.26835,
				"method": "rhf"
			},
			{
				"type": "occ",
				"energy": -0.24505,
				"method": "rhf"
			},
			{
				"type": "occ",
				"energy": -0.21073,
				"method": "rhf"
			},
			{
				"type": "unocc",
				"energy": 0.00265,
				"method": "rhf"
			},
			{
				"type": "unocc",
				"energy": 0.01819,
				"method": "rhf"
			},
			{
				"type": "unocc",
				"energy": 0.07011,
				"method": "rhf"
			},
			{
				"type": "unocc",
				"energy": 0.07468,
				"method": "rhf"
			},
			{
				"type": "unocc",
				"energy": 0.10523,
				"method": "rhf"
			}
		],
		"cosmo_sigma_profile": { 
			"-0.025": 0.0,
			"-0.024": 0.0,
			"-0.023": 0.0,
			"-0.022": 0.0,
			"-0.021": 0.0,
			"-0.02": 0.0,
			"-0.019": 0.0,
			"-0.018": 0.175729765798,
			"-0.017": 0.844606136078,
			"-0.016": 1.36570537853,
			"-0.015": 2.16012729738,
			"-0.014": 1.62656686751,
			"-0.013": 1.3617106803,
			"-0.012": 1.60852633584,
			"-0.011": 3.05498565259,
			"-0.01": 1.91907275662,
			"-0.009": 1.10430375799,
			"-0.008": 2.16740573935,
			"-0.007": 2.74104361493,
			"-0.006": 3.9069438626,
			"-0.005": 8.6321553799,
			"-0.004": 12.1698994223,
			"-0.003": 14.8716730001,
			"-0.002": 15.005189874,
			"-0.001": 16.3550993308,
			"0.0": 17.4585889085,
			"0.001": 16.511447346,
			"0.002": 12.4783348161,
			"0.003": 9.51633689349,
			"0.004": 11.5995432491,
			"0.005": 11.7239069219,
			"0.006": 10.8203463254,
			"0.007": 4.26301326822,
			"0.008": 3.98654075052,
			"0.009": 1.87172144941,
			"0.01": 3.33053285192,
			"0.011": 3.6021926074,
			"0.012": 1.94935431242,
			"0.013": 0.914925389043,
			"0.014": 0.63441980695,
			"0.015": 0.0262584921829,
			"0.016": 0.0,
			"0.017": 0.0,
			"0.018": 0.0,
			"0.019": 0.0,
			"0.02": 0.0,
			"0.021": 0.0,
			"0.022": 0.0,
			"0.023": 0.0,
			"0.024": 0.0,
			"0.025": 0.0
		}
	}
}
