{
	 "smiles": "CC1(C)OC(=O)C1(C)C", 
	 "Tm": 405.15, 
	 "num_atms": 21, 
	 "gaussian": { 
		 "optdone": 1, 
		 "sigma_profile": "yes", 
		 "theory": "DFT", 
		 "functional": "B3LYP", 
		 "basiset": "6-31G**", 
		 "properties": { 
			 "R2extent": 1536.4657, 
			 "electric_dipole_moment_norm": 4.40659356987, 
			 "electric_quadrupole_moment_norm": 4.20332485778, 
			 "total_energy": -424.431751892, 
			 "HOMO_LUMO_gap": 0.2775, 
			 "cosmo_polarized_energy": -9.6, 
			 "cosmo_cavitation_energy": 22.8, 
			 "cosmo_dispersion_energy": -16.2, 
			 "cosmo_repulsion_energy": 1.32, 
			 "cosmo_total_nonelectrostatic_energy": 7.92, 
			 "SMD_solvation_energy": 5.27 
		},
		"coords": [
			{
				"x": -2.3972157088,
				"y": 1.2411555478,
				"z": 0.4450015178,
				"element": "C" 
			},
			{
				"x": -1.5135207548,
				"y": 0.0738149997,
				"z": 0.0263349603,
				"element": "C" 
			},
			{
				"x": -1.8926009512,
				"y": -0.4415095177,
				"z": -1.3555448666,
				"element": "C" 
			},
			{
				"x": -0.0898381021,
				"y": 0.5139498463,
				"z": 0.0143133613,
				"element": "O" 
			},
			{
				"x": 0.2612333813,
				"y": -0.4013613853,
				"z": 0.9693402037,
				"element": "C" 
			},
			{
				"x": 1.3459090129,
				"y": -0.5846867792,
				"z": 1.4461588752,
				"element": "O" 
			},
			{
				"x": -1.1424957865,
				"y": -0.9942048536,
				"z": 1.1286145645,
				"element": "C" 
			},
			{
				"x": -1.224462135,
				"y": -2.4747771997,
				"z": 0.7353978515,
				"element": "C" 
			},
			{
				"x": -1.7300070768,
				"y": -0.7966024539,
				"z": 2.5318942441,
				"element": "C" 
			},
			{
				"x": -3.4305160338,
				"y": 0.9098700826,
				"z": 0.5928121615,
				"element": "H" 
			},
			{
				"x": -2.0462083336,
				"y": 1.7063682667,
				"z": 1.3677156412,
				"element": "H" 
			},
			{
				"x": -2.3953995886,
				"y": 2.00616934,
				"z": -0.3372745806,
				"element": "H" 
			},
			{
				"x": -1.1803969473,
				"y": -1.1823333249,
				"z": -1.7229255096,
				"element": "H" 
			},
			{
				"x": -2.8893858978,
				"y": -0.8947486851,
				"z": -1.3385341836,
				"element": "H" 
			},
			{
				"x": -1.9099961987,
				"y": 0.388389204,
				"z": -2.0684088482,
				"element": "H" 
			},
			{
				"x": -2.2677499038,
				"y": -2.8049067942,
				"z": 0.6831459336,
				"element": "H" 
			},
			{
				"x": -0.7169844466,
				"y": -3.078921754,
				"z": 1.4931352567,
				"element": "H" 
			},
			{
				"x": -0.7487555302,
				"y": -2.6876190181,
				"z": -0.2242086507,
				"element": "H" 
			},
			{
				"x": -2.792500737,
				"y": -1.0630664629,
				"z": 2.5484065177,
				"element": "H" 
			},
			{
				"x": -1.2076077754,
				"y": -1.4487536681,
				"z": 3.237923092,
				"element": "H" 
			},
			{
				"x": -1.6275004861,
				"y": 0.2276746094,
				"z": 2.896302458,
				"element": "H" 
			}
		],
		 "valence_orbital": [ 
			{
				"type": "occ",
				"energy": -0.34904,
				"method": "rhf"
			},
			{
				"type": "occ",
				"energy": -0.34725,
				"method": "rhf"
			},
			{
				"type": "occ",
				"energy": -0.31802,
				"method": "rhf"
			},
			{
				"type": "occ",
				"energy": -0.2916,
				"method": "rhf"
			},
			{
				"type": "occ",
				"energy": -0.26079,
				"method": "rhf"
			},
			{
				"type": "unocc",
				"energy": 0.01671,
				"method": "rhf"
			},
			{
				"type": "unocc",
				"energy": 0.06423,
				"method": "rhf"
			},
			{
				"type": "unocc",
				"energy": 0.09271,
				"method": "rhf"
			},
			{
				"type": "unocc",
				"energy": 0.10776,
				"method": "rhf"
			},
			{
				"type": "unocc",
				"energy": 0.12153,
				"method": "rhf"
			}
		],
		"cosmo_sigma_profile": { 
			"-0.025": 0.0,
			"-0.024": 0.0,
			"-0.023": 0.0,
			"-0.022": 0.0,
			"-0.021": 0.0,
			"-0.02": 0.0,
			"-0.019": 0.0,
			"-0.018": 0.0,
			"-0.017": 0.0,
			"-0.016": 0.0,
			"-0.015": 0.0,
			"-0.014": 0.0,
			"-0.013": 0.0,
			"-0.012": 0.0,
			"-0.011": 0.0,
			"-0.01": 0.0,
			"-0.009": 0.0,
			"-0.008": 0.0134908283616,
			"-0.007": 1.30919073055,
			"-0.006": 3.65869964004,
			"-0.005": 11.1912417923,
			"-0.004": 28.170127205,
			"-0.003": 20.7018854995,
			"-0.002": 19.9490494948,
			"-0.001": 24.2384573133,
			"0.0": 22.7036424051,
			"0.001": 5.2564394437,
			"0.002": 3.1190236314,
			"0.003": 2.41940455013,
			"0.004": 2.22784560599,
			"0.005": 2.58458122649,
			"0.006": 3.41491030744,
			"0.007": 2.10225235848,
			"0.008": 3.93191398681,
			"0.009": 3.72891330084,
			"0.01": 4.6154891837,
			"0.011": 6.29084891277,
			"0.012": 4.84829141702,
			"0.013": 0.787785179191,
			"0.014": 0.0,
			"0.015": 0.0,
			"0.016": 0.0,
			"0.017": 0.0,
			"0.018": 0.0,
			"0.019": 0.0,
			"0.02": 0.0,
			"0.021": 0.0,
			"0.022": 0.0,
			"0.023": 0.0,
			"0.024": 0.0,
			"0.025": 0.0
		}
	}
}
