{
	 "smiles": "CNC1=CC(CO)=CC(Cl)=C1", 
	 "Tm": 323.15, 
	 "num_atms": 21, 
	 "gaussian": { 
		 "optdone": 1, 
		 "sigma_profile": "yes", 
		 "theory": "DFT", 
		 "functional": "B3LYP", 
		 "basiset": "6-31G**", 
		 "properties": { 
			 "R2extent": 3010.3336, 
			 "electric_dipole_moment_norm": 4.50282907293, 
			 "electric_quadrupole_moment_norm": 13.101462026, 
			 "total_energy": -901.033946965, 
			 "HOMO_LUMO_gap": 0.1965, 
			 "cosmo_polarized_energy": -12.41, 
			 "cosmo_cavitation_energy": 26.2, 
			 "cosmo_dispersion_energy": -19.57, 
			 "cosmo_repulsion_energy": 1.6, 
			 "cosmo_total_nonelectrostatic_energy": 8.23, 
			 "SMD_solvation_energy": 3.57 
		},
		"coords": [
			{
				"x": -1.1834207088,
				"y": 1.2868422323,
				"z": 3.0767460424,
				"element": "C" 
			},
			{
				"x": -1.793826621,
				"y": 1.1524077567,
				"z": 1.7691895715,
				"element": "N" 
			},
			{
				"x": -1.38883762,
				"y": 0.1806138054,
				"z": 0.8641025243,
				"element": "C" 
			},
			{
				"x": -0.1812100272,
				"y": -0.522430419,
				"z": 1.0104746339,
				"element": "C" 
			},
			{
				"x": 0.2176444875,
				"y": -1.4661715586,
				"z": 0.0577765357,
				"element": "C" 
			},
			{
				"x": 1.5041991793,
				"y": -2.2332258969,
				"z": 0.2801419635,
				"element": "C" 
			},
			{
				"x": 1.9249045575,
				"y": -2.8363559663,
				"z": -0.932963372,
				"element": "O" 
			},
			{
				"x": -0.5768334188,
				"y": -1.7300065644,
				"z": -1.0583479384,
				"element": "C" 
			},
			{
				"x": -1.7732416648,
				"y": -1.0246439997,
				"z": -1.1917582407,
				"element": "C" 
			},
			{
				"x": -2.7958133922,
				"y": -1.3391471792,
				"z": -2.5943454889,
				"element": "Cl" 
			},
			{
				"x": -2.1940326916,
				"y": -0.0849682176,
				"z": -0.2632889751,
				"element": "C" 
			},
			{
				"x": -1.7188959894,
				"y": 2.0570182687,
				"z": 3.6362708109,
				"element": "H" 
			},
			{
				"x": -1.1983567246,
				"y": 0.3555758037,
				"z": 3.6650936547,
				"element": "H" 
			},
			{
				"x": -0.1408187054,
				"y": 1.6123689872,
				"z": 2.9867958992,
				"element": "H" 
			},
			{
				"x": -2.7775353709,
				"y": 1.3738000399,
				"z": 1.7312829055,
				"element": "H" 
			},
			{
				"x": 0.4569157989,
				"y": -0.3312892542,
				"z": 1.8672057522,
				"element": "H" 
			},
			{
				"x": 1.3320695123,
				"y": -2.9951218623,
				"z": 1.0594554407,
				"element": "H" 
			},
			{
				"x": 2.2702782944,
				"y": -1.5448863484,
				"z": 0.6730778548,
				"element": "H" 
			},
			{
				"x": 2.6478456797,
				"y": -3.4416779404,
				"z": -0.7309678325,
				"element": "H" 
			},
			{
				"x": -0.2632981087,
				"y": -2.4551969755,
				"z": -1.7967128671,
				"element": "H" 
			},
			{
				"x": -3.1276364662,
				"y": 0.4487952885,
				"z": -0.4091288746,
				"element": "H" 
			}
		],
		 "valence_orbital": [ 
			{
				"type": "occ",
				"energy": -0.29867,
				"method": "rhf"
			},
			{
				"type": "occ",
				"energy": -0.28959,
				"method": "rhf"
			},
			{
				"type": "occ",
				"energy": -0.27053,
				"method": "rhf"
			},
			{
				"type": "occ",
				"energy": -0.232,
				"method": "rhf"
			},
			{
				"type": "occ",
				"energy": -0.19873,
				"method": "rhf"
			},
			{
				"type": "unocc",
				"energy": -0.00223,
				"method": "rhf"
			},
			{
				"type": "unocc",
				"energy": 0.01673,
				"method": "rhf"
			},
			{
				"type": "unocc",
				"energy": 0.04291,
				"method": "rhf"
			},
			{
				"type": "unocc",
				"energy": 0.07356,
				"method": "rhf"
			},
			{
				"type": "unocc",
				"energy": 0.08133,
				"method": "rhf"
			}
		],
		"cosmo_sigma_profile": { 
			"-0.025": 0.0,
			"-0.024": 0.0,
			"-0.023": 0.0,
			"-0.022": 0.0,
			"-0.021": 0.0,
			"-0.02": 0.0,
			"-0.019": 0.0,
			"-0.018": 0.0,
			"-0.017": 0.00592539355537,
			"-0.016": 0.750340961548,
			"-0.015": 1.35453693364,
			"-0.014": 0.728308499735,
			"-0.013": 1.62414871654,
			"-0.012": 2.56232583905,
			"-0.011": 2.6688901926,
			"-0.01": 2.12403840527,
			"-0.009": 2.24436891137,
			"-0.008": 2.58061379927,
			"-0.007": 3.45275898758,
			"-0.006": 4.93830790214,
			"-0.005": 11.9656142943,
			"-0.004": 16.6744211803,
			"-0.003": 15.6963284819,
			"-0.002": 14.858835214,
			"-0.001": 15.8034855513,
			"0.0": 8.52609848908,
			"0.001": 9.26770726344,
			"0.002": 10.5231393585,
			"0.003": 15.7902019618,
			"0.004": 16.6084767806,
			"0.005": 25.4121481306,
			"0.006": 9.46172359526,
			"0.007": 2.63857494481,
			"0.008": 2.00679937742,
			"0.009": 2.73982231155,
			"0.01": 1.86864876314,
			"0.011": 1.72888198102,
			"0.012": 1.07193500964,
			"0.013": 0.695455260145,
			"0.014": 0.606486306037,
			"0.015": 0.0119483826725,
			"0.016": 0.0,
			"0.017": 0.0,
			"0.018": 0.0,
			"0.019": 0.0,
			"0.02": 0.0,
			"0.021": 0.0,
			"0.022": 0.0,
			"0.023": 0.0,
			"0.024": 0.0,
			"0.025": 0.0
		}
	}
}
