{
	 "smiles": "CCNC1=NC(NC(C)C(C)C)=NC(SC)=N1", 
	 "Tm": 338.15, 
	 "num_atms": 38, 
	 "gaussian": { 
		 "optdone": 1, 
		 "sigma_profile": "yes", 
		 "theory": "DFT", 
		 "functional": "B3LYP", 
		 "basiset": "6-31G**", 
		 "properties": { 
			 "R2extent": 6399.1986, 
			 "electric_dipole_moment_norm": 2.97147843842, 
			 "electric_quadrupole_moment_norm": 14.8315444253, 
			 "total_energy": -1103.83857645, 
			 "HOMO_LUMO_gap": 0.21712, 
			 "cosmo_polarized_energy": -12.18, 
			 "cosmo_cavitation_energy": 41.98, 
			 "cosmo_dispersion_energy": -28.48, 
			 "cosmo_repulsion_energy": 2.25, 
			 "cosmo_total_nonelectrostatic_energy": 15.75, 
			 "SMD_solvation_energy": 3.75 
		},
		"coords": [
			{
				"x": 2.3603656893,
				"y": 3.2998921042,
				"z": -0.4403976048,
				"element": "C" 
			},
			{
				"x": 1.0840431843,
				"y": 3.7723138656,
				"z": 0.2645500075,
				"element": "C" 
			},
			{
				"x": -0.1388744749,
				"y": 3.3856151945,
				"z": -0.4218812391,
				"element": "N" 
			},
			{
				"x": -0.76007684,
				"y": 2.1889678161,
				"z": -0.2765380046,
				"element": "C" 
			},
			{
				"x": -0.2929787537,
				"y": 1.3316178269,
				"z": 0.6432702023,
				"element": "N" 
			},
			{
				"x": -0.9902833797,
				"y": 0.183258634,
				"z": 0.7328467674,
				"element": "C" 
			},
			{
				"x": -0.5448483223,
				"y": -0.708173985,
				"z": 1.6539699586,
				"element": "N" 
			},
			{
				"x": -1.1734177227,
				"y": -1.9790774056,
				"z": 2.0070161643,
				"element": "C" 
			},
			{
				"x": -1.6420200251,
				"y": -1.9480107404,
				"z": 3.4695623339,
				"element": "C" 
			},
			{
				"x": -0.2570005944,
				"y": -3.1903743614,
				"z": 1.6812742164,
				"element": "C" 
			},
			{
				"x": -0.0148866691,
				"y": -3.3107848622,
				"z": 0.1702888021,
				"element": "C" 
			},
			{
				"x": 1.0765089458,
				"y": -3.1709235371,
				"z": 2.4452112046,
				"element": "C" 
			},
			{
				"x": -2.0690724203,
				"y": -0.142914308,
				"z": -0.0131336922,
				"element": "N" 
			},
			{
				"x": -2.4161525037,
				"y": 0.8013531479,
				"z": -0.8903700246,
				"element": "C" 
			},
			{
				"x": -3.8137600298,
				"y": 0.5233514054,
				"z": -1.9495120812,
				"element": "S" 
			},
			{
				"x": -4.3559922315,
				"y": -1.1369545792,
				"z": -1.4245345846,
				"element": "C" 
			},
			{
				"x": -1.8254782304,
				"y": 1.9775508876,
				"z": -1.085115274,
				"element": "N" 
			},
			{
				"x": 2.4250952978,
				"y": 3.7028879388,
				"z": -1.4565979907,
				"element": "H" 
			},
			{
				"x": 3.2472649518,
				"y": 3.6282750299,
				"z": 0.1125545103,
				"element": "H" 
			},
			{
				"x": 2.3771713898,
				"y": 2.2082565381,
				"z": -0.5011544859,
				"element": "H" 
			},
			{
				"x": 1.0399477694,
				"y": 3.3564304505,
				"z": 1.2737207006,
				"element": "H" 
			},
			{
				"x": 1.0802300883,
				"y": 4.86402753,
				"z": 0.3560593474,
				"element": "H" 
			},
			{
				"x": -0.4885529042,
				"y": 3.9483208508,
				"z": -1.1833087243,
				"element": "H" 
			},
			{
				"x": 0.2321695937,
				"y": -0.3738908411,
				"z": 2.2062111053,
				"element": "H" 
			},
			{
				"x": -2.0535090159,
				"y": -2.051315527,
				"z": 1.3639124914,
				"element": "H" 
			},
			{
				"x": -2.1093227023,
				"y": -2.8985566187,
				"z": 3.7474931638,
				"element": "H" 
			},
			{
				"x": -0.811036318,
				"y": -1.7703757555,
				"z": 4.1610340543,
				"element": "H" 
			},
			{
				"x": -2.3746438123,
				"y": -1.1493115189,
				"z": 3.6166612364,
				"element": "H" 
			},
			{
				"x": -0.8162323002,
				"y": -4.0795622206,
				"z": 2.0067428073,
				"element": "H" 
			},
			{
				"x": -0.957784026,
				"y": -3.3727516701,
				"z": -0.3827196669,
				"element": "H" 
			},
			{
				"x": 0.5340028223,
				"y": -2.4419251476,
				"z": -0.2077398448,
				"element": "H" 
			},
			{
				"x": 0.573056268,
				"y": -4.205425577,
				"z": -0.0608063094,
				"element": "H" 
			},
			{
				"x": 1.6612123424,
				"y": -4.0676725832,
				"z": 2.2159841031,
				"element": "H" 
			},
			{
				"x": 1.6869450705,
				"y": -2.3073981994,
				"z": 2.1550855101,
				"element": "H" 
			},
			{
				"x": 0.9368226894,
				"y": -3.1407028348,
				"z": 3.530453145,
				"element": "H" 
			},
			{
				"x": -5.2242861091,
				"y": -1.3747813367,
				"z": -2.0433897948,
				"element": "H" 
			},
			{
				"x": -3.5692125846,
				"y": -1.8732068626,
				"z": -1.591247125,
				"element": "H" 
			},
			{
				"x": -4.6397141326,
				"y": -1.1380287485,
				"z": -0.3717553853,
				"element": "H" 
			}
		],
		 "valence_orbital": [ 
			{
				"type": "occ",
				"energy": -0.25423,
				"method": "rhf"
			},
			{
				"type": "occ",
				"energy": -0.25103,
				"method": "rhf"
			},
			{
				"type": "occ",
				"energy": -0.23338,
				"method": "rhf"
			},
			{
				"type": "occ",
				"energy": -0.22785,
				"method": "rhf"
			},
			{
				"type": "occ",
				"energy": -0.22023,
				"method": "rhf"
			},
			{
				"type": "unocc",
				"energy": -0.00311,
				"method": "rhf"
			},
			{
				"type": "unocc",
				"energy": 0.01526,
				"method": "rhf"
			},
			{
				"type": "unocc",
				"energy": 0.04791,
				"method": "rhf"
			},
			{
				"type": "unocc",
				"energy": 0.07675,
				"method": "rhf"
			},
			{
				"type": "unocc",
				"energy": 0.08909,
				"method": "rhf"
			}
		],
		"cosmo_sigma_profile": { 
			"-0.025": 0.0,
			"-0.024": 0.0,
			"-0.023": 0.0,
			"-0.022": 0.0,
			"-0.021": 0.0,
			"-0.02": 0.0,
			"-0.019": 0.0,
			"-0.018": 0.0,
			"-0.017": 0.0,
			"-0.016": 0.0,
			"-0.015": 0.0,
			"-0.014": 0.233395465018,
			"-0.013": 1.16096303313,
			"-0.012": 1.20067628719,
			"-0.011": 1.76929840938,
			"-0.01": 1.79799606565,
			"-0.009": 2.0296956355,
			"-0.008": 2.43171670476,
			"-0.007": 3.28880795709,
			"-0.006": 5.2180652652,
			"-0.005": 9.4318184767,
			"-0.004": 13.8993581196,
			"-0.003": 32.1476861752,
			"-0.002": 41.6195175949,
			"-0.001": 41.0948559761,
			"0.0": 39.3372157482,
			"0.001": 40.0249377397,
			"0.002": 23.3859589658,
			"0.003": 10.9884811383,
			"0.004": 13.7716109113,
			"0.005": 13.3623865211,
			"0.006": 8.53084778564,
			"0.007": 8.27618451896,
			"0.008": 5.98248947864,
			"0.009": 2.77672974318,
			"0.01": 2.72450263908,
			"0.011": 0.901960062754,
			"0.012": 1.30020807935,
			"0.013": 0.823935480199,
			"0.014": 0.518089240381,
			"0.015": 0.0,
			"0.016": 0.0,
			"0.017": 0.0,
			"0.018": 0.0,
			"0.019": 0.0,
			"0.02": 0.0,
			"0.021": 0.0,
			"0.022": 0.0,
			"0.023": 0.0,
			"0.024": 0.0,
			"0.025": 0.0
		}
	}
}
