{
	 "smiles": "ClS(=O)(=O)C1=C(Br)C=C2OCC(=O)NC2=C1", 
	 "Tm": 485.15, 
	 "num_atms": 21, 
	 "gaussian": { 
		 "optdone": 1, 
		 "sigma_profile": "yes", 
		 "theory": "DFT", 
		 "functional": "B3LYP", 
		 "basiset": "6-31G**", 
		 "properties": { 
			 "R2extent": 7667.3355, 
			 "electric_dipole_moment_norm": 4.16155558536, 
			 "electric_quadrupole_moment_norm": 19.2237182982, 
			 "total_energy": -4093.2182077, 
			 "HOMO_LUMO_gap": 0.15629, 
			 "cosmo_polarized_energy": -17.45, 
			 "cosmo_cavitation_energy": 31.36, 
			 "cosmo_dispersion_energy": -24.17, 
			 "cosmo_repulsion_energy": 1.82, 
			 "cosmo_total_nonelectrostatic_energy": 9.02, 
			 "SMD_solvation_energy": 3.99 
		},
		"coords": [
			{
				"x": -3.9197000444,
				"y": 1.3547926015,
				"z": 2.4449012737,
				"element": "Cl" 
			},
			{
				"x": -2.0656199734,
				"y": 0.4933017029,
				"z": 3.0224265772,
				"element": "S" 
			},
			{
				"x": -2.2878538917,
				"y": -0.9483022956,
				"z": 3.0467949952,
				"element": "O" 
			},
			{
				"x": -1.6113007915,
				"y": 1.2117547845,
				"z": 4.2027337326,
				"element": "O" 
			},
			{
				"x": -1.0297392868,
				"y": 0.8658468482,
				"z": 1.6051301838,
				"element": "C" 
			},
			{
				"x": -0.5429362797,
				"y": 2.1423924749,
				"z": 1.2883312979,
				"element": "C" 
			},
			{
				"x": -0.9717836127,
				"y": 3.7078174102,
				"z": 2.2688972052,
				"element": "Br" 
			},
			{
				"x": 0.2825705858,
				"y": 2.2926400282,
				"z": 0.1741228105,
				"element": "C" 
			},
			{
				"x": 0.6268890238,
				"y": 1.192658709,
				"z": -0.6065570237,
				"element": "C" 
			},
			{
				"x": 1.4766857286,
				"y": 1.3726819426,
				"z": -1.6490215298,
				"element": "O" 
			},
			{
				"x": 1.389355165,
				"y": 0.420922236,
				"z": -2.7197631721,
				"element": "C" 
			},
			{
				"x": 1.2016517084,
				"y": -1.027030176,
				"z": -2.2764457489,
				"element": "C" 
			},
			{
				"x": 1.5481736079,
				"y": -1.9664083823,
				"z": -2.966722648,
				"element": "O" 
			},
			{
				"x": 0.5573705668,
				"y": -1.1702476445,
				"z": -1.0703561948,
				"element": "N" 
			},
			{
				"x": 0.140684243,
				"y": -0.0886331248,
				"z": -0.2851217372,
				"element": "C" 
			},
			{
				"x": -0.6944537758,
				"y": -0.2407542017,
				"z": 0.8144250453,
				"element": "C" 
			},
			{
				"x": 0.6713827456,
				"y": 3.2670217238,
				"z": -0.0946338853,
				"element": "H" 
			},
			{
				"x": 2.3224242978,
				"y": 0.4920909184,
				"z": -3.2778378687,
				"element": "H" 
			},
			{
				"x": 0.5586552179,
				"y": 0.6889680279,
				"z": -3.3882571023,
				"element": "H" 
			},
			{
				"x": 0.3561360155,
				"y": -2.1184368541,
				"z": -0.7776224843,
				"element": "H" 
			},
			{
				"x": -1.0824912503,
				"y": -1.2168767291,
				"z": 1.0826762738,
				"element": "H" 
			}
		],
		 "valence_orbital": [ 
			{
				"type": "occ",
				"energy": -0.31363,
				"method": "rhf"
			},
			{
				"type": "occ",
				"energy": -0.30334,
				"method": "rhf"
			},
			{
				"type": "occ",
				"energy": -0.29283,
				"method": "rhf"
			},
			{
				"type": "occ",
				"energy": -0.27779,
				"method": "rhf"
			},
			{
				"type": "occ",
				"energy": -0.25004,
				"method": "rhf"
			},
			{
				"type": "unocc",
				"energy": -0.09375,
				"method": "rhf"
			},
			{
				"type": "unocc",
				"energy": -0.05743,
				"method": "rhf"
			},
			{
				"type": "unocc",
				"energy": -0.05279,
				"method": "rhf"
			},
			{
				"type": "unocc",
				"energy": -0.02056,
				"method": "rhf"
			},
			{
				"type": "unocc",
				"energy": -0.00637,
				"method": "rhf"
			}
		],
		"cosmo_sigma_profile": { 
			"-0.025": 0.0,
			"-0.024": 0.0,
			"-0.023": 0.0,
			"-0.022": 0.0,
			"-0.021": 0.0,
			"-0.02": 0.0,
			"-0.019": 0.0,
			"-0.018": 0.0,
			"-0.017": 0.886243442584,
			"-0.016": 1.60145245606,
			"-0.015": 1.47128283806,
			"-0.014": 1.10171672492,
			"-0.013": 1.43024917896,
			"-0.012": 1.60752535476,
			"-0.011": 0.760796851103,
			"-0.01": 1.67477275206,
			"-0.009": 6.17956516253,
			"-0.008": 8.50273787642,
			"-0.007": 6.52689717573,
			"-0.006": 10.705070406,
			"-0.005": 10.7550281574,
			"-0.004": 10.3847243787,
			"-0.003": 14.0703641894,
			"-0.002": 20.2240610863,
			"-0.001": 25.5220144368,
			"0.0": 17.6653318049,
			"0.001": 14.8948238203,
			"0.002": 16.4462831386,
			"0.003": 23.7746747676,
			"0.004": 10.8912435306,
			"0.005": 6.79255658955,
			"0.006": 5.77209091919,
			"0.007": 9.11732618869,
			"0.008": 12.5723425503,
			"0.009": 4.61798402688,
			"0.01": 2.01775602409,
			"0.011": 3.22041003626,
			"0.012": 5.46251521959,
			"0.013": 1.29151995369,
			"0.014": 0.0,
			"0.015": 0.0,
			"0.016": 0.0,
			"0.017": 0.0,
			"0.018": 0.0,
			"0.019": 0.0,
			"0.02": 0.0,
			"0.021": 0.0,
			"0.022": 0.0,
			"0.023": 0.0,
			"0.024": 0.0,
			"0.025": 0.0
		}
	}
}
