{
	 "smiles": "CN1N=CC2=C1N=CN=C2NCCNC1=CC(=O)C2=CC=CC=C2C1=O", 
	 "Tm": 530.15, 
	 "num_atms": 42, 
	 "gaussian": { 
		 "optdone": 1, 
		 "sigma_profile": "yes", 
		 "theory": "DFT", 
		 "functional": "B3LYP", 
		 "basiset": "6-31G**", 
		 "properties": { 
			 "R2extent": 15620.693, 
			 "electric_dipole_moment_norm": 2.317041972, 
			 "electric_quadrupole_moment_norm": 22.3540553996, 
			 "total_energy": -1174.51961188, 
			 "HOMO_LUMO_gap": 0.11334, 
			 "cosmo_polarized_energy": -23.21, 
			 "cosmo_cavitation_energy": 47.42, 
			 "cosmo_dispersion_energy": -34.1, 
			 "cosmo_repulsion_energy": 2.54, 
			 "cosmo_total_nonelectrostatic_energy": 15.85, 
			 "SMD_solvation_energy": 4.5 
		},
		"coords": [
			{
				"x": 2.5204776669,
				"y": 5.1693250311,
				"z": 4.8573482289,
				"element": "C" 
			},
			{
				"x": 2.0865617817,
				"y": 4.2152264759,
				"z": 3.8568722947,
				"element": "N" 
			},
			{
				"x": 2.8268217952,
				"y": 3.9925142601,
				"z": 2.7337890583,
				"element": "N" 
			},
			{
				"x": 2.1745642607,
				"y": 3.078704522,
				"z": 2.0311219028,
				"element": "C" 
			},
			{
				"x": 0.9783215999,
				"y": 2.6831706902,
				"z": 2.6924304282,
				"element": "C" 
			},
			{
				"x": 0.9632026721,
				"y": 3.4477739438,
				"z": 3.876644485,
				"element": "C" 
			},
			{
				"x": 0.0189986247,
				"y": 3.4170783717,
				"z": 4.8362758231,
				"element": "N" 
			},
			{
				"x": -0.9499358223,
				"y": 2.5548653878,
				"z": 4.5493678198,
				"element": "C" 
			},
			{
				"x": -1.0839528827,
				"y": 1.7635568403,
				"z": 3.4655113215,
				"element": "N" 
			},
			{
				"x": -0.1286006121,
				"y": 1.8099428513,
				"z": 2.5252571454,
				"element": "C" 
			},
			{
				"x": -0.2488488462,
				"y": 0.9946679453,
				"z": 1.4419706866,
				"element": "N" 
			},
			{
				"x": -1.4205522771,
				"y": 0.173054473,
				"z": 1.1891166366,
				"element": "C" 
			},
			{
				"x": -1.0775206846,
				"y": -0.9666173852,
				"z": 0.2345985326,
				"element": "C" 
			},
			{
				"x": -0.6572989563,
				"y": -0.4454878609,
				"z": -1.0554022708,
				"element": "N" 
			},
			{
				"x": -0.032570625,
				"y": -1.1779735546,
				"z": -2.0158108343,
				"element": "C" 
			},
			{
				"x": 0.4743590611,
				"y": -2.4391395621,
				"z": -1.8818052585,
				"element": "C" 
			},
			{
				"x": 1.1832127882,
				"y": -3.1128218445,
				"z": -2.961178788,
				"element": "C" 
			},
			{
				"x": 1.6459601997,
				"y": -4.2456905157,
				"z": -2.8257549749,
				"element": "O" 
			},
			{
				"x": 1.3350636508,
				"y": -2.3813300883,
				"z": -4.2646159793,
				"element": "C" 
			},
			{
				"x": 2.0155924089,
				"y": -2.9886643084,
				"z": -5.3206074852,
				"element": "C" 
			},
			{
				"x": 2.1577398558,
				"y": -2.3202593382,
				"z": -6.5372201866,
				"element": "C" 
			},
			{
				"x": 1.6182584168,
				"y": -1.0405227195,
				"z": -6.7082208347,
				"element": "C" 
			},
			{
				"x": 0.9352953312,
				"y": -0.4271003968,
				"z": -5.6605640519,
				"element": "C" 
			},
			{
				"x": 0.793436818,
				"y": -1.0936942467,
				"z": -4.4369936314,
				"element": "C" 
			},
			{
				"x": 0.0685169373,
				"y": -0.4387814058,
				"z": -3.3284043272,
				"element": "C" 
			},
			{
				"x": -0.4568087636,
				"y": 0.6668609278,
				"z": -3.4308264416,
				"element": "O" 
			},
			{
				"x": 3.494114422,
				"y": 4.8783502265,
				"z": 5.2605386163,
				"element": "H" 
			},
			{
				"x": 2.5984555153,
				"y": 6.167998338,
				"z": 4.4193844977,
				"element": "H" 
			},
			{
				"x": 1.7759230318,
				"y": 5.1720261923,
				"z": 5.6542370469,
				"element": "H" 
			},
			{
				"x": 2.5870677739,
				"y": 2.7429291099,
				"z": 1.0884741745,
				"element": "H" 
			},
			{
				"x": -1.7513852679,
				"y": 2.4730274194,
				"z": 5.2814828555,
				"element": "H" 
			},
			{
				"x": 0.3904370851,
				"y": 1.1298678623,
				"z": 0.6724196868,
				"element": "H" 
			},
			{
				"x": -2.2486354843,
				"y": 0.7716740926,
				"z": 0.7766953506,
				"element": "H" 
			},
			{
				"x": -1.7719380885,
				"y": -0.2280426544,
				"z": 2.1414487589,
				"element": "H" 
			},
			{
				"x": -1.9477560758,
				"y": -1.6324759424,
				"z": 0.1331729942,
				"element": "H" 
			},
			{
				"x": -0.2581678164,
				"y": -1.5581094516,
				"z": 0.6569774227,
				"element": "H" 
			},
			{
				"x": -1.119667857,
				"y": 0.3804972274,
				"z": -1.4248460936,
				"element": "H" 
			},
			{
				"x": 0.3808681104,
				"y": -3.0027743257,
				"z": -0.9602292665,
				"element": "H" 
			},
			{
				"x": 2.4215594325,
				"y": -3.982352543,
				"z": -5.1636884963,
				"element": "H" 
			},
			{
				"x": 2.6891938559,
				"y": -2.7967213035,
				"z": -7.355977677,
				"element": "H" 
			},
			{
				"x": 1.7312116611,
				"y": -0.5248952883,
				"z": -7.6571371697,
				"element": "H" 
			},
			{
				"x": 0.5061253029,
				"y": 0.5636425468,
				"z": -5.7668519998,
				"element": "H" 
			}
		],
		 "valence_orbital": [ 
			{
				"type": "occ",
				"energy": -0.25805,
				"method": "rhf"
			},
			{
				"type": "occ",
				"energy": -0.25499,
				"method": "rhf"
			},
			{
				"type": "occ",
				"energy": -0.25208,
				"method": "rhf"
			},
			{
				"type": "occ",
				"energy": -0.23499,
				"method": "rhf"
			},
			{
				"type": "occ",
				"energy": -0.22185,
				"method": "rhf"
			},
			{
				"type": "unocc",
				"energy": -0.10851,
				"method": "rhf"
			},
			{
				"type": "unocc",
				"energy": -0.04022,
				"method": "rhf"
			},
			{
				"type": "unocc",
				"energy": -0.03152,
				"method": "rhf"
			},
			{
				"type": "unocc",
				"energy": -0.01274,
				"method": "rhf"
			},
			{
				"type": "unocc",
				"energy": 0.00688,
				"method": "rhf"
			}
		],
		"cosmo_sigma_profile": { 
			"-0.025": 0.0,
			"-0.024": 0.0,
			"-0.023": 0.0,
			"-0.022": 0.0,
			"-0.021": 0.0,
			"-0.02": 0.0,
			"-0.019": 0.0,
			"-0.018": 0.0,
			"-0.017": 0.0,
			"-0.016": 0.0,
			"-0.015": 0.0,
			"-0.014": 0.0,
			"-0.013": 0.689550172607,
			"-0.012": 2.14163654221,
			"-0.011": 2.74479562654,
			"-0.01": 3.17689037779,
			"-0.009": 3.60507905616,
			"-0.008": 4.65584796344,
			"-0.007": 11.1325109971,
			"-0.006": 24.9962081815,
			"-0.005": 33.3024153817,
			"-0.004": 29.786621938,
			"-0.003": 27.7589906001,
			"-0.002": 21.6724268742,
			"-0.001": 20.577167295,
			"0.0": 30.0291875724,
			"0.001": 32.6607417708,
			"0.002": 30.836779944,
			"0.003": 21.3546895959,
			"0.004": 11.0789925827,
			"0.005": 7.72473437711,
			"0.006": 7.05921620598,
			"0.007": 8.57303548252,
			"0.008": 7.01191639624,
			"0.009": 6.62871996942,
			"0.01": 7.31313874072,
			"0.011": 6.62408166058,
			"0.012": 6.03519802027,
			"0.013": 7.34075444399,
			"0.014": 2.7615398086,
			"0.015": 0.839827347492,
			"0.016": 0.0393592241615,
			"0.017": 0.0,
			"0.018": 0.0,
			"0.019": 0.0,
			"0.02": 0.0,
			"0.021": 0.0,
			"0.022": 0.0,
			"0.023": 0.0,
			"0.024": 0.0,
			"0.025": 0.0
		}
	}
}
