{
	 "smiles": "NC(=S)CN1C(=O)C2=C(C=CC=C2)S1(=O)=O", 
	 "Tm": 434.15, 
	 "num_atms": 24, 
	 "gaussian": { 
		 "optdone": 1, 
		 "sigma_profile": "yes", 
		 "theory": "DFT", 
		 "functional": "B3LYP", 
		 "basiset": "6-31G**", 
		 "properties": { 
			 "R2extent": 6005.9973, 
			 "electric_dipole_moment_norm": 8.28880456339, 
			 "electric_quadrupole_moment_norm": 34.3020175016, 
			 "total_energy": -1479.26977535, 
			 "HOMO_LUMO_gap": 0.11912, 
			 "cosmo_polarized_energy": -22.37, 
			 "cosmo_cavitation_energy": 31.89, 
			 "cosmo_dispersion_energy": -23.6, 
			 "cosmo_repulsion_energy": 1.74, 
			 "cosmo_total_nonelectrostatic_energy": 10.03, 
			 "SMD_solvation_energy": 3.72 
		},
		"coords": [
			{
				"x": 1.7670397421,
				"y": -1.1879928233,
				"z": -2.960118283,
				"element": "N" 
			},
			{
				"x": 0.4530969229,
				"y": -1.4018976065,
				"z": -3.1297735898,
				"element": "C" 
			},
			{
				"x": -0.2267640493,
				"y": -2.0738635952,
				"z": -4.4858945496,
				"element": "S" 
			},
			{
				"x": -0.3951492384,
				"y": -1.0217824833,
				"z": -1.9132987601,
				"element": "C" 
			},
			{
				"x": -0.2622111003,
				"y": 0.3817892011,
				"z": -1.4963451126,
				"element": "N" 
			},
			{
				"x": 0.7427635203,
				"y": 0.8391121565,
				"z": -0.6663179529,
				"element": "C" 
			},
			{
				"x": 1.7464973355,
				"y": 0.1930710768,
				"z": -0.3837472114,
				"element": "O" 
			},
			{
				"x": 0.418803347,
				"y": 2.2067498657,
				"z": -0.1802436095,
				"element": "C" 
			},
			{
				"x": -0.8069243627,
				"y": 2.6884312692,
				"z": -0.6349784715,
				"element": "C" 
			},
			{
				"x": -1.286474454,
				"y": 3.9460387105,
				"z": -0.2974711785,
				"element": "C" 
			},
			{
				"x": -0.4883946872,
				"y": 4.7272675835,
				"z": 0.5460331565,
				"element": "C" 
			},
			{
				"x": 0.7437231743,
				"y": 4.2554452762,
				"z": 1.0158538011,
				"element": "C" 
			},
			{
				"x": 1.2115599554,
				"y": 2.9897774757,
				"z": 0.6546477181,
				"element": "C" 
			},
			{
				"x": -1.590582882,
				"y": 1.4925513109,
				"z": -1.7064103406,
				"element": "S" 
			},
			{
				"x": -2.7796123113,
				"y": 0.8936752051,
				"z": -1.1035730336,
				"element": "O" 
			},
			{
				"x": -1.633394468,
				"y": 1.976598431,
				"z": -3.081554122,
				"element": "O" 
			},
			{
				"x": 2.1276725497,
				"y": -0.8235104496,
				"z": -2.0821468409,
				"element": "H" 
			},
			{
				"x": 2.3981200004,
				"y": -1.4279146652,
				"z": -3.7107502446,
				"element": "H" 
			},
			{
				"x": -1.4447563245,
				"y": -1.2141061878,
				"z": -2.1301778809,
				"element": "H" 
			},
			{
				"x": -0.0954386412,
				"y": -1.6439028215,
				"z": -1.0611786261,
				"element": "H" 
			},
			{
				"x": -2.2394115306,
				"y": 4.3088191438,
				"z": -0.6672588371,
				"element": "H" 
			},
			{
				"x": -0.8319979299,
				"y": 5.7145842849,
				"z": 0.8382294887,
				"element": "H" 
			},
			{
				"x": 1.3424091458,
				"y": 4.8835451085,
				"z": 1.6678956255,
				"element": "H" 
			},
			{
				"x": 2.1641262862,
				"y": 2.6077145329,
				"z": 1.0058788548,
				"element": "H" 
			}
		],
		 "valence_orbital": [ 
			{
				"type": "occ",
				"energy": -0.30353,
				"method": "rhf"
			},
			{
				"type": "occ",
				"energy": -0.29877,
				"method": "rhf"
			},
			{
				"type": "occ",
				"energy": -0.29155,
				"method": "rhf"
			},
			{
				"type": "occ",
				"energy": -0.23315,
				"method": "rhf"
			},
			{
				"type": "occ",
				"energy": -0.20929,
				"method": "rhf"
			},
			{
				"type": "unocc",
				"energy": -0.09017,
				"method": "rhf"
			},
			{
				"type": "unocc",
				"energy": -0.06101,
				"method": "rhf"
			},
			{
				"type": "unocc",
				"energy": -0.03777,
				"method": "rhf"
			},
			{
				"type": "unocc",
				"energy": 0.0148,
				"method": "rhf"
			},
			{
				"type": "unocc",
				"energy": 0.01871,
				"method": "rhf"
			}
		],
		"cosmo_sigma_profile": { 
			"-0.025": 0.0,
			"-0.024": 0.0,
			"-0.023": 0.0,
			"-0.022": 0.0,
			"-0.021": 0.0,
			"-0.02": 0.0,
			"-0.019": 0.0,
			"-0.018": 0.0,
			"-0.017": 0.0,
			"-0.016": 0.133328364784,
			"-0.015": 0.996745246221,
			"-0.014": 1.4764659704,
			"-0.013": 0.928309229467,
			"-0.012": 1.23617186702,
			"-0.011": 1.83150997564,
			"-0.01": 3.44871281207,
			"-0.009": 6.37349982234,
			"-0.008": 12.8264261723,
			"-0.007": 16.5617673147,
			"-0.006": 15.2495795504,
			"-0.005": 12.7638274967,
			"-0.004": 12.7546933929,
			"-0.003": 12.0800078484,
			"-0.002": 14.0222799873,
			"-0.001": 17.0551082379,
			"0.0": 19.2041373879,
			"0.001": 15.8593088314,
			"0.002": 7.31697221732,
			"0.003": 7.10279592423,
			"0.004": 6.18239642945,
			"0.005": 6.65411888676,
			"0.006": 7.77491107652,
			"0.007": 10.7676289313,
			"0.008": 12.7636363222,
			"0.009": 20.0574144887,
			"0.01": 11.3000815498,
			"0.011": 3.58989065458,
			"0.012": 0.908312626162,
			"0.013": 0.0,
			"0.014": 0.0,
			"0.015": 0.0,
			"0.016": 0.0,
			"0.017": 0.0,
			"0.018": 0.0,
			"0.019": 0.0,
			"0.02": 0.0,
			"0.021": 0.0,
			"0.022": 0.0,
			"0.023": 0.0,
			"0.024": 0.0,
			"0.025": 0.0
		}
	}
}
