{
	 "smiles": "COC1=C(OCC(O)=O)C=C(C(C=O)=C1)[N+]([O-])=O", 
	 "Tm": 453.15, 
	 "num_atms": 27, 
	 "gaussian": { 
		 "optdone": 1, 
		 "sigma_profile": "yes", 
		 "theory": "DFT", 
		 "functional": "B3LYP", 
		 "basiset": "6-31G**", 
		 "properties": { 
			 "R2extent": 5214.2213, 
			 "electric_dipole_moment_norm": 4.02089432092, 
			 "electric_quadrupole_moment_norm": 28.2825572111, 
			 "total_energy": -967.668655256, 
			 "HOMO_LUMO_gap": 0.14842, 
			 "cosmo_polarized_energy": -20.81, 
			 "cosmo_cavitation_energy": 33.16, 
			 "cosmo_dispersion_energy": -23.41, 
			 "cosmo_repulsion_energy": 1.8, 
			 "cosmo_total_nonelectrostatic_energy": 11.55, 
			 "SMD_solvation_energy": 11.22 
		},
		"coords": [
			{
				"x": 1.6299733022,
				"y": 3.1810068515,
				"z": -1.3672093597,
				"element": "C" 
			},
			{
				"x": 1.4766841447,
				"y": 2.1659533621,
				"z": -0.36969087,
				"element": "O" 
			},
			{
				"x": 0.3157480416,
				"y": 1.4673051121,
				"z": -0.329154932,
				"element": "C" 
			},
			{
				"x": 0.2588270562,
				"y": 0.440671706,
				"z": 0.6448838606,
				"element": "C" 
			},
			{
				"x": 1.3295850634,
				"y": 0.3241213439,
				"z": 1.486004015,
				"element": "O" 
			},
			{
				"x": 2.0086552598,
				"y": -0.9352203782,
				"z": 1.5893700132,
				"element": "C" 
			},
			{
				"x": 3.3640531425,
				"y": -0.9024622848,
				"z": 0.8679587469,
				"element": "C" 
			},
			{
				"x": 3.6857870941,
				"y": 0.2521517104,
				"z": 0.2708917798,
				"element": "O" 
			},
			{
				"x": 4.0789888969,
				"y": -1.873754445,
				"z": 0.8631713294,
				"element": "O" 
			},
			{
				"x": -0.8728485495,
				"y": -0.3536792393,
				"z": 0.7461061621,
				"element": "C" 
			},
			{
				"x": -1.9493386974,
				"y": -0.1466812529,
				"z": -0.1203048085,
				"element": "C" 
			},
			{
				"x": -1.933316668,
				"y": 0.8833416586,
				"z": -1.0757325232,
				"element": "C" 
			},
			{
				"x": -3.062753701,
				"y": 1.2851392478,
				"z": -1.9839182717,
				"element": "C" 
			},
			{
				"x": -2.9094552581,
				"y": 2.1349183094,
				"z": -2.8407763146,
				"element": "O" 
			},
			{
				"x": -0.7816189917,
				"y": 1.6811064793,
				"z": -1.1567409913,
				"element": "C" 
			},
			{
				"x": -3.0781474534,
				"y": -1.0792115811,
				"z": 0.0207005756,
				"element": "N" 
			},
			{
				"x": -3.1763267036,
				"y": -1.6943759442,
				"z": 1.0811903961,
				"element": "O" 
			},
			{
				"x": -3.8456609975,
				"y": -1.2078827443,
				"z": -0.9346671892,
				"element": "O" 
			},
			{
				"x": 0.8959567615,
				"y": 3.9808045944,
				"z": -1.224771087,
				"element": "H" 
			},
			{
				"x": 2.6356581065,
				"y": 3.577295043,
				"z": -1.231075375,
				"element": "H" 
			},
			{
				"x": 1.5310627296,
				"y": 2.7607780208,
				"z": -2.3736079753,
				"element": "H" 
			},
			{
				"x": 1.4137701926,
				"y": -1.7541986985,
				"z": 1.175286021,
				"element": "H" 
			},
			{
				"x": 2.1872572994,
				"y": -1.1366856523,
				"z": 2.6485101208,
				"element": "H" 
			},
			{
				"x": 2.9674382446,
				"y": 0.9033933153,
				"z": 0.3933393247,
				"element": "H" 
			},
			{
				"x": -0.9408867259,
				"y": -1.13313808,
				"z": 1.494466774,
				"element": "H" 
			},
			{
				"x": -4.032827176,
				"y": 0.7982478526,
				"z": -1.8206951218,
				"element": "H" 
			},
			{
				"x": -0.7916644135,
				"y": 2.4668556933,
				"z": -1.9024342998,
				"element": "H" 
			}
		],
		 "valence_orbital": [ 
			{
				"type": "occ",
				"energy": -0.31214,
				"method": "rhf"
			},
			{
				"type": "occ",
				"energy": -0.29677,
				"method": "rhf"
			},
			{
				"type": "occ",
				"energy": -0.2821,
				"method": "rhf"
			},
			{
				"type": "occ",
				"energy": -0.2763,
				"method": "rhf"
			},
			{
				"type": "occ",
				"energy": -0.2619,
				"method": "rhf"
			},
			{
				"type": "unocc",
				"energy": -0.11348,
				"method": "rhf"
			},
			{
				"type": "unocc",
				"energy": -0.078,
				"method": "rhf"
			},
			{
				"type": "unocc",
				"energy": -0.02524,
				"method": "rhf"
			},
			{
				"type": "unocc",
				"energy": 0.00147,
				"method": "rhf"
			},
			{
				"type": "unocc",
				"energy": 0.00996,
				"method": "rhf"
			}
		],
		"cosmo_sigma_profile": { 
			"-0.025": 0.0,
			"-0.024": 0.0,
			"-0.023": 0.0,
			"-0.022": 0.0,
			"-0.021": 0.0,
			"-0.02": 0.0,
			"-0.019": 0.0,
			"-0.018": 0.0,
			"-0.017": 0.0,
			"-0.016": 0.0,
			"-0.015": 0.0,
			"-0.014": 0.0,
			"-0.013": 0.0,
			"-0.012": 0.0,
			"-0.011": 0.00729077722383,
			"-0.01": 2.23036477467,
			"-0.009": 9.51681313447,
			"-0.008": 10.2427013737,
			"-0.007": 19.0610846938,
			"-0.006": 20.6207073629,
			"-0.005": 16.1872277686,
			"-0.004": 17.5859007094,
			"-0.003": 16.0499013562,
			"-0.002": 19.6053997684,
			"-0.001": 17.0345973281,
			"0.0": 12.4305227893,
			"0.001": 8.16530496122,
			"0.002": 7.25188937034,
			"0.003": 7.60613605196,
			"0.004": 8.8618445164,
			"0.005": 7.06481450949,
			"0.006": 9.65137515962,
			"0.007": 11.9559056602,
			"0.008": 10.5332759352,
			"0.009": 10.3332113891,
			"0.01": 9.43652378841,
			"0.011": 7.52751925064,
			"0.012": 5.879624587,
			"0.013": 1.26052263374,
			"0.014": 0.0,
			"0.015": 0.0,
			"0.016": 0.0,
			"0.017": 0.0,
			"0.018": 0.0,
			"0.019": 0.0,
			"0.02": 0.0,
			"0.021": 0.0,
			"0.022": 0.0,
			"0.023": 0.0,
			"0.024": 0.0,
			"0.025": 0.0
		}
	}
}
