{
	 "smiles": "OC(=O)C1=CC(Br)=C(O)C=C1", 
	 "Tm": 450.15, 
	 "num_atms": 16, 
	 "gaussian": { 
		 "optdone": 1, 
		 "sigma_profile": "yes", 
		 "theory": "DFT", 
		 "functional": "B3LYP", 
		 "basiset": "6-31G**", 
		 "properties": { 
			 "R2extent": 3496.9833, 
			 "electric_dipole_moment_norm": 4.28477544569, 
			 "electric_quadrupole_moment_norm": 13.6459291593, 
			 "total_energy": -3066.83980061, 
			 "HOMO_LUMO_gap": 0.19673, 
			 "cosmo_polarized_energy": -15.3, 
			 "cosmo_cavitation_energy": 23.16, 
			 "cosmo_dispersion_energy": -17.8, 
			 "cosmo_repulsion_energy": 1.42, 
			 "cosmo_total_nonelectrostatic_energy": 6.78, 
			 "SMD_solvation_energy": 4.46 
		},
		"coords": [
			{
				"x": 0.5600511429,
				"y": 1.8330050002,
				"z": 3.6184775107,
				"element": "O" 
			},
			{
				"x": 1.2598490758,
				"y": 1.759518015,
				"z": 2.4528068882,
				"element": "C" 
			},
			{
				"x": 2.026679406,
				"y": 2.644610605,
				"z": 2.1539496588,
				"element": "O" 
			},
			{
				"x": 1.0260751854,
				"y": 0.5563569528,
				"z": 1.5956775984,
				"element": "C" 
			},
			{
				"x": -0.1175563507,
				"y": -0.2456631839,
				"z": 1.6983582709,
				"element": "C" 
			},
			{
				"x": -0.275545528,
				"y": -1.338840796,
				"z": 0.8553900463,
				"element": "C" 
			},
			{
				"x": -1.8433031625,
				"y": -2.4330282428,
				"z": 0.9796923865,
				"element": "Br" 
			},
			{
				"x": 0.6914456244,
				"y": -1.6648671262,
				"z": -0.1099578034,
				"element": "C" 
			},
			{
				"x": 0.5856415281,
				"y": -2.7169954733,
				"z": -0.9457555307,
				"element": "O" 
			},
			{
				"x": 1.8275540846,
				"y": -0.8469416702,
				"z": -0.2157363293,
				"element": "C" 
			},
			{
				"x": 1.9850950395,
				"y": 0.2493246073,
				"z": 0.61666438,
				"element": "C" 
			},
			{
				"x": 0.1458991596,
				"y": 0.9824614362,
				"z": 3.8179969303,
				"element": "H" 
			},
			{
				"x": -0.9136697506,
				"y": -0.0140955842,
				"z": 2.3987919869,
				"element": "H" 
			},
			{
				"x": -0.2479833494,
				"y": -3.1824241109,
				"z": -0.7654414511,
				"element": "H" 
			},
			{
				"x": 2.5676432472,
				"y": -1.0990406098,
				"z": -0.967668033,
				"element": "H" 
			},
			{
				"x": 2.8542246477,
				"y": 0.8918201806,
				"z": 0.5298534905,
				"element": "H" 
			}
		],
		 "valence_orbital": [ 
			{
				"type": "occ",
				"energy": -0.32487,
				"method": "rhf"
			},
			{
				"type": "occ",
				"energy": -0.31754,
				"method": "rhf"
			},
			{
				"type": "occ",
				"energy": -0.27809,
				"method": "rhf"
			},
			{
				"type": "occ",
				"energy": -0.27493,
				"method": "rhf"
			},
			{
				"type": "occ",
				"energy": -0.24921,
				"method": "rhf"
			},
			{
				"type": "unocc",
				"energy": -0.05248,
				"method": "rhf"
			},
			{
				"type": "unocc",
				"energy": -0.03611,
				"method": "rhf"
			},
			{
				"type": "unocc",
				"energy": -0.02174,
				"method": "rhf"
			},
			{
				"type": "unocc",
				"energy": 0.04498,
				"method": "rhf"
			},
			{
				"type": "unocc",
				"energy": 0.0615,
				"method": "rhf"
			}
		],
		"cosmo_sigma_profile": { 
			"-0.025": 0.0,
			"-0.024": 0.0,
			"-0.023": 0.0,
			"-0.022": 0.0,
			"-0.021": 0.0,
			"-0.02": 0.0,
			"-0.019": 0.620708907566,
			"-0.018": 0.919338144857,
			"-0.017": 0.979465532797,
			"-0.016": 1.20057154181,
			"-0.015": 1.13002469102,
			"-0.014": 2.20758905504,
			"-0.013": 1.76082358513,
			"-0.012": 1.46513781749,
			"-0.011": 2.12560052424,
			"-0.01": 2.25589104448,
			"-0.009": 2.2446975363,
			"-0.008": 3.18191475163,
			"-0.007": 5.93564755232,
			"-0.006": 6.27606940605,
			"-0.005": 8.0445963761,
			"-0.004": 7.96855000727,
			"-0.003": 9.43633152356,
			"-0.002": 10.3450176698,
			"-0.001": 12.9210850483,
			"0.0": 15.8651943915,
			"0.001": 20.2473651361,
			"0.002": 16.8956614421,
			"0.003": 11.7821096287,
			"0.004": 6.04549259481,
			"0.005": 2.92529999242,
			"0.006": 3.34676474613,
			"0.007": 4.79213927397,
			"0.008": 3.86098420651,
			"0.009": 5.26985430563,
			"0.01": 5.38469287119,
			"0.011": 5.39664647397,
			"0.012": 4.87849824132,
			"0.013": 1.50276006445,
			"0.014": 0.0569511523943,
			"0.015": 0.0,
			"0.016": 0.0,
			"0.017": 0.0,
			"0.018": 0.0,
			"0.019": 0.0,
			"0.02": 0.0,
			"0.021": 0.0,
			"0.022": 0.0,
			"0.023": 0.0,
			"0.024": 0.0,
			"0.025": 0.0
		}
	}
}
