{
	 "smiles": "CC1=NC(=CN1C1=CC=C(C=C1)N(=O)=O)N(=O)=O", 
	 "Tm": 459.15, 
	 "num_atms": 26, 
	 "gaussian": { 
		 "optdone": 1, 
		 "sigma_profile": "yes", 
		 "theory": "DFT", 
		 "functional": "B3LYP", 
		 "basiset": "6-31G**", 
		 "properties": { 
			 "R2extent": 6402.4158, 
			 "electric_dipole_moment_norm": 4.01119987161, 
			 "electric_quadrupole_moment_norm": 49.35010461, 
			 "total_energy": -905.579575828, 
			 "HOMO_LUMO_gap": 0.1514, 
			 "cosmo_polarized_energy": -22.52, 
			 "cosmo_cavitation_energy": 33.0, 
			 "cosmo_dispersion_energy": -23.43, 
			 "cosmo_repulsion_energy": 1.8, 
			 "cosmo_total_nonelectrostatic_energy": 11.36, 
			 "SMD_solvation_energy": 9.13 
		},
		"coords": [
			{
				"x": 3.1232000297,
				"y": -1.1460528523,
				"z": 0.5284254767,
				"element": "C" 
			},
			{
				"x": 1.8346259591,
				"y": -1.7913966243,
				"z": 0.9227115267,
				"element": "C" 
			},
			{
				"x": 1.737408373,
				"y": -2.9332309361,
				"z": 1.563744148,
				"element": "N" 
			},
			{
				"x": 0.4019285689,
				"y": -3.1264068957,
				"z": 1.7535382426,
				"element": "C" 
			},
			{
				"x": -0.3520793136,
				"y": -2.1024504192,
				"z": 1.2434211472,
				"element": "C" 
			},
			{
				"x": 0.5713368742,
				"y": -1.2371358064,
				"z": 0.6951166183,
				"element": "N" 
			},
			{
				"x": 0.251597746,
				"y": 0.0079148984,
				"z": 0.0813783505,
				"element": "C" 
			},
			{
				"x": 0.7805221978,
				"y": 0.3330868656,
				"z": -1.1737721077,
				"element": "C" 
			},
			{
				"x": 0.4584719829,
				"y": 1.5499117316,
				"z": -1.7665492567,
				"element": "C" 
			},
			{
				"x": -0.4033029313,
				"y": 2.4163747957,
				"z": -1.0982735995,
				"element": "C" 
			},
			{
				"x": -0.9491220921,
				"y": 2.1046405319,
				"z": 0.1449908118,
				"element": "C" 
			},
			{
				"x": -0.6121515754,
				"y": 0.8933956858,
				"z": 0.7398727732,
				"element": "C" 
			},
			{
				"x": -0.7503536912,
				"y": 3.7027148435,
				"z": -1.7276818616,
				"element": "N" 
			},
			{
				"x": -1.5224294565,
				"y": 4.440705996,
				"z": -1.1190841239,
				"element": "O" 
			},
			{
				"x": -0.2444321262,
				"y": 3.9534333993,
				"z": -2.8197681384,
				"element": "O" 
			},
			{
				"x": -0.1333433901,
				"y": -4.2891571336,
				"z": 2.421736401,
				"element": "N" 
			},
			{
				"x": -1.364597773,
				"y": -4.3299104911,
				"z": 2.5312907367,
				"element": "O" 
			},
			{
				"x": 0.6504238188,
				"y": -5.1391794721,
				"z": 2.82728823,
				"element": "O" 
			},
			{
				"x": 3.1211129405,
				"y": -0.0707799988,
				"z": 0.7293080493,
				"element": "H" 
			},
			{
				"x": 3.3503097807,
				"y": -1.2890366597,
				"z": -0.5338534121,
				"element": "H" 
			},
			{
				"x": 3.920766965,
				"y": -1.6145745712,
				"z": 1.1062985121,
				"element": "H" 
			},
			{
				"x": -1.4159360058,
				"y": -1.9413311599,
				"z": 1.1983676712,
				"element": "H" 
			},
			{
				"x": 1.4205414688,
				"y": -0.371417904,
				"z": -1.6918182656,
				"element": "H" 
			},
			{
				"x": 0.8483448555,
				"y": 1.8292598911,
				"z": -2.7371795682,
				"element": "H" 
			},
			{
				"x": -1.6116514508,
				"y": 2.8107051934,
				"z": 0.6294864266,
				"element": "H" 
			},
			{
				"x": -1.0022917548,
				"y": 0.637317092,
				"z": 1.7190052121,
				"element": "H" 
			}
		],
		 "valence_orbital": [ 
			{
				"type": "occ",
				"energy": -0.30344,
				"method": "rhf"
			},
			{
				"type": "occ",
				"energy": -0.30214,
				"method": "rhf"
			},
			{
				"type": "occ",
				"energy": -0.29334,
				"method": "rhf"
			},
			{
				"type": "occ",
				"energy": -0.28582,
				"method": "rhf"
			},
			{
				"type": "occ",
				"energy": -0.26517,
				"method": "rhf"
			},
			{
				"type": "unocc",
				"energy": -0.11377,
				"method": "rhf"
			},
			{
				"type": "unocc",
				"energy": -0.07841,
				"method": "rhf"
			},
			{
				"type": "unocc",
				"energy": -0.05971,
				"method": "rhf"
			},
			{
				"type": "unocc",
				"energy": -0.03593,
				"method": "rhf"
			},
			{
				"type": "unocc",
				"energy": -0.00107,
				"method": "rhf"
			}
		],
		"cosmo_sigma_profile": { 
			"-0.025": 0.0,
			"-0.024": 0.0,
			"-0.023": 0.0,
			"-0.022": 0.0,
			"-0.021": 0.0,
			"-0.02": 0.0,
			"-0.019": 0.0,
			"-0.018": 0.0,
			"-0.017": 0.0,
			"-0.016": 0.0,
			"-0.015": 0.0,
			"-0.014": 0.0,
			"-0.013": 0.0,
			"-0.012": 0.166144437544,
			"-0.011": 1.02080139621,
			"-0.01": 2.42073829681,
			"-0.009": 8.13022325612,
			"-0.008": 10.2210849962,
			"-0.007": 12.1459477745,
			"-0.006": 14.9054043645,
			"-0.005": 15.7166052229,
			"-0.004": 19.7455249824,
			"-0.003": 20.7133586248,
			"-0.002": 24.0009820938,
			"-0.001": 21.7950413005,
			"0.0": 16.6958216221,
			"0.001": 7.53869240992,
			"0.002": 5.45890125552,
			"0.003": 4.99337710691,
			"0.004": 7.02077262489,
			"0.005": 6.31014294815,
			"0.006": 8.15719773834,
			"0.007": 15.5307533661,
			"0.008": 16.9303527793,
			"0.009": 11.0714577568,
			"0.01": 7.22977296256,
			"0.011": 2.11931348563,
			"0.012": 1.06263660454,
			"0.013": 1.59942513592,
			"0.014": 1.09129509918,
			"0.015": 1.199723865,
			"0.016": 0.429763431908,
			"0.017": 0.0,
			"0.018": 0.0,
			"0.019": 0.0,
			"0.02": 0.0,
			"0.021": 0.0,
			"0.022": 0.0,
			"0.023": 0.0,
			"0.024": 0.0,
			"0.025": 0.0
		}
	}
}
