{
	 "smiles": "NC1=CC=C(C=C1)S(=O)(=O)NCC1=CC=C(F)C=C1", 
	 "Tm": 410.15, 
	 "num_atms": 32, 
	 "gaussian": { 
		 "optdone": 1, 
		 "sigma_profile": "yes", 
		 "theory": "DFT", 
		 "functional": "B3LYP", 
		 "basiset": "6-31G**", 
		 "properties": { 
			 "R2extent": 7861.4362, 
			 "electric_dipole_moment_norm": 5.53762848609, 
			 "electric_quadrupole_moment_norm": 34.1566056777, 
			 "total_energy": -1261.12834988, 
			 "HOMO_LUMO_gap": 0.20039, 
			 "cosmo_polarized_energy": -20.69, 
			 "cosmo_cavitation_energy": 38.69, 
			 "cosmo_dispersion_energy": -27.41, 
			 "cosmo_repulsion_energy": 2.06, 
			 "cosmo_total_nonelectrostatic_energy": 13.34, 
			 "SMD_solvation_energy": 5.74 
		},
		"coords": [
			{
				"x": -4.617466903,
				"y": -1.0573394198,
				"z": 1.4008925968,
				"element": "N" 
			},
			{
				"x": -3.6840947634,
				"y": -0.4549517959,
				"z": 0.5755710835,
				"element": "C" 
			},
			{
				"x": -3.1809600635,
				"y": -1.1370111275,
				"z": -0.5529751464,
				"element": "C" 
			},
			{
				"x": -2.210564876,
				"y": -0.556127607,
				"z": -1.3547232513,
				"element": "C" 
			},
			{
				"x": -1.7208625876,
				"y": 0.7173812664,
				"z": -1.0415920458,
				"element": "C" 
			},
			{
				"x": -2.2119686579,
				"y": 1.4106433042,
				"z": 0.0674135337,
				"element": "C" 
			},
			{
				"x": -3.1850056188,
				"y": 0.8282783436,
				"z": 0.8707480759,
				"element": "C" 
			},
			{
				"x": -0.4966160393,
				"y": 1.4725101059,
				"z": -2.0890611096,
				"element": "S" 
			},
			{
				"x": -0.3200300031,
				"y": 2.8594366314,
				"z": -1.6338502711,
				"element": "O" 
			},
			{
				"x": -0.7906878047,
				"y": 1.1716150768,
				"z": -3.4944752012,
				"element": "O" 
			},
			{
				"x": 0.8912262372,
				"y": 0.5506001874,
				"z": -1.7502944112,
				"element": "N" 
			},
			{
				"x": 1.6772576191,
				"y": 0.9396085013,
				"z": -0.5646315863,
				"element": "C" 
			},
			{
				"x": 2.8374284288,
				"y": -0.0123855553,
				"z": -0.368964003,
				"element": "C" 
			},
			{
				"x": 2.6238833108,
				"y": -1.3974285675,
				"z": -0.3042228971,
				"element": "C" 
			},
			{
				"x": 3.6852714366,
				"y": -2.2770920413,
				"z": -0.1049839416,
				"element": "C" 
			},
			{
				"x": 4.9689334292,
				"y": -1.7562233898,
				"z": 0.0307825358,
				"element": "C" 
			},
			{
				"x": 6.0008638251,
				"y": -2.6039457437,
				"z": 0.2245608433,
				"element": "F" 
			},
			{
				"x": 5.2182584669,
				"y": -0.3914755018,
				"z": -0.0308014581,
				"element": "C" 
			},
			{
				"x": 4.1422790516,
				"y": 0.47474151,
				"z": -0.2352003502,
				"element": "C" 
			},
			{
				"x": -5.1571321144,
				"y": -0.4479941185,
				"z": 1.9978490733,
				"element": "H" 
			},
			{
				"x": -5.1578992425,
				"y": -1.8111187819,
				"z": 1.0026440602,
				"element": "H" 
			},
			{
				"x": -3.5626247273,
				"y": -2.1255720013,
				"z": -0.7942692901,
				"element": "H" 
			},
			{
				"x": -1.8384654647,
				"y": -1.0781710079,
				"z": -2.2298619331,
				"element": "H" 
			},
			{
				"x": -1.8375324788,
				"y": 2.4056145929,
				"z": 0.2817602029,
				"element": "H" 
			},
			{
				"x": -3.5676168117,
				"y": 1.3668465794,
				"z": 1.7336327947,
				"element": "H" 
			},
			{
				"x": 1.4440348316,
				"y": 0.5238173809,
				"z": -2.6060393811,
				"element": "H" 
			},
			{
				"x": 2.0372013056,
				"y": 1.9736651186,
				"z": -0.6296793706,
				"element": "H" 
			},
			{
				"x": 0.9988343629,
				"y": 0.8903723805,
				"z": 0.2958810871,
				"element": "H" 
			},
			{
				"x": 1.6162158724,
				"y": -1.7846410643,
				"z": -0.4203452496,
				"element": "H" 
			},
			{
				"x": 3.535173319,
				"y": -3.3501004617,
				"z": -0.0526762771,
				"element": "H" 
			},
			{
				"x": 6.2336635057,
				"y": -0.0251487684,
				"z": 0.074110705,
				"element": "H" 
			},
			{
				"x": 4.3241031543,
				"y": 1.5447959742,
				"z": -0.2899994177,
				"element": "H" 
			}
		],
		 "valence_orbital": [ 
			{
				"type": "occ",
				"energy": -0.27075,
				"method": "rhf"
			},
			{
				"type": "occ",
				"energy": -0.26719,
				"method": "rhf"
			},
			{
				"type": "occ",
				"energy": -0.26255,
				"method": "rhf"
			},
			{
				"type": "occ",
				"energy": -0.24272,
				"method": "rhf"
			},
			{
				"type": "occ",
				"energy": -0.22345,
				"method": "rhf"
			},
			{
				"type": "unocc",
				"energy": -0.02306,
				"method": "rhf"
			},
			{
				"type": "unocc",
				"energy": -0.01605,
				"method": "rhf"
			},
			{
				"type": "unocc",
				"energy": -0.01536,
				"method": "rhf"
			},
			{
				"type": "unocc",
				"energy": -0.00571,
				"method": "rhf"
			},
			{
				"type": "unocc",
				"energy": 0.06064,
				"method": "rhf"
			}
		],
		"cosmo_sigma_profile": { 
			"-0.025": 0.0,
			"-0.024": 0.0,
			"-0.023": 0.0,
			"-0.022": 0.0,
			"-0.021": 0.0,
			"-0.02": 0.0,
			"-0.019": 0.0,
			"-0.018": 0.0,
			"-0.017": 0.0,
			"-0.016": 0.0,
			"-0.015": 0.0,
			"-0.014": 0.859148327719,
			"-0.013": 3.77771447665,
			"-0.012": 3.89365609924,
			"-0.011": 4.41044024013,
			"-0.01": 3.97155234908,
			"-0.009": 4.37568719537,
			"-0.008": 3.94049447888,
			"-0.007": 10.9919099828,
			"-0.006": 16.306370815,
			"-0.005": 19.486426922,
			"-0.004": 20.7540274212,
			"-0.003": 15.3050411642,
			"-0.002": 16.3105988887,
			"-0.001": 14.0515540591,
			"0.0": 16.9790791017,
			"0.001": 21.7519867328,
			"0.002": 19.7867722508,
			"0.003": 26.4781454733,
			"0.004": 35.4953451757,
			"0.005": 10.6226382047,
			"0.006": 4.1236312711,
			"0.007": 3.00198476752,
			"0.008": 4.04725474851,
			"0.009": 4.58827959533,
			"0.01": 5.30207692707,
			"0.011": 10.4103122365,
			"0.012": 7.05252114487,
			"0.013": 0.373215069085,
			"0.014": 0.0,
			"0.015": 0.0,
			"0.016": 0.0,
			"0.017": 0.0,
			"0.018": 0.0,
			"0.019": 0.0,
			"0.02": 0.0,
			"0.021": 0.0,
			"0.022": 0.0,
			"0.023": 0.0,
			"0.024": 0.0,
			"0.025": 0.0
		}
	}
}
