{
	 "smiles": "CC(C)(C)OC(=O)N1CCC(CC1)N1CCCC1C(O)=O", 
	 "Tm": 443.15, 
	 "num_atms": 47, 
	 "gaussian": { 
		 "optdone": 1, 
		 "sigma_profile": "yes", 
		 "theory": "DFT", 
		 "functional": "B3LYP", 
		 "basiset": "6-31G**", 
		 "properties": { 
			 "R2extent": 9534.9525, 
			 "electric_dipole_moment_norm": 6.14300578951, 
			 "electric_quadrupole_moment_norm": 21.8982264318, 
			 "total_energy": -997.70789401, 
			 "HOMO_LUMO_gap": 0.25521, 
			 "cosmo_polarized_energy": -18.63, 
			 "cosmo_cavitation_energy": 45.4, 
			 "cosmo_dispersion_energy": -31.25, 
			 "cosmo_repulsion_energy": 2.4, 
			 "cosmo_total_nonelectrostatic_energy": 16.55, 
			 "SMD_solvation_energy": 8.42 
		},
		"coords": [
			{
				"x": -2.9865487273,
				"y": 3.8582114084,
				"z": -2.2668603209,
				"element": "C" 
			},
			{
				"x": -3.4748150759,
				"y": 3.0316227527,
				"z": -1.0740853634,
				"element": "C" 
			},
			{
				"x": -4.8927615072,
				"y": 2.5060281457,
				"z": -1.3222805866,
				"element": "C" 
			},
			{
				"x": -3.373375687,
				"y": 3.8393260461,
				"z": 0.2242614247,
				"element": "C" 
			},
			{
				"x": -2.5195945749,
				"y": 1.9125309986,
				"z": -1.0499047451,
				"element": "O" 
			},
			{
				"x": -2.6124582594,
				"y": 0.9387115997,
				"z": -0.1101746993,
				"element": "C" 
			},
			{
				"x": -3.4610998419,
				"y": 0.8738462665,
				"z": 0.7691556937,
				"element": "O" 
			},
			{
				"x": -1.605513113,
				"y": 0.0233618263,
				"z": -0.2776402601,
				"element": "N" 
			},
			{
				"x": -0.6265764282,
				"y": 0.101063327,
				"z": -1.3662428309,
				"element": "C" 
			},
			{
				"x": 0.536235475,
				"y": -0.8674763791,
				"z": -1.101529387,
				"element": "C" 
			},
			{
				"x": 0.9778341711,
				"y": -0.7861260013,
				"z": 0.3692805149,
				"element": "C" 
			},
			{
				"x": -0.1848974191,
				"y": -1.3005163865,
				"z": 1.261170483,
				"element": "C" 
			},
			{
				"x": -1.5590225042,
				"y": -1.1584601573,
				"z": 0.5745077694,
				"element": "C" 
			},
			{
				"x": 2.2207166518,
				"y": -1.5674019811,
				"z": 0.5946681945,
				"element": "N" 
			},
			{
				"x": 3.4352012041,
				"y": -0.9907265855,
				"z": -0.0396504179,
				"element": "C" 
			},
			{
				"x": 4.045246071,
				"y": -0.0335665206,
				"z": 0.9970969681,
				"element": "C" 
			},
			{
				"x": 3.7673021009,
				"y": -0.7421542794,
				"z": 2.3396954986,
				"element": "C" 
			},
			{
				"x": 2.6336647941,
				"y": -1.7573453749,
				"z": 2.0128529777,
				"element": "C" 
			},
			{
				"x": 3.0872769525,
				"y": -3.221085586,
				"z": 2.2134497888,
				"element": "C" 
			},
			{
				"x": 2.7053016144,
				"y": -4.0347962097,
				"z": 1.218195163,
				"element": "O" 
			},
			{
				"x": 3.7004035542,
				"y": -3.5933468822,
				"z": 3.1864916175,
				"element": "O" 
			},
			{
				"x": -3.6250158668,
				"y": 4.7362162368,
				"z": -2.4022006974,
				"element": "H" 
			},
			{
				"x": -1.9592932713,
				"y": 4.1991240467,
				"z": -2.1071053713,
				"element": "H" 
			},
			{
				"x": -3.014463398,
				"y": 3.2648945534,
				"z": -3.1854966848,
				"element": "H" 
			},
			{
				"x": -4.9194204693,
				"y": 1.9030234458,
				"z": -2.2355853531,
				"element": "H" 
			},
			{
				"x": -5.2346371293,
				"y": 1.8969251588,
				"z": -0.4854851444,
				"element": "H" 
			},
			{
				"x": -5.5793190644,
				"y": 3.3489503432,
				"z": -1.4522832301,
				"element": "H" 
			},
			{
				"x": -2.3409063622,
				"y": 4.1637086255,
				"z": 0.3900036287,
				"element": "H" 
			},
			{
				"x": -3.7002860406,
				"y": 3.2465331439,
				"z": 1.0786174977,
				"element": "H" 
			},
			{
				"x": -4.0014646406,
				"y": 4.7331462095,
				"z": 0.1509027251,
				"element": "H" 
			},
			{
				"x": -1.0935612171,
				"y": -0.1242036402,
				"z": -2.3349257718,
				"element": "H" 
			},
			{
				"x": -0.2506950312,
				"y": 1.1266781748,
				"z": -1.4259064235,
				"element": "H" 
			},
			{
				"x": 1.3478402956,
				"y": -0.6108487836,
				"z": -1.787310636,
				"element": "H" 
			},
			{
				"x": 0.252870118,
				"y": -1.9013982967,
				"z": -1.3316276751,
				"element": "H" 
			},
			{
				"x": 1.1463822175,
				"y": 0.2786744777,
				"z": 0.605975615,
				"element": "H" 
			},
			{
				"x": -0.0258145551,
				"y": -2.3605169469,
				"z": 1.49065104,
				"element": "H" 
			},
			{
				"x": -0.1960436244,
				"y": -0.7582250039,
				"z": 2.2116707861,
				"element": "H" 
			},
			{
				"x": -2.3577838071,
				"y": -1.0621587817,
				"z": 1.3087336853,
				"element": "H" 
			},
			{
				"x": -1.7729742443,
				"y": -2.0524778494,
				"z": -0.0272717259,
				"element": "H" 
			},
			{
				"x": 3.1999614654,
				"y": -0.5162270849,
				"z": -0.9929749453,
				"element": "H" 
			},
			{
				"x": 4.1295822815,
				"y": -1.8145626115,
				"z": -0.2470359164,
				"element": "H" 
			},
			{
				"x": 5.1098824745,
				"y": 0.1440048204,
				"z": 0.8204017857,
				"element": "H" 
			},
			{
				"x": 3.5415403476,
				"y": 0.938465349,
				"z": 0.9572845575,
				"element": "H" 
			},
			{
				"x": 4.6403606344,
				"y": -1.2791265568,
				"z": 2.7177659335,
				"element": "H" 
			},
			{
				"x": 3.4616088514,
				"y": -0.0387888429,
				"z": 3.1178983548,
				"element": "H" 
			},
			{
				"x": 1.7814053102,
				"y": -1.624943994,
				"z": 2.6813376018,
				"element": "H" 
			},
			{
				"x": 2.2911252748,
				"y": -3.4171662204,
				"z": 0.5620088815,
				"element": "H" 
			}
		],
		 "valence_orbital": [ 
			{
				"type": "occ",
				"energy": -0.28964,
				"method": "rhf"
			},
			{
				"type": "occ",
				"energy": -0.27126,
				"method": "rhf"
			},
			{
				"type": "occ",
				"energy": -0.26269,
				"method": "rhf"
			},
			{
				"type": "occ",
				"energy": -0.24342,
				"method": "rhf"
			},
			{
				"type": "occ",
				"energy": -0.23685,
				"method": "rhf"
			},
			{
				"type": "unocc",
				"energy": 0.01836,
				"method": "rhf"
			},
			{
				"type": "unocc",
				"energy": 0.04825,
				"method": "rhf"
			},
			{
				"type": "unocc",
				"energy": 0.05448,
				"method": "rhf"
			},
			{
				"type": "unocc",
				"energy": 0.07803,
				"method": "rhf"
			},
			{
				"type": "unocc",
				"energy": 0.08135,
				"method": "rhf"
			}
		],
		"cosmo_sigma_profile": { 
			"-0.025": 0.0,
			"-0.024": 0.0,
			"-0.023": 0.0,
			"-0.022": 0.0,
			"-0.021": 0.0,
			"-0.02": 0.0,
			"-0.019": 0.0,
			"-0.018": 0.0,
			"-0.017": 0.0,
			"-0.016": 0.0,
			"-0.015": 0.0,
			"-0.014": 0.0,
			"-0.013": 0.0,
			"-0.012": 0.0,
			"-0.011": 0.0,
			"-0.01": 0.0,
			"-0.009": 0.0498735917448,
			"-0.008": 0.7267356225,
			"-0.007": 4.04572500256,
			"-0.006": 8.067781805,
			"-0.005": 12.6191346612,
			"-0.004": 46.2513671227,
			"-0.003": 55.5750747049,
			"-0.002": 43.6778777923,
			"-0.001": 35.1749562418,
			"0.0": 36.5814673414,
			"0.001": 30.4104840641,
			"0.002": 9.60559299839,
			"0.003": 7.14924564959,
			"0.004": 6.20898231459,
			"0.005": 6.99184321346,
			"0.006": 5.59242878703,
			"0.007": 4.35056115806,
			"0.008": 5.32045813765,
			"0.009": 4.31273121419,
			"0.01": 4.86735539074,
			"0.011": 7.07761704572,
			"0.012": 7.35203416591,
			"0.013": 7.01665278997,
			"0.014": 2.8502249105,
			"0.015": 0.0,
			"0.016": 0.0,
			"0.017": 0.0,
			"0.018": 0.0,
			"0.019": 0.0,
			"0.02": 0.0,
			"0.021": 0.0,
			"0.022": 0.0,
			"0.023": 0.0,
			"0.024": 0.0,
			"0.025": 0.0
		}
	}
}
