{
	 "smiles": "COC(=O)C(C)SC1=C(C=CC=C1)C(O)=O", 
	 "Tm": 392.15, 
	 "num_atms": 28, 
	 "gaussian": { 
		 "optdone": 1, 
		 "sigma_profile": "yes", 
		 "theory": "DFT", 
		 "functional": "B3LYP", 
		 "basiset": "6-31G**", 
		 "properties": { 
			 "R2extent": 3996.9465, 
			 "electric_dipole_moment_norm": 1.4140530577, 
			 "electric_quadrupole_moment_norm": 14.7675663212, 
			 "total_energy": -1125.50240693, 
			 "HOMO_LUMO_gap": 0.16773, 
			 "cosmo_polarized_energy": -15.14, 
			 "cosmo_cavitation_energy": 32.83, 
			 "cosmo_dispersion_energy": -23.36, 
			 "cosmo_repulsion_energy": 1.78, 
			 "cosmo_total_nonelectrostatic_energy": 11.26, 
			 "SMD_solvation_energy": 7.39 
		},
		"coords": [
			{
				"x": 1.0482852338,
				"y": 0.9176366311,
				"z": 3.4729536715,
				"element": "C" 
			},
			{
				"x": 1.1458491917,
				"y": -0.1828380268,
				"z": 2.5535362387,
				"element": "O" 
			},
			{
				"x": 0.1935001982,
				"y": -0.2279039703,
				"z": 1.6061683845,
				"element": "C" 
			},
			{
				"x": -0.7629947772,
				"y": 0.5166945556,
				"z": 1.5550733116,
				"element": "O" 
			},
			{
				"x": 0.4494969641,
				"y": -1.3583318857,
				"z": 0.6208031141,
				"element": "C" 
			},
			{
				"x": -0.8500459036,
				"y": -2.05530123,
				"z": 0.2275811473,
				"element": "C" 
			},
			{
				"x": 1.4502074748,
				"y": -0.7522883366,
				"z": -0.8322301585,
				"element": "S" 
			},
			{
				"x": 0.3535209663,
				"y": 0.4128515431,
				"z": -1.6564728421,
				"element": "C" 
			},
			{
				"x": 0.4176381921,
				"y": 1.8174226944,
				"z": -1.4898709014,
				"element": "C" 
			},
			{
				"x": -0.4123718788,
				"y": 2.6379765621,
				"z": -2.2716815452,
				"element": "C" 
			},
			{
				"x": -1.3052590748,
				"y": 2.0969934869,
				"z": -3.1920945222,
				"element": "C" 
			},
			{
				"x": -1.3607252481,
				"y": 0.7157197126,
				"z": -3.3669974886,
				"element": "C" 
			},
			{
				"x": -0.5265417607,
				"y": -0.1104754641,
				"z": -2.6145697596,
				"element": "C" 
			},
			{
				"x": 1.3258486447,
				"y": 2.4851535479,
				"z": -0.5078491487,
				"element": "C" 
			},
			{
				"x": 1.59633442,
				"y": 3.769773814,
				"z": -0.8643512112,
				"element": "O" 
			},
			{
				"x": 1.7900787958,
				"y": 2.0053959214,
				"z": 0.5048983098,
				"element": "O" 
			},
			{
				"x": 1.2125250455,
				"y": 1.8553038876,
				"z": 2.9389026072,
				"element": "H" 
			},
			{
				"x": 0.0658073059,
				"y": 0.9345268152,
				"z": 3.9510768075,
				"element": "H" 
			},
			{
				"x": 1.8329265464,
				"y": 0.7531383353,
				"z": 4.2117414616,
				"element": "H" 
			},
			{
				"x": 1.1523805241,
				"y": -2.0618442281,
				"z": 1.0757619485,
				"element": "H" 
			},
			{
				"x": -0.6549766757,
				"y": -2.8620199086,
				"z": -0.4831922455,
				"element": "H" 
			},
			{
				"x": -1.3283302086,
				"y": -2.4821999513,
				"z": 1.116413849,
				"element": "H" 
			},
			{
				"x": -1.549520883,
				"y": -1.3427144715,
				"z": -0.2136793137,
				"element": "H" 
			},
			{
				"x": -0.3526359217,
				"y": 3.711745475,
				"z": -2.1419673442,
				"element": "H" 
			},
			{
				"x": -1.9441442409,
				"y": 2.7529869003,
				"z": -3.7754466096,
				"element": "H" 
			},
			{
				"x": -2.0406862943,
				"y": 0.2791600851,
				"z": -4.0927734189,
				"element": "H" 
			},
			{
				"x": -0.5423401779,
				"y": -1.1835062654,
				"z": -2.7698822081,
				"element": "H" 
			},
			{
				"x": 2.1557735422,
				"y": 4.121443771,
				"z": -0.1524521336,
				"element": "H" 
			}
		],
		 "valence_orbital": [ 
			{
				"type": "occ",
				"energy": -0.28516,
				"method": "rhf"
			},
			{
				"type": "occ",
				"energy": -0.27059,
				"method": "rhf"
			},
			{
				"type": "occ",
				"energy": -0.26545,
				"method": "rhf"
			},
			{
				"type": "occ",
				"energy": -0.25543,
				"method": "rhf"
			},
			{
				"type": "occ",
				"energy": -0.22245,
				"method": "rhf"
			},
			{
				"type": "unocc",
				"energy": -0.05472,
				"method": "rhf"
			},
			{
				"type": "unocc",
				"energy": -0.02583,
				"method": "rhf"
			},
			{
				"type": "unocc",
				"energy": 0.00997,
				"method": "rhf"
			},
			{
				"type": "unocc",
				"energy": 0.04527,
				"method": "rhf"
			},
			{
				"type": "unocc",
				"energy": 0.05309,
				"method": "rhf"
			}
		],
		"cosmo_sigma_profile": { 
			"-0.025": 0.0,
			"-0.024": 0.0,
			"-0.023": 0.0,
			"-0.022": 0.0,
			"-0.021": 0.0,
			"-0.02": 0.0,
			"-0.019": 0.0734219991707,
			"-0.018": 0.705529340262,
			"-0.017": 0.877324632797,
			"-0.016": 1.04058696471,
			"-0.015": 0.79908880279,
			"-0.014": 0.78621524479,
			"-0.013": 0.393851478151,
			"-0.012": 0.153774247987,
			"-0.011": 1.01864703667,
			"-0.01": 0.941975971391,
			"-0.009": 0.614690332463,
			"-0.008": 1.10360384106,
			"-0.007": 8.02164219907,
			"-0.006": 14.2013995096,
			"-0.005": 18.8637193717,
			"-0.004": 18.4865600739,
			"-0.003": 24.3647664716,
			"-0.002": 20.4129300933,
			"-0.001": 20.1635364427,
			"0.0": 18.5251877655,
			"0.001": 14.997503013,
			"0.002": 18.4087163273,
			"0.003": 17.1778524165,
			"0.004": 8.36688616398,
			"0.005": 8.27573689299,
			"0.006": 8.26601898384,
			"0.007": 7.57441087662,
			"0.008": 7.4953477432,
			"0.009": 4.66189367256,
			"0.01": 3.88862426201,
			"0.011": 4.58724984576,
			"0.012": 5.51049047955,
			"0.013": 1.31889936918,
			"0.014": 0.0286509298431,
			"0.015": 0.0,
			"0.016": 0.0,
			"0.017": 0.0,
			"0.018": 0.0,
			"0.019": 0.0,
			"0.02": 0.0,
			"0.021": 0.0,
			"0.022": 0.0,
			"0.023": 0.0,
			"0.024": 0.0,
			"0.025": 0.0
		}
	}
}
