{
	 "smiles": "NC(CC1=CC(F)=CC=C1F)C(O)=O", 
	 "Tm": 525.15, 
	 "num_atms": 23, 
	 "gaussian": { 
		 "optdone": 1, 
		 "sigma_profile": "yes", 
		 "theory": "DFT", 
		 "functional": "B3LYP", 
		 "basiset": "6-31G**", 
		 "properties": { 
			 "R2extent": 2797.0328, 
			 "electric_dipole_moment_norm": 2.91986445918, 
			 "electric_quadrupole_moment_norm": 15.7019946399, 
			 "total_energy": -753.252817353, 
			 "HOMO_LUMO_gap": 0.21244, 
			 "cosmo_polarized_energy": -18.33, 
			 "cosmo_cavitation_energy": 27.9, 
			 "cosmo_dispersion_energy": -19.34, 
			 "cosmo_repulsion_energy": 1.48, 
			 "cosmo_total_nonelectrostatic_energy": 10.05, 
			 "SMD_solvation_energy": 5.46 
		},
		"coords": [
			{
				"x": 2.2358465707,
				"y": -1.3874094129,
				"z": 0.7366720902,
				"element": "N" 
			},
			{
				"x": 1.0449937347,
				"y": -1.5376618055,
				"z": 1.5515756733,
				"element": "C" 
			},
			{
				"x": -0.2043069421,
				"y": -1.7598302144,
				"z": 0.6521986311,
				"element": "C" 
			},
			{
				"x": -0.5451007577,
				"y": -0.5921909889,
				"z": -0.2481689491,
				"element": "C" 
			},
			{
				"x": -1.2592654923,
				"y": 0.5203773258,
				"z": 0.219682736,
				"element": "C" 
			},
			{
				"x": -1.5501969047,
				"y": 1.571421216,
				"z": -0.6408208777,
				"element": "C" 
			},
			{
				"x": -2.2424296996,
				"y": 2.6277241432,
				"z": -0.167841596,
				"element": "F" 
			},
			{
				"x": -1.1577227102,
				"y": 1.565160296,
				"z": -1.9751518855,
				"element": "C" 
			},
			{
				"x": -0.4511832947,
				"y": 0.463958088,
				"z": -2.4554591408,
				"element": "C" 
			},
			{
				"x": -0.1586933077,
				"y": -0.586512092,
				"z": -1.5922634389,
				"element": "C" 
			},
			{
				"x": 0.5174491349,
				"y": -1.6498349841,
				"z": -2.082582428,
				"element": "F" 
			},
			{
				"x": 0.8343043606,
				"y": -0.3713477638,
				"z": 2.5399084369,
				"element": "C" 
			},
			{
				"x": -0.1884948671,
				"y": -0.5171739918,
				"z": 3.4306799927,
				"element": "O" 
			},
			{
				"x": 1.5125037653,
				"y": 0.6238364027,
				"z": 2.5583205954,
				"element": "O" 
			},
			{
				"x": 3.0395277762,
				"y": -1.2495878972,
				"z": 1.3451312163,
				"element": "H" 
			},
			{
				"x": 2.1598884546,
				"y": -0.5219186272,
				"z": 0.2052529488,
				"element": "H" 
			},
			{
				"x": 1.1623536049,
				"y": -2.4488825619,
				"z": 2.1576370771,
				"element": "H" 
			},
			{
				"x": -1.0739781453,
				"y": -1.9938732494,
				"z": 1.2779499986,
				"element": "H" 
			},
			{
				"x": 0.0023043034,
				"y": -2.6411056857,
				"z": 0.0422512619,
				"element": "H" 
			},
			{
				"x": -1.5906171082,
				"y": 0.576163044,
				"z": 1.2514322096,
				"element": "H" 
			},
			{
				"x": -1.4063852414,
				"y": 2.4039991336,
				"z": -2.6153582397,
				"element": "H" 
			},
			{
				"x": -0.1262132165,
				"y": 0.4062153606,
				"z": -3.4883492181,
				"element": "H" 
			},
			{
				"x": -0.6070840178,
				"y": -1.3833257347,
				"z": 3.3226029058,
				"element": "H" 
			}
		],
		 "valence_orbital": [ 
			{
				"type": "occ",
				"energy": -0.32485,
				"method": "rhf"
			},
			{
				"type": "occ",
				"energy": -0.28177,
				"method": "rhf"
			},
			{
				"type": "occ",
				"energy": -0.27107,
				"method": "rhf"
			},
			{
				"type": "occ",
				"energy": -0.25323,
				"method": "rhf"
			},
			{
				"type": "occ",
				"energy": -0.24253,
				"method": "rhf"
			},
			{
				"type": "unocc",
				"energy": -0.03009,
				"method": "rhf"
			},
			{
				"type": "unocc",
				"energy": -0.00444,
				"method": "rhf"
			},
			{
				"type": "unocc",
				"energy": 0.00545,
				"method": "rhf"
			},
			{
				"type": "unocc",
				"energy": 0.038,
				"method": "rhf"
			},
			{
				"type": "unocc",
				"energy": 0.08036,
				"method": "rhf"
			}
		],
		"cosmo_sigma_profile": { 
			"-0.025": 0.0,
			"-0.024": 0.0,
			"-0.023": 0.0,
			"-0.022": 0.0,
			"-0.021": 0.0,
			"-0.02": 0.0688019106306,
			"-0.019": 0.647102689433,
			"-0.018": 0.821096714087,
			"-0.017": 1.91233169705,
			"-0.016": 0.704959930831,
			"-0.015": 1.05368048883,
			"-0.014": 1.26671928904,
			"-0.013": 0.903242933803,
			"-0.012": 1.20230905123,
			"-0.011": 1.77902534983,
			"-0.01": 2.85424579222,
			"-0.009": 3.77254126206,
			"-0.008": 7.43792147269,
			"-0.007": 9.61406323831,
			"-0.006": 10.3415615154,
			"-0.005": 9.91593094241,
			"-0.004": 10.4824622387,
			"-0.003": 11.1633490668,
			"-0.002": 11.7803925528,
			"-0.001": 9.48476288782,
			"0.0": 12.1036266527,
			"0.001": 18.6479779384,
			"0.002": 16.8878242171,
			"0.003": 14.6319983289,
			"0.004": 19.2903150985,
			"0.005": 8.09378734973,
			"0.006": 2.67023881566,
			"0.007": 3.18348480624,
			"0.008": 3.60445779247,
			"0.009": 4.53688787066,
			"0.01": 5.79898823627,
			"0.011": 5.84865683115,
			"0.012": 4.79387746918,
			"0.013": 1.53156108708,
			"0.014": 0.573494537219,
			"0.015": 0.599399060603,
			"0.016": 0.570987777423,
			"0.017": 0.497670659339,
			"0.018": 0.201252004311,
			"0.019": 0.0,
			"0.02": 0.0,
			"0.021": 0.0,
			"0.022": 0.0,
			"0.023": 0.0,
			"0.024": 0.0,
			"0.025": 0.0
		}
	}
}
