{
	 "smiles": "CC(=O)NC1=CC=C(C=C1)S(=O)(=O)NCC1=CC=C(C=C1)C(O)=O", 
	 "Tm": 543.15, 
	 "num_atms": 40, 
	 "gaussian": { 
		 "optdone": 1, 
		 "sigma_profile": "yes", 
		 "theory": "DFT", 
		 "functional": "B3LYP", 
		 "basiset": "6-31G**", 
		 "properties": { 
			 "R2extent": 14053.5261, 
			 "electric_dipole_moment_norm": 5.47318044833, 
			 "electric_quadrupole_moment_norm": 37.4074586425, 
			 "total_energy": -1503.10865033, 
			 "HOMO_LUMO_gap": 0.19377, 
			 "cosmo_polarized_energy": -35.92, 
			 "cosmo_cavitation_energy": 46.62, 
			 "cosmo_dispersion_energy": -32.84, 
			 "cosmo_repulsion_energy": 2.46, 
			 "cosmo_total_nonelectrostatic_energy": 16.24, 
			 "SMD_solvation_energy": 8.69 
		},
		"coords": [
			{
				"x": -1.889779588,
				"y": 0.5323674275,
				"z": -5.4944186001,
				"element": "C" 
			},
			{
				"x": -1.1287804456,
				"y": 1.8391124365,
				"z": -5.4132464008,
				"element": "C" 
			},
			{
				"x": -0.8209336556,
				"y": 2.4747811929,
				"z": -6.4079808655,
				"element": "O" 
			},
			{
				"x": -0.785847155,
				"y": 2.3565091718,
				"z": -4.1641771032,
				"element": "N" 
			},
			{
				"x": -0.9920621524,
				"y": 1.9167877695,
				"z": -2.8491480227,
				"element": "C" 
			},
			{
				"x": -1.1262281771,
				"y": 2.8980739044,
				"z": -1.8462494534,
				"element": "C" 
			},
			{
				"x": -1.3015403514,
				"y": 2.5399025018,
				"z": -0.5172591142,
				"element": "C" 
			},
			{
				"x": -1.3528633752,
				"y": 1.1858386227,
				"z": -0.1688373693,
				"element": "C" 
			},
			{
				"x": -1.2229655241,
				"y": 0.2001998526,
				"z": -1.1490142885,
				"element": "C" 
			},
			{
				"x": -1.0276489462,
				"y": 0.5614239732,
				"z": -2.4804349016,
				"element": "C" 
			},
			{
				"x": -1.5747948245,
				"y": 0.7174239922,
				"z": 1.5468647184,
				"element": "S" 
			},
			{
				"x": -2.0468780222,
				"y": -0.6660637583,
				"z": 1.5562100606,
				"element": "O" 
			},
			{
				"x": -2.281618673,
				"y": 1.8079056352,
				"z": 2.2202008539,
				"element": "O" 
			},
			{
				"x": -0.0433798834,
				"y": 0.710425332,
				"z": 2.2568452198,
				"element": "N" 
			},
			{
				"x": 1.008391254,
				"y": -0.1804935658,
				"z": 1.7546822189,
				"element": "C" 
			},
			{
				"x": 0.9792623493,
				"y": -1.5820422905,
				"z": 2.3393828548,
				"element": "C" 
			},
			{
				"x": 0.3674358387,
				"y": -1.8582815893,
				"z": 3.5648603905,
				"element": "C" 
			},
			{
				"x": 0.4030302112,
				"y": -3.1468963704,
				"z": 4.0934097862,
				"element": "C" 
			},
			{
				"x": 1.0556994913,
				"y": -4.1822530622,
				"z": 3.410215366,
				"element": "C" 
			},
			{
				"x": 1.6893132987,
				"y": -3.898575169,
				"z": 2.1931242991,
				"element": "C" 
			},
			{
				"x": 1.6388643265,
				"y": -2.6154917085,
				"z": 1.6603163631,
				"element": "C" 
			},
			{
				"x": 1.1389522974,
				"y": -5.5852150325,
				"z": 3.9295704096,
				"element": "C" 
			},
			{
				"x": 0.2054918141,
				"y": -5.9544568518,
				"z": 4.8477251197,
				"element": "O" 
			},
			{
				"x": 1.9798729928,
				"y": -6.3770543583,
				"z": 3.5723074037,
				"element": "O" 
			},
			{
				"x": -1.199105447,
				"y": -0.3165599748,
				"z": -5.4493625406,
				"element": "H" 
			},
			{
				"x": -2.6265469375,
				"y": 0.4185312835,
				"z": -4.6958973902,
				"element": "H" 
			},
			{
				"x": -2.3848274183,
				"y": 0.5098169956,
				"z": -6.4654483851,
				"element": "H" 
			},
			{
				"x": -0.4060684466,
				"y": 3.2906952774,
				"z": -4.2647707929,
				"element": "H" 
			},
			{
				"x": -1.1143218848,
				"y": 3.9479700089,
				"z": -2.1254419191,
				"element": "H" 
			},
			{
				"x": -1.4359181535,
				"y": 3.3009838286,
				"z": 0.2441937396,
				"element": "H" 
			},
			{
				"x": -1.2824494058,
				"y": -0.8457646917,
				"z": -0.8683227595,
				"element": "H" 
			},
			{
				"x": -0.8861723995,
				"y": -0.2142822831,
				"z": -3.220979077,
				"element": "H" 
			},
			{
				"x": 0.2502024981,
				"y": 1.6616931444,
				"z": 2.4502659176,
				"element": "H" 
			},
			{
				"x": 1.002670203,
				"y": -0.2394065874,
				"z": 0.6566901318,
				"element": "H" 
			},
			{
				"x": 1.9589627141,
				"y": 0.2960111538,
				"z": 2.023637476,
				"element": "H" 
			},
			{
				"x": -0.1449612258,
				"y": -1.0629402973,
				"z": 4.0939308371,
				"element": "H" 
			},
			{
				"x": -0.056460712,
				"y": -3.3232426003,
				"z": 5.0632644695,
				"element": "H" 
			},
			{
				"x": 2.2065554695,
				"y": -4.7015224216,
				"z": 1.6791631411,
				"element": "H" 
			},
			{
				"x": 2.1184822842,
				"y": -2.4130123431,
				"z": 0.7053024942,
				"element": "H" 
			},
			{
				"x": -0.4894342383,
				"y": -5.2839985483,
				"z": 4.9042257122,
				"element": "H" 
			}
		],
		 "valence_orbital": [ 
			{
				"type": "occ",
				"energy": -0.27394,
				"method": "rhf"
			},
			{
				"type": "occ",
				"energy": -0.27283,
				"method": "rhf"
			},
			{
				"type": "occ",
				"energy": -0.26983,
				"method": "rhf"
			},
			{
				"type": "occ",
				"energy": -0.25817,
				"method": "rhf"
			},
			{
				"type": "occ",
				"energy": -0.25019,
				"method": "rhf"
			},
			{
				"type": "unocc",
				"energy": -0.05642,
				"method": "rhf"
			},
			{
				"type": "unocc",
				"energy": -0.05026,
				"method": "rhf"
			},
			{
				"type": "unocc",
				"energy": -0.0414,
				"method": "rhf"
			},
			{
				"type": "unocc",
				"energy": -0.02122,
				"method": "rhf"
			},
			{
				"type": "unocc",
				"energy": 0.00792,
				"method": "rhf"
			}
		],
		"cosmo_sigma_profile": { 
			"-0.025": 0.0,
			"-0.024": 0.0,
			"-0.023": 0.0,
			"-0.022": 0.0,
			"-0.021": 0.0,
			"-0.02": 0.0,
			"-0.019": 0.0599267241391,
			"-0.018": 0.905757937704,
			"-0.017": 0.967409862792,
			"-0.016": 1.04877582567,
			"-0.015": 2.72467534701,
			"-0.014": 3.05438308989,
			"-0.013": 3.11829202133,
			"-0.012": 4.41692322568,
			"-0.011": 3.44076110003,
			"-0.01": 4.0799854442,
			"-0.009": 5.04613538367,
			"-0.008": 9.96548188743,
			"-0.007": 14.8444690413,
			"-0.006": 22.3164946265,
			"-0.005": 25.2656457901,
			"-0.004": 23.6361479571,
			"-0.003": 21.7363034069,
			"-0.002": 20.9154038165,
			"-0.001": 19.8440306899,
			"0.0": 18.5319590786,
			"0.001": 21.0686823729,
			"0.002": 26.4372253116,
			"0.003": 19.1067037729,
			"0.004": 10.9885603967,
			"0.005": 7.20048291923,
			"0.006": 7.12793560433,
			"0.007": 8.39772818303,
			"0.008": 7.27011687043,
			"0.009": 8.85309263519,
			"0.01": 12.7008685478,
			"0.011": 16.0069767799,
			"0.012": 11.9610057022,
			"0.013": 7.06607845987,
			"0.014": 1.65387046616,
			"0.015": 0.0455177133488,
			"0.016": 0.0,
			"0.017": 0.0,
			"0.018": 0.0,
			"0.019": 0.0,
			"0.02": 0.0,
			"0.021": 0.0,
			"0.022": 0.0,
			"0.023": 0.0,
			"0.024": 0.0,
			"0.025": 0.0
		}
	}
}
