{
	 "smiles": "IC1=C2NC(=O)C(=O)C2=CC=C1", 
	 "Tm": 474.15, 
	 "num_atms": 16, 
	 "gaussian": { 
		 "optdone": 1, 
		 "sigma_profile": "yes", 
		 "theory": "DFT", 
		 "functional": "B3LYP", 
		 "basiset": "6-31G**", 
		 "properties": { 
			 "R2extent": 2478.5655, 
			 "electric_dipole_moment_norm": 4.96758943654, 
			 "electric_quadrupole_moment_norm": 14.1008513424, 
			 "total_energy": -523.84486038, 
			 "HOMO_LUMO_gap": 0.14034, 
			 "cosmo_polarized_energy": -13.14, 
			 "cosmo_cavitation_energy": 24.61, 
			 "cosmo_dispersion_energy": -19.5, 
			 "cosmo_repulsion_energy": 1.51, 
			 "cosmo_total_nonelectrostatic_energy": 6.62, 
			 "SMD_solvation_energy": 4.65 
		},
		"coords": [
			{
				"x": 3.3706571941,
				"y": 0.96016827,
				"z": -0.4205352612,
				"element": "I" 
			},
			{
				"x": 1.7613641277,
				"y": 0.348237532,
				"z": -1.6473641423,
				"element": "C" 
			},
			{
				"x": 0.6225679976,
				"y": -0.2231371896,
				"z": -1.0899489269,
				"element": "C" 
			},
			{
				"x": 0.3270380695,
				"y": -0.4873762141,
				"z": 0.2484728831,
				"element": "N" 
			},
			{
				"x": -0.9243818922,
				"y": -1.0707498315,
				"z": 0.4025990843,
				"element": "C" 
			},
			{
				"x": -1.4494084988,
				"y": -1.4095509854,
				"z": 1.4368558656,
				"element": "O" 
			},
			{
				"x": -1.4949992533,
				"y": -1.1879570492,
				"z": -1.0545863479,
				"element": "C" 
			},
			{
				"x": -2.5766147781,
				"y": -1.6518852761,
				"z": -1.336284769,
				"element": "O" 
			},
			{
				"x": -0.4434771258,
				"y": -0.6263227579,
				"z": -1.9234484216,
				"element": "C" 
			},
			{
				"x": -0.386141409,
				"y": -0.4664390927,
				"z": -3.3026564872,
				"element": "C" 
			},
			{
				"x": 0.7588791532,
				"y": 0.1076856915,
				"z": -3.8606195144,
				"element": "C" 
			},
			{
				"x": 1.8181326142,
				"y": 0.5090976122,
				"z": -3.0393873913,
				"element": "C" 
			},
			{
				"x": 0.9457961414,
				"y": -0.2815139984,
				"z": 1.0206447269,
				"element": "H" 
			},
			{
				"x": -1.2218053107,
				"y": -0.7862477013,
				"z": -3.9171969159,
				"element": "H" 
			},
			{
				"x": 0.8378656647,
				"y": 0.2476598783,
				"z": -4.93355446,
				"element": "H" 
			},
			{
				"x": 2.7022273054,
				"y": 0.9537311122,
				"z": -3.4835899222,
				"element": "H" 
			}
		],
		 "valence_orbital": [ 
			{
				"type": "occ",
				"energy": -0.31842,
				"method": "rhf"
			},
			{
				"type": "occ",
				"energy": -0.29453,
				"method": "rhf"
			},
			{
				"type": "occ",
				"energy": -0.27091,
				"method": "rhf"
			},
			{
				"type": "occ",
				"energy": -0.25537,
				"method": "rhf"
			},
			{
				"type": "occ",
				"energy": -0.24729,
				"method": "rhf"
			},
			{
				"type": "unocc",
				"energy": -0.10695,
				"method": "rhf"
			},
			{
				"type": "unocc",
				"energy": -0.05915,
				"method": "rhf"
			},
			{
				"type": "unocc",
				"energy": -0.03685,
				"method": "rhf"
			},
			{
				"type": "unocc",
				"energy": -0.00535,
				"method": "rhf"
			},
			{
				"type": "unocc",
				"energy": 0.02533,
				"method": "rhf"
			}
		],
		"cosmo_sigma_profile": { 
			"-0.025": 0.0,
			"-0.024": 0.0,
			"-0.023": 0.0,
			"-0.022": 0.0,
			"-0.021": 0.0,
			"-0.02": 0.0,
			"-0.019": 0.0,
			"-0.018": 0.0,
			"-0.017": 0.0,
			"-0.016": 0.269721621529,
			"-0.015": 0.684385597512,
			"-0.014": 0.584927069421,
			"-0.013": 1.00650845738,
			"-0.012": 0.552519299826,
			"-0.011": 1.19448781123,
			"-0.01": 1.27286529252,
			"-0.009": 0.871215972112,
			"-0.008": 6.3553786574,
			"-0.007": 11.1149228331,
			"-0.006": 11.4359322456,
			"-0.005": 10.7199200849,
			"-0.004": 10.4521486817,
			"-0.003": 10.7308155438,
			"-0.002": 15.2842244905,
			"-0.001": 14.308755271,
			"0.0": 17.1131071507,
			"0.001": 18.29826188,
			"0.002": 16.1941290036,
			"0.003": 11.9510136903,
			"0.004": 8.28567265902,
			"0.005": 1.82530475595,
			"0.006": 2.32477654683,
			"0.007": 3.18108045425,
			"0.008": 4.32412611428,
			"0.009": 5.36777765829,
			"0.01": 8.9269513395,
			"0.011": 7.64821825007,
			"0.012": 1.8343325462,
			"0.013": 0.00649071625398,
			"0.014": 0.0,
			"0.015": 0.0,
			"0.016": 0.0,
			"0.017": 0.0,
			"0.018": 0.0,
			"0.019": 0.0,
			"0.02": 0.0,
			"0.021": 0.0,
			"0.022": 0.0,
			"0.023": 0.0,
			"0.024": 0.0,
			"0.025": 0.0
		}
	}
}
