{
	 "smiles": "ClC1=CC=C(C=C1)C1=C(C(=CO1)C(=O)C1=CC=CC=C1)S(=O)(=O)C1=CC=CC=C1", 
	 "Tm": 369.65, 
	 "num_atms": 44, 
	 "gaussian": { 
		 "optdone": 1, 
		 "sigma_profile": "yes", 
		 "theory": "DFT", 
		 "functional": "B3LYP", 
		 "basiset": "6-31G**", 
		 "properties": { 
			 "R2extent": 14503.7128, 
			 "electric_dipole_moment_norm": 4.12036919948, 
			 "electric_quadrupole_moment_norm": 28.6908683628, 
			 "total_energy": -2044.66873542, 
			 "HOMO_LUMO_gap": 0.16354, 
			 "cosmo_polarized_energy": -18.09, 
			 "cosmo_cavitation_energy": 52.1, 
			 "cosmo_dispersion_energy": -35.89, 
			 "cosmo_repulsion_energy": 2.66, 
			 "cosmo_total_nonelectrostatic_energy": 18.87, 
			 "SMD_solvation_energy": 8.78 
		},
		"coords": [
			{
				"x": -1.7290332725,
				"y": -0.4318086348,
				"z": 6.8498736444,
				"element": "Cl" 
			},
			{
				"x": -1.057014976,
				"y": -0.1174018856,
				"z": 5.2590416784,
				"element": "C" 
			},
			{
				"x": -0.887494867,
				"y": 1.2009205807,
				"z": 4.8342976045,
				"element": "C" 
			},
			{
				"x": -0.3565559171,
				"y": 1.4432649731,
				"z": 3.5722990729,
				"element": "C" 
			},
			{
				"x": 0.0057639956,
				"y": 0.381179989,
				"z": 2.7207186082,
				"element": "C" 
			},
			{
				"x": -0.1630835537,
				"y": -0.937070548,
				"z": 3.1767255459,
				"element": "C" 
			},
			{
				"x": -0.6962524177,
				"y": -1.1856947765,
				"z": 4.4399123204,
				"element": "C" 
			},
			{
				"x": 0.5795240676,
				"y": 0.7088670458,
				"z": 1.4098313653,
				"element": "C" 
			},
			{
				"x": 0.5726132827,
				"y": 0.1944842558,
				"z": 0.125134351,
				"element": "C" 
			},
			{
				"x": 1.329614222,
				"y": 1.1031106008,
				"z": -0.7067692428,
				"element": "C" 
			},
			{
				"x": 1.7452057907,
				"y": 2.0911137184,
				"z": 0.1317364728,
				"element": "C" 
			},
			{
				"x": 1.294093276,
				"y": 1.8767754045,
				"z": 1.3948308665,
				"element": "O" 
			},
			{
				"x": 1.4967665496,
				"y": 1.1448860536,
				"z": -2.2030016865,
				"element": "C" 
			},
			{
				"x": 0.5104140025,
				"y": 1.265942544,
				"z": -2.9163480678,
				"element": "O" 
			},
			{
				"x": 2.8734670063,
				"y": 1.1291081034,
				"z": -2.7722432831,
				"element": "C" 
			},
			{
				"x": 4.0067358389,
				"y": 0.82954549,
				"z": -2.0006637201,
				"element": "C" 
			},
			{
				"x": 5.2711658442,
				"y": 0.8152853101,
				"z": -2.5890825419,
				"element": "C" 
			},
			{
				"x": 5.4124567328,
				"y": 1.1022538546,
				"z": -3.9477979075,
				"element": "C" 
			},
			{
				"x": 4.2861184128,
				"y": 1.396860991,
				"z": -4.7243091926,
				"element": "C" 
			},
			{
				"x": 3.0238641807,
				"y": 1.4059516037,
				"z": -4.1419658504,
				"element": "C" 
			},
			{
				"x": -0.1659270536,
				"y": -1.3103253813,
				"z": -0.5064455731,
				"element": "S" 
			},
			{
				"x": -0.0850982405,
				"y": -2.3538177929,
				"z": 0.5305008241,
				"element": "O" 
			},
			{
				"x": 0.4528547349,
				"y": -1.5333563384,
				"z": -1.8183841565,
				"element": "O" 
			},
			{
				"x": -1.9033155066,
				"y": -0.9059202355,
				"z": -0.7286407674,
				"element": "C" 
			},
			{
				"x": -2.8426713603,
				"y": -1.4966449936,
				"z": 0.1181145582,
				"element": "C" 
			},
			{
				"x": -4.1943476321,
				"y": -1.2043058714,
				"z": -0.070093018,
				"element": "C" 
			},
			{
				"x": -4.5863448857,
				"y": -0.3334653738,
				"z": -1.0886556781,
				"element": "C" 
			},
			{
				"x": -3.6313536649,
				"y": 0.2490760871,
				"z": -1.9270277935,
				"element": "C" 
			},
			{
				"x": -2.2767869062,
				"y": -0.0350252235,
				"z": -1.756593091,
				"element": "C" 
			},
			{
				"x": -1.1713235235,
				"y": 2.0232983235,
				"z": 5.4813206877,
				"element": "H" 
			},
			{
				"x": -0.2263157674,
				"y": 2.4664324317,
				"z": 3.2381170041,
				"element": "H" 
			},
			{
				"x": 0.1275896971,
				"y": -1.7656648866,
				"z": 2.5445730037,
				"element": "H" 
			},
			{
				"x": -0.8198185011,
				"y": -2.2046916703,
				"z": 4.7893204013,
				"element": "H" 
			},
			{
				"x": 2.3239097464,
				"y": 2.9886748818,
				"z": -0.0215470197,
				"element": "H" 
			},
			{
				"x": 3.8966434223,
				"y": 0.592867218,
				"z": -0.9480527159,
				"element": "H" 
			},
			{
				"x": 6.1438224423,
				"y": 0.5755513188,
				"z": -1.9890046383,
				"element": "H" 
			},
			{
				"x": 6.3981837542,
				"y": 1.0922325359,
				"z": -4.4042694721,
				"element": "H" 
			},
			{
				"x": 4.3974192801,
				"y": 1.6155958563,
				"z": -5.7821998913,
				"element": "H" 
			},
			{
				"x": 2.1346028436,
				"y": 1.623181901,
				"z": -4.7238173953,
				"element": "H" 
			},
			{
				"x": -2.5130373845,
				"y": -2.1768061905,
				"z": 0.8950345422,
				"element": "H" 
			},
			{
				"x": -4.9383622165,
				"y": -1.6587966707,
				"z": 0.577079981,
				"element": "H" 
			},
			{
				"x": -5.6394612089,
				"y": -0.1087190802,
				"z": -1.2312798343,
				"element": "H" 
			},
			{
				"x": -3.9412623123,
				"y": 0.9239895779,
				"z": -2.7191669731,
				"element": "H" 
			},
			{
				"x": -1.5217679553,
				"y": 0.4144649033,
				"z": -2.3944030221,
				"element": "H" 
			}
		],
		 "valence_orbital": [ 
			{
				"type": "occ",
				"energy": -0.26668,
				"method": "rhf"
			},
			{
				"type": "occ",
				"energy": -0.26521,
				"method": "rhf"
			},
			{
				"type": "occ",
				"energy": -0.26379,
				"method": "rhf"
			},
			{
				"type": "occ",
				"energy": -0.26187,
				"method": "rhf"
			},
			{
				"type": "occ",
				"energy": -0.2326,
				"method": "rhf"
			},
			{
				"type": "unocc",
				"energy": -0.06906,
				"method": "rhf"
			},
			{
				"type": "unocc",
				"energy": -0.05872,
				"method": "rhf"
			},
			{
				"type": "unocc",
				"energy": -0.03308,
				"method": "rhf"
			},
			{
				"type": "unocc",
				"energy": -0.02102,
				"method": "rhf"
			},
			{
				"type": "unocc",
				"energy": -0.01481,
				"method": "rhf"
			}
		],
		"cosmo_sigma_profile": { 
			"-0.025": 0.0,
			"-0.024": 0.0,
			"-0.023": 0.0,
			"-0.022": 0.0,
			"-0.021": 0.0,
			"-0.02": 0.0,
			"-0.019": 0.0,
			"-0.018": 0.0,
			"-0.017": 0.0,
			"-0.016": 0.0,
			"-0.015": 0.0,
			"-0.014": 0.0,
			"-0.013": 0.0,
			"-0.012": 0.0,
			"-0.011": 1.09437341993,
			"-0.01": 2.00486490603,
			"-0.009": 1.72282513555,
			"-0.008": 3.33145281435,
			"-0.007": 15.4773594463,
			"-0.006": 25.3533983859,
			"-0.005": 27.9089218243,
			"-0.004": 26.0292692816,
			"-0.003": 24.7190443104,
			"-0.002": 28.8640676021,
			"-0.001": 32.9206726319,
			"0.0": 35.4629480723,
			"0.001": 38.2586643104,
			"0.002": 45.5025168878,
			"0.003": 43.3254898264,
			"0.004": 25.4225027356,
			"0.005": 8.23776756061,
			"0.006": 4.82002094388,
			"0.007": 4.26556754018,
			"0.008": 5.48426329065,
			"0.009": 6.52642922235,
			"0.01": 7.17723853111,
			"0.011": 7.92403801396,
			"0.012": 1.90212648346,
			"0.013": 0.0,
			"0.014": 0.0,
			"0.015": 0.0,
			"0.016": 0.0,
			"0.017": 0.0,
			"0.018": 0.0,
			"0.019": 0.0,
			"0.02": 0.0,
			"0.021": 0.0,
			"0.022": 0.0,
			"0.023": 0.0,
			"0.024": 0.0,
			"0.025": 0.0
		}
	}
}
