{
	 "smiles": "FC(F)(F)OC1=CC(=CC=C1C#N)C#N", 
	 "Tm": 353.15, 
	 "num_atms": 18, 
	 "gaussian": { 
		 "optdone": 1, 
		 "sigma_profile": "yes", 
		 "theory": "DFT", 
		 "functional": "B3LYP", 
		 "basiset": "6-31G**", 
		 "properties": { 
			 "R2extent": 3511.5453, 
			 "electric_dipole_moment_norm": 1.56848724891, 
			 "electric_quadrupole_moment_norm": 24.5977128335, 
			 "total_energy": -828.970830366, 
			 "HOMO_LUMO_gap": 0.18922, 
			 "cosmo_polarized_energy": -12.91, 
			 "cosmo_cavitation_energy": 27.39, 
			 "cosmo_dispersion_energy": -17.94, 
			 "cosmo_repulsion_energy": 1.35, 
			 "cosmo_total_nonelectrostatic_energy": 10.8, 
			 "SMD_solvation_energy": 8.91 
		},
		"coords": [
			{
				"x": -2.308904296,
				"y": -1.380552816,
				"z": -2.5782015629,
				"element": "F" 
			},
			{
				"x": -1.7066907968,
				"y": -1.3045722192,
				"z": -1.4001939869,
				"element": "C" 
			},
			{
				"x": -2.3288854757,
				"y": -2.1305648202,
				"z": -0.5368282347,
				"element": "F" 
			},
			{
				"x": -0.4384620742,
				"y": -1.7243812695,
				"z": -1.5146197443,
				"element": "F" 
			},
			{
				"x": -1.7729524236,
				"y": 0.0011067513,
				"z": -0.9905419936,
				"element": "O" 
			},
			{
				"x": -1.1295882299,
				"y": 0.3376358322,
				"z": 0.1930373113,
				"element": "C" 
			},
			{
				"x": -1.7146956212,
				"y": 0.0437440066,
				"z": 1.4170130747,
				"element": "C" 
			},
			{
				"x": -1.0811341727,
				"y": 0.4647372622,
				"z": 2.5967853469,
				"element": "C" 
			},
			{
				"x": 0.1268517019,
				"y": 1.1807360338,
				"z": 2.5385041606,
				"element": "C" 
			},
			{
				"x": 0.6979757704,
				"y": 1.4731120831,
				"z": 1.3069410621,
				"element": "C" 
			},
			{
				"x": 0.0786029986,
				"y": 1.0528072748,
				"z": 0.1174858793,
				"element": "C" 
			},
			{
				"x": 0.6700125216,
				"y": 1.3498576679,
				"z": -1.1519918234,
				"element": "C" 
			},
			{
				"x": 1.1744007218,
				"y": 1.6049679537,
				"z": -2.1676652245,
				"element": "N" 
			},
			{
				"x": -1.6768687947,
				"y": 0.1668955675,
				"z": 3.8670108794,
				"element": "C" 
			},
			{
				"x": -2.1564378525,
				"y": -0.0726507697,
				"z": 4.8987478552,
				"element": "N" 
			},
			{
				"x": -2.65075497,
				"y": -0.4990955111,
				"z": 1.4500520646,
				"element": "H" 
			},
			{
				"x": 0.6050761511,
				"y": 1.5045932684,
				"z": 3.455785594,
				"element": "H" 
			},
			{
				"x": 1.6284548419,
				"y": 2.0265237041,
				"z": 1.2502793422,
				"element": "H" 
			}
		],
		 "valence_orbital": [ 
			{
				"type": "occ",
				"energy": -0.35762,
				"method": "rhf"
			},
			{
				"type": "occ",
				"energy": -0.35623,
				"method": "rhf"
			},
			{
				"type": "occ",
				"energy": -0.35505,
				"method": "rhf"
			},
			{
				"type": "occ",
				"energy": -0.30912,
				"method": "rhf"
			},
			{
				"type": "occ",
				"energy": -0.29319,
				"method": "rhf"
			},
			{
				"type": "unocc",
				"energy": -0.10397,
				"method": "rhf"
			},
			{
				"type": "unocc",
				"energy": -0.06097,
				"method": "rhf"
			},
			{
				"type": "unocc",
				"energy": 0.00562,
				"method": "rhf"
			},
			{
				"type": "unocc",
				"energy": 0.01102,
				"method": "rhf"
			},
			{
				"type": "unocc",
				"energy": 0.01429,
				"method": "rhf"
			}
		],
		"cosmo_sigma_profile": { 
			"-0.025": 0.0,
			"-0.024": 0.0,
			"-0.023": 0.0,
			"-0.022": 0.0,
			"-0.021": 0.0,
			"-0.02": 0.0,
			"-0.019": 0.0,
			"-0.018": 0.0,
			"-0.017": 0.0,
			"-0.016": 0.0,
			"-0.015": 0.0,
			"-0.014": 0.0,
			"-0.013": 0.0,
			"-0.012": 0.0,
			"-0.011": 0.217865660851,
			"-0.01": 4.77452668815,
			"-0.009": 7.40221103128,
			"-0.008": 6.62955025448,
			"-0.007": 5.83569321356,
			"-0.006": 5.79370148744,
			"-0.005": 6.8772603269,
			"-0.004": 15.3661741448,
			"-0.003": 21.4301236763,
			"-0.002": 19.5002450583,
			"-0.001": 15.2354815862,
			"0.0": 14.5729221847,
			"0.001": 28.0958351507,
			"0.002": 17.0712927866,
			"0.003": 5.3908633574,
			"0.004": 7.05793661737,
			"0.005": 5.29533466351,
			"0.006": 6.0209536662,
			"0.007": 6.40175001312,
			"0.008": 6.28861101121,
			"0.009": 5.89020277104,
			"0.01": 5.3280482618,
			"0.011": 4.72258392504,
			"0.012": 2.69372769306,
			"0.013": 0.0665555431799,
			"0.014": 0.0,
			"0.015": 0.0,
			"0.016": 0.0,
			"0.017": 0.0,
			"0.018": 0.0,
			"0.019": 0.0,
			"0.02": 0.0,
			"0.021": 0.0,
			"0.022": 0.0,
			"0.023": 0.0,
			"0.024": 0.0,
			"0.025": 0.0
		}
	}
}
