{
	 "smiles": "OC(=O)C1=C(Cl)C(Cl)=C(Cl)C(Cl)=C1Cl", 
	 "Tm": 482.15, 
	 "num_atms": 15, 
	 "gaussian": { 
		 "optdone": 1, 
		 "sigma_profile": "yes", 
		 "theory": "DFT", 
		 "functional": "B3LYP", 
		 "basiset": "6-31G**", 
		 "properties": { 
			 "R2extent": 4834.0775, 
			 "electric_dipole_moment_norm": 1.54904767519, 
			 "electric_quadrupole_moment_norm": 9.93559544215, 
			 "total_energy": -2718.73504504, 
			 "HOMO_LUMO_gap": 0.2059, 
			 "cosmo_polarized_energy": -8.43, 
			 "cosmo_cavitation_energy": 29.35, 
			 "cosmo_dispersion_energy": -21.67, 
			 "cosmo_repulsion_energy": 1.71, 
			 "cosmo_total_nonelectrostatic_energy": 9.39, 
			 "SMD_solvation_energy": 4.9 
		},
		"coords": [
			{
				"x": 2.6528509361,
				"y": -0.6034491944,
				"z": -3.2490529694,
				"element": "O" 
			},
			{
				"x": 1.4877973796,
				"y": 0.0435735581,
				"z": -3.070057688,
				"element": "C" 
			},
			{
				"x": 0.8675801978,
				"y": 0.5960902222,
				"z": -3.9441006105,
				"element": "O" 
			},
			{
				"x": 1.0477335058,
				"y": -0.0082950811,
				"z": -1.6246389701,
				"element": "C" 
			},
			{
				"x": 0.2215611598,
				"y": -1.0431067462,
				"z": -1.1782187501,
				"element": "C" 
			},
			{
				"x": -0.2285910752,
				"y": -2.2984310485,
				"z": -2.2969979861,
				"element": "Cl" 
			},
			{
				"x": -0.2362086325,
				"y": -1.0729716089,
				"z": 0.1475182097,
				"element": "C" 
			},
			{
				"x": -1.2608418139,
				"y": -2.3613530797,
				"z": 0.6889247381,
				"element": "Cl" 
			},
			{
				"x": 0.144802333,
				"y": -0.0482755143,
				"z": 1.0320803862,
				"element": "C" 
			},
			{
				"x": -0.4163272825,
				"y": -0.0707161651,
				"z": 2.671912551,
				"element": "Cl" 
			},
			{
				"x": 0.9798806257,
				"y": 0.9940913424,
				"z": 0.5919325358,
				"element": "C" 
			},
			{
				"x": 1.4550582175,
				"y": 2.2550574939,
				"z": 1.6814587044,
				"element": "Cl" 
			},
			{
				"x": 1.4257087933,
				"y": 1.0036275996,
				"z": -0.7381693171,
				"element": "C" 
			},
			{
				"x": 2.4634806778,
				"y": 2.2774204296,
				"z": -1.3131800521,
				"element": "Cl" 
			},
			{
				"x": 2.8731149778,
				"y": -0.5298622077,
				"z": -4.1944107818,
				"element": "H" 
			}
		],
		 "valence_orbital": [ 
			{
				"type": "occ",
				"energy": -0.32906,
				"method": "rhf"
			},
			{
				"type": "occ",
				"energy": -0.31497,
				"method": "rhf"
			},
			{
				"type": "occ",
				"energy": -0.30615,
				"method": "rhf"
			},
			{
				"type": "occ",
				"energy": -0.27329,
				"method": "rhf"
			},
			{
				"type": "occ",
				"energy": -0.26748,
				"method": "rhf"
			},
			{
				"type": "unocc",
				"energy": -0.06158,
				"method": "rhf"
			},
			{
				"type": "unocc",
				"energy": -0.05862,
				"method": "rhf"
			},
			{
				"type": "unocc",
				"energy": -0.05337,
				"method": "rhf"
			},
			{
				"type": "unocc",
				"energy": -0.02184,
				"method": "rhf"
			},
			{
				"type": "unocc",
				"energy": 0.0042,
				"method": "rhf"
			}
		],
		"cosmo_sigma_profile": { 
			"-0.025": 0.0,
			"-0.024": 0.0,
			"-0.023": 0.0,
			"-0.022": 0.0,
			"-0.021": 0.0,
			"-0.02": 0.361290290029,
			"-0.019": 0.836092041155,
			"-0.018": 0.960972368731,
			"-0.017": 1.24679117205,
			"-0.016": 0.558421254991,
			"-0.015": 0.492641220735,
			"-0.014": 0.660553807733,
			"-0.013": 1.08473624579,
			"-0.012": 0.60178786433,
			"-0.011": 0.702706726626,
			"-0.01": 0.57779387196,
			"-0.009": 0.54786518799,
			"-0.008": 1.22442286227,
			"-0.007": 0.816364997066,
			"-0.006": 1.01871579981,
			"-0.005": 4.87302819465,
			"-0.004": 14.4066394592,
			"-0.003": 29.4376573958,
			"-0.002": 19.5012028389,
			"-0.001": 20.2493712341,
			"0.0": 24.2315268199,
			"0.001": 26.3127406993,
			"0.002": 41.992255673,
			"0.003": 30.1790256223,
			"0.004": 4.2528513265,
			"0.005": 2.54348098198,
			"0.006": 2.71946768714,
			"0.007": 2.77934358594,
			"0.008": 2.87433355982,
			"0.009": 2.68604474302,
			"0.01": 5.04922594909,
			"0.011": 1.66312295662,
			"0.012": 0.0310228815311,
			"0.013": 0.0,
			"0.014": 0.0,
			"0.015": 0.0,
			"0.016": 0.0,
			"0.017": 0.0,
			"0.018": 0.0,
			"0.019": 0.0,
			"0.02": 0.0,
			"0.021": 0.0,
			"0.022": 0.0,
			"0.023": 0.0,
			"0.024": 0.0,
			"0.025": 0.0
		}
	}
}
