{
	 "smiles": "OC1=CC2=C(C=CN2)C=C1", 
	 "Tm": 400.15, 
	 "num_atms": 17, 
	 "gaussian": { 
		 "optdone": 1, 
		 "sigma_profile": "yes", 
		 "theory": "DFT", 
		 "functional": "B3LYP", 
		 "basiset": "6-31G**", 
		 "properties": { 
			 "R2extent": 1613.0719, 
			 "electric_dipole_moment_norm": 3.22819150764, 
			 "electric_quadrupole_moment_norm": 7.20630259981, 
			 "total_energy": -439.039712866, 
			 "HOMO_LUMO_gap": 0.18812, 
			 "cosmo_polarized_energy": -12.95, 
			 "cosmo_cavitation_energy": 20.82, 
			 "cosmo_dispersion_energy": -15.97, 
			 "cosmo_repulsion_energy": 1.28, 
			 "cosmo_total_nonelectrostatic_energy": 6.13, 
			 "SMD_solvation_energy": 3.86 
		},
		"coords": [
			{
				"x": 2.5936209457,
				"y": -0.0188701789,
				"z": 0.5314422926,
				"element": "O" 
			},
			{
				"x": 1.4328539155,
				"y": -0.2836648717,
				"z": -0.1495304406,
				"element": "C" 
			},
			{
				"x": 0.1863673553,
				"y": 0.1265569748,
				"z": 0.3147694863,
				"element": "C" 
			},
			{
				"x": -0.9290976327,
				"y": -0.2017169123,
				"z": -0.4667169688,
				"element": "C" 
			},
			{
				"x": -0.8243836098,
				"y": -0.9228793361,
				"z": -1.6877937171,
				"element": "C" 
			},
			{
				"x": -2.1599608057,
				"y": -1.0709498158,
				"z": -2.2019049981,
				"element": "C" 
			},
			{
				"x": -3.0041080477,
				"y": -0.4607317592,
				"z": -1.3151788587,
				"element": "C" 
			},
			{
				"x": -2.2657931077,
				"y": 0.0663611327,
				"z": -0.2645886673,
				"element": "N" 
			},
			{
				"x": 0.4536095238,
				"y": -1.3186830635,
				"z": -2.1211413502,
				"element": "C" 
			},
			{
				"x": 1.5666502715,
				"y": -1.0013442129,
				"z": -1.3589403292,
				"element": "C" 
			},
			{
				"x": 2.3809642609,
				"y": 0.4720268053,
				"z": 1.3352550355,
				"element": "H" 
			},
			{
				"x": 0.088063572,
				"y": 0.6791290865,
				"z": 1.2468395975,
				"element": "H" 
			},
			{
				"x": -2.4518463859,
				"y": -1.5688129285,
				"z": -3.115651547,
				"element": "H" 
			},
			{
				"x": -4.0788402196,
				"y": -0.3517790966,
				"z": -1.3361192194,
				"element": "H" 
			},
			{
				"x": -2.6487338359,
				"y": 0.5657466582,
				"z": 0.5208064369,
				"element": "H" 
			},
			{
				"x": 0.5726352395,
				"y": -1.8711384415,
				"z": -3.0490552356,
				"element": "H" 
			},
			{
				"x": 2.5638985607,
				"y": -1.2941500404,
				"z": -1.6694915168,
				"element": "H" 
			}
		],
		 "valence_orbital": [ 
			{
				"type": "occ",
				"energy": -0.33431,
				"method": "rhf"
			},
			{
				"type": "occ",
				"energy": -0.30251,
				"method": "rhf"
			},
			{
				"type": "occ",
				"energy": -0.26375,
				"method": "rhf"
			},
			{
				"type": "occ",
				"energy": -0.21172,
				"method": "rhf"
			},
			{
				"type": "occ",
				"energy": -0.18777,
				"method": "rhf"
			},
			{
				"type": "unocc",
				"energy": 0.00035,
				"method": "rhf"
			},
			{
				"type": "unocc",
				"energy": 0.03871,
				"method": "rhf"
			},
			{
				"type": "unocc",
				"energy": 0.07542,
				"method": "rhf"
			},
			{
				"type": "unocc",
				"energy": 0.07924,
				"method": "rhf"
			},
			{
				"type": "unocc",
				"energy": 0.08206,
				"method": "rhf"
			}
		],
		"cosmo_sigma_profile": { 
			"-0.025": 0.0,
			"-0.024": 0.0,
			"-0.023": 0.0,
			"-0.022": 0.0,
			"-0.021": 0.0,
			"-0.02": 0.0,
			"-0.019": 0.0,
			"-0.018": 0.0228986073357,
			"-0.017": 0.737385433644,
			"-0.016": 1.31428711728,
			"-0.015": 2.59575082083,
			"-0.014": 2.52500598919,
			"-0.013": 1.90743007107,
			"-0.012": 2.18373287415,
			"-0.011": 1.95357162634,
			"-0.01": 2.36811399952,
			"-0.009": 2.91596458296,
			"-0.008": 3.10002446895,
			"-0.007": 5.1511540025,
			"-0.006": 5.01248832013,
			"-0.005": 9.29320978875,
			"-0.004": 7.45297888086,
			"-0.003": 8.48361700372,
			"-0.002": 9.31874039653,
			"-0.001": 6.6416615536,
			"0.0": 7.29792238043,
			"0.001": 7.46314022013,
			"0.002": 5.86508146994,
			"0.003": 8.67594728411,
			"0.004": 9.07358370758,
			"0.005": 15.7717195808,
			"0.006": 17.4560060812,
			"0.007": 12.1684452176,
			"0.008": 2.60599328135,
			"0.009": 1.80824855527,
			"0.01": 1.37274102005,
			"0.011": 2.01963629814,
			"0.012": 1.77323139743,
			"0.013": 0.14129529669,
			"0.014": 0.0,
			"0.015": 0.0,
			"0.016": 0.0,
			"0.017": 0.0,
			"0.018": 0.0,
			"0.019": 0.0,
			"0.02": 0.0,
			"0.021": 0.0,
			"0.022": 0.0,
			"0.023": 0.0,
			"0.024": 0.0,
			"0.025": 0.0
		}
	}
}
