{
	 "smiles": "OC1=CC2=C(C=C1)C(=O)C1=CC=C(O)C=C1C2=O", 
	 "Tm": 627.15, 
	 "num_atms": 26, 
	 "gaussian": { 
		 "optdone": 1, 
		 "sigma_profile": "yes", 
		 "theory": "DFT", 
		 "functional": "B3LYP", 
		 "basiset": "6-31G**", 
		 "properties": { 
			 "R2extent": 5191.8071, 
			 "electric_dipole_moment_norm": 1.78384846049, 
			 "electric_quadrupole_moment_norm": 35.5840603972, 
			 "total_energy": -839.219377382, 
			 "HOMO_LUMO_gap": 0.14109, 
			 "cosmo_polarized_energy": -20.39, 
			 "cosmo_cavitation_energy": 31.18, 
			 "cosmo_dispersion_energy": -23.25, 
			 "cosmo_repulsion_energy": 1.72, 
			 "cosmo_total_nonelectrostatic_energy": 9.65, 
			 "SMD_solvation_energy": 6.63 
		},
		"coords": [
			{
				"x": 3.1743823598,
				"y": 3.037973556,
				"z": 3.2206920983,
				"element": "O" 
			},
			{
				"x": 2.3214310181,
				"y": 2.4775521878,
				"z": 2.3230012097,
				"element": "C" 
			},
			{
				"x": 2.3670231547,
				"y": 1.0884832771,
				"z": 2.1727305341,
				"element": "C" 
			},
			{
				"x": 1.514338388,
				"y": 0.4612895693,
				"z": 1.2660649236,
				"element": "C" 
			},
			{
				"x": 0.6043396553,
				"y": 1.217974978,
				"z": 0.4976383006,
				"element": "C" 
			},
			{
				"x": 0.570883747,
				"y": 2.6078146365,
				"z": 0.6595984752,
				"element": "C" 
			},
			{
				"x": 1.4186485883,
				"y": 3.2376189143,
				"z": 1.5619227937,
				"element": "C" 
			},
			{
				"x": -0.3166909177,
				"y": 0.577638038,
				"z": -0.4764394954,
				"element": "C" 
			},
			{
				"x": -1.1076989484,
				"y": 1.2428738411,
				"z": -1.1427319114,
				"element": "O" 
			},
			{
				"x": -0.2428911347,
				"y": -0.9000432961,
				"z": -0.611236694,
				"element": "C" 
			},
			{
				"x": -1.0914875902,
				"y": -1.5480266963,
				"z": -1.5162161713,
				"element": "C" 
			},
			{
				"x": -1.0477019286,
				"y": -2.9282741196,
				"z": -1.6663354049,
				"element": "C" 
			},
			{
				"x": -0.1446186237,
				"y": -3.6876517599,
				"z": -0.9049227158,
				"element": "C" 
			},
			{
				"x": -0.0567699658,
				"y": -5.0400340818,
				"z": -1.0088198984,
				"element": "O" 
			},
			{
				"x": 0.7095171136,
				"y": -3.0552681003,
				"z": 0.00321519,
				"element": "C" 
			},
			{
				"x": 0.6617588171,
				"y": -1.6701187139,
				"z": 0.1501647565,
				"element": "C" 
			},
			{
				"x": 1.5882268218,
				"y": -1.0250656156,
				"z": 1.1294198516,
				"element": "C" 
			},
			{
				"x": 2.3758363723,
				"y": -1.687980596,
				"z": 1.7938623208,
				"element": "O" 
			},
			{
				"x": 3.0478749266,
				"y": 3.9960305008,
				"z": 3.2330387994,
				"element": "H" 
			},
			{
				"x": 3.0612950999,
				"y": 0.4952777124,
				"z": 2.7567231961,
				"element": "H" 
			},
			{
				"x": -0.1338748584,
				"y": 3.1762760735,
				"z": 0.0619786729,
				"element": "H" 
			},
			{
				"x": 1.3855917127,
				"y": 4.3186504373,
				"z": 1.6811607828,
				"element": "H" 
			},
			{
				"x": -1.7815848394,
				"y": -0.9428104884,
				"z": -2.0945421799,
				"element": "H" 
			},
			{
				"x": -1.7112134082,
				"y": -3.4234416733,
				"z": -2.3723836972,
				"element": "H" 
			},
			{
				"x": -0.6931037441,
				"y": -5.356417721,
				"z": -1.6638114113,
				"element": "H" 
			},
			{
				"x": 1.4091881843,
				"y": -3.63492086,
				"z": 0.5943276741,
				"element": "H" 
			}
		],
		 "valence_orbital": [ 
			{
				"type": "occ",
				"energy": -0.27018,
				"method": "rhf"
			},
			{
				"type": "occ",
				"energy": -0.26377,
				"method": "rhf"
			},
			{
				"type": "occ",
				"energy": -0.25137,
				"method": "rhf"
			},
			{
				"type": "occ",
				"energy": -0.24409,
				"method": "rhf"
			},
			{
				"type": "occ",
				"energy": -0.23654,
				"method": "rhf"
			},
			{
				"type": "unocc",
				"energy": -0.09545,
				"method": "rhf"
			},
			{
				"type": "unocc",
				"energy": -0.0521,
				"method": "rhf"
			},
			{
				"type": "unocc",
				"energy": -0.0161,
				"method": "rhf"
			},
			{
				"type": "unocc",
				"energy": -0.00286,
				"method": "rhf"
			},
			{
				"type": "unocc",
				"energy": 0.05637,
				"method": "rhf"
			}
		],
		"cosmo_sigma_profile": { 
			"-0.025": 0.0,
			"-0.024": 0.0,
			"-0.023": 0.0,
			"-0.022": 0.0,
			"-0.021": 0.0,
			"-0.02": 0.0,
			"-0.019": 0.577339064704,
			"-0.018": 2.77993358543,
			"-0.017": 2.0597969348,
			"-0.016": 2.53852532563,
			"-0.015": 2.46939043661,
			"-0.014": 1.90523378893,
			"-0.013": 1.36442797475,
			"-0.012": 2.68225572463,
			"-0.011": 2.01846011251,
			"-0.01": 2.01139600583,
			"-0.009": 2.84581577756,
			"-0.008": 3.48052981506,
			"-0.007": 4.78088089792,
			"-0.006": 8.74834025739,
			"-0.005": 10.1443184562,
			"-0.004": 11.4892420122,
			"-0.003": 10.9720354023,
			"-0.002": 11.1692120794,
			"-0.001": 12.8726638484,
			"0.0": 19.4911719174,
			"0.001": 35.6500740998,
			"0.002": 28.7856733239,
			"0.003": 12.4162039203,
			"0.004": 6.22527323445,
			"0.005": 7.22011189521,
			"0.006": 6.1444284196,
			"0.007": 4.84637823194,
			"0.008": 6.21867912061,
			"0.009": 6.78021468401,
			"0.01": 8.06763363756,
			"0.011": 7.44223971347,
			"0.012": 4.59121475498,
			"0.013": 0.277311516519,
			"0.014": 0.0,
			"0.015": 0.0,
			"0.016": 0.0,
			"0.017": 0.0,
			"0.018": 0.0,
			"0.019": 0.0,
			"0.02": 0.0,
			"0.021": 0.0,
			"0.022": 0.0,
			"0.023": 0.0,
			"0.024": 0.0,
			"0.025": 0.0
		}
	}
}
