{
	 "smiles": "C[C@@H]1O[C@@H](OCC2=CC=CC=C2)[C@H](OC(C)=O)[C@H](OC(C)=O)[C@H]1OC(C)=O", 
	 "Tm": 385.15, 
	 "num_atms": 51, 
	 "gaussian": { 
		 "optdone": 1, 
		 "sigma_profile": "yes", 
		 "theory": "DFT", 
		 "functional": "B3LYP", 
		 "basiset": "6-31G**", 
		 "properties": { 
			 "R2extent": 11405.4819, 
			 "electric_dipole_moment_norm": 2.18922223175, 
			 "electric_quadrupole_moment_norm": 17.2346919682, 
			 "total_energy": -1340.3173645, 
			 "HOMO_LUMO_gap": 0.23812, 
			 "cosmo_polarized_energy": -18.88, 
			 "cosmo_cavitation_energy": 54.77, 
			 "cosmo_dispersion_energy": -34.08, 
			 "cosmo_repulsion_energy": 2.68, 
			 "cosmo_total_nonelectrostatic_energy": 23.36, 
			 "SMD_solvation_energy": 12.1 
		},
		"coords": [
			{
				"x": 2.9955381416,
				"y": -0.5369696524,
				"z": 1.5701834347,
				"element": "C" 
			},
			{
				"x": 1.8222932838,
				"y": -0.7349681781,
				"z": 0.623433981,
				"element": "C" 
			},
			{
				"x": 1.5960527363,
				"y": 0.5282964624,
				"z": -0.0241765716,
				"element": "O" 
			},
			{
				"x": 0.5515826313,
				"y": 0.5379662748,
				"z": -0.9738742506,
				"element": "C" 
			},
			{
				"x": 0.7867544762,
				"y": -0.3410502743,
				"z": -2.0491613343,
				"element": "O" 
			},
			{
				"x": 1.8462472695,
				"y": 0.0723401179,
				"z": -2.923510896,
				"element": "C" 
			},
			{
				"x": 1.4506038348,
				"y": 1.2173458874,
				"z": -3.8337667203,
				"element": "C" 
			},
			{
				"x": 2.3258398005,
				"y": 2.2852600612,
				"z": -4.0592157836,
				"element": "C" 
			},
			{
				"x": 1.9777284467,
				"y": 3.3183760066,
				"z": -4.9325460029,
				"element": "C" 
			},
			{
				"x": 0.7424089931,
				"y": 3.2976260142,
				"z": -5.5805558365,
				"element": "C" 
			},
			{
				"x": -0.1420412392,
				"y": 2.2393551803,
				"z": -5.3534051833,
				"element": "C" 
			},
			{
				"x": 0.2106763537,
				"y": 1.2048305508,
				"z": -4.4880722034,
				"element": "C" 
			},
			{
				"x": -0.7845811724,
				"y": 0.109722536,
				"z": -0.3568081973,
				"element": "C" 
			},
			{
				"x": -1.1321126791,
				"y": 1.1314837084,
				"z": 0.5996071894,
				"element": "O" 
			},
			{
				"x": -2.4478533386,
				"y": 1.4394679611,
				"z": 0.7442491189,
				"element": "C" 
			},
			{
				"x": -2.6258097524,
				"y": 2.4724050302,
				"z": 1.8290763995,
				"element": "C" 
			},
			{
				"x": -3.3397470256,
				"y": 0.9438128932,
				"z": 0.0916572596,
				"element": "O" 
			},
			{
				"x": -0.628079293,
				"y": -1.2362843468,
				"z": 0.3586784706,
				"element": "C" 
			},
			{
				"x": -1.8197865843,
				"y": -1.5445357615,
				"z": 1.0988324819,
				"element": "O" 
			},
			{
				"x": -2.8021506777,
				"y": -2.2100570033,
				"z": 0.4242022309,
				"element": "C" 
			},
			{
				"x": -4.0493306765,
				"y": -2.3001257327,
				"z": 1.263308627,
				"element": "C" 
			},
			{
				"x": -2.6711194218,
				"y": -2.6334877385,
				"z": -0.7010869427,
				"element": "O" 
			},
			{
				"x": 0.5361232035,
				"y": -1.1846931413,
				"z": 1.3418110904,
				"element": "C" 
			},
			{
				"x": 0.7507087591,
				"y": -2.5154901674,
				"z": 1.8520671297,
				"element": "O" 
			},
			{
				"x": 0.529200211,
				"y": -2.7339784016,
				"z": 3.1783149307,
				"element": "C" 
			},
			{
				"x": 0.715163937,
				"y": -4.1971350152,
				"z": 3.5001814937,
				"element": "C" 
			},
			{
				"x": 0.2296504284,
				"y": -1.8725062546,
				"z": 3.9720009955,
				"element": "O" 
			},
			{
				"x": 3.8732319363,
				"y": -0.2022755087,
				"z": 1.0108625813,
				"element": "H" 
			},
			{
				"x": 3.2418016956,
				"y": -1.4747219772,
				"z": 2.0744232343,
				"element": "H" 
			},
			{
				"x": 2.7570348171,
				"y": 0.2181650907,
				"z": 2.324898782,
				"element": "H" 
			},
			{
				"x": 2.0721894212,
				"y": -1.4923181573,
				"z": -0.1320898697,
				"element": "H" 
			},
			{
				"x": 0.491711067,
				"y": 1.5788101499,
				"z": -1.3123842203,
				"element": "H" 
			},
			{
				"x": 2.7352096594,
				"y": 0.336573269,
				"z": -2.3383687428,
				"element": "H" 
			},
			{
				"x": 2.0820027382,
				"y": -0.822231619,
				"z": -3.509496995,
				"element": "H" 
			},
			{
				"x": 3.2853371133,
				"y": 2.3096599924,
				"z": -3.5478221177,
				"element": "H" 
			},
			{
				"x": 2.6670550055,
				"y": 4.1415125543,
				"z": -5.0980678961,
				"element": "H" 
			},
			{
				"x": 0.4672319039,
				"y": 4.1024940849,
				"z": -6.2561286914,
				"element": "H" 
			},
			{
				"x": -1.1065121399,
				"y": 2.2199157956,
				"z": -5.8530057361,
				"element": "H" 
			},
			{
				"x": -0.4764795224,
				"y": 0.3833446585,
				"z": -4.3070447069,
				"element": "H" 
			},
			{
				"x": -1.5597926917,
				"y": 0.0453894691,
				"z": -1.1213416535,
				"element": "H" 
			},
			{
				"x": -3.6549244831,
				"y": 2.8301877801,
				"z": 1.824660296,
				"element": "H" 
			},
			{
				"x": -2.3994981823,
				"y": 2.0191346481,
				"z": 2.7995884508,
				"element": "H" 
			},
			{
				"x": -1.9307170336,
				"y": 3.3035298062,
				"z": 1.6859104737,
				"element": "H" 
			},
			{
				"x": -0.4593698944,
				"y": -2.0098997231,
				"z": -0.3944596077,
				"element": "H" 
			},
			{
				"x": -3.8081867987,
				"y": -2.4939186237,
				"z": 2.3108084061,
				"element": "H" 
			},
			{
				"x": -4.7028617648,
				"y": -3.0761032535,
				"z": 0.8649440832,
				"element": "H" 
			},
			{
				"x": -4.5606429737,
				"y": -1.3333270745,
				"z": 1.206179316,
				"element": "H" 
			},
			{
				"x": 0.3049764282,
				"y": -0.5142946237,
				"z": 2.1717115988,
				"element": "H" 
			},
			{
				"x": 1.6944501311,
				"y": -4.5408966771,
				"z": 3.1556639622,
				"element": "H" 
			},
			{
				"x": -0.0403219631,
				"y": -4.7890022794,
				"z": 2.9743526804,
				"element": "H" 
			},
			{
				"x": 0.6196148852,
				"y": -4.3473347984,
				"z": 4.5749814616,
				"element": "H" 
			}
		],
		 "valence_orbital": [ 
			{
				"type": "occ",
				"energy": -0.27435,
				"method": "rhf"
			},
			{
				"type": "occ",
				"energy": -0.27384,
				"method": "rhf"
			},
			{
				"type": "occ",
				"energy": -0.26632,
				"method": "rhf"
			},
			{
				"type": "occ",
				"energy": -0.25366,
				"method": "rhf"
			},
			{
				"type": "occ",
				"energy": -0.24877,
				"method": "rhf"
			},
			{
				"type": "unocc",
				"energy": -0.01065,
				"method": "rhf"
			},
			{
				"type": "unocc",
				"energy": -0.00462,
				"method": "rhf"
			},
			{
				"type": "unocc",
				"energy": 0.00556,
				"method": "rhf"
			},
			{
				"type": "unocc",
				"energy": 0.00944,
				"method": "rhf"
			},
			{
				"type": "unocc",
				"energy": 0.01671,
				"method": "rhf"
			}
		],
		"cosmo_sigma_profile": { 
			"-0.025": 0.0,
			"-0.024": 0.0,
			"-0.023": 0.0,
			"-0.022": 0.0,
			"-0.021": 0.0,
			"-0.02": 0.0,
			"-0.019": 0.0,
			"-0.018": 0.0,
			"-0.017": 0.0,
			"-0.016": 0.0,
			"-0.015": 0.0,
			"-0.014": 0.0,
			"-0.013": 0.0,
			"-0.012": 0.0,
			"-0.011": 0.0,
			"-0.01": 0.0,
			"-0.009": 0.0,
			"-0.008": 0.00789645276795,
			"-0.007": 3.80563345926,
			"-0.006": 23.4932796991,
			"-0.005": 36.4835662161,
			"-0.004": 46.1224365988,
			"-0.003": 48.2855667755,
			"-0.002": 51.9033399472,
			"-0.001": 34.6707226223,
			"0.0": 31.0732517374,
			"0.001": 21.9577802481,
			"0.002": 19.4216218005,
			"0.003": 17.6759100123,
			"0.004": 16.6554381124,
			"0.005": 18.1172140017,
			"0.006": 13.0470684001,
			"0.007": 7.59533429545,
			"0.008": 6.92284046968,
			"0.009": 7.53939024709,
			"0.01": 6.50313356375,
			"0.011": 11.6256710139,
			"0.012": 7.38310505996,
			"0.013": 0.970214099724,
			"0.014": 0.0,
			"0.015": 0.0,
			"0.016": 0.0,
			"0.017": 0.0,
			"0.018": 0.0,
			"0.019": 0.0,
			"0.02": 0.0,
			"0.021": 0.0,
			"0.022": 0.0,
			"0.023": 0.0,
			"0.024": 0.0,
			"0.025": 0.0
		}
	}
}
