{
	 "smiles": "OC(=O)CCNC(=O)C1CCCC1", 
	 "Tm": 402.15, 
	 "num_atms": 28, 
	 "gaussian": { 
		 "optdone": 1, 
		 "sigma_profile": "yes", 
		 "theory": "DFT", 
		 "functional": "B3LYP", 
		 "basiset": "6-31G**", 
		 "properties": { 
			 "R2extent": 3076.3803, 
			 "electric_dipole_moment_norm": 4.15997105879, 
			 "electric_quadrupole_moment_norm": 9.00373927321, 
			 "total_energy": -632.459814695, 
			 "HOMO_LUMO_gap": 0.23344, 
			 "cosmo_polarized_energy": -16.33, 
			 "cosmo_cavitation_energy": 29.93, 
			 "cosmo_dispersion_energy": -21.39, 
			 "cosmo_repulsion_energy": 1.75, 
			 "cosmo_total_nonelectrostatic_energy": 10.29, 
			 "SMD_solvation_energy": 5.83 
		},
		"coords": [
			{
				"x": -3.1667347624,
				"y": -2.4038490079,
				"z": -0.6360076259,
				"element": "O" 
			},
			{
				"x": -2.4531568973,
				"y": -1.4157304381,
				"z": -0.0534577425,
				"element": "C" 
			},
			{
				"x": -2.5345183622,
				"y": -0.2570562369,
				"z": -0.4018346817,
				"element": "O" 
			},
			{
				"x": -1.6009043222,
				"y": -1.9321965869,
				"z": 1.0879458124,
				"element": "C" 
			},
			{
				"x": -0.3707531206,
				"y": -1.0537324929,
				"z": 1.3486907413,
				"element": "C" 
			},
			{
				"x": 0.6301386375,
				"y": -1.1729920753,
				"z": 0.3030951752,
				"element": "N" 
			},
			{
				"x": 1.1832316059,
				"y": -0.2105200561,
				"z": -0.5155014972,
				"element": "C" 
			},
			{
				"x": 2.1046641027,
				"y": -0.5209045645,
				"z": -1.2628893984,
				"element": "O" 
			},
			{
				"x": 0.6208194174,
				"y": 1.2091793386,
				"z": -0.4212558856,
				"element": "C" 
			},
			{
				"x": 1.2260152391,
				"y": 1.9782417258,
				"z": 0.8081084136,
				"element": "C" 
			},
			{
				"x": 2.1779775061,
				"y": 3.0241703712,
				"z": 0.1999225033,
				"element": "C" 
			},
			{
				"x": 1.4852269384,
				"y": 3.4113256254,
				"z": -1.1140180481,
				"element": "C" 
			},
			{
				"x": 0.9968866535,
				"y": 2.0591521324,
				"z": -1.6647547674,
				"element": "C" 
			},
			{
				"x": -3.7040758493,
				"y": -1.9827740708,
				"z": -1.3287668506,
				"element": "H" 
			},
			{
				"x": -1.3188719622,
				"y": -2.9706272846,
				"z": 0.8890859099,
				"element": "H" 
			},
			{
				"x": -2.2386572486,
				"y": -1.9494714475,
				"z": 1.9822277509,
				"element": "H" 
			},
			{
				"x": -0.685001665,
				"y": -0.0133272778,
				"z": 1.4266911645,
				"element": "H" 
			},
			{
				"x": 0.0636525486,
				"y": -1.3340631044,
				"z": 2.317438227,
				"element": "H" 
			},
			{
				"x": 1.1073140294,
				"y": -2.0622413763,
				"z": 0.2168634107,
				"element": "H" 
			},
			{
				"x": -0.4651045769,
				"y": 1.1424235354,
				"z": -0.3213491324,
				"element": "H" 
			},
			{
				"x": 0.4193431548,
				"y": 2.4816427186,
				"z": 1.3541209891,
				"element": "H" 
			},
			{
				"x": 1.7290464574,
				"y": 1.3151009067,
				"z": 1.5195886896,
				"element": "H" 
			},
			{
				"x": 2.3576450677,
				"y": 3.8716414804,
				"z": 0.8698046209,
				"element": "H" 
			},
			{
				"x": 3.148407479,
				"y": 2.5616165432,
				"z": -0.0177765824,
				"element": "H" 
			},
			{
				"x": 0.6352574338,
				"y": 4.0742496523,
				"z": -0.9039098303,
				"element": "H" 
			},
			{
				"x": 2.1444789291,
				"y": 3.9383516868,
				"z": -1.8114781159,
				"element": "H" 
			},
			{
				"x": 0.156460227,
				"y": 2.1587842096,
				"z": -2.3581993329,
				"element": "H" 
			},
			{
				"x": 1.8081133393,
				"y": 1.5514060938,
				"z": -2.1939839173,
				"element": "H" 
			}
		],
		 "valence_orbital": [ 
			{
				"type": "occ",
				"energy": -0.31796,
				"method": "rhf"
			},
			{
				"type": "occ",
				"energy": -0.3088,
				"method": "rhf"
			},
			{
				"type": "occ",
				"energy": -0.28776,
				"method": "rhf"
			},
			{
				"type": "occ",
				"energy": -0.24581,
				"method": "rhf"
			},
			{
				"type": "occ",
				"energy": -0.23709,
				"method": "rhf"
			},
			{
				"type": "unocc",
				"energy": -0.00365,
				"method": "rhf"
			},
			{
				"type": "unocc",
				"energy": 0.03377,
				"method": "rhf"
			},
			{
				"type": "unocc",
				"energy": 0.07059,
				"method": "rhf"
			},
			{
				"type": "unocc",
				"energy": 0.08229,
				"method": "rhf"
			},
			{
				"type": "unocc",
				"energy": 0.09468,
				"method": "rhf"
			}
		],
		"cosmo_sigma_profile": { 
			"-0.025": 0.0,
			"-0.024": 0.0,
			"-0.023": 0.0,
			"-0.022": 0.0,
			"-0.021": 0.0,
			"-0.02": 0.0,
			"-0.019": 0.179450054214,
			"-0.018": 0.671194271114,
			"-0.017": 1.13702688285,
			"-0.016": 0.670123172994,
			"-0.015": 0.917441662972,
			"-0.014": 0.36189949883,
			"-0.013": 1.05341985623,
			"-0.012": 1.88718999385,
			"-0.011": 2.19985477927,
			"-0.01": 1.58408104987,
			"-0.009": 1.61335024445,
			"-0.008": 2.93021028667,
			"-0.007": 6.60377761089,
			"-0.006": 7.46549105259,
			"-0.005": 11.2198148091,
			"-0.004": 10.2235415675,
			"-0.003": 17.8188077069,
			"-0.002": 25.1882025317,
			"-0.001": 26.2382181931,
			"0.0": 24.5837712252,
			"0.001": 22.6847635878,
			"0.002": 12.5223579742,
			"0.003": 5.95301033434,
			"0.004": 3.6849403798,
			"0.005": 5.21735376099,
			"0.006": 4.22158633237,
			"0.007": 3.45741633381,
			"0.008": 4.81199567549,
			"0.009": 4.56376589419,
			"0.01": 3.75740340453,
			"0.011": 4.25057772412,
			"0.012": 3.08081368598,
			"0.013": 2.63601280094,
			"0.014": 5.73383874055,
			"0.015": 1.70103474646,
			"0.016": 0.0,
			"0.017": 0.0,
			"0.018": 0.0,
			"0.019": 0.0,
			"0.02": 0.0,
			"0.021": 0.0,
			"0.022": 0.0,
			"0.023": 0.0,
			"0.024": 0.0,
			"0.025": 0.0
		}
	}
}
