{
	 "smiles": "C1COCCN2CCOCCOCCN(CCO1)CCOCCOCC2", 
	 "Tm": 343.15, 
	 "num_atms": 62, 
	 "gaussian": { 
		 "optdone": 1, 
		 "sigma_profile": "yes", 
		 "theory": "DFT", 
		 "functional": "B3LYP", 
		 "basiset": "6-31G**", 
		 "properties": { 
			 "R2extent": 9631.1603, 
			 "electric_dipole_moment_norm": 3.29263586963, 
			 "electric_quadrupole_moment_norm": 14.3044073754, 
			 "total_energy": -1268.31979185, 
			 "HOMO_LUMO_gap": 0.24289, 
			 "cosmo_polarized_energy": -18.64, 
			 "cosmo_cavitation_energy": 54.0, 
			 "cosmo_dispersion_energy": -35.1, 
			 "cosmo_repulsion_energy": 2.58, 
			 "cosmo_total_nonelectrostatic_energy": 21.48, 
			 "SMD_solvation_energy": 4.94 
		},
		"coords": [
			{
				"x": 4.028568494,
				"y": 2.226747091,
				"z": 0.9007949142,
				"element": "C" 
			},
			{
				"x": 3.0698341644,
				"y": 3.2023371749,
				"z": 1.5815063452,
				"element": "C" 
			},
			{
				"x": 2.1139485521,
				"y": 2.5812860812,
				"z": 2.4242205623,
				"element": "O" 
			},
			{
				"x": 1.0412270492,
				"y": 1.9301888873,
				"z": 1.7486641593,
				"element": "C" 
			},
			{
				"x": 0.3329774816,
				"y": 1.0465648866,
				"z": 2.7732919737,
				"element": "C" 
			},
			{
				"x": -0.6853186836,
				"y": 0.1966115439,
				"z": 2.1402979652,
				"element": "N" 
			},
			{
				"x": -1.9894512006,
				"y": 0.8752054507,
				"z": 2.0698706872,
				"element": "C" 
			},
			{
				"x": -2.8285952913,
				"y": 0.5038433101,
				"z": 0.8473061266,
				"element": "C" 
			},
			{
				"x": -2.4831410509,
				"y": 1.3758354545,
				"z": -0.2197486705,
				"element": "O" 
			},
			{
				"x": -2.9964878508,
				"y": 0.9847554433,
				"z": -1.4892889526,
				"element": "C" 
			},
			{
				"x": -2.0995354894,
				"y": -0.0186047092,
				"z": -2.2195495484,
				"element": "C" 
			},
			{
				"x": -0.950366526,
				"y": 0.5226448831,
				"z": -2.8460179368,
				"element": "O" 
			},
			{
				"x": -0.0944904987,
				"y": 1.321713794,
				"z": -2.020586397,
				"element": "C" 
			},
			{
				"x": 1.3549972439,
				"y": 1.2135292952,
				"z": -2.470788636,
				"element": "C" 
			},
			{
				"x": 2.0331659029,
				"y": -0.0744040618,
				"z": -2.2125474136,
				"element": "N" 
			},
			{
				"x": 3.4781658758,
				"y": 0.0656064388,
				"z": -2.093936553,
				"element": "C" 
			},
			{
				"x": 4.0611257685,
				"y": 0.5010497983,
				"z": -0.7386263641,
				"element": "C" 
			},
			{
				"x": 3.4333509648,
				"y": 1.6879959637,
				"z": -0.2686652752,
				"element": "O" 
			},
			{
				"x": 1.3760867946,
				"y": -0.99449543,
				"z": -1.2903979413,
				"element": "C" 
			},
			{
				"x": 1.8589490104,
				"y": -2.4441560445,
				"z": -1.3906795447,
				"element": "C" 
			},
			{
				"x": 3.0020408293,
				"y": -2.7946929318,
				"z": -0.6067652807,
				"element": "O" 
			},
			{
				"x": 2.8415538696,
				"y": -2.8279888219,
				"z": 0.8050988604,
				"element": "C" 
			},
			{
				"x": 1.5851600147,
				"y": -3.5361135052,
				"z": 1.3296772441,
				"element": "C" 
			},
			{
				"x": 0.4495372794,
				"y": -2.678132279,
				"z": 1.4388488012,
				"element": "O" 
			},
			{
				"x": 0.3587023631,
				"y": -2.0595749515,
				"z": 2.7136058252,
				"element": "C" 
			},
			{
				"x": -0.8334605261,
				"y": -1.1092522123,
				"z": 2.7954483786,
				"element": "C" 
			},
			{
				"x": 4.2802488191,
				"y": 1.4289070414,
				"z": 1.617549774,
				"element": "H" 
			},
			{
				"x": 4.9663253759,
				"y": 2.7482677718,
				"z": 0.640900791,
				"element": "H" 
			},
			{
				"x": 2.5855203183,
				"y": 3.8269883899,
				"z": 0.8145639748,
				"element": "H" 
			},
			{
				"x": 3.6516358027,
				"y": 3.8615500109,
				"z": 2.235431455,
				"element": "H" 
			},
			{
				"x": 0.3559207698,
				"y": 2.6743785629,
				"z": 1.3106815864,
				"element": "H" 
			},
			{
				"x": 1.4103591331,
				"y": 1.3025351955,
				"z": 0.9336309093,
				"element": "H" 
			},
			{
				"x": -0.0829273018,
				"y": 1.6614023325,
				"z": 3.590054786,
				"element": "H" 
			},
			{
				"x": 1.1041419405,
				"y": 0.4208352503,
				"z": 3.2288105559,
				"element": "H" 
			},
			{
				"x": -2.5793656996,
				"y": 0.684901216,
				"z": 2.9858971334,
				"element": "H" 
			},
			{
				"x": -1.8284443878,
				"y": 1.9557019551,
				"z": 2.0227902542,
				"element": "H" 
			},
			{
				"x": -3.9010852785,
				"y": 0.616419149,
				"z": 1.080292553,
				"element": "H" 
			},
			{
				"x": -2.6585525704,
				"y": -0.5483908467,
				"z": 0.5772003671,
				"element": "H" 
			},
			{
				"x": -3.0870875494,
				"y": 1.898720285,
				"z": -2.0864565121,
				"element": "H" 
			},
			{
				"x": -4.0055600086,
				"y": 0.5557222046,
				"z": -1.3791443436,
				"element": "H" 
			},
			{
				"x": -1.8186701121,
				"y": -0.8164960165,
				"z": -1.5112944227,
				"element": "H" 
			},
			{
				"x": -2.6736705722,
				"y": -0.4861499063,
				"z": -3.0280556083,
				"element": "H" 
			},
			{
				"x": -0.2046132795,
				"y": 1.0487953454,
				"z": -0.9683638002,
				"element": "H" 
			},
			{
				"x": -0.3929104642,
				"y": 2.3772432428,
				"z": -2.1041126797,
				"element": "H" 
			},
			{
				"x": 1.3951747102,
				"y": 1.4207206062,
				"z": -3.5510023467,
				"element": "H" 
			},
			{
				"x": 1.8788986086,
				"y": 2.0339276532,
				"z": -1.96467434,
				"element": "H" 
			},
			{
				"x": 3.9613833806,
				"y": -0.8909647079,
				"z": -2.330975629,
				"element": "H" 
			},
			{
				"x": 3.8000878846,
				"y": 0.7783948544,
				"z": -2.8624398749,
				"element": "H" 
			},
			{
				"x": 3.9365249163,
				"y": -0.3003076586,
				"z": 0.0037722728,
				"element": "H" 
			},
			{
				"x": 5.1462495316,
				"y": 0.6594200329,
				"z": -0.8632051872,
				"element": "H" 
			},
			{
				"x": 0.3253638746,
				"y": -1.0237004323,
				"z": -1.5780902761,
				"element": "H" 
			},
			{
				"x": 1.3919067316,
				"y": -0.6836476359,
				"z": -0.2324746974,
				"element": "H" 
			},
			{
				"x": 2.1428083213,
				"y": -2.6605366975,
				"z": -2.4251479987,
				"element": "H" 
			},
			{
				"x": 1.0185865067,
				"y": -3.1008689428,
				"z": -1.1321078908,
				"element": "H" 
			},
			{
				"x": 2.870176743,
				"y": -1.8142820209,
				"z": 1.2360026983,
				"element": "H" 
			},
			{
				"x": 3.7298349091,
				"y": -3.358340756,
				"z": 1.1678697532,
				"element": "H" 
			},
			{
				"x": 1.3119419966,
				"y": -4.3562990958,
				"z": 0.6572458536,
				"element": "H" 
			},
			{
				"x": 1.8117702224,
				"y": -3.9834791299,
				"z": 2.309539946,
				"element": "H" 
			},
			{
				"x": 1.2943650053,
				"y": -1.5378857933,
				"z": 2.9624281497,
				"element": "H" 
			},
			{
				"x": 0.2177361779,
				"y": -2.8346030834,
				"z": 3.4865149282,
				"element": "H" 
			},
			{
				"x": -1.0774801055,
				"y": -0.9865230866,
				"z": 3.8703811484,
				"element": "H" 
			},
			{
				"x": -1.686338891,
				"y": -1.6253558388,
				"z": 2.341753388,
				"element": "H" 
			}
		],
		 "valence_orbital": [ 
			{
				"type": "occ",
				"energy": -0.24136,
				"method": "rhf"
			},
			{
				"type": "occ",
				"energy": -0.23816,
				"method": "rhf"
			},
			{
				"type": "occ",
				"energy": -0.23363,
				"method": "rhf"
			},
			{
				"type": "occ",
				"energy": -0.21732,
				"method": "rhf"
			},
			{
				"type": "occ",
				"energy": -0.17816,
				"method": "rhf"
			},
			{
				"type": "unocc",
				"energy": 0.06473,
				"method": "rhf"
			},
			{
				"type": "unocc",
				"energy": 0.08307,
				"method": "rhf"
			},
			{
				"type": "unocc",
				"energy": 0.08796,
				"method": "rhf"
			},
			{
				"type": "unocc",
				"energy": 0.09264,
				"method": "rhf"
			},
			{
				"type": "unocc",
				"energy": 0.1014,
				"method": "rhf"
			}
		],
		"cosmo_sigma_profile": { 
			"-0.025": 0.0,
			"-0.024": 0.0,
			"-0.023": 0.0,
			"-0.022": 0.0,
			"-0.021": 0.0,
			"-0.02": 0.0,
			"-0.019": 0.0,
			"-0.018": 0.0,
			"-0.017": 0.0,
			"-0.016": 0.0,
			"-0.015": 0.0,
			"-0.014": 0.0,
			"-0.013": 0.0,
			"-0.012": 0.0,
			"-0.011": 0.0,
			"-0.01": 0.0,
			"-0.009": 0.0,
			"-0.008": 0.0,
			"-0.007": 0.0,
			"-0.006": 0.92952774319,
			"-0.005": 24.7936396367,
			"-0.004": 52.8752004358,
			"-0.003": 75.7307609198,
			"-0.002": 65.4887651085,
			"-0.001": 43.9150541598,
			"0.0": 26.3673118063,
			"0.001": 16.7631790406,
			"0.002": 14.4285191774,
			"0.003": 11.8100986139,
			"0.004": 11.0333309057,
			"0.005": 10.9045126771,
			"0.006": 9.80966657423,
			"0.007": 8.98403728745,
			"0.008": 8.80746672482,
			"0.009": 6.28096282742,
			"0.01": 6.82491348412,
			"0.011": 6.05482747347,
			"0.012": 5.91429487724,
			"0.013": 5.61339736891,
			"0.014": 2.07238597368,
			"0.015": 0.180674981327,
			"0.016": 0.0117111646732,
			"0.017": 0.0,
			"0.018": 0.0,
			"0.019": 0.0,
			"0.02": 0.0,
			"0.021": 0.0,
			"0.022": 0.0,
			"0.023": 0.0,
			"0.024": 0.0,
			"0.025": 0.0
		}
	}
}
