{
	 "smiles": "CC(Cl)C(=O)NCC1=CC=C(Cl)C=C1", 
	 "Tm": 374.15, 
	 "num_atms": 25, 
	 "gaussian": { 
		 "optdone": 1, 
		 "sigma_profile": "yes", 
		 "theory": "DFT", 
		 "functional": "B3LYP", 
		 "basiset": "6-31G**", 
		 "properties": { 
			 "R2extent": 6099.645, 
			 "electric_dipole_moment_norm": 2.04690260882, 
			 "electric_quadrupole_moment_norm": 18.9258747452, 
			 "total_energy": -1438.07437179, 
			 "HOMO_LUMO_gap": 0.2213, 
			 "cosmo_polarized_energy": -13.33, 
			 "cosmo_cavitation_energy": 32.61, 
			 "cosmo_dispersion_energy": -23.42, 
			 "cosmo_repulsion_energy": 1.87, 
			 "cosmo_total_nonelectrostatic_energy": 11.05, 
			 "SMD_solvation_energy": 5.32 
		},
		"coords": [
			{
				"x": 3.5670308194,
				"y": 1.9650836689,
				"z": -1.4159190525,
				"element": "C" 
			},
			{
				"x": 2.6347830275,
				"y": 0.8647806513,
				"z": -0.9444454216,
				"element": "C" 
			},
			{
				"x": 3.5972931798,
				"y": -0.6553506574,
				"z": -0.5592258724,
				"element": "Cl" 
			},
			{
				"x": 1.5800007706,
				"y": 0.5127232941,
				"z": -2.0078910151,
				"element": "C" 
			},
			{
				"x": 1.7007039357,
				"y": 0.903890984,
				"z": -3.1603035597,
				"element": "O" 
			},
			{
				"x": 0.4860137753,
				"y": -0.2084162661,
				"z": -1.610238988,
				"element": "N" 
			},
			{
				"x": 0.2402387895,
				"y": -0.9106678102,
				"z": -0.3555901645,
				"element": "C" 
			},
			{
				"x": -1.2358362631,
				"y": -0.9359718675,
				"z": -0.0044008917,
				"element": "C" 
			},
			{
				"x": -2.0279925916,
				"y": 0.2137863132,
				"z": -0.1204114897,
				"element": "C" 
			},
			{
				"x": -3.3751698714,
				"y": 0.1962387297,
				"z": 0.2359892349,
				"element": "C" 
			},
			{
				"x": -3.9358959881,
				"y": -0.9873036484,
				"z": 0.7175519087,
				"element": "C" 
			},
			{
				"x": -5.6338570611,
				"y": -1.0186174928,
				"z": 1.1681443447,
				"element": "Cl" 
			},
			{
				"x": -3.1710411034,
				"y": -2.1455387958,
				"z": 0.8409420692,
				"element": "C" 
			},
			{
				"x": -1.8250609338,
				"y": -2.1107574854,
				"z": 0.4743544003,
				"element": "C" 
			},
			{
				"x": 2.9883629282,
				"y": 2.8795922121,
				"z": -1.5807091388,
				"element": "H" 
			},
			{
				"x": 4.3354232182,
				"y": 2.1617103466,
				"z": -0.665321725,
				"element": "H" 
			},
			{
				"x": 4.0341160467,
				"y": 1.6896730074,
				"z": -2.3620180689,
				"element": "H" 
			},
			{
				"x": 2.1591666523,
				"y": 1.1337011839,
				"z": 0.0015225314,
				"element": "H" 
			},
			{
				"x": -0.1186278027,
				"y": -0.4476906144,
				"z": -2.3873742908,
				"element": "H" 
			},
			{
				"x": 0.6275464147,
				"y": -1.9371040707,
				"z": -0.3968594573,
				"element": "H" 
			},
			{
				"x": 0.7984696704,
				"y": -0.4090033282,
				"z": 0.4403444826,
				"element": "H" 
			},
			{
				"x": -1.5887177059,
				"y": 1.1309619531,
				"z": -0.501795422,
				"element": "H" 
			},
			{
				"x": -3.9852148343,
				"y": 1.087965769,
				"z": 0.1432078718,
				"element": "H" 
			},
			{
				"x": -3.6224650904,
				"y": -3.059902025,
				"z": 1.2095497155,
				"element": "H" 
			},
			{
				"x": -1.2286699823,
				"y": -3.0151840516,
				"z": 0.562897999,
				"element": "H" 
			}
		],
		 "valence_orbital": [ 
			{
				"type": "occ",
				"energy": -0.30634,
				"method": "rhf"
			},
			{
				"type": "occ",
				"energy": -0.27523,
				"method": "rhf"
			},
			{
				"type": "occ",
				"energy": -0.26867,
				"method": "rhf"
			},
			{
				"type": "occ",
				"energy": -0.26278,
				"method": "rhf"
			},
			{
				"type": "occ",
				"energy": -0.24938,
				"method": "rhf"
			},
			{
				"type": "unocc",
				"energy": -0.02808,
				"method": "rhf"
			},
			{
				"type": "unocc",
				"energy": -0.02629,
				"method": "rhf"
			},
			{
				"type": "unocc",
				"energy": -0.02256,
				"method": "rhf"
			},
			{
				"type": "unocc",
				"energy": 0.02237,
				"method": "rhf"
			},
			{
				"type": "unocc",
				"energy": 0.04873,
				"method": "rhf"
			}
		],
		"cosmo_sigma_profile": { 
			"-0.025": 0.0,
			"-0.024": 0.0,
			"-0.023": 0.0,
			"-0.022": 0.0,
			"-0.021": 0.0,
			"-0.02": 0.0,
			"-0.019": 0.0,
			"-0.018": 0.0,
			"-0.017": 0.0,
			"-0.016": 0.0,
			"-0.015": 0.0,
			"-0.014": 0.314553107125,
			"-0.013": 0.849001565422,
			"-0.012": 1.31373990854,
			"-0.011": 0.42893954157,
			"-0.01": 2.26359083483,
			"-0.009": 3.85653364739,
			"-0.008": 3.13312105595,
			"-0.007": 10.10289982,
			"-0.006": 13.7426475277,
			"-0.005": 17.521276051,
			"-0.004": 18.4878937358,
			"-0.003": 14.382636558,
			"-0.002": 16.4229063645,
			"-0.001": 17.661794924,
			"0.0": 18.4611481782,
			"0.001": 17.8208805216,
			"0.002": 22.3725666016,
			"0.003": 22.1510612762,
			"0.004": 23.7333059774,
			"0.005": 14.1268465959,
			"0.006": 7.25998926998,
			"0.007": 0.960769417615,
			"0.008": 1.47563010433,
			"0.009": 1.56808102813,
			"0.01": 1.70652982512,
			"0.011": 1.47987647189,
			"0.012": 2.88524984915,
			"0.013": 5.38436876037,
			"0.014": 1.20007188574,
			"0.015": 0.0,
			"0.016": 0.0,
			"0.017": 0.0,
			"0.018": 0.0,
			"0.019": 0.0,
			"0.02": 0.0,
			"0.021": 0.0,
			"0.022": 0.0,
			"0.023": 0.0,
			"0.024": 0.0,
			"0.025": 0.0
		}
	}
}
