{
	 "smiles": "C1CCC2(CC1)NC1=C(O2)C=CC=C1", 
	 "Tm": 516.15, 
	 "num_atms": 29, 
	 "gaussian": { 
		 "optdone": 1, 
		 "sigma_profile": "yes", 
		 "theory": "DFT", 
		 "functional": "B3LYP", 
		 "basiset": "6-31G**", 
		 "properties": { 
			 "R2extent": 2940.7466, 
			 "electric_dipole_moment_norm": 1.6882397697, 
			 "electric_quadrupole_moment_norm": 3.56904538778, 
			 "total_energy": -596.293447787, 
			 "HOMO_LUMO_gap": 0.20129, 
			 "cosmo_polarized_energy": -7.17, 
			 "cosmo_cavitation_energy": 29.51, 
			 "cosmo_dispersion_energy": -22.04, 
			 "cosmo_repulsion_energy": 1.72, 
			 "cosmo_total_nonelectrostatic_energy": 9.19, 
			 "SMD_solvation_energy": 3.4 
		},
		"coords": [
			{
				"x": -3.1278137945,
				"y": 1.1523258476,
				"z": -0.2912773811,
				"element": "C" 
			},
			{
				"x": -2.9070153589,
				"y": -0.3583250237,
				"z": -0.0325521608,
				"element": "C" 
			},
			{
				"x": -1.6390945683,
				"y": -0.6363614754,
				"z": 0.8059075887,
				"element": "C" 
			},
			{
				"x": -0.5277557482,
				"y": 0.3770315113,
				"z": 0.5098471043,
				"element": "C" 
			},
			{
				"x": -0.96901029,
				"y": 1.8062525673,
				"z": 0.8745478258,
				"element": "C" 
			},
			{
				"x": -2.500984894,
				"y": 2.0010386196,
				"z": 0.8224822499,
				"element": "C" 
			},
			{
				"x": -0.0778393483,
				"y": 0.2351674166,
				"z": -0.8915474036,
				"element": "N" 
			},
			{
				"x": 1.1248496163,
				"y": -0.5238409432,
				"z": -0.8223586679,
				"element": "C" 
			},
			{
				"x": 1.5089064099,
				"y": -0.6368102189,
				"z": 0.5195731413,
				"element": "C" 
			},
			{
				"x": 0.6328471553,
				"y": 0.0163580257,
				"z": 1.3401947639,
				"element": "O" 
			},
			{
				"x": 2.6583284637,
				"y": -1.3108612589,
				"z": 0.8990659946,
				"element": "C" 
			},
			{
				"x": 3.4355421685,
				"y": -1.8821476547,
				"z": -0.1224166583,
				"element": "C" 
			},
			{
				"x": 3.0632083491,
				"y": -1.7712812216,
				"z": -1.4627513813,
				"element": "C" 
			},
			{
				"x": 1.8918722151,
				"y": -1.0872176275,
				"z": -1.830105702,
				"element": "C" 
			},
			{
				"x": -4.1972537625,
				"y": 1.3701809055,
				"z": -0.3851334102,
				"element": "H" 
			},
			{
				"x": -2.6705914335,
				"y": 1.4313309639,
				"z": -1.2490832889,
				"element": "H" 
			},
			{
				"x": -3.7712544949,
				"y": -0.7764584442,
				"z": 0.4961963186,
				"element": "H" 
			},
			{
				"x": -2.8379043884,
				"y": -0.8846688603,
				"z": -0.988647298,
				"element": "H" 
			},
			{
				"x": -1.8603054256,
				"y": -0.5778656232,
				"z": 1.8779181045,
				"element": "H" 
			},
			{
				"x": -1.2600957095,
				"y": -1.6450414335,
				"z": 0.6143355909,
				"element": "H" 
			},
			{
				"x": -0.4686074696,
				"y": 2.5161456181,
				"z": 0.2033828725,
				"element": "H" 
			},
			{
				"x": -0.5905143162,
				"y": 2.0148356354,
				"z": 1.8794712504,
				"element": "H" 
			},
			{
				"x": -2.7313932111,
				"y": 3.0629188247,
				"z": 0.6839497712,
				"element": "H" 
			},
			{
				"x": -2.9427059453,
				"y": 1.7153727212,
				"z": 1.7855554751,
				"element": "H" 
			},
			{
				"x": 0.0672095231,
				"y": 1.1362168225,
				"z": -1.3402625438,
				"element": "H" 
			},
			{
				"x": 2.9444025057,
				"y": -1.3822660622,
				"z": 1.9428773166,
				"element": "H" 
			},
			{
				"x": 4.3397812382,
				"y": -2.4227567413,
				"z": 0.1412940376,
				"element": "H" 
			},
			{
				"x": 3.680258953,
				"y": -2.2237726286,
				"z": -2.2330049639,
				"element": "H" 
			},
			{
				"x": 1.5949335608,
				"y": -0.9999002619,
				"z": -2.8708585462,
				"element": "H" 
			}
		],
		 "valence_orbital": [ 
			{
				"type": "occ",
				"energy": -0.31025,
				"method": "rhf"
			},
			{
				"type": "occ",
				"energy": -0.30434,
				"method": "rhf"
			},
			{
				"type": "occ",
				"energy": -0.28345,
				"method": "rhf"
			},
			{
				"type": "occ",
				"energy": -0.23077,
				"method": "rhf"
			},
			{
				"type": "occ",
				"energy": -0.19398,
				"method": "rhf"
			},
			{
				"type": "unocc",
				"energy": 0.00731,
				"method": "rhf"
			},
			{
				"type": "unocc",
				"energy": 0.0215,
				"method": "rhf"
			},
			{
				"type": "unocc",
				"energy": 0.07072,
				"method": "rhf"
			},
			{
				"type": "unocc",
				"energy": 0.09003,
				"method": "rhf"
			},
			{
				"type": "unocc",
				"energy": 0.10526,
				"method": "rhf"
			}
		],
		"cosmo_sigma_profile": { 
			"-0.025": 0.0,
			"-0.024": 0.0,
			"-0.023": 0.0,
			"-0.022": 0.0,
			"-0.021": 0.0,
			"-0.02": 0.0,
			"-0.019": 0.0,
			"-0.018": 0.0,
			"-0.017": 0.0,
			"-0.016": 0.0,
			"-0.015": 0.0,
			"-0.014": 0.0,
			"-0.013": 0.0109725734899,
			"-0.012": 0.823388808554,
			"-0.011": 1.39689490939,
			"-0.01": 1.38474902142,
			"-0.009": 0.88868689263,
			"-0.008": 1.95875118889,
			"-0.007": 1.59481518647,
			"-0.006": 4.46067184938,
			"-0.005": 9.20526418823,
			"-0.004": 11.9487253081,
			"-0.003": 24.8294843927,
			"-0.002": 28.9232531369,
			"-0.001": 28.806928029,
			"0.0": 28.7921596306,
			"0.001": 18.873515102,
			"0.002": 11.168920237,
			"0.003": 8.88748740573,
			"0.004": 10.9986061882,
			"0.005": 10.5716133502,
			"0.006": 10.2975445334,
			"0.007": 6.69907356561,
			"0.008": 2.062529476,
			"0.009": 1.81914545381,
			"0.01": 2.06602622339,
			"0.011": 1.64297695005,
			"0.012": 0.791764053461,
			"0.013": 0.100987127459,
			"0.014": 0.0,
			"0.015": 0.0,
			"0.016": 0.0,
			"0.017": 0.0,
			"0.018": 0.0,
			"0.019": 0.0,
			"0.02": 0.0,
			"0.021": 0.0,
			"0.022": 0.0,
			"0.023": 0.0,
			"0.024": 0.0,
			"0.025": 0.0
		}
	}
}
