{
	 "smiles": "CC(C)(C)C1=NN(C(N)=C1)C1=CC=C(F)C=C1", 
	 "Tm": 372.15, 
	 "num_atms": 33, 
	 "gaussian": { 
		 "optdone": 1, 
		 "sigma_profile": "yes", 
		 "theory": "DFT", 
		 "functional": "B3LYP", 
		 "basiset": "6-31G**", 
		 "properties": { 
			 "R2extent": 6491.7184, 
			 "electric_dipole_moment_norm": 3.13841096735, 
			 "electric_quadrupole_moment_norm": 14.051361981, 
			 "total_energy": -769.110450163, 
			 "HOMO_LUMO_gap": 0.19086, 
			 "cosmo_polarized_energy": -11.56, 
			 "cosmo_cavitation_energy": 35.94, 
			 "cosmo_dispersion_energy": -25.19, 
			 "cosmo_repulsion_energy": 1.93, 
			 "cosmo_total_nonelectrostatic_energy": 12.68, 
			 "SMD_solvation_energy": 6.22 
		},
		"coords": [
			{
				"x": -1.0166561653,
				"y": 1.8090437579,
				"z": -2.2426310303,
				"element": "C" 
			},
			{
				"x": -0.1272546017,
				"y": 1.89104257,
				"z": -0.9811629875,
				"element": "C" 
			},
			{
				"x": 1.2918353837,
				"y": 1.4051331283,
				"z": -1.3261035203,
				"element": "C" 
			},
			{
				"x": -0.0622437675,
				"y": 3.3588721021,
				"z": -0.4991323945,
				"element": "C" 
			},
			{
				"x": -0.7359514334,
				"y": 1.036626605,
				"z": 0.1177273597,
				"element": "C" 
			},
			{
				"x": -0.0425940029,
				"y": 0.0676681438,
				"z": 0.7005625812,
				"element": "N" 
			},
			{
				"x": -0.8853925715,
				"y": -0.4630203051,
				"z": 1.6508266008,
				"element": "N" 
			},
			{
				"x": -2.1106118623,
				"y": 0.1573853177,
				"z": 1.6332990896,
				"element": "C" 
			},
			{
				"x": -3.1448136324,
				"y": -0.1844610779,
				"z": 2.5063171806,
				"element": "N" 
			},
			{
				"x": -2.045181603,
				"y": 1.1390455828,
				"z": 0.663705297,
				"element": "C" 
			},
			{
				"x": -0.4425152433,
				"y": -1.5583375211,
				"z": 2.4332533463,
				"element": "C" 
			},
			{
				"x": -0.8554458211,
				"y": -1.7149226911,
				"z": 3.7637696483,
				"element": "C" 
			},
			{
				"x": -0.4049402877,
				"y": -2.804021635,
				"z": 4.5110807023,
				"element": "C" 
			},
			{
				"x": 0.4724246067,
				"y": -3.708053251,
				"z": 3.9266414349,
				"element": "C" 
			},
			{
				"x": 0.9131726187,
				"y": -4.7589767397,
				"z": 4.6504128167,
				"element": "F" 
			},
			{
				"x": 0.9141814504,
				"y": -3.5554839948,
				"z": 2.6159412601,
				"element": "C" 
			},
			{
				"x": 0.4495907895,
				"y": -2.4795165112,
				"z": 1.8657273643,
				"element": "C" 
			},
			{
				"x": -0.5998364798,
				"y": 2.4294953664,
				"z": -3.0440761415,
				"element": "H" 
			},
			{
				"x": -2.0340275376,
				"y": 2.1611382615,
				"z": -2.0425672615,
				"element": "H" 
			},
			{
				"x": -1.0835163309,
				"y": 0.7796722134,
				"z": -2.6095878952,
				"element": "H" 
			},
			{
				"x": 1.72004552,
				"y": 2.0351460482,
				"z": -2.1134289556,
				"element": "H" 
			},
			{
				"x": 1.9475306103,
				"y": 1.4462562666,
				"z": -0.4525391586,
				"element": "H" 
			},
			{
				"x": 1.2808980307,
				"y": 0.3703058358,
				"z": -1.6797196961,
				"element": "H" 
			},
			{
				"x": 0.359982495,
				"y": 3.9999796587,
				"z": -1.2814337387,
				"element": "H" 
			},
			{
				"x": -1.056575835,
				"y": 3.7433222465,
				"z": -0.249203304,
				"element": "H" 
			},
			{
				"x": 0.5665158622,
				"y": 3.4498140983,
				"z": 0.3923117446,
				"element": "H" 
			},
			{
				"x": -3.2347719151,
				"y": -1.1833511522,
				"z": 2.6597692367,
				"element": "H" 
			},
			{
				"x": -4.0293477473,
				"y": 0.2047377471,
				"z": 2.2047450258,
				"element": "H" 
			},
			{
				"x": -2.8370122781,
				"y": 1.8192776549,
				"z": 0.3865345187,
				"element": "H" 
			},
			{
				"x": -1.5084944671,
				"y": -0.9795690793,
				"z": 4.2191429497,
				"element": "H" 
			},
			{
				"x": -0.7115992266,
				"y": -2.9432126576,
				"z": 5.5420140961,
				"element": "H" 
			},
			{
				"x": 1.605943849,
				"y": -4.2778210927,
				"z": 2.1963285304,
				"element": "H" 
			},
			{
				"x": 0.7777615937,
				"y": -2.3266148964,
				"z": 0.8450753002,
				"element": "H" 
			}
		],
		 "valence_orbital": [ 
			{
				"type": "occ",
				"energy": -0.27559,
				"method": "rhf"
			},
			{
				"type": "occ",
				"energy": -0.27153,
				"method": "rhf"
			},
			{
				"type": "occ",
				"energy": -0.26383,
				"method": "rhf"
			},
			{
				"type": "occ",
				"energy": -0.21615,
				"method": "rhf"
			},
			{
				"type": "occ",
				"energy": -0.20686,
				"method": "rhf"
			},
			{
				"type": "unocc",
				"energy": -0.016,
				"method": "rhf"
			},
			{
				"type": "unocc",
				"energy": -0.01131,
				"method": "rhf"
			},
			{
				"type": "unocc",
				"energy": 0.0479,
				"method": "rhf"
			},
			{
				"type": "unocc",
				"energy": 0.07152,
				"method": "rhf"
			},
			{
				"type": "unocc",
				"energy": 0.08695,
				"method": "rhf"
			}
		],
		"cosmo_sigma_profile": { 
			"-0.025": 0.0,
			"-0.024": 0.0,
			"-0.023": 0.0,
			"-0.022": 0.0,
			"-0.021": 0.0,
			"-0.02": 0.0,
			"-0.019": 0.0,
			"-0.018": 0.0,
			"-0.017": 0.0,
			"-0.016": 0.0,
			"-0.015": 0.0,
			"-0.014": 0.133592938238,
			"-0.013": 1.66783637354,
			"-0.012": 2.08903864177,
			"-0.011": 3.13163392695,
			"-0.01": 3.03977555858,
			"-0.009": 2.29089433865,
			"-0.008": 3.01832553402,
			"-0.007": 6.38417154179,
			"-0.006": 8.50835906696,
			"-0.005": 10.5453203293,
			"-0.004": 10.2269187667,
			"-0.003": 17.813780799,
			"-0.002": 25.7631803141,
			"-0.001": 23.7845246378,
			"0.0": 27.7096589887,
			"0.001": 35.2469766102,
			"0.002": 28.0991815858,
			"0.003": 20.1352953404,
			"0.004": 19.5605208314,
			"0.005": 11.1872806121,
			"0.006": 7.06646191497,
			"0.007": 4.12849314587,
			"0.008": 3.25910036313,
			"0.009": 2.32537261709,
			"0.01": 1.59944997329,
			"0.011": 1.64783280116,
			"0.012": 1.62487069985,
			"0.013": 0.981885860121,
			"0.014": 0.450301119434,
			"0.015": 5.72001154222e-05,
			"0.016": 0.0,
			"0.017": 0.0,
			"0.018": 0.0,
			"0.019": 0.0,
			"0.02": 0.0,
			"0.021": 0.0,
			"0.022": 0.0,
			"0.023": 0.0,
			"0.024": 0.0,
			"0.025": 0.0
		}
	}
}
