{
	 "smiles": "CC(=O)OC(OC(C)=O)C1=C(C2=C(C=C1)C(=O)C1=C(Cl)C(Cl)=C(Cl)C(Cl)=C1C2=O)[N+]([O-])=O", 
	 "Tm": 523.15, 
	 "num_atms": 41, 
	 "gaussian": { 
		 "optdone": 1, 
		 "sigma_profile": "yes", 
		 "theory": "DFT", 
		 "functional": "B3LYP", 
		 "basiset": "6-31G**", 
		 "properties": { 
			 "R2extent": 22244.0956, 
			 "electric_dipole_moment_norm": 5.12607959458, 
			 "electric_quadrupole_moment_norm": 20.0674597777, 
			 "total_energy": -3226.63819291, 
			 "HOMO_LUMO_gap": 0.1444, 
			 "cosmo_polarized_energy": -21.21, 
			 "cosmo_cavitation_energy": 55.06, 
			 "cosmo_dispersion_energy": -37.51, 
			 "cosmo_repulsion_energy": 2.75, 
			 "cosmo_total_nonelectrostatic_energy": 20.31, 
			 "SMD_solvation_energy": 12.95 
		},
		"coords": [
			{
				"x": 1.2751881309,
				"y": 6.3014343049,
				"z": 1.0842520822,
				"element": "C" 
			},
			{
				"x": 0.269438807,
				"y": 5.220177352,
				"z": 0.7959380856,
				"element": "C" 
			},
			{
				"x": -0.9280625553,
				"y": 5.3112184301,
				"z": 0.8821567474,
				"element": "O" 
			},
			{
				"x": 0.9155541341,
				"y": 4.0628511319,
				"z": 0.4088352249,
				"element": "O" 
			},
			{
				"x": 0.1165709742,
				"y": 3.0560481434,
				"z": -0.1926186453,
				"element": "C" 
			},
			{
				"x": 0.7379655687,
				"y": 2.6670183967,
				"z": -1.4099838807,
				"element": "O" 
			},
			{
				"x": 0.5127959658,
				"y": 3.4900850114,
				"z": -2.490855329,
				"element": "C" 
			},
			{
				"x": 1.0503515178,
				"y": 2.8535083805,
				"z": -3.742944441,
				"element": "C" 
			},
			{
				"x": -0.0495598762,
				"y": 4.5522967055,
				"z": -2.3963290843,
				"element": "O" 
			},
			{
				"x": 0.0520286982,
				"y": 1.8090695567,
				"z": 0.6745445301,
				"element": "C" 
			},
			{
				"x": -0.5441655796,
				"y": 0.6324723032,
				"z": 0.2060394743,
				"element": "C" 
			},
			{
				"x": -0.6109186721,
				"y": -0.5257390606,
				"z": 0.9892648784,
				"element": "C" 
			},
			{
				"x": -0.0672667596,
				"y": -0.4980285452,
				"z": 2.2788019396,
				"element": "C" 
			},
			{
				"x": 0.5136105897,
				"y": 0.6731716213,
				"z": 2.7727654209,
				"element": "C" 
			},
			{
				"x": 0.5780316863,
				"y": 1.8070623437,
				"z": 1.9723011733,
				"element": "C" 
			},
			{
				"x": -0.1288391153,
				"y": -1.7036073829,
				"z": 3.158284015,
				"element": "C" 
			},
			{
				"x": 0.0712342957,
				"y": -1.5858209178,
				"z": 4.3554428766,
				"element": "O" 
			},
			{
				"x": -0.4011465893,
				"y": -3.0295976331,
				"z": 2.4951873533,
				"element": "C" 
			},
			{
				"x": -0.0761672056,
				"y": -4.2486633592,
				"z": 3.121471708,
				"element": "C" 
			},
			{
				"x": 0.6796443695,
				"y": -4.3190910592,
				"z": 4.6819319457,
				"element": "Cl" 
			},
			{
				"x": -0.3314131675,
				"y": -5.4670599756,
				"z": 2.4626056621,
				"element": "C" 
			},
			{
				"x": 0.0719576691,
				"y": -6.9707265376,
				"z": 3.2217562483,
				"element": "Cl" 
			},
			{
				"x": -0.9069750372,
				"y": -5.4725131511,
				"z": 1.1820266708,
				"element": "C" 
			},
			{
				"x": -1.1961579653,
				"y": -6.9789027903,
				"z": 0.3796152089,
				"element": "Cl" 
			},
			{
				"x": -1.2430053488,
				"y": -4.2591191375,
				"z": 0.552338912,
				"element": "C" 
			},
			{
				"x": -1.9028819849,
				"y": -4.3252968671,
				"z": -1.0505908178,
				"element": "Cl" 
			},
			{
				"x": -0.9936443888,
				"y": -3.0396154206,
				"z": 1.2063132186,
				"element": "C" 
			},
			{
				"x": -1.3849493617,
				"y": -1.7307969292,
				"z": 0.5706797006,
				"element": "C" 
			},
			{
				"x": -2.3126874542,
				"y": -1.6287216388,
				"z": -0.2098943506,
				"element": "O" 
			},
			{
				"x": -1.0579959901,
				"y": 0.6047684921,
				"z": -1.1831458408,
				"element": "N" 
			},
			{
				"x": -1.9425478522,
				"y": 1.4071092001,
				"z": -1.46205808,
				"element": "O" 
			},
			{
				"x": -0.5216373323,
				"y": -0.1785709054,
				"z": -1.9555637456,
				"element": "O" 
			},
			{
				"x": 0.7841815505,
				"y": 7.1263993617,
				"z": 1.599237339,
				"element": "H" 
			},
			{
				"x": 1.6881657624,
				"y": 6.6587807466,
				"z": 0.1352517578,
				"element": "H" 
			},
			{
				"x": 2.105301896,
				"y": 5.9143490651,
				"z": 1.6803748369,
				"element": "H" 
			},
			{
				"x": -0.879520686,
				"y": 3.4602228786,
				"z": -0.3839033117,
				"element": "H" 
			},
			{
				"x": 0.9122537032,
				"y": 3.5311126742,
				"z": -4.5844644074,
				"element": "H" 
			},
			{
				"x": 0.5190020348,
				"y": 1.9135199406,
				"z": -3.9226893637,
				"element": "H" 
			},
			{
				"x": 2.1098464784,
				"y": 2.6119629131,
				"z": -3.6191849483,
				"element": "H" 
			},
			{
				"x": 0.90832394,
				"y": 0.6724695172,
				"z": 3.7824632419,
				"element": "H" 
			},
			{
				"x": 1.0501951497,
				"y": 2.7094628407,
				"z": 2.340345994,
				"element": "H" 
			}
		],
		 "valence_orbital": [ 
			{
				"type": "occ",
				"energy": -0.29026,
				"method": "rhf"
			},
			{
				"type": "occ",
				"energy": -0.28678,
				"method": "rhf"
			},
			{
				"type": "occ",
				"energy": -0.28391,
				"method": "rhf"
			},
			{
				"type": "occ",
				"energy": -0.27618,
				"method": "rhf"
			},
			{
				"type": "occ",
				"energy": -0.27343,
				"method": "rhf"
			},
			{
				"type": "unocc",
				"energy": -0.12903,
				"method": "rhf"
			},
			{
				"type": "unocc",
				"energy": -0.10223,
				"method": "rhf"
			},
			{
				"type": "unocc",
				"energy": -0.08313,
				"method": "rhf"
			},
			{
				"type": "unocc",
				"energy": -0.06087,
				"method": "rhf"
			},
			{
				"type": "unocc",
				"energy": -0.04989,
				"method": "rhf"
			}
		],
		"cosmo_sigma_profile": { 
			"-0.025": 0.0,
			"-0.024": 0.0,
			"-0.023": 0.0,
			"-0.022": 0.0,
			"-0.021": 0.0,
			"-0.02": 0.0,
			"-0.019": 0.0,
			"-0.018": 0.0,
			"-0.017": 0.0,
			"-0.016": 0.0,
			"-0.015": 0.0,
			"-0.014": 0.0,
			"-0.013": 0.0,
			"-0.012": 0.104737257462,
			"-0.011": 0.598930029443,
			"-0.01": 0.60629832279,
			"-0.009": 2.12390808292,
			"-0.008": 6.34259093329,
			"-0.007": 14.3270396246,
			"-0.006": 19.5645456263,
			"-0.005": 25.0598293314,
			"-0.004": 45.6854973389,
			"-0.003": 48.9390004693,
			"-0.002": 38.7325093856,
			"-0.001": 32.31554411,
			"0.0": 25.0739432566,
			"0.001": 28.1225515943,
			"0.002": 36.0803151026,
			"0.003": 30.2331185807,
			"0.004": 16.3092457523,
			"0.005": 13.9547532344,
			"0.006": 16.903474049,
			"0.007": 13.8055026552,
			"0.008": 11.4069488303,
			"0.009": 10.2784615023,
			"0.01": 9.68002054403,
			"0.011": 5.02194428486,
			"0.012": 0.828518004346,
			"0.013": 0.0,
			"0.014": 0.0,
			"0.015": 0.0,
			"0.016": 0.0,
			"0.017": 0.0,
			"0.018": 0.0,
			"0.019": 0.0,
			"0.02": 0.0,
			"0.021": 0.0,
			"0.022": 0.0,
			"0.023": 0.0,
			"0.024": 0.0,
			"0.025": 0.0
		}
	}
}
