{
	 "smiles": "CC(C)(C)OC(=O)C1=CC=C(N)C=C1", 
	 "Tm": 373.15, 
	 "num_atms": 29, 
	 "gaussian": { 
		 "optdone": 1, 
		 "sigma_profile": "yes", 
		 "theory": "DFT", 
		 "functional": "B3LYP", 
		 "basiset": "6-31G**", 
		 "properties": { 
			 "R2extent": 3861.5176, 
			 "electric_dipole_moment_norm": 3.36415969151, 
			 "electric_quadrupole_moment_norm": 17.6588104942, 
			 "total_energy": -633.449300927, 
			 "HOMO_LUMO_gap": 0.18467, 
			 "cosmo_polarized_energy": -12.57, 
			 "cosmo_cavitation_energy": 31.77, 
			 "cosmo_dispersion_energy": -22.63, 
			 "cosmo_repulsion_energy": 1.78, 
			 "cosmo_total_nonelectrostatic_energy": 10.92, 
			 "SMD_solvation_energy": 6.38 
		},
		"coords": [
			{
				"x": -2.3405939866,
				"y": 2.0717555304,
				"z": -2.222131669,
				"element": "C" 
			},
			{
				"x": -1.2551196743,
				"y": 2.4427228062,
				"z": -1.2053780934,
				"element": "C" 
			},
			{
				"x": -0.063797518,
				"y": 3.1512735315,
				"z": -1.8598783598,
				"element": "C" 
			},
			{
				"x": -1.8396897788,
				"y": 3.2968269413,
				"z": -0.0769677781,
				"element": "C" 
			},
			{
				"x": -0.7977125303,
				"y": 1.2392093054,
				"z": -0.4934538185,
				"element": "O" 
			},
			{
				"x": -0.2073391274,
				"y": 0.2099919114,
				"z": -1.1436205963,
				"element": "C" 
			},
			{
				"x": 0.0001404768,
				"y": 0.1768091459,
				"z": -2.34592541,
				"element": "O" 
			},
			{
				"x": 0.1644424002,
				"y": -0.888705496,
				"z": -0.2166457726,
				"element": "C" 
			},
			{
				"x": -0.0741365586,
				"y": -0.8413446831,
				"z": 1.1657771828,
				"element": "C" 
			},
			{
				"x": 0.2976985037,
				"y": -1.896559236,
				"z": 1.9871280323,
				"element": "C" 
			},
			{
				"x": 0.9221210351,
				"y": -3.0387591555,
				"z": 1.4485588747,
				"element": "C" 
			},
			{
				"x": 1.2483895942,
				"y": -4.1158102608,
				"z": 2.2593951035,
				"element": "N" 
			},
			{
				"x": 1.1605248872,
				"y": -3.0858412965,
				"z": 0.0604587974,
				"element": "C" 
			},
			{
				"x": 0.7862183462,
				"y": -2.0272531314,
				"z": -0.7526247471,
				"element": "C" 
			},
			{
				"x": -3.1511291957,
				"y": 1.5254499518,
				"z": -1.7294088971,
				"element": "H" 
			},
			{
				"x": -2.7616165586,
				"y": 2.983857257,
				"z": -2.6580033322,
				"element": "H" 
			},
			{
				"x": -1.933531438,
				"y": 1.4537592992,
				"z": -3.0224561855,
				"element": "H" 
			},
			{
				"x": 0.3645599003,
				"y": 2.5432252324,
				"z": -2.6567134841,
				"element": "H" 
			},
			{
				"x": 0.711299615,
				"y": 3.3570682833,
				"z": -1.1148156562,
				"element": "H" 
			},
			{
				"x": -0.39218867,
				"y": 4.1072098753,
				"z": -2.2811925848,
				"element": "H" 
			},
			{
				"x": -2.2231709167,
				"y": 4.2400456855,
				"z": -0.4776692147,
				"element": "H" 
			},
			{
				"x": -1.0745977607,
				"y": 3.5240672735,
				"z": 0.67131309,
				"element": "H" 
			},
			{
				"x": -2.6614618861,
				"y": 2.7715961769,
				"z": 0.4187164307,
				"element": "H" 
			},
			{
				"x": -0.5522183266,
				"y": 0.0328773305,
				"z": 1.592524795,
				"element": "H" 
			},
			{
				"x": 0.1040149961,
				"y": -1.8479707765,
				"z": 3.0559042208,
				"element": "H" 
			},
			{
				"x": 1.9505222059,
				"y": -4.7482681706,
				"z": 1.9037180541,
				"element": "H" 
			},
			{
				"x": 1.3525963118,
				"y": -3.9208173354,
				"z": 3.2445653633,
				"element": "H" 
			},
			{
				"x": 1.638275322,
				"y": -3.9623225748,
				"z": -0.370378197,
				"element": "H" 
			},
			{
				"x": 0.9700003318,
				"y": -2.0584934209,
				"z": -1.8213961481,
				"element": "H" 
			}
		],
		 "valence_orbital": [ 
			{
				"type": "occ",
				"energy": -0.30779,
				"method": "rhf"
			},
			{
				"type": "occ",
				"energy": -0.28236,
				"method": "rhf"
			},
			{
				"type": "occ",
				"energy": -0.25188,
				"method": "rhf"
			},
			{
				"type": "occ",
				"energy": -0.25056,
				"method": "rhf"
			},
			{
				"type": "occ",
				"energy": -0.20831,
				"method": "rhf"
			},
			{
				"type": "unocc",
				"energy": -0.02364,
				"method": "rhf"
			},
			{
				"type": "unocc",
				"energy": 0.00149,
				"method": "rhf"
			},
			{
				"type": "unocc",
				"energy": 0.06826,
				"method": "rhf"
			},
			{
				"type": "unocc",
				"energy": 0.08281,
				"method": "rhf"
			},
			{
				"type": "unocc",
				"energy": 0.08989,
				"method": "rhf"
			}
		],
		"cosmo_sigma_profile": { 
			"-0.025": 0.0,
			"-0.024": 0.0,
			"-0.023": 0.0,
			"-0.022": 0.0,
			"-0.021": 0.0,
			"-0.02": 0.0,
			"-0.019": 0.0,
			"-0.018": 0.0,
			"-0.017": 0.0,
			"-0.016": 0.0,
			"-0.015": 0.0,
			"-0.014": 0.113313246869,
			"-0.013": 2.03122498025,
			"-0.012": 2.82929771532,
			"-0.011": 2.90005383967,
			"-0.01": 2.85684993113,
			"-0.009": 2.82142556695,
			"-0.008": 2.98582342611,
			"-0.007": 3.82877422121,
			"-0.006": 4.58756172456,
			"-0.005": 6.74741543331,
			"-0.004": 17.378167895,
			"-0.003": 21.9192899123,
			"-0.002": 19.4871710924,
			"-0.001": 21.5101294504,
			"0.0": 28.1899614515,
			"0.001": 25.0130117348,
			"0.002": 13.1345805073,
			"0.003": 15.5553846012,
			"0.004": 14.7534763007,
			"0.005": 17.0855999455,
			"0.006": 5.72569264878,
			"0.007": 3.8887010169,
			"0.008": 1.84141607097,
			"0.009": 2.34114204623,
			"0.01": 2.30375620561,
			"0.011": 2.01543451761,
			"0.012": 3.38059795862,
			"0.013": 2.32859556291,
			"0.014": 0.0265231039436,
			"0.015": 0.0,
			"0.016": 0.0,
			"0.017": 0.0,
			"0.018": 0.0,
			"0.019": 0.0,
			"0.02": 0.0,
			"0.021": 0.0,
			"0.022": 0.0,
			"0.023": 0.0,
			"0.024": 0.0,
			"0.025": 0.0
		}
	}
}
