{
	 "smiles": "SC1=NC2=C(C=CC=C2)C(=O)N1CC1=CC=C(Cl)C=C1", 
	 "Tm": 495.15, 
	 "num_atms": 31, 
	 "gaussian": { 
		 "optdone": 1, 
		 "sigma_profile": "yes", 
		 "theory": "DFT", 
		 "functional": "B3LYP", 
		 "basiset": "6-31G**", 
		 "properties": { 
			 "R2extent": 8447.2327, 
			 "electric_dipole_moment_norm": 2.6793675877, 
			 "electric_quadrupole_moment_norm": 16.8874444603, 
			 "total_energy": -1621.36023327, 
			 "HOMO_LUMO_gap": 0.17852, 
			 "cosmo_polarized_energy": -11.12, 
			 "cosmo_cavitation_energy": 38.23, 
			 "cosmo_dispersion_energy": -28.3, 
			 "cosmo_repulsion_energy": 2.09, 
			 "cosmo_total_nonelectrostatic_energy": 12.03, 
			 "SMD_solvation_energy": 4.59 
		},
		"coords": [
			{
				"x": -1.3349495752,
				"y": -1.1986248452,
				"z": 2.7245132816,
				"element": "S" 
			},
			{
				"x": -1.3763780714,
				"y": -0.3423320008,
				"z": 1.1535559608,
				"element": "C" 
			},
			{
				"x": -2.1246289385,
				"y": -0.8314690749,
				"z": 0.2197923755,
				"element": "N" 
			},
			{
				"x": -2.1725518876,
				"y": -0.1653898939,
				"z": -0.99172531,
				"element": "C" 
			},
			{
				"x": -1.4313570444,
				"y": 1.0131759801,
				"z": -1.224133085,
				"element": "C" 
			},
			{
				"x": -1.5021364271,
				"y": 1.668034051,
				"z": -2.4655047045,
				"element": "C" 
			},
			{
				"x": -2.3062406508,
				"y": 1.1546420847,
				"z": -3.4702455466,
				"element": "C" 
			},
			{
				"x": -3.0465600464,
				"y": -0.0214041701,
				"z": -3.2438383037,
				"element": "C" 
			},
			{
				"x": -2.9842594078,
				"y": -0.6765286753,
				"z": -2.0242184159,
				"element": "C" 
			},
			{
				"x": -0.5824855768,
				"y": 1.5465604884,
				"z": -0.1616234912,
				"element": "C" 
			},
			{
				"x": 0.1132473003,
				"y": 2.5533260293,
				"z": -0.2542336735,
				"element": "O" 
			},
			{
				"x": -0.6035385561,
				"y": 0.8001094362,
				"z": 1.0459487263,
				"element": "N" 
			},
			{
				"x": 0.2080562828,
				"y": 1.3346596156,
				"z": 2.1662290297,
				"element": "C" 
			},
			{
				"x": 1.6045636426,
				"y": 0.7504898603,
				"z": 2.268124079,
				"element": "C" 
			},
			{
				"x": 1.9872959135,
				"y": 0.0099106602,
				"z": 3.3914177296,
				"element": "C" 
			},
			{
				"x": 3.2790521369,
				"y": -0.5054942224,
				"z": 3.5102507129,
				"element": "C" 
			},
			{
				"x": 4.1938591645,
				"y": -0.2755528693,
				"z": 2.4857977182,
				"element": "C" 
			},
			{
				"x": 5.8229454966,
				"y": -0.9230165702,
				"z": 2.6192799834,
				"element": "Cl" 
			},
			{
				"x": 3.8402519337,
				"y": 0.4652344959,
				"z": 1.3570470438,
				"element": "C" 
			},
			{
				"x": 2.5493461978,
				"y": 0.9791647475,
				"z": 1.2563713071,
				"element": "C" 
			},
			{
				"x": -2.2640945978,
				"y": -2.0834030397,
				"z": 2.320366763,
				"element": "H" 
			},
			{
				"x": -0.9171233778,
				"y": 2.5707485571,
				"z": -2.605648532,
				"element": "H" 
			},
			{
				"x": -2.3658772435,
				"y": 1.6558642366,
				"z": -4.4312746763,
				"element": "H" 
			},
			{
				"x": -3.6745085746,
				"y": -0.4206051694,
				"z": -4.0353492461,
				"element": "H" 
			},
			{
				"x": -3.5479100424,
				"y": -1.5835876828,
				"z": -1.8334779764,
				"element": "H" 
			},
			{
				"x": 0.2642958052,
				"y": 2.409198672,
				"z": 1.9845747998,
				"element": "H" 
			},
			{
				"x": -0.3475452396,
				"y": 1.1724833874,
				"z": 3.0927525538,
				"element": "H" 
			},
			{
				"x": 1.2733059096,
				"y": -0.1702828151,
				"z": 4.1901140266,
				"element": "H" 
			},
			{
				"x": 3.5694661713,
				"y": -1.0793965833,
				"z": 4.3831167181,
				"element": "H" 
			},
			{
				"x": 4.5690609322,
				"y": 0.6430555813,
				"z": 0.5740028373,
				"element": "H" 
			},
			{
				"x": 2.2707983708,
				"y": 1.5734297284,
				"z": 0.3921173147,
				"element": "H" 
			}
		],
		 "valence_orbital": [ 
			{
				"type": "occ",
				"energy": -0.27542,
				"method": "rhf"
			},
			{
				"type": "occ",
				"energy": -0.26594,
				"method": "rhf"
			},
			{
				"type": "occ",
				"energy": -0.26443,
				"method": "rhf"
			},
			{
				"type": "occ",
				"energy": -0.24668,
				"method": "rhf"
			},
			{
				"type": "occ",
				"energy": -0.22819,
				"method": "rhf"
			},
			{
				"type": "unocc",
				"energy": -0.04967,
				"method": "rhf"
			},
			{
				"type": "unocc",
				"energy": -0.03951,
				"method": "rhf"
			},
			{
				"type": "unocc",
				"energy": -0.02394,
				"method": "rhf"
			},
			{
				"type": "unocc",
				"energy": -0.01654,
				"method": "rhf"
			},
			{
				"type": "unocc",
				"energy": 0.00332,
				"method": "rhf"
			}
		],
		"cosmo_sigma_profile": { 
			"-0.025": 0.0,
			"-0.024": 0.0,
			"-0.023": 0.0,
			"-0.022": 0.0,
			"-0.021": 0.0,
			"-0.02": 0.0,
			"-0.019": 0.0,
			"-0.018": 0.0,
			"-0.017": 0.0,
			"-0.016": 0.0,
			"-0.015": 0.0,
			"-0.014": 0.0,
			"-0.013": 0.0,
			"-0.012": 0.891787370536,
			"-0.011": 1.25169869784,
			"-0.01": 1.2344363511,
			"-0.009": 1.30446802756,
			"-0.008": 2.2011167968,
			"-0.007": 9.76715137426,
			"-0.006": 17.8248738082,
			"-0.005": 22.0340900398,
			"-0.004": 22.1594537211,
			"-0.003": 18.5560299003,
			"-0.002": 18.0465643126,
			"-0.001": 20.4465127931,
			"0.0": 21.7639958974,
			"0.001": 28.0040883213,
			"0.002": 31.4909374751,
			"0.003": 36.0333382871,
			"0.004": 25.5135560134,
			"0.005": 11.9492115311,
			"0.006": 5.82995339314,
			"0.007": 2.50345100895,
			"0.008": 1.96516101516,
			"0.009": 2.40444248058,
			"0.01": 2.4395346228,
			"0.011": 3.08821709286,
			"0.012": 2.90051259319,
			"0.013": 0.677537003872,
			"0.014": 0.0,
			"0.015": 0.0,
			"0.016": 0.0,
			"0.017": 0.0,
			"0.018": 0.0,
			"0.019": 0.0,
			"0.02": 0.0,
			"0.021": 0.0,
			"0.022": 0.0,
			"0.023": 0.0,
			"0.024": 0.0,
			"0.025": 0.0
		}
	}
}
