{
	 "smiles": "ClCCSC1=CC=C(Br)C=C1", 
	 "Tm": 313.15, 
	 "num_atms": 19, 
	 "gaussian": { 
		 "optdone": 1, 
		 "sigma_profile": "yes", 
		 "theory": "DFT", 
		 "functional": "B3LYP", 
		 "basiset": "6-31G**", 
		 "properties": { 
			 "R2extent": 5143.8609, 
			 "electric_dipole_moment_norm": 2.61802214276, 
			 "electric_quadrupole_moment_norm": 12.0959249109, 
			 "total_energy": -3739.45694501, 
			 "HOMO_LUMO_gap": 0.20044, 
			 "cosmo_polarized_energy": -8.5, 
			 "cosmo_cavitation_energy": 28.49, 
			 "cosmo_dispersion_energy": -21.19, 
			 "cosmo_repulsion_energy": 1.68, 
			 "cosmo_total_nonelectrostatic_energy": 8.98, 
			 "SMD_solvation_energy": 2.86 
		},
		"coords": [
			{
				"x": 1.7873891638,
				"y": 0.7069189449,
				"z": -2.8298340691,
				"element": "Cl" 
			},
			{
				"x": 2.6914286316,
				"y": 2.2221797435,
				"z": -2.4133351464,
				"element": "C" 
			},
			{
				"x": 2.5004476766,
				"y": 2.6588039012,
				"z": -0.9674730358,
				"element": "C" 
			},
			{
				"x": 3.3406434136,
				"y": 1.6148022582,
				"z": 0.2992073284,
				"element": "S" 
			},
			{
				"x": 2.0458255199,
				"y": 0.4911257817,
				"z": 0.830837142,
				"element": "C" 
			},
			{
				"x": 2.1460933692,
				"y": -0.8745238493,
				"z": 0.5400745543,
				"element": "C" 
			},
			{
				"x": 1.186201219,
				"y": -1.7713841462,
				"z": 1.009888427,
				"element": "C" 
			},
			{
				"x": 0.1164626321,
				"y": -1.2907115567,
				"z": 1.7626003487,
				"element": "C" 
			},
			{
				"x": -1.2083338829,
				"y": -2.511154949,
				"z": 2.3992323454,
				"element": "Br" 
			},
			{
				"x": -0.0022290235,
				"y": 0.0656727596,
				"z": 2.0640273924,
				"element": "C" 
			},
			{
				"x": 0.9733441474,
				"y": 0.9507791306,
				"z": 1.6070338023,
				"element": "C" 
			},
			{
				"x": 2.3172315958,
				"y": 2.9935817499,
				"z": -3.0911915277,
				"element": "H" 
			},
			{
				"x": 3.7416417122,
				"y": 2.0277735778,
				"z": -2.6348335408,
				"element": "H" 
			},
			{
				"x": 2.9478948764,
				"y": 3.6535276092,
				"z": -0.8601769304,
				"element": "H" 
			},
			{
				"x": 1.440757118,
				"y": 2.7417931449,
				"z": -0.7153441166,
				"element": "H" 
			},
			{
				"x": 2.9708450852,
				"y": -1.2347920503,
				"z": -0.0651459974,
				"element": "H" 
			},
			{
				"x": 1.2636202086,
				"y": -2.8286029753,
				"z": 0.783276662,
				"element": "H" 
			},
			{
				"x": -0.8349245978,
				"y": 0.4222385132,
				"z": 2.6595730551,
				"element": "H" 
			},
			{
				"x": 0.9036611349,
				"y": 2.0032724121,
				"z": 1.8642833064,
				"element": "H" 
			}
		],
		 "valence_orbital": [ 
			{
				"type": "occ",
				"energy": -0.29755,
				"method": "rhf"
			},
			{
				"type": "occ",
				"energy": -0.28976,
				"method": "rhf"
			},
			{
				"type": "occ",
				"energy": -0.26822,
				"method": "rhf"
			},
			{
				"type": "occ",
				"energy": -0.25463,
				"method": "rhf"
			},
			{
				"type": "occ",
				"energy": -0.23176,
				"method": "rhf"
			},
			{
				"type": "unocc",
				"energy": -0.03132,
				"method": "rhf"
			},
			{
				"type": "unocc",
				"energy": -0.01946,
				"method": "rhf"
			},
			{
				"type": "unocc",
				"energy": 0.0037,
				"method": "rhf"
			},
			{
				"type": "unocc",
				"energy": 0.02127,
				"method": "rhf"
			},
			{
				"type": "unocc",
				"energy": 0.04053,
				"method": "rhf"
			}
		],
		"cosmo_sigma_profile": { 
			"-0.025": 0.0,
			"-0.024": 0.0,
			"-0.023": 0.0,
			"-0.022": 0.0,
			"-0.021": 0.0,
			"-0.02": 0.0,
			"-0.019": 0.0,
			"-0.018": 0.0,
			"-0.017": 0.0,
			"-0.016": 0.0,
			"-0.015": 0.0,
			"-0.014": 0.0,
			"-0.013": 0.0,
			"-0.012": 0.0,
			"-0.011": 0.0,
			"-0.01": 0.0,
			"-0.009": 0.0,
			"-0.008": 2.65720255615,
			"-0.007": 15.475936012,
			"-0.006": 17.7615042995,
			"-0.005": 15.5319788525,
			"-0.004": 13.7736893731,
			"-0.003": 12.101740315,
			"-0.002": 10.0240326596,
			"-0.001": 11.5616183709,
			"0.0": 14.0944780011,
			"0.001": 17.042680843,
			"0.002": 22.3481828289,
			"0.003": 24.312798298,
			"0.004": 22.4727791282,
			"0.005": 14.9866545975,
			"0.006": 10.9738510539,
			"0.007": 6.20525654728,
			"0.008": 1.7407030176,
			"0.009": 1.24683599692,
			"0.01": 0.127947815909,
			"0.011": 0.0,
			"0.012": 0.0,
			"0.013": 0.0,
			"0.014": 0.0,
			"0.015": 0.0,
			"0.016": 0.0,
			"0.017": 0.0,
			"0.018": 0.0,
			"0.019": 0.0,
			"0.02": 0.0,
			"0.021": 0.0,
			"0.022": 0.0,
			"0.023": 0.0,
			"0.024": 0.0,
			"0.025": 0.0
		}
	}
}
