{
	 "smiles": "CC(=O)C(C)=NO", 
	 "Tm": 349.95, 
	 "num_atms": 14, 
	 "gaussian": { 
		 "optdone": 1, 
		 "sigma_profile": "yes", 
		 "theory": "DFT", 
		 "functional": "B3LYP", 
		 "basiset": "6-31G**", 
		 "properties": { 
			 "R2extent": 1624.5072, 
			 "electric_dipole_moment_norm": 2.83128664038, 
			 "electric_quadrupole_moment_norm": 6.80784729191, 
			 "total_energy": -361.7873146, 
			 "HOMO_LUMO_gap": 0.19333, 
			 "cosmo_polarized_energy": -8.74, 
			 "cosmo_cavitation_energy": 18.27, 
			 "cosmo_dispersion_energy": -13.35, 
			 "cosmo_repulsion_energy": 1.16, 
			 "cosmo_total_nonelectrostatic_energy": 6.08, 
			 "SMD_solvation_energy": 4.61 
		},
		"coords": [
			{
				"x": -0.6195419568,
				"y": 1.128041787,
				"z": -2.227589656,
				"element": "C" 
			},
			{
				"x": -1.134474841,
				"y": -0.2552552607,
				"z": -1.8868582779,
				"element": "C" 
			},
			{
				"x": -0.8556983812,
				"y": -1.2331750767,
				"z": -2.5619621582,
				"element": "O" 
			},
			{
				"x": -2.0159443669,
				"y": -0.4182717472,
				"z": -0.6774335525,
				"element": "C" 
			},
			{
				"x": -2.537666811,
				"y": -1.7774611907,
				"z": -0.3200620749,
				"element": "C" 
			},
			{
				"x": -2.2566404432,
				"y": 0.6661887784,
				"z": -0.0268371442,
				"element": "N" 
			},
			{
				"x": -3.0752863671,
				"y": 0.4351789925,
				"z": 1.0741198616,
				"element": "O" 
			},
			{
				"x": -0.0029758553,
				"y": 1.0610491582,
				"z": -3.1246103029,
				"element": "H" 
			},
			{
				"x": -1.4516302033,
				"y": 1.8186203014,
				"z": -2.3936285615,
				"element": "H" 
			},
			{
				"x": -0.034385612,
				"y": 1.5363768444,
				"z": -1.3983371021,
				"element": "H" 
			},
			{
				"x": -3.6325014622,
				"y": -1.7735556646,
				"z": -0.3095201918,
				"element": "H" 
			},
			{
				"x": -2.2128416573,
				"y": -2.0565012604,
				"z": 0.6876074413,
				"element": "H" 
			},
			{
				"x": -2.1763261692,
				"y": -2.5092803205,
				"z": -1.0419304624,
				"element": "H" 
			},
			{
				"x": -3.1690858734,
				"y": 1.3181446589,
				"z": 1.4581421815,
				"element": "H" 
			}
		],
		 "valence_orbital": [ 
			{
				"type": "occ",
				"energy": -0.37294,
				"method": "rhf"
			},
			{
				"type": "occ",
				"energy": -0.35951,
				"method": "rhf"
			},
			{
				"type": "occ",
				"energy": -0.29443,
				"method": "rhf"
			},
			{
				"type": "occ",
				"energy": -0.2687,
				"method": "rhf"
			},
			{
				"type": "occ",
				"energy": -0.25336,
				"method": "rhf"
			},
			{
				"type": "unocc",
				"energy": -0.06003,
				"method": "rhf"
			},
			{
				"type": "unocc",
				"energy": 0.05459,
				"method": "rhf"
			},
			{
				"type": "unocc",
				"energy": 0.06352,
				"method": "rhf"
			},
			{
				"type": "unocc",
				"energy": 0.1212,
				"method": "rhf"
			},
			{
				"type": "unocc",
				"energy": 0.12512,
				"method": "rhf"
			}
		],
		"cosmo_sigma_profile": { 
			"-0.025": 0.0,
			"-0.024": 0.0,
			"-0.023": 0.0,
			"-0.022": 0.0,
			"-0.021": 0.0,
			"-0.02": 0.0,
			"-0.019": 0.0241710708021,
			"-0.018": 0.759414549143,
			"-0.017": 1.28587282217,
			"-0.016": 0.78216640272,
			"-0.015": 0.931643409292,
			"-0.014": 0.654310999093,
			"-0.013": 0.693841572557,
			"-0.012": 0.935512214311,
			"-0.011": 0.602045314281,
			"-0.01": 0.480640949729,
			"-0.009": 0.517976766592,
			"-0.008": 1.08150619164,
			"-0.007": 0.421778429821,
			"-0.006": 2.96606596154,
			"-0.005": 9.02906275871,
			"-0.004": 10.8103829998,
			"-0.003": 14.0508172908,
			"-0.002": 14.6859310165,
			"-0.001": 17.2728691366,
			"0.0": 11.2071482647,
			"0.001": 6.73628743871,
			"0.002": 5.18318445162,
			"0.003": 5.13238146178,
			"0.004": 5.38953337997,
			"0.005": 5.68102151723,
			"0.006": 4.26227547187,
			"0.007": 4.01641323757,
			"0.008": 4.50014788233,
			"0.009": 3.89154560364,
			"0.01": 2.81571411016,
			"0.011": 3.70858654838,
			"0.012": 2.65160511905,
			"0.013": 0.572447383806,
			"0.014": 0.0,
			"0.015": 0.0,
			"0.016": 0.0,
			"0.017": 0.0,
			"0.018": 0.0,
			"0.019": 0.0,
			"0.02": 0.0,
			"0.021": 0.0,
			"0.022": 0.0,
			"0.023": 0.0,
			"0.024": 0.0,
			"0.025": 0.0
		}
	}
}
