{
	 "smiles": "NC1=NC2=C(S1)C=CC(F)=C2F", 
	 "Tm": 323.15, 
	 "num_atms": 16, 
	 "gaussian": { 
		 "optdone": 1, 
		 "sigma_profile": "yes", 
		 "theory": "DFT", 
		 "functional": "B3LYP", 
		 "basiset": "6-31G**", 
		 "properties": { 
			 "R2extent": 2753.4984, 
			 "electric_dipole_moment_norm": 4.10668576227, 
			 "electric_quadrupole_moment_norm": 15.9089981416, 
			 "total_energy": -976.513894516, 
			 "HOMO_LUMO_gap": 0.19814, 
			 "cosmo_polarized_energy": -11.64, 
			 "cosmo_cavitation_energy": 23.38, 
			 "cosmo_dispersion_energy": -17.9, 
			 "cosmo_repulsion_energy": 1.33, 
			 "cosmo_total_nonelectrostatic_energy": 6.81, 
			 "SMD_solvation_energy": 2.9 
		},
		"coords": [
			{
				"x": 2.3961916549,
				"y": -2.4023045015,
				"z": -3.1397031826,
				"element": "N" 
			},
			{
				"x": 1.5235777914,
				"y": -1.9642368403,
				"z": -2.1827479395,
				"element": "C" 
			},
			{
				"x": 0.7306195059,
				"y": -0.9498204899,
				"z": -2.3361335463,
				"element": "N" 
			},
			{
				"x": 0.0255179874,
				"y": -0.7127308587,
				"z": -1.1719918032,
				"element": "C" 
			},
			{
				"x": 0.2778035995,
				"y": -1.5865264409,
				"z": -0.0847222046,
				"element": "C" 
			},
			{
				"x": 1.5002994752,
				"y": -2.757918027,
				"z": -0.5788328352,
				"element": "S" 
			},
			{
				"x": -0.3776937174,
				"y": -1.4637557189,
				"z": 1.1380241634,
				"element": "C" 
			},
			{
				"x": -1.3122528558,
				"y": -0.4385520001,
				"z": 1.2885016425,
				"element": "C" 
			},
			{
				"x": -1.5696671498,
				"y": 0.4295699556,
				"z": 0.2277987454,
				"element": "C" 
			},
			{
				"x": -2.4719480015,
				"y": 1.4175416801,
				"z": 0.3757303935,
				"element": "F" 
			},
			{
				"x": -0.9169442113,
				"y": 0.3066749044,
				"z": -0.9947152646,
				"element": "C" 
			},
			{
				"x": -1.1947417269,
				"y": 1.1610072046,
				"z": -1.9890022835,
				"element": "F" 
			},
			{
				"x": 2.6798814379,
				"y": -3.3702292885,
				"z": -3.1209367824,
				"element": "H" 
			},
			{
				"x": 2.2277050866,
				"y": -2.0177727363,
				"z": -4.0595295484,
				"element": "H" 
			},
			{
				"x": -0.1729495089,
				"y": -2.141482586,
				"z": 1.9593729438,
				"element": "H" 
			},
			{
				"x": -1.8503993672,
				"y": -0.2954642566,
				"z": 2.2186875019,
				"element": "H" 
			}
		],
		 "valence_orbital": [ 
			{
				"type": "occ",
				"energy": -0.30514,
				"method": "rhf"
			},
			{
				"type": "occ",
				"energy": -0.29818,
				"method": "rhf"
			},
			{
				"type": "occ",
				"energy": -0.28558,
				"method": "rhf"
			},
			{
				"type": "occ",
				"energy": -0.2298,
				"method": "rhf"
			},
			{
				"type": "occ",
				"energy": -0.22198,
				"method": "rhf"
			},
			{
				"type": "unocc",
				"energy": -0.02384,
				"method": "rhf"
			},
			{
				"type": "unocc",
				"energy": -0.00838,
				"method": "rhf"
			},
			{
				"type": "unocc",
				"energy": -0.00245,
				"method": "rhf"
			},
			{
				"type": "unocc",
				"energy": 0.03816,
				"method": "rhf"
			},
			{
				"type": "unocc",
				"energy": 0.0601,
				"method": "rhf"
			}
		],
		"cosmo_sigma_profile": { 
			"-0.025": 0.0,
			"-0.024": 0.0,
			"-0.023": 0.0,
			"-0.022": 0.0,
			"-0.021": 0.0,
			"-0.02": 0.0,
			"-0.019": 0.0,
			"-0.018": 0.0,
			"-0.017": 0.0,
			"-0.016": 0.23020625862,
			"-0.015": 1.68081282913,
			"-0.014": 2.92307837758,
			"-0.013": 2.19823398154,
			"-0.012": 2.61188437522,
			"-0.011": 3.02411741455,
			"-0.01": 2.17556534301,
			"-0.009": 1.5750985539,
			"-0.008": 4.07352892144,
			"-0.007": 6.06432733736,
			"-0.006": 5.1605108096,
			"-0.005": 6.00748899353,
			"-0.004": 5.20761479302,
			"-0.003": 5.71557462018,
			"-0.002": 5.58396642101,
			"-0.001": 9.44389104374,
			"0.0": 18.8076357698,
			"0.001": 21.3675913424,
			"0.002": 18.4640547303,
			"0.003": 22.2388561427,
			"0.004": 25.6281321784,
			"0.005": 5.28901175257,
			"0.006": 2.80214173203,
			"0.007": 3.37917787951,
			"0.008": 1.97548879336,
			"0.009": 1.62689388042,
			"0.01": 1.85228285747,
			"0.011": 1.05450073485,
			"0.012": 0.927940189697,
			"0.013": 0.95350558149,
			"0.014": 0.779240060006,
			"0.015": 0.016621246536,
			"0.016": 0.0,
			"0.017": 0.0,
			"0.018": 0.0,
			"0.019": 0.0,
			"0.02": 0.0,
			"0.021": 0.0,
			"0.022": 0.0,
			"0.023": 0.0,
			"0.024": 0.0,
			"0.025": 0.0
		}
	}
}
