{
	 "smiles": "CC1=CC(=CC(C)=C1)N1N=CC(=N1)C(O)=O", 
	 "Tm": 432.15, 
	 "num_atms": 27, 
	 "gaussian": { 
		 "optdone": 1, 
		 "sigma_profile": "yes", 
		 "theory": "DFT", 
		 "functional": "B3LYP", 
		 "basiset": "6-31G**", 
		 "properties": { 
			 "R2extent": 4977.2768, 
			 "electric_dipole_moment_norm": 6.01271140252, 
			 "electric_quadrupole_moment_norm": 19.9411210211, 
			 "total_energy": -740.496400498, 
			 "HOMO_LUMO_gap": 0.17872, 
			 "cosmo_polarized_energy": -11.97, 
			 "cosmo_cavitation_energy": 32.21, 
			 "cosmo_dispersion_energy": -23.4, 
			 "cosmo_repulsion_energy": 1.82, 
			 "cosmo_total_nonelectrostatic_energy": 10.64, 
			 "SMD_solvation_energy": 5.86 
		},
		"coords": [
			{
				"x": -0.9512277774,
				"y": 3.4095032623,
				"z": 1.0799559095,
				"element": "C" 
			},
			{
				"x": -0.9894365454,
				"y": 2.2006839386,
				"z": 0.1744275814,
				"element": "C" 
			},
			{
				"x": 0.0065765714,
				"y": 1.2234992256,
				"z": 0.2583594125,
				"element": "C" 
			},
			{
				"x": -0.0657465885,
				"y": 0.0971728476,
				"z": -0.5622659952,
				"element": "C" 
			},
			{
				"x": -1.1095691271,
				"y": -0.0786164539,
				"z": -1.4714861666,
				"element": "C" 
			},
			{
				"x": -2.1072511527,
				"y": 0.8959049123,
				"z": -1.5684863006,
				"element": "C" 
			},
			{
				"x": -3.2260999939,
				"y": 0.7440180279,
				"z": -2.5723105975,
				"element": "C" 
			},
			{
				"x": -2.0339108212,
				"y": 2.0233422289,
				"z": -0.7413177037,
				"element": "C" 
			},
			{
				"x": 0.9507436008,
				"y": -0.9013511458,
				"z": -0.4723767563,
				"element": "N" 
			},
			{
				"x": 0.9408224577,
				"y": -2.0039249402,
				"z": -1.2374101443,
				"element": "N" 
			},
			{
				"x": 2.0301616082,
				"y": -2.668032905,
				"z": -0.8626795656,
				"element": "C" 
			},
			{
				"x": 2.680200479,
				"y": -1.9291693628,
				"z": 0.1419986204,
				"element": "C" 
			},
			{
				"x": 1.9756633406,
				"y": -0.8143582288,
				"z": 0.3697885282,
				"element": "N" 
			},
			{
				"x": 3.926554123,
				"y": -2.2352137445,
				"z": 0.8841055937,
				"element": "C" 
			},
			{
				"x": 4.284962063,
				"y": -1.3051992893,
				"z": 1.7964567459,
				"element": "O" 
			},
			{
				"x": 4.5767243633,
				"y": -3.2354078369,
				"z": 0.6917397797,
				"element": "O" 
			},
			{
				"x": -1.4228707081,
				"y": 4.2763002815,
				"z": 0.6081166026,
				"element": "H" 
			},
			{
				"x": -1.4873932298,
				"y": 3.2159572353,
				"z": 2.0172510723,
				"element": "H" 
			},
			{
				"x": 0.0753020114,
				"y": 3.6814546944,
				"z": 1.3420748248,
				"element": "H" 
			},
			{
				"x": 0.830503332,
				"y": 1.3296271981,
				"z": 0.9538134943,
				"element": "H" 
			},
			{
				"x": -1.1324580817,
				"y": -0.9660341278,
				"z": -2.0924474092,
				"element": "H" 
			},
			{
				"x": -2.9525495947,
				"y": 1.1909711089,
				"z": -3.5360681806,
				"element": "H" 
			},
			{
				"x": -3.4583676401,
				"y": -0.3088344039,
				"z": -2.7560716099,
				"element": "H" 
			},
			{
				"x": -4.1390446545,
				"y": 1.2400637101,
				"z": -2.2303776618,
				"element": "H" 
			},
			{
				"x": -2.8096202548,
				"y": 2.782509398,
				"z": -0.8118185632,
				"element": "H" 
			},
			{
				"x": 2.3035515078,
				"y": -3.6139952969,
				"z": -1.304123437,
				"element": "H" 
			},
			{
				"x": 3.6279807117,
				"y": -0.588370334,
				"z": 1.7879519262,
				"element": "H" 
			}
		],
		 "valence_orbital": [ 
			{
				"type": "occ",
				"energy": -0.31652,
				"method": "rhf"
			},
			{
				"type": "occ",
				"energy": -0.30557,
				"method": "rhf"
			},
			{
				"type": "occ",
				"energy": -0.27926,
				"method": "rhf"
			},
			{
				"type": "occ",
				"energy": -0.25454,
				"method": "rhf"
			},
			{
				"type": "occ",
				"energy": -0.24376,
				"method": "rhf"
			},
			{
				"type": "unocc",
				"energy": -0.06504,
				"method": "rhf"
			},
			{
				"type": "unocc",
				"energy": -0.02379,
				"method": "rhf"
			},
			{
				"type": "unocc",
				"energy": -0.01357,
				"method": "rhf"
			},
			{
				"type": "unocc",
				"energy": 0.01605,
				"method": "rhf"
			},
			{
				"type": "unocc",
				"energy": 0.07812,
				"method": "rhf"
			}
		],
		"cosmo_sigma_profile": { 
			"-0.025": 0.0,
			"-0.024": 0.0,
			"-0.023": 0.0,
			"-0.022": 0.0,
			"-0.021": 0.0,
			"-0.02": 0.0,
			"-0.019": 0.0,
			"-0.018": 0.0,
			"-0.017": 0.0,
			"-0.016": 0.41870682186,
			"-0.015": 0.514512145901,
			"-0.014": 0.14922851474,
			"-0.013": 0.862410301451,
			"-0.012": 0.959530752747,
			"-0.011": 0.77271703569,
			"-0.01": 2.39502549954,
			"-0.009": 2.08465145183,
			"-0.008": 2.55268372596,
			"-0.007": 2.08248863547,
			"-0.006": 4.13041173407,
			"-0.005": 14.6709637915,
			"-0.004": 23.1831387648,
			"-0.003": 21.5662089741,
			"-0.002": 27.0792563898,
			"-0.001": 29.3166348773,
			"0.0": 26.8899337542,
			"0.001": 18.1549005106,
			"0.002": 14.0879028375,
			"0.003": 14.8818919602,
			"0.004": 13.5442122711,
			"0.005": 5.61520264625,
			"0.006": 2.84230990719,
			"0.007": 3.78789781887,
			"0.008": 4.97888405611,
			"0.009": 4.6132175111,
			"0.01": 5.96940535767,
			"0.011": 5.5917601829,
			"0.012": 3.21798973674,
			"0.013": 0.488330855868,
			"0.014": 0.0,
			"0.015": 0.0,
			"0.016": 0.0,
			"0.017": 0.0,
			"0.018": 0.0,
			"0.019": 0.0,
			"0.02": 0.0,
			"0.021": 0.0,
			"0.022": 0.0,
			"0.023": 0.0,
			"0.024": 0.0,
			"0.025": 0.0
		}
	}
}
