{
	 "smiles": "OCC1=CC=C(C=C1)[N+]([O-])=O", 
	 "Tm": 368.35, 
	 "num_atms": 18, 
	 "gaussian": { 
		 "optdone": 1, 
		 "sigma_profile": "yes", 
		 "theory": "DFT", 
		 "functional": "B3LYP", 
		 "basiset": "6-31G**", 
		 "properties": { 
			 "R2extent": 3287.5462, 
			 "electric_dipole_moment_norm": 4.30371160744, 
			 "electric_quadrupole_moment_norm": 14.8709284898, 
			 "total_energy": -551.276549625, 
			 "HOMO_LUMO_gap": 0.18478, 
			 "cosmo_polarized_energy": -12.06, 
			 "cosmo_cavitation_energy": 22.91, 
			 "cosmo_dispersion_energy": -16.95, 
			 "cosmo_repulsion_energy": 1.37, 
			 "cosmo_total_nonelectrostatic_energy": 7.33, 
			 "SMD_solvation_energy": 6.31 
		},
		"coords": [
			{
				"x": -1.4586156369,
				"y": 3.1053533956,
				"z": -2.5792311669,
				"element": "O" 
			},
			{
				"x": -0.4361684556,
				"y": 3.5911091985,
				"z": -1.7274218126,
				"element": "C" 
			},
			{
				"x": 0.4811985553,
				"y": 2.5092575645,
				"z": -1.1862892606,
				"element": "C" 
			},
			{
				"x": 0.6377087443,
				"y": 1.3016689919,
				"z": -1.8795109477,
				"element": "C" 
			},
			{
				"x": 1.4981406332,
				"y": 0.3155471885,
				"z": -1.4047326157,
				"element": "C" 
			},
			{
				"x": 2.2041728278,
				"y": 0.5537268329,
				"z": -0.227176481,
				"element": "C" 
			},
			{
				"x": 2.0703517593,
				"y": 1.7448403861,
				"z": 0.4849636826,
				"element": "C" 
			},
			{
				"x": 1.2014716044,
				"y": 2.7166596097,
				"z": -0.0013102842,
				"element": "C" 
			},
			{
				"x": 3.1138341006,
				"y": -0.4830413974,
				"z": 0.2828822667,
				"element": "N" 
			},
			{
				"x": 3.2094392743,
				"y": -1.5269364652,
				"z": -0.3621113772,
				"element": "O" 
			},
			{
				"x": 3.7253979023,
				"y": -0.2444764701,
				"z": 1.3242750282,
				"element": "O" 
			},
			{
				"x": -2.0360870619,
				"y": 2.5347426765,
				"z": -2.0545126338,
				"element": "H" 
			},
			{
				"x": 0.1474957097,
				"y": 4.2871941725,
				"z": -2.3421710703,
				"element": "H" 
			},
			{
				"x": -0.8451381898,
				"y": 4.1783189111,
				"z": -0.8904747865,
				"element": "H" 
			},
			{
				"x": 0.075301099,
				"y": 1.1451869665,
				"z": -2.7938205656,
				"element": "H" 
			},
			{
				"x": 1.6332432242,
				"y": -0.6245470054,
				"z": -1.9249713928,
				"element": "H" 
			},
			{
				"x": 2.6338080895,
				"y": 1.8849633584,
				"z": 1.3989020851,
				"element": "H" 
			},
			{
				"x": 1.0790458202,
				"y": 3.6459320854,
				"z": 0.5492113321,
				"element": "H" 
			}
		],
		 "valence_orbital": [ 
			{
				"type": "occ",
				"energy": -0.30647,
				"method": "rhf"
			},
			{
				"type": "occ",
				"energy": -0.29861,
				"method": "rhf"
			},
			{
				"type": "occ",
				"energy": -0.28985,
				"method": "rhf"
			},
			{
				"type": "occ",
				"energy": -0.27946,
				"method": "rhf"
			},
			{
				"type": "occ",
				"energy": -0.27348,
				"method": "rhf"
			},
			{
				"type": "unocc",
				"energy": -0.0887,
				"method": "rhf"
			},
			{
				"type": "unocc",
				"energy": -0.02968,
				"method": "rhf"
			},
			{
				"type": "unocc",
				"energy": -0.00204,
				"method": "rhf"
			},
			{
				"type": "unocc",
				"energy": 0.066,
				"method": "rhf"
			},
			{
				"type": "unocc",
				"energy": 0.08453,
				"method": "rhf"
			}
		],
		"cosmo_sigma_profile": { 
			"-0.025": 0.0,
			"-0.024": 0.0,
			"-0.023": 0.0,
			"-0.022": 0.0,
			"-0.021": 0.0,
			"-0.02": 0.0,
			"-0.019": 0.0,
			"-0.018": 0.0,
			"-0.017": 0.0165450827197,
			"-0.016": 0.679699817632,
			"-0.015": 1.00913200711,
			"-0.014": 1.09270582113,
			"-0.013": 1.01476797911,
			"-0.012": 0.903312357854,
			"-0.011": 0.452738422894,
			"-0.01": 0.948145162208,
			"-0.009": 0.684182208705,
			"-0.008": 1.78632316812,
			"-0.007": 7.06543732042,
			"-0.006": 13.6068078909,
			"-0.005": 14.2564134323,
			"-0.004": 12.4553131977,
			"-0.003": 12.2416979968,
			"-0.002": 9.80629239675,
			"-0.001": 12.8265168321,
			"0.0": 11.8917923608,
			"0.001": 13.55156393,
			"0.002": 14.7803752535,
			"0.003": 5.12361699833,
			"0.004": 4.53356016985,
			"0.005": 4.63920402512,
			"0.006": 4.10347706293,
			"0.007": 7.92904403899,
			"0.008": 9.2971669235,
			"0.009": 5.83283774594,
			"0.01": 4.45188717904,
			"0.011": 1.84381029588,
			"0.012": 0.68270785159,
			"0.013": 2.28329983237,
			"0.014": 0.811197122713,
			"0.015": 0.0,
			"0.016": 0.0,
			"0.017": 0.0,
			"0.018": 0.0,
			"0.019": 0.0,
			"0.02": 0.0,
			"0.021": 0.0,
			"0.022": 0.0,
			"0.023": 0.0,
			"0.024": 0.0,
			"0.025": 0.0
		}
	}
}
