{
	 "smiles": "CNC(=O)C1=C(O)C=CC=C1", 
	 "Tm": 357.15, 
	 "num_atms": 20, 
	 "gaussian": { 
		 "optdone": 1, 
		 "sigma_profile": "yes", 
		 "theory": "DFT", 
		 "functional": "B3LYP", 
		 "basiset": "6-31G**", 
		 "properties": { 
			 "R2extent": 1958.8834, 
			 "electric_dipole_moment_norm": 4.25534790587, 
			 "electric_quadrupole_moment_norm": 8.58569232735, 
			 "total_energy": -515.493585004, 
			 "HOMO_LUMO_gap": 0.17925, 
			 "cosmo_polarized_energy": -10.84, 
			 "cosmo_cavitation_energy": 23.18, 
			 "cosmo_dispersion_energy": -17.67, 
			 "cosmo_repulsion_energy": 1.41, 
			 "cosmo_total_nonelectrostatic_energy": 6.92, 
			 "SMD_solvation_energy": 4.42 
		},
		"coords": [
			{
				"x": -1.9322559231,
				"y": 0.9894229192,
				"z": 1.2834841553,
				"element": "C" 
			},
			{
				"x": -1.3060085493,
				"y": -0.3249430198,
				"z": 1.3474046087,
				"element": "N" 
			},
			{
				"x": -0.0272017476,
				"y": -0.7003224762,
				"z": 1.0449261422,
				"element": "C" 
			},
			{
				"x": 0.4115916027,
				"y": -1.7482589372,
				"z": 1.5666606146,
				"element": "O" 
			},
			{
				"x": 0.8221361749,
				"y": 0.09883256,
				"z": 0.128547363,
				"element": "C" 
			},
			{
				"x": 2.2292824146,
				"y": -0.1137994146,
				"z": 0.1850469023,
				"element": "C" 
			},
			{
				"x": 2.7888695521,
				"y": -1.0246416686,
				"z": 0.9925710218,
				"element": "O" 
			},
			{
				"x": 3.0784354544,
				"y": 0.6535379709,
				"z": -0.6310543302,
				"element": "C" 
			},
			{
				"x": 2.5508668127,
				"y": 1.5637675953,
				"z": -1.5345657164,
				"element": "C" 
			},
			{
				"x": 1.1638589019,
				"y": 1.730263551,
				"z": -1.6542544093,
				"element": "C" 
			},
			{
				"x": 0.3187879991,
				"y": 1.0033123256,
				"z": -0.8270444048,
				"element": "C" 
			},
			{
				"x": -2.544992842,
				"y": 1.1294277688,
				"z": 2.1782316859,
				"element": "H" 
			},
			{
				"x": -2.5833775913,
				"y": 1.1036124589,
				"z": 0.4082583522,
				"element": "H" 
			},
			{
				"x": -1.1784224499,
				"y": 1.7783323217,
				"z": 1.2626563928,
				"element": "H" 
			},
			{
				"x": -1.7321461057,
				"y": -0.9987029756,
				"z": 1.9706470792,
				"element": "H" 
			},
			{
				"x": 2.033307215,
				"y": -1.5482831864,
				"z": 1.3738602971,
				"element": "H" 
			},
			{
				"x": 4.1472198305,
				"y": 0.486984857,
				"z": -0.548118821,
				"element": "H" 
			},
			{
				"x": 3.2219014831,
				"y": 2.1365501834,
				"z": -2.1688045985,
				"element": "H" 
			},
			{
				"x": 0.7523658203,
				"y": 2.4147519567,
				"z": -2.3888526314,
				"element": "H" 
			},
			{
				"x": -0.7526180523,
				"y": 1.1138552099,
				"z": -0.9449997033,
				"element": "H" 
			}
		],
		 "valence_orbital": [ 
			{
				"type": "occ",
				"energy": -0.33076,
				"method": "rhf"
			},
			{
				"type": "occ",
				"energy": -0.26997,
				"method": "rhf"
			},
			{
				"type": "occ",
				"energy": -0.26086,
				"method": "rhf"
			},
			{
				"type": "occ",
				"energy": -0.25617,
				"method": "rhf"
			},
			{
				"type": "occ",
				"energy": -0.21872,
				"method": "rhf"
			},
			{
				"type": "unocc",
				"energy": -0.03947,
				"method": "rhf"
			},
			{
				"type": "unocc",
				"energy": 0.00788,
				"method": "rhf"
			},
			{
				"type": "unocc",
				"energy": 0.05332,
				"method": "rhf"
			},
			{
				"type": "unocc",
				"energy": 0.0729,
				"method": "rhf"
			},
			{
				"type": "unocc",
				"energy": 0.09597,
				"method": "rhf"
			}
		],
		"cosmo_sigma_profile": { 
			"-0.025": 0.0,
			"-0.024": 0.0,
			"-0.023": 0.0,
			"-0.022": 0.0,
			"-0.021": 0.0,
			"-0.02": 0.0,
			"-0.019": 0.0,
			"-0.018": 0.0,
			"-0.017": 0.0,
			"-0.016": 0.0,
			"-0.015": 0.0,
			"-0.014": 0.40660934073,
			"-0.013": 1.21513662119,
			"-0.012": 1.42681710085,
			"-0.011": 0.660199123488,
			"-0.01": 1.02998906927,
			"-0.009": 1.34196260694,
			"-0.008": 1.10031798864,
			"-0.007": 3.14044469111,
			"-0.006": 10.5645180051,
			"-0.005": 15.1006840028,
			"-0.004": 16.4622781319,
			"-0.003": 17.4009463281,
			"-0.002": 14.0482349396,
			"-0.001": 10.3156748729,
			"0.0": 9.90689636496,
			"0.001": 10.7355367145,
			"0.002": 11.9270756525,
			"0.003": 13.6497184859,
			"0.004": 11.8833748532,
			"0.005": 8.64211709284,
			"0.006": 3.41025239284,
			"0.007": 2.84065144961,
			"0.008": 2.10773057836,
			"0.009": 2.99528037209,
			"0.01": 2.80577381697,
			"0.011": 3.60087749117,
			"0.012": 3.73449122529,
			"0.013": 1.71405187707,
			"0.014": 0.428717463071,
			"0.015": 0.0,
			"0.016": 0.0,
			"0.017": 0.0,
			"0.018": 0.0,
			"0.019": 0.0,
			"0.02": 0.0,
			"0.021": 0.0,
			"0.022": 0.0,
			"0.023": 0.0,
			"0.024": 0.0,
			"0.025": 0.0
		}
	}
}
