{
	 "smiles": "CC1=NN(C=C1C=O)C1=CC=C(Cl)C=C1", 
	 "Tm": 395.15, 
	 "num_atms": 24, 
	 "gaussian": { 
		 "optdone": 1, 
		 "sigma_profile": "yes", 
		 "theory": "DFT", 
		 "functional": "B3LYP", 
		 "basiset": "6-31G**", 
		 "properties": { 
			 "R2extent": 5952.6946, 
			 "electric_dipole_moment_norm": 2.28750943167, 
			 "electric_quadrupole_moment_norm": 22.2096266011, 
			 "total_energy": -1069.49410142, 
			 "HOMO_LUMO_gap": 0.17471, 
			 "cosmo_polarized_energy": -12.21, 
			 "cosmo_cavitation_energy": 30.92, 
			 "cosmo_dispersion_energy": -22.61, 
			 "cosmo_repulsion_energy": 1.75, 
			 "cosmo_total_nonelectrostatic_energy": 10.05, 
			 "SMD_solvation_energy": 5.59 
		},
		"coords": [
			{
				"x": 3.503601687,
				"y": -2.7978894104,
				"z": 0.3168717998,
				"element": "C" 
			},
			{
				"x": 2.8650173095,
				"y": -1.4695094265,
				"z": 0.0726997797,
				"element": "C" 
			},
			{
				"x": 1.8598422834,
				"y": -1.0427428622,
				"z": 0.8204953457,
				"element": "N" 
			},
			{
				"x": 1.5233367268,
				"y": 0.1927528529,
				"z": 0.3276703126,
				"element": "N" 
			},
			{
				"x": 2.3086523124,
				"y": 0.5417157849,
				"z": -0.7208911329,
				"element": "C" 
			},
			{
				"x": 3.1979869328,
				"y": -0.5011478504,
				"z": -0.9301308731,
				"element": "C" 
			},
			{
				"x": 4.2328174687,
				"y": -0.5692721351,
				"z": -1.9527312865,
				"element": "C" 
			},
			{
				"x": 4.9968332379,
				"y": -1.5093811934,
				"z": -2.1022943769,
				"element": "O" 
			},
			{
				"x": 0.4622034816,
				"y": 0.9201211099,
				"z": 0.9287724784,
				"element": "C" 
			},
			{
				"x": -0.2207455316,
				"y": 0.3598779969,
				"z": 2.0149027566,
				"element": "C" 
			},
			{
				"x": -1.263533966,
				"y": 1.0582195054,
				"z": 2.6167800818,
				"element": "C" 
			},
			{
				"x": -1.6237927858,
				"y": 2.3158609029,
				"z": 2.13360067,
				"element": "C" 
			},
			{
				"x": -2.9386047123,
				"y": 3.1966529701,
				"z": 2.8922832536,
				"element": "Cl" 
			},
			{
				"x": -0.9494996065,
				"y": 2.8816632068,
				"z": 1.05263703,
				"element": "C" 
			},
			{
				"x": 0.0941043309,
				"y": 2.1829607574,
				"z": 0.4501735625,
				"element": "C" 
			},
			{
				"x": 3.0173811747,
				"y": -3.2959745163,
				"z": 1.1580343577,
				"element": "H" 
			},
			{
				"x": 4.5706100856,
				"y": -2.6818753942,
				"z": 0.5290637563,
				"element": "H" 
			},
			{
				"x": 3.4328090204,
				"y": -3.4313152035,
				"z": -0.5723737585,
				"element": "H" 
			},
			{
				"x": 2.2001858516,
				"y": 1.478213075,
				"z": -1.2460070049,
				"element": "H" 
			},
			{
				"x": 4.2905901739,
				"y": 0.3210978102,
				"z": -2.6181921019,
				"element": "H" 
			},
			{
				"x": 0.0751307535,
				"y": -0.6172348486,
				"z": 2.3737972684,
				"element": "H" 
			},
			{
				"x": -1.794050417,
				"y": 0.6265910831,
				"z": 3.4580536163,
				"element": "H" 
			},
			{
				"x": -1.235754648,
				"y": 3.859775306,
				"z": 0.6831423872,
				"element": "H" 
			},
			{
				"x": 0.6082788369,
				"y": 2.6367404791,
				"z": -0.3892579219,
				"element": "H" 
			}
		],
		 "valence_orbital": [ 
			{
				"type": "occ",
				"energy": -0.29087,
				"method": "rhf"
			},
			{
				"type": "occ",
				"energy": -0.28112,
				"method": "rhf"
			},
			{
				"type": "occ",
				"energy": -0.27069,
				"method": "rhf"
			},
			{
				"type": "occ",
				"energy": -0.25376,
				"method": "rhf"
			},
			{
				"type": "occ",
				"energy": -0.23495,
				"method": "rhf"
			},
			{
				"type": "unocc",
				"energy": -0.06024,
				"method": "rhf"
			},
			{
				"type": "unocc",
				"energy": -0.03078,
				"method": "rhf"
			},
			{
				"type": "unocc",
				"energy": -0.02424,
				"method": "rhf"
			},
			{
				"type": "unocc",
				"energy": 0.02051,
				"method": "rhf"
			},
			{
				"type": "unocc",
				"energy": 0.02223,
				"method": "rhf"
			}
		],
		"cosmo_sigma_profile": { 
			"-0.025": 0.0,
			"-0.024": 0.0,
			"-0.023": 0.0,
			"-0.022": 0.0,
			"-0.021": 0.0,
			"-0.02": 0.0,
			"-0.019": 0.0,
			"-0.018": 0.0,
			"-0.017": 0.0,
			"-0.016": 0.0,
			"-0.015": 0.0,
			"-0.014": 0.0,
			"-0.013": 0.139805906724,
			"-0.012": 1.61971969682,
			"-0.011": 1.93012314669,
			"-0.01": 2.37365377082,
			"-0.009": 2.85619680043,
			"-0.008": 5.25912297748,
			"-0.007": 8.16730677365,
			"-0.006": 10.7511128331,
			"-0.005": 11.7529635573,
			"-0.004": 13.3708301261,
			"-0.003": 13.6406099864,
			"-0.002": 16.4105487817,
			"-0.001": 22.1805540961,
			"0.0": 24.3939545881,
			"0.001": 25.2423586177,
			"0.002": 26.4056067152,
			"0.003": 16.8547636202,
			"0.004": 13.5245057275,
			"0.005": 8.83081124631,
			"0.006": 3.2971956049,
			"0.007": 2.84677415937,
			"0.008": 3.59747044256,
			"0.009": 2.97206261934,
			"0.01": 3.58332821242,
			"0.011": 3.19263849899,
			"0.012": 3.69941724853,
			"0.013": 1.72271500472,
			"0.014": 0.246091162931,
			"0.015": 0.0,
			"0.016": 0.0,
			"0.017": 0.0,
			"0.018": 0.0,
			"0.019": 0.0,
			"0.02": 0.0,
			"0.021": 0.0,
			"0.022": 0.0,
			"0.023": 0.0,
			"0.024": 0.0,
			"0.025": 0.0
		}
	}
}
