{
	 "smiles": "CCC1=CC=C(C=C1)C1=C(C)SC(N)=N1", 
	 "Tm": 370.15, 
	 "num_atms": 29, 
	 "gaussian": { 
		 "optdone": 1, 
		 "sigma_profile": "yes", 
		 "theory": "DFT", 
		 "functional": "B3LYP", 
		 "basiset": "6-31G**", 
		 "properties": { 
			 "R2extent": 5094.159, 
			 "electric_dipole_moment_norm": 1.42787056136, 
			 "electric_quadrupole_moment_norm": 13.6692893978, 
			 "total_energy": -973.42347305, 
			 "HOMO_LUMO_gap": 0.17537, 
			 "cosmo_polarized_energy": -11.23, 
			 "cosmo_cavitation_energy": 33.74, 
			 "cosmo_dispersion_energy": -24.88, 
			 "cosmo_repulsion_energy": 1.93, 
			 "cosmo_total_nonelectrostatic_energy": 10.79, 
			 "SMD_solvation_energy": 3.94 
		},
		"coords": [
			{
				"x": 4.0965955934,
				"y": -1.1834277745,
				"z": 2.6628380837,
				"element": "C" 
			},
			{
				"x": 2.6490085941,
				"y": -1.4904811261,
				"z": 3.0881224189,
				"element": "C" 
			},
			{
				"x": 1.6391282034,
				"y": -1.1817192038,
				"z": 2.0038759276,
				"element": "C" 
			},
			{
				"x": 1.0632274726,
				"y": 0.092205538,
				"z": 1.8913253999,
				"element": "C" 
			},
			{
				"x": 0.1635638285,
				"y": 0.3921104956,
				"z": 0.87335201,
				"element": "C" 
			},
			{
				"x": -0.1916724122,
				"y": -0.574263946,
				"z": -0.0840774658,
				"element": "C" 
			},
			{
				"x": 0.3635201324,
				"y": -1.8582925897,
				"z": 0.0421095867,
				"element": "C" 
			},
			{
				"x": 1.2654238722,
				"y": -2.1504778813,
				"z": 1.0645254723,
				"element": "C" 
			},
			{
				"x": -1.1470835983,
				"y": -0.2203505765,
				"z": -1.1549895427,
				"element": "C" 
			},
			{
				"x": -1.1560479324,
				"y": -0.7059610929,
				"z": -2.4405786762,
				"element": "C" 
			},
			{
				"x": -0.2205272821,
				"y": -1.6389315477,
				"z": -3.1502864463,
				"element": "C" 
			},
			{
				"x": -2.4916602594,
				"y": 0.0303450994,
				"z": -3.3254690432,
				"element": "S" 
			},
			{
				"x": -2.8831020989,
				"y": 0.966470276,
				"z": -1.8799933164,
				"element": "C" 
			},
			{
				"x": -3.9848067635,
				"y": 1.7967197822,
				"z": -1.8472721306,
				"element": "N" 
			},
			{
				"x": -2.1146178585,
				"y": 0.7375456795,
				"z": -0.8614823007,
				"element": "N" 
			},
			{
				"x": 4.3793921034,
				"y": -1.7713277579,
				"z": 1.7835077595,
				"element": "H" 
			},
			{
				"x": 4.2131260776,
				"y": -0.1258023253,
				"z": 2.4047320578,
				"element": "H" 
			},
			{
				"x": 4.8008902561,
				"y": -1.4163930207,
				"z": 3.4686434788,
				"element": "H" 
			},
			{
				"x": 2.5731598447,
				"y": -2.5479515261,
				"z": 3.368861111,
				"element": "H" 
			},
			{
				"x": 2.4082603322,
				"y": -0.9116897694,
				"z": 3.9880712997,
				"element": "H" 
			},
			{
				"x": 1.3211967981,
				"y": 0.8595713847,
				"z": 2.6180557324,
				"element": "H" 
			},
			{
				"x": -0.2849573927,
				"y": 1.3775560614,
				"z": 0.8089340118,
				"element": "H" 
			},
			{
				"x": 0.0603120172,
				"y": -2.6474882007,
				"z": -0.637565529,
				"element": "H" 
			},
			{
				"x": 1.6716362767,
				"y": -3.156422875,
				"z": 1.1442540404,
				"element": "H" 
			},
			{
				"x": -0.0363615153,
				"y": -1.3076360146,
				"z": -4.1777948752,
				"element": "H" 
			},
			{
				"x": 0.7416686952,
				"y": -1.6738466596,
				"z": -2.6336174094,
				"element": "H" 
			},
			{
				"x": -0.6091753836,
				"y": -2.6640774561,
				"z": -3.2047179201,
				"element": "H" 
			},
			{
				"x": -3.9975104874,
				"y": 2.3835545299,
				"z": -1.02249291,
				"element": "H" 
			},
			{
				"x": -4.1960871136,
				"y": 2.2967624973,
				"z": -2.699770825,
				"element": "H" 
			}
		],
		 "valence_orbital": [ 
			{
				"type": "occ",
				"energy": -0.27149,
				"method": "rhf"
			},
			{
				"type": "occ",
				"energy": -0.26558,
				"method": "rhf"
			},
			{
				"type": "occ",
				"energy": -0.2415,
				"method": "rhf"
			},
			{
				"type": "occ",
				"energy": -0.23578,
				"method": "rhf"
			},
			{
				"type": "occ",
				"energy": -0.1938,
				"method": "rhf"
			},
			{
				"type": "unocc",
				"energy": -0.01843,
				"method": "rhf"
			},
			{
				"type": "unocc",
				"energy": 0.00445,
				"method": "rhf"
			},
			{
				"type": "unocc",
				"energy": 0.01271,
				"method": "rhf"
			},
			{
				"type": "unocc",
				"energy": 0.02109,
				"method": "rhf"
			},
			{
				"type": "unocc",
				"energy": 0.07529,
				"method": "rhf"
			}
		],
		"cosmo_sigma_profile": { 
			"-0.025": 0.0,
			"-0.024": 0.0,
			"-0.023": 0.0,
			"-0.022": 0.0,
			"-0.021": 0.0,
			"-0.02": 0.0,
			"-0.019": 0.0,
			"-0.018": 0.0,
			"-0.017": 0.0,
			"-0.016": 0.0,
			"-0.015": 0.0938400393889,
			"-0.014": 1.26330776895,
			"-0.013": 2.87083364156,
			"-0.012": 2.43317844704,
			"-0.011": 2.21363320629,
			"-0.01": 3.13913593366,
			"-0.009": 2.06111291953,
			"-0.008": 1.52814836739,
			"-0.007": 1.76418779751,
			"-0.006": 2.16418901465,
			"-0.005": 9.07583160126,
			"-0.004": 17.8743523051,
			"-0.003": 26.2561557945,
			"-0.002": 26.6653679579,
			"-0.001": 27.8812652073,
			"0.0": 23.9214420257,
			"0.001": 21.4325363299,
			"0.002": 17.4093227037,
			"0.003": 18.7223550145,
			"0.004": 19.7498863715,
			"0.005": 14.1573967993,
			"0.006": 12.0371175371,
			"0.007": 3.45166166259,
			"0.008": 1.93884359717,
			"0.009": 2.42136508373,
			"0.01": 2.31530310046,
			"0.011": 1.42417975139,
			"0.012": 1.31237046844,
			"0.013": 0.748247456979,
			"0.014": 0.570837749178,
			"0.015": 0.191462506369,
			"0.016": 0.0,
			"0.017": 0.0,
			"0.018": 0.0,
			"0.019": 0.0,
			"0.02": 0.0,
			"0.021": 0.0,
			"0.022": 0.0,
			"0.023": 0.0,
			"0.024": 0.0,
			"0.025": 0.0
		}
	}
}
