{
	 "smiles": "COCC1=C(CNC(=O)CCl)C=CC=C1", 
	 "Tm": 325.15, 
	 "num_atms": 29, 
	 "gaussian": { 
		 "optdone": 1, 
		 "sigma_profile": "yes", 
		 "theory": "DFT", 
		 "functional": "B3LYP", 
		 "basiset": "6-31G**", 
		 "properties": { 
			 "R2extent": 4914.8847, 
			 "electric_dipole_moment_norm": 2.38444292446, 
			 "electric_quadrupole_moment_norm": 5.09046625762, 
			 "total_energy": -1093.00327313, 
			 "HOMO_LUMO_gap": 0.23046, 
			 "cosmo_polarized_energy": -12.98, 
			 "cosmo_cavitation_energy": 33.73, 
			 "cosmo_dispersion_energy": -23.7, 
			 "cosmo_repulsion_energy": 1.9, 
			 "cosmo_total_nonelectrostatic_energy": 11.93, 
			 "SMD_solvation_energy": 5.97 
		},
		"coords": [
			{
				"x": -1.2190608911,
				"y": -1.3315237468,
				"z": 2.7985781061,
				"element": "C" 
			},
			{
				"x": -1.7843705613,
				"y": -0.7925313978,
				"z": 1.6196316323,
				"element": "O" 
			},
			{
				"x": -1.2777991779,
				"y": 0.4958283665,
				"z": 1.2744829282,
				"element": "C" 
			},
			{
				"x": 0.1725500343,
				"y": 0.4798034089,
				"z": 0.8199505812,
				"element": "C" 
			},
			{
				"x": 0.5786523448,
				"y": -0.2297528807,
				"z": -0.3292357784,
				"element": "C" 
			},
			{
				"x": -0.4096745881,
				"y": -0.9978387337,
				"z": -1.1980384348,
				"element": "C" 
			},
			{
				"x": -0.6442477782,
				"y": -0.3730133951,
				"z": -2.5029064718,
				"element": "N" 
			},
			{
				"x": -1.5977997168,
				"y": 0.5622981727,
				"z": -2.6962013927,
				"element": "C" 
			},
			{
				"x": -2.3897559582,
				"y": 0.9544352375,
				"z": -1.8446118397,
				"element": "O" 
			},
			{
				"x": -1.7302553481,
				"y": 1.1831864244,
				"z": -4.0900456681,
				"element": "C" 
			},
			{
				"x": -0.5651635456,
				"y": 0.6091306971,
				"z": -5.3627552363,
				"element": "Cl" 
			},
			{
				"x": 1.9297426865,
				"y": -0.218006318,
				"z": -0.6968562126,
				"element": "C" 
			},
			{
				"x": 2.8780120057,
				"y": 0.4913463537,
				"z": 0.0393368242,
				"element": "C" 
			},
			{
				"x": 2.4778110232,
				"y": 1.1996521784,
				"z": 1.1719205926,
				"element": "C" 
			},
			{
				"x": 1.1366940164,
				"y": 1.1823444747,
				"z": 1.5546183894,
				"element": "C" 
			},
			{
				"x": -1.3990396934,
				"y": -0.6782900023,
				"z": 3.6673572217,
				"element": "H" 
			},
			{
				"x": -1.706551135,
				"y": -2.2934824093,
				"z": 2.9758190815,
				"element": "H" 
			},
			{
				"x": -0.1353543532,
				"y": -1.4925983341,
				"z": 2.7084262459,
				"element": "H" 
			},
			{
				"x": -1.9216724824,
				"y": 0.8488885306,
				"z": 0.464573116,
				"element": "H" 
			},
			{
				"x": -1.3821146714,
				"y": 1.1826183192,
				"z": 2.1291379538,
				"element": "H" 
			},
			{
				"x": -0.0234586997,
				"y": -2.0040189206,
				"z": -1.3910534322,
				"element": "H" 
			},
			{
				"x": -1.36969647,
				"y": -1.1072831927,
				"z": -0.6962203683,
				"element": "H" 
			},
			{
				"x": -0.0110143722,
				"y": -0.5677891255,
				"z": -3.2651986239,
				"element": "H" 
			},
			{
				"x": -1.5970417153,
				"y": 2.2611878967,
				"z": -3.998855117,
				"element": "H" 
			},
			{
				"x": -2.7351527025,
				"y": 0.9812349976,
				"z": -4.4609407013,
				"element": "H" 
			},
			{
				"x": 2.2457348103,
				"y": -0.7743983397,
				"z": -1.5772999945,
				"element": "H" 
			},
			{
				"x": 3.9202305086,
				"y": 0.4859002177,
				"z": -0.2666548861,
				"element": "H" 
			},
			{
				"x": 3.2047544532,
				"y": 1.7536679735,
				"z": 1.7588828837,
				"element": "H" 
			},
			{
				"x": 0.8244419776,
				"y": 1.7277035467,
				"z": 2.4421586011,
				"element": "H" 
			}
		],
		 "valence_orbital": [ 
			{
				"type": "occ",
				"energy": -0.26782,
				"method": "rhf"
			},
			{
				"type": "occ",
				"energy": -0.25929,
				"method": "rhf"
			},
			{
				"type": "occ",
				"energy": -0.25433,
				"method": "rhf"
			},
			{
				"type": "occ",
				"energy": -0.25073,
				"method": "rhf"
			},
			{
				"type": "occ",
				"energy": -0.24366,
				"method": "rhf"
			},
			{
				"type": "unocc",
				"energy": -0.0132,
				"method": "rhf"
			},
			{
				"type": "unocc",
				"energy": -0.0065,
				"method": "rhf"
			},
			{
				"type": "unocc",
				"energy": 0.01343,
				"method": "rhf"
			},
			{
				"type": "unocc",
				"energy": 0.01892,
				"method": "rhf"
			},
			{
				"type": "unocc",
				"energy": 0.08136,
				"method": "rhf"
			}
		],
		"cosmo_sigma_profile": { 
			"-0.025": 0.0,
			"-0.024": 0.0,
			"-0.023": 0.0,
			"-0.022": 0.0,
			"-0.021": 0.0,
			"-0.02": 0.0,
			"-0.019": 0.0,
			"-0.018": 0.0,
			"-0.017": 0.0,
			"-0.016": 0.0,
			"-0.015": 0.0,
			"-0.014": 0.0,
			"-0.013": 0.295338210411,
			"-0.012": 0.810506707232,
			"-0.011": 1.11139628448,
			"-0.01": 1.03546184278,
			"-0.009": 4.78068015033,
			"-0.008": 4.9583154608,
			"-0.007": 6.09810434966,
			"-0.006": 11.0421654464,
			"-0.005": 18.5819521879,
			"-0.004": 21.4747803323,
			"-0.003": 22.9224715136,
			"-0.002": 23.0025315632,
			"-0.001": 20.884992929,
			"0.0": 16.6280380739,
			"0.001": 16.095669704,
			"0.002": 16.1970620078,
			"0.003": 15.803490854,
			"0.004": 16.877137893,
			"0.005": 18.7117574585,
			"0.006": 10.8837395752,
			"0.007": 3.3010723987,
			"0.008": 2.62107441254,
			"0.009": 2.15242142067,
			"0.01": 1.91898859524,
			"0.011": 3.24009531074,
			"0.012": 3.05865454909,
			"0.013": 3.26652178595,
			"0.014": 1.42188351532,
			"0.015": 0.0239242261653,
			"0.016": 0.0,
			"0.017": 0.0,
			"0.018": 0.0,
			"0.019": 0.0,
			"0.02": 0.0,
			"0.021": 0.0,
			"0.022": 0.0,
			"0.023": 0.0,
			"0.024": 0.0,
			"0.025": 0.0
		}
	}
}
