{
	 "smiles": "OC(=O)CSCC1=NC2=C(C3=C(CCC3)S2)C(=O)N1", 
	 "Tm": 472.15, 
	 "num_atms": 31, 
	 "gaussian": { 
		 "optdone": 1, 
		 "sigma_profile": "yes", 
		 "theory": "DFT", 
		 "functional": "B3LYP", 
		 "basiset": "6-31G**", 
		 "properties": { 
			 "R2extent": 7668.6857, 
			 "electric_dipole_moment_norm": 5.33027929287, 
			 "electric_quadrupole_moment_norm": 46.492227294, 
			 "total_energy": -1596.09179498, 
			 "HOMO_LUMO_gap": 0.16342, 
			 "cosmo_polarized_energy": -25.08, 
			 "cosmo_cavitation_energy": 37.5, 
			 "cosmo_dispersion_energy": -28.08, 
			 "cosmo_repulsion_energy": 2.07, 
			 "cosmo_total_nonelectrostatic_energy": 11.5, 
			 "SMD_solvation_energy": 5.99 
		},
		"coords": [
			{
				"x": -3.34584847,
				"y": 0.0934540591,
				"z": 2.4400741051,
				"element": "O" 
			},
			{
				"x": -3.8414344289,
				"y": -0.8981700137,
				"z": 3.1826249681,
				"element": "C" 
			},
			{
				"x": -5.0101909254,
				"y": -0.96135181,
				"z": 3.4875654711,
				"element": "O" 
			},
			{
				"x": -2.8601999467,
				"y": -2.0006555565,
				"z": 3.6121204421,
				"element": "C" 
			},
			{
				"x": -1.3115185983,
				"y": -1.411007533,
				"z": 4.4256353502,
				"element": "S" 
			},
			{
				"x": -0.0107938214,
				"y": -1.9024091034,
				"z": 3.2435998373,
				"element": "C" 
			},
			{
				"x": 0.207582548,
				"y": -1.009739921,
				"z": 2.0393560147,
				"element": "C" 
			},
			{
				"x": -0.743928498,
				"y": -0.2608795046,
				"z": 1.5532717291,
				"element": "N" 
			},
			{
				"x": -0.4371044847,
				"y": 0.4498755829,
				"z": 0.4250089862,
				"element": "C" 
			},
			{
				"x": 0.7924652432,
				"y": 0.4462494024,
				"z": -0.2355940742,
				"element": "C" 
			},
			{
				"x": 0.7946262878,
				"y": 1.3089858175,
				"z": -1.3711928389,
				"element": "C" 
			},
			{
				"x": -0.4034849477,
				"y": 1.936372929,
				"z": -1.5531104342,
				"element": "C" 
			},
			{
				"x": -0.444776895,
				"y": 2.8055191043,
				"z": -2.7785078529,
				"element": "C" 
			},
			{
				"x": 1.0716829893,
				"y": 2.8836006437,
				"z": -3.1456956153,
				"element": "C" 
			},
			{
				"x": 1.7715852242,
				"y": 1.6699996234,
				"z": -2.4594351033,
				"element": "C" 
			},
			{
				"x": -1.5977746243,
				"y": 1.5076829761,
				"z": -0.3564415957,
				"element": "S" 
			},
			{
				"x": 1.8602384114,
				"y": -0.3777513446,
				"z": 0.2914189409,
				"element": "C" 
			},
			{
				"x": 2.9963042425,
				"y": -0.5160346097,
				"z": -0.1342493286,
				"element": "O" 
			},
			{
				"x": 1.4430344967,
				"y": -1.0795489534,
				"z": 1.4574224804,
				"element": "N" 
			},
			{
				"x": -2.3797423878,
				"y": -0.0355070815,
				"z": 2.25551151,
				"element": "H" 
			},
			{
				"x": -2.5834980667,
				"y": -2.5990082103,
				"z": 2.7382081404,
				"element": "H" 
			},
			{
				"x": -3.3876141965,
				"y": -2.6429711565,
				"z": 4.3171375539,
				"element": "H" 
			},
			{
				"x": 0.9094293603,
				"y": -1.9358404776,
				"z": 3.8369005198,
				"element": "H" 
			},
			{
				"x": -0.1973402182,
				"y": -2.9280643774,
				"z": 2.902176413,
				"element": "H" 
			},
			{
				"x": -1.0349381929,
				"y": 2.3328390544,
				"z": -3.5754197895,
				"element": "H" 
			},
			{
				"x": -0.8808067675,
				"y": 3.7946739022,
				"z": -2.6035040073,
				"element": "H" 
			},
			{
				"x": 1.4854246686,
				"y": 3.8119882658,
				"z": -2.7400012599,
				"element": "H" 
			},
			{
				"x": 1.2309617651,
				"y": 2.9010646539,
				"z": -4.2269020654,
				"element": "H" 
			},
			{
				"x": 2.7663364663,
				"y": 1.9171920491,
				"z": -2.0779032963,
				"element": "H" 
			},
			{
				"x": 1.9037378171,
				"y": 0.8287811814,
				"z": -3.1521946125,
				"element": "H" 
			},
			{
				"x": 2.1623859495,
				"y": -1.6656395917,
				"z": 1.865919412,
				"element": "H" 
			}
		],
		 "valence_orbital": [ 
			{
				"type": "occ",
				"energy": -0.2815,
				"method": "rhf"
			},
			{
				"type": "occ",
				"energy": -0.26964,
				"method": "rhf"
			},
			{
				"type": "occ",
				"energy": -0.26725,
				"method": "rhf"
			},
			{
				"type": "occ",
				"energy": -0.24398,
				"method": "rhf"
			},
			{
				"type": "occ",
				"energy": -0.22737,
				"method": "rhf"
			},
			{
				"type": "unocc",
				"energy": -0.06395,
				"method": "rhf"
			},
			{
				"type": "unocc",
				"energy": -0.02876,
				"method": "rhf"
			},
			{
				"type": "unocc",
				"energy": 0.00065,
				"method": "rhf"
			},
			{
				"type": "unocc",
				"energy": 0.00852,
				"method": "rhf"
			},
			{
				"type": "unocc",
				"energy": 0.00989,
				"method": "rhf"
			}
		],
		"cosmo_sigma_profile": { 
			"-0.025": 0.0,
			"-0.024": 0.0,
			"-0.023": 0.0,
			"-0.022": 0.0,
			"-0.021": 0.0,
			"-0.02": 0.0,
			"-0.019": 0.0,
			"-0.018": 0.0,
			"-0.017": 0.884223022887,
			"-0.016": 1.70476113854,
			"-0.015": 1.68908223855,
			"-0.014": 1.18324954333,
			"-0.013": 0.908085595407,
			"-0.012": 1.52367665509,
			"-0.011": 1.33246416483,
			"-0.01": 2.73680055974,
			"-0.009": 9.39793428204,
			"-0.008": 8.38089499874,
			"-0.007": 6.69678910371,
			"-0.006": 6.8361101476,
			"-0.005": 10.9611481666,
			"-0.004": 23.0745865091,
			"-0.003": 27.4574617291,
			"-0.002": 28.6427491697,
			"-0.001": 22.9599824142,
			"0.0": 23.0741268166,
			"0.001": 20.5054604254,
			"0.002": 18.5522979975,
			"0.003": 15.1860273779,
			"0.004": 8.12244776067,
			"0.005": 7.05531184392,
			"0.006": 6.64014012437,
			"0.007": 5.34258337374,
			"0.008": 5.43571322427,
			"0.009": 5.46222872275,
			"0.01": 4.49019757627,
			"0.011": 7.11248820762,
			"0.012": 11.0016173078,
			"0.013": 7.49548364551,
			"0.014": 0.646496477572,
			"0.015": 0.0,
			"0.016": 0.0,
			"0.017": 0.0,
			"0.018": 0.0,
			"0.019": 0.0,
			"0.02": 0.0,
			"0.021": 0.0,
			"0.022": 0.0,
			"0.023": 0.0,
			"0.024": 0.0,
			"0.025": 0.0
		}
	}
}
