{
	 "smiles": "CCCCCOC(=O)C1=C(C=CC=C1)C(=O)OCCCCC", 
	 "Tm": 218.15, 
	 "num_atms": 48, 
	 "gaussian": { 
		 "optdone": 1, 
		 "sigma_profile": "yes", 
		 "theory": "DFT", 
		 "functional": "B3LYP", 
		 "basiset": "6-31G**", 
		 "properties": { 
			 "R2extent": 8361.448, 
			 "electric_dipole_moment_norm": 0.90733933013, 
			 "electric_quadrupole_moment_norm": 19.1632662078, 
			 "total_energy": -1002.5232913, 
			 "HOMO_LUMO_gap": 0.20588, 
			 "cosmo_polarized_energy": -11.69, 
			 "cosmo_cavitation_energy": 50.08, 
			 "cosmo_dispersion_energy": -31.34, 
			 "cosmo_repulsion_energy": 2.48, 
			 "cosmo_total_nonelectrostatic_energy": 21.22, 
			 "SMD_solvation_energy": 8.98 
		},
		"coords": [
			{
				"x": 3.4153400738,
				"y": -1.3393328958,
				"z": -2.5659428981,
				"element": "C" 
			},
			{
				"x": 3.1595679355,
				"y": -2.234887066,
				"z": -1.3475596914,
				"element": "C" 
			},
			{
				"x": 1.9527873738,
				"y": -3.1911343624,
				"z": -1.490069173,
				"element": "C" 
			},
			{
				"x": 0.592845835,
				"y": -2.7016173068,
				"z": -0.9566390513,
				"element": "C" 
			},
			{
				"x": -0.0708909073,
				"y": -1.5257494987,
				"z": -1.6607615705,
				"element": "C" 
			},
			{
				"x": 0.6186714399,
				"y": -0.3063351016,
				"z": -1.2965185608,
				"element": "O" 
			},
			{
				"x": 0.0412911527,
				"y": 0.8455746106,
				"z": -1.6956935359,
				"element": "C" 
			},
			{
				"x": -0.9701040515,
				"y": 0.8966811889,
				"z": -2.3662004641,
				"element": "O" 
			},
			{
				"x": 0.847674641,
				"y": 2.0446123586,
				"z": -1.301966834,
				"element": "C" 
			},
			{
				"x": 1.6404568795,
				"y": 2.1232121539,
				"z": -0.1395347183,
				"element": "C" 
			},
			{
				"x": 2.4697232563,
				"y": 3.2338650334,
				"z": 0.0519696529,
				"element": "C" 
			},
			{
				"x": 2.4846440418,
				"y": 4.2793557178,
				"z": -0.8703928711,
				"element": "C" 
			},
			{
				"x": 1.6656071706,
				"y": 4.2225305289,
				"z": -1.9988113024,
				"element": "C" 
			},
			{
				"x": 0.8571530027,
				"y": 3.1077029655,
				"z": -2.212633136,
				"element": "C" 
			},
			{
				"x": 1.6163122827,
				"y": 1.1142594891,
				"z": 0.9696361783,
				"element": "C" 
			},
			{
				"x": 2.6106790898,
				"y": 0.7125298922,
				"z": 1.5404611636,
				"element": "O" 
			},
			{
				"x": 0.3546409034,
				"y": 0.7824657121,
				"z": 1.3117563599,
				"element": "O" 
			},
			{
				"x": 0.2018895345,
				"y": -0.1676864499,
				"z": 2.3966333282,
				"element": "C" 
			},
			{
				"x": 0.1840307779,
				"y": 0.5352199982,
				"z": 3.754154087,
				"element": "C" 
			},
			{
				"x": -0.9410515943,
				"y": 1.5736493218,
				"z": 3.950110284,
				"element": "C" 
			},
			{
				"x": -2.2537022809,
				"y": 1.0398599073,
				"z": 4.5510378885,
				"element": "C" 
			},
			{
				"x": -3.0098444961,
				"y": 0.0109457228,
				"z": 3.7017407239,
				"element": "C" 
			},
			{
				"x": 4.2976804538,
				"y": -0.7098457727,
				"z": -2.4089761314,
				"element": "H" 
			},
			{
				"x": 3.5936478383,
				"y": -1.9420088988,
				"z": -3.464515582,
				"element": "H" 
			},
			{
				"x": 2.5705819717,
				"y": -0.6755906388,
				"z": -2.7654369817,
				"element": "H" 
			},
			{
				"x": 4.0584140629,
				"y": -2.8402343142,
				"z": -1.1755225436,
				"element": "H" 
			},
			{
				"x": 3.0387837908,
				"y": -1.613518333,
				"z": -0.4521515692,
				"element": "H" 
			},
			{
				"x": 2.176675365,
				"y": -4.1202403616,
				"z": -0.9512162853,
				"element": "H" 
			},
			{
				"x": 1.8408938525,
				"y": -3.4823907846,
				"z": -2.5443806219,
				"element": "H" 
			},
			{
				"x": 0.678021958,
				"y": -2.4598575106,
				"z": 0.1105343357,
				"element": "H" 
			},
			{
				"x": -0.1169528476,
				"y": -3.5370475361,
				"z": -1.0231940394,
				"element": "H" 
			},
			{
				"x": -1.1191354295,
				"y": -1.4264226109,
				"z": -1.3638949462,
				"element": "H" 
			},
			{
				"x": -0.0453019515,
				"y": -1.6299333687,
				"z": -2.7513053517,
				"element": "H" 
			},
			{
				"x": 3.0902628075,
				"y": 3.2704372364,
				"z": 0.9412640215,
				"element": "H" 
			},
			{
				"x": 3.1286028193,
				"y": 5.1376357982,
				"z": -0.7034500911,
				"element": "H" 
			},
			{
				"x": 1.6648577173,
				"y": 5.0370942983,
				"z": -2.7168166719,
				"element": "H" 
			},
			{
				"x": 0.2303225399,
				"y": 3.032727364,
				"z": -3.094803074,
				"element": "H" 
			},
			{
				"x": 1.0226112118,
				"y": -0.8874990835,
				"z": 2.34985513,
				"element": "H" 
			},
			{
				"x": -0.741092596,
				"y": -0.6713258426,
				"z": 2.1788437694,
				"element": "H" 
			},
			{
				"x": 1.1610588816,
				"y": 1.0130171164,
				"z": 3.8813452782,
				"element": "H" 
			},
			{
				"x": 0.1229359071,
				"y": -0.2404827353,
				"z": 4.5302478869,
				"element": "H" 
			},
			{
				"x": -1.1447172412,
				"y": 2.0669657465,
				"z": 2.9911796452,
				"element": "H" 
			},
			{
				"x": -0.568514343,
				"y": 2.3604568934,
				"z": 4.6171883129,
				"element": "H" 
			},
			{
				"x": -2.0422967021,
				"y": 0.6065422791,
				"z": 5.5385891569,
				"element": "H" 
			},
			{
				"x": -2.9147111101,
				"y": 1.8965898178,
				"z": 4.7349636116,
				"element": "H" 
			},
			{
				"x": -2.4548553572,
				"y": -0.9280518981,
				"z": 3.6031648342,
				"element": "H" 
			},
			{
				"x": -3.9757034008,
				"y": -0.2344136491,
				"z": 4.155868379,
				"element": "H" 
			},
			{
				"x": -3.2052922595,
				"y": 0.3924748688,
				"z": 2.6929436685,
				"element": "H" 
			}
		],
		 "valence_orbital": [ 
			{
				"type": "occ",
				"energy": -0.29297,
				"method": "rhf"
			},
			{
				"type": "occ",
				"energy": -0.28221,
				"method": "rhf"
			},
			{
				"type": "occ",
				"energy": -0.27774,
				"method": "rhf"
			},
			{
				"type": "occ",
				"energy": -0.26111,
				"method": "rhf"
			},
			{
				"type": "occ",
				"energy": -0.2585,
				"method": "rhf"
			},
			{
				"type": "unocc",
				"energy": -0.05262,
				"method": "rhf"
			},
			{
				"type": "unocc",
				"energy": -0.02539,
				"method": "rhf"
			},
			{
				"type": "unocc",
				"energy": 0.02911,
				"method": "rhf"
			},
			{
				"type": "unocc",
				"energy": 0.04551,
				"method": "rhf"
			},
			{
				"type": "unocc",
				"energy": 0.07667,
				"method": "rhf"
			}
		],
		"cosmo_sigma_profile": { 
			"-0.025": 0.0,
			"-0.024": 0.0,
			"-0.023": 0.0,
			"-0.022": 0.0,
			"-0.021": 0.0,
			"-0.02": 0.0,
			"-0.019": 0.0,
			"-0.018": 0.0,
			"-0.017": 0.0,
			"-0.016": 0.0,
			"-0.015": 0.0,
			"-0.014": 0.0,
			"-0.013": 0.0,
			"-0.012": 0.0,
			"-0.011": 0.0,
			"-0.01": 0.0,
			"-0.009": 0.0,
			"-0.008": 0.102298797372,
			"-0.007": 5.0949479202,
			"-0.006": 9.33142773094,
			"-0.005": 15.1016045059,
			"-0.004": 22.5182109919,
			"-0.003": 37.2612452753,
			"-0.002": 52.3252710955,
			"-0.001": 51.5678443506,
			"0.0": 51.6018869862,
			"0.001": 46.9376726089,
			"0.002": 37.1188026039,
			"0.003": 20.4095222031,
			"0.004": 7.04691217471,
			"0.005": 4.83568348133,
			"0.006": 4.45385200335,
			"0.007": 3.06359372441,
			"0.008": 2.71264884755,
			"0.009": 2.92609868388,
			"0.01": 3.75329647184,
			"0.011": 5.5387928028,
			"0.012": 7.1175956552,
			"0.013": 0.54108949617,
			"0.014": 0.0,
			"0.015": 0.0,
			"0.016": 0.0,
			"0.017": 0.0,
			"0.018": 0.0,
			"0.019": 0.0,
			"0.02": 0.0,
			"0.021": 0.0,
			"0.022": 0.0,
			"0.023": 0.0,
			"0.024": 0.0,
			"0.025": 0.0
		}
	}
}
