{
	 "smiles": "COC1=CC=C2CC3N(C)CCC45C(OC1=C24)C(=O)CCC35O", 
	 "Tm": 492.15, 
	 "num_atms": 44, 
	 "gaussian": { 
		 "optdone": 1, 
		 "sigma_profile": "yes", 
		 "theory": "DFT", 
		 "functional": "B3LYP", 
		 "basiset": "6-31G**", 
		 "properties": { 
			 "R2extent": 6467.6955, 
			 "electric_dipole_moment_norm": 3.79465075205, 
			 "electric_quadrupole_moment_norm": 13.6031558868, 
			 "total_energy": -1054.16626619, 
			 "HOMO_LUMO_gap": 0.19224, 
			 "cosmo_polarized_energy": -16.31, 
			 "cosmo_cavitation_energy": 40.33, 
			 "cosmo_dispersion_energy": -29.1, 
			 "cosmo_repulsion_energy": 2.13, 
			 "cosmo_total_nonelectrostatic_energy": 13.36, 
			 "SMD_solvation_energy": 5.68 
		},
		"coords": [
			{
				"x": 3.6675718247,
				"y": -2.1814525332,
				"z": 2.0051187173,
				"element": "C" 
			},
			{
				"x": 2.3571078672,
				"y": -2.3710897123,
				"z": 2.5460622167,
				"element": "O" 
			},
			{
				"x": 1.2826254166,
				"y": -1.9037968822,
				"z": 1.8551117173,
				"element": "C" 
			},
			{
				"x": 0.0143858798,
				"y": -2.3135283793,
				"z": 2.3197739622,
				"element": "C" 
			},
			{
				"x": -1.1764256943,
				"y": -1.9972007653,
				"z": 1.6647830236,
				"element": "C" 
			},
			{
				"x": -1.1644522499,
				"y": -1.1796950295,
				"z": 0.5199927395,
				"element": "C" 
			},
			{
				"x": -2.3429109433,
				"y": -0.9657774986,
				"z": -0.4265462905,
				"element": "C" 
			},
			{
				"x": -2.0080727337,
				"y": -0.2203363986,
				"z": -1.7743659202,
				"element": "C" 
			},
			{
				"x": -2.3391106087,
				"y": 1.201040959,
				"z": -1.6280730311,
				"element": "N" 
			},
			{
				"x": -2.6144177792,
				"y": 1.9460496002,
				"z": -2.8470057133,
				"element": "C" 
			},
			{
				"x": -1.4706093019,
				"y": 1.8763729809,
				"z": -0.6640777772,
				"element": "C" 
			},
			{
				"x": 0.0243887056,
				"y": 1.627324485,
				"z": -0.9111224953,
				"element": "C" 
			},
			{
				"x": 0.3481070613,
				"y": 0.1181092695,
				"z": -1.0828736926,
				"element": "C" 
			},
			{
				"x": 1.8714505628,
				"y": -0.1132648832,
				"z": -1.2620643163,
				"element": "C" 
			},
			{
				"x": 2.374366106,
				"y": -0.6489382568,
				"z": -0.0144037817,
				"element": "O" 
			},
			{
				"x": 1.2871127974,
				"y": -1.0841613032,
				"z": 0.7192522091,
				"element": "C" 
			},
			{
				"x": 0.0815431229,
				"y": -0.6905089804,
				"z": 0.1505409454,
				"element": "C" 
			},
			{
				"x": 2.1714693326,
				"y": -1.0111763184,
				"z": -2.4702410848,
				"element": "C" 
			},
			{
				"x": 2.973572116,
				"y": -1.9180331684,
				"z": -2.4252912454,
				"element": "O" 
			},
			{
				"x": 1.4432682235,
				"y": -0.6038218377,
				"z": -3.760196947,
				"element": "C" 
			},
			{
				"x": -0.0093856899,
				"y": -0.0666444506,
				"z": -3.5666057176,
				"element": "C" 
			},
			{
				"x": -0.5264123416,
				"y": -0.5191692154,
				"z": -2.19492457,
				"element": "C" 
			},
			{
				"x": -0.3479651759,
				"y": -1.9400301866,
				"z": -2.258655794,
				"element": "O" 
			},
			{
				"x": 3.9384143895,
				"y": -1.1214818087,
				"z": 1.9766324996,
				"element": "H" 
			},
			{
				"x": 3.7490557434,
				"y": -2.5939354101,
				"z": 0.9954915938,
				"element": "H" 
			},
			{
				"x": 4.3393170715,
				"y": -2.7136144313,
				"z": 2.6808790756,
				"element": "H" 
			},
			{
				"x": 0.0034670016,
				"y": -2.9557937024,
				"z": 3.194870739,
				"element": "H" 
			},
			{
				"x": -2.1087559019,
				"y": -2.4190897918,
				"z": 2.0306692014,
				"element": "H" 
			},
			{
				"x": -2.7575006818,
				"y": -1.9507694817,
				"z": -0.6705094278,
				"element": "H" 
			},
			{
				"x": -3.1552862966,
				"y": -0.4060854782,
				"z": 0.0495068797,
				"element": "H" 
			},
			{
				"x": -2.6654111084,
				"y": -0.6318860565,
				"z": -2.548013597,
				"element": "H" 
			},
			{
				"x": -1.7368321604,
				"y": 2.2131447943,
				"z": -3.4611916754,
				"element": "H" 
			},
			{
				"x": -3.292257294,
				"y": 1.3641775814,
				"z": -3.4799930156,
				"element": "H" 
			},
			{
				"x": -3.1257502955,
				"y": 2.8800764238,
				"z": -2.5873318892,
				"element": "H" 
			},
			{
				"x": -1.7251302401,
				"y": 1.5288496708,
				"z": 0.3449311325,
				"element": "H" 
			},
			{
				"x": -1.6878562301,
				"y": 2.9491673105,
				"z": -0.686850293,
				"element": "H" 
			},
			{
				"x": 0.3542489748,
				"y": 2.1672690915,
				"z": -1.8076311024,
				"element": "H" 
			},
			{
				"x": 0.6142556233,
				"y": 2.0199306651,
				"z": -0.0738099429,
				"element": "H" 
			},
			{
				"x": 2.3952923026,
				"y": 0.8358784734,
				"z": -1.43522247,
				"element": "H" 
			},
			{
				"x": 1.4585207483,
				"y": -1.4898815013,
				"z": -4.3965628679,
				"element": "H" 
			},
			{
				"x": 2.0613185761,
				"y": 0.1554177627,
				"z": -4.2588390844,
				"element": "H" 
			},
			{
				"x": -0.6538622842,
				"y": -0.4614118766,
				"z": -4.3584148897,
				"element": "H" 
			},
			{
				"x": -0.0331329054,
				"y": 1.021336244,
				"z": -3.6488385596,
				"element": "H" 
			},
			{
				"x": -0.3515215304,
				"y": -2.2963699742,
				"z": -1.3581594605,
				"element": "H" 
			}
		],
		 "valence_orbital": [ 
			{
				"type": "occ",
				"energy": -0.28278,
				"method": "rhf"
			},
			{
				"type": "occ",
				"energy": -0.24438,
				"method": "rhf"
			},
			{
				"type": "occ",
				"energy": -0.22626,
				"method": "rhf"
			},
			{
				"type": "occ",
				"energy": -0.20504,
				"method": "rhf"
			},
			{
				"type": "occ",
				"energy": -0.20215,
				"method": "rhf"
			},
			{
				"type": "unocc",
				"energy": -0.00991,
				"method": "rhf"
			},
			{
				"type": "unocc",
				"energy": -0.00218,
				"method": "rhf"
			},
			{
				"type": "unocc",
				"energy": 0.00785,
				"method": "rhf"
			},
			{
				"type": "unocc",
				"energy": 0.06327,
				"method": "rhf"
			},
			{
				"type": "unocc",
				"energy": 0.08342,
				"method": "rhf"
			}
		],
		"cosmo_sigma_profile": { 
			"-0.025": 0.0,
			"-0.024": 0.0,
			"-0.023": 0.0,
			"-0.022": 0.0,
			"-0.021": 0.0,
			"-0.02": 0.0,
			"-0.019": 0.0,
			"-0.018": 0.0,
			"-0.017": 0.0,
			"-0.016": 0.0,
			"-0.015": 0.0,
			"-0.014": 0.0,
			"-0.013": 0.0,
			"-0.012": 0.0107225910779,
			"-0.011": 0.416392643372,
			"-0.01": 0.3208620255,
			"-0.009": 1.61772562702,
			"-0.008": 5.0331729474,
			"-0.007": 4.50086428431,
			"-0.006": 10.3787141637,
			"-0.005": 17.7353027923,
			"-0.004": 34.9579771291,
			"-0.003": 41.7751437117,
			"-0.002": 37.3641476438,
			"-0.001": 33.1442354665,
			"0.0": 21.6750624425,
			"0.001": 11.2240475513,
			"0.002": 11.5736764686,
			"0.003": 10.3042921882,
			"0.004": 13.1970767931,
			"0.005": 10.9822722151,
			"0.006": 8.61469096792,
			"0.007": 5.72364660357,
			"0.008": 5.91448346431,
			"0.009": 6.18525497778,
			"0.01": 6.0734616357,
			"0.011": 6.45780068962,
			"0.012": 7.14698070941,
			"0.013": 2.22876983337,
			"0.014": 0.440085922947,
			"0.015": 0.0,
			"0.016": 0.0,
			"0.017": 0.0,
			"0.018": 0.0,
			"0.019": 0.0,
			"0.02": 0.0,
			"0.021": 0.0,
			"0.022": 0.0,
			"0.023": 0.0,
			"0.024": 0.0,
			"0.025": 0.0
		}
	}
}
