{
	 "smiles": "FC(F)(F)C#CC(F)(F)F", 
	 "Tm": 156.15, 
	 "num_atms": 10, 
	 "gaussian": { 
		 "optdone": 1, 
		 "sigma_profile": "yes", 
		 "theory": "DFT", 
		 "functional": "B3LYP", 
		 "basiset": "6-31G**", 
		 "properties": { 
			 "R2extent": 1908.2421, 
			 "electric_dipole_moment_norm": 0.0, 
			 "electric_quadrupole_moment_norm": 2.06251480964, 
			 "total_energy": -751.37909747, 
			 "HOMO_LUMO_gap": 0.30361, 
			 "cosmo_polarized_energy": -1.29, 
			 "cosmo_cavitation_energy": 19.4, 
			 "cosmo_dispersion_energy": -13.02, 
			 "cosmo_repulsion_energy": 1.0, 
			 "cosmo_total_nonelectrostatic_energy": 7.37, 
			 "SMD_solvation_energy": 6.58 
		},
		"coords": [
			{
				"x": 0.7217011155,
				"y": 0.5218472726,
				"z": -2.7471305769,
				"element": "F" 
			},
			{
				"x": 1.3348441841,
				"y": 0.397489479,
				"z": -1.5578570527,
				"element": "C" 
			},
			{
				"x": 2.0534034493,
				"y": -0.7379485011,
				"z": -1.5731687337,
				"element": "F" 
			},
			{
				"x": 2.1838111548,
				"y": 1.4291283482,
				"z": -1.4138072512,
				"element": "F" 
			},
			{
				"x": 0.3523804348,
				"y": 0.3763307833,
				"z": -0.4660940177,
				"element": "C" 
			},
			{
				"x": -0.4521431002,
				"y": 0.3589971117,
				"z": 0.4279410182,
				"element": "C" 
			},
			{
				"x": -1.4345439225,
				"y": 0.3376451049,
				"z": 1.5197571532,
				"element": "C" 
			},
			{
				"x": -2.1531848444,
				"y": 1.4730310809,
				"z": 1.5352256782,
				"element": "F" 
			},
			{
				"x": -0.8213235363,
				"y": 0.2132141949,
				"z": 2.7089849306,
				"element": "F" 
			},
			{
				"x": -2.2834449351,
				"y": -0.6940348743,
				"z": 1.3756488519,
				"element": "F" 
			}
		],
		 "valence_orbital": [ 
			{
				"type": "occ",
				"energy": -0.4273,
				"method": "rhf"
			},
			{
				"type": "occ",
				"energy": -0.42264,
				"method": "rhf"
			},
			{
				"type": "occ",
				"energy": -0.42263,
				"method": "rhf"
			},
			{
				"type": "occ",
				"energy": -0.34064,
				"method": "rhf"
			},
			{
				"type": "occ",
				"energy": -0.34064,
				"method": "rhf"
			},
			{
				"type": "unocc",
				"energy": -0.03703,
				"method": "rhf"
			},
			{
				"type": "unocc",
				"energy": -0.03703,
				"method": "rhf"
			},
			{
				"type": "unocc",
				"energy": 0.14328,
				"method": "rhf"
			},
			{
				"type": "unocc",
				"energy": 0.16656,
				"method": "rhf"
			},
			{
				"type": "unocc",
				"energy": 0.16657,
				"method": "rhf"
			}
		],
		"cosmo_sigma_profile": { 
			"-0.025": 0.0,
			"-0.024": 0.0,
			"-0.023": 0.0,
			"-0.022": 0.0,
			"-0.021": 0.0,
			"-0.02": 0.0,
			"-0.019": 0.0,
			"-0.018": 0.0,
			"-0.017": 0.0,
			"-0.016": 0.0,
			"-0.015": 0.0,
			"-0.014": 0.0,
			"-0.013": 0.0,
			"-0.012": 0.0,
			"-0.011": 0.0,
			"-0.01": 0.0,
			"-0.009": 0.0,
			"-0.008": 0.0,
			"-0.007": 0.0,
			"-0.006": 0.705368743025,
			"-0.005": 4.64266738019,
			"-0.004": 5.77380484883,
			"-0.003": 7.05472397116,
			"-0.002": 13.8013003254,
			"-0.001": 24.7135461484,
			"0.0": 17.0279704948,
			"0.001": 48.7059906893,
			"0.002": 35.5719423629,
			"0.003": 0.0,
			"0.004": 0.0,
			"0.005": 0.0,
			"0.006": 0.0,
			"0.007": 0.0,
			"0.008": 0.0,
			"0.009": 0.0,
			"0.01": 0.0,
			"0.011": 0.0,
			"0.012": 0.0,
			"0.013": 0.0,
			"0.014": 0.0,
			"0.015": 0.0,
			"0.016": 0.0,
			"0.017": 0.0,
			"0.018": 0.0,
			"0.019": 0.0,
			"0.02": 0.0,
			"0.021": 0.0,
			"0.022": 0.0,
			"0.023": 0.0,
			"0.024": 0.0,
			"0.025": 0.0
		}
	}
}
