{
	 "smiles": "CN1C(OC(=O)C2=CC=CC=C2)C2=CC=CC=C2C1=O", 
	 "Tm": 366.15, 
	 "num_atms": 33, 
	 "gaussian": { 
		 "optdone": 1, 
		 "sigma_profile": "yes", 
		 "theory": "DFT", 
		 "functional": "B3LYP", 
		 "basiset": "6-31G**", 
		 "properties": { 
			 "R2extent": 7558.547, 
			 "electric_dipole_moment_norm": 3.15267116744, 
			 "electric_quadrupole_moment_norm": 18.7812254073, 
			 "total_energy": -897.998395254, 
			 "HOMO_LUMO_gap": 0.19332, 
			 "cosmo_polarized_energy": -12.65, 
			 "cosmo_cavitation_energy": 37.82, 
			 "cosmo_dispersion_energy": -26.57, 
			 "cosmo_repulsion_energy": 2.01, 
			 "cosmo_total_nonelectrostatic_energy": 13.27, 
			 "SMD_solvation_energy": 7.45 
		},
		"coords": [
			{
				"x": -2.1536933529,
				"y": 3.1006370567,
				"z": 0.4567759758,
				"element": "C" 
			},
			{
				"x": -2.6631601629,
				"y": 1.7726694478,
				"z": 0.1883022376,
				"element": "N" 
			},
			{
				"x": -1.8258552801,
				"y": 0.6700732022,
				"z": -0.1910419175,
				"element": "C" 
			},
			{
				"x": -0.9158033927,
				"y": 0.3992820178,
				"z": 0.9171023759,
				"element": "O" 
			},
			{
				"x": 0.2412075106,
				"y": -0.2349296483,
				"z": 0.6090973864,
				"element": "C" 
			},
			{
				"x": 0.5069956428,
				"y": -0.6297134845,
				"z": -0.5125362214,
				"element": "O" 
			},
			{
				"x": 1.1367203628,
				"y": -0.3905738242,
				"z": 1.7883595664,
				"element": "C" 
			},
			{
				"x": 0.774266771,
				"y": 0.0507371918,
				"z": 3.0691585727,
				"element": "C" 
			},
			{
				"x": 1.6538401203,
				"y": -0.1227200537,
				"z": 4.1363023061,
				"element": "C" 
			},
			{
				"x": 2.893703855,
				"y": -0.7332571651,
				"z": 3.9309874658,
				"element": "C" 
			},
			{
				"x": 3.2562579303,
				"y": -1.1744953408,
				"z": 2.6552437847,
				"element": "C" 
			},
			{
				"x": 2.3804503739,
				"y": -1.0055009554,
				"z": 1.5861450882,
				"element": "C" 
			},
			{
				"x": -2.8135748229,
				"y": -0.4570087125,
				"z": -0.40736061,
				"element": "C" 
			},
			{
				"x": -2.6042944675,
				"y": -1.7657411978,
				"z": -0.8257589987,
				"element": "C" 
			},
			{
				"x": -3.7239142879,
				"y": -2.601164969,
				"z": -0.9287727249,
				"element": "C" 
			},
			{
				"x": -5.0097350387,
				"y": -2.1349599983,
				"z": -0.6241258027,
				"element": "C" 
			},
			{
				"x": -5.210532587,
				"y": -0.8153604503,
				"z": -0.2090391551,
				"element": "C" 
			},
			{
				"x": -4.093821824,
				"y": 0.0056978002,
				"z": -0.1071812936,
				"element": "C" 
			},
			{
				"x": -4.0097695805,
				"y": 1.4413431862,
				"z": 0.2842333413,
				"element": "C" 
			},
			{
				"x": -4.9092548174,
				"y": 2.2017442807,
				"z": 0.6005754425,
				"element": "O" 
			},
			{
				"x": -3.0066608126,
				"y": 3.7239055284,
				"z": 0.7302269935,
				"element": "H" 
			},
			{
				"x": -1.6670716561,
				"y": 3.5245174555,
				"z": -0.4301475109,
				"element": "H" 
			},
			{
				"x": -1.4336592769,
				"y": 3.0865165551,
				"z": 1.2814115079,
				"element": "H" 
			},
			{
				"x": -1.2070806324,
				"y": 0.8841969648,
				"z": -1.0682558082,
				"element": "H" 
			},
			{
				"x": -0.1908212816,
				"y": 0.5202811688,
				"z": 3.2205546005,
				"element": "H" 
			},
			{
				"x": 1.3725193534,
				"y": 0.2176057173,
				"z": 5.1283935914,
				"element": "H" 
			},
			{
				"x": 3.5767852998,
				"y": -0.8661568395,
				"z": 4.7651611402,
				"element": "H" 
			},
			{
				"x": 4.2196996191,
				"y": -1.6496892975,
				"z": 2.4965972117,
				"element": "H" 
			},
			{
				"x": 2.6377881064,
				"y": -1.3403864405,
				"z": 0.5870340822,
				"element": "H" 
			},
			{
				"x": -1.608550509,
				"y": -2.1233199998,
				"z": -1.0652769471,
				"element": "H" 
			},
			{
				"x": -3.5931792351,
				"y": -3.6290415007,
				"z": -1.254664511,
				"element": "H" 
			},
			{
				"x": -5.8578289265,
				"y": -2.8069961991,
				"z": -0.7171053122,
				"element": "H" 
			},
			{
				"x": -6.1981730005,
				"y": -0.4307914962,
				"z": 0.0251041424,
				"element": "H" 
			}
		],
		 "valence_orbital": [ 
			{
				"type": "occ",
				"energy": -0.2644,
				"method": "rhf"
			},
			{
				"type": "occ",
				"energy": -0.26363,
				"method": "rhf"
			},
			{
				"type": "occ",
				"energy": -0.26273,
				"method": "rhf"
			},
			{
				"type": "occ",
				"energy": -0.25614,
				"method": "rhf"
			},
			{
				"type": "occ",
				"energy": -0.24739,
				"method": "rhf"
			},
			{
				"type": "unocc",
				"energy": -0.05407,
				"method": "rhf"
			},
			{
				"type": "unocc",
				"energy": -0.04201,
				"method": "rhf"
			},
			{
				"type": "unocc",
				"energy": -0.01877,
				"method": "rhf"
			},
			{
				"type": "unocc",
				"energy": -0.01352,
				"method": "rhf"
			},
			{
				"type": "unocc",
				"energy": 0.04941,
				"method": "rhf"
			}
		],
		"cosmo_sigma_profile": { 
			"-0.025": 0.0,
			"-0.024": 0.0,
			"-0.023": 0.0,
			"-0.022": 0.0,
			"-0.021": 0.0,
			"-0.02": 0.0,
			"-0.019": 0.0,
			"-0.018": 0.0,
			"-0.017": 0.0,
			"-0.016": 0.0,
			"-0.015": 0.0,
			"-0.014": 0.0,
			"-0.013": 0.0,
			"-0.012": 0.0,
			"-0.011": 0.0,
			"-0.01": 0.0,
			"-0.009": 0.0,
			"-0.008": 0.920987956934,
			"-0.007": 7.04631771931,
			"-0.006": 19.0988047486,
			"-0.005": 27.4882224665,
			"-0.004": 24.4611475562,
			"-0.003": 22.8085949057,
			"-0.002": 25.9866956022,
			"-0.001": 22.4058516975,
			"0.0": 22.6035455121,
			"0.001": 25.3272087291,
			"0.002": 25.6932864176,
			"0.003": 26.6044317752,
			"0.004": 20.0361608904,
			"0.005": 4.15142404908,
			"0.006": 2.51362007328,
			"0.007": 2.67087862291,
			"0.008": 2.74830819944,
			"0.009": 2.65661564711,
			"0.01": 3.28729070018,
			"0.011": 5.2807279657,
			"0.012": 3.8888055933,
			"0.013": 5.27585289093,
			"0.014": 0.601602759625,
			"0.015": 0.0,
			"0.016": 0.0,
			"0.017": 0.0,
			"0.018": 0.0,
			"0.019": 0.0,
			"0.02": 0.0,
			"0.021": 0.0,
			"0.022": 0.0,
			"0.023": 0.0,
			"0.024": 0.0,
			"0.025": 0.0
		}
	}
}
