{
	 "smiles": "OC1=CC(O)=C2C(OC(=C(O)C2=O)C2=CC=C(O)C(O)=C2)=C1", 
	 "Tm": 589.15, 
	 "num_atms": 32, 
	 "gaussian": { 
		 "optdone": 1, 
		 "sigma_profile": "yes", 
		 "theory": "DFT", 
		 "functional": "B3LYP", 
		 "basiset": "6-31G**", 
		 "properties": { 
			 "R2extent": 8992.8602, 
			 "electric_dipole_moment_norm": 2.40816365931, 
			 "electric_quadrupole_moment_norm": 25.3626419373, 
			 "total_energy": -1104.1733837, 
			 "HOMO_LUMO_gap": 0.1377, 
			 "cosmo_polarized_energy": -26.23, 
			 "cosmo_cavitation_energy": 37.22, 
			 "cosmo_dispersion_energy": -28.08, 
			 "cosmo_repulsion_energy": 2.08, 
			 "cosmo_total_nonelectrostatic_energy": 11.22, 
			 "SMD_solvation_energy": 8.58 
		},
		"coords": [
			{
				"x": 4.3460246547,
				"y": -2.8724737517,
				"z": -0.1636359442,
				"element": "O" 
			},
			{
				"x": 3.0148197915,
				"y": -2.7810512016,
				"z": 0.0934381486,
				"element": "C" 
			},
			{
				"x": 2.4431549989,
				"y": -3.8420889999,
				"z": 0.8139513004,
				"element": "C" 
			},
			{
				"x": 1.0884696684,
				"y": -3.8275445659,
				"z": 1.1190504899,
				"element": "C" 
			},
			{
				"x": 0.5073894083,
				"y": -4.8329763635,
				"z": 1.8108572676,
				"element": "O" 
			},
			{
				"x": 0.2609761326,
				"y": -2.7422594599,
				"z": 0.7086136735,
				"element": "C" 
			},
			{
				"x": 0.88061622,
				"y": -1.7005308173,
				"z": -0.0123618332,
				"element": "C" 
			},
			{
				"x": 0.1880657552,
				"y": -0.6209336062,
				"z": -0.4509030303,
				"element": "O" 
			},
			{
				"x": -1.1637679585,
				"y": -0.4616196826,
				"z": -0.2270338357,
				"element": "C" 
			},
			{
				"x": -1.8258794942,
				"y": -1.4327181594,
				"z": 0.4650218453,
				"element": "C" 
			},
			{
				"x": -3.1483452326,
				"y": -1.3986582135,
				"z": 0.7519862608,
				"element": "O" 
			},
			{
				"x": -1.1628780647,
				"y": -2.6377501641,
				"z": 0.979883302,
				"element": "C" 
			},
			{
				"x": -1.8775366079,
				"y": -3.4479512989,
				"z": 1.5943937919,
				"element": "O" 
			},
			{
				"x": -1.6848188761,
				"y": 0.781850344,
				"z": -0.7965368185,
				"element": "C" 
			},
			{
				"x": -0.8310501817,
				"y": 1.6658143695,
				"z": -1.4820454252,
				"element": "C" 
			},
			{
				"x": -1.3147271481,
				"y": 2.8517875754,
				"z": -2.0282734567,
				"element": "C" 
			},
			{
				"x": -2.6612096049,
				"y": 3.1864314122,
				"z": -1.9050676001,
				"element": "C" 
			},
			{
				"x": -3.1363996426,
				"y": 4.3430871848,
				"z": -2.4369217144,
				"element": "O" 
			},
			{
				"x": -3.5210553711,
				"y": 2.3076050208,
				"z": -1.2210843485,
				"element": "C" 
			},
			{
				"x": -4.8312666168,
				"y": 2.723615375,
				"z": -1.1513606962,
				"element": "O" 
			},
			{
				"x": -3.0494334974,
				"y": 1.1258510962,
				"z": -0.6743902825,
				"element": "C" 
			},
			{
				"x": 2.2430309683,
				"y": -1.7029636518,
				"z": -0.3259661368,
				"element": "C" 
			},
			{
				"x": 4.6314747702,
				"y": -2.0946015559,
				"z": -0.6608779335,
				"element": "H" 
			},
			{
				"x": 3.0791383619,
				"y": -4.6657942217,
				"z": 1.1236117049,
				"element": "H" 
			},
			{
				"x": 1.1792746817,
				"y": -5.4951795284,
				"z": 2.0230563751,
				"element": "H" 
			},
			{
				"x": -3.2682444202,
				"y": -2.2445389749,
				"z": 1.2488581959,
				"element": "H" 
			},
			{
				"x": 0.2181643276,
				"y": 1.4218462955,
				"z": -1.5873976771,
				"element": "H" 
			},
			{
				"x": -0.6572236319,
				"y": 3.5340128342,
				"z": -2.5568705773,
				"element": "H" 
			},
			{
				"x": -4.0851600882,
				"y": 4.3842870037,
				"z": -2.241972107,
				"element": "H" 
			},
			{
				"x": -5.3548394977,
				"y": 2.0715928355,
				"z": -0.6692583378,
				"element": "H" 
			},
			{
				"x": -3.7288847867,
				"y": 0.4633777004,
				"z": -0.1515071647,
				"element": "H" 
			},
			{
				"x": 2.6630209819,
				"y": -0.8725248298,
				"z": -0.8836574365,
				"element": "H" 
			}
		],
		 "valence_orbital": [ 
			{
				"type": "occ",
				"energy": -0.25417,
				"method": "rhf"
			},
			{
				"type": "occ",
				"energy": -0.24165,
				"method": "rhf"
			},
			{
				"type": "occ",
				"energy": -0.23985,
				"method": "rhf"
			},
			{
				"type": "occ",
				"energy": -0.22468,
				"method": "rhf"
			},
			{
				"type": "occ",
				"energy": -0.19388,
				"method": "rhf"
			},
			{
				"type": "unocc",
				"energy": -0.05618,
				"method": "rhf"
			},
			{
				"type": "unocc",
				"energy": -0.01688,
				"method": "rhf"
			},
			{
				"type": "unocc",
				"energy": 0.00264,
				"method": "rhf"
			},
			{
				"type": "unocc",
				"energy": 0.00678,
				"method": "rhf"
			},
			{
				"type": "unocc",
				"energy": 0.04487,
				"method": "rhf"
			}
		],
		"cosmo_sigma_profile": { 
			"-0.025": 0.0,
			"-0.024": 0.0,
			"-0.023": 0.0,
			"-0.022": 0.0,
			"-0.021": 0.0,
			"-0.02": 0.0,
			"-0.019": 0.641622816831,
			"-0.018": 3.3565669407,
			"-0.017": 3.94192116,
			"-0.016": 3.03435850676,
			"-0.015": 3.19237969365,
			"-0.014": 3.3611966325,
			"-0.013": 3.71973586929,
			"-0.012": 2.68203213532,
			"-0.011": 4.36607565649,
			"-0.01": 4.31209419176,
			"-0.009": 3.82298714181,
			"-0.008": 5.14319295792,
			"-0.007": 5.51568903673,
			"-0.006": 7.62351599642,
			"-0.005": 8.42754915509,
			"-0.004": 9.23307634844,
			"-0.003": 10.2857750562,
			"-0.002": 13.0854115966,
			"-0.001": 15.5116766251,
			"0.0": 18.8700603973,
			"0.001": 29.4585614215,
			"0.002": 32.683463891,
			"0.003": 27.3025785694,
			"0.004": 18.8321848072,
			"0.005": 12.3943599039,
			"0.006": 8.57027957546,
			"0.007": 7.31051163361,
			"0.008": 5.78977747005,
			"0.009": 4.95248354889,
			"0.01": 5.98009109107,
			"0.011": 3.99555854841,
			"0.012": 2.93135910268,
			"0.013": 2.44608179769,
			"0.014": 1.94472415128,
			"0.015": 1.54367201737,
			"0.016": 1.56547806018,
			"0.017": 0.482870288425,
			"0.018": 0.0,
			"0.019": 0.0,
			"0.02": 0.0,
			"0.021": 0.0,
			"0.022": 0.0,
			"0.023": 0.0,
			"0.024": 0.0,
			"0.025": 0.0
		}
	}
}
