{
	 "smiles": "CC1=CC=C(C=C1)C1(O)CCN(CCCC(=O)C2=CC=C(F)C=C2)CC1", 
	 "Tm": 391.15, 
	 "num_atms": 52, 
	 "gaussian": { 
		 "optdone": 1, 
		 "sigma_profile": "yes", 
		 "theory": "DFT", 
		 "functional": "B3LYP", 
		 "basiset": "6-31G**", 
		 "properties": { 
			 "R2extent": 15223.7415, 
			 "electric_dipole_moment_norm": 4.0037344867, 
			 "electric_quadrupole_moment_norm": 10.9042099095, 
			 "total_energy": -1159.04325342, 
			 "HOMO_LUMO_gap": 0.15972, 
			 "cosmo_polarized_energy": -13.63, 
			 "cosmo_cavitation_energy": 52.52, 
			 "cosmo_dispersion_energy": -35.4, 
			 "cosmo_repulsion_energy": 2.62, 
			 "cosmo_total_nonelectrostatic_energy": 19.74, 
			 "SMD_solvation_energy": 8.78 
		},
		"coords": [
			{
				"x": -4.4269971808,
				"y": -0.6768287185,
				"z": -6.1559323681,
				"element": "C" 
			},
			{
				"x": -3.539452036,
				"y": -0.3842585338,
				"z": -4.969105308,
				"element": "C" 
			},
			{
				"x": -3.7675613395,
				"y": -0.9884791839,
				"z": -3.726553687,
				"element": "C" 
			},
			{
				"x": -2.9349423242,
				"y": -0.7384122165,
				"z": -2.6357249987,
				"element": "C" 
			},
			{
				"x": -1.8397731928,
				"y": 0.1297719482,
				"z": -2.7462849447,
				"element": "C" 
			},
			{
				"x": -1.6086132594,
				"y": 0.7326039933,
				"z": -3.9904846087,
				"element": "C" 
			},
			{
				"x": -2.4452125133,
				"y": 0.4828598944,
				"z": -5.0776661018,
				"element": "C" 
			},
			{
				"x": -0.8776241545,
				"y": 0.3935991102,
				"z": -1.5833923021,
				"element": "C" 
			},
			{
				"x": -0.2317597867,
				"y": 1.6661374693,
				"z": -1.7615963645,
				"element": "O" 
			},
			{
				"x": 0.2796257512,
				"y": -0.6329193507,
				"z": -1.5954468551,
				"element": "C" 
			},
			{
				"x": 0.9884645317,
				"y": -0.6525864877,
				"z": -0.2377672894,
				"element": "C" 
			},
			{
				"x": 0.1228156489,
				"y": -1.1333830037,
				"z": 0.8672090799,
				"element": "N" 
			},
			{
				"x": 0.4201751533,
				"y": -2.5074111111,
				"z": 1.2816093312,
				"element": "C" 
			},
			{
				"x": -0.2263407445,
				"y": -2.9051298337,
				"z": 2.6166277095,
				"element": "C" 
			},
			{
				"x": 0.1395921729,
				"y": -1.9827613102,
				"z": 3.7954203296,
				"element": "C" 
			},
			{
				"x": 1.599240095,
				"y": -2.1416047103,
				"z": 4.221308978,
				"element": "C" 
			},
			{
				"x": 1.9676763127,
				"y": -3.2115163778,
				"z": 4.6901515934,
				"element": "O" 
			},
			{
				"x": 2.5619673102,
				"y": -1.0033949812,
				"z": 4.0911716138,
				"element": "C" 
			},
			{
				"x": 2.3071287895,
				"y": 0.1319347864,
				"z": 3.3037439577,
				"element": "C" 
			},
			{
				"x": 3.2516088383,
				"y": 1.1529943819,
				"z": 3.2068957022,
				"element": "C" 
			},
			{
				"x": 4.4425391164,
				"y": 1.0314098345,
				"z": 3.9142753437,
				"element": "C" 
			},
			{
				"x": 5.3525751655,
				"y": 2.021082482,
				"z": 3.8331257863,
				"element": "F" 
			},
			{
				"x": 4.7297182479,
				"y": -0.0826256935,
				"z": 4.700663336,
				"element": "C" 
			},
			{
				"x": 3.7863845276,
				"y": -1.0996125988,
				"z": 4.7764196129,
				"element": "C" 
			},
			{
				"x": -1.3082811031,
				"y": -0.9366319455,
				"z": 0.5934331527,
				"element": "C" 
			},
			{
				"x": -1.5572653187,
				"y": 0.3620279638,
				"z": -0.1799617744,
				"element": "C" 
			},
			{
				"x": -4.4926260966,
				"y": 0.1835284215,
				"z": -6.8290137597,
				"element": "H" 
			},
			{
				"x": -4.0395771707,
				"y": -1.5189332901,
				"z": -6.7433844725,
				"element": "H" 
			},
			{
				"x": -5.4418936347,
				"y": -0.9400358829,
				"z": -5.8428173353,
				"element": "H" 
			},
			{
				"x": -4.6134482497,
				"y": -1.6615494308,
				"z": -3.6068761725,
				"element": "H" 
			},
			{
				"x": -3.1524085414,
				"y": -1.2287697905,
				"z": -1.6915683542,
				"element": "H" 
			},
			{
				"x": -0.7676725927,
				"y": 1.4098199191,
				"z": -4.0956067384,
				"element": "H" 
			},
			{
				"x": -2.2442203849,
				"y": 0.973016169,
				"z": -6.0276703979,
				"element": "H" 
			},
			{
				"x": -0.9210430612,
				"y": 2.3448205665,
				"z": -1.7510130297,
				"element": "H" 
			},
			{
				"x": 0.97333467,
				"y": -0.3538907057,
				"z": -2.394848542,
				"element": "H" 
			},
			{
				"x": -0.1122435167,
				"y": -1.6269398099,
				"z": -1.8353739603,
				"element": "H" 
			},
			{
				"x": 1.8789561474,
				"y": -1.2862806894,
				"z": -0.2837137468,
				"element": "H" 
			},
			{
				"x": 1.3357676286,
				"y": 0.3640972582,
				"z": -0.0157700243,
				"element": "H" 
			},
			{
				"x": 1.5081068335,
				"y": -2.5947125283,
				"z": 1.3800812425,
				"element": "H" 
			},
			{
				"x": 0.1107841154,
				"y": -3.2451303768,
				"z": 0.5141600235,
				"element": "H" 
			},
			{
				"x": 0.0918589896,
				"y": -3.9246009232,
				"z": 2.8605164268,
				"element": "H" 
			},
			{
				"x": -1.3169361177,
				"y": -2.9361659736,
				"z": 2.5153451759,
				"element": "H" 
			},
			{
				"x": -0.1156784019,
				"y": -0.9482146838,
				"z": 3.5616115583,
				"element": "H" 
			},
			{
				"x": -0.4513086003,
				"y": -2.2829369693,
				"z": 4.6682956122,
				"element": "H" 
			},
			{
				"x": 1.3911786503,
				"y": 0.1979847047,
				"z": 2.7248794036,
				"element": "H" 
			},
			{
				"x": 3.0804419016,
				"y": 2.0320265489,
				"z": 2.5950334154,
				"element": "H" 
			},
			{
				"x": 5.6745964639,
				"y": -0.1343280306,
				"z": 5.2308565215,
				"element": "H" 
			},
			{
				"x": 3.973155953,
				"y": -1.9897444795,
				"z": 5.3676019431,
				"element": "H" 
			},
			{
				"x": -1.8544176485,
				"y": -0.8978504948,
				"z": 1.5429978189,
				"element": "H" 
			},
			{
				"x": -1.7296172987,
				"y": -1.7927596183,
				"z": 0.0311602712,
				"element": "H" 
			},
			{
				"x": -1.128666949,
				"y": 1.1882035497,
				"z": 0.3974738533,
				"element": "H" 
			},
			{
				"x": -2.6336117965,
				"y": 0.5449807327,
				"z": -0.2590956572,
				"element": "H" 
			}
		],
		 "valence_orbital": [ 
			{
				"type": "occ",
				"energy": -0.24954,
				"method": "rhf"
			},
			{
				"type": "occ",
				"energy": -0.24887,
				"method": "rhf"
			},
			{
				"type": "occ",
				"energy": -0.24088,
				"method": "rhf"
			},
			{
				"type": "occ",
				"energy": -0.23496,
				"method": "rhf"
			},
			{
				"type": "occ",
				"energy": -0.21022,
				"method": "rhf"
			},
			{
				"type": "unocc",
				"energy": -0.0505,
				"method": "rhf"
			},
			{
				"type": "unocc",
				"energy": -0.0135,
				"method": "rhf"
			},
			{
				"type": "unocc",
				"energy": -0.0048,
				"method": "rhf"
			},
			{
				"type": "unocc",
				"energy": -0.00149,
				"method": "rhf"
			},
			{
				"type": "unocc",
				"energy": 0.04329,
				"method": "rhf"
			}
		],
		"cosmo_sigma_profile": { 
			"-0.025": 0.0,
			"-0.024": 0.0,
			"-0.023": 0.0,
			"-0.022": 0.0,
			"-0.021": 0.0,
			"-0.02": 0.0,
			"-0.019": 0.0,
			"-0.018": 0.0,
			"-0.017": 0.0,
			"-0.016": 0.0,
			"-0.015": 0.36992067756,
			"-0.014": 1.03859725144,
			"-0.013": 0.389576256661,
			"-0.012": 0.870690215721,
			"-0.011": 1.13224610712,
			"-0.01": 0.846277423802,
			"-0.009": 0.553779001617,
			"-0.008": 1.97256812429,
			"-0.007": 5.05314235158,
			"-0.006": 4.94657005146,
			"-0.005": 12.8955328578,
			"-0.004": 30.7282634069,
			"-0.003": 46.6265242065,
			"-0.002": 55.803977411,
			"-0.001": 51.2063706684,
			"0.0": 46.4470180633,
			"0.001": 30.3335109374,
			"0.002": 25.8143586083,
			"0.003": 25.2627897089,
			"0.004": 20.9245917281,
			"0.005": 12.3078068101,
			"0.006": 10.2380775512,
			"0.007": 6.28859153064,
			"0.008": 2.25355194674,
			"0.009": 2.84126567357,
			"0.01": 3.05226260377,
			"0.011": 3.35974616657,
			"0.012": 4.75599201668,
			"0.013": 3.50426471084,
			"0.014": 0.746855475144,
			"0.015": 0.0,
			"0.016": 0.0,
			"0.017": 0.0,
			"0.018": 0.0,
			"0.019": 0.0,
			"0.02": 0.0,
			"0.021": 0.0,
			"0.022": 0.0,
			"0.023": 0.0,
			"0.024": 0.0,
			"0.025": 0.0
		}
	}
}
