{
	 "smiles": "CC(N)(C(O)=O)C1=CC=CC=C1", 
	 "Tm": 443.15, 
	 "num_atms": 23, 
	 "gaussian": { 
		 "optdone": 1, 
		 "sigma_profile": "yes", 
		 "theory": "DFT", 
		 "functional": "B3LYP", 
		 "basiset": "6-31G**", 
		 "properties": { 
			 "R2extent": 2452.1332, 
			 "electric_dipole_moment_norm": 2.14604919562, 
			 "electric_quadrupole_moment_norm": 7.25869805406, 
			 "total_energy": -554.798459598, 
			 "HOMO_LUMO_gap": 0.2301, 
			 "cosmo_polarized_energy": -12.34, 
			 "cosmo_cavitation_energy": 26.11, 
			 "cosmo_dispersion_energy": -18.68, 
			 "cosmo_repulsion_energy": 1.49, 
			 "cosmo_total_nonelectrostatic_energy": 8.92, 
			 "SMD_solvation_energy": 4.89 
		},
		"coords": [
			{
				"x": -2.0712846837,
				"y": 1.9163890612,
				"z": -0.5588444052,
				"element": "C" 
			},
			{
				"x": -1.4843357151,
				"y": 1.1624524433,
				"z": 0.6472208441,
				"element": "C" 
			},
			{
				"x": -2.4685522619,
				"y": 0.166287207,
				"z": 1.0754249331,
				"element": "N" 
			},
			{
				"x": -1.2931225509,
				"y": 2.1491121874,
				"z": 1.81133311,
				"element": "C" 
			},
			{
				"x": -1.2130531388,
				"y": 1.5150799695,
				"z": 3.0041109917,
				"element": "O" 
			},
			{
				"x": -1.1760324191,
				"y": 3.3500623365,
				"z": 1.7054119834,
				"element": "O" 
			},
			{
				"x": -0.076687495,
				"y": 0.615031779,
				"z": 0.2930699723,
				"element": "C" 
			},
			{
				"x": 0.1769392584,
				"y": -0.7583962289,
				"z": 0.2297708244,
				"element": "C" 
			},
			{
				"x": 1.4403134435,
				"y": -1.2383815936,
				"z": -0.1250229934,
				"element": "C" 
			},
			{
				"x": 2.4737193358,
				"y": -0.3486195892,
				"z": -0.4144603635,
				"element": "C" 
			},
			{
				"x": 2.234523398,
				"y": 1.0259491026,
				"z": -0.3453514157,
				"element": "C" 
			},
			{
				"x": 0.9720514984,
				"y": 1.5027343941,
				"z": 0.0039869684,
				"element": "C" 
			},
			{
				"x": -3.0588844191,
				"y": 2.3085440141,
				"z": -0.3049025813,
				"element": "H" 
			},
			{
				"x": -1.4300933808,
				"y": 2.7457530962,
				"z": -0.8580009494,
				"element": "H" 
			},
			{
				"x": -2.1691434611,
				"y": 1.22965009,
				"z": -1.4057187623,
				"element": "H" 
			},
			{
				"x": -2.6533026655,
				"y": -0.4877455565,
				"z": 0.3199524797,
				"element": "H" 
			},
			{
				"x": -2.1271301686,
				"y": -0.3613915463,
				"z": 1.8733927196,
				"element": "H" 
			},
			{
				"x": -1.0665744406,
				"y": 2.2076769261,
				"z": 3.669822385,
				"element": "H" 
			},
			{
				"x": -0.6148337407,
				"y": -1.4642952003,
				"z": 0.4594491154,
				"element": "H" 
			},
			{
				"x": 1.6138257418,
				"y": -2.3099753337,
				"z": -0.1709273859,
				"element": "H" 
			},
			{
				"x": 3.4568811673,
				"y": -0.7205747586,
				"z": -0.6878901255,
				"element": "H" 
			},
			{
				"x": 3.0331599312,
				"y": 1.7296731932,
				"z": -0.5629532688,
				"element": "H" 
			},
			{
				"x": 0.8010167666,
				"y": 2.5736840069,
				"z": 0.0645259239,
				"element": "H" 
			}
		],
		 "valence_orbital": [ 
			{
				"type": "occ",
				"energy": -0.3203,
				"method": "rhf"
			},
			{
				"type": "occ",
				"energy": -0.28152,
				"method": "rhf"
			},
			{
				"type": "occ",
				"energy": -0.25256,
				"method": "rhf"
			},
			{
				"type": "occ",
				"energy": -0.24879,
				"method": "rhf"
			},
			{
				"type": "occ",
				"energy": -0.24131,
				"method": "rhf"
			},
			{
				"type": "unocc",
				"energy": -0.01121,
				"method": "rhf"
			},
			{
				"type": "unocc",
				"energy": -0.00586,
				"method": "rhf"
			},
			{
				"type": "unocc",
				"energy": 0.01955,
				"method": "rhf"
			},
			{
				"type": "unocc",
				"energy": 0.07079,
				"method": "rhf"
			},
			{
				"type": "unocc",
				"energy": 0.08777,
				"method": "rhf"
			}
		],
		"cosmo_sigma_profile": { 
			"-0.025": 0.0,
			"-0.024": 0.0,
			"-0.023": 0.0,
			"-0.022": 0.0,
			"-0.021": 0.0,
			"-0.02": 0.0,
			"-0.019": 0.0867756523692,
			"-0.018": 0.886718944955,
			"-0.017": 1.05668430168,
			"-0.016": 0.502073064418,
			"-0.015": 1.08553765271,
			"-0.014": 0.680073475033,
			"-0.013": 0.425179646365,
			"-0.012": 0.752649421968,
			"-0.011": 1.28607123816,
			"-0.01": 2.35440329974,
			"-0.009": 3.21472578341,
			"-0.008": 4.2881202636,
			"-0.007": 4.39020313527,
			"-0.006": 7.34490941701,
			"-0.005": 11.6421107655,
			"-0.004": 15.6015641188,
			"-0.003": 15.7784617554,
			"-0.002": 12.9001019867,
			"-0.001": 13.9458420468,
			"0.0": 16.3311281243,
			"0.001": 13.949494035,
			"0.002": 10.2775176388,
			"0.003": 10.1797229011,
			"0.004": 10.9944061334,
			"0.005": 13.336240869,
			"0.006": 9.91808468612,
			"0.007": 3.61876722019,
			"0.008": 3.52700895553,
			"0.009": 2.47216378924,
			"0.01": 1.88205292029,
			"0.011": 4.7508969762,
			"0.012": 3.7021497114,
			"0.013": 0.551572107889,
			"0.014": 0.539297044484,
			"0.015": 0.214269260652,
			"0.016": 0.880713669152,
			"0.017": 0.364554639121,
			"0.018": 0.0707576620323,
			"0.019": 0.0,
			"0.02": 0.0,
			"0.021": 0.0,
			"0.022": 0.0,
			"0.023": 0.0,
			"0.024": 0.0,
			"0.025": 0.0
		}
	}
}
