{
	 "smiles": "CCC#CC", 
	 "Tm": 164.15, 
	 "num_atms": 13, 
	 "gaussian": { 
		 "optdone": 1, 
		 "sigma_profile": "yes", 
		 "theory": "DFT", 
		 "functional": "B3LYP", 
		 "basiset": "6-31G**", 
		 "properties": { 
			 "R2extent": 910.5603, 
			 "electric_dipole_moment_norm": 0.0835273607868, 
			 "electric_quadrupole_moment_norm": 3.97968819633, 
			 "total_energy": -195.299451235, 
			 "HOMO_LUMO_gap": 0.30225, 
			 "cosmo_polarized_energy": -3.14, 
			 "cosmo_cavitation_energy": 16.79, 
			 "cosmo_dispersion_energy": -12.21, 
			 "cosmo_repulsion_energy": 1.13, 
			 "cosmo_total_nonelectrostatic_energy": 5.7, 
			 "SMD_solvation_energy": 3.7 
		},
		"coords": [
			{
				"x": 2.3345261394,
				"y": -0.9745052778,
				"z": -2.2945382304,
				"element": "C" 
			},
			{
				"x": 2.3528966944,
				"y": -1.3911175782,
				"z": -0.8118513423,
				"element": "C" 
			},
			{
				"x": 1.1299811244,
				"y": -1.0238778138,
				"z": -0.0937184266,
				"element": "C" 
			},
			{
				"x": 0.1128964094,
				"y": -0.7126338919,
				"z": 0.4828346601,
				"element": "C" 
			},
			{
				"x": -1.1126763449,
				"y": -0.3394803024,
				"z": 1.1845565163,
				"element": "C" 
			},
			{
				"x": 1.5018048741,
				"y": -1.4489502311,
				"z": -2.8216069789,
				"element": "H" 
			},
			{
				"x": 2.2209914685,
				"y": 0.1089043607,
				"z": -2.392774772,
				"element": "H" 
			},
			{
				"x": 3.2666244183,
				"y": -1.2692240683,
				"z": -2.7871550843,
				"element": "H" 
			},
			{
				"x": 2.5056569913,
				"y": -2.4763595556,
				"z": -0.7397641889,
				"element": "H" 
			},
			{
				"x": 3.2185868035,
				"y": -0.9329562002,
				"z": -0.3149058349,
				"element": "H" 
			},
			{
				"x": -0.9027933727,
				"y": 0.3303591735,
				"z": 2.026445134,
				"element": "H" 
			},
			{
				"x": -1.8119294062,
				"y": 0.177982298,
				"z": 0.5176530962,
				"element": "H" 
			},
			{
				"x": -1.6283657996,
				"y": -1.2204409129,
				"z": 1.5839254516,
				"element": "H" 
			}
		],
		 "valence_orbital": [ 
			{
				"type": "occ",
				"energy": -0.38798,
				"method": "rhf"
			},
			{
				"type": "occ",
				"energy": -0.36457,
				"method": "rhf"
			},
			{
				"type": "occ",
				"energy": -0.35605,
				"method": "rhf"
			},
			{
				"type": "occ",
				"energy": -0.24025,
				"method": "rhf"
			},
			{
				"type": "occ",
				"energy": -0.23913,
				"method": "rhf"
			},
			{
				"type": "unocc",
				"energy": 0.06312,
				"method": "rhf"
			},
			{
				"type": "unocc",
				"energy": 0.06908,
				"method": "rhf"
			},
			{
				"type": "unocc",
				"energy": 0.11598,
				"method": "rhf"
			},
			{
				"type": "unocc",
				"energy": 0.11733,
				"method": "rhf"
			},
			{
				"type": "unocc",
				"energy": 0.1551,
				"method": "rhf"
			}
		],
		"cosmo_sigma_profile": { 
			"-0.025": 0.0,
			"-0.024": 0.0,
			"-0.023": 0.0,
			"-0.022": 0.0,
			"-0.021": 0.0,
			"-0.02": 0.0,
			"-0.019": 0.0,
			"-0.018": 0.0,
			"-0.017": 0.0,
			"-0.016": 0.0,
			"-0.015": 0.0,
			"-0.014": 0.0,
			"-0.013": 0.0,
			"-0.012": 0.0,
			"-0.011": 0.0,
			"-0.01": 0.0,
			"-0.009": 0.0,
			"-0.008": 0.0,
			"-0.007": 0.0,
			"-0.006": 0.925205302414,
			"-0.005": 7.54627800072,
			"-0.004": 10.3619695147,
			"-0.003": 16.0557643431,
			"-0.002": 19.5683435013,
			"-0.001": 20.3455706579,
			"0.0": 13.4884114137,
			"0.001": 10.0972909464,
			"0.002": 4.88003183827,
			"0.003": 4.07175839477,
			"0.004": 3.7142316131,
			"0.005": 4.28396458554,
			"0.006": 3.97781284109,
			"0.007": 5.7204896578,
			"0.008": 7.27733746253,
			"0.009": 0.151817608856,
			"0.01": 0.0,
			"0.011": 0.0,
			"0.012": 0.0,
			"0.013": 0.0,
			"0.014": 0.0,
			"0.015": 0.0,
			"0.016": 0.0,
			"0.017": 0.0,
			"0.018": 0.0,
			"0.019": 0.0,
			"0.02": 0.0,
			"0.021": 0.0,
			"0.022": 0.0,
			"0.023": 0.0,
			"0.024": 0.0,
			"0.025": 0.0
		}
	}
}
