{
	 "smiles": "CN1CCN(CCNCC2=C(F)C=C(Br)C=C2)CC1", 
	 "Tm": 319.15, 
	 "num_atms": 40, 
	 "gaussian": { 
		 "optdone": 1, 
		 "sigma_profile": "yes", 
		 "theory": "DFT", 
		 "functional": "B3LYP", 
		 "basiset": "6-31G**", 
		 "properties": { 
			 "R2extent": 9106.3685, 
			 "electric_dipole_moment_norm": 3.35321262523, 
			 "electric_quadrupole_moment_norm": 3.86936934009, 
			 "total_energy": -3381.59760299, 
			 "HOMO_LUMO_gap": 0.16407, 
			 "cosmo_polarized_energy": -11.57, 
			 "cosmo_cavitation_energy": 42.77, 
			 "cosmo_dispersion_energy": -28.29, 
			 "cosmo_repulsion_energy": 2.17, 
			 "cosmo_total_nonelectrostatic_energy": 16.65, 
			 "SMD_solvation_energy": 1.3 
		},
		"coords": [
			{
				"x": 0.8500175302,
				"y": 3.4980639178,
				"z": 0.3858297755,
				"element": "C" 
			},
			{
				"x": 0.9577374431,
				"y": 3.6631730605,
				"z": -1.0646069239,
				"element": "N" 
			},
			{
				"x": 2.0044445857,
				"y": 2.8511139738,
				"z": -1.670524463,
				"element": "C" 
			},
			{
				"x": 1.7123922572,
				"y": 1.3243715418,
				"z": -1.6311019641,
				"element": "C" 
			},
			{
				"x": 0.2716635097,
				"y": 1.0912730447,
				"z": -1.5158852833,
				"element": "N" 
			},
			{
				"x": -0.0833409767,
				"y": -0.3089983306,
				"z": -1.6806582481,
				"element": "C" 
			},
			{
				"x": -1.4352181828,
				"y": -0.6937391365,
				"z": -1.0546242485,
				"element": "C" 
			},
			{
				"x": -1.5175527827,
				"y": -0.4701469005,
				"z": 0.386458598,
				"element": "N" 
			},
			{
				"x": -1.0652322588,
				"y": -1.5581890241,
				"z": 1.2483820592,
				"element": "C" 
			},
			{
				"x": 0.436832216,
				"y": -1.5893196032,
				"z": 1.4554668009,
				"element": "C" 
			},
			{
				"x": 1.0978589985,
				"y": -0.5316800189,
				"z": 2.0881048797,
				"element": "C" 
			},
			{
				"x": 0.3773786082,
				"y": 0.5161585216,
				"z": 2.5337625905,
				"element": "F" 
			},
			{
				"x": 2.4710407223,
				"y": -0.5120976344,
				"z": 2.3003779623,
				"element": "C" 
			},
			{
				"x": 3.2173988419,
				"y": -1.6079154988,
				"z": 1.8686841101,
				"element": "C" 
			},
			{
				"x": 5.1073199269,
				"y": -1.6126507876,
				"z": 2.146605945,
				"element": "Br" 
			},
			{
				"x": 2.6096426659,
				"y": -2.6947279463,
				"z": 1.2455299772,
				"element": "C" 
			},
			{
				"x": 1.2266639242,
				"y": -2.6693156917,
				"z": 1.0493262894,
				"element": "C" 
			},
			{
				"x": -0.4738993814,
				"y": 2.0250860905,
				"z": -2.348809223,
				"element": "C" 
			},
			{
				"x": -0.3048346761,
				"y": 3.4641673792,
				"z": -1.78765973,
				"element": "C" 
			},
			{
				"x": 0.1414063442,
				"y": 4.2364726019,
				"z": 0.7774776364,
				"element": "H" 
			},
			{
				"x": 1.8253690594,
				"y": 3.7132796441,
				"z": 0.8380264716,
				"element": "H" 
			},
			{
				"x": 0.5220030052,
				"y": 2.4996943941,
				"z": 0.7093231885,
				"element": "H" 
			},
			{
				"x": 2.1113830297,
				"y": 3.1760022504,
				"z": -2.7135739943,
				"element": "H" 
			},
			{
				"x": 2.9603507409,
				"y": 3.0615520027,
				"z": -1.1786454146,
				"element": "H" 
			},
			{
				"x": 2.1404242558,
				"y": 0.8547785515,
				"z": -2.5407697785,
				"element": "H" 
			},
			{
				"x": 2.2010331747,
				"y": 0.8530332642,
				"z": -0.7699100848,
				"element": "H" 
			},
			{
				"x": -0.1032953114,
				"y": -0.6145601749,
				"z": -2.7477492129,
				"element": "H" 
			},
			{
				"x": 0.7043752543,
				"y": -0.9052676363,
				"z": -1.2098057523,
				"element": "H" 
			},
			{
				"x": -1.6363554771,
				"y": -1.7481111498,
				"z": -1.3261336502,
				"element": "H" 
			},
			{
				"x": -2.229680309,
				"y": -0.1039401878,
				"z": -1.5250675754,
				"element": "H" 
			},
			{
				"x": -2.4614699936,
				"y": -0.211227172,
				"z": 0.6444563214,
				"element": "H" 
			},
			{
				"x": -1.3774892215,
				"y": -2.5532713993,
				"z": 0.879418466,
				"element": "H" 
			},
			{
				"x": -1.5443766338,
				"y": -1.4174033995,
				"z": 2.2243456271,
				"element": "H" 
			},
			{
				"x": 2.9287507942,
				"y": 0.3339378012,
				"z": 2.7977856833,
				"element": "H" 
			},
			{
				"x": 3.2015062034,
				"y": -3.5415281424,
				"z": 0.9191864249,
				"element": "H" 
			},
			{
				"x": 0.7461257822,
				"y": -3.5132627248,
				"z": 0.5609594744,
				"element": "H" 
			},
			{
				"x": -1.5341950837,
				"y": 1.7549933122,
				"z": -2.348517937,
				"element": "H" 
			},
			{
				"x": -0.1440811559,
				"y": 1.9805821412,
				"z": -3.4077880505,
				"element": "H" 
			},
			{
				"x": -1.127456555,
				"y": 3.6959527092,
				"z": -1.10476361,
				"element": "H" 
			},
			{
				"x": -0.3660408742,
				"y": 4.1789663567,
				"z": -2.6217131371,
				"element": "H" 
			}
		],
		 "valence_orbital": [ 
			{
				"type": "occ",
				"energy": -0.26016,
				"method": "rhf"
			},
			{
				"type": "occ",
				"energy": -0.24182,
				"method": "rhf"
			},
			{
				"type": "occ",
				"energy": -0.22285,
				"method": "rhf"
			},
			{
				"type": "occ",
				"energy": -0.2022,
				"method": "rhf"
			},
			{
				"type": "occ",
				"energy": -0.18569,
				"method": "rhf"
			},
			{
				"type": "unocc",
				"energy": -0.02162,
				"method": "rhf"
			},
			{
				"type": "unocc",
				"energy": -0.01186,
				"method": "rhf"
			},
			{
				"type": "unocc",
				"energy": 0.00228,
				"method": "rhf"
			},
			{
				"type": "unocc",
				"energy": 0.06912,
				"method": "rhf"
			},
			{
				"type": "unocc",
				"energy": 0.09275,
				"method": "rhf"
			}
		],
		"cosmo_sigma_profile": { 
			"-0.025": 0.0,
			"-0.024": 0.0,
			"-0.023": 0.0,
			"-0.022": 0.0,
			"-0.021": 0.0,
			"-0.02": 0.0,
			"-0.019": 0.0,
			"-0.018": 0.0,
			"-0.017": 0.0,
			"-0.016": 0.0,
			"-0.015": 0.0,
			"-0.014": 0.0,
			"-0.013": 0.0,
			"-0.012": 0.0,
			"-0.011": 0.309676547819,
			"-0.01": 1.26797265737,
			"-0.009": 1.60106755578,
			"-0.008": 2.678030595,
			"-0.007": 4.78177106291,
			"-0.006": 7.67731622009,
			"-0.005": 13.1645798445,
			"-0.004": 15.9245308888,
			"-0.003": 29.3440498149,
			"-0.002": 40.1040588579,
			"-0.001": 52.7166644578,
			"0.0": 48.7323713191,
			"0.001": 26.7300098823,
			"0.002": 24.238446605,
			"0.003": 18.8029460722,
			"0.004": 19.4666951804,
			"0.005": 8.39966767137,
			"0.006": 2.51610311336,
			"0.007": 2.63375405515,
			"0.008": 2.61527144509,
			"0.009": 1.97874964961,
			"0.01": 1.97631140451,
			"0.011": 1.27010110396,
			"0.012": 1.53005946792,
			"0.013": 1.76202670599,
			"0.014": 1.535939254,
			"0.015": 1.73048461757,
			"0.016": 1.02787243983,
			"0.017": 0.77008717697,
			"0.018": 0.257385897083,
			"0.019": 0.0038967416871,
			"0.02": 0.0,
			"0.021": 0.0,
			"0.022": 0.0,
			"0.023": 0.0,
			"0.024": 0.0,
			"0.025": 0.0
		}
	}
}
