{
	 "smiles": "CC1NC(=O)C2=C(C=CC=C2)N(C)C1=O", 
	 "Tm": 524.15, 
	 "num_atms": 27, 
	 "gaussian": { 
		 "optdone": 1, 
		 "sigma_profile": "yes", 
		 "theory": "DFT", 
		 "functional": "B3LYP", 
		 "basiset": "6-31G**", 
		 "properties": { 
			 "R2extent": 2945.5954, 
			 "electric_dipole_moment_norm": 3.04678873898, 
			 "electric_quadrupole_moment_norm": 12.7941935799, 
			 "total_energy": -686.378866482, 
			 "HOMO_LUMO_gap": 0.19136, 
			 "cosmo_polarized_energy": -15.41, 
			 "cosmo_cavitation_energy": 29.32, 
			 "cosmo_dispersion_energy": -21.24, 
			 "cosmo_repulsion_energy": 1.65, 
			 "cosmo_total_nonelectrostatic_energy": 9.73, 
			 "SMD_solvation_energy": 5.73 
		},
		"coords": [
			{
				"x": 1.1906845674,
				"y": -0.5022299469,
				"z": 2.7826505429,
				"element": "C" 
			},
			{
				"x": -0.298480438,
				"y": -0.1106073097,
				"z": 2.7868596414,
				"element": "C" 
			},
			{
				"x": -1.1896429745,
				"y": -1.0850388747,
				"z": 2.1643698045,
				"element": "N" 
			},
			{
				"x": -1.2222037159,
				"y": -1.4943529292,
				"z": 0.8604001546,
				"element": "C" 
			},
			{
				"x": -1.9140248021,
				"y": -2.4484724728,
				"z": 0.5148324316,
				"element": "O" 
			},
			{
				"x": -0.3563702564,
				"y": -0.7635751548,
				"z": -0.1233586171,
				"element": "C" 
			},
			{
				"x": -0.036172044,
				"y": 0.6129184175,
				"z": -0.0868666341,
				"element": "C" 
			},
			{
				"x": 0.769097344,
				"y": 1.1409526861,
				"z": -1.113098802,
				"element": "C" 
			},
			{
				"x": 1.2388442786,
				"y": 0.341802873,
				"z": -2.1498610777,
				"element": "C" 
			},
			{
				"x": 0.9088200717,
				"y": -1.0136982479,
				"z": -2.1957203617,
				"element": "C" 
			},
			{
				"x": 0.1135960473,
				"y": -1.5464214843,
				"z": -1.1895227965,
				"element": "C" 
			},
			{
				"x": -0.5369795374,
				"y": 1.5192658203,
				"z": 0.8908522835,
				"element": "N" 
			},
			{
				"x": -0.8609573954,
				"y": 2.8888674092,
				"z": 0.4672463828,
				"element": "C" 
			},
			{
				"x": -0.5675531153,
				"y": 1.3030773642,
				"z": 2.2584229918,
				"element": "C" 
			},
			{
				"x": -0.8250393176,
				"y": 2.2102760095,
				"z": 3.038442065,
				"element": "O" 
			},
			{
				"x": 1.3161229414,
				"y": -1.4649814814,
				"z": 3.28642989,
				"element": "H" 
			},
			{
				"x": 1.5972213576,
				"y": -0.588871056,
				"z": 1.7736457788,
				"element": "H" 
			},
			{
				"x": 1.7695144235,
				"y": 0.2500914691,
				"z": 3.32722948,
				"element": "H" 
			},
			{
				"x": -0.619573465,
				"y": -0.0385091417,
				"z": 3.8273259652,
				"element": "H" 
			},
			{
				"x": -1.7974727417,
				"y": -1.6251583504,
				"z": 2.7657032939,
				"element": "H" 
			},
			{
				"x": 1.0341327716,
				"y": 2.1916185213,
				"z": -1.0918356945,
				"element": "H" 
			},
			{
				"x": 1.8633725595,
				"y": 0.7832088669,
				"z": -2.9210937546,
				"element": "H" 
			},
			{
				"x": 1.262474954,
				"y": -1.6430041149,
				"z": -3.0061782811,
				"element": "H" 
			},
			{
				"x": -0.1857473787,
				"y": -2.5886604405,
				"z": -1.2034547564,
				"element": "H" 
			},
			{
				"x": -1.2404518828,
				"y": 2.8644496271,
				"z": -0.5548802335,
				"element": "H" 
			},
			{
				"x": -1.6201924423,
				"y": 3.2814348455,
				"z": 1.1421418828,
				"element": "H" 
			},
			{
				"x": 0.0083801908,
				"y": 3.5543170953,
				"z": 0.5196184205,
				"element": "H" 
			}
		],
		 "valence_orbital": [ 
			{
				"type": "occ",
				"energy": -0.28187,
				"method": "rhf"
			},
			{
				"type": "occ",
				"energy": -0.26756,
				"method": "rhf"
			},
			{
				"type": "occ",
				"energy": -0.25251,
				"method": "rhf"
			},
			{
				"type": "occ",
				"energy": -0.24444,
				"method": "rhf"
			},
			{
				"type": "occ",
				"energy": -0.23125,
				"method": "rhf"
			},
			{
				"type": "unocc",
				"energy": -0.03989,
				"method": "rhf"
			},
			{
				"type": "unocc",
				"energy": -0.02082,
				"method": "rhf"
			},
			{
				"type": "unocc",
				"energy": 0.01523,
				"method": "rhf"
			},
			{
				"type": "unocc",
				"energy": 0.05036,
				"method": "rhf"
			},
			{
				"type": "unocc",
				"energy": 0.07489,
				"method": "rhf"
			}
		],
		"cosmo_sigma_profile": { 
			"-0.025": 0.0,
			"-0.024": 0.0,
			"-0.023": 0.0,
			"-0.022": 0.0,
			"-0.021": 0.0,
			"-0.02": 0.0,
			"-0.019": 0.0,
			"-0.018": 0.0,
			"-0.017": 0.0,
			"-0.016": 0.0,
			"-0.015": 0.064255036983,
			"-0.014": 1.4235719633,
			"-0.013": 1.13768745527,
			"-0.012": 1.27119115484,
			"-0.011": 1.35700123851,
			"-0.01": 0.987284622295,
			"-0.009": 1.15719018851,
			"-0.008": 1.90265205705,
			"-0.007": 5.39781063785,
			"-0.006": 11.5587738907,
			"-0.005": 18.117292111,
			"-0.004": 23.1524793269,
			"-0.003": 20.2129755506,
			"-0.002": 22.6027174494,
			"-0.001": 22.5131875125,
			"0.0": 17.5463479363,
			"0.001": 10.5248638852,
			"0.002": 10.7919868868,
			"0.003": 10.375949289,
			"0.004": 10.1474181882,
			"0.005": 3.69877117516,
			"0.006": 3.25085376384,
			"0.007": 2.30397637941,
			"0.008": 3.06747835087,
			"0.009": 2.3883357772,
			"0.01": 2.88521705453,
			"0.011": 3.38193189853,
			"0.012": 5.61225720033,
			"0.013": 8.11018181827,
			"0.014": 5.10392421015,
			"0.015": 0.349787465599,
			"0.016": 0.0,
			"0.017": 0.0,
			"0.018": 0.0,
			"0.019": 0.0,
			"0.02": 0.0,
			"0.021": 0.0,
			"0.022": 0.0,
			"0.023": 0.0,
			"0.024": 0.0,
			"0.025": 0.0
		}
	}
}
