{
	 "smiles": "NC1=CC=NN1CC1=CC=C(Br)C=C1", 
	 "Tm": 371.15, 
	 "num_atms": 24, 
	 "gaussian": { 
		 "optdone": 1, 
		 "sigma_profile": "yes", 
		 "theory": "DFT", 
		 "functional": "B3LYP", 
		 "basiset": "6-31G**", 
		 "properties": { 
			 "R2extent": 5911.5376, 
			 "electric_dipole_moment_norm": 2.6076260564, 
			 "electric_quadrupole_moment_norm": 12.0517037277, 
			 "total_energy": -3122.72747357, 
			 "HOMO_LUMO_gap": 0.18512, 
			 "cosmo_polarized_energy": -12.63, 
			 "cosmo_cavitation_energy": 30.5, 
			 "cosmo_dispersion_energy": -22.17, 
			 "cosmo_repulsion_energy": 1.75, 
			 "cosmo_total_nonelectrostatic_energy": 10.09, 
			 "SMD_solvation_energy": 3.29 
		},
		"coords": [
			{
				"x": -0.7245014715,
				"y": 2.2467839674,
				"z": -1.5184193949,
				"element": "N" 
			},
			{
				"x": -0.3992016064,
				"y": 2.3040577256,
				"z": -0.1590330612,
				"element": "C" 
			},
			{
				"x": -0.990434428,
				"y": 2.938435054,
				"z": 0.9240256205,
				"element": "C" 
			},
			{
				"x": -0.1287556705,
				"y": 2.6556101725,
				"z": 2.0068246274,
				"element": "C" 
			},
			{
				"x": 0.9107001556,
				"y": 1.9068018098,
				"z": 1.6492062186,
				"element": "N" 
			},
			{
				"x": 0.741353815,
				"y": 1.7187061715,
				"z": 0.3069351164,
				"element": "N" 
			},
			{
				"x": 1.6858626741,
				"y": 0.9168804199,
				"z": -0.4483128703,
				"element": "C" 
			},
			{
				"x": 1.2023524084,
				"y": -0.499336787,
				"z": -0.7163282696,
				"element": "C" 
			},
			{
				"x": 1.297110774,
				"y": -1.0588227829,
				"z": -1.994572295,
				"element": "C" 
			},
			{
				"x": 0.8760618602,
				"y": -2.3682433233,
				"z": -2.2405501843,
				"element": "C" 
			},
			{
				"x": 0.3506372811,
				"y": -3.1161575314,
				"z": -1.1905185932,
				"element": "C" 
			},
			{
				"x": -0.2365451818,
				"y": -4.9068317914,
				"z": -1.5132398367,
				"element": "Br" 
			},
			{
				"x": 0.241268865,
				"y": -2.5792899134,
				"z": 0.093371432,
				"element": "C" 
			},
			{
				"x": 0.6682404372,
				"y": -1.2733421071,
				"z": 0.3234763725,
				"element": "C" 
			},
			{
				"x": -1.5903363422,
				"y": 2.7319706378,
				"z": -1.717193765,
				"element": "H" 
			},
			{
				"x": -0.7761111591,
				"y": 1.2976342886,
				"z": -1.87670976,
				"element": "H" 
			},
			{
				"x": -1.9076588931,
				"y": 3.5085909532,
				"z": 0.9252940462,
				"element": "H" 
			},
			{
				"x": -0.230403912,
				"y": 2.9662404583,
				"z": 3.0386623379,
				"element": "H" 
			},
			{
				"x": 2.6040182504,
				"y": 0.9071122318,
				"z": 0.1454642825,
				"element": "H" 
			},
			{
				"x": 1.8975419696,
				"y": 1.4274455106,
				"z": -1.3936893931,
				"element": "H" 
			},
			{
				"x": 1.708325757,
				"y": -0.4717834339,
				"z": -2.8124639084,
				"element": "H" 
			},
			{
				"x": 0.9518049622,
				"y": -2.7967219626,
				"z": -3.2334629626,
				"element": "H" 
			},
			{
				"x": -0.1708983482,
				"y": -3.1756310945,
				"z": 0.8994862509,
				"element": "H" 
			},
			{
				"x": 0.5859678029,
				"y": -0.8422086739,
				"z": 1.3172479892,
				"element": "H" 
			}
		],
		 "valence_orbital": [ 
			{
				"type": "occ",
				"energy": -0.27842,
				"method": "rhf"
			},
			{
				"type": "occ",
				"energy": -0.26946,
				"method": "rhf"
			},
			{
				"type": "occ",
				"energy": -0.24869,
				"method": "rhf"
			},
			{
				"type": "occ",
				"energy": -0.23797,
				"method": "rhf"
			},
			{
				"type": "occ",
				"energy": -0.20887,
				"method": "rhf"
			},
			{
				"type": "unocc",
				"energy": -0.02375,
				"method": "rhf"
			},
			{
				"type": "unocc",
				"energy": -0.02021,
				"method": "rhf"
			},
			{
				"type": "unocc",
				"energy": 0.004,
				"method": "rhf"
			},
			{
				"type": "unocc",
				"energy": 0.03346,
				"method": "rhf"
			},
			{
				"type": "unocc",
				"energy": 0.07304,
				"method": "rhf"
			}
		],
		"cosmo_sigma_profile": { 
			"-0.025": 0.0,
			"-0.024": 0.0,
			"-0.023": 0.0,
			"-0.022": 0.0,
			"-0.021": 0.0,
			"-0.02": 0.0,
			"-0.019": 0.0,
			"-0.018": 0.0,
			"-0.017": 0.0,
			"-0.016": 0.0,
			"-0.015": 0.0,
			"-0.014": 0.0183015784035,
			"-0.013": 0.961857529551,
			"-0.012": 1.58468109451,
			"-0.011": 1.99861023127,
			"-0.01": 2.97005239912,
			"-0.009": 2.58039603696,
			"-0.008": 2.1410534834,
			"-0.007": 9.87947596518,
			"-0.006": 16.1541092366,
			"-0.005": 16.9238244945,
			"-0.004": 14.9122869161,
			"-0.003": 15.2091780745,
			"-0.002": 11.8722905788,
			"-0.001": 14.8781472149,
			"0.0": 14.3889885493,
			"0.001": 15.4865261923,
			"0.002": 22.0439177505,
			"0.003": 23.5075272626,
			"0.004": 19.1060703793,
			"0.005": 13.6147618968,
			"0.006": 7.5046775489,
			"0.007": 5.14933868849,
			"0.008": 2.06160046489,
			"0.009": 1.72330010962,
			"0.01": 2.18215711911,
			"0.011": 1.92848247746,
			"0.012": 1.5353179701,
			"0.013": 1.64649376853,
			"0.014": 0.931814806844,
			"0.015": 0.935246821284,
			"0.016": 0.992349003338,
			"0.017": 0.126597902884,
			"0.018": 0.0,
			"0.019": 0.0,
			"0.02": 0.0,
			"0.021": 0.0,
			"0.022": 0.0,
			"0.023": 0.0,
			"0.024": 0.0,
			"0.025": 0.0
		}
	}
}
