{
	 "smiles": "SC1=NC2=C(N1)N=CC(Br)=C2", 
	 "Tm": 598.15, 
	 "num_atms": 15, 
	 "gaussian": { 
		 "optdone": 1, 
		 "sigma_profile": "yes", 
		 "theory": "DFT", 
		 "functional": "B3LYP", 
		 "basiset": "6-31G**", 
		 "properties": { 
			 "R2extent": 4539.8338, 
			 "electric_dipole_moment_norm": 3.59597459529, 
			 "electric_quadrupole_moment_norm": 17.5958777408, 
			 "total_energy": -3364.89263593, 
			 "HOMO_LUMO_gap": 0.1846, 
			 "cosmo_polarized_energy": -15.08, 
			 "cosmo_cavitation_energy": 24.1, 
			 "cosmo_dispersion_energy": -19.26, 
			 "cosmo_repulsion_energy": 1.49, 
			 "cosmo_total_nonelectrostatic_energy": 6.33, 
			 "SMD_solvation_energy": -1.45 
		},
		"coords": [
			{
				"x": 2.4644332163,
				"y": -2.3535371698,
				"z": -3.465046149,
				"element": "S" 
			},
			{
				"x": 1.2511343813,
				"y": -1.3855461594,
				"z": -2.624274444,
				"element": "C" 
			},
			{
				"x": 1.5416952923,
				"y": -0.2172456191,
				"z": -2.1071374988,
				"element": "N" 
			},
			{
				"x": 0.3530287936,
				"y": 0.2183253268,
				"z": -1.5469753488,
				"element": "C" 
			},
			{
				"x": -0.672368971,
				"y": -0.7365927707,
				"z": -1.7464858224,
				"element": "C" 
			},
			{
				"x": -0.0641078858,
				"y": -1.7660261225,
				"z": -2.4470059329,
				"element": "N" 
			},
			{
				"x": -1.9340228659,
				"y": -0.6621054441,
				"z": -1.3509140455,
				"element": "N" 
			},
			{
				"x": -2.237194443,
				"y": 0.4627486268,
				"z": -0.6878398172,
				"element": "C" 
			},
			{
				"x": -1.3016774075,
				"y": 1.4804940145,
				"z": -0.4305631824,
				"element": "C" 
			},
			{
				"x": -1.8819505735,
				"y": 3.0277611982,
				"z": 0.5278832723,
				"element": "Br" 
			},
			{
				"x": 0.0224591061,
				"y": 1.3842550681,
				"z": -0.8550191313,
				"element": "C" 
			},
			{
				"x": 1.6501815224,
				"y": -3.3863180579,
				"z": -3.7609534427,
				"element": "H" 
			},
			{
				"x": -0.5160244463,
				"y": -2.6136310081,
				"z": -2.7541462902,
				"element": "H" 
			},
			{
				"x": -3.2610163682,
				"y": 0.5694739321,
				"z": -0.3430876975,
				"element": "H" 
			},
			{
				"x": 0.7492306492,
				"y": 2.1639441851,
				"z": -0.6607344696,
				"element": "H" 
			}
		],
		 "valence_orbital": [ 
			{
				"type": "occ",
				"energy": -0.30123,
				"method": "rhf"
			},
			{
				"type": "occ",
				"energy": -0.29197,
				"method": "rhf"
			},
			{
				"type": "occ",
				"energy": -0.26978,
				"method": "rhf"
			},
			{
				"type": "occ",
				"energy": -0.25339,
				"method": "rhf"
			},
			{
				"type": "occ",
				"energy": -0.23177,
				"method": "rhf"
			},
			{
				"type": "unocc",
				"energy": -0.04717,
				"method": "rhf"
			},
			{
				"type": "unocc",
				"energy": -0.0098,
				"method": "rhf"
			},
			{
				"type": "unocc",
				"energy": -0.00499,
				"method": "rhf"
			},
			{
				"type": "unocc",
				"energy": 0.00337,
				"method": "rhf"
			},
			{
				"type": "unocc",
				"energy": 0.02867,
				"method": "rhf"
			}
		],
		"cosmo_sigma_profile": { 
			"-0.025": 0.0,
			"-0.024": 0.0,
			"-0.023": 0.0,
			"-0.022": 0.0,
			"-0.021": 0.0,
			"-0.02": 0.0,
			"-0.019": 0.179687848055,
			"-0.018": 1.62468172203,
			"-0.017": 2.1721500067,
			"-0.016": 1.90669244288,
			"-0.015": 1.3511859433,
			"-0.014": 1.12129903321,
			"-0.013": 2.38504419143,
			"-0.012": 2.90592462084,
			"-0.011": 2.26762379008,
			"-0.01": 1.08990690811,
			"-0.009": 1.96078171408,
			"-0.008": 3.98158323479,
			"-0.007": 4.25497131223,
			"-0.006": 4.50084849707,
			"-0.005": 5.33401389385,
			"-0.004": 5.95417490892,
			"-0.003": 7.21816064024,
			"-0.002": 10.9062606561,
			"-0.001": 15.9075459324,
			"0.0": 16.344262954,
			"0.001": 23.3053985805,
			"0.002": 16.4814225392,
			"0.003": 15.4492465313,
			"0.004": 19.3259658412,
			"0.005": 9.47237686061,
			"0.006": 5.39090327546,
			"0.007": 2.65152919439,
			"0.008": 2.10857871365,
			"0.009": 1.67752711937,
			"0.01": 2.82128392482,
			"0.011": 1.96329873011,
			"0.012": 1.52944902023,
			"0.013": 1.86865526441,
			"0.014": 1.68505214489,
			"0.015": 1.16553055237,
			"0.016": 0.258471683162,
			"0.017": 0.0,
			"0.018": 0.0,
			"0.019": 0.0,
			"0.02": 0.0,
			"0.021": 0.0,
			"0.022": 0.0,
			"0.023": 0.0,
			"0.024": 0.0,
			"0.025": 0.0
		}
	}
}
