{
	 "smiles": "[O-][N+](=O)C1=CC=C(CN2CCOCC2)C=C1", 
	 "Tm": 352.95, 
	 "num_atms": 30, 
	 "gaussian": { 
		 "optdone": 1, 
		 "sigma_profile": "yes", 
		 "theory": "DFT", 
		 "functional": "B3LYP", 
		 "basiset": "6-31G**", 
		 "properties": { 
			 "R2extent": 5776.7256, 
			 "electric_dipole_moment_norm": 4.75373514197, 
			 "electric_quadrupole_moment_norm": 26.4186601937, 
			 "total_energy": -762.650665986, 
			 "HOMO_LUMO_gap": 0.1387, 
			 "cosmo_polarized_energy": -11.92, 
			 "cosmo_cavitation_energy": 32.83, 
			 "cosmo_dispersion_energy": -23.85, 
			 "cosmo_repulsion_energy": 1.86, 
			 "cosmo_total_nonelectrostatic_energy": 10.84, 
			 "SMD_solvation_energy": 6.24 
		},
		"coords": [
			{
				"x": 1.0488100795,
				"y": -4.6207184942,
				"z": 3.5519614479,
				"element": "O" 
			},
			{
				"x": 1.5938098123,
				"y": -3.5191274743,
				"z": 3.4791993573,
				"element": "N" 
			},
			{
				"x": 2.4200654889,
				"y": -3.0926703327,
				"z": 4.2859995182,
				"element": "O" 
			},
			{
				"x": 1.2332765278,
				"y": -2.6518699743,
				"z": 2.3481818307,
				"element": "C" 
			},
			{
				"x": 1.8342184718,
				"y": -1.398178169,
				"z": 2.2362824327,
				"element": "C" 
			},
			{
				"x": 1.4870958456,
				"y": -0.5839984942,
				"z": 1.1632924596,
				"element": "C" 
			},
			{
				"x": 0.5495452419,
				"y": -1.0106256962,
				"z": 0.210880512,
				"element": "C" 
			},
			{
				"x": 0.2188304865,
				"y": -0.1384722769,
				"z": -0.9893247195,
				"element": "C" 
			},
			{
				"x": 0.1771490921,
				"y": 1.2806156772,
				"z": -0.6655265832,
				"element": "N" 
			},
			{
				"x": -0.982132436,
				"y": 1.6278267265,
				"z": 0.1705421961,
				"element": "C" 
			},
			{
				"x": -1.2213570088,
				"y": 3.1319232389,
				"z": 0.1421385761,
				"element": "C" 
			},
			{
				"x": -1.5584030164,
				"y": 3.6064104869,
				"z": -1.1607507556,
				"element": "O" 
			},
			{
				"x": -0.9946458232,
				"y": 2.8425576156,
				"z": -2.2247899541,
				"element": "C" 
			},
			{
				"x": 0.3269908205,
				"y": 2.1916648663,
				"z": -1.8182160268,
				"element": "C" 
			},
			{
				"x": -0.0417807881,
				"y": -2.2723915125,
				"z": 0.357112331,
				"element": "C" 
			},
			{
				"x": 0.2968360041,
				"y": -3.1042028935,
				"z": 1.4213921138,
				"element": "C" 
			},
			{
				"x": 2.555223774,
				"y": -1.0861258834,
				"z": 2.9815867392,
				"element": "H" 
			},
			{
				"x": 1.9290426867,
				"y": 0.400891844,
				"z": 1.0530763287,
				"element": "H" 
			},
			{
				"x": 1.0041359381,
				"y": -0.2897434321,
				"z": -1.7412948644,
				"element": "H" 
			},
			{
				"x": -0.7237346655,
				"y": -0.5034440155,
				"z": -1.4430764672,
				"element": "H" 
			},
			{
				"x": -0.8058015555,
				"y": 1.2999536263,
				"z": 1.201786902,
				"element": "H" 
			},
			{
				"x": -1.9008695619,
				"y": 1.1171992101,
				"z": -0.1748679191,
				"element": "H" 
			},
			{
				"x": -2.0573622746,
				"y": 3.3915668662,
				"z": 0.7993399078,
				"element": "H" 
			},
			{
				"x": -0.3259800286,
				"y": 3.6511824129,
				"z": 0.5181530049,
				"element": "H" 
			},
			{
				"x": -0.8412966858,
				"y": 3.5302641471,
				"z": -3.0639377992,
				"element": "H" 
			},
			{
				"x": -1.7068684242,
				"y": 2.0695422688,
				"z": -2.5562202821,
				"element": "H" 
			},
			{
				"x": 0.7439808077,
				"y": 1.6429848157,
				"z": -2.6689877785,
				"element": "H" 
			},
			{
				"x": 1.0454625217,
				"y": 2.9837412532,
				"z": -1.5676720824,
				"element": "H" 
			},
			{
				"x": -0.7776359728,
				"y": -2.6079274388,
				"z": -0.3687514825,
				"element": "H" 
			},
			{
				"x": -0.1508053581,
				"y": -4.0817289681,
				"z": 1.5496910567,
				"element": "H" 
			}
		],
		 "valence_orbital": [ 
			{
				"type": "occ",
				"energy": -0.28746,
				"method": "rhf"
			},
			{
				"type": "occ",
				"energy": -0.27606,
				"method": "rhf"
			},
			{
				"type": "occ",
				"energy": -0.27265,
				"method": "rhf"
			},
			{
				"type": "occ",
				"energy": -0.25442,
				"method": "rhf"
			},
			{
				"type": "occ",
				"energy": -0.22489,
				"method": "rhf"
			},
			{
				"type": "unocc",
				"energy": -0.08619,
				"method": "rhf"
			},
			{
				"type": "unocc",
				"energy": -0.02621,
				"method": "rhf"
			},
			{
				"type": "unocc",
				"energy": 0.00058,
				"method": "rhf"
			},
			{
				"type": "unocc",
				"energy": 0.0707,
				"method": "rhf"
			},
			{
				"type": "unocc",
				"energy": 0.08569,
				"method": "rhf"
			}
		],
		"cosmo_sigma_profile": { 
			"-0.025": 0.0,
			"-0.024": 0.0,
			"-0.023": 0.0,
			"-0.022": 0.0,
			"-0.021": 0.0,
			"-0.02": 0.0,
			"-0.019": 0.0,
			"-0.018": 0.0,
			"-0.017": 0.0,
			"-0.016": 0.0,
			"-0.015": 0.0,
			"-0.014": 0.0,
			"-0.013": 0.0,
			"-0.012": 0.0,
			"-0.011": 0.0,
			"-0.01": 0.0,
			"-0.009": 0.0,
			"-0.008": 0.230137494402,
			"-0.007": 3.56962995652,
			"-0.006": 11.3633492447,
			"-0.005": 17.8299644681,
			"-0.004": 26.0067085797,
			"-0.003": 37.2053774843,
			"-0.002": 29.0524508067,
			"-0.001": 22.2341848814,
			"0.0": 17.9279853812,
			"0.001": 14.9666167437,
			"0.002": 17.2158824663,
			"0.003": 9.31247286953,
			"0.004": 4.99023529397,
			"0.005": 4.87644106193,
			"0.006": 5.63240885347,
			"0.007": 7.88888121889,
			"0.008": 11.1555719429,
			"0.009": 6.35223821903,
			"0.01": 4.79765472232,
			"0.011": 1.90661488222,
			"0.012": 0.8639153653,
			"0.013": 2.05137003652,
			"0.014": 1.23493342093,
			"0.015": 0.0,
			"0.016": 0.0,
			"0.017": 0.0,
			"0.018": 0.0,
			"0.019": 0.0,
			"0.02": 0.0,
			"0.021": 0.0,
			"0.022": 0.0,
			"0.023": 0.0,
			"0.024": 0.0,
			"0.025": 0.0
		}
	}
}
