{
	 "smiles": "CC1=NN2C=C(C=O)C=NC2=C1", 
	 "Tm": 423.15, 
	 "num_atms": 19, 
	 "gaussian": { 
		 "optdone": 1, 
		 "sigma_profile": "yes", 
		 "theory": "DFT", 
		 "functional": "B3LYP", 
		 "basiset": "6-31G**", 
		 "properties": { 
			 "R2extent": 2595.0967, 
			 "electric_dipole_moment_norm": 3.08789863176, 
			 "electric_quadrupole_moment_norm": 6.22362779494, 
			 "total_energy": -548.513645793, 
			 "HOMO_LUMO_gap": 0.16122, 
			 "cosmo_polarized_energy": -11.75, 
			 "cosmo_cavitation_energy": 24.17, 
			 "cosmo_dispersion_energy": -17.88, 
			 "cosmo_repulsion_energy": 1.4, 
			 "cosmo_total_nonelectrostatic_energy": 7.69, 
			 "SMD_solvation_energy": 3.09 
		},
		"coords": [
			{
				"x": -4.5751348981,
				"y": -0.2509900605,
				"z": -1.3919940822,
				"element": "C" 
			},
			{
				"x": -3.1831634044,
				"y": -0.5722219554,
				"z": -0.9408654306,
				"element": "C" 
			},
			{
				"x": -2.2645273227,
				"y": 0.405973572,
				"z": -0.867943925,
				"element": "N" 
			},
			{
				"x": -1.1466572592,
				"y": -0.2225068862,
				"z": -0.4357927067,
				"element": "N" 
			},
			{
				"x": 0.0499280256,
				"y": 0.3557796096,
				"z": -0.2093925043,
				"element": "C" 
			},
			{
				"x": 1.0831391181,
				"y": -0.4436219679,
				"z": 0.2312903402,
				"element": "C" 
			},
			{
				"x": 2.4105248377,
				"y": 0.1361198294,
				"z": 0.4940002354,
				"element": "C" 
			},
			{
				"x": 3.3704414946,
				"y": -0.5016756934,
				"z": 0.8833146835,
				"element": "O" 
			},
			{
				"x": 0.8250003985,
				"y": -1.8405578136,
				"z": 0.422630866,
				"element": "C" 
			},
			{
				"x": -0.3390983553,
				"y": -2.4077646392,
				"z": 0.2033410206,
				"element": "N" 
			},
			{
				"x": -1.343696333,
				"y": -1.6094733595,
				"z": -0.2290997801,
				"element": "C" 
			},
			{
				"x": -2.6712720877,
				"y": -1.8319574944,
				"z": -0.5593691593,
				"element": "C" 
			},
			{
				"x": -5.1989523973,
				"y": -1.1472404465,
				"z": -1.3973790925,
				"element": "H" 
			},
			{
				"x": -5.0364042492,
				"y": 0.4893795853,
				"z": -0.730657625,
				"element": "H" 
			},
			{
				"x": -4.567964066,
				"y": 0.1733428667,
				"z": -2.4010423896,
				"element": "H" 
			},
			{
				"x": 0.1185515284,
				"y": 1.4232581696,
				"z": -0.3916977707,
				"element": "H" 
			},
			{
				"x": 2.484202931,
				"y": 1.231043839,
				"z": 0.3078477306,
				"element": "H" 
			},
			{
				"x": 1.6401352735,
				"y": -2.4704327196,
				"z": 0.770157881,
				"element": "H" 
			},
			{
				"x": -3.1899532344,
				"y": -2.7771544354,
				"z": -0.5263482912,
				"element": "H" 
			}
		],
		 "valence_orbital": [ 
			{
				"type": "occ",
				"energy": -0.32343,
				"method": "rhf"
			},
			{
				"type": "occ",
				"energy": -0.28325,
				"method": "rhf"
			},
			{
				"type": "occ",
				"energy": -0.26463,
				"method": "rhf"
			},
			{
				"type": "occ",
				"energy": -0.26305,
				"method": "rhf"
			},
			{
				"type": "occ",
				"energy": -0.23811,
				"method": "rhf"
			},
			{
				"type": "unocc",
				"energy": -0.07689,
				"method": "rhf"
			},
			{
				"type": "unocc",
				"energy": -0.05607,
				"method": "rhf"
			},
			{
				"type": "unocc",
				"energy": 0.01491,
				"method": "rhf"
			},
			{
				"type": "unocc",
				"energy": 0.05812,
				"method": "rhf"
			},
			{
				"type": "unocc",
				"energy": 0.08981,
				"method": "rhf"
			}
		],
		"cosmo_sigma_profile": { 
			"-0.025": 0.0,
			"-0.024": 0.0,
			"-0.023": 0.0,
			"-0.022": 0.0,
			"-0.021": 0.0,
			"-0.02": 0.0,
			"-0.019": 0.0,
			"-0.018": 0.0,
			"-0.017": 0.0,
			"-0.016": 0.0,
			"-0.015": 0.0,
			"-0.014": 0.0,
			"-0.013": 0.0,
			"-0.012": 0.715398879164,
			"-0.011": 3.26798879712,
			"-0.01": 2.19030356119,
			"-0.009": 2.18006904637,
			"-0.008": 3.47270505769,
			"-0.007": 6.53768423998,
			"-0.006": 7.07975410405,
			"-0.005": 15.2325168698,
			"-0.004": 15.4669084778,
			"-0.003": 16.9919035353,
			"-0.002": 18.2462345878,
			"-0.001": 17.8630932608,
			"0.0": 11.315361042,
			"0.001": 9.98497354184,
			"0.002": 9.58929995854,
			"0.003": 8.67579162087,
			"0.004": 6.09662683751,
			"0.005": 4.35195025932,
			"0.006": 5.0886034832,
			"0.007": 3.45621686131,
			"0.008": 3.33206316402,
			"0.009": 3.95353417371,
			"0.01": 5.0073549849,
			"0.011": 5.64997254794,
			"0.012": 4.58781511241,
			"0.013": 2.252510867,
			"0.014": 1.49391898876,
			"0.015": 0.509765174622,
			"0.016": 0.0,
			"0.017": 0.0,
			"0.018": 0.0,
			"0.019": 0.0,
			"0.02": 0.0,
			"0.021": 0.0,
			"0.022": 0.0,
			"0.023": 0.0,
			"0.024": 0.0,
			"0.025": 0.0
		}
	}
}
