{
	 "smiles": "NC1=NC(=CS1)C1=CC=CO1", 
	 "Tm": 383.15, 
	 "num_atms": 17, 
	 "gaussian": { 
		 "optdone": 1, 
		 "sigma_profile": "yes", 
		 "theory": "DFT", 
		 "functional": "B3LYP", 
		 "basiset": "6-31G**", 
		 "properties": { 
			 "R2extent": 3772.7462, 
			 "electric_dipole_moment_norm": 1.66019578062, 
			 "electric_quadrupole_moment_norm": 13.4960210266, 
			 "total_energy": -853.245727628, 
			 "HOMO_LUMO_gap": 0.16955, 
			 "cosmo_polarized_energy": -11.19, 
			 "cosmo_cavitation_energy": 23.63, 
			 "cosmo_dispersion_energy": -18.29, 
			 "cosmo_repulsion_energy": 1.42, 
			 "cosmo_total_nonelectrostatic_energy": 6.76, 
			 "SMD_solvation_energy": 3.46 
		},
		"coords": [
			{
				"x": -2.8067954398,
				"y": 2.020224264,
				"z": -2.0932839552,
				"element": "N" 
			},
			{
				"x": -2.8220556708,
				"y": 0.8181541015,
				"z": -1.4218802762,
				"element": "C" 
			},
			{
				"x": -1.985916732,
				"y": 0.5011930142,
				"z": -0.479591899,
				"element": "N" 
			},
			{
				"x": -2.1994459431,
				"y": -0.8015061913,
				"z": -0.0506691919,
				"element": "C" 
			},
			{
				"x": -3.2160758831,
				"y": -1.4780401569,
				"z": -0.6673636491,
				"element": "C" 
			},
			{
				"x": -3.9590310953,
				"y": -0.4634893317,
				"z": -1.8772802866,
				"element": "S" 
			},
			{
				"x": -1.351045999,
				"y": -1.3218613832,
				"z": 1.0026640334,
				"element": "C" 
			},
			{
				"x": -0.3102194906,
				"y": -0.7750884865,
				"z": 1.7045342459,
				"element": "C" 
			},
			{
				"x": 0.1329081635,
				"y": -1.7818850715,
				"z": 2.6193771653,
				"element": "C" 
			},
			{
				"x": -0.666824542,
				"y": -2.8646562574,
				"z": 2.4105744063,
				"element": "C" 
			},
			{
				"x": -1.5773416295,
				"y": -2.6037426607,
				"z": 1.4290807843,
				"element": "O" 
			},
			{
				"x": -2.2505783605,
				"y": 2.7236840403,
				"z": -1.6247138576,
				"element": "H" 
			},
			{
				"x": -3.6936383246,
				"y": 2.3625635571,
				"z": -2.4345392545,
				"element": "H" 
			},
			{
				"x": -3.5638830858,
				"y": -2.4826048946,
				"z": -0.4828558921,
				"element": "H" 
			},
			{
				"x": 0.0794717033,
				"y": 0.2224922434,
				"z": 1.5717282346,
				"element": "H" 
			},
			{
				"x": 0.9387903181,
				"y": -1.7076305027,
				"z": 3.3353479974,
				"element": "H" 
			},
			{
				"x": -0.7198179889,
				"y": -3.848506284,
				"z": 2.8500713949,
				"element": "H" 
			}
		],
		 "valence_orbital": [ 
			{
				"type": "occ",
				"energy": -0.28422,
				"method": "rhf"
			},
			{
				"type": "occ",
				"energy": -0.27546,
				"method": "rhf"
			},
			{
				"type": "occ",
				"energy": -0.27065,
				"method": "rhf"
			},
			{
				"type": "occ",
				"energy": -0.2369,
				"method": "rhf"
			},
			{
				"type": "occ",
				"energy": -0.19123,
				"method": "rhf"
			},
			{
				"type": "unocc",
				"energy": -0.02168,
				"method": "rhf"
			},
			{
				"type": "unocc",
				"energy": 0.01074,
				"method": "rhf"
			},
			{
				"type": "unocc",
				"energy": 0.02244,
				"method": "rhf"
			},
			{
				"type": "unocc",
				"energy": 0.06228,
				"method": "rhf"
			},
			{
				"type": "unocc",
				"energy": 0.07105,
				"method": "rhf"
			}
		],
		"cosmo_sigma_profile": { 
			"-0.025": 0.0,
			"-0.024": 0.0,
			"-0.023": 0.0,
			"-0.022": 0.0,
			"-0.021": 0.0,
			"-0.02": 0.0,
			"-0.019": 0.0,
			"-0.018": 0.0,
			"-0.017": 0.0,
			"-0.016": 0.0,
			"-0.015": 0.464383040444,
			"-0.014": 2.04949599607,
			"-0.013": 2.36994734312,
			"-0.012": 2.8603036811,
			"-0.011": 2.52646243371,
			"-0.01": 3.12055177471,
			"-0.009": 3.10958475138,
			"-0.008": 4.87603265471,
			"-0.007": 7.16489642057,
			"-0.006": 6.99350014245,
			"-0.005": 7.37519773917,
			"-0.004": 8.06956585192,
			"-0.003": 7.26054513502,
			"-0.002": 8.9465961114,
			"-0.001": 8.43462085859,
			"0.0": 9.4598047578,
			"0.001": 11.7690365624,
			"0.002": 17.2354732503,
			"0.003": 23.5872793923,
			"0.004": 20.4777753885,
			"0.005": 13.9502140634,
			"0.006": 6.54770627618,
			"0.007": 3.79911142869,
			"0.008": 1.95910222805,
			"0.009": 2.44721511545,
			"0.01": 1.73732499456,
			"0.011": 1.71198560381,
			"0.012": 1.48047155243,
			"0.013": 0.540782767828,
			"0.014": 0.0,
			"0.015": 0.0,
			"0.016": 0.0,
			"0.017": 0.0,
			"0.018": 0.0,
			"0.019": 0.0,
			"0.02": 0.0,
			"0.021": 0.0,
			"0.022": 0.0,
			"0.023": 0.0,
			"0.024": 0.0,
			"0.025": 0.0
		}
	}
}
