{
	 "smiles": "CCOC(=O)C1=C(N)C=C(F)C(F)=C1", 
	 "Tm": 356.15, 
	 "num_atms": 23, 
	 "gaussian": { 
		 "optdone": 1, 
		 "sigma_profile": "yes", 
		 "theory": "DFT", 
		 "functional": "B3LYP", 
		 "basiset": "6-31G**", 
		 "properties": { 
			 "R2extent": 4656.3779, 
			 "electric_dipole_moment_norm": 2.31662169117, 
			 "electric_quadrupole_moment_norm": 14.7682524792, 
			 "total_energy": -753.271192996, 
			 "HOMO_LUMO_gap": 0.16367, 
			 "cosmo_polarized_energy": -8.23, 
			 "cosmo_cavitation_energy": 28.15, 
			 "cosmo_dispersion_energy": -20.52, 
			 "cosmo_repulsion_energy": 1.59, 
			 "cosmo_total_nonelectrostatic_energy": 9.21, 
			 "SMD_solvation_energy": 6.74 
		},
		"coords": [
			{
				"x": 0.438609036,
				"y": 3.0101725693,
				"z": -2.6677736015,
				"element": "C" 
			},
			{
				"x": 1.151227138,
				"y": 1.872288892,
				"z": -3.3834117068,
				"element": "C" 
			},
			{
				"x": 0.845572992,
				"y": 0.5940469268,
				"z": -2.778832398,
				"element": "O" 
			},
			{
				"x": 1.5983099717,
				"y": 0.2240289037,
				"z": -1.7182704183,
				"element": "C" 
			},
			{
				"x": 2.5082646659,
				"y": 0.9280767199,
				"z": -1.2866831124,
				"element": "O" 
			},
			{
				"x": 1.2037491184,
				"y": -1.0818615002,
				"z": -1.1625040914,
				"element": "C" 
			},
			{
				"x": 1.9102654949,
				"y": -1.6359863758,
				"z": -0.0526168553,
				"element": "C" 
			},
			{
				"x": 3.0020529989,
				"y": -1.0245415207,
				"z": 0.4909654759,
				"element": "N" 
			},
			{
				"x": 1.469911939,
				"y": -2.8756133553,
				"z": 0.4670109562,
				"element": "C" 
			},
			{
				"x": 0.392531612,
				"y": -3.5278592434,
				"z": -0.0938186789,
				"element": "C" 
			},
			{
				"x": -0.0141466115,
				"y": -4.7028650747,
				"z": 0.4092119353,
				"element": "F" 
			},
			{
				"x": -0.2949602554,
				"y": -2.9891074014,
				"z": -1.1892532019,
				"element": "C" 
			},
			{
				"x": -1.3421999565,
				"y": -3.6639769378,
				"z": -1.7051625085,
				"element": "F" 
			},
			{
				"x": 0.1090203983,
				"y": -1.7824040269,
				"z": -1.7108821508,
				"element": "C" 
			},
			{
				"x": 0.6232335958,
				"y": 3.9524761994,
				"z": -3.1944199151,
				"element": "H" 
			},
			{
				"x": 0.8076351108,
				"y": 3.1113898044,
				"z": -1.6443724841,
				"element": "H" 
			},
			{
				"x": -0.6413898065,
				"y": 2.8380751948,
				"z": -2.6404485172,
				"element": "H" 
			},
			{
				"x": 2.2337927143,
				"y": 2.0173143427,
				"z": -3.3752093178,
				"element": "H" 
			},
			{
				"x": 0.8062106906,
				"y": 1.7702771173,
				"z": -4.4151204337,
				"element": "H" 
			},
			{
				"x": 3.3490508465,
				"y": -1.3428058387,
				"z": 1.3802717533,
				"element": "H" 
			},
			{
				"x": 3.2108359459,
				"y": -0.0859131304,
				"z": 0.1736128684,
				"element": "H" 
			},
			{
				"x": 1.9781127323,
				"y": -3.3345935545,
				"z": 1.3086001043,
				"element": "H" 
			},
			{
				"x": -0.4274903716,
				"y": -1.3637187107,
				"z": -2.5526937016,
				"element": "H" 
			}
		],
		 "valence_orbital": [ 
			{
				"type": "occ",
				"energy": -0.3105,
				"method": "rhf"
			},
			{
				"type": "occ",
				"energy": -0.29947,
				"method": "rhf"
			},
			{
				"type": "occ",
				"energy": -0.27959,
				"method": "rhf"
			},
			{
				"type": "occ",
				"energy": -0.25963,
				"method": "rhf"
			},
			{
				"type": "occ",
				"energy": -0.2081,
				"method": "rhf"
			},
			{
				"type": "unocc",
				"energy": -0.04443,
				"method": "rhf"
			},
			{
				"type": "unocc",
				"energy": 0.00626,
				"method": "rhf"
			},
			{
				"type": "unocc",
				"energy": 0.06059,
				"method": "rhf"
			},
			{
				"type": "unocc",
				"energy": 0.07288,
				"method": "rhf"
			},
			{
				"type": "unocc",
				"energy": 0.09585,
				"method": "rhf"
			}
		],
		"cosmo_sigma_profile": { 
			"-0.025": 0.0,
			"-0.024": 0.0,
			"-0.023": 0.0,
			"-0.022": 0.0,
			"-0.021": 0.0,
			"-0.02": 0.0,
			"-0.019": 0.0,
			"-0.018": 0.0,
			"-0.017": 0.0,
			"-0.016": 0.0,
			"-0.015": 0.0,
			"-0.014": 0.632193818386,
			"-0.013": 1.57627259724,
			"-0.012": 1.10552276118,
			"-0.011": 2.09080240979,
			"-0.01": 1.47242854661,
			"-0.009": 2.17207221602,
			"-0.008": 3.19786899789,
			"-0.007": 3.96175569893,
			"-0.006": 4.24388540382,
			"-0.005": 7.85832352416,
			"-0.004": 12.9689803602,
			"-0.003": 14.6467153023,
			"-0.002": 16.1287241603,
			"-0.001": 18.7871111693,
			"0.0": 24.2462883174,
			"0.001": 24.3491639546,
			"0.002": 22.2842122058,
			"0.003": 21.3066940075,
			"0.004": 20.9441614985,
			"0.005": 7.34218060992,
			"0.006": 2.63754021172,
			"0.007": 2.21775727085,
			"0.008": 2.2727215531,
			"0.009": 2.07623795959,
			"0.01": 1.5123352122,
			"0.011": 1.69990160239,
			"0.012": 0.698749357207,
			"0.013": 0.0,
			"0.014": 0.0,
			"0.015": 0.0,
			"0.016": 0.0,
			"0.017": 0.0,
			"0.018": 0.0,
			"0.019": 0.0,
			"0.02": 0.0,
			"0.021": 0.0,
			"0.022": 0.0,
			"0.023": 0.0,
			"0.024": 0.0,
			"0.025": 0.0
		}
	}
}
