{
	 "smiles": "CC(=O)OC(C=CC1=CC=CC=C1)=NNC(N)=O", 
	 "Tm": 447.15, 
	 "num_atms": 31, 
	 "gaussian": { 
		 "optdone": 1, 
		 "sigma_profile": "yes", 
		 "theory": "DFT", 
		 "functional": "B3LYP", 
		 "basiset": "6-31G**", 
		 "properties": { 
			 "R2extent": 6113.8632, 
			 "electric_dipole_moment_norm": 2.10226866504, 
			 "electric_quadrupole_moment_norm": 27.5057167518, 
			 "total_energy": -855.016324386, 
			 "HOMO_LUMO_gap": 0.15393, 
			 "cosmo_polarized_energy": -23.65, 
			 "cosmo_cavitation_energy": 37.41, 
			 "cosmo_dispersion_energy": -25.76, 
			 "cosmo_repulsion_energy": 2.05, 
			 "cosmo_total_nonelectrostatic_energy": 13.7, 
			 "SMD_solvation_energy": 7.73 
		},
		"coords": [
			{
				"x": -2.8095176984,
				"y": 0.5980554562,
				"z": 4.0430934826,
				"element": "C" 
			},
			{
				"x": -2.653314948,
				"y": 0.4299650052,
				"z": 2.5527769518,
				"element": "C" 
			},
			{
				"x": -3.449302605,
				"y": 0.7487117545,
				"z": 1.7087936943,
				"element": "O" 
			},
			{
				"x": -1.4353696865,
				"y": -0.1541126025,
				"z": 2.2787249097,
				"element": "O" 
			},
			{
				"x": -1.1620979459,
				"y": -0.5126867595,
				"z": 0.9557758715,
				"element": "C" 
			},
			{
				"x": -0.2620228925,
				"y": 0.3711579302,
				"z": 0.2388217251,
				"element": "C" 
			},
			{
				"x": 0.3290685931,
				"y": 1.4453403978,
				"z": 0.8007910556,
				"element": "C" 
			},
			{
				"x": 1.2236003044,
				"y": 2.3954821994,
				"z": 0.1381429332,
				"element": "C" 
			},
			{
				"x": 1.5631397523,
				"y": 3.5859277832,
				"z": 0.8074874027,
				"element": "C" 
			},
			{
				"x": 2.3986070577,
				"y": 4.5314766366,
				"z": 0.2165503457,
				"element": "C" 
			},
			{
				"x": 2.9215901828,
				"y": 4.3017896644,
				"z": -1.0568756799,
				"element": "C" 
			},
			{
				"x": 2.6058560404,
				"y": 3.1172038957,
				"z": -1.7302677733,
				"element": "C" 
			},
			{
				"x": 1.76986114,
				"y": 2.1741243235,
				"z": -1.1414501405,
				"element": "C" 
			},
			{
				"x": -1.7610869745,
				"y": -1.5800991912,
				"z": 0.5757430942,
				"element": "N" 
			},
			{
				"x": -1.4973206617,
				"y": -2.0589696628,
				"z": -0.7108724086,
				"element": "N" 
			},
			{
				"x": -0.2179359708,
				"y": -2.53024499,
				"z": -1.0605197649,
				"element": "C" 
			},
			{
				"x": -0.2572860557,
				"y": -3.374945022,
				"z": -2.1605101409,
				"element": "N" 
			},
			{
				"x": 0.8074191717,
				"y": -2.2433112337,
				"z": -0.4699593587,
				"element": "O" 
			},
			{
				"x": -3.7216176435,
				"y": 1.1565965074,
				"z": 4.2504442794,
				"element": "H" 
			},
			{
				"x": -2.8619906716,
				"y": -0.3871441176,
				"z": 4.516650113,
				"element": "H" 
			},
			{
				"x": -1.9430986839,
				"y": 1.1157442767,
				"z": 4.4637394902,
				"element": "H" 
			},
			{
				"x": -0.1053361826,
				"y": 0.127134531,
				"z": -0.803533138,
				"element": "H" 
			},
			{
				"x": 0.1319638885,
				"y": 1.6437056345,
				"z": 1.851464298,
				"element": "H" 
			},
			{
				"x": 1.1575885754,
				"y": 3.7680386198,
				"z": 1.7994981911,
				"element": "H" 
			},
			{
				"x": 2.6429254053,
				"y": 5.4453359797,
				"z": 0.7503731224,
				"element": "H" 
			},
			{
				"x": 3.5764571308,
				"y": 5.0344237674,
				"z": -1.519455466,
				"element": "H" 
			},
			{
				"x": 3.0211063862,
				"y": 2.9263855871,
				"z": -2.7157588609,
				"element": "H" 
			},
			{
				"x": 1.5561242203,
				"y": 1.2482639842,
				"z": -1.6660431011,
				"element": "H" 
			},
			{
				"x": -2.2309153331,
				"y": -2.7157533277,
				"z": -0.9495848861,
				"element": "H" 
			},
			{
				"x": 0.6559786542,
				"y": -3.5492682715,
				"z": -2.5547294122,
				"element": "H" 
			},
			{
				"x": -0.9923725495,
				"y": -3.2412287559,
				"z": -2.8413108293,
				"element": "H" 
			}
		],
		 "valence_orbital": [ 
			{
				"type": "occ",
				"energy": -0.27505,
				"method": "rhf"
			},
			{
				"type": "occ",
				"energy": -0.26671,
				"method": "rhf"
			},
			{
				"type": "occ",
				"energy": -0.25521,
				"method": "rhf"
			},
			{
				"type": "occ",
				"energy": -0.24429,
				"method": "rhf"
			},
			{
				"type": "occ",
				"energy": -0.21582,
				"method": "rhf"
			},
			{
				"type": "unocc",
				"energy": -0.06189,
				"method": "rhf"
			},
			{
				"type": "unocc",
				"energy": -0.00454,
				"method": "rhf"
			},
			{
				"type": "unocc",
				"energy": 0.00805,
				"method": "rhf"
			},
			{
				"type": "unocc",
				"energy": 0.01945,
				"method": "rhf"
			},
			{
				"type": "unocc",
				"energy": 0.04225,
				"method": "rhf"
			}
		],
		"cosmo_sigma_profile": { 
			"-0.025": 0.0,
			"-0.024": 0.0,
			"-0.023": 0.0,
			"-0.022": 0.0,
			"-0.021": 0.0,
			"-0.02": 0.0,
			"-0.019": 0.0,
			"-0.018": 0.0,
			"-0.017": 0.0,
			"-0.016": 0.108494913015,
			"-0.015": 2.52102182447,
			"-0.014": 3.41319772056,
			"-0.013": 3.57250457061,
			"-0.012": 2.94736315385,
			"-0.011": 2.75502345776,
			"-0.01": 2.47525219793,
			"-0.009": 3.21173376193,
			"-0.008": 3.13161231305,
			"-0.007": 9.00404724216,
			"-0.006": 20.590689008,
			"-0.005": 19.7762658187,
			"-0.004": 22.93216419,
			"-0.003": 19.0369326012,
			"-0.002": 18.7157710379,
			"-0.001": 14.5242745501,
			"0.0": 12.2153906002,
			"0.001": 15.5023513027,
			"0.002": 16.9628426827,
			"0.003": 19.0700731197,
			"0.004": 17.599619282,
			"0.005": 14.9679691402,
			"0.006": 6.56016964007,
			"0.007": 7.08162253862,
			"0.008": 5.46924683495,
			"0.009": 5.74826230625,
			"0.01": 7.49355053564,
			"0.011": 8.59418021831,
			"0.012": 4.96873285075,
			"0.013": 5.18653282459,
			"0.014": 1.90764523995,
			"0.015": 0.0,
			"0.016": 0.0,
			"0.017": 0.0,
			"0.018": 0.0,
			"0.019": 0.0,
			"0.02": 0.0,
			"0.021": 0.0,
			"0.022": 0.0,
			"0.023": 0.0,
			"0.024": 0.0,
			"0.025": 0.0
		}
	}
}
