{
	 "smiles": "CC(=O)C1=CC(OC(F)(F)F)=CC=C1O", 
	 "Tm": 303.15, 
	 "num_atms": 22, 
	 "gaussian": { 
		 "optdone": 1, 
		 "sigma_profile": "yes", 
		 "theory": "DFT", 
		 "functional": "B3LYP", 
		 "basiset": "6-31G**", 
		 "properties": { 
			 "R2extent": 3876.6089, 
			 "electric_dipole_moment_norm": 5.49658339244, 
			 "electric_quadrupole_moment_norm": 15.0058451588, 
			 "total_energy": -872.365643658, 
			 "HOMO_LUMO_gap": 0.1753, 
			 "cosmo_polarized_energy": -12.49, 
			 "cosmo_cavitation_energy": 28.14, 
			 "cosmo_dispersion_energy": -20.14, 
			 "cosmo_repulsion_energy": 1.51, 
			 "cosmo_total_nonelectrostatic_energy": 9.51, 
			 "SMD_solvation_energy": 7.44 
		},
		"coords": [
			{
				"x": -2.4494792284,
				"y": -1.8887577054,
				"z": -3.0038963833,
				"element": "C" 
			},
			{
				"x": -1.713292663,
				"y": -0.8575531347,
				"z": -2.1757413933,
				"element": "C" 
			},
			{
				"x": -2.2126715992,
				"y": 0.2416895791,
				"z": -1.9818361685,
				"element": "O" 
			},
			{
				"x": -0.3611712058,
				"y": -1.162686993,
				"z": -1.5788244591,
				"element": "C" 
			},
			{
				"x": 0.2173931723,
				"y": -0.1204658872,
				"z": -0.8315696985,
				"element": "C" 
			},
			{
				"x": 1.4570525984,
				"y": -0.278564585,
				"z": -0.233993887,
				"element": "C" 
			},
			{
				"x": 2.1178878984,
				"y": 0.6894069862,
				"z": 0.5277929701,
				"element": "O" 
			},
			{
				"x": 1.5749031803,
				"y": 1.9161845187,
				"z": 0.7249842826,
				"element": "C" 
			},
			{
				"x": 1.3738219611,
				"y": 2.5828912682,
				"z": -0.4271166357,
				"element": "F" 
			},
			{
				"x": 0.3935140808,
				"y": 1.8604471039,
				"z": 1.3685246748,
				"element": "F" 
			},
			{
				"x": 2.4318199637,
				"y": 2.6107571383,
				"z": 1.4728601653,
				"element": "F" 
			},
			{
				"x": 2.1562087737,
				"y": -1.4802162569,
				"z": -0.3630382047,
				"element": "C" 
			},
			{
				"x": 1.5992111608,
				"y": -2.517968907,
				"z": -1.0958891475,
				"element": "C" 
			},
			{
				"x": 0.3456465359,
				"y": -2.3748693689,
				"z": -1.7078632314,
				"element": "C" 
			},
			{
				"x": -0.1949360556,
				"y": -3.4017065871,
				"z": -2.4274840738,
				"element": "O" 
			},
			{
				"x": -1.8553530475,
				"y": -2.1916252558,
				"z": -3.871075329,
				"element": "H" 
			},
			{
				"x": -2.6316609304,
				"y": -2.7988968042,
				"z": -2.4249669096,
				"element": "H" 
			},
			{
				"x": -3.3944821314,
				"y": -1.4506576288,
				"z": -3.3271723207,
				"element": "H" 
			},
			{
				"x": -0.3570436144,
				"y": 0.7933156472,
				"z": -0.7555013754,
				"element": "H" 
			},
			{
				"x": 3.1256457445,
				"y": -1.5862928966,
				"z": 0.1116336319,
				"element": "H" 
			},
			{
				"x": 2.1417205208,
				"y": -3.4553073937,
				"z": -1.197752208,
				"element": "H" 
			},
			{
				"x": 0.4162648849,
				"y": -4.1498228374,
				"z": -2.4167742991,
				"element": "H" 
			}
		],
		 "valence_orbital": [ 
			{
				"type": "occ",
				"energy": -0.35608,
				"method": "rhf"
			},
			{
				"type": "occ",
				"energy": -0.33076,
				"method": "rhf"
			},
			{
				"type": "occ",
				"energy": -0.27276,
				"method": "rhf"
			},
			{
				"type": "occ",
				"energy": -0.25071,
				"method": "rhf"
			},
			{
				"type": "occ",
				"energy": -0.23537,
				"method": "rhf"
			},
			{
				"type": "unocc",
				"energy": -0.06007,
				"method": "rhf"
			},
			{
				"type": "unocc",
				"energy": -0.00715,
				"method": "rhf"
			},
			{
				"type": "unocc",
				"energy": 0.03268,
				"method": "rhf"
			},
			{
				"type": "unocc",
				"energy": 0.04764,
				"method": "rhf"
			},
			{
				"type": "unocc",
				"energy": 0.08283,
				"method": "rhf"
			}
		],
		"cosmo_sigma_profile": { 
			"-0.025": 0.0,
			"-0.024": 0.0,
			"-0.023": 0.0,
			"-0.022": 0.0,
			"-0.021": 0.0,
			"-0.02": 0.0,
			"-0.019": 0.385982454239,
			"-0.018": 1.17241902392,
			"-0.017": 1.24109849499,
			"-0.016": 1.65135924169,
			"-0.015": 0.712136014289,
			"-0.014": 0.589058857565,
			"-0.013": 0.487299363274,
			"-0.012": 1.20091256993,
			"-0.011": 1.80271042515,
			"-0.01": 1.13214937075,
			"-0.009": 1.00190986354,
			"-0.008": 3.5110418201,
			"-0.007": 3.64403989958,
			"-0.006": 4.37544583892,
			"-0.005": 7.04010880409,
			"-0.004": 8.60578131464,
			"-0.003": 9.95798629613,
			"-0.002": 13.5384997339,
			"-0.001": 18.8509456108,
			"0.0": 24.9348087824,
			"0.001": 35.8048969504,
			"0.002": 43.7305516911,
			"0.003": 10.3164964858,
			"0.004": 5.23811271317,
			"0.005": 5.67995691045,
			"0.006": 4.09656706736,
			"0.007": 1.75243548371,
			"0.008": 1.50382933163,
			"0.009": 1.49399673319,
			"0.01": 1.69010081852,
			"0.011": 3.05184458713,
			"0.012": 3.46227929189,
			"0.013": 1.38733548821,
			"0.014": 0.170623731479,
			"0.015": 0.0,
			"0.016": 0.0,
			"0.017": 0.0,
			"0.018": 0.0,
			"0.019": 0.0,
			"0.02": 0.0,
			"0.021": 0.0,
			"0.022": 0.0,
			"0.023": 0.0,
			"0.024": 0.0,
			"0.025": 0.0
		}
	}
}
