{
	 "smiles": "CC(=O)C1=CC=C(Cl)C(=C1)C(F)(F)F", 
	 "Tm": 335.15, 
	 "num_atms": 20, 
	 "gaussian": { 
		 "optdone": 1, 
		 "sigma_profile": "yes", 
		 "theory": "DFT", 
		 "functional": "B3LYP", 
		 "basiset": "6-31G**", 
		 "properties": { 
			 "R2extent": 4577.8041, 
			 "electric_dipole_moment_norm": 4.3317967981, 
			 "electric_quadrupole_moment_norm": 4.82675933624, 
			 "total_energy": -1181.51679045, 
			 "HOMO_LUMO_gap": 0.18698, 
			 "cosmo_polarized_energy": -8.85, 
			 "cosmo_cavitation_energy": 27.64, 
			 "cosmo_dispersion_energy": -19.72, 
			 "cosmo_repulsion_energy": 1.48, 
			 "cosmo_total_nonelectrostatic_energy": 9.4, 
			 "SMD_solvation_energy": 6.32 
		},
		"coords": [
			{
				"x": 1.917646789,
				"y": 1.8959422389,
				"z": 0.2173581709,
				"element": "C" 
			},
			{
				"x": 0.7579703823,
				"y": 1.3592663162,
				"z": -0.6016167259,
				"element": "C" 
			},
			{
				"x": 0.4379928005,
				"y": 1.8833929728,
				"z": -1.6563507852,
				"element": "O" 
			},
			{
				"x": 0.0035507587,
				"y": 0.1643754752,
				"z": -0.0915917596,
				"element": "C" 
			},
			{
				"x": 0.3151879342,
				"y": -0.4860941693,
				"z": 1.1080764986,
				"element": "C" 
			},
			{
				"x": -0.4237674818,
				"y": -1.590107145,
				"z": 1.5261601068,
				"element": "C" 
			},
			{
				"x": -1.4831379216,
				"y": -2.0546130937,
				"z": 0.7469929081,
				"element": "C" 
			},
			{
				"x": -2.3715716058,
				"y": -3.4442861207,
				"z": 1.3267344877,
				"element": "Cl" 
			},
			{
				"x": -1.814964222,
				"y": -1.4170968678,
				"z": -0.4624896331,
				"element": "C" 
			},
			{
				"x": -1.0635711466,
				"y": -0.3151429433,
				"z": -0.8623020061,
				"element": "C" 
			},
			{
				"x": -2.9571870653,
				"y": -1.8912328981,
				"z": -1.3352954822,
				"element": "C" 
			},
			{
				"x": -3.0807088761,
				"y": -1.1247083557,
				"z": -2.4386123015,
				"element": "F" 
			},
			{
				"x": -2.7736957963,
				"y": -3.161166103,
				"z": -1.7503452519,
				"element": "F" 
			},
			{
				"x": -4.1363363377,
				"y": -1.8438731286,
				"z": -0.682579462,
				"element": "F" 
			},
			{
				"x": 1.5859286837,
				"y": 2.2014152834,
				"z": 1.2160036264,
				"element": "H" 
			},
			{
				"x": 2.6929502549,
				"y": 1.1328520708,
				"z": 0.3486876672,
				"element": "H" 
			},
			{
				"x": 2.3417785223,
				"y": 2.7560109227,
				"z": -0.3009637297,
				"element": "H" 
			},
			{
				"x": 1.1352287921,
				"y": -0.1406262577,
				"z": 1.7287211099,
				"element": "H" 
			},
			{
				"x": -0.1862121103,
				"y": -2.0971052057,
				"z": 2.4544154426,
				"element": "H" 
			},
			{
				"x": -1.296082354,
				"y": 0.1955970086,
				"z": -1.788802881,
				"element": "H" 
			}
		],
		 "valence_orbital": [ 
			{
				"type": "occ",
				"energy": -0.34671,
				"method": "rhf"
			},
			{
				"type": "occ",
				"energy": -0.32801,
				"method": "rhf"
			},
			{
				"type": "occ",
				"energy": -0.29137,
				"method": "rhf"
			},
			{
				"type": "occ",
				"energy": -0.2697,
				"method": "rhf"
			},
			{
				"type": "occ",
				"energy": -0.26423,
				"method": "rhf"
			},
			{
				"type": "unocc",
				"energy": -0.07725,
				"method": "rhf"
			},
			{
				"type": "unocc",
				"energy": -0.0432,
				"method": "rhf"
			},
			{
				"type": "unocc",
				"energy": 0.01095,
				"method": "rhf"
			},
			{
				"type": "unocc",
				"energy": 0.01373,
				"method": "rhf"
			},
			{
				"type": "unocc",
				"energy": 0.0849,
				"method": "rhf"
			}
		],
		"cosmo_sigma_profile": { 
			"-0.025": 0.0,
			"-0.024": 0.0,
			"-0.023": 0.0,
			"-0.022": 0.0,
			"-0.021": 0.0,
			"-0.02": 0.0,
			"-0.019": 0.0,
			"-0.018": 0.0,
			"-0.017": 0.0,
			"-0.016": 0.0,
			"-0.015": 0.0,
			"-0.014": 0.0,
			"-0.013": 0.0,
			"-0.012": 0.0,
			"-0.011": 0.0,
			"-0.01": 0.0,
			"-0.009": 0.513113475484,
			"-0.008": 4.92692309162,
			"-0.007": 9.17947717446,
			"-0.006": 9.34905154933,
			"-0.005": 8.31723472323,
			"-0.004": 11.5979249668,
			"-0.003": 14.9306180985,
			"-0.002": 15.3183595994,
			"-0.001": 24.8899414625,
			"0.0": 24.2997318329,
			"0.001": 18.6288549481,
			"0.002": 28.7064467571,
			"0.003": 27.726193739,
			"0.004": 8.29112106292,
			"0.005": 1.39586594653,
			"0.006": 2.22059477557,
			"0.007": 1.34046382801,
			"0.008": 1.30800215973,
			"0.009": 1.91343308625,
			"0.01": 2.37954108922,
			"0.011": 3.83484753324,
			"0.012": 2.24956973189,
			"0.013": 0.690386105308,
			"0.014": 0.0,
			"0.015": 0.0,
			"0.016": 0.0,
			"0.017": 0.0,
			"0.018": 0.0,
			"0.019": 0.0,
			"0.02": 0.0,
			"0.021": 0.0,
			"0.022": 0.0,
			"0.023": 0.0,
			"0.024": 0.0,
			"0.025": 0.0
		}
	}
}
