{
	 "smiles": "BrC1=CC=C(CC#N)S1", 
	 "Tm": 306.15, 
	 "num_atms": 13, 
	 "gaussian": { 
		 "optdone": 1, 
		 "sigma_profile": "yes", 
		 "theory": "DFT", 
		 "functional": "B3LYP", 
		 "basiset": "6-31G**", 
		 "properties": { 
			 "R2extent": 4495.6274, 
			 "electric_dipole_moment_norm": 3.96659624489, 
			 "electric_quadrupole_moment_norm": 7.96507403858, 
			 "total_energy": -3255.34738606, 
			 "HOMO_LUMO_gap": 0.20142, 
			 "cosmo_polarized_energy": -10.67, 
			 "cosmo_cavitation_energy": 22.6, 
			 "cosmo_dispersion_energy": -16.86, 
			 "cosmo_repulsion_energy": 1.35, 
			 "cosmo_total_nonelectrostatic_energy": 7.1, 
			 "SMD_solvation_energy": 3.9 
		},
		"coords": [
			{
				"x": 1.5363509553,
				"y": 1.5020290704,
				"z": 4.481078372,
				"element": "Br" 
			},
			{
				"x": 1.6432449889,
				"y": 0.768505153,
				"z": 2.7494128707,
				"element": "C" 
			},
			{
				"x": 2.5472080548,
				"y": -0.1509156748,
				"z": 2.299574437,
				"element": "C" 
			},
			{
				"x": 2.3287953369,
				"y": -0.4830118729,
				"z": 0.9275999128,
				"element": "C" 
			},
			{
				"x": 1.2758521958,
				"y": 0.1825363939,
				"z": 0.3611897943,
				"element": "C" 
			},
			{
				"x": 0.7898113524,
				"y": 0.0789180937,
				"z": -1.0635920858,
				"element": "C" 
			},
			{
				"x": -0.5440321654,
				"y": -0.5271915674,
				"z": -1.1956165864,
				"element": "C" 
			},
			{
				"x": -1.598704879,
				"y": -0.9993362412,
				"z": -1.2999992371,
				"element": "N" 
			},
			{
				"x": 0.5098616326,
				"y": 1.2472479674,
				"z": 1.5176486694,
				"element": "S" 
			},
			{
				"x": 3.3299955422,
				"y": -0.5715309942,
				"z": 2.9176868958,
				"element": "H" 
			},
			{
				"x": 2.9381144354,
				"y": -1.195683412,
				"z": 0.3819517035,
				"element": "H" 
			},
			{
				"x": 0.7651388305,
				"y": 1.0624698401,
				"z": -1.5498976968,
				"element": "H" 
			},
			{
				"x": 1.5020637196,
				"y": -0.5313367561,
				"z": -1.6300370495,
				"element": "H" 
			}
		],
		 "valence_orbital": [ 
			{
				"type": "occ",
				"energy": -0.33245,
				"method": "rhf"
			},
			{
				"type": "occ",
				"energy": -0.32372,
				"method": "rhf"
			},
			{
				"type": "occ",
				"energy": -0.30474,
				"method": "rhf"
			},
			{
				"type": "occ",
				"energy": -0.27408,
				"method": "rhf"
			},
			{
				"type": "occ",
				"energy": -0.24138,
				"method": "rhf"
			},
			{
				"type": "unocc",
				"energy": -0.03996,
				"method": "rhf"
			},
			{
				"type": "unocc",
				"energy": -0.01371,
				"method": "rhf"
			},
			{
				"type": "unocc",
				"energy": 0.0026,
				"method": "rhf"
			},
			{
				"type": "unocc",
				"energy": 0.02633,
				"method": "rhf"
			},
			{
				"type": "unocc",
				"energy": 0.03223,
				"method": "rhf"
			}
		],
		"cosmo_sigma_profile": { 
			"-0.025": 0.0,
			"-0.024": 0.0,
			"-0.023": 0.0,
			"-0.022": 0.0,
			"-0.021": 0.0,
			"-0.02": 0.0,
			"-0.019": 0.0,
			"-0.018": 0.0,
			"-0.017": 0.0,
			"-0.016": 0.0,
			"-0.015": 0.0,
			"-0.014": 0.0,
			"-0.013": 0.0,
			"-0.012": 0.0,
			"-0.011": 0.0,
			"-0.01": 3.41168111703,
			"-0.009": 7.50958538317,
			"-0.008": 7.62079187427,
			"-0.007": 9.27722682547,
			"-0.006": 8.12111475304,
			"-0.005": 7.7518383852,
			"-0.004": 6.58364461319,
			"-0.003": 7.75744105037,
			"-0.002": 7.59819390844,
			"-0.001": 10.6195526448,
			"0.0": 14.0325889392,
			"0.001": 18.5884408714,
			"0.002": 22.2799170594,
			"0.003": 23.3639886816,
			"0.004": 9.48647945441,
			"0.005": 2.39281811202,
			"0.006": 2.49913313656,
			"0.007": 2.86482156938,
			"0.008": 3.24355589281,
			"0.009": 3.4958308449,
			"0.01": 3.0577689462,
			"0.011": 2.87391820209,
			"0.012": 2.30896487305,
			"0.013": 1.54784956156,
			"0.014": 0.0374852484841,
			"0.015": 0.0,
			"0.016": 0.0,
			"0.017": 0.0,
			"0.018": 0.0,
			"0.019": 0.0,
			"0.02": 0.0,
			"0.021": 0.0,
			"0.022": 0.0,
			"0.023": 0.0,
			"0.024": 0.0,
			"0.025": 0.0
		}
	}
}
