{
	 "smiles": "FC(F)(F)C1=C(C=CC(Cl)=C1)S(Cl)(=O)=O", 
	 "Tm": 319.15, 
	 "num_atms": 18, 
	 "gaussian": { 
		 "optdone": 1, 
		 "sigma_profile": "yes", 
		 "theory": "DFT", 
		 "functional": "B3LYP", 
		 "basiset": "6-31G**", 
		 "properties": { 
			 "R2extent": 4326.1382, 
			 "electric_dipole_moment_norm": 4.49095090376, 
			 "electric_quadrupole_moment_norm": 7.15607371958, 
			 "total_energy": -2037.01555851, 
			 "HOMO_LUMO_gap": 0.19023, 
			 "cosmo_polarized_energy": -9.05, 
			 "cosmo_cavitation_energy": 28.72, 
			 "cosmo_dispersion_energy": -21.41, 
			 "cosmo_repulsion_energy": 1.57, 
			 "cosmo_total_nonelectrostatic_energy": 8.88, 
			 "SMD_solvation_energy": 4.46 
		},
		"coords": [
			{
				"x": 1.1900597363,
				"y": 0.7902253174,
				"z": 2.6807100035,
				"element": "F" 
			},
			{
				"x": 1.1194471048,
				"y": 1.369566248,
				"z": 1.4723911304,
				"element": "C" 
			},
			{
				"x": 0.7217681173,
				"y": 2.6470083382,
				"z": 1.6659999529,
				"element": "F" 
			},
			{
				"x": 2.3535452458,
				"y": 1.4163706399,
				"z": 0.9452170299,
				"element": "F" 
			},
			{
				"x": 0.1403110918,
				"y": 0.6386144899,
				"z": 0.5632215854,
				"element": "C" 
			},
			{
				"x": 0.3828167881,
				"y": -0.6105071432,
				"z": -0.0425056101,
				"element": "C" 
			},
			{
				"x": -0.5879976151,
				"y": -1.2160211174,
				"z": -0.8427911313,
				"element": "C" 
			},
			{
				"x": -1.8196219813,
				"y": -0.6001407109,
				"z": -1.0494568933,
				"element": "C" 
			},
			{
				"x": -2.0635364877,
				"y": 0.6305897953,
				"z": -0.4474980863,
				"element": "C" 
			},
			{
				"x": -3.5975655311,
				"y": 1.4253465204,
				"z": -0.6899546133,
				"element": "Cl" 
			},
			{
				"x": -1.0977860823,
				"y": 1.2458453221,
				"z": 0.3504680181,
				"element": "C" 
			},
			{
				"x": 1.9022897174,
				"y": -1.5769634819,
				"z": 0.138458224,
				"element": "S" 
			},
			{
				"x": 3.1594582442,
				"y": -0.6687404903,
				"z": -1.3090455255,
				"element": "Cl" 
			},
			{
				"x": 1.6317102039,
				"y": -2.9188162708,
				"z": -0.3626733437,
				"element": "O" 
			},
			{
				"x": 2.5000197993,
				"y": -1.3556541773,
				"z": 1.4443730803,
				"element": "O" 
			},
			{
				"x": -0.3763745342,
				"y": -2.1769338593,
				"z": -1.2959400652,
				"element": "H" 
			},
			{
				"x": -2.575178054,
				"y": -1.0713037657,
				"z": -1.6673376933,
				"element": "H" 
			},
			{
				"x": -1.3058657631,
				"y": 2.2044143457,
				"z": 0.8065639377,
				"element": "H" 
			}
		],
		 "valence_orbital": [ 
			{
				"type": "occ",
				"energy": -0.34501,
				"method": "rhf"
			},
			{
				"type": "occ",
				"energy": -0.34102,
				"method": "rhf"
			},
			{
				"type": "occ",
				"energy": -0.32215,
				"method": "rhf"
			},
			{
				"type": "occ",
				"energy": -0.31394,
				"method": "rhf"
			},
			{
				"type": "occ",
				"energy": -0.29435,
				"method": "rhf"
			},
			{
				"type": "unocc",
				"energy": -0.10412,
				"method": "rhf"
			},
			{
				"type": "unocc",
				"energy": -0.07055,
				"method": "rhf"
			},
			{
				"type": "unocc",
				"energy": -0.06195,
				"method": "rhf"
			},
			{
				"type": "unocc",
				"energy": -0.00297,
				"method": "rhf"
			},
			{
				"type": "unocc",
				"energy": 0.03784,
				"method": "rhf"
			}
		],
		"cosmo_sigma_profile": { 
			"-0.025": 0.0,
			"-0.024": 0.0,
			"-0.023": 0.0,
			"-0.022": 0.0,
			"-0.021": 0.0,
			"-0.02": 0.0,
			"-0.019": 0.0,
			"-0.018": 0.0,
			"-0.017": 0.0,
			"-0.016": 0.0,
			"-0.015": 0.0,
			"-0.014": 0.0,
			"-0.013": 0.0,
			"-0.012": 0.0,
			"-0.011": 0.0,
			"-0.01": 1.11308520814,
			"-0.009": 5.18596181092,
			"-0.008": 4.91730525809,
			"-0.007": 4.96987176692,
			"-0.006": 7.24140377218,
			"-0.005": 7.35789962492,
			"-0.004": 10.8650595162,
			"-0.003": 18.9334833615,
			"-0.002": 25.0895275919,
			"-0.001": 19.5233591121,
			"0.0": 14.4626070549,
			"0.001": 20.0131432206,
			"0.002": 37.6644100727,
			"0.003": 27.3137074863,
			"0.004": 6.35686658753,
			"0.005": 3.95364512176,
			"0.006": 4.97338734611,
			"0.007": 8.46148623728,
			"0.008": 7.19991364105,
			"0.009": 1.35366686188,
			"0.01": 0.0,
			"0.011": 0.0,
			"0.012": 0.0,
			"0.013": 0.0,
			"0.014": 0.0,
			"0.015": 0.0,
			"0.016": 0.0,
			"0.017": 0.0,
			"0.018": 0.0,
			"0.019": 0.0,
			"0.02": 0.0,
			"0.021": 0.0,
			"0.022": 0.0,
			"0.023": 0.0,
			"0.024": 0.0,
			"0.025": 0.0
		}
	}
}
