{
	 "smiles": "COC(=O)C1=C(C)C(Br)=C(OC)C(Br)=C1OC", 
	 "Tm": 333.15, 
	 "num_atms": 29, 
	 "gaussian": { 
		 "optdone": 1, 
		 "sigma_profile": "yes", 
		 "theory": "DFT", 
		 "functional": "B3LYP", 
		 "basiset": "6-31G**", 
		 "properties": { 
			 "R2extent": 7034.1402, 
			 "electric_dipole_moment_norm": 1.83912010755, 
			 "electric_quadrupole_moment_norm": 16.5209951198, 
			 "total_energy": -5870.07408055, 
			 "HOMO_LUMO_gap": 0.20414, 
			 "cosmo_polarized_energy": -10.14, 
			 "cosmo_cavitation_energy": 36.61, 
			 "cosmo_dispersion_energy": -26.17, 
			 "cosmo_repulsion_energy": 2.04, 
			 "cosmo_total_nonelectrostatic_energy": 12.48, 
			 "SMD_solvation_energy": 7.23 
		},
		"coords": [
			{
				"x": 3.1451090247,
				"y": 3.2693012766,
				"z": 1.3579326202,
				"element": "C" 
			},
			{
				"x": 2.5208007541,
				"y": 1.9846532457,
				"z": 1.1743120905,
				"element": "O" 
			},
			{
				"x": 1.359147647,
				"y": 2.0023163075,
				"z": 0.4914074421,
				"element": "C" 
			},
			{
				"x": 0.8597030448,
				"y": 3.0133963066,
				"z": 0.0445825871,
				"element": "O" 
			},
			{
				"x": 0.7677642547,
				"y": 0.6248639436,
				"z": 0.3634795643,
				"element": "C" 
			},
			{
				"x": 1.4027673314,
				"y": -0.3928299435,
				"z": -0.3707574495,
				"element": "C" 
			},
			{
				"x": 2.7150402542,
				"y": -0.1662487917,
				"z": -1.0802432225,
				"element": "C" 
			},
			{
				"x": 0.752782816,
				"y": -1.6336384739,
				"z": -0.4464131315,
				"element": "C" 
			},
			{
				"x": 1.5485161702,
				"y": -3.0679236751,
				"z": -1.4268155515,
				"element": "Br" 
			},
			{
				"x": -0.4699188739,
				"y": -1.8863263694,
				"z": 0.1926838558,
				"element": "C" 
			},
			{
				"x": -1.0284921658,
				"y": -3.128111245,
				"z": 0.1631440616,
				"element": "O" 
			},
			{
				"x": -1.977537698,
				"y": -3.3525462261,
				"z": -0.8898008416,
				"element": "C" 
			},
			{
				"x": -1.068985267,
				"y": -0.8500578384,
				"z": 0.9231358421,
				"element": "C" 
			},
			{
				"x": -2.689839207,
				"y": -1.1834885645,
				"z": 1.8577740809,
				"element": "Br" 
			},
			{
				"x": -0.4612453118,
				"y": 0.4071948018,
				"z": 1.0083584952,
				"element": "C" 
			},
			{
				"x": -0.9930502148,
				"y": 1.3983422478,
				"z": 1.7835892118,
				"element": "O" 
			},
			{
				"x": -1.9963288621,
				"y": 2.2150817238,
				"z": 1.152134745,
				"element": "C" 
			},
			{
				"x": 4.0576666065,
				"y": 3.0722499553,
				"z": 1.919614865,
				"element": "H" 
			},
			{
				"x": 2.4845902189,
				"y": 3.9362441288,
				"z": 1.9166957246,
				"element": "H" 
			},
			{
				"x": 3.3764803856,
				"y": 3.7271512775,
				"z": 0.3930039395,
				"element": "H" 
			},
			{
				"x": 3.4907443597,
				"y": -0.8254048276,
				"z": -0.6769981299,
				"element": "H" 
			},
			{
				"x": 2.621456651,
				"y": -0.4009501809,
				"z": -2.1448500595,
				"element": "H" 
			},
			{
				"x": 3.0608005028,
				"y": 0.861287422,
				"z": -0.9785181008,
				"element": "H" 
			},
			{
				"x": -1.5045613908,
				"y": -3.2414350729,
				"z": -1.8713806378,
				"element": "H" 
			},
			{
				"x": -2.8282281993,
				"y": -2.6684913479,
				"z": -0.8025300894,
				"element": "H" 
			},
			{
				"x": -2.3228962834,
				"y": -4.3798852755,
				"z": -0.7664514426,
				"element": "H" 
			},
			{
				"x": -2.3321525932,
				"y": 2.9151147117,
				"z": 1.9186898159,
				"element": "H" 
			},
			{
				"x": -2.8442272406,
				"y": 1.6065860094,
				"z": 0.8213987004,
				"element": "H" 
			},
			{
				"x": -1.5608067142,
				"y": 2.7629544744,
				"z": 0.3124210147,
				"element": "H" 
			}
		],
		 "valence_orbital": [ 
			{
				"type": "occ",
				"energy": -0.28582,
				"method": "rhf"
			},
			{
				"type": "occ",
				"energy": -0.28157,
				"method": "rhf"
			},
			{
				"type": "occ",
				"energy": -0.27823,
				"method": "rhf"
			},
			{
				"type": "occ",
				"energy": -0.24612,
				"method": "rhf"
			},
			{
				"type": "occ",
				"energy": -0.23827,
				"method": "rhf"
			},
			{
				"type": "unocc",
				"energy": -0.03413,
				"method": "rhf"
			},
			{
				"type": "unocc",
				"energy": -0.02396,
				"method": "rhf"
			},
			{
				"type": "unocc",
				"energy": -0.01488,
				"method": "rhf"
			},
			{
				"type": "unocc",
				"energy": 0.00637,
				"method": "rhf"
			},
			{
				"type": "unocc",
				"energy": 0.03351,
				"method": "rhf"
			}
		],
		"cosmo_sigma_profile": { 
			"-0.025": 0.0,
			"-0.024": 0.0,
			"-0.023": 0.0,
			"-0.022": 0.0,
			"-0.021": 0.0,
			"-0.02": 0.0,
			"-0.019": 0.0,
			"-0.018": 0.0,
			"-0.017": 0.0,
			"-0.016": 0.0,
			"-0.015": 0.0,
			"-0.014": 0.0,
			"-0.013": 0.0,
			"-0.012": 0.0,
			"-0.011": 0.0,
			"-0.01": 0.0,
			"-0.009": 0.0,
			"-0.008": 0.0,
			"-0.007": 1.81842131541,
			"-0.006": 11.8614125406,
			"-0.005": 20.4195616274,
			"-0.004": 31.6228737376,
			"-0.003": 36.6703904357,
			"-0.002": 26.3392624555,
			"-0.001": 24.4842953513,
			"0.0": 25.66399394,
			"0.001": 21.3439090941,
			"0.002": 20.2997575517,
			"0.003": 17.177528727,
			"0.004": 15.1462435089,
			"0.005": 11.0684271752,
			"0.006": 5.78036712837,
			"0.007": 7.49185057927,
			"0.008": 5.79434932048,
			"0.009": 4.36932571153,
			"0.01": 5.20342867204,
			"0.011": 3.95829564696,
			"0.012": 0.463788256002,
			"0.013": 0.0,
			"0.014": 0.0,
			"0.015": 0.0,
			"0.016": 0.0,
			"0.017": 0.0,
			"0.018": 0.0,
			"0.019": 0.0,
			"0.02": 0.0,
			"0.021": 0.0,
			"0.022": 0.0,
			"0.023": 0.0,
			"0.024": 0.0,
			"0.025": 0.0
		}
	}
}
