{
	 "smiles": "CC(C)N(C)C1=C(C=C(C)C=C1)C(O)=O", 
	 "Tm": 343.15, 
	 "num_atms": 32, 
	 "gaussian": { 
		 "optdone": 1, 
		 "sigma_profile": "yes", 
		 "theory": "DFT", 
		 "functional": "B3LYP", 
		 "basiset": "6-31G**", 
		 "properties": { 
			 "R2extent": 3411.9511, 
			 "electric_dipole_moment_norm": 6.35657964239, 
			 "electric_quadrupole_moment_norm": 18.6084564731, 
			 "total_energy": -672.747362504, 
			 "HOMO_LUMO_gap": 0.20452, 
			 "cosmo_polarized_energy": -13.71, 
			 "cosmo_cavitation_energy": 32.85, 
			 "cosmo_dispersion_energy": -22.96, 
			 "cosmo_repulsion_energy": 1.78, 
			 "cosmo_total_nonelectrostatic_energy": 11.66, 
			 "SMD_solvation_energy": 7.29 
		},
		"coords": [
			{
				"x": -1.6824071314,
				"y": -1.7129776925,
				"z": -1.3363140296,
				"element": "C" 
			},
			{
				"x": -1.5762022648,
				"y": -0.4167860327,
				"z": -2.1453724375,
				"element": "C" 
			},
			{
				"x": -2.747060778,
				"y": 0.5272770937,
				"z": -1.8270287508,
				"element": "C" 
			},
			{
				"x": -0.2085999244,
				"y": 0.1857418546,
				"z": -2.0104867267,
				"element": "N" 
			},
			{
				"x": 0.05352388,
				"y": 1.2719890376,
				"z": -2.9676506727,
				"element": "C" 
			},
			{
				"x": 0.2353663715,
				"y": 0.4999256963,
				"z": -0.6605981767,
				"element": "C" 
			},
			{
				"x": 1.2281325975,
				"y": -0.2956706889,
				"z": -0.0500897273,
				"element": "C" 
			},
			{
				"x": 1.6505796343,
				"y": 0.0146492131,
				"z": 1.2488358019,
				"element": "C" 
			},
			{
				"x": 1.1335986425,
				"y": 1.0970944871,
				"z": 1.9622998015,
				"element": "C" 
			},
			{
				"x": 1.5873400881,
				"y": 1.3914517366,
				"z": 3.3722885463,
				"element": "C" 
			},
			{
				"x": 0.1714213778,
				"y": 1.8956415185,
				"z": 1.3294634097,
				"element": "C" 
			},
			{
				"x": -0.268767532,
				"y": 1.602836639,
				"z": 0.0407127241,
				"element": "C" 
			},
			{
				"x": 1.9302865232,
				"y": -1.466124964,
				"z": -0.7139976948,
				"element": "C" 
			},
			{
				"x": 1.6063020616,
				"y": -1.7101296898,
				"z": -1.9886980201,
				"element": "O" 
			},
			{
				"x": 2.7535924593,
				"y": -2.1324044918,
				"z": -0.1202989639,
				"element": "O" 
			},
			{
				"x": -2.6412131601,
				"y": -2.1970448193,
				"z": -1.5446625276,
				"element": "H" 
			},
			{
				"x": -1.6360307122,
				"y": -1.5151052055,
				"z": -0.2608400351,
				"element": "H" 
			},
			{
				"x": -0.8821239316,
				"y": -2.4108715234,
				"z": -1.5926666031,
				"element": "H" 
			},
			{
				"x": -1.6393096321,
				"y": -0.677542935,
				"z": -3.210133815,
				"element": "H" 
			},
			{
				"x": -2.6838157435,
				"y": 1.4705192195,
				"z": -2.3784013623,
				"element": "H" 
			},
			{
				"x": -3.6878635321,
				"y": 0.0455333963,
				"z": -2.1123708283,
				"element": "H" 
			},
			{
				"x": -2.8024446023,
				"y": 0.7517216074,
				"z": -0.7579357272,
				"element": "H" 
			},
			{
				"x": -0.5196550499,
				"y": 2.1881683567,
				"z": -2.7706305484,
				"element": "H" 
			},
			{
				"x": 1.1168676346,
				"y": 1.5229895605,
				"z": -2.9383691246,
				"element": "H" 
			},
			{
				"x": -0.1916306489,
				"y": 0.923959626,
				"z": -3.9758660065,
				"element": "H" 
			},
			{
				"x": 2.4154622168,
				"y": -0.6224339403,
				"z": 1.6815425822,
				"element": "H" 
			},
			{
				"x": 1.6003129901,
				"y": 2.4671973024,
				"z": 3.5731367557,
				"element": "H" 
			},
			{
				"x": 2.5900927442,
				"y": 0.9972705854,
				"z": 3.5580652311,
				"element": "H" 
			},
			{
				"x": 0.9142351267,
				"y": 0.9317201818,
				"z": 4.1066194937,
				"element": "H" 
			},
			{
				"x": -0.2372835545,
				"y": 2.7594660696,
				"z": 1.8483358989,
				"element": "H" 
			},
			{
				"x": -1.0054430895,
				"y": 2.2460387736,
				"z": -0.4281180105,
				"element": "H" 
			},
			{
				"x": 0.898336939,
				"y": -1.0391999726,
				"z": -2.2425704561,
				"element": "H" 
			}
		],
		 "valence_orbital": [ 
			{
				"type": "occ",
				"energy": -0.28724,
				"method": "rhf"
			},
			{
				"type": "occ",
				"energy": -0.25899,
				"method": "rhf"
			},
			{
				"type": "occ",
				"energy": -0.25564,
				"method": "rhf"
			},
			{
				"type": "occ",
				"energy": -0.25129,
				"method": "rhf"
			},
			{
				"type": "occ",
				"energy": -0.24466,
				"method": "rhf"
			},
			{
				"type": "unocc",
				"energy": -0.04014,
				"method": "rhf"
			},
			{
				"type": "unocc",
				"energy": -0.01482,
				"method": "rhf"
			},
			{
				"type": "unocc",
				"energy": 0.06367,
				"method": "rhf"
			},
			{
				"type": "unocc",
				"energy": 0.06567,
				"method": "rhf"
			},
			{
				"type": "unocc",
				"energy": 0.0898,
				"method": "rhf"
			}
		],
		"cosmo_sigma_profile": { 
			"-0.025": 0.0,
			"-0.024": 0.0,
			"-0.023": 0.0,
			"-0.022": 0.0,
			"-0.021": 0.0,
			"-0.02": 0.0,
			"-0.019": 0.0,
			"-0.018": 0.0,
			"-0.017": 0.0,
			"-0.016": 0.0,
			"-0.015": 0.0,
			"-0.014": 0.0,
			"-0.013": 0.0,
			"-0.012": 0.0,
			"-0.011": 0.0,
			"-0.01": 0.0,
			"-0.009": 0.0,
			"-0.008": 0.0,
			"-0.007": 0.365398955597,
			"-0.006": 6.04638763222,
			"-0.005": 17.8655057874,
			"-0.004": 29.0836701463,
			"-0.003": 30.6235661688,
			"-0.002": 33.8208150171,
			"-0.001": 32.2145263694,
			"0.0": 28.2566883089,
			"0.001": 17.4065330846,
			"0.002": 10.9827998187,
			"0.003": 10.8365674939,
			"0.004": 8.26479168903,
			"0.005": 1.89464518752,
			"0.006": 2.40594803683,
			"0.007": 1.95016025381,
			"0.008": 2.37342715761,
			"0.009": 2.74375473252,
			"0.01": 2.99429280142,
			"0.011": 3.70684825443,
			"0.012": 6.81596198548,
			"0.013": 5.11857042832,
			"0.014": 1.91929611941,
			"0.015": 0.15982658067,
			"0.016": 0.0,
			"0.017": 0.0,
			"0.018": 0.0,
			"0.019": 0.0,
			"0.02": 0.0,
			"0.021": 0.0,
			"0.022": 0.0,
			"0.023": 0.0,
			"0.024": 0.0,
			"0.025": 0.0
		}
	}
}
