{
	 "smiles": "OC(=O)C1CC1C1=CC=CO1", 
	 "Tm": 325.15, 
	 "num_atms": 19, 
	 "gaussian": { 
		 "optdone": 1, 
		 "sigma_profile": "yes", 
		 "theory": "DFT", 
		 "functional": "B3LYP", 
		 "basiset": "6-31G**", 
		 "properties": { 
			 "R2extent": 2657.5409, 
			 "electric_dipole_moment_norm": 4.57888573891, 
			 "electric_quadrupole_moment_norm": 14.3996271084, 
			 "total_energy": -535.29667546, 
			 "HOMO_LUMO_gap": 0.21466, 
			 "cosmo_polarized_energy": -15.23, 
			 "cosmo_cavitation_energy": 23.85, 
			 "cosmo_dispersion_energy": -17.24, 
			 "cosmo_repulsion_energy": 1.4, 
			 "cosmo_total_nonelectrostatic_energy": 8.01, 
			 "SMD_solvation_energy": 5.89 
		},
		"coords": [
			{
				"x": -1.5699482097,
				"y": -3.2275152485,
				"z": 0.8158594031,
				"element": "O" 
			},
			{
				"x": -1.5249356224,
				"y": -2.2281289482,
				"z": 1.7359462597,
				"element": "C" 
			},
			{
				"x": -2.2675277205,
				"y": -2.2468091421,
				"z": 2.6900932842,
				"element": "O" 
			},
			{
				"x": -0.5349578365,
				"y": -1.1392563225,
				"z": 1.481765424,
				"element": "C" 
			},
			{
				"x": 0.0204133978,
				"y": -0.4119244469,
				"z": 2.6891158334,
				"element": "C" 
			},
			{
				"x": -0.988951362,
				"y": 0.2881421494,
				"z": 1.8421551545,
				"element": "C" 
			},
			{
				"x": -0.5991630231,
				"y": 1.4175473651,
				"z": 0.9834200468,
				"element": "C" 
			},
			{
				"x": 0.4795351617,
				"y": 2.2555163305,
				"z": 0.946953827,
				"element": "C" 
			},
			{
				"x": 0.2641991146,
				"y": 3.1558982374,
				"z": -0.1479053032,
				"element": "C" 
			},
			{
				"x": -0.9308833573,
				"y": 2.8038438451,
				"z": -0.69475026,
				"element": "C" 
			},
			{
				"x": -1.4704432688,
				"y": 1.7471028738,
				"z": -0.0230573901,
				"element": "O" 
			},
			{
				"x": -0.9303020414,
				"y": -3.0620020179,
				"z": 0.1094917364,
				"element": "H" 
			},
			{
				"x": 0.11723939,
				"y": -1.2277024237,
				"z": 0.6168581331,
				"element": "H" 
			},
			{
				"x": 1.0565484744,
				"y": -0.0949973709,
				"z": 2.6336858211,
				"element": "H" 
			},
			{
				"x": -0.3118709033,
				"y": -0.7754918716,
				"z": 3.6551719902,
				"element": "H" 
			},
			{
				"x": -2.0002691294,
				"y": 0.3202973502,
				"z": 2.2408572198,
				"element": "H" 
			},
			{
				"x": 1.3187085938,
				"y": 2.2462595074,
				"z": 1.6273929662,
				"element": "H" 
			},
			{
				"x": 0.910046958,
				"y": 3.9588943591,
				"z": -0.4727064719,
				"element": "H" 
			},
			{
				"x": -1.5143386159,
				"y": 3.1846257743,
				"z": -1.5186476743,
				"element": "H" 
			}
		],
		 "valence_orbital": [ 
			{
				"type": "occ",
				"energy": -0.32435,
				"method": "rhf"
			},
			{
				"type": "occ",
				"energy": -0.30642,
				"method": "rhf"
			},
			{
				"type": "occ",
				"energy": -0.28183,
				"method": "rhf"
			},
			{
				"type": "occ",
				"energy": -0.2743,
				"method": "rhf"
			},
			{
				"type": "occ",
				"energy": -0.22415,
				"method": "rhf"
			},
			{
				"type": "unocc",
				"energy": -0.00949,
				"method": "rhf"
			},
			{
				"type": "unocc",
				"energy": 0.02235,
				"method": "rhf"
			},
			{
				"type": "unocc",
				"energy": 0.0533,
				"method": "rhf"
			},
			{
				"type": "unocc",
				"energy": 0.0687,
				"method": "rhf"
			},
			{
				"type": "unocc",
				"energy": 0.09665,
				"method": "rhf"
			}
		],
		"cosmo_sigma_profile": { 
			"-0.025": 0.0,
			"-0.024": 0.0,
			"-0.023": 0.0,
			"-0.022": 0.0,
			"-0.021": 0.0,
			"-0.02": 0.0,
			"-0.019": 0.981944582847,
			"-0.018": 1.06424712995,
			"-0.017": 1.42133603619,
			"-0.016": 1.22504045644,
			"-0.015": 0.780324020539,
			"-0.014": 1.13162898682,
			"-0.013": 0.837905655038,
			"-0.012": 0.745057816412,
			"-0.011": 1.08686586871,
			"-0.01": 1.36637818922,
			"-0.009": 1.84893189423,
			"-0.008": 3.0804745167,
			"-0.007": 6.3946564487,
			"-0.006": 11.5369000628,
			"-0.005": 10.3245247394,
			"-0.004": 11.1679008631,
			"-0.003": 12.3648237696,
			"-0.002": 12.7425812107,
			"-0.001": 12.524934585,
			"0.0": 9.66481536428,
			"0.001": 11.4604683243,
			"0.002": 10.5598972068,
			"0.003": 11.1564357797,
			"0.004": 9.6252575536,
			"0.005": 9.46396562,
			"0.006": 7.37154110889,
			"0.007": 3.62409507011,
			"0.008": 3.9705729936,
			"0.009": 4.19210721522,
			"0.01": 3.84106135101,
			"0.011": 4.34149618659,
			"0.012": 5.40871049937,
			"0.013": 2.43573303409,
			"0.014": 0.392341909033,
			"0.015": 0.0,
			"0.016": 0.0,
			"0.017": 0.0,
			"0.018": 0.0,
			"0.019": 0.0,
			"0.02": 0.0,
			"0.021": 0.0,
			"0.022": 0.0,
			"0.023": 0.0,
			"0.024": 0.0,
			"0.025": 0.0
		}
	}
}
