{
	 "smiles": "OC(=O)C1=CC=C(N1)[N+]([O-])=O", 
	 "Tm": 436.15, 
	 "num_atms": 15, 
	 "gaussian": { 
		 "optdone": 1, 
		 "sigma_profile": "yes", 
		 "theory": "DFT", 
		 "functional": "B3LYP", 
		 "basiset": "6-31G**", 
		 "properties": { 
			 "R2extent": 2584.7198, 
			 "electric_dipole_moment_norm": 1.22482690206, 
			 "electric_quadrupole_moment_norm": 26.2043982263, 
			 "total_energy": -603.230861956, 
			 "HOMO_LUMO_gap": 0.16317, 
			 "cosmo_polarized_energy": -20.52, 
			 "cosmo_cavitation_energy": 21.48, 
			 "cosmo_dispersion_energy": -15.68, 
			 "cosmo_repulsion_energy": 1.27, 
			 "cosmo_total_nonelectrostatic_energy": 7.07, 
			 "SMD_solvation_energy": 7.4 
		},
		"coords": [
			{
				"x": -0.6225855744,
				"y": 2.6523195208,
				"z": -0.9887904693,
				"element": "O" 
			},
			{
				"x": -0.8780589576,
				"y": 1.4145887202,
				"z": -0.4756087627,
				"element": "C" 
			},
			{
				"x": -1.9855583735,
				"y": 0.9398241508,
				"z": -0.5242625166,
				"element": "O" 
			},
			{
				"x": 0.2725059755,
				"y": 0.6993994522,
				"z": 0.1160042672,
				"element": "C" 
			},
			{
				"x": 0.2433936885,
				"y": -0.3595464196,
				"z": 1.0210397675,
				"element": "C" 
			},
			{
				"x": 1.5734528399,
				"y": -0.7206379103,
				"z": 1.3114729016,
				"element": "C" 
			},
			{
				"x": 2.3714703302,
				"y": 0.127201555,
				"z": 0.5604789811,
				"element": "C" 
			},
			{
				"x": 1.5894530369,
				"y": 0.9942444927,
				"z": -0.1481010992,
				"element": "N" 
			},
			{
				"x": 3.7888177792,
				"y": 0.1934498806,
				"z": 0.4235510915,
				"element": "N" 
			},
			{
				"x": 4.2286499018,
				"y": 1.0424839426,
				"z": -0.3662376428,
				"element": "O" 
			},
			{
				"x": 4.4641957704,
				"y": -0.5876121034,
				"z": 1.0909910845,
				"element": "O" 
			},
			{
				"x": 0.1975801124,
				"y": 3.0160168964,
				"z": -0.6255460075,
				"element": "H" 
			},
			{
				"x": -0.6603710455,
				"y": -0.7921322106,
				"z": 1.4237599343,
				"element": "H" 
			},
			{
				"x": 1.931112017,
				"y": -1.4906400226,
				"z": 1.977299728,
				"element": "H" 
			},
			{
				"x": 1.9775424991,
				"y": 1.5949400552,
				"z": -0.8634512574,
				"element": "H" 
			}
		],
		 "valence_orbital": [ 
			{
				"type": "occ",
				"energy": -0.32627,
				"method": "rhf"
			},
			{
				"type": "occ",
				"energy": -0.31199,
				"method": "rhf"
			},
			{
				"type": "occ",
				"energy": -0.30327,
				"method": "rhf"
			},
			{
				"type": "occ",
				"energy": -0.29956,
				"method": "rhf"
			},
			{
				"type": "occ",
				"energy": -0.27225,
				"method": "rhf"
			},
			{
				"type": "unocc",
				"energy": -0.10908,
				"method": "rhf"
			},
			{
				"type": "unocc",
				"energy": -0.04363,
				"method": "rhf"
			},
			{
				"type": "unocc",
				"energy": 0.0207,
				"method": "rhf"
			},
			{
				"type": "unocc",
				"energy": 0.03974,
				"method": "rhf"
			},
			{
				"type": "unocc",
				"energy": 0.07342,
				"method": "rhf"
			}
		],
		"cosmo_sigma_profile": { 
			"-0.025": 0.0,
			"-0.024": 0.0,
			"-0.023": 0.0,
			"-0.022": 0.397584916819,
			"-0.021": 1.07999676971,
			"-0.02": 1.05854823719,
			"-0.019": 1.40899186432,
			"-0.018": 1.9261948006,
			"-0.017": 1.61739050475,
			"-0.016": 1.49003812838,
			"-0.015": 1.42685529156,
			"-0.014": 1.23133156432,
			"-0.013": 1.20322064498,
			"-0.012": 1.44866710158,
			"-0.011": 0.869911591975,
			"-0.01": 1.78347250309,
			"-0.009": 3.00902349245,
			"-0.008": 4.17772541922,
			"-0.007": 6.43242607672,
			"-0.006": 6.65980874297,
			"-0.005": 6.82393452077,
			"-0.004": 9.28891497581,
			"-0.003": 6.79499631088,
			"-0.002": 10.8107220072,
			"-0.001": 10.1501276466,
			"0.0": 8.2683306683,
			"0.001": 8.13071953419,
			"0.002": 8.50354870321,
			"0.003": 4.55357921086,
			"0.004": 4.83528296154,
			"0.005": 6.08745600127,
			"0.006": 4.96467282874,
			"0.007": 10.4974692168,
			"0.008": 11.2718714631,
			"0.009": 8.03783974269,
			"0.01": 8.12217146291,
			"0.011": 5.7872025445,
			"0.012": 2.28867606197,
			"0.013": 0.179202102977,
			"0.014": 0.0,
			"0.015": 0.0,
			"0.016": 0.0,
			"0.017": 0.0,
			"0.018": 0.0,
			"0.019": 0.0,
			"0.02": 0.0,
			"0.021": 0.0,
			"0.022": 0.0,
			"0.023": 0.0,
			"0.024": 0.0,
			"0.025": 0.0
		}
	}
}
