{
	 "smiles": "NS(=O)(=O)C(F)F", 
	 "Tm": 333.15, 
	 "num_atms": 10, 
	 "gaussian": { 
		 "optdone": 1, 
		 "sigma_profile": "yes", 
		 "theory": "DFT", 
		 "functional": "B3LYP", 
		 "basiset": "6-31G**", 
		 "properties": { 
			 "R2extent": 1706.2572, 
			 "electric_dipole_moment_norm": 4.95730185282, 
			 "electric_quadrupole_moment_norm": 10.0061402823, 
			 "total_energy": -842.884744231, 
			 "HOMO_LUMO_gap": 0.34146, 
			 "cosmo_polarized_energy": -17.41, 
			 "cosmo_cavitation_energy": 16.65, 
			 "cosmo_dispersion_energy": -12.77, 
			 "cosmo_repulsion_energy": 1.01, 
			 "cosmo_total_nonelectrostatic_energy": 4.89, 
			 "SMD_solvation_energy": 3.58 
		},
		"coords": [
			{
				"x": -2.3881182341,
				"y": -0.0180683215,
				"z": -0.1620578672,
				"element": "N" 
			},
			{
				"x": -1.4508198006,
				"y": 1.1359296487,
				"z": 0.5836614985,
				"element": "S" 
			},
			{
				"x": -0.2772812204,
				"y": 1.3365468066,
				"z": -0.2603269268,
				"element": "O" 
			},
			{
				"x": -2.3369768577,
				"y": 2.2069142641,
				"z": 1.0152566974,
				"element": "O" 
			},
			{
				"x": -0.8278395715,
				"y": 0.2915796413,
				"z": 2.1197326792,
				"element": "C" 
			},
			{
				"x": -1.8877839475,
				"y": -0.2765695558,
				"z": 2.7443586006,
				"element": "F" 
			},
			{
				"x": -0.2820287168,
				"y": 1.2224182395,
				"z": 2.9184828514,
				"element": "F" 
			},
			{
				"x": -3.2184287472,
				"y": -0.2928446719,
				"z": 0.3501402581,
				"element": "H" 
			},
			{
				"x": -1.872871012,
				"y": -0.7724353437,
				"z": -0.6003495334,
				"element": "H" 
			},
			{
				"x": -0.0880518923,
				"y": -0.4711707072,
				"z": 1.8516017422,
				"element": "H" 
			}
		],
		 "valence_orbital": [ 
			{
				"type": "occ",
				"energy": -0.35805,
				"method": "rhf"
			},
			{
				"type": "occ",
				"energy": -0.33926,
				"method": "rhf"
			},
			{
				"type": "occ",
				"energy": -0.33012,
				"method": "rhf"
			},
			{
				"type": "occ",
				"energy": -0.32378,
				"method": "rhf"
			},
			{
				"type": "occ",
				"energy": -0.31186,
				"method": "rhf"
			},
			{
				"type": "unocc",
				"energy": 0.0296,
				"method": "rhf"
			},
			{
				"type": "unocc",
				"energy": 0.03878,
				"method": "rhf"
			},
			{
				"type": "unocc",
				"energy": 0.05948,
				"method": "rhf"
			},
			{
				"type": "unocc",
				"energy": 0.07778,
				"method": "rhf"
			},
			{
				"type": "unocc",
				"energy": 0.09902,
				"method": "rhf"
			}
		],
		"cosmo_sigma_profile": { 
			"-0.025": 0.0,
			"-0.024": 0.0,
			"-0.023": 0.0,
			"-0.022": 0.0,
			"-0.021": 0.0,
			"-0.02": 0.0,
			"-0.019": 0.0,
			"-0.018": 0.0,
			"-0.017": 0.238557619563,
			"-0.016": 3.52325339302,
			"-0.015": 2.70518944116,
			"-0.014": 2.72551484511,
			"-0.013": 3.11808076226,
			"-0.012": 5.10644905302,
			"-0.011": 4.12281011397,
			"-0.01": 2.70695224447,
			"-0.009": 3.14800308647,
			"-0.008": 2.34125697355,
			"-0.007": 2.4194135179,
			"-0.006": 2.3524600589,
			"-0.005": 1.98380418776,
			"-0.004": 2.68279238594,
			"-0.003": 2.63984966045,
			"-0.002": 2.90357238658,
			"-0.001": 3.51311639862,
			"0.0": 4.06366858948,
			"0.001": 8.60675783441,
			"0.002": 18.9941542697,
			"0.003": 9.44703338554,
			"0.004": 3.69298085418,
			"0.005": 3.43028951465,
			"0.006": 5.28968866809,
			"0.007": 2.79228861782,
			"0.008": 3.65005548898,
			"0.009": 7.58273012317,
			"0.01": 12.8398241176,
			"0.011": 3.76809671263,
			"0.012": 0.0,
			"0.013": 0.0,
			"0.014": 0.0,
			"0.015": 0.0,
			"0.016": 0.0,
			"0.017": 0.0,
			"0.018": 0.0,
			"0.019": 0.0,
			"0.02": 0.0,
			"0.021": 0.0,
			"0.022": 0.0,
			"0.023": 0.0,
			"0.024": 0.0,
			"0.025": 0.0
		}
	}
}
