{
	 "smiles": "CC1=C(C(C)=NO1)[N+]([O-])=O", 
	 "Tm": 331.65, 
	 "num_atms": 16, 
	 "gaussian": { 
		 "optdone": 1, 
		 "sigma_profile": "yes", 
		 "theory": "DFT", 
		 "functional": "B3LYP", 
		 "basiset": "6-31G**", 
		 "properties": { 
			 "R2extent": 2267.5643, 
			 "electric_dipole_moment_norm": 1.54776123159, 
			 "electric_quadrupole_moment_norm": 13.9662234792, 
			 "total_energy": -529.177271327, 
			 "HOMO_LUMO_gap": 0.19783, 
			 "cosmo_polarized_energy": -9.11, 
			 "cosmo_cavitation_energy": 21.04, 
			 "cosmo_dispersion_energy": -15.46, 
			 "cosmo_repulsion_energy": 1.26, 
			 "cosmo_total_nonelectrostatic_energy": 6.84, 
			 "SMD_solvation_energy": 5.95 
		},
		"coords": [
			{
				"x": 2.9919777438,
				"y": -2.3121231561,
				"z": 1.0425947583,
				"element": "C" 
			},
			{
				"x": 2.0577678963,
				"y": -1.9136058431,
				"z": -0.0413565237,
				"element": "C" 
			},
			{
				"x": 1.6232729192,
				"y": -0.7075473841,
				"z": -0.5389431403,
				"element": "C" 
			},
			{
				"x": 0.7132697672,
				"y": -1.0223818466,
				"z": -1.5992582159,
				"element": "C" 
			},
			{
				"x": -0.0618560389,
				"y": -0.1120269211,
				"z": -2.4948227814,
				"element": "C" 
			},
			{
				"x": 0.6105072818,
				"y": -2.3229483698,
				"z": -1.7270376472,
				"element": "N" 
			},
			{
				"x": 1.461950421,
				"y": -2.8805281511,
				"z": -0.7405171539,
				"element": "O" 
			},
			{
				"x": 2.0169167177,
				"y": 0.5824885284,
				"z": -0.0727047532,
				"element": "N" 
			},
			{
				"x": 1.5292963872,
				"y": 1.5665879201,
				"z": -0.6343658484,
				"element": "O" 
			},
			{
				"x": 2.8220712463,
				"y": 0.6290278139,
				"z": 0.8638975542,
				"element": "O" 
			},
			{
				"x": 3.0475471475,
				"y": -3.4004237934,
				"z": 1.100250094,
				"element": "H" 
			},
			{
				"x": 2.6566261419,
				"y": -1.9053181461,
				"z": 2.000509659,
				"element": "H" 
			},
			{
				"x": 3.9867548732,
				"y": -1.8980120399,
				"z": 0.8568889515,
				"element": "H" 
			},
			{
				"x": -0.7185162743,
				"y": 0.5351560687,
				"z": -1.9077327102,
				"element": "H" 
			},
			{
				"x": -0.6567346453,
				"y": -0.7065371543,
				"z": -3.1903005018,
				"element": "H" 
			},
			{
				"x": 0.6128484152,
				"y": 0.5423924745,
				"z": -3.0527017411,
				"element": "H" 
			}
		],
		 "valence_orbital": [ 
			{
				"type": "occ",
				"energy": -0.31696,
				"method": "rhf"
			},
			{
				"type": "occ",
				"energy": -0.3157,
				"method": "rhf"
			},
			{
				"type": "occ",
				"energy": -0.31279,
				"method": "rhf"
			},
			{
				"type": "occ",
				"energy": -0.29735,
				"method": "rhf"
			},
			{
				"type": "occ",
				"energy": -0.28673,
				"method": "rhf"
			},
			{
				"type": "unocc",
				"energy": -0.0889,
				"method": "rhf"
			},
			{
				"type": "unocc",
				"energy": -0.02829,
				"method": "rhf"
			},
			{
				"type": "unocc",
				"energy": 0.0488,
				"method": "rhf"
			},
			{
				"type": "unocc",
				"energy": 0.06795,
				"method": "rhf"
			},
			{
				"type": "unocc",
				"energy": 0.09803,
				"method": "rhf"
			}
		],
		"cosmo_sigma_profile": { 
			"-0.025": 0.0,
			"-0.024": 0.0,
			"-0.023": 0.0,
			"-0.022": 0.0,
			"-0.021": 0.0,
			"-0.02": 0.0,
			"-0.019": 0.0,
			"-0.018": 0.0,
			"-0.017": 0.0,
			"-0.016": 0.0,
			"-0.015": 0.0,
			"-0.014": 0.0,
			"-0.013": 0.0,
			"-0.012": 0.0,
			"-0.011": 0.0,
			"-0.01": 0.0,
			"-0.009": 0.0,
			"-0.008": 0.432569375725,
			"-0.007": 6.018311001,
			"-0.006": 13.1054491716,
			"-0.005": 19.0406110252,
			"-0.004": 18.7303369473,
			"-0.003": 19.2059436124,
			"-0.002": 13.4393355434,
			"-0.001": 8.63166687504,
			"0.0": 5.22537878772,
			"0.001": 5.14127894792,
			"0.002": 4.64705763662,
			"0.003": 4.83077753146,
			"0.004": 5.69040884728,
			"0.005": 4.18964320369,
			"0.006": 9.07401419459,
			"0.007": 9.13073974228,
			"0.008": 7.65547629218,
			"0.009": 6.09308896239,
			"0.01": 3.96794107744,
			"0.011": 1.17407819092,
			"0.012": 1.49681622996,
			"0.013": 0.75254871187,
			"0.014": 0.000327046095192,
			"0.015": 0.0,
			"0.016": 0.0,
			"0.017": 0.0,
			"0.018": 0.0,
			"0.019": 0.0,
			"0.02": 0.0,
			"0.021": 0.0,
			"0.022": 0.0,
			"0.023": 0.0,
			"0.024": 0.0,
			"0.025": 0.0
		}
	}
}
