{
	 "smiles": "NC1=C(F)C=CC(Cl)=N1", 
	 "Tm": 358.15, 
	 "num_atms": 13, 
	 "gaussian": { 
		 "optdone": 1, 
		 "sigma_profile": "yes", 
		 "theory": "DFT", 
		 "functional": "B3LYP", 
		 "basiset": "6-31G**", 
		 "properties": { 
			 "R2extent": 2289.4051, 
			 "electric_dipole_moment_norm": 3.71947986149, 
			 "electric_quadrupole_moment_norm": 7.51397220849, 
			 "total_energy": -862.45803487, 
			 "HOMO_LUMO_gap": 0.21196, 
			 "cosmo_polarized_energy": -11.78, 
			 "cosmo_cavitation_energy": 19.96, 
			 "cosmo_dispersion_energy": -14.96, 
			 "cosmo_repulsion_energy": 1.22, 
			 "cosmo_total_nonelectrostatic_energy": 6.22, 
			 "SMD_solvation_energy": 2.15 
		},
		"coords": [
			{
				"x": -0.5520030678,
				"y": 0.2841177964,
				"z": -3.915079992,
				"element": "N" 
			},
			{
				"x": 0.2499506302,
				"y": 0.3414474997,
				"z": -2.736983016,
				"element": "C" 
			},
			{
				"x": 1.601952234,
				"y": -0.0237643054,
				"z": -2.7375952575,
				"element": "C" 
			},
			{
				"x": 2.1635808723,
				"y": -0.4432630043,
				"z": -3.889952708,
				"element": "F" 
			},
			{
				"x": 2.3648185794,
				"y": 0.0392778148,
				"z": -1.5802612525,
				"element": "C" 
			},
			{
				"x": 1.7437480112,
				"y": 0.4780921944,
				"z": -0.4139376396,
				"element": "C" 
			},
			{
				"x": 0.3924132713,
				"y": 0.8219928471,
				"z": -0.5043076123,
				"element": "C" 
			},
			{
				"x": -0.4295322952,
				"y": 1.3823074616,
				"z": 0.9520622211,
				"element": "Cl" 
			},
			{
				"x": -0.3294129852,
				"y": 0.7604588278,
				"z": -1.6075312499,
				"element": "N" 
			},
			{
				"x": -0.1422795787,
				"y": 0.8668795011,
				"z": -4.6422656136,
				"element": "H" 
			},
			{
				"x": -0.5562247233,
				"y": -0.6638659091,
				"z": -4.2860207855,
				"element": "H" 
			},
			{
				"x": 3.4108761239,
				"y": -0.2477030289,
				"z": -1.5996621393,
				"element": "H" 
			},
			{
				"x": 2.2798129278,
				"y": 0.5514223048,
				"z": 0.5243350452,
				"element": "H" 
			}
		],
		 "valence_orbital": [ 
			{
				"type": "occ",
				"energy": -0.31602,
				"method": "rhf"
			},
			{
				"type": "occ",
				"energy": -0.30609,
				"method": "rhf"
			},
			{
				"type": "occ",
				"energy": -0.28671,
				"method": "rhf"
			},
			{
				"type": "occ",
				"energy": -0.26848,
				"method": "rhf"
			},
			{
				"type": "occ",
				"energy": -0.25578,
				"method": "rhf"
			},
			{
				"type": "unocc",
				"energy": -0.04382,
				"method": "rhf"
			},
			{
				"type": "unocc",
				"energy": -0.02602,
				"method": "rhf"
			},
			{
				"type": "unocc",
				"energy": 0.03057,
				"method": "rhf"
			},
			{
				"type": "unocc",
				"energy": 0.07456,
				"method": "rhf"
			},
			{
				"type": "unocc",
				"energy": 0.09508,
				"method": "rhf"
			}
		],
		"cosmo_sigma_profile": { 
			"-0.025": 0.0,
			"-0.024": 0.0,
			"-0.023": 0.0,
			"-0.022": 0.0,
			"-0.021": 0.0,
			"-0.02": 0.0,
			"-0.019": 0.0,
			"-0.018": 0.0,
			"-0.017": 0.0,
			"-0.016": 0.0,
			"-0.015": 0.0,
			"-0.014": 0.0,
			"-0.013": 0.234135694657,
			"-0.012": 2.1900907996,
			"-0.011": 3.33068301795,
			"-0.01": 2.40292464349,
			"-0.009": 5.33974927876,
			"-0.008": 6.28968114775,
			"-0.007": 6.97229022462,
			"-0.006": 5.43418433168,
			"-0.005": 5.28172918088,
			"-0.004": 5.77693839268,
			"-0.003": 6.04156719072,
			"-0.002": 12.6622524892,
			"-0.001": 13.5211760407,
			"0.0": 14.3652131923,
			"0.001": 10.6793877768,
			"0.002": 8.06728859299,
			"0.003": 13.7165799749,
			"0.004": 13.2420023899,
			"0.005": 7.62267631581,
			"0.006": 2.16665962752,
			"0.007": 2.26496687623,
			"0.008": 1.64924097396,
			"0.009": 1.45570865665,
			"0.01": 1.60758530952,
			"0.011": 1.37521005899,
			"0.012": 1.13849787301,
			"0.013": 1.54957813587,
			"0.014": 1.4161341658,
			"0.015": 1.53054567686,
			"0.016": 1.40976366111,
			"0.017": 0.982932635111,
			"0.018": 0.719702071622,
			"0.019": 0.0359932632545,
			"0.02": 0.0,
			"0.021": 0.0,
			"0.022": 0.0,
			"0.023": 0.0,
			"0.024": 0.0,
			"0.025": 0.0
		}
	}
}
