{
	 "smiles": "COC1=CC2=C(NC=C2CC(N)C(O)=O)C=C1", 
	 "Tm": 533.15, 
	 "num_atms": 31, 
	 "gaussian": { 
		 "optdone": 1, 
		 "sigma_profile": "yes", 
		 "theory": "DFT", 
		 "functional": "B3LYP", 
		 "basiset": "6-31G**", 
		 "properties": { 
			 "R2extent": 5218.665, 
			 "electric_dipole_moment_norm": 4.57835464113, 
			 "electric_quadrupole_moment_norm": 23.3159089851, 
			 "total_energy": -800.897813516, 
			 "HOMO_LUMO_gap": 0.18114, 
			 "cosmo_polarized_energy": -19.2, 
			 "cosmo_cavitation_energy": 33.98, 
			 "cosmo_dispersion_energy": -24.53, 
			 "cosmo_repulsion_energy": 1.91, 
			 "cosmo_total_nonelectrostatic_energy": 11.36, 
			 "SMD_solvation_energy": 6.69 
		},
		"coords": [
			{
				"x": -3.6313713398,
				"y": 2.0203240369,
				"z": 1.4525543523,
				"element": "C" 
			},
			{
				"x": -2.3193401376,
				"y": 1.8904160336,
				"z": 0.9372675552,
				"element": "O" 
			},
			{
				"x": -1.8565450688,
				"y": 0.63337485,
				"z": 0.6349494255,
				"element": "C" 
			},
			{
				"x": -0.5631710985,
				"y": 0.5793146048,
				"z": 0.1166864392,
				"element": "C" 
			},
			{
				"x": -0.0097018926,
				"y": -0.6667027067,
				"z": -0.2181650192,
				"element": "C" 
			},
			{
				"x": -0.7869505189,
				"y": -1.843910377,
				"z": -0.0215138131,
				"element": "C" 
			},
			{
				"x": -0.0148202477,
				"y": -2.9153119803,
				"z": -0.4316515465,
				"element": "N" 
			},
			{
				"x": 1.2071519341,
				"y": -2.4529638221,
				"z": -0.8714659143,
				"element": "C" 
			},
			{
				"x": 1.2613115273,
				"y": -1.0817794072,
				"z": -0.7655818693,
				"element": "C" 
			},
			{
				"x": 2.4341365174,
				"y": -0.2070685534,
				"z": -1.1125829741,
				"element": "C" 
			},
			{
				"x": 3.462298929,
				"y": -0.0724250019,
				"z": 0.033079113,
				"element": "C" 
			},
			{
				"x": 2.937067016,
				"y": 0.4081556839,
				"z": 1.3228970303,
				"element": "N" 
			},
			{
				"x": 4.1947530383,
				"y": -1.4141798574,
				"z": 0.2720185613,
				"element": "C" 
			},
			{
				"x": 4.4963831139,
				"y": -1.6327820794,
				"z": 1.5569326401,
				"element": "O" 
			},
			{
				"x": 4.4953223157,
				"y": -2.1757365797,
				"z": -0.6212634652,
				"element": "O" 
			},
			{
				"x": -2.0804658594,
				"y": -1.7909436522,
				"z": 0.4953570066,
				"element": "C" 
			},
			{
				"x": -2.6115481214,
				"y": -0.5455705763,
				"z": 0.8249950962,
				"element": "C" 
			},
			{
				"x": -3.789746736,
				"y": 3.0887706632,
				"z": 1.6104539813,
				"element": "H" 
			},
			{
				"x": -3.7498594825,
				"y": 1.4964900528,
				"z": 2.4108112955,
				"element": "H" 
			},
			{
				"x": -4.387224397,
				"y": 1.6473424304,
				"z": 0.7483096276,
				"element": "H" 
			},
			{
				"x": -0.0190425867,
				"y": 1.5082854267,
				"z": -0.0227724982,
				"element": "H" 
			},
			{
				"x": -0.294016838,
				"y": -3.8821067479,
				"z": -0.4084636071,
				"element": "H" 
			},
			{
				"x": 1.9695093643,
				"y": -3.1336361749,
				"z": -1.2227149417,
				"element": "H" 
			},
			{
				"x": 2.9667032758,
				"y": -0.6129235233,
				"z": -1.9771271449,
				"element": "H" 
			},
			{
				"x": 2.085205023,
				"y": 0.7948987158,
				"z": -1.3889826897,
				"element": "H" 
			},
			{
				"x": 4.2463658674,
				"y": 0.6282860548,
				"z": -0.2839101087,
				"element": "H" 
			},
			{
				"x": 1.9819584666,
				"y": 0.0788908224,
				"z": 1.4552807904,
				"element": "H" 
			},
			{
				"x": 2.915087795,
				"y": 1.4221287049,
				"z": 1.3617986395,
				"element": "H" 
			},
			{
				"x": 4.0824866431,
				"y": -0.870125011,
				"z": 2.0333953133,
				"element": "H" 
			},
			{
				"x": -2.6687858667,
				"y": -2.6922400119,
				"z": 0.6429573045,
				"element": "H" 
			},
			{
				"x": -3.6152506354,
				"y": -0.4949720176,
				"z": 1.2285514201,
				"element": "H" 
			}
		],
		 "valence_orbital": [ 
			{
				"type": "occ",
				"energy": -0.28783,
				"method": "rhf"
			},
			{
				"type": "occ",
				"energy": -0.27467,
				"method": "rhf"
			},
			{
				"type": "occ",
				"energy": -0.24639,
				"method": "rhf"
			},
			{
				"type": "occ",
				"energy": -0.20932,
				"method": "rhf"
			},
			{
				"type": "occ",
				"energy": -0.19572,
				"method": "rhf"
			},
			{
				"type": "unocc",
				"energy": -0.01458,
				"method": "rhf"
			},
			{
				"type": "unocc",
				"energy": 0.02054,
				"method": "rhf"
			},
			{
				"type": "unocc",
				"energy": 0.03308,
				"method": "rhf"
			},
			{
				"type": "unocc",
				"energy": 0.05425,
				"method": "rhf"
			},
			{
				"type": "unocc",
				"energy": 0.08063,
				"method": "rhf"
			}
		],
		"cosmo_sigma_profile": { 
			"-0.025": 0.0,
			"-0.024": 0.0,
			"-0.023": 0.0,
			"-0.022": 0.0,
			"-0.021": 0.0,
			"-0.02": 0.0,
			"-0.019": 0.0,
			"-0.018": 0.0,
			"-0.017": 0.0,
			"-0.016": 0.338619572877,
			"-0.015": 1.46075807357,
			"-0.014": 1.41892744307,
			"-0.013": 1.11215289866,
			"-0.012": 2.19468459447,
			"-0.011": 2.40545282475,
			"-0.01": 2.96348132713,
			"-0.009": 3.18700166141,
			"-0.008": 3.96007850624,
			"-0.007": 10.0030507261,
			"-0.006": 12.7196615454,
			"-0.005": 21.6579057354,
			"-0.004": 24.6653656551,
			"-0.003": 21.5562847542,
			"-0.002": 17.0678522669,
			"-0.001": 12.382512629,
			"0.0": 12.2656602518,
			"0.001": 11.0193343721,
			"0.002": 11.5838460703,
			"0.003": 11.4757569079,
			"0.004": 13.1461197713,
			"0.005": 16.4874266875,
			"0.006": 17.4462233352,
			"0.007": 7.29694301091,
			"0.008": 3.69150772528,
			"0.009": 3.73125616712,
			"0.01": 5.5621753816,
			"0.011": 6.93594160492,
			"0.012": 4.40162210413,
			"0.013": 3.16707641097,
			"0.014": 1.20689307551,
			"0.015": 0.00521062338267,
			"0.016": 0.0,
			"0.017": 0.0,
			"0.018": 0.0,
			"0.019": 0.0,
			"0.02": 0.0,
			"0.021": 0.0,
			"0.022": 0.0,
			"0.023": 0.0,
			"0.024": 0.0,
			"0.025": 0.0
		}
	}
}
