{
	 "smiles": "OCNC(=O)NCO", 
	 "Tm": 399.15, 
	 "num_atms": 16, 
	 "gaussian": { 
		 "optdone": 1, 
		 "sigma_profile": "yes", 
		 "theory": "DFT", 
		 "functional": "B3LYP", 
		 "basiset": "6-31G**", 
		 "properties": { 
			 "R2extent": 1363.1984, 
			 "electric_dipole_moment_norm": 5.14831617522, 
			 "electric_quadrupole_moment_norm": 8.71481418677, 
			 "total_energy": -454.319331018, 
			 "HOMO_LUMO_gap": 0.28479, 
			 "cosmo_polarized_energy": -17.68, 
			 "cosmo_cavitation_energy": 19.45, 
			 "cosmo_dispersion_energy": -14.94, 
			 "cosmo_repulsion_energy": 1.29, 
			 "cosmo_total_nonelectrostatic_energy": 5.8, 
			 "SMD_solvation_energy": 3.09 
		},
		"coords": [
			{
				"x": -3.2147363707,
				"y": 1.4889530594,
				"z": 0.6679361286,
				"element": "O" 
			},
			{
				"x": -2.0757716703,
				"y": 1.7682749004,
				"z": 1.4275035149,
				"element": "C" 
			},
			{
				"x": -0.855357608,
				"y": 1.2374410782,
				"z": 0.8117221302,
				"element": "N" 
			},
			{
				"x": -0.77474192,
				"y": -0.125743649,
				"z": 0.6731741244,
				"element": "C" 
			},
			{
				"x": -1.7156037015,
				"y": -0.8840949778,
				"z": 0.9198107687,
				"element": "O" 
			},
			{
				"x": 0.4398536636,
				"y": -0.6023383884,
				"z": 0.2098964416,
				"element": "N" 
			},
			{
				"x": 1.470686893,
				"y": 0.2023411983,
				"z": -0.3633622161,
				"element": "C" 
			},
			{
				"x": 2.0693055969,
				"y": 1.0078813836,
				"z": 0.6586962479,
				"element": "O" 
			},
			{
				"x": -3.277285924,
				"y": 0.5189923909,
				"z": 0.6706821339,
				"element": "H" 
			},
			{
				"x": -2.172799895,
				"y": 1.3688361838,
				"z": 2.4493947338,
				"element": "H" 
			},
			{
				"x": -1.9673413109,
				"y": 2.8548644767,
				"z": 1.481095737,
				"element": "H" 
			},
			{
				"x": 0.0187262251,
				"y": 1.7280737583,
				"z": 0.9621438797,
				"element": "H" 
			},
			{
				"x": 0.5079559035,
				"y": -1.6072862641,
				"z": 0.1818081843,
				"element": "H" 
			},
			{
				"x": 2.2072656036,
				"y": -0.472746918,
				"z": -0.8169108997,
				"element": "H" 
			},
			{
				"x": 1.0585105997,
				"y": 0.8546904024,
				"z": -1.1485160726,
				"element": "H" 
			},
			{
				"x": 2.6439339151,
				"y": 1.6552613653,
				"z": 0.2267251634,
				"element": "H" 
			}
		],
		 "valence_orbital": [ 
			{
				"type": "occ",
				"energy": -0.30284,
				"method": "rhf"
			},
			{
				"type": "occ",
				"energy": -0.27424,
				"method": "rhf"
			},
			{
				"type": "occ",
				"energy": -0.26407,
				"method": "rhf"
			},
			{
				"type": "occ",
				"energy": -0.26125,
				"method": "rhf"
			},
			{
				"type": "occ",
				"energy": -0.25086,
				"method": "rhf"
			},
			{
				"type": "unocc",
				"energy": 0.03393,
				"method": "rhf"
			},
			{
				"type": "unocc",
				"energy": 0.06806,
				"method": "rhf"
			},
			{
				"type": "unocc",
				"energy": 0.08286,
				"method": "rhf"
			},
			{
				"type": "unocc",
				"energy": 0.11502,
				"method": "rhf"
			},
			{
				"type": "unocc",
				"energy": 0.12594,
				"method": "rhf"
			}
		],
		"cosmo_sigma_profile": { 
			"-0.025": 0.0,
			"-0.024": 0.0,
			"-0.023": 0.0,
			"-0.022": 0.0,
			"-0.021": 0.0,
			"-0.02": 0.0,
			"-0.019": 0.0,
			"-0.018": 0.0,
			"-0.017": 0.378875309837,
			"-0.016": 1.27769667603,
			"-0.015": 1.23167479399,
			"-0.014": 2.10762151141,
			"-0.013": 2.30334489844,
			"-0.012": 1.55600984831,
			"-0.011": 2.55607458611,
			"-0.01": 2.76985732354,
			"-0.009": 3.67568903568,
			"-0.008": 4.73393428716,
			"-0.007": 6.11373592325,
			"-0.006": 11.0360660809,
			"-0.005": 9.33009737245,
			"-0.004": 10.662890206,
			"-0.003": 9.384928798,
			"-0.002": 6.28158030334,
			"-0.001": 6.01983571409,
			"0.0": 6.19521357289,
			"0.001": 4.88041063485,
			"0.002": 5.56667302361,
			"0.003": 4.66334774442,
			"0.004": 4.91552218444,
			"0.005": 3.74711717236,
			"0.006": 3.82997254804,
			"0.007": 3.77483857726,
			"0.008": 3.50593789917,
			"0.009": 4.19191989083,
			"0.01": 3.77552756706,
			"0.011": 3.7608757722,
			"0.012": 4.5803639179,
			"0.013": 5.90166029968,
			"0.014": 6.222950287,
			"0.015": 0.786458682785,
			"0.016": 0.0,
			"0.017": 0.0,
			"0.018": 0.0,
			"0.019": 0.0,
			"0.02": 0.0,
			"0.021": 0.0,
			"0.022": 0.0,
			"0.023": 0.0,
			"0.024": 0.0,
			"0.025": 0.0
		}
	}
}
