{
	 "smiles": "CC(C)COC(=O)C1=CC=C(N)C=C1", 
	 "Tm": 337.65, 
	 "num_atms": 29, 
	 "gaussian": { 
		 "optdone": 1, 
		 "sigma_profile": "yes", 
		 "theory": "DFT", 
		 "functional": "B3LYP", 
		 "basiset": "6-31G**", 
		 "properties": { 
			 "R2extent": 4399.4322, 
			 "electric_dipole_moment_norm": 3.46956696722, 
			 "electric_quadrupole_moment_norm": 21.6703253035, 
			 "total_energy": -633.445887978, 
			 "HOMO_LUMO_gap": 0.1844, 
			 "cosmo_polarized_energy": -12.8, 
			 "cosmo_cavitation_energy": 32.37, 
			 "cosmo_dispersion_energy": -23.0, 
			 "cosmo_repulsion_energy": 1.83, 
			 "cosmo_total_nonelectrostatic_energy": 11.19, 
			 "SMD_solvation_energy": 6.43 
		},
		"coords": [
			{
				"x": -0.3163728271,
				"y": -2.6149922493,
				"z": 4.1434435801,
				"element": "C" 
			},
			{
				"x": -0.2157817115,
				"y": -1.5743714089,
				"z": 3.0188073507,
				"element": "C" 
			},
			{
				"x": -0.0758764637,
				"y": -0.1517328499,
				"z": 3.5755276221,
				"element": "C" 
			},
			{
				"x": -1.4319037624,
				"y": -1.7055169806,
				"z": 2.0961781605,
				"element": "C" 
			},
			{
				"x": -1.3831792239,
				"y": -0.7820959509,
				"z": 0.988161275,
				"element": "O" 
			},
			{
				"x": -0.7065554282,
				"y": -1.1956132073,
				"z": -0.116316094,
				"element": "C" 
			},
			{
				"x": -0.1630802964,
				"y": -2.2836080425,
				"z": -0.1957866064,
				"element": "O" 
			},
			{
				"x": -0.7148806553,
				"y": -0.1813493978,
				"z": -1.1945441312,
				"element": "C" 
			},
			{
				"x": -1.3626391286,
				"y": 1.0582877046,
				"z": -1.0740890733,
				"element": "C" 
			},
			{
				"x": -1.343575782,
				"y": 1.9724613885,
				"z": -2.1179008504,
				"element": "C" 
			},
			{
				"x": -0.6722049056,
				"y": 1.6741049367,
				"z": -3.3202499369,
				"element": "C" 
			},
			{
				"x": -0.6090837598,
				"y": 2.6055337966,
				"z": -4.3448489823,
				"element": "N" 
			},
			{
				"x": -0.0218795809,
				"y": 0.4292992875,
				"z": -3.4395475418,
				"element": "C" 
			},
			{
				"x": -0.0457164474,
				"y": -0.4782723024,
				"z": -2.3922559571,
				"element": "C" 
			},
			{
				"x": 0.5571274177,
				"y": -2.5619061997,
				"z": 4.8010899413,
				"element": "H" 
			},
			{
				"x": -1.2057454102,
				"y": -2.4440074402,
				"z": 4.7628229706,
				"element": "H" 
			},
			{
				"x": -0.3740188877,
				"y": -3.6340419681,
				"z": 3.7460242452,
				"element": "H" 
			},
			{
				"x": 0.6692569283,
				"y": -1.8064588783,
				"z": 2.413279286,
				"element": "H" 
			},
			{
				"x": 0.8280002145,
				"y": -0.0581904477,
				"z": 4.1866999927,
				"element": "H" 
			},
			{
				"x": -0.0188211678,
				"y": 0.5851789584,
				"z": 2.7696266636,
				"element": "H" 
			},
			{
				"x": -0.9339667376,
				"y": 0.1076245679,
				"z": 4.2085482811,
				"element": "H" 
			},
			{
				"x": -2.3528345104,
				"y": -1.4488242642,
				"z": 2.6302456657,
				"element": "H" 
			},
			{
				"x": -1.5086507503,
				"y": -2.723064207,
				"z": 1.7049217349,
				"element": "H" 
			},
			{
				"x": -1.8850978836,
				"y": 1.2985518366,
				"z": -0.1550799318,
				"element": "H" 
			},
			{
				"x": -1.8466049083,
				"y": 2.9303308489,
				"z": -2.0109313846,
				"element": "H" 
			},
			{
				"x": -0.3991836072,
				"y": 2.248761875,
				"z": -5.2656799343,
				"element": "H" 
			},
			{
				"x": -1.3199863575,
				"y": 3.3223525236,
				"z": -4.3472937541,
				"element": "H" 
			},
			{
				"x": 0.5033214322,
				"y": 0.1867109828,
				"z": -4.3600133373,
				"element": "H" 
			},
			{
				"x": 0.4512342008,
				"y": -1.4386529121,
				"z": -2.480839254,
				"element": "H" 
			}
		],
		 "valence_orbital": [ 
			{
				"type": "occ",
				"energy": -0.30917,
				"method": "rhf"
			},
			{
				"type": "occ",
				"energy": -0.28114,
				"method": "rhf"
			},
			{
				"type": "occ",
				"energy": -0.2595,
				"method": "rhf"
			},
			{
				"type": "occ",
				"energy": -0.25251,
				"method": "rhf"
			},
			{
				"type": "occ",
				"energy": -0.21012,
				"method": "rhf"
			},
			{
				"type": "unocc",
				"energy": -0.02572,
				"method": "rhf"
			},
			{
				"type": "unocc",
				"energy": -0.00047,
				"method": "rhf"
			},
			{
				"type": "unocc",
				"energy": 0.06712,
				"method": "rhf"
			},
			{
				"type": "unocc",
				"energy": 0.08155,
				"method": "rhf"
			},
			{
				"type": "unocc",
				"energy": 0.09574,
				"method": "rhf"
			}
		],
		"cosmo_sigma_profile": { 
			"-0.025": 0.0,
			"-0.024": 0.0,
			"-0.023": 0.0,
			"-0.022": 0.0,
			"-0.021": 0.0,
			"-0.02": 0.0,
			"-0.019": 0.0,
			"-0.018": 0.0,
			"-0.017": 0.0,
			"-0.016": 0.0,
			"-0.015": 0.0,
			"-0.014": 0.0516113291709,
			"-0.013": 1.98210453295,
			"-0.012": 3.03483675264,
			"-0.011": 3.2515559953,
			"-0.01": 2.85077676114,
			"-0.009": 3.31550476423,
			"-0.008": 3.24462979973,
			"-0.007": 3.33133322228,
			"-0.006": 4.57234628182,
			"-0.005": 8.74478008266,
			"-0.004": 12.4588635245,
			"-0.003": 22.4464621666,
			"-0.002": 23.5924931787,
			"-0.001": 26.4237397001,
			"0.0": 23.2136727402,
			"0.001": 25.0062747696,
			"0.002": 18.5105551659,
			"0.003": 12.9435129106,
			"0.004": 15.3609495183,
			"0.005": 15.3860301983,
			"0.006": 5.04852887661,
			"0.007": 2.80973225389,
			"0.008": 2.52679149829,
			"0.009": 2.21715655627,
			"0.01": 2.29019846928,
			"0.011": 2.7794960322,
			"0.012": 3.73731191306,
			"0.013": 3.11382121361,
			"0.014": 0.0,
			"0.015": 0.0,
			"0.016": 0.0,
			"0.017": 0.0,
			"0.018": 0.0,
			"0.019": 0.0,
			"0.02": 0.0,
			"0.021": 0.0,
			"0.022": 0.0,
			"0.023": 0.0,
			"0.024": 0.0,
			"0.025": 0.0
		}
	}
}
