{
	 "smiles": "NNC(=O)CCSC1=CC=C(F)C=C1", 
	 "Tm": 372.15, 
	 "num_atms": 25, 
	 "gaussian": { 
		 "optdone": 1, 
		 "sigma_profile": "yes", 
		 "theory": "DFT", 
		 "functional": "B3LYP", 
		 "basiset": "6-31G**", 
		 "properties": { 
			 "R2extent": 5981.4592, 
			 "electric_dipole_moment_norm": 2.1379675512, 
			 "electric_quadrupole_moment_norm": 11.6741326183, 
			 "total_energy": -1032.31794823, 
			 "HOMO_LUMO_gap": 0.20542, 
			 "cosmo_polarized_energy": -15.05, 
			 "cosmo_cavitation_energy": 31.95, 
			 "cosmo_dispersion_energy": -22.65, 
			 "cosmo_repulsion_energy": 1.77, 
			 "cosmo_total_nonelectrostatic_energy": 11.07, 
			 "SMD_solvation_energy": 6.38 
		},
		"coords": [
			{
				"x": -3.2432932807,
				"y": -1.7813490166,
				"z": 0.320538423,
				"element": "N" 
			},
			{
				"x": -1.9339198396,
				"y": -1.2683289891,
				"z": 0.2337944764,
				"element": "N" 
			},
			{
				"x": -1.3090210991,
				"y": -0.7050587672,
				"z": 1.3120185533,
				"element": "C" 
			},
			{
				"x": -1.8021042873,
				"y": -0.7353497541,
				"z": 2.4339221,
				"element": "O" 
			},
			{
				"x": 0.0275183989,
				"y": -0.0320788835,
				"z": 1.0095276137,
				"element": "C" 
			},
			{
				"x": 1.0274867222,
				"y": -0.2812097728,
				"z": 2.1393692502,
				"element": "C" 
			},
			{
				"x": 2.6007760233,
				"y": 0.6594876745,
				"z": 1.9777805453,
				"element": "S" 
			},
			{
				"x": 3.3554217228,
				"y": -0.1397238936,
				"z": 0.5581768313,
				"element": "C" 
			},
			{
				"x": 3.4298177339,
				"y": 0.5330034112,
				"z": -0.6697709361,
				"element": "C" 
			},
			{
				"x": 4.0566193073,
				"y": -0.0565059082,
				"z": -1.7687178211,
				"element": "C" 
			},
			{
				"x": 4.5976475281,
				"y": -1.3286358324,
				"z": -1.6248757902,
				"element": "C" 
			},
			{
				"x": 5.1985269937,
				"y": -1.9074508299,
				"z": -2.6837358911,
				"element": "F" 
			},
			{
				"x": 4.5419247611,
				"y": -2.0227021789,
				"z": -0.4200378225,
				"element": "C" 
			},
			{
				"x": 3.9271346161,
				"y": -1.4162240994,
				"z": 0.6739735147,
				"element": "C" 
			},
			{
				"x": -3.1935172585,
				"y": -2.65786439,
				"z": 0.8393374103,
				"element": "H" 
			},
			{
				"x": -3.7730366391,
				"y": -1.1473683238,
				"z": 0.9198576422,
				"element": "H" 
			},
			{
				"x": -1.6010965845,
				"y": -1.1046106034,
				"z": -0.7049417866,
				"element": "H" 
			},
			{
				"x": 0.4349052618,
				"y": -0.3718230266,
				"z": 0.0509951585,
				"element": "H" 
			},
			{
				"x": -0.1540401813,
				"y": 1.0459263208,
				"z": 0.9195376048,
				"element": "H" 
			},
			{
				"x": 0.5940537679,
				"y": 0.0411032677,
				"z": 3.0891007985,
				"element": "H" 
			},
			{
				"x": 1.258719896,
				"y": -1.3462698021,
				"z": 2.2315132126,
				"element": "H" 
			},
			{
				"x": 2.9976434608,
				"y": 1.5241044596,
				"z": -0.7615539307,
				"element": "H" 
			},
			{
				"x": 4.1261232132,
				"y": 0.4513797003,
				"z": -2.7246213457,
				"element": "H" 
			},
			{
				"x": 4.986996089,
				"y": -3.0093122594,
				"z": -0.3487378393,
				"element": "H" 
			},
			{
				"x": 3.8968136739,
				"y": -1.932738503,
				"z": 1.6282500284,
				"element": "H" 
			}
		],
		 "valence_orbital": [ 
			{
				"type": "occ",
				"energy": -0.27153,
				"method": "rhf"
			},
			{
				"type": "occ",
				"energy": -0.26264,
				"method": "rhf"
			},
			{
				"type": "occ",
				"energy": -0.2596,
				"method": "rhf"
			},
			{
				"type": "occ",
				"energy": -0.25579,
				"method": "rhf"
			},
			{
				"type": "occ",
				"energy": -0.22884,
				"method": "rhf"
			},
			{
				"type": "unocc",
				"energy": -0.02342,
				"method": "rhf"
			},
			{
				"type": "unocc",
				"energy": -0.02032,
				"method": "rhf"
			},
			{
				"type": "unocc",
				"energy": 0.01577,
				"method": "rhf"
			},
			{
				"type": "unocc",
				"energy": 0.04772,
				"method": "rhf"
			},
			{
				"type": "unocc",
				"energy": 0.06915,
				"method": "rhf"
			}
		],
		"cosmo_sigma_profile": { 
			"-0.025": 0.0,
			"-0.024": 0.0,
			"-0.023": 0.0,
			"-0.022": 0.0,
			"-0.021": 0.0,
			"-0.02": 0.0,
			"-0.019": 0.0,
			"-0.018": 0.0,
			"-0.017": 0.0,
			"-0.016": 0.0,
			"-0.015": 0.206850971964,
			"-0.014": 1.12772991994,
			"-0.013": 1.16926289669,
			"-0.012": 1.39822392907,
			"-0.011": 3.14274389048,
			"-0.01": 4.1856122239,
			"-0.009": 2.9448706492,
			"-0.008": 3.89921747984,
			"-0.007": 9.02565817623,
			"-0.006": 13.422733197,
			"-0.005": 17.8116391401,
			"-0.004": 15.662868373,
			"-0.003": 16.3781784182,
			"-0.002": 13.262921052,
			"-0.001": 15.9052640069,
			"0.0": 18.6051088475,
			"0.001": 18.78078227,
			"0.002": 17.7878968766,
			"0.003": 19.954914159,
			"0.004": 17.6919691436,
			"0.005": 8.03048695278,
			"0.006": 4.76531211899,
			"0.007": 4.76196260101,
			"0.008": 4.39406217465,
			"0.009": 3.0377166575,
			"0.01": 2.46463715005,
			"0.011": 2.35031610535,
			"0.012": 2.73010532737,
			"0.013": 4.45781913115,
			"0.014": 3.96142599348,
			"0.015": 0.884079748804,
			"0.016": 0.456910341163,
			"0.017": 0.215123099401,
			"0.018": 0.0,
			"0.019": 0.0,
			"0.02": 0.0,
			"0.021": 0.0,
			"0.022": 0.0,
			"0.023": 0.0,
			"0.024": 0.0,
			"0.025": 0.0
		}
	}
}
