{
	 "smiles": "CNC(=O)C1=CC(=C(NC)C=C1)[N+]([O-])=O", 
	 "Tm": 481.15, 
	 "num_atms": 26, 
	 "gaussian": { 
		 "optdone": 1, 
		 "sigma_profile": "yes", 
		 "theory": "DFT", 
		 "functional": "B3LYP", 
		 "basiset": "6-31G**", 
		 "properties": { 
			 "R2extent": 3846.7359, 
			 "electric_dipole_moment_norm": 7.94190291366, 
			 "electric_quadrupole_moment_norm": 11.247329864, 
			 "total_energy": -739.41340192, 
			 "HOMO_LUMO_gap": 0.14653, 
			 "cosmo_polarized_energy": -21.57, 
			 "cosmo_cavitation_energy": 30.25, 
			 "cosmo_dispersion_energy": -21.92, 
			 "cosmo_repulsion_energy": 1.72, 
			 "cosmo_total_nonelectrostatic_energy": 10.05, 
			 "SMD_solvation_energy": 7.14 
		},
		"coords": [
			{
				"x": -0.3545894279,
				"y": -1.3085169855,
				"z": 3.5918112816,
				"element": "C" 
			},
			{
				"x": 1.0344486873,
				"y": -1.0210843578,
				"z": 3.2605218596,
				"element": "N" 
			},
			{
				"x": 1.5523839378,
				"y": -0.5627479177,
				"z": 2.0699112929,
				"element": "C" 
			},
			{
				"x": 2.7253296706,
				"y": -0.7771045262,
				"z": 1.7766412055,
				"element": "O" 
			},
			{
				"x": 0.6646655825,
				"y": 0.2335011258,
				"z": 1.1611423682,
				"element": "C" 
			},
			{
				"x": 0.9382505489,
				"y": 0.1932386909,
				"z": -0.2018484624,
				"element": "C" 
			},
			{
				"x": 0.2167690708,
				"y": 0.965591552,
				"z": -1.114079664,
				"element": "C" 
			},
			{
				"x": -0.8607422422,
				"y": 1.7949930493,
				"z": -0.6994738462,
				"element": "C" 
			},
			{
				"x": -1.7136562954,
				"y": 2.4895072995,
				"z": -1.5139816127,
				"element": "N" 
			},
			{
				"x": -2.0694522889,
				"y": 2.1771761141,
				"z": -2.8918170082,
				"element": "C" 
			},
			{
				"x": -1.0751489955,
				"y": 1.8650676263,
				"z": 0.701767535,
				"element": "C" 
			},
			{
				"x": -0.3402259871,
				"y": 1.1172505047,
				"z": 1.6010803059,
				"element": "C" 
			},
			{
				"x": 0.7289480677,
				"y": 0.96386363,
				"z": -2.483386489,
				"element": "N" 
			},
			{
				"x": 1.237241132,
				"y": -0.0745050008,
				"z": -2.9086367042,
				"element": "O" 
			},
			{
				"x": 0.6792976501,
				"y": 2.0245073902,
				"z": -3.1143803659,
				"element": "O" 
			},
			{
				"x": -0.9803766275,
				"y": -1.2461172308,
				"z": 2.7002388142,
				"element": "H" 
			},
			{
				"x": -0.438013612,
				"y": -2.3260963497,
				"z": 3.986793143,
				"element": "H" 
			},
			{
				"x": -0.7562152943,
				"y": -0.6193991322,
				"z": 4.3459452558,
				"element": "H" 
			},
			{
				"x": 1.7390763003,
				"y": -1.5161661485,
				"z": 3.7919441312,
				"element": "H" 
			},
			{
				"x": 1.7547664028,
				"y": -0.4181782615,
				"z": -0.5657103424,
				"element": "H" 
			},
			{
				"x": -2.4109554588,
				"y": 3.0124916867,
				"z": -1.0067375909,
				"element": "H" 
			},
			{
				"x": -3.100695205,
				"y": 2.4994929201,
				"z": -3.0559043235,
				"element": "H" 
			},
			{
				"x": -1.4153819801,
				"y": 2.6735422702,
				"z": -3.6117909376,
				"element": "H" 
			},
			{
				"x": -2.0194384357,
				"y": 1.0976395403,
				"z": -3.0746647938,
				"element": "H" 
			},
			{
				"x": -1.8648110667,
				"y": 2.5178468104,
				"z": 1.0660810887,
				"element": "H" 
			},
			{
				"x": -0.5431741337,
				"y": 1.2282057001,
				"z": 2.6612338592,
				"element": "H" 
			}
		],
		 "valence_orbital": [ 
			{
				"type": "occ",
				"energy": -0.29277,
				"method": "rhf"
			},
			{
				"type": "occ",
				"energy": -0.26831,
				"method": "rhf"
			},
			{
				"type": "occ",
				"energy": -0.25788,
				"method": "rhf"
			},
			{
				"type": "occ",
				"energy": -0.24567,
				"method": "rhf"
			},
			{
				"type": "occ",
				"energy": -0.22083,
				"method": "rhf"
			},
			{
				"type": "unocc",
				"energy": -0.0743,
				"method": "rhf"
			},
			{
				"type": "unocc",
				"energy": -0.0327,
				"method": "rhf"
			},
			{
				"type": "unocc",
				"energy": -0.00861,
				"method": "rhf"
			},
			{
				"type": "unocc",
				"energy": 0.05093,
				"method": "rhf"
			},
			{
				"type": "unocc",
				"energy": 0.058,
				"method": "rhf"
			}
		],
		"cosmo_sigma_profile": { 
			"-0.025": 0.0,
			"-0.024": 0.0,
			"-0.023": 0.0,
			"-0.022": 0.0,
			"-0.021": 0.0,
			"-0.02": 0.0,
			"-0.019": 0.0,
			"-0.018": 0.0,
			"-0.017": 0.0,
			"-0.016": 0.0,
			"-0.015": 0.72009159885,
			"-0.014": 1.65393894308,
			"-0.013": 2.75774431361,
			"-0.012": 2.47575693175,
			"-0.011": 2.26872008956,
			"-0.01": 3.09388947331,
			"-0.009": 2.92286391901,
			"-0.008": 2.52111276354,
			"-0.007": 7.12294228704,
			"-0.006": 12.4971174169,
			"-0.005": 15.4164332253,
			"-0.004": 16.4245193604,
			"-0.003": 22.0458436963,
			"-0.002": 23.2834008384,
			"-0.001": 14.4272838569,
			"0.0": 12.0600452881,
			"0.001": 14.3059697808,
			"0.002": 13.3713035534,
			"0.003": 9.26843842114,
			"0.004": 5.68181930311,
			"0.005": 5.61404849868,
			"0.006": 5.67857166716,
			"0.007": 6.46774481479,
			"0.008": 10.0496048581,
			"0.009": 8.42965455307,
			"0.01": 5.21268985278,
			"0.011": 2.94914606571,
			"0.012": 1.65512844591,
			"0.013": 3.30925006471,
			"0.014": 5.29961085376,
			"0.015": 0.990958028983,
			"0.016": 0.0,
			"0.017": 0.0,
			"0.018": 0.0,
			"0.019": 0.0,
			"0.02": 0.0,
			"0.021": 0.0,
			"0.022": 0.0,
			"0.023": 0.0,
			"0.024": 0.0,
			"0.025": 0.0
		}
	}
}
