{
	 "smiles": "OC1=NC(=CC=N1)C(F)(F)F", 
	 "Tm": 491.15, 
	 "num_atms": 14, 
	 "gaussian": { 
		 "optdone": 1, 
		 "sigma_profile": "yes", 
		 "theory": "DFT", 
		 "functional": "B3LYP", 
		 "basiset": "6-31G**", 
		 "properties": { 
			 "R2extent": 2180.0636, 
			 "electric_dipole_moment_norm": 1.09348605844, 
			 "electric_quadrupole_moment_norm": 11.1436481473, 
			 "total_energy": -676.588866774, 
			 "HOMO_LUMO_gap": 0.20766, 
			 "cosmo_polarized_energy": -9.44, 
			 "cosmo_cavitation_energy": 20.62, 
			 "cosmo_dispersion_energy": -15.03, 
			 "cosmo_repulsion_energy": 1.16, 
			 "cosmo_total_nonelectrostatic_energy": 6.75, 
			 "SMD_solvation_energy": 2.67 
		},
		"coords": [
			{
				"x": 0.113182265,
				"y": 2.0723934993,
				"z": -0.0473186584,
				"element": "O" 
			},
			{
				"x": 0.3733240145,
				"y": 0.859674167,
				"z": -0.5516920707,
				"element": "C" 
			},
			{
				"x": -0.6081292978,
				"y": -0.0467617747,
				"z": -0.4988517721,
				"element": "N" 
			},
			{
				"x": -0.3181806353,
				"y": -1.2456363937,
				"z": -1.0093742404,
				"element": "C" 
			},
			{
				"x": 0.9174737719,
				"y": -1.5522373911,
				"z": -1.5644451774,
				"element": "C" 
			},
			{
				"x": 1.8544491335,
				"y": -0.5135901408,
				"z": -1.5565137565,
				"element": "C" 
			},
			{
				"x": 1.6017070998,
				"y": 0.6945491191,
				"z": -1.056462364,
				"element": "N" 
			},
			{
				"x": -1.4421815169,
				"y": -2.264307287,
				"z": -0.942559092,
				"element": "C" 
			},
			{
				"x": -1.8139934349,
				"y": -2.488766701,
				"z": 0.329926519,
				"element": "F" 
			},
			{
				"x": -1.0622683039,
				"y": -3.4442395243,
				"z": -1.4768645813,
				"element": "F" 
			},
			{
				"x": -2.5222897619,
				"y": -1.8347281938,
				"z": -1.6183814256,
				"element": "F" 
			},
			{
				"x": -0.8002580018,
				"y": 2.0480163163,
				"z": 0.2783639735,
				"element": "H" 
			},
			{
				"x": 1.1382793472,
				"y": -2.5282447555,
				"z": -1.9743245348,
				"element": "H" 
			},
			{
				"x": 2.8499853206,
				"y": -0.6623209397,
				"z": -1.9706028194,
				"element": "H" 
			}
		],
		 "valence_orbital": [ 
			{
				"type": "occ",
				"energy": -0.37919,
				"method": "rhf"
			},
			{
				"type": "occ",
				"energy": -0.3398,
				"method": "rhf"
			},
			{
				"type": "occ",
				"energy": -0.33848,
				"method": "rhf"
			},
			{
				"type": "occ",
				"energy": -0.27662,
				"method": "rhf"
			},
			{
				"type": "occ",
				"energy": -0.27575,
				"method": "rhf"
			},
			{
				"type": "unocc",
				"energy": -0.06809,
				"method": "rhf"
			},
			{
				"type": "unocc",
				"energy": -0.02911,
				"method": "rhf"
			},
			{
				"type": "unocc",
				"energy": 0.07589,
				"method": "rhf"
			},
			{
				"type": "unocc",
				"energy": 0.10148,
				"method": "rhf"
			},
			{
				"type": "unocc",
				"energy": 0.10679,
				"method": "rhf"
			}
		],
		"cosmo_sigma_profile": { 
			"-0.025": 0.0,
			"-0.024": 0.0,
			"-0.023": 0.0,
			"-0.022": 0.0,
			"-0.021": 0.0,
			"-0.02": 0.0,
			"-0.019": 0.201559985859,
			"-0.018": 0.817252911335,
			"-0.017": 0.984198571924,
			"-0.016": 0.69268008154,
			"-0.015": 0.693549404204,
			"-0.014": 0.540940074044,
			"-0.013": 0.350444218782,
			"-0.012": 0.832515575153,
			"-0.011": 0.655589401764,
			"-0.01": 0.491604966327,
			"-0.009": 3.11366294527,
			"-0.008": 5.77259540955,
			"-0.007": 4.36099237259,
			"-0.006": 3.65154708231,
			"-0.005": 6.06744479304,
			"-0.004": 9.60502415066,
			"-0.003": 11.3551900192,
			"-0.002": 11.5086588326,
			"-0.001": 11.2873979175,
			"0.0": 7.95111654662,
			"0.001": 10.5702178318,
			"0.002": 29.4378115992,
			"0.003": 14.0973782684,
			"0.004": 4.45512272385,
			"0.005": 4.64732524763,
			"0.006": 3.91630978214,
			"0.007": 2.49142308216,
			"0.008": 3.65476660449,
			"0.009": 3.31185031848,
			"0.01": 3.33037434087,
			"0.011": 2.13589077524,
			"0.012": 1.37263234337,
			"0.013": 0.686764437317,
			"0.014": 1.09363641497,
			"0.015": 0.167678762784,
			"0.016": 0.0,
			"0.017": 0.0,
			"0.018": 0.0,
			"0.019": 0.0,
			"0.02": 0.0,
			"0.021": 0.0,
			"0.022": 0.0,
			"0.023": 0.0,
			"0.024": 0.0,
			"0.025": 0.0
		}
	}
}
