{
	 "smiles": "OC(=O)COC1=C(C=O)C=C(Br)C=C1", 
	 "Tm": 444.15, 
	 "num_atms": 21, 
	 "gaussian": { 
		 "optdone": 1, 
		 "sigma_profile": "yes", 
		 "theory": "DFT", 
		 "functional": "B3LYP", 
		 "basiset": "6-31G**", 
		 "properties": { 
			 "R2extent": 5834.0754, 
			 "electric_dipole_moment_norm": 3.91093407513, 
			 "electric_quadrupole_moment_norm": 11.3940615002, 
			 "total_energy": -3219.45640952, 
			 "HOMO_LUMO_gap": 0.16874, 
			 "cosmo_polarized_energy": -18.56, 
			 "cosmo_cavitation_energy": 29.16, 
			 "cosmo_dispersion_energy": -21.2, 
			 "cosmo_repulsion_energy": 1.7, 
			 "cosmo_total_nonelectrostatic_energy": 9.66, 
			 "SMD_solvation_energy": 6.41 
		},
		"coords": [
			{
				"x": -3.134551561,
				"y": -1.3412152287,
				"z": 1.2866705384,
				"element": "O" 
			},
			{
				"x": -2.21940031,
				"y": -0.6696262644,
				"z": 0.5510137815,
				"element": "C" 
			},
			{
				"x": -1.9920978237,
				"y": -0.8887855176,
				"z": -0.6126627492,
				"element": "O" 
			},
			{
				"x": -1.5385983899,
				"y": 0.3862537275,
				"z": 1.4152478953,
				"element": "C" 
			},
			{
				"x": -0.6666233353,
				"y": 1.2119592852,
				"z": 0.6815007707,
				"element": "O" 
			},
			{
				"x": 0.5682705505,
				"y": 0.7731036752,
				"z": 0.3342213995,
				"element": "C" 
			},
			{
				"x": 1.4094894214,
				"y": 1.7025003061,
				"z": -0.3276584358,
				"element": "C" 
			},
			{
				"x": 1.0211968742,
				"y": 3.0955880749,
				"z": -0.6607330943,
				"element": "C" 
			},
			{
				"x": -0.0295272195,
				"y": 3.6461836167,
				"z": -0.4061225012,
				"element": "O" 
			},
			{
				"x": 2.7031353644,
				"y": 1.3089665112,
				"z": -0.696446753,
				"element": "C" 
			},
			{
				"x": 3.168360587,
				"y": 0.0315632066,
				"z": -0.4162710343,
				"element": "C" 
			},
			{
				"x": 4.9370204571,
				"y": -0.477965522,
				"z": -0.9245577063,
				"element": "Br" 
			},
			{
				"x": 2.3419541203,
				"y": -0.882229893,
				"z": 0.2340158127,
				"element": "C" 
			},
			{
				"x": 1.0495167183,
				"y": -0.5141002191,
				"z": 0.6045864904,
				"element": "C" 
			},
			{
				"x": -3.5467617587,
				"y": -1.9917557131,
				"z": 0.6932932256,
				"element": "H" 
			},
			{
				"x": -2.3085748773,
				"y": 1.0481917553,
				"z": 1.8209668325,
				"element": "H" 
			},
			{
				"x": -1.044251988,
				"y": -0.1011238443,
				"z": 2.2659744134,
				"element": "H" 
			},
			{
				"x": 1.8308548013,
				"y": 3.6411586893,
				"z": -1.1988096884,
				"element": "H" 
			},
			{
				"x": 3.3434596786,
				"y": 2.023449352,
				"z": -1.2046692879,
				"element": "H" 
			},
			{
				"x": 2.698910934,
				"y": -1.8835651627,
				"z": 0.4470757838,
				"element": "H" 
			},
			{
				"x": 0.4223177562,
				"y": -1.2527508351,
				"z": 1.0873643065,
				"element": "H" 
			}
		],
		 "valence_orbital": [ 
			{
				"type": "occ",
				"energy": -0.29447,
				"method": "rhf"
			},
			{
				"type": "occ",
				"energy": -0.2938,
				"method": "rhf"
			},
			{
				"type": "occ",
				"energy": -0.2778,
				"method": "rhf"
			},
			{
				"type": "occ",
				"energy": -0.24876,
				"method": "rhf"
			},
			{
				"type": "occ",
				"energy": -0.23449,
				"method": "rhf"
			},
			{
				"type": "unocc",
				"energy": -0.06575,
				"method": "rhf"
			},
			{
				"type": "unocc",
				"energy": -0.01725,
				"method": "rhf"
			},
			{
				"type": "unocc",
				"energy": -0.01154,
				"method": "rhf"
			},
			{
				"type": "unocc",
				"energy": 0.00074,
				"method": "rhf"
			},
			{
				"type": "unocc",
				"energy": 0.03212,
				"method": "rhf"
			}
		],
		"cosmo_sigma_profile": { 
			"-0.025": 0.0,
			"-0.024": 0.0,
			"-0.023": 0.0,
			"-0.022": 0.0,
			"-0.021": 0.0,
			"-0.02": 0.0,
			"-0.019": 0.426791576615,
			"-0.018": 1.19071280081,
			"-0.017": 0.840879223897,
			"-0.016": 0.921366910592,
			"-0.015": 0.438545301773,
			"-0.014": 0.941835794706,
			"-0.013": 0.517462629072,
			"-0.012": 1.11328396491,
			"-0.011": 1.88209024006,
			"-0.01": 2.1998122673,
			"-0.009": 7.21777066063,
			"-0.008": 10.9058271378,
			"-0.007": 11.6540547002,
			"-0.006": 10.7840295791,
			"-0.005": 10.5917876957,
			"-0.004": 11.3855399462,
			"-0.003": 10.4331695988,
			"-0.002": 11.4144921801,
			"-0.001": 11.0096579295,
			"0.0": 16.2132903432,
			"0.001": 20.8957078554,
			"0.002": 15.6569962316,
			"0.003": 10.9555993168,
			"0.004": 16.2291123651,
			"0.005": 7.87101521653,
			"0.006": 4.82880962018,
			"0.007": 4.40977825658,
			"0.008": 5.96747801726,
			"0.009": 5.10015564515,
			"0.01": 6.25289641993,
			"0.011": 8.98570104507,
			"0.012": 4.25117636887,
			"0.013": 2.33169777547,
			"0.014": 1.09687528204,
			"0.015": 0.0143186232202,
			"0.016": 0.0,
			"0.017": 0.0,
			"0.018": 0.0,
			"0.019": 0.0,
			"0.02": 0.0,
			"0.021": 0.0,
			"0.022": 0.0,
			"0.023": 0.0,
			"0.024": 0.0,
			"0.025": 0.0
		}
	}
}
