{
	 "smiles": "OC(=O)C1=CSC(=C1)C1=CC=CC=C1", 
	 "Tm": 458.15, 
	 "num_atms": 22, 
	 "gaussian": { 
		 "optdone": 1, 
		 "sigma_profile": "yes", 
		 "theory": "DFT", 
		 "functional": "B3LYP", 
		 "basiset": "6-31G**", 
		 "properties": { 
			 "R2extent": 4036.214, 
			 "electric_dipole_moment_norm": 5.25666065197, 
			 "electric_quadrupole_moment_norm": 22.1256177498, 
			 "total_energy": -972.626149079, 
			 "HOMO_LUMO_gap": 0.17394, 
			 "cosmo_polarized_energy": -14.96, 
			 "cosmo_cavitation_energy": 28.5, 
			 "cosmo_dispersion_energy": -21.44, 
			 "cosmo_repulsion_energy": 1.62, 
			 "cosmo_total_nonelectrostatic_energy": 8.68, 
			 "SMD_solvation_energy": 5.81 
		},
		"coords": [
			{
				"x": -4.3593888939,
				"y": 1.4581093478,
				"z": 0.1220471832,
				"element": "O" 
			},
			{
				"x": -3.9369451802,
				"y": 0.9624555646,
				"z": -1.0734357765,
				"element": "C" 
			},
			{
				"x": -4.7129975569,
				"y": 0.862248556,
				"z": -1.9944670302,
				"element": "O" 
			},
			{
				"x": -2.5025688155,
				"y": 0.5697610675,
				"z": -1.1603635045,
				"element": "C" 
			},
			{
				"x": -1.9241805592,
				"y": 0.3247278,
				"z": -2.3826344247,
				"element": "C" 
			},
			{
				"x": -0.2651126139,
				"y": -0.1018492802,
				"z": -2.2335922567,
				"element": "S" 
			},
			{
				"x": -0.3137661867,
				"y": 0.0401631607,
				"z": -0.4839648046,
				"element": "C" 
			},
			{
				"x": -1.5768967914,
				"y": 0.4009817769,
				"z": -0.0804736476,
				"element": "C" 
			},
			{
				"x": 0.8711709562,
				"y": -0.2295924275,
				"z": 0.3423969207,
				"element": "C" 
			},
			{
				"x": 0.7236876068,
				"y": -0.7431152727,
				"z": 1.6438854656,
				"element": "C" 
			},
			{
				"x": 1.8382180304,
				"y": -0.9832638221,
				"z": 2.4441162129,
				"element": "C" 
			},
			{
				"x": 3.1228580641,
				"y": -0.7303474348,
				"z": 1.9578438551,
				"element": "C" 
			},
			{
				"x": 3.2830139676,
				"y": -0.2312667887,
				"z": 0.6638806402,
				"element": "C" 
			},
			{
				"x": 2.1696462184,
				"y": 0.0212057319,
				"z": -0.1350397313,
				"element": "C" 
			},
			{
				"x": -3.6088591503,
				"y": 1.5983566924,
				"z": 0.7151338924,
				"element": "H" 
			},
			{
				"x": -2.4122069683,
				"y": 0.3806736414,
				"z": -3.3452201686,
				"element": "H" 
			},
			{
				"x": -1.820760351,
				"y": 0.5330014042,
				"z": 0.9688324172,
				"element": "H" 
			},
			{
				"x": -0.2685340587,
				"y": -0.9771217325,
				"z": 2.0175014273,
				"element": "H" 
			},
			{
				"x": 1.7033611046,
				"y": -1.3821963927,
				"z": 3.4452982674,
				"element": "H" 
			},
			{
				"x": 3.991051446,
				"y": -0.9240049952,
				"z": 2.58058557,
				"element": "H" 
			},
			{
				"x": 4.2773279175,
				"y": -0.0283625682,
				"z": 0.2770110259,
				"element": "H" 
			},
			{
				"x": 2.3058818145,
				"y": 0.4353359713,
				"z": -1.130041533,
				"element": "H" 
			}
		],
		 "valence_orbital": [ 
			{
				"type": "occ",
				"energy": -0.28909,
				"method": "rhf"
			},
			{
				"type": "occ",
				"energy": -0.27542,
				"method": "rhf"
			},
			{
				"type": "occ",
				"energy": -0.27112,
				"method": "rhf"
			},
			{
				"type": "occ",
				"energy": -0.2656,
				"method": "rhf"
			},
			{
				"type": "occ",
				"energy": -0.23101,
				"method": "rhf"
			},
			{
				"type": "unocc",
				"energy": -0.05707,
				"method": "rhf"
			},
			{
				"type": "unocc",
				"energy": -0.03071,
				"method": "rhf"
			},
			{
				"type": "unocc",
				"energy": -0.01786,
				"method": "rhf"
			},
			{
				"type": "unocc",
				"energy": 0.01345,
				"method": "rhf"
			},
			{
				"type": "unocc",
				"energy": 0.02482,
				"method": "rhf"
			}
		],
		"cosmo_sigma_profile": { 
			"-0.025": 0.0,
			"-0.024": 0.0,
			"-0.023": 0.0,
			"-0.022": 0.0,
			"-0.021": 0.0,
			"-0.02": 0.0,
			"-0.019": 0.318584742674,
			"-0.018": 0.992945754222,
			"-0.017": 1.1383030169,
			"-0.016": 0.623071953824,
			"-0.015": 1.12688033545,
			"-0.014": 1.01886240691,
			"-0.013": 1.0091764334,
			"-0.012": 1.10473742107,
			"-0.011": 1.8006304936,
			"-0.01": 0.859987409789,
			"-0.009": 3.16859818142,
			"-0.008": 3.06628997668,
			"-0.007": 5.26727801779,
			"-0.006": 12.27683363,
			"-0.005": 12.7881021231,
			"-0.004": 15.7324974499,
			"-0.003": 13.3329513209,
			"-0.002": 13.2515753647,
			"-0.001": 12.9246933262,
			"0.0": 14.9089856956,
			"0.001": 21.2032045571,
			"0.002": 24.9858771302,
			"0.003": 17.0977349881,
			"0.004": 11.7451913699,
			"0.005": 11.4137581172,
			"0.006": 3.00995743608,
			"0.007": 2.26660463,
			"0.008": 2.4022731118,
			"0.009": 3.99217198949,
			"0.01": 4.19469065747,
			"0.011": 5.19995105729,
			"0.012": 5.32296352091,
			"0.013": 1.79445150291,
			"0.014": 0.139228620344,
			"0.015": 0.0,
			"0.016": 0.0,
			"0.017": 0.0,
			"0.018": 0.0,
			"0.019": 0.0,
			"0.02": 0.0,
			"0.021": 0.0,
			"0.022": 0.0,
			"0.023": 0.0,
			"0.024": 0.0,
			"0.025": 0.0
		}
	}
}
