{
	 "smiles": "ClCC(=O)N1CCCC1C1=CC2=C(OCCO2)C=C1", 
	 "Tm": 441.15, 
	 "num_atms": 35, 
	 "gaussian": { 
		 "optdone": 1, 
		 "sigma_profile": "yes", 
		 "theory": "DFT", 
		 "functional": "B3LYP", 
		 "basiset": "6-31G**", 
		 "properties": { 
			 "R2extent": 7000.4492, 
			 "electric_dipole_moment_norm": 6.86965832193, 
			 "electric_quadrupole_moment_norm": 27.2830191775, 
			 "total_energy": -1283.74279817, 
			 "HOMO_LUMO_gap": 0.20694, 
			 "cosmo_polarized_energy": -17.84, 
			 "cosmo_cavitation_energy": 38.39, 
			 "cosmo_dispersion_energy": -27.64, 
			 "cosmo_repulsion_energy": 2.17, 
			 "cosmo_total_nonelectrostatic_energy": 12.91, 
			 "SMD_solvation_energy": 6.53 
		},
		"coords": [
			{
				"x": 1.969757851,
				"y": -2.4640994221,
				"z": -3.7004581849,
				"element": "Cl" 
			},
			{
				"x": 1.8376174256,
				"y": -1.5404188255,
				"z": -2.1692304577,
				"element": "C" 
			},
			{
				"x": 2.8913775583,
				"y": -0.4268135947,
				"z": -2.0693300552,
				"element": "C" 
			},
			{
				"x": 3.5748571806,
				"y": -0.0754818564,
				"z": -3.0188031713,
				"element": "O" 
			},
			{
				"x": 3.0018397133,
				"y": 0.1662288932,
				"z": -0.835574983,
				"element": "N" 
			},
			{
				"x": 4.0970362391,
				"y": 1.1272722823,
				"z": -0.6106905717,
				"element": "C" 
			},
			{
				"x": 4.3960588718,
				"y": 0.9777329803,
				"z": 0.8840511346,
				"element": "C" 
			},
			{
				"x": 3.0151597609,
				"y": 0.671453446,
				"z": 1.475689249,
				"element": "C" 
			},
			{
				"x": 2.3393216578,
				"y": -0.2457812018,
				"z": 0.4224750138,
				"element": "C" 
			},
			{
				"x": 0.8242473349,
				"y": -0.1182717473,
				"z": 0.4235987252,
				"element": "C" 
			},
			{
				"x": 0.0529378549,
				"y": -1.0728773944,
				"z": 1.0909353299,
				"element": "C" 
			},
			{
				"x": -1.3349511972,
				"y": -0.9484599745,
				"z": 1.1665168488,
				"element": "C" 
			},
			{
				"x": -1.9708840865,
				"y": 0.1529138681,
				"z": 0.5693321935,
				"element": "C" 
			},
			{
				"x": -3.3315928663,
				"y": 0.3235415648,
				"z": 0.6242693466,
				"element": "O" 
			},
			{
				"x": -3.9754266211,
				"y": -0.4874499877,
				"z": 1.6078284206,
				"element": "C" 
			},
			{
				"x": -3.4418194464,
				"y": -1.9095836096,
				"z": 1.5465495257,
				"element": "C" 
			},
			{
				"x": -2.0409844457,
				"y": -1.9224178058,
				"z": 1.8276936809,
				"element": "O" 
			},
			{
				"x": -1.2053975592,
				"y": 1.0998187183,
				"z": -0.1135610736,
				"element": "C" 
			},
			{
				"x": 0.1786525162,
				"y": 0.9672196213,
				"z": -0.1873643731,
				"element": "C" 
			},
			{
				"x": 0.8355064647,
				"y": -1.1111875798,
				"z": -2.1269808209,
				"element": "H" 
			},
			{
				"x": 1.931833236,
				"y": -2.2549474594,
				"z": -1.349565419,
				"element": "H" 
			},
			{
				"x": 4.9337722999,
				"y": 0.8830302644,
				"z": -1.2672179959,
				"element": "H" 
			},
			{
				"x": 3.7709057202,
				"y": 2.1466951017,
				"z": -0.8566683869,
				"element": "H" 
			},
			{
				"x": 4.8555289266,
				"y": 1.872401138,
				"z": 1.313064762,
				"element": "H" 
			},
			{
				"x": 5.0794778223,
				"y": 0.1366111657,
				"z": 1.0475632339,
				"element": "H" 
			},
			{
				"x": 3.044969151,
				"y": 0.1941808892,
				"z": 2.4586807035,
				"element": "H" 
			},
			{
				"x": 2.431169719,
				"y": 1.5931337413,
				"z": 1.5722082192,
				"element": "H" 
			},
			{
				"x": 2.5969561639,
				"y": -1.2914224805,
				"z": 0.6475097916,
				"element": "H" 
			},
			{
				"x": 0.5113810999,
				"y": -1.9391542052,
				"z": 1.5602125105,
				"element": "H" 
			},
			{
				"x": -3.804435724,
				"y": -0.066964665,
				"z": 2.6082599704,
				"element": "H" 
			},
			{
				"x": -5.044856455,
				"y": -0.4543179769,
				"z": 1.3854228079,
				"element": "H" 
			},
			{
				"x": -3.6261882994,
				"y": -2.3361756972,
				"z": 0.5512855607,
				"element": "H" 
			},
			{
				"x": -3.9147138407,
				"y": -2.5445561733,
				"z": 2.2997752116,
				"element": "H" 
			},
			{
				"x": -1.7181445691,
				"y": 1.9363395633,
				"z": -0.5775248208,
				"element": "H" 
			},
			{
				"x": 0.7615305425,
				"y": 1.7069084192,
				"z": -0.7274519261,
				"element": "H" 
			}
		],
		 "valence_orbital": [ 
			{
				"type": "occ",
				"energy": -0.28531,
				"method": "rhf"
			},
			{
				"type": "occ",
				"energy": -0.24888,
				"method": "rhf"
			},
			{
				"type": "occ",
				"energy": -0.24635,
				"method": "rhf"
			},
			{
				"type": "occ",
				"energy": -0.24124,
				"method": "rhf"
			},
			{
				"type": "occ",
				"energy": -0.21763,
				"method": "rhf"
			},
			{
				"type": "unocc",
				"energy": -0.01069,
				"method": "rhf"
			},
			{
				"type": "unocc",
				"energy": -0.00254,
				"method": "rhf"
			},
			{
				"type": "unocc",
				"energy": 0.02155,
				"method": "rhf"
			},
			{
				"type": "unocc",
				"energy": 0.04143,
				"method": "rhf"
			},
			{
				"type": "unocc",
				"energy": 0.06919,
				"method": "rhf"
			}
		],
		"cosmo_sigma_profile": { 
			"-0.025": 0.0,
			"-0.024": 0.0,
			"-0.023": 0.0,
			"-0.022": 0.0,
			"-0.021": 0.0,
			"-0.02": 0.0,
			"-0.019": 0.0,
			"-0.018": 0.0,
			"-0.017": 0.0,
			"-0.016": 0.0,
			"-0.015": 0.0,
			"-0.014": 0.0,
			"-0.013": 0.0,
			"-0.012": 0.0,
			"-0.011": 0.0,
			"-0.01": 0.0,
			"-0.009": 1.11153146593,
			"-0.008": 2.82493993861,
			"-0.007": 9.75653323949,
			"-0.006": 20.6179911232,
			"-0.005": 21.9397231847,
			"-0.004": 34.1003854574,
			"-0.003": 32.7424079094,
			"-0.002": 25.7163454975,
			"-0.001": 22.8389571757,
			"0.0": 17.3183377874,
			"0.001": 11.832422336,
			"0.002": 13.8285435231,
			"0.003": 15.5026389942,
			"0.004": 15.2466564706,
			"0.005": 12.8533337907,
			"0.006": 11.989165744,
			"0.007": 4.96444551963,
			"0.008": 4.96239151031,
			"0.009": 4.48423105799,
			"0.01": 5.06565945644,
			"0.011": 3.54697463298,
			"0.012": 1.83872191371,
			"0.013": 5.02552296743,
			"0.014": 3.58388352796,
			"0.015": 1.17728523066,
			"0.016": 0.0,
			"0.017": 0.0,
			"0.018": 0.0,
			"0.019": 0.0,
			"0.02": 0.0,
			"0.021": 0.0,
			"0.022": 0.0,
			"0.023": 0.0,
			"0.024": 0.0,
			"0.025": 0.0
		}
	}
}
