{
	 "smiles": "CC1(C)COC(=O)C1O", 
	 "Tm": 364.15, 
	 "num_atms": 19, 
	 "gaussian": { 
		 "optdone": 1, 
		 "sigma_profile": "yes", 
		 "theory": "DFT", 
		 "functional": "B3LYP", 
		 "basiset": "6-31G**", 
		 "properties": { 
			 "R2extent": 2219.4873, 
			 "electric_dipole_moment_norm": 3.31392724422, 
			 "electric_quadrupole_moment_norm": 14.147867046, 
			 "total_energy": -460.337684963, 
			 "HOMO_LUMO_gap": 0.25783, 
			 "cosmo_polarized_energy": -10.98, 
			 "cosmo_cavitation_energy": 21.28, 
			 "cosmo_dispersion_energy": -15.66, 
			 "cosmo_repulsion_energy": 1.29, 
			 "cosmo_total_nonelectrostatic_energy": 6.91, 
			 "SMD_solvation_energy": 4.93 
		},
		"coords": [
			{
				"x": 0.1568512012,
				"y": -0.8192660731,
				"z": -1.2260880595,
				"element": "C" 
			},
			{
				"x": 0.4568309892,
				"y": 0.6630410908,
				"z": -0.9324413645,
				"element": "C" 
			},
			{
				"x": 1.4384489574,
				"y": 0.800786519,
				"z": 0.2343064238,
				"element": "C" 
			},
			{
				"x": -0.8659220576,
				"y": 1.4234850206,
				"z": -0.6783383658,
				"element": "C" 
			},
			{
				"x": -1.400014347,
				"y": 1.7463126262,
				"z": -1.98245943,
				"element": "O" 
			},
			{
				"x": -0.4039512076,
				"y": 1.7474743473,
				"z": -2.9044227312,
				"element": "C" 
			},
			{
				"x": -0.5620287784,
				"y": 2.0872261633,
				"z": -4.0504596683,
				"element": "O" 
			},
			{
				"x": 0.9188585965,
				"y": 1.34667841,
				"z": -2.2314293993,
				"element": "C" 
			},
			{
				"x": 1.6375003754,
				"y": 2.5409189328,
				"z": -1.938952319,
				"element": "O" 
			},
			{
				"x": -0.2556734212,
				"y": -1.3087602283,
				"z": -0.3378667293,
				"element": "H" 
			},
			{
				"x": -0.5698152038,
				"y": -0.9354909005,
				"z": -2.0375439653,
				"element": "H" 
			},
			{
				"x": 1.0694115109,
				"y": -1.3527693683,
				"z": -1.510801593,
				"element": "H" 
			},
			{
				"x": 0.9986811512,
				"y": 0.3928733605,
				"z": 1.1515198137,
				"element": "H" 
			},
			{
				"x": 2.3608513469,
				"y": 0.2463098696,
				"z": 0.0340569742,
				"element": "H" 
			},
			{
				"x": 1.7036624306,
				"y": 1.845519492,
				"z": 0.4071953076,
				"element": "H" 
			},
			{
				"x": -1.6160802442,
				"y": 0.8283756654,
				"z": -0.1519598411,
				"element": "H" 
			},
			{
				"x": -0.6981982985,
				"y": 2.3595443827,
				"z": -0.1351029903,
				"element": "H" 
			},
			{
				"x": 1.4974507831,
				"y": 0.6811350182,
				"z": -2.8851356265,
				"element": "H" 
			},
			{
				"x": 1.743636216,
				"y": 3.0234056719,
				"z": -2.7711764362,
				"element": "H" 
			}
		],
		 "valence_orbital": [ 
			{
				"type": "occ",
				"energy": -0.34707,
				"method": "rhf"
			},
			{
				"type": "occ",
				"energy": -0.33268,
				"method": "rhf"
			},
			{
				"type": "occ",
				"energy": -0.30149,
				"method": "rhf"
			},
			{
				"type": "occ",
				"energy": -0.29781,
				"method": "rhf"
			},
			{
				"type": "occ",
				"energy": -0.2606,
				"method": "rhf"
			},
			{
				"type": "unocc",
				"energy": -0.00277,
				"method": "rhf"
			},
			{
				"type": "unocc",
				"energy": 0.0718,
				"method": "rhf"
			},
			{
				"type": "unocc",
				"energy": 0.08784,
				"method": "rhf"
			},
			{
				"type": "unocc",
				"energy": 0.10397,
				"method": "rhf"
			},
			{
				"type": "unocc",
				"energy": 0.12308,
				"method": "rhf"
			}
		],
		"cosmo_sigma_profile": { 
			"-0.025": 0.0,
			"-0.024": 0.0,
			"-0.023": 0.0,
			"-0.022": 0.0,
			"-0.021": 0.0,
			"-0.02": 0.0,
			"-0.019": 0.0,
			"-0.018": 0.0,
			"-0.017": 0.0251282217679,
			"-0.016": 0.640573486046,
			"-0.015": 1.09846167141,
			"-0.014": 0.814409622052,
			"-0.013": 0.506242000159,
			"-0.012": 0.606979747048,
			"-0.011": 1.04155791502,
			"-0.01": 1.19949701782,
			"-0.009": 0.411308239535,
			"-0.008": 0.7813403248,
			"-0.007": 1.78263876691,
			"-0.006": 8.16789425291,
			"-0.005": 12.4821492805,
			"-0.004": 18.8843409559,
			"-0.003": 17.7244144401,
			"-0.002": 14.141061786,
			"-0.001": 13.5140166229,
			"0.0": 14.9962826602,
			"0.001": 8.41413383366,
			"0.002": 4.04459052519,
			"0.003": 3.65178983524,
			"0.004": 2.84693389059,
			"0.005": 3.14231520396,
			"0.006": 3.89447792929,
			"0.007": 4.28154747648,
			"0.008": 3.18697754117,
			"0.009": 5.42599896551,
			"0.01": 5.92696189901,
			"0.011": 6.21690034384,
			"0.012": 4.8928838795,
			"0.013": 0.771114096471,
			"0.014": 0.0,
			"0.015": 0.0,
			"0.016": 0.0,
			"0.017": 0.0,
			"0.018": 0.0,
			"0.019": 0.0,
			"0.02": 0.0,
			"0.021": 0.0,
			"0.022": 0.0,
			"0.023": 0.0,
			"0.024": 0.0,
			"0.025": 0.0
		}
	}
}
