{
	 "smiles": "OC(=O)C1=CC=C(NN=C(/C(=O)C2=CC=CS2)C(=O)C(F)(F)F)C=C1", 
	 "Tm": 492.15, 
	 "num_atms": 34, 
	 "gaussian": { 
		 "optdone": 1, 
		 "sigma_profile": "yes", 
		 "theory": "DFT", 
		 "functional": "B3LYP", 
		 "basiset": "6-31G**", 
		 "properties": { 
			 "R2extent": 13746.509, 
			 "electric_dipole_moment_norm": 4.9283670399, 
			 "electric_quadrupole_moment_norm": 30.4840684673, 
			 "total_energy": -1685.07048353, 
			 "HOMO_LUMO_gap": 0.13037, 
			 "cosmo_polarized_energy": -22.39, 
			 "cosmo_cavitation_energy": 43.87, 
			 "cosmo_dispersion_energy": -30.85, 
			 "cosmo_repulsion_energy": 2.22, 
			 "cosmo_total_nonelectrostatic_energy": 15.24, 
			 "SMD_solvation_energy": 10.01 
		},
		"coords": [
			{
				"x": 6.9157476503,
				"y": -2.9651742283,
				"z": -1.5519162131,
				"element": "O" 
			},
			{
				"x": 6.0377504109,
				"y": -2.5771417023,
				"z": -2.515734609,
				"element": "C" 
			},
			{
				"x": 6.2729390751,
				"y": -2.8168080432,
				"z": -3.6771765733,
				"element": "O" 
			},
			{
				"x": 4.8053973659,
				"y": -1.8585901615,
				"z": -2.0614709812,
				"element": "C" 
			},
			{
				"x": 4.3128867424,
				"y": -1.9172646998,
				"z": -0.747793376,
				"element": "C" 
			},
			{
				"x": 3.1529431135,
				"y": -1.2446197672,
				"z": -0.3835758643,
				"element": "C" 
			},
			{
				"x": 2.4689989172,
				"y": -0.4913151287,
				"z": -1.3478940381,
				"element": "C" 
			},
			{
				"x": 1.2991527749,
				"y": 0.2140638218,
				"z": -1.0356514495,
				"element": "N" 
			},
			{
				"x": 0.8440076787,
				"y": 0.2474172173,
				"z": 0.1892161922,
				"element": "N" 
			},
			{
				"x": -0.2730796706,
				"y": 0.8814447698,
				"z": 0.4856178081,
				"element": "C" 
			},
			{
				"x": -1.1582457662,
				"y": 1.4866807327,
				"z": -0.5413360771,
				"element": "C" 
			},
			{
				"x": -0.7051276278,
				"y": 1.7665517927,
				"z": -1.6658732166,
				"element": "O" 
			},
			{
				"x": -2.5846611459,
				"y": 1.6575946063,
				"z": -0.2623258654,
				"element": "C" 
			},
			{
				"x": -3.3884886822,
				"y": 1.0719360745,
				"z": 0.6990891164,
				"element": "C" 
			},
			{
				"x": -4.7513167494,
				"y": 1.4460041135,
				"z": 0.582716768,
				"element": "C" 
			},
			{
				"x": -4.96871809,
				"y": 2.3050647002,
				"z": -0.4669408501,
				"element": "C" 
			},
			{
				"x": -3.5266519337,
				"y": 2.6581924659,
				"z": -1.3424813066,
				"element": "S" 
			},
			{
				"x": -0.5248311837,
				"y": 0.9041749405,
				"z": 1.9574217922,
				"element": "C" 
			},
			{
				"x": -0.3105620374,
				"y": -0.0291149103,
				"z": 2.7012616574,
				"element": "O" 
			},
			{
				"x": -0.9340048388,
				"y": 2.2530270542,
				"z": 2.6202884143,
				"element": "C" 
			},
			{
				"x": 0.0053626895,
				"y": 2.5861704341,
				"z": 3.5194720739,
				"element": "F" 
			},
			{
				"x": -2.1078851646,
				"y": 2.1398626607,
				"z": 3.2658788035,
				"element": "F" 
			},
			{
				"x": -1.0330722601,
				"y": 3.2642733234,
				"z": 1.7338253817,
				"element": "F" 
			},
			{
				"x": 2.938987509,
				"y": -0.4357063285,
				"z": -2.6690232006,
				"element": "C" 
			},
			{
				"x": 4.0926899849,
				"y": -1.1227372229,
				"z": -3.0189521765,
				"element": "C" 
			},
			{
				"x": 6.6860535824,
				"y": -2.5618681163,
				"z": -0.7036526619,
				"element": "H" 
			},
			{
				"x": 4.8082332008,
				"y": -2.5258332211,
				"z": 0.0048984839,
				"element": "H" 
			},
			{
				"x": 2.7636145664,
				"y": -1.2973320248,
				"z": 0.625741533,
				"element": "H" 
			},
			{
				"x": 0.7968027568,
				"y": 0.7596110971,
				"z": -1.7466083136,
				"element": "H" 
			},
			{
				"x": -3.0268480783,
				"y": 0.3762572708,
				"z": 1.4461488973,
				"element": "H" 
			},
			{
				"x": -5.5342360095,
				"y": 1.0928190224,
				"z": 1.2430527024,
				"element": "H" 
			},
			{
				"x": -5.9065143962,
				"y": 2.7494758397,
				"z": -0.7727709757,
				"element": "H" 
			},
			{
				"x": 2.3973149799,
				"y": 0.1418223865,
				"z": -3.4129884348,
				"element": "H" 
			},
			{
				"x": 4.4655606356,
				"y": -1.1023387694,
				"z": -4.0369634411,
				"element": "H" 
			}
		],
		 "valence_orbital": [ 
			{
				"type": "occ",
				"energy": -0.27901,
				"method": "rhf"
			},
			{
				"type": "occ",
				"energy": -0.27689,
				"method": "rhf"
			},
			{
				"type": "occ",
				"energy": -0.27162,
				"method": "rhf"
			},
			{
				"type": "occ",
				"energy": -0.26484,
				"method": "rhf"
			},
			{
				"type": "occ",
				"energy": -0.24062,
				"method": "rhf"
			},
			{
				"type": "unocc",
				"energy": -0.11025,
				"method": "rhf"
			},
			{
				"type": "unocc",
				"energy": -0.08123,
				"method": "rhf"
			},
			{
				"type": "unocc",
				"energy": -0.04693,
				"method": "rhf"
			},
			{
				"type": "unocc",
				"energy": -0.03436,
				"method": "rhf"
			},
			{
				"type": "unocc",
				"energy": -0.02354,
				"method": "rhf"
			}
		],
		"cosmo_sigma_profile": { 
			"-0.025": 0.0,
			"-0.024": 0.0,
			"-0.023": 0.0,
			"-0.022": 0.0,
			"-0.021": 0.0,
			"-0.02": 0.0,
			"-0.019": 0.349738681658,
			"-0.018": 0.90320847243,
			"-0.017": 0.791446591643,
			"-0.016": 1.62580729676,
			"-0.015": 0.689775573688,
			"-0.014": 0.55758715072,
			"-0.013": 2.17800647137,
			"-0.012": 2.18752485579,
			"-0.011": 2.56044141651,
			"-0.01": 3.53900791623,
			"-0.009": 4.94227613499,
			"-0.008": 10.0866797987,
			"-0.007": 13.9332060863,
			"-0.006": 15.5378677567,
			"-0.005": 15.149776363,
			"-0.004": 15.8144359709,
			"-0.003": 16.5597612714,
			"-0.002": 18.6986168526,
			"-0.001": 21.2424927522,
			"0.0": 24.5069698564,
			"0.001": 40.8842583416,
			"0.002": 59.0331634157,
			"0.003": 18.2610203099,
			"0.004": 7.37006933966,
			"0.005": 6.47526858149,
			"0.006": 4.91812016344,
			"0.007": 6.37293315375,
			"0.008": 7.77994230542,
			"0.009": 9.71878940546,
			"0.01": 9.99867576828,
			"0.011": 7.43235829122,
			"0.012": 4.59822549311,
			"0.013": 1.52296389247,
			"0.014": 0.0332410395969,
			"0.015": 0.0,
			"0.016": 0.0,
			"0.017": 0.0,
			"0.018": 0.0,
			"0.019": 0.0,
			"0.02": 0.0,
			"0.021": 0.0,
			"0.022": 0.0,
			"0.023": 0.0,
			"0.024": 0.0,
			"0.025": 0.0
		}
	}
}
