{
	 "smiles": "CC(Cl)C(=O)C1=CNC2=C1C=CC=C2", 
	 "Tm": 464.15, 
	 "num_atms": 24, 
	 "gaussian": { 
		 "optdone": 1, 
		 "sigma_profile": "yes", 
		 "theory": "DFT", 
		 "functional": "B3LYP", 
		 "basiset": "6-31G**", 
		 "properties": { 
			 "R2extent": 3635.6705, 
			 "electric_dipole_moment_norm": 4.42886162123, 
			 "electric_quadrupole_moment_norm": 13.2586355361, 
			 "total_energy": -1015.3789239, 
			 "HOMO_LUMO_gap": 0.16916, 
			 "cosmo_polarized_energy": -14.59, 
			 "cosmo_cavitation_energy": 29.18, 
			 "cosmo_dispersion_energy": -21.47, 
			 "cosmo_repulsion_energy": 1.68, 
			 "cosmo_total_nonelectrostatic_energy": 9.39, 
			 "SMD_solvation_energy": 4.93 
		},
		"coords": [
			{
				"x": 3.4845728472,
				"y": -1.1701694271,
				"z": 0.4648125956,
				"element": "C" 
			},
			{
				"x": 2.3415985529,
				"y": -2.1583191346,
				"z": 0.6808904241,
				"element": "C" 
			},
			{
				"x": 2.2869466795,
				"y": -3.3768925734,
				"z": -0.6954481532,
				"element": "Cl" 
			},
			{
				"x": 0.9883663016,
				"y": -1.4601442842,
				"z": 0.9269063952,
				"element": "C" 
			},
			{
				"x": 0.5970927025,
				"y": -1.4464625191,
				"z": 2.0906540879,
				"element": "O" 
			},
			{
				"x": 0.2660258223,
				"y": -0.7669648919,
				"z": -0.1345614037,
				"element": "C" 
			},
			{
				"x": 0.5619010708,
				"y": -0.7003384774,
				"z": -1.4883392117,
				"element": "C" 
			},
			{
				"x": -0.3614950349,
				"y": 0.0782402214,
				"z": -2.1226999558,
				"element": "N" 
			},
			{
				"x": -1.297906005,
				"y": 0.5434897809,
				"z": -1.2069770139,
				"element": "C" 
			},
			{
				"x": -0.9332264251,
				"y": 0.0290334847,
				"z": 0.0612079267,
				"element": "C" 
			},
			{
				"x": -1.7206419481,
				"y": 0.3536083339,
				"z": 1.177940967,
				"element": "C" 
			},
			{
				"x": -2.8324145018,
				"y": 1.168251212,
				"z": 0.9935785248,
				"element": "C" 
			},
			{
				"x": -3.1761206331,
				"y": 1.6674360686,
				"z": -0.2784346648,
				"element": "C" 
			},
			{
				"x": -2.4126906789,
				"y": 1.3628036958,
				"z": -1.4003760903,
				"element": "C" 
			},
			{
				"x": 4.4385624515,
				"y": -1.6971061663,
				"z": 0.3868699571,
				"element": "H" 
			},
			{
				"x": 3.3365523204,
				"y": -0.5725067317,
				"z": -0.437582206,
				"element": "H" 
			},
			{
				"x": 3.5306095316,
				"y": -0.4914549467,
				"z": 1.3235289441,
				"element": "H" 
			},
			{
				"x": 2.5182129211,
				"y": -2.7621530292,
				"z": 1.5703333152,
				"element": "H" 
			},
			{
				"x": 1.3560759931,
				"y": -1.175016728,
				"z": -2.0434944743,
				"element": "H" 
			},
			{
				"x": -0.3748669669,
				"y": 0.26218135,
				"z": -3.1136233752,
				"element": "H" 
			},
			{
				"x": -1.452557302,
				"y": -0.0341715472,
				"z": 2.1528669606,
				"element": "H" 
			},
			{
				"x": -3.4520644287,
				"y": 1.4263103716,
				"z": 1.8473798089,
				"element": "H" 
			},
			{
				"x": -4.0517962428,
				"y": 2.3006305618,
				"z": -0.3859259613,
				"element": "H" 
			},
			{
				"x": -2.6733370274,
				"y": 1.7457153764,
				"z": -2.3829073969,
				"element": "H" 
			}
		],
		 "valence_orbital": [ 
			{
				"type": "occ",
				"energy": -0.29824,
				"method": "rhf"
			},
			{
				"type": "occ",
				"energy": -0.28106,
				"method": "rhf"
			},
			{
				"type": "occ",
				"energy": -0.24695,
				"method": "rhf"
			},
			{
				"type": "occ",
				"energy": -0.23299,
				"method": "rhf"
			},
			{
				"type": "occ",
				"energy": -0.2184,
				"method": "rhf"
			},
			{
				"type": "unocc",
				"energy": -0.04924,
				"method": "rhf"
			},
			{
				"type": "unocc",
				"energy": -0.01022,
				"method": "rhf"
			},
			{
				"type": "unocc",
				"energy": 0.02049,
				"method": "rhf"
			},
			{
				"type": "unocc",
				"energy": 0.02505,
				"method": "rhf"
			},
			{
				"type": "unocc",
				"energy": 0.0654,
				"method": "rhf"
			}
		],
		"cosmo_sigma_profile": { 
			"-0.025": 0.0,
			"-0.024": 0.0,
			"-0.023": 0.0,
			"-0.022": 0.0,
			"-0.021": 0.0,
			"-0.02": 0.0,
			"-0.019": 0.0,
			"-0.018": 0.0,
			"-0.017": 0.981112042764,
			"-0.016": 1.66725848904,
			"-0.015": 1.24905943731,
			"-0.014": 1.56131315683,
			"-0.013": 1.30181448792,
			"-0.012": 1.22908766763,
			"-0.011": 1.69396710565,
			"-0.01": 1.35718454386,
			"-0.009": 1.57092972445,
			"-0.008": 3.19638927395,
			"-0.007": 5.09687804804,
			"-0.006": 7.94619887639,
			"-0.005": 13.9287979407,
			"-0.004": 16.8871969324,
			"-0.003": 15.6785988681,
			"-0.002": 16.3994166943,
			"-0.001": 16.7800493433,
			"0.0": 11.5258094359,
			"0.001": 13.9336098798,
			"0.002": 17.416124487,
			"0.003": 16.6184228827,
			"0.004": 18.0649303373,
			"0.005": 17.5946100326,
			"0.006": 16.3846264022,
			"0.007": 2.52516828849,
			"0.008": 2.10847436654,
			"0.009": 1.30916328667,
			"0.01": 2.47495336505,
			"0.011": 2.23698889436,
			"0.012": 2.70458558064,
			"0.013": 1.41179162892,
			"0.014": 0.0243444062288,
			"0.015": 0.0,
			"0.016": 0.0,
			"0.017": 0.0,
			"0.018": 0.0,
			"0.019": 0.0,
			"0.02": 0.0,
			"0.021": 0.0,
			"0.022": 0.0,
			"0.023": 0.0,
			"0.024": 0.0,
			"0.025": 0.0
		}
	}
}
