{
	 "smiles": "OC(=O)C1CCC(=O)O1", 
	 "Tm": 343.65, 
	 "num_atms": 15, 
	 "gaussian": { 
		 "optdone": 1, 
		 "sigma_profile": "yes", 
		 "theory": "DFT", 
		 "functional": "B3LYP", 
		 "basiset": "6-31G**", 
		 "properties": { 
			 "R2extent": 1286.957, 
			 "electric_dipole_moment_norm": 3.06884826279, 
			 "electric_quadrupole_moment_norm": 18.6655647252, 
			 "total_energy": -495.058669646, 
			 "HOMO_LUMO_gap": 0.26405, 
			 "cosmo_polarized_energy": -16.02, 
			 "cosmo_cavitation_energy": 19.24, 
			 "cosmo_dispersion_energy": -14.49, 
			 "cosmo_repulsion_energy": 1.22, 
			 "cosmo_total_nonelectrostatic_energy": 5.98, 
			 "SMD_solvation_energy": 5.54 
		},
		"coords": [
			{
				"x": -1.0189975258,
				"y": -2.4979842569,
				"z": 0.9431297428,
				"element": "O" 
			},
			{
				"x": -1.481427708,
				"y": -1.6596344752,
				"z": 0.0023653658,
				"element": "C" 
			},
			{
				"x": -2.6507769467,
				"y": -1.5575053553,
				"z": -0.2745617408,
				"element": "O" 
			},
			{
				"x": -0.4265142384,
				"y": -0.8117786144,
				"z": -0.7089442343,
				"element": "C" 
			},
			{
				"x": -0.6233841812,
				"y": 0.7060458375,
				"z": -0.5086015483,
				"element": "C" 
			},
			{
				"x": 0.8173580731,
				"y": 1.2246642424,
				"z": -0.5398317387,
				"element": "C" 
			},
			{
				"x": 1.6448060164,
				"y": 0.0430170423,
				"z": -0.0531106914,
				"element": "C" 
			},
			{
				"x": 2.7645613641,
				"y": 0.0138995813,
				"z": 0.3715300365,
				"element": "O" 
			},
			{
				"x": 0.8865840243,
				"y": -1.1070436512,
				"z": -0.1828523651,
				"element": "O" 
			},
			{
				"x": -0.0497314766,
				"y": -2.4093853931,
				"z": 0.9850870847,
				"element": "H" 
			},
			{
				"x": -0.4407200959,
				"y": -1.0787690862,
				"z": -1.771896,
				"element": "H" 
			},
			{
				"x": -1.083933272,
				"y": 0.8985139095,
				"z": 0.4649768801,
				"element": "H" 
			},
			{
				"x": -1.2733460626,
				"y": 1.129848051,
				"z": -1.2745451986,
				"element": "H" 
			},
			{
				"x": 1.0070977608,
				"y": 2.0989392566,
				"z": 0.0848048961,
				"element": "H" 
			},
			{
				"x": 1.1470242686,
				"y": 1.4660729117,
				"z": -1.5578504889,
				"element": "H" 
			}
		],
		 "valence_orbital": [ 
			{
				"type": "occ",
				"energy": -0.37354,
				"method": "rhf"
			},
			{
				"type": "occ",
				"energy": -0.33729,
				"method": "rhf"
			},
			{
				"type": "occ",
				"energy": -0.32216,
				"method": "rhf"
			},
			{
				"type": "occ",
				"energy": -0.29695,
				"method": "rhf"
			},
			{
				"type": "occ",
				"energy": -0.28017,
				"method": "rhf"
			},
			{
				"type": "unocc",
				"energy": -0.01612,
				"method": "rhf"
			},
			{
				"type": "unocc",
				"energy": -0.00478,
				"method": "rhf"
			},
			{
				"type": "unocc",
				"energy": 0.05809,
				"method": "rhf"
			},
			{
				"type": "unocc",
				"energy": 0.09053,
				"method": "rhf"
			},
			{
				"type": "unocc",
				"energy": 0.09944,
				"method": "rhf"
			}
		],
		"cosmo_sigma_profile": { 
			"-0.025": 0.0,
			"-0.024": 0.0,
			"-0.023": 0.0,
			"-0.022": 0.0,
			"-0.021": 0.0,
			"-0.02": 0.0,
			"-0.019": 0.0,
			"-0.018": 0.0,
			"-0.017": 0.0,
			"-0.016": 0.155713904762,
			"-0.015": 0.553084109962,
			"-0.014": 0.658831992867,
			"-0.013": 0.574252616685,
			"-0.012": 0.9943471122,
			"-0.011": 1.21517829631,
			"-0.01": 2.57194016518,
			"-0.009": 6.25550013934,
			"-0.008": 10.6303333257,
			"-0.007": 12.3467089442,
			"-0.006": 13.0488465743,
			"-0.005": 9.09450316312,
			"-0.004": 8.10601677483,
			"-0.003": 9.00534524249,
			"-0.002": 5.14624021697,
			"-0.001": 3.73369706546,
			"0.0": 3.80035810474,
			"0.001": 2.43171348495,
			"0.002": 3.38593648857,
			"0.003": 3.56659000917,
			"0.004": 4.59589711295,
			"0.005": 3.44703274608,
			"0.006": 4.48505554168,
			"0.007": 4.97417138024,
			"0.008": 5.15465856858,
			"0.009": 7.26748166902,
			"0.01": 7.90801333059,
			"0.011": 10.9137793191,
			"0.012": 5.82447689721,
			"0.013": 0.597236654733,
			"0.014": 0.0,
			"0.015": 0.0,
			"0.016": 0.0,
			"0.017": 0.0,
			"0.018": 0.0,
			"0.019": 0.0,
			"0.02": 0.0,
			"0.021": 0.0,
			"0.022": 0.0,
			"0.023": 0.0,
			"0.024": 0.0,
			"0.025": 0.0
		}
	}
}
