{
	 "smiles": "CN1C(C)=C(C)C2=CC=CC=C12", 
	 "Tm": 291.15, 
	 "num_atms": 25, 
	 "gaussian": { 
		 "optdone": 1, 
		 "sigma_profile": "yes", 
		 "theory": "DFT", 
		 "functional": "B3LYP", 
		 "basiset": "6-31G**", 
		 "properties": { 
			 "R2extent": 2830.8165, 
			 "electric_dipole_moment_norm": 2.55510194904, 
			 "electric_quadrupole_moment_norm": 4.9441432008, 
			 "total_energy": -481.775497646, 
			 "HOMO_LUMO_gap": 0.18647, 
			 "cosmo_polarized_energy": -6.47, 
			 "cosmo_cavitation_energy": 27.03, 
			 "cosmo_dispersion_energy": -19.8, 
			 "cosmo_repulsion_energy": 1.56, 
			 "cosmo_total_nonelectrostatic_energy": 8.79, 
			 "SMD_solvation_energy": 4.43 
		},
		"coords": [
			{
				"x": -0.9084450583,
				"y": 1.0501025085,
				"z": 0.2647124155,
				"element": "C" 
			},
			{
				"x": 0.3411249912,
				"y": 0.3308524401,
				"z": 0.1344863936,
				"element": "N" 
			},
			{
				"x": 0.7439797968,
				"y": -0.7944092025,
				"z": 0.8607318864,
				"element": "C" 
			},
			{
				"x": -0.1078465832,
				"y": -1.3458752421,
				"z": 1.959536982,
				"element": "C" 
			},
			{
				"x": 1.9675685379,
				"y": -1.2284257192,
				"z": 0.3975533382,
				"element": "C" 
			},
			{
				"x": 2.7842354789,
				"y": -2.386517054,
				"z": 0.8878057911,
				"element": "C" 
			},
			{
				"x": 2.3454082427,
				"y": -0.3421728077,
				"z": -0.6729282985,
				"element": "C" 
			},
			{
				"x": 3.4603487337,
				"y": -0.2652069942,
				"z": -1.5232327869,
				"element": "C" 
			},
			{
				"x": 3.5118390806,
				"y": 0.7404615849,
				"z": -2.4829560614,
				"element": "C" 
			},
			{
				"x": 2.4658424055,
				"y": 1.675144607,
				"z": -2.610494016,
				"element": "C" 
			},
			{
				"x": 1.3485421104,
				"y": 1.6247983443,
				"z": -1.7809345931,
				"element": "C" 
			},
			{
				"x": 1.3047032806,
				"y": 0.6142280162,
				"z": -0.8144340628,
				"element": "C" 
			},
			{
				"x": -0.7241405846,
				"y": 2.1294246968,
				"z": 0.2759280883,
				"element": "H" 
			},
			{
				"x": -1.5972629287,
				"y": 0.8259244176,
				"z": -0.5602073275,
				"element": "H" 
			},
			{
				"x": -1.3956895271,
				"y": 0.782228681,
				"z": 1.2025792243,
				"element": "H" 
			},
			{
				"x": -1.0969972771,
				"y": -1.6580925973,
				"z": 1.6015318716,
				"element": "H" 
			},
			{
				"x": 0.370563394,
				"y": -2.2215843173,
				"z": 2.4015560107,
				"element": "H" 
			},
			{
				"x": -0.2665889601,
				"y": -0.6186687664,
				"z": 2.7662033703,
				"element": "H" 
			},
			{
				"x": 2.288155067,
				"y": -2.9275297695,
				"z": 1.6983522379,
				"element": "H" 
			},
			{
				"x": 2.9787799712,
				"y": -3.1089612329,
				"z": 0.0851317531,
				"element": "H" 
			},
			{
				"x": 3.7617032223,
				"y": -2.0597481334,
				"z": 1.2648459881,
				"element": "H" 
			},
			{
				"x": 4.2716133595,
				"y": -0.9828777427,
				"z": -1.4342012256,
				"element": "H" 
			},
			{
				"x": 4.3691932516,
				"y": 0.808050777,
				"z": -3.1465962007,
				"element": "H" 
			},
			{
				"x": 2.5298698376,
				"y": 2.4483382379,
				"z": -3.3708136102,
				"element": "H" 
			},
			{
				"x": 0.5429001577,
				"y": 2.3451152679,
				"z": -1.8881571685,
				"element": "H" 
			}
		],
		 "valence_orbital": [ 
			{
				"type": "occ",
				"energy": -0.31897,
				"method": "rhf"
			},
			{
				"type": "occ",
				"energy": -0.30947,
				"method": "rhf"
			},
			{
				"type": "occ",
				"energy": -0.2553,
				"method": "rhf"
			},
			{
				"type": "occ",
				"energy": -0.20538,
				"method": "rhf"
			},
			{
				"type": "occ",
				"energy": -0.18498,
				"method": "rhf"
			},
			{
				"type": "unocc",
				"energy": 0.00149,
				"method": "rhf"
			},
			{
				"type": "unocc",
				"energy": 0.03544,
				"method": "rhf"
			},
			{
				"type": "unocc",
				"energy": 0.07824,
				"method": "rhf"
			},
			{
				"type": "unocc",
				"energy": 0.08164,
				"method": "rhf"
			},
			{
				"type": "unocc",
				"energy": 0.11099,
				"method": "rhf"
			}
		],
		"cosmo_sigma_profile": { 
			"-0.025": 0.0,
			"-0.024": 0.0,
			"-0.023": 0.0,
			"-0.022": 0.0,
			"-0.021": 0.0,
			"-0.02": 0.0,
			"-0.019": 0.0,
			"-0.018": 0.0,
			"-0.017": 0.0,
			"-0.016": 0.0,
			"-0.015": 0.0,
			"-0.014": 0.0,
			"-0.013": 0.0,
			"-0.012": 0.0,
			"-0.011": 0.0,
			"-0.01": 0.0,
			"-0.009": 0.0,
			"-0.008": 0.0,
			"-0.007": 0.0,
			"-0.006": 2.50918487222,
			"-0.005": 15.8423874439,
			"-0.004": 22.9281700067,
			"-0.003": 26.4710966867,
			"-0.002": 26.5137030223,
			"-0.001": 21.4589804782,
			"0.0": 18.4156178311,
			"0.001": 14.5109599448,
			"0.002": 9.30061063996,
			"0.003": 8.28123251501,
			"0.004": 8.90884061017,
			"0.005": 10.429080109,
			"0.006": 11.7444471312,
			"0.007": 11.4494634806,
			"0.008": 5.06983181907,
			"0.009": 0.0872203961909,
			"0.01": 0.0,
			"0.011": 0.0,
			"0.012": 0.0,
			"0.013": 0.0,
			"0.014": 0.0,
			"0.015": 0.0,
			"0.016": 0.0,
			"0.017": 0.0,
			"0.018": 0.0,
			"0.019": 0.0,
			"0.02": 0.0,
			"0.021": 0.0,
			"0.022": 0.0,
			"0.023": 0.0,
			"0.024": 0.0,
			"0.025": 0.0
		}
	}
}
