{
	 "smiles": "ClC(C(=O)NCC1=CC2=C(OCO2)C=C1)C1=CC=CC=C1", 
	 "Tm": 378.15, 
	 "num_atms": 35, 
	 "gaussian": { 
		 "optdone": 1, 
		 "sigma_profile": "yes", 
		 "theory": "DFT", 
		 "functional": "B3LYP", 
		 "basiset": "6-31G**", 
		 "properties": { 
			 "R2extent": 8074.1745, 
			 "electric_dipole_moment_norm": 4.98923953825, 
			 "electric_quadrupole_moment_norm": 22.2227742721, 
			 "total_energy": -1358.73887777, 
			 "HOMO_LUMO_gap": 0.18264, 
			 "cosmo_polarized_energy": -19.06, 
			 "cosmo_cavitation_energy": 40.96, 
			 "cosmo_dispersion_energy": -28.17, 
			 "cosmo_repulsion_energy": 2.19, 
			 "cosmo_total_nonelectrostatic_energy": 14.97, 
			 "SMD_solvation_energy": 7.39 
		},
		"coords": [
			{
				"x": -2.7402737958,
				"y": -1.0559363766,
				"z": -0.9712378018,
				"element": "Cl" 
			},
			{
				"x": -1.6707038884,
				"y": 0.1081069559,
				"z": -0.0578351457,
				"element": "C" 
			},
			{
				"x": -1.865845251,
				"y": 1.5261862606,
				"z": -0.6299850146,
				"element": "C" 
			},
			{
				"x": -2.945754054,
				"y": 1.9462746217,
				"z": -1.0129545446,
				"element": "O" 
			},
			{
				"x": -0.7462406453,
				"y": 2.3183557008,
				"z": -0.6362913087,
				"element": "N" 
			},
			{
				"x": 0.587070035,
				"y": 2.0274076006,
				"z": -0.1150719856,
				"element": "C" 
			},
			{
				"x": 1.4481587684,
				"y": 1.1213484696,
				"z": -0.9854890303,
				"element": "C" 
			},
			{
				"x": 1.3642146987,
				"y": 1.1945857715,
				"z": -2.3928403705,
				"element": "C" 
			},
			{
				"x": 2.2122157062,
				"y": 0.3839613247,
				"z": -3.1179189257,
				"element": "C" 
			},
			{
				"x": 3.123473682,
				"y": -0.4761678459,
				"z": -2.5054641003,
				"element": "C" 
			},
			{
				"x": 3.842183991,
				"y": -1.147747806,
				"z": -3.4628118019,
				"element": "O" 
			},
			{
				"x": 3.2589156641,
				"y": -0.7797426239,
				"z": -4.7194342699,
				"element": "C" 
			},
			{
				"x": 2.3293535632,
				"y": 0.2842903235,
				"z": -4.4816260369,
				"element": "O" 
			},
			{
				"x": 3.2239255854,
				"y": -0.5654429558,
				"z": -1.1323644516,
				"element": "C" 
			},
			{
				"x": 2.3597337452,
				"y": 0.2522003425,
				"z": -0.3794150117,
				"element": "C" 
			},
			{
				"x": -1.9578153128,
				"y": 0.0664364602,
				"z": 1.4263542688,
				"element": "C" 
			},
			{
				"x": -1.0654024357,
				"y": -0.5844251934,
				"z": 2.287960166,
				"element": "C" 
			},
			{
				"x": -1.3133086828,
				"y": -0.6294891688,
				"z": 3.6610446113,
				"element": "C" 
			},
			{
				"x": -2.4584419794,
				"y": -0.0265487719,
				"z": 4.1824391677,
				"element": "C" 
			},
			{
				"x": -3.3541238023,
				"y": 0.6210868006,
				"z": 3.326669949,
				"element": "C" 
			},
			{
				"x": -3.107882896,
				"y": 0.67002588,
				"z": 1.9561019693,
				"element": "C" 
			},
			{
				"x": -0.6587224989,
				"y": -0.2455211649,
				"z": -0.2517851934,
				"element": "H" 
			},
			{
				"x": -0.9444781143,
				"y": 3.2610766513,
				"z": -0.943524614,
				"element": "H" 
			},
			{
				"x": 0.5154987526,
				"y": 1.6053554997,
				"z": 0.8936915393,
				"element": "H" 
			},
			{
				"x": 1.0811371626,
				"y": 2.9989899288,
				"z": 0.0011596642,
				"element": "H" 
			},
			{
				"x": 0.652188057,
				"y": 1.848142623,
				"z": -2.8835359819,
				"element": "H" 
			},
			{
				"x": 4.0443770776,
				"y": -0.4325168777,
				"z": -5.3981355457,
				"element": "H" 
			},
			{
				"x": 2.7280747297,
				"y": -1.642886023,
				"z": -5.1442527274,
				"element": "H" 
			},
			{
				"x": 3.9283698667,
				"y": -1.2401407576,
				"z": -0.659507997,
				"element": "H" 
			},
			{
				"x": 2.4086779884,
				"y": 0.2055360171,
				"z": 0.7053230341,
				"element": "H" 
			},
			{
				"x": -0.1802275784,
				"y": -1.0661029772,
				"z": 1.8796806361,
				"element": "H" 
			},
			{
				"x": -0.6152809909,
				"y": -1.1381584815,
				"z": 4.3197064069,
				"element": "H" 
			},
			{
				"x": -2.6543833801,
				"y": -0.0621485102,
				"z": 5.2502340673,
				"element": "H" 
			},
			{
				"x": -4.2475561224,
				"y": 1.0896896405,
				"z": 3.729080478,
				"element": "H" 
			},
			{
				"x": -3.7994276452,
				"y": 1.1705186618,
				"z": 1.2858359011,
				"element": "H" 
			}
		],
		 "valence_orbital": [ 
			{
				"type": "occ",
				"energy": -0.26065,
				"method": "rhf"
			},
			{
				"type": "occ",
				"energy": -0.25697,
				"method": "rhf"
			},
			{
				"type": "occ",
				"energy": -0.25284,
				"method": "rhf"
			},
			{
				"type": "occ",
				"energy": -0.24707,
				"method": "rhf"
			},
			{
				"type": "occ",
				"energy": -0.21451,
				"method": "rhf"
			},
			{
				"type": "unocc",
				"energy": -0.03187,
				"method": "rhf"
			},
			{
				"type": "unocc",
				"energy": -0.01254,
				"method": "rhf"
			},
			{
				"type": "unocc",
				"energy": -0.00961,
				"method": "rhf"
			},
			{
				"type": "unocc",
				"energy": -0.00269,
				"method": "rhf"
			},
			{
				"type": "unocc",
				"energy": 0.01984,
				"method": "rhf"
			}
		],
		"cosmo_sigma_profile": { 
			"-0.025": 0.0,
			"-0.024": 0.0,
			"-0.023": 0.0,
			"-0.022": 0.0,
			"-0.021": 0.0,
			"-0.02": 0.0,
			"-0.019": 0.0,
			"-0.018": 0.0,
			"-0.017": 0.0,
			"-0.016": 0.0,
			"-0.015": 0.155621004324,
			"-0.014": 1.12921567324,
			"-0.013": 1.48042827643,
			"-0.012": 0.980536661817,
			"-0.011": 1.03367125303,
			"-0.01": 1.38909926134,
			"-0.009": 1.34057714026,
			"-0.008": 4.03750546791,
			"-0.007": 13.2308390173,
			"-0.006": 24.9535557964,
			"-0.005": 25.8531277218,
			"-0.004": 25.2605416602,
			"-0.003": 21.0770435959,
			"-0.002": 18.7978038987,
			"-0.001": 17.7079571063,
			"0.0": 18.9654312271,
			"0.001": 18.8689393039,
			"0.002": 21.8264560443,
			"0.003": 24.6852751403,
			"0.004": 24.8713042566,
			"0.005": 19.2325826475,
			"0.006": 12.0893392291,
			"0.007": 4.78811396136,
			"0.008": 4.28965344248,
			"0.009": 5.92136070594,
			"0.01": 3.3041506478,
			"0.011": 2.05771825471,
			"0.012": 2.44745109198,
			"0.013": 5.60479646713,
			"0.014": 1.76004363574,
			"0.015": 0.0812080921402,
			"0.016": 0.0,
			"0.017": 0.0,
			"0.018": 0.0,
			"0.019": 0.0,
			"0.02": 0.0,
			"0.021": 0.0,
			"0.022": 0.0,
			"0.023": 0.0,
			"0.024": 0.0,
			"0.025": 0.0
		}
	}
}
