{
	 "smiles": "[O-][N+](=O)C1=CC2=C(OC(=O)N2)C=C1", 
	 "Tm": 503.15, 
	 "num_atms": 17, 
	 "gaussian": { 
		 "optdone": 1, 
		 "sigma_profile": "yes", 
		 "theory": "DFT", 
		 "functional": "B3LYP", 
		 "basiset": "6-31G**", 
		 "properties": { 
			 "R2extent": 3002.113, 
			 "electric_dipole_moment_norm": 1.00446688845, 
			 "electric_quadrupole_moment_norm": 31.0628945, 
			 "total_energy": -679.469664605, 
			 "HOMO_LUMO_gap": 0.15896, 
			 "cosmo_polarized_energy": -16.15, 
			 "cosmo_cavitation_energy": 23.11, 
			 "cosmo_dispersion_energy": -17.54, 
			 "cosmo_repulsion_energy": 1.37, 
			 "cosmo_total_nonelectrostatic_energy": 6.94, 
			 "SMD_solvation_energy": 7.55 
		},
		"coords": [
			{
				"x": -0.6997384164,
				"y": 3.2512596289,
				"z": 0.8359322012,
				"element": "O" 
			},
			{
				"x": 0.0477661301,
				"y": 2.7432864772,
				"z": 1.6725346568,
				"element": "N" 
			},
			{
				"x": 0.5649305876,
				"y": 3.3489305808,
				"z": 2.6100099689,
				"element": "O" 
			},
			{
				"x": 0.3404603353,
				"y": 1.3090340246,
				"z": 1.5378382574,
				"element": "C" 
			},
			{
				"x": -0.2488030951,
				"y": 0.6183968235,
				"z": 0.4698281224,
				"element": "C" 
			},
			{
				"x": 0.056933693,
				"y": -0.727742127,
				"z": 0.386147241,
				"element": "C" 
			},
			{
				"x": 0.9052522192,
				"y": -1.3430088324,
				"z": 1.3213930953,
				"element": "C" 
			},
			{
				"x": 1.0439495472,
				"y": -2.668859997,
				"z": 1.0159149077,
				"element": "O" 
			},
			{
				"x": 0.2836915593,
				"y": -2.9394504881,
				"z": -0.1298158125,
				"element": "C" 
			},
			{
				"x": 0.2039979037,
				"y": -4.0200455755,
				"z": -0.6435378104,
				"element": "O" 
			},
			{
				"x": -0.3070864724,
				"y": -1.739908442,
				"z": -0.4926692623,
				"element": "N" 
			},
			{
				"x": 1.4825937802,
				"y": -0.6534372149,
				"z": 2.3725872432,
				"element": "C" 
			},
			{
				"x": 1.1848952569,
				"y": 0.7096982816,
				"z": 2.4736804627,
				"element": "C" 
			},
			{
				"x": -0.8959891083,
				"y": 1.1361908128,
				"z": -0.2255855308,
				"element": "H" 
			},
			{
				"x": -0.9110066823,
				"y": -1.6708878883,
				"z": -1.2965229624,
				"element": "H" 
			},
			{
				"x": 2.1339523467,
				"y": -1.150325395,
				"z": 3.0815657939,
				"element": "H" 
			},
			{
				"x": 1.5977004153,
				"y": 1.3173693308,
				"z": 3.2681994278,
				"element": "H" 
			}
		],
		 "valence_orbital": [ 
			{
				"type": "occ",
				"energy": -0.31719,
				"method": "rhf"
			},
			{
				"type": "occ",
				"energy": -0.31274,
				"method": "rhf"
			},
			{
				"type": "occ",
				"energy": -0.29875,
				"method": "rhf"
			},
			{
				"type": "occ",
				"energy": -0.28727,
				"method": "rhf"
			},
			{
				"type": "occ",
				"energy": -0.25552,
				"method": "rhf"
			},
			{
				"type": "unocc",
				"energy": -0.09656,
				"method": "rhf"
			},
			{
				"type": "unocc",
				"energy": -0.04171,
				"method": "rhf"
			},
			{
				"type": "unocc",
				"energy": -0.0022,
				"method": "rhf"
			},
			{
				"type": "unocc",
				"energy": 0.02485,
				"method": "rhf"
			},
			{
				"type": "unocc",
				"energy": 0.05341,
				"method": "rhf"
			}
		],
		"cosmo_sigma_profile": { 
			"-0.025": 0.0,
			"-0.024": 0.0,
			"-0.023": 0.0,
			"-0.022": 0.0,
			"-0.021": 0.0,
			"-0.02": 0.0,
			"-0.019": 0.0,
			"-0.018": 1.27183301413,
			"-0.017": 1.64877061429,
			"-0.016": 1.52238930361,
			"-0.015": 1.16038961401,
			"-0.014": 0.729966853114,
			"-0.013": 1.32099132456,
			"-0.012": 1.29445793602,
			"-0.011": 0.968523023188,
			"-0.01": 1.38335351715,
			"-0.009": 3.90564633998,
			"-0.008": 4.80257963223,
			"-0.007": 6.16604852433,
			"-0.006": 8.21742853423,
			"-0.005": 9.2666620172,
			"-0.004": 8.16270489771,
			"-0.003": 11.6328674016,
			"-0.002": 15.0634909195,
			"-0.001": 16.8503128261,
			"0.0": 14.954391754,
			"0.001": 9.14064557855,
			"0.002": 5.1444884143,
			"0.003": 3.46116962506,
			"0.004": 5.72889059854,
			"0.005": 5.15919366868,
			"0.006": 6.52917815339,
			"0.007": 10.8142503752,
			"0.008": 9.5784776221,
			"0.009": 6.59777495181,
			"0.01": 5.91911855591,
			"0.011": 6.832519927,
			"0.012": 1.69428578661,
			"0.013": 0.0,
			"0.014": 0.0,
			"0.015": 0.0,
			"0.016": 0.0,
			"0.017": 0.0,
			"0.018": 0.0,
			"0.019": 0.0,
			"0.02": 0.0,
			"0.021": 0.0,
			"0.022": 0.0,
			"0.023": 0.0,
			"0.024": 0.0,
			"0.025": 0.0
		}
	}
}
