{
	 "smiles": "CC(C)(C)N1N=CC2=C1N=C(Cl)NC2=O", 
	 "Tm": 465.15, 
	 "num_atms": 26, 
	 "gaussian": { 
		 "optdone": 1, 
		 "sigma_profile": "yes", 
		 "theory": "DFT", 
		 "functional": "B3LYP", 
		 "basiset": "6-31G**", 
		 "properties": { 
			 "R2extent": 3849.2752, 
			 "electric_dipole_moment_norm": 2.72156570194, 
			 "electric_quadrupole_moment_norm": 10.0331377186, 
			 "total_energy": -1104.02525129, 
			 "HOMO_LUMO_gap": 0.19758, 
			 "cosmo_polarized_energy": -11.66, 
			 "cosmo_cavitation_energy": 30.95, 
			 "cosmo_dispersion_energy": -22.25, 
			 "cosmo_repulsion_energy": 1.74, 
			 "cosmo_total_nonelectrostatic_energy": 10.44, 
			 "SMD_solvation_energy": 4.79 
		},
		"coords": [
			{
				"x": -2.8558282188,
				"y": 1.1553049318,
				"z": 0.8103690332,
				"element": "C" 
			},
			{
				"x": -1.5031115138,
				"y": 1.789860285,
				"z": 0.4368425337,
				"element": "C" 
			},
			{
				"x": -0.627985151,
				"y": 1.9972226727,
				"z": 1.6871252598,
				"element": "C" 
			},
			{
				"x": -1.7294098326,
				"y": 3.1296929375,
				"z": -0.2746179002,
				"element": "C" 
			},
			{
				"x": -0.7865575795,
				"y": 0.8648440159,
				"z": -0.4959500879,
				"element": "N" 
			},
			{
				"x": -0.4422803211,
				"y": 1.2638169967,
				"z": -1.7559448409,
				"element": "N" 
			},
			{
				"x": 0.170712474,
				"y": 0.2365245162,
				"z": -2.3270456244,
				"element": "C" 
			},
			{
				"x": 0.2397056344,
				"y": -0.8636121268,
				"z": -1.4444890146,
				"element": "C" 
			},
			{
				"x": -0.3896449926,
				"y": -0.4157016776,
				"z": -0.27416971,
				"element": "C" 
			},
			{
				"x": -0.5722504474,
				"y": -1.1342100464,
				"z": 0.8810985701,
				"element": "N" 
			},
			{
				"x": -0.094708303,
				"y": -2.3285810799,
				"z": 0.8146841869,
				"element": "C" 
			},
			{
				"x": -0.2385254077,
				"y": -3.3884496044,
				"z": 2.1995004323,
				"element": "Cl" 
			},
			{
				"x": 0.5367147102,
				"y": -2.8806630718,
				"z": -0.260639754,
				"element": "N" 
			},
			{
				"x": 0.7696374188,
				"y": -2.2016348538,
				"z": -1.505963707,
				"element": "C" 
			},
			{
				"x": 1.3440140375,
				"y": -2.7812425078,
				"z": -2.4096057119,
				"element": "O" 
			},
			{
				"x": -3.4021999674,
				"y": 1.8279110055,
				"z": 1.4787220185,
				"element": "H" 
			},
			{
				"x": -3.4648646293,
				"y": 0.9937472418,
				"z": -0.0843047672,
				"element": "H" 
			},
			{
				"x": -2.7185272229,
				"y": 0.2000205281,
				"z": 1.3211766896,
				"element": "H" 
			},
			{
				"x": -0.4554272964,
				"y": 1.0551052869,
				"z": 2.2115159576,
				"element": "H" 
			},
			{
				"x": -1.1296622696,
				"y": 2.6865204173,
				"z": 2.3732766246,
				"element": "H" 
			},
			{
				"x": 0.3382495114,
				"y": 2.4313736237,
				"z": 1.4125832338,
				"element": "H" 
			},
			{
				"x": -2.2531377306,
				"y": 3.7982807423,
				"z": 0.4151731483,
				"element": "H" 
			},
			{
				"x": -0.7853816193,
				"y": 3.594878172,
				"z": -0.5651535474,
				"element": "H" 
			},
			{
				"x": -2.3355355597,
				"y": 3.0094562032,
				"z": -1.174707148,
				"element": "H" 
			},
			{
				"x": 0.5390728598,
				"y": 0.3155861073,
				"z": -3.340205551,
				"element": "H" 
			},
			{
				"x": 0.8785314168,
				"y": -3.8328507155,
				"z": -0.2144703239,
				"element": "H" 
			}
		],
		 "valence_orbital": [ 
			{
				"type": "occ",
				"energy": -0.3136,
				"method": "rhf"
			},
			{
				"type": "occ",
				"energy": -0.29645,
				"method": "rhf"
			},
			{
				"type": "occ",
				"energy": -0.27482,
				"method": "rhf"
			},
			{
				"type": "occ",
				"energy": -0.26551,
				"method": "rhf"
			},
			{
				"type": "occ",
				"energy": -0.24083,
				"method": "rhf"
			},
			{
				"type": "unocc",
				"energy": -0.04325,
				"method": "rhf"
			},
			{
				"type": "unocc",
				"energy": -0.02018,
				"method": "rhf"
			},
			{
				"type": "unocc",
				"energy": 0.00033,
				"method": "rhf"
			},
			{
				"type": "unocc",
				"energy": 0.03404,
				"method": "rhf"
			},
			{
				"type": "unocc",
				"energy": 0.08223,
				"method": "rhf"
			}
		],
		"cosmo_sigma_profile": { 
			"-0.025": 0.0,
			"-0.024": 0.0,
			"-0.023": 0.0,
			"-0.022": 0.0,
			"-0.021": 0.0,
			"-0.02": 0.0,
			"-0.019": 0.0,
			"-0.018": 0.036963153224,
			"-0.017": 0.669214915782,
			"-0.016": 0.760001191557,
			"-0.015": 1.40864209415,
			"-0.014": 0.63559875353,
			"-0.013": 0.588218375344,
			"-0.012": 0.693698284656,
			"-0.011": 1.90792204773,
			"-0.01": 0.713106790802,
			"-0.009": 1.29949867346,
			"-0.008": 2.61135831005,
			"-0.007": 2.36230494723,
			"-0.006": 3.13113490501,
			"-0.005": 7.25789826273,
			"-0.004": 21.4731595176,
			"-0.003": 23.5443804555,
			"-0.002": 22.5832451545,
			"-0.001": 28.2053643482,
			"0.0": 35.9203831757,
			"0.001": 23.4683475289,
			"0.002": 15.920449311,
			"0.003": 10.6977194696,
			"0.004": 5.76576640817,
			"0.005": 5.263022512,
			"0.006": 4.88771964818,
			"0.007": 4.05087336925,
			"0.008": 2.5714287854,
			"0.009": 3.18791380462,
			"0.01": 2.21707443002,
			"0.011": 4.24120101192,
			"0.012": 6.57561242703,
			"0.013": 3.14482652396,
			"0.014": 0.0289295260226,
			"0.015": 0.0,
			"0.016": 0.0,
			"0.017": 0.0,
			"0.018": 0.0,
			"0.019": 0.0,
			"0.02": 0.0,
			"0.021": 0.0,
			"0.022": 0.0,
			"0.023": 0.0,
			"0.024": 0.0,
			"0.025": 0.0
		}
	}
}
