{
	 "smiles": "BrC1=CC(=CC=C1)N1CCCS1(=O)=O", 
	 "Tm": 348.15, 
	 "num_atms": 24, 
	 "gaussian": { 
		 "optdone": 1, 
		 "sigma_profile": "yes", 
		 "theory": "DFT", 
		 "functional": "B3LYP", 
		 "basiset": "6-31G**", 
		 "properties": { 
			 "R2extent": 5697.8271, 
			 "electric_dipole_moment_norm": 6.59564565225, 
			 "electric_quadrupole_moment_norm": 16.2806555749, 
			 "total_energy": -3523.70209014, 
			 "HOMO_LUMO_gap": 0.21057, 
			 "cosmo_polarized_energy": -17.36, 
			 "cosmo_cavitation_energy": 30.52, 
			 "cosmo_dispersion_energy": -23.13, 
			 "cosmo_repulsion_energy": 1.77, 
			 "cosmo_total_nonelectrostatic_energy": 9.16, 
			 "SMD_solvation_energy": 2.32 
		},
		"coords": [
			{
				"x": 4.094141088,
				"y": -1.6398142749,
				"z": 1.2445975059,
				"element": "Br" 
			},
			{
				"x": 2.3407480109,
				"y": -0.8791183962,
				"z": 1.2045599221,
				"element": "C" 
			},
			{
				"x": 1.5441920859,
				"y": -1.0883245079,
				"z": 0.0859569744,
				"element": "C" 
			},
			{
				"x": 0.2559757096,
				"y": -0.5256868049,
				"z": 0.0498528305,
				"element": "C" 
			},
			{
				"x": -0.2085875846,
				"y": 0.2128616396,
				"z": 1.1474615424,
				"element": "C" 
			},
			{
				"x": 0.6082403778,
				"y": 0.3844445833,
				"z": 2.2654627453,
				"element": "C" 
			},
			{
				"x": 1.8934648671,
				"y": -0.1511855639,
				"z": 2.3074604863,
				"element": "C" 
			},
			{
				"x": -0.5660840488,
				"y": -0.7580838399,
				"z": -1.0810646765,
				"element": "N" 
			},
			{
				"x": -1.9849283777,
				"y": -0.398831629,
				"z": -1.0845073866,
				"element": "C" 
			},
			{
				"x": -2.5261561109,
				"y": -0.9275072393,
				"z": -2.4199237938,
				"element": "C" 
			},
			{
				"x": -1.5119474079,
				"y": -0.5057571208,
				"z": -3.484691309,
				"element": "C" 
			},
			{
				"x": 0.1193870638,
				"y": -0.5582970823,
				"z": -2.6608044401,
				"element": "S" 
			},
			{
				"x": 0.8552139672,
				"y": -1.7765713717,
				"z": -3.0106998208,
				"element": "O" 
			},
			{
				"x": 0.7846293695,
				"y": 0.7432748281,
				"z": -2.7820124128,
				"element": "O" 
			},
			{
				"x": 1.9033531918,
				"y": -1.6845469322,
				"z": -0.743550774,
				"element": "H" 
			},
			{
				"x": -1.1967119638,
				"y": 0.6574741063,
				"z": 1.1354361089,
				"element": "H" 
			},
			{
				"x": 0.2387100874,
				"y": 0.9548902456,
				"z": 3.1124740286,
				"element": "H" 
			},
			{
				"x": 2.5318789492,
				"y": -0.0127406469,
				"z": 3.1716274008,
				"element": "H" 
			},
			{
				"x": -2.1436856984,
				"y": 0.6881280627,
				"z": -1.0011344531,
				"element": "H" 
			},
			{
				"x": -2.471739316,
				"y": -0.8822751547,
				"z": -0.2330539067,
				"element": "H" 
			},
			{
				"x": -2.5990700531,
				"y": -2.0175038084,
				"z": -2.3777094441,
				"element": "H" 
			},
			{
				"x": -3.5176429123,
				"y": -0.5218754757,
				"z": -2.6376195675,
				"element": "H" 
			},
			{
				"x": -1.6429394959,
				"y": 0.5297956931,
				"z": -3.8063216578,
				"element": "H" 
			},
			{
				"x": -1.4559417988,
				"y": -1.16444931,
				"z": -4.3522959025,
				"element": "H" 
			}
		],
		 "valence_orbital": [ 
			{
				"type": "occ",
				"energy": -0.30475,
				"method": "rhf"
			},
			{
				"type": "occ",
				"energy": -0.28809,
				"method": "rhf"
			},
			{
				"type": "occ",
				"energy": -0.28221,
				"method": "rhf"
			},
			{
				"type": "occ",
				"energy": -0.24541,
				"method": "rhf"
			},
			{
				"type": "occ",
				"energy": -0.22818,
				"method": "rhf"
			},
			{
				"type": "unocc",
				"energy": -0.01761,
				"method": "rhf"
			},
			{
				"type": "unocc",
				"energy": -0.01459,
				"method": "rhf"
			},
			{
				"type": "unocc",
				"energy": 0.0104,
				"method": "rhf"
			},
			{
				"type": "unocc",
				"energy": 0.04507,
				"method": "rhf"
			},
			{
				"type": "unocc",
				"energy": 0.05016,
				"method": "rhf"
			}
		],
		"cosmo_sigma_profile": { 
			"-0.025": 0.0,
			"-0.024": 0.0,
			"-0.023": 0.0,
			"-0.022": 0.0,
			"-0.021": 0.0,
			"-0.02": 0.0,
			"-0.019": 0.0,
			"-0.018": 0.0,
			"-0.017": 0.0,
			"-0.016": 0.0,
			"-0.015": 0.0,
			"-0.014": 0.0,
			"-0.013": 0.0,
			"-0.012": 0.0,
			"-0.011": 0.0,
			"-0.01": 0.0,
			"-0.009": 1.80157986266,
			"-0.008": 6.24278794198,
			"-0.007": 15.0079116914,
			"-0.006": 23.7299741341,
			"-0.005": 22.7832404235,
			"-0.004": 18.0629375048,
			"-0.003": 12.9702717932,
			"-0.002": 11.2291728639,
			"-0.001": 7.9917672176,
			"0.0": 9.73609819158,
			"0.001": 12.6851919093,
			"0.002": 17.7920427843,
			"0.003": 22.8176077075,
			"0.004": 19.6976693024,
			"0.005": 9.36796220167,
			"0.006": 3.06666418141,
			"0.007": 3.01987504462,
			"0.008": 3.28543525073,
			"0.009": 4.50567459624,
			"0.01": 9.27198938891,
			"0.011": 9.92653208719,
			"0.012": 1.37893306415,
			"0.013": 0.0,
			"0.014": 0.0,
			"0.015": 0.0,
			"0.016": 0.0,
			"0.017": 0.0,
			"0.018": 0.0,
			"0.019": 0.0,
			"0.02": 0.0,
			"0.021": 0.0,
			"0.022": 0.0,
			"0.023": 0.0,
			"0.024": 0.0,
			"0.025": 0.0
		}
	}
}
