{
	 "smiles": "COC1=C(OCC2=CC=C(F)C=C2)C=CC(C=O)=C1", 
	 "Tm": 352.15, 
	 "num_atms": 32, 
	 "gaussian": { 
		 "optdone": 1, 
		 "sigma_profile": "yes", 
		 "theory": "DFT", 
		 "functional": "B3LYP", 
		 "basiset": "6-31G**", 
		 "properties": { 
			 "R2extent": 6498.5022, 
			 "electric_dipole_moment_norm": 4.69209163593, 
			 "electric_quadrupole_moment_norm": 21.7358519504, 
			 "total_energy": -904.901559818, 
			 "HOMO_LUMO_gap": 0.16955, 
			 "cosmo_polarized_energy": -13.33, 
			 "cosmo_cavitation_energy": 37.77, 
			 "cosmo_dispersion_energy": -25.44, 
			 "cosmo_repulsion_energy": 1.95, 
			 "cosmo_total_nonelectrostatic_energy": 14.28, 
			 "SMD_solvation_energy": 8.82 
		},
		"coords": [
			{
				"x": -1.8043176516,
				"y": 1.4049028669,
				"z": 2.3482155964,
				"element": "C" 
			},
			{
				"x": -0.7339155195,
				"y": 0.6338765371,
				"z": 1.8220439573,
				"element": "O" 
			},
			{
				"x": 0.0918626902,
				"y": 1.2199118985,
				"z": 0.9050193784,
				"element": "C" 
			},
			{
				"x": 1.1851505052,
				"y": 0.4364099404,
				"z": 0.4576633864,
				"element": "C" 
			},
			{
				"x": 1.4272787029,
				"y": -0.812022834,
				"z": 0.9623003332,
				"element": "O" 
			},
			{
				"x": 0.4538779863,
				"y": -1.848785192,
				"z": 0.6918235864,
				"element": "C" 
			},
			{
				"x": 0.4888183532,
				"y": -2.3135498326,
				"z": -0.7445817182,
				"element": "C" 
			},
			{
				"x": 1.6513848655,
				"y": -2.8955449661,
				"z": -1.2719797451,
				"element": "C" 
			},
			{
				"x": 1.7019371297,
				"y": -3.3261905617,
				"z": -2.5951555302,
				"element": "C" 
			},
			{
				"x": 0.5695527083,
				"y": -3.1705879141,
				"z": -3.3903787054,
				"element": "C" 
			},
			{
				"x": 0.6102433093,
				"y": -3.5898052532,
				"z": -4.6718206644,
				"element": "F" 
			},
			{
				"x": -0.5986921893,
				"y": -2.5983638133,
				"z": -2.9040968545,
				"element": "C" 
			},
			{
				"x": -0.6266417057,
				"y": -2.1674148067,
				"z": -1.576244887,
				"element": "C" 
			},
			{
				"x": 2.0966395407,
				"y": 0.9749373274,
				"z": -0.4537411383,
				"element": "C" 
			},
			{
				"x": 1.9443448014,
				"y": 2.2696919116,
				"z": -0.9378375825,
				"element": "C" 
			},
			{
				"x": 0.857485269,
				"y": 3.0401250514,
				"z": -0.5116125053,
				"element": "C" 
			},
			{
				"x": 0.6680397978,
				"y": 4.4152119468,
				"z": -1.0159684914,
				"element": "C" 
			},
			{
				"x": 1.4024764353,
				"y": 4.9732861399,
				"z": -1.810020645,
				"element": "O" 
			},
			{
				"x": -0.0642564384,
				"y": 2.5126759775,
				"z": 0.4081052639,
				"element": "C" 
			},
			{
				"x": -1.4379183059,
				"y": 2.3061596249,
				"z": 2.8552624817,
				"element": "H" 
			},
			{
				"x": -2.5173952883,
				"y": 1.6963611428,
				"z": 1.5663769118,
				"element": "H" 
			},
			{
				"x": -2.3078701115,
				"y": 0.7638812074,
				"z": 3.073036707,
				"element": "H" 
			},
			{
				"x": -0.5463758154,
				"y": -1.5091797993,
				"z": 0.9709135734,
				"element": "H" 
			},
			{
				"x": 0.7449809121,
				"y": -2.6553212632,
				"z": 1.3707388698,
				"element": "H" 
			},
			{
				"x": 2.5267613372,
				"y": -3.0068022306,
				"z": -0.638049246,
				"element": "H" 
			},
			{
				"x": 2.5929151931,
				"y": -3.7794490811,
				"z": -3.0161937187,
				"element": "H" 
			},
			{
				"x": -1.4572840251,
				"y": -2.4923033483,
				"z": -3.5581848756,
				"element": "H" 
			},
			{
				"x": -1.5324919143,
				"y": -1.712892922,
				"z": -1.1837441417,
				"element": "H" 
			},
			{
				"x": 2.9247693254,
				"y": 0.3473047896,
				"z": -0.7650837182,
				"element": "H" 
			},
			{
				"x": 2.6446523435,
				"y": 2.6974898409,
				"z": -1.647083449,
				"element": "H" 
			},
			{
				"x": -0.2285686445,
				"y": 4.9363746694,
				"z": -0.6081209825,
				"element": "H" 
			},
			{
				"x": -0.8924435965,
				"y": 3.1336129454,
				"z": 0.733898553,
				"element": "H" 
			}
		],
		 "valence_orbital": [ 
			{
				"type": "occ",
				"energy": -0.26531,
				"method": "rhf"
			},
			{
				"type": "occ",
				"energy": -0.25503,
				"method": "rhf"
			},
			{
				"type": "occ",
				"energy": -0.25026,
				"method": "rhf"
			},
			{
				"type": "occ",
				"energy": -0.24703,
				"method": "rhf"
			},
			{
				"type": "occ",
				"energy": -0.22642,
				"method": "rhf"
			},
			{
				"type": "unocc",
				"energy": -0.05687,
				"method": "rhf"
			},
			{
				"type": "unocc",
				"energy": -0.01775,
				"method": "rhf"
			},
			{
				"type": "unocc",
				"energy": -0.01024,
				"method": "rhf"
			},
			{
				"type": "unocc",
				"energy": -0.00262,
				"method": "rhf"
			},
			{
				"type": "unocc",
				"energy": 0.04728,
				"method": "rhf"
			}
		],
		"cosmo_sigma_profile": { 
			"-0.025": 0.0,
			"-0.024": 0.0,
			"-0.023": 0.0,
			"-0.022": 0.0,
			"-0.021": 0.0,
			"-0.02": 0.0,
			"-0.019": 0.0,
			"-0.018": 0.0,
			"-0.017": 0.0,
			"-0.016": 0.0,
			"-0.015": 0.0,
			"-0.014": 0.0,
			"-0.013": 0.0,
			"-0.012": 0.0,
			"-0.011": 0.0,
			"-0.01": 0.0,
			"-0.009": 0.0394506208711,
			"-0.008": 2.07401962442,
			"-0.007": 9.41753351752,
			"-0.006": 23.6745003546,
			"-0.005": 26.5998914066,
			"-0.004": 24.7875104956,
			"-0.003": 22.2700825523,
			"-0.002": 17.383731241,
			"-0.001": 15.9258671497,
			"0.0": 18.5425565965,
			"0.001": 24.7124116179,
			"0.002": 26.0940963454,
			"0.003": 28.2700588861,
			"0.004": 25.0221546882,
			"0.005": 8.40639840117,
			"0.006": 3.05656379462,
			"0.007": 3.68897247574,
			"0.008": 3.39568968323,
			"0.009": 4.66184202102,
			"0.01": 4.55066983524,
			"0.011": 4.59960300576,
			"0.012": 3.68072114248,
			"0.013": 1.21418053732,
			"0.014": 0.0492202298228,
			"0.015": 0.0,
			"0.016": 0.0,
			"0.017": 0.0,
			"0.018": 0.0,
			"0.019": 0.0,
			"0.02": 0.0,
			"0.021": 0.0,
			"0.022": 0.0,
			"0.023": 0.0,
			"0.024": 0.0,
			"0.0": 0.0
		}
	}
}
