{
	 "smiles": "CCCCCCCCCC1=CC=C(O)C=C1", 
	 "Tm": 316.65, 
	 "num_atms": 40, 
	 "gaussian": { 
		 "optdone": 1, 
		 "sigma_profile": "yes", 
		 "theory": "DFT", 
		 "functional": "B3LYP", 
		 "basiset": "6-31G**", 
		 "properties": { 
			 "R2extent": 7693.214, 
			 "electric_dipole_moment_norm": 1.36645127612, 
			 "electric_quadrupole_moment_norm": 12.5726300474, 
			 "total_energy": -661.309254259, 
			 "HOMO_LUMO_gap": 0.21222, 
			 "cosmo_polarized_energy": -7.87, 
			 "cosmo_cavitation_energy": 40.74, 
			 "cosmo_dispersion_energy": -28.17, 
			 "cosmo_repulsion_energy": 2.26, 
			 "cosmo_total_nonelectrostatic_energy": 14.83, 
			 "SMD_solvation_energy": 6.07 
		},
		"coords": [
			{
				"x": 4.871807725,
				"y": 0.7636393446,
				"z": -0.4423541918,
				"element": "C" 
			},
			{
				"x": 5.0500721243,
				"y": 0.2164272183,
				"z": -1.8632883877,
				"element": "C" 
			},
			{
				"x": 3.8172087042,
				"y": -0.4788514885,
				"z": -2.4688549779,
				"element": "C" 
			},
			{
				"x": 3.3543393004,
				"y": -1.7617385496,
				"z": -1.7384336042,
				"element": "C" 
			},
			{
				"x": 2.2434156874,
				"y": -1.5745144044,
				"z": -0.6865949241,
				"element": "C" 
			},
			{
				"x": 0.8609819857,
				"y": -1.2805523561,
				"z": -1.2901212089,
				"element": "C" 
			},
			{
				"x": -0.2779367001,
				"y": -1.1665014017,
				"z": -0.2626351028,
				"element": "C" 
			},
			{
				"x": -0.1767237952,
				"y": 0.0473825301,
				"z": 0.6706474724,
				"element": "C" 
			},
			{
				"x": -1.3654977275,
				"y": 0.1884941512,
				"z": 1.6481498857,
				"element": "C" 
			},
			{
				"x": -2.694241535,
				"y": 0.4842368248,
				"z": 0.982253187,
				"element": "C" 
			},
			{
				"x": -2.9857575496,
				"y": 1.7680026812,
				"z": 0.5023411834,
				"element": "C" 
			},
			{
				"x": -4.1963487728,
				"y": 2.0542251371,
				"z": -0.1276831437,
				"element": "C" 
			},
			{
				"x": -5.1529241879,
				"y": 1.0465648996,
				"z": -0.2903235318,
				"element": "C" 
			},
			{
				"x": -6.3606849898,
				"y": 1.2621216763,
				"z": -0.8964514588,
				"element": "O" 
			},
			{
				"x": -4.8858143191,
				"y": -0.2410042789,
				"z": 0.1837007606,
				"element": "C" 
			},
			{
				"x": -3.6703845168,
				"y": -0.5079919433,
				"z": 0.8102723945,
				"element": "C" 
			},
			{
				"x": 4.6863167761,
				"y": -0.0355856733,
				"z": 0.2823637212,
				"element": "H" 
			},
			{
				"x": 4.0299180826,
				"y": 1.4637997295,
				"z": -0.3880881747,
				"element": "H" 
			},
			{
				"x": 5.7693368616,
				"y": 1.2990276914,
				"z": -0.1142621222,
				"element": "H" 
			},
			{
				"x": 5.3404254437,
				"y": 1.0422118759,
				"z": -2.526162211,
				"element": "H" 
			},
			{
				"x": 5.8933101866,
				"y": -0.4882342691,
				"z": -1.8738820419,
				"element": "H" 
			},
			{
				"x": 4.0586290255,
				"y": -0.730290551,
				"z": -3.5091333502,
				"element": "H" 
			},
			{
				"x": 2.9884230296,
				"y": 0.2398244754,
				"z": -2.5246032643,
				"element": "H" 
			},
			{
				"x": 2.9961921158,
				"y": -2.488777781,
				"z": -2.4795325065,
				"element": "H" 
			},
			{
				"x": 4.2260864079,
				"y": -2.2315379067,
				"z": -1.2628749354,
				"element": "H" 
			},
			{
				"x": 2.1696603219,
				"y": -2.4919166023,
				"z": -0.08577124,
				"element": "H" 
			},
			{
				"x": 2.5242503219,
				"y": -0.7775508927,
				"z": 0.0112009763,
				"element": "H" 
			},
			{
				"x": 0.8984312243,
				"y": -0.3565143659,
				"z": -1.8833852448,
				"element": "H" 
			},
			{
				"x": 0.6147992812,
				"y": -2.0827709641,
				"z": -1.9994739681,
				"element": "H" 
			},
			{
				"x": -0.312838269,
				"y": -2.0844604931,
				"z": 0.3427810187,
				"element": "H" 
			},
			{
				"x": -1.233328075,
				"y": -1.1204261347,
				"z": -0.7992395331,
				"element": "H" 
			},
			{
				"x": -0.0996158586,
				"y": 0.9627241916,
				"z": 0.0672811312,
				"element": "H" 
			},
			{
				"x": 0.7458343908,
				"y": -0.0101666114,
				"z": 1.2614581991,
				"element": "H" 
			},
			{
				"x": -1.1333803296,
				"y": 0.9897628164,
				"z": 2.3612880812,
				"element": "H" 
			},
			{
				"x": -1.4517677336,
				"y": -0.7319195021,
				"z": 2.2394259907,
				"element": "H" 
			},
			{
				"x": -2.2559734747,
				"y": 2.5648885418,
				"z": 0.6267586955,
				"element": "H" 
			},
			{
				"x": -4.4001299068,
				"y": 3.0612942819,
				"z": -0.487144979,
				"element": "H" 
			},
			{
				"x": -6.413685022,
				"y": 2.1864856742,
				"z": -1.1712672838,
				"element": "H" 
			},
			{
				"x": -5.637049923,
				"y": -1.0137461025,
				"z": 0.0568468054,
				"element": "H" 
			},
			{
				"x": -3.4775563102,
				"y": -1.5125614688,
				"z": 1.1788918838,
				"element": "H" 
			}
		],
		 "valence_orbital": [ 
			{
				"type": "occ",
				"energy": -0.30257,
				"method": "rhf"
			},
			{
				"type": "occ",
				"energy": -0.30204,
				"method": "rhf"
			},
			{
				"type": "occ",
				"energy": -0.29673,
				"method": "rhf"
			},
			{
				"type": "occ",
				"energy": -0.24698,
				"method": "rhf"
			},
			{
				"type": "occ",
				"energy": -0.21136,
				"method": "rhf"
			},
			{
				"type": "unocc",
				"energy": 0.00086,
				"method": "rhf"
			},
			{
				"type": "unocc",
				"energy": 0.01736,
				"method": "rhf"
			},
			{
				"type": "unocc",
				"energy": 0.07338,
				"method": "rhf"
			},
			{
				"type": "unocc",
				"energy": 0.0866,
				"method": "rhf"
			},
			{
				"type": "unocc",
				"energy": 0.09492,
				"method": "rhf"
			}
		],
		"cosmo_sigma_profile": { 
			"-0.025": 0.0,
			"-0.024": 0.0,
			"-0.023": 0.0,
			"-0.022": 0.0,
			"-0.021": 0.0,
			"-0.02": 0.0,
			"-0.019": 0.0,
			"-0.018": 0.191708800349,
			"-0.017": 0.795377292472,
			"-0.016": 1.0895402165,
			"-0.015": 1.15495220709,
			"-0.014": 0.846011322697,
			"-0.013": 0.911161385766,
			"-0.012": 1.08604833614,
			"-0.011": 1.29768256723,
			"-0.01": 0.689565390112,
			"-0.009": 1.40810703914,
			"-0.008": 0.629921515457,
			"-0.007": 1.21944247882,
			"-0.006": 2.67027404318,
			"-0.005": 6.37356655458,
			"-0.004": 8.68347565984,
			"-0.003": 13.5589737825,
			"-0.002": 33.3635644721,
			"-0.001": 56.1130390285,
			"0.0": 56.9136464548,
			"0.001": 50.8189668684,
			"0.002": 25.6432060154,
			"0.003": 9.5036483072,
			"0.004": 9.63550866436,
			"0.005": 9.92384573814,
			"0.006": 10.3024546087,
			"0.007": 2.82789834311,
			"0.008": 1.367345581,
			"0.009": 1.578790171,
			"0.01": 2.04586618664,
			"0.011": 1.45826499132,
			"0.012": 1.48990411838,
			"0.013": 0.0,
			"0.014": 0.0,
			"0.015": 0.0,
			"0.016": 0.0,
			"0.017": 0.0,
			"0.018": 0.0,
			"0.019": 0.0,
			"0.02": 0.0,
			"0.021": 0.0,
			"0.022": 0.0,
			"0.023": 0.0,
			"0.024": 0.0,
			"0.025": 0.0
		}
	}
}
