{
	 "smiles": "CN1C=CC2=C1C=CC=C2CO", 
	 "Tm": 343.15, 
	 "num_atms": 23, 
	 "gaussian": { 
		 "optdone": 1, 
		 "sigma_profile": "yes", 
		 "theory": "DFT", 
		 "functional": "B3LYP", 
		 "basiset": "6-31G**", 
		 "properties": { 
			 "R2extent": 2241.602, 
			 "electric_dipole_moment_norm": 4.28659238207, 
			 "electric_quadrupole_moment_norm": 8.03749774246, 
			 "total_energy": -517.659323818, 
			 "HOMO_LUMO_gap": 0.18844, 
			 "cosmo_polarized_energy": -10.58, 
			 "cosmo_cavitation_energy": 25.97, 
			 "cosmo_dispersion_energy": -19.02, 
			 "cosmo_repulsion_energy": 1.5, 
			 "cosmo_total_nonelectrostatic_energy": 8.44, 
			 "SMD_solvation_energy": 4.45 
		},
		"coords": [
			{
				"x": 0.5479470071,
				"y": 2.3685304168,
				"z": 2.0769080484,
				"element": "C" 
			},
			{
				"x": 0.8128587297,
				"y": 1.0965814801,
				"z": 1.4364680591,
				"element": "N" 
			},
			{
				"x": 2.0579990133,
				"y": 0.5350940669,
				"z": 1.2209137032,
				"element": "C" 
			},
			{
				"x": 1.9292191935,
				"y": -0.6806562662,
				"z": 0.5998403887,
				"element": "C" 
			},
			{
				"x": 0.5216723094,
				"y": -0.9046204519,
				"z": 0.4105340786,
				"element": "C" 
			},
			{
				"x": -0.1474261421,
				"y": 0.2299711033,
				"z": 0.9480139653,
				"element": "C" 
			},
			{
				"x": -1.5428390474,
				"y": 0.3479668958,
				"z": 0.941145955,
				"element": "C" 
			},
			{
				"x": -2.2674133595,
				"y": -0.6965748355,
				"z": 0.3796554374,
				"element": "C" 
			},
			{
				"x": -1.6213931389,
				"y": -1.8248665177,
				"z": -0.1651182004,
				"element": "C" 
			},
			{
				"x": -0.2356704336,
				"y": -1.9533126035,
				"z": -0.1596270816,
				"element": "C" 
			},
			{
				"x": 0.4658627646,
				"y": -3.1362059448,
				"z": -0.7837072984,
				"element": "C" 
			},
			{
				"x": 1.0673366025,
				"y": -2.8290641793,
				"z": -2.0438038207,
				"element": "O" 
			},
			{
				"x": -0.0443252239,
				"y": 2.2357213561,
				"z": 2.9894181499,
				"element": "H" 
			},
			{
				"x": 1.4962798904,
				"y": 2.8375930557,
				"z": 2.3448690629,
				"element": "H" 
			},
			{
				"x": 0.0055838115,
				"y": 3.0421256859,
				"z": 1.4040297612,
				"element": "H" 
			},
			{
				"x": 2.9481508593,
				"y": 1.0613107191,
				"z": 1.5372486944,
				"element": "H" 
			},
			{
				"x": 2.7435543728,
				"y": -1.3356271081,
				"z": 0.323493883,
				"element": "H" 
			},
			{
				"x": -2.0430710559,
				"y": 1.2167843538,
				"z": 1.3581619303,
				"element": "H" 
			},
			{
				"x": -3.3518438727,
				"y": -0.6422789401,
				"z": 0.3561624532,
				"element": "H" 
			},
			{
				"x": -2.2219985512,
				"y": -2.6178528847,
				"z": -0.60307097,
				"element": "H" 
			},
			{
				"x": -0.2486242891,
				"y": -3.9409094594,
				"z": -0.9808284837,
				"element": "H" 
			},
			{
				"x": 1.2198112697,
				"y": -3.5307945815,
				"z": -0.0829910162,
				"element": "H" 
			},
			{
				"x": 1.5264292904,
				"y": -1.9850153607,
				"z": -1.9419166996,
				"element": "H" 
			}
		],
		 "valence_orbital": [ 
			{
				"type": "occ",
				"energy": -0.31459,
				"method": "rhf"
			},
			{
				"type": "occ",
				"energy": -0.26844,
				"method": "rhf"
			},
			{
				"type": "occ",
				"energy": -0.25456,
				"method": "rhf"
			},
			{
				"type": "occ",
				"energy": -0.22019,
				"method": "rhf"
			},
			{
				"type": "occ",
				"energy": -0.2011,
				"method": "rhf"
			},
			{
				"type": "unocc",
				"energy": -0.01266,
				"method": "rhf"
			},
			{
				"type": "unocc",
				"energy": 0.02478,
				"method": "rhf"
			},
			{
				"type": "unocc",
				"energy": 0.06264,
				"method": "rhf"
			},
			{
				"type": "unocc",
				"energy": 0.08485,
				"method": "rhf"
			},
			{
				"type": "unocc",
				"energy": 0.1015,
				"method": "rhf"
			}
		],
		"cosmo_sigma_profile": { 
			"-0.025": 0.0,
			"-0.024": 0.0,
			"-0.023": 0.0,
			"-0.022": 0.0,
			"-0.021": 0.0,
			"-0.02": 0.0,
			"-0.019": 0.0,
			"-0.018": 0.0,
			"-0.017": 0.0,
			"-0.016": 0.0,
			"-0.015": 0.0,
			"-0.014": 0.0,
			"-0.013": 0.189987717216,
			"-0.012": 0.780293253244,
			"-0.011": 0.637072920957,
			"-0.01": 0.651149410911,
			"-0.009": 1.07979536344,
			"-0.008": 3.63472794086,
			"-0.007": 4.66370607412,
			"-0.006": 8.64330689332,
			"-0.005": 19.805036845,
			"-0.004": 20.057168713,
			"-0.003": 22.3952208315,
			"-0.002": 18.4610419323,
			"-0.001": 12.5910536909,
			"0.0": 9.16542742641,
			"0.001": 8.6917737886,
			"0.002": 7.90371570859,
			"0.003": 9.86505574545,
			"0.004": 10.1519242418,
			"0.005": 12.5941468572,
			"0.006": 12.4858954439,
			"0.007": 9.22259986183,
			"0.008": 1.58253571374,
			"0.009": 1.0462925141,
			"0.01": 1.88105510801,
			"0.011": 0.399600442704,
			"0.012": 1.6504451389,
			"0.013": 2.16961378501,
			"0.014": 2.15397226063,
			"0.015": 1.29277379434,
			"0.016": 0.0,
			"0.017": 0.0,
			"0.018": 0.0,
			"0.019": 0.0,
			"0.02": 0.0,
			"0.021": 0.0,
			"0.022": 0.0,
			"0.023": 0.0,
			"0.024": 0.0,
			"0.025": 0.0
		}
	}
}
