{
	 "smiles": "CCC1=CC=CC(=C1)C1=CC=CC=C1", 
	 "Tm": 245.35, 
	 "num_atms": 28, 
	 "gaussian": { 
		 "optdone": 1, 
		 "sigma_profile": "yes", 
		 "theory": "DFT", 
		 "functional": "B3LYP", 
		 "basiset": "6-31G**", 
		 "properties": { 
			 "R2extent": 3834.8411, 
			 "electric_dipole_moment_norm": 0.335835153014, 
			 "electric_quadrupole_moment_norm": 8.06115256027, 
			 "total_energy": -541.947280744, 
			 "HOMO_LUMO_gap": 0.19614, 
			 "cosmo_polarized_energy": -5.03, 
			 "cosmo_cavitation_energy": 31.06, 
			 "cosmo_dispersion_energy": -22.29, 
			 "cosmo_repulsion_energy": 1.75, 
			 "cosmo_total_nonelectrostatic_energy": 10.52, 
			 "SMD_solvation_energy": 4.99 
		},
		"coords": [
			{
				"x": 3.1848452114,
				"y": -1.3993757772,
				"z": -0.7601156745,
				"element": "C" 
			},
			{
				"x": 2.6650953577,
				"y": 0.0447088136,
				"z": -0.6413019553,
				"element": "C" 
			},
			{
				"x": 1.53985706,
				"y": 0.183711007,
				"z": 0.3633739174,
				"element": "C" 
			},
			{
				"x": 1.8099776341,
				"y": 0.439117923,
				"z": 1.7143575887,
				"element": "C" 
			},
			{
				"x": 0.7691698237,
				"y": 0.5367818783,
				"z": 2.6380497985,
				"element": "C" 
			},
			{
				"x": -0.5537032371,
				"y": 0.3811821539,
				"z": 2.2282060372,
				"element": "C" 
			},
			{
				"x": -0.8564060708,
				"y": 0.12634408,
				"z": 0.8803626138,
				"element": "C" 
			},
			{
				"x": 0.2064333735,
				"y": 0.0327836029,
				"z": -0.0329666387,
				"element": "C" 
			},
			{
				"x": -2.2634263228,
				"y": -0.0349657695,
				"z": 0.4305243781,
				"element": "C" 
			},
			{
				"x": -3.2901877927,
				"y": 0.7584168426,
				"z": 0.9706402685,
				"element": "C" 
			},
			{
				"x": -4.6107899896,
				"y": 0.606900775,
				"z": 0.549970496,
				"element": "C" 
			},
			{
				"x": -4.9352399917,
				"y": -0.3411132501,
				"z": -0.4223570451,
				"element": "C" 
			},
			{
				"x": -3.9262397503,
				"y": -1.1364518029,
				"z": -0.9688806626,
				"element": "C" 
			},
			{
				"x": -2.6061193755,
				"y": -0.9854682242,
				"z": -0.5464489107,
				"element": "C" 
			},
			{
				"x": 2.3863625801,
				"y": -2.0782769014,
				"z": -1.076853416,
				"element": "H" 
			},
			{
				"x": 3.9974159291,
				"y": -1.4656263316,
				"z": -1.4913824743,
				"element": "H" 
			},
			{
				"x": 3.5631715674,
				"y": -1.760425017,
				"z": 0.2018037417,
				"element": "H" 
			},
			{
				"x": 2.3213941563,
				"y": 0.3863856046,
				"z": -1.6249218681,
				"element": "H" 
			},
			{
				"x": 3.4939101113,
				"y": 0.7034356695,
				"z": -0.3553503432,
				"element": "H" 
			},
			{
				"x": 2.8392758437,
				"y": 0.5665268563,
				"z": 2.041283755,
				"element": "H" 
			},
			{
				"x": 0.9898701645,
				"y": 0.7308130728,
				"z": 3.6841448313,
				"element": "H" 
			},
			{
				"x": -1.356187588,
				"y": 0.4348535544,
				"z": 2.957750809,
				"element": "H" 
			},
			{
				"x": -0.0146412422,
				"y": -0.1325501165,
				"z": -1.0846692733,
				"element": "H" 
			},
			{
				"x": -3.0447589444,
				"y": 1.5169742811,
				"z": 1.7081316322,
				"element": "H" 
			},
			{
				"x": -5.3862922814,
				"y": 1.2372460122,
				"z": 0.9762873608,
				"element": "H" 
			},
			{
				"x": -5.9638699909,
				"y": -0.4589754413,
				"z": -0.7506880963,
				"element": "H" 
			},
			{
				"x": -4.1681527753,
				"y": -1.8835185491,
				"z": -1.7197905263,
				"element": "H" 
			},
			{
				"x": -1.8332634601,
				"y": -1.6276349466,
				"z": -0.9585603439,
				"element": "H" 
			}
		],
		 "valence_orbital": [ 
			{
				"type": "occ",
				"energy": -0.32312,
				"method": "rhf"
			},
			{
				"type": "occ",
				"energy": -0.26839,
				"method": "rhf"
			},
			{
				"type": "occ",
				"energy": -0.24781,
				"method": "rhf"
			},
			{
				"type": "occ",
				"energy": -0.24011,
				"method": "rhf"
			},
			{
				"type": "occ",
				"energy": -0.22004,
				"method": "rhf"
			},
			{
				"type": "unocc",
				"energy": -0.0239,
				"method": "rhf"
			},
			{
				"type": "unocc",
				"energy": -0.00075,
				"method": "rhf"
			},
			{
				"type": "unocc",
				"energy": 0.00319,
				"method": "rhf"
			},
			{
				"type": "unocc",
				"energy": 0.03207,
				"method": "rhf"
			},
			{
				"type": "unocc",
				"energy": 0.09482,
				"method": "rhf"
			}
		],
		"cosmo_sigma_profile": { 
			"-0.025": 0.0,
			"-0.024": 0.0,
			"-0.023": 0.0,
			"-0.022": 0.0,
			"-0.021": 0.0,
			"-0.02": 0.0,
			"-0.019": 0.0,
			"-0.018": 0.0,
			"-0.017": 0.0,
			"-0.016": 0.0,
			"-0.015": 0.0,
			"-0.014": 0.0,
			"-0.013": 0.0,
			"-0.012": 0.0,
			"-0.011": 0.0,
			"-0.01": 0.0,
			"-0.009": 0.0,
			"-0.008": 0.0,
			"-0.007": 0.0,
			"-0.006": 3.78004938884,
			"-0.005": 16.6958094137,
			"-0.004": 22.4869715592,
			"-0.003": 28.5717761145,
			"-0.002": 23.9148983492,
			"-0.001": 24.7838473103,
			"0.0": 22.9968046807,
			"0.001": 21.286213139,
			"0.002": 15.5006840994,
			"0.003": 16.749225661,
			"0.004": 16.671041073,
			"0.005": 16.6658781177,
			"0.006": 15.6494350494,
			"0.007": 0.988434227196,
			"0.008": 0.0,
			"0.009": 0.0,
			"0.01": 0.0,
			"0.011": 0.0,
			"0.012": 0.0,
			"0.013": 0.0,
			"0.014": 0.0,
			"0.015": 0.0,
			"0.016": 0.0,
			"0.017": 0.0,
			"0.018": 0.0,
			"0.019": 0.0,
			"0.02": 0.0,
			"0.021": 0.0,
			"0.022": 0.0,
			"0.023": 0.0,
			"0.024": 0.0,
			"0.025": 0.0
		}
	}
}
