{
	 "smiles": "CC1=CC(C)=NS(=O)(=O)N1", 
	 "Tm": 393.15, 
	 "num_atms": 18, 
	 "gaussian": { 
		 "optdone": 1, 
		 "sigma_profile": "yes", 
		 "theory": "DFT", 
		 "functional": "B3LYP", 
		 "basiset": "6-31G**", 
		 "properties": { 
			 "R2extent": 1808.6903, 
			 "electric_dipole_moment_norm": 6.97989538675, 
			 "electric_quadrupole_moment_norm": 13.9006858931, 
			 "total_energy": -853.410665084, 
			 "HOMO_LUMO_gap": 0.17972, 
			 "cosmo_polarized_energy": -20.24, 
			 "cosmo_cavitation_energy": 23.05, 
			 "cosmo_dispersion_energy": -17.87, 
			 "cosmo_repulsion_energy": 1.42, 
			 "cosmo_total_nonelectrostatic_energy": 6.6, 
			 "SMD_solvation_energy": 2.62 
		},
		"coords": [
			{
				"x": 1.6249111185,
				"y": 0.5373648863,
				"z": -2.0293905543,
				"element": "C" 
			},
			{
				"x": 0.9204753612,
				"y": 0.4522136423,
				"z": -0.705559355,
				"element": "C" 
			},
			{
				"x": 1.4007722728,
				"y": -0.2569119547,
				"z": 0.3641030299,
				"element": "C" 
			},
			{
				"x": 0.624871398,
				"y": -0.4336969592,
				"z": 1.5559364474,
				"element": "C" 
			},
			{
				"x": 1.1085502909,
				"y": -1.4269022209,
				"z": 2.5821589947,
				"element": "C" 
			},
			{
				"x": -0.5123948214,
				"y": 0.1625773307,
				"z": 1.8306769443,
				"element": "N" 
			},
			{
				"x": -1.0558782487,
				"y": 1.4066249414,
				"z": 0.9025503822,
				"element": "S" 
			},
			{
				"x": -0.5314185147,
				"y": 2.6681807292,
				"z": 1.4139307911,
				"element": "O" 
			},
			{
				"x": -2.4802103957,
				"y": 1.2776725436,
				"z": 0.632544726,
				"element": "O" 
			},
			{
				"x": -0.2776771403,
				"y": 1.0952776427,
				"z": -0.6142676775,
				"element": "N" 
			},
			{
				"x": 2.5291405385,
				"y": -0.0728751007,
				"z": -2.0276381111,
				"element": "H" 
			},
			{
				"x": 0.9726126248,
				"y": 0.1861231901,
				"z": -2.8373412018,
				"element": "H" 
			},
			{
				"x": 1.9016790641,
				"y": 1.5740572667,
				"z": -2.2517064464,
				"element": "H" 
			},
			{
				"x": 2.3458821406,
				"y": -0.7762626797,
				"z": 0.2712373237,
				"element": "H" 
			},
			{
				"x": 2.0736056484,
				"y": -1.1009612881,
				"z": 2.9871448417,
				"element": "H" 
			},
			{
				"x": 1.2603262312,
				"y": -2.4117588161,
				"z": 2.1277714858,
				"element": "H" 
			},
			{
				"x": 0.3887154579,
				"y": -1.5068960028,
				"z": 3.3966737531,
				"element": "H" 
			},
			{
				"x": -0.685063026,
				"y": 1.5616728491,
				"z": -1.4160253738,
				"element": "H" 
			}
		],
		 "valence_orbital": [ 
			{
				"type": "occ",
				"energy": -0.33217,
				"method": "rhf"
			},
			{
				"type": "occ",
				"energy": -0.30414,
				"method": "rhf"
			},
			{
				"type": "occ",
				"energy": -0.29762,
				"method": "rhf"
			},
			{
				"type": "occ",
				"energy": -0.2886,
				"method": "rhf"
			},
			{
				"type": "occ",
				"energy": -0.24307,
				"method": "rhf"
			},
			{
				"type": "unocc",
				"energy": -0.06335,
				"method": "rhf"
			},
			{
				"type": "unocc",
				"energy": 0.03504,
				"method": "rhf"
			},
			{
				"type": "unocc",
				"energy": 0.04228,
				"method": "rhf"
			},
			{
				"type": "unocc",
				"energy": 0.07682,
				"method": "rhf"
			},
			{
				"type": "unocc",
				"energy": 0.08727,
				"method": "rhf"
			}
		],
		"cosmo_sigma_profile": { 
			"-0.025": 0.0,
			"-0.024": 0.0,
			"-0.023": 0.0,
			"-0.022": 0.0,
			"-0.021": 0.0,
			"-0.02": 0.0,
			"-0.019": 0.0,
			"-0.018": 0.230228710888,
			"-0.017": 1.58312331313,
			"-0.016": 1.03153847881,
			"-0.015": 0.906882693648,
			"-0.014": 1.29099449602,
			"-0.013": 1.21184794099,
			"-0.012": 1.53310786832,
			"-0.011": 0.633842868516,
			"-0.01": 1.10941491623,
			"-0.009": 1.32584869173,
			"-0.008": 1.83092583405,
			"-0.007": 8.64703386066,
			"-0.006": 13.0945790069,
			"-0.005": 14.6550035624,
			"-0.004": 13.8441803771,
			"-0.003": 14.2761766139,
			"-0.002": 16.1404134274,
			"-0.001": 11.6482242574,
			"0.0": 8.22997235347,
			"0.001": 5.69451754047,
			"0.002": 6.09205653063,
			"0.003": 4.34825748266,
			"0.004": 3.48109927491,
			"0.005": 2.44561456308,
			"0.006": 3.87979087718,
			"0.007": 3.96601352205,
			"0.008": 4.85010927357,
			"0.009": 6.30327109274,
			"0.01": 12.7013702213,
			"0.011": 13.709785822,
			"0.012": 1.85938438415,
			"0.013": 0.443138868835,
			"0.014": 0.0,
			"0.015": 0.0,
			"0.016": 0.0,
			"0.017": 0.0,
			"0.018": 0.0,
			"0.019": 0.0,
			"0.02": 0.0,
			"0.021": 0.0,
			"0.022": 0.0,
			"0.023": 0.0,
			"0.024": 0.0,
			"0.025": 0.0
		}
	}
}
