{
	 "smiles": "CN1C=C(C(O)=O)C(=N1)C1=CN=CC=C1", 
	 "Tm": 475.15, 
	 "num_atms": 24, 
	 "gaussian": { 
		 "optdone": 1, 
		 "sigma_profile": "yes", 
		 "theory": "DFT", 
		 "functional": "B3LYP", 
		 "basiset": "6-31G**", 
		 "properties": { 
			 "R2extent": 3567.7038, 
			 "electric_dipole_moment_norm": 7.77021282205, 
			 "electric_quadrupole_moment_norm": 18.4994183479, 
			 "total_energy": -701.172277056, 
			 "HOMO_LUMO_gap": 0.19616, 
			 "cosmo_polarized_energy": -23.52, 
			 "cosmo_cavitation_energy": 29.03, 
			 "cosmo_dispersion_energy": -21.22, 
			 "cosmo_repulsion_energy": 1.65, 
			 "cosmo_total_nonelectrostatic_energy": 9.46, 
			 "SMD_solvation_energy": 4.03 
		},
		"coords": [
			{
				"x": 2.0787872173,
				"y": -0.8953470652,
				"z": 3.2016334951,
				"element": "C" 
			},
			{
				"x": 1.0195437341,
				"y": -0.7359814155,
				"z": 2.220888458,
				"element": "N" 
			},
			{
				"x": 0.1289963567,
				"y": -1.6542231741,
				"z": 1.7928406235,
				"element": "C" 
			},
			{
				"x": -0.6810472527,
				"y": -1.0325683277,
				"z": 0.8476364572,
				"element": "C" 
			},
			{
				"x": -1.7084965938,
				"y": -1.7130645312,
				"z": 0.0286061638,
				"element": "C" 
			},
			{
				"x": -2.2746278924,
				"y": -2.8158428514,
				"z": 0.6068863787,
				"element": "O" 
			},
			{
				"x": -2.0388777119,
				"y": -1.3868890174,
				"z": -1.0861863896,
				"element": "O" 
			},
			{
				"x": -0.1759899978,
				"y": 0.3067840307,
				"z": 0.7739288961,
				"element": "C" 
			},
			{
				"x": 0.8446417626,
				"y": 0.4617578635,
				"z": 1.624821668,
				"element": "N" 
			},
			{
				"x": -0.6013400057,
				"y": 1.4678912361,
				"z": -0.0297613575,
				"element": "C" 
			},
			{
				"x": -1.9118887303,
				"y": 1.6274720714,
				"z": -0.5095365696,
				"element": "C" 
			},
			{
				"x": -2.3274873818,
				"y": 2.6918631881,
				"z": -1.2029325939,
				"element": "N" 
			},
			{
				"x": -1.435563842,
				"y": 3.6573734024,
				"z": -1.454263316,
				"element": "C" 
			},
			{
				"x": -0.1091721712,
				"y": 3.6081777294,
				"z": -1.0226432273,
				"element": "C" 
			},
			{
				"x": 0.3119342841,
				"y": 2.4987240489,
				"z": -0.2983061301,
				"element": "C" 
			},
			{
				"x": 3.042817712,
				"y": -0.6561881256,
				"z": 2.746803475,
				"element": "H" 
			},
			{
				"x": 2.0868695939,
				"y": -1.9289894055,
				"z": 3.5504063617,
				"element": "H" 
			},
			{
				"x": 1.9079635496,
				"y": -0.2255959351,
				"z": 4.0481040367,
				"element": "H" 
			},
			{
				"x": 0.1636041023,
				"y": -2.6783253715,
				"z": 2.1380534827,
				"element": "H" 
			},
			{
				"x": -2.0769318257,
				"y": -2.8263103271,
				"z": 1.5535176096,
				"element": "H" 
			},
			{
				"x": -2.6583579682,
				"y": 0.86131599,
				"z": -0.3294812959,
				"element": "H" 
			},
			{
				"x": -1.7990238103,
				"y": 4.5096350704,
				"z": -2.0262114503,
				"element": "H" 
			},
			{
				"x": 0.5751821358,
				"y": 4.4191481828,
				"z": -1.2519867055,
				"element": "H" 
			},
			{
				"x": 1.3318647354,
				"y": 2.4152827336,
				"z": 0.0615819296,
				"element": "H" 
			}
		],
		 "valence_orbital": [ 
			{
				"type": "occ",
				"energy": -0.2809,
				"method": "rhf"
			},
			{
				"type": "occ",
				"energy": -0.27186,
				"method": "rhf"
			},
			{
				"type": "occ",
				"energy": -0.26622,
				"method": "rhf"
			},
			{
				"type": "occ",
				"energy": -0.24567,
				"method": "rhf"
			},
			{
				"type": "occ",
				"energy": -0.2356,
				"method": "rhf"
			},
			{
				"type": "unocc",
				"energy": -0.03944,
				"method": "rhf"
			},
			{
				"type": "unocc",
				"energy": -0.02843,
				"method": "rhf"
			},
			{
				"type": "unocc",
				"energy": -0.01012,
				"method": "rhf"
			},
			{
				"type": "unocc",
				"energy": 0.02631,
				"method": "rhf"
			},
			{
				"type": "unocc",
				"energy": 0.05911,
				"method": "rhf"
			}
		],
		"cosmo_sigma_profile": { 
			"-0.025": 0.0,
			"-0.024": 0.0,
			"-0.023": 0.0,
			"-0.022": 0.0,
			"-0.021": 0.0,
			"-0.02": 0.0,
			"-0.019": 0.240230141363,
			"-0.018": 0.701832004545,
			"-0.017": 1.19272015189,
			"-0.016": 1.12561608953,
			"-0.015": 1.12634576106,
			"-0.014": 1.33065560618,
			"-0.013": 1.38996060918,
			"-0.012": 1.41356957463,
			"-0.011": 3.14847669282,
			"-0.01": 3.1962806021,
			"-0.009": 2.23628072236,
			"-0.008": 3.70694582568,
			"-0.007": 9.37011788724,
			"-0.006": 13.7273816131,
			"-0.005": 17.508705916,
			"-0.004": 17.6855338604,
			"-0.003": 14.4239276936,
			"-0.002": 9.10191347237,
			"-0.001": 9.15160564663,
			"0.0": 12.5100611357,
			"0.001": 16.2508604719,
			"0.002": 20.032412201,
			"0.003": 11.3657584924,
			"0.004": 6.52593891289,
			"0.005": 6.5125217484,
			"0.006": 6.14004199155,
			"0.007": 5.50245943902,
			"0.008": 5.58320008677,
			"0.009": 4.9878828343,
			"0.01": 6.40359524908,
			"0.011": 8.22564180851,
			"0.012": 5.49440939316,
			"0.013": 2.78979705979,
			"0.014": 0.777604972312,
			"0.015": 1.36515367595,
			"0.016": 0.62077813838,
			"0.017": 0.243636553152,
			"0.018": 0.0,
			"0.019": 0.0,
			"0.02": 0.0,
			"0.021": 0.0,
			"0.022": 0.0,
			"0.023": 0.0,
			"0.024": 0.0,
			"0.025": 0.0
		}
	}
}
