{
	 "smiles": "[O-][N+](=O)C1=CC=C(OC2=CC=C(C=C2)[N+]([O-])=O)C=C1", 
	 "Tm": 418.15, 
	 "num_atms": 27, 
	 "gaussian": { 
		 "optdone": 1, 
		 "sigma_profile": "yes", 
		 "theory": "DFT", 
		 "functional": "B3LYP", 
		 "basiset": "6-31G**", 
		 "properties": { 
			 "R2extent": 8239.5982, 
			 "electric_dipole_moment_norm": 2.85364037853, 
			 "electric_quadrupole_moment_norm": 46.3197859731, 
			 "total_energy": -947.510587465, 
			 "HOMO_LUMO_gap": 0.16223, 
			 "cosmo_polarized_energy": -15.1, 
			 "cosmo_cavitation_energy": 34.13, 
			 "cosmo_dispersion_energy": -24.63, 
			 "cosmo_repulsion_energy": 1.87, 
			 "cosmo_total_nonelectrostatic_energy": 11.37, 
			 "SMD_solvation_energy": 10.66 
		},
		"coords": [
			{
				"x": 4.9847515712,
				"y": 1.4436567329,
				"z": -3.0721933975,
				"element": "O" 
			},
			{
				"x": 4.449496201,
				"y": 0.6641818356,
				"z": -2.2841773566,
				"element": "N" 
			},
			{
				"x": 4.934406313,
				"y": -0.4053694519,
				"z": -1.9150342385,
				"element": "O" 
			},
			{
				"x": 3.1362745801,
				"y": 1.0374020901,
				"z": -1.7453305512,
				"element": "C" 
			},
			{
				"x": 2.5538223779,
				"y": 2.2390981865,
				"z": -2.1482422736,
				"element": "C" 
			},
			{
				"x": 1.3081131205,
				"y": 2.5862570537,
				"z": -1.6404852283,
				"element": "C" 
			},
			{
				"x": 0.6652353434,
				"y": 1.7320638758,
				"z": -0.7374382445,
				"element": "C" 
			},
			{
				"x": -0.5281461956,
				"y": 2.1823860505,
				"z": -0.2222711272,
				"element": "O" 
			},
			{
				"x": -1.5602224856,
				"y": 1.3256440035,
				"z": 0.0829068174,
				"element": "C" 
			},
			{
				"x": -2.3528549484,
				"y": 1.6818007687,
				"z": 1.1798839018,
				"element": "C" 
			},
			{
				"x": -3.4605195862,
				"y": 0.9100295252,
				"z": 1.5078672441,
				"element": "C" 
			},
			{
				"x": -3.7560287261,
				"y": -0.2110312232,
				"z": 0.7322649548,
				"element": "C" 
			},
			{
				"x": -2.9766569342,
				"y": -0.5708262517,
				"z": -0.3664662879,
				"element": "C" 
			},
			{
				"x": -1.8711018946,
				"y": 0.2048246265,
				"z": -0.6979587325,
				"element": "C" 
			},
			{
				"x": -4.9219662894,
				"y": -1.0323303149,
				"z": 1.0790189035,
				"element": "N" 
			},
			{
				"x": -5.5966726394,
				"y": -0.6841066685,
				"z": 2.0478114819,
				"element": "O" 
			},
			{
				"x": -5.1530032964,
				"y": -2.0187697268,
				"z": 0.3797986159,
				"element": "O" 
			},
			{
				"x": 1.2627791951,
				"y": 0.5326502151,
				"z": -0.3287987293,
				"element": "C" 
			},
			{
				"x": 2.5072026811,
				"y": 0.1824714467,
				"z": -0.8411974218,
				"element": "C" 
			},
			{
				"x": 3.077565024,
				"y": 2.8752168162,
				"z": -2.8505529275,
				"element": "H" 
			},
			{
				"x": 0.8201844566,
				"y": 3.5107333703,
				"z": -1.9283575852,
				"element": "H" 
			},
			{
				"x": -2.0877008299,
				"y": 2.5605238797,
				"z": 1.7570694584,
				"element": "H" 
			},
			{
				"x": -4.093295224,
				"y": 1.1554301843,
				"z": 2.3514154533,
				"element": "H" 
			},
			{
				"x": -3.2499434258,
				"y": -1.4418736342,
				"z": -0.9487217955,
				"element": "H" 
			},
			{
				"x": -1.2616535865,
				"y": -0.0502061571,
				"z": -1.5572359451,
				"element": "H" 
			},
			{
				"x": 0.7645559543,
				"y": -0.1115841038,
				"z": 0.386445183,
				"element": "H" 
			},
			{
				"x": 3.001379244,
				"y": -0.7345731294,
				"z": -0.5458201719,
				"element": "H" 
			}
		],
		 "valence_orbital": [ 
			{
				"type": "occ",
				"energy": -0.29748,
				"method": "rhf"
			},
			{
				"type": "occ",
				"energy": -0.29748,
				"method": "rhf"
			},
			{
				"type": "occ",
				"energy": -0.29339,
				"method": "rhf"
			},
			{
				"type": "occ",
				"energy": -0.2929,
				"method": "rhf"
			},
			{
				"type": "occ",
				"energy": -0.26219,
				"method": "rhf"
			},
			{
				"type": "unocc",
				"energy": -0.09996,
				"method": "rhf"
			},
			{
				"type": "unocc",
				"energy": -0.09196,
				"method": "rhf"
			},
			{
				"type": "unocc",
				"energy": -0.04949,
				"method": "rhf"
			},
			{
				"type": "unocc",
				"energy": -0.03803,
				"method": "rhf"
			},
			{
				"type": "unocc",
				"energy": -0.01448,
				"method": "rhf"
			}
		],
		"cosmo_sigma_profile": { 
			"-0.025": 0.0,
			"-0.024": 0.0,
			"-0.023": 0.0,
			"-0.022": 0.0,
			"-0.021": 0.0,
			"-0.02": 0.0,
			"-0.019": 0.0,
			"-0.018": 0.0,
			"-0.017": 0.0,
			"-0.016": 0.0,
			"-0.015": 0.0,
			"-0.014": 0.0,
			"-0.013": 0.0,
			"-0.012": 0.0,
			"-0.011": 0.0,
			"-0.01": 0.0,
			"-0.009": 1.0039533641,
			"-0.008": 10.5716613435,
			"-0.007": 14.7779205559,
			"-0.006": 16.9038027032,
			"-0.005": 13.9719545316,
			"-0.004": 16.936026932,
			"-0.003": 15.6338422146,
			"-0.002": 20.3550574214,
			"-0.001": 25.0557994027,
			"0.0": 33.3279628046,
			"0.001": 24.0290755518,
			"0.002": 9.2298159868,
			"0.003": 6.29298426497,
			"0.004": 5.94422937452,
			"0.005": 6.99002254034,
			"0.006": 7.5025070855,
			"0.007": 15.8004405492,
			"0.008": 15.445999683,
			"0.009": 9.46985061395,
			"0.01": 5.75245006213,
			"0.011": 0.5221860302,
			"0.012": 0.0,
			"0.013": 0.0,
			"0.014": 0.0,
			"0.015": 0.0,
			"0.016": 0.0,
			"0.017": 0.0,
			"0.018": 0.0,
			"0.019": 0.0,
			"0.02": 0.0,
			"0.021": 0.0,
			"0.022": 0.0,
			"0.023": 0.0,
			"0.024": 0.0,
			"0.025": 0.0
		}
	}
}
