{
	 "smiles": "ClCC(=O)NC1=CC=C(Cl)C=C1", 
	 "Tm": 442.15, 
	 "num_atms": 19, 
	 "gaussian": { 
		 "optdone": 1, 
		 "sigma_profile": "yes", 
		 "theory": "DFT", 
		 "functional": "B3LYP", 
		 "basiset": "6-31G**", 
		 "properties": { 
			 "R2extent": 4410.0604, 
			 "electric_dipole_moment_norm": 2.53741701342, 
			 "electric_quadrupole_moment_norm": 15.973752674, 
			 "total_energy": -1359.43924365, 
			 "HOMO_LUMO_gap": 0.19676, 
			 "cosmo_polarized_energy": -12.46, 
			 "cosmo_cavitation_energy": 27.01, 
			 "cosmo_dispersion_energy": -19.9, 
			 "cosmo_repulsion_energy": 1.6, 
			 "cosmo_total_nonelectrostatic_energy": 8.71, 
			 "SMD_solvation_energy": 4.78 
		},
		"coords": [
			{
				"x": -2.1284240397,
				"y": -1.7766596172,
				"z": -0.7400681632,
				"element": "Cl" 
			},
			{
				"x": -0.3684548423,
				"y": -1.874610341,
				"z": -1.1687268916,
				"element": "C" 
			},
			{
				"x": 0.1752454358,
				"y": -0.5059806722,
				"z": -1.5695950723,
				"element": "C" 
			},
			{
				"x": 0.0312584789,
				"y": -0.0832038872,
				"z": -2.7047439248,
				"element": "O" 
			},
			{
				"x": 0.8779768389,
				"y": 0.2227845841,
				"z": -0.6316308953,
				"element": "N" 
			},
			{
				"x": 1.2101489469,
				"y": -0.0416698891,
				"z": 0.7198923985,
				"element": "C" 
			},
			{
				"x": 2.511512996,
				"y": 0.2496723207,
				"z": 1.1556597023,
				"element": "C" 
			},
			{
				"x": 2.8796069576,
				"y": 0.0461326824,
				"z": 2.4825148254,
				"element": "C" 
			},
			{
				"x": 1.9439560435,
				"y": -0.4697725497,
				"z": 3.3798014548,
				"element": "C" 
			},
			{
				"x": 2.4061415615,
				"y": -0.7451691894,
				"z": 5.0507666776,
				"element": "Cl" 
			},
			{
				"x": 0.6453295598,
				"y": -0.7601322875,
				"z": 2.9658499802,
				"element": "C" 
			},
			{
				"x": 0.2736319674,
				"y": -0.5289360019,
				"z": 1.6416271082,
				"element": "C" 
			},
			{
				"x": -0.2999419005,
				"y": -2.5176017825,
				"z": -2.0444218792,
				"element": "H" 
			},
			{
				"x": 0.1466813797,
				"y": -2.3209418302,
				"z": -0.3191774057,
				"element": "H" 
			},
			{
				"x": 1.2921281241,
				"y": 1.049192141,
				"z": -1.047201968,
				"element": "H" 
			},
			{
				"x": 3.2419076521,
				"y": 0.629239213,
				"z": 0.4467662097,
				"element": "H" 
			},
			{
				"x": 3.886199257,
				"y": 0.273319023,
				"z": 2.8152563833,
				"element": "H" 
			},
			{
				"x": -0.0795279842,
				"y": -1.1416189657,
				"z": 3.6762869477,
				"element": "H" 
			},
			{
				"x": -0.7509764324,
				"y": -0.7075429505,
				"z": 1.3356445123,
				"element": "H" 
			}
		],
		 "valence_orbital": [ 
			{
				"type": "occ",
				"energy": -0.31295,
				"method": "rhf"
			},
			{
				"type": "occ",
				"energy": -0.2993,
				"method": "rhf"
			},
			{
				"type": "occ",
				"energy": -0.28086,
				"method": "rhf"
			},
			{
				"type": "occ",
				"energy": -0.27108,
				"method": "rhf"
			},
			{
				"type": "occ",
				"energy": -0.24076,
				"method": "rhf"
			},
			{
				"type": "unocc",
				"energy": -0.044,
				"method": "rhf"
			},
			{
				"type": "unocc",
				"energy": -0.03191,
				"method": "rhf"
			},
			{
				"type": "unocc",
				"energy": -0.01665,
				"method": "rhf"
			},
			{
				"type": "unocc",
				"energy": 0.0193,
				"method": "rhf"
			},
			{
				"type": "unocc",
				"energy": 0.05117,
				"method": "rhf"
			}
		],
		"cosmo_sigma_profile": { 
			"-0.025": 0.0,
			"-0.024": 0.0,
			"-0.023": 0.0,
			"-0.022": 0.0,
			"-0.021": 0.0,
			"-0.02": 0.0,
			"-0.019": 0.0,
			"-0.018": 0.0,
			"-0.017": 0.0,
			"-0.016": 0.0284039162118,
			"-0.015": 0.762625328742,
			"-0.014": 1.26152108467,
			"-0.013": 1.16527594571,
			"-0.012": 0.84987604387,
			"-0.011": 1.25237751447,
			"-0.01": 1.12714487509,
			"-0.009": 2.48114561166,
			"-0.008": 6.71778712652,
			"-0.007": 12.4772880634,
			"-0.006": 10.7647951089,
			"-0.005": 11.0583389875,
			"-0.004": 9.33548184419,
			"-0.003": 10.6900041518,
			"-0.002": 11.4647539367,
			"-0.001": 12.8954182422,
			"0.0": 14.7557346706,
			"0.001": 19.0245443841,
			"0.002": 21.2269535924,
			"0.003": 20.5928951551,
			"0.004": 16.0915286575,
			"0.005": 15.1078703617,
			"0.006": 3.49038740423,
			"0.007": 1.12176911294,
			"0.008": 0.753895606909,
			"0.009": 1.57176302572,
			"0.01": 1.65046288647,
			"0.011": 2.16953106179,
			"0.012": 4.54090752482,
			"0.013": 4.09372784434,
			"0.014": 0.304369848862,
			"0.015": 0.0,
			"0.016": 0.0,
			"0.017": 0.0,
			"0.018": 0.0,
			"0.019": 0.0,
			"0.02": 0.0,
			"0.021": 0.0,
			"0.022": 0.0,
			"0.023": 0.0,
			"0.024": 0.0,
			"0.025": 0.0
		}
	}
}
