{
	 "smiles": "BrC1=CC=C(C=C1)C(=O)CC1=NC=CC=C1", 
	 "Tm": 400.15, 
	 "num_atms": 26, 
	 "gaussian": { 
		 "optdone": 1, 
		 "sigma_profile": "yes", 
		 "theory": "DFT", 
		 "functional": "B3LYP", 
		 "basiset": "6-31G**", 
		 "properties": { 
			 "R2extent": 7527.6052, 
			 "electric_dipole_moment_norm": 2.52739905832, 
			 "electric_quadrupole_moment_norm": 8.95678118578, 
			 "total_energy": -3202.79113507, 
			 "HOMO_LUMO_gap": 0.18123, 
			 "cosmo_polarized_energy": -9.03, 
			 "cosmo_cavitation_energy": 33.11, 
			 "cosmo_dispersion_energy": -23.97, 
			 "cosmo_repulsion_energy": 1.86, 
			 "cosmo_total_nonelectrostatic_energy": 11.0, 
			 "SMD_solvation_energy": 4.0 
		},
		"coords": [
			{
				"x": -0.977789823,
				"y": -3.967073114,
				"z": 3.9457030811,
				"element": "Br" 
			},
			{
				"x": -1.0246821649,
				"y": -2.542870116,
				"z": 2.6756161851,
				"element": "C" 
			},
			{
				"x": -0.1047081103,
				"y": -2.5310800831,
				"z": 1.6283592761,
				"element": "C" 
			},
			{
				"x": -0.1463741747,
				"y": -1.4943248733,
				"z": 0.6966208738,
				"element": "C" 
			},
			{
				"x": -1.0980870934,
				"y": -0.469439949,
				"z": 0.8161306977,
				"element": "C" 
			},
			{
				"x": -2.0054369661,
				"y": -0.4991691101,
				"z": 1.8879887711,
				"element": "C" 
			},
			{
				"x": -1.9789030809,
				"y": -1.5324399519,
				"z": 2.8170422216,
				"element": "C" 
			},
			{
				"x": -1.1934812376,
				"y": 0.6695545619,
				"z": -0.1485296135,
				"element": "C" 
			},
			{
				"x": -1.9468429047,
				"y": 1.609406579,
				"z": 0.0603826971,
				"element": "O" 
			},
			{
				"x": -0.3251464834,
				"y": 0.6632561229,
				"z": -1.4136178481,
				"element": "C" 
			},
			{
				"x": 1.0779991515,
				"y": 1.1764116104,
				"z": -1.1395552235,
				"element": "C" 
			},
			{
				"x": 2.0710806564,
				"y": 0.2744787424,
				"z": -1.165913937,
				"element": "N" 
			},
			{
				"x": 3.3172493042,
				"y": 0.7039934224,
				"z": -0.9264066296,
				"element": "C" 
			},
			{
				"x": 3.6361536909,
				"y": 2.0322686656,
				"z": -0.6484802101,
				"element": "C" 
			},
			{
				"x": 2.5982213803,
				"y": 2.964298727,
				"z": -0.6118483277,
				"element": "C" 
			},
			{
				"x": 1.2983144436,
				"y": 2.5321365698,
				"z": -0.8598941721,
				"element": "C" 
			},
			{
				"x": 0.6337842328,
				"y": -3.3198511879,
				"z": 1.5429806922,
				"element": "H" 
			},
			{
				"x": 0.5888272205,
				"y": -1.4742881519,
				"z": -0.1018224863,
				"element": "H" 
			},
			{
				"x": -2.7299230203,
				"y": 0.3040350172,
				"z": 1.9714676806,
				"element": "H" 
			},
			{
				"x": -2.6835143449,
				"y": -1.5593659554,
				"z": 3.6403739864,
				"element": "H" 
			},
			{
				"x": -0.8317834254,
				"y": 1.3204584014,
				"z": -2.1251591339,
				"element": "H" 
			},
			{
				"x": -0.2514208913,
				"y": -0.3371260975,
				"z": -1.8446111866,
				"element": "H" 
			},
			{
				"x": 4.0968865628,
				"y": -0.05492342,
				"z": -0.9598025971,
				"element": "H" 
			},
			{
				"x": 4.6652505266,
				"y": 2.3233442605,
				"z": -0.4642883046,
				"element": "H" 
			},
			{
				"x": 2.798286382,
				"y": 4.0096027578,
				"z": -0.3945095857,
				"element": "H" 
			},
			{
				"x": 0.4595401693,
				"y": 3.2207065717,
				"z": -0.8356269071,
				"element": "H" 
			}
		],
		 "valence_orbital": [ 
			{
				"type": "occ",
				"energy": -0.27294,
				"method": "rhf"
			},
			{
				"type": "occ",
				"energy": -0.26926,
				"method": "rhf"
			},
			{
				"type": "occ",
				"energy": -0.26487,
				"method": "rhf"
			},
			{
				"type": "occ",
				"energy": -0.24901,
				"method": "rhf"
			},
			{
				"type": "occ",
				"energy": -0.2472,
				"method": "rhf"
			},
			{
				"type": "unocc",
				"energy": -0.06597,
				"method": "rhf"
			},
			{
				"type": "unocc",
				"energy": -0.03059,
				"method": "rhf"
			},
			{
				"type": "unocc",
				"energy": -0.02046,
				"method": "rhf"
			},
			{
				"type": "unocc",
				"energy": -0.01681,
				"method": "rhf"
			},
			{
				"type": "unocc",
				"energy": 0.00369,
				"method": "rhf"
			}
		],
		"cosmo_sigma_profile": { 
			"-0.025": 0.0,
			"-0.024": 0.0,
			"-0.023": 0.0,
			"-0.022": 0.0,
			"-0.021": 0.0,
			"-0.02": 0.0,
			"-0.019": 0.0,
			"-0.018": 0.0,
			"-0.017": 0.0,
			"-0.016": 0.0,
			"-0.015": 0.0,
			"-0.014": 0.0,
			"-0.013": 0.0,
			"-0.012": 0.0,
			"-0.011": 0.0,
			"-0.01": 0.0,
			"-0.009": 0.0,
			"-0.008": 1.11888352945,
			"-0.007": 8.51725983931,
			"-0.006": 16.7821806779,
			"-0.005": 21.9791341061,
			"-0.004": 17.9593832483,
			"-0.003": 17.1559556514,
			"-0.002": 18.3345681628,
			"-0.001": 17.1417186371,
			"0.0": 20.7186898121,
			"0.001": 27.8640468593,
			"0.002": 37.5919632922,
			"0.003": 23.6319040798,
			"0.004": 15.3668351509,
			"0.005": 5.1027200601,
			"0.006": 2.16623059954,
			"0.007": 2.39918474985,
			"0.008": 2.081579799,
			"0.009": 2.47996636567,
			"0.01": 2.78866946742,
			"0.011": 3.93684336175,
			"0.012": 3.23666392984,
			"0.013": 0.967003054832,
			"0.014": 0.196136788187,
			"0.015": 0.0,
			"0.016": 0.0,
			"0.017": 0.0,
			"0.018": 0.0,
			"0.019": 0.0,
			"0.02": 0.0,
			"0.021": 0.0,
			"0.022": 0.0,
			"0.023": 0.0,
			"0.024": 0.0,
			"0.025": 0.0
		}
	}
}
