{
	 "smiles": "COC1C(O)C(C)OC(OC2CCC3(C)C(CCC4C3CCC3(C)C(CCC43O)C3=CC(=O)OC3)C2)C1O", 
	 "Tm": 494.15, 
	 "num_atms": 84, 
	 "gaussian": { 
		 "optdone": 1, 
		 "sigma_profile": "yes", 
		 "theory": "DFT", 
		 "functional": "B3LYP", 
		 "basiset": "6-31G**", 
		 "properties": { 
			 "R2extent": 31962.3425, 
			 "electric_dipole_moment_norm": 6.83248019243, 
			 "electric_quadrupole_moment_norm": 62.877834585, 
			 "total_energy": -1772.64856873, 
			 "HOMO_LUMO_gap": 0.20924, 
			 "cosmo_polarized_energy": -29.92, 
			 "cosmo_cavitation_energy": 72.11, 
			 "cosmo_dispersion_energy": -48.5, 
			 "cosmo_repulsion_energy": 3.54, 
			 "cosmo_total_nonelectrostatic_energy": 27.14, 
			 "SMD_solvation_energy": 11.82 
		},
		"coords": [
			{
				"x": -1.7581259143,
				"y": 4.3319462847,
				"z": 5.095733685,
				"element": "C" 
			},
			{
				"x": -0.8786502717,
				"y": 3.2784655028,
				"z": 5.4655588124,
				"element": "O" 
			},
			{
				"x": 0.5016536092,
				"y": 3.5475413576,
				"z": 5.270613061,
				"element": "C" 
			},
			{
				"x": 1.2958179623,
				"y": 2.6108187168,
				"z": 6.2217732908,
				"element": "C" 
			},
			{
				"x": 2.4752007751,
				"y": 3.2333419625,
				"z": 6.7231316891,
				"element": "O" 
			},
			{
				"x": 1.7860050166,
				"y": 1.3333353039,
				"z": 5.5049070265,
				"element": "C" 
			},
			{
				"x": 1.987452739,
				"y": 0.1666997688,
				"z": 6.4572121275,
				"element": "C" 
			},
			{
				"x": 0.82968247,
				"y": 0.9280735362,
				"z": 4.519860729,
				"element": "O" 
			},
			{
				"x": 0.6451956599,
				"y": 1.8369027734,
				"z": 3.4558172741,
				"element": "C" 
			},
			{
				"x": 1.4719463624,
				"y": 1.5527827683,
				"z": 2.3422444217,
				"element": "O" 
			},
			{
				"x": 1.187840475,
				"y": 0.3127899285,
				"z": 1.6692293919,
				"element": "C" 
			},
			{
				"x": 2.4398865296,
				"y": -0.0589358189,
				"z": 0.8828958123,
				"element": "C" 
			},
			{
				"x": 2.2759724562,
				"y": -1.3908281443,
				"z": 0.1242162365,
				"element": "C" 
			},
			{
				"x": 0.8666571927,
				"y": -1.599429763,
				"z": -0.5419873814,
				"element": "C" 
			},
			{
				"x": 0.0813555765,
				"y": -2.5794843934,
				"z": 0.3641533304,
				"element": "C" 
			},
			{
				"x": 0.0907863984,
				"y": -0.2556142812,
				"z": -0.634937078,
				"element": "C" 
			},
			{
				"x": 0.6583969465,
				"y": 0.7057007924,
				"z": -1.7279460785,
				"element": "C" 
			},
			{
				"x": 1.8611798397,
				"y": 0.1883597543,
				"z": -2.5429483864,
				"element": "C" 
			},
			{
				"x": 1.894947479,
				"y": -1.326460891,
				"z": -2.9168774763,
				"element": "C" 
			},
			{
				"x": 1.0261268488,
				"y": -2.2227368092,
				"z": -1.9692795572,
				"element": "C" 
			},
			{
				"x": -0.3116226525,
				"y": -2.640689439,
				"z": -2.6535558089,
				"element": "C" 
			},
			{
				"x": -0.8066242847,
				"y": -1.674342444,
				"z": -3.7400480284,
				"element": "C" 
			},
			{
				"x": 0.1910626009,
				"y": -1.5494416376,
				"z": -4.9166793911,
				"element": "C" 
			},
			{
				"x": -0.1385702038,
				"y": -2.6126840564,
				"z": -5.9844056394,
				"element": "C" 
			},
			{
				"x": 0.2189448894,
				"y": -0.1153247449,
				"z": -5.5628878777,
				"element": "C" 
			},
			{
				"x": 1.5833707533,
				"y": -0.0425876864,
				"z": -6.2760970495,
				"element": "C" 
			},
			{
				"x": 2.5454026478,
				"y": -0.8698569611,
				"z": -5.3944985063,
				"element": "C" 
			},
			{
				"x": 1.6736200815,
				"y": -1.7131270516,
				"z": -4.4136093297,
				"element": "C" 
			},
			{
				"x": 2.0012508232,
				"y": -3.1091085154,
				"z": -4.5243058207,
				"element": "O" 
			},
			{
				"x": -0.9593942384,
				"y": 0.2620386557,
				"z": -6.4120601565,
				"element": "C" 
			},
			{
				"x": -1.0401930542,
				"y": 0.4667909512,
				"z": -7.7355278175,
				"element": "C" 
			},
			{
				"x": -2.4138757214,
				"y": 0.878318707,
				"z": -8.095916244,
				"element": "C" 
			},
			{
				"x": -2.8875548835,
				"y": 1.1493929299,
				"z": -9.1706897087,
				"element": "O" 
			},
			{
				"x": -3.1541006457,
				"y": 0.9209020667,
				"z": -6.9301931247,
				"element": "O" 
			},
			{
				"x": -2.3252787077,
				"y": 0.550580436,
				"z": -5.8297641529,
				"element": "C" 
			},
			{
				"x": -0.056769338,
				"y": 0.4299695252,
				"z": 0.7518694621,
				"element": "C" 
			},
			{
				"x": 0.9702548129,
				"y": 3.2844335273,
				"z": 3.8422061962,
				"element": "C" 
			},
			{
				"x": 0.3843372692,
				"y": 4.1936192642,
				"z": 2.9231459407,
				"element": "O" 
			},
			{
				"x": -1.7472342543,
				"y": 4.5189864165,
				"z": 4.0177411454,
				"element": "H" 
			},
			{
				"x": -2.7595847061,
				"y": 4.0242372397,
				"z": 5.4078785806,
				"element": "H" 
			},
			{
				"x": -1.4983588448,
				"y": 5.267350771,
				"z": 5.6158439767,
				"element": "H" 
			},
			{
				"x": 0.7260924631,
				"y": 4.5932177517,
				"z": 5.5374197426,
				"element": "H" 
			},
			{
				"x": 0.6057840704,
				"y": 2.3382252258,
				"z": 7.0324062639,
				"element": "H" 
			},
			{
				"x": 2.2116544244,
				"y": 3.9197019392,
				"z": 7.3490987893,
				"element": "H" 
			},
			{
				"x": 2.7437514054,
				"y": 1.5785498842,
				"z": 5.0237507774,
				"element": "H" 
			},
			{
				"x": 2.4087432229,
				"y": -0.6941976815,
				"z": 5.9308804405,
				"element": "H" 
			},
			{
				"x": 1.0310494797,
				"y": -0.1320813915,
				"z": 6.8979940027,
				"element": "H" 
			},
			{
				"x": 2.6716084173,
				"y": 0.4597992736,
				"z": 7.2584322731,
				"element": "H" 
			},
			{
				"x": -0.4133202875,
				"y": 1.7581831839,
				"z": 3.1822621287,
				"element": "H" 
			},
			{
				"x": 1.0162409127,
				"y": -0.4487913517,
				"z": 2.439779239,
				"element": "H" 
			},
			{
				"x": 2.6643823778,
				"y": 0.7604816114,
				"z": 0.1903283411,
				"element": "H" 
			},
			{
				"x": 3.2896118379,
				"y": -0.1185734781,
				"z": 1.5709141905,
				"element": "H" 
			},
			{
				"x": 3.0784581965,
				"y": -1.4678365911,
				"z": -0.6149144872,
				"element": "H" 
			},
			{
				"x": 2.4489783417,
				"y": -2.2174364935,
				"z": 0.8236077176,
				"element": "H" 
			},
			{
				"x": 0.1147239976,
				"y": -2.2659932312,
				"z": 1.4113357784,
				"element": "H" 
			},
			{
				"x": 0.521175743,
				"y": -3.5821933467,
				"z": 0.313388947,
				"element": "H" 
			},
			{
				"x": -0.973611487,
				"y": -2.6628388896,
				"z": 0.0882538285,
				"element": "H" 
			},
			{
				"x": -0.9257206313,
				"y": -0.5181740189,
				"z": -0.9498367774,
				"element": "H" 
			},
			{
				"x": -0.158866891,
				"y": 0.9750676077,
				"z": -2.4069128497,
				"element": "H" 
			},
			{
				"x": 0.9630249899,
				"y": 1.6525032758,
				"z": -1.2678090487,
				"element": "H" 
			},
			{
				"x": 1.9694520315,
				"y": 0.8132148068,
				"z": -3.4347838388,
				"element": "H" 
			},
			{
				"x": 2.7643032786,
				"y": 0.3894155211,
				"z": -1.9589191457,
				"element": "H" 
			},
			{
				"x": 2.9416498851,
				"y": -1.6208632264,
				"z": -2.7543967933,
				"element": "H" 
			},
			{
				"x": 1.5888312827,
				"y": -3.1512206172,
				"z": -1.8194716732,
				"element": "H" 
			},
			{
				"x": -1.1041360055,
				"y": -2.7740040276,
				"z": -1.9135618104,
				"element": "H" 
			},
			{
				"x": -0.1619916816,
				"y": -3.6207157849,
				"z": -3.1159703816,
				"element": "H" 
			},
			{
				"x": -0.9994170588,
				"y": -0.6913381094,
				"z": -3.2981801916,
				"element": "H" 
			},
			{
				"x": -1.7734881203,
				"y": -2.0323291666,
				"z": -4.114053303,
				"element": "H" 
			},
			{
				"x": -1.1242906119,
				"y": -2.4169422357,
				"z": -6.4178892959,
				"element": "H" 
			},
			{
				"x": 0.5908709577,
				"y": -2.6285088474,
				"z": -6.7984862357,
				"element": "H" 
			},
			{
				"x": -0.1466651148,
				"y": -3.6110218329,
				"z": -5.5443831242,
				"element": "H" 
			},
			{
				"x": 0.2328506869,
				"y": 0.5983671779,
				"z": -4.7272416988,
				"element": "H" 
			},
			{
				"x": 1.5084880737,
				"y": -0.4876766358,
				"z": -7.2726306002,
				"element": "H" 
			},
			{
				"x": 1.9112258787,
				"y": 0.9920624278,
				"z": -6.4155179126,
				"element": "H" 
			},
			{
				"x": 3.1418261697,
				"y": -1.5568030075,
				"z": -6.0009303792,
				"element": "H" 
			},
			{
				"x": 3.2494191714,
				"y": -0.2285957247,
				"z": -4.8553525575,
				"element": "H" 
			},
			{
				"x": 2.8995743908,
				"y": -3.2228360561,
				"z": -4.1862188858,
				"element": "H" 
			},
			{
				"x": -0.2629332897,
				"y": 0.3787701519,
				"z": -8.4813732692,
				"element": "H" 
			},
			{
				"x": -2.2960219749,
				"y": 1.3756887336,
				"z": -5.1053713739,
				"element": "H" 
			},
			{
				"x": -2.7667449903,
				"y": -0.3192421784,
				"z": -5.3295627865,
				"element": "H" 
			},
			{
				"x": -0.2637727184,
				"y": 1.4956243086,
				"z": 0.5994223439,
				"element": "H" 
			},
			{
				"x": -0.9308111022,
				"y": 0.0207756801,
				"z": 1.269155003,
				"element": "H" 
			},
			{
				"x": 2.0656810007,
				"y": 3.3966404006,
				"z": 3.836381806,
				"element": "H" 
			},
			{
				"x": 0.7104287836,
				"y": 3.9360986592,
				"z": 2.0491392304,
				"element": "H" 
			}
		],
		 "valence_orbital": [ 
			{
				"type": "occ",
				"energy": -0.26618,
				"method": "rhf"
			},
			{
				"type": "occ",
				"energy": -0.26475,
				"method": "rhf"
			},
			{
				"type": "occ",
				"energy": -0.26065,
				"method": "rhf"
			},
			{
				"type": "occ",
				"energy": -0.26042,
				"method": "rhf"
			},
			{
				"type": "occ",
				"energy": -0.24713,
				"method": "rhf"
			},
			{
				"type": "unocc",
				"energy": -0.03789,
				"method": "rhf"
			},
			{
				"type": "unocc",
				"energy": 0.04328,
				"method": "rhf"
			},
			{
				"type": "unocc",
				"energy": 0.05386,
				"method": "rhf"
			},
			{
				"type": "unocc",
				"energy": 0.06582,
				"method": "rhf"
			},
			{
				"type": "unocc",
				"energy": 0.06807,
				"method": "rhf"
			}
		],
		"cosmo_sigma_profile": { 
			"-0.025": 0.0,
			"-0.024": 0.0,
			"-0.023": 0.0,
			"-0.022": 0.0,
			"-0.021": 0.0,
			"-0.02": 0.0,
			"-0.019": 0.0,
			"-0.018": 0.0,
			"-0.017": 0.0,
			"-0.016": 0.45924609014,
			"-0.015": 1.5533813052,
			"-0.014": 1.68319409015,
			"-0.013": 2.79581285694,
			"-0.012": 1.8398526297,
			"-0.011": 2.98739790176,
			"-0.01": 2.62712450524,
			"-0.009": 2.51721064724,
			"-0.008": 3.17993019334,
			"-0.007": 10.5767951469,
			"-0.006": 13.7251441856,
			"-0.005": 16.1907797004,
			"-0.004": 36.2254823774,
			"-0.003": 58.7724179717,
			"-0.002": 78.2843530189,
			"-0.001": 69.0863788724,
			"0.0": 60.9145564351,
			"0.001": 49.5820108182,
			"0.002": 24.5845914544,
			"0.003": 12.9393060725,
			"0.004": 12.5609037559,
			"0.005": 10.915632809,
			"0.006": 9.94705206865,
			"0.007": 10.6224479899,
			"0.008": 9.84602080602,
			"0.009": 8.86069270522,
			"0.01": 10.4921037792,
			"0.011": 9.69688118906,
			"0.012": 12.4721637672,
			"0.013": 7.64661369992,
			"0.014": 0.818069590681,
			"0.015": 0.0,
			"0.016": 0.0,
			"0.017": 0.0,
			"0.018": 0.0,
			"0.019": 0.0,
			"0.02": 0.0,
			"0.021": 0.0,
			"0.022": 0.0,
			"0.023": 0.0,
			"0.024": 0.0,
			"0.025": 0.0
		}
	}
}
