{
	 "smiles": "CC(=O)N1C(C)=C(C)C2=C1C=CC=C2", 
	 "Tm": 347.15, 
	 "num_atms": 27, 
	 "gaussian": { 
		 "optdone": 1, 
		 "sigma_profile": "yes", 
		 "theory": "DFT", 
		 "functional": "B3LYP", 
		 "basiset": "6-31G**", 
		 "properties": { 
			 "R2extent": 3022.7889, 
			 "electric_dipole_moment_norm": 3.53138122128, 
			 "electric_quadrupole_moment_norm": 7.77966535206, 
			 "total_energy": -595.111756428, 
			 "HOMO_LUMO_gap": 0.18005, 
			 "cosmo_polarized_energy": -9.45, 
			 "cosmo_cavitation_energy": 28.98, 
			 "cosmo_dispersion_energy": -21.48, 
			 "cosmo_repulsion_energy": 1.64, 
			 "cosmo_total_nonelectrostatic_energy": 9.14, 
			 "SMD_solvation_energy": 5.63 
		},
		"coords": [
			{
				"x": -1.199441703,
				"y": -2.2239740183,
				"z": 1.2711382231,
				"element": "C" 
			},
			{
				"x": -0.5777374382,
				"y": -0.8686072746,
				"z": 1.5542689856,
				"element": "C" 
			},
			{
				"x": -0.3036126192,
				"y": -0.5613606517,
				"z": 2.7026647198,
				"element": "O" 
			},
			{
				"x": -0.3489292234,
				"y": 0.0349053067,
				"z": 0.5010808984,
				"element": "N" 
			},
			{
				"x": -0.4912080214,
				"y": -0.1344273407,
				"z": -0.9142553731,
				"element": "C" 
			},
			{
				"x": -0.8419778907,
				"y": -1.4252775716,
				"z": -1.5873793788,
				"element": "C" 
			},
			{
				"x": -0.1982739618,
				"y": 1.0459446593,
				"z": -1.5387332749,
				"element": "C" 
			},
			{
				"x": -0.1993432885,
				"y": 1.3533423879,
				"z": -3.0056718196,
				"element": "C" 
			},
			{
				"x": 0.1469925916,
				"y": 2.0125623779,
				"z": -0.5221999335,
				"element": "C" 
			},
			{
				"x": 0.0608299018,
				"y": 1.3730752475,
				"z": 0.7325525204,
				"element": "C" 
			},
			{
				"x": 0.341625975,
				"y": 2.0609666716,
				"z": 1.9179537738,
				"element": "C" 
			},
			{
				"x": 0.71070057,
				"y": 3.4024836416,
				"z": 1.8133098895,
				"element": "C" 
			},
			{
				"x": 0.8013734257,
				"y": 4.0496551485,
				"z": 0.5711317024,
				"element": "C" 
			},
			{
				"x": 0.5202982239,
				"y": 3.360087293,
				"z": -0.6039236561,
				"element": "C" 
			},
			{
				"x": -1.3565358926,
				"y": -2.6933758284,
				"z": 2.2417578472,
				"element": "H" 
			},
			{
				"x": -2.1578467965,
				"y": -2.1362905394,
				"z": 0.7542305211,
				"element": "H" 
			},
			{
				"x": -0.546486557,
				"y": -2.863044994,
				"z": 0.672790974,
				"element": "H" 
			},
			{
				"x": -1.8476664161,
				"y": -1.7837535243,
				"z": -1.3477561158,
				"element": "H" 
			},
			{
				"x": -0.1369589363,
				"y": -2.2286980961,
				"z": -1.3495606042,
				"element": "H" 
			},
			{
				"x": -0.8039194906,
				"y": -1.2772960166,
				"z": -2.6673685572,
				"element": "H" 
			},
			{
				"x": -0.4879993833,
				"y": 0.4973191947,
				"z": -3.619366298,
				"element": "H" 
			},
			{
				"x": -0.8959547425,
				"y": 2.1694953824,
				"z": -3.2330256874,
				"element": "H" 
			},
			{
				"x": 0.793052716,
				"y": 1.6802479449,
				"z": -3.3394103111,
				"element": "H" 
			},
			{
				"x": 0.2805331947,
				"y": 1.5674651655,
				"z": 2.8754549072,
				"element": "H" 
			},
			{
				"x": 0.9358102907,
				"y": 3.9546454687,
				"z": 2.7212176551,
				"element": "H" 
			},
			{
				"x": 1.0938021171,
				"y": 5.094926851,
				"z": 0.529026358,
				"element": "H" 
			},
			{
				"x": 0.5877733545,
				"y": 3.8552831146,
				"z": -1.5684279662,
				"element": "H" 
			}
		],
		 "valence_orbital": [ 
			{
				"type": "occ",
				"energy": -0.32017,
				"method": "rhf"
			},
			{
				"type": "occ",
				"energy": -0.26636,
				"method": "rhf"
			},
			{
				"type": "occ",
				"energy": -0.26026,
				"method": "rhf"
			},
			{
				"type": "occ",
				"energy": -0.22453,
				"method": "rhf"
			},
			{
				"type": "occ",
				"energy": -0.20531,
				"method": "rhf"
			},
			{
				"type": "unocc",
				"energy": -0.02526,
				"method": "rhf"
			},
			{
				"type": "unocc",
				"energy": -0.00135,
				"method": "rhf"
			},
			{
				"type": "unocc",
				"energy": 0.03954,
				"method": "rhf"
			},
			{
				"type": "unocc",
				"energy": 0.06716,
				"method": "rhf"
			},
			{
				"type": "unocc",
				"energy": 0.07715,
				"method": "rhf"
			}
		],
		"cosmo_sigma_profile": { 
			"-0.025": 0.0,
			"-0.024": 0.0,
			"-0.023": 0.0,
			"-0.022": 0.0,
			"-0.021": 0.0,
			"-0.02": 0.0,
			"-0.019": 0.0,
			"-0.018": 0.0,
			"-0.017": 0.0,
			"-0.016": 0.0,
			"-0.015": 0.0,
			"-0.014": 0.0,
			"-0.013": 0.0,
			"-0.012": 0.0,
			"-0.011": 0.0,
			"-0.01": 0.0,
			"-0.009": 0.000976752991478,
			"-0.008": 1.36701061195,
			"-0.007": 6.25113487957,
			"-0.006": 8.29726151046,
			"-0.005": 14.9505890777,
			"-0.004": 20.022148396,
			"-0.003": 24.9167752047,
			"-0.002": 24.980958964,
			"-0.001": 22.9389182071,
			"0.0": 17.4676749854,
			"0.001": 12.235895197,
			"0.002": 11.4674800811,
			"0.003": 12.8495332275,
			"0.004": 15.0560144951,
			"0.005": 11.3855776377,
			"0.006": 10.9890648965,
			"0.007": 3.84522317437,
			"0.008": 1.75471524417,
			"0.009": 1.74671224181,
			"0.01": 1.73614586331,
			"0.011": 2.28037855694,
			"0.012": 2.33571870276,
			"0.013": 1.51017449046,
			"0.014": 0.103513387459,
			"0.015": 0.0,
			"0.016": 0.0,
			"0.017": 0.0,
			"0.018": 0.0,
			"0.019": 0.0,
			"0.02": 0.0,
			"0.021": 0.0,
			"0.022": 0.0,
			"0.023": 0.0,
			"0.024": 0.0,
			"0.025": 0.0
		}
	}
}
