{
	 "smiles": "O=C1NC2NC(=O)NC2N1", 
	 "Tm": 573.15, 
	 "num_atms": 16, 
	 "gaussian": { 
		 "optdone": 1, 
		 "sigma_profile": "yes", 
		 "theory": "DFT", 
		 "functional": "B3LYP", 
		 "basiset": "6-31G**", 
		 "properties": { 
			 "R2extent": 1925.3678, 
			 "electric_dipole_moment_norm": 3.31501097736, 
			 "electric_quadrupole_moment_norm": 24.735842605, 
			 "total_energy": -525.534320364, 
			 "HOMO_LUMO_gap": 0.29368, 
			 "cosmo_polarized_energy": -24.05, 
			 "cosmo_cavitation_energy": 19.95, 
			 "cosmo_dispersion_energy": -15.56, 
			 "cosmo_repulsion_energy": 1.31, 
			 "cosmo_total_nonelectrostatic_energy": 5.69, 
			 "SMD_solvation_energy": 2.0 
		},
		"coords": [
			{
				"x": -2.2907792955,
				"y": -3.6250044926,
				"z": -0.7069844014,
				"element": "O" 
			},
			{
				"x": -1.4500236413,
				"y": -2.8722307559,
				"z": -0.2562951838,
				"element": "C" 
			},
			{
				"x": -1.0844303544,
				"y": -2.7263509025,
				"z": 1.0737890162,
				"element": "N" 
			},
			{
				"x": -0.1852274995,
				"y": -1.6192720503,
				"z": 1.3193092116,
				"element": "C" 
			},
			{
				"x": -0.7606629087,
				"y": -0.440558094,
				"z": 1.9309560313,
				"element": "N" 
			},
			{
				"x": -0.9516492697,
				"y": 0.6155435804,
				"z": 1.0523289363,
				"element": "C" 
			},
			{
				"x": -1.536175398,
				"y": 1.6574520708,
				"z": 1.2746108777,
				"element": "O" 
			},
			{
				"x": -0.2877524035,
				"y": 0.2608103405,
				"z": -0.1128026416,
				"element": "N" 
			},
			{
				"x": 0.1509732978,
				"y": -1.1179814328,
				"z": -0.1439922719,
				"element": "C" 
			},
			{
				"x": -0.6173371007,
				"y": -2.0238272658,
				"z": -0.9708705194,
				"element": "N" 
			},
			{
				"x": -1.6347317126,
				"y": -3.1708158875,
				"z": 1.7909010037,
				"element": "H" 
			},
			{
				"x": 0.7009133113,
				"y": -1.9513745147,
				"z": 1.8699918948,
				"element": "H" 
			},
			{
				"x": -1.2491143722,
				"y": -0.4477458112,
				"z": 2.811844168,
				"element": "H" 
			},
			{
				"x": -0.3851525203,
				"y": 0.8363535721,
				"z": -0.9337204172,
				"element": "H" 
			},
			{
				"x": 1.2177726062,
				"y": -1.1824621181,
				"z": -0.3818378656,
				"element": "H" 
			},
			{
				"x": -0.7769227388,
				"y": -1.8853362387,
				"z": -1.9557278385,
				"element": "H" 
			}
		],
		 "valence_orbital": [ 
			{
				"type": "occ",
				"energy": -0.28006,
				"method": "rhf"
			},
			{
				"type": "occ",
				"energy": -0.26889,
				"method": "rhf"
			},
			{
				"type": "occ",
				"energy": -0.26588,
				"method": "rhf"
			},
			{
				"type": "occ",
				"energy": -0.25425,
				"method": "rhf"
			},
			{
				"type": "occ",
				"energy": -0.25413,
				"method": "rhf"
			},
			{
				"type": "unocc",
				"energy": 0.03955,
				"method": "rhf"
			},
			{
				"type": "unocc",
				"energy": 0.06505,
				"method": "rhf"
			},
			{
				"type": "unocc",
				"energy": 0.07012,
				"method": "rhf"
			},
			{
				"type": "unocc",
				"energy": 0.08161,
				"method": "rhf"
			},
			{
				"type": "unocc",
				"energy": 0.09268,
				"method": "rhf"
			}
		],
		"cosmo_sigma_profile": { 
			"-0.025": 0.0,
			"-0.024": 0.0,
			"-0.023": 0.0,
			"-0.022": 0.0,
			"-0.021": 0.0,
			"-0.02": 0.0,
			"-0.019": 0.0,
			"-0.018": 0.0,
			"-0.017": 0.0,
			"-0.016": 0.0,
			"-0.015": 2.24476791311,
			"-0.014": 5.79076265003,
			"-0.013": 7.05708779859,
			"-0.012": 4.44948646766,
			"-0.011": 3.5880181102,
			"-0.01": 3.39399746891,
			"-0.009": 3.43622353354,
			"-0.008": 3.5514667293,
			"-0.007": 10.2056913771,
			"-0.006": 9.05976755601,
			"-0.005": 4.78279973892,
			"-0.004": 5.35293713572,
			"-0.003": 4.67385491119,
			"-0.002": 4.64274564522,
			"-0.001": 5.7370554951,
			"0.0": 7.01627505678,
			"0.001": 5.48763087966,
			"0.002": 5.88065352913,
			"0.003": 6.01954731529,
			"0.004": 6.73536225938,
			"0.005": 4.50654211252,
			"0.006": 4.53365532908,
			"0.007": 1.61232546996,
			"0.008": 2.35279221144,
			"0.009": 3.22539721967,
			"0.01": 1.83450685699,
			"0.011": 2.47432348305,
			"0.012": 3.64260779964,
			"0.013": 8.4817796814,
			"0.014": 13.1114675825,
			"0.015": 2.4608639669,
			"0.016": 0.0,
			"0.017": 0.0,
			"0.018": 0.0,
			"0.019": 0.0,
			"0.02": 0.0,
			"0.021": 0.0,
			"0.022": 0.0,
			"0.023": 0.0,
			"0.024": 0.0,
			"0.025": 0.0
		}
	}
}
