{
	 "smiles": "NC1=C(O)C=C(F)C=C1", 
	 "Tm": 410.65, 
	 "num_atms": 15, 
	 "gaussian": { 
		 "optdone": 1, 
		 "sigma_profile": "yes", 
		 "theory": "DFT", 
		 "functional": "B3LYP", 
		 "basiset": "6-31G**", 
		 "properties": { 
			 "R2extent": 1914.7418, 
			 "electric_dipole_moment_norm": 3.6600365367, 
			 "electric_quadrupole_moment_norm": 5.19136091984, 
			 "total_energy": -462.061565905, 
			 "HOMO_LUMO_gap": 0.21393, 
			 "cosmo_polarized_energy": -8.44, 
			 "cosmo_cavitation_energy": 19.35, 
			 "cosmo_dispersion_energy": -14.62, 
			 "cosmo_repulsion_energy": 1.19, 
			 "cosmo_total_nonelectrostatic_energy": 5.92, 
			 "SMD_solvation_energy": 4.57 
		},
		"coords": [
			{
				"x": -0.719312016,
				"y": -0.7965222719,
				"z": 1.4416449551,
				"element": "N" 
			},
			{
				"x": -1.1556665166,
				"y": 0.0279562686,
				"z": 0.3402741681,
				"element": "C" 
			},
			{
				"x": -1.5110513455,
				"y": -0.6805510864,
				"z": -0.8269721512,
				"element": "C" 
			},
			{
				"x": -1.4222833507,
				"y": -2.0280297523,
				"z": -0.8336682435,
				"element": "O" 
			},
			{
				"x": -1.9502716967,
				"y": 0.0024354861,
				"z": -1.9647624907,
				"element": "C" 
			},
			{
				"x": -2.0241497666,
				"y": 1.3877143238,
				"z": -1.9077976977,
				"element": "C" 
			},
			{
				"x": -2.4478066532,
				"y": 2.0525945366,
				"z": -3.0039508061,
				"element": "F" 
			},
			{
				"x": -1.6820551356,
				"y": 2.1200226704,
				"z": -0.7741509456,
				"element": "C" 
			},
			{
				"x": -1.2455918476,
				"y": 1.4194188059,
				"z": 0.3520513324,
				"element": "C" 
			},
			{
				"x": -1.3132119601,
				"y": -0.6798934083,
				"z": 2.2584207436,
				"element": "H" 
			},
			{
				"x": 0.2324612401,
				"y": -0.5766744644,
				"z": 1.7232565245,
				"element": "H" 
			},
			{
				"x": -1.0972449275,
				"y": -2.2457882077,
				"z": 0.0656237916,
				"element": "H" 
			},
			{
				"x": -2.2247983114,
				"y": -0.5350087226,
				"z": -2.8643661702,
				"element": "H" 
			},
			{
				"x": -1.7589334372,
				"y": 3.2008962541,
				"z": -0.7853567771,
				"element": "H" 
			},
			{
				"x": -0.9709842753,
				"y": 1.9630295681,
				"z": 1.2526537669,
				"element": "H" 
			}
		],
		 "valence_orbital": [ 
			{
				"type": "occ",
				"energy": -0.34518,
				"method": "rhf"
			},
			{
				"type": "occ",
				"energy": -0.32517,
				"method": "rhf"
			},
			{
				"type": "occ",
				"energy": -0.28093,
				"method": "rhf"
			},
			{
				"type": "occ",
				"energy": -0.24546,
				"method": "rhf"
			},
			{
				"type": "occ",
				"energy": -0.21862,
				"method": "rhf"
			},
			{
				"type": "unocc",
				"energy": -0.00469,
				"method": "rhf"
			},
			{
				"type": "unocc",
				"energy": 0.01579,
				"method": "rhf"
			},
			{
				"type": "unocc",
				"energy": 0.06771,
				"method": "rhf"
			},
			{
				"type": "unocc",
				"energy": 0.09485,
				"method": "rhf"
			},
			{
				"type": "unocc",
				"energy": 0.13289,
				"method": "rhf"
			}
		],
		"cosmo_sigma_profile": { 
			"-0.025": 0.0,
			"-0.024": 0.0,
			"-0.023": 0.0,
			"-0.022": 0.0,
			"-0.021": 0.0,
			"-0.02": 0.0,
			"-0.019": 0.0,
			"-0.018": 0.0,
			"-0.017": 0.0,
			"-0.016": 0.0,
			"-0.015": 0.0,
			"-0.014": 0.0,
			"-0.013": 0.0,
			"-0.012": 1.21130391293,
			"-0.011": 3.14273037168,
			"-0.01": 2.83851588783,
			"-0.009": 3.30459702889,
			"-0.008": 3.10552768398,
			"-0.007": 5.90483844667,
			"-0.006": 7.8523095451,
			"-0.005": 8.06683347089,
			"-0.004": 8.7755469576,
			"-0.003": 5.43961075093,
			"-0.002": 7.18840277865,
			"-0.001": 7.32399259061,
			"0.0": 7.14909837146,
			"0.001": 9.62842670302,
			"0.002": 13.2803917205,
			"0.003": 15.0824018415,
			"0.004": 20.1013900961,
			"0.005": 12.3134327723,
			"0.006": 1.96016390139,
			"0.007": 1.6034378709,
			"0.008": 2.47085335445,
			"0.009": 1.39622074916,
			"0.01": 1.45270743999,
			"0.011": 1.99527575007,
			"0.012": 1.47586841441,
			"0.013": 0.0,
			"0.014": 0.0,
			"0.015": 0.0,
			"0.016": 0.0,
			"0.017": 0.0,
			"0.018": 0.0,
			"0.019": 0.0,
			"0.02": 0.0,
			"0.021": 0.0,
			"0.022": 0.0,
			"0.023": 0.0,
			"0.024": 0.0,
			"0.025": 0.0
		}
	}
}
