{
	 "smiles": "FC(F)(F)C1=CNC(=S)C=C1", 
	 "Tm": 433.15, 
	 "num_atms": 15, 
	 "gaussian": { 
		 "optdone": 1, 
		 "sigma_profile": "yes", 
		 "theory": "DFT", 
		 "functional": "B3LYP", 
		 "basiset": "6-31G**", 
		 "properties": { 
			 "R2extent": 3109.0535, 
			 "electric_dipole_moment_norm": 3.02700733729, 
			 "electric_quadrupole_moment_norm": 19.9247631487, 
			 "total_energy": -983.513088662, 
			 "HOMO_LUMO_gap": 0.14345, 
			 "cosmo_polarized_energy": -17.19, 
			 "cosmo_cavitation_energy": 22.83, 
			 "cosmo_dispersion_energy": -16.93, 
			 "cosmo_repulsion_energy": 1.25, 
			 "cosmo_total_nonelectrostatic_energy": 7.16, 
			 "SMD_solvation_energy": 4.32 
		},
		"coords": [
			{
				"x": -3.0883570949,
				"y": -0.1322711959,
				"z": 1.8816335815,
				"element": "F" 
			},
			{
				"x": -2.4485207201,
				"y": 0.9271092098,
				"z": 1.3383962522,
				"element": "C" 
			},
			{
				"x": -1.5985838498,
				"y": 1.4133983353,
				"z": 2.2691114947,
				"element": "F" 
			},
			{
				"x": -3.3900037656,
				"y": 1.8698167214,
				"z": 1.1110600349,
				"element": "F" 
			},
			{
				"x": -1.7375282339,
				"y": 0.5486470557,
				"z": 0.0766809065,
				"element": "C" 
			},
			{
				"x": -0.3857688592,
				"y": 0.7036281898,
				"z": -0.0491504735,
				"element": "C" 
			},
			{
				"x": 0.2339949713,
				"y": 0.3522999153,
				"z": -1.2047271563,
				"element": "N" 
			},
			{
				"x": -0.389615169,
				"y": -0.1754863417,
				"z": -2.3328468028,
				"element": "C" 
			},
			{
				"x": 0.5080049252,
				"y": -0.5623294347,
				"z": -3.6890488832,
				"element": "S" 
			},
			{
				"x": -1.8114631962,
				"y": -0.3323381691,
				"z": -2.1841998966,
				"element": "C" 
			},
			{
				"x": -2.4606012509,
				"y": 0.0134307482,
				"z": -1.0315872566,
				"element": "C" 
			},
			{
				"x": 0.2403367678,
				"y": 1.1012041515,
				"z": 0.739404196,
				"element": "H" 
			},
			{
				"x": 1.2375720295,
				"y": 0.4698098031,
				"z": -1.2917187069,
				"element": "H" 
			},
			{
				"x": -2.3485353931,
				"y": -0.7393137969,
				"z": -3.0318419619,
				"element": "H" 
			},
			{
				"x": -3.5353311612,
				"y": -0.1168051918,
				"z": -0.9496653279,
				"element": "H" 
			}
		],
		 "valence_orbital": [ 
			{
				"type": "occ",
				"energy": -0.3684,
				"method": "rhf"
			},
			{
				"type": "occ",
				"energy": -0.33607,
				"method": "rhf"
			},
			{
				"type": "occ",
				"energy": -0.3251,
				"method": "rhf"
			},
			{
				"type": "occ",
				"energy": -0.21893,
				"method": "rhf"
			},
			{
				"type": "occ",
				"energy": -0.21723,
				"method": "rhf"
			},
			{
				"type": "unocc",
				"energy": -0.07378,
				"method": "rhf"
			},
			{
				"type": "unocc",
				"energy": -0.04777,
				"method": "rhf"
			},
			{
				"type": "unocc",
				"energy": 0.0442,
				"method": "rhf"
			},
			{
				"type": "unocc",
				"energy": 0.07757,
				"method": "rhf"
			},
			{
				"type": "unocc",
				"energy": 0.0996,
				"method": "rhf"
			}
		],
		"cosmo_sigma_profile": { 
			"-0.025": 0.103467963148,
			"-0.024": -0.0477555531483,
			"-0.023": 0.0,
			"-0.022": 0.0,
			"-0.021": 0.0,
			"-0.02": 0.00590737835261,
			"-0.019": 0.0943083475529,
			"-0.018": 0.888309513402,
			"-0.017": 1.74508280928,
			"-0.016": 1.23110145492,
			"-0.015": 1.4288997609,
			"-0.014": 1.29935717999,
			"-0.013": 1.33480725129,
			"-0.012": 1.41112836915,
			"-0.011": 2.36998413201,
			"-0.01": 1.82837859962,
			"-0.009": 3.12308727508,
			"-0.008": 4.48782426227,
			"-0.007": 6.4039381517,
			"-0.006": 4.32803231432,
			"-0.005": 6.10722905112,
			"-0.004": 6.89977932052,
			"-0.003": 10.2307655786,
			"-0.002": 10.7159620229,
			"-0.001": 11.6699350715,
			"0.0": 13.1032284847,
			"0.001": 10.9381963592,
			"0.002": 24.4759484941,
			"0.003": 19.6857887687,
			"0.004": 2.6615258145,
			"0.005": 3.14395506042,
			"0.006": 4.13020694849,
			"0.007": 2.97274183592,
			"0.008": 4.42152288205,
			"0.009": 26.8494643356,
			"0.01": -14.0936083676,
			"0.011": 5.42167914655,
			"0.012": 3.51381177415,
			"0.013": 0.837437439743,
			"0.014": 0.0,
			"0.015": 0.0,
			"0.016": 0.0,
			"0.017": 0.0,
			"0.018": 0.0,
			"0.019": 0.0,
			"0.02": 23.3217875223,
			"0.021": -16.821984529,
			"0.022": -5.88091044892,
			"0.023": 12.242192447,
			"0.024": -7.22234952391,
			"0.025": -4.75066987947
		}
	}
}
