{
	 "smiles": "CCOC1=C(C=CC=C1)C1=CC(=NN1)C(O)=O", 
	 "Tm": 498.15, 
	 "num_atms": 29, 
	 "gaussian": { 
		 "optdone": 1, 
		 "sigma_profile": "yes", 
		 "theory": "DFT", 
		 "functional": "B3LYP", 
		 "basiset": "6-31G**", 
		 "properties": { 
			 "R2extent": 4975.7876, 
			 "electric_dipole_moment_norm": 7.39104943766, 
			 "electric_quadrupole_moment_norm": 27.2681424611, 
			 "total_energy": -799.680267847, 
			 "HOMO_LUMO_gap": 0.18225, 
			 "cosmo_polarized_energy": -18.2, 
			 "cosmo_cavitation_energy": 33.78, 
			 "cosmo_dispersion_energy": -24.26, 
			 "cosmo_repulsion_energy": 1.89, 
			 "cosmo_total_nonelectrostatic_energy": 11.42, 
			 "SMD_solvation_energy": 6.46 
		},
		"coords": [
			{
				"x": 0.0062654327,
				"y": -3.8017318141,
				"z": 1.8035996508,
				"element": "C" 
			},
			{
				"x": 1.2146693812,
				"y": -2.903494523,
				"z": 1.6091388387,
				"element": "C" 
			},
			{
				"x": 0.782539363,
				"y": -1.7518640245,
				"z": 0.8775387279,
				"element": "O" 
			},
			{
				"x": 1.6887158379,
				"y": -0.7968267625,
				"z": 0.5394762967,
				"element": "C" 
			},
			{
				"x": 1.2031702958,
				"y": 0.2876925754,
				"z": -0.2354604469,
				"element": "C" 
			},
			{
				"x": 2.1039234467,
				"y": 1.3033717889,
				"z": -0.5910493052,
				"element": "C" 
			},
			{
				"x": 3.4478849555,
				"y": 1.2564030327,
				"z": -0.2257248868,
				"element": "C" 
			},
			{
				"x": 3.9107886672,
				"y": 0.1774026912,
				"z": 0.5234897082,
				"element": "C" 
			},
			{
				"x": 3.0384639695,
				"y": -0.842269164,
				"z": 0.90817527,
				"element": "C" 
			},
			{
				"x": -0.1958238653,
				"y": 0.351978687,
				"z": -0.6721492123,
				"element": "C" 
			},
			{
				"x": -1.3883174309,
				"y": -0.1272794477,
				"z": -0.1456516615,
				"element": "C" 
			},
			{
				"x": -2.3868549571,
				"y": 0.3162644266,
				"z": -1.0349564641,
				"element": "C" 
			},
			{
				"x": -1.8727428845,
				"y": 1.0125496483,
				"z": -2.056258697,
				"element": "N" 
			},
			{
				"x": -0.5557039584,
				"y": 1.0280032616,
				"z": -1.8136289332,
				"element": "N" 
			},
			{
				"x": -3.853402491,
				"y": 0.0965999982,
				"z": -0.9586690002,
				"element": "C" 
			},
			{
				"x": -4.5543550919,
				"y": 0.6579664231,
				"z": -1.9703493612,
				"element": "O" 
			},
			{
				"x": -4.3908860933,
				"y": -0.5292147371,
				"z": -0.0742580723,
				"element": "O" 
			},
			{
				"x": -0.4125045575,
				"y": -4.10024032,
				"z": 0.8389325624,
				"element": "H" 
			},
			{
				"x": 0.2969205209,
				"y": -4.7034128545,
				"z": 2.3511603156,
				"element": "H" 
			},
			{
				"x": -0.772543614,
				"y": -3.2879301388,
				"z": 2.3737865073,
				"element": "H" 
			},
			{
				"x": 1.6334418301,
				"y": -2.5926414138,
				"z": 2.5760205338,
				"element": "H" 
			},
			{
				"x": 2.0042106665,
				"y": -3.4214432699,
				"z": 1.0477625557,
				"element": "H" 
			},
			{
				"x": 1.7358932182,
				"y": 2.1659283343,
				"z": -1.1399840064,
				"element": "H" 
			},
			{
				"x": 4.1183580336,
				"y": 2.0599969727,
				"z": -0.512254202,
				"element": "H" 
			},
			{
				"x": 4.9533779626,
				"y": 0.1247818204,
				"z": 0.8227833098,
				"element": "H" 
			},
			{
				"x": 3.415282388,
				"y": -1.6701886908,
				"z": 1.4955528834,
				"element": "H" 
			},
			{
				"x": -1.5227491318,
				"y": -0.7032392095,
				"z": 0.752840208,
				"element": "H" 
			},
			{
				"x": 0.0643658526,
				"y": 1.4446052553,
				"z": -2.4914710162,
				"element": "H" 
			},
			{
				"x": -3.9222877463,
				"y": 1.1062314545,
				"z": -2.5602921028,
				"element": "H" 
			}
		],
		 "valence_orbital": [ 
			{
				"type": "occ",
				"energy": -0.29525,
				"method": "rhf"
			},
			{
				"type": "occ",
				"energy": -0.26835,
				"method": "rhf"
			},
			{
				"type": "occ",
				"energy": -0.26052,
				"method": "rhf"
			},
			{
				"type": "occ",
				"energy": -0.25076,
				"method": "rhf"
			},
			{
				"type": "occ",
				"energy": -0.22515,
				"method": "rhf"
			},
			{
				"type": "unocc",
				"energy": -0.0429,
				"method": "rhf"
			},
			{
				"type": "unocc",
				"energy": -0.01975,
				"method": "rhf"
			},
			{
				"type": "unocc",
				"energy": -0.00667,
				"method": "rhf"
			},
			{
				"type": "unocc",
				"energy": 0.04755,
				"method": "rhf"
			},
			{
				"type": "unocc",
				"energy": 0.06445,
				"method": "rhf"
			}
		],
		"cosmo_sigma_profile": { 
			"-0.025": 0.0,
			"-0.024": 0.0,
			"-0.023": 0.0,
			"-0.022": 0.0,
			"-0.021": 0.0,
			"-0.02": 0.0,
			"-0.019": 0.0,
			"-0.018": 0.0271077865351,
			"-0.017": 1.11676295872,
			"-0.016": 1.25364428736,
			"-0.015": 1.41616727992,
			"-0.014": 1.51527863689,
			"-0.013": 1.42243983895,
			"-0.012": 1.60797676642,
			"-0.011": 2.5025518551,
			"-0.01": 1.23559592148,
			"-0.009": 1.64064721444,
			"-0.008": 1.84109979893,
			"-0.007": 4.43258616121,
			"-0.006": 10.1320213212,
			"-0.005": 17.6610422633,
			"-0.004": 23.120047092,
			"-0.003": 21.0328626208,
			"-0.002": 19.8391370831,
			"-0.001": 16.9570973681,
			"0.0": 19.0384056718,
			"0.001": 19.069865524,
			"0.002": 22.0920661796,
			"0.003": 16.4428890848,
			"0.004": 14.2179117181,
			"0.005": 12.7965810198,
			"0.006": 6.55334893481,
			"0.007": 3.20249557227,
			"0.008": 4.44522334308,
			"0.009": 5.12636567365,
			"0.01": 4.67295934465,
			"0.011": 4.85592362432,
			"0.012": 5.82328756617,
			"0.013": 2.1804735034,
			"0.014": 0.16498147013,
			"0.015": 0.0,
			"0.016": 0.0,
			"0.017": 0.0,
			"0.018": 0.0,
			"0.019": 0.0,
			"0.02": 0.0,
			"0.021": 0.0,
			"0.022": 0.0,
			"0.023": 0.0,
			"0.024": 0.0,
			"0.025": 0.0
		}
	}
}
