{
	 "smiles": "CN(C)C1=NC(=O)C(O1)C1=CC=CC=C1", 
	 "Tm": 406.15, 
	 "num_atms": 27, 
	 "gaussian": { 
		 "optdone": 1, 
		 "sigma_profile": "yes", 
		 "theory": "DFT", 
		 "functional": "B3LYP", 
		 "basiset": "6-31G**", 
		 "properties": { 
			 "R2extent": 3673.7226, 
			 "electric_dipole_moment_norm": 5.74078518933, 
			 "electric_quadrupole_moment_norm": 19.8293940422, 
			 "total_energy": -686.360443311, 
			 "HOMO_LUMO_gap": 0.21725, 
			 "cosmo_polarized_energy": -16.0, 
			 "cosmo_cavitation_energy": 30.74, 
			 "cosmo_dispersion_energy": -22.27, 
			 "cosmo_repulsion_energy": 1.74, 
			 "cosmo_total_nonelectrostatic_energy": 10.22, 
			 "SMD_solvation_energy": 4.89 
		},
		"coords": [
			{
				"x": 2.5436584317,
				"y": 2.9976305914,
				"z": -0.3714879808,
				"element": "C" 
			},
			{
				"x": 2.0428348436,
				"y": 1.769817899,
				"z": 0.2356539345,
				"element": "N" 
			},
			{
				"x": 2.4274779873,
				"y": 1.501244088,
				"z": 1.614398131,
				"element": "C" 
			},
			{
				"x": 1.2383745162,
				"y": 0.9579881883,
				"z": -0.4664556589,
				"element": "C" 
			},
			{
				"x": 0.8569007429,
				"y": 1.1492688777,
				"z": -1.7059619431,
				"element": "N" 
			},
			{
				"x": 0.0527453097,
				"y": 0.0694581214,
				"z": -2.0308092521,
				"element": "C" 
			},
			{
				"x": -0.4906318903,
				"y": -0.16523898,
				"z": -3.0903242716,
				"element": "O" 
			},
			{
				"x": -0.0349721746,
				"y": -0.8530104284,
				"z": -0.7788320861,
				"element": "C" 
			},
			{
				"x": 0.8013958586,
				"y": -0.1584025446,
				"z": 0.1745583792,
				"element": "O" 
			},
			{
				"x": -1.4359406733,
				"y": -1.0787463345,
				"z": -0.2563351139,
				"element": "C" 
			},
			{
				"x": -1.8073009996,
				"y": -0.7241321501,
				"z": 1.0441689071,
				"element": "C" 
			},
			{
				"x": -3.1091113,
				"y": -0.9604738557,
				"z": 1.4914914936,
				"element": "C" 
			},
			{
				"x": -4.0473230762,
				"y": -1.5515623906,
				"z": 0.6454928033,
				"element": "C" 
			},
			{
				"x": -3.6784216245,
				"y": -1.903854085,
				"z": -0.6551318301,
				"element": "C" 
			},
			{
				"x": -2.3802670638,
				"y": -1.6716309747,
				"z": -1.1065557269,
				"element": "C" 
			},
			{
				"x": 2.189975497,
				"y": 3.8688155079,
				"z": 0.1924458833,
				"element": "H" 
			},
			{
				"x": 2.1836284138,
				"y": 3.0562204065,
				"z": -1.396950774,
				"element": "H" 
			},
			{
				"x": 3.6397419446,
				"y": 2.9984472137,
				"z": -0.3643508713,
				"element": "H" 
			},
			{
				"x": 2.036951126,
				"y": 0.5370730324,
				"z": 1.9319339671,
				"element": "H" 
			},
			{
				"x": 3.5202152328,
				"y": 1.4895890005,
				"z": 1.699881313,
				"element": "H" 
			},
			{
				"x": 2.0384079485,
				"y": 2.2829845417,
				"z": 2.2781749911,
				"element": "H" 
			},
			{
				"x": 0.4542885463,
				"y": -1.8074130063,
				"z": -1.0064435515,
				"element": "H" 
			},
			{
				"x": -1.0788436235,
				"y": -0.2663664242,
				"z": 1.7041466092,
				"element": "H" 
			},
			{
				"x": -3.3871952287,
				"y": -0.681599699,
				"z": 2.5040689952,
				"element": "H" 
			},
			{
				"x": -5.0590368215,
				"y": -1.7358439944,
				"z": 0.9952593496,
				"element": "H" 
			},
			{
				"x": -4.4045458397,
				"y": -2.3582525778,
				"z": -1.3231285043,
				"element": "H" 
			},
			{
				"x": -2.0985060831,
				"y": -1.9192100233,
				"z": -2.1246071927,
				"element": "H" 
			}
		],
		 "valence_orbital": [ 
			{
				"type": "occ",
				"energy": -0.29137,
				"method": "rhf"
			},
			{
				"type": "occ",
				"energy": -0.25653,
				"method": "rhf"
			},
			{
				"type": "occ",
				"energy": -0.24803,
				"method": "rhf"
			},
			{
				"type": "occ",
				"energy": -0.24386,
				"method": "rhf"
			},
			{
				"type": "occ",
				"energy": -0.23054,
				"method": "rhf"
			},
			{
				"type": "unocc",
				"energy": -0.01329,
				"method": "rhf"
			},
			{
				"type": "unocc",
				"energy": 0.00088,
				"method": "rhf"
			},
			{
				"type": "unocc",
				"energy": 0.00199,
				"method": "rhf"
			},
			{
				"type": "unocc",
				"energy": 0.07267,
				"method": "rhf"
			},
			{
				"type": "unocc",
				"energy": 0.07575,
				"method": "rhf"
			}
		],
		"cosmo_sigma_profile": { 
			"-0.025": 0.0,
			"-0.024": 0.0,
			"-0.023": 0.0,
			"-0.022": 0.0,
			"-0.021": 0.0,
			"-0.02": 0.0,
			"-0.019": 0.0,
			"-0.018": 0.0,
			"-0.017": 0.0,
			"-0.016": 0.0,
			"-0.015": 0.0,
			"-0.014": 0.0,
			"-0.013": 0.0,
			"-0.012": 0.0,
			"-0.011": 0.0,
			"-0.01": 0.0,
			"-0.009": 0.858041494602,
			"-0.008": 2.82688143707,
			"-0.007": 2.49591961426,
			"-0.006": 15.7300459014,
			"-0.005": 23.7062407939,
			"-0.004": 26.6742184425,
			"-0.003": 31.5997171622,
			"-0.002": 23.7780800451,
			"-0.001": 15.7054744327,
			"0.0": 10.7263203217,
			"0.001": 10.9294316248,
			"0.002": 9.98131206602,
			"0.003": 10.5751782455,
			"0.004": 11.6615730671,
			"0.005": 13.0852481538,
			"0.006": 6.64189921708,
			"0.007": 2.53655939603,
			"0.008": 2.8500000049,
			"0.009": 2.35458407128,
			"0.01": 3.0803112353,
			"0.011": 2.72454222959,
			"0.012": 5.05769282572,
			"0.013": 5.72832265162,
			"0.014": 3.3609979023,
			"0.015": 0.450387032436,
			"0.016": 0.0,
			"0.017": 0.0,
			"0.018": 0.0,
			"0.019": 0.0,
			"0.02": 0.0,
			"0.021": 0.0,
			"0.022": 0.0,
			"0.023": 0.0,
			"0.024": 0.0,
			"0.025": 0.0
		}
	}
}
