{
	 "smiles": "NS(=O)(=O)C1=CC2=C(S1)SCCC2O", 
	 "Tm": 442.15, 
	 "num_atms": 23, 
	 "gaussian": { 
		 "optdone": 1, 
		 "sigma_profile": "yes", 
		 "theory": "DFT", 
		 "functional": "B3LYP", 
		 "basiset": "6-31G**", 
		 "properties": { 
			 "R2extent": 5026.8428, 
			 "electric_dipole_moment_norm": 6.66813362644, 
			 "electric_quadrupole_moment_norm": 17.48335637, 
			 "total_energy": -1747.05928665, 
			 "HOMO_LUMO_gap": 0.17214, 
			 "cosmo_polarized_energy": -23.05, 
			 "cosmo_cavitation_energy": 30.78, 
			 "cosmo_dispersion_energy": -24.02, 
			 "cosmo_repulsion_energy": 1.76, 
			 "cosmo_total_nonelectrostatic_energy": 8.52, 
			 "SMD_solvation_energy": 3.62 
		},
		"coords": [
			{
				"x": 0.81407551,
				"y": -0.615612018,
				"z": -3.5445734851,
				"element": "N" 
			},
			{
				"x": -0.1527596707,
				"y": -1.6399559407,
				"z": -2.6309513319,
				"element": "S" 
			},
			{
				"x": 0.7558155806,
				"y": -2.6162238649,
				"z": -2.0371921343,
				"element": "O" 
			},
			{
				"x": -1.2714510077,
				"y": -1.9953298356,
				"z": -3.5001504442,
				"element": "O" 
			},
			{
				"x": -0.8167738293,
				"y": -0.6895890764,
				"z": -1.2888418214,
				"element": "C" 
			},
			{
				"x": -0.2942491958,
				"y": -0.5990704552,
				"z": -0.0276573198,
				"element": "C" 
			},
			{
				"x": -1.0502955914,
				"y": 0.2523915443,
				"z": 0.8324823806,
				"element": "C" 
			},
			{
				"x": -2.1432435356,
				"y": 0.7989708173,
				"z": 0.1881039291,
				"element": "C" 
			},
			{
				"x": -2.2688420122,
				"y": 0.2683939141,
				"z": -1.470863615,
				"element": "S" 
			},
			{
				"x": -3.3680057574,
				"y": 1.8746365673,
				"z": 0.8592640689,
				"element": "S" 
			},
			{
				"x": -2.5535662116,
				"y": 2.233087958,
				"z": 2.4749164639,
				"element": "C" 
			},
			{
				"x": -1.893387597,
				"y": 1.0032527215,
				"z": 3.0967179529,
				"element": "C" 
			},
			{
				"x": -0.6906077523,
				"y": 0.4991965423,
				"z": 2.2843534118,
				"element": "C" 
			},
			{
				"x": -0.1017561434,
				"y": -0.6505696911,
				"z": 2.8802969854,
				"element": "O" 
			},
			{
				"x": 1.6134853176,
				"y": -0.2627670042,
				"z": -3.0280472134,
				"element": "H" 
			},
			{
				"x": 0.2843623262,
				"y": 0.1142642673,
				"z": -4.0106515496,
				"element": "H" 
			},
			{
				"x": 0.5870213305,
				"y": -1.1425557138,
				"z": 0.2908881383,
				"element": "H" 
			},
			{
				"x": -1.8304586547,
				"y": 3.0409615568,
				"z": 2.3266023186,
				"element": "H" 
			},
			{
				"x": -3.3594280986,
				"y": 2.612486778,
				"z": 3.1080110936,
				"element": "H" 
			},
			{
				"x": -2.6314088066,
				"y": 0.1971039944,
				"z": 3.1917564472,
				"element": "H" 
			},
			{
				"x": -1.5465438197,
				"y": 1.2494164443,
				"z": 4.1061250042,
				"element": "H" 
			},
			{
				"x": 0.1030699457,
				"y": 1.2568704053,
				"z": 2.3330044552,
				"element": "H" 
			},
			{
				"x": -0.7284523267,
				"y": -1.3828599111,
				"z": 2.791306265,
				"element": "H" 
			}
		],
		 "valence_orbital": [ 
			{
				"type": "occ",
				"energy": -0.30772,
				"method": "rhf"
			},
			{
				"type": "occ",
				"energy": -0.29588,
				"method": "rhf"
			},
			{
				"type": "occ",
				"energy": -0.29323,
				"method": "rhf"
			},
			{
				"type": "occ",
				"energy": -0.26946,
				"method": "rhf"
			},
			{
				"type": "occ",
				"energy": -0.22335,
				"method": "rhf"
			},
			{
				"type": "unocc",
				"energy": -0.05121,
				"method": "rhf"
			},
			{
				"type": "unocc",
				"energy": -0.00822,
				"method": "rhf"
			},
			{
				"type": "unocc",
				"energy": 0.01275,
				"method": "rhf"
			},
			{
				"type": "unocc",
				"energy": 0.02247,
				"method": "rhf"
			},
			{
				"type": "unocc",
				"energy": 0.03081,
				"method": "rhf"
			}
		],
		"cosmo_sigma_profile": { 
			"-0.025": 0.0,
			"-0.024": 0.0,
			"-0.023": 0.0,
			"-0.022": 0.0,
			"-0.021": 0.0,
			"-0.02": 0.0,
			"-0.019": 0.0,
			"-0.018": 0.0,
			"-0.017": 0.0,
			"-0.016": 0.388559045249,
			"-0.015": 3.76167248653,
			"-0.014": 2.6995390045,
			"-0.013": 3.80293276018,
			"-0.012": 4.61494560448,
			"-0.011": 3.75272150621,
			"-0.01": 2.44427325993,
			"-0.009": 2.96107417749,
			"-0.008": 3.53079634004,
			"-0.007": 7.42257847986,
			"-0.006": 12.3509630713,
			"-0.005": 14.7459304244,
			"-0.004": 17.7587702821,
			"-0.003": 14.0389406437,
			"-0.002": 12.4997782384,
			"-0.001": 10.8041494341,
			"0.0": 12.6561160194,
			"0.001": 16.5949535814,
			"0.002": 18.2969512063,
			"0.003": 12.1094299206,
			"0.004": 7.63021661574,
			"0.005": 7.2564243271,
			"0.006": 7.15604061838,
			"0.007": 8.21461272657,
			"0.008": 5.70214889425,
			"0.009": 5.33562527246,
			"0.01": 10.587063074,
			"0.011": 11.5945796707,
			"0.012": 4.16252004832,
			"0.013": 1.94539132627,
			"0.014": 0.752969971173,
			"0.015": 0.0,
			"0.016": 0.0,
			"0.017": 0.0,
			"0.018": 0.0,
			"0.019": 0.0,
			"0.02": 0.0,
			"0.021": 0.0,
			"0.022": 0.0,
			"0.023": 0.0,
			"0.024": 0.0,
			"0.025": 0.0
		}
	}
}
