{
	 "smiles": "COC(=O)C1CCCN1C(=O)COC(=O)CC1=CC(NC2=C(Cl)C=CC=CC2Cl)C=CC=C1", 
	 "Tm": 722.15, 
	 "num_atms": 59, 
	 "gaussian": { 
		 "optdone": 1, 
		 "sigma_profile": "yes", 
		 "theory": "DFT", 
		 "functional": "B3LYP", 
		 "basiset": "6-31G**", 
		 "properties": { 
			 "R2extent": 18551.7355, 
			 "electric_dipole_moment_norm": 7.31486457974, 
			 "electric_quadrupole_moment_norm": 27.7808886102, 
			 "total_energy": -2336.16655923, 
			 "HOMO_LUMO_gap": 0.13373, 
			 "cosmo_polarized_energy": -25.07, 
			 "cosmo_cavitation_energy": 63.79, 
			 "cosmo_dispersion_energy": -39.47, 
			 "cosmo_repulsion_energy": 2.96, 
			 "cosmo_total_nonelectrostatic_energy": 27.29, 
			 "SMD_solvation_energy": 10.99 
		},
		"coords": [
			{
				"x": -2.2182142914,
				"y": -0.1320180396,
				"z": -1.9564293079,
				"element": "C" 
			},
			{
				"x": -3.0894811577,
				"y": -0.3586222145,
				"z": -0.8315993577,
				"element": "O" 
			},
			{
				"x": -2.9823402155,
				"y": -1.5553873315,
				"z": -0.2367433113,
				"element": "C" 
			},
			{
				"x": -2.2274699432,
				"y": -2.4361509268,
				"z": -0.6016955488,
				"element": "O" 
			},
			{
				"x": -3.9723124157,
				"y": -1.7359381257,
				"z": 0.9181771845,
				"element": "C" 
			},
			{
				"x": -5.2820173236,
				"y": -2.3853000647,
				"z": 0.4077508853,
				"element": "C" 
			},
			{
				"x": -6.1413755368,
				"y": -1.1776947603,
				"z": 0.0032951408,
				"element": "C" 
			},
			{
				"x": -5.803646234,
				"y": -0.1216286478,
				"z": 1.0646254333,
				"element": "C" 
			},
			{
				"x": -4.4461036194,
				"y": -0.4882413148,
				"z": 1.5180050783,
				"element": "N" 
			},
			{
				"x": -3.8261090463,
				"y": 0.3488870033,
				"z": 2.3993249656,
				"element": "C" 
			},
			{
				"x": -4.3890674575,
				"y": 1.3538157221,
				"z": 2.8244463167,
				"element": "O" 
			},
			{
				"x": -2.4417125934,
				"y": 0.0503532438,
				"z": 2.9712691668,
				"element": "C" 
			},
			{
				"x": -1.6450434106,
				"y": -0.8274115952,
				"z": 2.1551233069,
				"element": "O" 
			},
			{
				"x": -0.5548034461,
				"y": -1.3732069366,
				"z": 2.7588991272,
				"element": "C" 
			},
			{
				"x": -0.2493157694,
				"y": -1.1441314224,
				"z": 3.9076140099,
				"element": "O" 
			},
			{
				"x": 0.2149975642,
				"y": -2.2628473474,
				"z": 1.8039823165,
				"element": "C" 
			},
			{
				"x": 1.2297032625,
				"y": -1.4730294289,
				"z": 0.9658367491,
				"element": "C" 
			},
			{
				"x": 2.0939657638,
				"y": -0.6355718081,
				"z": 1.5990975402,
				"element": "C" 
			},
			{
				"x": 3.0205176285,
				"y": 0.3232888822,
				"z": 0.8963830388,
				"element": "C" 
			},
			{
				"x": 2.2223546582,
				"y": 1.3052058945,
				"z": 0.134524776,
				"element": "N" 
			},
			{
				"x": 2.5806739465,
				"y": 2.5760810635,
				"z": -0.199157756,
				"element": "C" 
			},
			{
				"x": 1.6217563632,
				"y": 3.5219274818,
				"z": -0.5422068488,
				"element": "C" 
			},
			{
				"x": -0.0839895943,
				"y": 3.0076641904,
				"z": -0.3889642512,
				"element": "Cl" 
			},
			{
				"x": 1.7622139884,
				"y": 4.8624573118,
				"z": -0.9824361775,
				"element": "C" 
			},
			{
				"x": 2.8750023783,
				"y": 5.5051242351,
				"z": -1.4618109355,
				"element": "C" 
			},
			{
				"x": 4.1645456084,
				"y": 4.9362952701,
				"z": -1.646488997,
				"element": "C" 
			},
			{
				"x": 4.6469558064,
				"y": 3.7728269124,
				"z": -1.129317712,
				"element": "C" 
			},
			{
				"x": 4.0356122832,
				"y": 2.8909798073,
				"z": -0.1316174328,
				"element": "C" 
			},
			{
				"x": 4.4188800981,
				"y": 3.5365424445,
				"z": 1.6986918507,
				"element": "Cl" 
			},
			{
				"x": 3.9854284415,
				"y": -0.484692148,
				"z": 0.053768483,
				"element": "C" 
			},
			{
				"x": 3.613385986,
				"y": -1.2800144635,
				"z": -0.9766934821,
				"element": "C" 
			},
			{
				"x": 2.2675351635,
				"y": -1.6568027641,
				"z": -1.3172825735,
				"element": "C" 
			},
			{
				"x": 1.2073984167,
				"y": -1.7370861259,
				"z": -0.4590491403,
				"element": "C" 
			},
			{
				"x": -1.1751730717,
				"y": -0.1271488155,
				"z": -1.6331325999,
				"element": "H" 
			},
			{
				"x": -2.4955117837,
				"y": 0.845520873,
				"z": -2.3486108785,
				"element": "H" 
			},
			{
				"x": -2.3579472893,
				"y": -0.9091686147,
				"z": -2.7114342443,
				"element": "H" 
			},
			{
				"x": -3.4723110094,
				"y": -2.3756003775,
				"z": 1.645089865,
				"element": "H" 
			},
			{
				"x": -5.1001069613,
				"y": -3.0971263371,
				"z": -0.4011124324,
				"element": "H" 
			},
			{
				"x": -5.7471724482,
				"y": -2.9289556194,
				"z": 1.2368044857,
				"element": "H" 
			},
			{
				"x": -5.849175149,
				"y": -0.8225098839,
				"z": -0.989463409,
				"element": "H" 
			},
			{
				"x": -7.2090552642,
				"y": -1.4092630104,
				"z": -0.023469026,
				"element": "H" 
			},
			{
				"x": -5.8080270817,
				"y": 0.9011128435,
				"z": 0.6804084752,
				"element": "H" 
			},
			{
				"x": -6.4914424701,
				"y": -0.1511280062,
				"z": 1.9175914839,
				"element": "H" 
			},
			{
				"x": -1.9356073726,
				"y": 1.0113671081,
				"z": 3.0858079434,
				"element": "H" 
			},
			{
				"x": -2.5557656981,
				"y": -0.3813715953,
				"z": 3.9707830088,
				"element": "H" 
			},
			{
				"x": -0.4862680007,
				"y": -2.777843916,
				"z": 1.1444371494,
				"element": "H" 
			},
			{
				"x": 0.7388951362,
				"y": -3.0073575424,
				"z": 2.4106118044,
				"element": "H" 
			},
			{
				"x": 2.0871645847,
				"y": -0.6023853877,
				"z": 2.6856244038,
				"element": "H" 
			},
			{
				"x": 3.5889441591,
				"y": 0.8689724083,
				"z": 1.6542183431,
				"element": "H" 
			},
			{
				"x": 1.2376010159,
				"y": 1.0910451619,
				"z": 0.0719197141,
				"element": "H" 
			},
			{
				"x": 0.8357145097,
				"y": 5.4290943436,
				"z": -0.9849496173,
				"element": "H" 
			},
			{
				"x": 2.7356020367,
				"y": 6.5276415035,
				"z": -1.8007987839,
				"element": "H" 
			},
			{
				"x": 4.8454956751,
				"y": 5.4976126725,
				"z": -2.2839268229,
				"element": "H" 
			},
			{
				"x": 5.6590774349,
				"y": 3.488977828,
				"z": -1.4057008648,
				"element": "H" 
			},
			{
				"x": 4.5942410503,
				"y": 1.9614567097,
				"z": -0.0945127637,
				"element": "H" 
			},
			{
				"x": 5.0434651937,
				"y": -0.392081453,
				"z": 0.2917965749,
				"element": "H" 
			},
			{
				"x": 4.4003135024,
				"y": -1.7063225133,
				"z": -1.597364043,
				"element": "H" 
			},
			{
				"x": 2.1096605023,
				"y": -2.0289733472,
				"z": -2.3276753638,
				"element": "H" 
			},
			{
				"x": 0.2835634964,
				"y": -2.1623390297,
				"z": -0.8446649393,
				"element": "H" 
			}
		],
		 "valence_orbital": [ 
			{
				"type": "occ",
				"energy": -0.25405,
				"method": "rhf"
			},
			{
				"type": "occ",
				"energy": -0.25185,
				"method": "rhf"
			},
			{
				"type": "occ",
				"energy": -0.24527,
				"method": "rhf"
			},
			{
				"type": "occ",
				"energy": -0.2392,
				"method": "rhf"
			},
			{
				"type": "occ",
				"energy": -0.19382,
				"method": "rhf"
			},
			{
				"type": "unocc",
				"energy": -0.06009,
				"method": "rhf"
			},
			{
				"type": "unocc",
				"energy": -0.04823,
				"method": "rhf"
			},
			{
				"type": "unocc",
				"energy": -0.03836,
				"method": "rhf"
			},
			{
				"type": "unocc",
				"energy": -0.01022,
				"method": "rhf"
			},
			{
				"type": "unocc",
				"energy": -0.00806,
				"method": "rhf"
			}
		],
		"cosmo_sigma_profile": { 
			"-0.025": 0.0,
			"-0.024": 0.0,
			"-0.023": 0.0,
			"-0.022": 0.0,
			"-0.021": 0.0,
			"-0.02": 0.0,
			"-0.019": 0.0,
			"-0.018": 0.0,
			"-0.017": 0.0,
			"-0.016": 0.0,
			"-0.015": 0.0,
			"-0.014": 0.0,
			"-0.013": 0.0,
			"-0.012": 0.0,
			"-0.011": 0.0,
			"-0.01": 0.0,
			"-0.009": 0.0368033525158,
			"-0.008": 3.40607285737,
			"-0.007": 13.7814706283,
			"-0.006": 32.6939016831,
			"-0.005": 42.8167707472,
			"-0.004": 49.0369905889,
			"-0.003": 49.7952127578,
			"-0.002": 41.8693087931,
			"-0.001": 40.1261661167,
			"0.0": 33.5752635727,
			"0.001": 28.1691157577,
			"0.002": 28.2600653282,
			"0.003": 27.499428755,
			"0.004": 26.531002463,
			"0.005": 22.2982377524,
			"0.006": 14.2312542786,
			"0.007": 10.979276243,
			"0.008": 12.5407000601,
			"0.009": 5.73762095257,
			"0.01": 4.94091571737,
			"0.011": 8.39975470311,
			"0.012": 4.25265033748,
			"0.013": 4.54599756245,
			"0.014": 3.87112100618,
			"0.015": 0.19964774607,
			"0.016": 0.0,
			"0.017": 0.0,
			"0.018": 0.0,
			"0.019": 0.0,
			"0.02": 0.0,
			"0.021": 0.0,
			"0.022": 0.0,
			"0.023": 0.0,
			"0.024": 0.0,
			"0.025": 0.0
		}
	}
}
