{
	 "smiles": "ClC1=C2C(SC=C2C2=CC=CC=C2)=NC(=N1)C1=NC=CC=C1", 
	 "Tm": 434.15, 
	 "num_atms": 32, 
	 "gaussian": { 
		 "optdone": 1, 
		 "sigma_profile": "yes", 
		 "theory": "DFT", 
		 "functional": "B3LYP", 
		 "basiset": "6-31G**", 
		 "properties": { 
			 "R2extent": 9987.6136, 
			 "electric_dipole_moment_norm": 1.4925515167, 
			 "electric_quadrupole_moment_norm": 22.5770924377, 
			 "total_energy": -1676.46748748, 
			 "HOMO_LUMO_gap": 0.16187, 
			 "cosmo_polarized_energy": -13.24, 
			 "cosmo_cavitation_energy": 40.93, 
			 "cosmo_dispersion_energy": -29.7, 
			 "cosmo_repulsion_energy": 2.21, 
			 "cosmo_total_nonelectrostatic_energy": 13.45, 
			 "SMD_solvation_energy": 2.58 
		},
		"coords": [
			{
				"x": -0.6606681388,
				"y": 0.0060298556,
				"z": -2.2900798515,
				"element": "Cl" 
			},
			{
				"x": 0.2166212686,
				"y": -0.8691491505,
				"z": -1.0458059878,
				"element": "C" 
			},
			{
				"x": 0.8189323738,
				"y": -0.1896008626,
				"z": 0.0319548504,
				"element": "C" 
			},
			{
				"x": 1.4774918272,
				"y": -1.0772981897,
				"z": 0.9268196175,
				"element": "C" 
			},
			{
				"x": 2.2179325325,
				"y": -0.20835388,
				"z": 2.2584140505,
				"element": "S" 
			},
			{
				"x": 1.6400687425,
				"y": 1.3027052569,
				"z": 1.600454516,
				"element": "C" 
			},
			{
				"x": 0.9250070164,
				"y": 1.1946236427,
				"z": 0.4418395909,
				"element": "C" 
			},
			{
				"x": 0.3605391649,
				"y": 2.3893681684,
				"z": -0.2512220972,
				"element": "C" 
			},
			{
				"x": -0.9197315285,
				"y": 2.8598282767,
				"z": 0.0724510721,
				"element": "C" 
			},
			{
				"x": -1.4337650185,
				"y": 3.996647693,
				"z": -0.5518016448,
				"element": "C" 
			},
			{
				"x": -0.6730875781,
				"y": 4.6782441596,
				"z": -1.5035607568,
				"element": "C" 
			},
			{
				"x": 0.6053460594,
				"y": 4.2198556427,
				"z": -1.8268605024,
				"element": "C" 
			},
			{
				"x": 1.1204458342,
				"y": 3.0831635668,
				"z": -1.2032584742,
				"element": "C" 
			},
			{
				"x": 1.548180613,
				"y": -2.3961266816,
				"z": 0.8094265317,
				"element": "N" 
			},
			{
				"x": 0.9327668434,
				"y": -2.9035219372,
				"z": -0.2599129772,
				"element": "C" 
			},
			{
				"x": 0.2700402955,
				"y": -2.1722412482,
				"z": -1.1879770706,
				"element": "N" 
			},
			{
				"x": 0.9606290112,
				"y": -4.3792514747,
				"z": -0.4735964702,
				"element": "C" 
			},
			{
				"x": 1.6148516077,
				"y": -5.1172520754,
				"z": 0.4378805958,
				"element": "N" 
			},
			{
				"x": 1.6483485844,
				"y": -6.4382960843,
				"z": 0.2598087288,
				"element": "C" 
			},
			{
				"x": 1.0435897856,
				"y": -7.0936985281,
				"z": -0.8169466824,
				"element": "C" 
			},
			{
				"x": 0.3663106687,
				"y": -6.321678611,
				"z": -1.7590657331,
				"element": "C" 
			},
			{
				"x": 0.3208683741,
				"y": -4.9403722492,
				"z": -1.5895173677,
				"element": "C" 
			},
			{
				"x": 1.8654969427,
				"y": 2.2245028032,
				"z": 2.1200935943,
				"element": "H" 
			},
			{
				"x": -1.5116051752,
				"y": 2.3296035887,
				"z": 0.8127871465,
				"element": "H" 
			},
			{
				"x": -2.4276707461,
				"y": 4.3503431869,
				"z": -0.2930551984,
				"element": "H" 
			},
			{
				"x": -1.0736879965,
				"y": 5.5633286547,
				"z": -1.9892829169,
				"element": "H" 
			},
			{
				"x": 1.2037407869,
				"y": 4.7478374108,
				"z": -2.5637855003,
				"element": "H" 
			},
			{
				"x": 2.1149885354,
				"y": 2.7266101234,
				"z": -1.4548628994,
				"element": "H" 
			},
			{
				"x": 2.1864005202,
				"y": -7.0082247043,
				"z": 1.0158773768,
				"element": "H" 
			},
			{
				"x": 1.1053827213,
				"y": -8.1736226413,
				"z": -0.9077817026,
				"element": "H" 
			},
			{
				"x": -0.1193346885,
				"y": -6.7855631804,
				"z": -2.6127777619,
				"element": "H" 
			},
			{
				"x": -0.1915292392,
				"y": -4.2943405315,
				"z": -2.2915560761,
				"element": "H" 
			}
		],
		 "valence_orbital": [ 
			{
				"type": "occ",
				"energy": -0.26175,
				"method": "rhf"
			},
			{
				"type": "occ",
				"energy": -0.25636,
				"method": "rhf"
			},
			{
				"type": "occ",
				"energy": -0.25269,
				"method": "rhf"
			},
			{
				"type": "occ",
				"energy": -0.24802,
				"method": "rhf"
			},
			{
				"type": "occ",
				"energy": -0.23268,
				"method": "rhf"
			},
			{
				"type": "unocc",
				"energy": -0.07081,
				"method": "rhf"
			},
			{
				"type": "unocc",
				"energy": -0.04392,
				"method": "rhf"
			},
			{
				"type": "unocc",
				"energy": -0.01931,
				"method": "rhf"
			},
			{
				"type": "unocc",
				"energy": -0.01698,
				"method": "rhf"
			},
			{
				"type": "unocc",
				"energy": -0.01014,
				"method": "rhf"
			}
		],
		"cosmo_sigma_profile": { 
			"-0.025": 0.0,
			"-0.024": 0.0,
			"-0.023": 0.0,
			"-0.022": 0.0,
			"-0.021": 0.0,
			"-0.02": 0.0,
			"-0.019": 0.0,
			"-0.018": 0.0,
			"-0.017": 0.0,
			"-0.016": 0.0,
			"-0.015": 0.0,
			"-0.014": 0.0,
			"-0.013": 0.0,
			"-0.012": 0.0,
			"-0.011": 0.0,
			"-0.01": 1.13388241289,
			"-0.009": 2.45045698059,
			"-0.008": 2.03347818247,
			"-0.007": 6.98105154614,
			"-0.006": 17.734551841,
			"-0.005": 22.3744371839,
			"-0.004": 22.1206554391,
			"-0.003": 24.0794102332,
			"-0.002": 28.0011994908,
			"-0.001": 28.267615287,
			"0.0": 30.8311219363,
			"0.001": 35.8871723837,
			"0.002": 31.8318134135,
			"0.003": 22.6183275946,
			"0.004": 19.7964053855,
			"0.005": 15.1330794758,
			"0.006": 5.97074227499,
			"0.007": 3.39201499218,
			"0.008": 3.73130024537,
			"0.009": 1.9840123771,
			"0.01": 1.44525585852,
			"0.011": 0.674227133221,
			"0.012": 0.774948533559,
			"0.013": 0.839768818449,
			"0.014": 0.901619990292,
			"0.015": 1.52905778331,
			"0.016": 0.819718825129,
			"0.017": 0.898766557797,
			"0.018": 0.462909445482,
			"0.019": 0.925217100271,
			"0.02": 0.265356301923,
			"0.021": 0.0,
			"0.022": 0.0,
			"0.023": 0.0,
			"0.024": 0.0,
			"0.025": 0.0
		}
	}
}
