{
	 "smiles": "COC1=C(C=C(C=O)C=C1)C#N", 
	 "Tm": 393.15, 
	 "num_atms": 19, 
	 "gaussian": { 
		 "optdone": 1, 
		 "sigma_profile": "yes", 
		 "theory": "DFT", 
		 "functional": "B3LYP", 
		 "basiset": "6-31G**", 
		 "properties": { 
			 "R2extent": 2421.3232, 
			 "electric_dipole_moment_norm": 4.13574775464, 
			 "electric_quadrupole_moment_norm": 32.5130744977, 
			 "total_energy": -552.337733085, 
			 "HOMO_LUMO_gap": 0.17986, 
			 "cosmo_polarized_energy": -14.96, 
			 "cosmo_cavitation_energy": 25.18, 
			 "cosmo_dispersion_energy": -17.63, 
			 "cosmo_repulsion_energy": 1.4, 
			 "cosmo_total_nonelectrostatic_energy": 8.95, 
			 "SMD_solvation_energy": 7.63 
		},
		"coords": [
			{
				"x": -2.1190581435,
				"y": 3.4519237854,
				"z": 0.4563281693,
				"element": "C" 
			},
			{
				"x": -2.1757943459,
				"y": 2.0568288963,
				"z": 0.1656581042,
				"element": "O" 
			},
			{
				"x": -1.0295518129,
				"y": 1.3573875721,
				"z": 0.0707570394,
				"element": "C" 
			},
			{
				"x": -1.1728796355,
				"y": -0.0237325081,
				"z": -0.2209022943,
				"element": "C" 
			},
			{
				"x": -0.0342356125,
				"y": -0.8264227915,
				"z": -0.3374308824,
				"element": "C" 
			},
			{
				"x": 1.2424462092,
				"y": -0.2832493015,
				"z": -0.1698155172,
				"element": "C" 
			},
			{
				"x": 2.4410645515,
				"y": -1.13851887,
				"z": -0.2945831167,
				"element": "C" 
			},
			{
				"x": 3.5836917452,
				"y": -0.7418013974,
				"z": -0.1627858823,
				"element": "O" 
			},
			{
				"x": 1.3725383831,
				"y": 1.0839444693,
				"z": 0.118373779,
				"element": "C" 
			},
			{
				"x": 0.2555230219,
				"y": 1.8996949267,
				"z": 0.2385373037,
				"element": "C" 
			},
			{
				"x": -2.4772946964,
				"y": -0.5873227659,
				"z": -0.3939580446,
				"element": "C" 
			},
			{
				"x": -3.5232628352,
				"y": -1.0745200205,
				"z": -0.5400205343,
				"element": "N" 
			},
			{
				"x": -3.1554609262,
				"y": 3.7877685513,
				"z": 0.4809545636,
				"element": "H" 
			},
			{
				"x": -1.6517527116,
				"y": 3.6361478545,
				"z": 1.4303392698,
				"element": "H" 
			},
			{
				"x": -1.5760348375,
				"y": 3.9983801455,
				"z": -0.3231104163,
				"element": "H" 
			},
			{
				"x": -0.1541279743,
				"y": -1.8828930377,
				"z": -0.5609655171,
				"element": "H" 
			},
			{
				"x": 2.227738739,
				"y": -2.2058737748,
				"z": -0.5242606103,
				"element": "H" 
			},
			{
				"x": 2.3717704028,
				"y": 1.4888570262,
				"z": 0.2453640516,
				"element": "H" 
			},
			{
				"x": 0.3796804788,
				"y": 2.9522012401,
				"z": 0.4614205349,
				"element": "H" 
			}
		],
		 "valence_orbital": [ 
			{
				"type": "occ",
				"energy": -0.34371,
				"method": "rhf"
			},
			{
				"type": "occ",
				"energy": -0.33354,
				"method": "rhf"
			},
			{
				"type": "occ",
				"energy": -0.28284,
				"method": "rhf"
			},
			{
				"type": "occ",
				"energy": -0.26471,
				"method": "rhf"
			},
			{
				"type": "occ",
				"energy": -0.25366,
				"method": "rhf"
			},
			{
				"type": "unocc",
				"energy": -0.0738,
				"method": "rhf"
			},
			{
				"type": "unocc",
				"energy": -0.05501,
				"method": "rhf"
			},
			{
				"type": "unocc",
				"energy": 0.01589,
				"method": "rhf"
			},
			{
				"type": "unocc",
				"energy": 0.03056,
				"method": "rhf"
			},
			{
				"type": "unocc",
				"energy": 0.07643,
				"method": "rhf"
			}
		],
		"cosmo_sigma_profile": { 
			"-0.025": 0.0,
			"-0.024": 0.0,
			"-0.023": 0.0,
			"-0.022": 0.0,
			"-0.021": 0.0,
			"-0.02": 0.0,
			"-0.019": 0.0,
			"-0.018": 0.0,
			"-0.017": 0.0,
			"-0.016": 0.0,
			"-0.015": 0.0,
			"-0.014": 0.0,
			"-0.013": 0.0,
			"-0.012": 0.0,
			"-0.011": 0.0,
			"-0.01": 0.104731958881,
			"-0.009": 3.71251352817,
			"-0.008": 6.3210247229,
			"-0.007": 14.3469494724,
			"-0.006": 16.5424337926,
			"-0.005": 14.0787305231,
			"-0.004": 13.8209492375,
			"-0.003": 10.6463839842,
			"-0.002": 13.450605963,
			"-0.001": 16.7211191089,
			"0.0": 16.7193336053,
			"0.001": 11.6648949726,
			"0.002": 6.8538060657,
			"0.003": 4.88453615766,
			"0.004": 4.50422524013,
			"0.005": 5.01253595871,
			"0.006": 5.52392367524,
			"0.007": 6.88808279625,
			"0.008": 5.89656086033,
			"0.009": 5.79564433968,
			"0.01": 5.48393796131,
			"0.011": 7.19340827506,
			"0.012": 4.83588727963,
			"0.013": 2.12448175035,
			"0.014": 0.0212511093184,
			"0.015": 0.0,
			"0.016": 0.0,
			"0.017": 0.0,
			"0.018": 0.0,
			"0.019": 0.0,
			"0.02": 0.0,
			"0.021": 0.0,
			"0.022": 0.0,
			"0.023": 0.0,
			"0.024": 0.0,
			"0.025": 0.0
		}
	}
}
