{
	 "smiles": "O=C1NC(=O)C(=O)N1C1CCCCC1", 
	 "Tm": 461.15, 
	 "num_atms": 26, 
	 "gaussian": { 
		 "optdone": 1, 
		 "sigma_profile": "yes", 
		 "theory": "DFT", 
		 "functional": "B3LYP", 
		 "basiset": "6-31G**", 
		 "properties": { 
			 "R2extent": 3326.223, 
			 "electric_dipole_moment_norm": 3.0348217114, 
			 "electric_quadrupole_moment_norm": 18.7743088075, 
			 "total_energy": -685.411777045, 
			 "HOMO_LUMO_gap": 0.18831, 
			 "cosmo_polarized_energy": -14.0, 
			 "cosmo_cavitation_energy": 28.66, 
			 "cosmo_dispersion_energy": -20.76, 
			 "cosmo_repulsion_energy": 1.65, 
			 "cosmo_total_nonelectrostatic_energy": 9.55, 
			 "SMD_solvation_energy": 6.53 
		},
		"coords": [
			{
				"x": -0.0203787487,
				"y": -2.4703640551,
				"z": -0.8997382879,
				"element": "O" 
			},
			{
				"x": 0.5722130403,
				"y": -2.2953688139,
				"z": 0.1406694591,
				"element": "C" 
			},
			{
				"x": 1.1688569196,
				"y": -3.2918801507,
				"z": 0.9267043434,
				"element": "N" 
			},
			{
				"x": 1.7761940112,
				"y": -2.7880946548,
				"z": 2.0649394166,
				"element": "C" 
			},
			{
				"x": 2.3666105239,
				"y": -3.3886252767,
				"z": 2.9276490854,
				"element": "O" 
			},
			{
				"x": 1.519630355,
				"y": -1.2621873818,
				"z": 1.9736909751,
				"element": "C" 
			},
			{
				"x": 1.8713192976,
				"y": -0.4161418891,
				"z": 2.7612734696,
				"element": "O" 
			},
			{
				"x": 0.8013149017,
				"y": -1.0786289684,
				"z": 0.7970071986,
				"element": "N" 
			},
			{
				"x": 0.3407513077,
				"y": 0.2380680709,
				"z": 0.319349073,
				"element": "C" 
			},
			{
				"x": -1.1896441102,
				"y": 0.3262763296,
				"z": 0.2210686052,
				"element": "C" 
			},
			{
				"x": -1.6224205795,
				"y": 1.7940077888,
				"z": -0.0148726358,
				"element": "C" 
			},
			{
				"x": -0.5848678492,
				"y": 2.5949567534,
				"z": -0.8402182331,
				"element": "C" 
			},
			{
				"x": 0.1905119068,
				"y": 1.6769172474,
				"z": -1.7943755519,
				"element": "C" 
			},
			{
				"x": 1.0202481046,
				"y": 0.6280147249,
				"z": -1.0174710349,
				"element": "C" 
			},
			{
				"x": 1.1413646732,
				"y": -4.2671011801,
				"z": 0.6629308458,
				"element": "H" 
			},
			{
				"x": 0.6759948781,
				"y": 0.9169545703,
				"z": 1.1096186483,
				"element": "H" 
			},
			{
				"x": -1.6461390778,
				"y": -0.062622176,
				"z": 1.1375036311,
				"element": "H" 
			},
			{
				"x": -1.5272680604,
				"y": -0.3142298734,
				"z": -0.5992933313,
				"element": "H" 
			},
			{
				"x": -2.589308859,
				"y": 1.7941678329,
				"z": -0.5301181971,
				"element": "H" 
			},
			{
				"x": -1.7859413381,
				"y": 2.2923735618,
				"z": 0.9473908165,
				"element": "H" 
			},
			{
				"x": -1.0846656511,
				"y": 3.3954508103,
				"z": -1.3959480296,
				"element": "H" 
			},
			{
				"x": 0.1265263056,
				"y": 3.0913008962,
				"z": -0.1670203627,
				"element": "H" 
			},
			{
				"x": 0.8508167844,
				"y": 2.2600372685,
				"z": -2.4449726608,
				"element": "H" 
			},
			{
				"x": -0.5205642612,
				"y": 1.1669023074,
				"z": -2.4561255804,
				"element": "H" 
			},
			{
				"x": 1.1455991186,
				"y": -0.2662241853,
				"z": -1.6339110256,
				"element": "H" 
			},
			{
				"x": 2.022046407,
				"y": 1.0158404428,
				"z": -0.8004306366,
				"element": "H" 
			}
		],
		 "valence_orbital": [ 
			{
				"type": "occ",
				"energy": -0.31402,
				"method": "rhf"
			},
			{
				"type": "occ",
				"energy": -0.31328,
				"method": "rhf"
			},
			{
				"type": "occ",
				"energy": -0.29724,
				"method": "rhf"
			},
			{
				"type": "occ",
				"energy": -0.28515,
				"method": "rhf"
			},
			{
				"type": "occ",
				"energy": -0.27493,
				"method": "rhf"
			},
			{
				"type": "unocc",
				"energy": -0.08662,
				"method": "rhf"
			},
			{
				"type": "unocc",
				"energy": 0.03094,
				"method": "rhf"
			},
			{
				"type": "unocc",
				"energy": 0.06581,
				"method": "rhf"
			},
			{
				"type": "unocc",
				"energy": 0.07005,
				"method": "rhf"
			},
			{
				"type": "unocc",
				"energy": 0.07554,
				"method": "rhf"
			}
		],
		"cosmo_sigma_profile": { 
			"-0.025": 0.0,
			"-0.024": 0.0,
			"-0.023": 0.0,
			"-0.022": 0.0,
			"-0.021": 0.0,
			"-0.02": 0.0,
			"-0.019": 0.00267813263578,
			"-0.018": 0.907057853532,
			"-0.017": 1.344163884,
			"-0.016": 1.23892942784,
			"-0.015": 0.822165022548,
			"-0.014": 0.498526013568,
			"-0.013": 1.2442878431,
			"-0.012": 1.07956671609,
			"-0.011": 0.576287164073,
			"-0.01": 1.91436477935,
			"-0.009": 2.87650519239,
			"-0.008": 3.20196657532,
			"-0.007": 2.56747438297,
			"-0.006": 3.43590476501,
			"-0.005": 7.34416683659,
			"-0.004": 14.7422424908,
			"-0.003": 23.2901454538,
			"-0.002": 31.3404111073,
			"-0.001": 27.0939482114,
			"0.0": 23.3112670151,
			"0.001": 15.0958060513,
			"0.002": 4.20076407828,
			"0.003": 4.27698036369,
			"0.004": 3.34583056045,
			"0.005": 4.95276736022,
			"0.006": 3.43453800555,
			"0.007": 4.77309000151,
			"0.008": 5.21365139085,
			"0.009": 9.07694570713,
			"0.01": 13.888884371,
			"0.011": 7.66263234783,
			"0.012": 0.265363412715,
			"0.013": 0.0,
			"0.014": 0.0,
			"0.015": 0.0,
			"0.016": 0.0,
			"0.017": 0.0,
			"0.018": 0.0,
			"0.019": 0.0,
			"0.02": 0.0,
			"0.021": 0.0,
			"0.022": 0.0,
			"0.023": 0.0,
			"0.024": 0.0,
			"0.025": 0.0
		}
	}
}
