{
	 "smiles": "COC1=CC2=C(NC=C2C(C)=O)C=C1", 
	 "Tm": 480.15, 
	 "num_atms": 25, 
	 "gaussian": { 
		 "optdone": 1, 
		 "sigma_profile": "yes", 
		 "theory": "DFT", 
		 "functional": "B3LYP", 
		 "basiset": "6-31G**", 
		 "properties": { 
			 "R2extent": 3593.1273, 
			 "electric_dipole_moment_norm": 4.98368968837, 
			 "electric_quadrupole_moment_norm": 12.8914392133, 
			 "total_energy": -630.994461392, 
			 "HOMO_LUMO_gap": 0.17205, 
			 "cosmo_polarized_energy": -15.95, 
			 "cosmo_cavitation_energy": 28.79, 
			 "cosmo_dispersion_energy": -21.22, 
			 "cosmo_repulsion_energy": 1.65, 
			 "cosmo_total_nonelectrostatic_energy": 9.21, 
			 "SMD_solvation_energy": 6.21 
		},
		"coords": [
			{
				"x": 0.0014382127,
				"y": -4.6008381245,
				"z": 0.0438449632,
				"element": "C" 
			},
			{
				"x": 0.1687884129,
				"y": -3.487998184,
				"z": -0.8155810152,
				"element": "O" 
			},
			{
				"x": 0.4031099662,
				"y": -2.2585105227,
				"z": -0.2568187346,
				"element": "C" 
			},
			{
				"x": 0.5574912175,
				"y": -1.2116482954,
				"z": -1.1678476836,
				"element": "C" 
			},
			{
				"x": 0.8009076609,
				"y": 0.0844955836,
				"z": -0.6929623284,
				"element": "C" 
			},
			{
				"x": 0.8818804587,
				"y": 0.284237042,
				"z": 0.7143355109,
				"element": "C" 
			},
			{
				"x": 1.1267030789,
				"y": 1.6356967978,
				"z": 0.930263922,
				"element": "N" 
			},
			{
				"x": 1.2010874614,
				"y": 2.2802333841,
				"z": -0.2675656137,
				"element": "C" 
			},
			{
				"x": 1.009829411,
				"y": 1.3854308576,
				"z": -1.3055765973,
				"element": "C" 
			},
			{
				"x": 1.0421715081,
				"y": 1.828651122,
				"z": -2.7094755786,
				"element": "C" 
			},
			{
				"x": 0.8255244312,
				"y": 0.7988144839,
				"z": -3.8043794562,
				"element": "C" 
			},
			{
				"x": 1.2401858542,
				"y": 3.0067823335,
				"z": -2.9912867853,
				"element": "O" 
			},
			{
				"x": 0.7287998469,
				"y": -0.7552593729,
				"z": 1.6271458687,
				"element": "C" 
			},
			{
				"x": 0.4876207828,
				"y": -2.0353855336,
				"z": 1.1338000692,
				"element": "C" 
			},
			{
				"x": -0.1703930058,
				"y": -5.4603110814,
				"z": -0.6063464114,
				"element": "H" 
			},
			{
				"x": -0.8631363175,
				"y": -4.4776677646,
				"z": 0.7099519264,
				"element": "H" 
			},
			{
				"x": 0.8964318101,
				"y": -4.7862561616,
				"z": 0.6529078543,
				"element": "H" 
			},
			{
				"x": 0.4829151099,
				"y": -1.440302735,
				"z": -2.2237240225,
				"element": "H" 
			},
			{
				"x": 1.2327950047,
				"y": 2.0713108971,
				"z": 1.8325585024,
				"element": "H" 
			},
			{
				"x": 1.3856190209,
				"y": 3.3420157845,
				"z": -0.338790236,
				"element": "H" 
			},
			{
				"x": 1.584779613,
				"y": 0.0101645908,
				"z": -3.7521685661,
				"element": "H" 
			},
			{
				"x": 0.8816409488,
				"y": 1.2955859683,
				"z": -4.7737091288,
				"element": "H" 
			},
			{
				"x": -0.1523636034,
				"y": 0.3159362099,
				"z": -3.6960688486,
				"element": "H" 
			},
			{
				"x": 0.7940069027,
				"y": -0.5828136169,
				"z": 2.6977589736,
				"element": "H" 
			},
			{
				"x": 0.3663662132,
				"y": -2.8543636627,
				"z": 1.8316334157,
				"element": "H" 
			}
		],
		 "valence_orbital": [ 
			{
				"type": "occ",
				"energy": -0.30306,
				"method": "rhf"
			},
			{
				"type": "occ",
				"energy": -0.27855,
				"method": "rhf"
			},
			{
				"type": "occ",
				"energy": -0.23081,
				"method": "rhf"
			},
			{
				"type": "occ",
				"energy": -0.21645,
				"method": "rhf"
			},
			{
				"type": "occ",
				"energy": -0.20335,
				"method": "rhf"
			},
			{
				"type": "unocc",
				"energy": -0.0313,
				"method": "rhf"
			},
			{
				"type": "unocc",
				"energy": -0.00316,
				"method": "rhf"
			},
			{
				"type": "unocc",
				"energy": 0.03078,
				"method": "rhf"
			},
			{
				"type": "unocc",
				"energy": 0.07122,
				"method": "rhf"
			},
			{
				"type": "unocc",
				"energy": 0.09253,
				"method": "rhf"
			}
		],
		"cosmo_sigma_profile": { 
			"-0.025": 0.0,
			"-0.024": 0.0,
			"-0.023": 0.0,
			"-0.022": 0.0,
			"-0.021": 0.0,
			"-0.02": 0.0,
			"-0.019": 0.0,
			"-0.018": 0.0,
			"-0.017": 0.272757862498,
			"-0.016": 1.62806138185,
			"-0.015": 1.8514783987,
			"-0.014": 1.17991921712,
			"-0.013": 1.10326145855,
			"-0.012": 1.41326613992,
			"-0.011": 1.51157420188,
			"-0.01": 1.02927147974,
			"-0.009": 2.62098810571,
			"-0.008": 2.68425672576,
			"-0.007": 3.57286290945,
			"-0.006": 8.71368824036,
			"-0.005": 19.171086886,
			"-0.004": 20.8724964993,
			"-0.003": 19.8381431933,
			"-0.002": 14.058233617,
			"-0.001": 14.4524835859,
			"0.0": 12.5165380963,
			"0.001": 9.71884971077,
			"0.002": 12.1599026592,
			"0.003": 13.9633533999,
			"0.004": 14.8865822762,
			"0.005": 17.6520095981,
			"0.006": 6.39045976145,
			"0.007": 3.42427560008,
			"0.008": 3.62971768945,
			"0.009": 2.70649461326,
			"0.01": 2.67134049579,
			"0.011": 3.52394273918,
			"0.012": 2.38591587294,
			"0.013": 4.92824214206,
			"0.014": 2.09084841801,
			"0.015": 0.552428654388,
			"0.016": 0.0,
			"0.017": 0.0,
			"0.018": 0.0,
			"0.019": 0.0,
			"0.02": 0.0,
			"0.021": 0.0,
			"0.022": 0.0,
			"0.023": 0.0,
			"0.024": 0.0,
			"0.025": 0.0
		}
	}
}
