{
	 "smiles": "OC(=O)C1=CC(C=CC1=O)=C(C1=CC(C(O)=O)=C(O)C=C1)C1=CC(C(O)=O)=C(O)C=C1", 
	 "Tm": 573.15, 
	 "num_atms": 45, 
	 "gaussian": { 
		 "optdone": 1, 
		 "sigma_profile": "yes", 
		 "theory": "DFT", 
		 "functional": "B3LYP", 
		 "basiset": "6-31G**", 
		 "properties": { 
			 "R2extent": 15278.0667, 
			 "electric_dipole_moment_norm": 10.1229838096, 
			 "electric_quadrupole_moment_norm": 31.4470691099, 
			 "total_energy": -1523.81698495, 
			 "HOMO_LUMO_gap": 0.11466, 
			 "cosmo_polarized_energy": -43.02, 
			 "cosmo_cavitation_energy": 51.78, 
			 "cosmo_dispersion_energy": -35.37, 
			 "cosmo_repulsion_energy": 2.66, 
			 "cosmo_total_nonelectrostatic_energy": 19.07, 
			 "SMD_solvation_energy": 13.33 
		},
		"coords": [
			{
				"x": -3.1389918518,
				"y": 4.2709072147,
				"z": -1.416727372,
				"element": "O" 
			},
			{
				"x": -2.1220733306,
				"y": 3.3912245488,
				"z": -1.4167043113,
				"element": "C" 
			},
			{
				"x": -1.2070472572,
				"y": 3.4631493005,
				"z": -2.2201568745,
				"element": "O" 
			},
			{
				"x": -2.1987351084,
				"y": 2.3444247917,
				"z": -0.3517562411,
				"element": "C" 
			},
			{
				"x": -1.094856987,
				"y": 1.5551331828,
				"z": -0.2249099581,
				"element": "C" 
			},
			{
				"x": -0.9986622843,
				"y": 0.4504658289,
				"z": 0.7054197627,
				"element": "C" 
			},
			{
				"x": -2.1614257171,
				"y": 0.2207078439,
				"z": 1.5510932038,
				"element": "C" 
			},
			{
				"x": -3.2599215679,
				"y": 1.0016099646,
				"z": 1.4664655705,
				"element": "C" 
			},
			{
				"x": -3.3921878924,
				"y": 2.1152630796,
				"z": 0.5065015731,
				"element": "C" 
			},
			{
				"x": -4.4302869043,
				"y": 2.7710421778,
				"z": 0.4491095172,
				"element": "O" 
			},
			{
				"x": 0.139795587,
				"y": -0.3448915285,
				"z": 0.7643731007,
				"element": "C" 
			},
			{
				"x": 0.1375924605,
				"y": -1.6766493932,
				"z": 1.4037025661,
				"element": "C" 
			},
			{
				"x": -0.908098985,
				"y": -2.5849304958,
				"z": 1.2042014161,
				"element": "C" 
			},
			{
				"x": -0.8983286885,
				"y": -3.8592414133,
				"z": 1.7908523289,
				"element": "C" 
			},
			{
				"x": -1.9855783952,
				"y": -4.8214002242,
				"z": 1.5713944474,
				"element": "C" 
			},
			{
				"x": -2.9723562313,
				"y": -4.3860582075,
				"z": 0.7704746145,
				"element": "O" 
			},
			{
				"x": -2.0191925446,
				"y": -5.9476007791,
				"z": 2.0708122563,
				"element": "O" 
			},
			{
				"x": 0.192303651,
				"y": -4.2476800995,
				"z": 2.614760082,
				"element": "C" 
			},
			{
				"x": 0.2641223741,
				"y": -5.441871777,
				"z": 3.2068335579,
				"element": "O" 
			},
			{
				"x": 1.2508661718,
				"y": -3.3411112665,
				"z": 2.811394288,
				"element": "C" 
			},
			{
				"x": 1.2259715387,
				"y": -2.0974109006,
				"z": 2.2105422917,
				"element": "C" 
			},
			{
				"x": 1.4289245489,
				"y": 0.0987369117,
				"z": 0.1834777063,
				"element": "C" 
			},
			{
				"x": 1.9356351789,
				"y": 1.3846446898,
				"z": 0.4211502082,
				"element": "C" 
			},
			{
				"x": 3.1575708404,
				"y": 1.820854048,
				"z": -0.1020070114,
				"element": "C" 
			},
			{
				"x": 3.5849335742,
				"y": 3.2214607245,
				"z": 0.273965753,
				"element": "C" 
			},
			{
				"x": 4.7248336489,
				"y": 3.7003051009,
				"z": -0.2568779786,
				"element": "O" 
			},
			{
				"x": 2.9260035159,
				"y": 3.8969925608,
				"z": 1.0320492104,
				"element": "O" 
			},
			{
				"x": 3.8883256453,
				"y": 0.9267273033,
				"z": -0.9061885453,
				"element": "C" 
			},
			{
				"x": 5.0802689575,
				"y": 1.3482961235,
				"z": -1.4351686624,
				"element": "O" 
			},
			{
				"x": 3.4122539956,
				"y": -0.3664430159,
				"z": -1.1470951252,
				"element": "C" 
			},
			{
				"x": 2.206671117,
				"y": -0.7790853527,
				"z": -0.5979862524,
				"element": "C" 
			},
			{
				"x": -2.9416791576,
				"y": 4.8858173696,
				"z": -2.1438571743,
				"element": "H" 
			},
			{
				"x": -0.2755976732,
				"y": 1.7430624901,
				"z": -0.909200522,
				"element": "H" 
			},
			{
				"x": -2.1099341913,
				"y": -0.5605365246,
				"z": 2.3017714987,
				"element": "H" 
			},
			{
				"x": -4.1100662149,
				"y": 0.8581809768,
				"z": 2.1262968638,
				"element": "H" 
			},
			{
				"x": -1.739095123,
				"y": -2.3180937258,
				"z": 0.5620504855,
				"element": "H" 
			},
			{
				"x": -3.6224116215,
				"y": -5.1062003343,
				"z": 0.7128460226,
				"element": "H" 
			},
			{
				"x": -0.5513209887,
				"y": -5.9429778081,
				"z": 2.9568278968,
				"element": "H" 
			},
			{
				"x": 2.0764613871,
				"y": -3.6478536427,
				"z": 3.4442155012,
				"element": "H" 
			},
			{
				"x": 2.0516792671,
				"y": -1.412900575,
				"z": 2.3774086187,
				"element": "H" 
			},
			{
				"x": 1.3978468594,
				"y": 2.0850880815,
				"z": 1.0502252708,
				"element": "H" 
			},
			{
				"x": 5.1409683331,
				"y": 3.0394031248,
				"z": -0.8368382352,
				"element": "H" 
			},
			{
				"x": 5.4764772219,
				"y": 0.6606020321,
				"z": -1.9857018298,
				"element": "H" 
			},
			{
				"x": 3.9913936033,
				"y": -1.0466400498,
				"z": -1.7675682713,
				"element": "H" 
			},
			{
				"x": 1.8492492378,
				"y": -1.7850223568,
				"z": -0.7925712481,
				"element": "H" 
			}
		],
		 "valence_orbital": [ 
			{
				"type": "occ",
				"energy": -0.27417,
				"method": "rhf"
			},
			{
				"type": "occ",
				"energy": -0.26696,
				"method": "rhf"
			},
			{
				"type": "occ",
				"energy": -0.26026,
				"method": "rhf"
			},
			{
				"type": "occ",
				"energy": -0.23162,
				"method": "rhf"
			},
			{
				"type": "occ",
				"energy": -0.22111,
				"method": "rhf"
			},
			{
				"type": "unocc",
				"energy": -0.10645,
				"method": "rhf"
			},
			{
				"type": "unocc",
				"energy": -0.07709,
				"method": "rhf"
			},
			{
				"type": "unocc",
				"energy": -0.05982,
				"method": "rhf"
			},
			{
				"type": "unocc",
				"energy": -0.03899,
				"method": "rhf"
			},
			{
				"type": "unocc",
				"energy": -0.02713,
				"method": "rhf"
			}
		],
		"cosmo_sigma_profile": { 
			"-0.025": 0.0,
			"-0.024": 0.0,
			"-0.023": 0.0,
			"-0.022": 0.0,
			"-0.021": 0.00103961237567,
			"-0.02": 1.06318164177,
			"-0.019": 2.03897818215,
			"-0.018": 3.20150041854,
			"-0.017": 2.55042851752,
			"-0.016": 2.71262771401,
			"-0.015": 2.79306578978,
			"-0.014": 2.04922485022,
			"-0.013": 2.10925142811,
			"-0.012": 2.74663823792,
			"-0.011": 2.38281575842,
			"-0.01": 2.46251430861,
			"-0.009": 4.23893901287,
			"-0.008": 6.83784110518,
			"-0.007": 12.3998485852,
			"-0.006": 15.9737522813,
			"-0.005": 21.3521425845,
			"-0.004": 26.4482774354,
			"-0.003": 28.454996836,
			"-0.002": 31.3109791046,
			"-0.001": 37.0690446832,
			"0.0": 40.1621190834,
			"0.001": 29.2122824896,
			"0.002": 20.3924432903,
			"0.003": 13.5442132875,
			"0.004": 7.21955864873,
			"0.005": 9.3280541395,
			"0.006": 9.72708100628,
			"0.007": 7.98711434602,
			"0.008": 8.8371268897,
			"0.009": 10.0488622464,
			"0.01": 10.4525972529,
			"0.011": 11.9525184955,
			"0.012": 11.6643168963,
			"0.013": 6.84461285129,
			"0.014": 4.56116722577,
			"0.015": 1.97921857224,
			"0.016": 1.62273762342,
			"0.017": 0.370214532417,
			"0.018": 0.0,
			"0.019": 0.0,
			"0.02": 0.0,
			"0.021": 0.0,
			"0.022": 0.0,
			"0.023": 0.0,
			"0.024": 0.0,
			"0.025": 0.0
		}
	}
}
