{
	 "smiles": "CCOC(=O)CN1C=NC(Cl)=C1Cl", 
	 "Tm": 339.15, 
	 "num_atms": 21, 
	 "gaussian": { 
		 "optdone": 1, 
		 "sigma_profile": "yes", 
		 "theory": "DFT", 
		 "functional": "B3LYP", 
		 "basiset": "6-31G**", 
		 "properties": { 
			 "R2extent": 4215.3692, 
			 "electric_dipole_moment_norm": 6.40179549423, 
			 "electric_quadrupole_moment_norm": 10.4704989045, 
			 "total_energy": -1451.89247027, 
			 "HOMO_LUMO_gap": 0.21608, 
			 "cosmo_polarized_energy": -14.64, 
			 "cosmo_cavitation_energy": 29.8, 
			 "cosmo_dispersion_energy": -21.03, 
			 "cosmo_repulsion_energy": 1.71, 
			 "cosmo_total_nonelectrostatic_energy": 10.48, 
			 "SMD_solvation_energy": 4.41 
		},
		"coords": [
			{
				"x": -1.2873805644,
				"y": 0.4110054431,
				"z": -3.4674647808,
				"element": "C" 
			},
			{
				"x": 0.1881690492,
				"y": 0.046014012,
				"z": -3.4606204267,
				"element": "C" 
			},
			{
				"x": 0.8899240933,
				"y": 0.7162822496,
				"z": -2.3770524628,
				"element": "O" 
			},
			{
				"x": 0.8679982178,
				"y": 0.1080915996,
				"z": -1.1790723909,
				"element": "C" 
			},
			{
				"x": 0.3252904906,
				"y": -0.9399808189,
				"z": -0.9250207491,
				"element": "O" 
			},
			{
				"x": 1.6724885772,
				"y": 0.9448072885,
				"z": -0.1790566192,
				"element": "C" 
			},
			{
				"x": 1.5744857417,
				"y": 0.4409641801,
				"z": 1.1714186997,
				"element": "N" 
			},
			{
				"x": 2.4129695092,
				"y": -0.4551859684,
				"z": 1.7773230985,
				"element": "C" 
			},
			{
				"x": 2.0152315012,
				"y": -0.7821703607,
				"z": 2.9874264051,
				"element": "N" 
			},
			{
				"x": 0.8595345951,
				"y": -0.0871791666,
				"z": 3.1823629565,
				"element": "C" 
			},
			{
				"x": -0.043305158,
				"y": -0.1849909939,
				"z": 4.6508202559,
				"element": "Cl" 
			},
			{
				"x": 0.553419739,
				"y": 0.6721115279,
				"z": 2.078747289,
				"element": "C" 
			},
			{
				"x": -0.7513525027,
				"y": 1.74108707,
				"z": 1.7542446833,
				"element": "Cl" 
			},
			{
				"x": -1.7751975916,
				"y": -0.0471366185,
				"z": -4.3340444729,
				"element": "H" 
			},
			{
				"x": -1.4217944998,
				"y": 1.4946183623,
				"z": -3.5312002544,
				"element": "H" 
			},
			{
				"x": -1.7804429811,
				"y": 0.0435530307,
				"z": -2.5642350912,
				"element": "H" 
			},
			{
				"x": 0.3314695429,
				"y": -1.0315840912,
				"z": -3.3533317646,
				"element": "H" 
			},
			{
				"x": 0.6958484203,
				"y": 0.3939039984,
				"z": -4.3627612214,
				"element": "H" 
			},
			{
				"x": 2.7235139914,
				"y": 0.9391206763,
				"z": -0.4826747712,
				"element": "H" 
			},
			{
				"x": 1.3313303789,
				"y": 1.981885807,
				"z": -0.2205438487,
				"element": "H" 
			},
			{
				"x": 3.3005994498,
				"y": -0.8270172273,
				"z": 1.2840354659,
				"element": "H" 
			}
		],
		 "valence_orbital": [ 
			{
				"type": "occ",
				"energy": -0.31371,
				"method": "rhf"
			},
			{
				"type": "occ",
				"energy": -0.29955,
				"method": "rhf"
			},
			{
				"type": "occ",
				"energy": -0.28878,
				"method": "rhf"
			},
			{
				"type": "occ",
				"energy": -0.28046,
				"method": "rhf"
			},
			{
				"type": "occ",
				"energy": -0.22754,
				"method": "rhf"
			},
			{
				"type": "unocc",
				"energy": -0.01146,
				"method": "rhf"
			},
			{
				"type": "unocc",
				"energy": 0.00396,
				"method": "rhf"
			},
			{
				"type": "unocc",
				"energy": 0.02141,
				"method": "rhf"
			},
			{
				"type": "unocc",
				"energy": 0.05099,
				"method": "rhf"
			},
			{
				"type": "unocc",
				"energy": 0.05431,
				"method": "rhf"
			}
		],
		"cosmo_sigma_profile": { 
			"-0.025": 0.0,
			"-0.024": 0.0,
			"-0.023": 0.0,
			"-0.022": 0.0,
			"-0.021": 0.0,
			"-0.02": 0.0,
			"-0.019": 0.0,
			"-0.018": 0.0,
			"-0.017": 0.0,
			"-0.016": 0.0,
			"-0.015": 0.0,
			"-0.014": 0.0,
			"-0.013": 0.0320746813823,
			"-0.012": 1.36265710271,
			"-0.011": 3.26967395704,
			"-0.01": 4.42575729666,
			"-0.009": 4.24285283955,
			"-0.008": 4.64699730344,
			"-0.007": 5.60069714329,
			"-0.006": 7.26601568557,
			"-0.005": 11.312071099,
			"-0.004": 16.7162141588,
			"-0.003": 18.2063592194,
			"-0.002": 16.8116074792,
			"-0.001": 18.0765008143,
			"0.0": 22.4631509068,
			"0.001": 16.8073658243,
			"0.002": 18.8403083018,
			"0.003": 20.9078021509,
			"0.004": 14.9669158433,
			"0.005": 6.47819151455,
			"0.006": 5.05194478867,
			"0.007": 4.51597573552,
			"0.008": 3.94946406369,
			"0.009": 2.91150118712,
			"0.01": 3.25440540864,
			"0.011": 5.33271294723,
			"0.012": 1.59461583651,
			"0.013": 0.817497709843,
			"0.014": 1.18114455679,
			"0.015": 0.93306186233,
			"0.016": 0.207652917562,
			"0.017": 0.0,
			"0.018": 0.0,
			"0.019": 0.0,
			"0.02": 0.0,
			"0.021": 0.0,
			"0.022": 0.0,
			"0.023": 0.0,
			"0.024": 0.0,
			"0.025": 0.0
		}
	}
}
