{
	 "smiles": "CN1CCC2=C(C1)C(Cl)=NC=N2", 
	 "Tm": 341.15, 
	 "num_atms": 22, 
	 "gaussian": { 
		 "optdone": 1, 
		 "sigma_profile": "yes", 
		 "theory": "DFT", 
		 "functional": "B3LYP", 
		 "basiset": "6-31G**", 
		 "properties": { 
			 "R2extent": 2480.443, 
			 "electric_dipole_moment_norm": 3.25698603927, 
			 "electric_quadrupole_moment_norm": 1.89644894738, 
			 "total_energy": -935.319758889, 
			 "HOMO_LUMO_gap": 0.18353, 
			 "cosmo_polarized_energy": -7.67, 
			 "cosmo_cavitation_energy": 26.03, 
			 "cosmo_dispersion_energy": -19.74, 
			 "cosmo_repulsion_energy": 1.56, 
			 "cosmo_total_nonelectrostatic_energy": 7.85, 
			 "SMD_solvation_energy": -1.54 
		},
		"coords": [
			{
				"x": 1.1304290915,
				"y": -2.8604278401,
				"z": -0.5629887463,
				"element": "C" 
			},
			{
				"x": 0.9053393327,
				"y": -1.6583021342,
				"z": 0.225927666,
				"element": "N" 
			},
			{
				"x": 2.1459775246,
				"y": -1.0493066381,
				"z": 0.6998870409,
				"element": "C" 
			},
			{
				"x": 1.8251750978,
				"y": -0.0103887891,
				"z": 1.775892536,
				"element": "C" 
			},
			{
				"x": 0.7368495936,
				"y": 0.9334458738,
				"z": 1.3329777428,
				"element": "C" 
			},
			{
				"x": -0.0880527307,
				"y": 0.5957102195,
				"z": 0.2491944287,
				"element": "C" 
			},
			{
				"x": 0.0819260382,
				"y": -0.7011590586,
				"z": -0.5040704325,
				"element": "C" 
			},
			{
				"x": -1.0409711498,
				"y": 1.5663513954,
				"z": -0.0789311412,
				"element": "C" 
			},
			{
				"x": -2.117757113,
				"y": 1.2933390689,
				"z": -1.4483947145,
				"element": "Cl" 
			},
			{
				"x": -1.2015271884,
				"y": 2.704019479,
				"z": 0.5703607099,
				"element": "N" 
			},
			{
				"x": -0.3664807307,
				"y": 2.9043997106,
				"z": 1.5986760539,
				"element": "C" 
			},
			{
				"x": 0.5974633606,
				"y": 2.0859178421,
				"z": 2.0106762145,
				"element": "N" 
			},
			{
				"x": 1.6868250172,
				"y": -3.5918407765,
				"z": 0.0309010722,
				"element": "H" 
			},
			{
				"x": 0.1691862072,
				"y": -3.3075055011,
				"z": -0.8365342417,
				"element": "H" 
			},
			{
				"x": 1.6949648236,
				"y": -2.6728492163,
				"z": -1.4964709711,
				"element": "H" 
			},
			{
				"x": 2.7194086272,
				"y": -0.5800594476,
				"z": -0.1247495236,
				"element": "H" 
			},
			{
				"x": 2.7811280129,
				"y": -1.8347879031,
				"z": 1.1211928343,
				"element": "H" 
			},
			{
				"x": 2.7095933227,
				"y": 0.5749312199,
				"z": 2.0470981066,
				"element": "H" 
			},
			{
				"x": 1.4877029631,
				"y": -0.5195269334,
				"z": 2.6872479019,
				"element": "H" 
			},
			{
				"x": -0.9015066276,
				"y": -1.1492423868,
				"z": -0.6863077488,
				"element": "H" 
			},
			{
				"x": 0.5018465076,
				"y": -0.4699349052,
				"z": -1.5061883563,
				"element": "H" 
			},
			{
				"x": -0.4923199804,
				"y": 3.836716721,
				"z": 2.1446035683,
				"element": "H" 
			}
		],
		 "valence_orbital": [ 
			{
				"type": "occ",
				"energy": -0.3092,
				"method": "rhf"
			},
			{
				"type": "occ",
				"energy": -0.29885,
				"method": "rhf"
			},
			{
				"type": "occ",
				"energy": -0.27366,
				"method": "rhf"
			},
			{
				"type": "occ",
				"energy": -0.26254,
				"method": "rhf"
			},
			{
				"type": "occ",
				"energy": -0.22824,
				"method": "rhf"
			},
			{
				"type": "unocc",
				"energy": -0.04471,
				"method": "rhf"
			},
			{
				"type": "unocc",
				"energy": -0.03312,
				"method": "rhf"
			},
			{
				"type": "unocc",
				"energy": 0.02805,
				"method": "rhf"
			},
			{
				"type": "unocc",
				"energy": 0.0762,
				"method": "rhf"
			},
			{
				"type": "unocc",
				"energy": 0.10684,
				"method": "rhf"
			}
		],
		"cosmo_sigma_profile": { 
			"-0.025": 0.0,
			"-0.024": 0.0,
			"-0.023": 0.0,
			"-0.022": 0.0,
			"-0.021": 0.0,
			"-0.02": 0.0,
			"-0.019": 0.0,
			"-0.018": 0.0,
			"-0.017": 0.0,
			"-0.016": 0.0,
			"-0.015": 0.0,
			"-0.014": 0.0,
			"-0.013": 0.0,
			"-0.012": 0.0,
			"-0.011": 0.0,
			"-0.01": 0.0,
			"-0.009": 0.00637028932233,
			"-0.008": 1.37751137517,
			"-0.007": 2.0418896698,
			"-0.006": 2.17447410132,
			"-0.005": 10.5188650991,
			"-0.004": 20.1391244428,
			"-0.003": 30.2513259347,
			"-0.002": 31.6226937606,
			"-0.001": 26.7742266084,
			"0.0": 13.9554938398,
			"0.001": 10.5908188316,
			"0.002": 9.9466188593,
			"0.003": 10.1970557224,
			"0.004": 9.76305863148,
			"0.005": 4.69652049715,
			"0.006": 3.69022720894,
			"0.007": 3.67942386408,
			"0.008": 3.01279613997,
			"0.009": 2.12431431595,
			"0.01": 2.43156151551,
			"0.011": 2.22978073777,
			"0.012": 2.55070968779,
			"0.013": 2.04924576314,
			"0.014": 1.48781506998,
			"0.015": 0.629885859999,
			"0.016": 0.0145235149569,
			"0.017": 0.0,
			"0.018": 0.0,
			"0.019": 0.0,
			"0.02": 0.0,
			"0.021": 0.0,
			"0.022": 0.0,
			"0.023": 0.0,
			"0.024": 0.0,
			"0.025": 0.0
		}
	}
}
