{
	 "smiles": "COC1=CC=C2OC(=CC2=C1)C(O)=O", 
	 "Tm": 486.15, 
	 "num_atms": 22, 
	 "gaussian": { 
		 "optdone": 1, 
		 "sigma_profile": "yes", 
		 "theory": "DFT", 
		 "functional": "B3LYP", 
		 "basiset": "6-31G**", 
		 "properties": { 
			 "R2extent": 4583.4541, 
			 "electric_dipole_moment_norm": 5.11644102575, 
			 "electric_quadrupole_moment_norm": 32.7969472505, 
			 "total_energy": -686.766662896, 
			 "HOMO_LUMO_gap": 0.16582, 
			 "cosmo_polarized_energy": -13.46, 
			 "cosmo_cavitation_energy": 27.18, 
			 "cosmo_dispersion_energy": -20.32, 
			 "cosmo_repulsion_energy": 1.59, 
			 "cosmo_total_nonelectrostatic_energy": 8.45, 
			 "SMD_solvation_energy": 6.96 
		},
		"coords": [
			{
				"x": 0.8768402119,
				"y": -0.6069681799,
				"z": 2.7190136285,
				"element": "C" 
			},
			{
				"x": -0.4183576999,
				"y": -0.1983393482,
				"z": 2.3086444805,
				"element": "O" 
			},
			{
				"x": -0.6795527725,
				"y": -0.1353039316,
				"z": 0.9706712453,
				"element": "C" 
			},
			{
				"x": -1.9969232607,
				"y": 0.2818210747,
				"z": 0.6518478503,
				"element": "C" 
			},
			{
				"x": -2.4247152374,
				"y": 0.398685804,
				"z": -0.6618664157,
				"element": "C" 
			},
			{
				"x": -1.4951566285,
				"y": 0.0857132322,
				"z": -1.6501479149,
				"element": "C" 
			},
			{
				"x": -1.7007342632,
				"y": 0.1307356052,
				"z": -3.0056270494,
				"element": "O" 
			},
			{
				"x": -0.5076764028,
				"y": -0.2604441399,
				"z": -3.5843865005,
				"element": "C" 
			},
			{
				"x": 0.4365676113,
				"y": -0.5485514934,
				"z": -2.6459727033,
				"element": "C" 
			},
			{
				"x": -0.182544897,
				"y": -0.3304953403,
				"z": -1.3679218764,
				"element": "C" 
			},
			{
				"x": 0.239774333,
				"y": -0.445215147,
				"z": -0.0293921403,
				"element": "C" 
			},
			{
				"x": -0.4482012298,
				"y": -0.3021129118,
				"z": -5.0574402169,
				"element": "C" 
			},
			{
				"x": -1.5894423347,
				"y": 0.0538855614,
				"z": -5.6936724213,
				"element": "O" 
			},
			{
				"x": 0.5464210339,
				"y": -0.630190283,
				"z": -5.6618671746,
				"element": "O" 
			},
			{
				"x": 0.868089301,
				"y": -0.5873459777,
				"z": 3.8096439127,
				"element": "H" 
			},
			{
				"x": 1.6519548281,
				"y": 0.0779652603,
				"z": 2.3513495962,
				"element": "H" 
			},
			{
				"x": 1.106435102,
				"y": -1.6247265198,
				"z": 2.3776004713,
				"element": "H" 
			},
			{
				"x": -2.6645020606,
				"y": 0.5083631491,
				"z": 1.4760205585,
				"element": "H" 
			},
			{
				"x": -3.431649204,
				"y": 0.7174916398,
				"z": -0.9070113923,
				"element": "H" 
			},
			{
				"x": 1.4437622791,
				"y": -0.8745349677,
				"z": -2.8594265948,
				"element": "H" 
			},
			{
				"x": 1.2485529963,
				"y": -0.7648625713,
				"z": 0.1997412635,
				"element": "H" 
			},
			{
				"x": -2.2687417057,
				"y": 0.2817294848,
				"z": -5.0390006064,
				"element": "H" 
			}
		],
		 "valence_orbital": [ 
			{
				"type": "occ",
				"energy": -0.31992,
				"method": "rhf"
			},
			{
				"type": "occ",
				"energy": -0.30538,
				"method": "rhf"
			},
			{
				"type": "occ",
				"energy": -0.27797,
				"method": "rhf"
			},
			{
				"type": "occ",
				"energy": -0.24152,
				"method": "rhf"
			},
			{
				"type": "occ",
				"energy": -0.22848,
				"method": "rhf"
			},
			{
				"type": "unocc",
				"energy": -0.06266,
				"method": "rhf"
			},
			{
				"type": "unocc",
				"energy": 0.00079,
				"method": "rhf"
			},
			{
				"type": "unocc",
				"energy": 0.01529,
				"method": "rhf"
			},
			{
				"type": "unocc",
				"energy": 0.07841,
				"method": "rhf"
			},
			{
				"type": "unocc",
				"energy": 0.08847,
				"method": "rhf"
			}
		],
		"cosmo_sigma_profile": { 
			"-0.025": 0.0,
			"-0.024": 0.0,
			"-0.023": 0.0,
			"-0.022": 0.0,
			"-0.021": 0.0,
			"-0.02": 0.0,
			"-0.019": 0.0,
			"-0.018": 0.0,
			"-0.017": 0.283061484182,
			"-0.016": 0.535121594349,
			"-0.015": 0.509203402242,
			"-0.014": 0.973168844796,
			"-0.013": 0.680248898953,
			"-0.012": 0.422061368551,
			"-0.011": 0.586842948662,
			"-0.01": 1.35315082585,
			"-0.009": 2.00409324719,
			"-0.008": 3.82775276725,
			"-0.007": 7.46245997046,
			"-0.006": 14.0925331446,
			"-0.005": 15.874015421,
			"-0.004": 16.4917919054,
			"-0.003": 14.449271475,
			"-0.002": 12.5557424845,
			"-0.001": 11.7757247017,
			"0.0": 14.7688572109,
			"0.001": 17.8848972502,
			"0.002": 17.6388097278,
			"0.003": 17.623407094,
			"0.004": 8.00834501082,
			"0.005": 4.41193239705,
			"0.006": 4.25566677327,
			"0.007": 2.93116189276,
			"0.008": 3.9470303041,
			"0.009": 5.90974491992,
			"0.01": 6.07376193765,
			"0.011": 5.29206475874,
			"0.012": 4.42997143997,
			"0.013": 1.11138477819,
			"0.014": 0.0,
			"0.015": 0.0,
			"0.016": 0.0,
			"0.017": 0.0,
			"0.018": 0.0,
			"0.019": 0.0,
			"0.02": 0.0,
			"0.021": 0.0,
			"0.022": 0.0,
			"0.023": 0.0,
			"0.024": 0.0,
			"0.025": 0.0
		}
	}
}
