{
	 "smiles": "CCC12CC(=C)C3C(CCC4=CCCCC34)C1CCC2(O)C#C", 
	 "Tm": 383.15, 
	 "num_atms": 53, 
	 "gaussian": { 
		 "optdone": 1, 
		 "sigma_profile": "yes", 
		 "theory": "DFT", 
		 "functional": "B3LYP", 
		 "basiset": "6-31G**", 
		 "properties": { 
			 "R2extent": 7298.3521, 
			 "electric_dipole_moment_norm": 1.78440896097, 
			 "electric_quadrupole_moment_norm": 8.54552747231, 
			 "total_energy": -931.541826331, 
			 "HOMO_LUMO_gap": 0.23668, 
			 "cosmo_polarized_energy": -7.99, 
			 "cosmo_cavitation_energy": 46.15, 
			 "cosmo_dispersion_energy": -31.46, 
			 "cosmo_repulsion_energy": 2.31, 
			 "cosmo_total_nonelectrostatic_energy": 16.99, 
			 "SMD_solvation_energy": 7.98 
		},
		"coords": [
			{
				"x": -1.1248780522,
				"y": 2.2492916986,
				"z": 0.7835223672,
				"element": "C" 
			},
			{
				"x": 0.2013108069,
				"y": 2.5563419625,
				"z": 0.0807534197,
				"element": "C" 
			},
			{
				"x": 0.8919681815,
				"y": 1.4604040028,
				"z": -0.7751924485,
				"element": "C" 
			},
			{
				"x": -0.0808271231,
				"y": 0.8761357816,
				"z": -1.8304461672,
				"element": "C" 
			},
			{
				"x": -1.0100551112,
				"y": -0.2350511167,
				"z": -1.3732832147,
				"element": "C" 
			},
			{
				"x": -2.2155507744,
				"y": -0.3640031006,
				"z": -1.9430003213,
				"element": "C" 
			},
			{
				"x": -0.442497,
				"y": -1.2768732706,
				"z": -0.413096883,
				"element": "C" 
			},
			{
				"x": 1.104376501,
				"y": -1.1363108522,
				"z": -0.3448710774,
				"element": "C" 
			},
			{
				"x": 1.7078165236,
				"y": -2.2563528077,
				"z": 0.5334253858,
				"element": "C" 
			},
			{
				"x": 1.0758682606,
				"y": -2.3502523332,
				"z": 1.9352585918,
				"element": "C" 
			},
			{
				"x": -0.4200108769,
				"y": -2.4591965031,
				"z": 1.8035929464,
				"element": "C" 
			},
			{
				"x": -1.1141120183,
				"y": -3.5136860356,
				"z": 2.2532929335,
				"element": "C" 
			},
			{
				"x": -2.5950530683,
				"y": -3.7111999719,
				"z": 2.0496910504,
				"element": "C" 
			},
			{
				"x": -3.1448603949,
				"y": -2.781135572,
				"z": 0.9595559538,
				"element": "C" 
			},
			{
				"x": -2.5931943792,
				"y": -1.3618670709,
				"z": 1.1422037274,
				"element": "C" 
			},
			{
				"x": -1.0573164427,
				"y": -1.3097237642,
				"z": 1.0404790981,
				"element": "C" 
			},
			{
				"x": 1.5788277604,
				"y": 0.294258314,
				"z": 0.0582852753,
				"element": "C" 
			},
			{
				"x": 3.1034257188,
				"y": 0.4493655105,
				"z": -0.2050500523,
				"element": "C" 
			},
			{
				"x": 3.1844950933,
				"y": 1.0446492236,
				"z": -1.6098744179,
				"element": "C" 
			},
			{
				"x": 2.1081516011,
				"y": 2.147191438,
				"z": -1.56131778,
				"element": "C" 
			},
			{
				"x": 1.6539397865,
				"y": 2.5684361946,
				"z": -2.851314164,
				"element": "O" 
			},
			{
				"x": 2.6873945071,
				"y": 3.3189654829,
				"z": -0.8709193068,
				"element": "C" 
			},
			{
				"x": 3.2461360158,
				"y": 4.2830912184,
				"z": -0.4014444584,
				"element": "C" 
			},
			{
				"x": -1.5232411245,
				"y": 3.1726683264,
				"z": 1.2184732133,
				"element": "H" 
			},
			{
				"x": -1.0055469301,
				"y": 1.5390208575,
				"z": 1.6058992367,
				"element": "H" 
			},
			{
				"x": -1.8802639304,
				"y": 1.8500226918,
				"z": 0.1027380394,
				"element": "H" 
			},
			{
				"x": 0.9173717237,
				"y": 2.9091788645,
				"z": 0.8311660176,
				"element": "H" 
			},
			{
				"x": 0.0357663871,
				"y": 3.4076421441,
				"z": -0.5923755596,
				"element": "H" 
			},
			{
				"x": -0.6596189267,
				"y": 1.684601548,
				"z": -2.2849034288,
				"element": "H" 
			},
			{
				"x": 0.5175972449,
				"y": 0.4644186028,
				"z": -2.6524570494,
				"element": "H" 
			},
			{
				"x": -2.859914527,
				"y": -1.2164047339,
				"z": -1.7504295233,
				"element": "H" 
			},
			{
				"x": -2.5881829087,
				"y": 0.3724452291,
				"z": -2.6506529012,
				"element": "H" 
			},
			{
				"x": -0.6566727485,
				"y": -2.2636855435,
				"z": -0.8451830269,
				"element": "H" 
			},
			{
				"x": 1.4765168665,
				"y": -1.3119938874,
				"z": -1.3641957679,
				"element": "H" 
			},
			{
				"x": 2.7935607464,
				"y": -2.1436768011,
				"z": 0.6198501333,
				"element": "H" 
			},
			{
				"x": 1.538969831,
				"y": -3.2128679011,
				"z": 0.0220630315,
				"element": "H" 
			},
			{
				"x": 1.339427421,
				"y": -1.4559140728,
				"z": 2.519022597,
				"element": "H" 
			},
			{
				"x": 1.4862722695,
				"y": -3.2115971906,
				"z": 2.4742331782,
				"element": "H" 
			},
			{
				"x": -0.5839141835,
				"y": -4.2932920653,
				"z": 2.8010136964,
				"element": "H" 
			},
			{
				"x": -2.795989859,
				"y": -4.76063995,
				"z": 1.7961417984,
				"element": "H" 
			},
			{
				"x": -3.1268795629,
				"y": -3.5324943174,
				"z": 2.9977551665,
				"element": "H" 
			},
			{
				"x": -2.8553774665,
				"y": -3.169535027,
				"z": -0.0258678054,
				"element": "H" 
			},
			{
				"x": -4.2407562206,
				"y": -2.771565358,
				"z": 0.9827819673,
				"element": "H" 
			},
			{
				"x": -2.8746656002,
				"y": -1.008383558,
				"z": 2.1434573897,
				"element": "H" 
			},
			{
				"x": -3.0468198689,
				"y": -0.666879048,
				"z": 0.432184666,
				"element": "H" 
			},
			{
				"x": -0.7336458896,
				"y": -0.3877942398,
				"z": 1.5359539878,
				"element": "H" 
			},
			{
				"x": 1.3710037663,
				"y": 0.4469991779,
				"z": 1.1227858907,
				"element": "H" 
			},
			{
				"x": 3.5465181701,
				"y": 1.148838842,
				"z": 0.5121106876,
				"element": "H" 
			},
			{
				"x": 3.6534928729,
				"y": -0.490160731,
				"z": -0.1152491044,
				"element": "H" 
			},
			{
				"x": 2.8943186522,
				"y": 0.3129190724,
				"z": -2.3722158862,
				"element": "H" 
			},
			{
				"x": 4.1724549043,
				"y": 1.4343474716,
				"z": -1.8726696715,
				"element": "H" 
			},
			{
				"x": 2.3289424307,
				"y": 3.1561144152,
				"z": -3.2153041321,
				"element": "H" 
			},
			{
				"x": 3.712520945,
				"y": 5.1362887528,
				"z": 0.0344227012,
				"element": "H" 
			}
		],
		 "valence_orbital": [ 
			{
				"type": "occ",
				"energy": -0.27472,
				"method": "rhf"
			},
			{
				"type": "occ",
				"energy": -0.27142,
				"method": "rhf"
			},
			{
				"type": "occ",
				"energy": -0.2555,
				"method": "rhf"
			},
			{
				"type": "occ",
				"energy": -0.23279,
				"method": "rhf"
			},
			{
				"type": "occ",
				"energy": -0.21796,
				"method": "rhf"
			},
			{
				"type": "unocc",
				"energy": 0.01872,
				"method": "rhf"
			},
			{
				"type": "unocc",
				"energy": 0.03241,
				"method": "rhf"
			},
			{
				"type": "unocc",
				"energy": 0.03553,
				"method": "rhf"
			},
			{
				"type": "unocc",
				"energy": 0.04914,
				"method": "rhf"
			},
			{
				"type": "unocc",
				"energy": 0.07992,
				"method": "rhf"
			}
		],
		"cosmo_sigma_profile": { 
			"-0.025": 0.0,
			"-0.024": 0.0,
			"-0.023": 0.0,
			"-0.022": 0.0,
			"-0.021": 0.0,
			"-0.02": 0.0,
			"-0.019": 0.0,
			"-0.018": 0.0,
			"-0.017": 0.0,
			"-0.016": 0.0443781760229,
			"-0.015": 0.745609494064,
			"-0.014": 0.784437261128,
			"-0.013": 0.699195262785,
			"-0.012": 0.954112152286,
			"-0.011": 2.43447776678,
			"-0.01": 1.60748711619,
			"-0.009": 1.41395168789,
			"-0.008": 2.7141535437,
			"-0.007": 1.44017329715,
			"-0.006": 1.70556555161,
			"-0.005": 3.29878083369,
			"-0.004": 10.0229336652,
			"-0.003": 26.6382505067,
			"-0.002": 47.5303479109,
			"-0.001": 56.1997431352,
			"0.0": 59.6002325769,
			"0.001": 48.7469712783,
			"0.002": 25.8702896193,
			"0.003": 16.1493999085,
			"0.004": 14.6923577168,
			"0.005": 12.7474468323,
			"0.006": 9.15778449725,
			"0.007": 4.55811358342,
			"0.008": 1.68222847452,
			"0.009": 1.47745811334,
			"0.01": 1.12318366735,
			"0.011": 2.13201927974,
			"0.012": 0.800286469154,
			"0.013": 0.0,
			"0.014": 0.0,
			"0.015": 0.0,
			"0.016": 0.0,
			"0.017": 0.0,
			"0.018": 0.0,
			"0.019": 0.0,
			"0.02": 0.0,
			"0.021": 0.0,
			"0.022": 0.0,
			"0.023": 0.0,
			"0.024": 0.0,
			"0.025": 0.0
		}
	}
}
