{
	 "smiles": "FC1=CC2=C(NCCC(=O)N2)C=C1", 
	 "Tm": 421.15, 
	 "num_atms": 22, 
	 "gaussian": { 
		 "optdone": 1, 
		 "sigma_profile": "yes", 
		 "theory": "DFT", 
		 "functional": "B3LYP", 
		 "basiset": "6-31G**", 
		 "properties": { 
			 "R2extent": 3047.0175, 
			 "electric_dipole_moment_norm": 3.87578367559, 
			 "electric_quadrupole_moment_norm": 13.0794404682, 
			 "total_energy": -632.952719156, 
			 "HOMO_LUMO_gap": 0.18077, 
			 "cosmo_polarized_energy": -13.83, 
			 "cosmo_cavitation_energy": 25.58, 
			 "cosmo_dispersion_energy": -19.26, 
			 "cosmo_repulsion_energy": 1.48, 
			 "cosmo_total_nonelectrostatic_energy": 7.81, 
			 "SMD_solvation_energy": 4.13 
		},
		"coords": [
			{
				"x": -2.1197343336,
				"y": -3.3869103715,
				"z": 2.279780321,
				"element": "F" 
			},
			{
				"x": -1.9499328082,
				"y": -2.0861663315,
				"z": 1.955522012,
				"element": "C" 
			},
			{
				"x": -0.7682592378,
				"y": -1.6997284498,
				"z": 1.3465442366,
				"element": "C" 
			},
			{
				"x": -0.5495541183,
				"y": -0.3598634065,
				"z": 0.9828710758,
				"element": "C" 
			},
			{
				"x": -1.5485424544,
				"y": 0.5999745094,
				"z": 1.2749484785,
				"element": "C" 
			},
			{
				"x": -1.4280725509,
				"y": 1.9509795365,
				"z": 0.9167796381,
				"element": "N" 
			},
			{
				"x": -0.1558695219,
				"y": 2.6402362486,
				"z": 1.1146838763,
				"element": "C" 
			},
			{
				"x": 0.8073634871,
				"y": 2.3873548826,
				"z": -0.0411833105,
				"element": "C" 
			},
			{
				"x": 1.3576724686,
				"y": 0.9822287811,
				"z": -0.1848280126,
				"element": "C" 
			},
			{
				"x": 2.4247618671,
				"y": 0.7830361512,
				"z": -0.7519918086,
				"element": "O" 
			},
			{
				"x": 0.669013238,
				"y": -0.1093746858,
				"z": 0.3167631536,
				"element": "N" 
			},
			{
				"x": -2.726548072,
				"y": 0.1605033939,
				"z": 1.9016533279,
				"element": "C" 
			},
			{
				"x": -2.9533715195,
				"y": -1.170253892,
				"z": 2.2374692096,
				"element": "C" 
			},
			{
				"x": -0.0140335771,
				"y": -2.4527725705,
				"z": 1.1404698949,
				"element": "H" 
			},
			{
				"x": -2.21357665,
				"y": 2.4896679864,
				"z": 1.2565347191,
				"element": "H" 
			},
			{
				"x": -0.3693339214,
				"y": 3.7123319555,
				"z": 1.1533734214,
				"element": "H" 
			},
			{
				"x": 0.3151058197,
				"y": 2.3720692063,
				"z": 2.0736302047,
				"element": "H" 
			},
			{
				"x": 0.3055867125,
				"y": 2.6418260956,
				"z": -0.9819701873,
				"element": "H" 
			},
			{
				"x": 1.6863635481,
				"y": 3.0334966019,
				"z": 0.0390947396,
				"element": "H" 
			},
			{
				"x": 1.2075526874,
				"y": -0.9458675396,
				"z": 0.1229647066,
				"element": "H" 
			},
			{
				"x": -3.491244705,
				"y": 0.9000199954,
				"z": 2.1270911227,
				"element": "H" 
			},
			{
				"x": -3.8714463585,
				"y": -1.4896880973,
				"z": 2.7165991805,
				"element": "H" 
			}
		],
		 "valence_orbital": [ 
			{
				"type": "occ",
				"energy": -0.30984,
				"method": "rhf"
			},
			{
				"type": "occ",
				"energy": -0.29431,
				"method": "rhf"
			},
			{
				"type": "occ",
				"energy": -0.25476,
				"method": "rhf"
			},
			{
				"type": "occ",
				"energy": -0.23713,
				"method": "rhf"
			},
			{
				"type": "occ",
				"energy": -0.20006,
				"method": "rhf"
			},
			{
				"type": "unocc",
				"energy": -0.01929,
				"method": "rhf"
			},
			{
				"type": "unocc",
				"energy": 0.00093,
				"method": "rhf"
			},
			{
				"type": "unocc",
				"energy": 0.04109,
				"method": "rhf"
			},
			{
				"type": "unocc",
				"energy": 0.06146,
				"method": "rhf"
			},
			{
				"type": "unocc",
				"energy": 0.08086,
				"method": "rhf"
			}
		],
		"cosmo_sigma_profile": { 
			"-0.025": 0.0,
			"-0.024": 0.0,
			"-0.023": 0.0,
			"-0.022": 0.0,
			"-0.021": 0.0,
			"-0.02": 0.0,
			"-0.019": 0.0,
			"-0.018": 0.0,
			"-0.017": 0.0,
			"-0.016": 0.0,
			"-0.015": 0.235708865735,
			"-0.014": 0.953789508233,
			"-0.013": 1.85842119683,
			"-0.012": 2.72887012753,
			"-0.011": 2.72799930205,
			"-0.01": 2.18999375992,
			"-0.009": 3.09287177142,
			"-0.008": 3.80652278906,
			"-0.007": 4.86564424999,
			"-0.006": 9.24977345828,
			"-0.005": 12.9797408211,
			"-0.004": 17.5914444045,
			"-0.003": 13.5479042949,
			"-0.002": 13.6893570723,
			"-0.001": 8.42292055175,
			"0.0": 8.25674366416,
			"0.001": 12.6260422993,
			"0.002": 14.7817669595,
			"0.003": 13.5003477838,
			"0.004": 18.4511743743,
			"0.005": 14.1164816977,
			"0.006": 1.51154000892,
			"0.007": 3.09963849373,
			"0.008": 1.90654390849,
			"0.009": 1.37447761169,
			"0.01": 1.44102383425,
			"0.011": 2.06625547894,
			"0.012": 2.47056477919,
			"0.013": 5.29658890782,
			"0.014": 3.78217669462,
			"0.015": 0.524308978809,
			"0.016": 0.0,
			"0.017": 0.0,
			"0.018": 0.0,
			"0.019": 0.0,
			"0.02": 0.0,
			"0.021": 0.0,
			"0.022": 0.0,
			"0.023": 0.0,
			"0.024": 0.0,
			"0.025": 0.0
		}
	}
}
