{
	 "smiles": "OC(=O)CN1C(=O)OC2=C1C=CC=C2", 
	 "Tm": 452.15, 
	 "num_atms": 21, 
	 "gaussian": { 
		 "optdone": 1, 
		 "sigma_profile": "yes", 
		 "theory": "DFT", 
		 "functional": "B3LYP", 
		 "basiset": "6-31G**", 
		 "properties": { 
			 "R2extent": 2804.1317, 
			 "electric_dipole_moment_norm": 4.35712912019, 
			 "electric_quadrupole_moment_norm": 17.610074357, 
			 "total_energy": -702.852258685, 
			 "HOMO_LUMO_gap": 0.2091, 
			 "cosmo_polarized_energy": -16.54, 
			 "cosmo_cavitation_energy": 26.58, 
			 "cosmo_dispersion_energy": -19.15, 
			 "cosmo_repulsion_energy": 1.51, 
			 "cosmo_total_nonelectrostatic_energy": 8.95, 
			 "SMD_solvation_energy": 7.06 
		},
		"coords": [
			{
				"x": -2.6581839305,
				"y": -0.742485391,
				"z": 3.3087902827,
				"element": "O" 
			},
			{
				"x": -1.5665828563,
				"y": -0.7466291853,
				"z": 2.5126088555,
				"element": "C" 
			},
			{
				"x": -0.4597413341,
				"y": -0.4362081878,
				"z": 2.8781819079,
				"element": "O" 
			},
			{
				"x": -1.9501607298,
				"y": -1.1982441899,
				"z": 1.1063453654,
				"element": "C" 
			},
			{
				"x": -0.8440301766,
				"y": -1.1611119218,
				"z": 0.1895973129,
				"element": "N" 
			},
			{
				"x": -0.1675052391,
				"y": -2.3135254317,
				"z": -0.1913533731,
				"element": "C" 
			},
			{
				"x": -0.4100820436,
				"y": -3.4549024266,
				"z": 0.1116478556,
				"element": "O" 
			},
			{
				"x": 0.8643798084,
				"y": -1.9248518325,
				"z": -1.02865381,
				"element": "O" 
			},
			{
				"x": 0.8301287158,
				"y": -0.5500655776,
				"z": -1.1394311275,
				"element": "C" 
			},
			{
				"x": -0.2255862848,
				"y": -0.0450006634,
				"z": -0.3751112006,
				"element": "C" 
			},
			{
				"x": -0.4776996708,
				"y": 1.3188668727,
				"z": -0.3161890995,
				"element": "C" 
			},
			{
				"x": 0.3697867044,
				"y": 2.1546758492,
				"z": -1.0574927509,
				"element": "C" 
			},
			{
				"x": 1.4220631623,
				"y": 1.6388988966,
				"z": -1.8202780326,
				"element": "C" 
			},
			{
				"x": 1.673976687,
				"y": 0.2593242973,
				"z": -1.8736531903,
				"element": "C" 
			},
			{
				"x": -2.358430384,
				"y": -0.468516037,
				"z": 4.1919898172,
				"element": "H" 
			},
			{
				"x": -2.3038523839,
				"y": -2.2324404467,
				"z": 1.1560022188,
				"element": "H" 
			},
			{
				"x": -2.7799981643,
				"y": -0.5805244559,
				"z": 0.7453832921,
				"element": "H" 
			},
			{
				"x": -1.2853419698,
				"y": 1.7263251746,
				"z": 0.2823011892,
				"element": "H" 
			},
			{
				"x": 0.2041170225,
				"y": 3.2271133383,
				"z": -1.0330059349,
				"element": "H" 
			},
			{
				"x": 2.0596832943,
				"y": 2.3152980349,
				"z": -2.3802492768,
				"element": "H" 
			},
			{
				"x": 2.4863597729,
				"y": -0.1578967165,
				"z": -2.4576303008,
				"element": "H" 
			}
		],
		 "valence_orbital": [ 
			{
				"type": "occ",
				"energy": -0.3185,
				"method": "rhf"
			},
			{
				"type": "occ",
				"energy": -0.29735,
				"method": "rhf"
			},
			{
				"type": "occ",
				"energy": -0.2939,
				"method": "rhf"
			},
			{
				"type": "occ",
				"energy": -0.25563,
				"method": "rhf"
			},
			{
				"type": "occ",
				"energy": -0.22492,
				"method": "rhf"
			},
			{
				"type": "unocc",
				"energy": -0.01582,
				"method": "rhf"
			},
			{
				"type": "unocc",
				"energy": -0.00929,
				"method": "rhf"
			},
			{
				"type": "unocc",
				"energy": 0.00103,
				"method": "rhf"
			},
			{
				"type": "unocc",
				"energy": 0.04176,
				"method": "rhf"
			},
			{
				"type": "unocc",
				"energy": 0.06198,
				"method": "rhf"
			}
		],
		"cosmo_sigma_profile": { 
			"-0.025": 0.0,
			"-0.024": 0.0,
			"-0.023": 0.0,
			"-0.022": 0.0,
			"-0.021": 0.0,
			"-0.02": 0.00727545397989,
			"-0.019": 0.553478741823,
			"-0.018": 0.939496707211,
			"-0.017": 1.02786211696,
			"-0.016": 0.529713542321,
			"-0.015": 1.32894937621,
			"-0.014": 0.497297340764,
			"-0.013": 0.421993750808,
			"-0.012": 0.78208892865,
			"-0.011": 1.01659852766,
			"-0.01": 1.6738044568,
			"-0.009": 5.05440656693,
			"-0.008": 6.66376499154,
			"-0.007": 8.57964351426,
			"-0.006": 13.2555858583,
			"-0.005": 13.2307569439,
			"-0.004": 13.6048096943,
			"-0.003": 12.3741280293,
			"-0.002": 10.0500308387,
			"-0.001": 10.372909262,
			"0.0": 11.6363997151,
			"0.001": 11.4916763943,
			"0.002": 12.1147567952,
			"0.003": 12.6629343612,
			"0.004": 12.8802765143,
			"0.005": 8.09940261545,
			"0.006": 5.91761481429,
			"0.007": 6.66300122892,
			"0.008": 6.58327478156,
			"0.009": 3.94718734503,
			"0.01": 5.35505703424,
			"0.011": 9.30688437634,
			"0.012": 4.1454827265,
			"0.013": 0.43365239108,
			"0.014": 0.0,
			"0.015": 0.0,
			"0.016": 0.0,
			"0.017": 0.0,
			"0.018": 0.0,
			"0.019": 0.0,
			"0.02": 0.0,
			"0.021": 0.0,
			"0.022": 0.0,
			"0.023": 0.0,
			"0.024": 0.0,
			"0.025": 0.0
		}
	}
}
