{
	 "smiles": "NC1=CC=CC=C1", 
	 "Tm": 267.0, 
	 "num_atms": 14, 
	 "gaussian": { 
		 "optdone": 1, 
		 "sigma_profile": "yes", 
		 "theory": "DFT", 
		 "functional": "B3LYP", 
		 "basiset": "6-31G**", 
		 "properties": { 
			 "R2extent": 736.3065, 
			 "electric_dipole_moment_norm": 1.71096049633, 
			 "electric_quadrupole_moment_norm": 6.20679559435, 
			 "total_energy": -287.610357316, 
			 "HOMO_LUMO_gap": 0.20664, 
			 "cosmo_polarized_energy": -7.57, 
			 "cosmo_cavitation_energy": 17.34, 
			 "cosmo_dispersion_energy": -13.22, 
			 "cosmo_repulsion_energy": 1.12, 
			 "cosmo_total_nonelectrostatic_energy": 5.24, 
			 "SMD_solvation_energy": 3.01 
		},
		"coords": [
			{
				"x": -0.1319758833,
				"y": 1.5139973605,
				"z": 1.1960999333,
				"element": "N" 
			},
			{
				"x": -0.1370384167,
				"y": 0.2962150238,
				"z": 0.5085659019,
				"element": "C" 
			},
			{
				"x": 0.9785320095,
				"y": -0.1060372062,
				"z": -0.2462398368,
				"element": "C" 
			},
			{
				"x": 0.9468711584,
				"y": -1.2918443013,
				"z": -0.9767079179,
				"element": "C" 
			},
			{
				"x": -0.1895631038,
				"y": -2.1036740321,
				"z": -0.9735381833,
				"element": "C" 
			},
			{
				"x": -1.2998364545,
				"y": -1.7069992007,
				"z": -0.2248655916,
				"element": "C" 
			},
			{
				"x": -1.2792015567,
				"y": -0.5232337588,
				"z": 0.5093005409,
				"element": "C" 
			},
			{
				"x": 0.7853066958,
				"y": 1.8542232414,
				"z": 1.4512920305,
				"element": "H" 
			},
			{
				"x": -0.77601281,
				"y": 1.5657404542,
				"z": 1.9738044721,
				"element": "H" 
			},
			{
				"x": 1.8679184848,
				"y": 0.5197933207,
				"z": -0.2594432482,
				"element": "H" 
			},
			{
				"x": 1.8219491144,
				"y": -1.5836135921,
				"z": -1.5514329798,
				"element": "H" 
			},
			{
				"x": -0.2094710867,
				"y": -3.0273885641,
				"z": -1.5431122748,
				"element": "H" 
			},
			{
				"x": -2.1932967051,
				"y": -2.3255712394,
				"z": -0.2077318239,
				"element": "H" 
			},
			{
				"x": -2.1512814461,
				"y": -0.2229075059,
				"z": 1.0856089776,
				"element": "H" 
			}
		],
		 "valence_orbital": [ 
			{
				"type": "occ",
				"energy": -0.34881,
				"method": "rhf"
			},
			{
				"type": "occ",
				"energy": -0.33241,
				"method": "rhf"
			},
			{
				"type": "occ",
				"energy": -0.3022,
				"method": "rhf"
			},
			{
				"type": "occ",
				"energy": -0.24078,
				"method": "rhf"
			},
			{
				"type": "occ",
				"energy": -0.19807,
				"method": "rhf"
			},
			{
				"type": "unocc",
				"energy": 0.00857,
				"method": "rhf"
			},
			{
				"type": "unocc",
				"energy": 0.02351,
				"method": "rhf"
			},
			{
				"type": "unocc",
				"energy": 0.08379,
				"method": "rhf"
			},
			{
				"type": "unocc",
				"energy": 0.10431,
				"method": "rhf"
			},
			{
				"type": "unocc",
				"energy": 0.12509,
				"method": "rhf"
			}
		],
		"cosmo_sigma_profile": { 
			"-0.025": 0.0,
			"-0.024": 0.0,
			"-0.023": 0.0,
			"-0.022": 0.0,
			"-0.021": 0.0,
			"-0.02": 0.0,
			"-0.019": 0.0,
			"-0.018": 0.0,
			"-0.017": 0.0,
			"-0.016": 0.0,
			"-0.015": 0.0,
			"-0.014": 0.0,
			"-0.013": 0.00940502143764,
			"-0.012": 2.05851831522,
			"-0.011": 2.36974642728,
			"-0.01": 2.82279184429,
			"-0.009": 3.39460585305,
			"-0.008": 3.29589979505,
			"-0.007": 3.12284780665,
			"-0.006": 3.76434786125,
			"-0.005": 7.83118148729,
			"-0.004": 11.2043264874,
			"-0.003": 10.9397630224,
			"-0.002": 9.57907651114,
			"-0.001": 7.71829982699,
			"0.0": 6.52023046753,
			"0.001": 6.17245131732,
			"0.002": 6.52005502163,
			"0.003": 7.43842035483,
			"0.004": 6.81527847605,
			"0.005": 8.13090449361,
			"0.006": 9.72254523972,
			"0.007": 9.15702240317,
			"0.008": 3.87330211283,
			"0.009": 1.19041687877,
			"0.01": 0.808772382988,
			"0.011": 0.670594752835,
			"0.012": 0.831234550076,
			"0.013": 0.248247444912,
			"0.014": 0.871171174302,
			"0.015": 0.491126852995,
			"0.016": 0.0,
			"0.017": 0.0,
			"0.018": 0.0,
			"0.019": 0.0,
			"0.02": 0.0,
			"0.021": 0.0,
			"0.022": 0.0,
			"0.023": 0.0,
			"0.024": 0.0,
			"0.025": 0.0
		}
	}
}
