{
	 "smiles": "CC1=NC(C)=NC=C1", 
	 "Tm": 269.15, 
	 "num_atms": 16, 
	 "gaussian": { 
		 "optdone": 1, 
		 "sigma_profile": "yes", 
		 "theory": "DFT", 
		 "functional": "B3LYP", 
		 "basiset": "6-31G**", 
		 "properties": { 
			 "R2extent": 1245.3332, 
			 "electric_dipole_moment_norm": 1.94945127921, 
			 "electric_quadrupole_moment_norm": 5.98148220594, 
			 "total_energy": -342.972680193, 
			 "HOMO_LUMO_gap": 0.21202, 
			 "cosmo_polarized_energy": -6.73, 
			 "cosmo_cavitation_energy": 19.62, 
			 "cosmo_dispersion_energy": -14.72, 
			 "cosmo_repulsion_energy": 1.24, 
			 "cosmo_total_nonelectrostatic_energy": 6.14, 
			 "SMD_solvation_energy": 1.01 
		},
		"coords": [
			{
				"x": -1.8336226023,
				"y": 0.4671159567,
				"z": 0.8867194989,
				"element": "C" 
			},
			{
				"x": -0.5547865435,
				"y": 1.0142952788,
				"z": 0.3074057937,
				"element": "C" 
			},
			{
				"x": 0.3324120033,
				"y": 0.1323368263,
				"z": -0.1701807807,
				"element": "N" 
			},
			{
				"x": 1.4766256981,
				"y": 0.6163958947,
				"z": -0.687487438,
				"element": "C" 
			},
			{
				"x": 2.4576991495,
				"y": -0.3949063387,
				"z": -1.217556178,
				"element": "C" 
			},
			{
				"x": 1.813565492,
				"y": 1.9109887318,
				"z": -0.7699000326,
				"element": "N" 
			},
			{
				"x": 0.9171220282,
				"y": 2.7840391206,
				"z": -0.2886166079,
				"element": "C" 
			},
			{
				"x": -0.2927513722,
				"y": 2.3912260411,
				"z": 0.2656382133,
				"element": "C" 
			},
			{
				"x": -1.9366612156,
				"y": 0.7468561677,
				"z": 1.9412959051,
				"element": "H" 
			},
			{
				"x": -1.8393229181,
				"y": -0.6207774406,
				"z": 0.8068873898,
				"element": "H" 
			},
			{
				"x": -2.7064031495,
				"y": 0.8684242122,
				"z": 0.3595454998,
				"element": "H" 
			},
			{
				"x": 3.3418169832,
				"y": 0.1062690759,
				"z": -1.6127667582,
				"element": "H" 
			},
			{
				"x": 1.9938370951,
				"y": -0.9957131825,
				"z": -2.0066310114,
				"element": "H" 
			},
			{
				"x": 2.7542680306,
				"y": -1.0877630868,
				"z": -0.4232817356,
				"element": "H" 
			},
			{
				"x": 1.1871280153,
				"y": 3.8372376988,
				"z": -0.3538841519,
				"element": "H" 
			},
			{
				"x": -1.0031266942,
				"y": 3.1166750441,
				"z": 0.6489123936,
				"element": "H" 
			}
		],
		 "valence_orbital": [ 
			{
				"type": "occ",
				"energy": -0.37589,
				"method": "rhf"
			},
			{
				"type": "occ",
				"energy": -0.30149,
				"method": "rhf"
			},
			{
				"type": "occ",
				"energy": -0.29339,
				"method": "rhf"
			},
			{
				"type": "occ",
				"energy": -0.26663,
				"method": "rhf"
			},
			{
				"type": "occ",
				"energy": -0.24138,
				"method": "rhf"
			},
			{
				"type": "unocc",
				"energy": -0.02936,
				"method": "rhf"
			},
			{
				"type": "unocc",
				"energy": -0.0199,
				"method": "rhf"
			},
			{
				"type": "unocc",
				"energy": 0.10863,
				"method": "rhf"
			},
			{
				"type": "unocc",
				"energy": 0.11908,
				"method": "rhf"
			},
			{
				"type": "unocc",
				"energy": 0.12423,
				"method": "rhf"
			}
		],
		"cosmo_sigma_profile": { 
			"-0.025": 0.0,
			"-0.024": 0.0,
			"-0.023": 0.0,
			"-0.022": 0.0,
			"-0.021": 0.0,
			"-0.02": 0.0,
			"-0.019": 0.0,
			"-0.018": 0.0,
			"-0.017": 0.0,
			"-0.016": 0.0,
			"-0.015": 0.0,
			"-0.014": 0.0,
			"-0.013": 0.0,
			"-0.012": 0.0,
			"-0.011": 0.0,
			"-0.01": 0.0,
			"-0.009": 0.0,
			"-0.008": 0.181309204161,
			"-0.007": 3.80470867465,
			"-0.006": 5.59826949474,
			"-0.005": 11.5777433242,
			"-0.004": 14.9726137022,
			"-0.003": 14.5010646177,
			"-0.002": 13.4652075662,
			"-0.001": 20.5251177541,
			"0.0": 20.2157687298,
			"0.001": 12.8124026554,
			"0.002": 7.28918368618,
			"0.003": 4.04204700456,
			"0.004": 3.95475315794,
			"0.005": 2.78252273101,
			"0.006": 3.07943402271,
			"0.007": 2.9510392056,
			"0.008": 1.94309081986,
			"0.009": 2.01750730959,
			"0.01": 1.98522469407,
			"0.011": 1.59711301791,
			"0.012": 1.36287988437,
			"0.013": 1.53301546628,
			"0.014": 1.9791119021,
			"0.015": 1.20241394782,
			"0.016": 0.534940794816,
			"0.017": 0.0,
			"0.018": 0.0,
			"0.019": 0.0,
			"0.02": 0.0,
			"0.021": 0.0,
			"0.022": 0.0,
			"0.023": 0.0,
			"0.024": 0.0,
			"0.025": 0.0
		}
	}
}
