{
	 "smiles": "CC(NS(=O)(=O)C1=CN(C)N=C1)C(O)=O", 
	 "Tm": 443.15, 
	 "num_atms": 26, 
	 "gaussian": { 
		 "optdone": 1, 
		 "sigma_profile": "yes", 
		 "theory": "DFT", 
		 "functional": "B3LYP", 
		 "basiset": "6-31G**", 
		 "properties": { 
			 "R2extent": 4695.2533, 
			 "electric_dipole_moment_norm": 6.06143267636, 
			 "electric_quadrupole_moment_norm": 19.8914881143, 
			 "total_energy": -1136.62163698, 
			 "HOMO_LUMO_gap": 0.24359, 
			 "cosmo_polarized_energy": -24.36, 
			 "cosmo_cavitation_energy": 31.84, 
			 "cosmo_dispersion_energy": -22.6, 
			 "cosmo_repulsion_energy": 1.74, 
			 "cosmo_total_nonelectrostatic_energy": 10.98, 
			 "SMD_solvation_energy": 5.41 
		},
		"coords": [
			{
				"x": 0.4789538198,
				"y": -2.829157617,
				"z": -0.0134737727,
				"element": "C" 
			},
			{
				"x": -0.9990028928,
				"y": -3.2123110991,
				"z": -0.1761061513,
				"element": "C" 
			},
			{
				"x": -1.9060243907,
				"y": -2.037928938,
				"z": -0.2293215838,
				"element": "N" 
			},
			{
				"x": -1.8953400081,
				"y": -0.8480030622,
				"z": 1.0190332557,
				"element": "S" 
			},
			{
				"x": -3.2793771495,
				"y": -0.3673062234,
				"z": 1.0182078258,
				"element": "O" 
			},
			{
				"x": -1.2618865033,
				"y": -1.3866188112,
				"z": 2.2246071749,
				"element": "O" 
			},
			{
				"x": -0.8588957074,
				"y": 0.4231611644,
				"z": 0.4004038723,
				"element": "C" 
			},
			{
				"x": -1.2053854548,
				"y": 1.3860283948,
				"z": -0.5373962933,
				"element": "C" 
			},
			{
				"x": -0.1286751901,
				"y": 2.1901953842,
				"z": -0.6589536407,
				"element": "N" 
			},
			{
				"x": 0.0247397488,
				"y": 3.3601714846,
				"z": -1.5095267634,
				"element": "C" 
			},
			{
				"x": 0.8980465707,
				"y": 1.8197361913,
				"z": 0.1464000967,
				"element": "N" 
			},
			{
				"x": 0.4589838837,
				"y": 0.7484192524,
				"z": 0.7965859894,
				"element": "C" 
			},
			{
				"x": -1.1478751958,
				"y": -3.9774965249,
				"z": -1.5062927855,
				"element": "C" 
			},
			{
				"x": -1.5281792744,
				"y": -3.2250465818,
				"z": -2.5589422001,
				"element": "O" 
			},
			{
				"x": -0.8913144809,
				"y": -5.1505343774,
				"z": -1.6072243557,
				"element": "O" 
			},
			{
				"x": 1.0809479687,
				"y": -3.7354910957,
				"z": -0.1104921897,
				"element": "H" 
			},
			{
				"x": 0.7894878081,
				"y": -2.1198602939,
				"z": -0.7864140491,
				"element": "H" 
			},
			{
				"x": 0.6605408477,
				"y": -2.396487332,
				"z": 0.9708295583,
				"element": "H" 
			},
			{
				"x": -1.2799470317,
				"y": -3.9043448223,
				"z": 0.6239611385,
				"element": "H" 
			},
			{
				"x": -2.8834566137,
				"y": -2.3327773833,
				"z": -0.25195134,
				"element": "H" 
			},
			{
				"x": -2.1218223857,
				"y": 1.5455909265,
				"z": -1.0853397747,
				"element": "H" 
			},
			{
				"x": 0.2357544936,
				"y": 4.2370978855,
				"z": -0.8938311436,
				"element": "H" 
			},
			{
				"x": -0.9001970784,
				"y": 3.5171654297,
				"z": -2.0656578491,
				"element": "H" 
			},
			{
				"x": 0.8505670312,
				"y": 3.2046502779,
				"z": -2.2073330418,
				"element": "H" 
			},
			{
				"x": 1.0784871815,
				"y": 0.2500541342,
				"z": 1.5280423794,
				"element": "H" 
			},
			{
				"x": -1.6881299963,
				"y": -2.321806363,
				"z": -2.2234143566,
				"element": "H" 
			}
		],
		 "valence_orbital": [ 
			{
				"type": "occ",
				"energy": -0.31231,
				"method": "rhf"
			},
			{
				"type": "occ",
				"energy": -0.31093,
				"method": "rhf"
			},
			{
				"type": "occ",
				"energy": -0.28909,
				"method": "rhf"
			},
			{
				"type": "occ",
				"energy": -0.27841,
				"method": "rhf"
			},
			{
				"type": "occ",
				"energy": -0.27085,
				"method": "rhf"
			},
			{
				"type": "unocc",
				"energy": -0.02726,
				"method": "rhf"
			},
			{
				"type": "unocc",
				"energy": -0.00686,
				"method": "rhf"
			},
			{
				"type": "unocc",
				"energy": 0.00841,
				"method": "rhf"
			},
			{
				"type": "unocc",
				"energy": 0.04476,
				"method": "rhf"
			},
			{
				"type": "unocc",
				"energy": 0.05957,
				"method": "rhf"
			}
		],
		"cosmo_sigma_profile": { 
			"-0.025": 0.0,
			"-0.024": 0.0,
			"-0.023": 0.0,
			"-0.022": 0.0,
			"-0.021": 0.0,
			"-0.02": 0.0,
			"-0.019": 0.0,
			"-0.018": 0.0,
			"-0.017": 0.0,
			"-0.016": 1.02002038901,
			"-0.015": 1.4563169082,
			"-0.014": 1.38437940349,
			"-0.013": 1.74617554063,
			"-0.012": 2.35395625037,
			"-0.011": 4.81669602086,
			"-0.01": 4.78777907255,
			"-0.009": 4.28260308652,
			"-0.008": 7.92028971157,
			"-0.007": 11.2502377193,
			"-0.006": 12.9105260912,
			"-0.005": 16.4029074386,
			"-0.004": 20.511859212,
			"-0.003": 16.0366579088,
			"-0.002": 15.5130240623,
			"-0.001": 15.3362158099,
			"0.0": 13.0932594857,
			"0.001": 10.7530562274,
			"0.002": 5.75504312473,
			"0.003": 6.66742313534,
			"0.004": 7.26068429472,
			"0.005": 5.48757722336,
			"0.006": 5.17291976985,
			"0.007": 7.56774317377,
			"0.008": 7.36131907243,
			"0.009": 8.80642728591,
			"0.01": 15.6074362682,
			"0.011": 11.9403660888,
			"0.012": 6.50045296167,
			"0.013": 1.97673744569,
			"0.014": 0.714290400534,
			"0.015": 0.14150856544,
			"0.016": 0.0,
			"0.017": 0.0,
			"0.018": 0.0,
			"0.019": 0.0,
			"0.02": 0.0,
			"0.021": 0.0,
			"0.022": 0.0,
			"0.023": 0.0,
			"0.024": 0.0,
			"0.025": 0.0
		}
	}
}
