{
	 "smiles": "OCC(O)C(O)C1=CC=C(C=C1)[N+]([O-])=O", 
	 "Tm": 368.15, 
	 "num_atms": 26, 
	 "gaussian": { 
		 "optdone": 1, 
		 "sigma_profile": "yes", 
		 "theory": "DFT", 
		 "functional": "B3LYP", 
		 "basiset": "6-31G**", 
		 "properties": { 
			 "R2extent": 4501.7313, 
			 "electric_dipole_moment_norm": 5.39042426067, 
			 "electric_quadrupole_moment_norm": 20.5428888733, 
			 "total_energy": -780.335844311, 
			 "HOMO_LUMO_gap": 0.18313, 
			 "cosmo_polarized_energy": -17.77, 
			 "cosmo_cavitation_energy": 30.44, 
			 "cosmo_dispersion_energy": -22.04, 
			 "cosmo_repulsion_energy": 1.74, 
			 "cosmo_total_nonelectrostatic_energy": 10.14, 
			 "SMD_solvation_energy": 7.47 
		},
		"coords": [
			{
				"x": 3.6570826583,
				"y": -2.8626748578,
				"z": -2.1009657552,
				"element": "O" 
			},
			{
				"x": 2.7168942117,
				"y": -3.0331760912,
				"z": -1.035593734,
				"element": "C" 
			},
			{
				"x": 1.8795486478,
				"y": -1.7564332798,
				"z": -0.8878653165,
				"element": "C" 
			},
			{
				"x": 2.7404729376,
				"y": -0.6347435148,
				"z": -0.8495099072,
				"element": "O" 
			},
			{
				"x": 1.0458566519,
				"y": -1.7533322253,
				"z": 0.4050020589,
				"element": "C" 
			},
			{
				"x": 0.279826001,
				"y": -2.9533428995,
				"z": 0.3752099522,
				"element": "O" 
			},
			{
				"x": 0.1784753939,
				"y": -0.5100790165,
				"z": 0.5263466508,
				"element": "C" 
			},
			{
				"x": 0.7210963859,
				"y": 0.6876707009,
				"z": 1.0147135282,
				"element": "C" 
			},
			{
				"x": -0.062387475,
				"y": 1.8320191101,
				"z": 1.1167637194,
				"element": "C" 
			},
			{
				"x": -1.3999281006,
				"y": 1.7652239721,
				"z": 0.726810362,
				"element": "C" 
			},
			{
				"x": -1.9662661634,
				"y": 0.5916926016,
				"z": 0.2348824311,
				"element": "C" 
			},
			{
				"x": -1.1670060042,
				"y": -0.5445071249,
				"z": 0.136180262,
				"element": "C" 
			},
			{
				"x": -2.237685953,
				"y": 2.9683357208,
				"z": 0.8401521293,
				"element": "N" 
			},
			{
				"x": -1.7134336001,
				"y": 3.9911490496,
				"z": 1.2809139944,
				"element": "O" 
			},
			{
				"x": -3.4142287298,
				"y": 2.8814961196,
				"z": 0.4877748441,
				"element": "O" 
			},
			{
				"x": 3.1825892805,
				"y": -2.962174192,
				"z": -2.9372986376,
				"element": "H" 
			},
			{
				"x": 3.3170973884,
				"y": -3.1855310452,
				"z": -0.132616604,
				"element": "H" 
			},
			{
				"x": 2.0791942896,
				"y": -3.9104578451,
				"z": -1.1821561063,
				"element": "H" 
			},
			{
				"x": 1.1816363533,
				"y": -1.6880730777,
				"z": -1.7423034749,
				"element": "H" 
			},
			{
				"x": 3.4659724619,
				"y": -0.8550263243,
				"z": -1.4562445304,
				"element": "H" 
			},
			{
				"x": 1.7615678845,
				"y": -1.7660643777,
				"z": 1.2420496967,
				"element": "H" 
			},
			{
				"x": -0.2197067594,
				"y": -3.0107332221,
				"z": 1.200163911,
				"element": "H" 
			},
			{
				"x": 1.7669042642,
				"y": 0.7222365758,
				"z": 1.3005602587,
				"element": "H" 
			},
			{
				"x": 0.3365327898,
				"y": 2.7661442249,
				"z": 1.4916641929,
				"element": "H" 
			},
			{
				"x": -3.0084535727,
				"y": 0.5855197126,
				"z": -0.058906572,
				"element": "H" 
			},
			{
				"x": -1.5830512422,
				"y": -1.4711386939,
				"z": -0.2446273536,
				"element": "H" 
			}
		],
		 "valence_orbital": [ 
			{
				"type": "occ",
				"energy": -0.2946,
				"method": "rhf"
			},
			{
				"type": "occ",
				"energy": -0.28614,
				"method": "rhf"
			},
			{
				"type": "occ",
				"energy": -0.27581,
				"method": "rhf"
			},
			{
				"type": "occ",
				"energy": -0.27132,
				"method": "rhf"
			},
			{
				"type": "occ",
				"energy": -0.26829,
				"method": "rhf"
			},
			{
				"type": "unocc",
				"energy": -0.08516,
				"method": "rhf"
			},
			{
				"type": "unocc",
				"energy": -0.02371,
				"method": "rhf"
			},
			{
				"type": "unocc",
				"energy": 0.00134,
				"method": "rhf"
			},
			{
				"type": "unocc",
				"energy": 0.04845,
				"method": "rhf"
			},
			{
				"type": "unocc",
				"energy": 0.0647,
				"method": "rhf"
			}
		],
		"cosmo_sigma_profile": { 
			"-0.025": 0.0,
			"-0.024": 0.0,
			"-0.023": 0.0,
			"-0.022": 0.0,
			"-0.021": 0.0,
			"-0.02": 0.0,
			"-0.019": 0.0,
			"-0.018": 0.0,
			"-0.017": 0.244626530987,
			"-0.016": 1.69158984054,
			"-0.015": 2.40596287586,
			"-0.014": 2.04417833669,
			"-0.013": 1.72030972016,
			"-0.012": 2.07252212766,
			"-0.011": 1.83708498808,
			"-0.01": 2.10399335178,
			"-0.009": 2.89990811394,
			"-0.008": 3.52292980262,
			"-0.007": 6.45370661957,
			"-0.006": 11.1319425855,
			"-0.005": 18.9890188186,
			"-0.004": 15.7368021584,
			"-0.003": 14.2606309658,
			"-0.002": 14.7372107095,
			"-0.001": 15.8218244927,
			"0.0": 15.0453826104,
			"0.001": 14.829371176,
			"0.002": 15.4918811656,
			"0.003": 9.02053181295,
			"0.004": 6.47065153173,
			"0.005": 7.16684513874,
			"0.006": 6.79586286824,
			"0.007": 11.0894649233,
			"0.008": 12.4507916109,
			"0.009": 8.18516546049,
			"0.01": 7.15941912155,
			"0.011": 3.61329299996,
			"0.012": 2.65547047888,
			"0.013": 1.69765820061,
			"0.014": 0.408753872438,
			"0.015": 0.0,
			"0.016": 0.0,
			"0.017": 0.0,
			"0.018": 0.0,
			"0.019": 0.0,
			"0.02": 0.0,
			"0.021": 0.0,
			"0.022": 0.0,
			"0.023": 0.0,
			"0.024": 0.0,
			"0.025": 0.0
		}
	}
}
