{
	 "smiles": "CC1C(=O)NC2=C1C=C(C=C2)S(Cl)(=O)=O", 
	 "Tm": 439.15, 
	 "num_atms": 23, 
	 "gaussian": { 
		 "optdone": 1, 
		 "sigma_profile": "yes", 
		 "theory": "DFT", 
		 "functional": "B3LYP", 
		 "basiset": "6-31G**", 
		 "properties": { 
			 "R2extent": 6325.1753, 
			 "electric_dipole_moment_norm": 4.31331880227, 
			 "electric_quadrupole_moment_norm": 31.9404962083, 
			 "total_energy": -1486.54167798, 
			 "HOMO_LUMO_gap": 0.16492, 
			 "cosmo_polarized_energy": -17.47, 
			 "cosmo_cavitation_energy": 30.95, 
			 "cosmo_dispersion_energy": -22.81, 
			 "cosmo_repulsion_energy": 1.76, 
			 "cosmo_total_nonelectrostatic_energy": 9.89, 
			 "SMD_solvation_energy": 4.41 
		},
		"coords": [
			{
				"x": 2.4982151862,
				"y": 0.1143762018,
				"z": 2.3121179874,
				"element": "C" 
			},
			{
				"x": 2.4153513724,
				"y": -0.0732154857,
				"z": 0.7891439284,
				"element": "C" 
			},
			{
				"x": 2.0927901454,
				"y": -1.5343349013,
				"z": 0.4146402302,
				"element": "C" 
			},
			{
				"x": 2.662909807,
				"y": -2.5394485019,
				"z": 0.7789968261,
				"element": "O" 
			},
			{
				"x": 0.9881588835,
				"y": -1.4968478992,
				"z": -0.4371053137,
				"element": "N" 
			},
			{
				"x": 0.5153295822,
				"y": -0.2063928753,
				"z": -0.6371232191,
				"element": "C" 
			},
			{
				"x": 1.3293582318,
				"y": 0.7005167224,
				"z": 0.0765340638,
				"element": "C" 
			},
			{
				"x": 1.0489579255,
				"y": 2.0526146066,
				"z": 0.0367156971,
				"element": "C" 
			},
			{
				"x": -0.0549876302,
				"y": 2.4699819313,
				"z": -0.7254351536,
				"element": "C" 
			},
			{
				"x": -0.8601671117,
				"y": 1.5771318169,
				"z": -1.4360715607,
				"element": "C" 
			},
			{
				"x": -0.5785311533,
				"y": 0.2111476851,
				"z": -1.3938943022,
				"element": "C" 
			},
			{
				"x": -0.4412637154,
				"y": 4.2021928788,
				"z": -0.7857552908,
				"element": "S" 
			},
			{
				"x": 0.7384501976,
				"y": 4.8589932649,
				"z": -2.449609896,
				"element": "Cl" 
			},
			{
				"x": 0.1228434503,
				"y": 4.8662378163,
				"z": 0.3835511032,
				"element": "O" 
			},
			{
				"x": -1.8307800808,
				"y": 4.3803467865,
				"z": -1.1899089576,
				"element": "O" 
			},
			{
				"x": 3.2265528248,
				"y": -0.5869235523,
				"z": 2.7268481073,
				"element": "H" 
			},
			{
				"x": 2.809747341,
				"y": 1.1323369071,
				"z": 2.5615459846,
				"element": "H" 
			},
			{
				"x": 1.5293596877,
				"y": -0.0727649196,
				"z": 2.783956468,
				"element": "H" 
			},
			{
				"x": 3.3973607071,
				"y": 0.153612075,
				"z": 0.3514577535,
				"element": "H" 
			},
			{
				"x": 0.5732648667,
				"y": -2.3391887066,
				"z": -0.8096328385,
				"element": "H" 
			},
			{
				"x": 1.6438534852,
				"y": 2.7793196096,
				"z": 0.5794287807,
				"element": "H" 
			},
			{
				"x": -1.7045548215,
				"y": 1.9493882365,
				"z": -2.0049847177,
				"element": "H" 
			},
			{
				"x": -1.1996191818,
				"y": -0.497479697,
				"z": -1.9317156802,
				"element": "H" 
			}
		],
		 "valence_orbital": [ 
			{
				"type": "occ",
				"energy": -0.32332,
				"method": "rhf"
			},
			{
				"type": "occ",
				"energy": -0.31081,
				"method": "rhf"
			},
			{
				"type": "occ",
				"energy": -0.29135,
				"method": "rhf"
			},
			{
				"type": "occ",
				"energy": -0.28072,
				"method": "rhf"
			},
			{
				"type": "occ",
				"energy": -0.25377,
				"method": "rhf"
			},
			{
				"type": "unocc",
				"energy": -0.08885,
				"method": "rhf"
			},
			{
				"type": "unocc",
				"energy": -0.04761,
				"method": "rhf"
			},
			{
				"type": "unocc",
				"energy": -0.04166,
				"method": "rhf"
			},
			{
				"type": "unocc",
				"energy": -0.00053,
				"method": "rhf"
			},
			{
				"type": "unocc",
				"energy": 0.05561,
				"method": "rhf"
			}
		],
		"cosmo_sigma_profile": { 
			"-0.025": 0.0,
			"-0.024": 0.0,
			"-0.023": 0.0,
			"-0.022": 0.0,
			"-0.021": 0.0,
			"-0.02": 0.0,
			"-0.019": 0.0,
			"-0.018": 0.0,
			"-0.017": 0.333154769669,
			"-0.016": 1.61972221818,
			"-0.015": 1.6427969764,
			"-0.014": 1.08186793321,
			"-0.013": 0.775345642247,
			"-0.012": 1.36548494962,
			"-0.011": 1.38232237234,
			"-0.01": 1.333745476,
			"-0.009": 1.82160833647,
			"-0.008": 6.86401477751,
			"-0.007": 10.1391237912,
			"-0.006": 10.4787866383,
			"-0.005": 14.1364717293,
			"-0.004": 13.1367561618,
			"-0.003": 15.4011996347,
			"-0.002": 15.7210583014,
			"-0.001": 22.6909264821,
			"0.0": 21.5514142377,
			"0.001": 19.7181611929,
			"0.002": 12.043936628,
			"0.003": 12.5380894518,
			"0.004": 16.0973229558,
			"0.005": 5.40898618602,
			"0.006": 5.42106976994,
			"0.007": 5.67401222252,
			"0.008": 10.5810068668,
			"0.009": 8.00473630195,
			"0.01": 2.16650804122,
			"0.011": 2.98580396671,
			"0.012": 5.61514973731,
			"0.013": 2.20105308635,
			"0.014": 0.000863057509154,
			"0.015": 0.0,
			"0.016": 0.0,
			"0.017": 0.0,
			"0.018": 0.0,
			"0.019": 0.0,
			"0.02": 0.0,
			"0.021": 0.0,
			"0.022": 0.0,
			"0.023": 0.0,
			"0.024": 0.0,
			"0.025": 0.0
		}
	}
}
