{
	 "smiles": "CC1=CC=C(F)C(C(O)=O)=C1F", 
	 "Tm": 413.15, 
	 "num_atms": 18, 
	 "gaussian": { 
		 "optdone": 1, 
		 "sigma_profile": "yes", 
		 "theory": "DFT", 
		 "functional": "B3LYP", 
		 "basiset": "6-31G**", 
		 "properties": { 
			 "R2extent": 2171.3041, 
			 "electric_dipole_moment_norm": 3.0174358419, 
			 "electric_quadrupole_moment_norm": 11.3979016744, 
			 "total_energy": -658.597975201, 
			 "HOMO_LUMO_gap": 0.19934, 
			 "cosmo_polarized_energy": -10.3, 
			 "cosmo_cavitation_energy": 23.6, 
			 "cosmo_dispersion_energy": -17.14, 
			 "cosmo_repulsion_energy": 1.34, 
			 "cosmo_total_nonelectrostatic_energy": 7.79, 
			 "SMD_solvation_energy": 6.23 
		},
		"coords": [
			{
				"x": -2.8073555063,
				"y": -0.6733870236,
				"z": 1.149827214,
				"element": "C" 
			},
			{
				"x": -1.5602734983,
				"y": 0.1733587321,
				"z": 1.1285416385,
				"element": "C" 
			},
			{
				"x": -1.528271116,
				"y": 1.4932549657,
				"z": 1.5873466922,
				"element": "C" 
			},
			{
				"x": -0.3569077096,
				"y": 2.2500635343,
				"z": 1.5662577562,
				"element": "C" 
			},
			{
				"x": 0.807705968,
				"y": 1.6734833099,
				"z": 1.0813686235,
				"element": "C" 
			},
			{
				"x": 1.9202109812,
				"y": 2.4187916491,
				"z": 1.049567614,
				"element": "F" 
			},
			{
				"x": 0.8443672367,
				"y": 0.3555711195,
				"z": 0.5949817988,
				"element": "C" 
			},
			{
				"x": 2.1287150946,
				"y": -0.226855682,
				"z": 0.1072172988,
				"element": "C" 
			},
			{
				"x": 1.9529533183,
				"y": -1.1151935582,
				"z": -0.8977416528,
				"element": "O" 
			},
			{
				"x": 3.2235198031,
				"y": 0.0613249731,
				"z": 0.5392495056,
				"element": "O" 
			},
			{
				"x": -0.3634784087,
				"y": -0.3553433969,
				"z": 0.639442909,
				"element": "C" 
			},
			{
				"x": -0.3880691103,
				"y": -1.6332664862,
				"z": 0.2194515978,
				"element": "F" 
			},
			{
				"x": -3.0728540119,
				"y": -1.017792339,
				"z": 0.1448504822,
				"element": "H" 
			},
			{
				"x": -3.6515016327,
				"y": -0.1075940374,
				"z": 1.551176374,
				"element": "H" 
			},
			{
				"x": -2.6713190052,
				"y": -1.5680326023,
				"z": 1.7666683031,
				"element": "H" 
			},
			{
				"x": -2.4419477449,
				"y": 1.9379251791,
				"z": 1.9713320334,
				"element": "H" 
			},
			{
				"x": -0.3313469003,
				"y": 3.2754574413,
				"z": 1.9162560843,
				"element": "H" 
			},
			{
				"x": 2.8441522423,
				"y": -1.4343657785,
				"z": -1.1195942727,
				"element": "H" 
			}
		],
		 "valence_orbital": [ 
			{
				"type": "occ",
				"energy": -0.35514,
				"method": "rhf"
			},
			{
				"type": "occ",
				"energy": -0.31904,
				"method": "rhf"
			},
			{
				"type": "occ",
				"energy": -0.28278,
				"method": "rhf"
			},
			{
				"type": "occ",
				"energy": -0.26681,
				"method": "rhf"
			},
			{
				"type": "occ",
				"energy": -0.24853,
				"method": "rhf"
			},
			{
				"type": "unocc",
				"energy": -0.04919,
				"method": "rhf"
			},
			{
				"type": "unocc",
				"energy": -0.00969,
				"method": "rhf"
			},
			{
				"type": "unocc",
				"energy": 0.03674,
				"method": "rhf"
			},
			{
				"type": "unocc",
				"energy": 0.07464,
				"method": "rhf"
			},
			{
				"type": "unocc",
				"energy": 0.0855,
				"method": "rhf"
			}
		],
		"cosmo_sigma_profile": { 
			"-0.025": 0.0,
			"-0.024": 0.0,
			"-0.023": 0.0,
			"-0.022": 0.0,
			"-0.021": 0.0,
			"-0.02": 0.0,
			"-0.019": 0.055520340606,
			"-0.018": 1.16995547771,
			"-0.017": 0.560976785172,
			"-0.016": 1.39294089655,
			"-0.015": 0.396556154586,
			"-0.014": 0.735620035375,
			"-0.013": 0.412204413995,
			"-0.012": 0.589526956926,
			"-0.011": 0.947492804958,
			"-0.01": 0.819156830904,
			"-0.009": 0.513817257849,
			"-0.008": 1.84348652923,
			"-0.007": 6.00443628207,
			"-0.006": 6.21359250056,
			"-0.005": 8.84707642065,
			"-0.004": 10.193106486,
			"-0.003": 12.8098124127,
			"-0.002": 14.0396747058,
			"-0.001": 19.6493465503,
			"0.0": 22.4915417134,
			"0.001": 13.1719253839,
			"0.002": 11.5252429552,
			"0.003": 13.175262288,
			"0.004": 11.2816689358,
			"0.005": 4.69958716719,
			"0.006": 3.33513306922,
			"0.007": 3.47745124748,
			"0.008": 4.10193310592,
			"0.009": 4.08432665048,
			"0.01": 2.32170877121,
			"0.011": 5.46827282214,
			"0.012": 2.50422240377,
			"0.013": 0.00923619632531,
			"0.014": 0.0,
			"0.015": 0.0,
			"0.016": 0.0,
			"0.017": 0.0,
			"0.018": 0.0,
			"0.019": 0.0,
			"0.02": 0.0,
			"0.021": 0.0,
			"0.022": 0.0,
			"0.023": 0.0,
			"0.024": 0.0,
			"0.025": 0.0
		}
	}
}
