{
	 "smiles": "OC(=O)C=CC=CC(O)=O", 
	 "Tm": 574.15, 
	 "num_atms": 16, 
	 "gaussian": { 
		 "optdone": 1, 
		 "sigma_profile": "yes", 
		 "theory": "DFT", 
		 "functional": "B3LYP", 
		 "basiset": "6-31G**", 
		 "properties": { 
			 "R2extent": 3659.7273, 
			 "electric_dipole_moment_norm": 4.30252477157, 
			 "electric_quadrupole_moment_norm": 7.3682143841, 
			 "total_energy": -533.132464665, 
			 "HOMO_LUMO_gap": 0.16666, 
			 "cosmo_polarized_energy": -20.45, 
			 "cosmo_cavitation_energy": 22.67, 
			 "cosmo_dispersion_energy": -16.2, 
			 "cosmo_repulsion_energy": 1.35, 
			 "cosmo_total_nonelectrostatic_energy": 7.81, 
			 "SMD_solvation_energy": 6.89 
		},
		"coords": [
			{
				"x": 1.2699169487,
				"y": -1.2748126916,
				"z": 1.1982836573,
				"element": "O" 
			},
			{
				"x": 1.240680244,
				"y": -0.579034236,
				"z": 0.0298409182,
				"element": "C" 
			},
			{
				"x": 1.7524856864,
				"y": -1.0415612207,
				"z": -0.9633281126,
				"element": "O" 
			},
			{
				"x": 0.5543420317,
				"y": 0.7420990555,
				"z": 0.0795360686,
				"element": "C" 
			},
			{
				"x": 0.4728213384,
				"y": 1.4986458757,
				"z": -1.0301825001,
				"element": "C" 
			},
			{
				"x": -0.1701113678,
				"y": 2.8018099958,
				"z": -1.1398165818,
				"element": "C" 
			},
			{
				"x": -1.1557813952,
				"y": 3.2678904648,
				"z": -0.3510689571,
				"element": "C" 
			},
			{
				"x": -1.7098966339,
				"y": 4.6214658763,
				"z": -0.5743330123,
				"element": "C" 
			},
			{
				"x": -2.6839437122,
				"y": 4.9089273801,
				"z": 0.3242691442,
				"element": "O" 
			},
			{
				"x": -1.3614546101,
				"y": 5.4001660736,
				"z": -1.4395751301,
				"element": "O" 
			},
			{
				"x": 0.8269998762,
				"y": -0.7807388399,
				"z": 1.9019965356,
				"element": "H" 
			},
			{
				"x": 0.1403693594,
				"y": 1.090310502,
				"z": 1.0243558284,
				"element": "H" 
			},
			{
				"x": 0.9580155112,
				"y": 1.1059826905,
				"z": -1.9219922945,
				"element": "H" 
			},
			{
				"x": 0.1592824442,
				"y": 3.4488790071,
				"z": -1.9507488858,
				"element": "H" 
			},
			{
				"x": -1.5924550289,
				"y": 2.680418474,
				"z": 0.4504767364,
				"element": "H" 
			},
			{
				"x": -2.992070692,
				"y": 5.8056515928,
				"z": 0.1113865854,
				"element": "H" 
			}
		],
		 "valence_orbital": [ 
			{
				"type": "occ",
				"energy": -0.32869,
				"method": "rhf"
			},
			{
				"type": "occ",
				"energy": -0.31932,
				"method": "rhf"
			},
			{
				"type": "occ",
				"energy": -0.28938,
				"method": "rhf"
			},
			{
				"type": "occ",
				"energy": -0.28141,
				"method": "rhf"
			},
			{
				"type": "occ",
				"energy": -0.26883,
				"method": "rhf"
			},
			{
				"type": "unocc",
				"energy": -0.10217,
				"method": "rhf"
			},
			{
				"type": "unocc",
				"energy": -0.01385,
				"method": "rhf"
			},
			{
				"type": "unocc",
				"energy": 0.04807,
				"method": "rhf"
			},
			{
				"type": "unocc",
				"energy": 0.06216,
				"method": "rhf"
			},
			{
				"type": "unocc",
				"energy": 0.07282,
				"method": "rhf"
			}
		],
		"cosmo_sigma_profile": { 
			"-0.025": 0.0,
			"-0.024": 0.0,
			"-0.023": 0.0,
			"-0.022": 0.0,
			"-0.021": 0.0,
			"-0.02": 0.174581799297,
			"-0.019": 1.3571505585,
			"-0.018": 2.25302343802,
			"-0.017": 2.4259462589,
			"-0.016": 1.47604185944,
			"-0.015": 1.44480955822,
			"-0.014": 1.8639160784,
			"-0.013": 1.53168464396,
			"-0.012": 2.1002495258,
			"-0.011": 2.33838140607,
			"-0.01": 1.67806746866,
			"-0.009": 2.33408447346,
			"-0.008": 5.01467851323,
			"-0.007": 9.24679694873,
			"-0.006": 6.789408194,
			"-0.005": 5.78041198935,
			"-0.004": 6.02346787054,
			"-0.003": 8.43161591937,
			"-0.002": 11.5609989557,
			"-0.001": 11.220130608,
			"0.0": 13.3815811696,
			"0.001": 13.2297566495,
			"0.002": 7.51814491913,
			"0.003": 5.06345825798,
			"0.004": 3.25487184766,
			"0.005": 5.25117209818,
			"0.006": 5.36734163947,
			"0.007": 3.75331286614,
			"0.008": 5.77455046889,
			"0.009": 6.33883105076,
			"0.01": 7.12979680818,
			"0.011": 9.05633988207,
			"0.012": 8.9024730871,
			"0.013": 1.71506356055,
			"0.014": 0.076993185141,
			"0.015": 0.0,
			"0.016": 0.0,
			"0.017": 0.0,
			"0.018": 0.0,
			"0.019": 0.0,
			"0.02": 0.0,
			"0.021": 0.0,
			"0.022": 0.0,
			"0.023": 0.0,
			"0.024": 0.0,
			"0.025": 0.0
		}
	}
}
