{
	 "smiles": "CC(C)(CO)C(CN)C1=CC=CC=C1", 
	 "Tm": 390.15, 
	 "num_atms": 33, 
	 "gaussian": { 
		 "optdone": 1, 
		 "sigma_profile": "yes", 
		 "theory": "DFT", 
		 "functional": "B3LYP", 
		 "basiset": "6-31G**", 
		 "properties": { 
			 "R2extent": 3330.8692, 
			 "electric_dipole_moment_norm": 2.87056184222, 
			 "electric_quadrupole_moment_norm": 6.86751183909, 
			 "total_energy": -598.691304442, 
			 "HOMO_LUMO_gap": 0.23581, 
			 "cosmo_polarized_energy": -10.97, 
			 "cosmo_cavitation_energy": 32.46, 
			 "cosmo_dispersion_energy": -22.85, 
			 "cosmo_repulsion_energy": 1.8, 
			 "cosmo_total_nonelectrostatic_energy": 11.41, 
			 "SMD_solvation_energy": 5.07 
		},
		"coords": [
			{
				"x": -1.2038072942,
				"y": -1.0473282771,
				"z": 1.8265674732,
				"element": "C" 
			},
			{
				"x": 0.2207912461,
				"y": -0.9613335647,
				"z": 1.2424930919,
				"element": "C" 
			},
			{
				"x": 1.1021665973,
				"y": -1.9779988516,
				"z": 2.0045100539,
				"element": "C" 
			},
			{
				"x": 0.776861115,
				"y": 0.4639809376,
				"z": 1.4791110493,
				"element": "C" 
			},
			{
				"x": 0.7501578178,
				"y": 0.8661407074,
				"z": 2.847019404,
				"element": "O" 
			},
			{
				"x": 0.2098642451,
				"y": -1.3218276111,
				"z": -0.3009865004,
				"element": "C" 
			},
			{
				"x": 1.4647268129,
				"y": -0.9199431452,
				"z": -1.1197084295,
				"element": "C" 
			},
			{
				"x": 2.7163911808,
				"y": -1.4849091951,
				"z": -0.6015205386,
				"element": "N" 
			},
			{
				"x": -1.0260827883,
				"y": -0.8358961433,
				"z": -1.0583623915,
				"element": "C" 
			},
			{
				"x": -1.1983506506,
				"y": 0.5037983368,
				"z": -1.4435281182,
				"element": "C" 
			},
			{
				"x": -2.3328088302,
				"y": 0.9133316837,
				"z": -2.1463341321,
				"element": "C" 
			},
			{
				"x": -3.3222092625,
				"y": -0.0096381443,
				"z": -2.4879603718,
				"element": "C" 
			},
			{
				"x": -3.1635925943,
				"y": -1.3466031546,
				"z": -2.1218402231,
				"element": "C" 
			},
			{
				"x": -2.0277347064,
				"y": -1.7495608458,
				"z": -1.4184271179,
				"element": "C" 
			},
			{
				"x": -1.1717692276,
				"y": -0.8298523259,
				"z": 2.8970783151,
				"element": "H" 
			},
			{
				"x": -1.8837327453,
				"y": -0.3297088487,
				"z": 1.3602337961,
				"element": "H" 
			},
			{
				"x": -1.6284240751,
				"y": -2.0482493939,
				"z": 1.6893730997,
				"element": "H" 
			},
			{
				"x": 1.0576931549,
				"y": -1.7907390218,
				"z": 3.0838352717,
				"element": "H" 
			},
			{
				"x": 0.7350379308,
				"y": -2.9994710365,
				"z": 1.8509056438,
				"element": "H" 
			},
			{
				"x": 2.1416281657,
				"y": -1.9317220199,
				"z": 1.6736758081,
				"element": "H" 
			},
			{
				"x": 1.7980319728,
				"y": 0.5323901387,
				"z": 1.0808959072,
				"element": "H" 
			},
			{
				"x": 0.1562984113,
				"y": 1.1985232189,
				"z": 0.9562944642,
				"element": "H" 
			},
			{
				"x": 1.4278562896,
				"y": 0.3603950061,
				"z": 3.3120008874,
				"element": "H" 
			},
			{
				"x": 0.1616779608,
				"y": -2.4200948219,
				"z": -0.3326316778,
				"element": "H" 
			},
			{
				"x": 1.5761667653,
				"y": 0.1695469397,
				"z": -1.1219712913,
				"element": "H" 
			},
			{
				"x": 1.2611765846,
				"y": -1.2028713878,
				"z": -2.1661489357,
				"element": "H" 
			},
			{
				"x": 3.4920911931,
				"y": -1.1782408812,
				"z": -1.1840136511,
				"element": "H" 
			},
			{
				"x": 2.6915445606,
				"y": -2.5000453921,
				"z": -0.6759913872,
				"element": "H" 
			},
			{
				"x": -0.4414375899,
				"y": 1.2426934525,
				"z": -1.1989263938,
				"element": "H" 
			},
			{
				"x": -2.4408722652,
				"y": 1.9569477673,
				"z": -2.4288752419,
				"element": "H" 
			},
			{
				"x": -4.2042764356,
				"y": 0.3091805553,
				"z": -3.0358022093,
				"element": "H" 
			},
			{
				"x": -3.9223149476,
				"y": -2.0785477917,
				"z": -2.3850271524,
				"element": "H" 
			},
			{
				"x": -1.9148485916,
				"y": -2.7948468899,
				"z": -1.1408385021,
				"element": "H" 
			}
		],
		 "valence_orbital": [ 
			{
				"type": "occ",
				"energy": -0.29951,
				"method": "rhf"
			},
			{
				"type": "occ",
				"energy": -0.25313,
				"method": "rhf"
			},
			{
				"type": "occ",
				"energy": -0.24694,
				"method": "rhf"
			},
			{
				"type": "occ",
				"energy": -0.23797,
				"method": "rhf"
			},
			{
				"type": "occ",
				"energy": -0.23632,
				"method": "rhf"
			},
			{
				"type": "unocc",
				"energy": -0.00051,
				"method": "rhf"
			},
			{
				"type": "unocc",
				"energy": 0.00202,
				"method": "rhf"
			},
			{
				"type": "unocc",
				"energy": 0.07315,
				"method": "rhf"
			},
			{
				"type": "unocc",
				"energy": 0.08247,
				"method": "rhf"
			},
			{
				"type": "unocc",
				"energy": 0.08719,
				"method": "rhf"
			}
		],
		"cosmo_sigma_profile": { 
			"-0.025": 0.0,
			"-0.024": 0.0,
			"-0.023": 0.0,
			"-0.022": 0.0,
			"-0.021": 0.0,
			"-0.02": 0.0,
			"-0.019": 0.0,
			"-0.018": 0.0,
			"-0.017": 0.0,
			"-0.016": 0.0,
			"-0.015": 0.0223880900975,
			"-0.014": 0.508276716749,
			"-0.013": 0.756648788325,
			"-0.012": 1.44715220349,
			"-0.011": 0.371702860335,
			"-0.01": 1.38825880774,
			"-0.009": 3.47703049605,
			"-0.008": 3.46609833959,
			"-0.007": 4.23377137013,
			"-0.006": 6.65688059904,
			"-0.005": 15.0413814856,
			"-0.004": 16.3927166146,
			"-0.003": 22.6362405872,
			"-0.002": 24.1962434131,
			"-0.001": 25.3880762186,
			"0.0": 21.0076779972,
			"0.001": 20.6864211265,
			"0.002": 20.7318047548,
			"0.003": 12.7059016728,
			"0.004": 10.5078066959,
			"0.005": 10.3224450884,
			"0.006": 9.42022318752,
			"0.007": 4.26069865163,
			"0.008": 2.42173512942,
			"0.009": 1.87196545431,
			"0.01": 2.27083860163,
			"0.011": 1.7666302285,
			"0.012": 1.9467498606,
			"0.013": 1.75299701006,
			"0.014": 2.39392232328,
			"0.015": 1.76253338549,
			"0.016": 0.0504006582431,
			"0.017": 0.0,
			"0.018": 0.0,
			"0.019": 0.0,
			"0.02": 0.0,
			"0.021": 0.0,
			"0.022": 0.0,
			"0.023": 0.0,
			"0.024": 0.0,
			"0.025": 0.0
		}
	}
}
