{
	 "smiles": "OC(=O)CNC(=O)C1=C(O)C=CC=C1", 
	 "Tm": 441.15, 
	 "num_atms": 23, 
	 "gaussian": { 
		 "optdone": 1, 
		 "sigma_profile": "yes", 
		 "theory": "DFT", 
		 "functional": "B3LYP", 
		 "basiset": "6-31G**", 
		 "properties": { 
			 "R2extent": 3797.9618, 
			 "electric_dipole_moment_norm": 8.43748585777, 
			 "electric_quadrupole_moment_norm": 27.3267376394, 
			 "total_energy": -704.06027928, 
			 "HOMO_LUMO_gap": 0.18767, 
			 "cosmo_polarized_energy": -20.24, 
			 "cosmo_cavitation_energy": 27.32, 
			 "cosmo_dispersion_energy": -20.58, 
			 "cosmo_repulsion_energy": 1.62, 
			 "cosmo_total_nonelectrostatic_energy": 8.35, 
			 "SMD_solvation_energy": 5.94 
		},
		"coords": [
			{
				"x": 4.4597200557,
				"y": -0.2250555526,
				"z": -0.642868235,
				"element": "O" 
			},
			{
				"x": 4.0356817263,
				"y": -1.0300721848,
				"z": -1.6234383584,
				"element": "C" 
			},
			{
				"x": 4.6222172228,
				"y": -1.1469816038,
				"z": -2.6741906465,
				"element": "O" 
			},
			{
				"x": 2.7593340875,
				"y": -1.8363359907,
				"z": -1.3068594341,
				"element": "C" 
			},
			{
				"x": 1.5925144387,
				"y": -1.0247906869,
				"z": -0.9729236823,
				"element": "N" 
			},
			{
				"x": 1.4664338571,
				"y": -0.4194070313,
				"z": 0.230256293,
				"element": "C" 
			},
			{
				"x": 2.4024170006,
				"y": -0.4383578152,
				"z": 1.0531188347,
				"element": "O" 
			},
			{
				"x": 0.1815979841,
				"y": 0.2747806334,
				"z": 0.5679844648,
				"element": "C" 
			},
			{
				"x": -0.9554631266,
				"y": 0.368966541,
				"z": -0.2613657534,
				"element": "C" 
			},
			{
				"x": -0.9280991798,
				"y": -0.2129364549,
				"z": -1.5040721105,
				"element": "O" 
			},
			{
				"x": -2.0966565031,
				"y": 1.0481472529,
				"z": 0.1747488879,
				"element": "C" 
			},
			{
				"x": -2.1249554515,
				"y": 1.6395700243,
				"z": 1.4347849226,
				"element": "C" 
			},
			{
				"x": -1.0096055866,
				"y": 1.5581190244,
				"z": 2.2711809473,
				"element": "C" 
			},
			{
				"x": 0.1236796107,
				"y": 0.8839059131,
				"z": 1.8320685273,
				"element": "C" 
			},
			{
				"x": 3.8430894146,
				"y": -0.2877016179,
				"z": 0.1304212323,
				"element": "H" 
			},
			{
				"x": 2.52480583,
				"y": -2.4326037015,
				"z": -2.1877318603,
				"element": "H" 
			},
			{
				"x": 2.9747397616,
				"y": -2.5082200754,
				"z": -0.4667434594,
				"element": "H" 
			},
			{
				"x": 0.8322739505,
				"y": -0.9536635333,
				"z": -1.6347379584,
				"element": "H" 
			},
			{
				"x": -1.7614696508,
				"y": -0.0450395445,
				"z": -1.9624930276,
				"element": "H" 
			},
			{
				"x": -2.9631385431,
				"y": 1.1100563116,
				"z": -0.4804595075,
				"element": "H" 
			},
			{
				"x": -3.0193112767,
				"y": 2.1636479602,
				"z": 1.7583050791,
				"element": "H" 
			},
			{
				"x": -1.024257754,
				"y": 2.0180109433,
				"z": 3.2536889283,
				"element": "H" 
			},
			{
				"x": 1.0077521322,
				"y": 0.8044611888,
				"z": 2.4545259158,
				"element": "H" 
			}
		],
		 "valence_orbital": [ 
			{
				"type": "occ",
				"energy": -0.28982,
				"method": "rhf"
			},
			{
				"type": "occ",
				"energy": -0.27728,
				"method": "rhf"
			},
			{
				"type": "occ",
				"energy": -0.27546,
				"method": "rhf"
			},
			{
				"type": "occ",
				"energy": -0.25423,
				"method": "rhf"
			},
			{
				"type": "occ",
				"energy": -0.24365,
				"method": "rhf"
			},
			{
				"type": "unocc",
				"energy": -0.05598,
				"method": "rhf"
			},
			{
				"type": "unocc",
				"energy": -0.01504,
				"method": "rhf"
			},
			{
				"type": "unocc",
				"energy": 0.02155,
				"method": "rhf"
			},
			{
				"type": "unocc",
				"energy": 0.03688,
				"method": "rhf"
			},
			{
				"type": "unocc",
				"energy": 0.04337,
				"method": "rhf"
			}
		],
		"cosmo_sigma_profile": { 
			"-0.025": 0.0,
			"-0.024": 0.0,
			"-0.023": 0.0,
			"-0.022": 0.0,
			"-0.021": 0.0,
			"-0.02": 0.010418344276,
			"-0.019": 0.778346139851,
			"-0.018": 1.33618765275,
			"-0.017": 0.970707323435,
			"-0.016": 1.07256046749,
			"-0.015": 1.25226394935,
			"-0.014": 0.522917847331,
			"-0.013": 0.723822495204,
			"-0.012": 2.33753348038,
			"-0.011": 1.84497880219,
			"-0.01": 2.18276217911,
			"-0.009": 1.88818758001,
			"-0.008": 5.08129124499,
			"-0.007": 8.24285289739,
			"-0.006": 11.39235734,
			"-0.005": 12.852439396,
			"-0.004": 11.9720454082,
			"-0.003": 12.9095761801,
			"-0.002": 15.1762080255,
			"-0.001": 12.1324628108,
			"0.0": 13.821151795,
			"0.001": 14.3077578809,
			"0.002": 13.703958306,
			"0.003": 14.2678320146,
			"0.004": 13.0162713678,
			"0.005": 5.44922191159,
			"0.006": 3.11950259485,
			"0.007": 3.70711070177,
			"0.008": 4.0883897018,
			"0.009": 4.16554615823,
			"0.01": 5.28256715445,
			"0.011": 7.39481055016,
			"0.012": 7.92215144948,
			"0.013": 3.05918214785,
			"0.014": 0.304820977121,
			"0.015": 0.0,
			"0.016": 0.0,
			"0.017": 0.0,
			"0.018": 0.0,
			"0.019": 0.0,
			"0.02": 0.0,
			"0.021": 0.0,
			"0.022": 0.0,
			"0.023": 0.0,
			"0.024": 0.0,
			"0.025": 0.0
		}
	}
}
