{
	 "smiles": "CC1CCC2=C(C1)SC1=C2C(Cl)=NC=N1", 
	 "Tm": 393.15, 
	 "num_atms": 26, 
	 "gaussian": { 
		 "optdone": 1, 
		 "sigma_profile": "yes", 
		 "theory": "DFT", 
		 "functional": "B3LYP", 
		 "basiset": "6-31G**", 
		 "properties": { 
			 "R2extent": 4460.7286, 
			 "electric_dipole_moment_norm": 3.83576964637, 
			 "electric_quadrupole_moment_norm": 5.15126127468, 
			 "total_energy": -1393.70185675, 
			 "HOMO_LUMO_gap": 0.18032, 
			 "cosmo_polarized_energy": -6.61, 
			 "cosmo_cavitation_energy": 31.18, 
			 "cosmo_dispersion_energy": -23.84, 
			 "cosmo_repulsion_energy": 1.79, 
			 "cosmo_total_nonelectrostatic_energy": 9.14, 
			 "SMD_solvation_energy": 0.85 
		},
		"coords": [
			{
				"x": 4.1899231187,
				"y": 0.8805230661,
				"z": 0.3054249245,
				"element": "C" 
			},
			{
				"x": 2.6878604975,
				"y": 0.7006025559,
				"z": 0.546357985,
				"element": "C" 
			},
			{
				"x": 1.9672443487,
				"y": 2.0420161149,
				"z": 0.7531248259,
				"element": "C" 
			},
			{
				"x": 0.4884516552,
				"y": 1.8637021655,
				"z": 1.1361710758,
				"element": "C" 
			},
			{
				"x": -0.1941027895,
				"y": 0.8216521972,
				"z": 0.2784290151,
				"element": "C" 
			},
			{
				"x": 0.5269737976,
				"y": -0.0326387933,
				"z": -0.5081634771,
				"element": "C" 
			},
			{
				"x": 2.0259317974,
				"y": -0.0637472856,
				"z": -0.617614416,
				"element": "C" 
			},
			{
				"x": -0.4625775446,
				"y": -1.1539739424,
				"z": -1.4382144734,
				"element": "S" 
			},
			{
				"x": -1.9182561643,
				"y": -0.4711165592,
				"z": -0.7487906674,
				"element": "C" 
			},
			{
				"x": -1.6167570075,
				"y": 0.5767819596,
				"z": 0.1649652856,
				"element": "C" 
			},
			{
				"x": -2.7724215255,
				"y": 1.1243776115,
				"z": 0.7528001319,
				"element": "C" 
			},
			{
				"x": -2.6614483405,
				"y": 2.4133981917,
				"z": 1.9485847824,
				"element": "Cl" 
			},
			{
				"x": -3.99304685,
				"y": 0.7184793055,
				"z": 0.4687553885,
				"element": "N" 
			},
			{
				"x": -4.1231277826,
				"y": -0.2755224081,
				"z": -0.4263835323,
				"element": "C" 
			},
			{
				"x": -3.13724652,
				"y": -0.9071368397,
				"z": -1.0586407461,
				"element": "N" 
			},
			{
				"x": 4.6879355623,
				"y": -0.0822488781,
				"z": 0.1466610993,
				"element": "H" 
			},
			{
				"x": 4.6700484716,
				"y": 1.3681295454,
				"z": 1.1601844106,
				"element": "H" 
			},
			{
				"x": 4.3743774426,
				"y": 1.5013810175,
				"z": -0.5795117112,
				"element": "H" 
			},
			{
				"x": 2.5517103356,
				"y": 0.1001380453,
				"z": 1.4577575688,
				"element": "H" 
			},
			{
				"x": 2.4739933393,
				"y": 2.6266614868,
				"z": 1.5293766986,
				"element": "H" 
			},
			{
				"x": 2.0373989112,
				"y": 2.626537129,
				"z": -0.1748825287,
				"element": "H" 
			},
			{
				"x": 0.4062039652,
				"y": 1.5756024315,
				"z": 2.1929595817,
				"element": "H" 
			},
			{
				"x": -0.0339949895,
				"y": 2.8207020381,
				"z": 1.0505178522,
				"element": "H" 
			},
			{
				"x": 2.3340166921,
				"y": 0.3857111537,
				"z": -1.5738242108,
				"element": "H" 
			},
			{
				"x": 2.3846233391,
				"y": -1.1003597405,
				"z": -0.6413154981,
				"element": "H" 
			},
			{
				"x": -5.1382137602,
				"y": -0.5928515684,
				"z": -0.6494293646,
				"element": "H" 
			}
		],
		 "valence_orbital": [ 
			{
				"type": "occ",
				"energy": -0.31139,
				"method": "rhf"
			},
			{
				"type": "occ",
				"energy": -0.304,
				"method": "rhf"
			},
			{
				"type": "occ",
				"energy": -0.26974,
				"method": "rhf"
			},
			{
				"type": "occ",
				"energy": -0.26826,
				"method": "rhf"
			},
			{
				"type": "occ",
				"energy": -0.23338,
				"method": "rhf"
			},
			{
				"type": "unocc",
				"energy": -0.05306,
				"method": "rhf"
			},
			{
				"type": "unocc",
				"energy": -0.03823,
				"method": "rhf"
			},
			{
				"type": "unocc",
				"energy": 0.00217,
				"method": "rhf"
			},
			{
				"type": "unocc",
				"energy": 0.02362,
				"method": "rhf"
			},
			{
				"type": "unocc",
				"energy": 0.03745,
				"method": "rhf"
			}
		],
		"cosmo_sigma_profile": { 
			"-0.025": 0.0,
			"-0.024": 0.0,
			"-0.023": 0.0,
			"-0.022": 0.0,
			"-0.021": 0.0,
			"-0.02": 0.0,
			"-0.019": 0.0,
			"-0.018": 0.0,
			"-0.017": 0.0,
			"-0.016": 0.0,
			"-0.015": 0.0,
			"-0.014": 0.0,
			"-0.013": 0.0,
			"-0.012": 0.0,
			"-0.011": 0.0,
			"-0.01": 0.0,
			"-0.009": 0.133444240338,
			"-0.008": 1.72253962022,
			"-0.007": 1.63551888643,
			"-0.006": 2.0816964069,
			"-0.005": 5.05380923184,
			"-0.004": 11.7945866466,
			"-0.003": 31.8109538759,
			"-0.002": 41.2072295805,
			"-0.001": 35.5041477488,
			"0.0": 30.0969815309,
			"0.001": 29.1121223899,
			"0.002": 17.6058778688,
			"0.003": 12.5387119239,
			"0.004": 9.14854220024,
			"0.005": 4.23626333024,
			"0.006": 3.72994566715,
			"0.007": 1.99628258921,
			"0.008": 2.16545416635,
			"0.009": 1.98664196327,
			"0.01": 2.51458286277,
			"0.011": 1.75670695754,
			"0.012": 1.56425606862,
			"0.013": 1.5031086062,
			"0.014": 0.681484303537,
			"0.015": 0.0,
			"0.016": 0.0,
			"0.017": 0.0,
			"0.018": 0.0,
			"0.019": 0.0,
			"0.02": 0.0,
			"0.021": 0.0,
			"0.022": 0.0,
			"0.023": 0.0,
			"0.024": 0.0,
			"0.025": 0.0
		}
	}
}
