{
	 "smiles": "OOC1CCCC2=CC=CC=C12", 
	 "Tm": 329.15, 
	 "num_atms": 24, 
	 "gaussian": { 
		 "optdone": 1, 
		 "sigma_profile": "yes", 
		 "theory": "DFT", 
		 "functional": "B3LYP", 
		 "basiset": "6-31G**", 
		 "properties": { 
			 "R2extent": 2681.5775, 
			 "electric_dipole_moment_norm": 1.65350828241, 
			 "electric_quadrupole_moment_norm": 5.38777337589, 
			 "total_energy": -538.650986414, 
			 "HOMO_LUMO_gap": 0.2365, 
			 "cosmo_polarized_energy": -8.57, 
			 "cosmo_cavitation_energy": 26.0, 
			 "cosmo_dispersion_energy": -19.38, 
			 "cosmo_repulsion_energy": 1.55, 
			 "cosmo_total_nonelectrostatic_energy": 8.17, 
			 "SMD_solvation_energy": 3.51 
		},
		"coords": [
			{
				"x": -2.3528839661,
				"y": -0.019103046,
				"z": -2.0414815176,
				"element": "O" 
			},
			{
				"x": -1.4576509551,
				"y": 0.7479948568,
				"z": -1.1901145345,
				"element": "O" 
			},
			{
				"x": -1.4709642129,
				"y": 0.1309923881,
				"z": 0.0992804532,
				"element": "C" 
			},
			{
				"x": -0.7770783114,
				"y": -1.2439128105,
				"z": 0.0734879724,
				"element": "C" 
			},
			{
				"x": -0.6004146049,
				"y": -1.8564144444,
				"z": 1.4894811633,
				"element": "C" 
			},
			{
				"x": -0.9661750452,
				"y": -0.8739629129,
				"z": 2.6301495804,
				"element": "C" 
			},
			{
				"x": -0.4944918175,
				"y": 0.5305280441,
				"z": 2.3416674144,
				"element": "C" 
			},
			{
				"x": 0.1727030769,
				"y": 1.3225247004,
				"z": 3.2790388514,
				"element": "C" 
			},
			{
				"x": 0.5673363144,
				"y": 2.6234810669,
				"z": 2.9594785184,
				"element": "C" 
			},
			{
				"x": 0.2968373715,
				"y": 3.1403585843,
				"z": 1.6921957891,
				"element": "C" 
			},
			{
				"x": -0.3670617904,
				"y": 2.3586449236,
				"z": 0.7437973392,
				"element": "C" 
			},
			{
				"x": -0.7627097359,
				"y": 1.0579141837,
				"z": 1.0639935145,
				"element": "C" 
			},
			{
				"x": -3.070778779,
				"y": 0.6258236554,
				"z": -2.1498102665,
				"element": "H" 
			},
			{
				"x": -2.5222268925,
				"y": 0.0090286096,
				"z": 0.4071763617,
				"element": "H" 
			},
			{
				"x": -1.345963492,
				"y": -1.9101732536,
				"z": -0.5799241302,
				"element": "H" 
			},
			{
				"x": 0.197710224,
				"y": -1.0870019739,
				"z": -0.3991796552,
				"element": "H" 
			},
			{
				"x": 0.4407700434,
				"y": -2.1695723121,
				"z": 1.6158501308,
				"element": "H" 
			},
			{
				"x": -1.2094847155,
				"y": -2.7601527461,
				"z": 1.5951921427,
				"element": "H" 
			},
			{
				"x": -2.0599350368,
				"y": -0.8629159775,
				"z": 2.7478286303,
				"element": "H" 
			},
			{
				"x": -0.5620977113,
				"y": -1.2305148376,
				"z": 3.5831801198,
				"element": "H" 
			},
			{
				"x": 0.3841186279,
				"y": 0.9166796591,
				"z": 4.2655602252,
				"element": "H" 
			},
			{
				"x": 1.0861976856,
				"y": 3.2290729118,
				"z": 3.6972376242,
				"element": "H" 
			},
			{
				"x": 0.6043256187,
				"y": 4.1508007321,
				"z": 1.438026987,
				"element": "H" 
			},
			{
				"x": -0.5743818957,
				"y": 2.7534799986,
				"z": -0.2445127141,
				"element": "H" 
			}
		],
		 "valence_orbital": [ 
			{
				"type": "occ",
				"energy": -0.30666,
				"method": "rhf"
			},
			{
				"type": "occ",
				"energy": -0.29284,
				"method": "rhf"
			},
			{
				"type": "occ",
				"energy": -0.26311,
				"method": "rhf"
			},
			{
				"type": "occ",
				"energy": -0.24155,
				"method": "rhf"
			},
			{
				"type": "occ",
				"energy": -0.23456,
				"method": "rhf"
			},
			{
				"type": "unocc",
				"energy": 0.00194,
				"method": "rhf"
			},
			{
				"type": "unocc",
				"energy": 0.00414,
				"method": "rhf"
			},
			{
				"type": "unocc",
				"energy": 0.02692,
				"method": "rhf"
			},
			{
				"type": "unocc",
				"energy": 0.08172,
				"method": "rhf"
			},
			{
				"type": "unocc",
				"energy": 0.09034,
				"method": "rhf"
			}
		],
		"cosmo_sigma_profile": { 
			"-0.025": 0.0,
			"-0.024": 0.0,
			"-0.023": 0.0,
			"-0.022": 0.0,
			"-0.021": 0.0,
			"-0.02": 0.0,
			"-0.019": 0.0,
			"-0.018": 0.197584143279,
			"-0.017": 1.05267131074,
			"-0.016": 1.08038310437,
			"-0.015": 0.752305137246,
			"-0.014": 0.790019019575,
			"-0.013": 0.531961736906,
			"-0.012": 0.556381969009,
			"-0.011": 1.07905800803,
			"-0.01": 0.637270579869,
			"-0.009": 0.565828078473,
			"-0.008": 1.24185075109,
			"-0.007": 0.584395496207,
			"-0.006": 1.88242571629,
			"-0.005": 10.5523136138,
			"-0.004": 16.3514469189,
			"-0.003": 22.3490873029,
			"-0.002": 23.2299615469,
			"-0.001": 19.9391647588,
			"0.0": 18.4609677935,
			"0.001": 12.1932973315,
			"0.002": 10.3463029693,
			"0.003": 10.4699396205,
			"0.004": 11.5266015363,
			"0.005": 10.6747068941,
			"0.006": 10.5958969926,
			"0.007": 4.31703482178,
			"0.008": 2.76956187845,
			"0.009": 2.15363791793,
			"0.01": 2.7284423669,
			"0.011": 2.34853552112,
			"0.012": 1.81963739424,
			"0.013": 0.133173735439,
			"0.014": 0.0,
			"0.015": 0.0,
			"0.016": 0.0,
			"0.017": 0.0,
			"0.018": 0.0,
			"0.019": 0.0,
			"0.02": 0.0,
			"0.021": 0.0,
			"0.022": 0.0,
			"0.023": 0.0,
			"0.024": 0.0,
			"0.025": 0.0
		}
	}
}
