{
	 "smiles": "CC1=CC(=CC=C1NC=O)C1=CC=C(NC=O)C(C)=C1", 
	 "Tm": 541.15, 
	 "num_atms": 36, 
	 "gaussian": { 
		 "optdone": 1, 
		 "sigma_profile": "yes", 
		 "theory": "DFT", 
		 "functional": "B3LYP", 
		 "basiset": "6-31G**", 
		 "properties": { 
			 "R2extent": 10261.0386, 
			 "electric_dipole_moment_norm": 4.19844062123, 
			 "electric_quadrupole_moment_norm": 43.2557404199, 
			 "total_energy": -879.336269656, 
			 "HOMO_LUMO_gap": 0.16826, 
			 "cosmo_polarized_energy": -21.14, 
			 "cosmo_cavitation_energy": 40.24, 
			 "cosmo_dispersion_energy": -28.71, 
			 "cosmo_repulsion_energy": 2.17, 
			 "cosmo_total_nonelectrostatic_energy": 13.71, 
			 "SMD_solvation_energy": 9.4 
		},
		"coords": [
			{
				"x": -0.19971731,
				"y": -4.3836019919,
				"z": -1.2978273878,
				"element": "C" 
			},
			{
				"x": 0.0491227393,
				"y": -2.9944217205,
				"z": -0.7561524701,
				"element": "C" 
			},
			{
				"x": -0.6094771772,
				"y": -1.897310602,
				"z": -1.311163933,
				"element": "C" 
			},
			{
				"x": -0.4254995442,
				"y": -0.5863783537,
				"z": -0.8430408816,
				"element": "C" 
			},
			{
				"x": 0.4617582357,
				"y": -0.4022583872,
				"z": 0.2277163981,
				"element": "C" 
			},
			{
				"x": 1.1350607649,
				"y": -1.4722286222,
				"z": 0.8081777051,
				"element": "C" 
			},
			{
				"x": 0.9352455761,
				"y": -2.7723862557,
				"z": 0.3221911226,
				"element": "C" 
			},
			{
				"x": 1.5977551814,
				"y": -3.8889046623,
				"z": 0.878763334,
				"element": "N" 
			},
			{
				"x": 2.4829424137,
				"y": -3.9401455894,
				"z": 1.9266856095,
				"element": "C" 
			},
			{
				"x": 2.8801062272,
				"y": -3.0047401581,
				"z": 2.5968457448,
				"element": "O" 
			},
			{
				"x": -1.1440253085,
				"y": 0.5540909992,
				"z": -1.4600107477,
				"element": "C" 
			},
			{
				"x": -1.3869975417,
				"y": 0.6046133251,
				"z": -2.8410808849,
				"element": "C" 
			},
			{
				"x": -2.0513917688,
				"y": 1.6844182176,
				"z": -3.4138200967,
				"element": "C" 
			},
			{
				"x": -2.5224761876,
				"y": 2.7350301462,
				"z": -2.6155884971,
				"element": "C" 
			},
			{
				"x": -3.2198994158,
				"y": 3.821854756,
				"z": -3.186386506,
				"element": "N" 
			},
			{
				"x": -4.0580798247,
				"y": 3.7857046502,
				"z": -4.2737034608,
				"element": "C" 
			},
			{
				"x": -4.6110987508,
				"y": 4.767752836,
				"z": -4.7325361345,
				"element": "O" 
			},
			{
				"x": -2.2889201444,
				"y": 2.7166605236,
				"z": -1.2240650224,
				"element": "C" 
			},
			{
				"x": -2.7890974046,
				"y": 3.8336740853,
				"z": -0.339651718,
				"element": "C" 
			},
			{
				"x": -1.6004706589,
				"y": 1.6308752733,
				"z": -0.6815059101,
				"element": "C" 
			},
			{
				"x": 0.7161753165,
				"y": -4.845235426,
				"z": -1.6910621491,
				"element": "H" 
			},
			{
				"x": -0.6088352105,
				"y": -5.0592485582,
				"z": -0.53471453,
				"element": "H" 
			},
			{
				"x": -0.9200243598,
				"y": -4.3541195996,
				"z": -2.1183967565,
				"element": "H" 
			},
			{
				"x": -1.3117385998,
				"y": -2.0755464029,
				"z": -2.1210106332,
				"element": "H" 
			},
			{
				"x": 0.6540516687,
				"y": 0.5990548821,
				"z": 0.6009876407,
				"element": "H" 
			},
			{
				"x": 1.8224503569,
				"y": -1.3177433719,
				"z": 1.6279239162,
				"element": "H" 
			},
			{
				"x": 1.3966832657,
				"y": -4.7810203663,
				"z": 0.4512500115,
				"element": "H" 
			},
			{
				"x": 2.8143757087,
				"y": -4.9822762918,
				"z": 2.1054153831,
				"element": "H" 
			},
			{
				"x": -1.0098024955,
				"y": -0.1846337179,
				"z": -3.4840381049,
				"element": "H" 
			},
			{
				"x": -2.1727309474,
				"y": 1.7284303833,
				"z": -4.4910538149,
				"element": "H" 
			},
			{
				"x": -3.1609137276,
				"y": 4.7275815811,
				"z": -2.7378272226,
				"element": "H" 
			},
			{
				"x": -4.1903299328,
				"y": 2.7664864669,
				"z": -4.6786654545,
				"element": "H" 
			},
			{
				"x": -2.2850663903,
				"y": 4.7863934735,
				"z": -0.5523228847,
				"element": "H" 
			},
			{
				"x": -2.6093782435,
				"y": 3.6050634614,
				"z": 0.7133454664,
				"element": "H" 
			},
			{
				"x": -3.8647113133,
				"y": 4.0006949819,
				"z": -0.469316114,
				"element": "H" 
			},
			{
				"x": -1.4457451969,
				"y": 1.6058200347,
				"z": 0.3936389826,
				"element": "H" 
			}
		],
		 "valence_orbital": [ 
			{
				"type": "occ",
				"energy": -0.26153,
				"method": "rhf"
			},
			{
				"type": "occ",
				"energy": -0.25445,
				"method": "rhf"
			},
			{
				"type": "occ",
				"energy": -0.25216,
				"method": "rhf"
			},
			{
				"type": "occ",
				"energy": -0.24196,
				"method": "rhf"
			},
			{
				"type": "occ",
				"energy": -0.20726,
				"method": "rhf"
			},
			{
				"type": "unocc",
				"energy": -0.039,
				"method": "rhf"
			},
			{
				"type": "unocc",
				"energy": -0.0121,
				"method": "rhf"
			},
			{
				"type": "unocc",
				"energy": -0.00565,
				"method": "rhf"
			},
			{
				"type": "unocc",
				"energy": -0.00333,
				"method": "rhf"
			},
			{
				"type": "unocc",
				"energy": 0.02701,
				"method": "rhf"
			}
		],
		"cosmo_sigma_profile": { 
			"-0.025": 0.0,
			"-0.024": 0.0,
			"-0.023": 0.0,
			"-0.022": 0.0,
			"-0.021": 0.0,
			"-0.02": 0.0,
			"-0.019": 0.0,
			"-0.018": 0.0,
			"-0.017": 0.0,
			"-0.016": 0.0640225590595,
			"-0.015": 1.02052619703,
			"-0.014": 1.43033710024,
			"-0.013": 1.86816240256,
			"-0.012": 2.45468190374,
			"-0.011": 2.46493124096,
			"-0.01": 3.20166875351,
			"-0.009": 3.06882909847,
			"-0.008": 6.70324104911,
			"-0.007": 9.65376149283,
			"-0.006": 11.338840432,
			"-0.005": 25.7473181238,
			"-0.004": 22.1422115586,
			"-0.003": 23.3351448413,
			"-0.002": 21.3218085694,
			"-0.001": 24.8939905035,
			"0.0": 23.9635288146,
			"0.001": 16.8089883994,
			"0.002": 19.7363995026,
			"0.003": 17.3499966207,
			"0.004": 21.3004672667,
			"0.005": 20.579891225,
			"0.006": 5.40587102151,
			"0.007": 3.06485864533,
			"0.008": 3.22385352591,
			"0.009": 2.26222982066,
			"0.01": 2.62472885852,
			"0.011": 5.0142107397,
			"0.012": 7.33994642651,
			"0.013": 8.20916836402,
			"0.014": 2.89892399456,
			"0.015": 0.0809433980275,
			"0.016": 0.0,
			"0.017": 0.0,
			"0.018": 0.0,
			"0.019": 0.0,
			"0.02": 0.0,
			"0.021": 0.0,
			"0.022": 0.0,
			"0.023": 0.0,
			"0.024": 0.0,
			"0.025": 0.0
		}
	}
}
