{
	 "smiles": "OC(=O)C1=CC(=CC=C1)N1NC(=O)C=CC1=O", 
	 "Tm": 586.15, 
	 "num_atms": 25, 
	 "gaussian": { 
		 "optdone": 1, 
		 "sigma_profile": "yes", 
		 "theory": "DFT", 
		 "functional": "B3LYP", 
		 "basiset": "6-31G**", 
		 "properties": { 
			 "R2extent": 5450.9912, 
			 "electric_dipole_moment_norm": 4.53919258349, 
			 "electric_quadrupole_moment_norm": 25.4633085313, 
			 "total_energy": -834.359538242, 
			 "HOMO_LUMO_gap": 0.14612, 
			 "cosmo_polarized_energy": -27.45, 
			 "cosmo_cavitation_energy": 30.83, 
			 "cosmo_dispersion_energy": -22.41, 
			 "cosmo_repulsion_energy": 1.71, 
			 "cosmo_total_nonelectrostatic_energy": 10.13, 
			 "SMD_solvation_energy": 8.04 
		},
		"coords": [
			{
				"x": -4.0281114049,
				"y": -0.4268786791,
				"z": -0.7572199909,
				"element": "O" 
			},
			{
				"x": -2.7002178334,
				"y": -0.3782670175,
				"z": -1.0464656738,
				"element": "C" 
			},
			{
				"x": -2.3336192239,
				"y": -0.2540025999,
				"z": -2.1895360776,
				"element": "O" 
			},
			{
				"x": -1.7532196855,
				"y": -0.4912076343,
				"z": 0.1162376428,
				"element": "C" 
			},
			{
				"x": -0.4391373945,
				"y": -0.8717351846,
				"z": -0.1720582029,
				"element": "C" 
			},
			{
				"x": 0.486823716,
				"y": -1.0074680301,
				"z": 0.8679819443,
				"element": "C" 
			},
			{
				"x": 0.101236338,
				"y": -0.7443455474,
				"z": 2.1916402913,
				"element": "C" 
			},
			{
				"x": -1.2059199417,
				"y": -0.3489240211,
				"z": 2.4673037665,
				"element": "C" 
			},
			{
				"x": -2.1360259915,
				"y": -0.221098214,
				"z": 1.4379176653,
				"element": "C" 
			},
			{
				"x": 1.8173875713,
				"y": -1.4397254353,
				"z": 0.5929789942,
				"element": "N" 
			},
			{
				"x": 2.4263627142,
				"y": -2.1766608899,
				"z": 1.6262996218,
				"element": "N" 
			},
			{
				"x": 3.7501378096,
				"y": -2.5900595291,
				"z": 1.6248172487,
				"element": "C" 
			},
			{
				"x": 4.147389177,
				"y": -3.4037013765,
				"z": 2.4476951653,
				"element": "O" 
			},
			{
				"x": 4.5775868053,
				"y": -1.9817810243,
				"z": 0.5722234756,
				"element": "C" 
			},
			{
				"x": 4.0224104969,
				"y": -1.2407910193,
				"z": -0.3994862635,
				"element": "C" 
			},
			{
				"x": 2.5846600202,
				"y": -0.911867478,
				"z": -0.4508569877,
				"element": "C" 
			},
			{
				"x": 2.0980412777,
				"y": -0.209756099,
				"z": -1.3264902959,
				"element": "O" 
			},
			{
				"x": -4.1637125011,
				"y": -0.6961774976,
				"z": 0.1615406122,
				"element": "H" 
			},
			{
				"x": -0.1562146226,
				"y": -1.0467758093,
				"z": -1.2004126018,
				"element": "H" 
			},
			{
				"x": 0.8273437353,
				"y": -0.8203883807,
				"z": 2.9934059856,
				"element": "H" 
			},
			{
				"x": -1.491172149,
				"y": -0.1235314911,
				"z": 3.4900094568,
				"element": "H" 
			},
			{
				"x": -3.1378168187,
				"y": 0.1297149407,
				"z": 1.6710680378,
				"element": "H" 
			},
			{
				"x": 1.7868698547,
				"y": -2.8016168302,
				"z": 2.1037878305,
				"element": "H" 
			},
			{
				"x": 5.6356050201,
				"y": -2.2186712334,
				"z": 0.6005279914,
				"element": "H" 
			},
			{
				"x": 4.6015130304,
				"y": -0.8141839189,
				"z": -1.2116096359,
				"element": "H" 
			}
		],
		 "valence_orbital": [ 
			{
				"type": "occ",
				"energy": -0.28838,
				"method": "rhf"
			},
			{
				"type": "occ",
				"energy": -0.282,
				"method": "rhf"
			},
			{
				"type": "occ",
				"energy": -0.27968,
				"method": "rhf"
			},
			{
				"type": "occ",
				"energy": -0.27308,
				"method": "rhf"
			},
			{
				"type": "occ",
				"energy": -0.23529,
				"method": "rhf"
			},
			{
				"type": "unocc",
				"energy": -0.08917,
				"method": "rhf"
			},
			{
				"type": "unocc",
				"energy": -0.06135,
				"method": "rhf"
			},
			{
				"type": "unocc",
				"energy": -0.03534,
				"method": "rhf"
			},
			{
				"type": "unocc",
				"energy": 0.00749,
				"method": "rhf"
			},
			{
				"type": "unocc",
				"energy": 0.0383,
				"method": "rhf"
			}
		],
		"cosmo_sigma_profile": { 
			"-0.025": 0.0,
			"-0.024": 0.0,
			"-0.023": 0.0,
			"-0.022": 0.0,
			"-0.021": 0.0,
			"-0.02": 0.0,
			"-0.019": 0.287506478504,
			"-0.018": 1.033769943,
			"-0.017": 1.31291498349,
			"-0.016": 1.68669995445,
			"-0.015": 2.52996369846,
			"-0.014": 1.45058107069,
			"-0.013": 2.54875899826,
			"-0.012": 2.13262092261,
			"-0.011": 1.94934386302,
			"-0.01": 2.4801625096,
			"-0.009": 5.21364593166,
			"-0.008": 8.6143134017,
			"-0.007": 12.6798733735,
			"-0.006": 11.1857408164,
			"-0.005": 13.4721506469,
			"-0.004": 13.1652479462,
			"-0.003": 17.6818507217,
			"-0.002": 15.8616028166,
			"-0.001": 14.9705459508,
			"0.0": 13.1192694851,
			"0.001": 13.2967684329,
			"0.002": 13.4289692878,
			"0.003": 7.55027335696,
			"0.004": 3.75968639492,
			"0.005": 5.13011220695,
			"0.006": 6.35328202953,
			"0.007": 4.65771268928,
			"0.008": 5.20603892526,
			"0.009": 6.41420152279,
			"0.01": 8.54594937203,
			"0.011": 9.84836079638,
			"0.012": 11.9878324245,
			"0.013": 7.85253169561,
			"0.014": 0.702007994425,
			"0.015": 0.0,
			"0.016": 0.0,
			"0.017": 0.0,
			"0.018": 0.0,
			"0.019": 0.0,
			"0.02": 0.0,
			"0.021": 0.0,
			"0.022": 0.0,
			"0.023": 0.0,
			"0.024": 0.0,
			"0.025": 0.0
		}
	}
}
