{
	 "smiles": "CCOC(=O)C1=C2SCC(=O)N2N(C1=N)C1=CC=C(C=C1)[N+]([O-])=O", 
	 "Tm": 419.15, 
	 "num_atms": 36, 
	 "gaussian": { 
		 "optdone": 1, 
		 "sigma_profile": "yes", 
		 "theory": "DFT", 
		 "functional": "B3LYP", 
		 "basiset": "6-31G**", 
		 "properties": { 
			 "R2extent": 12359.9606, 
			 "electric_dipole_moment_norm": 10.0719916367, 
			 "electric_quadrupole_moment_norm": 31.935852616, 
			 "total_energy": -1533.90677542, 
			 "HOMO_LUMO_gap": 0.14807, 
			 "cosmo_polarized_energy": -22.36, 
			 "cosmo_cavitation_energy": 43.33, 
			 "cosmo_dispersion_energy": -31.0, 
			 "cosmo_repulsion_energy": 2.3, 
			 "cosmo_total_nonelectrostatic_energy": 14.63, 
			 "SMD_solvation_energy": 10.09 
		},
		"coords": [
			{
				"x": 2.7542794829,
				"y": 3.6198852162,
				"z": 3.0461913819,
				"element": "C" 
			},
			{
				"x": 1.6519425184,
				"y": 2.5814540908,
				"z": 3.1153433256,
				"element": "C" 
			},
			{
				"x": 1.3325258632,
				"y": 2.1914400716,
				"z": 1.755681134,
				"element": "O" 
			},
			{
				"x": 0.3595995959,
				"y": 1.2614629395,
				"z": 1.6192901736,
				"element": "C" 
			},
			{
				"x": -0.2319416141,
				"y": 0.7516499308,
				"z": 2.5554085074,
				"element": "O" 
			},
			{
				"x": 0.1127523007,
				"y": 0.9451882767,
				"z": 0.2157981479,
				"element": "C" 
			},
			{
				"x": 0.6995908364,
				"y": 1.4804725237,
				"z": -0.8888261121,
				"element": "C" 
			},
			{
				"x": 1.823204859,
				"y": 2.7702996909,
				"z": -1.2322360511,
				"element": "S" 
			},
			{
				"x": 1.4586462659,
				"y": 2.6266679931,
				"z": -3.0377995136,
				"element": "C" 
			},
			{
				"x": 0.3395892185,
				"y": 1.5987258984,
				"z": -3.2323395665,
				"element": "C" 
			},
			{
				"x": -0.2597643471,
				"y": 1.3909794932,
				"z": -4.2600903914,
				"element": "O" 
			},
			{
				"x": 0.1859827929,
				"y": 0.8980363191,
				"z": -2.0334610261,
				"element": "N" 
			},
			{
				"x": -0.8472410753,
				"y": 0.0129153187,
				"z": -1.6881677969,
				"element": "N" 
			},
			{
				"x": -0.899895041,
				"y": -0.023753421,
				"z": -0.2397811442,
				"element": "C" 
			},
			{
				"x": -1.7124170751,
				"y": -0.7764715899,
				"z": 0.3800911842,
				"element": "N" 
			},
			{
				"x": -1.0703818777,
				"y": -1.1336234198,
				"z": -2.4954948685,
				"element": "C" 
			},
			{
				"x": -0.1199942356,
				"y": -1.5787746952,
				"z": -3.4265923888,
				"element": "C" 
			},
			{
				"x": -0.3789384476,
				"y": -2.702815917,
				"z": -4.199825546,
				"element": "C" 
			},
			{
				"x": -1.5833040423,
				"y": -3.3819243458,
				"z": -4.0266677231,
				"element": "C" 
			},
			{
				"x": -2.5332598235,
				"y": -2.9587053351,
				"z": -3.0983976758,
				"element": "C" 
			},
			{
				"x": -2.2812510034,
				"y": -1.8263638826,
				"z": -2.334191127,
				"element": "C" 
			},
			{
				"x": -1.8547292575,
				"y": -4.5703034532,
				"z": -4.8410991531,
				"element": "N" 
			},
			{
				"x": -2.9245534622,
				"y": -5.1538530703,
				"z": -4.6640709567,
				"element": "O" 
			},
			{
				"x": -0.9955935148,
				"y": -4.9157099101,
				"z": -5.6540024102,
				"element": "O" 
			},
			{
				"x": 3.6480003037,
				"y": 3.2119335947,
				"z": 2.5654669815,
				"element": "H" 
			},
			{
				"x": 3.0235767682,
				"y": 3.9380256195,
				"z": 4.0579741049,
				"element": "H" 
			},
			{
				"x": 2.4291606013,
				"y": 4.5004167889,
				"z": 2.4847425287,
				"element": "H" 
			},
			{
				"x": 1.9580714537,
				"y": 1.6894801042,
				"z": 3.6701259147,
				"element": "H" 
			},
			{
				"x": 0.7455041232,
				"y": 2.9711891882,
				"z": 3.5882242821,
				"element": "H" 
			},
			{
				"x": 2.3500129583,
				"y": 2.30797162,
				"z": -3.5842403533,
				"element": "H" 
			},
			{
				"x": 1.1311573045,
				"y": 3.5905286135,
				"z": -3.431398829,
				"element": "H" 
			},
			{
				"x": -1.5717361455,
				"y": -0.659583572,
				"z": 1.385007823,
				"element": "H" 
			},
			{
				"x": 0.8221561779,
				"y": -1.0587181789,
				"z": -3.5432069634,
				"element": "H" 
			},
			{
				"x": 0.338463332,
				"y": -3.0663784337,
				"z": -4.9243650408,
				"element": "H" 
			},
			{
				"x": -3.4582721239,
				"y": -3.51125522,
				"z": -2.9934632657,
				"element": "H" 
			},
			{
				"x": -2.99794367,
				"y": -1.4813888471,
				"z": -1.6024275863,
				"element": "H" 
			}
		],
		 "valence_orbital": [ 
			{
				"type": "occ",
				"energy": -0.28229,
				"method": "rhf"
			},
			{
				"type": "occ",
				"energy": -0.28042,
				"method": "rhf"
			},
			{
				"type": "occ",
				"energy": -0.26955,
				"method": "rhf"
			},
			{
				"type": "occ",
				"energy": -0.25869,
				"method": "rhf"
			},
			{
				"type": "occ",
				"energy": -0.23122,
				"method": "rhf"
			},
			{
				"type": "unocc",
				"energy": -0.08315,
				"method": "rhf"
			},
			{
				"type": "unocc",
				"energy": -0.07582,
				"method": "rhf"
			},
			{
				"type": "unocc",
				"energy": -0.02745,
				"method": "rhf"
			},
			{
				"type": "unocc",
				"energy": -0.02247,
				"method": "rhf"
			},
			{
				"type": "unocc",
				"energy": -0.01856,
				"method": "rhf"
			}
		],
		"cosmo_sigma_profile": { 
			"-0.025": 0.0,
			"-0.024": 0.0,
			"-0.023": 0.0,
			"-0.022": 0.0,
			"-0.021": 0.0,
			"-0.02": 0.0,
			"-0.019": 0.0,
			"-0.018": 0.0,
			"-0.017": 0.0,
			"-0.016": 0.0,
			"-0.015": 0.0,
			"-0.014": 0.0,
			"-0.013": 0.0,
			"-0.012": 0.0,
			"-0.011": 0.780955293852,
			"-0.01": 7.17020611875,
			"-0.009": 8.89584735267,
			"-0.008": 9.71176318417,
			"-0.007": 11.4646320799,
			"-0.006": 14.489273593,
			"-0.005": 19.2290458897,
			"-0.004": 24.1353564766,
			"-0.003": 25.0561207099,
			"-0.002": 28.7089099426,
			"-0.001": 27.9095017498,
			"0.0": 27.5524386217,
			"0.001": 24.7248953197,
			"0.002": 18.4965127522,
			"0.003": 16.1517597146,
			"0.004": 11.2961768717,
			"0.005": 6.86164082562,
			"0.006": 9.57891355142,
			"0.007": 12.1022654191,
			"0.008": 13.0906102828,
			"0.009": 10.8553389467,
			"0.01": 11.546121217,
			"0.011": 5.88060078996,
			"0.012": 2.769621837,
			"0.013": 0.954479729455,
			"0.014": 0.0246288219674,
			"0.015": 0.0,
			"0.016": 0.0,
			"0.017": 0.0,
			"0.018": 0.0,
			"0.019": 0.0,
			"0.02": 0.0,
			"0.021": 0.0,
			"0.022": 0.0,
			"0.023": 0.0,
			"0.024": 0.0,
			"0.025": 0.0
		}
	}
}
