{
	 "smiles": "COC(=O)C1=C(OC)C=C(NC(C)=O)C(Cl)=C1", 
	 "Tm": 428.15, 
	 "num_atms": 29, 
	 "gaussian": { 
		 "optdone": 1, 
		 "sigma_profile": "yes", 
		 "theory": "DFT", 
		 "functional": "B3LYP", 
		 "basiset": "6-31G**", 
		 "properties": { 
			 "R2extent": 5758.3601, 
			 "electric_dipole_moment_norm": 5.45767880605, 
			 "electric_quadrupole_moment_norm": 19.1537347071, 
			 "total_energy": -1242.24653267, 
			 "HOMO_LUMO_gap": 0.1757, 
			 "cosmo_polarized_energy": -17.63, 
			 "cosmo_cavitation_energy": 35.46, 
			 "cosmo_dispersion_energy": -24.98, 
			 "cosmo_repulsion_energy": 1.97, 
			 "cosmo_total_nonelectrostatic_energy": 12.45, 
			 "SMD_solvation_energy": 9.37 
		},
		"coords": [
			{
				"x": 1.4725951106,
				"y": 0.7135759054,
				"z": -4.2052897323,
				"element": "C" 
			},
			{
				"x": 1.3152065897,
				"y": 0.3156115156,
				"z": -2.8335111028,
				"element": "O" 
			},
			{
				"x": 0.068674535,
				"y": 0.4425106533,
				"z": -2.3474428115,
				"element": "C" 
			},
			{
				"x": -0.8606097208,
				"y": 0.862275553,
				"z": -3.0135214979,
				"element": "O" 
			},
			{
				"x": -0.0862589004,
				"y": 0.0283948456,
				"z": -0.916168207,
				"element": "C" 
			},
			{
				"x": 0.9248287694,
				"y": -0.4901729813,
				"z": -0.066679488,
				"element": "C" 
			},
			{
				"x": 2.1717652363,
				"y": -0.6473137756,
				"z": -0.5657098662,
				"element": "O" 
			},
			{
				"x": 3.1938789342,
				"y": -1.1652520815,
				"z": 0.275996903,
				"element": "C" 
			},
			{
				"x": 0.5899467608,
				"y": -0.8343814704,
				"z": 1.2498511733,
				"element": "C" 
			},
			{
				"x": -0.7042196171,
				"y": -0.6688610974,
				"z": 1.7589654276,
				"element": "C" 
			},
			{
				"x": -0.9535195949,
				"y": -1.0039414725,
				"z": 3.1127357663,
				"element": "N" 
			},
			{
				"x": -1.6571347972,
				"y": -2.0866669424,
				"z": 3.6268395885,
				"element": "C" 
			},
			{
				"x": -2.3244993209,
				"y": -3.0140136127,
				"z": 2.6310440091,
				"element": "C" 
			},
			{
				"x": -1.7049106109,
				"y": -2.2582198783,
				"z": 4.8337003604,
				"element": "O" 
			},
			{
				"x": -1.6900766161,
				"y": -0.1321207345,
				"z": 0.9153721037,
				"element": "C" 
			},
			{
				"x": -3.3098867596,
				"y": 0.1879108068,
				"z": 1.503327767,
				"element": "Cl" 
			},
			{
				"x": -1.3752666632,
				"y": 0.1937665554,
				"z": -0.3976959264,
				"element": "C" 
			},
			{
				"x": 2.5247924169,
				"y": 0.5482594575,
				"z": -4.4360956138,
				"element": "H" 
			},
			{
				"x": 1.2102858598,
				"y": 1.7666020449,
				"z": -4.33405991,
				"element": "H" 
			},
			{
				"x": 0.8353338081,
				"y": 0.1111465685,
				"z": -4.8573719732,
				"element": "H" 
			},
			{
				"x": 4.0949276464,
				"y": -1.1880554767,
				"z": -0.3375867504,
				"element": "H" 
			},
			{
				"x": 2.9615404194,
				"y": -2.1821154985,
				"z": 0.6155142849,
				"element": "H" 
			},
			{
				"x": 3.3652182431,
				"y": -0.5211547938,
				"z": 1.1471702742,
				"element": "H" 
			},
			{
				"x": 1.3317664462,
				"y": -1.2586183881,
				"z": 1.9141281656,
				"element": "H" 
			},
			{
				"x": -0.4536143399,
				"y": -0.4874571255,
				"z": 3.8263021498,
				"element": "H" 
			},
			{
				"x": -2.5669974878,
				"y": -3.9413841995,
				"z": 3.1497120585,
				"element": "H" 
			},
			{
				"x": -1.6854788093,
				"y": -3.2237778849,
				"z": 1.7687279755,
				"element": "H" 
			},
			{
				"x": -3.2500517406,
				"y": -2.5640447621,
				"z": 2.2598263281,
				"element": "H" 
			},
			{
				"x": -2.129735797,
				"y": 0.6066982697,
				"z": -1.0564814559,
				"element": "H" 
			}
		],
		 "valence_orbital": [ 
			{
				"type": "occ",
				"energy": -0.28691,
				"method": "rhf"
			},
			{
				"type": "occ",
				"energy": -0.28041,
				"method": "rhf"
			},
			{
				"type": "occ",
				"energy": -0.26056,
				"method": "rhf"
			},
			{
				"type": "occ",
				"energy": -0.25111,
				"method": "rhf"
			},
			{
				"type": "occ",
				"energy": -0.23687,
				"method": "rhf"
			},
			{
				"type": "unocc",
				"energy": -0.06117,
				"method": "rhf"
			},
			{
				"type": "unocc",
				"energy": -0.01737,
				"method": "rhf"
			},
			{
				"type": "unocc",
				"energy": 0.02175,
				"method": "rhf"
			},
			{
				"type": "unocc",
				"energy": 0.02433,
				"method": "rhf"
			},
			{
				"type": "unocc",
				"energy": 0.04229,
				"method": "rhf"
			}
		],
		"cosmo_sigma_profile": { 
			"-0.025": 0.0,
			"-0.024": 0.0,
			"-0.023": 0.0,
			"-0.022": 0.0,
			"-0.021": 0.0,
			"-0.02": 0.0,
			"-0.019": 0.0,
			"-0.018": 0.0,
			"-0.017": 0.0,
			"-0.016": 0.0,
			"-0.015": 0.260694660488,
			"-0.014": 1.06090711082,
			"-0.013": 1.11783902603,
			"-0.012": 1.12459778858,
			"-0.011": 0.854454676701,
			"-0.01": 1.11009021345,
			"-0.009": 1.22181312956,
			"-0.008": 2.90255812407,
			"-0.007": 6.42305365134,
			"-0.006": 16.3098804732,
			"-0.005": 20.9330148585,
			"-0.004": 23.9173731475,
			"-0.003": 29.3785462949,
			"-0.002": 24.0008985679,
			"-0.001": 22.1608504887,
			"0.0": 23.5330207878,
			"0.001": 22.2766402587,
			"0.002": 12.5947937159,
			"0.003": 10.2826586461,
			"0.004": 12.1277118866,
			"0.005": 7.95456026469,
			"0.006": 3.2919768523,
			"0.007": 4.36556554232,
			"0.008": 3.79254539249,
			"0.009": 3.71646971259,
			"0.01": 5.37171505099,
			"0.011": 5.21114358914,
			"0.012": 7.44348238322,
			"0.013": 6.34369015842,
			"0.014": 2.7480405655,
			"0.015": 0.1901905305,
			"0.016": 0.0,
			"0.017": 0.0,
			"0.018": 0.0,
			"0.019": 0.0,
			"0.02": 0.0,
			"0.021": 0.0,
			"0.022": 0.0,
			"0.023": 0.0,
			"0.024": 0.0,
			"0.025": 0.0
		}
	}
}
