{
	 "smiles": "CC(C)(C)C1=CC=C(C=C1)N1CCC(=O)CC1", 
	 "Tm": 343.15, 
	 "num_atms": 38, 
	 "gaussian": { 
		 "optdone": 1, 
		 "sigma_profile": "yes", 
		 "theory": "DFT", 
		 "functional": "B3LYP", 
		 "basiset": "6-31G**", 
		 "properties": { 
			 "R2extent": 7374.1746, 
			 "electric_dipole_moment_norm": 1.42170719911, 
			 "electric_quadrupole_moment_norm": 16.7073569475, 
			 "total_energy": -714.233106204, 
			 "HOMO_LUMO_gap": 0.16558, 
			 "cosmo_polarized_energy": -10.4, 
			 "cosmo_cavitation_energy": 37.8, 
			 "cosmo_dispersion_energy": -27.14, 
			 "cosmo_repulsion_energy": 2.09, 
			 "cosmo_total_nonelectrostatic_energy": 12.75, 
			 "SMD_solvation_energy": 5.84 
		},
		"coords": [
			{
				"x": 4.3624778831,
				"y": -0.8478732942,
				"z": -0.3538937464,
				"element": "C" 
			},
			{
				"x": 3.5748678287,
				"y": -0.6832571992,
				"z": 0.9678179454,
				"element": "C" 
			},
			{
				"x": 3.3203428078,
				"y": -2.0861327936,
				"z": 1.5511380505,
				"element": "C" 
			},
			{
				"x": 4.4380912139,
				"y": 0.1084416206,
				"z": 1.979076969,
				"element": "C" 
			},
			{
				"x": 2.2665342321,
				"y": 0.079784022,
				"z": 0.6974575592,
				"element": "C" 
			},
			{
				"x": 0.9958309475,
				"y": -0.4469396438,
				"z": 0.9585534699,
				"element": "C" 
			},
			{
				"x": -0.1757060152,
				"y": 0.2645422823,
				"z": 0.6994223797,
				"element": "C" 
			},
			{
				"x": -0.1343391971,
				"y": 1.5672384715,
				"z": 0.1645854552,
				"element": "C" 
			},
			{
				"x": 1.143369195,
				"y": 2.1090436718,
				"z": -0.096570531,
				"element": "C" 
			},
			{
				"x": 2.2973251783,
				"y": 1.377424924,
				"z": 0.1612163133,
				"element": "C" 
			},
			{
				"x": -1.2970923845,
				"y": 2.2901310219,
				"z": -0.0929140078,
				"element": "N" 
			},
			{
				"x": -1.2658010532,
				"y": 3.4589069105,
				"z": -0.9669437573,
				"element": "C" 
			},
			{
				"x": -2.6171907077,
				"y": 3.6855550098,
				"z": -1.6579628358,
				"element": "C" 
			},
			{
				"x": -3.7683857287,
				"y": 3.7964668949,
				"z": -0.669759027,
				"element": "C" 
			},
			{
				"x": -4.7835795224,
				"y": 4.4204887012,
				"z": -0.9043544753,
				"element": "O" 
			},
			{
				"x": -3.5351668484,
				"y": 3.0561106039,
				"z": 0.6387315992,
				"element": "C" 
			},
			{
				"x": -2.5708131972,
				"y": 1.872747439,
				"z": 0.483928775,
				"element": "C" 
			},
			{
				"x": 5.3030245983,
				"y": -1.3828549384,
				"z": -0.1777535385,
				"element": "H" 
			},
			{
				"x": 4.6094501237,
				"y": 0.1193379506,
				"z": -0.8021149091,
				"element": "H" 
			},
			{
				"x": 3.7803215021,
				"y": -1.4155355004,
				"z": -1.0873421772,
				"element": "H" 
			},
			{
				"x": 2.7893413938,
				"y": -2.0390206865,
				"z": 2.5077336619,
				"element": "H" 
			},
			{
				"x": 4.2749902403,
				"y": -2.5924194139,
				"z": 1.7284268561,
				"element": "H" 
			},
			{
				"x": 2.7372846376,
				"y": -2.711708246,
				"z": 0.8670549798,
				"element": "H" 
			},
			{
				"x": 4.6866058664,
				"y": 1.1067979546,
				"z": 1.6063375497,
				"element": "H" 
			},
			{
				"x": 5.3798575279,
				"y": -0.417087826,
				"z": 2.1759860441,
				"element": "H" 
			},
			{
				"x": 3.9109955438,
				"y": 0.2303763987,
				"z": 2.9311137479,
				"element": "H" 
			},
			{
				"x": 0.893966963,
				"y": -1.4469845352,
				"z": 1.365784396,
				"element": "H" 
			},
			{
				"x": -1.1268379721,
				"y": -0.2183512573,
				"z": 0.8930809586,
				"element": "H" 
			},
			{
				"x": 1.2425811341,
				"y": 3.1192107256,
				"z": -0.4776437663,
				"element": "H" 
			},
			{
				"x": 3.2524179506,
				"y": 1.8486329974,
				"z": -0.0553623008,
				"element": "H" 
			},
			{
				"x": -0.5019109279,
				"y": 3.303863259,
				"z": -1.7355070457,
				"element": "H" 
			},
			{
				"x": -0.9775470197,
				"y": 4.372404604,
				"z": -0.4194089717,
				"element": "H" 
			},
			{
				"x": -2.8358277356,
				"y": 2.8331040681,
				"z": -2.3168272421,
				"element": "H" 
			},
			{
				"x": -2.5976517821,
				"y": 4.5800665703,
				"z": -2.286657882,
				"element": "H" 
			},
			{
				"x": -4.4983841609,
				"y": 2.7343141588,
				"z": 1.0443158291,
				"element": "H" 
			},
			{
				"x": -3.1116050111,
				"y": 3.7794320231,
				"z": 1.349996694,
				"element": "H" 
			},
			{
				"x": -3.054104541,
				"y": 1.0823955746,
				"z": -0.1157751168,
				"element": "H" 
			},
			{
				"x": -2.384032963,
				"y": 1.4409474764,
				"z": 1.472432097,
				"element": "H" 
			}
		],
		 "valence_orbital": [ 
			{
				"type": "occ",
				"energy": -0.30855,
				"method": "rhf"
			},
			{
				"type": "occ",
				"energy": -0.27257,
				"method": "rhf"
			},
			{
				"type": "occ",
				"energy": -0.24553,
				"method": "rhf"
			},
			{
				"type": "occ",
				"energy": -0.24121,
				"method": "rhf"
			},
			{
				"type": "occ",
				"energy": -0.18652,
				"method": "rhf"
			},
			{
				"type": "unocc",
				"energy": -0.02094,
				"method": "rhf"
			},
			{
				"type": "unocc",
				"energy": 0.00508,
				"method": "rhf"
			},
			{
				"type": "unocc",
				"energy": 0.02137,
				"method": "rhf"
			},
			{
				"type": "unocc",
				"energy": 0.07252,
				"method": "rhf"
			},
			{
				"type": "unocc",
				"energy": 0.08496,
				"method": "rhf"
			}
		],
		"cosmo_sigma_profile": { 
			"-0.025": 0.0,
			"-0.024": 0.0,
			"-0.023": 0.0,
			"-0.022": 0.0,
			"-0.021": 0.0,
			"-0.02": 0.0,
			"-0.019": 0.0,
			"-0.018": 0.0,
			"-0.017": 0.0,
			"-0.016": 0.0,
			"-0.015": 0.0,
			"-0.014": 0.0,
			"-0.013": 0.0,
			"-0.012": 0.0,
			"-0.011": 0.0,
			"-0.01": 0.0,
			"-0.009": 0.0,
			"-0.008": 0.0,
			"-0.007": 2.79196028621,
			"-0.006": 8.91875497054,
			"-0.005": 18.4620438276,
			"-0.004": 32.2234550769,
			"-0.003": 34.4690456289,
			"-0.002": 37.3536863796,
			"-0.001": 26.3464490327,
			"0.0": 23.3176076616,
			"0.001": 26.0658826363,
			"0.002": 21.9958285908,
			"0.003": 7.87052344079,
			"0.004": 8.04046237465,
			"0.005": 9.27075866227,
			"0.006": 8.65078583945,
			"0.007": 8.3015667701,
			"0.008": 5.89930734441,
			"0.009": 1.67954549035,
			"0.01": 2.0395393662,
			"0.011": 3.2256839735,
			"0.012": 4.78891995872,
			"0.013": 2.5944793728,
			"0.014": 0.336881533734,
			"0.015": 0.0,
			"0.016": 0.0,
			"0.017": 0.0,
			"0.018": 0.0,
			"0.019": 0.0,
			"0.02": 0.0,
			"0.021": 0.0,
			"0.022": 0.0,
			"0.023": 0.0,
			"0.024": 0.0,
			"0.025": 0.0
		}
	}
}
