{
	 "smiles": "OC(=O)C1=CC=C(CN2CCCC2=O)C=C1", 
	 "Tm": 425.15, 
	 "num_atms": 29, 
	 "gaussian": { 
		 "optdone": 1, 
		 "sigma_profile": "yes", 
		 "theory": "DFT", 
		 "functional": "B3LYP", 
		 "basiset": "6-31G**", 
		 "properties": { 
			 "R2extent": 5851.703, 
			 "electric_dipole_moment_norm": 5.24939217053, 
			 "electric_quadrupole_moment_norm": 26.5247571793, 
			 "total_energy": -745.566890185, 
			 "HOMO_LUMO_gap": 0.19154, 
			 "cosmo_polarized_energy": -21.04, 
			 "cosmo_cavitation_energy": 32.9, 
			 "cosmo_dispersion_energy": -23.38, 
			 "cosmo_repulsion_energy": 1.83, 
			 "cosmo_total_nonelectrostatic_energy": 11.36, 
			 "SMD_solvation_energy": 6.97 
		},
		"coords": [
			{
				"x": 0.9640587007,
				"y": 1.3855042375,
				"z": 3.7976035038,
				"element": "O" 
			},
			{
				"x": 1.3538477195,
				"y": 1.2325260256,
				"z": 2.502592807,
				"element": "C" 
			},
			{
				"x": 2.5151508117,
				"y": 1.3777106041,
				"z": 2.2010502837,
				"element": "O" 
			},
			{
				"x": 0.2831034022,
				"y": 0.8852609554,
				"z": 1.5131904058,
				"element": "C" 
			},
			{
				"x": 0.6778639466,
				"y": 0.3059669467,
				"z": 0.2978731138,
				"element": "C" 
			},
			{
				"x": -0.268921172,
				"y": -0.0309239569,
				"z": -0.6616709122,
				"element": "C" 
			},
			{
				"x": -1.632187783,
				"y": 0.2207241186,
				"z": -0.4426935232,
				"element": "C" 
			},
			{
				"x": -2.6642241896,
				"y": -0.1693415655,
				"z": -1.4855316208,
				"element": "C" 
			},
			{
				"x": -2.3388767297,
				"y": 0.2899611104,
				"z": -2.821620197,
				"element": "N" 
			},
			{
				"x": -2.3733548677,
				"y": 1.6953689614,
				"z": -3.2101953168,
				"element": "C" 
			},
			{
				"x": -1.7762307167,
				"y": 1.6790996753,
				"z": -4.6345091874,
				"element": "C" 
			},
			{
				"x": -2.0845321775,
				"y": 0.2637324478,
				"z": -5.1499495072,
				"element": "C" 
			},
			{
				"x": -2.2253382074,
				"y": -0.5806810484,
				"z": -3.8834101284,
				"element": "C" 
			},
			{
				"x": -2.2562584793,
				"y": -1.7986169145,
				"z": -3.8027655913,
				"element": "O" 
			},
			{
				"x": -2.0205451119,
				"y": 0.8215805087,
				"z": 0.7587776947,
				"element": "C" 
			},
			{
				"x": -1.0753166567,
				"y": 1.1475718067,
				"z": 1.7315292628,
				"element": "C" 
			},
			{
				"x": 0.0553293694,
				"y": 1.0743487186,
				"z": 3.9102991809,
				"element": "H" 
			},
			{
				"x": 1.7345141861,
				"y": 0.1252434602,
				"z": 0.1319642731,
				"element": "H" 
			},
			{
				"x": 0.0426915805,
				"y": -0.4923004715,
				"z": -1.5942512863,
				"element": "H" 
			},
			{
				"x": -3.6514757609,
				"y": 0.2097646222,
				"z": -1.1863120913,
				"element": "H" 
			},
			{
				"x": -2.7354856154,
				"y": -1.2605537731,
				"z": -1.5606384986,
				"element": "H" 
			},
			{
				"x": -1.7892430784,
				"y": 2.3067513301,
				"z": -2.5146987117,
				"element": "H" 
			},
			{
				"x": -3.4070800255,
				"y": 2.0753801922,
				"z": -3.2022770627,
				"element": "H" 
			},
			{
				"x": -2.1897526787,
				"y": 2.4724802271,
				"z": -5.2611074582,
				"element": "H" 
			},
			{
				"x": -0.693711675,
				"y": 1.8293756587,
				"z": -4.5774261787,
				"element": "H" 
			},
			{
				"x": -3.0388091351,
				"y": 0.2171346358,
				"z": -5.68904,
				"element": "H" 
			},
			{
				"x": -1.3200429471,
				"y": -0.1561695088,
				"z": -5.8069271515,
				"element": "H" 
			},
			{
				"x": -3.0700320928,
				"y": 1.0437632866,
				"z": 0.9342233925,
				"element": "H" 
			},
			{
				"x": -1.4075406165,
				"y": 1.6498377091,
				"z": 2.6372205052,
				"element": "H" 
			}
		],
		 "valence_orbital": [ 
			{
				"type": "occ",
				"energy": -0.27794,
				"method": "rhf"
			},
			{
				"type": "occ",
				"energy": -0.27381,
				"method": "rhf"
			},
			{
				"type": "occ",
				"energy": -0.26546,
				"method": "rhf"
			},
			{
				"type": "occ",
				"energy": -0.2533,
				"method": "rhf"
			},
			{
				"type": "occ",
				"energy": -0.24508,
				"method": "rhf"
			},
			{
				"type": "unocc",
				"energy": -0.05354,
				"method": "rhf"
			},
			{
				"type": "unocc",
				"energy": -0.02506,
				"method": "rhf"
			},
			{
				"type": "unocc",
				"energy": 0.02334,
				"method": "rhf"
			},
			{
				"type": "unocc",
				"energy": 0.04336,
				"method": "rhf"
			},
			{
				"type": "unocc",
				"energy": 0.06135,
				"method": "rhf"
			}
		],
		"cosmo_sigma_profile": { 
			"-0.025": 0.0,
			"-0.024": 0.0,
			"-0.023": 0.0,
			"-0.022": 0.0,
			"-0.021": 0.0,
			"-0.02": 0.0,
			"-0.019": 0.0623428150955,
			"-0.018": 0.897639231038,
			"-0.017": 0.897491089902,
			"-0.016": 0.84817121154,
			"-0.015": 1.15111460076,
			"-0.014": 1.41075741,
			"-0.013": 0.535790005675,
			"-0.012": 0.961144194065,
			"-0.011": 1.08875686926,
			"-0.01": 1.13277514251,
			"-0.009": 1.42628698024,
			"-0.008": 1.60388631114,
			"-0.007": 4.428556905,
			"-0.006": 10.7833521572,
			"-0.005": 18.5696171558,
			"-0.004": 28.9668013618,
			"-0.003": 30.7735493427,
			"-0.002": 26.853304036,
			"-0.001": 20.1369016158,
			"0.0": 14.4677991643,
			"0.001": 10.7929152042,
			"0.002": 11.24063925,
			"0.003": 14.54828552,
			"0.004": 5.43123342228,
			"0.005": 4.87504753978,
			"0.006": 3.60142436576,
			"0.007": 2.98900318483,
			"0.008": 3.992194423,
			"0.009": 5.67477357522,
			"0.01": 4.83654563625,
			"0.011": 6.69079079278,
			"0.012": 6.7205110455,
			"0.013": 5.62426516284,
			"0.014": 5.18075835205,
			"0.015": 1.43660659618,
			"0.016": 0.0177296035204,
			"0.017": 0.0,
			"0.018": 0.0,
			"0.019": 0.0,
			"0.02": 0.0,
			"0.021": 0.0,
			"0.022": 0.0,
			"0.023": 0.0,
			"0.024": 0.0,
			"0.025": 0.0
		}
	}
}
