{
	 "smiles": "CCCCCCCCOC(=O)C1=CC=C(O)C=C1", 
	 "Tm": 325.15, 
	 "num_atms": 40, 
	 "gaussian": { 
		 "optdone": 1, 
		 "sigma_profile": "yes", 
		 "theory": "DFT", 
		 "functional": "B3LYP", 
		 "basiset": "6-31G**", 
		 "properties": { 
			 "R2extent": 9818.2902, 
			 "electric_dipole_moment_norm": 1.34419594182, 
			 "electric_quadrupole_moment_norm": 17.4907346152, 
			 "total_energy": -810.564824007, 
			 "HOMO_LUMO_gap": 0.1979, 
			 "cosmo_polarized_energy": -11.99, 
			 "cosmo_cavitation_energy": 42.66, 
			 "cosmo_dispersion_energy": -29.64, 
			 "cosmo_repulsion_energy": 2.35, 
			 "cosmo_total_nonelectrostatic_energy": 15.37, 
			 "SMD_solvation_energy": 7.7 
		},
		"coords": [
			{
				"x": 1.3715464927,
				"y": 1.9529808943,
				"z": 4.7753985959,
				"element": "C" 
			},
			{
				"x": 0.2282022293,
				"y": 0.9338539486,
				"z": 4.8453043352,
				"element": "C" 
			},
			{
				"x": -1.1179958668,
				"y": 1.452497287,
				"z": 4.308654158,
				"element": "C" 
			},
			{
				"x": -1.1449281479,
				"y": 1.8367179554,
				"z": 2.8184918899,
				"element": "C" 
			},
			{
				"x": -0.8869698911,
				"y": 0.6648654473,
				"z": 1.8589966121,
				"element": "C" 
			},
			{
				"x": -1.0801863798,
				"y": 1.0041434395,
				"z": 0.3718655182,
				"element": "C" 
			},
			{
				"x": -0.0690188133,
				"y": 2.0177924551,
				"z": -0.1817765044,
				"element": "C" 
			},
			{
				"x": -0.2195251392,
				"y": 2.2825339445,
				"z": -1.677392286,
				"element": "C" 
			},
			{
				"x": -0.0429066456,
				"y": 1.079904534,
				"z": -2.4622170836,
				"element": "O" 
			},
			{
				"x": 1.230420565,
				"y": 0.7615562111,
				"z": -2.803528846,
				"element": "C" 
			},
			{
				"x": 2.1968034002,
				"y": 1.4321603515,
				"z": -2.4872732609,
				"element": "O" 
			},
			{
				"x": 1.3044595764,
				"y": -0.4859162917,
				"z": -3.6051198008,
				"element": "C" 
			},
			{
				"x": 2.5679690102,
				"y": -0.9267018065,
				"z": -4.0212349779,
				"element": "C" 
			},
			{
				"x": 2.7010286112,
				"y": -2.0865271215,
				"z": -4.774935599,
				"element": "C" 
			},
			{
				"x": 1.5611051617,
				"y": -2.8242227111,
				"z": -5.1230766448,
				"element": "C" 
			},
			{
				"x": 1.6243640202,
				"y": -3.9679016258,
				"z": -5.8586169255,
				"element": "O" 
			},
			{
				"x": 0.2921615308,
				"y": -2.3930234797,
				"z": -4.7124538058,
				"element": "C" 
			},
			{
				"x": 0.1689347995,
				"y": -1.2327008367,
				"z": -3.9598294775,
				"element": "C" 
			},
			{
				"x": 2.2836088481,
				"y": 1.5536024349,
				"z": 5.2311394777,
				"element": "H" 
			},
			{
				"x": 1.1113218546,
				"y": 2.8758203464,
				"z": 5.3072574548,
				"element": "H" 
			},
			{
				"x": 1.6154182743,
				"y": 2.2250381981,
				"z": 3.7431351937,
				"element": "H" 
			},
			{
				"x": 0.085760564,
				"y": 0.629487588,
				"z": 5.8902062317,
				"element": "H" 
			},
			{
				"x": 0.5180665319,
				"y": 0.0223269733,
				"z": 4.3072682805,
				"element": "H" 
			},
			{
				"x": -1.8864749527,
				"y": 0.6879026346,
				"z": 4.4882674382,
				"element": "H" 
			},
			{
				"x": -1.4169627529,
				"y": 2.3277893044,
				"z": 4.9018568696,
				"element": "H" 
			},
			{
				"x": -2.1309030652,
				"y": 2.2656778767,
				"z": 2.5908763092,
				"element": "H" 
			},
			{
				"x": -0.4206022123,
				"y": 2.6397199086,
				"z": 2.6336380998,
				"element": "H" 
			},
			{
				"x": -1.5651022777,
				"y": -0.1590265251,
				"z": 2.1210179454,
				"element": "H" 
			},
			{
				"x": 0.1300655139,
				"y": 0.276945378,
				"z": 2.0049999064,
				"element": "H" 
			},
			{
				"x": -2.0995451738,
				"y": 1.3868564096,
				"z": 0.2157265948,
				"element": "H" 
			},
			{
				"x": -1.0069560814,
				"y": 0.0820496981,
				"z": -0.2165339296,
				"element": "H" 
			},
			{
				"x": -0.1759198285,
				"y": 2.984248254,
				"z": 0.327445679,
				"element": "H" 
			},
			{
				"x": 0.9553255634,
				"y": 1.6766157917,
				"z": 0.0099296655,
				"element": "H" 
			},
			{
				"x": 0.5030125738,
				"y": 3.0295875397,
				"z": -2.0136703175,
				"element": "H" 
			},
			{
				"x": -1.232316747,
				"y": 2.6175467943,
				"z": -1.9198602329,
				"element": "H" 
			},
			{
				"x": 3.4381240531,
				"y": -0.3421317647,
				"z": -3.7424069666,
				"element": "H" 
			},
			{
				"x": 3.685101477,
				"y": -2.4228895697,
				"z": -5.0947012306,
				"element": "H" 
			},
			{
				"x": 2.5462935549,
				"y": -4.1563622126,
				"z": -6.0785065403,
				"element": "H" 
			},
			{
				"x": -0.5757693822,
				"y": -2.9797147507,
				"z": -4.9939779676,
				"element": "H" 
			},
			{
				"x": -0.8105108489,
				"y": -0.8953029027,
				"z": -3.6410638584,
				"element": "H" 
			}
		],
		 "valence_orbital": [ 
			{
				"type": "occ",
				"energy": -0.30315,
				"method": "rhf"
			},
			{
				"type": "occ",
				"energy": -0.28929,
				"method": "rhf"
			},
			{
				"type": "occ",
				"energy": -0.26632,
				"method": "rhf"
			},
			{
				"type": "occ",
				"energy": -0.26051,
				"method": "rhf"
			},
			{
				"type": "occ",
				"energy": -0.23146,
				"method": "rhf"
			},
			{
				"type": "unocc",
				"energy": -0.03356,
				"method": "rhf"
			},
			{
				"type": "unocc",
				"energy": -0.00859,
				"method": "rhf"
			},
			{
				"type": "unocc",
				"energy": 0.06282,
				"method": "rhf"
			},
			{
				"type": "unocc",
				"energy": 0.06885,
				"method": "rhf"
			},
			{
				"type": "unocc",
				"energy": 0.08308,
				"method": "rhf"
			}
		],
		"cosmo_sigma_profile": { 
			"-0.025": 0.0,
			"-0.024": 0.0,
			"-0.023": 0.0,
			"-0.022": 0.0,
			"-0.021": 0.0,
			"-0.02": 0.0,
			"-0.019": 0.135868044822,
			"-0.018": 1.00197228361,
			"-0.017": 0.992144898522,
			"-0.016": 0.904550266384,
			"-0.015": 1.32732604486,
			"-0.014": 1.43928312882,
			"-0.013": 0.48536686523,
			"-0.012": 0.552357693955,
			"-0.011": 1.15366549049,
			"-0.01": 1.38423294031,
			"-0.009": 1.2360231592,
			"-0.008": 1.46024503473,
			"-0.007": 2.24004751492,
			"-0.006": 5.4680039234,
			"-0.005": 9.87365160614,
			"-0.004": 12.5154842548,
			"-0.003": 17.0645593216,
			"-0.002": 37.2700788903,
			"-0.001": 47.1959910858,
			"0.0": 52.3071515257,
			"0.001": 45.0376365798,
			"0.002": 28.0127188741,
			"0.003": 17.2578167879,
			"0.004": 16.3833203144,
			"0.005": 5.03631261288,
			"0.006": 4.36203540374,
			"0.007": 3.18427626747,
			"0.008": 2.41798879677,
			"0.009": 3.68566127178,
			"0.01": 2.69666676,
			"0.011": 3.61051885206,
			"0.012": 3.90715197041,
			"0.013": 1.40382859203,
			"0.014": 0.0,
			"0.015": 0.0,
			"0.016": 0.0,
			"0.017": 0.0,
			"0.018": 0.0,
			"0.019": 0.0,
			"0.02": 0.0,
			"0.021": 0.0,
			"0.022": 0.0,
			"0.023": 0.0,
			"0.024": 0.0,
			"0.025": 0.0
		}
	}
}
