{
	 "smiles": "ClCOCCl", 
	 "Tm": 231.65, 
	 "num_atms": 9, 
	 "gaussian": { 
		 "optdone": 1, 
		 "sigma_profile": "yes", 
		 "theory": "DFT", 
		 "functional": "B3LYP", 
		 "basiset": "6-31G**", 
		 "properties": { 
			 "R2extent": 1606.5261, 
			 "electric_dipole_moment_norm": 0.730990211973, 
			 "electric_quadrupole_moment_norm": 6.40416753294, 
			 "total_energy": -1074.22154645, 
			 "HOMO_LUMO_gap": 0.30032, 
			 "cosmo_polarized_energy": -5.97, 
			 "cosmo_cavitation_energy": 16.06, 
			 "cosmo_dispersion_energy": -12.44, 
			 "cosmo_repulsion_energy": 1.11, 
			 "cosmo_total_nonelectrostatic_energy": 4.73, 
			 "SMD_solvation_energy": 3.0 
		},
		"coords": [
			{
				"x": 1.7390285846,
				"y": -0.5808723931,
				"z": -0.2715064085,
				"element": "Cl" 
			},
			{
				"x": 0.9771974275,
				"y": -1.799003391,
				"z": -1.4109942239,
				"element": "C" 
			},
			{
				"x": -0.2905740629,
				"y": -1.4205343296,
				"z": -1.8329407712,
				"element": "O" 
			},
			{
				"x": -1.2991245492,
				"y": -1.4576500121,
				"z": -0.8795463004,
				"element": "C" 
			},
			{
				"x": -1.7554287346,
				"y": -3.1665404829,
				"z": -0.394144467,
				"element": "Cl" 
			},
			{
				"x": 1.6119165786,
				"y": -1.8343368845,
				"z": -2.293118571,
				"element": "H" 
			},
			{
				"x": 0.9703528889,
				"y": -2.7480575353,
				"z": -0.8719155931,
				"element": "H" 
			},
			{
				"x": -1.0172181354,
				"y": -0.9509203706,
				"z": 0.0452367996,
				"element": "H" 
			},
			{
				"x": -2.1852499977,
				"y": -1.0194846009,
				"z": -1.3323704644,
				"element": "H" 
			}
		],
		 "valence_orbital": [ 
			{
				"type": "occ",
				"energy": -0.32592,
				"method": "rhf"
			},
			{
				"type": "occ",
				"energy": -0.32352,
				"method": "rhf"
			},
			{
				"type": "occ",
				"energy": -0.31419,
				"method": "rhf"
			},
			{
				"type": "occ",
				"energy": -0.31221,
				"method": "rhf"
			},
			{
				"type": "occ",
				"energy": -0.30304,
				"method": "rhf"
			},
			{
				"type": "unocc",
				"energy": -0.00272,
				"method": "rhf"
			},
			{
				"type": "unocc",
				"energy": 0.02486,
				"method": "rhf"
			},
			{
				"type": "unocc",
				"energy": 0.08501,
				"method": "rhf"
			},
			{
				"type": "unocc",
				"energy": 0.11426,
				"method": "rhf"
			},
			{
				"type": "unocc",
				"energy": 0.1287,
				"method": "rhf"
			}
		],
		"cosmo_sigma_profile": { 
			"-0.025": 0.0,
			"-0.024": 0.0,
			"-0.023": 0.0,
			"-0.022": 0.0,
			"-0.021": 0.0,
			"-0.02": 0.0,
			"-0.019": 0.0,
			"-0.018": 0.0,
			"-0.017": 0.0,
			"-0.016": 0.0,
			"-0.015": 0.0,
			"-0.014": 0.0,
			"-0.013": 0.0,
			"-0.012": 0.0,
			"-0.011": 0.0,
			"-0.01": 1.66899829407,
			"-0.009": 5.54193143069,
			"-0.008": 6.8071922786,
			"-0.007": 7.33216454983,
			"-0.006": 8.41966598717,
			"-0.005": 5.64992957301,
			"-0.004": 3.55979277564,
			"-0.003": 5.15134367885,
			"-0.002": 4.3677070731,
			"-0.001": 5.62189219938,
			"0.0": 6.2921621206,
			"0.001": 6.91296375917,
			"0.002": 8.6942275236,
			"0.003": 10.345689552,
			"0.004": 13.6176836868,
			"0.005": 14.7021647246,
			"0.006": 13.8231148631,
			"0.007": 1.73275942485,
			"0.008": 1.55416338585,
			"0.009": 0.196537502054,
			"0.01": 0.0,
			"0.011": 0.0,
			"0.012": 0.0,
			"0.013": 0.0,
			"0.014": 0.0,
			"0.015": 0.0,
			"0.016": 0.0,
			"0.017": 0.0,
			"0.018": 0.0,
			"0.019": 0.0,
			"0.02": 0.0,
			"0.021": 0.0,
			"0.022": 0.0,
			"0.023": 0.0,
			"0.024": 0.0,
			"0.025": 0.0
		}
	}
}
