{
	 "smiles": "CNC(=S)NN", 
	 "Tm": 410.15, 
	 "num_atms": 13, 
	 "gaussian": { 
		 "optdone": 1, 
		 "sigma_profile": "yes", 
		 "theory": "DFT", 
		 "functional": "B3LYP", 
		 "basiset": "6-31G**", 
		 "properties": { 
			 "R2extent": 1632.8896, 
			 "electric_dipole_moment_norm": 5.82199661542, 
			 "electric_quadrupole_moment_norm": 15.9783403106, 
			 "total_energy": -642.854975482, 
			 "HOMO_LUMO_gap": 0.21051, 
			 "cosmo_polarized_energy": -18.23, 
			 "cosmo_cavitation_energy": 18.08, 
			 "cosmo_dispersion_energy": -14.22, 
			 "cosmo_repulsion_energy": 1.22, 
			 "cosmo_total_nonelectrostatic_energy": 5.08, 
			 "SMD_solvation_energy": 2.72 
		},
		"coords": [
			{
				"x": -0.5380681469,
				"y": 3.3538234442,
				"z": -1.4822577638,
				"element": "C" 
			},
			{
				"x": -0.2477340847,
				"y": 1.9818194154,
				"z": -1.1105304918,
				"element": "N" 
			},
			{
				"x": 0.9950676409,
				"y": 1.490115764,
				"z": -0.9692102684,
				"element": "C" 
			},
			{
				"x": 2.417355596,
				"y": 2.3711625954,
				"z": -1.1535140459,
				"element": "S" 
			},
			{
				"x": 1.0576054381,
				"y": 0.1465691764,
				"z": -0.6688482363,
				"element": "N" 
			},
			{
				"x": -0.1040094149,
				"y": -0.5554708818,
				"z": -0.3079915739,
				"element": "N" 
			},
			{
				"x": -1.6220017276,
				"y": 3.4888315176,
				"z": -1.4689303464,
				"element": "H" 
			},
			{
				"x": -0.0756565521,
				"y": 4.0535209184,
				"z": -0.7800118567,
				"element": "H" 
			},
			{
				"x": -0.1571130077,
				"y": 3.5837172617,
				"z": -2.4825585786,
				"element": "H" 
			},
			{
				"x": -0.9985598252,
				"y": 1.3189620736,
				"z": -0.9570806044,
				"element": "H" 
			},
			{
				"x": 1.9743683186,
				"y": -0.1842638844,
				"z": -0.3933985823,
				"element": "H" 
			},
			{
				"x": -0.1582855045,
				"y": -1.4221652084,
				"z": -0.8359153827,
				"element": "H" 
			},
			{
				"x": -0.1061687299,
				"y": -0.772322192,
				"z": 0.6873477311,
				"element": "H" 
			}
		],
		 "valence_orbital": [ 
			{
				"type": "occ",
				"energy": -0.34964,
				"method": "rhf"
			},
			{
				"type": "occ",
				"energy": -0.29951,
				"method": "rhf"
			},
			{
				"type": "occ",
				"energy": -0.25521,
				"method": "rhf"
			},
			{
				"type": "occ",
				"energy": -0.20339,
				"method": "rhf"
			},
			{
				"type": "occ",
				"energy": -0.19587,
				"method": "rhf"
			},
			{
				"type": "unocc",
				"energy": 0.01464,
				"method": "rhf"
			},
			{
				"type": "unocc",
				"energy": 0.05316,
				"method": "rhf"
			},
			{
				"type": "unocc",
				"energy": 0.09346,
				"method": "rhf"
			},
			{
				"type": "unocc",
				"energy": 0.10523,
				"method": "rhf"
			},
			{
				"type": "unocc",
				"energy": 0.12469,
				"method": "rhf"
			}
		],
		"cosmo_sigma_profile": { 
			"-0.025": 0.0,
			"-0.024": 0.0,
			"-0.023": 0.0,
			"-0.022": 0.0,
			"-0.021": 0.0,
			"-0.02": 0.0,
			"-0.019": 0.0,
			"-0.018": 0.0,
			"-0.017": 0.0,
			"-0.016": 0.0,
			"-0.015": 0.0,
			"-0.014": 0.247755149918,
			"-0.013": 2.52635007257,
			"-0.012": 5.3492058706,
			"-0.011": 6.4263774315,
			"-0.01": 4.16057502914,
			"-0.009": 4.99825047812,
			"-0.008": 4.43998701273,
			"-0.007": 3.71302131111,
			"-0.006": 4.55892274424,
			"-0.005": 4.43673395232,
			"-0.004": 7.0294186419,
			"-0.003": 8.30693732668,
			"-0.002": 11.0964125897,
			"-0.001": 7.41654726167,
			"0.0": 6.41973186578,
			"0.001": 4.04988549205,
			"0.002": 5.52018259309,
			"0.003": 6.18855975109,
			"0.004": 3.82930075356,
			"0.005": 4.51932551328,
			"0.006": 4.60372541693,
			"0.007": 4.40292726951,
			"0.008": 3.9073147518,
			"0.009": 4.42315502512,
			"0.01": 3.65932500931,
			"0.011": 6.00985866758,
			"0.012": 8.90225901426,
			"0.013": 3.09814105175,
			"0.014": 0.0189282056404,
			"0.015": 0.0,
			"0.016": 0.0,
			"0.017": 0.0,
			"0.018": 0.0,
			"0.019": 0.0,
			"0.02": 0.0,
			"0.021": 0.0,
			"0.022": 0.0,
			"0.023": 0.0,
			"0.024": 0.0,
			"0.025": 0.0
		}
	}
}
