{
	 "smiles": "CCC(=O)O[C@@]1([C@H](C)C[C@H]2[C@@H]3C[C@H](F)C4=CC(=O)C=C[C@]4(C)[C@@]3(F)[C@@H](O)C[C@]12C)C(=O)SCF", 
	 "Tm": 545.65, 
	 "num_atms": 65, 
	 "gaussian": { 
		 "optdone": 1, 
		 "sigma_profile": "yes", 
		 "theory": "DFT", 
		 "functional": "B3LYP", 
		 "basiset": "6-31G**", 
		 "properties": { 
			 "R2extent": 17896.521, 
			 "electric_dipole_moment_norm": 7.68415874055, 
			 "electric_quadrupole_moment_norm": 45.4784201425, 
			 "total_energy": -2045.13025181, 
			 "HOMO_LUMO_gap": 0.17627, 
			 "cosmo_polarized_energy": -25.02, 
			 "cosmo_cavitation_energy": 60.96, 
			 "cosmo_dispersion_energy": -40.13, 
			 "cosmo_repulsion_energy": 2.88, 
			 "cosmo_total_nonelectrostatic_energy": 23.7, 
			 "SMD_solvation_energy": 12.61 
		},
		"coords": [
			{
				"x": 4.1488117304,
				"y": 1.1930053728,
				"z": -2.7034689632,
				"element": "C" 
			},
			{
				"x": 3.4335602166,
				"y": 1.6533462693,
				"z": -1.4352907612,
				"element": "C" 
			},
			{
				"x": 2.5886806058,
				"y": 0.5602336302,
				"z": -0.8051178189,
				"element": "C" 
			},
			{
				"x": 2.5193186661,
				"y": -0.5787704403,
				"z": -1.2085922603,
				"element": "O" 
			},
			{
				"x": 1.9367909936,
				"y": 1.0723905911,
				"z": 0.2713103909,
				"element": "O" 
			},
			{
				"x": 1.0565638918,
				"y": 0.3973206948,
				"z": 1.2239405833,
				"element": "C" 
			},
			{
				"x": 1.4766728175,
				"y": -1.0372076806,
				"z": 1.681165008,
				"element": "C" 
			},
			{
				"x": 2.9756408343,
				"y": -1.3617616719,
				"z": 1.7357924002,
				"element": "C" 
			},
			{
				"x": 0.6219061913,
				"y": -2.0324768601,
				"z": 0.8284731771,
				"element": "C" 
			},
			{
				"x": -0.2436037771,
				"y": -1.145661671,
				"z": -0.0858707868,
				"element": "C" 
			},
			{
				"x": -1.5642810548,
				"y": -1.6871980408,
				"z": -0.6524150022,
				"element": "C" 
			},
			{
				"x": -1.3258570717,
				"y": -3.0033182912,
				"z": -1.4182402658,
				"element": "C" 
			},
			{
				"x": -2.5717235782,
				"y": -3.4979704089,
				"z": -2.152096086,
				"element": "C" 
			},
			{
				"x": -2.2240891293,
				"y": -4.6105900068,
				"z": -2.9153009443,
				"element": "F" 
			},
			{
				"x": -3.149696025,
				"y": -2.4117913014,
				"z": -3.0222124217,
				"element": "C" 
			},
			{
				"x": -3.3106592652,
				"y": -2.578671917,
				"z": -4.3443396032,
				"element": "C" 
			},
			{
				"x": -3.8353588639,
				"y": -1.5139725231,
				"z": -5.2195322858,
				"element": "C" 
			},
			{
				"x": -3.977433692,
				"y": -1.6717938391,
				"z": -6.4292238135,
				"element": "O" 
			},
			{
				"x": -4.1945482283,
				"y": -0.2440324395,
				"z": -4.551381099,
				"element": "C" 
			},
			{
				"x": -4.033953715,
				"y": -0.067196865,
				"z": -3.2338614344,
				"element": "C" 
			},
			{
				"x": -3.5071623059,
				"y": -1.1234322883,
				"z": -2.2907535452,
				"element": "C" 
			},
			{
				"x": -4.6569775254,
				"y": -1.4275980237,
				"z": -1.2793003042,
				"element": "C" 
			},
			{
				"x": -2.1736466473,
				"y": -0.6197230523,
				"z": -1.6025730701,
				"element": "C" 
			},
			{
				"x": -1.2468595864,
				"y": -0.4773337864,
				"z": -2.6643299831,
				"element": "F" 
			},
			{
				"x": -2.226265336,
				"y": 0.8213986965,
				"z": -1.02258678,
				"element": "C" 
			},
			{
				"x": -3.3760959602,
				"y": 0.9415534401,
				"z": -0.1835203303,
				"element": "O" 
			},
			{
				"x": -0.9226310987,
				"y": 1.2431174929,
				"z": -0.3076169726,
				"element": "C" 
			},
			{
				"x": -0.4085963156,
				"y": 0.1865323989,
				"z": 0.6818627799,
				"element": "C" 
			},
			{
				"x": -1.3655362635,
				"y": 0.0539384326,
				"z": 1.896146125,
				"element": "C" 
			},
			{
				"x": 1.0706939545,
				"y": 1.4989282214,
				"z": 2.3253471392,
				"element": "C" 
			},
			{
				"x": 0.6347554431,
				"y": 2.6039524746,
				"z": 2.1053875152,
				"element": "O" 
			},
			{
				"x": 1.7798906959,
				"y": 1.0567771511,
				"z": 3.9407696328,
				"element": "S" 
			},
			{
				"x": 1.666102124,
				"y": 2.6826008605,
				"z": 4.7554286275,
				"element": "C" 
			},
			{
				"x": 2.843146516,
				"y": 3.3846099867,
				"z": 4.6396628383,
				"element": "F" 
			},
			{
				"x": 4.8093584607,
				"y": 0.3470933972,
				"z": -2.4970460838,
				"element": "H" 
			},
			{
				"x": 4.7496362484,
				"y": 2.0082244523,
				"z": -3.1163856327,
				"element": "H" 
			},
			{
				"x": 3.4331419209,
				"y": 0.8723470231,
				"z": -3.4649873755,
				"element": "H" 
			},
			{
				"x": 2.7794087872,
				"y": 2.5119008501,
				"z": -1.6270716505,
				"element": "H" 
			},
			{
				"x": 4.1448065097,
				"y": 1.9959049776,
				"z": -0.6735989521,
				"element": "H" 
			},
			{
				"x": 1.11047753,
				"y": -1.104952522,
				"z": 2.7115655776,
				"element": "H" 
			},
			{
				"x": 3.1195666518,
				"y": -2.2998659916,
				"z": 2.2817822035,
				"element": "H" 
			},
			{
				"x": 3.3943717653,
				"y": -1.4887533917,
				"z": 0.7377382665,
				"element": "H" 
			},
			{
				"x": 3.5420616006,
				"y": -0.5887168738,
				"z": 2.2631658902,
				"element": "H" 
			},
			{
				"x": 0.0141254566,
				"y": -2.667835775,
				"z": 1.4837285548,
				"element": "H" 
			},
			{
				"x": 1.2667496526,
				"y": -2.690019861,
				"z": 0.2408009783,
				"element": "H" 
			},
			{
				"x": 0.37288668,
				"y": -0.9228196693,
				"z": -0.9575329039,
				"element": "H" 
			},
			{
				"x": -2.276354829,
				"y": -1.8682193733,
				"z": 0.1608164791,
				"element": "H" 
			},
			{
				"x": -0.9794964704,
				"y": -3.7828589108,
				"z": -0.7327673348,
				"element": "H" 
			},
			{
				"x": -0.5446369283,
				"y": -2.8487775077,
				"z": -2.1690600455,
				"element": "H" 
			},
			{
				"x": -3.3262361521,
				"y": -3.8395706016,
				"z": -1.4294579952,
				"element": "H" 
			},
			{
				"x": -3.048602259,
				"y": -3.5166615103,
				"z": -4.8212133607,
				"element": "H" 
			},
			{
				"x": -4.6074909032,
				"y": 0.5327014917,
				"z": -5.1887906136,
				"element": "H" 
			},
			{
				"x": -4.3431143244,
				"y": 0.8644505904,
				"z": -2.7655243847,
				"element": "H" 
			},
			{
				"x": -5.0110940534,
				"y": -0.5108588443,
				"z": -0.8117924928,
				"element": "H" 
			},
			{
				"x": -4.346006648,
				"y": -2.1090887373,
				"z": -0.4841642084,
				"element": "H" 
			},
			{
				"x": -5.4820678126,
				"y": -1.8970761414,
				"z": -1.8221897632,
				"element": "H" 
			},
			{
				"x": -2.3413103529,
				"y": 1.4772869771,
				"z": -1.8964526835,
				"element": "H" 
			},
			{
				"x": -3.3364314077,
				"y": 1.8068069545,
				"z": 0.2441936895,
				"element": "H" 
			},
			{
				"x": -0.1668572177,
				"y": 1.4155954262,
				"z": -1.0785328717,
				"element": "H" 
			},
			{
				"x": -1.0857221539,
				"y": 2.2096338669,
				"z": 0.1847100264,
				"element": "H" 
			},
			{
				"x": -1.0387327465,
				"y": -0.7087053712,
				"z": 2.6077192028,
				"element": "H" 
			},
			{
				"x": -1.439649736,
				"y": 1.0031385532,
				"z": 2.4345804428,
				"element": "H" 
			},
			{
				"x": -2.3722376408,
				"y": -0.1984840425,
				"z": 1.5671788443,
				"element": "H" 
			},
			{
				"x": 0.8572014659,
				"y": 3.2395883383,
				"z": 4.2770015724,
				"element": "H" 
			},
			{
				"x": 1.459789665,
				"y": 2.4926876203,
				"z": 5.8122249385,
				"element": "H" 
			}
		],
		 "valence_orbital": [ 
			{
				"type": "occ",
				"energy": -0.28278,
				"method": "rhf"
			},
			{
				"type": "occ",
				"energy": -0.27255,
				"method": "rhf"
			},
			{
				"type": "occ",
				"energy": -0.26894,
				"method": "rhf"
			},
			{
				"type": "occ",
				"energy": -0.25718,
				"method": "rhf"
			},
			{
				"type": "occ",
				"energy": -0.2324,
				"method": "rhf"
			},
			{
				"type": "unocc",
				"energy": -0.05613,
				"method": "rhf"
			},
			{
				"type": "unocc",
				"energy": -0.05024,
				"method": "rhf"
			},
			{
				"type": "unocc",
				"energy": -0.00345,
				"method": "rhf"
			},
			{
				"type": "unocc",
				"energy": -4e-05,
				"method": "rhf"
			},
			{
				"type": "unocc",
				"energy": 0.00951,
				"method": "rhf"
			}
		],
		"cosmo_sigma_profile": { 
			"-0.025": 0.0,
			"-0.024": 0.0,
			"-0.023": 0.0,
			"-0.022": 0.0,
			"-0.021": 0.0,
			"-0.02": 0.0,
			"-0.019": 0.0,
			"-0.018": 0.0,
			"-0.017": 0.0,
			"-0.016": 0.547379264236,
			"-0.015": 0.797643421618,
			"-0.014": 1.09991131149,
			"-0.013": 1.16829611762,
			"-0.012": 0.802370747075,
			"-0.011": 1.13198616936,
			"-0.01": 0.761577333138,
			"-0.009": 3.51483022542,
			"-0.008": 6.0526072382,
			"-0.007": 8.7933626754,
			"-0.006": 17.9029412896,
			"-0.005": 26.2084263248,
			"-0.004": 34.2545399046,
			"-0.003": 47.0767329929,
			"-0.002": 48.8937650733,
			"-0.001": 43.7433039332,
			"0.0": 45.983578468,
			"0.001": 36.7461011408,
			"0.002": 24.6797575816,
			"0.003": 21.0644928736,
			"0.004": 19.5390067695,
			"0.005": 26.2465691327,
			"0.006": 21.0956225574,
			"0.007": 6.33418212178,
			"0.008": 5.98633394427,
			"0.009": 6.84041795998,
			"0.01": 4.47232960494,
			"0.011": 3.79421334948,
			"0.012": 4.63030567636,
			"0.013": 4.7055018384,
			"0.014": 2.89092576982,
			"0.015": 0.306523562563,
			"0.016": 0.0,
			"0.017": 0.0,
			"0.018": 0.0,
			"0.019": 0.0,
			"0.02": 0.0,
			"0.021": 0.0,
			"0.022": 0.0,
			"0.023": 0.0,
			"0.024": 0.0,
			"0.025": 0.0
		}
	}
}
