{
	 "smiles": "CC(O)C1=NC2=C(N1)C=C(Br)C=N2", 
	 "Tm": 492.15, 
	 "num_atms": 21, 
	 "gaussian": { 
		 "optdone": 1, 
		 "sigma_profile": "yes", 
		 "theory": "DFT", 
		 "functional": "B3LYP", 
		 "basiset": "6-31G**", 
		 "properties": { 
			 "R2extent": 5933.823, 
			 "electric_dipole_moment_norm": 4.69352841794, 
			 "electric_quadrupole_moment_norm": 4.11808610886, 
			 "total_energy": -3120.55864549, 
			 "HOMO_LUMO_gap": 0.18875, 
			 "cosmo_polarized_energy": -18.78, 
			 "cosmo_cavitation_energy": 27.83, 
			 "cosmo_dispersion_energy": -21.04, 
			 "cosmo_repulsion_energy": 1.67, 
			 "cosmo_total_nonelectrostatic_energy": 8.46, 
			 "SMD_solvation_energy": -0.26 
		},
		"coords": [
			{
				"x": 0.1736562962,
				"y": 3.7494527207,
				"z": 1.5221552805,
				"element": "C" 
			},
			{
				"x": 0.7513446809,
				"y": 2.7314330712,
				"z": 0.5392265667,
				"element": "C" 
			},
			{
				"x": 0.5454119257,
				"y": 3.2482077084,
				"z": -0.7794620242,
				"element": "O" 
			},
			{
				"x": 0.0821195444,
				"y": 1.3861404219,
				"z": 0.6733333717,
				"element": "C" 
			},
			{
				"x": 0.3706526278,
				"y": 0.4584555088,
				"z": 1.5527922885,
				"element": "N" 
			},
			{
				"x": -0.5445426815,
				"y": -0.5523230332,
				"z": 1.3084450932,
				"element": "C" 
			},
			{
				"x": -1.4024197877,
				"y": -0.1926545825,
				"z": 0.231299548,
				"element": "C" 
			},
			{
				"x": -0.9741858777,
				"y": 1.0593535319,
				"z": -0.1521357493,
				"element": "N" 
			},
			{
				"x": -2.4003871262,
				"y": -1.0578968749,
				"z": -0.2040199171,
				"element": "C" 
			},
			{
				"x": -2.4720732367,
				"y": -2.2586477943,
				"z": 0.4968733349,
				"element": "C" 
			},
			{
				"x": -3.7933451906,
				"y": -3.5527096758,
				"z": 0.0221820733,
				"element": "Br" 
			},
			{
				"x": -1.5882374326,
				"y": -2.5456482074,
				"z": 1.5558624565,
				"element": "C" 
			},
			{
				"x": -0.6320465126,
				"y": -1.7125394069,
				"z": 1.9654271325,
				"element": "N" 
			},
			{
				"x": 0.2839359164,
				"y": 3.3860066991,
				"z": 2.5465944608,
				"element": "H" 
			},
			{
				"x": -0.8889973545,
				"y": 3.9119460533,
				"z": 1.3182396946,
				"element": "H" 
			},
			{
				"x": 0.6982864636,
				"y": 4.702629806,
				"z": 1.4170069895,
				"element": "H" 
			},
			{
				"x": 1.8194102412,
				"y": 2.5936612963,
				"z": 0.7521822864,
				"element": "H" 
			},
			{
				"x": 1.1392852573,
				"y": 2.7795805761,
				"z": -1.3808778793,
				"element": "H" 
			},
			{
				"x": -1.3080160132,
				"y": 1.6532039202,
				"z": -0.896836085,
				"element": "H" 
			},
			{
				"x": -3.0780636078,
				"y": -0.8313726295,
				"z": -1.0193185202,
				"element": "H" 
			},
			{
				"x": -1.6757881322,
				"y": -3.4938791093,
				"z": 2.079329598,
				"element": "H" 
			}
		],
		 "valence_orbital": [ 
			{
				"type": "occ",
				"energy": -0.29584,
				"method": "rhf"
			},
			{
				"type": "occ",
				"energy": -0.28889,
				"method": "rhf"
			},
			{
				"type": "occ",
				"energy": -0.25889,
				"method": "rhf"
			},
			{
				"type": "occ",
				"energy": -0.25731,
				"method": "rhf"
			},
			{
				"type": "occ",
				"energy": -0.23235,
				"method": "rhf"
			},
			{
				"type": "unocc",
				"energy": -0.0436,
				"method": "rhf"
			},
			{
				"type": "unocc",
				"energy": -0.00079,
				"method": "rhf"
			},
			{
				"type": "unocc",
				"energy": 0.00374,
				"method": "rhf"
			},
			{
				"type": "unocc",
				"energy": 0.03339,
				"method": "rhf"
			},
			{
				"type": "unocc",
				"energy": 0.05009,
				"method": "rhf"
			}
		],
		"cosmo_sigma_profile": { 
			"-0.025": 0.0,
			"-0.024": 0.0,
			"-0.023": 0.0,
			"-0.022": 0.0,
			"-0.021": 0.0,
			"-0.02": 0.0,
			"-0.019": 0.0,
			"-0.018": 0.0,
			"-0.017": 0.573925649264,
			"-0.016": 1.83432787825,
			"-0.015": 2.31789046529,
			"-0.014": 2.21380104166,
			"-0.013": 1.51884337591,
			"-0.012": 1.74783024972,
			"-0.011": 1.90022754392,
			"-0.01": 3.19100059605,
			"-0.009": 4.12325692399,
			"-0.008": 3.6882544601,
			"-0.007": 5.5992060012,
			"-0.006": 7.05085655434,
			"-0.005": 7.76112671386,
			"-0.004": 13.5606546545,
			"-0.003": 14.175011192,
			"-0.002": 14.2560201979,
			"-0.001": 19.0308961351,
			"0.0": 23.1632229822,
			"0.001": 19.4657746036,
			"0.002": 12.4263636322,
			"0.003": 11.1814627738,
			"0.004": 14.6844370273,
			"0.005": 6.97253530924,
			"0.006": 3.01944624455,
			"0.007": 3.56452247464,
			"0.008": 1.95527764773,
			"0.009": 3.22514975378,
			"0.01": 3.44218060811,
			"0.011": 3.10912615238,
			"0.012": 3.66766066076,
			"0.013": 3.21777595268,
			"0.014": 2.84741197164,
			"0.015": 2.3936250816,
			"0.016": 1.74548844013,
			"0.017": 0.566140142669,
			"0.018": 0.00230048894838,
			"0.019": 0.0,
			"0.02": 0.0,
			"0.021": 0.0,
			"0.022": 0.0,
			"0.023": 0.0,
			"0.024": 0.0,
			"0.025": 0.0
		}
	}
}
