{
	 "smiles": "CC(C)C1=NC(=NN1C1=C(Cl)C=CC=C1Cl)C(O)=O", 
	 "Tm": 453.15, 
	 "num_atms": 30, 
	 "gaussian": { 
		 "optdone": 1, 
		 "sigma_profile": "yes", 
		 "theory": "DFT", 
		 "functional": "B3LYP", 
		 "basiset": "6-31G**", 
		 "properties": { 
			 "R2extent": 5716.5932, 
			 "electric_dipole_moment_norm": 9.55264892111, 
			 "electric_quadrupole_moment_norm": 17.8459937549, 
			 "total_energy": -1698.99472633, 
			 "HOMO_LUMO_gap": 0.20714, 
			 "cosmo_polarized_energy": -18.25, 
			 "cosmo_cavitation_energy": 39.18, 
			 "cosmo_dispersion_energy": -25.78, 
			 "cosmo_repulsion_energy": 2.02, 
			 "cosmo_total_nonelectrostatic_energy": 15.41, 
			 "SMD_solvation_energy": 5.58 
		},
		"coords": [
			{
				"x": -1.9026515592,
				"y": 0.275353556,
				"z": 3.0240351498,
				"element": "C" 
			},
			{
				"x": -0.8002870709,
				"y": 0.794274384,
				"z": 2.0804625713,
				"element": "C" 
			},
			{
				"x": -0.526535721,
				"y": 2.2937117889,
				"z": 2.3069491898,
				"element": "C" 
			},
			{
				"x": -1.1872271805,
				"y": 0.5493235878,
				"z": 0.6485522324,
				"element": "C" 
			},
			{
				"x": -2.2418165938,
				"y": 1.0555634688,
				"z": 0.0361417468,
				"element": "N" 
			},
			{
				"x": -2.1572278723,
				"y": 0.547645401,
				"z": -1.2215052006,
				"element": "C" 
			},
			{
				"x": -1.1159957976,
				"y": -0.2459416878,
				"z": -1.4381706051,
				"element": "N" 
			},
			{
				"x": -0.491151271,
				"y": -0.243785304,
				"z": -0.2308653243,
				"element": "N" 
			},
			{
				"x": 0.7002042155,
				"y": -0.9946024034,
				"z": -0.037215456,
				"element": "C" 
			},
			{
				"x": 1.958625638,
				"y": -0.4234460167,
				"z": -0.2891220336,
				"element": "C" 
			},
			{
				"x": 2.0688718883,
				"y": 1.232617535,
				"z": -0.8288336334,
				"element": "Cl" 
			},
			{
				"x": 3.1288290226,
				"y": -1.1609558145,
				"z": -0.1169290652,
				"element": "C" 
			},
			{
				"x": 3.0455286544,
				"y": -2.4853382422,
				"z": 0.3087721902,
				"element": "C" 
			},
			{
				"x": 1.8100775855,
				"y": -3.0779185996,
				"z": 0.5630370887,
				"element": "C" 
			},
			{
				"x": 0.6454399394,
				"y": -2.3323014323,
				"z": 0.3881180912,
				"element": "C" 
			},
			{
				"x": -0.8991122306,
				"y": -3.0816691148,
				"z": 0.7023481887,
				"element": "Cl" 
			},
			{
				"x": -3.1302486082,
				"y": 0.8225165518,
				"z": -2.3246877879,
				"element": "C" 
			},
			{
				"x": -2.8225407597,
				"y": 0.1967625226,
				"z": -3.4837699695,
				"element": "O" 
			},
			{
				"x": -4.0982231928,
				"y": 1.529556414,
				"z": -2.2087682925,
				"element": "O" 
			},
			{
				"x": -2.06808637,
				"y": -0.7981297481,
				"z": 2.8937398915,
				"element": "H" 
			},
			{
				"x": -2.8452861752,
				"y": 0.7922982033,
				"z": 2.8242988933,
				"element": "H" 
			},
			{
				"x": -1.6200630448,
				"y": 0.4553879632,
				"z": 4.0659336558,
				"element": "H" 
			},
			{
				"x": 0.1223545465,
				"y": 0.2354075504,
				"z": 2.2782679349,
				"element": "H" 
			},
			{
				"x": 0.2853502575,
				"y": 2.6529952072,
				"z": 1.6678649145,
				"element": "H" 
			},
			{
				"x": -1.4220385859,
				"y": 2.8795420296,
				"z": 2.0821724418,
				"element": "H" 
			},
			{
				"x": -0.246565818,
				"y": 2.4706415827,
				"z": 3.3500813238,
				"element": "H" 
			},
			{
				"x": 4.0870991118,
				"y": -0.6969487505,
				"z": -0.3185421079,
				"element": "H" 
			},
			{
				"x": 3.9544698279,
				"y": -3.0631432318,
				"z": 0.4426741956,
				"element": "H" 
			},
			{
				"x": 1.7403415339,
				"y": -4.1081913915,
				"z": 0.8915287233,
				"element": "H" 
			},
			{
				"x": -2.0067343698,
				"y": -0.3176260092,
				"z": -3.3536689477,
				"element": "H" 
			}
		],
		 "valence_orbital": [ 
			{
				"type": "occ",
				"energy": -0.3004,
				"method": "rhf"
			},
			{
				"type": "occ",
				"energy": -0.28572,
				"method": "rhf"
			},
			{
				"type": "occ",
				"energy": -0.2794,
				"method": "rhf"
			},
			{
				"type": "occ",
				"energy": -0.27676,
				"method": "rhf"
			},
			{
				"type": "occ",
				"energy": -0.26696,
				"method": "rhf"
			},
			{
				"type": "unocc",
				"energy": -0.05982,
				"method": "rhf"
			},
			{
				"type": "unocc",
				"energy": -0.05234,
				"method": "rhf"
			},
			{
				"type": "unocc",
				"energy": -0.03898,
				"method": "rhf"
			},
			{
				"type": "unocc",
				"energy": -0.01816,
				"method": "rhf"
			},
			{
				"type": "unocc",
				"energy": 0.00223,
				"method": "rhf"
			}
		],
		"cosmo_sigma_profile": { 
			"-0.025": 0.0,
			"-0.024": 0.0,
			"-0.023": 0.0,
			"-0.022": 0.0,
			"-0.021": 0.0,
			"-0.02": 0.0,
			"-0.019": 0.0,
			"-0.018": 0.0,
			"-0.017": 0.0,
			"-0.016": 0.174195247146,
			"-0.015": 0.503534916027,
			"-0.014": 0.336712782359,
			"-0.013": 0.761310434724,
			"-0.012": 0.778320265488,
			"-0.011": 0.639516098384,
			"-0.01": 0.488295709554,
			"-0.009": 1.90919638744,
			"-0.008": 8.35464298934,
			"-0.007": 8.33229623853,
			"-0.006": 8.46646112785,
			"-0.005": 13.0035741298,
			"-0.004": 16.9734811662,
			"-0.003": 23.4260836579,
			"-0.002": 30.5903160434,
			"-0.001": 41.9565536976,
			"0.0": 41.1384810613,
			"0.001": 30.982190896,
			"0.002": 16.5663848818,
			"0.003": 19.932971228,
			"0.004": 9.71566876242,
			"0.005": 3.95029308112,
			"0.006": 4.59959840202,
			"0.007": 3.62381941217,
			"0.008": 4.14821215047,
			"0.009": 5.00998198747,
			"0.01": 6.31784198466,
			"0.011": 6.65922016782,
			"0.012": 4.56839317613,
			"0.013": 2.2557639816,
			"0.014": 0.753947671381,
			"0.015": 0.36554468184,
			"0.016": 0.0,
			"0.017": 0.0,
			"0.018": 0.0,
			"0.019": 0.0,
			"0.02": 0.0,
			"0.021": 0.0,
			"0.022": 0.0,
			"0.023": 0.0,
			"0.024": 0.0,
			"0.025": 0.0
		}
	}
}
