{
	 "smiles": "CCCCCCCCCCC=C", 
	 "Tm": 237.15, 
	 "num_atms": 36, 
	 "gaussian": { 
		 "optdone": 1, 
		 "sigma_profile": "yes", 
		 "theory": "DFT", 
		 "functional": "B3LYP", 
		 "basiset": "6-31G**", 
		 "properties": { 
			 "R2extent": 4022.3101, 
			 "electric_dipole_moment_norm": 0.332149499473, 
			 "electric_quadrupole_moment_norm": 2.2699571714, 
			 "total_energy": -471.744505995, 
			 "HOMO_LUMO_gap": 0.27374, 
			 "cosmo_polarized_energy": -1.77, 
			 "cosmo_cavitation_energy": 35.98, 
			 "cosmo_dispersion_energy": -24.25, 
			 "cosmo_repulsion_energy": 2.02, 
			 "cosmo_total_nonelectrostatic_energy": 13.75, 
			 "SMD_solvation_energy": 5.57 
		},
		"coords": [
			{
				"x": 3.1640713673,
				"y": -2.5262400743,
				"z": 0.5996568029,
				"element": "C" 
			},
			{
				"x": 1.9452301851,
				"y": -3.3825936423,
				"z": 0.237246353,
				"element": "C" 
			},
			{
				"x": 0.7013748617,
				"y": -2.604628619,
				"z": -0.2293734759,
				"element": "C" 
			},
			{
				"x": 0.8831827287,
				"y": -1.8062817005,
				"z": -1.5425183754,
				"element": "C" 
			},
			{
				"x": 1.3111970874,
				"y": -0.3267221089,
				"z": -1.3930412252,
				"element": "C" 
			},
			{
				"x": 0.154009884,
				"y": 0.6874724556,
				"z": -1.3454397645,
				"element": "C" 
			},
			{
				"x": -0.7944927477,
				"y": 0.5690786261,
				"z": -0.1441132506,
				"element": "C" 
			},
			{
				"x": -1.8700318611,
				"y": 1.665040656,
				"z": -0.1294708619,
				"element": "C" 
			},
			{
				"x": -2.900761704,
				"y": 1.5357434954,
				"z": 1.0035735121,
				"element": "C" 
			},
			{
				"x": -2.3366636924,
				"y": 1.7274567943,
				"z": 2.4288084812,
				"element": "C" 
			},
			{
				"x": -1.7777302609,
				"y": 3.1036251512,
				"z": 2.6697733253,
				"element": "C" 
			},
			{
				"x": -0.5303142038,
				"y": 3.3779604169,
				"z": 3.0540093968,
				"element": "C" 
			},
			{
				"x": 3.5406507166,
				"y": -1.9660983745,
				"z": -0.2622993354,
				"element": "H" 
			},
			{
				"x": 2.9220868629,
				"y": -1.8018434751,
				"z": 1.3862156286,
				"element": "H" 
			},
			{
				"x": 3.9850712779,
				"y": -3.1512207848,
				"z": 0.9672770848,
				"element": "H" 
			},
			{
				"x": 1.6671554166,
				"y": -3.9892172951,
				"z": 1.1092225772,
				"element": "H" 
			},
			{
				"x": 2.2287874639,
				"y": -4.0970951772,
				"z": -0.5481916366,
				"element": "H" 
			},
			{
				"x": -0.1108392195,
				"y": -3.3305502529,
				"z": -0.3633999435,
				"element": "H" 
			},
			{
				"x": 0.3734552731,
				"y": -1.9340231676,
				"z": 0.5747365146,
				"element": "H" 
			},
			{
				"x": 1.6186586099,
				"y": -2.3341287003,
				"z": -2.1641486272,
				"element": "H" 
			},
			{
				"x": -0.0526532963,
				"y": -1.8350599275,
				"z": -2.1162655,
				"element": "H" 
			},
			{
				"x": 1.9346745341,
				"y": -0.2052218206,
				"z": -0.4985228228,
				"element": "H" 
			},
			{
				"x": 1.951484317,
				"y": -0.0552888403,
				"z": -2.242090151,
				"element": "H" 
			},
			{
				"x": 0.5800869389,
				"y": 1.7003781295,
				"z": -1.3546165234,
				"element": "H" 
			},
			{
				"x": -0.4316194674,
				"y": 0.5998832216,
				"z": -2.2723509148,
				"element": "H" 
			},
			{
				"x": -0.2054982442,
				"y": 0.6129315506,
				"z": 0.7818207661,
				"element": "H" 
			},
			{
				"x": -1.2859445335,
				"y": -0.4132070815,
				"z": -0.1497929298,
				"element": "H" 
			},
			{
				"x": -2.4044404949,
				"y": 1.6477160064,
				"z": -1.0891482485,
				"element": "H" 
			},
			{
				"x": -1.3833972544,
				"y": 2.6474097662,
				"z": -0.0678094624,
				"element": "H" 
			},
			{
				"x": -3.3818708631,
				"y": 0.550087811,
				"z": 0.9470898904,
				"element": "H" 
			},
			{
				"x": -3.699199841,
				"y": 2.2728507224,
				"z": 0.84300417,
				"element": "H" 
			},
			{
				"x": -1.5680973512,
				"y": 0.9751455104,
				"z": 2.641460323,
				"element": "H" 
			},
			{
				"x": -3.1531928182,
				"y": 1.5444044921,
				"z": 3.1423526492,
				"element": "H" 
			},
			{
				"x": -2.4720616064,
				"y": 3.9303107063,
				"z": 2.5060364669,
				"element": "H" 
			},
			{
				"x": 0.1983141516,
				"y": 2.5893475476,
				"z": 3.2289929039,
				"element": "H" 
			},
			{
				"x": -0.1911822167,
				"y": 4.3972779829,
				"z": 3.2148162027,
				"element": "H" 
			}
		],
		 "valence_orbital": [ 
			{
				"type": "occ",
				"energy": -0.31305,
				"method": "rhf"
			},
			{
				"type": "occ",
				"energy": -0.30592,
				"method": "rhf"
			},
			{
				"type": "occ",
				"energy": -0.29776,
				"method": "rhf"
			},
			{
				"type": "occ",
				"energy": -0.29456,
				"method": "rhf"
			},
			{
				"type": "occ",
				"energy": -0.24994,
				"method": "rhf"
			},
			{
				"type": "unocc",
				"energy": 0.0238,
				"method": "rhf"
			},
			{
				"type": "unocc",
				"energy": 0.08498,
				"method": "rhf"
			},
			{
				"type": "unocc",
				"energy": 0.099,
				"method": "rhf"
			},
			{
				"type": "unocc",
				"energy": 0.10209,
				"method": "rhf"
			},
			{
				"type": "unocc",
				"energy": 0.11346,
				"method": "rhf"
			}
		],
		"cosmo_sigma_profile": { 
			"-0.025": 0.0,
			"-0.024": 0.0,
			"-0.023": 0.0,
			"-0.022": 0.0,
			"-0.021": 0.0,
			"-0.02": 0.0,
			"-0.019": 0.0,
			"-0.018": 0.0,
			"-0.017": 0.0,
			"-0.016": 0.0,
			"-0.015": 0.0,
			"-0.014": 0.0,
			"-0.013": 0.0,
			"-0.012": 0.0,
			"-0.011": 0.0,
			"-0.01": 0.0,
			"-0.009": 0.0,
			"-0.008": 0.0,
			"-0.007": 0.0,
			"-0.006": 0.0,
			"-0.005": 0.934407813135,
			"-0.004": 5.40635291629,
			"-0.003": 10.2709252554,
			"-0.002": 32.9402972574,
			"-0.001": 59.7586039494,
			"0.0": 72.2642236784,
			"0.001": 52.4059314855,
			"0.002": 24.087217229,
			"0.003": 4.65326043748,
			"0.004": 4.55692458138,
			"0.005": 3.92461102662,
			"0.006": 3.11493245493,
			"0.007": 1.56432333327,
			"0.008": 0.339560296812,
			"0.009": 0.0,
			"0.01": 0.0,
			"0.011": 0.0,
			"0.012": 0.0,
			"0.013": 0.0,
			"0.014": 0.0,
			"0.015": 0.0,
			"0.016": 0.0,
			"0.017": 0.0,
			"0.018": 0.0,
			"0.019": 0.0,
			"0.02": 0.0,
			"0.021": 0.0,
			"0.022": 0.0,
			"0.023": 0.0,
			"0.024": 0.0,
			"0.025": 0.0
		}
	}
}
