{
	 "smiles": "CCC1=CC(C(O)=O)=C(N=C1)C(O)=O", 
	 "Tm": 426.15, 
	 "num_atms": 23, 
	 "gaussian": { 
		 "optdone": 1, 
		 "sigma_profile": "yes", 
		 "theory": "DFT", 
		 "functional": "B3LYP", 
		 "basiset": "6-31G**", 
		 "properties": { 
			 "R2extent": 3118.8377, 
			 "electric_dipole_moment_norm": 6.27906449163, 
			 "electric_quadrupole_moment_norm": 12.2575089133, 
			 "total_energy": -704.042334439, 
			 "HOMO_LUMO_gap": 0.20097, 
			 "cosmo_polarized_energy": -23.6, 
			 "cosmo_cavitation_energy": 28.54, 
			 "cosmo_dispersion_energy": -20.08, 
			 "cosmo_repulsion_energy": 1.62, 
			 "cosmo_total_nonelectrostatic_energy": 10.08, 
			 "SMD_solvation_energy": 5.79 
		},
		"coords": [
			{
				"x": -0.6011631291,
				"y": -2.9125338258,
				"z": -2.3637879825,
				"element": "C" 
			},
			{
				"x": 0.6824780269,
				"y": -2.6199928312,
				"z": -1.5649320575,
				"element": "C" 
			},
			{
				"x": 0.4674930163,
				"y": -1.6127166452,
				"z": -0.4597786288,
				"element": "C" 
			},
			{
				"x": 0.5292813298,
				"y": -0.2353458962,
				"z": -0.6865914202,
				"element": "C" 
			},
			{
				"x": 0.3027391762,
				"y": 0.6662324275,
				"z": 0.3587116469,
				"element": "C" 
			},
			{
				"x": 0.5030647923,
				"y": 2.1406982642,
				"z": 0.1453494842,
				"element": "C" 
			},
			{
				"x": 0.0095828888,
				"y": 2.6377075571,
				"z": -1.0199454317,
				"element": "O" 
			},
			{
				"x": 1.1035121199,
				"y": 2.850153562,
				"z": 0.9122629007,
				"element": "O" 
			},
			{
				"x": 0.0074980802,
				"y": 0.1351456427,
				"z": 1.6287787679,
				"element": "C" 
			},
			{
				"x": -0.0463524084,
				"y": -1.1776837721,
				"z": 1.8661364071,
				"element": "N" 
			},
			{
				"x": 0.1792062135,
				"y": -2.0150755246,
				"z": 0.8511762656,
				"element": "C" 
			},
			{
				"x": -0.282053392,
				"y": 1.0069559579,
				"z": 2.8272829034,
				"element": "C" 
			},
			{
				"x": -1.1974889598,
				"y": 1.9582122114,
				"z": 2.5341688844,
				"element": "O" 
			},
			{
				"x": 0.2052273935,
				"y": 0.8519155037,
				"z": 3.9196171877,
				"element": "O" 
			},
			{
				"x": -0.9886888852,
				"y": -2.004200292,
				"z": -2.8368324413,
				"element": "H" 
			},
			{
				"x": -0.4067650273,
				"y": -3.6466832904,
				"z": -3.1515565492,
				"element": "H" 
			},
			{
				"x": -1.3869003015,
				"y": -3.3106327409,
				"z": -1.7141341657,
				"element": "H" 
			},
			{
				"x": 1.0614888527,
				"y": -3.5531159797,
				"z": -1.1331850658,
				"element": "H" 
			},
			{
				"x": 1.4595632908,
				"y": -2.2529759908,
				"z": -2.245577919,
				"element": "H" 
			},
			{
				"x": 0.7973626062,
				"y": 0.136365095,
				"z": -1.6735927727,
				"element": "H" 
			},
			{
				"x": -0.5691854121,
				"y": 1.9849873481,
				"z": -1.4389558422,
				"element": "H" 
			},
			{
				"x": 0.136966834,
				"y": -3.0762972281,
				"z": 1.0940779825,
				"element": "H" 
			},
			{
				"x": -1.2860671058,
				"y": 2.5101804475,
				"z": 3.3296078463,
				"element": "H" 
			}
		],
		 "valence_orbital": [ 
			{
				"type": "occ",
				"energy": -0.31014,
				"method": "rhf"
			},
			{
				"type": "occ",
				"energy": -0.29746,
				"method": "rhf"
			},
			{
				"type": "occ",
				"energy": -0.28011,
				"method": "rhf"
			},
			{
				"type": "occ",
				"energy": -0.2788,
				"method": "rhf"
			},
			{
				"type": "occ",
				"energy": -0.26604,
				"method": "rhf"
			},
			{
				"type": "unocc",
				"energy": -0.06507,
				"method": "rhf"
			},
			{
				"type": "unocc",
				"energy": -0.05831,
				"method": "rhf"
			},
			{
				"type": "unocc",
				"energy": 0.01684,
				"method": "rhf"
			},
			{
				"type": "unocc",
				"energy": 0.02545,
				"method": "rhf"
			},
			{
				"type": "unocc",
				"energy": 0.05603,
				"method": "rhf"
			}
		],
		"cosmo_sigma_profile": { 
			"-0.025": 0.0,
			"-0.024": 0.0,
			"-0.023": 0.0,
			"-0.022": 0.0,
			"-0.021": 0.0,
			"-0.02": 0.0,
			"-0.019": 0.867167638936,
			"-0.018": 2.45367280803,
			"-0.017": 1.73873032425,
			"-0.016": 1.51832965645,
			"-0.015": 2.13152765481,
			"-0.014": 2.22907011046,
			"-0.013": 0.989820293838,
			"-0.012": 1.73141419152,
			"-0.011": 1.93897738631,
			"-0.01": 1.75832597784,
			"-0.009": 3.27595496643,
			"-0.008": 3.40098250885,
			"-0.007": 6.40997038339,
			"-0.006": 7.19311396874,
			"-0.005": 9.2021267526,
			"-0.004": 13.1564308986,
			"-0.003": 16.9128442905,
			"-0.002": 19.2145170461,
			"-0.001": 23.8991033425,
			"0.0": 18.6706904303,
			"0.001": 10.4519193504,
			"0.002": 4.980063324,
			"0.003": 5.92849073261,
			"0.004": 6.33765134551,
			"0.005": 5.6001415711,
			"0.006": 6.60208691187,
			"0.007": 6.66812158624,
			"0.008": 6.10496327651,
			"0.009": 6.68208749474,
			"0.01": 9.23045188892,
			"0.011": 10.7594083277,
			"0.012": 4.95988112656,
			"0.013": 2.00487555479,
			"0.014": 1.27494989943,
			"0.015": 0.232862055129,
			"0.016": 0.0,
			"0.017": 0.0,
			"0.018": 0.0,
			"0.019": 0.0,
			"0.02": 0.0,
			"0.021": 0.0,
			"0.022": 0.0,
			"0.023": 0.0,
			"0.024": 0.0,
			"0.025": 0.0
		}
	}
}
