{
	 "smiles": "O=C1CCCCC1", 
	 "Tm": 247.15, 
	 "num_atms": 17, 
	 "gaussian": { 
		 "optdone": 1, 
		 "sigma_profile": "yes", 
		 "theory": "DFT", 
		 "functional": "B3LYP", 
		 "basiset": "6-31G**", 
		 "properties": { 
			 "R2extent": 1305.6314, 
			 "electric_dipole_moment_norm": 3.06869520481, 
			 "electric_quadrupole_moment_norm": 14.5490985229, 
			 "total_energy": -309.899609568, 
			 "HOMO_LUMO_gap": 0.22233, 
			 "cosmo_polarized_energy": -6.68, 
			 "cosmo_cavitation_energy": 18.6, 
			 "cosmo_dispersion_energy": -14.2, 
			 "cosmo_repulsion_energy": 1.22, 
			 "cosmo_total_nonelectrostatic_energy": 5.62, 
			 "SMD_solvation_energy": 3.19 
		},
		"coords": [
			{
				"x": -3.5542580744,
				"y": -0.2986743785,
				"z": -1.3113791688,
				"element": "O" 
			},
			{
				"x": -2.4028047251,
				"y": -0.6787204143,
				"z": -1.2127674836,
				"element": "C" 
			},
			{
				"x": -1.3073760173,
				"y": -0.2233686102,
				"z": -2.1698519384,
				"element": "C" 
			},
			{
				"x": -0.0398948316,
				"y": 0.2391632234,
				"z": -1.4206613205,
				"element": "C" 
			},
			{
				"x": 0.4358116119,
				"y": -0.8145662068,
				"z": -0.4103118582,
				"element": "C" 
			},
			{
				"x": -0.6754954968,
				"y": -1.1647886896,
				"z": 0.5896153448,
				"element": "C" 
			},
			{
				"x": -1.9530558187,
				"y": -1.6498913008,
				"z": -0.1274986773,
				"element": "C" 
			},
			{
				"x": -1.0504625255,
				"y": -1.0826941934,
				"z": -2.8074322812,
				"element": "H" 
			},
			{
				"x": -1.7147989241,
				"y": 0.558581007,
				"z": -2.8160723064,
				"element": "H" 
			},
			{
				"x": -0.2585939314,
				"y": 1.1756494729,
				"z": -0.8903895959,
				"element": "H" 
			},
			{
				"x": 0.7518427009,
				"y": 0.4681109054,
				"z": -2.1428297798,
				"element": "H" 
			},
			{
				"x": 1.3211020621,
				"y": -0.4505690423,
				"z": 0.1238498581,
				"element": "H" 
			},
			{
				"x": 0.7454464526,
				"y": -1.7229174193,
				"z": -0.9467479466,
				"element": "H" 
			},
			{
				"x": -0.3347430369,
				"y": -1.9319248362,
				"z": 1.2940159351,
				"element": "H" 
			},
			{
				"x": -0.916083975,
				"y": -0.2763022822,
				"z": 1.1885670728,
				"element": "H" 
			},
			{
				"x": -2.7840332758,
				"y": -1.8036802763,
				"z": 0.5659451783,
				"element": "H" 
			},
			{
				"x": -1.7433021948,
				"y": -2.6135069588,
				"z": -0.6157510325,
				"element": "H" 
			}
		],
		 "valence_orbital": [ 
			{
				"type": "occ",
				"energy": -0.35662,
				"method": "rhf"
			},
			{
				"type": "occ",
				"energy": -0.3311,
				"method": "rhf"
			},
			{
				"type": "occ",
				"energy": -0.32845,
				"method": "rhf"
			},
			{
				"type": "occ",
				"energy": -0.32404,
				"method": "rhf"
			},
			{
				"type": "occ",
				"energy": -0.23418,
				"method": "rhf"
			},
			{
				"type": "unocc",
				"energy": -0.01185,
				"method": "rhf"
			},
			{
				"type": "unocc",
				"energy": 0.08748,
				"method": "rhf"
			},
			{
				"type": "unocc",
				"energy": 0.10886,
				"method": "rhf"
			},
			{
				"type": "unocc",
				"energy": 0.12549,
				"method": "rhf"
			},
			{
				"type": "unocc",
				"energy": 0.1412,
				"method": "rhf"
			}
		],
		"cosmo_sigma_profile": { 
			"-0.025": 0.0,
			"-0.024": 0.0,
			"-0.023": 0.0,
			"-0.022": 0.0,
			"-0.021": 0.0,
			"-0.02": 0.0,
			"-0.019": 0.0,
			"-0.018": 0.0,
			"-0.017": 0.0,
			"-0.016": 0.0,
			"-0.015": 0.0,
			"-0.014": 0.0,
			"-0.013": 0.0,
			"-0.012": 0.0,
			"-0.011": 0.0,
			"-0.01": 0.0,
			"-0.009": 0.0,
			"-0.008": 0.0,
			"-0.007": 0.00955685295112,
			"-0.006": 2.33966250804,
			"-0.005": 6.54646056418,
			"-0.004": 11.2656770255,
			"-0.003": 23.5209429619,
			"-0.002": 24.4401663355,
			"-0.001": 26.1375609444,
			"0.0": 17.221533663,
			"0.001": 6.3601508992,
			"0.002": 1.12451090287,
			"0.003": 2.20108311661,
			"0.004": 1.92515696182,
			"0.005": 0.952315362793,
			"0.006": 1.94026413325,
			"0.007": 1.1706302145,
			"0.008": 1.47630921744,
			"0.009": 1.74183206985,
			"0.01": 2.05904158071,
			"0.011": 2.61427332822,
			"0.012": 4.58302337059,
			"0.013": 3.42280681927,
			"0.014": 1.02220616648,
			"0.015": 0.0,
			"0.016": 0.0,
			"0.017": 0.0,
			"0.018": 0.0,
			"0.019": 0.0,
			"0.02": 0.0,
			"0.021": 0.0,
			"0.022": 0.0,
			"0.023": 0.0,
			"0.024": 0.0,
			"0.025": 0.0
		}
	}
}
