{
	 "smiles": "N#CC(=CC1=CN=CC=C1)C1=NC(=CS1)C1=CC=CC=C1", 
	 "Tm": 437.15, 
	 "num_atms": 32, 
	 "gaussian": { 
		 "optdone": 1, 
		 "sigma_profile": "yes", 
		 "theory": "DFT", 
		 "functional": "B3LYP", 
		 "basiset": "6-31G**", 
		 "properties": { 
			 "R2extent": 7797.2893, 
			 "electric_dipole_moment_norm": 2.8198281171, 
			 "electric_quadrupole_moment_norm": 34.7281743684, 
			 "total_energy": -1216.83664048, 
			 "HOMO_LUMO_gap": 0.12534, 
			 "cosmo_polarized_energy": -14.33, 
			 "cosmo_cavitation_energy": 39.66, 
			 "cosmo_dispersion_energy": -28.05, 
			 "cosmo_repulsion_energy": 2.04, 
			 "cosmo_total_nonelectrostatic_energy": 13.64, 
			 "SMD_solvation_energy": 5.75 
		},
		"coords": [
			{
				"x": 1.9291386342,
				"y": 1.0069916377,
				"z": 4.6038400064,
				"element": "N" 
			},
			{
				"x": 1.5762440627,
				"y": 0.6952145953,
				"z": 3.5393623776,
				"element": "C" 
			},
			{
				"x": 1.1420416488,
				"y": 0.3081216818,
				"z": 2.2204343065,
				"element": "C" 
			},
			{
				"x": 1.2537090687,
				"y": -1.0355851675,
				"z": 1.9652894573,
				"element": "C" 
			},
			{
				"x": 0.9808428993,
				"y": -1.9225358391,
				"z": 0.8425384698,
				"element": "C" 
			},
			{
				"x": 0.7033336744,
				"y": -1.5454944229,
				"z": -0.4911155013,
				"element": "C" 
			},
			{
				"x": 0.4734950208,
				"y": -2.4173479292,
				"z": -1.4776823731,
				"element": "N" 
			},
			{
				"x": 0.5099679252,
				"y": -3.7237872448,
				"z": -1.1857548838,
				"element": "C" 
			},
			{
				"x": 0.7929999699,
				"y": -4.2191713556,
				"z": 0.0888777751,
				"element": "C" 
			},
			{
				"x": 1.0373057006,
				"y": -3.3081525339,
				"z": 1.10644445,
				"element": "C" 
			},
			{
				"x": 0.6277029358,
				"y": 1.4177551944,
				"z": 1.4099714461,
				"element": "C" 
			},
			{
				"x": 0.1673918784,
				"y": 1.3603725893,
				"z": 0.1892710066,
				"element": "N" 
			},
			{
				"x": -0.254705305,
				"y": 2.5837086672,
				"z": -0.280244415,
				"element": "C" 
			},
			{
				"x": -0.1119895454,
				"y": 3.61027428,
				"z": 0.6282967001,
				"element": "C" 
			},
			{
				"x": 0.5725318343,
				"y": 3.0469226403,
				"z": 2.1014724131,
				"element": "S" 
			},
			{
				"x": -0.8083797992,
				"y": 2.6973682393,
				"z": -1.6442261918,
				"element": "C" 
			},
			{
				"x": -0.910381485,
				"y": 3.9434991406,
				"z": -2.2852068777,
				"element": "C" 
			},
			{
				"x": -1.4480524026,
				"y": 4.0421398095,
				"z": -3.5662463755,
				"element": "C" 
			},
			{
				"x": -1.8880304793,
				"y": 2.8969224491,
				"z": -4.234194935,
				"element": "C" 
			},
			{
				"x": -1.7836390375,
				"y": 1.6529579569,
				"z": -3.6095251285,
				"element": "C" 
			},
			{
				"x": -1.2494879946,
				"y": 1.5514390276,
				"z": -2.3261248248,
				"element": "C" 
			},
			{
				"x": 1.6317860167,
				"y": -1.5855361711,
				"z": 2.824948633,
				"element": "H" 
			},
			{
				"x": 0.6647096713,
				"y": -0.4953351422,
				"z": -0.7498316732,
				"element": "H" 
			},
			{
				"x": 0.3098295738,
				"y": -4.4057966464,
				"z": -2.0103232939,
				"element": "H" 
			},
			{
				"x": 0.823513153,
				"y": -5.2883439814,
				"z": 0.2723652045,
				"element": "H" 
			},
			{
				"x": 1.2667910748,
				"y": -3.6559599389,
				"z": 2.1105691119,
				"element": "H" 
			},
			{
				"x": -0.3913373719,
				"y": 4.647368546,
				"z": 0.5146848708,
				"element": "H" 
			},
			{
				"x": -0.5480625552,
				"y": 4.8395557531,
				"z": -1.7899456089,
				"element": "H" 
			},
			{
				"x": -1.5147124205,
				"y": 5.0136713672,
				"z": -4.0474080432,
				"element": "H" 
			},
			{
				"x": -2.3032086337,
				"y": 2.974020527,
				"z": -5.2348100683,
				"element": "H" 
			},
			{
				"x": -2.1193702402,
				"y": 0.7556857473,
				"z": -4.1211288319,
				"element": "H" 
			},
			{
				"x": -1.1765774725,
				"y": 0.5838565235,
				"z": -1.8427972029,
				"element": "H" 
			}
		],
		 "valence_orbital": [ 
			{
				"type": "occ",
				"energy": -0.28565,
				"method": "rhf"
			},
			{
				"type": "occ",
				"energy": -0.26092,
				"method": "rhf"
			},
			{
				"type": "occ",
				"energy": -0.25538,
				"method": "rhf"
			},
			{
				"type": "occ",
				"energy": -0.25172,
				"method": "rhf"
			},
			{
				"type": "occ",
				"energy": -0.22203,
				"method": "rhf"
			},
			{
				"type": "unocc",
				"energy": -0.09669,
				"method": "rhf"
			},
			{
				"type": "unocc",
				"energy": -0.04212,
				"method": "rhf"
			},
			{
				"type": "unocc",
				"energy": -0.03298,
				"method": "rhf"
			},
			{
				"type": "unocc",
				"energy": -0.01465,
				"method": "rhf"
			},
			{
				"type": "unocc",
				"energy": -0.0049,
				"method": "rhf"
			}
		],
		"cosmo_sigma_profile": { 
			"-0.025": 0.0,
			"-0.024": 0.0,
			"-0.023": 0.0,
			"-0.022": 0.0,
			"-0.021": 0.0,
			"-0.02": 0.0,
			"-0.019": 0.0,
			"-0.018": 0.0,
			"-0.017": 0.0,
			"-0.016": 0.0,
			"-0.015": 0.0,
			"-0.014": 0.0,
			"-0.013": 0.0,
			"-0.012": 0.0,
			"-0.011": 0.0671495525899,
			"-0.01": 2.88956336028,
			"-0.009": 5.84670222121,
			"-0.008": 6.01405202588,
			"-0.007": 10.897047709,
			"-0.006": 15.2609127351,
			"-0.005": 16.8759644698,
			"-0.004": 17.9643633976,
			"-0.003": 19.0967885678,
			"-0.002": 21.7822592768,
			"-0.001": 27.6012324372,
			"0.0": 33.9583080633,
			"0.001": 39.9210126832,
			"0.002": 27.4594748647,
			"0.003": 16.6947643315,
			"0.004": 14.9845599428,
			"0.005": 15.4443252913,
			"0.006": 5.76951425198,
			"0.007": 3.91783790425,
			"0.008": 3.94178886926,
			"0.009": 3.90329491519,
			"0.01": 3.87916653387,
			"0.011": 3.39274363739,
			"0.012": 3.17661277168,
			"0.013": 1.39380553053,
			"0.014": 0.614929850157,
			"0.015": 0.947256023144,
			"0.016": 0.586055945952,
			"0.017": 0.0657855937445,
			"0.018": 0.0,
			"0.019": 0.0,
			"0.02": 0.0,
			"0.021": 0.0,
			"0.022": 0.0,
			"0.023": 0.0,
			"0.024": 0.0,
			"0.025": 0.0
		}
	}
}
