{
	 "smiles": "COC1=CC2=C(OC(C(O)=O)=C2C)C=C1", 
	 "Tm": 476.15, 
	 "num_atms": 25, 
	 "gaussian": { 
		 "optdone": 1, 
		 "sigma_profile": "yes", 
		 "theory": "DFT", 
		 "functional": "B3LYP", 
		 "basiset": "6-31G**", 
		 "properties": { 
			 "R2extent": 5053.9519, 
			 "electric_dipole_moment_norm": 5.98936957367, 
			 "electric_quadrupole_moment_norm": 25.8491017523, 
			 "total_energy": -726.087690376, 
			 "HOMO_LUMO_gap": 0.16435, 
			 "cosmo_polarized_energy": -13.38, 
			 "cosmo_cavitation_energy": 29.58, 
			 "cosmo_dispersion_energy": -21.86, 
			 "cosmo_repulsion_energy": 1.69, 
			 "cosmo_total_nonelectrostatic_energy": 9.42, 
			 "SMD_solvation_energy": 7.23 
		},
		"coords": [
			{
				"x": -0.5452599308,
				"y": -0.9347054986,
				"z": -3.3254266074,
				"element": "C" 
			},
			{
				"x": -0.6807228048,
				"y": -0.1482415416,
				"z": -2.1532860006,
				"element": "O" 
			},
			{
				"x": -0.0500580329,
				"y": -0.5562791937,
				"z": -1.0111061588,
				"element": "C" 
			},
			{
				"x": -0.2301837328,
				"y": 0.2696494563,
				"z": 0.1010234634,
				"element": "C" 
			},
			{
				"x": 0.3874396103,
				"y": -0.088126883,
				"z": 1.3046492475,
				"element": "C" 
			},
			{
				"x": 1.1659911409,
				"y": -1.2600654856,
				"z": 1.360130819,
				"element": "C" 
			},
			{
				"x": 1.6791217004,
				"y": -1.4297359716,
				"z": 2.6192397229,
				"element": "O" 
			},
			{
				"x": 1.2182409223,
				"y": -0.352630702,
				"z": 3.3634226114,
				"element": "C" 
			},
			{
				"x": 1.6311836199,
				"y": -0.2937581558,
				"z": 4.7727722364,
				"element": "C" 
			},
			{
				"x": 2.4227687615,
				"y": -1.3101385425,
				"z": 5.1918706096,
				"element": "O" 
			},
			{
				"x": 1.2902748093,
				"y": 0.5975442719,
				"z": 5.5201570111,
				"element": "O" 
			},
			{
				"x": 0.4339697409,
				"y": 0.4927885087,
				"z": 2.6280754552,
				"element": "C" 
			},
			{
				"x": -0.2327079948,
				"y": 1.7501537392,
				"z": 3.0948394413,
				"element": "C" 
			},
			{
				"x": 1.3576326566,
				"y": -2.0932247369,
				"z": 0.2689913581,
				"element": "C" 
			},
			{
				"x": 0.7373563693,
				"y": -1.7271911534,
				"z": -0.9262802885,
				"element": "C" 
			},
			{
				"x": -1.1235828519,
				"y": -0.4247076156,
				"z": -4.0972959311,
				"element": "H" 
			},
			{
				"x": 0.5011516472,
				"y": -1.0059808521,
				"z": -3.6499798093,
				"element": "H" 
			},
			{
				"x": -0.9474767401,
				"y": -1.9467495435,
				"z": -3.1861987034,
				"element": "H" 
			},
			{
				"x": -0.8401783329,
				"y": 1.161085421,
				"z": 0.0035090893,
				"element": "H" 
			},
			{
				"x": 2.5816675306,
				"y": -1.9191823765,
				"z": 4.4529661632,
				"element": "H" 
			},
			{
				"x": -0.9163403671,
				"y": 1.5472951251,
				"z": 3.9242520452,
				"element": "H" 
			},
			{
				"x": -0.7959527364,
				"y": 2.2167571664,
				"z": 2.2831772666,
				"element": "H" 
			},
			{
				"x": 0.5024392288,
				"y": 2.4683770569,
				"z": 3.4692076233,
				"element": "H" 
			},
			{
				"x": 1.9624537044,
				"y": -2.9906472526,
				"z": 0.3382330533,
				"element": "H" 
			},
			{
				"x": 0.8694720822,
				"y": -2.3591852404,
				"z": -1.7955437178,
				"element": "H" 
			}
		],
		 "valence_orbital": [ 
			{
				"type": "occ",
				"energy": -0.31325,
				"method": "rhf"
			},
			{
				"type": "occ",
				"energy": -0.29737,
				"method": "rhf"
			},
			{
				"type": "occ",
				"energy": -0.27373,
				"method": "rhf"
			},
			{
				"type": "occ",
				"energy": -0.23441,
				"method": "rhf"
			},
			{
				"type": "occ",
				"energy": -0.22408,
				"method": "rhf"
			},
			{
				"type": "unocc",
				"energy": -0.05973,
				"method": "rhf"
			},
			{
				"type": "unocc",
				"energy": 0.00175,
				"method": "rhf"
			},
			{
				"type": "unocc",
				"energy": 0.02194,
				"method": "rhf"
			},
			{
				"type": "unocc",
				"energy": 0.07937,
				"method": "rhf"
			},
			{
				"type": "unocc",
				"energy": 0.09045,
				"method": "rhf"
			}
		],
		"cosmo_sigma_profile": { 
			"-0.025": 0.0,
			"-0.024": 0.0,
			"-0.023": 0.0,
			"-0.022": 0.0,
			"-0.021": 0.0,
			"-0.02": 0.0,
			"-0.019": 0.0,
			"-0.018": 0.0,
			"-0.017": 0.0880653775165,
			"-0.016": 0.602698053848,
			"-0.015": 0.117810165101,
			"-0.014": 1.09474049072,
			"-0.013": 0.564595801297,
			"-0.012": 1.17875745926,
			"-0.011": 0.791364254283,
			"-0.01": 0.33763912443,
			"-0.009": 0.9701561823,
			"-0.008": 1.63693466907,
			"-0.007": 6.34091867327,
			"-0.006": 13.3377925811,
			"-0.005": 19.6707643675,
			"-0.004": 17.7349875768,
			"-0.003": 19.0238362708,
			"-0.002": 15.4060072869,
			"-0.001": 21.17653218,
			"0.0": 17.9409273717,
			"0.001": 16.1913042049,
			"0.002": 14.4822471528,
			"0.003": 18.1570912385,
			"0.004": 10.810885872,
			"0.005": 4.045727657,
			"0.006": 4.7845903109,
			"0.007": 3.63758836618,
			"0.008": 4.13271956669,
			"0.009": 4.68285926672,
			"0.01": 6.71398580004,
			"0.011": 4.56977643803,
			"0.012": 4.23356799958,
			"0.013": 1.69939684915,
			"0.014": 0.0354299556727,
			"0.015": 0.0,
			"0.016": 0.0,
			"0.017": 0.0,
			"0.018": 0.0,
			"0.019": 0.0,
			"0.02": 0.0,
			"0.021": 0.0,
			"0.022": 0.0,
			"0.023": 0.0,
			"0.024": 0.0,
			"0.025": 0.0
		}
	}
}
