{
	 "smiles": "NNC(=S)NC1=CC=CC=C1Cl", 
	 "Tm": 411.15, 
	 "num_atms": 20, 
	 "gaussian": { 
		 "optdone": 1, 
		 "sigma_profile": "yes", 
		 "theory": "DFT", 
		 "functional": "B3LYP", 
		 "basiset": "6-31G**", 
		 "properties": { 
			 "R2extent": 2992.0713, 
			 "electric_dipole_moment_norm": 5.67573367064, 
			 "electric_quadrupole_moment_norm": 9.92196443352, 
			 "total_energy": -1294.17727286, 
			 "HOMO_LUMO_gap": 0.16568, 
			 "cosmo_polarized_energy": -16.23, 
			 "cosmo_cavitation_energy": 27.71, 
			 "cosmo_dispersion_energy": -20.22, 
			 "cosmo_repulsion_energy": 1.59, 
			 "cosmo_total_nonelectrostatic_energy": 9.08, 
			 "SMD_solvation_energy": 4.18 
		},
		"coords": [
			{
				"x": 3.0377745276,
				"y": 1.1000842078,
				"z": 0.9395664059,
				"element": "N" 
			},
			{
				"x": 1.8997453274,
				"y": 0.7332607279,
				"z": 0.2060865704,
				"element": "N" 
			},
			{
				"x": 1.9228108748,
				"y": 0.3236010796,
				"z": -1.0844704712,
				"element": "C" 
			},
			{
				"x": 3.3314467134,
				"y": 0.2444564082,
				"z": -2.0015214291,
				"element": "S" 
			},
			{
				"x": 0.7071562619,
				"y": -0.0171793084,
				"z": -1.6257020237,
				"element": "N" 
			},
			{
				"x": -0.5665482071,
				"y": 0.0638235472,
				"z": -0.9967199316,
				"element": "C" 
			},
			{
				"x": -1.4481313748,
				"y": 1.0963787651,
				"z": -1.3477985789,
				"element": "C" 
			},
			{
				"x": -2.7190091258,
				"y": 1.1808223107,
				"z": -0.7838284796,
				"element": "C" 
			},
			{
				"x": -3.1221442686,
				"y": 0.2338102869,
				"z": 0.1592336643,
				"element": "C" 
			},
			{
				"x": -2.2627501659,
				"y": -0.8008565862,
				"z": 0.5257223275,
				"element": "C" 
			},
			{
				"x": -0.9971692362,
				"y": -0.8921343769,
				"z": -0.0570392941,
				"element": "C" 
			},
			{
				"x": 0.0404052517,
				"y": -2.2311373984,
				"z": 0.3832229254,
				"element": "Cl" 
			},
			{
				"x": 3.6713509866,
				"y": 0.2994297356,
				"z": 0.940277759,
				"element": "H" 
			},
			{
				"x": 3.5242398245,
				"y": 1.818299606,
				"z": 0.4012397299,
				"element": "H" 
			},
			{
				"x": 1.0318793524,
				"y": 0.785433266,
				"z": 0.7192841759,
				"element": "H" 
			},
			{
				"x": 0.7488254883,
				"y": -0.2239323733,
				"z": -2.6140580321,
				"element": "H" 
			},
			{
				"x": -1.1113368756,
				"y": 1.832754184,
				"z": -2.0710723106,
				"element": "H" 
			},
			{
				"x": -3.3864333495,
				"y": 1.9865358056,
				"z": -1.0724410365,
				"element": "H" 
			},
			{
				"x": -4.107570123,
				"y": 0.2943554055,
				"z": 0.6106951537,
				"element": "H" 
			},
			{
				"x": -2.5686418821,
				"y": -1.5487052929,
				"z": 1.2488228753,
				"element": "H" 
			}
		],
		 "valence_orbital": [ 
			{
				"type": "occ",
				"energy": -0.27968,
				"method": "rhf"
			},
			{
				"type": "occ",
				"energy": -0.27029,
				"method": "rhf"
			},
			{
				"type": "occ",
				"energy": -0.26268,
				"method": "rhf"
			},
			{
				"type": "occ",
				"energy": -0.21544,
				"method": "rhf"
			},
			{
				"type": "occ",
				"energy": -0.20684,
				"method": "rhf"
			},
			{
				"type": "unocc",
				"energy": -0.04116,
				"method": "rhf"
			},
			{
				"type": "unocc",
				"energy": -0.03494,
				"method": "rhf"
			},
			{
				"type": "unocc",
				"energy": 0.00445,
				"method": "rhf"
			},
			{
				"type": "unocc",
				"energy": 0.01552,
				"method": "rhf"
			},
			{
				"type": "unocc",
				"energy": 0.07973,
				"method": "rhf"
			}
		],
		"cosmo_sigma_profile": { 
			"-0.025": 0.0,
			"-0.024": 0.0,
			"-0.023": 0.0,
			"-0.022": 0.0,
			"-0.021": 0.0,
			"-0.02": 0.0,
			"-0.019": 0.0,
			"-0.018": 0.0,
			"-0.017": 0.0,
			"-0.016": 0.0084032682304,
			"-0.015": 0.541366701405,
			"-0.014": 1.4442587454,
			"-0.013": 1.32442320299,
			"-0.012": 1.1854840426,
			"-0.011": 2.78513565301,
			"-0.01": 4.04656506409,
			"-0.009": 4.7483838593,
			"-0.008": 4.29494934881,
			"-0.007": 11.7052681293,
			"-0.006": 13.0698590678,
			"-0.005": 13.5258249708,
			"-0.004": 10.7030104886,
			"-0.003": 10.7528335671,
			"-0.002": 10.7709574592,
			"-0.001": 12.6824702538,
			"0.0": 15.3935438855,
			"0.001": 15.7489669261,
			"0.002": 16.1431326277,
			"0.003": 17.9616591592,
			"0.004": 12.6553333256,
			"0.005": 6.55499215755,
			"0.006": 4.00032926262,
			"0.007": 3.95541787798,
			"0.008": 4.28237164872,
			"0.009": 5.84138925343,
			"0.01": 6.1302292897,
			"0.011": 7.83858554347,
			"0.012": 3.27243122707,
			"0.013": 0.815082262944,
			"0.014": 0.581652616415,
			"0.015": 0.504739203037,
			"0.016": 0.371193642364,
			"0.017": 0.0,
			"0.018": 0.0,
			"0.019": 0.0,
			"0.02": 0.0,
			"0.021": 0.0,
			"0.022": 0.0,
			"0.023": 0.0,
			"0.024": 0.0,
			"0.025": 0.0
		}
	}
}
