{
	 "smiles": "FC1=CC(F)=C(F)C(F)=C1F", 
	 "Tm": 225.55, 
	 "num_atms": 12, 
	 "gaussian": { 
		 "optdone": 1, 
		 "sigma_profile": "yes", 
		 "theory": "DFT", 
		 "functional": "B3LYP", 
		 "basiset": "6-31G**", 
		 "properties": { 
			 "R2extent": 1938.7086, 
			 "electric_dipole_moment_norm": 1.24507555192, 
			 "electric_quadrupole_moment_norm": 5.3503656333, 
			 "total_energy": -728.374354365, 
			 "HOMO_LUMO_gap": 0.22916, 
			 "cosmo_polarized_energy": -2.84, 
			 "cosmo_cavitation_energy": 19.71, 
			 "cosmo_dispersion_energy": -13.86, 
			 "cosmo_repulsion_energy": 1.01, 
			 "cosmo_total_nonelectrostatic_energy": 6.86, 
			 "SMD_solvation_energy": 6.03 
		},
		"coords": [
			{
				"x": 0.8641738541,
				"y": -2.688761239,
				"z": -0.1924965909,
				"element": "F" 
			},
			{
				"x": -0.0477428029,
				"y": -1.7238861136,
				"z": -0.0147069379,
				"element": "C" 
			},
			{
				"x": -1.2483236231,
				"y": -1.7590751487,
				"z": -0.714047779,
				"element": "C" 
			},
			{
				"x": -2.172770377,
				"y": -0.742265095,
				"z": -0.5061473178,
				"element": "C" 
			},
			{
				"x": -3.3392084654,
				"y": -0.7471117714,
				"z": -1.1646326316,
				"element": "F" 
			},
			{
				"x": -1.9131629699,
				"y": 0.2985110102,
				"z": 0.3837769832,
				"element": "C" 
			},
			{
				"x": -2.8081831989,
				"y": 1.2733359354,
				"z": 0.5782055695,
				"element": "F" 
			},
			{
				"x": -0.7033738602,
				"y": 0.3169682022,
				"z": 1.0762778156,
				"element": "C" 
			},
			{
				"x": -0.4430459447,
				"y": 1.3087037699,
				"z": 1.9314745939,
				"element": "F" 
			},
			{
				"x": 0.2361024656,
				"y": -0.6942936196,
				"z": 0.8808146354,
				"element": "C" 
			},
			{
				"x": 1.3939772474,
				"y": -0.6677575336,
				"z": 1.5499797308,
				"element": "F" 
			},
			{
				"x": -1.459442325,
				"y": -2.5633683967,
				"z": -1.4076980713,
				"element": "H" 
			}
		],
		 "valence_orbital": [ 
			{
				"type": "occ",
				"energy": -0.39991,
				"method": "rhf"
			},
			{
				"type": "occ",
				"energy": -0.38327,
				"method": "rhf"
			},
			{
				"type": "occ",
				"energy": -0.35724,
				"method": "rhf"
			},
			{
				"type": "occ",
				"energy": -0.27281,
				"method": "rhf"
			},
			{
				"type": "occ",
				"energy": -0.25927,
				"method": "rhf"
			},
			{
				"type": "unocc",
				"energy": -0.03011,
				"method": "rhf"
			},
			{
				"type": "unocc",
				"energy": -0.01904,
				"method": "rhf"
			},
			{
				"type": "unocc",
				"energy": 0.01102,
				"method": "rhf"
			},
			{
				"type": "unocc",
				"energy": 0.09795,
				"method": "rhf"
			},
			{
				"type": "unocc",
				"energy": 0.1178,
				"method": "rhf"
			}
		],
		"cosmo_sigma_profile": { 
			"-0.025": 0.0,
			"-0.024": 0.0,
			"-0.023": 0.0,
			"-0.022": 0.0,
			"-0.021": 0.0,
			"-0.02": 0.0,
			"-0.019": 0.0,
			"-0.018": 0.0,
			"-0.017": 0.0,
			"-0.016": 0.0,
			"-0.015": 0.0,
			"-0.014": 0.0,
			"-0.013": 0.0,
			"-0.012": 0.0,
			"-0.011": 0.0840004354016,
			"-0.01": 1.57887017682,
			"-0.009": 1.26470801835,
			"-0.008": 1.31827188976,
			"-0.007": 1.97433810496,
			"-0.006": 1.12670653656,
			"-0.005": 1.41603202631,
			"-0.004": 7.2680799159,
			"-0.003": 20.2236682486,
			"-0.002": 15.5328465288,
			"-0.001": 14.3682477335,
			"0.0": 10.3838332998,
			"0.001": 10.4312023337,
			"0.002": 31.5533161107,
			"0.003": 41.2108035351,
			"0.004": 0.916290452817,
			"0.005": 0.0,
			"0.006": 0.0,
			"0.007": 0.0,
			"0.008": 0.0,
			"0.009": 0.0,
			"0.01": 0.0,
			"0.011": 0.0,
			"0.012": 0.0,
			"0.013": 0.0,
			"0.014": 0.0,
			"0.015": 0.0,
			"0.016": 0.0,
			"0.017": 0.0,
			"0.018": 0.0,
			"0.019": 0.0,
			"0.02": 0.0,
			"0.021": 0.0,
			"0.022": 0.0,
			"0.023": 0.0,
			"0.024": 0.0,
			"0.025": 0.0
		}
	}
}
