{
	 "smiles": "CC1=C(Br)C=C(N)C(N)=C1C", 
	 "Tm": 345.15, 
	 "num_atms": 22, 
	 "gaussian": { 
		 "optdone": 1, 
		 "sigma_profile": "yes", 
		 "theory": "DFT", 
		 "functional": "B3LYP", 
		 "basiset": "6-31G**", 
		 "properties": { 
			 "R2extent": 3225.7259, 
			 "electric_dipole_moment_norm": 3.64044217919, 
			 "electric_quadrupole_moment_norm": 9.22641317089, 
			 "total_energy": -2992.40091096, 
			 "HOMO_LUMO_gap": 0.19527, 
			 "cosmo_polarized_energy": -11.4, 
			 "cosmo_cavitation_energy": 26.34, 
			 "cosmo_dispersion_energy": -20.1, 
			 "cosmo_repulsion_energy": 1.61, 
			 "cosmo_total_nonelectrostatic_energy": 7.86, 
			 "SMD_solvation_energy": 3.44 
		},
		"coords": [
			{
				"x": 1.2475906521,
				"y": 2.2154159652,
				"z": 1.9036305916,
				"element": "C" 
			},
			{
				"x": 0.4059655968,
				"y": 1.2369669866,
				"z": 1.1173988688,
				"element": "C" 
			},
			{
				"x": -0.2609038008,
				"y": 1.5948488452,
				"z": -0.059897542,
				"element": "C" 
			},
			{
				"x": -0.1761830087,
				"y": 3.3848430185,
				"z": -0.7697094014,
				"element": "Br" 
			},
			{
				"x": -1.0112793905,
				"y": 0.680402945,
				"z": -0.7972960925,
				"element": "C" 
			},
			{
				"x": -1.1323430182,
				"y": -0.6359977114,
				"z": -0.365705091,
				"element": "C" 
			},
			{
				"x": -1.8926329668,
				"y": -1.6053451169,
				"z": -1.0784855588,
				"element": "N" 
			},
			{
				"x": -0.5116417791,
				"y": -1.0235064126,
				"z": 0.8428881075,
				"element": "C" 
			},
			{
				"x": -0.7201798239,
				"y": -2.3169934929,
				"z": 1.3324469175,
				"element": "N" 
			},
			{
				"x": 0.2545057526,
				"y": -0.0942219081,
				"z": 1.5714787318,
				"element": "C" 
			},
			{
				"x": 0.8763020139,
				"y": -0.5620642352,
				"z": 2.8671645685,
				"element": "C" 
			},
			{
				"x": 2.2403763526,
				"y": 1.8052227131,
				"z": 2.115703241,
				"element": "H" 
			},
			{
				"x": 1.3799578007,
				"y": 3.1492244711,
				"z": 1.3583912945,
				"element": "H" 
			},
			{
				"x": 0.7847954165,
				"y": 2.4601960263,
				"z": 2.8676556546,
				"element": "H" 
			},
			{
				"x": -1.4821557228,
				"y": 0.9923804692,
				"z": -1.7236914291,
				"element": "H" 
			},
			{
				"x": -2.3952151336,
				"y": -1.189673607,
				"z": -1.8549284569,
				"element": "H" 
			},
			{
				"x": -1.3043592297,
				"y": -2.3497382668,
				"z": -1.4471015148,
				"element": "H" 
			},
			{
				"x": -1.3159265173,
				"y": -2.8909720648,
				"z": 0.7537426601,
				"element": "H" 
			},
			{
				"x": 0.0807039108,
				"y": -2.8040252399,
				"z": 1.7061503835,
				"element": "H" 
			},
			{
				"x": 1.7867506828,
				"y": -1.1557312083,
				"z": 2.6973577295,
				"element": "H" 
			},
			{
				"x": 0.1727786686,
				"y": -1.2010395738,
				"z": 3.4119340308,
				"element": "H" 
			},
			{
				"x": 1.1534935437,
				"y": 0.2663073972,
				"z": 3.5194723068,
				"element": "H" 
			}
		],
		 "valence_orbital": [ 
			{
				"type": "occ",
				"energy": -0.29575,
				"method": "rhf"
			},
			{
				"type": "occ",
				"energy": -0.27148,
				"method": "rhf"
			},
			{
				"type": "occ",
				"energy": -0.2638,
				"method": "rhf"
			},
			{
				"type": "occ",
				"energy": -0.21938,
				"method": "rhf"
			},
			{
				"type": "occ",
				"energy": -0.18903,
				"method": "rhf"
			},
			{
				"type": "unocc",
				"energy": 0.00624,
				"method": "rhf"
			},
			{
				"type": "unocc",
				"energy": 0.0166,
				"method": "rhf"
			},
			{
				"type": "unocc",
				"energy": 0.02127,
				"method": "rhf"
			},
			{
				"type": "unocc",
				"energy": 0.06667,
				"method": "rhf"
			},
			{
				"type": "unocc",
				"energy": 0.09266,
				"method": "rhf"
			}
		],
		"cosmo_sigma_profile": { 
			"-0.025": 0.0,
			"-0.024": 0.0,
			"-0.023": 0.0,
			"-0.022": 0.0,
			"-0.021": 0.0,
			"-0.02": 0.0,
			"-0.019": 0.0,
			"-0.018": 0.0,
			"-0.017": 0.0,
			"-0.016": 0.0,
			"-0.015": 0.0,
			"-0.014": 0.0,
			"-0.013": 0.0,
			"-0.012": 1.71634973471,
			"-0.011": 4.19287083685,
			"-0.01": 5.50099806445,
			"-0.009": 5.57806496177,
			"-0.008": 5.86544181236,
			"-0.007": 5.42249871512,
			"-0.006": 4.36840953215,
			"-0.005": 5.39051149021,
			"-0.004": 9.7240993559,
			"-0.003": 12.6828905468,
			"-0.002": 16.8704327669,
			"-0.001": 15.7974125241,
			"0.0": 17.9667623817,
			"0.001": 15.1686834677,
			"0.002": 11.9099509389,
			"0.003": 11.8985779468,
			"0.004": 15.7133135981,
			"0.005": 17.613432268,
			"0.006": 15.5014604189,
			"0.007": 2.42540532459,
			"0.008": 1.83869183614,
			"0.009": 1.42268702516,
			"0.01": 1.29727165572,
			"0.011": 1.2859793437,
			"0.012": 0.8890454107,
			"0.013": 1.28320619706,
			"0.014": 0.86359339477,
			"0.015": 0.247292712702,
			"0.016": 0.0,
			"0.017": 0.0,
			"0.018": 0.0,
			"0.019": 0.0,
			"0.02": 0.0,
			"0.021": 0.0,
			"0.022": 0.0,
			"0.023": 0.0,
			"0.024": 0.0,
			"0.025": 0.0
		}
	}
}
