{
	 "smiles": "CC(=O)C1=C(C)N(N=C1C)C1=CC=CC=C1", 
	 "Tm": 334.15, 
	 "num_atms": 30, 
	 "gaussian": { 
		 "optdone": 1, 
		 "sigma_profile": "yes", 
		 "theory": "DFT", 
		 "functional": "B3LYP", 
		 "basiset": "6-31G**", 
		 "properties": { 
			 "R2extent": 4392.4414, 
			 "electric_dipole_moment_norm": 2.08117836814, 
			 "electric_quadrupole_moment_norm": 17.1075555349, 
			 "total_energy": -688.548901592, 
			 "HOMO_LUMO_gap": 0.19698, 
			 "cosmo_polarized_energy": -11.12, 
			 "cosmo_cavitation_energy": 33.0, 
			 "cosmo_dispersion_energy": -23.77, 
			 "cosmo_repulsion_energy": 1.83, 
			 "cosmo_total_nonelectrostatic_energy": 11.07, 
			 "SMD_solvation_energy": 5.53 
		},
		"coords": [
			{
				"x": 1.7454524863,
				"y": -0.5033066766,
				"z": -4.0602121903,
				"element": "C" 
			},
			{
				"x": 1.7190546484,
				"y": -0.0337223493,
				"z": -2.6139331026,
				"element": "C" 
			},
			{
				"x": 2.6801559448,
				"y": 0.586079371,
				"z": -2.1641993074,
				"element": "O" 
			},
			{
				"x": 0.5416764329,
				"y": -0.3357332537,
				"z": -1.7826721971,
				"element": "C" 
			},
			{
				"x": 0.4303889151,
				"y": -0.0051792769,
				"z": -0.4241480803,
				"element": "C" 
			},
			{
				"x": 1.4242164383,
				"y": 0.6373007343,
				"z": 0.4894034832,
				"element": "C" 
			},
			{
				"x": -0.7935795851,
				"y": -0.4528573804,
				"z": -0.0276355599,
				"element": "N" 
			},
			{
				"x": -1.4777743019,
				"y": -1.0732671591,
				"z": -1.0402850773,
				"element": "N" 
			},
			{
				"x": -0.6863276734,
				"y": -1.0054079093,
				"z": -2.0997984927,
				"element": "C" 
			},
			{
				"x": -1.1830162079,
				"y": -1.5969696928,
				"z": -3.3857865471,
				"element": "C" 
			},
			{
				"x": -1.4086359023,
				"y": -0.394336302,
				"z": 1.2566358006,
				"element": "C" 
			},
			{
				"x": -2.0925685833,
				"y": -1.5211067717,
				"z": 1.726578347,
				"element": "C" 
			},
			{
				"x": -2.7138205806,
				"y": -1.4781086536,
				"z": 2.9725124551,
				"element": "C" 
			},
			{
				"x": -2.6521762239,
				"y": -0.3218907123,
				"z": 3.7547557639,
				"element": "C" 
			},
			{
				"x": -1.97724225,
				"y": 0.8012072508,
				"z": 3.2756442782,
				"element": "C" 
			},
			{
				"x": -1.3627800129,
				"y": 0.7745165243,
				"z": 2.0228636278,
				"element": "C" 
			},
			{
				"x": 2.6923805372,
				"y": -0.1932444825,
				"z": -4.5036858537,
				"element": "H" 
			},
			{
				"x": 1.6521640411,
				"y": -1.5924994719,
				"z": -4.1254855955,
				"element": "H" 
			},
			{
				"x": 0.9179155058,
				"y": -0.0717895099,
				"z": -4.6329093491,
				"element": "H" 
			},
			{
				"x": 1.3464211255,
				"y": 1.7306774568,
				"z": 0.4593265402,
				"element": "H" 
			},
			{
				"x": 1.2805959986,
				"y": 0.3144527866,
				"z": 1.5232480081,
				"element": "H" 
			},
			{
				"x": 2.4299665985,
				"y": 0.3927957233,
				"z": 0.1497907644,
				"element": "H" 
			},
			{
				"x": -2.1771275012,
				"y": -2.0159190919,
				"z": -3.2172205016,
				"element": "H" 
			},
			{
				"x": -1.2564838322,
				"y": -0.8469413824,
				"z": -4.1801241557,
				"element": "H" 
			},
			{
				"x": -0.5291757685,
				"y": -2.3959136801,
				"z": -3.7502319284,
				"element": "H" 
			},
			{
				"x": -2.1347398111,
				"y": -2.4073402418,
				"z": 1.1045707188,
				"element": "H" 
			},
			{
				"x": -3.2438129383,
				"y": -2.353705446,
				"z": 3.3354759837,
				"element": "H" 
			},
			{
				"x": -3.13369218,
				"y": -0.2947981583,
				"z": 4.727571113,
				"element": "H" 
			},
			{
				"x": -1.9391967509,
				"y": 1.7100805833,
				"z": 3.8686639374,
				"element": "H" 
			},
			{
				"x": -0.8728385689,
				"y": 1.660327172,
				"z": 1.6353871173,
				"element": "H" 
			}
		],
		 "valence_orbital": [ 
			{
				"type": "occ",
				"energy": -0.28155,
				"method": "rhf"
			},
			{
				"type": "occ",
				"energy": -0.26217,
				"method": "rhf"
			},
			{
				"type": "occ",
				"energy": -0.24357,
				"method": "rhf"
			},
			{
				"type": "occ",
				"energy": -0.2361,
				"method": "rhf"
			},
			{
				"type": "occ",
				"energy": -0.23285,
				"method": "rhf"
			},
			{
				"type": "unocc",
				"energy": -0.03587,
				"method": "rhf"
			},
			{
				"type": "unocc",
				"energy": -0.01272,
				"method": "rhf"
			},
			{
				"type": "unocc",
				"energy": -0.01081,
				"method": "rhf"
			},
			{
				"type": "unocc",
				"energy": 0.03031,
				"method": "rhf"
			},
			{
				"type": "unocc",
				"energy": 0.08167,
				"method": "rhf"
			}
		],
		"cosmo_sigma_profile": { 
			"-0.025": 0.0,
			"-0.024": 0.0,
			"-0.023": 0.0,
			"-0.022": 0.0,
			"-0.021": 0.0,
			"-0.02": 0.0,
			"-0.019": 0.0,
			"-0.018": 0.0,
			"-0.017": 0.0,
			"-0.016": 0.0,
			"-0.015": 0.0,
			"-0.014": 0.0,
			"-0.013": 0.0,
			"-0.012": 0.0,
			"-0.011": 0.0,
			"-0.01": 0.0,
			"-0.009": 0.0,
			"-0.008": 0.0334107183642,
			"-0.007": 3.67606174241,
			"-0.006": 17.3109634491,
			"-0.005": 21.2687474783,
			"-0.004": 22.9896176097,
			"-0.003": 22.8664305009,
			"-0.002": 24.6033246906,
			"-0.001": 27.9855828145,
			"0.0": 23.4989073642,
			"0.001": 15.2566117772,
			"0.002": 15.8562733598,
			"0.003": 15.2169272713,
			"0.004": 15.4994490623,
			"0.005": 8.14216289813,
			"0.006": 3.876448722,
			"0.007": 3.21629595607,
			"0.008": 2.87031047726,
			"0.009": 3.51135786107,
			"0.01": 2.7613569953,
			"0.011": 3.05376559632,
			"0.012": 3.45684310165,
			"0.013": 3.4641228673,
			"0.014": 1.98131614743,
			"0.015": 0.179686912588,
			"0.016": 0.0,
			"0.017": 0.0,
			"0.018": 0.0,
			"0.019": 0.0,
			"0.02": 0.0,
			"0.021": 0.0,
			"0.022": 0.0,
			"0.023": 0.0,
			"0.024": 0.0,
			"0.025": 0.0
		}
	}
}
