{
	 "smiles": "CCC(C=CC(C)C1CCC2C3=CCC4CC(O)CCC4(C)C3CCC12C)C(C)C", 
	 "Tm": 441.15, 
	 "num_atms": 78, 
	 "gaussian": { 
		 "optdone": 1, 
		 "sigma_profile": "yes", 
		 "theory": "DFT", 
		 "functional": "B3LYP", 
		 "basiset": "6-31G**", 
		 "properties": { 
			 "R2extent": 17194.3064, 
			 "electric_dipole_moment_norm": 1.46011309836, 
			 "electric_quadrupole_moment_norm": 14.6023121084, 
			 "total_energy": -1209.22821538, 
			 "HOMO_LUMO_gap": 0.23662, 
			 "cosmo_polarized_energy": -8.07, 
			 "cosmo_cavitation_energy": 66.26, 
			 "cosmo_dispersion_energy": -42.41, 
			 "cosmo_repulsion_energy": 3.18, 
			 "cosmo_total_nonelectrostatic_energy": 27.03, 
			 "SMD_solvation_energy": 9.44 
		},
		"coords": [
			{
				"x": -2.5080746027,
				"y": 3.7074802994,
				"z": -2.0118512994,
				"element": "C" 
			},
			{
				"x": -2.4269047592,
				"y": 2.3135875362,
				"z": -1.3755622346,
				"element": "C" 
			},
			{
				"x": -3.7988191442,
				"y": 1.6146389532,
				"z": -1.1114199828,
				"element": "C" 
			},
			{
				"x": -3.7143241766,
				"y": 0.9147124434,
				"z": 0.2357878505,
				"element": "C" 
			},
			{
				"x": -3.6151401976,
				"y": -0.3935341794,
				"z": 0.496859739,
				"element": "C" 
			},
			{
				"x": -3.525161172,
				"y": -0.989344591,
				"z": 1.8850905917,
				"element": "C" 
			},
			{
				"x": -4.8733689272,
				"y": -1.6501764399,
				"z": 2.2528012992,
				"element": "C" 
			},
			{
				"x": -2.3589425733,
				"y": -2.0039761407,
				"z": 2.0974317984,
				"element": "C" 
			},
			{
				"x": -2.3572833126,
				"y": -3.1677870886,
				"z": 1.0611711912,
				"element": "C" 
			},
			{
				"x": -1.1375594779,
				"y": -2.9457893984,
				"z": 0.1303378411,
				"element": "C" 
			},
			{
				"x": -0.4903019122,
				"y": -1.5966506107,
				"z": 0.5579170177,
				"element": "C" 
			},
			{
				"x": 1.0061298239,
				"y": -1.5391954925,
				"z": 0.267425889,
				"element": "C" 
			},
			{
				"x": 1.4245055909,
				"y": -1.4775616635,
				"z": -1.003769125,
				"element": "C" 
			},
			{
				"x": 2.8572691677,
				"y": -1.4615115734,
				"z": -1.4531544424,
				"element": "C" 
			},
			{
				"x": 3.910870059,
				"y": -1.3972912598,
				"z": -0.3239263039,
				"element": "C" 
			},
			{
				"x": 4.4752152785,
				"y": 0.0071007496,
				"z": -0.057720884,
				"element": "C" 
			},
			{
				"x": 5.8018222694,
				"y": -0.0778829981,
				"z": 0.7355415379,
				"element": "C" 
			},
			{
				"x": 6.933450036,
				"y": -0.1891679264,
				"z": -0.1312957765,
				"element": "O" 
			},
			{
				"x": 5.8352105598,
				"y": -1.3256908223,
				"z": 1.6337375269,
				"element": "C" 
			},
			{
				"x": 4.4375843154,
				"y": -1.6825568203,
				"z": 2.1518701176,
				"element": "C" 
			},
			{
				"x": 3.4215449923,
				"y": -2.0441192161,
				"z": 1.0140647878,
				"element": "C" 
			},
			{
				"x": 3.3746402692,
				"y": -3.5725794381,
				"z": 0.8177117498,
				"element": "C" 
			},
			{
				"x": 2.0176024162,
				"y": -1.4702561374,
				"z": 1.4079011328,
				"element": "C" 
			},
			{
				"x": 1.5138370068,
				"y": -2.0005152452,
				"z": 2.7902796513,
				"element": "C" 
			},
			{
				"x": 0.0187626222,
				"y": -2.3601343438,
				"z": 2.8734882267,
				"element": "C" 
			},
			{
				"x": -0.8993410189,
				"y": -1.4326968543,
				"z": 2.0450418636,
				"element": "C" 
			},
			{
				"x": -0.7853341651,
				"y": 0.0136843263,
				"z": 2.5518696877,
				"element": "C" 
			},
			{
				"x": -4.2870751061,
				"y": 0.6983771509,
				"z": -2.2667147839,
				"element": "C" 
			},
			{
				"x": -4.1722413054,
				"y": 1.3396876083,
				"z": -3.659225823,
				"element": "C" 
			},
			{
				"x": -5.7408263454,
				"y": 0.2458561638,
				"z": -2.042642067,
				"element": "C" 
			},
			{
				"x": -3.0813133464,
				"y": 4.3905242623,
				"z": -1.3742196207,
				"element": "H" 
			},
			{
				"x": -1.5077268938,
				"y": 4.1362810255,
				"z": -2.1369419393,
				"element": "H" 
			},
			{
				"x": -2.9880211367,
				"y": 3.6954058842,
				"z": -2.9935526252,
				"element": "H" 
			},
			{
				"x": -1.7990083705,
				"y": 1.6489372609,
				"z": -1.9834058871,
				"element": "H" 
			},
			{
				"x": -1.8981975722,
				"y": 2.4143559684,
				"z": -0.4202841895,
				"element": "H" 
			},
			{
				"x": -4.5470768815,
				"y": 2.4166349144,
				"z": -1.000758893,
				"element": "H" 
			},
			{
				"x": -3.6762910194,
				"y": 1.6023491782,
				"z": 1.0843689274,
				"element": "H" 
			},
			{
				"x": -3.6592945011,
				"y": -1.1084710667,
				"z": -0.3240828319,
				"element": "H" 
			},
			{
				"x": -3.3789975736,
				"y": -0.1647532221,
				"z": 2.5933256858,
				"element": "H" 
			},
			{
				"x": -5.6858661337,
				"y": -0.919244735,
				"z": 2.1975349156,
				"element": "H" 
			},
			{
				"x": -5.1233939733,
				"y": -2.4722805575,
				"z": 1.5732149891,
				"element": "H" 
			},
			{
				"x": -4.846209895,
				"y": -2.0567540373,
				"z": 3.2703513656,
				"element": "H" 
			},
			{
				"x": -2.5221735525,
				"y": -2.4092466522,
				"z": 3.1051928196,
				"element": "H" 
			},
			{
				"x": -2.2820796317,
				"y": -4.1345172164,
				"z": 1.5684304417,
				"element": "H" 
			},
			{
				"x": -3.2933570236,
				"y": -3.202664953,
				"z": 0.4960027074,
				"element": "H" 
			},
			{
				"x": -0.4115873349,
				"y": -3.7580113781,
				"z": 0.2364272677,
				"element": "H" 
			},
			{
				"x": -1.4174488166,
				"y": -2.9255509121,
				"z": -0.9276573183,
				"element": "H" 
			},
			{
				"x": -0.9779824913,
				"y": -0.7964287732,
				"z": -0.0113892617,
				"element": "H" 
			},
			{
				"x": 0.6802007509,
				"y": -1.4677826065,
				"z": -1.801255892,
				"element": "H" 
			},
			{
				"x": 3.0168549473,
				"y": -0.6219327228,
				"z": -2.1455841008,
				"element": "H" 
			},
			{
				"x": 3.0319932503,
				"y": -2.3585213952,
				"z": -2.0667642537,
				"element": "H" 
			},
			{
				"x": 4.766285241,
				"y": -1.9896899402,
				"z": -0.6717072901,
				"element": "H" 
			},
			{
				"x": 4.6641570689,
				"y": 0.5325884864,
				"z": -1.0029446218,
				"element": "H" 
			},
			{
				"x": 3.748312324,
				"y": 0.6203840184,
				"z": 0.490445152,
				"element": "H" 
			},
			{
				"x": 5.9008571563,
				"y": 0.8246270014,
				"z": 1.3608494453,
				"element": "H" 
			},
			{
				"x": 6.9837358106,
				"y": 0.6195305266,
				"z": -0.6573421341,
				"element": "H" 
			},
			{
				"x": 6.2481175517,
				"y": -2.1486778483,
				"z": 1.0393534197,
				"element": "H" 
			},
			{
				"x": 6.5299098679,
				"y": -1.1695194999,
				"z": 2.4656472207,
				"element": "H" 
			},
			{
				"x": 4.5080181533,
				"y": -2.5104888197,
				"z": 2.8658075532,
				"element": "H" 
			},
			{
				"x": 4.0577350735,
				"y": -0.8269407437,
				"z": 2.7255611787,
				"element": "H" 
			},
			{
				"x": 2.7015310483,
				"y": -3.8500820548,
				"z": 0.0011233493,
				"element": "H" 
			},
			{
				"x": 3.0369899934,
				"y": -4.0946322275,
				"z": 1.718603806,
				"element": "H" 
			},
			{
				"x": 4.3727396387,
				"y": -3.9555630396,
				"z": 0.5763466651,
				"element": "H" 
			},
			{
				"x": 2.1849447901,
				"y": -0.39305231,
				"z": 1.5595126247,
				"element": "H" 
			},
			{
				"x": 1.7389413497,
				"y": -1.2420235008,
				"z": 3.547136088,
				"element": "H" 
			},
			{
				"x": 2.0869555247,
				"y": -2.8825597644,
				"z": 3.0904620119,
				"element": "H" 
			},
			{
				"x": -0.1221237827,
				"y": -3.392111733,
				"z": 2.5311182566,
				"element": "H" 
			},
			{
				"x": -0.2942463276,
				"y": -2.3481876873,
				"z": 3.9257026374,
				"element": "H" 
			},
			{
				"x": 0.2512527929,
				"y": 0.3623844456,
				"z": 2.5448359332,
				"element": "H" 
			},
			{
				"x": -1.148666234,
				"y": 0.1005438233,
				"z": 3.5832427944,
				"element": "H" 
			},
			{
				"x": -1.3618571517,
				"y": 0.7024641155,
				"z": 1.9297176348,
				"element": "H" 
			},
			{
				"x": -3.6431345482,
				"y": -0.193149035,
				"z": -2.2737705477,
				"element": "H" 
			},
			{
				"x": -3.141831081,
				"y": 1.5941401883,
				"z": -3.9216132918,
				"element": "H" 
			},
			{
				"x": -4.5418217517,
				"y": 0.6463076293,
				"z": -4.4226884111,
				"element": "H" 
			},
			{
				"x": -4.7760687,
				"y": 2.2524722763,
				"z": -3.7282926439,
				"element": "H" 
			},
			{
				"x": -6.4199836443,
				"y": 1.1061318462,
				"z": -2.0920888497,
				"element": "H" 
			},
			{
				"x": -5.8794864786,
				"y": -0.2309649245,
				"z": -1.0700797994,
				"element": "H" 
			},
			{
				"x": -6.0530326973,
				"y": -0.4627664854,
				"z": -2.8176372658,
				"element": "H" 
			}
		],
		 "valence_orbital": [ 
			{
				"type": "occ",
				"energy": -0.27501,
				"method": "rhf"
			},
			{
				"type": "occ",
				"energy": -0.27131,
				"method": "rhf"
			},
			{
				"type": "occ",
				"energy": -0.2557,
				"method": "rhf"
			},
			{
				"type": "occ",
				"energy": -0.23339,
				"method": "rhf"
			},
			{
				"type": "occ",
				"energy": -0.21311,
				"method": "rhf"
			},
			{
				"type": "unocc",
				"energy": 0.02351,
				"method": "rhf"
			},
			{
				"type": "unocc",
				"energy": 0.02965,
				"method": "rhf"
			},
			{
				"type": "unocc",
				"energy": 0.07135,
				"method": "rhf"
			},
			{
				"type": "unocc",
				"energy": 0.07709,
				"method": "rhf"
			},
			{
				"type": "unocc",
				"energy": 0.08045,
				"method": "rhf"
			}
		],
		"cosmo_sigma_profile": { 
			"-0.025": 0.0,
			"-0.024": 0.0,
			"-0.023": 0.0,
			"-0.022": 0.0,
			"-0.021": 0.0,
			"-0.02": 0.0,
			"-0.019": 0.0,
			"-0.018": 0.0,
			"-0.017": 0.0,
			"-0.016": 0.0,
			"-0.015": 0.274359019824,
			"-0.014": 0.850170150483,
			"-0.013": 1.13354689811,
			"-0.012": 0.934124693374,
			"-0.011": 0.998322492316,
			"-0.01": 0.710491054786,
			"-0.009": 1.00429564698,
			"-0.008": 1.14271232515,
			"-0.007": 0.820276314197,
			"-0.006": 1.31080001117,
			"-0.005": 1.17101554997,
			"-0.004": 2.1112147647,
			"-0.003": 25.7301555575,
			"-0.002": 88.5781772822,
			"-0.001": 103.760630351,
			"0.0": 92.2000572241,
			"0.001": 80.4052747741,
			"0.002": 57.5378164293,
			"0.003": 14.9928777101,
			"0.004": 8.4453464203,
			"0.005": 4.52275894429,
			"0.006": 3.68546483103,
			"0.007": 2.31550540947,
			"0.008": 1.34827128991,
			"0.009": 1.54289389657,
			"0.01": 1.26067555894,
			"0.011": 1.01600296625,
			"0.012": 1.21726508854,
			"0.013": 1.39410691899,
			"0.014": 2.07400468824,
			"0.015": 1.18603874302,
			"0.016": 0.0123416716762,
			"0.017": 0.0,
			"0.018": 0.0,
			"0.019": 0.0,
			"0.02": 0.0,
			"0.021": 0.0,
			"0.022": 0.0,
			"0.023": 0.0,
			"0.024": 0.0,
			"0.025": 0.0
		}
	}
}
