{
	 "smiles": "CCCC(O)CC(C)C", 
	 "Tm": 192.15, 
	 "num_atms": 27, 
	 "gaussian": { 
		 "optdone": 1, 
		 "sigma_profile": "yes", 
		 "theory": "DFT", 
		 "functional": "B3LYP", 
		 "basiset": "6-31G**", 
		 "properties": { 
			 "R2extent": 1994.5267, 
			 "electric_dipole_moment_norm": 1.68326116215, 
			 "electric_quadrupole_moment_norm": 5.61890863336, 
			 "total_energy": -390.939231751, 
			 "HOMO_LUMO_gap": 0.31833, 
			 "cosmo_polarized_energy": -5.29, 
			 "cosmo_cavitation_energy": 27.03, 
			 "cosmo_dispersion_energy": -19.28, 
			 "cosmo_repulsion_energy": 1.61, 
			 "cosmo_total_nonelectrostatic_energy": 9.36, 
			 "SMD_solvation_energy": 4.45 
		},
		"coords": [
			{
				"x": -2.8675670766,
				"y": 1.2931358249,
				"z": 1.0019400784,
				"element": "C" 
			},
			{
				"x": -1.4654075406,
				"y": 1.7209588801,
				"z": 0.5511464017,
				"element": "C" 
			},
			{
				"x": -0.3005469792,
				"y": 0.9722652126,
				"z": 1.224979807,
				"element": "C" 
			},
			{
				"x": -0.1049575361,
				"y": -0.5149601398,
				"z": 0.8895631941,
				"element": "C" 
			},
			{
				"x": -1.2013338336,
				"y": -1.2393449781,
				"z": 1.4594313398,
				"element": "O" 
			},
			{
				"x": 0.0361418508,
				"y": -0.7934931464,
				"z": -0.6156407211,
				"element": "C" 
			},
			{
				"x": 0.3341011996,
				"y": -2.2577517216,
				"z": -1.0013451837,
				"element": "C" 
			},
			{
				"x": 1.6865897291,
				"y": -2.7538304418,
				"z": -0.4658918663,
				"element": "C" 
			},
			{
				"x": 0.2633265775,
				"y": -2.4312074087,
				"z": -2.5259990822,
				"element": "C" 
			},
			{
				"x": -2.9811084402,
				"y": 1.4106662001,
				"z": 2.0856468702,
				"element": "H" 
			},
			{
				"x": -3.0586949403,
				"y": 0.2435444493,
				"z": 0.7703415192,
				"element": "H" 
			},
			{
				"x": -3.6353180741,
				"y": 1.9065239955,
				"z": 0.5171857919,
				"element": "H" 
			},
			{
				"x": -1.3846463935,
				"y": 1.6312365521,
				"z": -0.5396517747,
				"element": "H" 
			},
			{
				"x": -1.3346975887,
				"y": 2.7898516375,
				"z": 0.765881355,
				"element": "H" 
			},
			{
				"x": 0.6378928052,
				"y": 1.4823737021,
				"z": 0.9699126979,
				"element": "H" 
			},
			{
				"x": -0.4072998426,
				"y": 1.0468065851,
				"z": 2.3146809697,
				"element": "H" 
			},
			{
				"x": 0.8277878365,
				"y": -0.8223880637,
				"z": 1.3911999935,
				"element": "H" 
			},
			{
				"x": -1.0265430146,
				"y": -2.1821574644,
				"z": 1.3488472172,
				"element": "H" 
			},
			{
				"x": 0.8354429088,
				"y": -0.1537278657,
				"z": -1.0173442908,
				"element": "H" 
			},
			{
				"x": -0.8922949894,
				"y": -0.4874270233,
				"z": -1.111852385,
				"element": "H" 
			},
			{
				"x": -0.4587110434,
				"y": -2.8890174636,
				"z": -0.5694096971,
				"element": "H" 
			},
			{
				"x": 2.5078165176,
				"y": -2.1451368333,
				"z": -0.8636819637,
				"element": "H" 
			},
			{
				"x": 1.7460331738,
				"y": -2.713335962,
				"z": 0.6266014332,
				"element": "H" 
			},
			{
				"x": 1.8686798679,
				"y": -3.7914447604,
				"z": -0.765825054,
				"element": "H" 
			},
			{
				"x": 0.430576062,
				"y": -3.474203644,
				"z": -2.815998796,
				"element": "H" 
			},
			{
				"x": 1.0279429773,
				"y": -1.8217681755,
				"z": -3.0231436079,
				"element": "H" 
			},
			{
				"x": -0.712404213,
				"y": -2.1248679471,
				"z": -2.9179742466,
				"element": "H" 
			}
		],
		 "valence_orbital": [ 
			{
				"type": "occ",
				"energy": -0.32443,
				"method": "rhf"
			},
			{
				"type": "occ",
				"energy": -0.32338,
				"method": "rhf"
			},
			{
				"type": "occ",
				"energy": -0.3126,
				"method": "rhf"
			},
			{
				"type": "occ",
				"energy": -0.29433,
				"method": "rhf"
			},
			{
				"type": "occ",
				"energy": -0.25773,
				"method": "rhf"
			},
			{
				"type": "unocc",
				"energy": 0.0606,
				"method": "rhf"
			},
			{
				"type": "unocc",
				"energy": 0.09978,
				"method": "rhf"
			},
			{
				"type": "unocc",
				"energy": 0.10507,
				"method": "rhf"
			},
			{
				"type": "unocc",
				"energy": 0.11489,
				"method": "rhf"
			},
			{
				"type": "unocc",
				"energy": 0.13039,
				"method": "rhf"
			}
		],
		"cosmo_sigma_profile": { 
			"-0.025": 0.0,
			"-0.024": 0.0,
			"-0.023": 0.0,
			"-0.022": 0.0,
			"-0.021": 0.0,
			"-0.02": 0.0,
			"-0.019": 0.0,
			"-0.018": 0.0,
			"-0.017": 0.0,
			"-0.016": 0.0,
			"-0.015": 0.0,
			"-0.014": 0.220836609505,
			"-0.013": 0.948894899177,
			"-0.012": 0.629416666833,
			"-0.011": 0.831892564215,
			"-0.01": 1.04224158972,
			"-0.009": 1.52589106099,
			"-0.008": 0.925324974307,
			"-0.007": 1.12382693781,
			"-0.006": 1.54754854058,
			"-0.005": 1.25612591801,
			"-0.004": 2.78998641453,
			"-0.003": 8.46899587024,
			"-0.002": 34.7711000363,
			"-0.001": 35.8879327679,
			"0.0": 38.360920597,
			"0.001": 34.7588586779,
			"0.002": 21.0756222522,
			"0.003": 3.96522084213,
			"0.004": 1.61435057024,
			"0.005": 1.92451082579,
			"0.006": 2.14050048834,
			"0.007": 1.59250757601,
			"0.008": 1.36704467198,
			"0.009": 2.03985326813,
			"0.01": 1.69979186826,
			"0.011": 1.09045168495,
			"0.012": 0.763402897895,
			"0.013": 1.1681793602,
			"0.014": 1.00412336653,
			"0.015": 0.267485207379,
			"0.016": 0.0,
			"0.017": 0.0,
			"0.018": 0.0,
			"0.019": 0.0,
			"0.02": 0.0,
			"0.021": 0.0,
			"0.022": 0.0,
			"0.023": 0.0,
			"0.024": 0.0,
			"0.025": 0.0
		}
	}
}
