{
	 "smiles": "CCOC1=C(F)C(C(O)=O)=C(F)C=C1", 
	 "Tm": 423.15, 
	 "num_atms": 22, 
	 "gaussian": { 
		 "optdone": 1, 
		 "sigma_profile": "yes", 
		 "theory": "DFT", 
		 "functional": "B3LYP", 
		 "basiset": "6-31G**", 
		 "properties": { 
			 "R2extent": 3481.0364, 
			 "electric_dipole_moment_norm": 4.87815368454, 
			 "electric_quadrupole_moment_norm": 15.3822448082, 
			 "total_energy": -773.109476895, 
			 "HOMO_LUMO_gap": 0.18565, 
			 "cosmo_polarized_energy": -12.66, 
			 "cosmo_cavitation_energy": 26.94, 
			 "cosmo_dispersion_energy": -19.9, 
			 "cosmo_repulsion_energy": 1.54, 
			 "cosmo_total_nonelectrostatic_energy": 8.57, 
			 "SMD_solvation_energy": 6.94 
		},
		"coords": [
			{
				"x": 0.6626140576,
				"y": -3.1271637657,
				"z": 3.6988231826,
				"element": "C" 
			},
			{
				"x": 1.324880932,
				"y": -2.4743355177,
				"z": 2.4988795315,
				"element": "C" 
			},
			{
				"x": 0.42846141,
				"y": -2.5140809971,
				"z": 1.3603965411,
				"element": "O" 
			},
			{
				"x": 0.0779116839,
				"y": -1.3587749705,
				"z": 0.7374551853,
				"element": "C" 
			},
			{
				"x": -0.4138407764,
				"y": -0.2353134505,
				"z": 1.4238479102,
				"element": "C" 
			},
			{
				"x": -0.5000206386,
				"y": -0.3238245205,
				"z": 2.757734667,
				"element": "F" 
			},
			{
				"x": -0.8281291715,
				"y": 0.9381094344,
				"z": 0.7683608603,
				"element": "C" 
			},
			{
				"x": -1.2912381979,
				"y": 2.1303541423,
				"z": 1.5754314723,
				"element": "C" 
			},
			{
				"x": -1.9522449231,
				"y": 3.1011544195,
				"z": 0.9089227832,
				"element": "O" 
			},
			{
				"x": -1.0972979083,
				"y": 2.2308684509,
				"z": 2.7620018636,
				"element": "O" 
			},
			{
				"x": -0.7561518723,
				"y": 0.9030664479,
				"z": -0.63298461,
				"element": "C" 
			},
			{
				"x": -1.1594396696,
				"y": 1.9966697312,
				"z": -1.3491875229,
				"element": "F" 
			},
			{
				"x": -0.2991478405,
				"y": -0.1855915023,
				"z": -1.3530939627,
				"element": "C" 
			},
			{
				"x": 0.1275281343,
				"y": -1.3146209261,
				"z": -0.6579005264,
				"element": "C" 
			},
			{
				"x": 0.3471176,
				"y": -4.1460059639,
				"z": 3.4560117719,
				"element": "H" 
			},
			{
				"x": -0.2126225012,
				"y": -2.5537772365,
				"z": 4.0121151869,
				"element": "H" 
			},
			{
				"x": 1.3672650191,
				"y": -3.1758621532,
				"z": 4.5356504744,
				"element": "H" 
			},
			{
				"x": 1.6146329905,
				"y": -1.4432482677,
				"z": 2.7154757111,
				"element": "H" 
			},
			{
				"x": 2.2232392687,
				"y": -3.0252388074,
				"z": 2.1969470824,
				"element": "H" 
			},
			{
				"x": -1.9738010828,
				"y": 2.9185750253,
				"z": -0.0428343368,
				"element": "H" 
			},
			{
				"x": -0.2709074433,
				"y": -0.1356060839,
				"z": -2.4353002265,
				"element": "H" 
			},
			{
				"x": 0.4966909293,
				"y": -2.1887534884,
				"z": -1.1827530388,
				"element": "H" 
			}
		],
		 "valence_orbital": [ 
			{
				"type": "occ",
				"energy": -0.31413,
				"method": "rhf"
			},
			{
				"type": "occ",
				"energy": -0.30891,
				"method": "rhf"
			},
			{
				"type": "occ",
				"energy": -0.28003,
				"method": "rhf"
			},
			{
				"type": "occ",
				"energy": -0.27189,
				"method": "rhf"
			},
			{
				"type": "occ",
				"energy": -0.24523,
				"method": "rhf"
			},
			{
				"type": "unocc",
				"energy": -0.05958,
				"method": "rhf"
			},
			{
				"type": "unocc",
				"energy": -0.01827,
				"method": "rhf"
			},
			{
				"type": "unocc",
				"energy": 0.04349,
				"method": "rhf"
			},
			{
				"type": "unocc",
				"energy": 0.04976,
				"method": "rhf"
			},
			{
				"type": "unocc",
				"energy": 0.09219,
				"method": "rhf"
			}
		],
		"cosmo_sigma_profile": { 
			"-0.025": 0.0,
			"-0.024": 0.0,
			"-0.023": 0.0,
			"-0.022": 0.0,
			"-0.021": 0.0,
			"-0.02": 0.0,
			"-0.019": 0.0,
			"-0.018": 0.0,
			"-0.017": 0.0,
			"-0.016": 0.0,
			"-0.015": 0.0,
			"-0.014": 0.150340525352,
			"-0.013": 0.970563876879,
			"-0.012": 1.08042014587,
			"-0.011": 0.949282729699,
			"-0.01": 1.03339049992,
			"-0.009": 2.47003574792,
			"-0.008": 3.9146733348,
			"-0.007": 5.97821284914,
			"-0.006": 7.63259806269,
			"-0.005": 10.6956090845,
			"-0.004": 16.0828067189,
			"-0.003": 19.4251131243,
			"-0.002": 21.8980422818,
			"-0.001": 21.7209392882,
			"0.0": 21.7349033863,
			"0.001": 17.3578970151,
			"0.002": 12.4538735462,
			"0.003": 6.08839645372,
			"0.004": 4.87198797019,
			"0.005": 3.90381779356,
			"0.006": 3.39607148028,
			"0.007": 4.87695087427,
			"0.008": 4.11935162294,
			"0.009": 4.38860692896,
			"0.01": 6.31729540255,
			"0.011": 6.62439294961,
			"0.012": 4.43897843219,
			"0.013": 1.03301085523,
			"0.014": 0.0,
			"0.015": 0.0,
			"0.016": 0.0,
			"0.017": 0.0,
			"0.018": 0.0,
			"0.019": 0.0,
			"0.02": 0.0,
			"0.021": 0.0,
			"0.022": 0.0,
			"0.023": 0.0,
			"0.024": 0.0,
			"0.025": 0.0
		}
	}
}
