{
	 "smiles": "OC(=O)CCC1=NC2=C(S1)C=CC(Cl)=C2", 
	 "Tm": 419.15, 
	 "num_atms": 23, 
	 "gaussian": { 
		 "optdone": 1, 
		 "sigma_profile": "yes", 
		 "theory": "DFT", 
		 "functional": "B3LYP", 
		 "basiset": "6-31G**", 
		 "properties": { 
			 "R2extent": 5862.8393, 
			 "electric_dipole_moment_norm": 3.2255756122, 
			 "electric_quadrupole_moment_norm": 16.2623681842, 
			 "total_energy": -1449.49228869, 
			 "HOMO_LUMO_gap": 0.1919, 
			 "cosmo_polarized_energy": -12.96, 
			 "cosmo_cavitation_energy": 31.3, 
			 "cosmo_dispersion_energy": -23.19, 
			 "cosmo_repulsion_energy": 1.79, 
			 "cosmo_total_nonelectrostatic_energy": 9.9, 
			 "SMD_solvation_energy": 3.74 
		},
		"coords": [
			{
				"x": -1.4453421467,
				"y": -0.3953025282,
				"z": -4.944993139,
				"element": "O" 
			},
			{
				"x": -1.6556250059,
				"y": -1.3628727108,
				"z": -4.0139803948,
				"element": "C" 
			},
			{
				"x": -1.2175258998,
				"y": -2.4835155694,
				"z": -4.1310125137,
				"element": "O" 
			},
			{
				"x": -2.5250153386,
				"y": -0.8757747292,
				"z": -2.8720537237,
				"element": "C" 
			},
			{
				"x": -2.2582778619,
				"y": 0.5698811557,
				"z": -2.3988425354,
				"element": "C" 
			},
			{
				"x": -0.9306793626,
				"y": 0.7428643076,
				"z": -1.7146686057,
				"element": "C" 
			},
			{
				"x": -0.7681491499,
				"y": 0.6282249145,
				"z": -0.4355284618,
				"element": "N" 
			},
			{
				"x": 0.5567949856,
				"y": 0.8117678105,
				"z": -0.0741856097,
				"element": "C" 
			},
			{
				"x": 1.4457385502,
				"y": 1.0829187781,
				"z": -1.1423863018,
				"element": "C" 
			},
			{
				"x": 0.5495635103,
				"y": 1.097077292,
				"z": -2.6450832318,
				"element": "S" 
			},
			{
				"x": 2.8078705852,
				"y": 1.2915570518,
				"z": -0.9132034851,
				"element": "C" 
			},
			{
				"x": 3.2806239899,
				"y": 1.2278716563,
				"z": 0.3938113969,
				"element": "C" 
			},
			{
				"x": 2.394355363,
				"y": 0.9584182329,
				"z": 1.450063773,
				"element": "C" 
			},
			{
				"x": 3.0314515954,
				"y": 0.8860000744,
				"z": 3.0877230651,
				"element": "Cl" 
			},
			{
				"x": 1.0388522381,
				"y": 0.7489628638,
				"z": 1.2413580072,
				"element": "C" 
			},
			{
				"x": -0.8932918575,
				"y": -0.8004105189,
				"z": -5.6350128182,
				"element": "H" 
			},
			{
				"x": -2.4109182067,
				"y": -1.5852458876,
				"z": -2.0501452548,
				"element": "H" 
			},
			{
				"x": -3.5645915835,
				"y": -0.9394319667,
				"z": -3.2188407593,
				"element": "H" 
			},
			{
				"x": -3.0241859649,
				"y": 0.8402937416,
				"z": -1.6668239625,
				"element": "H" 
			},
			{
				"x": -2.3424928759,
				"y": 1.2538348247,
				"z": -3.2473548521,
				"element": "H" 
			},
			{
				"x": 3.4918939467,
				"y": 1.4991571437,
				"z": -1.729424618,
				"element": "H" 
			},
			{
				"x": 4.3322633598,
				"y": 1.3849192026,
				"z": 0.6045911026,
				"element": "H" 
			},
			{
				"x": 0.3606871298,
				"y": 0.5412048603,
				"z": 2.0601929226,
				"element": "H" 
			}
		],
		 "valence_orbital": [ 
			{
				"type": "occ",
				"energy": -0.30375,
				"method": "rhf"
			},
			{
				"type": "occ",
				"energy": -0.28495,
				"method": "rhf"
			},
			{
				"type": "occ",
				"energy": -0.28242,
				"method": "rhf"
			},
			{
				"type": "occ",
				"energy": -0.24836,
				"method": "rhf"
			},
			{
				"type": "occ",
				"energy": -0.23842,
				"method": "rhf"
			},
			{
				"type": "unocc",
				"energy": -0.04652,
				"method": "rhf"
			},
			{
				"type": "unocc",
				"energy": -0.01878,
				"method": "rhf"
			},
			{
				"type": "unocc",
				"energy": -0.00217,
				"method": "rhf"
			},
			{
				"type": "unocc",
				"energy": 0.00142,
				"method": "rhf"
			},
			{
				"type": "unocc",
				"energy": 0.02131,
				"method": "rhf"
			}
		],
		"cosmo_sigma_profile": { 
			"-0.025": 0.0,
			"-0.024": 0.0,
			"-0.023": 0.0,
			"-0.022": 0.0,
			"-0.021": 0.0,
			"-0.02": 0.0,
			"-0.019": 0.113323134189,
			"-0.018": 0.755186284899,
			"-0.017": 1.01725884259,
			"-0.016": 0.819296769752,
			"-0.015": 0.539183833573,
			"-0.014": 0.511415766431,
			"-0.013": 0.908508286937,
			"-0.012": 0.481817595475,
			"-0.011": 0.865336013397,
			"-0.01": 1.06538182789,
			"-0.009": 0.499781258571,
			"-0.008": 5.15871078799,
			"-0.007": 10.2716457529,
			"-0.006": 13.0450702549,
			"-0.005": 16.0624843524,
			"-0.004": 13.7388245679,
			"-0.003": 15.3576826923,
			"-0.002": 13.8236026838,
			"-0.001": 15.5125594761,
			"0.0": 16.2854730153,
			"0.001": 25.8045777077,
			"0.002": 30.4509984936,
			"0.003": 19.5470194397,
			"0.004": 14.1556602993,
			"0.005": 10.6304151698,
			"0.006": 3.17155186058,
			"0.007": 3.26122545711,
			"0.008": 3.0632886038,
			"0.009": 2.49509631303,
			"0.01": 3.1783594628,
			"0.011": 5.02145358854,
			"0.012": 4.82075780504,
			"0.013": 1.34580391118,
			"0.014": 0.621600848743,
			"0.015": 0.114380052824,
			"0.016": 0.0,
			"0.017": 0.0,
			"0.018": 0.0,
			"0.019": 0.0,
			"0.02": 0.0,
			"0.021": 0.0,
			"0.022": 0.0,
			"0.023": 0.0,
			"0.024": 0.0,
			"0.025": 0.0
		}
	}
}
