{
	 "smiles": "CC(=O)C1=CN=CN=C1", 
	 "Tm": 337.15, 
	 "num_atms": 15, 
	 "gaussian": { 
		 "optdone": 1, 
		 "sigma_profile": "yes", 
		 "theory": "DFT", 
		 "functional": "B3LYP", 
		 "basiset": "6-31G**", 
		 "properties": { 
			 "R2extent": 2104.9811, 
			 "electric_dipole_moment_norm": 2.3993269077, 
			 "electric_quadrupole_moment_norm": 7.4923524143, 
			 "total_energy": -416.968008221, 
			 "HOMO_LUMO_gap": 0.18355, 
			 "cosmo_polarized_energy": -10.2, 
			 "cosmo_cavitation_energy": 19.66, 
			 "cosmo_dispersion_energy": -14.5, 
			 "cosmo_repulsion_energy": 1.17, 
			 "cosmo_total_nonelectrostatic_energy": 6.33, 
			 "SMD_solvation_energy": 1.44 
		},
		"coords": [
			{
				"x": 0.7313967842,
				"y": -0.2755482563,
				"z": -0.8329424215,
				"element": "C" 
			},
			{
				"x": 0.3433849834,
				"y": -1.4996284338,
				"z": -0.026232515,
				"element": "C" 
			},
			{
				"x": 0.4040839873,
				"y": -2.6212242332,
				"z": -0.5026330196,
				"element": "O" 
			},
			{
				"x": -0.1213255517,
				"y": -1.3102560002,
				"z": 1.3865547407,
				"element": "C" 
			},
			{
				"x": -0.2281977641,
				"y": -0.0737642466,
				"z": 2.0307284226,
				"element": "C" 
			},
			{
				"x": -0.6482888697,
				"y": 0.0485949682,
				"z": 3.294888448,
				"element": "N" 
			},
			{
				"x": -0.964389288,
				"y": -1.0922462444,
				"z": 3.9163402607,
				"element": "C" 
			},
			{
				"x": -0.9063722482,
				"y": -2.3334396551,
				"z": 3.4138563226,
				"element": "N" 
			},
			{
				"x": -0.4845445487,
				"y": -2.4286339452,
				"z": 2.1517995822,
				"element": "C" 
			},
			{
				"x": -0.1113098686,
				"y": 0.4197270236,
				"z": -0.9189322602,
				"element": "H" 
			},
			{
				"x": 1.552981767,
				"y": 0.2664272974,
				"z": -0.3510309283,
				"element": "H" 
			},
			{
				"x": 1.0416956822,
				"y": -0.5942567276,
				"z": -1.8281816528,
				"element": "H" 
			},
			{
				"x": 0.0299028073,
				"y": 0.8534023248,
				"z": 1.5221778243,
				"element": "H" 
			},
			{
				"x": -1.307271522,
				"y": -1.0031745515,
				"z": 4.9451558246,
				"element": "H" 
			},
			{
				"x": -0.4243463504,
				"y": -3.4203793202,
				"z": 1.7097513716,
				"element": "H" 
			}
		],
		 "valence_orbital": [ 
			{
				"type": "occ",
				"energy": -0.33092,
				"method": "rhf"
			},
			{
				"type": "occ",
				"energy": -0.32226,
				"method": "rhf"
			},
			{
				"type": "occ",
				"energy": -0.29695,
				"method": "rhf"
			},
			{
				"type": "occ",
				"energy": -0.26609,
				"method": "rhf"
			},
			{
				"type": "occ",
				"energy": -0.26278,
				"method": "rhf"
			},
			{
				"type": "unocc",
				"energy": -0.07923,
				"method": "rhf"
			},
			{
				"type": "unocc",
				"energy": -0.05324,
				"method": "rhf"
			},
			{
				"type": "unocc",
				"energy": 0.01072,
				"method": "rhf"
			},
			{
				"type": "unocc",
				"energy": 0.08547,
				"method": "rhf"
			},
			{
				"type": "unocc",
				"energy": 0.12917,
				"method": "rhf"
			}
		],
		"cosmo_sigma_profile": { 
			"-0.025": 0.0,
			"-0.024": 0.0,
			"-0.023": 0.0,
			"-0.022": 0.0,
			"-0.021": 0.0,
			"-0.02": 0.0,
			"-0.019": 0.0,
			"-0.018": 0.0,
			"-0.017": 0.0,
			"-0.016": 0.0,
			"-0.015": 0.0,
			"-0.014": 0.0,
			"-0.013": 0.0,
			"-0.012": 0.0,
			"-0.011": 0.0,
			"-0.01": 0.0,
			"-0.009": 0.706298352887,
			"-0.008": 6.98528110367,
			"-0.007": 11.0563178765,
			"-0.006": 9.74202252344,
			"-0.005": 9.03319915626,
			"-0.004": 10.9890035854,
			"-0.003": 14.3773241608,
			"-0.002": 20.3508338578,
			"-0.001": 12.9750578422,
			"0.0": 6.05065880694,
			"0.001": 5.24221217903,
			"0.002": 6.24333350373,
			"0.003": 4.09821429048,
			"0.004": 3.37705081611,
			"0.005": 4.23175256843,
			"0.006": 3.72060655616,
			"0.007": 3.63613430647,
			"0.008": 3.15211113796,
			"0.009": 3.73085892768,
			"0.01": 4.94974089629,
			"0.011": 5.04743520551,
			"0.012": 3.40726181701,
			"0.013": 2.53844954311,
			"0.014": 1.42727461454,
			"0.015": 0.830248380637,
			"0.016": 0.022533279886,
			"0.017": 0.0,
			"0.018": 0.0,
			"0.019": 0.0,
			"0.02": 0.0,
			"0.021": 0.0,
			"0.022": 0.0,
			"0.023": 0.0,
			"0.024": 0.0,
			"0.025": 0.0
		}
	}
}
