{
	 "smiles": "O=C(NC1=NNC=C1)C1=CC=CC=C1", 
	 "Tm": 435.15, 
	 "num_atms": 23, 
	 "gaussian": { 
		 "optdone": 1, 
		 "sigma_profile": "yes", 
		 "theory": "DFT", 
		 "functional": "B3LYP", 
		 "basiset": "6-31G**", 
		 "properties": { 
			 "R2extent": 3655.8495, 
			 "electric_dipole_moment_norm": 3.91847383301, 
			 "electric_quadrupole_moment_norm": 18.479874597, 
			 "total_energy": -625.951309931, 
			 "HOMO_LUMO_gap": 0.19041, 
			 "cosmo_polarized_energy": -21.93, 
			 "cosmo_cavitation_energy": 28.2, 
			 "cosmo_dispersion_energy": -20.83, 
			 "cosmo_repulsion_energy": 1.64, 
			 "cosmo_total_nonelectrostatic_energy": 9.01, 
			 "SMD_solvation_energy": 4.89 
		},
		"coords": [
			{
				"x": -0.4120708756,
				"y": 1.3159941132,
				"z": -0.9405893229,
				"element": "O" 
			},
			{
				"x": -0.442344969,
				"y": 0.3853181138,
				"z": -0.1525406348,
				"element": "C" 
			},
			{
				"x": 0.2443858215,
				"y": -0.804724801,
				"z": -0.3478188866,
				"element": "N" 
			},
			{
				"x": 1.057461019,
				"y": -1.0982995527,
				"z": -1.4547931995,
				"element": "C" 
			},
			{
				"x": 1.992007328,
				"y": -0.2515314931,
				"z": -1.8807500016,
				"element": "N" 
			},
			{
				"x": 2.5545353848,
				"y": -0.8943878397,
				"z": -2.9259732141,
				"element": "N" 
			},
			{
				"x": 2.0222544526,
				"y": -2.1210043043,
				"z": -3.159634511,
				"element": "C" 
			},
			{
				"x": 1.0312277242,
				"y": -2.2958998484,
				"z": -2.2153496157,
				"element": "C" 
			},
			{
				"x": -1.2554615568,
				"y": 0.4383869546,
				"z": 1.1132501418,
				"element": "C" 
			},
			{
				"x": -2.3224000984,
				"y": 1.3464859402,
				"z": 1.14993111,
				"element": "C" 
			},
			{
				"x": -3.1200635382,
				"y": 1.4513040871,
				"z": 2.2866043556,
				"element": "C" 
			},
			{
				"x": -2.8507424926,
				"y": 0.6605558038,
				"z": 3.4072413851,
				"element": "C" 
			},
			{
				"x": -1.7761565323,
				"y": -0.2301080016,
				"z": 3.3875488008,
				"element": "C" 
			},
			{
				"x": -0.9812610843,
				"y": -0.3416477812,
				"z": 2.2459347941,
				"element": "C" 
			},
			{
				"x": -0.0355451552,
				"y": -1.5931750813,
				"z": 0.2152123279,
				"element": "H" 
			},
			{
				"x": 3.2874417587,
				"y": -0.4297825475,
				"z": -3.4378856166,
				"element": "H" 
			},
			{
				"x": 2.3709847706,
				"y": -2.7554582174,
				"z": -3.9612065762,
				"element": "H" 
			},
			{
				"x": 0.3741799988,
				"y": -3.1447936951,
				"z": -2.0996413593,
				"element": "H" 
			},
			{
				"x": -2.5023641414,
				"y": 1.9605376666,
				"z": 0.2739685245,
				"element": "H" 
			},
			{
				"x": -3.9501024844,
				"y": 2.1517409708,
				"z": 2.3021521323,
				"element": "H" 
			},
			{
				"x": -3.4701227137,
				"y": 0.7452635906,
				"z": 4.2956207618,
				"element": "H" 
			},
			{
				"x": -1.5495349685,
				"y": -0.8308280627,
				"z": 4.263656908,
				"element": "H" 
			},
			{
				"x": -0.1238076479,
				"y": -1.0088460148,
				"z": 2.2594616964,
				"element": "H" 
			}
		],
		 "valence_orbital": [ 
			{
				"type": "occ",
				"energy": -0.2578,
				"method": "rhf"
			},
			{
				"type": "occ",
				"energy": -0.25622,
				"method": "rhf"
			},
			{
				"type": "occ",
				"energy": -0.25077,
				"method": "rhf"
			},
			{
				"type": "occ",
				"energy": -0.23994,
				"method": "rhf"
			},
			{
				"type": "occ",
				"energy": -0.22466,
				"method": "rhf"
			},
			{
				"type": "unocc",
				"energy": -0.03425,
				"method": "rhf"
			},
			{
				"type": "unocc",
				"energy": -0.00721,
				"method": "rhf"
			},
			{
				"type": "unocc",
				"energy": 0.02053,
				"method": "rhf"
			},
			{
				"type": "unocc",
				"energy": 0.05178,
				"method": "rhf"
			},
			{
				"type": "unocc",
				"energy": 0.07837,
				"method": "rhf"
			}
		],
		"cosmo_sigma_profile": { 
			"-0.025": 0.0,
			"-0.024": 0.0,
			"-0.023": 0.0,
			"-0.022": 0.0,
			"-0.021": 0.0,
			"-0.02": 0.0,
			"-0.019": 0.0,
			"-0.018": 0.0,
			"-0.017": 0.445659962544,
			"-0.016": 1.97237524601,
			"-0.015": 1.77643940077,
			"-0.014": 2.03780549225,
			"-0.013": 2.20045792321,
			"-0.012": 2.19111161425,
			"-0.011": 2.78040849348,
			"-0.01": 2.54190629321,
			"-0.009": 5.04744611103,
			"-0.008": 3.88387255947,
			"-0.007": 7.05486682418,
			"-0.006": 12.9356707589,
			"-0.005": 14.5283929759,
			"-0.004": 13.9156252673,
			"-0.003": 11.5176984944,
			"-0.002": 11.6085589958,
			"-0.001": 11.437743905,
			"0.0": 11.6176905091,
			"0.001": 12.5069271378,
			"0.002": 13.4254564353,
			"0.003": 15.0076722318,
			"0.004": 20.9452698273,
			"0.005": 10.8214567751,
			"0.006": 3.37574522307,
			"0.007": 3.11375465557,
			"0.008": 3.16153210283,
			"0.009": 1.70635705427,
			"0.01": 2.24103699246,
			"0.011": 2.94278754801,
			"0.012": 3.26148675338,
			"0.013": 5.79255554559,
			"0.014": 3.09942443365,
			"0.015": 2.35021919581,
			"0.016": 2.43745603628,
			"0.017": 0.782439624052,
			"0.018": 0.0,
			"0.019": 0.0,
			"0.02": 0.0,
			"0.021": 0.0,
			"0.022": 0.0,
			"0.023": 0.0,
			"0.024": 0.0,
			"0.025": 0.0
		}
	}
}
