{
	 "smiles": "CCC1=C(C#N)C2=NC3=C(C=CC=C3)N2C(Cl)=C1", 
	 "Tm": 449.15, 
	 "num_atms": 28, 
	 "gaussian": { 
		 "optdone": 1, 
		 "sigma_profile": "yes", 
		 "theory": "DFT", 
		 "functional": "B3LYP", 
		 "basiset": "6-31G**", 
		 "properties": { 
			 "R2extent": 5255.5194, 
			 "electric_dipole_moment_norm": 5.72117156184, 
			 "electric_quadrupole_moment_norm": 20.4602347682, 
			 "total_energy": -1163.95447469, 
			 "HOMO_LUMO_gap": 0.13674, 
			 "cosmo_polarized_energy": -14.48, 
			 "cosmo_cavitation_energy": 34.51, 
			 "cosmo_dispersion_energy": -24.59, 
			 "cosmo_repulsion_energy": 1.86, 
			 "cosmo_total_nonelectrostatic_energy": 11.78, 
			 "SMD_solvation_energy": 4.73 
		},
		"coords": [
			{
				"x": 1.6739794327,
				"y": -4.4282895469,
				"z": 0.9729466934,
				"element": "C" 
			},
			{
				"x": 1.712632977,
				"y": -3.8721699553,
				"z": -0.4640145734,
				"element": "C" 
			},
			{
				"x": 1.1812325706,
				"y": -2.4610849907,
				"z": -0.550738131,
				"element": "C" 
			},
			{
				"x": -0.1418519192,
				"y": -2.1833661114,
				"z": -0.860450185,
				"element": "C" 
			},
			{
				"x": -1.0737830043,
				"y": -3.2277120894,
				"z": -1.1494360608,
				"element": "C" 
			},
			{
				"x": -1.7991310321,
				"y": -4.1086307149,
				"z": -1.3767516362,
				"element": "N" 
			},
			{
				"x": -0.6133924976,
				"y": -0.8324867325,
				"z": -0.8963904587,
				"element": "C" 
			},
			{
				"x": -1.8150131251,
				"y": -0.3892298329,
				"z": -1.1686097007,
				"element": "N" 
			},
			{
				"x": -1.7309053722,
				"y": 0.9811081824,
				"z": -1.066303677,
				"element": "C" 
			},
			{
				"x": -0.4225125382,
				"y": 1.408509542,
				"z": -0.7157506197,
				"element": "C" 
			},
			{
				"x": -0.1066330413,
				"y": 2.7643698356,
				"z": -0.5564533724,
				"element": "C" 
			},
			{
				"x": -1.1331721731,
				"y": 3.6799270855,
				"z": -0.756915793,
				"element": "C" 
			},
			{
				"x": -2.4367241534,
				"y": 3.2687304222,
				"z": -1.1053139479,
				"element": "C" 
			},
			{
				"x": -2.7490339037,
				"y": 1.9271538048,
				"z": -1.2627879649,
				"element": "C" 
			},
			{
				"x": 0.3144323327,
				"y": 0.2192427046,
				"z": -0.6029893045,
				"element": "N" 
			},
			{
				"x": 1.616379574,
				"y": -0.0780278873,
				"z": -0.2994261688,
				"element": "C" 
			},
			{
				"x": 2.7145835749,
				"y": 1.2228726972,
				"z": 0.0441389748,
				"element": "Cl" 
			},
			{
				"x": 2.055181099,
				"y": -1.373090447,
				"z": -0.268787015,
				"element": "C" 
			},
			{
				"x": 2.0873107387,
				"y": -5.4408949947,
				"z": 0.9977264045,
				"element": "H" 
			},
			{
				"x": 0.6467154372,
				"y": -4.4715485396,
				"z": 1.3458533776,
				"element": "H" 
			},
			{
				"x": 2.2581957556,
				"y": -3.8056979815,
				"z": 1.6581098906,
				"element": "H" 
			},
			{
				"x": 1.1291148513,
				"y": -4.5244520849,
				"z": -1.1198618182,
				"element": "H" 
			},
			{
				"x": 2.7446783949,
				"y": -3.8834676045,
				"z": -0.8329412439,
				"element": "H" 
			},
			{
				"x": 0.8849863889,
				"y": 3.1007869695,
				"z": -0.2899171757,
				"element": "H" 
			},
			{
				"x": -0.9215146222,
				"y": 4.7383071915,
				"z": -0.6411468648,
				"element": "H" 
			},
			{
				"x": -3.206784346,
				"y": 4.0201763743,
				"z": -1.2519388881,
				"element": "H" 
			},
			{
				"x": -3.7459829391,
				"y": 1.5943622583,
				"z": -1.5303556365,
				"element": "H" 
			},
			{
				"x": 3.0937115398,
				"y": -1.5612975545,
				"z": -0.0274951049,
				"element": "H" 
			}
		],
		 "valence_orbital": [ 
			{
				"type": "occ",
				"energy": -0.31611,
				"method": "rhf"
			},
			{
				"type": "occ",
				"energy": -0.28674,
				"method": "rhf"
			},
			{
				"type": "occ",
				"energy": -0.2719,
				"method": "rhf"
			},
			{
				"type": "occ",
				"energy": -0.2479,
				"method": "rhf"
			},
			{
				"type": "occ",
				"energy": -0.21826,
				"method": "rhf"
			},
			{
				"type": "unocc",
				"energy": -0.08152,
				"method": "rhf"
			},
			{
				"type": "unocc",
				"energy": -0.03194,
				"method": "rhf"
			},
			{
				"type": "unocc",
				"energy": -0.00554,
				"method": "rhf"
			},
			{
				"type": "unocc",
				"energy": -0.0035,
				"method": "rhf"
			},
			{
				"type": "unocc",
				"energy": 0.02464,
				"method": "rhf"
			}
		],
		"cosmo_sigma_profile": { 
			"-0.025": 0.0,
			"-0.024": 0.0,
			"-0.023": 0.0,
			"-0.022": 0.0,
			"-0.021": 0.0,
			"-0.02": 0.0,
			"-0.019": 0.0,
			"-0.018": 0.0,
			"-0.017": 0.0,
			"-0.016": 0.0,
			"-0.015": 0.0,
			"-0.014": 0.0,
			"-0.013": 0.0,
			"-0.012": 0.0,
			"-0.011": 0.0,
			"-0.01": 0.015967437878,
			"-0.009": 1.37309143648,
			"-0.008": 2.28123588244,
			"-0.007": 3.30245512883,
			"-0.006": 10.2685948869,
			"-0.005": 18.0834891985,
			"-0.004": 28.4362022552,
			"-0.003": 30.0678421305,
			"-0.002": 34.2642801091,
			"-0.001": 28.2509674902,
			"0.0": 23.3314680977,
			"0.001": 16.3484289191,
			"0.002": 15.6263705629,
			"0.003": 13.6944826754,
			"0.004": 11.982642517,
			"0.005": 8.73015427533,
			"0.006": 4.27332666108,
			"0.007": 5.65216926727,
			"0.008": 4.31241027129,
			"0.009": 4.81516354496,
			"0.01": 4.06934854355,
			"0.011": 3.86396950301,
			"0.012": 3.24167924129,
			"0.013": 2.36190319395,
			"0.014": 0.937580758758,
			"0.015": 0.584140495842,
			"0.016": 0.286606483507,
			"0.017": 0.0,
			"0.018": 0.0,
			"0.019": 0.0,
			"0.02": 0.0,
			"0.021": 0.0,
			"0.022": 0.0,
			"0.023": 0.0,
			"0.024": 0.0,
			"0.025": 0.0
		}
	}
}
