{
	 "smiles": "CC1=C(Cl)C(NC2=CC=CC=C2C(O)=O)=C(Cl)C=C1", 
	 "Tm": 530.15, 
	 "num_atms": 30, 
	 "gaussian": { 
		 "optdone": 1, 
		 "sigma_profile": "yes", 
		 "theory": "DFT", 
		 "functional": "B3LYP", 
		 "basiset": "6-31G**", 
		 "properties": { 
			 "R2extent": 6707.7579, 
			 "electric_dipole_moment_norm": 1.93268514766, 
			 "electric_quadrupole_moment_norm": 15.7459580547, 
			 "total_energy": -1665.73424806, 
			 "HOMO_LUMO_gap": 0.16179, 
			 "cosmo_polarized_energy": -10.79, 
			 "cosmo_cavitation_energy": 37.34, 
			 "cosmo_dispersion_energy": -26.34, 
			 "cosmo_repulsion_energy": 2.02, 
			 "cosmo_total_nonelectrostatic_energy": 13.02, 
			 "SMD_solvation_energy": 6.86 
		},
		"coords": [
			{
				"x": 0.1718224073,
				"y": -1.3145100482,
				"z": -3.9610946555,
				"element": "C" 
			},
			{
				"x": 1.1421618124,
				"y": -0.7330515572,
				"z": -2.9648877008,
				"element": "C" 
			},
			{
				"x": 0.7082719199,
				"y": -0.0526438701,
				"z": -1.8159961485,
				"element": "C" 
			},
			{
				"x": -1.0151208585,
				"y": 0.1659468063,
				"z": -1.5714476916,
				"element": "Cl" 
			},
			{
				"x": 1.5990915167,
				"y": 0.4905584161,
				"z": -0.8650950554,
				"element": "C" 
			},
			{
				"x": 1.1567405501,
				"y": 1.1940548714,
				"z": 0.2671535518,
				"element": "N" 
			},
			{
				"x": 0.5299006314,
				"y": 0.6511801257,
				"z": 1.3701000294,
				"element": "C" 
			},
			{
				"x": 0.2327899709,
				"y": -0.7258175356,
				"z": 1.450251841,
				"element": "C" 
			},
			{
				"x": -0.410164011,
				"y": -1.2528366559,
				"z": 2.5591049245,
				"element": "C" 
			},
			{
				"x": -0.7811694411,
				"y": -0.4379463499,
				"z": 3.637641352,
				"element": "C" 
			},
			{
				"x": -0.4834319825,
				"y": 0.9137537755,
				"z": 3.5850955794,
				"element": "C" 
			},
			{
				"x": 0.1709667783,
				"y": 1.4814822351,
				"z": 2.4745309361,
				"element": "C" 
			},
			{
				"x": 0.5006673616,
				"y": 2.9136435484,
				"z": 2.4729575126,
				"element": "C" 
			},
			{
				"x": 0.0423496247,
				"y": 3.5873075046,
				"z": 3.555863109,
				"element": "O" 
			},
			{
				"x": 1.1363769972,
				"y": 3.5071637364,
				"z": 1.6045312442,
				"element": "O" 
			},
			{
				"x": 2.9757795349,
				"y": 0.3668101118,
				"z": -1.1385906376,
				"element": "C" 
			},
			{
				"x": 4.1419586471,
				"y": 1.0409718176,
				"z": -0.0161679407,
				"element": "Cl" 
			},
			{
				"x": 3.4380375279,
				"y": -0.2796990474,
				"z": -2.2799137025,
				"element": "C" 
			},
			{
				"x": 2.5227525285,
				"y": -0.831468373,
				"z": -3.171071017,
				"element": "C" 
			},
			{
				"x": -0.4964456606,
				"y": -2.0431697434,
				"z": -3.4905646038,
				"element": "H" 
			},
			{
				"x": 0.7076387886,
				"y": -1.8127987612,
				"z": -4.7725014598,
				"element": "H" 
			},
			{
				"x": -0.4652434904,
				"y": -0.5375103605,
				"z": -4.3966902774,
				"element": "H" 
			},
			{
				"x": 1.4930263077,
				"y": 2.1462405159,
				"z": 0.4072341592,
				"element": "H" 
			},
			{
				"x": 0.5221666123,
				"y": -1.3758665857,
				"z": 0.6329709492,
				"element": "H" 
			},
			{
				"x": -0.6216365331,
				"y": -2.3183685351,
				"z": 2.5871127139,
				"element": "H" 
			},
			{
				"x": -1.2853055562,
				"y": -0.8580661877,
				"z": 4.5014517889,
				"element": "H" 
			},
			{
				"x": -0.7466991015,
				"y": 1.5645848115,
				"z": 4.4105587961,
				"element": "H" 
			},
			{
				"x": 0.3377709482,
				"y": 4.5040552284,
				"z": 3.4325936139,
				"element": "H" 
			},
			{
				"x": 4.504399889,
				"y": -0.357980057,
				"z": -2.4579606426,
				"element": "H" 
			},
			{
				"x": 2.8862462803,
				"y": -1.3456198365,
				"z": -4.0558705682,
				"element": "H" 
			}
		],
		 "valence_orbital": [ 
			{
				"type": "occ",
				"energy": -0.28218,
				"method": "rhf"
			},
			{
				"type": "occ",
				"energy": -0.25929,
				"method": "rhf"
			},
			{
				"type": "occ",
				"energy": -0.25498,
				"method": "rhf"
			},
			{
				"type": "occ",
				"energy": -0.24604,
				"method": "rhf"
			},
			{
				"type": "occ",
				"energy": -0.20593,
				"method": "rhf"
			},
			{
				"type": "unocc",
				"energy": -0.04414,
				"method": "rhf"
			},
			{
				"type": "unocc",
				"energy": -0.02575,
				"method": "rhf"
			},
			{
				"type": "unocc",
				"energy": -0.02168,
				"method": "rhf"
			},
			{
				"type": "unocc",
				"energy": 0.00926,
				"method": "rhf"
			},
			{
				"type": "unocc",
				"energy": 0.01335,
				"method": "rhf"
			}
		],
		"cosmo_sigma_profile": { 
			"-0.025": 0.0,
			"-0.024": 0.0,
			"-0.023": 0.0,
			"-0.022": 0.0,
			"-0.021": 0.0,
			"-0.02": 0.0,
			"-0.019": 0.0795718695847,
			"-0.018": 0.707305236923,
			"-0.017": 0.843466342335,
			"-0.016": 1.09591661619,
			"-0.015": 0.287816567723,
			"-0.014": 0.585190359395,
			"-0.013": 0.698487112761,
			"-0.012": 0.861619001868,
			"-0.011": 0.90846392716,
			"-0.01": 0.688403698881,
			"-0.009": 0.33830524774,
			"-0.008": 1.88010543082,
			"-0.007": 6.296049224,
			"-0.006": 11.8708478245,
			"-0.005": 15.1606932972,
			"-0.004": 17.730134188,
			"-0.003": 18.445751992,
			"-0.002": 23.0906152529,
			"-0.001": 26.3275150591,
			"0.0": 25.8981224367,
			"0.001": 30.704031373,
			"0.002": 28.8067793734,
			"0.003": 31.5300103393,
			"0.004": 25.8601035026,
			"0.005": 16.5591301571,
			"0.006": 3.8842261737,
			"0.007": 3.43245507977,
			"0.008": 2.06673563243,
			"0.009": 1.58859464014,
			"0.01": 1.50273640601,
			"0.011": 2.34502819623,
			"0.012": 1.14111740339,
			"0.013": 0.0,
			"0.014": 0.0,
			"0.015": 0.0,
			"0.016": 0.0,
			"0.017": 0.0,
			"0.018": 0.0,
			"0.019": 0.0,
			"0.02": 0.0,
			"0.021": 0.0,
			"0.022": 0.0,
			"0.023": 0.0,
			"0.024": 0.0,
			"0.025": 0.0
		}
	}
}
