{
	 "smiles": "CCCCCCCCCCCCC(O)=O", 
	 "Tm": 316.15, 
	 "num_atms": 41, 
	 "gaussian": { 
		 "optdone": 1, 
		 "sigma_profile": "yes", 
		 "theory": "DFT", 
		 "functional": "B3LYP", 
		 "basiset": "6-31G**", 
		 "properties": { 
			 "R2extent": 5752.8425, 
			 "electric_dipole_moment_norm": 3.98842505759, 
			 "electric_quadrupole_moment_norm": 19.5581863707, 
			 "total_energy": -661.538706193, 
			 "HOMO_LUMO_gap": 0.27539, 
			 "cosmo_polarized_energy": -13.18, 
			 "cosmo_cavitation_energy": 41.02, 
			 "cosmo_dispersion_energy": -27.13, 
			 "cosmo_repulsion_energy": 2.21, 
			 "cosmo_total_nonelectrostatic_energy": 16.09, 
			 "SMD_solvation_energy": 6.55 
		},
		"coords": [
			{
				"x": -0.2424956172,
				"y": 0.2965835853,
				"z": 5.1026949999,
				"element": "C" 
			},
			{
				"x": 0.9721600486,
				"y": -0.510725868,
				"z": 4.6305151175,
				"element": "C" 
			},
			{
				"x": 1.8735045999,
				"y": 0.1757976264,
				"z": 3.5881113919,
				"element": "C" 
			},
			{
				"x": 1.2233053601,
				"y": 0.4747646108,
				"z": 2.2184768987,
				"element": "C" 
			},
			{
				"x": 0.5830152039,
				"y": 1.8679161504,
				"z": 2.0919520259,
				"element": "C" 
			},
			{
				"x": 0.0098404445,
				"y": 2.1784673706,
				"z": 0.6988224183,
				"element": "C" 
			},
			{
				"x": -1.2413652268,
				"y": 1.3618550281,
				"z": 0.3321653934,
				"element": "C" 
			},
			{
				"x": -1.8787661946,
				"y": 1.7161139031,
				"z": -1.0310676994,
				"element": "C" 
			},
			{
				"x": -1.4127983063,
				"y": 0.8690512757,
				"z": -2.2294871172,
				"element": "C" 
			},
			{
				"x": 0.067124307,
				"y": 1.0211418048,
				"z": -2.6102083879,
				"element": "C" 
			},
			{
				"x": 0.4579635415,
				"y": 0.3021347143,
				"z": -3.9128127121,
				"element": "C" 
			},
			{
				"x": 0.2019696875,
				"y": -1.2223834031,
				"z": -3.9102323263,
				"element": "C" 
			},
			{
				"x": 0.8404139079,
				"y": -1.9328329497,
				"z": -2.7251624582,
				"element": "C" 
			},
			{
				"x": 2.2032607886,
				"y": -1.9003167339,
				"z": -2.6827116666,
				"element": "O" 
			},
			{
				"x": 0.2271627783,
				"y": -2.4822447444,
				"z": -1.844185569,
				"element": "O" 
			},
			{
				"x": -0.9602693407,
				"y": 0.4646460249,
				"z": 4.2937828876,
				"element": "H" 
			},
			{
				"x": -0.7728280221,
				"y": -0.2296625169,
				"z": 5.903849246,
				"element": "H" 
			},
			{
				"x": 0.056834261,
				"y": 1.2770130291,
				"z": 5.4914868947,
				"element": "H" 
			},
			{
				"x": 1.589775485,
				"y": -0.7604475679,
				"z": 5.5034447689,
				"element": "H" 
			},
			{
				"x": 0.6288348471,
				"y": -1.4708569651,
				"z": 4.2214185574,
				"element": "H" 
			},
			{
				"x": 2.7402785351,
				"y": -0.4774903146,
				"z": 3.4273670123,
				"element": "H" 
			},
			{
				"x": 2.276976122,
				"y": 1.107167945,
				"z": 4.0114577272,
				"element": "H" 
			},
			{
				"x": 0.4861344782,
				"y": -0.3068204777,
				"z": 1.9929304457,
				"element": "H" 
			},
			{
				"x": 1.9903571464,
				"y": 0.3898217821,
				"z": 1.4368208279,
				"element": "H" 
			},
			{
				"x": -0.2082900053,
				"y": 1.9951429964,
				"z": 2.8414037302,
				"element": "H" 
			},
			{
				"x": 1.3472463861,
				"y": 2.6197623066,
				"z": 2.3326221922,
				"element": "H" 
			},
			{
				"x": 0.7965162823,
				"y": 2.0307664227,
				"z": -0.0523604687,
				"element": "H" 
			},
			{
				"x": -0.2512048414,
				"y": 3.2449184323,
				"z": 0.6546332557,
				"element": "H" 
			},
			{
				"x": -1.0150266422,
				"y": 0.288038492,
				"z": 0.3526979486,
				"element": "H" 
			},
			{
				"x": -1.98609247,
				"y": 1.5252365588,
				"z": 1.1228178544,
				"element": "H" 
			},
			{
				"x": -2.9658472134,
				"y": 1.5918280696,
				"z": -0.9524331074,
				"element": "H" 
			},
			{
				"x": -1.7159758386,
				"y": 2.7818438284,
				"z": -1.2473345975,
				"element": "H" 
			},
			{
				"x": -1.6233891394,
				"y": -0.1851981502,
				"z": -2.0101013814,
				"element": "H" 
			},
			{
				"x": -2.0284810745,
				"y": 1.134033857,
				"z": -3.1013503896,
				"element": "H" 
			},
			{
				"x": 0.3075902235,
				"y": 2.0866198803,
				"z": -2.722468099,
				"element": "H" 
			},
			{
				"x": 0.70028539,
				"y": 0.650726466,
				"z": -1.7948178154,
				"element": "H" 
			},
			{
				"x": 1.5185974756,
				"y": 0.499184095,
				"z": -4.1238268775,
				"element": "H" 
			},
			{
				"x": -0.0967717644,
				"y": 0.7328057785,
				"z": -4.7555681531,
				"element": "H" 
			},
			{
				"x": 0.5856630248,
				"y": -1.6595471058,
				"z": -4.8417364206,
				"element": "H" 
			},
			{
				"x": -0.8668273189,
				"y": -1.4367567974,
				"z": -3.8665884356,
				"element": "H" 
			},
			{
				"x": 2.549218691,
				"y": -1.4309984394,
				"z": -3.4550179117,
				"element": "H" 
			}
		],
		 "valence_orbital": [ 
			{
				"type": "occ",
				"energy": -0.30618,
				"method": "rhf"
			},
			{
				"type": "occ",
				"energy": -0.30037,
				"method": "rhf"
			},
			{
				"type": "occ",
				"energy": -0.29807,
				"method": "rhf"
			},
			{
				"type": "occ",
				"energy": -0.2931,
				"method": "rhf"
			},
			{
				"type": "occ",
				"energy": -0.26627,
				"method": "rhf"
			},
			{
				"type": "unocc",
				"energy": 0.00912,
				"method": "rhf"
			},
			{
				"type": "unocc",
				"energy": 0.04378,
				"method": "rhf"
			},
			{
				"type": "unocc",
				"energy": 0.08797,
				"method": "rhf"
			},
			{
				"type": "unocc",
				"energy": 0.09579,
				"method": "rhf"
			},
			{
				"type": "unocc",
				"energy": 0.10461,
				"method": "rhf"
			}
		],
		"cosmo_sigma_profile": { 
			"-0.025": 0.0,
			"-0.024": 0.0,
			"-0.023": 0.0,
			"-0.022": 0.0,
			"-0.021": 0.0,
			"-0.02": 0.0,
			"-0.019": 0.0148709361952,
			"-0.018": 0.616741394122,
			"-0.017": 0.883554107519,
			"-0.016": 1.24694115967,
			"-0.015": 1.0663146624,
			"-0.014": 0.868394749942,
			"-0.013": 1.39195610667,
			"-0.012": 1.30511190473,
			"-0.011": 0.846292919624,
			"-0.01": 0.882551381587,
			"-0.009": 1.63825674052,
			"-0.008": 0.762818467277,
			"-0.007": 2.8922053939,
			"-0.006": 3.30773348287,
			"-0.005": 3.49679934165,
			"-0.004": 5.63657177572,
			"-0.003": 11.7161330873,
			"-0.002": 41.8441615865,
			"-0.001": 62.2595965151,
			"0.0": 66.2432970218,
			"0.001": 48.5212049239,
			"0.002": 21.5129448179,
			"0.003": 2.7672432707,
			"0.004": 2.81863854276,
			"0.005": 2.00090961318,
			"0.006": 2.57783883743,
			"0.007": 2.3062055653,
			"0.008": 1.96010741434,
			"0.009": 3.37972677469,
			"0.01": 3.65378802479,
			"0.011": 5.15576376328,
			"0.012": 5.36396782764,
			"0.013": 3.40009548753,
			"0.014": 0.40512656434,
			"0.015": 0.0,
			"0.016": 0.0,
			"0.017": 0.0,
			"0.018": 0.0,
			"0.019": 0.0,
			"0.02": 0.0,
			"0.021": 0.0,
			"0.022": 0.0,
			"0.023": 0.0,
			"0.024": 0.0,
			"0.025": 0.0
		}
	}
}
