{
	 "smiles": "OC1=C(CNC2CCCCC2)C=CC=C1", 
	 "Tm": 335.15, 
	 "num_atms": 34, 
	 "gaussian": { 
		 "optdone": 1, 
		 "sigma_profile": "yes", 
		 "theory": "DFT", 
		 "functional": "B3LYP", 
		 "basiset": "6-31G**", 
		 "properties": { 
			 "R2extent": 4606.1417, 
			 "electric_dipole_moment_norm": 3.23734676857, 
			 "electric_quadrupole_moment_norm": 8.28693717968, 
			 "total_energy": -636.82069372, 
			 "HOMO_LUMO_gap": 0.20884, 
			 "cosmo_polarized_energy": -8.63, 
			 "cosmo_cavitation_energy": 33.39, 
			 "cosmo_dispersion_energy": -24.04, 
			 "cosmo_repulsion_energy": 1.88, 
			 "cosmo_total_nonelectrostatic_energy": 11.24, 
			 "SMD_solvation_energy": 4.56 
		},
		"coords": [
			{
				"x": 1.0130704553,
				"y": -0.92304644,
				"z": -0.4076794056,
				"element": "O" 
			},
			{
				"x": 2.0656458314,
				"y": -0.3235095223,
				"z": 0.2063169707,
				"element": "C" 
			},
			{
				"x": 2.6844639203,
				"y": 0.8266370009,
				"z": -0.332238715,
				"element": "C" 
			},
			{
				"x": 2.281375084,
				"y": 1.3651121217,
				"z": -1.6925751852,
				"element": "C" 
			},
			{
				"x": 0.8336814939,
				"y": 1.2588380006,
				"z": -1.9900697726,
				"element": "N" 
			},
			{
				"x": -0.0046460966,
				"y": 2.4019605482,
				"z": -1.5600318331,
				"element": "C" 
			},
			{
				"x": -1.4074204275,
				"y": 2.2805749876,
				"z": -2.21120173,
				"element": "C" 
			},
			{
				"x": -2.4191773922,
				"y": 1.5992503954,
				"z": -1.2814009082,
				"element": "C" 
			},
			{
				"x": -2.6560623562,
				"y": 2.4508841717,
				"z": -0.0121404589,
				"element": "C" 
			},
			{
				"x": -1.3834337137,
				"y": 3.2287082485,
				"z": 0.4024284253,
				"element": "C" 
			},
			{
				"x": -0.1146946945,
				"y": 2.4740564582,
				"z": -0.0190850347,
				"element": "C" 
			},
			{
				"x": 3.7443584597,
				"y": 1.4078528655,
				"z": 0.3709965186,
				"element": "C" 
			},
			{
				"x": 4.2102390691,
				"y": 0.8682252692,
				"z": 1.5701712047,
				"element": "C" 
			},
			{
				"x": 3.5990308013,
				"y": -0.2787608106,
				"z": 2.0827962431,
				"element": "C" 
			},
			{
				"x": 2.5304482694,
				"y": -0.8671734161,
				"z": 1.4111668809,
				"element": "C" 
			},
			{
				"x": 0.7027493826,
				"y": -0.2915314125,
				"z": -1.1081241653,
				"element": "H" 
			},
			{
				"x": 2.6392542152,
				"y": 2.4019073735,
				"z": -1.7994000041,
				"element": "H" 
			},
			{
				"x": 2.7945952155,
				"y": 0.7779457318,
				"z": -2.4666423876,
				"element": "H" 
			},
			{
				"x": 0.7316720812,
				"y": 1.1647256449,
				"z": -2.9972074837,
				"element": "H" 
			},
			{
				"x": 0.4590164615,
				"y": 3.3403185846,
				"z": -1.9137997639,
				"element": "H" 
			},
			{
				"x": -1.3297257061,
				"y": 1.7409754323,
				"z": -3.1639125059,
				"element": "H" 
			},
			{
				"x": -1.7693139282,
				"y": 3.2848791481,
				"z": -2.4632368091,
				"element": "H" 
			},
			{
				"x": -2.0352661437,
				"y": 0.6102978178,
				"z": -1.0040395535,
				"element": "H" 
			},
			{
				"x": -3.3647320641,
				"y": 1.4253585969,
				"z": -1.8064941524,
				"element": "H" 
			},
			{
				"x": -3.4774149258,
				"y": 3.1569112627,
				"z": -0.1834537683,
				"element": "H" 
			},
			{
				"x": -2.9773459788,
				"y": 1.7969579765,
				"z": 0.8067004214,
				"element": "H" 
			},
			{
				"x": -1.3785601676,
				"y": 3.4013305701,
				"z": 1.4837247256,
				"element": "H" 
			},
			{
				"x": -1.3812618534,
				"y": 4.2236422208,
				"z": -0.0626395855,
				"element": "H" 
			},
			{
				"x": -0.1503845054,
				"y": 1.4553866847,
				"z": 0.3818532054,
				"element": "H" 
			},
			{
				"x": 0.7789880237,
				"y": 2.9426508561,
				"z": 0.4035815052,
				"element": "H" 
			},
			{
				"x": 4.2170905095,
				"y": 2.2985355949,
				"z": -0.0387811132,
				"element": "H" 
			},
			{
				"x": 5.0362999159,
				"y": 1.3365228845,
				"z": 2.0963580173,
				"element": "H" 
			},
			{
				"x": 3.9484818548,
				"y": -0.712287997,
				"z": 3.0158966393,
				"element": "H" 
			},
			{
				"x": 2.0323789096,
				"y": -1.7496368491,
				"z": 1.8002635785,
				"element": "H" 
			}
		],
		 "valence_orbital": [ 
			{
				"type": "occ",
				"energy": -0.30221,
				"method": "rhf"
			},
			{
				"type": "occ",
				"energy": -0.30163,
				"method": "rhf"
			},
			{
				"type": "occ",
				"energy": -0.24765,
				"method": "rhf"
			},
			{
				"type": "occ",
				"energy": -0.2341,
				"method": "rhf"
			},
			{
				"type": "occ",
				"energy": -0.20114,
				"method": "rhf"
			},
			{
				"type": "unocc",
				"energy": 0.0077,
				"method": "rhf"
			},
			{
				"type": "unocc",
				"energy": 0.02426,
				"method": "rhf"
			},
			{
				"type": "unocc",
				"energy": 0.06953,
				"method": "rhf"
			},
			{
				"type": "unocc",
				"energy": 0.08723,
				"method": "rhf"
			},
			{
				"type": "unocc",
				"energy": 0.09447,
				"method": "rhf"
			}
		],
		"cosmo_sigma_profile": { 
			"-0.025": 0.0,
			"-0.024": 0.0,
			"-0.023": 0.0,
			"-0.022": 0.0,
			"-0.021": 0.0,
			"-0.02": 0.0,
			"-0.019": 0.0,
			"-0.018": 0.0,
			"-0.017": 0.0,
			"-0.016": 0.0,
			"-0.015": 0.0,
			"-0.014": 0.0,
			"-0.013": 0.0,
			"-0.012": 0.0481475936747,
			"-0.011": 0.997670626871,
			"-0.01": 1.40728554054,
			"-0.009": 1.30017234278,
			"-0.008": 2.22073919036,
			"-0.007": 1.98928865195,
			"-0.006": 2.58285601525,
			"-0.005": 11.3356411497,
			"-0.004": 13.6412144044,
			"-0.003": 19.5746883758,
			"-0.002": 38.8302257023,
			"-0.001": 39.8808743261,
			"0.0": 34.1338788482,
			"0.001": 26.9573333709,
			"0.002": 13.2195802978,
			"0.003": 6.6249761152,
			"0.004": 9.58720016429,
			"0.005": 9.60028668143,
			"0.006": 8.60494237261,
			"0.007": 7.02808803207,
			"0.008": 2.02519305783,
			"0.009": 1.40558647043,
			"0.01": 0.937699844011,
			"0.011": 1.40538123394,
			"0.012": 1.65365024368,
			"0.013": 2.18593631814,
			"0.014": 0.480235179853,
			"0.015": 0.0,
			"0.016": 0.0,
			"0.017": 0.0,
			"0.018": 0.0,
			"0.019": 0.0,
			"0.02": 0.0,
			"0.021": 0.0,
			"0.022": 0.0,
			"0.023": 0.0,
			"0.024": 0.0,
			"0.025": 0.0
		}
	}
}
