{
	 "smiles": "NC1=CC(Cl)=C(C=C1)S(=O)(=O)NC1=C(Cl)C=CC=C1", 
	 "Tm": 513.15, 
	 "num_atms": 29, 
	 "gaussian": { 
		 "optdone": 1, 
		 "sigma_profile": "yes", 
		 "theory": "DFT", 
		 "functional": "B3LYP", 
		 "basiset": "6-31G**", 
		 "properties": { 
			 "R2extent": 6149.2738, 
			 "electric_dipole_moment_norm": 6.08469746988, 
			 "electric_quadrupole_moment_norm": 27.1145918695, 
			 "total_energy": -2041.75344578, 
			 "HOMO_LUMO_gap": 0.187, 
			 "cosmo_polarized_energy": -19.73, 
			 "cosmo_cavitation_energy": 37.66, 
			 "cosmo_dispersion_energy": -27.01, 
			 "cosmo_repulsion_energy": 2.04, 
			 "cosmo_total_nonelectrostatic_energy": 12.69, 
			 "SMD_solvation_energy": 5.08 
		},
		"coords": [
			{
				"x": 2.9002862442,
				"y": 3.6445884737,
				"z": -2.4593663265,
				"element": "N" 
			},
			{
				"x": 2.5061252958,
				"y": 2.4627403664,
				"z": -1.8657854084,
				"element": "C" 
			},
			{
				"x": 1.6851498077,
				"y": 2.4781992014,
				"z": -0.7232807239,
				"element": "C" 
			},
			{
				"x": 1.2443696591,
				"y": 1.2932804843,
				"z": -0.1461917646,
				"element": "C" 
			},
			{
				"x": 0.2256026868,
				"y": 1.4395177319,
				"z": 1.2685656918,
				"element": "Cl" 
			},
			{
				"x": 1.6094357954,
				"y": 0.0494160792,
				"z": -0.6901391811,
				"element": "C" 
			},
			{
				"x": 2.4303472135,
				"y": 0.0429852479,
				"z": -1.8286242078,
				"element": "C" 
			},
			{
				"x": 2.8733135891,
				"y": 1.2185779854,
				"z": -2.4118106961,
				"element": "C" 
			},
			{
				"x": 1.1497694112,
				"y": -1.5631657207,
				"z": -0.0316601122,
				"element": "S" 
			},
			{
				"x": 1.2714222273,
				"y": -1.5564424751,
				"z": 1.4225578352,
				"element": "O" 
			},
			{
				"x": 1.8551827677,
				"y": -2.541157382,
				"z": -0.859751026,
				"element": "O" 
			},
			{
				"x": -0.4802672282,
				"y": -1.83904645,
				"z": -0.4103313535,
				"element": "N" 
			},
			{
				"x": -1.6170861953,
				"y": -1.3809246686,
				"z": 0.2882335997,
				"element": "C" 
			},
			{
				"x": -2.7076474971,
				"y": -0.8315552138,
				"z": -0.4096446972,
				"element": "C" 
			},
			{
				"x": -2.623012811,
				"y": -0.6443828608,
				"z": -2.1626027987,
				"element": "Cl" 
			},
			{
				"x": -3.8722033186,
				"y": -0.4417305435,
				"z": 0.2477474008,
				"element": "C" 
			},
			{
				"x": -3.9587983376,
				"y": -0.5759532611,
				"z": 1.6318525587,
				"element": "C" 
			},
			{
				"x": -2.8855154671,
				"y": -1.1190327405,
				"z": 2.3413040831,
				"element": "C" 
			},
			{
				"x": -1.7345606038,
				"y": -1.5343618743,
				"z": 1.6792114446,
				"element": "C" 
			},
			{
				"x": 2.8600360361,
				"y": 4.4823970841,
				"z": -1.8985905626,
				"element": "H" 
			},
			{
				"x": 3.6936592735,
				"y": 3.6051586016,
				"z": -3.0814311744,
				"element": "H" 
			},
			{
				"x": 1.3840009569,
				"y": 3.422220134,
				"z": -0.2815507313,
				"element": "H" 
			},
			{
				"x": 2.7267837206,
				"y": -0.9149084777,
				"z": -2.2393832928,
				"element": "H" 
			},
			{
				"x": 3.5083359137,
				"y": 1.1796572629,
				"z": -3.2920853813,
				"element": "H" 
			},
			{
				"x": -0.5976769427,
				"y": -1.9402970151,
				"z": -1.4134451144,
				"element": "H" 
			},
			{
				"x": -4.6941628842,
				"y": -0.0307142519,
				"z": -0.3278374575,
				"element": "H" 
			},
			{
				"x": -4.862199036,
				"y": -0.2653688653,
				"z": 2.1470650226,
				"element": "H" 
			},
			{
				"x": -2.9493052889,
				"y": -1.2391442713,
				"z": 3.4184071442,
				"element": "H" 
			},
			{
				"x": -0.9055849882,
				"y": -1.9716525811,
				"z": 2.2205672296,
				"element": "H" 
			}
		],
		 "valence_orbital": [ 
			{
				"type": "occ",
				"energy": -0.29794,
				"method": "rhf"
			},
			{
				"type": "occ",
				"energy": -0.26197,
				"method": "rhf"
			},
			{
				"type": "occ",
				"energy": -0.2519,
				"method": "rhf"
			},
			{
				"type": "occ",
				"energy": -0.24052,
				"method": "rhf"
			},
			{
				"type": "occ",
				"energy": -0.22292,
				"method": "rhf"
			},
			{
				"type": "unocc",
				"energy": -0.03592,
				"method": "rhf"
			},
			{
				"type": "unocc",
				"energy": -0.02476,
				"method": "rhf"
			},
			{
				"type": "unocc",
				"energy": -0.01169,
				"method": "rhf"
			},
			{
				"type": "unocc",
				"energy": -0.00774,
				"method": "rhf"
			},
			{
				"type": "unocc",
				"energy": 0.01611,
				"method": "rhf"
			}
		],
		"cosmo_sigma_profile": { 
			"-0.025": 0.0,
			"-0.024": 0.0,
			"-0.023": 0.0,
			"-0.022": 0.0,
			"-0.021": 0.0,
			"-0.02": 0.0,
			"-0.019": 0.0,
			"-0.018": 0.0,
			"-0.017": 0.0,
			"-0.016": 0.0,
			"-0.015": 0.0,
			"-0.014": 1.43986547503,
			"-0.013": 4.26060847243,
			"-0.012": 3.96254284895,
			"-0.011": 4.03149722845,
			"-0.01": 4.13509755831,
			"-0.009": 4.24444497373,
			"-0.008": 5.38267849481,
			"-0.007": 9.84197502302,
			"-0.006": 13.8419995421,
			"-0.005": 14.7834690437,
			"-0.004": 13.0460146414,
			"-0.003": 12.5184649959,
			"-0.002": 16.1058821938,
			"-0.001": 15.3800293727,
			"0.0": 21.5631555472,
			"0.001": 25.7665739359,
			"0.002": 34.9401032004,
			"0.003": 32.297321186,
			"0.004": 25.040244171,
			"0.005": 6.88368619702,
			"0.006": 5.54497592596,
			"0.007": 5.07346318905,
			"0.008": 4.71193851769,
			"0.009": 5.66518983227,
			"0.01": 7.95291837587,
			"0.011": 7.12790508572,
			"0.012": 0.675254050655,
			"0.013": 0.0,
			"0.014": 0.0,
			"0.015": 0.0,
			"0.016": 0.0,
			"0.017": 0.0,
			"0.018": 0.0,
			"0.019": 0.0,
			"0.02": 0.0,
			"0.021": 0.0,
			"0.022": 0.0,
			"0.023": 0.0,
			"0.024": 0.0,
			"0.025": 0.0
		}
	}
}
