{
	 "smiles": "[O-][N+](=O)C1=CC=C(F)C=C1F", 
	 "Tm": 282.65, 
	 "num_atms": 14, 
	 "gaussian": { 
		 "optdone": 1, 
		 "sigma_profile": "yes", 
		 "theory": "DFT", 
		 "functional": "B3LYP", 
		 "basiset": "6-31G**", 
		 "properties": { 
			 "R2extent": 2154.9216, 
			 "electric_dipole_moment_norm": 3.92074785978, 
			 "electric_quadrupole_moment_norm": 6.49532329757, 
			 "total_energy": -635.199959003, 
			 "HOMO_LUMO_gap": 0.1886, 
			 "cosmo_polarized_energy": -8.24, 
			 "cosmo_cavitation_energy": 20.45, 
			 "cosmo_dispersion_energy": -14.97, 
			 "cosmo_repulsion_energy": 1.15, 
			 "cosmo_total_nonelectrostatic_energy": 6.64, 
			 "SMD_solvation_energy": 6.83 
		},
		"coords": [
			{
				"x": -0.9274404485,
				"y": -1.6917837611,
				"z": 0.7975674514,
				"element": "O" 
			},
			{
				"x": -0.4121999212,
				"y": -0.7966312448,
				"z": 1.4697213809,
				"element": "N" 
			},
			{
				"x": -0.1301980404,
				"y": -0.8883232757,
				"z": 2.6609004435,
				"element": "O" 
			},
			{
				"x": -0.1194325365,
				"y": 0.4662457958,
				"z": 0.7836160969,
				"element": "C" 
			},
			{
				"x": -0.4405418758,
				"y": 0.5658373281,
				"z": -0.5744526841,
				"element": "C" 
			},
			{
				"x": -0.1898245884,
				"y": 1.731999087,
				"z": -1.2831180523,
				"element": "C" 
			},
			{
				"x": 0.3909591402,
				"y": 2.8034891639,
				"z": -0.6064465697,
				"element": "C" 
			},
			{
				"x": 0.6405029708,
				"y": 3.937552029,
				"z": -1.27425747,
				"element": "F" 
			},
			{
				"x": 0.7226517265,
				"y": 2.7398222099,
				"z": 0.7408766122,
				"element": "C" 
			},
			{
				"x": 0.465181873,
				"y": 1.5637022109,
				"z": 1.4378458723,
				"element": "C" 
			},
			{
				"x": 0.7938795719,
				"y": 1.5331728723,
				"z": 2.7269445983,
				"element": "F" 
			},
			{
				"x": -0.8898208111,
				"y": -0.2971276892,
				"z": -1.049280473,
				"element": "H" 
			},
			{
				"x": -0.4330927716,
				"y": 1.8233687031,
				"z": -2.3348982283,
				"element": "H" 
			},
			{
				"x": 1.1733757111,
				"y": 3.5832765708,
				"z": 1.249181022,
				"element": "H" 
			}
		],
		 "valence_orbital": [ 
			{
				"type": "occ",
				"energy": -0.31403,
				"method": "rhf"
			},
			{
				"type": "occ",
				"energy": -0.31235,
				"method": "rhf"
			},
			{
				"type": "occ",
				"energy": -0.2948,
				"method": "rhf"
			},
			{
				"type": "occ",
				"energy": -0.29276,
				"method": "rhf"
			},
			{
				"type": "occ",
				"energy": -0.28315,
				"method": "rhf"
			},
			{
				"type": "unocc",
				"energy": -0.09455,
				"method": "rhf"
			},
			{
				"type": "unocc",
				"energy": -0.04127,
				"method": "rhf"
			},
			{
				"type": "unocc",
				"energy": -0.00744,
				"method": "rhf"
			},
			{
				"type": "unocc",
				"energy": 0.05121,
				"method": "rhf"
			},
			{
				"type": "unocc",
				"energy": 0.10836,
				"method": "rhf"
			}
		],
		"cosmo_sigma_profile": { 
			"-0.025": 0.0,
			"-0.024": 0.0,
			"-0.023": 0.0,
			"-0.022": 0.0,
			"-0.021": 0.0,
			"-0.02": 0.0,
			"-0.019": 0.0,
			"-0.018": 0.0,
			"-0.017": 0.0,
			"-0.016": 0.0,
			"-0.015": 0.0,
			"-0.014": 0.0,
			"-0.013": 0.0,
			"-0.012": 0.0,
			"-0.011": 0.0,
			"-0.01": 1.24676529061,
			"-0.009": 3.10188526591,
			"-0.008": 5.43486700293,
			"-0.007": 5.98767016217,
			"-0.006": 6.40006544664,
			"-0.005": 6.74097547018,
			"-0.004": 8.70642595295,
			"-0.003": 11.6692474094,
			"-0.002": 21.4545787436,
			"-0.001": 15.7300272458,
			"0.0": 9.97642074405,
			"0.001": 8.0468113905,
			"0.002": 9.69558756969,
			"0.003": 15.6555562082,
			"0.004": 4.28400840048,
			"0.005": 3.04862833525,
			"0.006": 4.59174529483,
			"0.007": 8.46775248711,
			"0.008": 8.85445057807,
			"0.009": 4.37121465339,
			"0.01": 2.20931568317,
			"0.011": 0.0,
			"0.012": 0.0,
			"0.013": 0.0,
			"0.014": 0.0,
			"0.015": 0.0,
			"0.016": 0.0,
			"0.017": 0.0,
			"0.018": 0.0,
			"0.019": 0.0,
			"0.02": 0.0,
			"0.021": 0.0,
			"0.022": 0.0,
			"0.023": 0.0,
			"0.024": 0.0,
			"0.025": 0.0
		}
	}
}
