{
	 "smiles": "OC1=CC=C(O)C(C=O)=C1", 
	 "Tm": 371.65, 
	 "num_atms": 16, 
	 "gaussian": { 
		 "optdone": 1, 
		 "sigma_profile": "yes", 
		 "theory": "DFT", 
		 "functional": "B3LYP", 
		 "basiset": "6-31G**", 
		 "properties": { 
			 "R2extent": 2098.0445, 
			 "electric_dipole_moment_norm": 3.43684894198, 
			 "electric_quadrupole_moment_norm": 11.1535517164, 
			 "total_energy": -496.011751084, 
			 "HOMO_LUMO_gap": 0.15665, 
			 "cosmo_polarized_energy": -15.34, 
			 "cosmo_cavitation_energy": 20.9, 
			 "cosmo_dispersion_energy": -15.55, 
			 "cosmo_repulsion_energy": 1.26, 
			 "cosmo_total_nonelectrostatic_energy": 6.6, 
			 "SMD_solvation_energy": 5.4 
		},
		"coords": [
			{
				"x": -3.6902698477,
				"y": 0.4917395397,
				"z": 1.6983981854,
				"element": "O" 
			},
			{
				"x": -2.3543269546,
				"y": 0.2762508434,
				"z": 1.4983426693,
				"element": "C" 
			},
			{
				"x": -1.9541828915,
				"y": -1.0323813746,
				"z": 1.1879844751,
				"element": "C" 
			},
			{
				"x": -0.6122870447,
				"y": -1.3244044001,
				"z": 0.9718316467,
				"element": "C" 
			},
			{
				"x": 0.358539551,
				"y": -0.318993749,
				"z": 1.0603763202,
				"element": "C" 
			},
			{
				"x": 1.686847794,
				"y": -0.5668897653,
				"z": 0.8547476809,
				"element": "O" 
			},
			{
				"x": -0.0356024137,
				"y": 0.9953660248,
				"z": 1.3711794562,
				"element": "C" 
			},
			{
				"x": 0.9475418598,
				"y": 2.0953571805,
				"z": 1.4774060171,
				"element": "C" 
			},
			{
				"x": 0.6424340126,
				"y": 3.2461548986,
				"z": 1.7448496353,
				"element": "O" 
			},
			{
				"x": -1.3943005621,
				"y": 1.2765013547,
				"z": 1.5871220713,
				"element": "C" 
			},
			{
				"x": -3.8316003404,
				"y": 1.4252229448,
				"z": 1.9027033611,
				"element": "H" 
			},
			{
				"x": -2.7088911705,
				"y": -1.8090176659,
				"z": 1.1201828541,
				"element": "H" 
			},
			{
				"x": -0.3148694754,
				"y": -2.343045171,
				"z": 0.7319184557,
				"element": "H" 
			},
			{
				"x": 1.8085288294,
				"y": -1.5031753336,
				"z": 0.6522504469,
				"element": "H" 
			},
			{
				"x": 2.0012255209,
				"y": 1.8126969602,
				"z": 1.2970552495,
				"element": "H" 
			},
			{
				"x": -1.6571868672,
				"y": 2.3045177129,
				"z": 1.824951475,
				"element": "H" 
			}
		],
		 "valence_orbital": [ 
			{
				"type": "occ",
				"energy": -0.35732,
				"method": "rhf"
			},
			{
				"type": "occ",
				"energy": -0.31584,
				"method": "rhf"
			},
			{
				"type": "occ",
				"energy": -0.2656,
				"method": "rhf"
			},
			{
				"type": "occ",
				"energy": -0.24766,
				"method": "rhf"
			},
			{
				"type": "occ",
				"energy": -0.21697,
				"method": "rhf"
			},
			{
				"type": "unocc",
				"energy": -0.06032,
				"method": "rhf"
			},
			{
				"type": "unocc",
				"energy": 0.00613,
				"method": "rhf"
			},
			{
				"type": "unocc",
				"energy": 0.04654,
				"method": "rhf"
			},
			{
				"type": "unocc",
				"energy": 0.05319,
				"method": "rhf"
			},
			{
				"type": "unocc",
				"energy": 0.07287,
				"method": "rhf"
			}
		],
		"cosmo_sigma_profile": { 
			"-0.025": 0.0,
			"-0.024": 0.0,
			"-0.023": 0.0,
			"-0.022": 0.0,
			"-0.021": 0.0,
			"-0.02": 0.0,
			"-0.019": 0.233795704115,
			"-0.018": 1.3119097762,
			"-0.017": 2.26054558618,
			"-0.016": 2.09668896548,
			"-0.015": 2.08288584599,
			"-0.014": 2.34425556356,
			"-0.013": 2.09782639416,
			"-0.012": 1.69730741354,
			"-0.011": 1.41344448279,
			"-0.01": 2.62277311521,
			"-0.009": 2.43691483326,
			"-0.008": 2.09326766657,
			"-0.007": 4.00263621242,
			"-0.006": 6.54349785521,
			"-0.005": 6.6132428297,
			"-0.004": 6.63067560584,
			"-0.003": 7.3478200439,
			"-0.002": 8.36942344436,
			"-0.001": 6.628912351,
			"0.0": 6.76343709906,
			"0.001": 10.8233526958,
			"0.002": 15.379999656,
			"0.003": 19.1592921889,
			"0.004": 7.76129692531,
			"0.005": 5.36836961959,
			"0.006": 4.017736263,
			"0.007": 4.49951403363,
			"0.008": 4.759638013,
			"0.009": 3.88142538019,
			"0.01": 4.33267110632,
			"0.011": 5.46576044632,
			"0.012": 4.33513303056,
			"0.013": 1.40211700682,
			"0.014": 0.105631070952,
			"0.015": 0.0,
			"0.016": 0.0,
			"0.017": 0.0,
			"0.018": 0.0,
			"0.019": 0.0,
			"0.02": 0.0,
			"0.021": 0.0,
			"0.022": 0.0,
			"0.023": 0.0,
			"0.024": 0.0,
			"0.025": 0.0
		}
	}
}
