{
	 "smiles": "CCOC(=O)NC1=CC2=C(C=C1)C(CCl)=CC(=O)O2", 
	 "Tm": 521.15, 
	 "num_atms": 31, 
	 "gaussian": { 
		 "optdone": 1, 
		 "sigma_profile": "yes", 
		 "theory": "DFT", 
		 "functional": "B3LYP", 
		 "basiset": "6-31G**", 
		 "properties": { 
			 "R2extent": 8764.47, 
			 "electric_dipole_moment_norm": 4.4376178328, 
			 "electric_quadrupole_moment_norm": 29.9892750716, 
			 "total_energy": -1318.48930754, 
			 "HOMO_LUMO_gap": 0.15883, 
			 "cosmo_polarized_energy": -20.16, 
			 "cosmo_cavitation_energy": 37.74, 
			 "cosmo_dispersion_energy": -27.34, 
			 "cosmo_repulsion_energy": 2.11, 
			 "cosmo_total_nonelectrostatic_energy": 12.51, 
			 "SMD_solvation_energy": 8.39 
		},
		"coords": [
			{
				"x": 4.5446453471,
				"y": 2.3625680969,
				"z": 0.1613400109,
				"element": "C" 
			},
			{
				"x": 4.2144110129,
				"y": 1.5002247167,
				"z": 1.3635010457,
				"element": "C" 
			},
			{
				"x": 2.8195605834,
				"y": 1.1136005516,
				"z": 1.2502651602,
				"element": "O" 
			},
			{
				"x": 2.3606616316,
				"y": 0.3393903283,
				"z": 2.2490372292,
				"element": "C" 
			},
			{
				"x": 3.0184527005,
				"y": -0.0383965135,
				"z": 3.1995100876,
				"element": "O" 
			},
			{
				"x": 1.0271760056,
				"y": -0.0104714313,
				"z": 2.1087359063,
				"element": "N" 
			},
			{
				"x": 0.0477232202,
				"y": 0.2671901916,
				"z": 1.1479112034,
				"element": "C" 
			},
			{
				"x": 0.2553561045,
				"y": 1.0447450582,
				"z": 0.0057768542,
				"element": "C" 
			},
			{
				"x": -0.8007665804,
				"y": 1.2512929335,
				"z": -0.881086052,
				"element": "C" 
			},
			{
				"x": -2.0839378994,
				"y": 0.705450793,
				"z": -0.6766070503,
				"element": "C" 
			},
			{
				"x": -2.2653320086,
				"y": -0.0746310792,
				"z": 0.4831937741,
				"element": "C" 
			},
			{
				"x": -1.2316010725,
				"y": -0.2912065395,
				"z": 1.3744408361,
				"element": "C" 
			},
			{
				"x": -3.1081825665,
				"y": 0.9878627916,
				"z": -1.6688049718,
				"element": "C" 
			},
			{
				"x": -4.4771764203,
				"y": 0.3953302121,
				"z": -1.4338108624,
				"element": "C" 
			},
			{
				"x": -5.7116988172,
				"y": 0.7743195436,
				"z": -2.6919930184,
				"element": "Cl" 
			},
			{
				"x": -2.7978784608,
				"y": 1.7553333249,
				"z": -2.7410075557,
				"element": "C" 
			},
			{
				"x": -1.4695591859,
				"y": 2.3160392271,
				"z": -2.9464471319,
				"element": "C" 
			},
			{
				"x": -1.1250729779,
				"y": 3.0066856546,
				"z": -3.8756653077,
				"element": "O" 
			},
			{
				"x": -0.5166891098,
				"y": 2.0201576471,
				"z": -1.9692943035,
				"element": "O" 
			},
			{
				"x": 4.3958644079,
				"y": 1.8116754743,
				"z": -0.7717094143,
				"element": "H" 
			},
			{
				"x": 5.5923310657,
				"y": 2.6745200312,
				"z": 0.2115441297,
				"element": "H" 
			},
			{
				"x": 3.920859924,
				"y": 3.2606238052,
				"z": 0.1372627849,
				"element": "H" 
			},
			{
				"x": 4.3511693256,
				"y": 2.0356852737,
				"z": 2.307253658,
				"element": "H" 
			},
			{
				"x": 4.8243957017,
				"y": 0.5932956432,
				"z": 1.4025644872,
				"element": "H" 
			},
			{
				"x": 0.7349431414,
				"y": -0.5893868886,
				"z": 2.8836612983,
				"element": "H" 
			},
			{
				"x": 1.2125256111,
				"y": 1.4921419576,
				"z": -0.211773901,
				"element": "H" 
			},
			{
				"x": -3.2319336324,
				"y": -0.5203771305,
				"z": 0.6928176519,
				"element": "H" 
			},
			{
				"x": -1.4022325331,
				"y": -0.8971692006,
				"z": 2.2598771185,
				"element": "H" 
			},
			{
				"x": -4.8869631868,
				"y": 0.753845593,
				"z": -0.4864367945,
				"element": "H" 
			},
			{
				"x": -4.4145342848,
				"y": -0.6945268856,
				"z": -1.3862097399,
				"element": "H" 
			},
			{
				"x": -3.5256170466,
				"y": 1.9929868198,
				"z": -3.505347133,
				"element": "H" 
			}
		],
		 "valence_orbital": [ 
			{
				"type": "occ",
				"energy": -0.29236,
				"method": "rhf"
			},
			{
				"type": "occ",
				"energy": -0.29134,
				"method": "rhf"
			},
			{
				"type": "occ",
				"energy": -0.27458,
				"method": "rhf"
			},
			{
				"type": "occ",
				"energy": -0.25753,
				"method": "rhf"
			},
			{
				"type": "occ",
				"energy": -0.2286,
				"method": "rhf"
			},
			{
				"type": "unocc",
				"energy": -0.06977,
				"method": "rhf"
			},
			{
				"type": "unocc",
				"energy": -0.02181,
				"method": "rhf"
			},
			{
				"type": "unocc",
				"energy": -0.00748,
				"method": "rhf"
			},
			{
				"type": "unocc",
				"energy": 0.00762,
				"method": "rhf"
			},
			{
				"type": "unocc",
				"energy": 0.04343,
				"method": "rhf"
			}
		],
		"cosmo_sigma_profile": { 
			"-0.025": 0.0,
			"-0.024": 0.0,
			"-0.023": 0.0,
			"-0.022": 0.0,
			"-0.021": 0.0,
			"-0.02": 0.0,
			"-0.019": 0.0,
			"-0.018": 0.0,
			"-0.017": 0.0,
			"-0.016": 0.208095069534,
			"-0.015": 1.18326199762,
			"-0.014": 1.3408824272,
			"-0.013": 1.0089606718,
			"-0.012": 1.1769676993,
			"-0.011": 0.933447141315,
			"-0.01": 1.94392809846,
			"-0.009": 8.6015981409,
			"-0.008": 8.09708749674,
			"-0.007": 6.23606487015,
			"-0.006": 9.1665273647,
			"-0.005": 14.5084252766,
			"-0.004": 21.2058913799,
			"-0.003": 22.4895583085,
			"-0.002": 23.682869931,
			"-0.001": 28.4740176465,
			"0.0": 28.6493197771,
			"0.001": 26.3714717809,
			"0.002": 21.2360370084,
			"0.003": 13.9763454785,
			"0.004": 8.59543448765,
			"0.005": 10.1215203281,
			"0.006": 7.18148345028,
			"0.007": 3.18752486518,
			"0.008": 3.77494544503,
			"0.009": 3.36561545941,
			"0.01": 4.04748704642,
			"0.011": 6.05306483484,
			"0.012": 11.1669729185,
			"0.013": 5.37044682906,
			"0.014": 0.104095356424,
			"0.015": 0.0,
			"0.016": 0.0,
			"0.017": 0.0,
			"0.018": 0.0,
			"0.019": 0.0,
			"0.02": 0.0,
			"0.021": 0.0,
			"0.022": 0.0,
			"0.023": 0.0,
			"0.024": 0.0,
			"0.025": 0.0
		}
	}
}
