{
	 "smiles": "C1=CC2=CC=C(C=C2C=C1)N=NC1=CC2=CC=CC=C2C=C1", 
	 "Tm": 481.15, 
	 "num_atms": 36, 
	 "gaussian": { 
		 "optdone": 1, 
		 "sigma_profile": "yes", 
		 "theory": "DFT", 
		 "functional": "B3LYP", 
		 "basiset": "6-31G**", 
		 "properties": { 
			 "R2extent": 11745.9979, 
			 "electric_dipole_moment_norm": 0.0001, 
			 "electric_quadrupole_moment_norm": 20.9578432297, 
			 "total_energy": -880.055250579, 
			 "HOMO_LUMO_gap": 0.12783, 
			 "cosmo_polarized_energy": -8.93, 
			 "cosmo_cavitation_energy": 40.92, 
			 "cosmo_dispersion_energy": -30.11, 
			 "cosmo_repulsion_energy": 2.22, 
			 "cosmo_total_nonelectrostatic_energy": 13.02, 
			 "SMD_solvation_energy": 4.99 
		},
		"coords": [
			{
				"x": -2.7033800857,
				"y": -5.2223406395,
				"z": 3.882581076,
				"element": "C" 
			},
			{
				"x": -2.0873931779,
				"y": -4.0115498938,
				"z": 4.1201434361,
				"element": "C" 
			},
			{
				"x": -1.7081216512,
				"y": -3.1671534187,
				"z": 3.046370616,
				"element": "C" 
			},
			{
				"x": -1.0694660506,
				"y": -1.9084700913,
				"z": 3.2528594029,
				"element": "C" 
			},
			{
				"x": -0.7115649405,
				"y": -1.1081703507,
				"z": 2.1996772651,
				"element": "C" 
			},
			{
				"x": -0.9776573713,
				"y": -1.5310632746,
				"z": 0.8634191791,
				"element": "C" 
			},
			{
				"x": -1.5958494548,
				"y": -2.7471092061,
				"z": 0.6317418039,
				"element": "C" 
			},
			{
				"x": -1.9757013928,
				"y": -3.592713481,
				"z": 1.7034680082,
				"element": "C" 
			},
			{
				"x": -2.6117379042,
				"y": -4.8457720516,
				"z": 1.4917583596,
				"element": "C" 
			},
			{
				"x": -2.9678589873,
				"y": -5.6431591354,
				"z": 2.557025808,
				"element": "C" 
			},
			{
				"x": -0.6499441711,
				"y": -0.78254111,
				"z": -0.2897279836,
				"element": "N" 
			},
			{
				"x": -0.0865196121,
				"y": 0.3245568567,
				"z": -0.0578952353,
				"element": "N" 
			},
			{
				"x": 0.2411476207,
				"y": 1.0730681646,
				"z": -1.2110585014,
				"element": "C" 
			},
			{
				"x": 0.8594927297,
				"y": 2.2890439867,
				"z": -0.9794243014,
				"element": "C" 
			},
			{
				"x": 1.2393270277,
				"y": 3.1346217015,
				"z": -2.0511772611,
				"element": "C" 
			},
			{
				"x": 1.8755410469,
				"y": 4.3875980858,
				"z": -1.8395149565,
				"element": "C" 
			},
			{
				"x": 2.2316674125,
				"y": 5.1849478898,
				"z": -2.9048083937,
				"element": "C" 
			},
			{
				"x": 1.9670206788,
				"y": 4.7641706451,
				"z": -4.230343373,
				"element": "C" 
			},
			{
				"x": 1.3508646224,
				"y": 3.5534571205,
				"z": -4.4678602206,
				"element": "C" 
			},
			{
				"x": 0.9715740663,
				"y": 2.7091047992,
				"z": -3.3940593615,
				"element": "C" 
			},
			{
				"x": 0.3327546049,
				"y": 1.4504970402,
				"z": -3.6005020668,
				"element": "C" 
			},
			{
				"x": -0.0251327815,
				"y": 0.6502250119,
				"z": -2.5472944049,
				"element": "C" 
			},
			{
				"x": -2.9886727685,
				"y": -5.8594371406,
				"z": 4.7147397356,
				"element": "H" 
			},
			{
				"x": -1.8842729156,
				"y": -3.6883656478,
				"z": 5.1379216817,
				"element": "H" 
			},
			{
				"x": -0.8687300697,
				"y": -1.5904139915,
				"z": 4.273042219,
				"element": "H" 
			},
			{
				"x": -0.2262985297,
				"y": -0.151139645,
				"z": 2.3494184894,
				"element": "H" 
			},
			{
				"x": -1.786051741,
				"y": -3.0436089495,
				"z": -0.3956415605,
				"element": "H" 
			},
			{
				"x": -2.8127006558,
				"y": -5.1644808825,
				"z": 0.4722812755,
				"element": "H" 
			},
			{
				"x": -3.4535385381,
				"y": -6.5989847138,
				"z": 2.383695047,
				"element": "H" 
			},
			{
				"x": 1.0498201936,
				"y": 2.5855134884,
				"z": 0.0479445458,
				"element": "H" 
			},
			{
				"x": 2.0766246833,
				"y": 4.7062794296,
				"z": -0.8200531648,
				"element": "H" 
			},
			{
				"x": 2.7174893609,
				"y": 6.1407077199,
				"z": -2.7315142806,
				"element": "H" 
			},
			{
				"x": 2.2523193641,
				"y": 5.4012373832,
				"z": -5.062522747,
				"element": "H" 
			},
			{
				"x": 1.1476126583,
				"y": 3.2303062513,
				"z": -5.4856227663,
				"element": "H" 
			},
			{
				"x": 0.1318654993,
				"y": 1.1324845896,
				"z": -4.6206683825,
				"element": "H" 
			},
			{
				"x": -0.5105287699,
				"y": -0.3067465403,
				"z": -2.6969989873,
				"element": "H" 
			}
		],
		 "valence_orbital": [ 
			{
				"type": "occ",
				"energy": -0.25567,
				"method": "rhf"
			},
			{
				"type": "occ",
				"energy": -0.23477,
				"method": "rhf"
			},
			{
				"type": "occ",
				"energy": -0.22418,
				"method": "rhf"
			},
			{
				"type": "occ",
				"energy": -0.22346,
				"method": "rhf"
			},
			{
				"type": "occ",
				"energy": -0.20917,
				"method": "rhf"
			},
			{
				"type": "unocc",
				"energy": -0.08134,
				"method": "rhf"
			},
			{
				"type": "unocc",
				"energy": -0.03694,
				"method": "rhf"
			},
			{
				"type": "unocc",
				"energy": -0.0351,
				"method": "rhf"
			},
			{
				"type": "unocc",
				"energy": -0.00492,
				"method": "rhf"
			},
			{
				"type": "unocc",
				"energy": 0.02092,
				"method": "rhf"
			}
		],
		"cosmo_sigma_profile": { 
			"-0.025": 0.0,
			"-0.024": 0.0,
			"-0.023": 0.0,
			"-0.022": 0.0,
			"-0.021": 0.0,
			"-0.02": 0.0,
			"-0.019": 0.0,
			"-0.018": 0.0,
			"-0.017": 0.0,
			"-0.016": 0.0,
			"-0.015": 0.0,
			"-0.014": 0.0,
			"-0.013": 0.0,
			"-0.012": 0.0,
			"-0.011": 0.0,
			"-0.01": 0.0,
			"-0.009": 0.0,
			"-0.008": 0.0,
			"-0.007": 4.06405220834,
			"-0.006": 27.9084357637,
			"-0.005": 22.5332160147,
			"-0.004": 28.5920541089,
			"-0.003": 20.449786065,
			"-0.002": 16.9884291021,
			"-0.001": 16.7462289111,
			"0.0": 16.6128053467,
			"0.001": 24.7376214672,
			"0.002": 37.0280979736,
			"0.003": 57.885593414,
			"0.004": 34.761196007,
			"0.005": 12.8623301252,
			"0.006": 2.46567382392,
			"0.007": 3.90997104741,
			"0.008": 2.38213717742,
			"0.009": 0.0546898276226,
			"0.01": 0.0,
			"0.011": 0.0,
			"0.012": 0.0,
			"0.013": 0.0,
			"0.014": 0.0,
			"0.015": 0.0,
			"0.016": 0.0,
			"0.017": 0.0,
			"0.018": 0.0,
			"0.019": 0.0,
			"0.02": 0.0,
			"0.021": 0.0,
			"0.022": 0.0,
			"0.023": 0.0,
			"0.024": 0.0,
			"0.025": 0.0
		}
	}
}
