{
	 "smiles": "CCCCN(C)C1=CC=C(C=C1)C(O)=O", 
	 "Tm": 408.15, 
	 "num_atms": 32, 
	 "gaussian": { 
		 "optdone": 1, 
		 "sigma_profile": "yes", 
		 "theory": "DFT", 
		 "functional": "B3LYP", 
		 "basiset": "6-31G**", 
		 "properties": { 
			 "R2extent": 5658.5937, 
			 "electric_dipole_moment_norm": 4.72228288119, 
			 "electric_quadrupole_moment_norm": 9.29905962074, 
			 "total_energy": -672.750091841, 
			 "HOMO_LUMO_gap": 0.17195, 
			 "cosmo_polarized_energy": -12.18, 
			 "cosmo_cavitation_energy": 34.4, 
			 "cosmo_dispersion_energy": -24.4, 
			 "cosmo_repulsion_energy": 1.92, 
			 "cosmo_total_nonelectrostatic_energy": 11.92, 
			 "SMD_solvation_energy": 6.38 
		},
		"coords": [
			{
				"x": -2.8520907315,
				"y": -2.0864958607,
				"z": 0.696463064,
				"element": "C" 
			},
			{
				"x": -3.3012950154,
				"y": -0.6201768169,
				"z": 0.6521587738,
				"element": "C" 
			},
			{
				"x": -2.1515530288,
				"y": 0.4003909325,
				"z": 0.6810658658,
				"element": "C" 
			},
			{
				"x": -1.2816961546,
				"y": 0.3920633249,
				"z": -0.5887894105,
				"element": "C" 
			},
			{
				"x": -0.2157370494,
				"y": 1.3910936861,
				"z": -0.591067895,
				"element": "N" 
			},
			{
				"x": -0.5399055816,
				"y": 2.7236146356,
				"z": -1.0763485728,
				"element": "C" 
			},
			{
				"x": 1.0038201672,
				"y": 1.1591437658,
				"z": 0.0142464336,
				"element": "C" 
			},
			{
				"x": 2.0033877873,
				"y": 2.1655488251,
				"z": 0.0416713988,
				"element": "C" 
			},
			{
				"x": 3.2407362718,
				"y": 1.9325167557,
				"z": 0.6232466151,
				"element": "C" 
			},
			{
				"x": 3.5438365742,
				"y": 0.6953491176,
				"z": 1.2101959161,
				"element": "C" 
			},
			{
				"x": 2.5575379173,
				"y": -0.3029744354,
				"z": 1.1981043433,
				"element": "C" 
			},
			{
				"x": 1.3177404302,
				"y": -0.0847161043,
				"z": 0.6225790632,
				"element": "C" 
			},
			{
				"x": 4.841663274,
				"y": 0.4009720058,
				"z": 1.8417920927,
				"element": "C" 
			},
			{
				"x": 5.7145075986,
				"y": 1.4468546352,
				"z": 1.7930501893,
				"element": "O" 
			},
			{
				"x": 5.1489581042,
				"y": -0.655329441,
				"z": 2.3665126317,
				"element": "O" 
			},
			{
				"x": -2.2433018093,
				"y": -2.2849184831,
				"z": 1.5860712801,
				"element": "H" 
			},
			{
				"x": -2.2583720378,
				"y": -2.3644777278,
				"z": -0.1807907904,
				"element": "H" 
			},
			{
				"x": -3.7146538563,
				"y": -2.7597893379,
				"z": 0.7295294403,
				"element": "H" 
			},
			{
				"x": -3.9148161181,
				"y": -0.4511561046,
				"z": -0.2439862223,
				"element": "H" 
			},
			{
				"x": -3.9595669289,
				"y": -0.424440361,
				"z": 1.5073080968,
				"element": "H" 
			},
			{
				"x": -1.5139346815,
				"y": 0.2187068033,
				"z": 1.5554360843,
				"element": "H" 
			},
			{
				"x": -2.5659521691,
				"y": 1.4088326188,
				"z": 0.806996648,
				"element": "H" 
			},
			{
				"x": -0.8408389537,
				"y": -0.5949676031,
				"z": -0.7527952961,
				"element": "H" 
			},
			{
				"x": -1.9152458602,
				"y": 0.5831647555,
				"z": -1.4628819743,
				"element": "H" 
			},
			{
				"x": 0.1371481171,
				"y": 3.0364952327,
				"z": -1.8816902829,
				"element": "H" 
			},
			{
				"x": -0.4940182768,
				"y": 3.4811975909,
				"z": -0.2821250095,
				"element": "H" 
			},
			{
				"x": -1.5544616736,
				"y": 2.71800963,
				"z": -1.4774971331,
				"element": "H" 
			},
			{
				"x": 1.813126382,
				"y": 3.1353417891,
				"z": -0.4002510053,
				"element": "H" 
			},
			{
				"x": 3.9860400957,
				"y": 2.7204420146,
				"z": 0.6246479931,
				"element": "H" 
			},
			{
				"x": 2.7852092843,
				"y": -1.2585039066,
				"z": 1.6594112253,
				"element": "H" 
			},
			{
				"x": 0.5851869209,
				"y": -0.8811599494,
				"z": 0.6547365582,
				"element": "H" 
			},
			{
				"x": 6.5173410017,
				"y": 1.1272680125,
				"z": 2.2353998788,
				"element": "H" 
			}
		],
		 "valence_orbital": [ 
			{
				"type": "occ",
				"energy": -0.30254,
				"method": "rhf"
			},
			{
				"type": "occ",
				"energy": -0.28431,
				"method": "rhf"
			},
			{
				"type": "occ",
				"energy": -0.25842,
				"method": "rhf"
			},
			{
				"type": "occ",
				"energy": -0.24942,
				"method": "rhf"
			},
			{
				"type": "occ",
				"energy": -0.19596,
				"method": "rhf"
			},
			{
				"type": "unocc",
				"energy": -0.02401,
				"method": "rhf"
			},
			{
				"type": "unocc",
				"energy": 0.00228,
				"method": "rhf"
			},
			{
				"type": "unocc",
				"energy": 0.0672,
				"method": "rhf"
			},
			{
				"type": "unocc",
				"energy": 0.07937,
				"method": "rhf"
			},
			{
				"type": "unocc",
				"energy": 0.08923,
				"method": "rhf"
			}
		],
		"cosmo_sigma_profile": { 
			"-0.025": 0.0,
			"-0.024": 0.0,
			"-0.023": 0.0,
			"-0.022": 0.0,
			"-0.021": 0.0,
			"-0.02": 0.0,
			"-0.019": 0.0,
			"-0.018": 0.173586552342,
			"-0.017": 0.783270948412,
			"-0.016": 0.910955785981,
			"-0.015": 0.624170623755,
			"-0.014": 0.784995560281,
			"-0.013": 1.03593026276,
			"-0.012": 0.249997886277,
			"-0.011": 0.207192049852,
			"-0.01": 1.34472681407,
			"-0.009": 0.423617290928,
			"-0.008": 0.565556389577,
			"-0.007": 0.728548333665,
			"-0.006": 5.75524843909,
			"-0.005": 14.5892408625,
			"-0.004": 20.5830108411,
			"-0.003": 24.4900414803,
			"-0.002": 34.8545310811,
			"-0.001": 30.044010827,
			"0.0": 26.3911779178,
			"0.001": 23.7559111898,
			"0.002": 15.3451019764,
			"0.003": 13.4179434937,
			"0.004": 13.3536207786,
			"0.005": 13.6299465782,
			"0.006": 5.36862766576,
			"0.007": 3.54931320619,
			"0.008": 2.93464614769,
			"0.009": 2.22353451258,
			"0.01": 1.45433462188,
			"0.011": 2.40593672869,
			"0.012": 3.710363331,
			"0.013": 4.21821291135,
			"0.014": 0.0547051614056,
			"0.015": 0.0,
			"0.016": 0.0,
			"0.017": 0.0,
			"0.018": 0.0,
			"0.019": 0.0,
			"0.02": 0.0,
			"0.021": 0.0,
			"0.022": 0.0,
			"0.023": 0.0,
			"0.024": 0.0,
			"0.025": 0.0
		}
	}
}
