{
	 "smiles": "NC1=CC=C(C=C1)C(=O)NCCC(O)=O", 
	 "Tm": 425.15, 
	 "num_atms": 27, 
	 "gaussian": { 
		 "optdone": 1, 
		 "sigma_profile": "yes", 
		 "theory": "DFT", 
		 "functional": "B3LYP", 
		 "basiset": "6-31G**", 
		 "properties": { 
			 "R2extent": 4962.6487, 
			 "electric_dipole_moment_norm": 5.10448846605, 
			 "electric_quadrupole_moment_norm": 17.004255707, 
			 "total_energy": -723.513276245, 
			 "HOMO_LUMO_gap": 0.18935, 
			 "cosmo_polarized_energy": -21.91, 
			 "cosmo_cavitation_energy": 31.68, 
			 "cosmo_dispersion_energy": -22.78, 
			 "cosmo_repulsion_energy": 1.81, 
			 "cosmo_total_nonelectrostatic_energy": 10.71, 
			 "SMD_solvation_energy": 6.35 
		},
		"coords": [
			{
				"x": -0.7018738899,
				"y": -3.5451121911,
				"z": 4.1008795452,
				"element": "N" 
			},
			{
				"x": -0.6323022235,
				"y": -2.4478037798,
				"z": 3.2524747976,
				"element": "C" 
			},
			{
				"x": 0.171746686,
				"y": -1.3383851121,
				"z": 3.5742905406,
				"element": "C" 
			},
			{
				"x": 0.2829274045,
				"y": -0.2680768609,
				"z": 2.6947983833,
				"element": "C" 
			},
			{
				"x": -0.3996139322,
				"y": -0.2630028224,
				"z": 1.4686737594,
				"element": "C" 
			},
			{
				"x": -1.2153108814,
				"y": -1.3625420214,
				"z": 1.1610722154,
				"element": "C" 
			},
			{
				"x": -1.3285079554,
				"y": -2.4389044442,
				"z": 2.0279871985,
				"element": "C" 
			},
			{
				"x": -0.3348553404,
				"y": 0.8530983514,
				"z": 0.4775898523,
				"element": "C" 
			},
			{
				"x": -1.1674103768,
				"y": 0.9775887864,
				"z": -0.4215197904,
				"element": "O" 
			},
			{
				"x": 0.7016790145,
				"y": 1.745939955,
				"z": 0.6259588696,
				"element": "N" 
			},
			{
				"x": 0.8981232889,
				"y": 2.8045619325,
				"z": -0.3510704619,
				"element": "C" 
			},
			{
				"x": 1.6308065275,
				"y": 2.3548596267,
				"z": -1.6240146074,
				"element": "C" 
			},
			{
				"x": 3.0828817337,
				"y": 1.9500223828,
				"z": -1.4734576585,
				"element": "C" 
			},
			{
				"x": 3.4850813263,
				"y": 1.8519203668,
				"z": -0.1740775817,
				"element": "O" 
			},
			{
				"x": 3.8386116151,
				"y": 1.7249497942,
				"z": -2.390592178,
				"element": "O" 
			},
			{
				"x": -1.5117181887,
				"y": -4.1388313263,
				"z": 3.9925680818,
				"element": "H" 
			},
			{
				"x": -0.4671150932,
				"y": -3.3755869534,
				"z": 5.0684087606,
				"element": "H" 
			},
			{
				"x": 0.7026972144,
				"y": -1.3190554627,
				"z": 4.5228377431,
				"element": "H" 
			},
			{
				"x": 0.8826073673,
				"y": 0.5873469114,
				"z": 2.993123713,
				"element": "H" 
			},
			{
				"x": -1.7608476416,
				"y": -1.3457991776,
				"z": 0.223453289,
				"element": "H" 
			},
			{
				"x": -1.9575438163,
				"y": -3.285967797,
				"z": 1.7652347974,
				"element": "H" 
			},
			{
				"x": 1.5215025252,
				"y": 1.4508827384,
				"z": 1.1350508795,
				"element": "H" 
			},
			{
				"x": -0.0920465472,
				"y": 3.164008732,
				"z": -0.6370680902,
				"element": "H" 
			},
			{
				"x": 1.4363756117,
				"y": 3.6255038441,
				"z": 0.131908054,
				"element": "H" 
			},
			{
				"x": 1.6095899474,
				"y": 3.1477637103,
				"z": -2.3800075519,
				"element": "H" 
			},
			{
				"x": 1.096994114,
				"y": 1.5051441533,
				"z": -2.0647256198,
				"element": "H" 
			},
			{
				"x": 4.4189215102,
				"y": 1.5830766636,
				"z": -0.2076769405,
				"element": "H" 
			}
		],
		 "valence_orbital": [ 
			{
				"type": "occ",
				"energy": -0.27747,
				"method": "rhf"
			},
			{
				"type": "occ",
				"energy": -0.255,
				"method": "rhf"
			},
			{
				"type": "occ",
				"energy": -0.25165,
				"method": "rhf"
			},
			{
				"type": "occ",
				"energy": -0.23767,
				"method": "rhf"
			},
			{
				"type": "occ",
				"energy": -0.20939,
				"method": "rhf"
			},
			{
				"type": "unocc",
				"energy": -0.02004,
				"method": "rhf"
			},
			{
				"type": "unocc",
				"energy": -0.00308,
				"method": "rhf"
			},
			{
				"type": "unocc",
				"energy": 0.00615,
				"method": "rhf"
			},
			{
				"type": "unocc",
				"energy": 0.06384,
				"method": "rhf"
			},
			{
				"type": "unocc",
				"energy": 0.07039,
				"method": "rhf"
			}
		],
		"cosmo_sigma_profile": { 
			"-0.025": 0.0,
			"-0.024": 0.0,
			"-0.023": 0.0,
			"-0.022": 0.0,
			"-0.021": 0.0,
			"-0.02": 0.0,
			"-0.019": 0.0355879622087,
			"-0.018": 0.895071304874,
			"-0.017": 0.804018420778,
			"-0.016": 0.660990598062,
			"-0.015": 0.979703557035,
			"-0.014": 0.353791744543,
			"-0.013": 2.12152088724,
			"-0.012": 4.10602176074,
			"-0.011": 3.34878606668,
			"-0.01": 5.1748374858,
			"-0.009": 4.52304050152,
			"-0.008": 4.68688277303,
			"-0.007": 7.36994697304,
			"-0.006": 12.8449184759,
			"-0.005": 16.8336910212,
			"-0.004": 18.6288932876,
			"-0.003": 16.1091232985,
			"-0.002": 14.8792437287,
			"-0.001": 11.6558494185,
			"0.0": 10.1494425986,
			"0.001": 12.2940028212,
			"0.002": 11.6959183869,
			"0.003": 12.5251600336,
			"0.004": 12.8719456722,
			"0.005": 17.5183002744,
			"0.006": 9.4522645744,
			"0.007": 5.02283554497,
			"0.008": 3.4859178205,
			"0.009": 2.68955879043,
			"0.01": 4.36362956171,
			"0.011": 6.09044258912,
			"0.012": 7.02125935932,
			"0.013": 3.68248809599,
			"0.014": 4.62033451502,
			"0.015": 0.940371544658,
			"0.016": 0.0,
			"0.017": 0.0,
			"0.018": 0.0,
			"0.019": 0.0,
			"0.02": 0.0,
			"0.021": 0.0,
			"0.022": 0.0,
			"0.023": 0.0,
			"0.024": 0.0,
			"0.025": 0.0
		}
	}
}
