{
	 "smiles": "CC(O)C1=C(C)C=C(C)C=C1C", 
	 "Tm": 344.15, 
	 "num_atms": 28, 
	 "gaussian": { 
		 "optdone": 1, 
		 "sigma_profile": "yes", 
		 "theory": "DFT", 
		 "functional": "B3LYP", 
		 "basiset": "6-31G**", 
		 "properties": { 
			 "R2extent": 2332.9579, 
			 "electric_dipole_moment_norm": 1.40303588693, 
			 "electric_quadrupole_moment_norm": 3.73116448847, 
			 "total_energy": -504.051075553, 
			 "HOMO_LUMO_gap": 0.22379, 
			 "cosmo_polarized_energy": -7.03, 
			 "cosmo_cavitation_energy": 29.12, 
			 "cosmo_dispersion_energy": -20.86, 
			 "cosmo_repulsion_energy": 1.66, 
			 "cosmo_total_nonelectrostatic_energy": 9.92, 
			 "SMD_solvation_energy": 5.17 
		},
		"coords": [
			{
				"x": 2.8597637999,
				"y": 0.4821528266,
				"z": -0.2099170039,
				"element": "C" 
			},
			{
				"x": 1.6118836926,
				"y": 0.8427111312,
				"z": 0.6006676398,
				"element": "C" 
			},
			{
				"x": 1.4707990451,
				"y": 2.2651541077,
				"z": 0.5274486463,
				"element": "O" 
			},
			{
				"x": 0.3642257666,
				"y": 0.0817380536,
				"z": 0.1495136664,
				"element": "C" 
			},
			{
				"x": -0.3945493382,
				"y": 0.4835886031,
				"z": -0.9754138568,
				"element": "C" 
			},
			{
				"x": -0.0688611479,
				"y": 1.7014475772,
				"z": -1.8198658688,
				"element": "C" 
			},
			{
				"x": -1.5222964524,
				"y": -0.2642781846,
				"z": -1.3374980538,
				"element": "C" 
			},
			{
				"x": -1.9286876782,
				"y": -1.3996213528,
				"z": -0.634889333,
				"element": "C" 
			},
			{
				"x": -3.1322339219,
				"y": -2.2011766765,
				"z": -1.0718139591,
				"element": "C" 
			},
			{
				"x": -1.164365839,
				"y": -1.7853033844,
				"z": 0.4674891444,
				"element": "C" 
			},
			{
				"x": -0.0308798135,
				"y": -1.0705094946,
				"z": 0.8686383059,
				"element": "C" 
			},
			{
				"x": 0.7381403919,
				"y": -1.5756540389,
				"z": 2.0745681226,
				"element": "C" 
			},
			{
				"x": 3.7123138731,
				"y": 1.0702350588,
				"z": 0.1428915163,
				"element": "H" 
			},
			{
				"x": 2.7170355841,
				"y": 0.6853547739,
				"z": -1.2741704351,
				"element": "H" 
			},
			{
				"x": 3.0939387955,
				"y": -0.5803829942,
				"z": -0.0959682225,
				"element": "H" 
			},
			{
				"x": 1.81533268,
				"y": 0.5726624283,
				"z": 1.6452315336,
				"element": "H" 
			},
			{
				"x": 0.6825892301,
				"y": 2.5015502035,
				"z": 1.0338466449,
				"element": "H" 
			},
			{
				"x": 0.9945393836,
				"y": 1.7883790187,
				"z": -2.0479174116,
				"element": "H" 
			},
			{
				"x": -0.6187805693,
				"y": 1.6554786212,
				"z": -2.7645561282,
				"element": "H" 
			},
			{
				"x": -0.3457394058,
				"y": 2.6324368721,
				"z": -1.3159746109,
				"element": "H" 
			},
			{
				"x": -2.0994676814,
				"y": 0.055444025,
				"z": -2.2029270887,
				"element": "H" 
			},
			{
				"x": -2.8498387834,
				"y": -2.9851165348,
				"z": -1.7860792756,
				"element": "H" 
			},
			{
				"x": -3.8777678715,
				"y": -1.5688201585,
				"z": -1.563573841,
				"element": "H" 
			},
			{
				"x": -3.6140644139,
				"y": -2.6956483871,
				"z": -0.2226561122,
				"element": "H" 
			},
			{
				"x": -1.4560212434,
				"y": -2.6670323971,
				"z": 1.0345051564,
				"element": "H" 
			},
			{
				"x": 1.7860781812,
				"y": -1.7941287012,
				"z": 1.8409359911,
				"element": "H" 
			},
			{
				"x": 0.7387199828,
				"y": -0.8535528585,
				"z": 2.9000496904,
				"element": "H" 
			},
			{
				"x": 0.2894937533,
				"y": -2.4986081377,
				"z": 2.451335143,
				"element": "H" 
			}
		],
		 "valence_orbital": [ 
			{
				"type": "occ",
				"energy": -0.325,
				"method": "rhf"
			},
			{
				"type": "occ",
				"energy": -0.31285,
				"method": "rhf"
			},
			{
				"type": "occ",
				"energy": -0.26194,
				"method": "rhf"
			},
			{
				"type": "occ",
				"energy": -0.23016,
				"method": "rhf"
			},
			{
				"type": "occ",
				"energy": -0.2238,
				"method": "rhf"
			},
			{
				"type": "unocc",
				"energy": -1e-05,
				"method": "rhf"
			},
			{
				"type": "unocc",
				"energy": 0.00951,
				"method": "rhf"
			},
			{
				"type": "unocc",
				"energy": 0.07737,
				"method": "rhf"
			},
			{
				"type": "unocc",
				"energy": 0.10489,
				"method": "rhf"
			},
			{
				"type": "unocc",
				"energy": 0.10776,
				"method": "rhf"
			}
		],
		"cosmo_sigma_profile": { 
			"-0.025": 0.0,
			"-0.024": 0.0,
			"-0.023": 0.0,
			"-0.022": 0.0,
			"-0.021": 0.0,
			"-0.02": 0.0,
			"-0.019": 0.0,
			"-0.018": 0.0,
			"-0.017": 0.0,
			"-0.016": 0.0,
			"-0.015": 0.348568780292,
			"-0.014": 1.09083596305,
			"-0.013": 0.806025057646,
			"-0.012": 0.580623793284,
			"-0.011": 0.643801733329,
			"-0.01": 1.10647255416,
			"-0.009": 0.675393407287,
			"-0.008": 0.659509405748,
			"-0.007": 0.814229675536,
			"-0.006": 1.32455893939,
			"-0.005": 2.69323156429,
			"-0.004": 21.1186262255,
			"-0.003": 30.0375093345,
			"-0.002": 24.6253275637,
			"-0.001": 25.7664856735,
			"0.0": 29.5402057514,
			"0.001": 26.5644847624,
			"0.002": 11.8760895681,
			"0.003": 8.41963208296,
			"0.004": 7.56679869564,
			"0.005": 7.15708090748,
			"0.006": 7.6396340475,
			"0.007": 6.9333579561,
			"0.008": 1.34865076925,
			"0.009": 0.937573306597,
			"0.01": 1.04376818974,
			"0.011": 1.37674488807,
			"0.012": 1.45912190765,
			"0.013": 0.894887838984,
			"0.014": 1.58337394334,
			"0.015": 0.567450876556,
			"0.016": 0.0,
			"0.017": 0.0,
			"0.018": 0.0,
			"0.019": 0.0,
			"0.02": 0.0,
			"0.021": 0.0,
			"0.022": 0.0,
			"0.023": 0.0,
			"0.024": 0.0,
			"0.025": 0.0
		}
	}
}
