{
	 "smiles": "NC1=CC(NS(=O)(=O)C2=CC=C(Cl)C=C2)=CC=C1", 
	 "Tm": 386.15, 
	 "num_atms": 29, 
	 "gaussian": { 
		 "optdone": 1, 
		 "sigma_profile": "yes", 
		 "theory": "DFT", 
		 "functional": "B3LYP", 
		 "basiset": "6-31G**", 
		 "properties": { 
			 "R2extent": 7117.7838, 
			 "electric_dipole_moment_norm": 3.30341098412, 
			 "electric_quadrupole_moment_norm": 18.1010970927, 
			 "total_energy": -1582.16876878, 
			 "HOMO_LUMO_gap": 0.15539, 
			 "cosmo_polarized_energy": -18.93, 
			 "cosmo_cavitation_energy": 36.84, 
			 "cosmo_dispersion_energy": -26.47, 
			 "cosmo_repulsion_energy": 2.02, 
			 "cosmo_total_nonelectrostatic_energy": 12.39, 
			 "SMD_solvation_energy": 5.05 
		},
		"coords": [
			{
				"x": 1.5975764037,
				"y": -1.9723156761,
				"z": 1.7428983071,
				"element": "N" 
			},
			{
				"x": 0.3053164669,
				"y": -2.102568435,
				"z": 1.2346263512,
				"element": "C" 
			},
			{
				"x": -0.2327933999,
				"y": -1.0994778572,
				"z": 0.4134287704,
				"element": "C" 
			},
			{
				"x": -1.5117696208,
				"y": -1.2439013737,
				"z": -0.126741173,
				"element": "C" 
			},
			{
				"x": -2.0533010953,
				"y": -0.2532910779,
				"z": -0.9937287591,
				"element": "N" 
			},
			{
				"x": -2.061621127,
				"y": 1.4110364809,
				"z": -0.6446371603,
				"element": "S" 
			},
			{
				"x": -1.915803965,
				"y": 1.6608345874,
				"z": 0.7899867817,
				"element": "O" 
			},
			{
				"x": -3.2158215559,
				"y": 1.9051008714,
				"z": -1.4015017608,
				"element": "O" 
			},
			{
				"x": -0.5649556739,
				"y": 2.0030622244,
				"z": -1.4379363229,
				"element": "C" 
			},
			{
				"x": -0.3809312617,
				"y": 1.8054404296,
				"z": -2.8087658361,
				"element": "C" 
			},
			{
				"x": 0.7566451933,
				"y": 2.3151565845,
				"z": -3.4274275949,
				"element": "C" 
			},
			{
				"x": 1.6884318898,
				"y": 3.0241704288,
				"z": -2.6637541793,
				"element": "C" 
			},
			{
				"x": 3.1210946774,
				"y": 3.6655688623,
				"z": -3.44288946,
				"element": "Cl" 
			},
			{
				"x": 1.502923862,
				"y": 3.2322715883,
				"z": -1.2973111556,
				"element": "C" 
			},
			{
				"x": 0.3626913078,
				"y": 2.717021351,
				"z": -0.6798606073,
				"element": "C" 
			},
			{
				"x": -2.2632699361,
				"y": -2.3987662967,
				"z": 0.124809211,
				"element": "C" 
			},
			{
				"x": -1.7117011256,
				"y": -3.4037340167,
				"z": 0.9180956953,
				"element": "C" 
			},
			{
				"x": -0.4457080145,
				"y": -3.2661952834,
				"z": 1.4780447003,
				"element": "C" 
			},
			{
				"x": 1.9249178809,
				"y": -1.0224723849,
				"z": 1.8520315961,
				"element": "H" 
			},
			{
				"x": 1.7958511211,
				"y": -2.5351134508,
				"z": 2.5584090946,
				"element": "H" 
			},
			{
				"x": 0.3568994195,
				"y": -0.2156105893,
				"z": 0.1950324179,
				"element": "H" 
			},
			{
				"x": -2.9691102323,
				"y": -0.4792381191,
				"z": -1.3705493156,
				"element": "H" 
			},
			{
				"x": -1.115184274,
				"y": 1.2538449469,
				"z": -3.3855030825,
				"element": "H" 
			},
			{
				"x": 0.9227690198,
				"y": 2.1686868733,
				"z": -4.488580386,
				"element": "H" 
			},
			{
				"x": 2.2366983247,
				"y": 3.7904523098,
				"z": -0.7269849519,
				"element": "H" 
			},
			{
				"x": 0.1869565284,
				"y": 2.8650033852,
				"z": 0.3798540359,
				"element": "H" 
			},
			{
				"x": -3.2617421969,
				"y": -2.5038288747,
				"z": -0.2894333633,
				"element": "H" 
			},
			{
				"x": -2.287427557,
				"y": -4.3036249852,
				"z": 1.1145822352,
				"element": "H" 
			},
			{
				"x": -0.0317310596,
				"y": -4.0540125032,
				"z": 2.101405912,
				"element": "H" 
			}
		],
		 "valence_orbital": [ 
			{
				"type": "occ",
				"energy": -0.2951,
				"method": "rhf"
			},
			{
				"type": "occ",
				"energy": -0.28565,
				"method": "rhf"
			},
			{
				"type": "occ",
				"energy": -0.26727,
				"method": "rhf"
			},
			{
				"type": "occ",
				"energy": -0.23235,
				"method": "rhf"
			},
			{
				"type": "occ",
				"energy": -0.20651,
				"method": "rhf"
			},
			{
				"type": "unocc",
				"energy": -0.05112,
				"method": "rhf"
			},
			{
				"type": "unocc",
				"energy": -0.03547,
				"method": "rhf"
			},
			{
				"type": "unocc",
				"energy": -0.00374,
				"method": "rhf"
			},
			{
				"type": "unocc",
				"energy": 0.01127,
				"method": "rhf"
			},
			{
				"type": "unocc",
				"energy": 0.0145,
				"method": "rhf"
			}
		],
		"cosmo_sigma_profile": { 
			"-0.025": 0.0,
			"-0.024": 0.0,
			"-0.023": 0.0,
			"-0.022": 0.0,
			"-0.021": 0.0,
			"-0.02": 0.0,
			"-0.019": 0.0,
			"-0.018": 0.0,
			"-0.017": 0.0,
			"-0.016": 0.0,
			"-0.015": 0.600964472781,
			"-0.014": 0.926109850876,
			"-0.013": 1.42709011936,
			"-0.012": 3.92669532933,
			"-0.011": 3.86320531922,
			"-0.01": 3.73495976728,
			"-0.009": 5.95785062502,
			"-0.008": 10.0293658956,
			"-0.007": 12.6452279349,
			"-0.006": 12.0420045923,
			"-0.005": 12.6800699578,
			"-0.004": 16.584335082,
			"-0.003": 17.0992185962,
			"-0.002": 15.0573754592,
			"-0.001": 17.7355012993,
			"0.0": 21.8073750118,
			"0.001": 25.3112256559,
			"0.002": 15.5011663795,
			"0.003": 16.8310619526,
			"0.004": 18.4202689548,
			"0.005": 12.8542040742,
			"0.006": 13.8875911916,
			"0.007": 6.37351553547,
			"0.008": 5.24920514946,
			"0.009": 6.11148626324,
			"0.01": 10.1866534336,
			"0.011": 8.09577906453,
			"0.012": 0.736596011064,
			"0.013": 0.489513846027,
			"0.014": 0.92192357749,
			"0.015": 0.0153304133683,
			"0.016": 0.0,
			"0.017": 0.0,
			"0.018": 0.0,
			"0.019": 0.0,
			"0.02": 0.0,
			"0.021": 0.0,
			"0.022": 0.0,
			"0.023": 0.0,
			"0.024": 0.0,
			"0.025": 0.0
		}
	}
}
