{
	 "smiles": "NC1=NC(=NS1)C1=CC=C(Cl)S1", 
	 "Tm": 425.15, 
	 "num_atms": 16, 
	 "gaussian": { 
		 "optdone": 1, 
		 "sigma_profile": "yes", 
		 "theory": "DFT", 
		 "functional": "B3LYP", 
		 "basiset": "6-31G**", 
		 "properties": { 
			 "R2extent": 5816.9004, 
			 "electric_dipole_moment_norm": 5.17109745895, 
			 "electric_quadrupole_moment_norm": 8.44395522549, 
			 "total_energy": -1651.85153805, 
			 "HOMO_LUMO_gap": 0.16429, 
			 "cosmo_polarized_energy": -13.1, 
			 "cosmo_cavitation_energy": 26.41, 
			 "cosmo_dispersion_energy": -21.04, 
			 "cosmo_repulsion_energy": 1.6, 
			 "cosmo_total_nonelectrostatic_energy": 6.96, 
			 "SMD_solvation_energy": 1.05 
		},
		"coords": [
			{
				"x": 1.7097358688,
				"y": -0.3585591313,
				"z": -1.6885391355,
				"element": "N" 
			},
			{
				"x": 0.8942229549,
				"y": -0.726467383,
				"z": -0.6626773355,
				"element": "C" 
			},
			{
				"x": -0.1681003443,
				"y": -0.0570660965,
				"z": -0.2955886634,
				"element": "N" 
			},
			{
				"x": -0.7874641374,
				"y": -0.7373550414,
				"z": 0.7310537047,
				"element": "C" 
			},
			{
				"x": -0.2819581206,
				"y": -1.8678665943,
				"z": 1.1831199611,
				"element": "N" 
			},
			{
				"x": 1.1049792853,
				"y": -2.2021430237,
				"z": 0.2818952162,
				"element": "S" 
			},
			{
				"x": -2.0031391723,
				"y": -0.1845053843,
				"z": 1.3114351662,
				"element": "C" 
			},
			{
				"x": -2.6512655974,
				"y": 0.9727956653,
				"z": 0.9500765603,
				"element": "C" 
			},
			{
				"x": -3.8196893621,
				"y": 1.2306144434,
				"z": 1.7195537972,
				"element": "C" 
			},
			{
				"x": -4.0337541263,
				"y": 0.2546387233,
				"z": 2.6557515103,
				"element": "C" 
			},
			{
				"x": -5.3375236555,
				"y": 0.1840107561,
				"z": 3.7929249142,
				"element": "Cl" 
			},
			{
				"x": -2.8236774893,
				"y": -0.9975199128,
				"z": 2.6241591843,
				"element": "S" 
			},
			{
				"x": 2.6497714763,
				"y": -0.720418985,
				"z": -1.723620896,
				"element": "H" 
			},
			{
				"x": 1.5836550553,
				"y": 0.5850045383,
				"z": -2.0266077155,
				"element": "H" 
			},
			{
				"x": -2.2881669888,
				"y": 1.609468275,
				"z": 0.1530139429,
				"element": "H" 
			},
			{
				"x": -4.4680256467,
				"y": 2.088169151,
				"z": 1.5908497885,
				"element": "H" 
			}
		],
		 "valence_orbital": [ 
			{
				"type": "occ",
				"energy": -0.29487,
				"method": "rhf"
			},
			{
				"type": "occ",
				"energy": -0.28282,
				"method": "rhf"
			},
			{
				"type": "occ",
				"energy": -0.26128,
				"method": "rhf"
			},
			{
				"type": "occ",
				"energy": -0.25203,
				"method": "rhf"
			},
			{
				"type": "occ",
				"energy": -0.21603,
				"method": "rhf"
			},
			{
				"type": "unocc",
				"energy": -0.05174,
				"method": "rhf"
			},
			{
				"type": "unocc",
				"energy": -0.01133,
				"method": "rhf"
			},
			{
				"type": "unocc",
				"energy": -0.00123,
				"method": "rhf"
			},
			{
				"type": "unocc",
				"energy": 0.0183,
				"method": "rhf"
			},
			{
				"type": "unocc",
				"energy": 0.031,
				"method": "rhf"
			}
		],
		"cosmo_sigma_profile": { 
			"-0.025": 0.0,
			"-0.024": 0.0,
			"-0.023": 0.0,
			"-0.022": 0.0,
			"-0.021": 0.0,
			"-0.02": 0.0,
			"-0.019": 0.0,
			"-0.018": 0.0,
			"-0.017": 0.0,
			"-0.016": 0.953268353088,
			"-0.015": 2.67526557126,
			"-0.014": 3.16998413416,
			"-0.013": 2.48569605849,
			"-0.012": 2.48644285623,
			"-0.011": 2.37634083926,
			"-0.01": 2.31423257987,
			"-0.009": 1.54999161349,
			"-0.008": 3.30457988763,
			"-0.007": 4.80309012303,
			"-0.006": 5.45723585855,
			"-0.005": 4.91261546087,
			"-0.004": 5.60209807027,
			"-0.003": 6.9838738173,
			"-0.002": 10.223304382,
			"-0.001": 16.3866428143,
			"0.0": 19.9086207024,
			"0.001": 25.2244790768,
			"0.002": 31.6111320813,
			"0.003": 32.8340867607,
			"0.004": 10.020555828,
			"0.005": 4.22250766176,
			"0.006": 4.29590874864,
			"0.007": 4.4711042989,
			"0.008": 2.28566846176,
			"0.009": 3.19753339099,
			"0.01": 2.14652081315,
			"0.011": 2.24626644866,
			"0.012": 1.2011619346,
			"0.013": 0.424748260497,
			"0.014": 0.0,
			"0.015": 0.0,
			"0.016": 0.0,
			"0.017": 0.0,
			"0.018": 0.0,
			"0.019": 0.0,
			"0.02": 0.0,
			"0.021": 0.0,
			"0.022": 0.0,
			"0.023": 0.0,
			"0.024": 0.0,
			"0.025": 0.0
		}
	}
}
