{
	 "smiles": "ClC1=C(C=C(C2=CC=CC=C2)C(=N1)C1=CC=CC=C1)C#N", 
	 "Tm": 403.15, 
	 "num_atms": 32, 
	 "gaussian": { 
		 "optdone": 1, 
		 "sigma_profile": "yes", 
		 "theory": "DFT", 
		 "functional": "B3LYP", 
		 "basiset": "6-31G**", 
		 "properties": { 
			 "R2extent": 8246.5718, 
			 "electric_dipole_moment_norm": 6.5136023781, 
			 "electric_quadrupole_moment_norm": 24.9699876332, 
			 "total_energy": -1262.22742412, 
			 "HOMO_LUMO_gap": 0.15791, 
			 "cosmo_polarized_energy": -12.11, 
			 "cosmo_cavitation_energy": 39.58, 
			 "cosmo_dispersion_energy": -27.04, 
			 "cosmo_repulsion_energy": 2.09, 
			 "cosmo_total_nonelectrostatic_energy": 14.62, 
			 "SMD_solvation_energy": 6.45 
		},
		"coords": [
			{
				"x": -4.6744530397,
				"y": -2.8967535933,
				"z": 0.7567563054,
				"element": "Cl" 
			},
			{
				"x": -3.057304472,
				"y": -2.3001920152,
				"z": 1.0730223287,
				"element": "C" 
			},
			{
				"x": -2.567060079,
				"y": -2.2842861656,
				"z": 2.3936451054,
				"element": "C" 
			},
			{
				"x": -1.2932096431,
				"y": -1.7310668507,
				"z": 2.5720624267,
				"element": "C" 
			},
			{
				"x": -0.5446783131,
				"y": -1.2554281436,
				"z": 1.4911166635,
				"element": "C" 
			},
			{
				"x": 0.7565088587,
				"y": -0.5880705557,
				"z": 1.7779571537,
				"element": "C" 
			},
			{
				"x": 1.0148009383,
				"y": 0.7151889377,
				"z": 1.3227760015,
				"element": "C" 
			},
			{
				"x": 2.2083937653,
				"y": 1.3552629734,
				"z": 1.6499805237,
				"element": "C" 
			},
			{
				"x": 3.164777482,
				"y": 0.7054292607,
				"z": 2.4342661342,
				"element": "C" 
			},
			{
				"x": 2.9177944698,
				"y": -0.5886369764,
				"z": 2.8938080353,
				"element": "C" 
			},
			{
				"x": 1.7205246619,
				"y": -1.2294387269,
				"z": 2.5716455739,
				"element": "C" 
			},
			{
				"x": -1.1140176204,
				"y": -1.4014038809,
				"z": 0.1985561642,
				"element": "C" 
			},
			{
				"x": -2.362081812,
				"y": -1.8905000241,
				"z": 0.0402135857,
				"element": "N" 
			},
			{
				"x": -0.4231319924,
				"y": -1.0633522119,
				"z": -1.074534221,
				"element": "C" 
			},
			{
				"x": -1.1778383814,
				"y": -0.551563856,
				"z": -2.1439330863,
				"element": "C" 
			},
			{
				"x": -0.5716121526,
				"y": -0.2596377897,
				"z": -3.3633195874,
				"element": "C" 
			},
			{
				"x": 0.7932373142,
				"y": -0.4961564881,
				"z": -3.5427159978,
				"element": "C" 
			},
			{
				"x": 1.5471682029,
				"y": -1.0274509119,
				"z": -2.4944358747,
				"element": "C" 
			},
			{
				"x": 0.9472946055,
				"y": -1.3048137313,
				"z": -1.2674095779,
				"element": "C" 
			},
			{
				"x": -3.3135312859,
				"y": -2.7685385547,
				"z": 3.5110831691,
				"element": "C" 
			},
			{
				"x": -3.8900455397,
				"y": -3.1541333294,
				"z": 4.444827413,
				"element": "N" 
			},
			{
				"x": -0.8953427112,
				"y": -1.6439015253,
				"z": 3.5776789527,
				"element": "H" 
			},
			{
				"x": 0.2738165359,
				"y": 1.2272446619,
				"z": 0.7170762161,
				"element": "H" 
			},
			{
				"x": 2.3900945423,
				"y": 2.3656685195,
				"z": 1.295602929,
				"element": "H" 
			},
			{
				"x": 4.0950050008,
				"y": 1.2059100535,
				"z": 2.6863168235,
				"element": "H" 
			},
			{
				"x": 3.6560247279,
				"y": -1.1024338345,
				"z": 3.5025562153,
				"element": "H" 
			},
			{
				"x": 1.5369268479,
				"y": -2.2407409863,
				"z": 2.9242319818,
				"element": "H" 
			},
			{
				"x": -2.2415834088,
				"y": -0.3924866656,
				"z": -2.0052995299,
				"element": "H" 
			},
			{
				"x": -1.1662408898,
				"y": 0.1465704906,
				"z": -4.1762830209,
				"element": "H" 
			},
			{
				"x": 1.2649339532,
				"y": -0.2747391023,
				"z": -4.495750997,
				"element": "H" 
			},
			{
				"x": 2.6049036484,
				"y": -1.2314426655,
				"z": -2.6321760785,
				"element": "H" 
			},
			{
				"x": 1.5418257863,
				"y": -1.7268063124,
				"z": -0.465321731,
				"element": "H" 
			}
		],
		 "valence_orbital": [ 
			{
				"type": "occ",
				"energy": -0.28426,
				"method": "rhf"
			},
			{
				"type": "occ",
				"energy": -0.27112,
				"method": "rhf"
			},
			{
				"type": "occ",
				"energy": -0.26576,
				"method": "rhf"
			},
			{
				"type": "occ",
				"energy": -0.25899,
				"method": "rhf"
			},
			{
				"type": "occ",
				"energy": -0.23854,
				"method": "rhf"
			},
			{
				"type": "unocc",
				"energy": -0.08063,
				"method": "rhf"
			},
			{
				"type": "unocc",
				"energy": -0.05435,
				"method": "rhf"
			},
			{
				"type": "unocc",
				"energy": -0.02272,
				"method": "rhf"
			},
			{
				"type": "unocc",
				"energy": -0.01445,
				"method": "rhf"
			},
			{
				"type": "unocc",
				"energy": -0.00798,
				"method": "rhf"
			}
		],
		"cosmo_sigma_profile": { 
			"-0.025": 0.0,
			"-0.024": 0.0,
			"-0.023": 0.0,
			"-0.022": 0.0,
			"-0.021": 0.0,
			"-0.02": 0.0,
			"-0.019": 0.0,
			"-0.018": 0.0,
			"-0.017": 0.0,
			"-0.016": 0.0,
			"-0.015": 0.0,
			"-0.014": 0.0,
			"-0.013": 0.0,
			"-0.012": 0.0,
			"-0.011": 0.0,
			"-0.01": 0.318999245308,
			"-0.009": 1.65283900913,
			"-0.008": 2.07030375626,
			"-0.007": 3.17790695008,
			"-0.006": 17.9466326356,
			"-0.005": 23.3793074682,
			"-0.004": 32.0817088427,
			"-0.003": 30.4041335997,
			"-0.002": 28.3527715836,
			"-0.001": 22.2970097114,
			"0.0": 18.6692954645,
			"0.001": 20.2018937071,
			"0.002": 22.3799589674,
			"0.003": 26.5183879046,
			"0.004": 27.3430841312,
			"0.005": 18.9981075214,
			"0.006": 4.03847048414,
			"0.007": 5.11169984262,
			"0.008": 5.02891626667,
			"0.009": 3.68394106499,
			"0.01": 3.99964344522,
			"0.011": 2.75230151776,
			"0.012": 1.99331231289,
			"0.013": 0.242955800506,
			"0.014": 0.0,
			"0.015": 0.0,
			"0.016": 0.0,
			"0.017": 0.0,
			"0.018": 0.0,
			"0.019": 0.0,
			"0.02": 0.0,
			"0.021": 0.0,
			"0.022": 0.0,
			"0.023": 0.0,
			"0.024": 0.0,
			"0.025": 0.0
		}
	}
}
