{
	 "smiles": "CNC(NCC1=CN=C(Cl)S1)=N[N+]([O-])=O", 
	 "Tm": 449.95, 
	 "num_atms": 23, 
	 "gaussian": { 
		 "optdone": 1, 
		 "sigma_profile": "yes", 
		 "theory": "DFT", 
		 "functional": "B3LYP", 
		 "basiset": "6-31G**", 
		 "properties": { 
			 "R2extent": 6098.6738, 
			 "electric_dipole_moment_norm": 5.89381047032, 
			 "electric_quadrupole_moment_norm": 37.0895711683, 
			 "total_energy": -1515.9110327, 
			 "HOMO_LUMO_gap": 0.20259, 
			 "cosmo_polarized_energy": -21.58, 
			 "cosmo_cavitation_energy": 32.23, 
			 "cosmo_dispersion_energy": -23.86, 
			 "cosmo_repulsion_energy": 1.88, 
			 "cosmo_total_nonelectrostatic_energy": 10.25, 
			 "SMD_solvation_energy": 4.13 
		},
		"coords": [
			{
				"x": -0.7784861218,
				"y": 3.0095803097,
				"z": -2.1376367273,
				"element": "C" 
			},
			{
				"x": -0.7740588207,
				"y": 1.7360219771,
				"z": -2.8309444745,
				"element": "N" 
			},
			{
				"x": -0.3018248544,
				"y": 0.5823737971,
				"z": -2.3266333674,
				"element": "C" 
			},
			{
				"x": 0.3033095956,
				"y": 0.6289671676,
				"z": -1.1015503439,
				"element": "N" 
			},
			{
				"x": 0.942000503,
				"y": -0.5417074433,
				"z": -0.4964245948,
				"element": "C" 
			},
			{
				"x": 1.1372833976,
				"y": -0.3447409937,
				"z": 0.9752304371,
				"element": "C" 
			},
			{
				"x": 2.309398826,
				"y": -0.3508188673,
				"z": 1.6784597112,
				"element": "C" 
			},
			{
				"x": 2.2224160541,
				"y": -0.1726162535,
				"z": 3.041818023,
				"element": "N" 
			},
			{
				"x": 0.9868808937,
				"y": -0.0274385966,
				"z": 3.3871579833,
				"element": "C" 
			},
			{
				"x": 0.4691118519,
				"y": 0.2341075736,
				"z": 5.0166068638,
				"element": "Cl" 
			},
			{
				"x": -0.1917735643,
				"y": -0.0936953575,
				"z": 2.0901254565,
				"element": "S" 
			},
			{
				"x": -0.3653602231,
				"y": -0.6366206369,
				"z": -2.872230411,
				"element": "N" 
			},
			{
				"x": -1.0316277115,
				"y": -0.809471632,
				"z": -4.0602435196,
				"element": "N" 
			},
			{
				"x": -1.5155033219,
				"y": 0.1541617542,
				"z": -4.7086183358,
				"element": "O" 
			},
			{
				"x": -1.1058698839,
				"y": -1.9665935639,
				"z": -4.4506487804,
				"element": "O" 
			},
			{
				"x": -1.3507502483,
				"y": 3.7217107687,
				"z": -2.7333359458,
				"element": "H" 
			},
			{
				"x": -1.249849111,
				"y": 2.9312784444,
				"z": -1.1506512347,
				"element": "H" 
			},
			{
				"x": 0.2334624471,
				"y": 3.4195322809,
				"z": -2.0146430283,
				"element": "H" 
			},
			{
				"x": -1.2264917975,
				"y": 1.6018060141,
				"z": -3.7355633911,
				"element": "H" 
			},
			{
				"x": 0.6326705792,
				"y": 1.5276820739,
				"z": -0.7812383006,
				"element": "H" 
			},
			{
				"x": 0.3104701543,
				"y": -1.4051868992,
				"z": -0.7159374136,
				"element": "H" 
			},
			{
				"x": 1.9204611544,
				"y": -0.7464002978,
				"z": -0.9517443258,
				"element": "H" 
			},
			{
				"x": 3.2874302017,
				"y": -0.4917316197,
				"z": 1.2316457197,
				"element": "H" 
			}
		],
		 "valence_orbital": [ 
			{
				"type": "occ",
				"energy": -0.29317,
				"method": "rhf"
			},
			{
				"type": "occ",
				"energy": -0.28032,
				"method": "rhf"
			},
			{
				"type": "occ",
				"energy": -0.26534,
				"method": "rhf"
			},
			{
				"type": "occ",
				"energy": -0.26284,
				"method": "rhf"
			},
			{
				"type": "occ",
				"energy": -0.25751,
				"method": "rhf"
			},
			{
				"type": "unocc",
				"energy": -0.05492,
				"method": "rhf"
			},
			{
				"type": "unocc",
				"energy": -0.05279,
				"method": "rhf"
			},
			{
				"type": "unocc",
				"energy": -0.01854,
				"method": "rhf"
			},
			{
				"type": "unocc",
				"energy": 0.01459,
				"method": "rhf"
			},
			{
				"type": "unocc",
				"energy": 0.02305,
				"method": "rhf"
			}
		],
		"cosmo_sigma_profile": { 
			"-0.025": 0.0,
			"-0.024": 0.0,
			"-0.023": 0.0,
			"-0.022": 0.0,
			"-0.021": 0.0,
			"-0.02": 0.0,
			"-0.019": 0.0,
			"-0.018": 0.0,
			"-0.017": 0.0,
			"-0.016": 0.0,
			"-0.015": 0.343695635461,
			"-0.014": 0.980614926213,
			"-0.013": 1.21946844334,
			"-0.012": 1.32293372048,
			"-0.011": 2.43503624921,
			"-0.01": 2.47104789245,
			"-0.009": 2.86596747884,
			"-0.008": 7.66022781204,
			"-0.007": 9.41451073889,
			"-0.006": 14.3433999935,
			"-0.005": 13.0683145698,
			"-0.004": 14.8449811629,
			"-0.003": 20.7796252828,
			"-0.002": 22.888762225,
			"-0.001": 20.5500258301,
			"0.0": 20.198619093,
			"0.001": 19.312524744,
			"0.002": 16.6155309049,
			"0.003": 12.801229057,
			"0.004": 5.61450716785,
			"0.005": 4.18909749263,
			"0.006": 5.34146685719,
			"0.007": 4.74151057491,
			"0.008": 5.30231388841,
			"0.009": 8.87328653843,
			"0.01": 8.50527643537,
			"0.011": 7.14339492814,
			"0.012": 4.93571809447,
			"0.013": 2.58507442477,
			"0.014": 0.839357419845,
			"0.015": 0.0,
			"0.016": 0.0,
			"0.017": 0.0,
			"0.018": 0.0,
			"0.019": 0.0,
			"0.02": 0.0,
			"0.021": 0.0,
			"0.022": 0.0,
			"0.023": 0.0,
			"0.024": 0.0,
			"0.025": 0.0
		}
	}
}
