{
	 "smiles": "CC1=CC(=C(C)C=C1)S(=O)(=O)NC1=CC(=CC=C1)C(O)=O", 
	 "Tm": 491.15, 
	 "num_atms": 36, 
	 "gaussian": { 
		 "optdone": 1, 
		 "sigma_profile": "yes", 
		 "theory": "DFT", 
		 "functional": "B3LYP", 
		 "basiset": "6-31G**", 
		 "properties": { 
			 "R2extent": 8491.6295, 
			 "electric_dipole_moment_norm": 7.71810799484, 
			 "electric_quadrupole_moment_norm": 14.6039548976, 
			 "total_energy": -1334.42317056, 
			 "HOMO_LUMO_gap": 0.18816, 
			 "cosmo_polarized_energy": -23.46, 
			 "cosmo_cavitation_energy": 41.16, 
			 "cosmo_dispersion_energy": -29.32, 
			 "cosmo_repulsion_energy": 2.2, 
			 "cosmo_total_nonelectrostatic_energy": 14.04, 
			 "SMD_solvation_energy": 7.61 
		},
		"coords": [
			{
				"x": -0.7994447379,
				"y": 5.7413117536,
				"z": -0.8810493679,
				"element": "C" 
			},
			{
				"x": -1.3976124941,
				"y": 4.3570375031,
				"z": -0.8015999602,
				"element": "C" 
			},
			{
				"x": -0.6500068766,
				"y": 3.2264381874,
				"z": -1.1446166136,
				"element": "C" 
			},
			{
				"x": -1.2166612553,
				"y": 1.9493525914,
				"z": -1.0950452145,
				"element": "C" 
			},
			{
				"x": -2.5574596785,
				"y": 1.7367972069,
				"z": -0.7179274628,
				"element": "C" 
			},
			{
				"x": -3.216550654,
				"y": 0.3808042645,
				"z": -0.6634792065,
				"element": "C" 
			},
			{
				"x": -3.2852484719,
				"y": 2.8826274213,
				"z": -0.3711516012,
				"element": "C" 
			},
			{
				"x": -2.7256982125,
				"y": 4.1584094519,
				"z": -0.4079702848,
				"element": "C" 
			},
			{
				"x": -0.150054808,
				"y": 0.5986219387,
				"z": -1.619092146,
				"element": "S" 
			},
			{
				"x": -0.8495722943,
				"y": -0.2308936102,
				"z": -2.6043869216,
				"element": "O" 
			},
			{
				"x": 1.1727345483,
				"y": 1.1588225821,
				"z": -1.8973377132,
				"element": "O" 
			},
			{
				"x": -0.0712393738,
				"y": -0.4201292964,
				"z": -0.2448968684,
				"element": "N" 
			},
			{
				"x": 0.9402180402,
				"y": -0.3471099477,
				"z": 0.7408011572,
				"element": "C" 
			},
			{
				"x": 1.4395510104,
				"y": -1.5361736696,
				"z": 1.2795910827,
				"element": "C" 
			},
			{
				"x": 2.3801041462,
				"y": -1.5102369138,
				"z": 2.3134108203,
				"element": "C" 
			},
			{
				"x": 2.8629453741,
				"y": -0.2822966003,
				"z": 2.784529703,
				"element": "C" 
			},
			{
				"x": 2.3731399878,
				"y": 0.9028078833,
				"z": 2.2359481158,
				"element": "C" 
			},
			{
				"x": 1.4061931638,
				"y": 0.8814149577,
				"z": 1.2345660767,
				"element": "C" 
			},
			{
				"x": 2.848960515,
				"y": -2.8363779823,
				"z": 2.8379492066,
				"element": "C" 
			},
			{
				"x": 3.454197839,
				"y": -2.8331140023,
				"z": 4.0547369594,
				"element": "O" 
			},
			{
				"x": 2.7061293725,
				"y": -3.8753117409,
				"z": 2.2371015604,
				"element": "O" 
			},
			{
				"x": -1.1378877261,
				"y": 6.3703694515,
				"z": -0.0517799667,
				"element": "H" 
			},
			{
				"x": -1.0923573613,
				"y": 6.2443082829,
				"z": -1.8106426946,
				"element": "H" 
			},
			{
				"x": 0.2931244215,
				"y": 5.7071877689,
				"z": -0.8582285334,
				"element": "H" 
			},
			{
				"x": 0.3832066894,
				"y": 3.3257753196,
				"z": -1.4600758601,
				"element": "H" 
			},
			{
				"x": -3.1501547967,
				"y": -0.1316755527,
				"z": -1.6265383781,
				"element": "H" 
			},
			{
				"x": -4.2696336445,
				"y": 0.4827539761,
				"z": -0.391213586,
				"element": "H" 
			},
			{
				"x": -2.7323645901,
				"y": -0.261768964,
				"z": 0.079235247,
				"element": "H" 
			},
			{
				"x": -4.3211250894,
				"y": 2.7647163525,
				"z": -0.0648942953,
				"element": "H" 
			},
			{
				"x": -3.3353804888,
				"y": 5.0140593375,
				"z": -0.1281687128,
				"element": "H" 
			},
			{
				"x": -0.3005370073,
				"y": -1.3608952489,
				"z": -0.5517908263,
				"element": "H" 
			},
			{
				"x": 1.1101477072,
				"y": -2.5026836098,
				"z": 0.9105133332,
				"element": "H" 
			},
			{
				"x": 3.6439603456,
				"y": -0.2344860161,
				"z": 3.5387001687,
				"element": "H" 
			},
			{
				"x": 2.7466967894,
				"y": 1.8577324319,
				"z": 2.5925113325,
				"element": "H" 
			},
			{
				"x": 1.0217564465,
				"y": 1.8120171543,
				"z": 0.8355430002,
				"element": "H" 
			},
			{
				"x": 3.3550231639,
				"y": -1.9676126618,
				"z": 4.4747484502,
				"element": "H" 
			}
		],
		 "valence_orbital": [ 
			{
				"type": "occ",
				"energy": -0.27982,
				"method": "rhf"
			},
			{
				"type": "occ",
				"energy": -0.27674,
				"method": "rhf"
			},
			{
				"type": "occ",
				"energy": -0.26857,
				"method": "rhf"
			},
			{
				"type": "occ",
				"energy": -0.25727,
				"method": "rhf"
			},
			{
				"type": "occ",
				"energy": -0.24252,
				"method": "rhf"
			},
			{
				"type": "unocc",
				"energy": -0.05436,
				"method": "rhf"
			},
			{
				"type": "unocc",
				"energy": -0.04557,
				"method": "rhf"
			},
			{
				"type": "unocc",
				"energy": -0.02246,
				"method": "rhf"
			},
			{
				"type": "unocc",
				"energy": -0.02058,
				"method": "rhf"
			},
			{
				"type": "unocc",
				"energy": 0.03776,
				"method": "rhf"
			}
		],
		"cosmo_sigma_profile": { 
			"-0.025": 0.0,
			"-0.024": 0.0,
			"-0.023": 0.0,
			"-0.022": 0.0,
			"-0.021": 0.0,
			"-0.02": 0.0,
			"-0.019": 0.112281843795,
			"-0.018": 0.871501737676,
			"-0.017": 0.962645695776,
			"-0.016": 1.34891624453,
			"-0.015": 1.74346197895,
			"-0.014": 2.14200975089,
			"-0.013": 2.10975777386,
			"-0.012": 2.74621988578,
			"-0.011": 2.39706530828,
			"-0.01": 2.08138257976,
			"-0.009": 1.97241120227,
			"-0.008": 3.2129895061,
			"-0.007": 6.98854641349,
			"-0.006": 14.3162064198,
			"-0.005": 19.9754950131,
			"-0.004": 22.9732028747,
			"-0.003": 22.1413756688,
			"-0.002": 23.7102855612,
			"-0.001": 30.1257290987,
			"0.0": 26.3099629832,
			"0.001": 20.1619578474,
			"0.002": 25.1064703201,
			"0.003": 23.6413403536,
			"0.004": 9.95000053805,
			"0.005": 4.85945580283,
			"0.006": 6.6069293092,
			"0.007": 5.75028395981,
			"0.008": 6.44625771851,
			"0.009": 7.70495973176,
			"0.01": 12.6876269482,
			"0.011": 11.4118965019,
			"0.012": 4.59036018027,
			"0.013": 1.29824489758,
			"0.014": 0.0056092250189,
			"0.015": 0.0,
			"0.016": 0.0,
			"0.017": 0.0,
			"0.018": 0.0,
			"0.019": 0.0,
			"0.02": 0.0,
			"0.021": 0.0,
			"0.022": 0.0,
			"0.023": 0.0,
			"0.024": 0.0,
			"0.025": 0.0
		}
	}
}
