{
	 "smiles": "O=S1(=O)NN=CC2=C1C=CC=C2", 
	 "Tm": 415.15, 
	 "num_atms": 18, 
	 "gaussian": { 
		 "optdone": 1, 
		 "sigma_profile": "yes", 
		 "theory": "DFT", 
		 "functional": "B3LYP", 
		 "basiset": "6-31G**", 
		 "properties": { 
			 "R2extent": 2245.2729, 
			 "electric_dipole_moment_norm": 4.65707924992, 
			 "electric_quadrupole_moment_norm": 13.9365160334, 
			 "total_energy": -928.384524072, 
			 "HOMO_LUMO_gap": 0.17535, 
			 "cosmo_polarized_energy": -15.18, 
			 "cosmo_cavitation_energy": 23.54, 
			 "cosmo_dispersion_energy": -18.3, 
			 "cosmo_repulsion_energy": 1.38, 
			 "cosmo_total_nonelectrostatic_energy": 6.62, 
			 "SMD_solvation_energy": 2.53 
		},
		"coords": [
			{
				"x": 2.581612086,
				"y": -0.9090507186,
				"z": -1.2717785506,
				"element": "O" 
			},
			{
				"x": 1.3807096979,
				"y": -0.4002597228,
				"z": -1.9395315168,
				"element": "S" 
			},
			{
				"x": 1.4872155734,
				"y": 0.1750155296,
				"z": -3.2804516871,
				"element": "O" 
			},
			{
				"x": 0.1680300395,
				"y": -1.6192885929,
				"z": -2.0116861086,
				"element": "N" 
			},
			{
				"x": -0.3898436478,
				"y": -2.1507467357,
				"z": -0.8763067904,
				"element": "N" 
			},
			{
				"x": -0.5826910975,
				"y": -1.3592453586,
				"z": 0.1269075757,
				"element": "C" 
			},
			{
				"x": -0.2766728901,
				"y": 0.0639737108,
				"z": 0.1750767426,
				"element": "C" 
			},
			{
				"x": 0.5150662211,
				"y": 0.6685633333,
				"z": -0.8220648928,
				"element": "C" 
			},
			{
				"x": 0.7343089828,
				"y": 2.0441719197,
				"z": -0.8658539453,
				"element": "C" 
			},
			{
				"x": 0.1609790099,
				"y": 2.8475375382,
				"z": 0.1178406032,
				"element": "C" 
			},
			{
				"x": -0.6105620135,
				"y": 2.2706753198,
				"z": 1.134303946,
				"element": "C" 
			},
			{
				"x": -0.8312312208,
				"y": 0.8975018923,
				"z": 1.1622241955,
				"element": "C" 
			},
			{
				"x": 0.4013944209,
				"y": -2.3371690775,
				"z": -2.6925621805,
				"element": "H" 
			},
			{
				"x": -1.0840831465,
				"y": -1.81125075,
				"z": 0.9790794495,
				"element": "H" 
			},
			{
				"x": 1.3380585324,
				"y": 2.4690532333,
				"z": -1.6608072315,
				"element": "H" 
			},
			{
				"x": 0.3164326789,
				"y": 3.9214267703,
				"z": 0.0952101704,
				"element": "H" 
			},
			{
				"x": -1.0473303624,
				"y": 2.9006392099,
				"z": 1.9031145786,
				"element": "H" 
			},
			{
				"x": -1.4468928641,
				"y": 0.4566524988,
				"z": 1.9410856422,
				"element": "H" 
			}
		],
		 "valence_orbital": [ 
			{
				"type": "occ",
				"energy": -0.32103,
				"method": "rhf"
			},
			{
				"type": "occ",
				"energy": -0.30213,
				"method": "rhf"
			},
			{
				"type": "occ",
				"energy": -0.28527,
				"method": "rhf"
			},
			{
				"type": "occ",
				"energy": -0.28224,
				"method": "rhf"
			},
			{
				"type": "occ",
				"energy": -0.24895,
				"method": "rhf"
			},
			{
				"type": "unocc",
				"energy": -0.0736,
				"method": "rhf"
			},
			{
				"type": "unocc",
				"energy": -0.04411,
				"method": "rhf"
			},
			{
				"type": "unocc",
				"energy": 0.01664,
				"method": "rhf"
			},
			{
				"type": "unocc",
				"energy": 0.04834,
				"method": "rhf"
			},
			{
				"type": "unocc",
				"energy": 0.05435,
				"method": "rhf"
			}
		],
		"cosmo_sigma_profile": { 
			"-0.025": 0.0,
			"-0.024": 0.0,
			"-0.023": 0.0,
			"-0.022": 0.0,
			"-0.021": 0.0,
			"-0.02": 0.0,
			"-0.019": 0.0,
			"-0.018": 0.122809178666,
			"-0.017": 1.13627813166,
			"-0.016": 1.5174263619,
			"-0.015": 0.731779214367,
			"-0.014": 0.724001656628,
			"-0.013": 1.0118349143,
			"-0.012": 1.02913854318,
			"-0.011": 0.666467859964,
			"-0.01": 1.30022705822,
			"-0.009": 3.48439798756,
			"-0.008": 8.1720423335,
			"-0.007": 12.3443508845,
			"-0.006": 11.3423222279,
			"-0.005": 8.81339803974,
			"-0.004": 7.46674922126,
			"-0.003": 8.27999639219,
			"-0.002": 7.84506009343,
			"-0.001": 9.51007795389,
			"0.0": 15.4558773944,
			"0.001": 18.9531756896,
			"0.002": 12.8634910234,
			"0.003": 4.61159588856,
			"0.004": 5.13976497202,
			"0.005": 5.22917604457,
			"0.006": 4.3384439219,
			"0.007": 4.88292440345,
			"0.008": 4.24276254581,
			"0.009": 7.10375384489,
			"0.01": 13.8770717504,
			"0.011": 6.17537522916,
			"0.012": 1.07764180486,
			"0.013": 0.150666420176,
			"0.014": 0.0,
			"0.015": 0.0,
			"0.016": 0.0,
			"0.017": 0.0,
			"0.018": 0.0,
			"0.019": 0.0,
			"0.02": 0.0,
			"0.021": 0.0,
			"0.022": 0.0,
			"0.023": 0.0,
			"0.024": 0.0,
			"0.025": 0.0
		}
	}
}
