{
	 "smiles": "FC(F)(F)C(F)(F)C(F)(F)C(F)(F)C(F)(F)C(F)(F)CCI", 
	 "Tm": 294.15, 
	 "num_atms": 26, 
	 "gaussian": { 
		 "optdone": 1, 
		 "sigma_profile": "no", 
		 "theory": "DFT", 
		 "functional": "B3LYP", 
		 "basiset": "6-31G**", 
		 "properties": { 
			 "R2extent": 7610.5988, 
			 "electric_dipole_moment_norm": 0.0860116852526, 
			 "electric_quadrupole_moment_norm": 4.26047354058, 
			 "total_energy": -1616.53885242, 
			 "HOMO_LUMO_gap": 0.21332, 
			 "cosmo_polarized_energy": -104115.57, 
			 "cosmo_cavitation_energy": 37.41, 
			 "cosmo_dispersion_energy": -26.46, 
			 "cosmo_repulsion_energy": 1.79, 
			 "cosmo_total_nonelectrostatic_energy": 12.74, 
			 "SMD_solvation_energy": 9.29 
		},
		"coords": [
			{
				"x": 4.6320007191,
				"y": 0.0178940384,
				"z": -2.5392008647,
				"element": "F" 
			},
			{
				"x": 3.7685603891,
				"y": 1.0020871945,
				"z": -2.263502923,
				"element": "C" 
			},
			{
				"x": 4.4546993156,
				"y": 2.0862914185,
				"z": -1.8900332615,
				"element": "F" 
			},
			{
				"x": 3.0652348257,
				"y": 1.28429066,
				"z": -3.3680178961,
				"element": "F" 
			},
			{
				"x": 2.8251141445,
				"y": 0.5328795932,
				"z": -1.1231177785,
				"element": "C" 
			},
			{
				"x": 3.5644045003,
				"y": 0.4405612208,
				"z": 0.0051287082,
				"element": "F" 
			},
			{
				"x": 2.3576430546,
				"y": -0.6915673824,
				"z": -1.4565544197,
				"element": "F" 
			},
			{
				"x": 1.6144430075,
				"y": 1.4689055921,
				"z": -0.8738875975,
				"element": "C" 
			},
			{
				"x": 0.7510220217,
				"y": 1.3399361957,
				"z": -1.9037801406,
				"element": "F" 
			},
			{
				"x": 2.0696656987,
				"y": 2.7466424776,
				"z": -0.8430165449,
				"element": "F" 
			},
			{
				"x": 0.8280923561,
				"y": 1.2677884279,
				"z": 0.462174319,
				"element": "C" 
			},
			{
				"x": -0.2117677278,
				"y": 2.1458828363,
				"z": 0.3975670464,
				"element": "F" 
			},
			{
				"x": 1.6312958827,
				"y": 1.6245084245,
				"z": 1.4833065358,
				"element": "F" 
			},
			{
				"x": 0.2639818738,
				"y": -0.1518327333,
				"z": 0.7329237984,
				"element": "C" 
			},
			{
				"x": -0.3086997603,
				"y": -0.6206019277,
				"z": -0.4084417288,
				"element": "F" 
			},
			{
				"x": 1.3150202331,
				"y": -0.9444308119,
				"z": 1.0478544042,
				"element": "F" 
			},
			{
				"x": -0.7874513077,
				"y": -0.2538717251,
				"z": 1.8798369405,
				"element": "C" 
			},
			{
				"x": -0.305146893,
				"y": 0.4520473682,
				"z": 2.9467547024,
				"element": "F" 
			},
			{
				"x": -0.8115813914,
				"y": -1.570337818,
				"z": 2.2431903925,
				"element": "F" 
			},
			{
				"x": -2.19926567,
				"y": 0.1998139464,
				"z": 1.5294576882,
				"element": "C" 
			},
			{
				"x": -3.1354227228,
				"y": -0.0131050112,
				"z": 2.7157731492,
				"element": "C" 
			},
			{
				"x": -5.161856789,
				"y": 0.6274251047,
				"z": 2.25512681,
				"element": "I" 
			},
			{
				"x": -2.1682178641,
				"y": 1.2516019642,
				"z": 1.2431857055,
				"element": "H" 
			},
			{
				"x": -2.5323587498,
				"y": -0.3733064147,
				"z": 0.6614134338,
				"element": "H" 
			},
			{
				"x": -3.2162543414,
				"y": -1.0624952681,
				"z": 2.9907159052,
				"element": "H" 
			},
			{
				"x": -2.8348548054,
				"y": 0.5721926294,
				"z": 3.5825436161,
				"element": "H" 
			}
		],
		 "valence_orbital": [ 
			{
				"type": "occ",
				"energy": -0.3731,
				"method": "rhf"
			},
			{
				"type": "occ",
				"energy": -0.35784,
				"method": "rhf"
			},
			{
				"type": "occ",
				"energy": -0.34375,
				"method": "rhf"
			},
			{
				"type": "occ",
				"energy": -0.27173,
				"method": "rhf"
			},
			{
				"type": "occ",
				"energy": -0.27028,
				"method": "rhf"
			},
			{
				"type": "unocc",
				"energy": -0.05696,
				"method": "rhf"
			},
			{
				"type": "unocc",
				"energy": 0.01473,
				"method": "rhf"
			},
			{
				"type": "unocc",
				"energy": 0.0181,
				"method": "rhf"
			},
			{
				"type": "unocc",
				"energy": 0.03516,
				"method": "rhf"
			},
			{
				"type": "unocc",
				"energy": 0.03666,
				"method": "rhf"
			}
		],
		"cosmo_sigma_profile": { 
			"0.0": 0.0,
			"0.0": 0.0,
			"0.0": 0.0,
			"0.0": 0.0,
			"0.0": 0.0,
			"0.0": 0.0,
			"0.0": 0.0,
			"0.0": 0.0,
			"0.0": 0.0,
			"0.0": 0.0,
			"0.0": 0.0,
			"0.0": 0.0,
			"0.0": 0.0,
			"0.0": 0.0,
			"0.0": 0.0,
			"0.0": 0.0,
			"0.0": 0.0,
			"0.0": 0.0,
			"0.0": 0.0,
			"0.0": 0.0,
			"0.0": 0.0,
			"0.0": 0.0,
			"0.0": 0.0,
			"0.0": 0.0,
			"0.0": 0.0,
			"0.0": 0.0,
			"0.0": 0.0,
			"0.0": 0.0,
			"0.0": 0.0,
			"0.0": 0.0,
			"0.0": 0.0,
			"0.0": 0.0,
			"0.0": 0.0,
			"0.0": 0.0,
			"0.0": 0.0,
			"0.0": 0.0,
			"0.0": 0.0,
			"0.0": 0.0,
			"0.0": 0.0,
			"0.0": 0.0,
			"0.0": 0.0,
			"0.0": 0.0,
			"0.0": 0.0,
			"0.0": 0.0,
			"0.0": 0.0,
			"0.0": 0.0,
			"0.0": 0.0,
			"0.0": 0.0,
			"0.0": 0.0,
			"0.0": 0.0,
			"0.0": 0.0
		}
	}
}
