{
	 "smiles": "CC1=CC(Cl)=CC(Cl)=C1N=C=S", 
	 "Tm": 330.65, 
	 "num_atms": 17, 
	 "gaussian": { 
		 "optdone": 1, 
		 "sigma_profile": "yes", 
		 "theory": "DFT", 
		 "functional": "B3LYP", 
		 "basiset": "6-31G**", 
		 "properties": { 
			 "R2extent": 4428.3096, 
			 "electric_dipole_moment_norm": 2.67953665584, 
			 "electric_quadrupole_moment_norm": 14.5240088812, 
			 "total_energy": -1681.18819287, 
			 "HOMO_LUMO_gap": 0.17304, 
			 "cosmo_polarized_energy": -5.49, 
			 "cosmo_cavitation_energy": 28.26, 
			 "cosmo_dispersion_energy": -20.66, 
			 "cosmo_repulsion_energy": 1.63, 
			 "cosmo_total_nonelectrostatic_energy": 9.23, 
			 "SMD_solvation_energy": 4.83 
		},
		"coords": [
			{
				"x": -1.6581314437,
				"y": 0.4582517697,
				"z": -2.9973193732,
				"element": "C" 
			},
			{
				"x": -0.4433837487,
				"y": 0.0969376865,
				"z": -2.1828043429,
				"element": "C" 
			},
			{
				"x": 0.3219378622,
				"y": -1.0292924168,
				"z": -2.4835299602,
				"element": "C" 
			},
			{
				"x": 1.4438669582,
				"y": -1.3488483218,
				"z": -1.718708949,
				"element": "C" 
			},
			{
				"x": 2.3847433602,
				"y": -2.7704784999,
				"z": -2.1221213616,
				"element": "Cl" 
			},
			{
				"x": 1.8343252973,
				"y": -0.5613395484,
				"z": -0.6387195521,
				"element": "C" 
			},
			{
				"x": 1.0783795478,
				"y": 0.5652890109,
				"z": -0.3288317761,
				"element": "C" 
			},
			{
				"x": 1.5526773062,
				"y": 1.5633708791,
				"z": 1.0206358189,
				"element": "Cl" 
			},
			{
				"x": -0.0598040351,
				"y": 0.9075461533,
				"z": -1.0875644458,
				"element": "C" 
			},
			{
				"x": -0.7941491012,
				"y": 2.0145866669,
				"z": -0.7766635067,
				"element": "N" 
			},
			{
				"x": -1.4370498073,
				"y": 2.9705683733,
				"z": -0.4842769367,
				"element": "C" 
			},
			{
				"x": -2.3025044957,
				"y": 4.2497952886,
				"z": -0.1060847894,
				"element": "S" 
			},
			{
				"x": -1.8159315579,
				"y": -0.2634037281,
				"z": -3.8014950461,
				"element": "H" 
			},
			{
				"x": -1.5536939326,
				"y": 1.452884085,
				"z": -3.4443528178,
				"element": "H" 
			},
			{
				"x": -2.5595918905,
				"y": 0.4813654947,
				"z": -2.3753067084,
				"element": "H" 
			},
			{
				"x": 0.0429440623,
				"y": -1.6619804776,
				"z": -3.3187082559,
				"element": "H" 
			},
			{
				"x": 2.7059656187,
				"y": -0.8135524154,
				"z": -0.0481479971,
				"element": "H" 
			}
		],
		 "valence_orbital": [ 
			{
				"type": "occ",
				"energy": -0.32745,
				"method": "rhf"
			},
			{
				"type": "occ",
				"energy": -0.29316,
				"method": "rhf"
			},
			{
				"type": "occ",
				"energy": -0.27175,
				"method": "rhf"
			},
			{
				"type": "occ",
				"energy": -0.26108,
				"method": "rhf"
			},
			{
				"type": "occ",
				"energy": -0.23618,
				"method": "rhf"
			},
			{
				"type": "unocc",
				"energy": -0.06314,
				"method": "rhf"
			},
			{
				"type": "unocc",
				"energy": -0.03676,
				"method": "rhf"
			},
			{
				"type": "unocc",
				"energy": -0.00638,
				"method": "rhf"
			},
			{
				"type": "unocc",
				"energy": -0.00405,
				"method": "rhf"
			},
			{
				"type": "unocc",
				"energy": 0.03132,
				"method": "rhf"
			}
		],
		"cosmo_sigma_profile": { 
			"-0.025": 0.0,
			"-0.024": 0.0,
			"-0.023": 0.0,
			"-0.022": 0.0,
			"-0.021": 0.0,
			"-0.02": 0.0,
			"-0.019": 0.0,
			"-0.018": 0.0,
			"-0.017": 0.0,
			"-0.016": 0.0,
			"-0.015": 0.0,
			"-0.014": 0.0,
			"-0.013": 0.0,
			"-0.012": 0.0,
			"-0.011": 0.0,
			"-0.01": 0.0,
			"-0.009": 0.779884292766,
			"-0.008": 3.36115465796,
			"-0.007": 4.02358600038,
			"-0.006": 5.28221370605,
			"-0.005": 10.377694849,
			"-0.004": 11.2011567914,
			"-0.003": 14.5373936465,
			"-0.002": 24.3778409982,
			"-0.001": 28.0053551353,
			"0.0": 28.9395406884,
			"0.001": 26.5561453562,
			"0.002": 18.8426565637,
			"0.003": 21.1228983092,
			"0.004": 18.8986679277,
			"0.005": 12.4830061956,
			"0.006": 6.89978459259,
			"0.007": 0.0,
			"0.008": 0.0,
			"0.009": 0.0,
			"0.01": 0.0,
			"0.011": 0.0,
			"0.012": 0.0,
			"0.013": 0.0,
			"0.014": 0.0,
			"0.015": 0.0,
			"0.016": 0.0,
			"0.017": 0.0,
			"0.018": 0.0,
			"0.019": 0.0,
			"0.02": 0.0,
			"0.021": 0.0,
			"0.022": 0.0,
			"0.023": 0.0,
			"0.024": 0.0,
			"0.025": 0.0
		}
	}
}
