{
	 "smiles": "CCCCCCCCCSCCCCCCCCC", 
	 "Tm": 288.15, 
	 "num_atms": 57, 
	 "gaussian": { 
		 "optdone": 1, 
		 "sigma_profile": "yes", 
		 "theory": "DFT", 
		 "functional": "B3LYP", 
		 "basiset": "6-31G**", 
		 "properties": { 
			 "R2extent": 12892.9734, 
			 "electric_dipole_moment_norm": 1.47071153868, 
			 "electric_quadrupole_moment_norm": 8.34894102087, 
			 "total_energy": -1107.0544231, 
			 "HOMO_LUMO_gap": 0.25432, 
			 "cosmo_polarized_energy": -4.68, 
			 "cosmo_cavitation_energy": 55.92, 
			 "cosmo_dispersion_energy": -37.03, 
			 "cosmo_repulsion_energy": 2.99, 
			 "cosmo_total_nonelectrostatic_energy": 21.88, 
			 "SMD_solvation_energy": 7.01 
		},
		"coords": [
			{
				"x": 4.3802190621,
				"y": -2.6312925327,
				"z": 1.4601969332,
				"element": "C" 
			},
			{
				"x": 5.6790563323,
				"y": -1.8184900786,
				"z": 1.5130390314,
				"element": "C" 
			},
			{
				"x": 5.6152481223,
				"y": -0.4926195418,
				"z": 2.2931318109,
				"element": "C" 
			},
			{
				"x": 4.6764414892,
				"y": 0.5923717798,
				"z": 1.7200371292,
				"element": "C" 
			},
			{
				"x": 3.2416497538,
				"y": 0.5740638301,
				"z": 2.2793356622,
				"element": "C" 
			},
			{
				"x": 2.3221571506,
				"y": 1.700880065,
				"z": 1.7565749099,
				"element": "C" 
			},
			{
				"x": 1.4697917773,
				"y": 1.3691665031,
				"z": 0.5182504666,
				"element": "C" 
			},
			{
				"x": 2.2511342249,
				"y": 1.0752978533,
				"z": -0.7705765518,
				"element": "C" 
			},
			{
				"x": 1.3663878998,
				"y": 0.8178961883,
				"z": -1.9968222087,
				"element": "C" 
			},
			{
				"x": 0.4744033677,
				"y": 2.3484116186,
				"z": -2.5129063777,
				"element": "S" 
			},
			{
				"x": -0.3004297646,
				"y": 1.8125699347,
				"z": -4.0978953352,
				"element": "C" 
			},
			{
				"x": -1.7622593549,
				"y": 1.3564620744,
				"z": -4.0053489158,
				"element": "C" 
			},
			{
				"x": -1.9878929533,
				"y": 0.0716352152,
				"z": -3.1999180487,
				"element": "C" 
			},
			{
				"x": -3.4397300376,
				"y": -0.4397731994,
				"z": -3.219389482,
				"element": "C" 
			},
			{
				"x": -4.4916648851,
				"y": 0.4945117987,
				"z": -2.595202046,
				"element": "C" 
			},
			{
				"x": -4.2853526639,
				"y": 0.786764637,
				"z": -1.1021057299,
				"element": "C" 
			},
			{
				"x": -5.4142497693,
				"y": 1.6357440207,
				"z": -0.4998291299,
				"element": "C" 
			},
			{
				"x": -5.2159391815,
				"y": 2.0163389392,
				"z": 0.9767376969,
				"element": "C" 
			},
			{
				"x": -5.2426783426,
				"y": 0.8298530574,
				"z": 1.947936795,
				"element": "C" 
			},
			{
				"x": 3.9970201474,
				"y": -2.8363168549,
				"z": 2.4665769942,
				"element": "H" 
			},
			{
				"x": 3.5931560339,
				"y": -2.1103393183,
				"z": 0.9057643961,
				"element": "H" 
			},
			{
				"x": 4.5432543626,
				"y": -3.594775769,
				"z": 0.9651569456,
				"element": "H" 
			},
			{
				"x": 6.4639382312,
				"y": -2.4406225093,
				"z": 1.9630196591,
				"element": "H" 
			},
			{
				"x": 6.0145934301,
				"y": -1.6089751353,
				"z": 0.4877748341,
				"element": "H" 
			},
			{
				"x": 5.339581454,
				"y": -0.6971301929,
				"z": 3.3378050372,
				"element": "H" 
			},
			{
				"x": 6.6346251857,
				"y": -0.0879150142,
				"z": 2.3293637635,
				"element": "H" 
			},
			{
				"x": 4.6670127104,
				"y": 0.520537226,
				"z": 0.6250363944,
				"element": "H" 
			},
			{
				"x": 5.1011393657,
				"y": 1.5798292826,
				"z": 1.9448641692,
				"element": "H" 
			},
			{
				"x": 2.7663183258,
				"y": -0.3973170116,
				"z": 2.0947102029,
				"element": "H" 
			},
			{
				"x": 3.3172568873,
				"y": 0.6604673255,
				"z": 3.37148098,
				"element": "H" 
			},
			{
				"x": 1.627944466,
				"y": 1.9845809798,
				"z": 2.5573001529,
				"element": "H" 
			},
			{
				"x": 2.9239732562,
				"y": 2.5986213251,
				"z": 1.5552876508,
				"element": "H" 
			},
			{
				"x": 0.7882998025,
				"y": 2.2087881603,
				"z": 0.33551954,
				"element": "H" 
			},
			{
				"x": 0.8286044438,
				"y": 0.5054845736,
				"z": 0.7472444443,
				"element": "H" 
			},
			{
				"x": 2.8726266963,
				"y": 0.1821219629,
				"z": -0.6306541672,
				"element": "H" 
			},
			{
				"x": 2.9398845079,
				"y": 1.9020862858,
				"z": -0.9880010827,
				"element": "H" 
			},
			{
				"x": 0.642519964,
				"y": 0.0251612108,
				"z": -1.7817878307,
				"element": "H" 
			},
			{
				"x": 1.9839659439,
				"y": 0.493651995,
				"z": -2.8409596752,
				"element": "H" 
			},
			{
				"x": 0.3318055136,
				"y": 1.0297939222,
				"z": -4.5326607598,
				"element": "H" 
			},
			{
				"x": -0.2272806228,
				"y": 2.6826533256,
				"z": -4.75759515,
				"element": "H" 
			},
			{
				"x": -2.356590009,
				"y": 2.1747863857,
				"z": -3.5826618298,
				"element": "H" 
			},
			{
				"x": -2.1282503128,
				"y": 1.2073980354,
				"z": -5.0325551625,
				"element": "H" 
			},
			{
				"x": -1.3380499079,
				"y": -0.7182962162,
				"z": -3.6022575219,
				"element": "H" 
			},
			{
				"x": -1.6656205601,
				"y": 0.2362681868,
				"z": -2.1651037623,
				"element": "H" 
			},
			{
				"x": -3.7271263786,
				"y": -0.6481838117,
				"z": -4.2592805136,
				"element": "H" 
			},
			{
				"x": -3.4750592183,
				"y": -1.4058171613,
				"z": -2.6974130232,
				"element": "H" 
			},
			{
				"x": -4.5266769419,
				"y": 1.4429904764,
				"z": -3.147982538,
				"element": "H" 
			},
			{
				"x": -5.4806519228,
				"y": 0.0361584242,
				"z": -2.7324210643,
				"element": "H" 
			},
			{
				"x": -3.3304434727,
				"y": 1.3079111285,
				"z": -0.9506077254,
				"element": "H" 
			},
			{
				"x": -4.2031765799,
				"y": -0.1658902511,
				"z": -0.5613679609,
				"element": "H" 
			},
			{
				"x": -6.3689482286,
				"y": 1.1008429602,
				"z": -0.6101811821,
				"element": "H" 
			},
			{
				"x": -5.514372513,
				"y": 2.5568219394,
				"z": -1.0904021512,
				"element": "H" 
			},
			{
				"x": -6.0011520539,
				"y": 2.7276047754,
				"z": 1.2637335897,
				"element": "H" 
			},
			{
				"x": -4.2649414951,
				"y": 2.5557514236,
				"z": 1.0849694525,
				"element": "H" 
			},
			{
				"x": -4.4248605068,
				"y": 0.1272203845,
				"z": 1.7578903009,
				"element": "H" 
			},
			{
				"x": -6.1834675611,
				"y": 0.2728863726,
				"z": 1.8639944314,
				"element": "H" 
			},
			{
				"x": -5.1491446697,
				"y": 1.1675690147,
				"z": 2.9854535526,
				"element": "H" 
			}
		],
		 "valence_orbital": [ 
			{
				"type": "occ",
				"energy": -0.30039,
				"method": "rhf"
			},
			{
				"type": "occ",
				"energy": -0.30003,
				"method": "rhf"
			},
			{
				"type": "occ",
				"energy": -0.2982,
				"method": "rhf"
			},
			{
				"type": "occ",
				"energy": -0.28865,
				"method": "rhf"
			},
			{
				"type": "occ",
				"energy": -0.21188,
				"method": "rhf"
			},
			{
				"type": "unocc",
				"energy": 0.04244,
				"method": "rhf"
			},
			{
				"type": "unocc",
				"energy": 0.06899,
				"method": "rhf"
			},
			{
				"type": "unocc",
				"energy": 0.08309,
				"method": "rhf"
			},
			{
				"type": "unocc",
				"energy": 0.08828,
				"method": "rhf"
			},
			{
				"type": "unocc",
				"energy": 0.09495,
				"method": "rhf"
			}
		],
		"cosmo_sigma_profile": { 
			"-0.025": 0.0,
			"-0.024": 0.0,
			"-0.023": 0.0,
			"-0.022": 0.0,
			"-0.021": 0.0,
			"-0.02": 0.0,
			"-0.019": 0.0,
			"-0.018": 0.0,
			"-0.017": 0.0,
			"-0.016": 0.0,
			"-0.015": 0.0,
			"-0.014": 0.0,
			"-0.013": 0.0,
			"-0.012": 0.0,
			"-0.011": 0.0,
			"-0.01": 0.0,
			"-0.009": 0.0,
			"-0.008": 0.0,
			"-0.007": 0.0,
			"-0.006": 0.0,
			"-0.005": 2.96520784399,
			"-0.004": 7.37664203313,
			"-0.003": 15.8702378469,
			"-0.002": 66.1067808148,
			"-0.001": 99.4294821573,
			"0.0": 96.5148366341,
			"0.001": 80.5380556766,
			"0.002": 34.2126739425,
			"0.003": 3.91976883273,
			"0.004": 3.55461035746,
			"0.005": 3.38067562618,
			"0.006": 2.85805465135,
			"0.007": 3.56833899686,
			"0.008": 2.36418183325,
			"0.009": 2.54212663528,
			"0.01": 2.06365071667,
			"0.011": 1.2198685221,
			"0.012": 0.988237837994,
			"0.013": 0.0142894818718,
			"0.014": 0.0,
			"0.015": 0.0,
			"0.016": 0.0,
			"0.017": 0.0,
			"0.018": 0.0,
			"0.019": 0.0,
			"0.02": 0.0,
			"0.021": 0.0,
			"0.022": 0.0,
			"0.023": 0.0,
			"0.024": 0.0,
			"0.025": 0.0
		}
	}
}
