{
	 "smiles": "CON=C(C(=O)N[C@H]1[C@H]2SCC(C=CC3=C(C)N=CS3)=C(N2C1=O)C(=O)OCOC(=O)C(C)(C)C)C1=CSC(N)=N1", 
	 "Tm": 401.15, 
	 "num_atms": 69, 
	 "gaussian": { 
		 "optdone": 1, 
		 "sigma_profile": "yes", 
		 "theory": "DFT", 
		 "functional": "B3LYP", 
		 "basiset": "6-31G**", 
		 "properties": { 
			 "R2extent": 32633.2046, 
			 "electric_dipole_moment_norm": 1.50685469439, 
			 "electric_quadrupole_moment_norm": 21.0590162861, 
			 "total_energy": -3019.08648843, 
			 "HOMO_LUMO_gap": 0.13631, 
			 "cosmo_polarized_energy": -32.63, 
			 "cosmo_cavitation_energy": 77.54, 
			 "cosmo_dispersion_energy": -50.8, 
			 "cosmo_repulsion_energy": 3.7, 
			 "cosmo_total_nonelectrostatic_energy": 30.44, 
			 "SMD_solvation_energy": 12.46 
		},
		"coords": [
			{
				"x": -1.2691914418,
				"y": -1.4912605841,
				"z": 8.3008036798,
				"element": "C" 
			},
			{
				"x": -1.2327409197,
				"y": -1.9097261208,
				"z": 6.9335134175,
				"element": "O" 
			},
			{
				"x": -1.249422315,
				"y": -0.7926303748,
				"z": 6.1241065106,
				"element": "N" 
			},
			{
				"x": -1.201140423,
				"y": -1.0650098742,
				"z": 4.8622023803,
				"element": "C" 
			},
			{
				"x": -1.2715659293,
				"y": 0.2091028568,
				"z": 4.0139990447,
				"element": "C" 
			},
			{
				"x": -1.9920848898,
				"y": 1.1469369063,
				"z": 4.309449198,
				"element": "O" 
			},
			{
				"x": -0.4377783385,
				"y": 0.213897529,
				"z": 2.9125988494,
				"element": "N" 
			},
			{
				"x": -0.7141466777,
				"y": 1.0952077601,
				"z": 1.8153337699,
				"element": "C" 
			},
			{
				"x": 0.3894476877,
				"y": 2.071293727,
				"z": 1.2838998974,
				"element": "C" 
			},
			{
				"x": 2.0713803434,
				"y": 1.8685821975,
				"z": 1.9554111154,
				"element": "S" 
			},
			{
				"x": 2.8388809149,
				"y": 2.6019393945,
				"z": 0.4595746574,
				"element": "C" 
			},
			{
				"x": 2.4398428095,
				"y": 2.0129243836,
				"z": -0.8981180822,
				"element": "C" 
			},
			{
				"x": 3.4801007707,
				"y": 2.2892362112,
				"z": -1.8920195527,
				"element": "C" 
			},
			{
				"x": 3.8979751522,
				"y": 1.5505149554,
				"z": -2.94939645,
				"element": "C" 
			},
			{
				"x": 4.966480493,
				"y": 1.9192471045,
				"z": -3.8577321519,
				"element": "C" 
			},
			{
				"x": 5.5413198349,
				"y": 3.1425578222,
				"z": -4.1787759101,
				"element": "C" 
			},
			{
				"x": 5.1550785352,
				"y": 4.4869606281,
				"z": -3.6330519892,
				"element": "C" 
			},
			{
				"x": 6.5399527802,
				"y": 3.094151517,
				"z": -5.1243447325,
				"element": "N" 
			},
			{
				"x": 6.744646453,
				"y": 1.8772849876,
				"z": -5.5420684745,
				"element": "C" 
			},
			{
				"x": 5.7283861276,
				"y": 0.6672118998,
				"z": -4.8243656003,
				"element": "S" 
			},
			{
				"x": 1.208814888,
				"y": 1.4410144769,
				"z": -1.0783778519,
				"element": "C" 
			},
			{
				"x": 0.2798155125,
				"y": 1.4132470853,
				"z": -0.0212081175,
				"element": "N" 
			},
			{
				"x": -0.572710246,
				"y": 0.4121805435,
				"z": 0.4322032998,
				"element": "C" 
			},
			{
				"x": -0.938932016,
				"y": -0.6289504845,
				"z": -0.0643386355,
				"element": "O" 
			},
			{
				"x": 0.69120541,
				"y": 0.8755950147,
				"z": -2.3597472277,
				"element": "C" 
			},
			{
				"x": 1.3519175503,
				"y": 0.2996871919,
				"z": -3.1999231075,
				"element": "O" 
			},
			{
				"x": -0.6387829128,
				"y": 1.1060803338,
				"z": -2.4840059546,
				"element": "O" 
			},
			{
				"x": -1.3129029267,
				"y": 0.461445222,
				"z": -3.5718435714,
				"element": "C" 
			},
			{
				"x": -2.5378847326,
				"y": -0.0352670313,
				"z": -3.0880545047,
				"element": "O" 
			},
			{
				"x": -2.5688310125,
				"y": -1.3570525665,
				"z": -2.6975645627,
				"element": "C" 
			},
			{
				"x": -1.6180133722,
				"y": -2.0924106783,
				"z": -2.8098432973,
				"element": "O" 
			},
			{
				"x": -3.9521690282,
				"y": -1.7345253439,
				"z": -2.1649457296,
				"element": "C" 
			},
			{
				"x": -4.2948362758,
				"y": -0.8358708705,
				"z": -0.9554263586,
				"element": "C" 
			},
			{
				"x": -3.9323840956,
				"y": -3.2118460122,
				"z": -1.7420309866,
				"element": "C" 
			},
			{
				"x": -4.9900869207,
				"y": -1.518522633,
				"z": -3.2910641014,
				"element": "C" 
			},
			{
				"x": -1.157911873,
				"y": -2.3925670048,
				"z": 4.216990032,
				"element": "C" 
			},
			{
				"x": -1.2429373731,
				"y": -3.6313793833,
				"z": 4.8014914931,
				"element": "C" 
			},
			{
				"x": -1.2246590694,
				"y": -4.8803396068,
				"z": 3.5807164045,
				"element": "S" 
			},
			{
				"x": -1.0676873271,
				"y": -3.6198115807,
				"z": 2.3459538382,
				"element": "C" 
			},
			{
				"x": -1.061570037,
				"y": -3.8844625199,
				"z": 1.0072452492,
				"element": "N" 
			},
			{
				"x": -1.0425881292,
				"y": -2.4153579076,
				"z": 2.8331278915,
				"element": "N" 
			},
			{
				"x": -0.3898776145,
				"y": -0.8870159253,
				"z": 8.5438650325,
				"element": "H" 
			},
			{
				"x": -2.1772339579,
				"y": -0.9161080666,
				"z": 8.504343055,
				"element": "H" 
			},
			{
				"x": -1.2660120041,
				"y": -2.4113873423,
				"z": 8.88836771,
				"element": "H" 
			},
			{
				"x": -0.1542806748,
				"y": -0.7215611122,
				"z": 2.6276520265,
				"element": "H" 
			},
			{
				"x": -1.6620892344,
				"y": 1.6136374448,
				"z": 1.9868591891,
				"element": "H" 
			},
			{
				"x": 0.1189592401,
				"y": 3.13050196,
				"z": 1.2546927279,
				"element": "H" 
			},
			{
				"x": 3.9139647873,
				"y": 2.4586784167,
				"z": 0.5966429168,
				"element": "H" 
			},
			{
				"x": 2.6642268455,
				"y": 3.685800804,
				"z": 0.4577395204,
				"element": "H" 
			},
			{
				"x": 4.049486597,
				"y": 3.1849445868,
				"z": -1.6509359407,
				"element": "H" 
			},
			{
				"x": 3.4147004017,
				"y": 0.5998865914,
				"z": -3.1346996053,
				"element": "H" 
			},
			{
				"x": 5.4767865471,
				"y": 5.2617331559,
				"z": -4.332061872,
				"element": "H" 
			},
			{
				"x": 4.0739179911,
				"y": 4.5644072957,
				"z": -3.4830984705,
				"element": "H" 
			},
			{
				"x": 5.6393995837,
				"y": 4.6902408285,
				"z": -2.6693850092,
				"element": "H" 
			},
			{
				"x": 7.4887866543,
				"y": 1.610238179,
				"z": -6.2832945026,
				"element": "H" 
			},
			{
				"x": -1.557560714,
				"y": 1.2229487885,
				"z": -4.3138294491,
				"element": "H" 
			},
			{
				"x": -0.6863013494,
				"y": -0.3309747957,
				"z": -3.9783235666,
				"element": "H" 
			},
			{
				"x": -5.2739443916,
				"y": -1.1209318802,
				"z": -0.556253341,
				"element": "H" 
			},
			{
				"x": -3.5512516339,
				"y": -0.9478752768,
				"z": -0.1617669706,
				"element": "H" 
			},
			{
				"x": -4.3336709525,
				"y": 0.2174236562,
				"z": -1.2440298241,
				"element": "H" 
			},
			{
				"x": -4.9267291698,
				"y": -3.5064607217,
				"z": -1.3911867328,
				"element": "H" 
			},
			{
				"x": -3.2196089892,
				"y": -3.3856130647,
				"z": -0.9314821782,
				"element": "H" 
			},
			{
				"x": -3.6549224447,
				"y": -3.8596111693,
				"z": -2.5781978448,
				"element": "H" 
			},
			{
				"x": -4.7665491399,
				"y": -2.1417351277,
				"z": -4.1637575994,
				"element": "H" 
			},
			{
				"x": -5.0189004238,
				"y": -0.4743397818,
				"z": -3.6115273577,
				"element": "H" 
			},
			{
				"x": -5.9852778512,
				"y": -1.7951162654,
				"z": -2.927844808,
				"element": "H" 
			},
			{
				"x": -1.3216400478,
				"y": -3.8813059504,
				"z": 5.8446075922,
				"element": "H" 
			},
			{
				"x": -0.8961919684,
				"y": -3.0747700779,
				"z": 0.4178482698,
				"element": "H" 
			},
			{
				"x": -0.6882730666,
				"y": -4.7613443211,
				"z": 0.6785832542,
				"element": "H" 
			}
		],
		 "valence_orbital": [ 
			{
				"type": "occ",
				"energy": -0.25287,
				"method": "rhf"
			},
			{
				"type": "occ",
				"energy": -0.24995,
				"method": "rhf"
			},
			{
				"type": "occ",
				"energy": -0.24052,
				"method": "rhf"
			},
			{
				"type": "occ",
				"energy": -0.21519,
				"method": "rhf"
			},
			{
				"type": "occ",
				"energy": -0.21396,
				"method": "rhf"
			},
			{
				"type": "unocc",
				"energy": -0.07765,
				"method": "rhf"
			},
			{
				"type": "unocc",
				"energy": -0.05397,
				"method": "rhf"
			},
			{
				"type": "unocc",
				"energy": -0.03297,
				"method": "rhf"
			},
			{
				"type": "unocc",
				"energy": -0.00842,
				"method": "rhf"
			},
			{
				"type": "unocc",
				"energy": -0.00142,
				"method": "rhf"
			}
		],
		"cosmo_sigma_profile": { 
			"-0.025": 0.0,
			"-0.024": 0.0,
			"-0.023": 0.0,
			"-0.022": 0.0,
			"-0.021": 0.0,
			"-0.02": 0.0,
			"-0.019": 0.0,
			"-0.018": 0.0,
			"-0.017": 0.0,
			"-0.016": 0.0516461077591,
			"-0.015": 1.23110141459,
			"-0.014": 1.44708640396,
			"-0.013": 1.63166340561,
			"-0.012": 1.79780720332,
			"-0.011": 1.28286633837,
			"-0.01": 2.33890512068,
			"-0.009": 6.58242296509,
			"-0.008": 16.7888051496,
			"-0.007": 22.1543737193,
			"-0.006": 24.69572806,
			"-0.005": 28.546322648,
			"-0.004": 38.0557363897,
			"-0.003": 45.0407474883,
			"-0.002": 43.1540810726,
			"-0.001": 51.7244638722,
			"0.0": 59.9817339636,
			"0.001": 63.2994924884,
			"0.002": 50.0791694927,
			"0.003": 39.9922859844,
			"0.004": 25.2491937527,
			"0.005": 19.5520008427,
			"0.006": 16.9598823064,
			"0.007": 11.3581618957,
			"0.008": 11.2888047615,
			"0.009": 9.01147997383,
			"0.01": 7.01966099117,
			"0.011": 6.87667561791,
			"0.012": 6.98875421461,
			"0.013": 4.32152982026,
			"0.014": 3.12225263045,
			"0.015": 1.21542518557,
			"0.016": 0.116501910916,
			"0.017": 0.0,
			"0.018": 0.0,
			"0.019": 0.0,
			"0.02": 0.0,
			"0.021": 0.0,
			"0.022": 0.0,
			"0.023": 0.0,
			"0.024": 0.0,
			"0.025": 0.0
		}
	}
}
