{
	 "smiles": "NC1=C(C=C(Cl)C=C1)C(=O)NC1CC1", 
	 "Tm": 421.15, 
	 "num_atms": 25, 
	 "gaussian": { 
		 "optdone": 1, 
		 "sigma_profile": "yes", 
		 "theory": "DFT", 
		 "functional": "B3LYP", 
		 "basiset": "6-31G**", 
		 "properties": { 
			 "R2extent": 4062.5247, 
			 "electric_dipole_moment_norm": 1.56304870685, 
			 "electric_quadrupole_moment_norm": 14.2138387253, 
			 "total_energy": -1032.60184568, 
			 "HOMO_LUMO_gap": 0.16364, 
			 "cosmo_polarized_energy": -11.73, 
			 "cosmo_cavitation_energy": 30.07, 
			 "cosmo_dispersion_energy": -21.89, 
			 "cosmo_repulsion_energy": 1.73, 
			 "cosmo_total_nonelectrostatic_energy": 9.91, 
			 "SMD_solvation_energy": 4.23 
		},
		"coords": [
			{
				"x": 0.2284810612,
				"y": 1.0922448848,
				"z": -3.7314611205,
				"element": "N" 
			},
			{
				"x": 0.0692484798,
				"y": 1.6791695763,
				"z": -2.5015889417,
				"element": "C" 
			},
			{
				"x": -0.0968855848,
				"y": 0.9052172281,
				"z": -1.3140053378,
				"element": "C" 
			},
			{
				"x": -0.2419213683,
				"y": 1.5641189455,
				"z": -0.0815496849,
				"element": "C" 
			},
			{
				"x": -0.265932973,
				"y": 2.9483097441,
				"z": -0.0090041331,
				"element": "C" 
			},
			{
				"x": -0.4410179507,
				"y": 3.7426206128,
				"z": 1.5548712784,
				"element": "Cl" 
			},
			{
				"x": -0.1500175681,
				"y": 3.7176834277,
				"z": -1.1695469584,
				"element": "C" 
			},
			{
				"x": 0.0138451902,
				"y": 3.0862344003,
				"z": -2.3918670599,
				"element": "C" 
			},
			{
				"x": -0.0302779207,
				"y": -0.5831359901,
				"z": -1.3954050138,
				"element": "C" 
			},
			{
				"x": 0.5885824877,
				"y": -1.1604280052,
				"z": -2.3006711951,
				"element": "O" 
			},
			{
				"x": -0.6596106631,
				"y": -1.3561801694,
				"z": -0.4451578844,
				"element": "N" 
			},
			{
				"x": -1.7754096386,
				"y": -1.0149870237,
				"z": 0.4025617232,
				"element": "C" 
			},
			{
				"x": -2.3405835339,
				"y": -2.1070919648,
				"z": 1.2668869828,
				"element": "C" 
			},
			{
				"x": -1.6091426604,
				"y": -0.9503151987,
				"z": 1.9058172466,
				"element": "C" 
			},
			{
				"x": 0.5636953048,
				"y": 1.6811082805,
				"z": -4.477971737,
				"element": "H" 
			},
			{
				"x": 0.5651185184,
				"y": 0.1354621002,
				"z": -3.7052335171,
				"element": "H" 
			},
			{
				"x": -0.3175431125,
				"y": 0.9860349836,
				"z": 0.8292787252,
				"element": "H" 
			},
			{
				"x": -0.1761778215,
				"y": 4.8005345742,
				"z": -1.1106824191,
				"element": "H" 
			},
			{
				"x": 0.1177195074,
				"y": 3.6844516908,
				"z": -3.2933468999,
				"element": "H" 
			},
			{
				"x": -0.5636386257,
				"y": -2.3364557652,
				"z": -0.6825234253,
				"element": "H" 
			},
			{
				"x": -2.4817002511,
				"y": -0.3197023914,
				"z": -0.0442510701,
				"element": "H" 
			},
			{
				"x": -1.8367900929,
				"y": -3.0701316682,
				"z": 1.2538564518,
				"element": "H" 
			},
			{
				"x": -3.4191392619,
				"y": -2.171272601,
				"z": 1.3687740509,
				"element": "H" 
			},
			{
				"x": -2.1816083527,
				"y": -0.2081494593,
				"z": 2.4542161598,
				"element": "H" 
			},
			{
				"x": -0.6168931697,
				"y": -1.1471402117,
				"z": 2.3001037792,
				"element": "H" 
			}
		],
		 "valence_orbital": [ 
			{
				"type": "occ",
				"energy": -0.29227,
				"method": "rhf"
			},
			{
				"type": "occ",
				"energy": -0.26599,
				"method": "rhf"
			},
			{
				"type": "occ",
				"energy": -0.25545,
				"method": "rhf"
			},
			{
				"type": "occ",
				"energy": -0.24548,
				"method": "rhf"
			},
			{
				"type": "occ",
				"energy": -0.20223,
				"method": "rhf"
			},
			{
				"type": "unocc",
				"energy": -0.03859,
				"method": "rhf"
			},
			{
				"type": "unocc",
				"energy": 0.00398,
				"method": "rhf"
			},
			{
				"type": "unocc",
				"energy": 0.03478,
				"method": "rhf"
			},
			{
				"type": "unocc",
				"energy": 0.05018,
				"method": "rhf"
			},
			{
				"type": "unocc",
				"energy": 0.08229,
				"method": "rhf"
			}
		],
		"cosmo_sigma_profile": { 
			"-0.025": 0.0,
			"-0.024": 0.0,
			"-0.023": 0.0,
			"-0.022": 0.0,
			"-0.021": 0.0,
			"-0.02": 0.0,
			"-0.019": 0.0,
			"-0.018": 0.0,
			"-0.017": 0.0,
			"-0.016": 0.0,
			"-0.015": 0.0,
			"-0.014": 0.0434769447535,
			"-0.013": 1.29014809795,
			"-0.012": 2.85063254227,
			"-0.011": 1.90209845541,
			"-0.01": 2.35586450177,
			"-0.009": 2.64331090112,
			"-0.008": 3.69911835605,
			"-0.007": 6.59558033987,
			"-0.006": 8.91771454348,
			"-0.005": 15.6499878514,
			"-0.004": 16.3981232158,
			"-0.003": 14.359145473,
			"-0.002": 15.8994816428,
			"-0.001": 17.6007169195,
			"0.0": 17.1706225024,
			"0.001": 15.6194214142,
			"0.002": 18.45991147,
			"0.003": 23.7455194776,
			"0.004": 19.8170706669,
			"0.005": 14.580870421,
			"0.006": 4.57516198354,
			"0.007": 2.22594192733,
			"0.008": 1.81876574051,
			"0.009": 2.57051614925,
			"0.01": 1.55893838629,
			"0.011": 2.31252436645,
			"0.012": 2.99707254358,
			"0.013": 2.32476052235,
			"0.014": 1.25967562301,
			"0.015": 0.00277315046062,
			"0.016": 0.0,
			"0.017": 0.0,
			"0.018": 0.0,
			"0.019": 0.0,
			"0.02": 0.0,
			"0.021": 0.0,
			"0.022": 0.0,
			"0.023": 0.0,
			"0.024": 0.0,
			"0.025": 0.0
		}
	}
}
