{
	 "smiles": "ClC1=CC=CC(CNC2=CC(=O)C3=CC=CC=C3C2=O)=C1", 
	 "Tm": 464.15, 
	 "num_atms": 33, 
	 "gaussian": { 
		 "optdone": 1, 
		 "sigma_profile": "yes", 
		 "theory": "DFT", 
		 "functional": "B3LYP", 
		 "basiset": "6-31G**", 
		 "properties": { 
			 "R2extent": 9490.9903, 
			 "electric_dipole_moment_norm": 3.43599197613, 
			 "electric_quadrupole_moment_norm": 18.58033188, 
			 "total_energy": -1320.44108036, 
			 "HOMO_LUMO_gap": 0.12436, 
			 "cosmo_polarized_energy": -15.45, 
			 "cosmo_cavitation_energy": 39.8, 
			 "cosmo_dispersion_energy": -28.35, 
			 "cosmo_repulsion_energy": 2.15, 
			 "cosmo_total_nonelectrostatic_energy": 13.6, 
			 "SMD_solvation_energy": 6.84 
		},
		"coords": [
			{
				"x": -4.1103665459,
				"y": -5.2249313408,
				"z": -0.0684203587,
				"element": "Cl" 
			},
			{
				"x": -2.5981028773,
				"y": -4.3417360423,
				"z": 0.0911053401,
				"element": "C" 
			},
			{
				"x": -1.512188532,
				"y": -4.6930256036,
				"z": -0.7094823827,
				"element": "C" 
			},
			{
				"x": -0.3229131232,
				"y": -3.9765352093,
				"z": -0.5718593843,
				"element": "C" 
			},
			{
				"x": -0.2209426365,
				"y": -2.9343402542,
				"z": 0.3499023636,
				"element": "C" 
			},
			{
				"x": -1.3158480393,
				"y": -2.5897114012,
				"z": 1.1481225261,
				"element": "C" 
			},
			{
				"x": -1.2213816652,
				"y": -1.4935117465,
				"z": 2.2055043408,
				"element": "C" 
			},
			{
				"x": -0.2667793865,
				"y": -0.4444235567,
				"z": 1.9213197056,
				"element": "N" 
			},
			{
				"x": -0.4694176773,
				"y": 0.5704956797,
				"z": 1.045159305,
				"element": "C" 
			},
			{
				"x": -1.5432846299,
				"y": 0.7250093479,
				"z": 0.2137598565,
				"element": "C" 
			},
			{
				"x": -1.6761787682,
				"y": 1.8663103212,
				"z": -0.6786014192,
				"element": "C" 
			},
			{
				"x": -2.6513669715,
				"y": 2.006808398,
				"z": -1.4176117533,
				"element": "O" 
			},
			{
				"x": -0.5736052902,
				"y": 2.8886477054,
				"z": -0.6796424011,
				"element": "C" 
			},
			{
				"x": -0.661040213,
				"y": 3.9947682437,
				"z": -1.5257393926,
				"element": "C" 
			},
			{
				"x": 0.3568460331,
				"y": 4.9491694097,
				"z": -1.5369797134,
				"element": "C" 
			},
			{
				"x": 1.4703163096,
				"y": 4.8053296571,
				"z": -0.7017980854,
				"element": "C" 
			},
			{
				"x": 1.5662637212,
				"y": 3.7048499129,
				"z": 0.1467000373,
				"element": "C" 
			},
			{
				"x": 0.5465539529,
				"y": 2.7448509287,
				"z": 0.160243714,
				"element": "C" 
			},
			{
				"x": 0.6511169485,
				"y": 1.5805885889,
				"z": 1.0643479566,
				"element": "C" 
			},
			{
				"x": 1.6005074941,
				"y": 1.4046771649,
				"z": 1.8241325992,
				"element": "O" 
			},
			{
				"x": -2.5145007404,
				"y": -3.2987070596,
				"z": 1.0114517228,
				"element": "C" 
			},
			{
				"x": -1.600753148,
				"y": -5.503074527,
				"z": -1.4245341813,
				"element": "H" 
			},
			{
				"x": 0.5300344602,
				"y": -4.2353318602,
				"z": -1.192266048,
				"element": "H" 
			},
			{
				"x": 0.7061117513,
				"y": -2.3781225944,
				"z": 0.4452384184,
				"element": "H" 
			},
			{
				"x": -0.9305595396,
				"y": -1.9407420702,
				"z": 3.1629018128,
				"element": "H" 
			},
			{
				"x": -2.2163901745,
				"y": -1.053036811,
				"z": 2.3572296481,
				"element": "H" 
			},
			{
				"x": 0.5779261893,
				"y": -0.3521978586,
				"z": 2.4719382992,
				"element": "H" 
			},
			{
				"x": -2.3430914671,
				"y": -0.0056067656,
				"z": 0.1702103257,
				"element": "H" 
			},
			{
				"x": -1.5344447816,
				"y": 4.0826812198,
				"z": -2.1631727898,
				"element": "H" 
			},
			{
				"x": 0.2840733164,
				"y": 5.8082555214,
				"z": -2.1977589398,
				"element": "H" 
			},
			{
				"x": 2.2596627425,
				"y": 5.5509640319,
				"z": -0.714107538,
				"element": "H" 
			},
			{
				"x": 2.4178410727,
				"y": 3.5691408861,
				"z": 0.8051212322,
				"element": "H" 
			},
			{
				"x": -3.3805977847,
				"y": -3.0426123159,
				"z": 1.6141851835,
				"element": "H" 
			}
		],
		 "valence_orbital": [ 
			{
				"type": "occ",
				"energy": -0.26542,
				"method": "rhf"
			},
			{
				"type": "occ",
				"energy": -0.26463,
				"method": "rhf"
			},
			{
				"type": "occ",
				"energy": -0.25057,
				"method": "rhf"
			},
			{
				"type": "occ",
				"energy": -0.24619,
				"method": "rhf"
			},
			{
				"type": "occ",
				"energy": -0.22779,
				"method": "rhf"
			},
			{
				"type": "unocc",
				"energy": -0.10343,
				"method": "rhf"
			},
			{
				"type": "unocc",
				"energy": -0.03594,
				"method": "rhf"
			},
			{
				"type": "unocc",
				"energy": -0.02123,
				"method": "rhf"
			},
			{
				"type": "unocc",
				"energy": -0.01932,
				"method": "rhf"
			},
			{
				"type": "unocc",
				"energy": -0.00755,
				"method": "rhf"
			}
		],
		"cosmo_sigma_profile": { 
			"-0.025": 0.0,
			"-0.024": 0.0,
			"-0.023": 0.0,
			"-0.022": 0.0,
			"-0.021": 0.0,
			"-0.02": 0.0,
			"-0.019": 0.0,
			"-0.018": 0.0,
			"-0.017": 0.0,
			"-0.016": 0.0,
			"-0.015": 0.0,
			"-0.014": 0.101224655329,
			"-0.013": 0.755894370971,
			"-0.012": 0.962116147608,
			"-0.011": 0.988284065073,
			"-0.01": 0.84432613929,
			"-0.009": 1.38269513078,
			"-0.008": 2.19458842002,
			"-0.007": 13.4131009726,
			"-0.006": 20.3708200624,
			"-0.005": 24.0071883892,
			"-0.004": 22.6392169561,
			"-0.003": 20.1341460673,
			"-0.002": 18.8387315664,
			"-0.001": 20.342515325,
			"0.0": 23.8124710031,
			"0.001": 26.0768020401,
			"0.002": 33.9876932773,
			"0.003": 28.779505401,
			"0.004": 20.7052393179,
			"0.005": 11.8658437722,
			"0.006": 3.05064549194,
			"0.007": 3.864822317,
			"0.008": 2.57056689532,
			"0.009": 3.6356294133,
			"0.01": 4.65891327868,
			"0.011": 3.11184556999,
			"0.012": 3.31794353192,
			"0.013": 4.17836398607,
			"0.014": 1.44033525796,
			"0.015": 0.0866886910968,
			"0.016": 0.0,
			"0.017": 0.0,
			"0.018": 0.0,
			"0.019": 0.0,
			"0.02": 0.0,
			"0.021": 0.0,
			"0.022": 0.0,
			"0.023": 0.0,
			"0.024": 0.0,
			"0.025": 0.0
		}
	}
}
