{
	 "smiles": "OC1=CC=CC=C1C(=O)C1=CC=CC=C1O", 
	 "Tm": 332.65, 
	 "num_atms": 26, 
	 "gaussian": { 
		 "optdone": 1, 
		 "sigma_profile": "yes", 
		 "theory": "DFT", 
		 "functional": "B3LYP", 
		 "basiset": "6-31G**", 
		 "properties": { 
			 "R2extent": 4148.6853, 
			 "electric_dipole_moment_norm": 3.23186807126, 
			 "electric_quadrupole_moment_norm": 9.15874844561, 
			 "total_energy": -727.098003818, 
			 "HOMO_LUMO_gap": 0.14583, 
			 "cosmo_polarized_energy": -8.02, 
			 "cosmo_cavitation_energy": 29.43, 
			 "cosmo_dispersion_energy": -22.37, 
			 "cosmo_repulsion_energy": 1.7, 
			 "cosmo_total_nonelectrostatic_energy": 8.76, 
			 "SMD_solvation_energy": 5.75 
		},
		"coords": [
			{
				"x": 3.0069477657,
				"y": 0.130304914,
				"z": -2.7861390702,
				"element": "O" 
			},
			{
				"x": 1.7380799868,
				"y": 0.5542881791,
				"z": -2.8751122067,
				"element": "C" 
			},
			{
				"x": 1.3188230272,
				"y": 1.08599214,
				"z": -4.1061389973,
				"element": "C" 
			},
			{
				"x": 0.0025902342,
				"y": 1.4809270483,
				"z": -4.2876725409,
				"element": "C" 
			},
			{
				"x": -0.9330869551,
				"y": 1.3529183711,
				"z": -3.2494141313,
				"element": "C" 
			},
			{
				"x": -0.5198293524,
				"y": 0.8712359969,
				"z": -2.017791712,
				"element": "C" 
			},
			{
				"x": 0.8229088304,
				"y": 0.4971256318,
				"z": -1.7811092546,
				"element": "C" 
			},
			{
				"x": 1.2997869124,
				"y": -0.0052378471,
				"z": -0.4799227839,
				"element": "C" 
			},
			{
				"x": 2.3388835497,
				"y": -0.72607364,
				"z": -0.4591912945,
				"element": "O" 
			},
			{
				"x": 0.6275576635,
				"y": 0.2897014961,
				"z": 0.7983609826,
				"element": "C" 
			},
			{
				"x": -0.1989857113,
				"y": 1.4203483294,
				"z": 0.9917759271,
				"element": "C" 
			},
			{
				"x": -0.8277874667,
				"y": 1.6614921912,
				"z": 2.2026226133,
				"element": "C" 
			},
			{
				"x": -0.6481676464,
				"y": 0.7598631955,
				"z": 3.2631317767,
				"element": "C" 
			},
			{
				"x": 0.1871604695,
				"y": -0.3375881658,
				"z": 3.1245316921,
				"element": "C" 
			},
			{
				"x": 0.8648936854,
				"y": -0.5668167507,
				"z": 1.9153766403,
				"element": "C" 
			},
			{
				"x": 1.708383224,
				"y": -1.607976517,
				"z": 1.86851418,
				"element": "O" 
			},
			{
				"x": 3.0857237421,
				"y": -0.3399316898,
				"z": -1.9220659949,
				"element": "H" 
			},
			{
				"x": 2.0476961809,
				"y": 1.1437630791,
				"z": -4.9074403929,
				"element": "H" 
			},
			{
				"x": -0.3092905595,
				"y": 1.869788525,
				"z": -5.2529970029,
				"element": "H" 
			},
			{
				"x": -1.9724311192,
				"y": 1.6197087282,
				"z": -3.4097412427,
				"element": "H" 
			},
			{
				"x": -1.2475813243,
				"y": 0.7420950499,
				"z": -1.2257222712,
				"element": "H" 
			},
			{
				"x": -0.3114395693,
				"y": 2.1322852989,
				"z": 0.1829595555,
				"element": "H" 
			},
			{
				"x": -1.4456293243,
				"y": 2.5442104274,
				"z": 2.3298994014,
				"element": "H" 
			},
			{
				"x": -1.1474309903,
				"y": 0.9336625285,
				"z": 4.2122711631,
				"element": "H" 
			},
			{
				"x": 0.3665559542,
				"y": -1.0253678181,
				"z": 3.9439535543,
				"element": "H" 
			},
			{
				"x": 2.1994687929,
				"y": -1.533018702,
				"z": 1.0157614096,
				"element": "H" 
			}
		],
		 "valence_orbital": [ 
			{
				"type": "occ",
				"energy": -0.27929,
				"method": "rhf"
			},
			{
				"type": "occ",
				"energy": -0.26801,
				"method": "rhf"
			},
			{
				"type": "occ",
				"energy": -0.26666,
				"method": "rhf"
			},
			{
				"type": "occ",
				"energy": -0.2334,
				"method": "rhf"
			},
			{
				"type": "occ",
				"energy": -0.22806,
				"method": "rhf"
			},
			{
				"type": "unocc",
				"energy": -0.08223,
				"method": "rhf"
			},
			{
				"type": "unocc",
				"energy": -0.02225,
				"method": "rhf"
			},
			{
				"type": "unocc",
				"energy": -0.00024,
				"method": "rhf"
			},
			{
				"type": "unocc",
				"energy": 0.00056,
				"method": "rhf"
			},
			{
				"type": "unocc",
				"energy": 0.04552,
				"method": "rhf"
			}
		],
		"cosmo_sigma_profile": { 
			"-0.025": 0.0,
			"-0.024": 0.0,
			"-0.023": 0.0,
			"-0.022": 0.0,
			"-0.021": 0.0,
			"-0.02": 0.0,
			"-0.019": 0.0,
			"-0.018": 0.0,
			"-0.017": 0.0,
			"-0.016": 0.0,
			"-0.015": 0.0,
			"-0.014": 0.0,
			"-0.013": 0.0,
			"-0.012": 0.0,
			"-0.011": 0.0,
			"-0.01": 0.0,
			"-0.009": 0.0,
			"-0.008": 0.309041012716,
			"-0.007": 5.10602338306,
			"-0.006": 15.2720647817,
			"-0.005": 19.7431866614,
			"-0.004": 20.4487980104,
			"-0.003": 18.489539296,
			"-0.002": 14.716961075,
			"-0.001": 15.9353149121,
			"0.0": 18.2721628224,
			"0.001": 18.3765354966,
			"0.002": 21.9116132361,
			"0.003": 23.2293322287,
			"0.004": 19.514437937,
			"0.005": 5.69123353644,
			"0.006": 4.46564505715,
			"0.007": 3.14852412603,
			"0.008": 2.7367813603,
			"0.009": 2.10516107531,
			"0.01": 3.97566308384,
			"0.011": 3.19007691441,
			"0.012": 0.400010539341,
			"0.013": 0.0,
			"0.014": 0.0,
			"0.015": 0.0,
			"0.016": 0.0,
			"0.017": 0.0,
			"0.018": 0.0,
			"0.019": 0.0,
			"0.02": 0.0,
			"0.021": 0.0,
			"0.022": 0.0,
			"0.023": 0.0,
			"0.024": 0.0,
			"0.025": 0.0
		}
	}
}
