{
	 "smiles": "CCCN1C(C)=C(C(O)=O)C2=C1C=CC(OC)=C2", 
	 "Tm": 445.15, 
	 "num_atms": 35, 
	 "gaussian": { 
		 "optdone": 1, 
		 "sigma_profile": "yes", 
		 "theory": "DFT", 
		 "functional": "B3LYP", 
		 "basiset": "6-31G**", 
		 "properties": { 
			 "R2extent": 5273.3581, 
			 "electric_dipole_moment_norm": 5.00904915728, 
			 "electric_quadrupole_moment_norm": 27.5391852065, 
			 "total_energy": -824.182515408, 
			 "HOMO_LUMO_gap": 0.18266, 
			 "cosmo_polarized_energy": -16.76, 
			 "cosmo_cavitation_energy": 36.95, 
			 "cosmo_dispersion_energy": -26.08, 
			 "cosmo_repulsion_energy": 2.0, 
			 "cosmo_total_nonelectrostatic_energy": 12.86, 
			 "SMD_solvation_energy": 7.61 
		},
		"coords": [
			{
				"x": 1.3703031424,
				"y": 3.4742348854,
				"z": -1.2889072793,
				"element": "C" 
			},
			{
				"x": 2.1730696587,
				"y": 2.1709043563,
				"z": -1.3107312464,
				"element": "C" 
			},
			{
				"x": 1.4119763389,
				"y": 0.9669527159,
				"z": -1.893069621,
				"element": "C" 
			},
			{
				"x": 0.2439938111,
				"y": 0.5661298178,
				"z": -1.1127935068,
				"element": "N" 
			},
			{
				"x": -1.077461336,
				"y": 0.7979951847,
				"z": -1.4232842166,
				"element": "C" 
			},
			{
				"x": -1.4961430515,
				"y": 1.474360537,
				"z": -2.6890330625,
				"element": "C" 
			},
			{
				"x": -1.8819656862,
				"y": 0.2625136754,
				"z": -0.4193825003,
				"element": "C" 
			},
			{
				"x": -3.3527255791,
				"y": 0.2628793454,
				"z": -0.4358956526,
				"element": "C" 
			},
			{
				"x": -3.9461568576,
				"y": -0.701284974,
				"z": 0.3347753839,
				"element": "O" 
			},
			{
				"x": -4.0573673459,
				"y": 1.0250130284,
				"z": -1.0657898846,
				"element": "O" 
			},
			{
				"x": -1.0026482698,
				"y": -0.3105344016,
				"z": 0.5748342896,
				"element": "C" 
			},
			{
				"x": 0.315544358,
				"y": -0.1119807209,
				"z": 0.1027802923,
				"element": "C" 
			},
			{
				"x": 1.4301005917,
				"y": -0.5664898468,
				"z": 0.8171291012,
				"element": "C" 
			},
			{
				"x": 1.2144532052,
				"y": -1.2107423996,
				"z": 2.0252786071,
				"element": "C" 
			},
			{
				"x": -0.0926861292,
				"y": -1.3868823549,
				"z": 2.5331588483,
				"element": "C" 
			},
			{
				"x": -0.1529806492,
				"y": -2.0083684874,
				"z": 3.7498596912,
				"element": "O" 
			},
			{
				"x": -1.427958339,
				"y": -2.2162911504,
				"z": 4.3329673326,
				"element": "C" 
			},
			{
				"x": -1.2048844998,
				"y": -0.9396280387,
				"z": 1.8217464399,
				"element": "C" 
			},
			{
				"x": 1.9616958725,
				"y": 4.286119919,
				"z": -0.854920246,
				"element": "H" 
			},
			{
				"x": 1.0794350365,
				"y": 3.7815822847,
				"z": -2.2998217287,
				"element": "H" 
			},
			{
				"x": 0.4597355723,
				"y": 3.3726331453,
				"z": -0.6902996657,
				"element": "H" 
			},
			{
				"x": 3.0812440251,
				"y": 2.3016117036,
				"z": -1.9128312805,
				"element": "H" 
			},
			{
				"x": 2.5070624638,
				"y": 1.9270157523,
				"z": -0.2960005825,
				"element": "H" 
			},
			{
				"x": 1.0761135115,
				"y": 1.1898220767,
				"z": -2.9086875085,
				"element": "H" 
			},
			{
				"x": 2.0814963457,
				"y": 0.1018809973,
				"z": -1.9622397954,
				"element": "H" 
			},
			{
				"x": -2.58318362,
				"y": 1.5402214033,
				"z": -2.7078989058,
				"element": "H" 
			},
			{
				"x": -1.0922973639,
				"y": 2.4902628361,
				"z": -2.7559457025,
				"element": "H" 
			},
			{
				"x": -1.1530942449,
				"y": 0.9227243255,
				"z": -3.5730630491,
				"element": "H" 
			},
			{
				"x": -3.2791405866,
				"y": -1.3487989016,
				"z": 0.6043946658,
				"element": "H" 
			},
			{
				"x": 2.440917815,
				"y": -0.4243748656,
				"z": 0.4487920751,
				"element": "H" 
			},
			{
				"x": 2.0440497905,
				"y": -1.5816393567,
				"z": 2.6171376805,
				"element": "H" 
			},
			{
				"x": -1.2481498809,
				"y": -2.7269848527,
				"z": 5.2802586975,
				"element": "H" 
			},
			{
				"x": -2.0661574198,
				"y": -2.8467099594,
				"z": 3.6993786983,
				"element": "H" 
			},
			{
				"x": -1.9454927899,
				"y": -1.2676866939,
				"z": 4.5275204826,
				"element": "H" 
			},
			{
				"x": -2.1998978896,
				"y": -1.0262609859,
				"z": 2.2412831489,
				"element": "H" 
			}
		],
		 "valence_orbital": [ 
			{
				"type": "occ",
				"energy": -0.29647,
				"method": "rhf"
			},
			{
				"type": "occ",
				"energy": -0.28106,
				"method": "rhf"
			},
			{
				"type": "occ",
				"energy": -0.25633,
				"method": "rhf"
			},
			{
				"type": "occ",
				"energy": -0.21255,
				"method": "rhf"
			},
			{
				"type": "occ",
				"energy": -0.20864,
				"method": "rhf"
			},
			{
				"type": "unocc",
				"energy": -0.02598,
				"method": "rhf"
			},
			{
				"type": "unocc",
				"energy": -7e-05,
				"method": "rhf"
			},
			{
				"type": "unocc",
				"energy": 0.02164,
				"method": "rhf"
			},
			{
				"type": "unocc",
				"energy": 0.07197,
				"method": "rhf"
			},
			{
				"type": "unocc",
				"energy": 0.08308,
				"method": "rhf"
			}
		],
		"cosmo_sigma_profile": { 
			"-0.025": 0.0,
			"-0.024": 0.0,
			"-0.023": 0.0,
			"-0.022": 0.0,
			"-0.021": 0.0,
			"-0.02": 0.0,
			"-0.019": 0.0,
			"-0.018": 0.0,
			"-0.017": 0.0,
			"-0.016": 0.0,
			"-0.015": 0.366701507363,
			"-0.014": 0.767554704851,
			"-0.013": 0.863665256747,
			"-0.012": 0.690496708549,
			"-0.011": 1.03020932347,
			"-0.01": 1.44570239347,
			"-0.009": 0.993078034509,
			"-0.008": 0.931795360881,
			"-0.007": 2.19215975695,
			"-0.006": 14.2109187874,
			"-0.005": 23.8324861787,
			"-0.004": 27.2591312387,
			"-0.003": 32.4706348091,
			"-0.002": 25.7578210084,
			"-0.001": 28.3527234877,
			"0.0": 23.3727825349,
			"0.001": 16.0374359779,
			"0.002": 10.9143404904,
			"0.003": 12.5085859439,
			"0.004": 15.7800094531,
			"0.005": 13.9085866823,
			"0.006": 6.01791151603,
			"0.007": 3.76241702972,
			"0.008": 3.46606323089,
			"0.009": 4.24406506478,
			"0.01": 5.04598656416,
			"0.011": 5.12092802903,
			"0.012": 5.34829004141,
			"0.013": 3.61844470252,
			"0.014": 1.59771125047,
			"0.015": 0.0946077707396,
			"0.016": 0.0,
			"0.017": 0.0,
			"0.018": 0.0,
			"0.019": 0.0,
			"0.02": 0.0,
			"0.021": 0.0,
			"0.022": 0.0,
			"0.023": 0.0,
			"0.024": 0.0,
			"0.025": 0.0
		}
	}
}
