{
	 "smiles": "COC(=O)C1=C(N)C(=C(SC)S1)S(=O)(=O)C(C)C", 
	 "Tm": 426.15, 
	 "num_atms": 33, 
	 "gaussian": { 
		 "optdone": 1, 
		 "sigma_profile": "yes", 
		 "theory": "DFT", 
		 "functional": "B3LYP", 
		 "basiset": "6-31G**", 
		 "properties": { 
			 "R2extent": 6730.962, 
			 "electric_dipole_moment_norm": 2.43813144436, 
			 "electric_quadrupole_moment_norm": 13.8387784927, 
			 "total_energy": -1940.26524519, 
			 "HOMO_LUMO_gap": 0.14759, 
			 "cosmo_polarized_energy": -13.55, 
			 "cosmo_cavitation_energy": 38.85, 
			 "cosmo_dispersion_energy": -28.66, 
			 "cosmo_repulsion_energy": 2.1, 
			 "cosmo_total_nonelectrostatic_energy": 12.29, 
			 "SMD_solvation_energy": 7.25 
		},
		"coords": [
			{
				"x": 1.825717403,
				"y": 3.6825403067,
				"z": 4.4273978149,
				"element": "C" 
			},
			{
				"x": 1.9889588881,
				"y": 2.7298787872,
				"z": 3.3659009329,
				"element": "O" 
			},
			{
				"x": 0.8703484084,
				"y": 2.4482278701,
				"z": 2.656401669,
				"element": "C" 
			},
			{
				"x": -0.2173291498,
				"y": 2.9669293478,
				"z": 2.8910353049,
				"element": "O" 
			},
			{
				"x": 1.1075078677,
				"y": 1.473640875,
				"z": 1.6115303529,
				"element": "C" 
			},
			{
				"x": 0.1224987068,
				"y": 0.9908868573,
				"z": 0.7413649746,
				"element": "C" 
			},
			{
				"x": -1.158657731,
				"y": 1.43644346,
				"z": 0.7385751314,
				"element": "N" 
			},
			{
				"x": 0.6706492657,
				"y": -0.0012827313,
				"z": -0.1649142381,
				"element": "C" 
			},
			{
				"x": 2.0180113989,
				"y": -0.2599898874,
				"z": 0.0537765683,
				"element": "C" 
			},
			{
				"x": 3.1729446488,
				"y": -1.3291610289,
				"z": -0.7668093646,
				"element": "S" 
			},
			{
				"x": 2.7260037148,
				"y": -2.971766718,
				"z": -0.0768253228,
				"element": "C" 
			},
			{
				"x": 2.6507700498,
				"y": 0.70992601,
				"z": 1.3388197278,
				"element": "S" 
			},
			{
				"x": -0.3421706798,
				"y": -0.7948749536,
				"z": -1.4238113199,
				"element": "S" 
			},
			{
				"x": 0.196160159,
				"y": -2.1315485845,
				"z": -1.7204328066,
				"element": "O" 
			},
			{
				"x": -1.7465834411,
				"y": -0.6752143641,
				"z": -0.9680236809,
				"element": "O" 
			},
			{
				"x": -0.1982481215,
				"y": 0.2150597099,
				"z": -2.959452557,
				"element": "C" 
			},
			{
				"x": -0.7354316696,
				"y": 1.6306666748,
				"z": -2.7494244003,
				"element": "C" 
			},
			{
				"x": 1.2144785001,
				"y": 0.1712282819,
				"z": -3.5377234834,
				"element": "C" 
			},
			{
				"x": 2.8122810587,
				"y": 3.7900237902,
				"z": 4.8777585605,
				"element": "H" 
			},
			{
				"x": 1.1054483793,
				"y": 3.3190168463,
				"z": 5.1646215111,
				"element": "H" 
			},
			{
				"x": 1.476429215,
				"y": 4.6410033915,
				"z": 4.035349307,
				"element": "H" 
			},
			{
				"x": -1.405943501,
				"y": 2.0422952041,
				"z": 1.5123385786,
				"element": "H" 
			},
			{
				"x": -1.8520316383,
				"y": 0.8449480864,
				"z": 0.2988397931,
				"element": "H" 
			},
			{
				"x": 3.4570664804,
				"y": -3.6676065581,
				"z": -0.4957708541,
				"element": "H" 
			},
			{
				"x": 2.8152564093,
				"y": -2.964173801,
				"z": 1.0107769281,
				"element": "H" 
			},
			{
				"x": 1.7215971047,
				"y": -3.2427179204,
				"z": -0.3981264154,
				"element": "H" 
			},
			{
				"x": -0.8827748748,
				"y": -0.3510300342,
				"z": -3.6044878058,
				"element": "H" 
			},
			{
				"x": -0.0991807707,
				"y": 2.2036382984,
				"z": -2.0685468784,
				"element": "H" 
			},
			{
				"x": -1.7516273151,
				"y": 1.6210928176,
				"z": -2.3519004819,
				"element": "H" 
			},
			{
				"x": -0.7466162718,
				"y": 2.1494270761,
				"z": -3.7132861172,
				"element": "H" 
			},
			{
				"x": 1.2049272707,
				"y": 0.6430605593,
				"z": -4.5256414688,
				"element": "H" 
			},
			{
				"x": 1.9182969892,
				"y": 0.7247909192,
				"z": -2.9095354936,
				"element": "H" 
			},
			{
				"x": 1.5739432459,
				"y": -0.8534585883,
				"z": -3.6426744663,
				"element": "H" 
			}
		],
		 "valence_orbital": [ 
			{
				"type": "occ",
				"energy": -0.28891,
				"method": "rhf"
			},
			{
				"type": "occ",
				"energy": -0.28298,
				"method": "rhf"
			},
			{
				"type": "occ",
				"energy": -0.26983,
				"method": "rhf"
			},
			{
				"type": "occ",
				"energy": -0.24074,
				"method": "rhf"
			},
			{
				"type": "occ",
				"energy": -0.21588,
				"method": "rhf"
			},
			{
				"type": "unocc",
				"energy": -0.06829,
				"method": "rhf"
			},
			{
				"type": "unocc",
				"energy": -0.00647,
				"method": "rhf"
			},
			{
				"type": "unocc",
				"energy": 0.01123,
				"method": "rhf"
			},
			{
				"type": "unocc",
				"energy": 0.03029,
				"method": "rhf"
			},
			{
				"type": "unocc",
				"energy": 0.0562,
				"method": "rhf"
			}
		],
		"cosmo_sigma_profile": { 
			"-0.025": 0.0,
			"-0.024": 0.0,
			"-0.023": 0.0,
			"-0.022": 0.0,
			"-0.021": 0.0,
			"-0.02": 0.0,
			"-0.019": 0.0,
			"-0.018": 0.0,
			"-0.017": 0.0,
			"-0.016": 0.0,
			"-0.015": 0.0,
			"-0.014": 0.0,
			"-0.013": 0.0,
			"-0.012": 0.0,
			"-0.011": 0.0,
			"-0.01": 0.47780543835,
			"-0.009": 2.16791243913,
			"-0.008": 2.78190569077,
			"-0.007": 6.38782617383,
			"-0.006": 13.7075582204,
			"-0.005": 22.1810822907,
			"-0.004": 27.1391696686,
			"-0.003": 27.3054986688,
			"-0.002": 29.5520692201,
			"-0.001": 34.5146305832,
			"0.0": 26.6207259862,
			"0.001": 23.641676631,
			"0.002": 18.21136348,
			"0.003": 13.6654677672,
			"0.004": 11.3758021611,
			"0.005": 8.84635738319,
			"0.006": 7.88612320557,
			"0.007": 5.85066516668,
			"0.008": 4.56762010129,
			"0.009": 6.1696268115,
			"0.01": 6.07806665183,
			"0.011": 6.9655030891,
			"0.012": 4.89486179169,
			"0.013": 0.0879654938044,
			"0.014": 0.0,
			"0.015": 0.0,
			"0.016": 0.0,
			"0.017": 0.0,
			"0.018": 0.0,
			"0.019": 0.0,
			"0.02": 0.0,
			"0.021": 0.0,
			"0.022": 0.0,
			"0.023": 0.0,
			"0.024": 0.0,
			"0.025": 0.0
		}
	}
}
