{
	 "smiles": "COC1=C(C=C(C=CC(O)=O)C=C1)S(Cl)(=O)=O", 
	 "Tm": 458.15, 
	 "num_atms": 26, 
	 "gaussian": { 
		 "optdone": 1, 
		 "sigma_profile": "yes", 
		 "theory": "DFT", 
		 "functional": "B3LYP", 
		 "basiset": "6-31G**", 
		 "properties": { 
			 "R2extent": 7912.1408, 
			 "electric_dipole_moment_norm": 5.25836092333, 
			 "electric_quadrupole_moment_norm": 21.6797075439, 
			 "total_energy": -1620.90592767, 
			 "HOMO_LUMO_gap": 0.15773, 
			 "cosmo_polarized_energy": -19.12, 
			 "cosmo_cavitation_energy": 35.21, 
			 "cosmo_dispersion_energy": -25.38, 
			 "cosmo_repulsion_energy": 1.94, 
			 "cosmo_total_nonelectrostatic_energy": 11.77, 
			 "SMD_solvation_energy": 6.93 
		},
		"coords": [
			{
				"x": 2.2825485663,
				"y": -1.4830640763,
				"z": 2.3090553568,
				"element": "C" 
			},
			{
				"x": 1.8315251835,
				"y": -1.565652736,
				"z": 0.9584126333,
				"element": "O" 
			},
			{
				"x": 0.5267474337,
				"y": -1.3986823045,
				"z": 0.6897482545,
				"element": "C" 
			},
			{
				"x": 0.1271525582,
				"y": -1.4896548874,
				"z": -0.6650195198,
				"element": "C" 
			},
			{
				"x": -1.1929414432,
				"y": -1.3053256188,
				"z": -1.0524878615,
				"element": "C" 
			},
			{
				"x": -2.1867204047,
				"y": -1.032809979,
				"z": -0.0957747078,
				"element": "C" 
			},
			{
				"x": -3.5929171619,
				"y": -0.835418742,
				"z": -0.4381912131,
				"element": "C" 
			},
			{
				"x": -4.158929166,
				"y": -0.8796941368,
				"z": -1.6576921228,
				"element": "C" 
			},
			{
				"x": -5.6105823387,
				"y": -0.6503903753,
				"z": -1.7959614639,
				"element": "C" 
			},
			{
				"x": -6.0039280875,
				"y": -0.7323819871,
				"z": -3.0918860547,
				"element": "O" 
			},
			{
				"x": -6.3886043251,
				"y": -0.4153289376,
				"z": -0.890250064,
				"element": "O" 
			},
			{
				"x": -1.7864010978,
				"y": -0.9512085741,
				"z": 1.249008145,
				"element": "C" 
			},
			{
				"x": -0.4635117846,
				"y": -1.1261997642,
				"z": 1.6431916687,
				"element": "C" 
			},
			{
				"x": 1.3004126737,
				"y": -1.9037561926,
				"z": -1.9529353403,
				"element": "S" 
			},
			{
				"x": 2.5302566545,
				"y": -0.165570226,
				"z": -1.9899009056,
				"element": "Cl" 
			},
			{
				"x": 2.149826407,
				"y": -3.0135091825,
				"z": -1.5467098685,
				"element": "O" 
			},
			{
				"x": 0.5888423456,
				"y": -1.9165294757,
				"z": -3.2264011432,
				"element": "O" 
			},
			{
				"x": 2.0855151572,
				"y": -0.4916274158,
				"z": 2.7321592538,
				"element": "H" 
			},
			{
				"x": 3.357350807,
				"y": -1.6557784291,
				"z": 2.2672096693,
				"element": "H" 
			},
			{
				"x": 1.8110385085,
				"y": -2.2526760729,
				"z": 2.9302693003,
				"element": "H" 
			},
			{
				"x": -1.4346430102,
				"y": -1.3797255408,
				"z": -2.1059752829,
				"element": "H" 
			},
			{
				"x": -4.2622426808,
				"y": -0.6273682297,
				"z": 0.3952964932,
				"element": "H" 
			},
			{
				"x": -3.6049507096,
				"y": -1.077981716,
				"z": -2.5692650508,
				"element": "H" 
			},
			{
				"x": -6.9619050052,
				"y": -0.5705805099,
				"z": -3.0919613117,
				"element": "H" 
			},
			{
				"x": -2.5347462262,
				"y": -0.741029052,
				"z": 2.0081636859,
				"element": "H" 
			},
			{
				"x": -0.2031928537,
				"y": -1.0483558377,
				"z": 2.6913974493,
				"element": "H" 
			}
		],
		 "valence_orbital": [ 
			{
				"type": "occ",
				"energy": -0.31017,
				"method": "rhf"
			},
			{
				"type": "occ",
				"energy": -0.30487,
				"method": "rhf"
			},
			{
				"type": "occ",
				"energy": -0.29617,
				"method": "rhf"
			},
			{
				"type": "occ",
				"energy": -0.27944,
				"method": "rhf"
			},
			{
				"type": "occ",
				"energy": -0.24384,
				"method": "rhf"
			},
			{
				"type": "unocc",
				"energy": -0.08611,
				"method": "rhf"
			},
			{
				"type": "unocc",
				"energy": -0.07932,
				"method": "rhf"
			},
			{
				"type": "unocc",
				"energy": -0.04874,
				"method": "rhf"
			},
			{
				"type": "unocc",
				"energy": 0.00072,
				"method": "rhf"
			},
			{
				"type": "unocc",
				"energy": 0.04388,
				"method": "rhf"
			}
		],
		"cosmo_sigma_profile": { 
			"-0.025": 0.0,
			"-0.024": 0.0,
			"-0.023": 0.0,
			"-0.022": 0.0,
			"-0.021": 0.0,
			"-0.02": 0.0,
			"-0.019": 0.0519502518945,
			"-0.018": 0.688817099567,
			"-0.017": 0.955986274642,
			"-0.016": 0.88624842733,
			"-0.015": 0.386780309496,
			"-0.014": 0.847992655131,
			"-0.013": 0.758238500291,
			"-0.012": 0.501536380496,
			"-0.011": 0.834722628609,
			"-0.01": 1.6232513417,
			"-0.009": 4.3740982346,
			"-0.008": 9.18651566602,
			"-0.007": 14.8097352002,
			"-0.006": 16.4933991337,
			"-0.005": 13.2586975276,
			"-0.004": 15.6119876124,
			"-0.003": 13.9111791906,
			"-0.002": 16.376535591,
			"-0.001": 21.2485811228,
			"0.0": 22.3867165606,
			"0.001": 23.7329193161,
			"0.002": 15.9017831049,
			"0.003": 16.6630372112,
			"0.004": 13.1375171879,
			"0.005": 8.98727944542,
			"0.006": 7.12887535305,
			"0.007": 7.51220760221,
			"0.008": 13.6254338919,
			"0.009": 10.4955720204,
			"0.01": 2.84323966293,
			"0.011": 3.07594743495,
			"0.012": 5.30647156947,
			"0.013": 0.980218298029,
			"0.014": 0.0,
			"0.015": 0.0,
			"0.016": 0.0,
			"0.017": 0.0,
			"0.018": 0.0,
			"0.019": 0.0,
			"0.02": 0.0,
			"0.021": 0.0,
			"0.022": 0.0,
			"0.023": 0.0,
			"0.024": 0.0,
			"0.025": 0.0
		}
	}
}
