{
	 "smiles": "SC1=NN(C(=O)N1)C1=CC=CC=C1", 
	 "Tm": 461.15, 
	 "num_atms": 20, 
	 "gaussian": { 
		 "optdone": 1, 
		 "sigma_profile": "yes", 
		 "theory": "DFT", 
		 "functional": "B3LYP", 
		 "basiset": "6-31G**", 
		 "properties": { 
			 "R2extent": 3521.9018, 
			 "electric_dipole_moment_norm": 2.8599248574, 
			 "electric_quadrupole_moment_norm": 15.0906901194, 
			 "total_energy": -946.72853688, 
			 "HOMO_LUMO_gap": 0.1952, 
			 "cosmo_polarized_energy": -13.72, 
			 "cosmo_cavitation_energy": 26.46, 
			 "cosmo_dispersion_energy": -20.49, 
			 "cosmo_repulsion_energy": 1.57, 
			 "cosmo_total_nonelectrostatic_energy": 7.54, 
			 "SMD_solvation_energy": 4.21 
		},
		"coords": [
			{
				"x": -4.5566535167,
				"y": 1.2690238414,
				"z": 1.2468390883,
				"element": "S" 
			},
			{
				"x": -2.9085619879,
				"y": 0.6430458092,
				"z": 1.3099334363,
				"element": "C" 
			},
			{
				"x": -2.0718570866,
				"y": 0.6129241351,
				"z": 0.3195872686,
				"element": "N" 
			},
			{
				"x": -0.9159522595,
				"y": 0.039067407,
				"z": 0.8432557095,
				"element": "N" 
			},
			{
				"x": -1.0546707583,
				"y": -0.288562565,
				"z": 2.1897644799,
				"element": "C" 
			},
			{
				"x": -0.2712090487,
				"y": -0.7978277498,
				"z": 2.9724949744,
				"element": "O" 
			},
			{
				"x": -2.3697407559,
				"y": 0.1213038048,
				"z": 2.4576539789,
				"element": "N" 
			},
			{
				"x": 0.2190792381,
				"y": -0.1454448613,
				"z": 0.0109887168,
				"element": "C" 
			},
			{
				"x": 0.1511717744,
				"y": 0.2568251335,
				"z": -1.3296537543,
				"element": "C" 
			},
			{
				"x": 1.2583986245,
				"y": 0.0811081377,
				"z": -2.1566052743,
				"element": "C" 
			},
			{
				"x": 2.4327809873,
				"y": -0.4906803196,
				"z": -1.6639990008,
				"element": "C" 
			},
			{
				"x": 2.4884933443,
				"y": -0.8872963227,
				"z": -0.3274815578,
				"element": "C" 
			},
			{
				"x": 1.3926613144,
				"y": -0.7212982014,
				"z": 0.5191330752,
				"element": "C" 
			},
			{
				"x": -4.4685090266,
				"y": 1.6025337863,
				"z": -0.0547997499,
				"element": "H" 
			},
			{
				"x": -2.7969494074,
				"y": 0.0235891521,
				"z": 3.3653115852,
				"element": "H" 
			},
			{
				"x": -0.7617753255,
				"y": 0.6996306638,
				"z": -1.7064983933,
				"element": "H" 
			},
			{
				"x": 1.1979637493,
				"y": 0.3954951811,
				"z": -3.1946743093,
				"element": "H" 
			},
			{
				"x": 3.292484467,
				"y": -0.6250484552,
				"z": -2.3134149826,
				"element": "H" 
			},
			{
				"x": 3.395245941,
				"y": -1.3337664884,
				"z": 0.0705803485,
				"element": "H" 
			},
			{
				"x": 1.4356997327,
				"y": -1.0286220884,
				"z": 1.5550843606,
				"element": "H" 
			}
		],
		 "valence_orbital": [ 
			{
				"type": "occ",
				"energy": -0.29365,
				"method": "rhf"
			},
			{
				"type": "occ",
				"energy": -0.27345,
				"method": "rhf"
			},
			{
				"type": "occ",
				"energy": -0.26022,
				"method": "rhf"
			},
			{
				"type": "occ",
				"energy": -0.24798,
				"method": "rhf"
			},
			{
				"type": "occ",
				"energy": -0.21048,
				"method": "rhf"
			},
			{
				"type": "unocc",
				"energy": -0.01528,
				"method": "rhf"
			},
			{
				"type": "unocc",
				"energy": -0.0148,
				"method": "rhf"
			},
			{
				"type": "unocc",
				"energy": 0.00056,
				"method": "rhf"
			},
			{
				"type": "unocc",
				"energy": 0.01952,
				"method": "rhf"
			},
			{
				"type": "unocc",
				"energy": 0.04727,
				"method": "rhf"
			}
		],
		"cosmo_sigma_profile": { 
			"-0.025": 0.0,
			"-0.024": 0.0,
			"-0.023": 0.0,
			"-0.022": 0.0,
			"-0.021": 0.0,
			"-0.02": 0.0,
			"-0.019": 0.0,
			"-0.018": 0.852257973205,
			"-0.017": 1.78974375558,
			"-0.016": 1.16412117301,
			"-0.015": 1.29891620049,
			"-0.014": 0.733627097145,
			"-0.013": 2.21907545312,
			"-0.012": 2.67969936402,
			"-0.011": 2.18361609161,
			"-0.01": 1.76302663104,
			"-0.009": 2.66275681634,
			"-0.008": 1.49666866473,
			"-0.007": 3.30277748051,
			"-0.006": 5.64531398251,
			"-0.005": 10.1009444186,
			"-0.004": 14.2051679018,
			"-0.003": 13.5906425709,
			"-0.002": 15.664795083,
			"-0.001": 14.4597537612,
			"0.0": 12.710505447,
			"0.001": 15.5293527758,
			"0.002": 16.8243355285,
			"0.003": 15.5335568947,
			"0.004": 17.1700385199,
			"0.005": 14.5464352769,
			"0.006": 8.47280096542,
			"0.007": 3.11297664003,
			"0.008": 3.36876486334,
			"0.009": 1.67622409955,
			"0.01": 1.62511034236,
			"0.011": 2.49340000042,
			"0.012": 3.64773567238,
			"0.013": 3.03464049522,
			"0.014": 0.155068109611,
			"0.015": 0.0,
			"0.016": 0.0,
			"0.017": 0.0,
			"0.018": 0.0,
			"0.019": 0.0,
			"0.02": 0.0,
			"0.021": 0.0,
			"0.022": 0.0,
			"0.023": 0.0,
			"0.024": 0.0,
			"0.025": 0.0
		}
	}
}
