{
	 "smiles": "CC(C)C1=CC(O)=CC=C1", 
	 "Tm": 299.15, 
	 "num_atms": 22, 
	 "gaussian": { 
		 "optdone": 1, 
		 "sigma_profile": "yes", 
		 "theory": "DFT", 
		 "functional": "B3LYP", 
		 "basiset": "6-31G**", 
		 "properties": { 
			 "R2extent": 1913.5998, 
			 "electric_dipole_moment_norm": 1.5615585964, 
			 "electric_quadrupole_moment_norm": 7.2777382668, 
			 "total_energy": -425.423151985, 
			 "HOMO_LUMO_gap": 0.2192, 
			 "cosmo_polarized_energy": -7.75, 
			 "cosmo_cavitation_energy": 24.62, 
			 "cosmo_dispersion_energy": -17.82, 
			 "cosmo_repulsion_energy": 1.46, 
			 "cosmo_total_nonelectrostatic_energy": 8.26, 
			 "SMD_solvation_energy": 4.67 
		},
		"coords": [
			{
				"x": 1.7096479193,
				"y": 3.0175870778,
				"z": -0.0783377205,
				"element": "C" 
			},
			{
				"x": 0.895284582,
				"y": 2.2707324644,
				"z": 0.9947753198,
				"element": "C" 
			},
			{
				"x": 1.4865278549,
				"y": 2.5014503527,
				"z": 2.3982416167,
				"element": "C" 
			},
			{
				"x": 0.761732894,
				"y": 0.7871585965,
				"z": 0.6735026683,
				"element": "C" 
			},
			{
				"x": -0.5014426828,
				"y": 0.230145844,
				"z": 0.4434413368,
				"element": "C" 
			},
			{
				"x": -0.6470490944,
				"y": -1.129492549,
				"z": 0.1467669433,
				"element": "C" 
			},
			{
				"x": -1.8682057022,
				"y": -1.7018160763,
				"z": -0.0826983606,
				"element": "O" 
			},
			{
				"x": 0.4773997669,
				"y": -1.9563562258,
				"z": 0.0757341783,
				"element": "C" 
			},
			{
				"x": 1.7363218588,
				"y": -1.404961973,
				"z": 0.304244875,
				"element": "C" 
			},
			{
				"x": 1.8849734809,
				"y": -0.0490204374,
				"z": 0.6004168131,
				"element": "C" 
			},
			{
				"x": 1.2719720575,
				"y": 2.8838413629,
				"z": -1.0724653708,
				"element": "H" 
			},
			{
				"x": 1.7432152048,
				"y": 4.0909209536,
				"z": 0.1390777818,
				"element": "H" 
			},
			{
				"x": 2.742090401,
				"y": 2.6538726181,
				"z": -0.1174701125,
				"element": "H" 
			},
			{
				"x": -0.1178369456,
				"y": 2.6945388148,
				"z": 0.9917936738,
				"element": "H" 
			},
			{
				"x": 1.5186972067,
				"y": 3.571109571,
				"z": 2.6332593453,
				"element": "H" 
			},
			{
				"x": 2.5092316473,
				"y": 2.1152129024,
				"z": 2.4662688655,
				"element": "H" 
			},
			{
				"x": 0.8899673222,
				"y": 2.0005000354,
				"z": 3.1669414427,
				"element": "H" 
			},
			{
				"x": -1.385612636,
				"y": 0.8647058219,
				"z": 0.4960775496,
				"element": "H" 
			},
			{
				"x": -2.5520979278,
				"y": -1.024379581,
				"z": -0.0030318676,
				"element": "H" 
			},
			{
				"x": 0.3473617041,
				"y": -3.0082514802,
				"z": -0.155352047,
				"element": "H" 
			},
			{
				"x": 2.6138739864,
				"y": -2.0434986123,
				"z": 0.2501955698,
				"element": "H" 
			},
			{
				"x": 2.8774471018,
				"y": 0.3560005196,
				"z": 0.7743174995,
				"element": "H" 
			}
		],
		 "valence_orbital": [ 
			{
				"type": "occ",
				"energy": -0.32437,
				"method": "rhf"
			},
			{
				"type": "occ",
				"energy": -0.3185,
				"method": "rhf"
			},
			{
				"type": "occ",
				"energy": -0.31807,
				"method": "rhf"
			},
			{
				"type": "occ",
				"energy": -0.24152,
				"method": "rhf"
			},
			{
				"type": "occ",
				"energy": -0.21475,
				"method": "rhf"
			},
			{
				"type": "unocc",
				"energy": 0.00445,
				"method": "rhf"
			},
			{
				"type": "unocc",
				"energy": 0.01691,
				"method": "rhf"
			},
			{
				"type": "unocc",
				"energy": 0.07382,
				"method": "rhf"
			},
			{
				"type": "unocc",
				"energy": 0.08843,
				"method": "rhf"
			},
			{
				"type": "unocc",
				"energy": 0.11447,
				"method": "rhf"
			}
		],
		"cosmo_sigma_profile": { 
			"-0.025": 0.0,
			"-0.024": 0.0,
			"-0.023": 0.0,
			"-0.022": 0.0,
			"-0.021": 0.0,
			"-0.02": 0.0,
			"-0.019": 0.0,
			"-0.018": 0.0683567112231,
			"-0.017": 0.881896836834,
			"-0.016": 1.1772462705,
			"-0.015": 0.964420527422,
			"-0.014": 1.23859238501,
			"-0.013": 1.02790438405,
			"-0.012": 0.600561540117,
			"-0.011": 0.470179805903,
			"-0.01": 1.10015861581,
			"-0.009": 1.66770646725,
			"-0.008": 0.813532907572,
			"-0.007": 0.892080720933,
			"-0.006": 2.55464673109,
			"-0.005": 7.01983734333,
			"-0.004": 10.4965080995,
			"-0.003": 16.9726376929,
			"-0.002": 20.4599017196,
			"-0.001": 19.290177421,
			"0.0": 21.2027225238,
			"0.001": 21.1773139832,
			"0.002": 11.8565568232,
			"0.003": 7.72384607798,
			"0.004": 11.2092578999,
			"0.005": 9.74491966148,
			"0.006": 9.71660931521,
			"0.007": 4.75593739211,
			"0.008": 1.9458786637,
			"0.009": 1.00989274942,
			"0.01": 1.83278755412,
			"0.011": 1.83608802403,
			"0.012": 1.33842486081,
			"0.013": 0.0,
			"0.014": 0.0,
			"0.015": 0.0,
			"0.016": 0.0,
			"0.017": 0.0,
			"0.018": 0.0,
			"0.019": 0.0,
			"0.02": 0.0,
			"0.021": 0.0,
			"0.022": 0.0,
			"0.023": 0.0,
			"0.024": 0.0,
			"0.025": 0.0
		}
	}
}
