{
	 "smiles": "CCCCCCCCCCCCCC(C)=O", 
	 "Tm": 312.35, 
	 "num_atms": 46, 
	 "gaussian": { 
		 "optdone": 1, 
		 "sigma_profile": "yes", 
		 "theory": "DFT", 
		 "functional": "B3LYP", 
		 "basiset": "6-31G**", 
		 "properties": { 
			 "R2extent": 9684.5321, 
			 "electric_dipole_moment_norm": 2.53461577759, 
			 "electric_quadrupole_moment_norm": 19.2706449192, 
			 "total_energy": -664.941540449, 
			 "HOMO_LUMO_gap": 0.23278, 
			 "cosmo_polarized_energy": -6.99, 
			 "cosmo_cavitation_energy": 45.72, 
			 "cosmo_dispersion_energy": -31.19, 
			 "cosmo_repulsion_energy": 2.55, 
			 "cosmo_total_nonelectrostatic_energy": 17.07, 
			 "SMD_solvation_energy": 6.86 
		},
		"coords": [
			{
				"x": -2.1019045629,
				"y": -4.6447914697,
				"z": -3.5194764218,
				"element": "C" 
			},
			{
				"x": -2.5892032815,
				"y": -5.0132019569,
				"z": -2.1135143375,
				"element": "C" 
			},
			{
				"x": -3.3333743279,
				"y": -3.903477091,
				"z": -1.3487019242,
				"element": "C" 
			},
			{
				"x": -2.5069306619,
				"y": -2.6374789195,
				"z": -1.0245854627,
				"element": "C" 
			},
			{
				"x": -2.6342384742,
				"y": -1.5043598743,
				"z": -2.0569621612,
				"element": "C" 
			},
			{
				"x": -1.7441926844,
				"y": -0.2811921583,
				"z": -1.7777431573,
				"element": "C" 
			},
			{
				"x": -2.0978374869,
				"y": 0.4887198643,
				"z": -0.4959344067,
				"element": "C" 
			},
			{
				"x": -1.3241241068,
				"y": 1.8072083623,
				"z": -0.3151329267,
				"element": "C" 
			},
			{
				"x": 0.2023694716,
				"y": 1.6795571939,
				"z": -0.1648846803,
				"element": "C" 
			},
			{
				"x": 0.6615672484,
				"y": 0.9035984557,
				"z": 1.0773717884,
				"element": "C" 
			},
			{
				"x": 2.186164024,
				"y": 0.8847811782,
				"z": 1.2464712706,
				"element": "C" 
			},
			{
				"x": 2.64645301,
				"y": 0.1036792296,
				"z": 2.4846441842,
				"element": "C" 
			},
			{
				"x": 4.1676223969,
				"y": 0.0681539312,
				"z": 2.6601185261,
				"element": "C" 
			},
			{
				"x": 4.7838515571,
				"y": 1.3931825709,
				"z": 3.1012440606,
				"element": "C" 
			},
			{
				"x": 6.3002298822,
				"y": 1.4831563349,
				"z": 3.051298747,
				"element": "C" 
			},
			{
				"x": 4.1043705025,
				"y": 2.3274436087,
				"z": 3.4843692976,
				"element": "O" 
			},
			{
				"x": -1.344877336,
				"y": -3.8544708982,
				"z": -3.495141472,
				"element": "H" 
			},
			{
				"x": -1.6518196677,
				"y": -5.5113984297,
				"z": -4.0158158531,
				"element": "H" 
			},
			{
				"x": -2.9283855461,
				"y": -4.2947030253,
				"z": -4.1488194833,
				"element": "H" 
			},
			{
				"x": -3.2543370269,
				"y": -5.8837019314,
				"z": -2.1873865049,
				"element": "H" 
			},
			{
				"x": -1.7311250361,
				"y": -5.3417640283,
				"z": -1.5106901435,
				"element": "H" 
			},
			{
				"x": -3.6959473712,
				"y": -4.3404375426,
				"z": -0.4097963787,
				"element": "H" 
			},
			{
				"x": -4.2342064352,
				"y": -3.6156362063,
				"z": -1.9094057219,
				"element": "H" 
			},
			{
				"x": -2.8191381988,
				"y": -2.2543297258,
				"z": -0.0459228451,
				"element": "H" 
			},
			{
				"x": -1.4474856599,
				"y": -2.9116601055,
				"z": -0.9118316717,
				"element": "H" 
			},
			{
				"x": -3.6852015618,
				"y": -1.1834732702,
				"z": -2.1010504541,
				"element": "H" 
			},
			{
				"x": -2.3968309542,
				"y": -1.8890491322,
				"z": -3.0555349101,
				"element": "H" 
			},
			{
				"x": -0.6951628763,
				"y": -0.6057211793,
				"z": -1.7420823796,
				"element": "H" 
			},
			{
				"x": -1.8173122727,
				"y": 0.4080424076,
				"z": -2.6307046355,
				"element": "H" 
			},
			{
				"x": -1.9436904764,
				"y": -0.1513180516,
				"z": 0.3812851696,
				"element": "H" 
			},
			{
				"x": -3.1722194026,
				"y": 0.7196943417,
				"z": -0.5116120078,
				"element": "H" 
			},
			{
				"x": -1.7202769913,
				"y": 2.3285174076,
				"z": 0.5670977786,
				"element": "H" 
			},
			{
				"x": -1.5380638294,
				"y": 2.4596771578,
				"z": -1.1729707412,
				"element": "H" 
			},
			{
				"x": 0.6289862208,
				"y": 1.2121642285,
				"z": -1.0627090191,
				"element": "H" 
			},
			{
				"x": 0.6296663633,
				"y": 2.6906466664,
				"z": -0.1247724592,
				"element": "H" 
			},
			{
				"x": 0.2927402774,
				"y": -0.1302192027,
				"z": 1.0318527187,
				"element": "H" 
			},
			{
				"x": 0.2051006861,
				"y": 1.3504649968,
				"z": 1.9721749856,
				"element": "H" 
			},
			{
				"x": 2.5558348557,
				"y": 1.9148692609,
				"z": 1.3149252283,
				"element": "H" 
			},
			{
				"x": 2.6448858638,
				"y": 0.4452029604,
				"z": 0.3481851894,
				"element": "H" 
			},
			{
				"x": 2.2026747547,
				"y": 0.5515732413,
				"z": 3.3809520131,
				"element": "H" 
			},
			{
				"x": 2.2738760726,
				"y": -0.9269427456,
				"z": 2.4243661519,
				"element": "H" 
			},
			{
				"x": 4.6689230431,
				"y": -0.2660705267,
				"z": 1.7406212342,
				"element": "H" 
			},
			{
				"x": 4.4509665975,
				"y": -0.672270458,
				"z": 3.4235771209,
				"element": "H" 
			},
			{
				"x": 6.6339081514,
				"y": 1.4981306036,
				"z": 2.0064842895,
				"element": "H" 
			},
			{
				"x": 6.765493585,
				"y": 0.6095539302,
				"z": 3.521107174,
				"element": "H" 
			},
			{
				"x": 6.6341016652,
				"y": 2.3963499965,
				"z": 3.5460352311,
				"element": "H" 
			}
		],
		 "valence_orbital": [ 
			{
				"type": "occ",
				"energy": -0.30918,
				"method": "rhf"
			},
			{
				"type": "occ",
				"energy": -0.29945,
				"method": "rhf"
			},
			{
				"type": "occ",
				"energy": -0.29575,
				"method": "rhf"
			},
			{
				"type": "occ",
				"energy": -0.29406,
				"method": "rhf"
			},
			{
				"type": "occ",
				"energy": -0.24296,
				"method": "rhf"
			},
			{
				"type": "unocc",
				"energy": -0.01018,
				"method": "rhf"
			},
			{
				"type": "unocc",
				"energy": 0.08124,
				"method": "rhf"
			},
			{
				"type": "unocc",
				"energy": 0.08565,
				"method": "rhf"
			},
			{
				"type": "unocc",
				"energy": 0.09282,
				"method": "rhf"
			},
			{
				"type": "unocc",
				"energy": 0.10978,
				"method": "rhf"
			}
		],
		"cosmo_sigma_profile": { 
			"-0.025": 0.0,
			"-0.024": 0.0,
			"-0.023": 0.0,
			"-0.022": 0.0,
			"-0.021": 0.0,
			"-0.02": 0.0,
			"-0.019": 0.0,
			"-0.018": 0.0,
			"-0.017": 0.0,
			"-0.016": 0.0,
			"-0.015": 0.0,
			"-0.014": 0.0,
			"-0.013": 0.0,
			"-0.012": 0.0,
			"-0.011": 0.0,
			"-0.01": 0.0,
			"-0.009": 0.0,
			"-0.008": 0.0,
			"-0.007": 0.0200876483762,
			"-0.006": 5.67842319729,
			"-0.005": 10.7554121606,
			"-0.004": 10.0623671774,
			"-0.003": 12.3209191852,
			"-0.002": 39.5728799941,
			"-0.001": 79.7379388856,
			"0.0": 79.0651481245,
			"0.001": 61.451695276,
			"0.002": 27.5904944484,
			"0.003": 2.13100140803,
			"0.004": 1.61192476595,
			"0.005": 1.9746692232,
			"0.006": 1.7081257672,
			"0.007": 1.78345950412,
			"0.008": 1.54601806479,
			"0.009": 1.77563234586,
			"0.01": 2.20208385951,
			"0.011": 2.28581279885,
			"0.012": 3.82330086362,
			"0.013": 2.8302248938,
			"0.014": 0.329690117658,
			"0.015": 0.0,
			"0.016": 0.0,
			"0.017": 0.0,
			"0.018": 0.0,
			"0.019": 0.0,
			"0.02": 0.0,
			"0.021": 0.0,
			"0.022": 0.0,
			"0.023": 0.0,
			"0.024": 0.0,
			"0.025": 0.0
		}
	}
}
