{
	 "smiles": "NC1=NC=CN=C1Cl", 
	 "Tm": 442.15, 
	 "num_atms": 12, 
	 "gaussian": { 
		 "optdone": 1, 
		 "sigma_profile": "yes", 
		 "theory": "DFT", 
		 "functional": "B3LYP", 
		 "basiset": "6-31G**", 
		 "properties": { 
			 "R2extent": 2246.2805, 
			 "electric_dipole_moment_norm": 2.19608560853, 
			 "electric_quadrupole_moment_norm": 13.061668083, 
			 "total_energy": -779.279895371, 
			 "HOMO_LUMO_gap": 0.18296, 
			 "cosmo_polarized_energy": -8.68, 
			 "cosmo_cavitation_energy": 18.08, 
			 "cosmo_dispersion_energy": -14.1, 
			 "cosmo_repulsion_energy": 1.18, 
			 "cosmo_total_nonelectrostatic_energy": 5.15, 
			 "SMD_solvation_energy": 0.26 
		},
		"coords": [
			{
				"x": 1.6623928856,
				"y": 2.3227129279,
				"z": -0.3529251794,
				"element": "N" 
			},
			{
				"x": 0.5169063619,
				"y": 1.6669644103,
				"z": -0.6965117073,
				"element": "C" 
			},
			{
				"x": 0.2811937073,
				"y": 0.4725298895,
				"z": -0.1396908723,
				"element": "N" 
			},
			{
				"x": -0.869114539,
				"y": -0.1393774127,
				"z": -0.4483324876,
				"element": "C" 
			},
			{
				"x": -1.7989676485,
				"y": 0.4168670563,
				"z": -1.3173020553,
				"element": "C" 
			},
			{
				"x": -1.5641695319,
				"y": 1.6113604119,
				"z": -1.8927378657,
				"element": "N" 
			},
			{
				"x": -0.4455535444,
				"y": 2.2130555728,
				"z": -1.5911959925,
				"element": "C" 
			},
			{
				"x": -0.1174337946,
				"y": 3.7800375098,
				"z": -2.3462923044,
				"element": "Cl" 
			},
			{
				"x": 1.9784227766,
				"y": 3.0884244568,
				"z": -0.9261048176,
				"element": "H" 
			},
			{
				"x": 2.3546906249,
				"y": 1.7775862073,
				"z": 0.1377285228,
				"element": "H" 
			},
			{
				"x": -1.0441221517,
				"y": -1.1073171779,
				"z": 0.0158177997,
				"element": "H" 
			},
			{
				"x": -2.7308451461,
				"y": -0.0810438521,
				"z": -1.5664530403,
				"element": "H" 
			}
		],
		 "valence_orbital": [ 
			{
				"type": "occ",
				"energy": -0.33415,
				"method": "rhf"
			},
			{
				"type": "occ",
				"energy": -0.30707,
				"method": "rhf"
			},
			{
				"type": "occ",
				"energy": -0.3011,
				"method": "rhf"
			},
			{
				"type": "occ",
				"energy": -0.26353,
				"method": "rhf"
			},
			{
				"type": "occ",
				"energy": -0.23065,
				"method": "rhf"
			},
			{
				"type": "unocc",
				"energy": -0.04769,
				"method": "rhf"
			},
			{
				"type": "unocc",
				"energy": -0.01174,
				"method": "rhf"
			},
			{
				"type": "unocc",
				"energy": 0.02969,
				"method": "rhf"
			},
			{
				"type": "unocc",
				"energy": 0.08303,
				"method": "rhf"
			},
			{
				"type": "unocc",
				"energy": 0.11992,
				"method": "rhf"
			}
		],
		"cosmo_sigma_profile": { 
			"-0.025": 0.0,
			"-0.024": 0.0,
			"-0.023": 0.0,
			"-0.022": 0.0,
			"-0.021": 0.0,
			"-0.02": 0.0,
			"-0.019": 0.0,
			"-0.018": 0.0,
			"-0.017": 0.0,
			"-0.016": 0.0,
			"-0.015": 0.0102476954357,
			"-0.014": 1.04800683768,
			"-0.013": 1.88817690805,
			"-0.012": 2.03192292098,
			"-0.011": 1.85666775548,
			"-0.01": 2.50480740045,
			"-0.009": 1.57106308834,
			"-0.008": 3.30261000213,
			"-0.007": 6.02153197736,
			"-0.006": 6.04558869192,
			"-0.005": 5.29008170415,
			"-0.004": 4.35072028871,
			"-0.003": 6.73909530172,
			"-0.002": 10.3696511852,
			"-0.001": 10.9089046813,
			"0.0": 12.9566392618,
			"0.001": 13.2407655368,
			"0.002": 9.92911903379,
			"0.003": 9.56713274988,
			"0.004": 10.216355415,
			"0.005": 6.55704363887,
			"0.006": 4.99210118358,
			"0.007": 3.16883604026,
			"0.008": 2.68555313989,
			"0.009": 2.86711308929,
			"0.01": 1.68308009683,
			"0.011": 1.66123885093,
			"0.012": 1.70581268837,
			"0.013": 1.74030786387,
			"0.014": 0.627503821971,
			"0.015": 0.0,
			"0.016": 0.0,
			"0.017": 0.0,
			"0.018": 0.0,
			"0.019": 0.0,
			"0.02": 0.0,
			"0.021": 0.0,
			"0.022": 0.0,
			"0.023": 0.0,
			"0.024": 0.0,
			"0.025": 0.0
		}
	}
}
