{
	 "smiles": "COS(Cl)(=O)=O", 
	 "Tm": 203.15, 
	 "num_atms": 9, 
	 "gaussian": { 
		 "optdone": 1, 
		 "sigma_profile": "yes", 
		 "theory": "DFT", 
		 "functional": "B3LYP", 
		 "basiset": "6-31G**", 
		 "properties": { 
			 "R2extent": 972.3494, 
			 "electric_dipole_moment_norm": 3.09680558802, 
			 "electric_quadrupole_moment_norm": 11.4057796792, 
			 "total_energy": -1123.87312437, 
			 "HOMO_LUMO_gap": 0.23715, 
			 "cosmo_polarized_energy": -6.62, 
			 "cosmo_cavitation_energy": 16.58, 
			 "cosmo_dispersion_energy": -13.3, 
			 "cosmo_repulsion_energy": 1.1, 
			 "cosmo_total_nonelectrostatic_energy": 4.39, 
			 "SMD_solvation_energy": 2.1 
		},
		"coords": [
			{
				"x": 2.7076048065,
				"y": 0.147891309,
				"z": 1.8689954912,
				"element": "C" 
			},
			{
				"x": 1.4941748179,
				"y": -0.5490696656,
				"z": 1.460657983,
				"element": "O" 
			},
			{
				"x": 0.8439804659,
				"y": 0.0114782383,
				"z": 0.0808181297,
				"element": "S" 
			},
			{
				"x": -0.7385506484,
				"y": -1.3190461017,
				"z": 0.0706166527,
				"element": "Cl" 
			},
			{
				"x": 0.3233577835,
				"y": 1.3516681861,
				"z": 0.285282311,
				"element": "O" 
			},
			{
				"x": 1.7158398077,
				"y": -0.2944320501,
				"z": -1.0395605321,
				"element": "O" 
			},
			{
				"x": 2.4922178328,
				"y": 1.2029204644,
				"z": 2.0516790958,
				"element": "H" 
			},
			{
				"x": 3.482912311,
				"y": 0.0304438689,
				"z": 1.1087653065,
				"element": "H" 
			},
			{
				"x": 3.0029628231,
				"y": -0.3460542493,
				"z": 2.7935455623,
				"element": "H" 
			}
		],
		 "valence_orbital": [ 
			{
				"type": "occ",
				"energy": -0.37662,
				"method": "rhf"
			},
			{
				"type": "occ",
				"energy": -0.37607,
				"method": "rhf"
			},
			{
				"type": "occ",
				"energy": -0.34653,
				"method": "rhf"
			},
			{
				"type": "occ",
				"energy": -0.33266,
				"method": "rhf"
			},
			{
				"type": "occ",
				"energy": -0.32397,
				"method": "rhf"
			},
			{
				"type": "unocc",
				"energy": -0.08682,
				"method": "rhf"
			},
			{
				"type": "unocc",
				"energy": 0.02112,
				"method": "rhf"
			},
			{
				"type": "unocc",
				"energy": 0.04855,
				"method": "rhf"
			},
			{
				"type": "unocc",
				"energy": 0.09845,
				"method": "rhf"
			},
			{
				"type": "unocc",
				"energy": 0.10051,
				"method": "rhf"
			}
		],
		"cosmo_sigma_profile": { 
			"-0.025": 0.0,
			"-0.024": 0.0,
			"-0.023": 0.0,
			"-0.022": 0.0,
			"-0.021": 0.0,
			"-0.02": 0.0,
			"-0.019": 0.0,
			"-0.018": 0.0,
			"-0.017": 0.0,
			"-0.016": 0.0,
			"-0.015": 0.0,
			"-0.014": 0.0,
			"-0.013": 0.0,
			"-0.012": 0.0,
			"-0.011": 0.0,
			"-0.01": 0.0,
			"-0.009": 1.30200395204,
			"-0.008": 4.18609745663,
			"-0.007": 8.64546682756,
			"-0.006": 9.56416324588,
			"-0.005": 8.52063108163,
			"-0.004": 6.16885860799,
			"-0.003": 7.29964500221,
			"-0.002": 6.86513269808,
			"-0.001": 7.73796949563,
			"0.0": 9.26299654174,
			"0.001": 14.977807418,
			"0.002": 11.5453981211,
			"0.003": 5.59931489054,
			"0.004": 4.2023694895,
			"0.005": 4.59133241434,
			"0.006": 4.96248954001,
			"0.007": 11.2032488244,
			"0.008": 8.27267314565,
			"0.009": 0.100426554072,
			"0.01": 0.0,
			"0.011": 0.0,
			"0.012": 0.0,
			"0.013": 0.0,
			"0.014": 0.0,
			"0.015": 0.0,
			"0.016": 0.0,
			"0.017": 0.0,
			"0.018": 0.0,
			"0.019": 0.0,
			"0.02": 0.0,
			"0.021": 0.0,
			"0.022": 0.0,
			"0.023": 0.0,
			"0.024": 0.0,
			"0.025": 0.0
		}
	}
}
