{
	 "smiles": "OC(=O)CCN1C=C(Cl)C=N1", 
	 "Tm": 365.15, 
	 "num_atms": 18, 
	 "gaussian": { 
		 "optdone": 1, 
		 "sigma_profile": "yes", 
		 "theory": "DFT", 
		 "functional": "B3LYP", 
		 "basiset": "6-31G**", 
		 "properties": { 
			 "R2extent": 3165.9409, 
			 "electric_dipole_moment_norm": 3.43229416863, 
			 "electric_quadrupole_moment_norm": 6.91775580517, 
			 "total_energy": -952.986576494, 
			 "HOMO_LUMO_gap": 0.2332, 
			 "cosmo_polarized_energy": -13.7, 
			 "cosmo_cavitation_energy": 24.8, 
			 "cosmo_dispersion_energy": -17.83, 
			 "cosmo_repulsion_energy": 1.48, 
			 "cosmo_total_nonelectrostatic_energy": 8.44, 
			 "SMD_solvation_energy": 4.63 
		},
		"coords": [
			{
				"x": -0.6180019893,
				"y": 0.5732556211,
				"z": 0.9750643932,
				"element": "O" 
			},
			{
				"x": -0.8683666133,
				"y": -0.7629784826,
				"z": 1.0032921009,
				"element": "C" 
			},
			{
				"x": -1.9855013628,
				"y": -1.21143478,
				"z": 1.1063726166,
				"element": "O" 
			},
			{
				"x": 0.4005204356,
				"y": -1.5911216278,
				"z": 0.9413510286,
				"element": "C" 
			},
			{
				"x": 1.5490080237,
				"y": -0.9894889324,
				"z": 0.1224271708,
				"element": "C" 
			},
			{
				"x": 1.2524209963,
				"y": -0.9192631577,
				"z": -1.3015050019,
				"element": "N" 
			},
			{
				"x": 0.8164354324,
				"y": 0.1535009656,
				"z": -2.0160037911,
				"element": "C" 
			},
			{
				"x": 0.621005835,
				"y": -0.3085586474,
				"z": -3.3037230014,
				"element": "C" 
			},
			{
				"x": 0.0832892094,
				"y": 0.6160379937,
				"z": -4.6690357215,
				"element": "Cl" 
			},
			{
				"x": 0.9597559712,
				"y": -1.6770321283,
				"z": -3.2723829933,
				"element": "C" 
			},
			{
				"x": 1.3404158132,
				"y": -2.0418371024,
				"z": -2.0491028826,
				"element": "N" 
			},
			{
				"x": -1.4845593295,
				"y": 1.0090380206,
				"z": 1.0430136717,
				"element": "H" 
			},
			{
				"x": 0.7434324242,
				"y": -1.7271225163,
				"z": 1.9755508787,
				"element": "H" 
			},
			{
				"x": 0.1310614047,
				"y": -2.5768632522,
				"z": 0.5567936531,
				"element": "H" 
			},
			{
				"x": 1.7853623538,
				"y": 0.0185251347,
				"z": 0.4674215081,
				"element": "H" 
			},
			{
				"x": 2.4387898361,
				"y": -1.6135552559,
				"z": 0.2332768967,
				"element": "H" 
			},
			{
				"x": 0.6756787457,
				"y": 1.126612441,
				"z": -1.5726936846,
				"element": "H" 
			},
			{
				"x": 0.9461528135,
				"y": -2.3909142937,
				"z": -4.0838168419,
				"element": "H" 
			}
		],
		 "valence_orbital": [ 
			{
				"type": "occ",
				"energy": -0.32481,
				"method": "rhf"
			},
			{
				"type": "occ",
				"energy": -0.29175,
				"method": "rhf"
			},
			{
				"type": "occ",
				"energy": -0.28703,
				"method": "rhf"
			},
			{
				"type": "occ",
				"energy": -0.26313,
				"method": "rhf"
			},
			{
				"type": "occ",
				"energy": -0.23874,
				"method": "rhf"
			},
			{
				"type": "unocc",
				"energy": -0.00554,
				"method": "rhf"
			},
			{
				"type": "unocc",
				"energy": 0.00461,
				"method": "rhf"
			},
			{
				"type": "unocc",
				"energy": 0.0405,
				"method": "rhf"
			},
			{
				"type": "unocc",
				"energy": 0.05778,
				"method": "rhf"
			},
			{
				"type": "unocc",
				"energy": 0.06147,
				"method": "rhf"
			}
		],
		"cosmo_sigma_profile": { 
			"-0.025": 0.0,
			"-0.024": 0.0,
			"-0.023": 0.0,
			"-0.022": 0.0,
			"-0.021": 0.0,
			"-0.02": 0.0,
			"-0.019": 0.0,
			"-0.018": 0.944853075376,
			"-0.017": 0.82446101738,
			"-0.016": 0.832341956226,
			"-0.015": 1.00207322959,
			"-0.014": 0.59579186678,
			"-0.013": 0.378858691084,
			"-0.012": 0.760360845989,
			"-0.011": 0.829867078348,
			"-0.01": 1.2318591544,
			"-0.009": 1.71954997194,
			"-0.008": 6.73079704342,
			"-0.007": 11.5893485531,
			"-0.006": 12.0542770198,
			"-0.005": 10.0648519413,
			"-0.004": 10.4564202835,
			"-0.003": 10.4827743357,
			"-0.002": 11.0271390607,
			"-0.001": 11.1210234296,
			"0.0": 10.7191519698,
			"0.001": 11.0357561833,
			"0.002": 14.9863125564,
			"0.003": 15.6854143237,
			"0.004": 16.3070362649,
			"0.005": 8.93799534531,
			"0.006": 3.30698215899,
			"0.007": 3.99080724325,
			"0.008": 3.33401196331,
			"0.009": 2.53548698025,
			"0.01": 3.17931537248,
			"0.011": 5.70840077555,
			"0.012": 4.60237056737,
			"0.013": 1.4939456702,
			"0.014": 0.72548467915,
			"0.015": 0.453142409722,
			"0.016": 0.0,
			"0.017": 0.0,
			"0.018": 0.0,
			"0.019": 0.0,
			"0.02": 0.0,
			"0.021": 0.0,
			"0.022": 0.0,
			"0.023": 0.0,
			"0.024": 0.0,
			"0.025": 0.0
		}
	}
}
