{
	 "smiles": "CC(C)(C)CC1=NOC2=C1C(=CC(=N2)C1CC1)C(O)=O", 
	 "Tm": 438.15, 
	 "num_atms": 38, 
	 "gaussian": { 
		 "optdone": 1, 
		 "sigma_profile": "yes", 
		 "theory": "DFT", 
		 "functional": "B3LYP", 
		 "basiset": "6-31G**", 
		 "properties": { 
			 "R2extent": 6461.7915, 
			 "electric_dipole_moment_norm": 4.81209827518, 
			 "electric_quadrupole_moment_norm": 5.82570943319, 
			 "total_energy": -917.585163091, 
			 "HOMO_LUMO_gap": 0.16067, 
			 "cosmo_polarized_energy": -13.05, 
			 "cosmo_cavitation_energy": 39.85, 
			 "cosmo_dispersion_energy": -27.96, 
			 "cosmo_repulsion_energy": 2.12, 
			 "cosmo_total_nonelectrostatic_energy": 14.01, 
			 "SMD_solvation_energy": 6.37 
		},
		"coords": [
			{
				"x": 1.3533634671,
				"y": 3.021729054,
				"z": -1.3394437926,
				"element": "C" 
			},
			{
				"x": 2.7663151663,
				"y": 2.4632565355,
				"z": -1.08782422,
				"element": "C" 
			},
			{
				"x": 3.6962525736,
				"y": 3.6170814623,
				"z": -0.6640676537,
				"element": "C" 
			},
			{
				"x": 3.3076242655,
				"y": 1.8242361165,
				"z": -2.3795156911,
				"element": "C" 
			},
			{
				"x": 2.7666242269,
				"y": 1.4245972479,
				"z": 0.0811703359,
				"element": "C" 
			},
			{
				"x": 1.83477265,
				"y": 0.2525118633,
				"z": -0.0755780763,
				"element": "C" 
			},
			{
				"x": 2.2711524428,
				"y": -0.7859105558,
				"z": -0.7515332864,
				"element": "N" 
			},
			{
				"x": 1.2509273882,
				"y": -1.7515169572,
				"z": -0.8005543366,
				"element": "O" 
			},
			{
				"x": 0.1892901953,
				"y": -1.2667694208,
				"z": -0.1275038578,
				"element": "C" 
			},
			{
				"x": 0.4808172053,
				"y": 0.0130731698,
				"z": 0.3841981484,
				"element": "C" 
			},
			{
				"x": -0.5603804989,
				"y": 0.6166613741,
				"z": 1.1287428374,
				"element": "C" 
			},
			{
				"x": -1.7506994006,
				"y": -0.099520424,
				"z": 1.2548576629,
				"element": "C" 
			},
			{
				"x": -1.9057630253,
				"y": -1.3808927614,
				"z": 0.6775886879,
				"element": "C" 
			},
			{
				"x": -0.9231769558,
				"y": -1.9720944587,
				"z": -0.0164947061,
				"element": "N" 
			},
			{
				"x": -3.1808156137,
				"y": -2.1216097617,
				"z": 0.8315339016,
				"element": "C" 
			},
			{
				"x": -3.6709027737,
				"y": -3.0159434108,
				"z": -0.2980633492,
				"element": "C" 
			},
			{
				"x": -3.1581709744,
				"y": -3.6379725714,
				"z": 0.9596532433,
				"element": "C" 
			},
			{
				"x": -0.4259894997,
				"y": 1.9359223203,
				"z": 1.8140244114,
				"element": "C" 
			},
			{
				"x": -1.6138732337,
				"y": 2.4202436402,
				"z": 2.2453338533,
				"element": "O" 
			},
			{
				"x": 0.6132851505,
				"y": 2.5359867757,
				"z": 2.0024941828,
				"element": "O" 
			},
			{
				"x": 0.6604724031,
				"y": 2.2367893478,
				"z": -1.6616848519,
				"element": "H" 
			},
			{
				"x": 0.9464651896,
				"y": 3.4891373437,
				"z": -0.4377041663,
				"element": "H" 
			},
			{
				"x": 1.3793125828,
				"y": 3.7794475723,
				"z": -2.1305631663,
				"element": "H" 
			},
			{
				"x": 4.7114951421,
				"y": 3.2556103504,
				"z": -0.4645000329,
				"element": "H" 
			},
			{
				"x": 3.3294773291,
				"y": 4.1100671696,
				"z": 0.2430503345,
				"element": "H" 
			},
			{
				"x": 3.7616107848,
				"y": 4.3725111864,
				"z": -1.4549861529,
				"element": "H" 
			},
			{
				"x": 2.6952821205,
				"y": 0.9775123718,
				"z": -2.7017057516,
				"element": "H" 
			},
			{
				"x": 3.3241223311,
				"y": 2.5606164427,
				"z": -3.1911188925,
				"element": "H" 
			},
			{
				"x": 4.3297445923,
				"y": 1.4551071578,
				"z": -2.239798416,
				"element": "H" 
			},
			{
				"x": 3.7805741029,
				"y": 1.0197214475,
				"z": 0.1692976635,
				"element": "H" 
			},
			{
				"x": 2.5231022313,
				"y": 1.9362143744,
				"z": 1.012006697,
				"element": "H" 
			},
			{
				"x": -2.5705384405,
				"y": 0.3300475762,
				"z": 1.8159864484,
				"element": "H" 
			},
			{
				"x": -3.9406221083,
				"y": -1.5953280901,
				"z": 1.4014443067,
				"element": "H" 
			},
			{
				"x": -3.0344922613,
				"y": -3.0651683108,
				"z": -1.1755334598,
				"element": "H" 
			},
			{
				"x": -4.7386314076,
				"y": -3.0260377732,
				"z": -0.4940451466,
				"element": "H" 
			},
			{
				"x": -2.1785352102,
				"y": -4.1031937118,
				"z": 0.9239445592,
				"element": "H" 
			},
			{
				"x": -3.8639989304,
				"y": -4.0872170756,
				"z": 1.6514256447,
				"element": "H" 
			},
			{
				"x": -1.4113932068,
				"y": 3.2559933834,
				"z": 2.6975660877,
				"element": "H" 
			}
		],
		 "valence_orbital": [ 
			{
				"type": "occ",
				"energy": -0.30632,
				"method": "rhf"
			},
			{
				"type": "occ",
				"energy": -0.29828,
				"method": "rhf"
			},
			{
				"type": "occ",
				"energy": -0.27979,
				"method": "rhf"
			},
			{
				"type": "occ",
				"energy": -0.26691,
				"method": "rhf"
			},
			{
				"type": "occ",
				"energy": -0.24851,
				"method": "rhf"
			},
			{
				"type": "unocc",
				"energy": -0.08784,
				"method": "rhf"
			},
			{
				"type": "unocc",
				"energy": -0.02142,
				"method": "rhf"
			},
			{
				"type": "unocc",
				"energy": 0.02124,
				"method": "rhf"
			},
			{
				"type": "unocc",
				"energy": 0.03493,
				"method": "rhf"
			},
			{
				"type": "unocc",
				"energy": 0.06223,
				"method": "rhf"
			}
		],
		"cosmo_sigma_profile": { 
			"-0.025": 0.0,
			"-0.024": 0.0,
			"-0.023": 0.0,
			"-0.022": 0.0,
			"-0.021": 0.0,
			"-0.02": 0.0,
			"-0.019": 0.394868253276,
			"-0.018": 1.145625649,
			"-0.017": 0.674652052921,
			"-0.016": 0.84913743891,
			"-0.015": 0.965654716548,
			"-0.014": 0.734430576532,
			"-0.013": 0.109052528472,
			"-0.012": 1.38997901557,
			"-0.011": 0.867086714869,
			"-0.01": 0.257974614693,
			"-0.009": 0.406776248751,
			"-0.008": 2.22414897296,
			"-0.007": 3.0998323474,
			"-0.006": 5.16508804931,
			"-0.005": 9.1884618144,
			"-0.004": 13.1558597024,
			"-0.003": 28.2883376857,
			"-0.002": 40.8891929131,
			"-0.001": 43.6132704065,
			"0.0": 37.272011481,
			"0.001": 34.4515981082,
			"0.002": 24.5258223675,
			"0.003": 11.7567194918,
			"0.004": 9.60328901084,
			"0.005": 6.87403623162,
			"0.006": 6.207412013,
			"0.007": 8.89645878974,
			"0.008": 7.76119934286,
			"0.009": 4.32072087436,
			"0.01": 3.74765458108,
			"0.011": 2.50444954615,
			"0.012": 1.2635004391,
			"0.013": 1.08968694951,
			"0.014": 0.299159480008,
			"0.015": 0.0,
			"0.016": 0.0,
			"0.017": 0.0,
			"0.018": 0.0,
			"0.019": 0.0,
			"0.02": 0.0,
			"0.021": 0.0,
			"0.022": 0.0,
			"0.023": 0.0,
			"0.024": 0.0,
			"0.025": 0.0
		}
	}
}
