{
	 "smiles": "COC1=CC(=CC(OC)=C1)C(=O)N1CCC(CC1)C(O)=O", 
	 "Tm": 438.15, 
	 "num_atms": 40, 
	 "gaussian": { 
		 "optdone": 1, 
		 "sigma_profile": "yes", 
		 "theory": "DFT", 
		 "functional": "B3LYP", 
		 "basiset": "6-31G**", 
		 "properties": { 
			 "R2extent": 8074.3569, 
			 "electric_dipole_moment_norm": 4.08919137361, 
			 "electric_quadrupole_moment_norm": 14.1751027848, 
			 "total_energy": -1013.92199738, 
			 "HOMO_LUMO_gap": 0.19283, 
			 "cosmo_polarized_energy": -20.74, 
			 "cosmo_cavitation_energy": 41.93, 
			 "cosmo_dispersion_energy": -28.55, 
			 "cosmo_repulsion_energy": 2.16, 
			 "cosmo_total_nonelectrostatic_energy": 15.54, 
			 "SMD_solvation_energy": 9.73 
		},
		"coords": [
			{
				"x": 0.2291825824,
				"y": 0.8190615581,
				"z": 4.5251628968,
				"element": "C" 
			},
			{
				"x": 1.1957067866,
				"y": -0.2081047512,
				"z": 4.6702694474,
				"element": "O" 
			},
			{
				"x": 1.4704990519,
				"y": -0.9972778329,
				"z": 3.5900870747,
				"element": "C" 
			},
			{
				"x": 0.8468590913,
				"y": -0.8681300102,
				"z": 2.3404156593,
				"element": "C" 
			},
			{
				"x": 1.2038433493,
				"y": -1.7496716024,
				"z": 1.3110093527,
				"element": "C" 
			},
			{
				"x": 2.1514170573,
				"y": -2.7566587859,
				"z": 1.517338718,
				"element": "C" 
			},
			{
				"x": 2.7757997095,
				"y": -2.8617391344,
				"z": 2.7665318208,
				"element": "C" 
			},
			{
				"x": 3.7235154348,
				"y": -3.7920801014,
				"z": 3.0760263285,
				"element": "O" 
			},
			{
				"x": 4.0856334071,
				"y": -4.7379919878,
				"z": 2.0805755634,
				"element": "C" 
			},
			{
				"x": 2.4385289645,
				"y": -1.9816897262,
				"z": 3.7986052344,
				"element": "C" 
			},
			{
				"x": 0.5093565338,
				"y": -1.7316087873,
				"z": -0.0263840717,
				"element": "C" 
			},
			{
				"x": 0.1658284983,
				"y": -2.7824882181,
				"z": -0.5625344914,
				"element": "O" 
			},
			{
				"x": 0.2246851408,
				"y": -0.5106532091,
				"z": -0.605155814,
				"element": "N" 
			},
			{
				"x": -0.5764698075,
				"y": -0.5315301394,
				"z": -1.8379727745,
				"element": "C" 
			},
			{
				"x": -1.1275337983,
				"y": 0.879615415,
				"z": -2.136482722,
				"element": "C" 
			},
			{
				"x": -1.3079565706,
				"y": 1.6864379341,
				"z": -0.8381260625,
				"element": "C" 
			},
			{
				"x": 0.0664983333,
				"y": 1.9184172941,
				"z": -0.1660507721,
				"element": "C" 
			},
			{
				"x": 1.0021782168,
				"y": 0.7142928635,
				"z": -0.4135032793,
				"element": "C" 
			},
			{
				"x": -2.348751039,
				"y": 1.009976599,
				"z": 0.0472602698,
				"element": "C" 
			},
			{
				"x": -2.2199130846,
				"y": 1.3084183418,
				"z": 1.3678603836,
				"element": "O" 
			},
			{
				"x": -3.2547987217,
				"y": 0.3165534392,
				"z": -0.3603701194,
				"element": "O" 
			},
			{
				"x": -0.7585615966,
				"y": 0.4164514008,
				"z": 4.2669235255,
				"element": "H" 
			},
			{
				"x": 0.5235503938,
				"y": 1.5501952159,
				"z": 3.761035934,
				"element": "H" 
			},
			{
				"x": 0.1713372829,
				"y": 1.3168494271,
				"z": 5.4944809793,
				"element": "H" 
			},
			{
				"x": 0.0716749688,
				"y": -0.1315902108,
				"z": 2.1722575347,
				"element": "H" 
			},
			{
				"x": 2.3600685406,
				"y": -3.4430819214,
				"z": 0.7076803544,
				"element": "H" 
			},
			{
				"x": 3.2283101722,
				"y": -5.3484845268,
				"z": 1.7710539892,
				"element": "H" 
			},
			{
				"x": 4.8391578907,
				"y": -5.3808269237,
				"z": 2.5382296904,
				"element": "H" 
			},
			{
				"x": 4.5156278396,
				"y": -4.2509426098,
				"z": 1.1961256548,
				"element": "H" 
			},
			{
				"x": 2.9185846099,
				"y": -2.0721150355,
				"z": 4.7660809577,
				"element": "H" 
			},
			{
				"x": 0.0213041395,
				"y": -0.903078539,
				"z": -2.6821855386,
				"element": "H" 
			},
			{
				"x": -1.3902926553,
				"y": -1.2403961389,
				"z": -1.6841916694,
				"element": "H" 
			},
			{
				"x": -0.4438573348,
				"y": 1.4351387817,
				"z": -2.7881634219,
				"element": "H" 
			},
			{
				"x": -2.0784486456,
				"y": 0.7878563745,
				"z": -2.6656367297,
				"element": "H" 
			},
			{
				"x": -1.7503889241,
				"y": 2.6633756265,
				"z": -1.077420739,
				"element": "H" 
			},
			{
				"x": -0.0655537111,
				"y": 2.0942596505,
				"z": 0.9035265462,
				"element": "H" 
			},
			{
				"x": 0.5266138324,
				"y": 2.8200634489,
				"z": -0.5844354292,
				"element": "H" 
			},
			{
				"x": 1.6048489517,
				"y": 0.8876855722,
				"z": -1.3177204268,
				"element": "H" 
			},
			{
				"x": 1.699747287,
				"y": 0.5795569573,
				"z": 0.411496488,
				"element": "H" 
			},
			{
				"x": -2.9601321778,
				"y": 0.8558342919,
				"z": 1.806999658,
				"element": "H" 
			}
		],
		 "valence_orbital": [ 
			{
				"type": "occ",
				"energy": -0.27885,
				"method": "rhf"
			},
			{
				"type": "occ",
				"energy": -0.25071,
				"method": "rhf"
			},
			{
				"type": "occ",
				"energy": -0.23369,
				"method": "rhf"
			},
			{
				"type": "occ",
				"energy": -0.22383,
				"method": "rhf"
			},
			{
				"type": "occ",
				"energy": -0.21722,
				"method": "rhf"
			},
			{
				"type": "unocc",
				"energy": -0.02439,
				"method": "rhf"
			},
			{
				"type": "unocc",
				"energy": 0.00161,
				"method": "rhf"
			},
			{
				"type": "unocc",
				"energy": 0.01973,
				"method": "rhf"
			},
			{
				"type": "unocc",
				"energy": 0.05275,
				"method": "rhf"
			},
			{
				"type": "unocc",
				"energy": 0.05436,
				"method": "rhf"
			}
		],
		"cosmo_sigma_profile": { 
			"-0.025": 0.0,
			"-0.024": 0.0,
			"-0.023": 0.0,
			"-0.022": 0.0,
			"-0.021": 0.0,
			"-0.02": 0.0,
			"-0.019": 0.0,
			"-0.018": 0.482883656906,
			"-0.017": 0.823163201097,
			"-0.016": 0.744745749713,
			"-0.015": 1.08113829778,
			"-0.014": 0.50940916041,
			"-0.013": 0.544205598013,
			"-0.012": 0.962681621251,
			"-0.011": 0.736220656464,
			"-0.01": 0.467296215062,
			"-0.009": 0.674678908016,
			"-0.008": 0.440280206103,
			"-0.007": 3.45422823446,
			"-0.006": 12.0484440228,
			"-0.005": 25.203078592,
			"-0.004": 41.8790680644,
			"-0.003": 42.4537607216,
			"-0.002": 33.4044614002,
			"-0.001": 24.9324095017,
			"0.0": 17.190054646,
			"0.001": 12.3144409103,
			"0.002": 12.8595212664,
			"0.003": 16.7816623995,
			"0.004": 17.9037648921,
			"0.005": 9.03475362543,
			"0.006": 7.6066431786,
			"0.007": 7.38345534019,
			"0.008": 4.73629985006,
			"0.009": 6.23220322154,
			"0.01": 7.47867595629,
			"0.011": 4.96791803975,
			"0.012": 5.26009206928,
			"0.013": 4.04634067334,
			"0.014": 4.38679877886,
			"0.015": 0.53512910238,
			"0.016": 0.0,
			"0.017": 0.0,
			"0.018": 0.0,
			"0.019": 0.0,
			"0.02": 0.0,
			"0.021": 0.0,
			"0.022": 0.0,
			"0.023": 0.0,
			"0.024": 0.0,
			"0.025": 0.0
		}
	}
}
