{
	 "smiles": "CC1=C(NC2=C1C(=O)CC(C)(C)C2)C(O)=O", 
	 "Tm": 480.15, 
	 "num_atms": 31, 
	 "gaussian": { 
		 "optdone": 1, 
		 "sigma_profile": "yes", 
		 "theory": "DFT", 
		 "functional": "B3LYP", 
		 "basiset": "6-31G**", 
		 "properties": { 
			 "R2extent": 4556.6686, 
			 "electric_dipole_moment_norm": 7.08131876207, 
			 "electric_quadrupole_moment_norm": 18.0436178986, 
			 "total_energy": -746.771830131, 
			 "HOMO_LUMO_gap": 0.19832, 
			 "cosmo_polarized_energy": -24.82, 
			 "cosmo_cavitation_energy": 33.11, 
			 "cosmo_dispersion_energy": -23.47, 
			 "cosmo_repulsion_energy": 1.82, 
			 "cosmo_total_nonelectrostatic_energy": 11.46, 
			 "SMD_solvation_energy": 6.8 
		},
		"coords": [
			{
				"x": 0.0585345999,
				"y": 3.9389868569,
				"z": 0.9443109616,
				"element": "C" 
			},
			{
				"x": 0.1673078972,
				"y": 2.4467981285,
				"z": 0.9174362084,
				"element": "C" 
			},
			{
				"x": 0.1100132531,
				"y": 1.5764245679,
				"z": 1.9953680589,
				"element": "C" 
			},
			{
				"x": 0.2969953334,
				"y": 0.268902275,
				"z": 1.5120406239,
				"element": "N" 
			},
			{
				"x": 0.4321818931,
				"y": 0.298891166,
				"z": 0.1604700214,
				"element": "C" 
			},
			{
				"x": 0.3889356668,
				"y": 1.6305149678,
				"z": -0.2404508195,
				"element": "C" 
			},
			{
				"x": 0.5284944681,
				"y": 1.9975057069,
				"z": -1.6505587975,
				"element": "C" 
			},
			{
				"x": 0.4494883682,
				"y": 3.1466615105,
				"z": -2.0650790819,
				"element": "O" 
			},
			{
				"x": 0.8254012104,
				"y": 0.8240631453,
				"z": -2.5925899762,
				"element": "C" 
			},
			{
				"x": 0.1894536061,
				"y": -0.5342573008,
				"z": -2.1955374195,
				"element": "C" 
			},
			{
				"x": 0.7029121739,
				"y": -1.6348385766,
				"z": -3.1393699583,
				"element": "C" 
			},
			{
				"x": -1.3466235722,
				"y": -0.4527625806,
				"z": -2.3050928722,
				"element": "C" 
			},
			{
				"x": 0.6058446765,
				"y": -0.8829095979,
				"z": -0.7376408957,
				"element": "C" 
			},
			{
				"x": -0.0576296719,
				"y": 1.8528827611,
				"z": 3.4262798572,
				"element": "C" 
			},
			{
				"x": 0.3903384236,
				"y": 0.8621343277,
				"z": 4.2707676278,
				"element": "O" 
			},
			{
				"x": -0.5646400459,
				"y": 2.8492607818,
				"z": 3.8871514768,
				"element": "O" 
			},
			{
				"x": 0.9540760221,
				"y": 4.3993438778,
				"z": 0.5152493614,
				"element": "H" 
			},
			{
				"x": -0.095394695,
				"y": 4.2996096859,
				"z": 1.9612254047,
				"element": "H" 
			},
			{
				"x": -0.7781564009,
				"y": 4.2670205466,
				"z": 0.3194022307,
				"element": "H" 
			},
			{
				"x": 0.0807183207,
				"y": -0.5630087257,
				"z": 2.0425418362,
				"element": "H" 
			},
			{
				"x": 0.5154978073,
				"y": 1.1210946163,
				"z": -3.5991911401,
				"element": "H" 
			},
			{
				"x": 1.9201081821,
				"y": 0.7134894246,
				"z": -2.6204746183,
				"element": "H" 
			},
			{
				"x": 0.283093952,
				"y": -2.6111056952,
				"z": -2.8706762888,
				"element": "H" 
			},
			{
				"x": 0.4166302065,
				"y": -1.4240251986,
				"z": -4.1750355704,
				"element": "H" 
			},
			{
				"x": 1.7950940466,
				"y": -1.7160754948,
				"z": -3.1036558065,
				"element": "H" 
			},
			{
				"x": -1.7672816016,
				"y": 0.3002430081,
				"z": -1.632345473,
				"element": "H" 
			},
			{
				"x": -1.6445488902,
				"y": -0.1910504812,
				"z": -3.3256700738,
				"element": "H" 
			},
			{
				"x": -1.8056152546,
				"y": -1.4174795186,
				"z": -2.0611019092,
				"element": "H" 
			},
			{
				"x": 1.6609802694,
				"y": -1.195072627,
				"z": -0.7303192291,
				"element": "H" 
			},
			{
				"x": 0.0276924733,
				"y": -1.7434660855,
				"z": -0.3755946006,
				"element": "H" 
			},
			{
				"x": 1.0650972822,
				"y": 0.3325245278,
				"z": 3.8224408616,
				"element": "H" 
			}
		],
		 "valence_orbital": [ 
			{
				"type": "occ",
				"energy": -0.31912,
				"method": "rhf"
			},
			{
				"type": "occ",
				"energy": -0.27528,
				"method": "rhf"
			},
			{
				"type": "occ",
				"energy": -0.26231,
				"method": "rhf"
			},
			{
				"type": "occ",
				"energy": -0.23933,
				"method": "rhf"
			},
			{
				"type": "occ",
				"energy": -0.23476,
				"method": "rhf"
			},
			{
				"type": "unocc",
				"energy": -0.03644,
				"method": "rhf"
			},
			{
				"type": "unocc",
				"energy": -0.03593,
				"method": "rhf"
			},
			{
				"type": "unocc",
				"energy": 0.03668,
				"method": "rhf"
			},
			{
				"type": "unocc",
				"energy": 0.05742,
				"method": "rhf"
			},
			{
				"type": "unocc",
				"energy": 0.07335,
				"method": "rhf"
			}
		],
		"cosmo_sigma_profile": { 
			"-0.025": 0.0,
			"-0.024": 0.0,
			"-0.023": 0.0,
			"-0.022": 0.0,
			"-0.021": 0.0,
			"-0.02": 0.0,
			"-0.019": 0.838502749581,
			"-0.018": 1.67133245845,
			"-0.017": 2.09145603577,
			"-0.016": 2.27006439352,
			"-0.015": 1.24493608393,
			"-0.014": 1.77247672106,
			"-0.013": 2.18857578655,
			"-0.012": 2.45784367311,
			"-0.011": 1.41875535294,
			"-0.01": 1.72058676111,
			"-0.009": 1.61658413824,
			"-0.008": 1.34578563048,
			"-0.007": 1.73040756465,
			"-0.006": 3.58684357105,
			"-0.005": 11.8754445521,
			"-0.004": 17.3828476624,
			"-0.003": 26.1798061282,
			"-0.002": 25.3229760749,
			"-0.001": 25.7996342528,
			"0.0": 26.4435935571,
			"0.001": 23.6567084408,
			"0.002": 11.0451652762,
			"0.003": 8.62402966396,
			"0.004": 5.77241433326,
			"0.005": 4.04413670409,
			"0.006": 4.45560940024,
			"0.007": 3.75647873214,
			"0.008": 4.7647316179,
			"0.009": 4.93731241218,
			"0.01": 5.28919848031,
			"0.011": 7.94498259309,
			"0.012": 7.7422828105,
			"0.013": 6.34079276101,
			"0.014": 1.72089496884,
			"0.015": 0.229522762515,
			"0.016": 0.0,
			"0.017": 0.0,
			"0.018": 0.0,
			"0.019": 0.0,
			"0.02": 0.0,
			"0.021": 0.0,
			"0.022": 0.0,
			"0.023": 0.0,
			"0.024": 0.0,
			"0.025": 0.0
		}
	}
}
