{
	 "smiles": "BrC1=CC=C(CN2C(=O)C(=O)C3=C2C=CC=C3)C=C1", 
	 "Tm": 456.15, 
	 "num_atms": 29, 
	 "gaussian": { 
		 "optdone": 1, 
		 "sigma_profile": "yes", 
		 "theory": "DFT", 
		 "functional": "B3LYP", 
		 "basiset": "6-31G**", 
		 "properties": { 
			 "R2extent": 9407.4644, 
			 "electric_dipole_moment_norm": 5.27576563638, 
			 "electric_quadrupole_moment_norm": 19.1960801673, 
			 "total_energy": -3354.23156185, 
			 "HOMO_LUMO_gap": 0.13812, 
			 "cosmo_polarized_energy": -15.2, 
			 "cosmo_cavitation_energy": 36.78, 
			 "cosmo_dispersion_energy": -26.0, 
			 "cosmo_repulsion_energy": 1.98, 
			 "cosmo_total_nonelectrostatic_energy": 12.76, 
			 "SMD_solvation_energy": 6.06 
		},
		"coords": [
			{
				"x": -2.8416812762,
				"y": -1.4310052801,
				"z": -5.0059886501,
				"element": "Br" 
			},
			{
				"x": -2.2124870556,
				"y": -1.249351267,
				"z": -3.2111597406,
				"element": "C" 
			},
			{
				"x": -1.0159398989,
				"y": -1.8562826069,
				"z": -2.8395368346,
				"element": "C" 
			},
			{
				"x": -0.5635085595,
				"y": -1.712668161,
				"z": -1.5260698904,
				"element": "C" 
			},
			{
				"x": -1.2921109624,
				"y": -0.9756661868,
				"z": -0.5880024683,
				"element": "C" 
			},
			{
				"x": -0.808298508,
				"y": -0.8446455118,
				"z": 0.8451334006,
				"element": "C" 
			},
			{
				"x": -0.6629786026,
				"y": 0.5328079252,
				"z": 1.3010245029,
				"element": "N" 
			},
			{
				"x": -1.5410680665,
				"y": 1.1261620555,
				"z": 2.1983492853,
				"element": "C" 
			},
			{
				"x": -2.531887106,
				"y": 0.6163302145,
				"z": 2.6783506916,
				"element": "O" 
			},
			{
				"x": -0.9866650795,
				"y": 2.5697126931,
				"z": 2.4455158696,
				"element": "C" 
			},
			{
				"x": -1.4974982259,
				"y": 3.3840740217,
				"z": 3.18317705,
				"element": "O" 
			},
			{
				"x": 0.2175060228,
				"y": 2.6563619447,
				"z": 1.6076538899,
				"element": "C" 
			},
			{
				"x": 0.3670416744,
				"y": 1.4231655982,
				"z": 0.9397937961,
				"element": "C" 
			},
			{
				"x": 1.4266578771,
				"y": 1.2113033627,
				"z": 0.0655281446,
				"element": "C" 
			},
			{
				"x": 2.3361873815,
				"y": 2.2630374382,
				"z": -0.1179250122,
				"element": "C" 
			},
			{
				"x": 2.1982462263,
				"y": 3.488963511,
				"z": 0.5430112779,
				"element": "C" 
			},
			{
				"x": 1.1260368531,
				"y": 3.6923100785,
				"z": 1.415719223,
				"element": "C" 
			},
			{
				"x": -2.4974401633,
				"y": -0.3813901984,
				"z": -0.9858091701,
				"element": "C" 
			},
			{
				"x": -2.9611277008,
				"y": -0.5115413278,
				"z": -2.292953713,
				"element": "C" 
			},
			{
				"x": -0.4452642161,
				"y": -2.4286108868,
				"z": -3.5618967232,
				"element": "H" 
			},
			{
				"x": 0.3689875984,
				"y": -2.1896563775,
				"z": -1.233256412,
				"element": "H" 
			},
			{
				"x": 0.1479254279,
				"y": -1.3646114155,
				"z": 0.9712848291,
				"element": "H" 
			},
			{
				"x": -1.5295472351,
				"y": -1.2978093701,
				"z": 1.5326640059,
				"element": "H" 
			},
			{
				"x": 1.5452550609,
				"y": 0.2769184768,
				"z": -0.4706304332,
				"element": "H" 
			},
			{
				"x": 3.1702962755,
				"y": 2.1173618951,
				"z": -0.7983911765,
				"element": "H" 
			},
			{
				"x": 2.9226262431,
				"y": 4.2786626839,
				"z": 0.3730667568,
				"element": "H" 
			},
			{
				"x": 0.9895795127,
				"y": 4.6321899746,
				"z": 1.9419669356,
				"element": "H" 
			},
			{
				"x": -3.0836944294,
				"y": 0.1816904327,
				"z": -0.2649174445,
				"element": "H" 
			},
			{
				"x": -3.8945490678,
				"y": -0.0510137166,
				"z": -2.59580199,
				"element": "H" 
			}
		],
		 "valence_orbital": [ 
			{
				"type": "occ",
				"energy": -0.27906,
				"method": "rhf"
			},
			{
				"type": "occ",
				"energy": -0.27393,
				"method": "rhf"
			},
			{
				"type": "occ",
				"energy": -0.25355,
				"method": "rhf"
			},
			{
				"type": "occ",
				"energy": -0.24611,
				"method": "rhf"
			},
			{
				"type": "occ",
				"energy": -0.2373,
				"method": "rhf"
			},
			{
				"type": "unocc",
				"energy": -0.09918,
				"method": "rhf"
			},
			{
				"type": "unocc",
				"energy": -0.02867,
				"method": "rhf"
			},
			{
				"type": "unocc",
				"energy": -0.02515,
				"method": "rhf"
			},
			{
				"type": "unocc",
				"energy": -0.02325,
				"method": "rhf"
			},
			{
				"type": "unocc",
				"energy": -0.00067,
				"method": "rhf"
			}
		],
		"cosmo_sigma_profile": { 
			"-0.025": 0.0,
			"-0.024": 0.0,
			"-0.023": 0.0,
			"-0.022": 0.0,
			"-0.021": 0.0,
			"-0.02": 0.0,
			"-0.019": 0.0,
			"-0.018": 0.0,
			"-0.017": 0.0,
			"-0.016": 0.0,
			"-0.015": 0.0,
			"-0.014": 0.0,
			"-0.013": 0.0,
			"-0.012": 0.0,
			"-0.011": 0.0,
			"-0.01": 0.0,
			"-0.009": 0.436869978725,
			"-0.008": 4.17853660621,
			"-0.007": 16.6159416641,
			"-0.006": 21.4846711261,
			"-0.005": 23.3860722284,
			"-0.004": 19.6312738713,
			"-0.003": 18.1174611234,
			"-0.002": 18.8427572956,
			"-0.001": 18.215802274,
			"0.0": 18.7987395275,
			"0.001": 25.3429142043,
			"0.002": 26.9042763488,
			"0.003": 29.4188004059,
			"0.004": 17.8323345273,
			"0.005": 7.98119859083,
			"0.006": 2.78427314583,
			"0.007": 2.5182723163,
			"0.008": 3.74993140341,
			"0.009": 4.39743224654,
			"0.01": 7.37974729607,
			"0.011": 8.23690819232,
			"0.012": 2.97772456049,
			"0.013": 0.310861029736,
			"0.014": 0.0,
			"0.015": 0.0,
			"0.016": 0.0,
			"0.017": 0.0,
			"0.018": 0.0,
			"0.019": 0.0,
			"0.02": 0.0,
			"0.021": 0.0,
			"0.022": 0.0,
			"0.023": 0.0,
			"0.024": 0.0,
			"0.025": 0.0
		}
	}
}
