{
	 "smiles": "C(SCC1=CC=CC=C1)C1=CC=CC=C1", 
	 "Tm": 322.35, 
	 "num_atms": 29, 
	 "gaussian": { 
		 "optdone": 1, 
		 "sigma_profile": "yes", 
		 "theory": "DFT", 
		 "functional": "B3LYP", 
		 "basiset": "6-31G**", 
		 "properties": { 
			 "R2extent": 4940.9094, 
			 "electric_dipole_moment_norm": 1.51228064194, 
			 "electric_quadrupole_moment_norm": 6.03801048608, 
			 "total_energy": -940.121619455, 
			 "HOMO_LUMO_gap": 0.20281, 
			 "cosmo_polarized_energy": -8.46, 
			 "cosmo_cavitation_energy": 34.23, 
			 "cosmo_dispersion_energy": -24.23, 
			 "cosmo_repulsion_energy": 1.87, 
			 "cosmo_total_nonelectrostatic_energy": 11.87, 
			 "SMD_solvation_energy": 5.0 
		},
		"coords": [
			{
				"x": -0.4542371854,
				"y": 0.9507978075,
				"z": -0.07651629,
				"element": "C" 
			},
			{
				"x": 1.3037208093,
				"y": 1.5220716097,
				"z": -0.1217306742,
				"element": "S" 
			},
			{
				"x": 1.9274957349,
				"y": 0.5535327228,
				"z": -1.5662589946,
				"element": "C" 
			},
			{
				"x": 1.9124051508,
				"y": -0.9457016582,
				"z": -1.3885561232,
				"element": "C" 
			},
			{
				"x": 2.7663242668,
				"y": -1.5704081023,
				"z": -0.4668784,
				"element": "C" 
			},
			{
				"x": 2.7575427015,
				"y": -2.9550885414,
				"z": -0.3140252256,
				"element": "C" 
			},
			{
				"x": 1.8892414751,
				"y": -3.7421380693,
				"z": -1.0769142164,
				"element": "C" 
			},
			{
				"x": 1.032432451,
				"y": -3.1326895913,
				"z": -1.9925665267,
				"element": "C" 
			},
			{
				"x": 1.0458301299,
				"y": -1.7437285859,
				"z": -2.1459923165,
				"element": "C" 
			},
			{
				"x": -1.1667050188,
				"y": 1.5698010553,
				"z": 1.0990968401,
				"element": "C" 
			},
			{
				"x": -1.8384608521,
				"y": 2.7922716918,
				"z": 0.965596774,
				"element": "C" 
			},
			{
				"x": -2.4925669141,
				"y": 3.3685007439,
				"z": 2.0549607371,
				"element": "C" 
			},
			{
				"x": -2.4803327354,
				"y": 2.7300961759,
				"z": 3.2964834854,
				"element": "C" 
			},
			{
				"x": -1.8097844389,
				"y": 1.5137821931,
				"z": 3.4418242958,
				"element": "C" 
			},
			{
				"x": -1.156666575,
				"y": 0.939880088,
				"z": 2.3511449675,
				"element": "C" 
			},
			{
				"x": -0.9348153136,
				"y": 1.2381619313,
				"z": -1.0171735397,
				"element": "H" 
			},
			{
				"x": -0.4556891932,
				"y": -0.1403774976,
				"z": -0.0061753262,
				"element": "H" 
			},
			{
				"x": 1.360532728,
				"y": 0.843164486,
				"z": -2.4565797227,
				"element": "H" 
			},
			{
				"x": 2.9500719451,
				"y": 0.9221225782,
				"z": -1.6970861299,
				"element": "H" 
			},
			{
				"x": 3.4341913895,
				"y": -0.9614962184,
				"z": 0.1367326915,
				"element": "H" 
			},
			{
				"x": 3.4291298089,
				"y": -3.422959846,
				"z": 0.4004205626,
				"element": "H" 
			},
			{
				"x": 1.8829859055,
				"y": -4.8216536355,
				"z": -0.9567686998,
				"element": "H" 
			},
			{
				"x": 0.3536395455,
				"y": -3.7348938071,
				"z": -2.5899564124,
				"element": "H" 
			},
			{
				"x": 0.3810776492,
				"y": -1.2744078393,
				"z": -2.8674910475,
				"element": "H" 
			},
			{
				"x": -1.8484690296,
				"y": 3.2928096553,
				"z": 0.0006054523,
				"element": "H" 
			},
			{
				"x": -3.0125296267,
				"y": 4.3146141665,
				"z": 1.9336613324,
				"element": "H" 
			},
			{
				"x": -2.9911154506,
				"y": 3.1765377779,
				"z": 4.1448632716,
				"element": "H" 
			},
			{
				"x": -1.7966739585,
				"y": 1.0106047694,
				"z": 4.4045567119,
				"element": "H" 
			},
			{
				"x": -0.6331753992,
				"y": -0.0056060602,
				"z": 2.4675225232,
				"element": "H" 
			}
		],
		 "valence_orbital": [ 
			{
				"type": "occ",
				"energy": -0.25226,
				"method": "rhf"
			},
			{
				"type": "occ",
				"energy": -0.24893,
				"method": "rhf"
			},
			{
				"type": "occ",
				"energy": -0.2473,
				"method": "rhf"
			},
			{
				"type": "occ",
				"energy": -0.23787,
				"method": "rhf"
			},
			{
				"type": "occ",
				"energy": -0.21685,
				"method": "rhf"
			},
			{
				"type": "unocc",
				"energy": -0.01404,
				"method": "rhf"
			},
			{
				"type": "unocc",
				"energy": -0.00333,
				"method": "rhf"
			},
			{
				"type": "unocc",
				"energy": -0.00182,
				"method": "rhf"
			},
			{
				"type": "unocc",
				"energy": 0.00156,
				"method": "rhf"
			},
			{
				"type": "unocc",
				"energy": 0.04684,
				"method": "rhf"
			}
		],
		"cosmo_sigma_profile": { 
			"-0.025": 0.0,
			"-0.024": 0.0,
			"-0.023": 0.0,
			"-0.022": 0.0,
			"-0.021": 0.0,
			"-0.02": 0.0,
			"-0.019": 0.0,
			"-0.018": 0.0,
			"-0.017": 0.0,
			"-0.016": 0.0,
			"-0.015": 0.0,
			"-0.014": 0.0,
			"-0.013": 0.0,
			"-0.012": 0.0,
			"-0.011": 0.0,
			"-0.01": 0.0,
			"-0.009": 0.0,
			"-0.008": 0.0,
			"-0.007": 0.484692596332,
			"-0.006": 11.2233188847,
			"-0.005": 32.6068914912,
			"-0.004": 29.2727241375,
			"-0.003": 28.0928039606,
			"-0.002": 19.2365576479,
			"-0.001": 19.7609283873,
			"0.0": 14.8914775402,
			"0.001": 15.1299929725,
			"0.002": 14.682903178,
			"0.003": 16.8427185684,
			"0.004": 20.8289985513,
			"0.005": 22.3085975347,
			"0.006": 17.464847052,
			"0.007": 3.95917963806,
			"0.008": 2.47291251364,
			"0.009": 2.1997026263,
			"0.01": 1.899349318,
			"0.011": 0.969789613785,
			"0.012": 0.0370930885921,
			"0.013": 0.0,
			"0.014": 0.0,
			"0.015": 0.0,
			"0.016": 0.0,
			"0.017": 0.0,
			"0.018": 0.0,
			"0.019": 0.0,
			"0.02": 0.0,
			"0.021": 0.0,
			"0.022": 0.0,
			"0.023": 0.0,
			"0.024": 0.0,
			"0.025": 0.0
		}
	}
}
