{
	 "smiles": "CC1=NC(=NO1)C1=CC=C(CO)C=C1", 
	 "Tm": 405.15, 
	 "num_atms": 24, 
	 "gaussian": { 
		 "optdone": 1, 
		 "sigma_profile": "yes", 
		 "theory": "DFT", 
		 "functional": "B3LYP", 
		 "basiset": "6-31G**", 
		 "properties": { 
			 "R2extent": 4768.2128, 
			 "electric_dipole_moment_norm": 2.72714431961, 
			 "electric_quadrupole_moment_norm": 30.5777549557, 
			 "total_energy": -647.002966121, 
			 "HOMO_LUMO_gap": 0.19143, 
			 "cosmo_polarized_energy": -13.02, 
			 "cosmo_cavitation_energy": 28.74, 
			 "cosmo_dispersion_energy": -21.5, 
			 "cosmo_repulsion_energy": 1.7, 
			 "cosmo_total_nonelectrostatic_energy": 8.93, 
			 "SMD_solvation_energy": 3.68 
		},
		"coords": [
			{
				"x": -0.9057226425,
				"y": -4.781612701,
				"z": -0.7640105374,
				"element": "C" 
			},
			{
				"x": -0.7723847014,
				"y": -3.3804261204,
				"z": -1.2466352826,
				"element": "C" 
			},
			{
				"x": -0.953010623,
				"y": -2.2750289672,
				"z": -0.5880845911,
				"element": "N" 
			},
			{
				"x": -0.6901587524,
				"y": -1.3077244202,
				"z": -1.5438544715,
				"element": "C" 
			},
			{
				"x": -0.366090632,
				"y": -1.79151264,
				"z": -2.7231909469,
				"element": "N" 
			},
			{
				"x": -0.4195221036,
				"y": -3.1827282024,
				"z": -2.5296342324,
				"element": "O" 
			},
			{
				"x": -0.7663643895,
				"y": 0.1312878965,
				"z": -1.2630634152,
				"element": "C" 
			},
			{
				"x": -0.4927366909,
				"y": 1.0780946023,
				"z": -2.2612474473,
				"element": "C" 
			},
			{
				"x": -0.5677208562,
				"y": 2.4394391156,
				"z": -1.9802865256,
				"element": "C" 
			},
			{
				"x": -0.9209008956,
				"y": 2.8826791708,
				"z": -0.7004938697,
				"element": "C" 
			},
			{
				"x": -0.9756313468,
				"y": 4.3568626106,
				"z": -0.3671364399,
				"element": "C" 
			},
			{
				"x": -0.9841736659,
				"y": 5.1224845828,
				"z": -1.5612889761,
				"element": "O" 
			},
			{
				"x": -1.1997567758,
				"y": 1.9348446355,
				"z": 0.2921227398,
				"element": "C" 
			},
			{
				"x": -1.1213058391,
				"y": 0.5726687549,
				"z": 0.0200814176,
				"element": "C" 
			},
			{
				"x": -1.6643657193,
				"y": -5.3178999588,
				"z": -1.3423003492,
				"element": "H" 
			},
			{
				"x": 0.0403226777,
				"y": -5.3199271479,
				"z": -0.8769381284,
				"element": "H" 
			},
			{
				"x": -1.19284707,
				"y": -4.772476072,
				"z": 0.2873773254,
				"element": "H" 
			},
			{
				"x": -0.2217668433,
				"y": 0.7391295157,
				"z": -3.2558765017,
				"element": "H" 
			},
			{
				"x": -0.360608117,
				"y": 3.1719921179,
				"z": -2.7515887034,
				"element": "H" 
			},
			{
				"x": -1.8716909761,
				"y": 4.554851618,
				"z": 0.2439465853,
				"element": "H" 
			},
			{
				"x": -0.1036233338,
				"y": 4.6124361568,
				"z": 0.2591877714,
				"element": "H" 
			},
			{
				"x": -0.8985198854,
				"y": 6.0524810879,
				"z": -1.3211994518,
				"element": "H" 
			},
			{
				"x": -1.4840086946,
				"y": 2.2647191813,
				"z": 1.2890324273,
				"element": "H" 
			},
			{
				"x": -1.3379121236,
				"y": -0.1604348165,
				"z": 0.7893816034,
				"element": "H" 
			}
		],
		 "valence_orbital": [ 
			{
				"type": "occ",
				"energy": -0.29106,
				"method": "rhf"
			},
			{
				"type": "occ",
				"energy": -0.28939,
				"method": "rhf"
			},
			{
				"type": "occ",
				"energy": -0.27712,
				"method": "rhf"
			},
			{
				"type": "occ",
				"energy": -0.24969,
				"method": "rhf"
			},
			{
				"type": "occ",
				"energy": -0.23053,
				"method": "rhf"
			},
			{
				"type": "unocc",
				"energy": -0.0391,
				"method": "rhf"
			},
			{
				"type": "unocc",
				"energy": -0.00225,
				"method": "rhf"
			},
			{
				"type": "unocc",
				"energy": 0.00509,
				"method": "rhf"
			},
			{
				"type": "unocc",
				"energy": 0.06713,
				"method": "rhf"
			},
			{
				"type": "unocc",
				"energy": 0.07803,
				"method": "rhf"
			}
		],
		"cosmo_sigma_profile": { 
			"-0.025": 0.0,
			"-0.024": 0.0,
			"-0.023": 0.0,
			"-0.022": 0.0,
			"-0.021": 0.0,
			"-0.02": 0.0,
			"-0.019": 0.0,
			"-0.018": 0.0,
			"-0.017": 0.232166901531,
			"-0.016": 0.869486560576,
			"-0.015": 1.17182181115,
			"-0.014": 1.1097382834,
			"-0.013": 0.736803838046,
			"-0.012": 0.411587568931,
			"-0.011": 1.18249126315,
			"-0.01": 0.627143216146,
			"-0.009": 0.599572829925,
			"-0.008": 1.80609168783,
			"-0.007": 7.22960146966,
			"-0.006": 11.2633840033,
			"-0.005": 19.4254990436,
			"-0.004": 21.6079362877,
			"-0.003": 19.7630945065,
			"-0.002": 13.9587170403,
			"-0.001": 10.7726710299,
			"0.0": 12.2268895296,
			"0.001": 12.4543557261,
			"0.002": 16.3571829071,
			"0.003": 13.8016641765,
			"0.004": 18.0804249998,
			"0.005": 9.07113394635,
			"0.006": 6.26760490547,
			"0.007": 7.75159647599,
			"0.008": 4.33702594204,
			"0.009": 3.55645277478,
			"0.01": 4.44129308351,
			"0.011": 3.96628045917,
			"0.012": 2.65037026081,
			"0.013": 1.32059690479,
			"0.014": 0.18787861425,
			"0.015": 0.0,
			"0.016": 0.0,
			"0.017": 0.0,
			"0.018": 0.0,
			"0.019": 0.0,
			"0.02": 0.0,
			"0.021": 0.0,
			"0.022": 0.0,
			"0.023": 0.0,
			"0.024": 0.0,
			"0.025": 0.0
		}
	}
}
