{
	 "smiles": "O=CC1=CN(C2=C1C=CC=C2)S(=O)(=O)C1=CC=CC=C1", 
	 "Tm": 429.15, 
	 "num_atms": 31, 
	 "gaussian": { 
		 "optdone": 1, 
		 "sigma_profile": "yes", 
		 "theory": "DFT", 
		 "functional": "B3LYP", 
		 "basiset": "6-31G**", 
		 "properties": { 
			 "R2extent": 6476.9539, 
			 "electric_dipole_moment_norm": 5.504778595, 
			 "electric_quadrupole_moment_norm": 24.6173448808, 
			 "total_energy": -1256.75512168, 
			 "HOMO_LUMO_gap": 0.16378, 
			 "cosmo_polarized_energy": -15.5, 
			 "cosmo_cavitation_energy": 37.12, 
			 "cosmo_dispersion_energy": -26.33, 
			 "cosmo_repulsion_energy": 1.95, 
			 "cosmo_total_nonelectrostatic_energy": 12.74, 
			 "SMD_solvation_energy": 6.56 
		},
		"coords": [
			{
				"x": -0.9738126874,
				"y": 3.7140425991,
				"z": 1.7170887163,
				"element": "O" 
			},
			{
				"x": -0.0564573875,
				"y": 3.3672004024,
				"z": 0.9900262554,
				"element": "C" 
			},
			{
				"x": 0.5872081056,
				"y": 2.0606542372,
				"z": 1.0382444412,
				"element": "C" 
			},
			{
				"x": 1.6085323094,
				"y": 1.6621750516,
				"z": 0.2106199977,
				"element": "C" 
			},
			{
				"x": 2.0037666001,
				"y": 0.3775026966,
				"z": 0.5450665569,
				"element": "N" 
			},
			{
				"x": 1.2014288905,
				"y": -0.088159376,
				"z": 1.6127855725,
				"element": "C" 
			},
			{
				"x": 0.3057219847,
				"y": 0.957717034,
				"z": 1.9370928966,
				"element": "C" 
			},
			{
				"x": -0.612388778,
				"y": 0.7858883458,
				"z": 2.982260654,
				"element": "C" 
			},
			{
				"x": -0.6130619913,
				"y": -0.4234156779,
				"z": 3.6687149407,
				"element": "C" 
			},
			{
				"x": 0.2917170852,
				"y": -1.4483591972,
				"z": 3.3369881641,
				"element": "C" 
			},
			{
				"x": 1.219085385,
				"y": -1.2989289091,
				"z": 2.3084229642,
				"element": "C" 
			},
			{
				"x": 3.0736694791,
				"y": -0.5494422164,
				"z": -0.4442266467,
				"element": "S" 
			},
			{
				"x": 3.7080582438,
				"y": -1.5170233059,
				"z": 0.4435416828,
				"element": "O" 
			},
			{
				"x": 3.8252426175,
				"y": 0.4471614347,
				"z": -1.2013663839,
				"element": "O" 
			},
			{
				"x": 1.9795217745,
				"y": -1.4175949705,
				"z": -1.5629306228,
				"element": "C" 
			},
			{
				"x": 1.5224116965,
				"y": -2.6921137741,
				"z": -1.2203238663,
				"element": "C" 
			},
			{
				"x": 0.6617937329,
				"y": -3.3528111756,
				"z": -2.0968446326,
				"element": "C" 
			},
			{
				"x": 0.2740085539,
				"y": -2.7434852098,
				"z": -3.292205899,
				"element": "C" 
			},
			{
				"x": 0.7493227143,
				"y": -1.4722256815,
				"z": -3.6250019823,
				"element": "C" 
			},
			{
				"x": 1.6095421236,
				"y": -0.7981165804,
				"z": -2.7597235874,
				"element": "C" 
			},
			{
				"x": 0.3505821691,
				"y": 4.0576691277,
				"z": 0.2182461411,
				"element": "H" 
			},
			{
				"x": 2.1160840541,
				"y": 2.1914478523,
				"z": -0.5823495552,
				"element": "H" 
			},
			{
				"x": -1.2937465367,
				"y": 1.5905270389,
				"z": 3.2323933801,
				"element": "H" 
			},
			{
				"x": -1.3164712676,
				"y": -0.57835634,
				"z": 4.4813429186,
				"element": "H" 
			},
			{
				"x": 0.2775951143,
				"y": -2.3756817412,
				"z": 3.9018930479,
				"element": "H" 
			},
			{
				"x": 1.9401393937,
				"y": -2.0734440166,
				"z": 2.0792535802,
				"element": "H" 
			},
			{
				"x": 1.848762479,
				"y": -3.1582905552,
				"z": -0.2981811475,
				"element": "H" 
			},
			{
				"x": 0.2994861806,
				"y": -4.3450482487,
				"z": -1.8471282106,
				"element": "H" 
			},
			{
				"x": -0.3952914208,
				"y": -3.2637543928,
				"z": -3.9707180911,
				"element": "H" 
			},
			{
				"x": 0.4557332952,
				"y": -1.00735905,
				"z": -4.5609190026,
				"element": "H" 
			},
			{
				"x": 2.0046160868,
				"y": 0.1798245989,
				"z": -3.0110622826,
				"element": "H" 
			}
		],
		 "valence_orbital": [ 
			{
				"type": "occ",
				"energy": -0.28777,
				"method": "rhf"
			},
			{
				"type": "occ",
				"energy": -0.28463,
				"method": "rhf"
			},
			{
				"type": "occ",
				"energy": -0.25119,
				"method": "rhf"
			},
			{
				"type": "occ",
				"energy": -0.2445,
				"method": "rhf"
			},
			{
				"type": "occ",
				"energy": -0.23044,
				"method": "rhf"
			},
			{
				"type": "unocc",
				"energy": -0.06666,
				"method": "rhf"
			},
			{
				"type": "unocc",
				"energy": -0.04713,
				"method": "rhf"
			},
			{
				"type": "unocc",
				"energy": -0.03714,
				"method": "rhf"
			},
			{
				"type": "unocc",
				"energy": -0.01426,
				"method": "rhf"
			},
			{
				"type": "unocc",
				"energy": 0.00136,
				"method": "rhf"
			}
		],
		"cosmo_sigma_profile": { 
			"-0.025": 0.0,
			"-0.024": 0.0,
			"-0.023": 0.0,
			"-0.022": 0.0,
			"-0.021": 0.0,
			"-0.02": 0.0,
			"-0.019": 0.0,
			"-0.018": 0.0,
			"-0.017": 0.0,
			"-0.016": 0.0,
			"-0.015": 0.0,
			"-0.014": 0.0,
			"-0.013": 0.0,
			"-0.012": 0.0,
			"-0.011": 0.0955275397887,
			"-0.01": 1.42220492503,
			"-0.009": 2.26311282519,
			"-0.008": 4.24537151935,
			"-0.007": 15.0534538106,
			"-0.006": 22.9520813847,
			"-0.005": 20.59370067,
			"-0.004": 17.2993389231,
			"-0.003": 18.4984103383,
			"-0.002": 19.2167400863,
			"-0.001": 19.3229942469,
			"0.0": 22.6266372971,
			"0.001": 25.0220106288,
			"0.002": 27.225783502,
			"0.003": 19.0666878809,
			"0.004": 14.9708733302,
			"0.005": 10.7820320929,
			"0.006": 4.60059800959,
			"0.007": 4.55183151364,
			"0.008": 6.34355609341,
			"0.009": 9.66393468259,
			"0.01": 6.31123804546,
			"0.011": 2.90543148378,
			"0.012": 3.18075857624,
			"0.013": 1.37677731219,
			"0.014": 0.150796881862,
			"0.015": 0.0,
			"0.016": 0.0,
			"0.017": 0.0,
			"0.018": 0.0,
			"0.019": 0.0,
			"0.02": 0.0,
			"0.021": 0.0,
			"0.022": 0.0,
			"0.023": 0.0,
			"0.024": 0.0,
			"0.025": 0.0
		}
	}
}
