{
	 "smiles": "CCCS(N)(=O)=O", 
	 "Tm": 321.15, 
	 "num_atms": 16, 
	 "gaussian": { 
		 "optdone": 1, 
		 "sigma_profile": "yes", 
		 "theory": "DFT", 
		 "functional": "B3LYP", 
		 "basiset": "6-31G**", 
		 "properties": { 
			 "R2extent": 1378.286, 
			 "electric_dipole_moment_norm": 3.45226954336, 
			 "electric_quadrupole_moment_norm": 13.1575292776, 
			 "total_energy": -723.075128953, 
			 "HOMO_LUMO_gap": 0.33865, 
			 "cosmo_polarized_energy": -13.83, 
			 "cosmo_cavitation_energy": 19.9, 
			 "cosmo_dispersion_energy": -15.5, 
			 "cosmo_repulsion_energy": 1.28, 
			 "cosmo_total_nonelectrostatic_energy": 5.67, 
			 "SMD_solvation_energy": 3.14 
		},
		"coords": [
			{
				"x": -1.3812642716,
				"y": -0.9156118231,
				"z": -2.5197048459,
				"element": "C" 
			},
			{
				"x": -1.1261986021,
				"y": -0.1184239962,
				"z": -1.2358209256,
				"element": "C" 
			},
			{
				"x": 0.3301415404,
				"y": 0.307535216,
				"z": -1.0176080826,
				"element": "C" 
			},
			{
				"x": 1.4596394725,
				"y": -0.9986353846,
				"z": -0.4669009701,
				"element": "S" 
			},
			{
				"x": 0.7995486251,
				"y": -1.4316910638,
				"z": 1.0399229893,
				"element": "N" 
			},
			{
				"x": 2.761798461,
				"y": -0.3669619056,
				"z": -0.2285084902,
				"element": "O" 
			},
			{
				"x": 1.3253787716,
				"y": -2.1709028544,
				"z": -1.3401868344,
				"element": "O" 
			},
			{
				"x": -0.8156959144,
				"y": -1.8494298226,
				"z": -2.5286394213,
				"element": "H" 
			},
			{
				"x": -1.0899965614,
				"y": -0.337166796,
				"z": -3.4037606975,
				"element": "H" 
			},
			{
				"x": -2.4455597809,
				"y": -1.1528032741,
				"z": -2.6143942168,
				"element": "H" 
			},
			{
				"x": -1.4678126669,
				"y": -0.6762515364,
				"z": -0.3564919085,
				"element": "H" 
			},
			{
				"x": -1.7188124164,
				"y": 0.8046013173,
				"z": -1.2556381951,
				"element": "H" 
			},
			{
				"x": 0.4188804586,
				"y": 1.0804328503,
				"z": -0.2493345696,
				"element": "H" 
			},
			{
				"x": 0.7913123224,
				"y": 0.6876637005,
				"z": -1.935311993,
				"element": "H" 
			},
			{
				"x": 1.4535711151,
				"y": -1.1742045913,
				"z": 1.7750631108,
				"element": "H" 
			},
			{
				"x": 0.6298694471,
				"y": -2.4342500359,
				"z": 1.0436150504,
				"element": "H" 
			}
		],
		 "valence_orbital": [ 
			{
				"type": "occ",
				"energy": -0.35032,
				"method": "rhf"
			},
			{
				"type": "occ",
				"energy": -0.31598,
				"method": "rhf"
			},
			{
				"type": "occ",
				"energy": -0.31015,
				"method": "rhf"
			},
			{
				"type": "occ",
				"energy": -0.30044,
				"method": "rhf"
			},
			{
				"type": "occ",
				"energy": -0.28776,
				"method": "rhf"
			},
			{
				"type": "unocc",
				"energy": 0.05089,
				"method": "rhf"
			},
			{
				"type": "unocc",
				"energy": 0.07541,
				"method": "rhf"
			},
			{
				"type": "unocc",
				"energy": 0.08321,
				"method": "rhf"
			},
			{
				"type": "unocc",
				"energy": 0.09532,
				"method": "rhf"
			},
			{
				"type": "unocc",
				"energy": 0.10352,
				"method": "rhf"
			}
		],
		"cosmo_sigma_profile": { 
			"-0.025": 0.0,
			"-0.024": 0.0,
			"-0.023": 0.0,
			"-0.022": 0.0,
			"-0.021": 0.0,
			"-0.02": 0.0,
			"-0.019": 0.0,
			"-0.018": 0.0,
			"-0.017": 0.0,
			"-0.016": 0.0,
			"-0.015": 0.441145324871,
			"-0.014": 1.87719307727,
			"-0.013": 2.77463848282,
			"-0.012": 3.00503009868,
			"-0.011": 1.78197618027,
			"-0.01": 1.77528983237,
			"-0.009": 1.76777738435,
			"-0.008": 4.46479122362,
			"-0.007": 6.0925861212,
			"-0.006": 5.77146135631,
			"-0.005": 6.24604175517,
			"-0.004": 11.0412838048,
			"-0.003": 11.59007181,
			"-0.002": 11.4858043666,
			"-0.001": 14.4378921882,
			"0.0": 9.27478276613,
			"0.001": 10.8965547848,
			"0.002": 4.70906952713,
			"0.003": 3.23901455834,
			"0.004": 2.49723998176,
			"0.005": 3.1038738729,
			"0.006": 3.37280337442,
			"0.007": 3.38595051563,
			"0.008": 3.06730409528,
			"0.009": 3.87531982316,
			"0.01": 5.12082200533,
			"0.011": 9.59210749615,
			"0.012": 7.93863621127,
			"0.013": 0.584642642261,
			"0.014": 0.0,
			"0.015": 0.0,
			"0.016": 0.0,
			"0.017": 0.0,
			"0.018": 0.0,
			"0.019": 0.0,
			"0.02": 0.0,
			"0.021": 0.0,
			"0.022": 0.0,
			"0.023": 0.0,
			"0.024": 0.0,
			"0.025": 0.0
		}
	}
}
