{
	 "smiles": "ONC(=O)C1=CC=C(Cl)C=C1", 
	 "Tm": 444.15, 
	 "num_atms": 17, 
	 "gaussian": { 
		 "optdone": 1, 
		 "sigma_profile": "yes", 
		 "theory": "DFT", 
		 "functional": "B3LYP", 
		 "basiset": "6-31G**", 
		 "properties": { 
			 "R2extent": 3368.7029, 
			 "electric_dipole_moment_norm": 2.17351314696, 
			 "electric_quadrupole_moment_norm": 11.2233778779, 
			 "total_energy": -935.705445143, 
			 "HOMO_LUMO_gap": 0.1829, 
			 "cosmo_polarized_energy": -11.56, 
			 "cosmo_cavitation_energy": 23.64, 
			 "cosmo_dispersion_energy": -17.83, 
			 "cosmo_repulsion_energy": 1.43, 
			 "cosmo_total_nonelectrostatic_energy": 7.24, 
			 "SMD_solvation_energy": 5.39 
		},
		"coords": [
			{
				"x": 0.345591027,
				"y": 2.9225176937,
				"z": 3.8530235155,
				"element": "O" 
			},
			{
				"x": -0.1093606112,
				"y": 2.0609777902,
				"z": 2.8447204452,
				"element": "N" 
			},
			{
				"x": -0.251464745,
				"y": 2.6543857061,
				"z": 1.6113742339,
				"element": "C" 
			},
			{
				"x": -0.147931187,
				"y": 3.8795982752,
				"z": 1.5144254689,
				"element": "O" 
			},
			{
				"x": -0.56043895,
				"y": 1.7533801878,
				"z": 0.4679998241,
				"element": "C" 
			},
			{
				"x": -1.0811973545,
				"y": 0.4622338527,
				"z": 0.6368130226,
				"element": "C" 
			},
			{
				"x": -1.3426353808,
				"y": -0.3442933394,
				"z": -0.4684281595,
				"element": "C" 
			},
			{
				"x": -1.0848577474,
				"y": 0.1519668649,
				"z": -1.74729663,
				"element": "C" 
			},
			{
				"x": -1.410836512,
				"y": -0.8592858746,
				"z": -3.142305396,
				"element": "Cl" 
			},
			{
				"x": -0.5823084086,
				"y": 1.4408157138,
				"z": -1.9372889804,
				"element": "C" 
			},
			{
				"x": -0.3267956807,
				"y": 2.2380205809,
				"z": -0.8258165674,
				"element": "C" 
			},
			{
				"x": 0.3746366315,
				"y": 3.7765183135,
				"z": 3.3653460883,
				"element": "H" 
			},
			{
				"x": 0.3691566933,
				"y": 1.1703069787,
				"z": 2.9071780955,
				"element": "H" 
			},
			{
				"x": -1.3176624127,
				"y": 0.092808917,
				"z": 1.6299651682,
				"element": "H" 
			},
			{
				"x": -1.752782184,
				"y": -1.3401041652,
				"z": -0.3441774898,
				"element": "H" 
			},
			{
				"x": -0.397659827,
				"y": 1.8093916273,
				"z": -2.9400446143,
				"element": "H" 
			},
			{
				"x": 0.0559466491,
				"y": 3.2461608774,
				"z": -0.9423880248,
				"element": "H" 
			}
		],
		 "valence_orbital": [ 
			{
				"type": "occ",
				"energy": -0.32555,
				"method": "rhf"
			},
			{
				"type": "occ",
				"energy": -0.28956,
				"method": "rhf"
			},
			{
				"type": "occ",
				"energy": -0.28188,
				"method": "rhf"
			},
			{
				"type": "occ",
				"energy": -0.26552,
				"method": "rhf"
			},
			{
				"type": "occ",
				"energy": -0.24303,
				"method": "rhf"
			},
			{
				"type": "unocc",
				"energy": -0.06013,
				"method": "rhf"
			},
			{
				"type": "unocc",
				"energy": -0.03143,
				"method": "rhf"
			},
			{
				"type": "unocc",
				"energy": 0.01726,
				"method": "rhf"
			},
			{
				"type": "unocc",
				"energy": 0.02991,
				"method": "rhf"
			},
			{
				"type": "unocc",
				"energy": 0.0787,
				"method": "rhf"
			}
		],
		"cosmo_sigma_profile": { 
			"-0.025": 0.0,
			"-0.024": 0.0,
			"-0.023": 0.0,
			"-0.022": 0.0,
			"-0.021": 0.0,
			"-0.02": 0.0,
			"-0.019": 0.0,
			"-0.018": 0.0,
			"-0.017": 0.123245851391,
			"-0.016": 1.08038056775,
			"-0.015": 1.43683038522,
			"-0.014": 0.628314214188,
			"-0.013": 1.79074576726,
			"-0.012": 1.57875845905,
			"-0.011": 1.90334622806,
			"-0.01": 1.73825733937,
			"-0.009": 1.70916481324,
			"-0.008": 4.83574267164,
			"-0.007": 8.17601164622,
			"-0.006": 8.49817995119,
			"-0.005": 7.39095888443,
			"-0.004": 7.24475896239,
			"-0.003": 9.0949758725,
			"-0.002": 10.7724624198,
			"-0.001": 11.6829800207,
			"0.0": 16.0925089193,
			"0.001": 19.0888380101,
			"0.002": 21.1803415869,
			"0.003": 11.1704966618,
			"0.004": 13.1980879379,
			"0.005": 5.27699664469,
			"0.006": 2.84437789622,
			"0.007": 3.45412487189,
			"0.008": 3.08449143736,
			"0.009": 3.42568757847,
			"0.01": 4.23436518575,
			"0.011": 4.85681621097,
			"0.012": 3.44691554588,
			"0.013": 0.5694452963,
			"0.014": 0.0,
			"0.015": 0.0,
			"0.016": 0.0,
			"0.017": 0.0,
			"0.018": 0.0,
			"0.019": 0.0,
			"0.02": 0.0,
			"0.021": 0.0,
			"0.022": 0.0,
			"0.023": 0.0,
			"0.024": 0.0,
			"0.025": 0.0
		}
	}
}
