{
	 "smiles": "CC1=CC2=C(CCCC2=O)C=C1", 
	 "Tm": 302.15, 
	 "num_atms": 24, 
	 "gaussian": { 
		 "optdone": 1, 
		 "sigma_profile": "yes", 
		 "theory": "DFT", 
		 "functional": "B3LYP", 
		 "basiset": "6-31G**", 
		 "properties": { 
			 "R2extent": 2509.99, 
			 "electric_dipole_moment_norm": 3.19266841529, 
			 "electric_quadrupole_moment_norm": 8.43928204055, 
			 "total_energy": -501.651180056, 
			 "HOMO_LUMO_gap": 0.18635, 
			 "cosmo_polarized_energy": -8.01, 
			 "cosmo_cavitation_energy": 26.22, 
			 "cosmo_dispersion_energy": -19.54, 
			 "cosmo_repulsion_energy": 1.55, 
			 "cosmo_total_nonelectrostatic_energy": 8.24, 
			 "SMD_solvation_energy": 4.44 
		},
		"coords": [
			{
				"x": 3.483069298,
				"y": 0.3788676475,
				"z": -2.280307651,
				"element": "C" 
			},
			{
				"x": 2.4247380717,
				"y": -0.3043072473,
				"z": -1.4463753187,
				"element": "C" 
			},
			{
				"x": 1.0857841694,
				"y": 0.0708575598,
				"z": -1.5165609016,
				"element": "C" 
			},
			{
				"x": 0.1017611104,
				"y": -0.5625087076,
				"z": -0.739781952,
				"element": "C" 
			},
			{
				"x": 0.4515647676,
				"y": -1.6092658631,
				"z": 0.1352241377,
				"element": "C" 
			},
			{
				"x": -0.595825518,
				"y": -2.2968396065,
				"z": 0.9857610553,
				"element": "C" 
			},
			{
				"x": -1.987891595,
				"y": -2.229587089,
				"z": 0.3462228474,
				"element": "C" 
			},
			{
				"x": -2.3504389924,
				"y": -0.7775100324,
				"z": 0.0138977951,
				"element": "C" 
			},
			{
				"x": -1.3122685496,
				"y": -0.0972528289,
				"z": -0.8701404371,
				"element": "C" 
			},
			{
				"x": -1.6265801756,
				"y": 0.8029033376,
				"z": -1.6355595569,
				"element": "O" 
			},
			{
				"x": 1.7983708166,
				"y": -1.9889808536,
				"z": 0.201433302,
				"element": "C" 
			},
			{
				"x": 2.7643606209,
				"y": -1.3500535195,
				"z": -0.5698868975,
				"element": "C" 
			},
			{
				"x": 3.9864206107,
				"y": -0.3314320933,
				"z": -2.9465402229,
				"element": "H" 
			},
			{
				"x": 3.0511163369,
				"y": 1.1691780265,
				"z": -2.8996020647,
				"element": "H" 
			},
			{
				"x": 4.2572407697,
				"y": 0.8319385704,
				"z": -1.6502133039,
				"element": "H" 
			},
			{
				"x": 0.7640027888,
				"y": 0.8703191409,
				"z": -2.1774611746,
				"element": "H" 
			},
			{
				"x": -0.3006484666,
				"y": -3.3363732307,
				"z": 1.1676919096,
				"element": "H" 
			},
			{
				"x": -0.6332582528,
				"y": -1.8137259676,
				"z": 1.9743407593,
				"element": "H" 
			},
			{
				"x": -1.9962143477,
				"y": -2.8295476838,
				"z": -0.5726803259,
				"element": "H" 
			},
			{
				"x": -2.7369772698,
				"y": -2.6647161083,
				"z": 1.0165617851,
				"element": "H" 
			},
			{
				"x": -2.4108772615,
				"y": -0.1926193775,
				"z": 0.9446520141,
				"element": "H" 
			},
			{
				"x": -3.3221550982,
				"y": -0.685186909,
				"z": -0.4791618197,
				"element": "H" 
			},
			{
				"x": 2.0906253672,
				"y": -2.8003931921,
				"z": 0.8638436544,
				"element": "H" 
			},
			{
				"x": 3.8014807991,
				"y": -1.6704639726,
				"z": -0.4978576335,
				"element": "H" 
			}
		],
		 "valence_orbital": [ 
			{
				"type": "occ",
				"energy": -0.33211,
				"method": "rhf"
			},
			{
				"type": "occ",
				"energy": -0.32968,
				"method": "rhf"
			},
			{
				"type": "occ",
				"energy": -0.25255,
				"method": "rhf"
			},
			{
				"type": "occ",
				"energy": -0.24055,
				"method": "rhf"
			},
			{
				"type": "occ",
				"energy": -0.23658,
				"method": "rhf"
			},
			{
				"type": "unocc",
				"energy": -0.05023,
				"method": "rhf"
			},
			{
				"type": "unocc",
				"energy": -0.00281,
				"method": "rhf"
			},
			{
				"type": "unocc",
				"energy": 0.04234,
				"method": "rhf"
			},
			{
				"type": "unocc",
				"energy": 0.09347,
				"method": "rhf"
			},
			{
				"type": "unocc",
				"energy": 0.10446,
				"method": "rhf"
			}
		],
		"cosmo_sigma_profile": { 
			"-0.025": 0.0,
			"-0.024": 0.0,
			"-0.023": 0.0,
			"-0.022": 0.0,
			"-0.021": 0.0,
			"-0.02": 0.0,
			"-0.019": 0.0,
			"-0.018": 0.0,
			"-0.017": 0.0,
			"-0.016": 0.0,
			"-0.015": 0.0,
			"-0.014": 0.0,
			"-0.013": 0.0,
			"-0.012": 0.0,
			"-0.011": 0.0,
			"-0.01": 0.0,
			"-0.009": 0.0,
			"-0.008": 0.0,
			"-0.007": 0.0,
			"-0.006": 3.06107661265,
			"-0.005": 11.5372788965,
			"-0.004": 25.5530742559,
			"-0.003": 27.0504359636,
			"-0.002": 27.9223280656,
			"-0.001": 24.4512919654,
			"0.0": 18.3457548082,
			"0.001": 10.7680432983,
			"0.002": 9.44723057308,
			"0.003": 10.9165139258,
			"0.004": 11.2354718912,
			"0.005": 7.34965761214,
			"0.006": 1.85700906378,
			"0.007": 1.46842659007,
			"0.008": 2.18672626383,
			"0.009": 1.48069031504,
			"0.01": 1.77273959087,
			"0.011": 2.27131229184,
			"0.012": 4.30954241944,
			"0.013": 2.98809451584,
			"0.014": 0.698040986872,
			"0.015": 0.0,
			"0.016": 0.0,
			"0.017": 0.0,
			"0.018": 0.0,
			"0.019": 0.0,
			"0.02": 0.0,
			"0.021": 0.0,
			"0.022": 0.0,
			"0.023": 0.0,
			"0.024": 0.0,
			"0.025": 0.0
		}
	}
}
