{
	 "smiles": "CC1=CC(CCCC(O)=O)=C(C)S1", 
	 "Tm": 330.15, 
	 "num_atms": 27, 
	 "gaussian": { 
		 "optdone": 1, 
		 "sigma_profile": "yes", 
		 "theory": "DFT", 
		 "functional": "B3LYP", 
		 "basiset": "6-31G**", 
		 "properties": { 
			 "R2extent": 3230.7533, 
			 "electric_dipole_moment_norm": 5.20252486683, 
			 "electric_quadrupole_moment_norm": 27.2809786586, 
			 "total_energy": -938.151086809, 
			 "HOMO_LUMO_gap": 0.20496, 
			 "cosmo_polarized_energy": -13.01, 
			 "cosmo_cavitation_energy": 30.8, 
			 "cosmo_dispersion_energy": -21.76, 
			 "cosmo_repulsion_energy": 1.69, 
			 "cosmo_total_nonelectrostatic_energy": 10.73, 
			 "SMD_solvation_energy": 5.6 
		},
		"coords": [
			{
				"x": -2.7335580355,
				"y": 1.9574190287,
				"z": -1.609166918,
				"element": "C" 
			},
			{
				"x": -1.4023257851,
				"y": 1.3726323636,
				"z": -1.2434941706,
				"element": "C" 
			},
			{
				"x": -1.1333568035,
				"y": 0.176178758,
				"z": -0.6389758636,
				"element": "C" 
			},
			{
				"x": 0.2648067634,
				"y": -0.0861923591,
				"z": -0.4216329299,
				"element": "C" 
			},
			{
				"x": 0.7781240332,
				"y": -1.3596787862,
				"z": 0.2173093528,
				"element": "C" 
			},
			{
				"x": 1.2505879939,
				"y": -1.2352491283,
				"z": 1.6841359826,
				"element": "C" 
			},
			{
				"x": 0.1680801669,
				"y": -0.7634165901,
				"z": 2.6928030001,
				"element": "C" 
			},
			{
				"x": 0.3353648041,
				"y": 0.666289574,
				"z": 3.2027051695,
				"element": "C" 
			},
			{
				"x": 0.4723537396,
				"y": 1.6304437987,
				"z": 2.260107275,
				"element": "O" 
			},
			{
				"x": 0.3492251019,
				"y": 0.9559255818,
				"z": 4.3749258921,
				"element": "O" 
			},
			{
				"x": 1.0626688036,
				"y": 0.9430721583,
				"z": -0.8786879949,
				"element": "C" 
			},
			{
				"x": 2.5586945333,
				"y": 1.0684769042,
				"z": -0.8343716043,
				"element": "C" 
			},
			{
				"x": 0.0890584473,
				"y": 2.2221430818,
				"z": -1.5693127301,
				"element": "S" 
			},
			{
				"x": -3.5299513902,
				"y": 1.257554656,
				"z": -1.3416757918,
				"element": "H" 
			},
			{
				"x": -2.8101914787,
				"y": 2.1598305173,
				"z": -2.6833158875,
				"element": "H" 
			},
			{
				"x": -2.9237042323,
				"y": 2.8993633101,
				"z": -1.0825834715,
				"element": "H" 
			},
			{
				"x": -1.9147139594,
				"y": -0.5234550412,
				"z": -0.3581102116,
				"element": "H" 
			},
			{
				"x": 1.6108563023,
				"y": -1.7583429094,
				"z": -0.3754571971,
				"element": "H" 
			},
			{
				"x": -0.01558133,
				"y": -2.1146794919,
				"z": 0.169177494,
				"element": "H" 
			},
			{
				"x": 1.6116092663,
				"y": -2.2203604356,
				"z": 1.9982229859,
				"element": "H" 
			},
			{
				"x": 2.120939913,
				"y": -0.570906302,
				"z": 1.7334257221,
				"element": "H" 
			},
			{
				"x": -0.8300447878,
				"y": -0.8469907436,
				"z": 2.2419547083,
				"element": "H" 
			},
			{
				"x": 0.1657157985,
				"y": -1.3939042149,
				"z": 3.5831981654,
				"element": "H" 
			},
			{
				"x": 0.3938310508,
				"y": 1.2564700594,
				"z": 1.3640807285,
				"element": "H" 
			},
			{
				"x": 2.9473735335,
				"y": 1.5741509688,
				"z": -1.7232749211,
				"element": "H" 
			},
			{
				"x": 2.8923505192,
				"y": 1.6384763504,
				"z": 0.0414240881,
				"element": "H" 
			},
			{
				"x": 3.024887032,
				"y": 0.0799488912,
				"z": -0.7843108724,
				"element": "H" 
			}
		],
		 "valence_orbital": [ 
			{
				"type": "occ",
				"energy": -0.3339,
				"method": "rhf"
			},
			{
				"type": "occ",
				"energy": -0.29759,
				"method": "rhf"
			},
			{
				"type": "occ",
				"energy": -0.25766,
				"method": "rhf"
			},
			{
				"type": "occ",
				"energy": -0.25261,
				"method": "rhf"
			},
			{
				"type": "occ",
				"energy": -0.22955,
				"method": "rhf"
			},
			{
				"type": "unocc",
				"energy": -0.02459,
				"method": "rhf"
			},
			{
				"type": "unocc",
				"energy": 0.01562,
				"method": "rhf"
			},
			{
				"type": "unocc",
				"energy": 0.02521,
				"method": "rhf"
			},
			{
				"type": "unocc",
				"energy": 0.04842,
				"method": "rhf"
			},
			{
				"type": "unocc",
				"energy": 0.07519,
				"method": "rhf"
			}
		],
		"cosmo_sigma_profile": { 
			"-0.025": 0.0,
			"-0.024": 0.0,
			"-0.023": 0.0,
			"-0.022": 0.0,
			"-0.021": 0.0,
			"-0.02": 0.0,
			"-0.019": 0.0,
			"-0.018": 0.0,
			"-0.017": 0.0,
			"-0.016": 0.0,
			"-0.015": 0.0,
			"-0.014": 0.0,
			"-0.013": 0.0,
			"-0.012": 0.0,
			"-0.011": 0.0,
			"-0.01": 0.0,
			"-0.009": 0.0,
			"-0.008": 0.0158825500637,
			"-0.007": 0.438556721812,
			"-0.006": 5.63847612091,
			"-0.005": 21.4003964865,
			"-0.004": 31.6952348849,
			"-0.003": 33.7747956161,
			"-0.002": 30.6413102457,
			"-0.001": 26.6833448977,
			"0.0": 14.7757936722,
			"0.001": 9.33992933129,
			"0.002": 10.432695605,
			"0.003": 10.5031363194,
			"0.004": 8.6094096771,
			"0.005": 9.77159722516,
			"0.006": 2.98949248652,
			"0.007": 1.95397755915,
			"0.008": 2.60709547683,
			"0.009": 2.54402380909,
			"0.01": 3.44253359268,
			"0.011": 5.34821049548,
			"0.012": 6.51627658077,
			"0.013": 4.27387955934,
			"0.014": 0.827383819379,
			"0.015": 0.0,
			"0.016": 0.0,
			"0.017": 0.0,
			"0.018": 0.0,
			"0.019": 0.0,
			"0.02": 0.0,
			"0.021": 0.0,
			"0.022": 0.0,
			"0.023": 0.0,
			"0.024": 0.0,
			"0.025": 0.0
		}
	}
}
