{
	 "smiles": "COC1=C(OC)C=C(NC(=O)C2(N)CCCC2)C=C1", 
	 "Tm": 390.15, 
	 "num_atms": 39, 
	 "gaussian": { 
		 "optdone": 1, 
		 "sigma_profile": "yes", 
		 "theory": "DFT", 
		 "functional": "B3LYP", 
		 "basiset": "6-31G**", 
		 "properties": { 
			 "R2extent": 6879.7269, 
			 "electric_dipole_moment_norm": 4.18542104931, 
			 "electric_quadrupole_moment_norm": 12.4698053918, 
			 "total_energy": -880.693721133, 
			 "HOMO_LUMO_gap": 0.19724, 
			 "cosmo_polarized_energy": -14.77, 
			 "cosmo_cavitation_energy": 39.88, 
			 "cosmo_dispersion_energy": -27.84, 
			 "cosmo_repulsion_energy": 2.17, 
			 "cosmo_total_nonelectrostatic_energy": 14.21, 
			 "SMD_solvation_energy": 7.59 
		},
		"coords": [
			{
				"x": -0.0490655925,
				"y": 5.0506625937,
				"z": -1.4054450347,
				"element": "C" 
			},
			{
				"x": 0.5274179102,
				"y": 3.7486198229,
				"z": -1.5754042076,
				"element": "O" 
			},
			{
				"x": 0.1118420501,
				"y": 2.8086931882,
				"z": -0.6604343206,
				"element": "C" 
			},
			{
				"x": 0.496828968,
				"y": 2.8727120129,
				"z": 0.6940851984,
				"element": "C" 
			},
			{
				"x": 1.2638575927,
				"y": 3.9052713921,
				"z": 1.1795821508,
				"element": "O" 
			},
			{
				"x": 2.6141362696,
				"y": 3.9401961708,
				"z": 0.6965260265,
				"element": "C" 
			},
			{
				"x": 0.0698412753,
				"y": 1.8862438978,
				"z": 1.5820988941,
				"element": "C" 
			},
			{
				"x": -0.739618454,
				"y": 0.8274434134,
				"z": 1.1482925541,
				"element": "C" 
			},
			{
				"x": -1.2008802653,
				"y": -0.116930565,
				"z": 2.1061050383,
				"element": "N" 
			},
			{
				"x": -1.2585801126,
				"y": -1.5044421738,
				"z": 2.1042533227,
				"element": "C" 
			},
			{
				"x": -2.0060888319,
				"y": -2.0496021351,
				"z": 2.9081737844,
				"element": "O" 
			},
			{
				"x": -0.3442534776,
				"y": -2.3344102505,
				"z": 1.1606497209,
				"element": "C" 
			},
			{
				"x": 0.9299732843,
				"y": -1.7142341048,
				"z": 0.7804837227,
				"element": "N" 
			},
			{
				"x": -0.0146950157,
				"y": -3.6926542547,
				"z": 1.8345151083,
				"element": "C" 
			},
			{
				"x": 0.230371579,
				"y": -4.638386111,
				"z": 0.6544550575,
				"element": "C" 
			},
			{
				"x": -0.9114108847,
				"y": -4.27878523,
				"z": -0.3111485477,
				"element": "C" 
			},
			{
				"x": -1.113922915,
				"y": -2.7490917507,
				"z": -0.1430317494,
				"element": "C" 
			},
			{
				"x": -1.1236189784,
				"y": 0.769085436,
				"z": -0.1979992624,
				"element": "C" 
			},
			{
				"x": -0.6838134193,
				"y": 1.7469302304,
				"z": -1.0911095198,
				"element": "C" 
			},
			{
				"x": 0.3760886176,
				"y": 5.6771510754,
				"z": -2.1919283178,
				"element": "H" 
			},
			{
				"x": -1.1388677326,
				"y": 5.009355772,
				"z": -1.5242034517,
				"element": "H" 
			},
			{
				"x": 0.1948601652,
				"y": 5.4701067186,
				"z": -0.4245610141,
				"element": "H" 
			},
			{
				"x": 3.0796807876,
				"y": 4.8118151857,
				"z": 1.160288616,
				"element": "H" 
			},
			{
				"x": 3.1556653519,
				"y": 3.0358832677,
				"z": 1.0006090392,
				"element": "H" 
			},
			{
				"x": 2.6465543021,
				"y": 4.0362026145,
				"z": -0.3926399223,
				"element": "H" 
			},
			{
				"x": 0.3881223594,
				"y": 1.9474064533,
				"z": 2.6178251659,
				"element": "H" 
			},
			{
				"x": -1.768697883,
				"y": 0.2564180536,
				"z": 2.8586829519,
				"element": "H" 
			},
			{
				"x": 0.7911022886,
				"y": -0.8921313947,
				"z": 0.2027401239,
				"element": "H" 
			},
			{
				"x": 1.4423571948,
				"y": -1.4169814814,
				"z": 1.6070868087,
				"element": "H" 
			},
			{
				"x": -0.8778526574,
				"y": -4.0145802594,
				"z": 2.4217640444,
				"element": "H" 
			},
			{
				"x": 0.8409450909,
				"y": -3.60285906,
				"z": 2.5129405695,
				"element": "H" 
			},
			{
				"x": 0.2253700181,
				"y": -5.6938322492,
				"z": 0.9454671338,
				"element": "H" 
			},
			{
				"x": 1.1991588922,
				"y": -4.413798709,
				"z": 0.1972317736,
				"element": "H" 
			},
			{
				"x": -0.7016369638,
				"y": -4.5575597722,
				"z": -1.3484169109,
				"element": "H" 
			},
			{
				"x": -1.8250554593,
				"y": -4.8062262227,
				"z": -0.0140616071,
				"element": "H" 
			},
			{
				"x": -2.1772893573,
				"y": -2.4986460408,
				"z": -0.0752676165,
				"element": "H" 
			},
			{
				"x": -0.6982820967,
				"y": -2.1962039732,
				"z": -0.9908066384,
				"element": "H" 
			},
			{
				"x": -1.782505207,
				"y": -0.0222879324,
				"z": -0.5367019368,
				"element": "H" 
			},
			{
				"x": -0.9748386934,
				"y": 1.7172463716,
				"z": -2.1362967476,
				"element": "H" 
			}
		],
		 "valence_orbital": [ 
			{
				"type": "occ",
				"energy": -0.27243,
				"method": "rhf"
			},
			{
				"type": "occ",
				"energy": -0.26918,
				"method": "rhf"
			},
			{
				"type": "occ",
				"energy": -0.25454,
				"method": "rhf"
			},
			{
				"type": "occ",
				"energy": -0.22944,
				"method": "rhf"
			},
			{
				"type": "occ",
				"energy": -0.21649,
				"method": "rhf"
			},
			{
				"type": "unocc",
				"energy": -0.01925,
				"method": "rhf"
			},
			{
				"type": "unocc",
				"energy": -0.01445,
				"method": "rhf"
			},
			{
				"type": "unocc",
				"energy": 0.02842,
				"method": "rhf"
			},
			{
				"type": "unocc",
				"energy": 0.07578,
				"method": "rhf"
			},
			{
				"type": "unocc",
				"energy": 0.08644,
				"method": "rhf"
			}
		],
		"cosmo_sigma_profile": { 
			"-0.025": 0.0,
			"-0.024": 0.0,
			"-0.023": 0.0,
			"-0.022": 0.0,
			"-0.021": 0.0,
			"-0.02": 0.0,
			"-0.019": 0.0,
			"-0.018": 0.0,
			"-0.017": 0.0,
			"-0.016": 0.0,
			"-0.015": 0.0,
			"-0.014": 0.216559741852,
			"-0.013": 0.994833141619,
			"-0.012": 0.985790696448,
			"-0.011": 0.918715393891,
			"-0.01": 1.26980568392,
			"-0.009": 2.07170235233,
			"-0.008": 2.58901761871,
			"-0.007": 3.25971563193,
			"-0.006": 11.2057437529,
			"-0.005": 16.5177013948,
			"-0.004": 25.363286876,
			"-0.003": 33.8334291706,
			"-0.002": 34.1455320818,
			"-0.001": 35.2904696749,
			"0.0": 29.5423641593,
			"0.001": 29.6407413519,
			"0.002": 17.639163899,
			"0.003": 12.9357820494,
			"0.004": 8.5441118037,
			"0.005": 5.35694025407,
			"0.006": 4.28588803485,
			"0.007": 4.59521345057,
			"0.008": 3.88942840512,
			"0.009": 4.28872730591,
			"0.01": 4.55460098766,
			"0.011": 4.29457258424,
			"0.012": 3.26954577971,
			"0.013": 4.88036833228,
			"0.014": 4.19914880224,
			"0.015": 0.895552090368,
			"0.016": 0.533031852332,
			"0.017": 0.115006838619,
			"0.018": 0.0,
			"0.019": 0.0,
			"0.02": 0.0,
			"0.021": 0.0,
			"0.022": 0.0,
			"0.023": 0.0,
			"0.024": 0.0,
			"0.025": 0.0
		}
	}
}
