{
	 "smiles": "CC1CC2=C(N1)C=CC=C2", 
	 "Tm": 222.15, 
	 "num_atms": 21, 
	 "gaussian": { 
		 "optdone": 1, 
		 "sigma_profile": "yes", 
		 "theory": "DFT", 
		 "functional": "B3LYP", 
		 "basiset": "6-31G**", 
		 "properties": { 
			 "R2extent": 1743.1176, 
			 "electric_dipole_moment_norm": 1.63553829059, 
			 "electric_quadrupole_moment_norm": 6.50194505283, 
			 "total_energy": -404.346973074, 
			 "HOMO_LUMO_gap": 0.19699, 
			 "cosmo_polarized_energy": -6.12, 
			 "cosmo_cavitation_energy": 23.19, 
			 "cosmo_dispersion_energy": -17.48, 
			 "cosmo_repulsion_energy": 1.42, 
			 "cosmo_total_nonelectrostatic_energy": 7.13, 
			 "SMD_solvation_energy": 2.59 
		},
		"coords": [
			{
				"x": -1.7165135341,
				"y": 2.1256146157,
				"z": -0.9686160041,
				"element": "C" 
			},
			{
				"x": -1.3576859766,
				"y": 0.6729775519,
				"z": -0.6770401314,
				"element": "C" 
			},
			{
				"x": 0.1633084194,
				"y": 0.3657477251,
				"z": -0.6603961513,
				"element": "C" 
			},
			{
				"x": 0.2655404874,
				"y": -0.7480688318,
				"z": 0.3594330033,
				"element": "C" 
			},
			{
				"x": -0.9215064084,
				"y": -0.7576405426,
				"z": 1.1142986112,
				"element": "C" 
			},
			{
				"x": -1.7874790707,
				"y": 0.2528318619,
				"z": 0.6761526949,
				"element": "N" 
			},
			{
				"x": -1.1007141126,
				"y": -1.6651745968,
				"z": 2.1585423161,
				"element": "C" 
			},
			{
				"x": -0.0655956964,
				"y": -2.5662792299,
				"z": 2.4366988001,
				"element": "C" 
			},
			{
				"x": 1.1176923032,
				"y": -2.561460397,
				"z": 1.6953940157,
				"element": "C" 
			},
			{
				"x": 1.2864544357,
				"y": -1.6406999787,
				"z": 0.6497702881,
				"element": "C" 
			},
			{
				"x": -1.2563826188,
				"y": 2.7881873534,
				"z": -0.2291279145,
				"element": "H" 
			},
			{
				"x": -2.8005124924,
				"y": 2.2817184081,
				"z": -0.9366328559,
				"element": "H" 
			},
			{
				"x": -1.3688129037,
				"y": 2.4168473246,
				"z": -1.9656184107,
				"element": "H" 
			},
			{
				"x": -1.8301221154,
				"y": 0.0257184032,
				"z": -1.4364101007,
				"element": "H" 
			},
			{
				"x": 0.7207976374,
				"y": 1.2517717006,
				"z": -0.322513088,
				"element": "H" 
			},
			{
				"x": 0.5400658486,
				"y": 0.1017225206,
				"z": -1.6530909039,
				"element": "H" 
			},
			{
				"x": -2.7784717128,
				"y": 0.0731848666,
				"z": 0.7838146753,
				"element": "H" 
			},
			{
				"x": -2.0184164166,
				"y": -1.6764461377,
				"z": 2.7402755316,
				"element": "H" 
			},
			{
				"x": -0.1918699669,
				"y": -3.2841224189,
				"z": 3.2427198615,
				"element": "H" 
			},
			{
				"x": 1.9059009336,
				"y": -3.2718522962,
				"z": 1.9253564849,
				"element": "H" 
			},
			{
				"x": 2.2052229601,
				"y": -1.6356779022,
				"z": 0.0681892778,
				"element": "H" 
			}
		],
		 "valence_orbital": [ 
			{
				"type": "occ",
				"energy": -0.33297,
				"method": "rhf"
			},
			{
				"type": "occ",
				"energy": -0.32269,
				"method": "rhf"
			},
			{
				"type": "occ",
				"energy": -0.2845,
				"method": "rhf"
			},
			{
				"type": "occ",
				"energy": -0.23479,
				"method": "rhf"
			},
			{
				"type": "occ",
				"energy": -0.18837,
				"method": "rhf"
			},
			{
				"type": "unocc",
				"energy": 0.00862,
				"method": "rhf"
			},
			{
				"type": "unocc",
				"energy": 0.02556,
				"method": "rhf"
			},
			{
				"type": "unocc",
				"energy": 0.08427,
				"method": "rhf"
			},
			{
				"type": "unocc",
				"energy": 0.10661,
				"method": "rhf"
			},
			{
				"type": "unocc",
				"energy": 0.12472,
				"method": "rhf"
			}
		],
		"cosmo_sigma_profile": { 
			"-0.025": 0.0,
			"-0.024": 0.0,
			"-0.023": 0.0,
			"-0.022": 0.0,
			"-0.021": 0.0,
			"-0.02": 0.0,
			"-0.019": 0.0,
			"-0.018": 0.0,
			"-0.017": 0.0,
			"-0.016": 0.0,
			"-0.015": 0.0,
			"-0.014": 0.0,
			"-0.013": 0.0339734361572,
			"-0.012": 0.835845028859,
			"-0.011": 1.34450629425,
			"-0.01": 1.14229802917,
			"-0.009": 0.822104461915,
			"-0.008": 1.60913498901,
			"-0.007": 1.79173166422,
			"-0.006": 2.20575637378,
			"-0.005": 7.0352260442,
			"-0.004": 13.2521054808,
			"-0.003": 21.7989862883,
			"-0.002": 26.4984641373,
			"-0.001": 17.9912572032,
			"0.0": 17.5176474965,
			"0.001": 13.0708500429,
			"0.002": 7.61736475926,
			"0.003": 7.79847838874,
			"0.004": 6.46082191558,
			"0.005": 8.3383401083,
			"0.006": 8.89501564376,
			"0.007": 8.38813218048,
			"0.008": 4.63223338605,
			"0.009": 0.636369624423,
			"0.01": 0.558200867897,
			"0.011": 0.951857798107,
			"0.012": 0.517400863422,
			"0.013": 0.565345777185,
			"0.014": 0.241214568301,
			"0.015": 0.00206659290214,
			"0.016": 0.0,
			"0.017": 0.0,
			"0.018": 0.0,
			"0.019": 0.0,
			"0.02": 0.0,
			"0.021": 0.0,
			"0.022": 0.0,
			"0.023": 0.0,
			"0.024": 0.0,
			"0.025": 0.0
		}
	}
}
