{
	 "smiles": "CC1=NN2C(S)=NC(=C2C(C)=C1)C1=CC=CC=C1", 
	 "Tm": 602.15, 
	 "num_atms": 31, 
	 "gaussian": { 
		 "optdone": 1, 
		 "sigma_profile": "yes", 
		 "theory": "DFT", 
		 "functional": "B3LYP", 
		 "basiset": "6-31G**", 
		 "properties": { 
			 "R2extent": 5799.5268, 
			 "electric_dipole_moment_norm": 4.98133833723, 
			 "electric_quadrupole_moment_norm": 12.9743855835, 
			 "total_energy": -1103.75090006, 
			 "HOMO_LUMO_gap": 0.13518, 
			 "cosmo_polarized_energy": -11.95, 
			 "cosmo_cavitation_energy": 36.08, 
			 "cosmo_dispersion_energy": -26.48, 
			 "cosmo_repulsion_energy": 1.99, 
			 "cosmo_total_nonelectrostatic_energy": 11.59, 
			 "SMD_solvation_energy": 3.25 
		},
		"coords": [
			{
				"x": 2.33259949,
				"y": 2.6215553482,
				"z": 3.6624264578,
				"element": "C" 
			},
			{
				"x": 1.740492029,
				"y": 1.9116191674,
				"z": 2.4752721125,
				"element": "C" 
			},
			{
				"x": 1.701117733,
				"y": 2.5852402819,
				"z": 1.3524407722,
				"element": "N" 
			},
			{
				"x": 1.1649652184,
				"y": 1.9136258713,
				"z": 0.2989783406,
				"element": "N" 
			},
			{
				"x": 0.9563233562,
				"y": 2.436893013,
				"z": -0.9414157636,
				"element": "C" 
			},
			{
				"x": 1.3787222754,
				"y": 4.0854567189,
				"z": -1.3944668319,
				"element": "S" 
			},
			{
				"x": 0.4125703529,
				"y": 1.547609006,
				"z": -1.7516811309,
				"element": "N" 
			},
			{
				"x": 0.2603008928,
				"y": 0.3850563542,
				"z": -1.04029945,
				"element": "C" 
			},
			{
				"x": 0.7029371409,
				"y": 0.5723703126,
				"z": 0.2767184756,
				"element": "C" 
			},
			{
				"x": 0.7155195391,
				"y": -0.1062086129,
				"z": 1.5297337328,
				"element": "C" 
			},
			{
				"x": 0.1585085884,
				"y": -1.4941410349,
				"z": 1.6959322059,
				"element": "C" 
			},
			{
				"x": 1.2381065821,
				"y": 0.575302285,
				"z": 2.6040503698,
				"element": "C" 
			},
			{
				"x": -0.3063578187,
				"y": -0.8007485422,
				"z": -1.707560105,
				"element": "C" 
			},
			{
				"x": -1.3946498,
				"y": -0.6400057448,
				"z": -2.5831160857,
				"element": "C" 
			},
			{
				"x": -1.9366721647,
				"y": -1.7352180368,
				"z": -3.2514297856,
				"element": "C" 
			},
			{
				"x": -1.3996448498,
				"y": -3.011925516,
				"z": -3.0650125695,
				"element": "C" 
			},
			{
				"x": -0.3045092158,
				"y": -3.1806273842,
				"z": -2.2164901464,
				"element": "C" 
			},
			{
				"x": 0.2425148803,
				"y": -2.0837011703,
				"z": -1.5503481378,
				"element": "C" 
			},
			{
				"x": 1.6055219208,
				"y": 2.682687652,
				"z": 4.479848066,
				"element": "H" 
			},
			{
				"x": 3.2049505538,
				"y": 2.078659727,
				"z": 4.0431055936,
				"element": "H" 
			},
			{
				"x": 2.6387551806,
				"y": 3.6312523036,
				"z": 3.3849755636,
				"element": "H" 
			},
			{
				"x": 1.8258843357,
				"y": 4.4000630426,
				"z": -0.1605708125,
				"element": "H" 
			},
			{
				"x": -0.7782291067,
				"y": -1.616755188,
				"z": 1.1469951248,
				"element": "H" 
			},
			{
				"x": 0.8527348651,
				"y": -2.250169608,
				"z": 1.3149907482,
				"element": "H" 
			},
			{
				"x": -0.0198249036,
				"y": -1.7053166982,
				"z": 2.7531068183,
				"element": "H" 
			},
			{
				"x": 1.262183595,
				"y": 0.1067334364,
				"z": 3.5825497273,
				"element": "H" 
			},
			{
				"x": -1.802366926,
				"y": 0.3545353446,
				"z": -2.7309051987,
				"element": "H" 
			},
			{
				"x": -2.7815060747,
				"y": -1.5930266329,
				"z": -3.9195526184,
				"element": "H" 
			},
			{
				"x": -1.8236559707,
				"y": -3.8652797325,
				"z": -3.5864360927,
				"element": "H" 
			},
			{
				"x": 0.1374071434,
				"y": -4.1645333744,
				"z": -2.085667061,
				"element": "H" 
			},
			{
				"x": 1.1251011578,
				"y": -2.2144025887,
				"z": -0.9325723193,
				"element": "H" 
			}
		],
		 "valence_orbital": [ 
			{
				"type": "occ",
				"energy": -0.27723,
				"method": "rhf"
			},
			{
				"type": "occ",
				"energy": -0.26779,
				"method": "rhf"
			},
			{
				"type": "occ",
				"energy": -0.24686,
				"method": "rhf"
			},
			{
				"type": "occ",
				"energy": -0.24258,
				"method": "rhf"
			},
			{
				"type": "occ",
				"energy": -0.1909,
				"method": "rhf"
			},
			{
				"type": "unocc",
				"energy": -0.05572,
				"method": "rhf"
			},
			{
				"type": "unocc",
				"energy": -0.01538,
				"method": "rhf"
			},
			{
				"type": "unocc",
				"energy": 0.00214,
				"method": "rhf"
			},
			{
				"type": "unocc",
				"energy": 0.0112,
				"method": "rhf"
			},
			{
				"type": "unocc",
				"energy": 0.02924,
				"method": "rhf"
			}
		],
		"cosmo_sigma_profile": { 
			"-0.025": 0.0,
			"-0.024": 0.0,
			"-0.023": 0.0,
			"-0.022": 0.0,
			"-0.021": 0.0,
			"-0.02": 0.0,
			"-0.019": 0.0,
			"-0.018": 0.0,
			"-0.017": 0.0,
			"-0.016": 0.0,
			"-0.015": 0.0,
			"-0.014": 0.0,
			"-0.013": 0.0,
			"-0.012": 0.0,
			"-0.011": 0.0213435512554,
			"-0.01": 0.853562619668,
			"-0.009": 1.00000235621,
			"-0.008": 1.20713411466,
			"-0.007": 3.09343724023,
			"-0.006": 12.0716635391,
			"-0.005": 22.6728323855,
			"-0.004": 25.0419377325,
			"-0.003": 23.5926161252,
			"-0.002": 23.3179307912,
			"-0.001": 31.937566403,
			"0.0": 26.6557704564,
			"0.001": 20.4622484074,
			"0.002": 20.6999760215,
			"0.003": 17.8155591997,
			"0.004": 15.3938205225,
			"0.005": 17.6543799819,
			"0.006": 12.3413321691,
			"0.007": 5.99591301581,
			"0.008": 2.3546845851,
			"0.009": 1.12084799981,
			"0.01": 1.39876794029,
			"0.011": 1.05452908705,
			"0.012": 0.955141400531,
			"0.013": 1.0891323691,
			"0.014": 0.740012085738,
			"0.015": 0.569327037025,
			"0.016": 0.253984929407,
			"0.017": 0.0,
			"0.018": 0.0,
			"0.019": 0.0,
			"0.02": 0.0,
			"0.021": 0.0,
			"0.022": 0.0,
			"0.023": 0.0,
			"0.024": 0.0,
			"0.025": 0.0
		}
	}
}
