{
	 "smiles": "CC(C)C1=CC=C(C=C1)C1(O)CCC(=O)CC1", 
	 "Tm": 408.15, 
	 "num_atms": 37, 
	 "gaussian": { 
		 "optdone": 1, 
		 "sigma_profile": "yes", 
		 "theory": "DFT", 
		 "functional": "B3LYP", 
		 "basiset": "6-31G**", 
		 "properties": { 
			 "R2extent": 5784.2795, 
			 "electric_dipole_moment_norm": 4.09912451262, 
			 "electric_quadrupole_moment_norm": 13.1583944104, 
			 "total_energy": -734.111152083, 
			 "HOMO_LUMO_gap": 0.2199, 
			 "cosmo_polarized_energy": -12.39, 
			 "cosmo_cavitation_energy": 37.25, 
			 "cosmo_dispersion_energy": -26.13, 
			 "cosmo_repulsion_energy": 2.04, 
			 "cosmo_total_nonelectrostatic_energy": 13.16, 
			 "SMD_solvation_energy": 6.53 
		},
		"coords": [
			{
				"x": 4.4162363663,
				"y": 0.0457011205,
				"z": -1.7828348056,
				"element": "C" 
			},
			{
				"x": 2.9858840087,
				"y": -0.3449454073,
				"z": -2.2005935585,
				"element": "C" 
			},
			{
				"x": 2.794453177,
				"y": -1.8728998848,
				"z": -2.1564396445,
				"element": "C" 
			},
			{
				"x": 1.9344291228,
				"y": 0.380352946,
				"z": -1.3719304377,
				"element": "C" 
			},
			{
				"x": 1.8381159575,
				"y": 0.2038565214,
				"z": 0.0132823551,
				"element": "C" 
			},
			{
				"x": 0.8677475736,
				"y": 0.8700911975,
				"z": 0.7650002461,
				"element": "C" 
			},
			{
				"x": -0.0534561679,
				"y": 1.7357122209,
				"z": 0.1604288152,
				"element": "C" 
			},
			{
				"x": 0.0575337746,
				"y": 1.9275787056,
				"z": -1.2266420782,
				"element": "C" 
			},
			{
				"x": 1.0256595906,
				"y": 1.2619678842,
				"z": -1.973804244,
				"element": "C" 
			},
			{
				"x": -1.121526693,
				"y": 2.5317125442,
				"z": 0.9253683136,
				"element": "C" 
			},
			{
				"x": -0.9479393102,
				"y": 3.9289241702,
				"z": 0.6241790883,
				"element": "O" 
			},
			{
				"x": -1.0914363034,
				"y": 2.3540761138,
				"z": 2.4624645881,
				"element": "C" 
			},
			{
				"x": -1.660694909,
				"y": 1.0193340849,
				"z": 2.9898109018,
				"element": "C" 
			},
			{
				"x": -2.9866921065,
				"y": 0.6356042377,
				"z": 2.3440838466,
				"element": "C" 
			},
			{
				"x": -3.9205546325,
				"y": 0.1963179462,
				"z": 2.9872827139,
				"element": "O" 
			},
			{
				"x": -3.039012585,
				"y": 0.8211126839,
				"z": 0.8357317446,
				"element": "C" 
			},
			{
				"x": -2.5473344351,
				"y": 2.2179628004,
				"z": 0.423002012,
				"element": "C" 
			},
			{
				"x": 4.5670087391,
				"y": 1.1277811484,
				"z": -1.8471214359,
				"element": "H" 
			},
			{
				"x": 4.6270821375,
				"y": -0.260061509,
				"z": -0.7521238785,
				"element": "H" 
			},
			{
				"x": 5.1539417817,
				"y": -0.4407175739,
				"z": -2.4302441439,
				"element": "H" 
			},
			{
				"x": 2.8486221347,
				"y": -0.0259185417,
				"z": -3.242205372,
				"element": "H" 
			},
			{
				"x": 3.5223104632,
				"y": -2.3723423611,
				"z": -2.805105085,
				"element": "H" 
			},
			{
				"x": 2.9328851069,
				"y": -2.2613436812,
				"z": -1.1414137149,
				"element": "H" 
			},
			{
				"x": 1.7908964267,
				"y": -2.1568944578,
				"z": -2.4879313592,
				"element": "H" 
			},
			{
				"x": 2.5307068598,
				"y": -0.4600381719,
				"z": 0.5241124667,
				"element": "H" 
			},
			{
				"x": 0.850044343,
				"y": 0.7093682281,
				"z": 1.8372214554,
				"element": "H" 
			},
			{
				"x": -0.6107799436,
				"y": 2.6262216622,
				"z": -1.7205152848,
				"element": "H" 
			},
			{
				"x": 1.081914242,
				"y": 1.4337957945,
				"z": -3.0463093311,
				"element": "H" 
			},
			{
				"x": -0.0165729702,
				"y": 4.1433269617,
				"z": 0.77159236,
				"element": "H" 
			},
			{
				"x": -1.6924602012,
				"y": 3.1776772203,
				"z": 2.8624142357,
				"element": "H" 
			},
			{
				"x": -0.0732797137,
				"y": 2.5051579085,
				"z": 2.8412919284,
				"element": "H" 
			},
			{
				"x": -0.9675090963,
				"y": 0.1945352893,
				"z": 2.7767765136,
				"element": "H" 
			},
			{
				"x": -1.8008882673,
				"y": 1.0499128682,
				"z": 4.0736813702,
				"element": "H" 
			},
			{
				"x": -4.0613878104,
				"y": 0.6366532383,
				"z": 0.4965633192,
				"element": "H" 
			},
			{
				"x": -2.3910264529,
				"y": 0.058525913,
				"z": 0.3799457264,
				"element": "H" 
			},
			{
				"x": -3.2098291534,
				"y": 2.9856943051,
				"z": 0.8400000341,
				"element": "H" 
			},
			{
				"x": -2.587591054,
				"y": 2.3265058738,
				"z": -0.6643196612,
				"element": "H" 
			}
		],
		 "valence_orbital": [ 
			{
				"type": "occ",
				"energy": -0.31191,
				"method": "rhf"
			},
			{
				"type": "occ",
				"energy": -0.27693,
				"method": "rhf"
			},
			{
				"type": "occ",
				"energy": -0.25528,
				"method": "rhf"
			},
			{
				"type": "occ",
				"energy": -0.24047,
				"method": "rhf"
			},
			{
				"type": "occ",
				"energy": -0.23516,
				"method": "rhf"
			},
			{
				"type": "unocc",
				"energy": -0.01526,
				"method": "rhf"
			},
			{
				"type": "unocc",
				"energy": -0.00976,
				"method": "rhf"
			},
			{
				"type": "unocc",
				"energy": -0.00695,
				"method": "rhf"
			},
			{
				"type": "unocc",
				"energy": 0.0815,
				"method": "rhf"
			},
			{
				"type": "unocc",
				"energy": 0.09102,
				"method": "rhf"
			}
		],
		"cosmo_sigma_profile": { 
			"-0.025": 0.0,
			"-0.024": 0.0,
			"-0.023": 0.0,
			"-0.022": 0.0,
			"-0.021": 0.0,
			"-0.02": 0.0,
			"-0.019": 0.0,
			"-0.018": 0.0,
			"-0.017": 0.0,
			"-0.016": 0.0235942787198,
			"-0.015": 0.581097322774,
			"-0.014": 0.617853827406,
			"-0.013": 0.93962484213,
			"-0.012": 0.741134894142,
			"-0.011": 0.459460674095,
			"-0.01": 1.08193533181,
			"-0.009": 1.07245017497,
			"-0.008": 0.437444087851,
			"-0.007": 1.79902971682,
			"-0.006": 6.59327062514,
			"-0.005": 15.6795621692,
			"-0.004": 27.6641788104,
			"-0.003": 32.7939710536,
			"-0.002": 36.1464247929,
			"-0.001": 33.2767939629,
			"0.0": 25.8149495683,
			"0.001": 24.9386429176,
			"0.002": 15.6682292116,
			"0.003": 9.84981009952,
			"0.004": 8.52325938077,
			"0.005": 9.63601491985,
			"0.006": 8.53089648867,
			"0.007": 3.0243377869,
			"0.008": 2.43550191229,
			"0.009": 2.62442809307,
			"0.01": 3.5268321774,
			"0.011": 3.9486927604,
			"0.012": 5.35373599993,
			"0.013": 4.72129027921,
			"0.014": 1.69910391667,
			"0.015": 0.0,
			"0.016": 0.0,
			"0.017": 0.0,
			"0.018": 0.0,
			"0.019": 0.0,
			"0.02": 0.0,
			"0.021": 0.0,
			"0.022": 0.0,
			"0.023": 0.0,
			"0.024": 0.0,
			"0.025": 0.0
		}
	}
}
