{
	 "smiles": "FC1=NC2=C(NC=N2)C(Cl)=N1", 
	 "Tm": 435.15, 
	 "num_atms": 13, 
	 "gaussian": { 
		 "optdone": 1, 
		 "sigma_profile": "yes", 
		 "theory": "DFT", 
		 "functional": "B3LYP", 
		 "basiset": "6-31G**", 
		 "properties": { 
			 "R2extent": 1983.0672, 
			 "electric_dipole_moment_norm": 6.05655279924, 
			 "electric_quadrupole_moment_norm": 8.08009225566, 
			 "total_energy": -970.771273764, 
			 "HOMO_LUMO_gap": 0.19715, 
			 "cosmo_polarized_energy": -17.72, 
			 "cosmo_cavitation_energy": 20.72, 
			 "cosmo_dispersion_energy": -15.86, 
			 "cosmo_repulsion_energy": 1.24, 
			 "cosmo_total_nonelectrostatic_energy": 6.11, 
			 "SMD_solvation_energy": -1.26 
		},
		"coords": [
			{
				"x": -3.1534264828,
				"y": 0.4558977117,
				"z": -1.9215577645,
				"element": "F" 
			},
			{
				"x": -2.0766805772,
				"y": 0.1551544059,
				"z": -1.2013836674,
				"element": "C" 
			},
			{
				"x": -1.5799606541,
				"y": 1.130131255,
				"z": -0.469995344,
				"element": "N" 
			},
			{
				"x": -0.4977455967,
				"y": 0.7638395545,
				"z": 0.2303571935,
				"element": "C" 
			},
			{
				"x": 0.0413002079,
				"y": -0.5473125303,
				"z": 0.1743390298,
				"element": "C" 
			},
			{
				"x": 1.1295845862,
				"y": -0.5288365439,
				"z": 1.0173901734,
				"element": "N" 
			},
			{
				"x": 1.190886462,
				"y": 0.7472172338,
				"z": 1.522240686,
				"element": "C" 
			},
			{
				"x": 0.2470535631,
				"y": 1.5473630112,
				"z": 1.0837769155,
				"element": "N" 
			},
			{
				"x": -0.598415615,
				"y": -1.4644836566,
				"z": -0.6463934081,
				"element": "C" 
			},
			{
				"x": -0.0078367379,
				"y": -3.1076504782,
				"z": -0.7820112309,
				"element": "Cl" 
			},
			{
				"x": -1.6629100163,
				"y": -1.1114044509,
				"z": -1.3378743077,
				"element": "N" 
			},
			{
				"x": 1.7513216202,
				"y": -1.2975567102,
				"z": 1.2194807138,
				"element": "H" 
			},
			{
				"x": 1.9663292406,
				"y": 1.0339411981,
				"z": 2.2210310105,
				"element": "H" 
			}
		],
		 "valence_orbital": [ 
			{
				"type": "occ",
				"energy": -0.33578,
				"method": "rhf"
			},
			{
				"type": "occ",
				"energy": -0.30952,
				"method": "rhf"
			},
			{
				"type": "occ",
				"energy": -0.29505,
				"method": "rhf"
			},
			{
				"type": "occ",
				"energy": -0.28228,
				"method": "rhf"
			},
			{
				"type": "occ",
				"energy": -0.26837,
				"method": "rhf"
			},
			{
				"type": "unocc",
				"energy": -0.07122,
				"method": "rhf"
			},
			{
				"type": "unocc",
				"energy": -0.01703,
				"method": "rhf"
			},
			{
				"type": "unocc",
				"energy": 0.01007,
				"method": "rhf"
			},
			{
				"type": "unocc",
				"energy": 0.01703,
				"method": "rhf"
			},
			{
				"type": "unocc",
				"energy": 0.05015,
				"method": "rhf"
			}
		],
		"cosmo_sigma_profile": { 
			"-0.025": 0.0,
			"-0.024": 0.0,
			"-0.023": 0.0,
			"-0.022": 0.0,
			"-0.021": 0.0,
			"-0.02": 0.0,
			"-0.019": 0.0637584627072,
			"-0.018": 1.40251472811,
			"-0.017": 1.44346475636,
			"-0.016": 1.23508471145,
			"-0.015": 0.785076798146,
			"-0.014": 1.57410150025,
			"-0.013": 1.0957753725,
			"-0.012": 2.35569889646,
			"-0.011": 4.39434493796,
			"-0.01": 2.53636481092,
			"-0.009": 3.32780147795,
			"-0.008": 2.4686897441,
			"-0.007": 1.7795385288,
			"-0.006": 3.71276903475,
			"-0.005": 6.35597653063,
			"-0.004": 11.4384267443,
			"-0.003": 13.6406501848,
			"-0.002": 10.3543912551,
			"-0.001": 7.9075139921,
			"0.0": 8.64403151671,
			"0.001": 9.96439669411,
			"0.002": 11.5405431858,
			"0.003": 17.8731042555,
			"0.004": 8.60940888307,
			"0.005": 5.0570773853,
			"0.006": 4.58936704839,
			"0.007": 4.25725799768,
			"0.008": 3.81181780701,
			"0.009": 2.83432115405,
			"0.01": 3.86926420358,
			"0.011": 4.01042021548,
			"0.012": 3.49919048175,
			"0.013": 2.05940506484,
			"0.014": 1.51577292792,
			"0.015": 0.936977701652,
			"0.016": 0.121785712662,
			"0.017": 0.0,
			"0.018": 0.0,
			"0.019": 0.0,
			"0.02": 0.0,
			"0.021": 0.0,
			"0.022": 0.0,
			"0.023": 0.0,
			"0.024": 0.0,
			"0.025": 0.0
		}
	}
}
