{
	 "smiles": "NC1=C(C=C(Br)N=C1)C(O)=O", 
	 "Tm": 530.15, 
	 "num_atms": 16, 
	 "gaussian": { 
		 "optdone": 1, 
		 "sigma_profile": "yes", 
		 "theory": "DFT", 
		 "functional": "B3LYP", 
		 "basiset": "6-31G**", 
		 "properties": { 
			 "R2extent": 3931.9889, 
			 "electric_dipole_moment_norm": 1.44489050796, 
			 "electric_quadrupole_moment_norm": 22.5167784454, 
			 "total_energy": -3063.01391726, 
			 "HOMO_LUMO_gap": 0.1497, 
			 "cosmo_polarized_energy": -16.52, 
			 "cosmo_cavitation_energy": 23.02, 
			 "cosmo_dispersion_energy": -17.97, 
			 "cosmo_repulsion_energy": 1.44, 
			 "cosmo_total_nonelectrostatic_energy": 6.49, 
			 "SMD_solvation_energy": 2.45 
		},
		"coords": [
			{
				"x": -0.1579098844,
				"y": 2.2277473649,
				"z": -0.8183908402,
				"element": "N" 
			},
			{
				"x": -0.4899575417,
				"y": 1.4270786184,
				"z": 0.2292384615,
				"element": "C" 
			},
			{
				"x": -0.2301430659,
				"y": 0.028031675,
				"z": 0.2505522335,
				"element": "C" 
			},
			{
				"x": -0.6075852699,
				"y": -0.6978422878,
				"z": 1.3908869899,
				"element": "C" 
			},
			{
				"x": -1.2469462677,
				"y": -0.0421600506,
				"z": 2.4328891209,
				"element": "C" 
			},
			{
				"x": -1.7557534597,
				"y": -1.0376283353,
				"z": 3.9932096711,
				"element": "Br" 
			},
			{
				"x": -1.52807849,
				"y": 1.2534455803,
				"z": 2.4171184643,
				"element": "N" 
			},
			{
				"x": -1.1631940876,
				"y": 1.9611884037,
				"z": 1.3581976738,
				"element": "C" 
			},
			{
				"x": 0.458468721,
				"y": -0.6187485084,
				"z": -0.9017064174,
				"element": "C" 
			},
			{
				"x": 0.4089343548,
				"y": -1.9682020563,
				"z": -0.9868733681,
				"element": "O" 
			},
			{
				"x": 1.0576092899,
				"y": 0.0024188891,
				"z": -1.7604903232,
				"element": "O" 
			},
			{
				"x": -0.23996781,
				"y": 3.2260696544,
				"z": -0.7135404535,
				"element": "H" 
			},
			{
				"x": 0.4833521061,
				"y": 1.8502396568,
				"z": -1.5048008693,
				"element": "H" 
			},
			{
				"x": -0.3787041953,
				"y": -1.7530145889,
				"z": 1.4951791284,
				"element": "H" 
			},
			{
				"x": -1.4013533045,
				"y": 3.0241719092,
				"z": 1.3775318195,
				"element": "H" 
			},
			{
				"x": -0.2259710951,
				"y": -2.3306959244,
				"z": -0.3540012911,
				"element": "H" 
			}
		],
		 "valence_orbital": [ 
			{
				"type": "occ",
				"energy": -0.30235,
				"method": "rhf"
			},
			{
				"type": "occ",
				"energy": -0.29547,
				"method": "rhf"
			},
			{
				"type": "occ",
				"energy": -0.2892,
				"method": "rhf"
			},
			{
				"type": "occ",
				"energy": -0.27976,
				"method": "rhf"
			},
			{
				"type": "occ",
				"energy": -0.22647,
				"method": "rhf"
			},
			{
				"type": "unocc",
				"energy": -0.07677,
				"method": "rhf"
			},
			{
				"type": "unocc",
				"energy": -0.02249,
				"method": "rhf"
			},
			{
				"type": "unocc",
				"energy": 0.00416,
				"method": "rhf"
			},
			{
				"type": "unocc",
				"energy": 0.02712,
				"method": "rhf"
			},
			{
				"type": "unocc",
				"energy": 0.05315,
				"method": "rhf"
			}
		],
		"cosmo_sigma_profile": { 
			"-0.025": 0.0,
			"-0.024": 0.0,
			"-0.023": 0.0,
			"-0.022": 0.0,
			"-0.021": 0.0,
			"-0.02": 0.49168704467,
			"-0.019": 0.760194724184,
			"-0.018": 1.17920077641,
			"-0.017": 1.0336751322,
			"-0.016": 0.908584522916,
			"-0.015": 0.904778289533,
			"-0.014": 2.97390983427,
			"-0.013": 2.41245379206,
			"-0.012": 3.02366445674,
			"-0.011": 2.21245510696,
			"-0.01": 3.55228546139,
			"-0.009": 4.33727792625,
			"-0.008": 4.15950429196,
			"-0.007": 4.39457112184,
			"-0.006": 3.90042139078,
			"-0.005": 4.63592418989,
			"-0.004": 7.10137482099,
			"-0.003": 7.20600621484,
			"-0.002": 8.08510951721,
			"-0.001": 14.243934478,
			"0.0": 18.1770885425,
			"0.001": 13.0774301054,
			"0.002": 9.77345107409,
			"0.003": 9.90048255428,
			"0.004": 12.5640880619,
			"0.005": 12.5036400773,
			"0.006": 5.66365689381,
			"0.007": 5.9364577618,
			"0.008": 3.95637712137,
			"0.009": 5.08910473233,
			"0.01": 5.58535908514,
			"0.011": 3.9362260518,
			"0.012": 2.72155422736,
			"0.013": 1.38657887666,
			"0.014": 0.459140315189,
			"0.015": 0.0288889728896,
			"0.016": 0.0,
			"0.017": 0.0,
			"0.018": 0.0,
			"0.019": 0.0,
			"0.02": 0.0,
			"0.021": 0.0,
			"0.022": 0.0,
			"0.023": 0.0,
			"0.024": 0.0,
			"0.025": 0.0
		}
	}
}
