{
	 "smiles": "CC1=C(F)C(=CC(=C1)C(O)=O)S(Cl)(=O)=O", 
	 "Tm": 467.15, 
	 "num_atms": 21, 
	 "gaussian": { 
		 "optdone": 1, 
		 "sigma_profile": "yes", 
		 "theory": "DFT", 
		 "functional": "B3LYP", 
		 "basiset": "6-31G**", 
		 "properties": { 
			 "R2extent": 4568.7541, 
			 "electric_dipole_moment_norm": 7.16376544842, 
			 "electric_quadrupole_moment_norm": 16.208567892, 
			 "total_energy": -1567.51303681, 
			 "HOMO_LUMO_gap": 0.18675, 
			 "cosmo_polarized_energy": -19.85, 
			 "cosmo_cavitation_energy": 30.02, 
			 "cosmo_dispersion_energy": -22.04, 
			 "cosmo_repulsion_energy": 1.67, 
			 "cosmo_total_nonelectrostatic_energy": 9.66, 
			 "SMD_solvation_energy": 5.48 
		},
		"coords": [
			{
				"x": 1.33128237,
				"y": 3.6957829383,
				"z": 0.7946594195,
				"element": "C" 
			},
			{
				"x": 0.8240829775,
				"y": 2.2963775864,
				"z": 0.5613308705,
				"element": "C" 
			},
			{
				"x": -0.5501581796,
				"y": 2.0475244619,
				"z": 0.546450879,
				"element": "C" 
			},
			{
				"x": -1.3846001241,
				"y": 3.0786669168,
				"z": 0.7126564437,
				"element": "F" 
			},
			{
				"x": -1.0627176429,
				"y": 0.7613773734,
				"z": 0.3551574228,
				"element": "C" 
			},
			{
				"x": -0.205096731,
				"y": -0.3178373628,
				"z": 0.1659899994,
				"element": "C" 
			},
			{
				"x": 1.1749257172,
				"y": -0.0950566346,
				"z": 0.1516576988,
				"element": "C" 
			},
			{
				"x": 1.6685500267,
				"y": 1.2009511825,
				"z": 0.3603870202,
				"element": "C" 
			},
			{
				"x": 2.0616046558,
				"y": -1.2931073898,
				"z": -0.039238962,
				"element": "C" 
			},
			{
				"x": 3.3278962632,
				"y": -1.0562049511,
				"z": -0.4690010662,
				"element": "O" 
			},
			{
				"x": 1.6907973541,
				"y": -2.4205183272,
				"z": 0.177437261,
				"element": "O" 
			},
			{
				"x": -2.827066734,
				"y": 0.45206452,
				"z": 0.4154709858,
				"element": "S" 
			},
			{
				"x": -3.4619788554,
				"y": 1.4151350216,
				"z": -1.3660119051,
				"element": "Cl" 
			},
			{
				"x": -3.0435427086,
				"y": -0.9739418873,
				"z": 0.2176723603,
				"element": "O" 
			},
			{
				"x": -3.4204500454,
				"y": 1.1821014331,
				"z": 1.5247996311,
				"element": "O" 
			},
			{
				"x": 0.9882603069,
				"y": 4.0833606915,
				"z": 1.7591826399,
				"element": "H" 
			},
			{
				"x": 0.9625776122,
				"y": 4.381543402,
				"z": 0.0251072788,
				"element": "H" 
			},
			{
				"x": 2.4230424907,
				"y": 3.7206793649,
				"z": 0.7834298768,
				"element": "H" 
			},
			{
				"x": -0.5949888032,
				"y": -1.3203106694,
				"z": 0.0333731413,
				"element": "H" 
			},
			{
				"x": 2.740590103,
				"y": 1.3776134219,
				"z": 0.4048369544,
				"element": "H" 
			},
			{
				"x": 3.4204899469,
				"y": -0.146101092,
				"z": -0.7823479499,
				"element": "H" 
			}
		],
		 "valence_orbital": [ 
			{
				"type": "occ",
				"energy": -0.33711,
				"method": "rhf"
			},
			{
				"type": "occ",
				"energy": -0.32202,
				"method": "rhf"
			},
			{
				"type": "occ",
				"energy": -0.30841,
				"method": "rhf"
			},
			{
				"type": "occ",
				"energy": -0.29944,
				"method": "rhf"
			},
			{
				"type": "occ",
				"energy": -0.28615,
				"method": "rhf"
			},
			{
				"type": "unocc",
				"energy": -0.0994,
				"method": "rhf"
			},
			{
				"type": "unocc",
				"energy": -0.07643,
				"method": "rhf"
			},
			{
				"type": "unocc",
				"energy": -0.06251,
				"method": "rhf"
			},
			{
				"type": "unocc",
				"energy": 0.00655,
				"method": "rhf"
			},
			{
				"type": "unocc",
				"energy": 0.03294,
				"method": "rhf"
			}
		],
		"cosmo_sigma_profile": { 
			"-0.025": 0.0,
			"-0.024": 0.0,
			"-0.023": 0.0,
			"-0.022": 0.0,
			"-0.021": 0.0,
			"-0.02": 0.199796491151,
			"-0.019": 1.05621857087,
			"-0.018": 1.37422241951,
			"-0.017": 0.524135505855,
			"-0.016": 1.10905975189,
			"-0.015": 1.4548279811,
			"-0.014": 1.24181994319,
			"-0.013": 0.700761558158,
			"-0.012": 1.22017697799,
			"-0.011": 1.30197450471,
			"-0.01": 1.3262155345,
			"-0.009": 2.58379427622,
			"-0.008": 3.17329299708,
			"-0.007": 3.41555048011,
			"-0.006": 9.78819726381,
			"-0.005": 13.1254821383,
			"-0.004": 16.8273186028,
			"-0.003": 21.1744412628,
			"-0.002": 24.1169927547,
			"-0.001": 19.0221144684,
			"0.0": 9.90185751902,
			"0.001": 11.8338315754,
			"0.002": 21.3564891826,
			"0.003": 16.5114526946,
			"0.004": 5.1114463092,
			"0.005": 6.66205222135,
			"0.006": 5.68833935205,
			"0.007": 11.8890240012,
			"0.008": 11.8680968191,
			"0.009": 4.95706152438,
			"0.01": 5.12046732283,
			"0.011": 5.30939717318,
			"0.012": 2.24773281127,
			"0.013": 0.372364711775,
			"0.014": 0.0,
			"0.015": 0.0,
			"0.016": 0.0,
			"0.017": 0.0,
			"0.018": 0.0,
			"0.019": 0.0,
			"0.02": 0.0,
			"0.021": 0.0,
			"0.022": 0.0,
			"0.023": 0.0,
			"0.024": 0.0,
			"0.025": 0.0
		}
	}
}
