{
	 "smiles": "NC1=NN=C(S)S1", 
	 "Tm": 517.15, 
	 "num_atms": 10, 
	 "gaussian": { 
		 "optdone": 1, 
		 "sigma_profile": "yes", 
		 "theory": "DFT", 
		 "functional": "B3LYP", 
		 "basiset": "6-31G**", 
		 "properties": { 
			 "R2extent": 1898.6059, 
			 "electric_dipole_moment_norm": 4.15226374042, 
			 "electric_quadrupole_moment_norm": 12.9915039534, 
			 "total_energy": -1038.60662925, 
			 "HOMO_LUMO_gap": 0.19698, 
			 "cosmo_polarized_energy": -15.66, 
			 "cosmo_cavitation_energy": 18.1, 
			 "cosmo_dispersion_energy": -14.82, 
			 "cosmo_repulsion_energy": 1.16, 
			 "cosmo_total_nonelectrostatic_energy": 4.44, 
			 "SMD_solvation_energy": 0.61 
		},
		"coords": [
			{
				"x": 0.5583688508,
				"y": 0.1259650312,
				"z": -1.0337854478,
				"element": "N" 
			},
			{
				"x": -0.2856460046,
				"y": -0.3404074703,
				"z": -0.0592585805,
				"element": "C" 
			},
			{
				"x": -0.2792392246,
				"y": -1.5801848184,
				"z": 0.3595012233,
				"element": "N" 
			},
			{
				"x": -1.1151193998,
				"y": -1.7868136824,
				"z": 1.4208444823,
				"element": "N" 
			},
			{
				"x": -1.7687311297,
				"y": -0.7304096692,
				"z": 1.7901742039,
				"element": "C" 
			},
			{
				"x": -3.0287680893,
				"y": -0.771390008,
				"z": 3.0315162897,
				"element": "S" 
			},
			{
				"x": -1.3917306045,
				"y": 0.7115690521,
				"z": 0.8203067279,
				"element": "S" 
			},
			{
				"x": 1.0455794095,
				"y": -0.617422437,
				"z": -1.5187512711,
				"element": "H" 
			},
			{
				"x": 0.2107685812,
				"y": 0.8562914628,
				"z": -1.6382693155,
				"element": "H" 
			},
			{
				"x": -2.5701823889,
				"y": 0.2711025392,
				"z": 3.7562216878,
				"element": "H" 
			}
		],
		 "valence_orbital": [ 
			{
				"type": "occ",
				"energy": -0.30812,
				"method": "rhf"
			},
			{
				"type": "occ",
				"energy": -0.30008,
				"method": "rhf"
			},
			{
				"type": "occ",
				"energy": -0.27789,
				"method": "rhf"
			},
			{
				"type": "occ",
				"energy": -0.26405,
				"method": "rhf"
			},
			{
				"type": "occ",
				"energy": -0.23403,
				"method": "rhf"
			},
			{
				"type": "unocc",
				"energy": -0.03705,
				"method": "rhf"
			},
			{
				"type": "unocc",
				"energy": -0.01476,
				"method": "rhf"
			},
			{
				"type": "unocc",
				"energy": 0.01897,
				"method": "rhf"
			},
			{
				"type": "unocc",
				"energy": 0.03902,
				"method": "rhf"
			},
			{
				"type": "unocc",
				"energy": 0.05272,
				"method": "rhf"
			}
		],
		"cosmo_sigma_profile": { 
			"-0.025": 0.0,
			"-0.024": 0.0,
			"-0.023": 0.0,
			"-0.022": 0.0,
			"-0.021": 0.0,
			"-0.02": 0.0,
			"-0.019": 0.0,
			"-0.018": 0.0,
			"-0.017": 0.0,
			"-0.016": 0.194868099665,
			"-0.015": 1.76670122013,
			"-0.014": 2.93156971669,
			"-0.013": 2.47625143571,
			"-0.012": 3.95517111219,
			"-0.011": 5.74555684884,
			"-0.01": 4.0586231029,
			"-0.009": 3.57455241974,
			"-0.008": 3.31958666786,
			"-0.007": 2.70673744866,
			"-0.006": 3.7958080323,
			"-0.005": 3.37378893274,
			"-0.004": 4.16559504931,
			"-0.003": 4.41612919511,
			"-0.002": 6.64302577027,
			"-0.001": 11.1588951063,
			"0.0": 11.5384259909,
			"0.001": 12.1640885637,
			"0.002": 10.5298242696,
			"0.003": 7.94228848522,
			"0.004": 5.17867537269,
			"0.005": 5.05364579786,
			"0.006": 5.03221388825,
			"0.007": 4.76872018924,
			"0.008": 4.0609840549,
			"0.009": 3.49304549648,
			"0.01": 3.15842706487,
			"0.011": 3.39545519824,
			"0.012": 3.2873871258,
			"0.013": 2.6239351201,
			"0.014": 2.15806353272,
			"0.015": 1.05895843144,
			"0.016": 0.0622746946009,
			"0.017": 0.0,
			"0.018": 0.0,
			"0.019": 0.0,
			"0.02": 0.0,
			"0.021": 0.0,
			"0.022": 0.0,
			"0.023": 0.0,
			"0.024": 0.0,
			"0.025": 0.0
		}
	}
}
