{
	 "smiles": "BrC1=CN2C(=NC3=C2C=CC=C3)N=C1", 
	 "Tm": 543.15, 
	 "num_atms": 20, 
	 "gaussian": { 
		 "optdone": 1, 
		 "sigma_profile": "yes", 
		 "theory": "DFT", 
		 "functional": "B3LYP", 
		 "basiset": "6-31G**", 
		 "properties": { 
			 "R2extent": 6237.844, 
			 "electric_dipole_moment_norm": 4.05537783197, 
			 "electric_quadrupole_moment_norm": 11.2581761693, 
			 "total_energy": -3120.32955628, 
			 "HOMO_LUMO_gap": 0.14243, 
			 "cosmo_polarized_energy": -14.12, 
			 "cosmo_cavitation_energy": 27.07, 
			 "cosmo_dispersion_energy": -20.79, 
			 "cosmo_repulsion_energy": 1.58, 
			 "cosmo_total_nonelectrostatic_energy": 7.86, 
			 "SMD_solvation_energy": -0.04 
		},
		"coords": [
			{
				"x": -2.8859303887,
				"y": -1.9647541611,
				"z": 3.7450348587,
				"element": "Br" 
			},
			{
				"x": -1.5643321019,
				"y": -1.9832813161,
				"z": 2.3816722902,
				"element": "C" 
			},
			{
				"x": -0.5782933247,
				"y": -1.0378580052,
				"z": 2.3569379786,
				"element": "C" 
			},
			{
				"x": 0.3382241156,
				"y": -1.1088490929,
				"z": 1.3514062478,
				"element": "N" 
			},
			{
				"x": 0.2726983743,
				"y": -2.1379438601,
				"z": 0.3534115837,
				"element": "C" 
			},
			{
				"x": 1.242138868,
				"y": -2.0376069794,
				"z": -0.5288995577,
				"element": "N" 
			},
			{
				"x": 1.9746363945,
				"y": -0.9394225593,
				"z": -0.1378336786,
				"element": "C" 
			},
			{
				"x": 1.4425814284,
				"y": -0.3323333922,
				"z": 1.0314154735,
				"element": "C" 
			},
			{
				"x": 2.0044541382,
				"y": 0.7985417279,
				"z": 1.6297167741,
				"element": "C" 
			},
			{
				"x": 3.1374511088,
				"y": 1.3256173806,
				"z": 1.0224288026,
				"element": "C" 
			},
			{
				"x": 3.685897418,
				"y": 0.7396675009,
				"z": -0.1415896236,
				"element": "C" 
			},
			{
				"x": 3.1222107057,
				"y": -0.3831956863,
				"z": -0.7297603279,
				"element": "C" 
			},
			{
				"x": -0.7133709738,
				"y": -3.0640828518,
				"z": 0.3981572601,
				"element": "N" 
			},
			{
				"x": -1.5922770631,
				"y": -2.9906431397,
				"z": 1.3679858597,
				"element": "C" 
			},
			{
				"x": -0.480596096,
				"y": -0.2401417338,
				"z": 3.0828225267,
				"element": "H" 
			},
			{
				"x": 1.5841239986,
				"y": 1.2494349162,
				"z": 2.5236894911,
				"element": "H" 
			},
			{
				"x": 3.61106133,
				"y": 2.2040243526,
				"z": 1.4493322666,
				"element": "H" 
			},
			{
				"x": 4.5726081373,
				"y": 1.1849466374,
				"z": -0.5829602309,
				"element": "H" 
			},
			{
				"x": 3.541966852,
				"y": -0.8336775069,
				"z": -1.6227808401,
				"element": "H" 
			},
			{
				"x": -2.3786529211,
				"y": -3.7418422308,
				"z": 1.3905128454,
				"element": "H" 
			}
		],
		 "valence_orbital": [ 
			{
				"type": "occ",
				"energy": -0.29049,
				"method": "rhf"
			},
			{
				"type": "occ",
				"energy": -0.27703,
				"method": "rhf"
			},
			{
				"type": "occ",
				"energy": -0.27649,
				"method": "rhf"
			},
			{
				"type": "occ",
				"energy": -0.24393,
				"method": "rhf"
			},
			{
				"type": "occ",
				"energy": -0.2213,
				"method": "rhf"
			},
			{
				"type": "unocc",
				"energy": -0.07887,
				"method": "rhf"
			},
			{
				"type": "unocc",
				"energy": -0.02746,
				"method": "rhf"
			},
			{
				"type": "unocc",
				"energy": -0.015,
				"method": "rhf"
			},
			{
				"type": "unocc",
				"energy": 0.00207,
				"method": "rhf"
			},
			{
				"type": "unocc",
				"energy": 0.02459,
				"method": "rhf"
			}
		],
		"cosmo_sigma_profile": { 
			"-0.025": 0.0,
			"-0.024": 0.0,
			"-0.023": 0.0,
			"-0.022": 0.0,
			"-0.021": 0.0,
			"-0.02": 0.0,
			"-0.019": 0.0,
			"-0.018": 0.0,
			"-0.017": 0.0,
			"-0.016": 0.0,
			"-0.015": 0.0,
			"-0.014": 0.0,
			"-0.013": 0.0,
			"-0.012": 0.594528111853,
			"-0.011": 3.41293047549,
			"-0.01": 2.41952543357,
			"-0.009": 2.75033491978,
			"-0.008": 4.37811325929,
			"-0.007": 5.74319402307,
			"-0.006": 11.6665057725,
			"-0.005": 14.2407527361,
			"-0.004": 18.6161243642,
			"-0.003": 16.4011616438,
			"-0.002": 16.11984745,
			"-0.001": 15.7611650836,
			"0.0": 11.5726684489,
			"0.001": 13.2782400002,
			"0.002": 15.2873763125,
			"0.003": 22.1459713931,
			"0.004": 16.8019863616,
			"0.005": 7.78134230671,
			"0.006": 2.35975508319,
			"0.007": 2.00239254318,
			"0.008": 2.30914886377,
			"0.009": 1.85377871236,
			"0.01": 2.13051941606,
			"0.011": 2.2922596008,
			"0.012": 2.75320990764,
			"0.013": 2.38996307211,
			"0.014": 2.45403093073,
			"0.015": 1.67008983308,
			"0.016": 0.981880883559,
			"0.017": 0.7529662996,
			"0.018": 0.0125072716605,
			"0.019": 0.0,
			"0.02": 0.0,
			"0.021": 0.0,
			"0.022": 0.0,
			"0.023": 0.0,
			"0.024": 0.0,
			"0.025": 0.0
		}
	}
}
