{
	 "smiles": "O=C1CC(CN1)C1=CN=CC=C1", 
	 "Tm": 343.15, 
	 "num_atms": 22, 
	 "gaussian": { 
		 "optdone": 1, 
		 "sigma_profile": "yes", 
		 "theory": "DFT", 
		 "functional": "B3LYP", 
		 "basiset": "6-31G**", 
		 "properties": { 
			 "R2extent": 2597.1902, 
			 "electric_dipole_moment_norm": 4.03432218594, 
			 "electric_quadrupole_moment_norm": 14.345502956, 
			 "total_energy": -533.721462524, 
			 "HOMO_LUMO_gap": 0.2111, 
			 "cosmo_polarized_energy": -15.71, 
			 "cosmo_cavitation_energy": 25.43, 
			 "cosmo_dispersion_energy": -18.78, 
			 "cosmo_repulsion_energy": 1.51, 
			 "cosmo_total_nonelectrostatic_energy": 8.15, 
			 "SMD_solvation_energy": 2.59 
		},
		"coords": [
			{
				"x": -2.3835083597,
				"y": 0.9649489269,
				"z": 2.290555061,
				"element": "O" 
			},
			{
				"x": -1.2762546685,
				"y": 0.7350281026,
				"z": 1.8395749467,
				"element": "C" 
			},
			{
				"x": -0.9107455314,
				"y": 0.4115834157,
				"z": 0.3867755307,
				"element": "C" 
			},
			{
				"x": 0.6275761838,
				"y": 0.5552461862,
				"z": 0.3307349808,
				"element": "C" 
			},
			{
				"x": 1.0583323077,
				"y": 0.2644819512,
				"z": 1.7978791889,
				"element": "C" 
			},
			{
				"x": -0.1044536084,
				"y": 0.6958739705,
				"z": 2.5554270131,
				"element": "N" 
			},
			{
				"x": 1.3427247939,
				"y": -0.2763531338,
				"z": -0.7106019788,
				"element": "C" 
			},
			{
				"x": 1.2510282901,
				"y": -1.6772363407,
				"z": -0.7350360445,
				"element": "C" 
			},
			{
				"x": 1.8618078487,
				"y": -2.4622470149,
				"z": -1.6274949399,
				"element": "N" 
			},
			{
				"x": 2.6106553041,
				"y": -1.8644452007,
				"z": -2.5635930231,
				"element": "C" 
			},
			{
				"x": 2.7759563739,
				"y": -0.4822206947,
				"z": -2.642385455,
				"element": "C" 
			},
			{
				"x": 2.1321017909,
				"y": 0.3181255999,
				"z": -1.7000741257,
				"element": "C" 
			},
			{
				"x": -1.4410978568,
				"y": 1.0693646101,
				"z": -0.3047195382,
				"element": "H" 
			},
			{
				"x": -1.2358967796,
				"y": -0.6142901248,
				"z": 0.1765582431,
				"element": "H" 
			},
			{
				"x": 0.852576321,
				"y": 1.6103076107,
				"z": 0.1365313494,
				"element": "H" 
			},
			{
				"x": 1.2730820137,
				"y": -0.8036451347,
				"z": 1.9456437412,
				"element": "H" 
			},
			{
				"x": 1.9560063137,
				"y": 0.8268342243,
				"z": 2.0750148572,
				"element": "H" 
			},
			{
				"x": -0.1303765627,
				"y": 0.7381663256,
				"z": 3.5641495208,
				"element": "H" 
			},
			{
				"x": 0.6480228149,
				"y": -2.1968476038,
				"z": 0.0093637449,
				"element": "H" 
			},
			{
				"x": 3.0984293487,
				"y": -2.5219916445,
				"z": -3.2808448643,
				"element": "H" 
			},
			{
				"x": 3.3930541767,
				"y": -0.0450955896,
				"z": -3.4212427562,
				"element": "H" 
			},
			{
				"x": 2.2393794852,
				"y": 1.3999115586,
				"z": -1.7311154523,
				"element": "H" 
			}
		],
		 "valence_orbital": [ 
			{
				"type": "occ",
				"energy": -0.29143,
				"method": "rhf"
			},
			{
				"type": "occ",
				"energy": -0.26538,
				"method": "rhf"
			},
			{
				"type": "occ",
				"energy": -0.25842,
				"method": "rhf"
			},
			{
				"type": "occ",
				"energy": -0.25595,
				"method": "rhf"
			},
			{
				"type": "occ",
				"energy": -0.24153,
				"method": "rhf"
			},
			{
				"type": "unocc",
				"energy": -0.03043,
				"method": "rhf"
			},
			{
				"type": "unocc",
				"energy": -0.02187,
				"method": "rhf"
			},
			{
				"type": "unocc",
				"energy": 0.03082,
				"method": "rhf"
			},
			{
				"type": "unocc",
				"energy": 0.07246,
				"method": "rhf"
			},
			{
				"type": "unocc",
				"energy": 0.08898,
				"method": "rhf"
			}
		],
		"cosmo_sigma_profile": { 
			"-0.025": 0.0,
			"-0.024": 0.0,
			"-0.023": 0.0,
			"-0.022": 0.0,
			"-0.021": 0.0,
			"-0.02": 0.0,
			"-0.019": 0.0,
			"-0.018": 0.0,
			"-0.017": 0.0,
			"-0.016": 0.0,
			"-0.015": 0.0470359938233,
			"-0.014": 1.02719153067,
			"-0.013": 1.24905936288,
			"-0.012": 0.710732441131,
			"-0.011": 1.39720477631,
			"-0.01": 1.0098729853,
			"-0.009": 0.864880425257,
			"-0.008": 1.48601809484,
			"-0.007": 6.40972556499,
			"-0.006": 14.8200720959,
			"-0.005": 23.5453816163,
			"-0.004": 21.2152824574,
			"-0.003": 15.2573964532,
			"-0.002": 13.8106696677,
			"-0.001": 11.2368320014,
			"0.0": 9.5119240762,
			"0.001": 9.5622345173,
			"0.002": 12.5439934065,
			"0.003": 12.0205318793,
			"0.004": 5.74452193988,
			"0.005": 4.17045582489,
			"0.006": 2.53954723951,
			"0.007": 1.80666601222,
			"0.008": 3.05950352231,
			"0.009": 3.0359612203,
			"0.01": 1.67253872071,
			"0.011": 2.70245025542,
			"0.012": 3.017177362,
			"0.013": 4.49669311609,
			"0.014": 7.34042477805,
			"0.015": 2.85144967193,
			"0.016": 1.07097749032,
			"0.017": 0.388748297948,
			"0.018": 0.0,
			"0.019": 0.0,
			"0.02": 0.0,
			"0.021": 0.0,
			"0.022": 0.0,
			"0.023": 0.0,
			"0.024": 0.0,
			"0.025": 0.0
		}
	}
}
