{
	 "smiles": "COC1=CC=C(C=C1)C1=CSC(=N1)C(=N/NC1=CC=C(O)C=C1)C#N", 
	 "Tm": 508.15, 
	 "num_atms": 39, 
	 "gaussian": { 
		 "optdone": 1, 
		 "sigma_profile": "yes", 
		 "theory": "DFT", 
		 "functional": "B3LYP", 
		 "basiset": "6-31G**", 
		 "properties": { 
			 "R2extent": 12414.6353, 
			 "electric_dipole_moment_norm": 5.68610361583, 
			 "electric_quadrupole_moment_norm": 30.8996977545, 
			 "total_energy": -1461.89947389, 
			 "HOMO_LUMO_gap": 0.12993, 
			 "cosmo_polarized_energy": -24.52, 
			 "cosmo_cavitation_energy": 47.13, 
			 "cosmo_dispersion_energy": -32.41, 
			 "cosmo_repulsion_energy": 2.44, 
			 "cosmo_total_nonelectrostatic_energy": 17.15, 
			 "SMD_solvation_energy": 8.4 
		},
		"coords": [
			{
				"x": 2.8131087294,
				"y": -3.8929685834,
				"z": 3.9645037008,
				"element": "C" 
			},
			{
				"x": 3.3131328499,
				"y": -3.3027942757,
				"z": 2.7741887813,
				"element": "O" 
			},
			{
				"x": 2.5816517531,
				"y": -2.3130847258,
				"z": 2.1881378755,
				"element": "C" 
			},
			{
				"x": 1.3576690017,
				"y": -1.8316556217,
				"z": 2.6677012548,
				"element": "C" 
			},
			{
				"x": 0.6975063802,
				"y": -0.8121008202,
				"z": 1.9819327475,
				"element": "C" 
			},
			{
				"x": 1.233027959,
				"y": -0.2502241435,
				"z": 0.8152623522,
				"element": "C" 
			},
			{
				"x": 2.4615709543,
				"y": -0.7508847533,
				"z": 0.344866598,
				"element": "C" 
			},
			{
				"x": 3.1280154137,
				"y": -1.7633570818,
				"z": 1.0171077382,
				"element": "C" 
			},
			{
				"x": 0.5136277841,
				"y": 0.8336008499,
				"z": 0.1228748865,
				"element": "C" 
			},
			{
				"x": 0.9841558021,
				"y": 1.6091820926,
				"z": -0.9157137195,
				"element": "C" 
			},
			{
				"x": -0.2012559949,
				"y": 2.7512515664,
				"z": -1.4250868881,
				"element": "S" 
			},
			{
				"x": -1.2851293807,
				"y": 2.1177323632,
				"z": -0.1903403933,
				"element": "C" 
			},
			{
				"x": -0.7656617907,
				"y": 1.1528619708,
				"z": 0.5205061214,
				"element": "N" 
			},
			{
				"x": -2.5823863583,
				"y": 2.7324410493,
				"z": 0.1511464899,
				"element": "C" 
			},
			{
				"x": -3.4831213671,
				"y": 3.320332377,
				"z": -0.5862851747,
				"element": "N" 
			},
			{
				"x": -3.4499072172,
				"y": 3.3554522167,
				"z": -1.9281822925,
				"element": "N" 
			},
			{
				"x": -3.0741163983,
				"y": 2.3123084311,
				"z": -2.834187548,
				"element": "C" 
			},
			{
				"x": -3.1148221446,
				"y": 0.9579332255,
				"z": -2.4881317392,
				"element": "C" 
			},
			{
				"x": -2.8002987931,
				"y": -0.0129421673,
				"z": -3.4364670035,
				"element": "C" 
			},
			{
				"x": -2.463969843,
				"y": 0.3559431472,
				"z": -4.7439114854,
				"element": "C" 
			},
			{
				"x": -2.1500207688,
				"y": -0.5514927399,
				"z": -5.7126827058,
				"element": "O" 
			},
			{
				"x": -2.4410938539,
				"y": 1.7104966598,
				"z": -5.0963492126,
				"element": "C" 
			},
			{
				"x": -2.7348755515,
				"y": 2.6786126989,
				"z": -4.1430144966,
				"element": "C" 
			},
			{
				"x": -2.8751910045,
				"y": 2.7718257304,
				"z": 1.5631437672,
				"element": "C" 
			},
			{
				"x": -3.1107398718,
				"y": 2.791540659,
				"z": 2.7018485096,
				"element": "N" 
			},
			{
				"x": 2.7106348121,
				"y": -3.1547857151,
				"z": 4.7700433249,
				"element": "H" 
			},
			{
				"x": 1.8432087646,
				"y": -4.3792179606,
				"z": 3.7989004156,
				"element": "H" 
			},
			{
				"x": 3.5462485469,
				"y": -4.6456239273,
				"z": 4.2583917472,
				"element": "H" 
			},
			{
				"x": 0.9121350147,
				"y": -2.2364024885,
				"z": 3.568624483,
				"element": "H" 
			},
			{
				"x": -0.2490915139,
				"y": -0.4368172517,
				"z": 2.3547215397,
				"element": "H" 
			},
			{
				"x": 2.9012601938,
				"y": -0.3524875299,
				"z": -0.5648968283,
				"element": "H" 
			},
			{
				"x": 4.0740493819,
				"y": -2.1521583135,
				"z": 0.6549814144,
				"element": "H" 
			},
			{
				"x": 1.9489141532,
				"y": 1.5754101553,
				"z": -1.4002593089,
				"element": "H" 
			},
			{
				"x": -4.2220220699,
				"y": 3.9180448657,
				"z": -2.2626820555,
				"element": "H" 
			},
			{
				"x": -3.39167638,
				"y": 0.6550067673,
				"z": -1.4847848964,
				"element": "H" 
			},
			{
				"x": -2.8281127787,
				"y": -1.0636310204,
				"z": -3.1566449087,
				"element": "H" 
			},
			{
				"x": -2.1999929295,
				"y": -1.4434009997,
				"z": -5.3449075075,
				"element": "H" 
			},
			{
				"x": -2.1788848872,
				"y": 1.9855225678,
				"z": -6.1122622113,
				"element": "H" 
			},
			{
				"x": -2.6973465972,
				"y": 3.731030725,
				"z": -4.4094933723,
				"element": "H" 
			}
		],
		 "valence_orbital": [ 
			{
				"type": "occ",
				"energy": -0.27126,
				"method": "rhf"
			},
			{
				"type": "occ",
				"energy": -0.25499,
				"method": "rhf"
			},
			{
				"type": "occ",
				"energy": -0.25092,
				"method": "rhf"
			},
			{
				"type": "occ",
				"energy": -0.21542,
				"method": "rhf"
			},
			{
				"type": "occ",
				"energy": -0.20482,
				"method": "rhf"
			},
			{
				"type": "unocc",
				"energy": -0.07489,
				"method": "rhf"
			},
			{
				"type": "unocc",
				"energy": -0.03002,
				"method": "rhf"
			},
			{
				"type": "unocc",
				"energy": -0.02289,
				"method": "rhf"
			},
			{
				"type": "unocc",
				"energy": -0.0068,
				"method": "rhf"
			},
			{
				"type": "unocc",
				"energy": -0.00083,
				"method": "rhf"
			}
		],
		"cosmo_sigma_profile": { 
			"-0.025": 0.0,
			"-0.024": 0.0,
			"-0.023": 0.0,
			"-0.022": 0.0,
			"-0.021": 0.0,
			"-0.02": 0.0,
			"-0.019": 0.0640433097446,
			"-0.018": 0.790173872064,
			"-0.017": 1.11069643222,
			"-0.016": 1.95589119369,
			"-0.015": 2.31199957702,
			"-0.014": 1.59119564448,
			"-0.013": 1.93049400077,
			"-0.012": 1.79921511291,
			"-0.011": 2.38460217939,
			"-0.01": 4.09856470581,
			"-0.009": 5.33666818314,
			"-0.008": 4.21976797897,
			"-0.007": 10.1495047688,
			"-0.006": 19.2164756479,
			"-0.005": 22.2810429341,
			"-0.004": 25.6722595917,
			"-0.003": 25.4660705955,
			"-0.002": 20.0668356647,
			"-0.001": 18.2506651156,
			"0.0": 21.2943384413,
			"0.001": 27.5755994236,
			"0.002": 29.2454382448,
			"0.003": 31.5925643546,
			"0.004": 30.6576201509,
			"0.005": 18.8028013319,
			"0.006": 9.41351961165,
			"0.007": 8.90076849644,
			"0.008": 8.89721180984,
			"0.009": 8.84070845949,
			"0.01": 7.91747109251,
			"0.011": 4.58054830231,
			"0.012": 2.84743629767,
			"0.013": 1.50102329496,
			"0.014": 0.00619874153299,
			"0.015": 0.0,
			"0.016": 0.0,
			"0.017": 0.0,
			"0.018": 0.0,
			"0.019": 0.0,
			"0.02": 0.0,
			"0.021": 0.0,
			"0.022": 0.0,
			"0.023": 0.0,
			"0.024": 0.0,
			"0.025": 0.0
		}
	}
}
