{
	 "smiles": "NNC(=O)C1=NN=C(O1)C1=CC=CC=C1", 
	 "Tm": 447.15, 
	 "num_atms": 23, 
	 "gaussian": { 
		 "optdone": 1, 
		 "sigma_profile": "yes", 
		 "theory": "DFT", 
		 "functional": "B3LYP", 
		 "basiset": "6-31G**", 
		 "properties": { 
			 "R2extent": 3999.7685, 
			 "electric_dipole_moment_norm": 6.80034270754, 
			 "electric_quadrupole_moment_norm": 15.743764668, 
			 "total_energy": -717.16929498, 
			 "HOMO_LUMO_gap": 0.17975, 
			 "cosmo_polarized_energy": -21.93, 
			 "cosmo_cavitation_energy": 29.03, 
			 "cosmo_dispersion_energy": -21.01, 
			 "cosmo_repulsion_energy": 1.63, 
			 "cosmo_total_nonelectrostatic_energy": 9.65, 
			 "SMD_solvation_energy": 4.77 
		},
		"coords": [
			{
				"x": 1.9522126819,
				"y": -0.7674607874,
				"z": 2.1746453341,
				"element": "N" 
			},
			{
				"x": 0.9994461399,
				"y": -0.9355087078,
				"z": 3.1915127569,
				"element": "N" 
			},
			{
				"x": -0.3714690684,
				"y": -0.8861722516,
				"z": 3.1518649414,
				"element": "C" 
			},
			{
				"x": -1.0454495869,
				"y": -1.0594390261,
				"z": 4.1541965729,
				"element": "O" 
			},
			{
				"x": -1.0496729577,
				"y": -0.6125325114,
				"z": 1.8438301145,
				"element": "C" 
			},
			{
				"x": -2.335836025,
				"y": -0.5399643107,
				"z": 1.6748439465,
				"element": "N" 
			},
			{
				"x": -2.5493540737,
				"y": -0.2749200378,
				"z": 0.3359909095,
				"element": "N" 
			},
			{
				"x": -1.3759532484,
				"y": -0.2020976775,
				"z": -0.2304032944,
				"element": "C" 
			},
			{
				"x": -0.3687860072,
				"y": -0.4069384317,
				"z": 0.6690360676,
				"element": "O" 
			},
			{
				"x": -1.0603616967,
				"y": 0.0579349495,
				"z": -1.6289955867,
				"element": "C" 
			},
			{
				"x": -2.1153776712,
				"y": 0.2654682628,
				"z": -2.5338328437,
				"element": "C" 
			},
			{
				"x": -1.838521768,
				"y": 0.5154082144,
				"z": -3.8741663401,
				"element": "C" 
			},
			{
				"x": -0.5154766347,
				"y": 0.5607971706,
				"z": -4.323681443,
				"element": "C" 
			},
			{
				"x": 0.5344596131,
				"y": 0.3548425026,
				"z": -3.4261303035,
				"element": "C" 
			},
			{
				"x": 0.2671093054,
				"y": 0.103892507,
				"z": -2.0821379148,
				"element": "C" 
			},
			{
				"x": 1.8568621143,
				"y": 0.154069114,
				"z": 1.7565794424,
				"element": "H" 
			},
			{
				"x": 1.8081650866,
				"y": -1.4594908816,
				"z": 1.4442813735,
				"element": "H" 
			},
			{
				"x": 1.374611101,
				"y": -1.1249094882,
				"z": 4.1119786338,
				"element": "H" 
			},
			{
				"x": -3.136376478,
				"y": 0.2271325087,
				"z": -2.1697699206,
				"element": "H" 
			},
			{
				"x": -2.65581196,
				"y": 0.6753236378,
				"z": -4.5707566212,
				"element": "H" 
			},
			{
				"x": -0.3037869229,
				"y": 0.7561677239,
				"z": -5.3707063276,
				"element": "H" 
			},
			{
				"x": 1.5627721179,
				"y": 0.3896057616,
				"z": -3.7728713996,
				"element": "H" 
			},
			{
				"x": 1.0822959385,
				"y": -0.056208241,
				"z": -1.384408098,
				"element": "H" 
			}
		],
		 "valence_orbital": [ 
			{
				"type": "occ",
				"energy": -0.28602,
				"method": "rhf"
			},
			{
				"type": "occ",
				"energy": -0.27552,
				"method": "rhf"
			},
			{
				"type": "occ",
				"energy": -0.27244,
				"method": "rhf"
			},
			{
				"type": "occ",
				"energy": -0.26568,
				"method": "rhf"
			},
			{
				"type": "occ",
				"energy": -0.25452,
				"method": "rhf"
			},
			{
				"type": "unocc",
				"energy": -0.07477,
				"method": "rhf"
			},
			{
				"type": "unocc",
				"energy": -0.03818,
				"method": "rhf"
			},
			{
				"type": "unocc",
				"energy": -0.02374,
				"method": "rhf"
			},
			{
				"type": "unocc",
				"energy": 0.0418,
				"method": "rhf"
			},
			{
				"type": "unocc",
				"energy": 0.04906,
				"method": "rhf"
			}
		],
		"cosmo_sigma_profile": { 
			"-0.025": 0.0,
			"-0.024": 0.0,
			"-0.023": 0.0,
			"-0.022": 0.0,
			"-0.021": 0.0,
			"-0.02": 0.0,
			"-0.019": 0.0,
			"-0.018": 0.0,
			"-0.017": 0.0,
			"-0.016": 0.0,
			"-0.015": 0.220157256176,
			"-0.014": 0.991163672445,
			"-0.013": 0.813808018052,
			"-0.012": 3.24230161783,
			"-0.011": 3.95684490689,
			"-0.01": 4.37514075152,
			"-0.009": 3.4908531444,
			"-0.008": 3.69485522118,
			"-0.007": 9.93958929015,
			"-0.006": 17.1937658349,
			"-0.005": 18.2786943352,
			"-0.004": 14.1441302688,
			"-0.003": 14.3513034632,
			"-0.002": 13.2614604701,
			"-0.001": 12.2406619267,
			"0.0": 14.5453960067,
			"0.001": 11.8119164601,
			"0.002": 13.2887129812,
			"0.003": 16.0685025145,
			"0.004": 8.5672516667,
			"0.005": 3.38954217037,
			"0.006": 3.41295979961,
			"0.007": 3.51378149437,
			"0.008": 3.60673628164,
			"0.009": 4.16127899558,
			"0.01": 5.43495546646,
			"0.011": 5.23448185529,
			"0.012": 8.75945270526,
			"0.013": 6.41117324637,
			"0.014": 3.31193626848,
			"0.015": 1.37259224319,
			"0.016": 0.0321936664309,
			"0.017": 0.0,
			"0.018": 0.0,
			"0.019": 0.0,
			"0.02": 0.0,
			"0.021": 0.0,
			"0.022": 0.0,
			"0.023": 0.0,
			"0.024": 0.0,
			"0.025": 0.0
		}
	}
}
