{
	 "smiles": "CC1=C(C)C=C(Br)C=C1", 
	 "Tm": 488.15, 
	 "num_atms": 18, 
	 "gaussian": { 
		 "optdone": 1, 
		 "sigma_profile": "yes", 
		 "theory": "DFT", 
		 "functional": "B3LYP", 
		 "basiset": "6-31G**", 
		 "properties": { 
			 "R2extent": 3635.8643, 
			 "electric_dipole_moment_norm": 2.52733096171, 
			 "electric_quadrupole_moment_norm": 6.58239887427, 
			 "total_energy": -2881.69493765, 
			 "HOMO_LUMO_gap": 0.22254, 
			 "cosmo_polarized_energy": -4.0, 
			 "cosmo_cavitation_energy": 23.33, 
			 "cosmo_dispersion_energy": -17.59, 
			 "cosmo_repulsion_energy": 1.43, 
			 "cosmo_total_nonelectrostatic_energy": 7.17, 
			 "SMD_solvation_energy": 2.91 
		},
		"coords": [
			{
				"x": 0.5103384731,
				"y": -1.5573238571,
				"z": -1.3101417605,
				"element": "C" 
			},
			{
				"x": -0.2768886931,
				"y": -0.8714791502,
				"z": -0.2195698383,
				"element": "C" 
			},
			{
				"x": -1.6887675495,
				"y": -0.8933536769,
				"z": -0.2213952575,
				"element": "C" 
			},
			{
				"x": -2.4520821389,
				"y": -1.6033089891,
				"z": -1.3141629337,
				"element": "C" 
			},
			{
				"x": -2.3864035435,
				"y": -0.247341585,
				"z": 0.8050939713,
				"element": "C" 
			},
			{
				"x": -1.6973992456,
				"y": 0.4119527639,
				"z": 1.8205332307,
				"element": "C" 
			},
			{
				"x": -2.6833497277,
				"y": 1.2853970132,
				"z": 3.2098575413,
				"element": "Br" 
			},
			{
				"x": -0.3077817773,
				"y": 0.4442343072,
				"z": 1.8390827338,
				"element": "C" 
			},
			{
				"x": 0.3854014609,
				"y": -0.2009510002,
				"z": 0.8139991343,
				"element": "C" 
			},
			{
				"x": 1.58558079,
				"y": -1.440958142,
				"z": -1.1521703935,
				"element": "H" 
			},
			{
				"x": 0.2932856076,
				"y": -2.6315977909,
				"z": -1.3525001647,
				"element": "H" 
			},
			{
				"x": 0.2720713559,
				"y": -1.1493920448,
				"z": -2.299983024,
				"element": "H" 
			},
			{
				"x": -2.2216216885,
				"y": -1.1872015126,
				"z": -2.3022978801,
				"element": "H" 
			},
			{
				"x": -3.5309049398,
				"y": -1.5212472205,
				"z": -1.1605395301,
				"element": "H" 
			},
			{
				"x": -2.1994343967,
				"y": -2.6697065669,
				"z": -1.3546201034,
				"element": "H" 
			},
			{
				"x": -3.4712035284,
				"y": -0.2593516096,
				"z": 0.8113044634,
				"element": "H" 
			},
			{
				"x": 0.2225513218,
				"y": 0.9589147432,
				"z": 2.631978028,
				"element": "H" 
			},
			{
				"x": 1.4723082198,
				"y": -0.1805856817,
				"z": 0.820931783,
				"element": "H" 
			}
		],
		 "valence_orbital": [ 
			{
				"type": "occ",
				"energy": -0.34144,
				"method": "rhf"
			},
			{
				"type": "occ",
				"energy": -0.299,
				"method": "rhf"
			},
			{
				"type": "occ",
				"energy": -0.28112,
				"method": "rhf"
			},
			{
				"type": "occ",
				"energy": -0.25127,
				"method": "rhf"
			},
			{
				"type": "occ",
				"energy": -0.23041,
				"method": "rhf"
			},
			{
				"type": "unocc",
				"energy": -0.00787,
				"method": "rhf"
			},
			{
				"type": "unocc",
				"energy": -0.00496,
				"method": "rhf"
			},
			{
				"type": "unocc",
				"energy": 0.01282,
				"method": "rhf"
			},
			{
				"type": "unocc",
				"energy": 0.08917,
				"method": "rhf"
			},
			{
				"type": "unocc",
				"energy": 0.11827,
				"method": "rhf"
			}
		],
		"cosmo_sigma_profile": { 
			"-0.025": 0.0,
			"-0.024": 0.0,
			"-0.023": 0.0,
			"-0.022": 0.0,
			"-0.021": 0.0,
			"-0.02": 0.0,
			"-0.019": 0.0,
			"-0.018": 0.0,
			"-0.017": 0.0,
			"-0.016": 0.0,
			"-0.015": 0.0,
			"-0.014": 0.0,
			"-0.013": 0.0,
			"-0.012": 0.0,
			"-0.011": 0.0,
			"-0.01": 0.0,
			"-0.009": 0.0,
			"-0.008": 0.0,
			"-0.007": 0.567717359493,
			"-0.006": 5.00931342559,
			"-0.005": 8.97692694494,
			"-0.004": 19.5289433015,
			"-0.003": 16.2577814535,
			"-0.002": 18.2497704614,
			"-0.001": 16.7976652713,
			"0.0": 23.0535157324,
			"0.001": 13.8055031661,
			"0.002": 11.7432139782,
			"0.003": 17.0636046255,
			"0.004": 18.1465981734,
			"0.005": 18.0717995193,
			"0.006": 0.924288230409,
			"0.007": 0.0,
			"0.008": 0.0,
			"0.009": 0.0,
			"0.01": 0.0,
			"0.011": 0.0,
			"0.012": 0.0,
			"0.013": 0.0,
			"0.014": 0.0,
			"0.015": 0.0,
			"0.016": 0.0,
			"0.017": 0.0,
			"0.018": 0.0,
			"0.019": 0.0,
			"0.02": 0.0,
			"0.021": 0.0,
			"0.022": 0.0,
			"0.023": 0.0,
			"0.024": 0.0,
			"0.025": 0.0
		}
	}
}
