{
	 "smiles": "BrN1C(=O)C2=CC=CC=C2C1=O", 
	 "Tm": 479.15, 
	 "num_atms": 16, 
	 "gaussian": { 
		 "optdone": 1, 
		 "sigma_profile": "yes", 
		 "theory": "DFT", 
		 "functional": "B3LYP", 
		 "basiset": "6-31G**", 
		 "properties": { 
			 "R2extent": 3535.7946, 
			 "electric_dipole_moment_norm": 3.84078911684, 
			 "electric_quadrupole_moment_norm": 10.0624461618, 
			 "total_energy": -3083.85130904, 
			 "HOMO_LUMO_gap": 0.17292, 
			 "cosmo_polarized_energy": -10.3, 
			 "cosmo_cavitation_energy": 23.94, 
			 "cosmo_dispersion_energy": -17.95, 
			 "cosmo_repulsion_energy": 1.41, 
			 "cosmo_total_nonelectrostatic_energy": 7.4, 
			 "SMD_solvation_energy": 4.26 
		},
		"coords": [
			{
				"x": 0.0540996,
				"y": -3.2317132408,
				"z": -2.0297023071,
				"element": "Br" 
			},
			{
				"x": -0.3864249369,
				"y": -1.7073900881,
				"z": -1.0642825101,
				"element": "N" 
			},
			{
				"x": -1.0864457943,
				"y": -0.6124308056,
				"z": -1.6268178946,
				"element": "C" 
			},
			{
				"x": -1.4777569195,
				"y": -0.5225014811,
				"z": -2.7661188666,
				"element": "O" 
			},
			{
				"x": -1.2085834805,
				"y": 0.3566710369,
				"z": -0.4968805112,
				"element": "C" 
			},
			{
				"x": -1.8048088499,
				"y": 1.6088313495,
				"z": -0.4721532288,
				"element": "C" 
			},
			{
				"x": -1.773744201,
				"y": 2.3123118508,
				"z": 0.7396446977,
				"element": "C" 
			},
			{
				"x": -1.1638845132,
				"y": 1.7683450334,
				"z": 1.8770543494,
				"element": "C" 
			},
			{
				"x": -0.5640464975,
				"y": 0.5021412374,
				"z": 1.8419124748,
				"element": "C" 
			},
			{
				"x": -0.5999627731,
				"y": -0.186183169,
				"z": 0.6382051885,
				"element": "C" 
			},
			{
				"x": -0.0527631545,
				"y": -1.5344212202,
				"z": 0.3010513695,
				"element": "C" 
			},
			{
				"x": 0.5405012723,
				"y": -2.3226740514,
				"z": 0.9981263145,
				"element": "O" 
			},
			{
				"x": -2.2741911729,
				"y": 2.0197459303,
				"z": -1.3598647657,
				"element": "H" 
			},
			{
				"x": -2.229781044,
				"y": 3.2958680154,
				"z": 0.7993082975,
				"element": "H" 
			},
			{
				"x": -1.1565127316,
				"y": 2.3385454865,
				"z": 2.8010292597,
				"element": "H" 
			},
			{
				"x": -0.0885948033,
				"y": 0.0703541161,
				"z": 2.7163881326,
				"element": "H" 
			}
		],
		 "valence_orbital": [ 
			{
				"type": "occ",
				"energy": -0.30524,
				"method": "rhf"
			},
			{
				"type": "occ",
				"energy": -0.2918,
				"method": "rhf"
			},
			{
				"type": "occ",
				"energy": -0.28669,
				"method": "rhf"
			},
			{
				"type": "occ",
				"energy": -0.27889,
				"method": "rhf"
			},
			{
				"type": "occ",
				"energy": -0.26453,
				"method": "rhf"
			},
			{
				"type": "unocc",
				"energy": -0.09161,
				"method": "rhf"
			},
			{
				"type": "unocc",
				"energy": -0.06494,
				"method": "rhf"
			},
			{
				"type": "unocc",
				"energy": -0.04906,
				"method": "rhf"
			},
			{
				"type": "unocc",
				"energy": 0.01966,
				"method": "rhf"
			},
			{
				"type": "unocc",
				"energy": 0.06521,
				"method": "rhf"
			}
		],
		"cosmo_sigma_profile": { 
			"-0.025": 0.0,
			"-0.024": 0.0,
			"-0.023": 0.0,
			"-0.022": 0.0,
			"-0.021": 0.0,
			"-0.02": 0.0,
			"-0.019": 0.0,
			"-0.018": 0.0,
			"-0.017": 0.0,
			"-0.016": 0.0,
			"-0.015": 0.0,
			"-0.014": 0.0,
			"-0.013": 0.0,
			"-0.012": 0.0,
			"-0.011": 0.0,
			"-0.01": 0.502923257822,
			"-0.009": 1.13200398714,
			"-0.008": 5.1391097565,
			"-0.007": 12.5646139193,
			"-0.006": 12.6842776962,
			"-0.005": 11.64594542,
			"-0.004": 11.2590177746,
			"-0.003": 12.090999077,
			"-0.002": 14.4716047642,
			"-0.001": 14.9564730754,
			"0.0": 15.4107522365,
			"0.001": 20.2879905629,
			"0.002": 16.0246796771,
			"0.003": 8.15820671015,
			"0.004": 5.66359925485,
			"0.005": 2.92514448169,
			"0.006": 2.95066652947,
			"0.007": 4.01646575988,
			"0.008": 4.67902619998,
			"0.009": 5.78628661758,
			"0.01": 10.2788806621,
			"0.011": 4.78631304174,
			"0.012": 0.0,
			"0.013": 0.0,
			"0.014": 0.0,
			"0.015": 0.0,
			"0.016": 0.0,
			"0.017": 0.0,
			"0.018": 0.0,
			"0.019": 0.0,
			"0.02": 0.0,
			"0.021": 0.0,
			"0.022": 0.0,
			"0.023": 0.0,
			"0.024": 0.0,
			"0.025": 0.0
		}
	}
}
