{
	 "smiles": "OC1=CC=C(C=C1)S(=O)(=O)N1CCCCC1", 
	 "Tm": 404.15, 
	 "num_atms": 31, 
	 "gaussian": { 
		 "optdone": 1, 
		 "sigma_profile": "yes", 
		 "theory": "DFT", 
		 "functional": "B3LYP", 
		 "basiset": "6-31G**", 
		 "properties": { 
			 "R2extent": 4678.3425, 
			 "electric_dipole_moment_norm": 4.33717967002, 
			 "electric_quadrupole_moment_norm": 21.5776072327, 
			 "total_energy": -1106.75699264, 
			 "HOMO_LUMO_gap": 0.20716, 
			 "cosmo_polarized_energy": -16.95, 
			 "cosmo_cavitation_energy": 33.67, 
			 "cosmo_dispersion_energy": -24.76, 
			 "cosmo_repulsion_energy": 1.88, 
			 "cosmo_total_nonelectrostatic_energy": 10.79, 
			 "SMD_solvation_energy": 4.08 
		},
		"coords": [
			{
				"x": 0.8241683301,
				"y": -5.4530746313,
				"z": 1.0246827822,
				"element": "O" 
			},
			{
				"x": 0.793081905,
				"y": -4.0935834909,
				"z": 1.0553824276,
				"element": "C" 
			},
			{
				"x": 0.0264073608,
				"y": -3.3750959408,
				"z": 1.980002132,
				"element": "C" 
			},
			{
				"x": 0.0376278812,
				"y": -1.9814154451,
				"z": 1.9577325825,
				"element": "C" 
			},
			{
				"x": 0.8095946415,
				"y": -1.3138746406,
				"z": 1.0076592952,
				"element": "C" 
			},
			{
				"x": 1.5837088871,
				"y": -2.0287998231,
				"z": 0.0849641242,
				"element": "C" 
			},
			{
				"x": 1.5735951892,
				"y": -3.4158585697,
				"z": 0.1054546052,
				"element": "C" 
			},
			{
				"x": 0.8774149178,
				"y": 0.4741451289,
				"z": 1.031455467,
				"element": "S" 
			},
			{
				"x": -0.0547047193,
				"y": 0.9217128558,
				"z": 2.0808023625,
				"element": "O" 
			},
			{
				"x": 2.2797601253,
				"y": 0.9070231971,
				"z": 1.0675232936,
				"element": "O" 
			},
			{
				"x": 0.3143342999,
				"y": 0.851202408,
				"z": -0.5207015644,
				"element": "N" 
			},
			{
				"x": 0.8895754964,
				"y": 2.0512467632,
				"z": -1.1643792693,
				"element": "C" 
			},
			{
				"x": 0.1416229065,
				"y": 3.3416650171,
				"z": -0.803467465,
				"element": "C" 
			},
			{
				"x": -1.3629625555,
				"y": 3.200326353,
				"z": -1.0819455479,
				"element": "C" 
			},
			{
				"x": -1.9379766581,
				"y": 1.9639682923,
				"z": -0.373093454,
				"element": "C" 
			},
			{
				"x": -1.1401917172,
				"y": 0.7033676826,
				"z": -0.7358389008,
				"element": "C" 
			},
			{
				"x": 0.2617428788,
				"y": -5.8047247134,
				"z": 1.7274371049,
				"element": "H" 
			},
			{
				"x": -0.5748177072,
				"y": -3.9025032568,
				"z": 2.7171512793,
				"element": "H" 
			},
			{
				"x": -0.5434228311,
				"y": -1.4070112616,
				"z": 2.6705580505,
				"element": "H" 
			},
			{
				"x": 2.185583735,
				"y": -1.4966569749,
				"z": -0.643652747,
				"element": "H" 
			},
			{
				"x": 2.161622696,
				"y": -3.9953053509,
				"z": -0.5980063779,
				"element": "H" 
			},
			{
				"x": 1.9450692356,
				"y": 2.1063211777,
				"z": -0.8963325753,
				"element": "H" 
			},
			{
				"x": 0.8267419517,
				"y": 1.8724400971,
				"z": -2.2466440056,
				"element": "H" 
			},
			{
				"x": 0.5647776705,
				"y": 4.1750246752,
				"z": -1.3775234339,
				"element": "H" 
			},
			{
				"x": 0.3057350711,
				"y": 3.5667149633,
				"z": 0.25760405,
				"element": "H" 
			},
			{
				"x": -1.8974002399,
				"y": 4.1027681159,
				"z": -0.7647113759,
				"element": "H" 
			},
			{
				"x": -1.5223818185,
				"y": 3.107055193,
				"z": -2.166418866,
				"element": "H" 
			},
			{
				"x": -1.8984371728,
				"y": 2.1029187678,
				"z": 0.7123273901,
				"element": "H" 
			},
			{
				"x": -2.9890866426,
				"y": 1.8146637003,
				"z": -0.6491251152,
				"element": "H" 
			},
			{
				"x": -1.2691105429,
				"y": 0.4675056952,
				"z": -1.8009712027,
				"element": "H" 
			},
			{
				"x": -1.4912725743,
				"y": -0.1665659845,
				"z": -0.1740250458,
				"element": "H" 
			}
		],
		 "valence_orbital": [ 
			{
				"type": "occ",
				"energy": -0.29707,
				"method": "rhf"
			},
			{
				"type": "occ",
				"energy": -0.29027,
				"method": "rhf"
			},
			{
				"type": "occ",
				"energy": -0.27106,
				"method": "rhf"
			},
			{
				"type": "occ",
				"energy": -0.24985,
				"method": "rhf"
			},
			{
				"type": "occ",
				"energy": -0.23167,
				"method": "rhf"
			},
			{
				"type": "unocc",
				"energy": -0.02451,
				"method": "rhf"
			},
			{
				"type": "unocc",
				"energy": -0.01942,
				"method": "rhf"
			},
			{
				"type": "unocc",
				"energy": 0.0547,
				"method": "rhf"
			},
			{
				"type": "unocc",
				"energy": 0.06859,
				"method": "rhf"
			},
			{
				"type": "unocc",
				"energy": 0.08489,
				"method": "rhf"
			}
		],
		"cosmo_sigma_profile": { 
			"-0.025": 0.0,
			"-0.024": 0.0,
			"-0.023": 0.0,
			"-0.022": 0.0,
			"-0.021": 0.0,
			"-0.02": 0.0,
			"-0.019": 0.175949846668,
			"-0.018": 1.29599619471,
			"-0.017": 1.13495531376,
			"-0.016": 1.24977312642,
			"-0.015": 0.834321770712,
			"-0.014": 0.999520875243,
			"-0.013": 0.802176844472,
			"-0.012": 1.37987819708,
			"-0.011": 0.943794845591,
			"-0.01": 0.707692742708,
			"-0.009": 1.1984565585,
			"-0.008": 2.13802748358,
			"-0.007": 5.91093379728,
			"-0.006": 7.02644688429,
			"-0.005": 11.1393883437,
			"-0.004": 16.3033952575,
			"-0.003": 26.872017435,
			"-0.002": 27.6104503949,
			"-0.001": 27.5702589951,
			"0.0": 24.6417199883,
			"0.001": 17.3988459664,
			"0.002": 17.8250460243,
			"0.003": 18.1066221103,
			"0.004": 6.6464785017,
			"0.005": 4.95317563035,
			"0.006": 5.29351793001,
			"0.007": 4.13163690959,
			"0.008": 4.08336786705,
			"0.009": 5.52080717154,
			"0.01": 6.42920386704,
			"0.011": 8.25611190195,
			"0.012": 5.70424890887,
			"0.013": 0.574967976485,
			"0.014": 0.0,
			"0.015": 0.0,
			"0.016": 0.0,
			"0.017": 0.0,
			"0.018": 0.0,
			"0.019": 0.0,
			"0.02": 0.0,
			"0.021": 0.0,
			"0.022": 0.0,
			"0.023": 0.0,
			"0.024": 0.0,
			"0.025": 0.0
		}
	}
}
