{
	 "smiles": "NS(=O)(=O)CC1CCOCC1", 
	 "Tm": 359.15, 
	 "num_atms": 24, 
	 "gaussian": { 
		 "optdone": 1, 
		 "sigma_profile": "yes", 
		 "theory": "DFT", 
		 "functional": "B3LYP", 
		 "basiset": "6-31G**", 
		 "properties": { 
			 "R2extent": 2172.8464, 
			 "electric_dipole_moment_norm": 3.21552772963, 
			 "electric_quadrupole_moment_norm": 19.133698304, 
			 "total_energy": -915.006604892, 
			 "HOMO_LUMO_gap": 0.28886, 
			 "cosmo_polarized_energy": -16.76, 
			 "cosmo_cavitation_energy": 25.51, 
			 "cosmo_dispersion_energy": -19.87, 
			 "cosmo_repulsion_energy": 1.54, 
			 "cosmo_total_nonelectrostatic_energy": 7.18, 
			 "SMD_solvation_energy": 3.49 
		},
		"coords": [
			{
				"x": -0.787903341,
				"y": 2.3922941551,
				"z": 1.411415411,
				"element": "N" 
			},
			{
				"x": -1.2243901222,
				"y": 0.8038917159,
				"z": 1.8405648619,
				"element": "S" 
			},
			{
				"x": -2.5557411497,
				"y": 0.8528851065,
				"z": 2.4557057859,
				"element": "O" 
			},
			{
				"x": -0.0789307776,
				"y": 0.2305272951,
				"z": 2.5565066989,
				"element": "O" 
			},
			{
				"x": -1.474420373,
				"y": -0.0146938469,
				"z": 0.2358616925,
				"element": "C" 
			},
			{
				"x": -0.3345637686,
				"y": -0.3949511017,
				"z": -0.7351609743,
				"element": "C" 
			},
			{
				"x": 0.537254769,
				"y": -1.6101073877,
				"z": -0.3214510793,
				"element": "C" 
			},
			{
				"x": 1.8323343037,
				"y": -1.2378191563,
				"z": 0.4088303937,
				"element": "C" 
			},
			{
				"x": 2.5681991453,
				"y": -0.256318881,
				"z": -0.3184417863,
				"element": "O" 
			},
			{
				"x": 1.8341034419,
				"y": 0.9545622293,
				"z": -0.4187644517,
				"element": "C" 
			},
			{
				"x": 0.5554407304,
				"y": 0.7665471621,
				"z": -1.2427845777,
				"element": "C" 
			},
			{
				"x": 0.0369643,
				"y": 2.6515459832,
				"z": 1.9471438381,
				"element": "H" 
			},
			{
				"x": -1.5621532629,
				"y": 3.0163499888,
				"z": 1.6280009143,
				"element": "H" 
			},
			{
				"x": -2.1858515121,
				"y": 0.6501285677,
				"z": -0.2640127893,
				"element": "H" 
			},
			{
				"x": -2.0252542614,
				"y": -0.9143757135,
				"z": 0.5303363923,
				"element": "H" 
			},
			{
				"x": -0.9226871285,
				"y": -0.7317447049,
				"z": -1.6001497377,
				"element": "H" 
			},
			{
				"x": 0.8166185518,
				"y": -2.1378655777,
				"z": -1.2412075326,
				"element": "H" 
			},
			{
				"x": -0.0430691573,
				"y": -2.3149253284,
				"z": 0.2863032114,
				"element": "H" 
			},
			{
				"x": 2.4844742167,
				"y": -2.1134938491,
				"z": 0.4830913085,
				"element": "H" 
			},
			{
				"x": 1.6187650086,
				"y": -0.8762646757,
				"z": 1.4219214338,
				"element": "H" 
			},
			{
				"x": 2.4937850704,
				"y": 1.6781203703,
				"z": -0.908251737,
				"element": "H" 
			},
			{
				"x": 1.6035074282,
				"y": 1.3363717406,
				"z": 0.5866407068,
				"element": "H" 
			},
			{
				"x": 0.8619168129,
				"y": 0.5281909087,
				"z": -2.2680423519,
				"element": "H" 
			},
			{
				"x": -0.0082989244,
				"y": 1.7049449996,
				"z": -1.2791556313,
				"element": "H" 
			}
		],
		 "valence_orbital": [ 
			{
				"type": "occ",
				"energy": -0.31722,
				"method": "rhf"
			},
			{
				"type": "occ",
				"energy": -0.30489,
				"method": "rhf"
			},
			{
				"type": "occ",
				"energy": -0.29475,
				"method": "rhf"
			},
			{
				"type": "occ",
				"energy": -0.28935,
				"method": "rhf"
			},
			{
				"type": "occ",
				"energy": -0.2425,
				"method": "rhf"
			},
			{
				"type": "unocc",
				"energy": 0.04636,
				"method": "rhf"
			},
			{
				"type": "unocc",
				"energy": 0.05441,
				"method": "rhf"
			},
			{
				"type": "unocc",
				"energy": 0.0727,
				"method": "rhf"
			},
			{
				"type": "unocc",
				"energy": 0.08411,
				"method": "rhf"
			},
			{
				"type": "unocc",
				"energy": 0.09299,
				"method": "rhf"
			}
		],
		"cosmo_sigma_profile": { 
			"-0.025": 0.0,
			"-0.024": 0.0,
			"-0.023": 0.0,
			"-0.022": 0.0,
			"-0.021": 0.0,
			"-0.02": 0.0,
			"-0.019": 0.0,
			"-0.018": 0.0,
			"-0.017": 0.0,
			"-0.016": 0.0,
			"-0.015": 0.349379200417,
			"-0.014": 2.4004396743,
			"-0.013": 2.32338455741,
			"-0.012": 2.72208277755,
			"-0.011": 2.12201406635,
			"-0.01": 2.09301399043,
			"-0.009": 1.67644055151,
			"-0.008": 4.74498897105,
			"-0.007": 6.7470357268,
			"-0.006": 7.28639328307,
			"-0.005": 10.8171871294,
			"-0.004": 15.4984263675,
			"-0.003": 19.9429211572,
			"-0.002": 19.6229811338,
			"-0.001": 15.166353115,
			"0.0": 12.3028410106,
			"0.001": 6.6573935972,
			"0.002": 5.85910208369,
			"0.003": 5.10758456906,
			"0.004": 5.32589701391,
			"0.005": 3.85251929091,
			"0.006": 4.95655685516,
			"0.007": 4.20407785094,
			"0.008": 4.77020118525,
			"0.009": 5.03750242295,
			"0.01": 5.02002535226,
			"0.011": 9.42733392955,
			"0.012": 7.93268757339,
			"0.013": 2.29833903626,
			"0.014": 1.6943700387,
			"0.015": 0.00349084746067,
			"0.016": 0.0,
			"0.017": 0.0,
			"0.018": 0.0,
			"0.019": 0.0,
			"0.02": 0.0,
			"0.021": 0.0,
			"0.022": 0.0,
			"0.023": 0.0,
			"0.024": 0.0,
			"0.025": 0.0
		}
	}
}
