{
	 "smiles": "CC(C)NC(=O)NC1=C(C=CC=C1)[N+]([O-])=O", 
	 "Tm": 443.15, 
	 "num_atms": 29, 
	 "gaussian": { 
		 "optdone": 1, 
		 "sigma_profile": "yes", 
		 "theory": "DFT", 
		 "functional": "B3LYP", 
		 "basiset": "6-31G**", 
		 "properties": { 
			 "R2extent": 3887.7213, 
			 "electric_dipole_moment_norm": 1.4024437814, 
			 "electric_quadrupole_moment_norm": 24.8117509884, 
			 "total_energy": -778.762429922, 
			 "HOMO_LUMO_gap": 0.13899, 
			 "cosmo_polarized_energy": -11.98, 
			 "cosmo_cavitation_energy": 31.81, 
			 "cosmo_dispersion_energy": -23.14, 
			 "cosmo_repulsion_energy": 1.79, 
			 "cosmo_total_nonelectrostatic_energy": 10.46, 
			 "SMD_solvation_energy": 7.61 
		},
		"coords": [
			{
				"x": 2.7196707816,
				"y": 2.4516972405,
				"z": -0.4216361015,
				"element": "C" 
			},
			{
				"x": 1.4828198656,
				"y": 3.0783663794,
				"z": -1.0877869447,
				"element": "C" 
			},
			{
				"x": 0.5200492168,
				"y": 3.7307475801,
				"z": -0.0809588508,
				"element": "C" 
			},
			{
				"x": 0.8070616914,
				"y": 2.1675625653,
				"z": -2.0312015156,
				"element": "N" 
			},
			{
				"x": 0.1382224106,
				"y": 0.9774015787,
				"z": -1.881833329,
				"element": "C" 
			},
			{
				"x": -0.3433553601,
				"y": 0.4068292096,
				"z": -2.856721424,
				"element": "O" 
			},
			{
				"x": 0.0585117978,
				"y": 0.4939384693,
				"z": -0.5723482671,
				"element": "N" 
			},
			{
				"x": -0.5525127474,
				"y": -0.6707855362,
				"z": -0.1371898938,
				"element": "C" 
			},
			{
				"x": -0.5491051489,
				"y": -1.0334762202,
				"z": 1.2440198491,
				"element": "C" 
			},
			{
				"x": -1.1668679802,
				"y": -2.2131844942,
				"z": 1.6913222372,
				"element": "C" 
			},
			{
				"x": -1.7981064993,
				"y": -3.0587327975,
				"z": 0.8001050812,
				"element": "C" 
			},
			{
				"x": -1.8107244788,
				"y": -2.7174776289,
				"z": -0.5596337772,
				"element": "C" 
			},
			{
				"x": -1.2075400079,
				"y": -1.5588977987,
				"z": -1.0218036609,
				"element": "C" 
			},
			{
				"x": 0.08202113,
				"y": -0.2260114698,
				"z": 2.2763141017,
				"element": "N" 
			},
			{
				"x": 0.0384141908,
				"y": -0.6141612424,
				"z": 3.4408245163,
				"element": "O" 
			},
			{
				"x": 0.6520688581,
				"y": 0.840057184,
				"z": 1.957062,
				"element": "O" 
			},
			{
				"x": 3.2709200265,
				"y": 3.220840242,
				"z": 0.1285792099,
				"element": "H" 
			},
			{
				"x": 2.4639393566,
				"y": 1.6658983507,
				"z": 0.2937665181,
				"element": "H" 
			},
			{
				"x": 3.385412145,
				"y": 2.025080271,
				"z": -1.1772543171,
				"element": "H" 
			},
			{
				"x": 1.8483282691,
				"y": 3.8804003807,
				"z": -1.7385278697,
				"element": "H" 
			},
			{
				"x": -0.3287762097,
				"y": 4.1825853399,
				"z": -0.6020100031,
				"element": "H" 
			},
			{
				"x": 0.1331651269,
				"y": 3.0227105454,
				"z": 0.6563948232,
				"element": "H" 
			},
			{
				"x": 1.043275006,
				"y": 4.5173025193,
				"z": 0.4720044525,
				"element": "H" 
			},
			{
				"x": 0.8132232543,
				"y": 2.4342855385,
				"z": -3.0045984669,
				"element": "H" 
			},
			{
				"x": 0.4817943378,
				"y": 1.0210878807,
				"z": 0.1838762861,
				"element": "H" 
			},
			{
				"x": -1.1287325659,
				"y": -2.4304708113,
				"z": 2.7504907418,
				"element": "H" 
			},
			{
				"x": -2.2732404578,
				"y": -3.9680666716,
				"z": 1.1518329649,
				"element": "H" 
			},
			{
				"x": -2.3020227237,
				"y": -3.3692055532,
				"z": -1.2765305773,
				"element": "H" 
			},
			{
				"x": -1.2198132853,
				"y": -1.3002210511,
				"z": -2.0699577832,
				"element": "H" 
			}
		],
		 "valence_orbital": [ 
			{
				"type": "occ",
				"energy": -0.29749,
				"method": "rhf"
			},
			{
				"type": "occ",
				"energy": -0.27641,
				"method": "rhf"
			},
			{
				"type": "occ",
				"energy": -0.26397,
				"method": "rhf"
			},
			{
				"type": "occ",
				"energy": -0.25563,
				"method": "rhf"
			},
			{
				"type": "occ",
				"energy": -0.23334,
				"method": "rhf"
			},
			{
				"type": "unocc",
				"energy": -0.09435,
				"method": "rhf"
			},
			{
				"type": "unocc",
				"energy": -0.01679,
				"method": "rhf"
			},
			{
				"type": "unocc",
				"energy": 0.00237,
				"method": "rhf"
			},
			{
				"type": "unocc",
				"energy": 0.0609,
				"method": "rhf"
			},
			{
				"type": "unocc",
				"energy": 0.06179,
				"method": "rhf"
			}
		],
		"cosmo_sigma_profile": { 
			"-0.025": 0.0,
			"-0.024": 0.0,
			"-0.023": 0.0,
			"-0.022": 0.0,
			"-0.021": 0.0,
			"-0.02": 0.0,
			"-0.019": 0.0,
			"-0.018": 0.0,
			"-0.017": 0.0,
			"-0.016": 0.0,
			"-0.015": 0.0,
			"-0.014": 0.345928638434,
			"-0.013": 1.06393993579,
			"-0.012": 1.25850851461,
			"-0.011": 0.848752292979,
			"-0.01": 1.00301566539,
			"-0.009": 1.24107921985,
			"-0.008": 1.18108010695,
			"-0.007": 6.3409959437,
			"-0.006": 10.8029497193,
			"-0.005": 12.7802863255,
			"-0.004": 19.9368047273,
			"-0.003": 20.2778227816,
			"-0.002": 22.023285074,
			"-0.001": 25.0095172868,
			"0.0": 32.0735948624,
			"0.001": 22.4735080549,
			"0.002": 17.1010892878,
			"0.003": 12.9950967316,
			"0.004": 4.77711145408,
			"0.005": 4.65662455355,
			"0.006": 3.74008321668,
			"0.007": 6.82834874416,
			"0.008": 5.85943249222,
			"0.009": 4.74910409369,
			"0.01": 4.50222674675,
			"0.011": 1.93644525195,
			"0.012": 2.00985312068,
			"0.013": 3.15052743749,
			"0.014": 2.13672646795,
			"0.015": 0.0344480397987,
			"0.016": 0.0,
			"0.017": 0.0,
			"0.018": 0.0,
			"0.019": 0.0,
			"0.02": 0.0,
			"0.021": 0.0,
			"0.022": 0.0,
			"0.023": 0.0,
			"0.024": 0.0,
			"0.025": 0.0
		}
	}
}
