{
	 "smiles": "NC1=NC(=CS1)C1=CNC2=C1C=CC=C2", 
	 "Tm": 441.15, 
	 "num_atms": 24, 
	 "gaussian": { 
		 "optdone": 1, 
		 "sigma_profile": "yes", 
		 "theory": "DFT", 
		 "functional": "B3LYP", 
		 "basiset": "6-31G**", 
		 "properties": { 
			 "R2extent": 4141.1449, 
			 "electric_dipole_moment_norm": 2.08236789017, 
			 "electric_quadrupole_moment_norm": 21.2805851437, 
			 "total_energy": -987.039735151, 
			 "HOMO_LUMO_gap": 0.16476, 
			 "cosmo_polarized_energy": -17.14, 
			 "cosmo_cavitation_energy": 29.85, 
			 "cosmo_dispersion_energy": -22.83, 
			 "cosmo_repulsion_energy": 1.73, 
			 "cosmo_total_nonelectrostatic_energy": 8.75, 
			 "SMD_solvation_energy": 3.71 
		},
		"coords": [
			{
				"x": -1.195174712,
				"y": -1.289865761,
				"z": 3.184748332,
				"element": "N" 
			},
			{
				"x": -1.2781505155,
				"y": -0.6381524948,
				"z": 1.9724629664,
				"element": "C" 
			},
			{
				"x": -0.2720429785,
				"y": -0.4738934971,
				"z": 1.1672136613,
				"element": "N" 
			},
			{
				"x": -0.6296243477,
				"y": 0.2808446922,
				"z": 0.0546613332,
				"element": "C" 
			},
			{
				"x": -1.9362408652,
				"y": 0.6924804636,
				"z": 0.0312606058,
				"element": "C" 
			},
			{
				"x": -2.7846015559,
				"y": 0.1244024151,
				"z": 1.4485534436,
				"element": "S" 
			},
			{
				"x": 0.3735998069,
				"y": 0.5537309601,
				"z": -0.9728527961,
				"element": "C" 
			},
			{
				"x": 0.1259623371,
				"y": 0.9850607648,
				"z": -2.2586922895,
				"element": "C" 
			},
			{
				"x": 1.3140693637,
				"y": 1.1638997006,
				"z": -2.9327788045,
				"element": "N" 
			},
			{
				"x": 2.3673629394,
				"y": 0.8388572705,
				"z": -2.0998241236,
				"element": "C" 
			},
			{
				"x": 1.813711071,
				"y": 0.4454966868,
				"z": -0.8513777387,
				"element": "C" 
			},
			{
				"x": 2.6865977921,
				"y": 0.0661900239,
				"z": 0.1841827338,
				"element": "C" 
			},
			{
				"x": 4.055846864,
				"y": 0.0871397407,
				"z": -0.0493031628,
				"element": "C" 
			},
			{
				"x": 4.5816713818,
				"y": 0.4798883857,
				"z": -1.2976030511,
				"element": "C" 
			},
			{
				"x": 3.7454565282,
				"y": 0.8609985631,
				"z": -2.3398887198,
				"element": "C" 
			},
			{
				"x": -0.3579021155,
				"y": -1.8524764308,
				"z": 3.2660079238,
				"element": "H" 
			},
			{
				"x": -2.0306181584,
				"y": -1.7607585978,
				"z": 3.5021680079,
				"element": "H" 
			},
			{
				"x": -2.4439684963,
				"y": 1.2995232208,
				"z": -0.7030735346,
				"element": "H" 
			},
			{
				"x": -0.817080218,
				"y": 1.1658615807,
				"z": -2.7544482695,
				"element": "H" 
			},
			{
				"x": 1.3968095178,
				"y": 1.4495610483,
				"z": -3.8944886395,
				"element": "H" 
			},
			{
				"x": 2.2789533756,
				"y": -0.2442003333,
				"z": 1.1387998127,
				"element": "H" 
			},
			{
				"x": 4.7382731649,
				"y": -0.2055200023,
				"z": 0.7436333262,
				"element": "H" 
			},
			{
				"x": 5.6574467057,
				"y": 0.4842525029,
				"z": -1.4479507741,
				"element": "H" 
			},
			{
				"x": 4.1463431147,
				"y": 1.1649790974,
				"z": -3.3030102426,
				"element": "H" 
			}
		],
		 "valence_orbital": [ 
			{
				"type": "occ",
				"energy": -0.26667,
				"method": "rhf"
			},
			{
				"type": "occ",
				"energy": -0.25667,
				"method": "rhf"
			},
			{
				"type": "occ",
				"energy": -0.21925,
				"method": "rhf"
			},
			{
				"type": "occ",
				"energy": -0.21463,
				"method": "rhf"
			},
			{
				"type": "occ",
				"energy": -0.17939,
				"method": "rhf"
			},
			{
				"type": "unocc",
				"energy": -0.01463,
				"method": "rhf"
			},
			{
				"type": "unocc",
				"energy": 0.00685,
				"method": "rhf"
			},
			{
				"type": "unocc",
				"energy": 0.01761,
				"method": "rhf"
			},
			{
				"type": "unocc",
				"energy": 0.03492,
				"method": "rhf"
			},
			{
				"type": "unocc",
				"energy": 0.0474,
				"method": "rhf"
			}
		],
		"cosmo_sigma_profile": { 
			"-0.025": 0.0,
			"-0.024": 0.0,
			"-0.023": 0.0,
			"-0.022": 0.0,
			"-0.021": 0.0,
			"-0.02": 0.0,
			"-0.019": 0.0,
			"-0.018": 0.0,
			"-0.017": 0.0,
			"-0.016": 0.698312660385,
			"-0.015": 1.95892188374,
			"-0.014": 2.90495704188,
			"-0.013": 3.86501331975,
			"-0.012": 3.3963303057,
			"-0.011": 3.94173296149,
			"-0.01": 3.89337700404,
			"-0.009": 4.19432838419,
			"-0.008": 6.24205080337,
			"-0.007": 7.84449256589,
			"-0.006": 7.87586759583,
			"-0.005": 9.25700071241,
			"-0.004": 9.88936326984,
			"-0.003": 11.7365735366,
			"-0.002": 11.3468274779,
			"-0.001": 10.8635341439,
			"0.0": 10.9035275068,
			"0.001": 11.293499137,
			"0.002": 15.1899519923,
			"0.003": 15.9873079988,
			"0.004": 21.8037091214,
			"0.005": 25.7751229809,
			"0.006": 19.545718254,
			"0.007": 11.1577650055,
			"0.008": 3.70041885942,
			"0.009": 2.30491738975,
			"0.01": 1.70326797856,
			"0.011": 1.30324691644,
			"0.012": 0.920191473764,
			"0.013": 0.221059493522,
			"0.014": 0.0,
			"0.015": 0.0,
			"0.016": 0.0,
			"0.017": 0.0,
			"0.018": 0.0,
			"0.019": 0.0,
			"0.02": 0.0,
			"0.021": 0.0,
			"0.022": 0.0,
			"0.023": 0.0,
			"0.024": 0.0,
			"0.025": 0.0
		}
	}
}
