{
	 "smiles": "NS(=O)(=O)C1=CC=C(CCNS(=O)(=O)C2=CC(=CC=C2)C(O)=O)C=C1", 
	 "Tm": 500.15, 
	 "num_atms": 41, 
	 "gaussian": { 
		 "optdone": 1, 
		 "sigma_profile": "yes", 
		 "theory": "DFT", 
		 "functional": "B3LYP", 
		 "basiset": "6-31G**", 
		 "properties": { 
			 "R2extent": 18653.733, 
			 "electric_dipole_moment_norm": 4.7728540843, 
			 "electric_quadrupole_moment_norm": 64.934919779, 
			 "total_energy": -1938.33172147, 
			 "HOMO_LUMO_gap": 0.18293, 
			 "cosmo_polarized_energy": -38.25, 
			 "cosmo_cavitation_energy": 49.04, 
			 "cosmo_dispersion_energy": -35.02, 
			 "cosmo_repulsion_energy": 2.58, 
			 "cosmo_total_nonelectrostatic_energy": 16.6, 
			 "SMD_solvation_energy": 7.79 
		},
		"coords": [
			{
				"x": -4.0968648757,
				"y": -0.1378829826,
				"z": 5.6844248824,
				"element": "N" 
			},
			{
				"x": -4.7342174208,
				"y": -1.1417340725,
				"z": 4.4720174818,
				"element": "S" 
			},
			{
				"x": -4.8691213324,
				"y": -2.4721259677,
				"z": 5.0737815307,
				"element": "O" 
			},
			{
				"x": -5.8662657524,
				"y": -0.4395252671,
				"z": 3.8596620554,
				"element": "O" 
			},
			{
				"x": -3.418339552,
				"y": -1.2148445403,
				"z": 3.2600986358,
				"element": "C" 
			},
			{
				"x": -3.4137524948,
				"y": -0.319555284,
				"z": 2.1931570434,
				"element": "C" 
			},
			{
				"x": -2.3833002756,
				"y": -0.3772628902,
				"z": 1.2523960686,
				"element": "C" 
			},
			{
				"x": -1.3606365578,
				"y": -1.326583854,
				"z": 1.3710701736,
				"element": "C" 
			},
			{
				"x": -0.191094785,
				"y": -1.4212008875,
				"z": 0.4043974433,
				"element": "C" 
			},
			{
				"x": -0.2081013397,
				"y": -0.4995203405,
				"z": -0.8173771578,
				"element": "C" 
			},
			{
				"x": -1.3056806312,
				"y": -0.8422777866,
				"z": -1.7289383096,
				"element": "N" 
			},
			{
				"x": -1.9027697642,
				"y": 0.2783274034,
				"z": -2.8142054052,
				"element": "S" 
			},
			{
				"x": -2.1226716204,
				"y": 1.5092515967,
				"z": -2.049272843,
				"element": "O" 
			},
			{
				"x": -2.9658882401,
				"y": -0.4109947524,
				"z": -3.5429576579,
				"element": "O" 
			},
			{
				"x": -0.590188936,
				"y": 0.6383202574,
				"z": -3.9958020336,
				"element": "C" 
			},
			{
				"x": 0.2572137956,
				"y": 1.7218093772,
				"z": -3.7630480762,
				"element": "C" 
			},
			{
				"x": 1.2987833131,
				"y": 1.9855499887,
				"z": -4.6606224967,
				"element": "C" 
			},
			{
				"x": 1.4861235274,
				"y": 1.1468535833,
				"z": -5.7680746758,
				"element": "C" 
			},
			{
				"x": 0.6181191637,
				"y": 0.082321002,
				"z": -6.0025972536,
				"element": "C" 
			},
			{
				"x": -0.4301711148,
				"y": -0.1778599754,
				"z": -5.1179310559,
				"element": "C" 
			},
			{
				"x": 2.2652789472,
				"y": 3.1209149549,
				"z": -4.4716536547,
				"element": "C" 
			},
			{
				"x": 1.8524383649,
				"y": 4.1569402281,
				"z": -3.6990655258,
				"element": "O" 
			},
			{
				"x": 3.3660883029,
				"y": 3.1303981283,
				"z": -4.968389485,
				"element": "O" 
			},
			{
				"x": -1.4004122796,
				"y": -2.2280503391,
				"z": 2.447589511,
				"element": "C" 
			},
			{
				"x": -2.4190185429,
				"y": -2.1812901148,
				"z": 3.3929720229,
				"element": "C" 
			},
			{
				"x": -4.1630935721,
				"y": -0.6246041738,
				"z": 6.5748255169,
				"element": "H" 
			},
			{
				"x": -4.6141179302,
				"y": 0.7373374414,
				"z": 5.7057536765,
				"element": "H" 
			},
			{
				"x": -4.2179748351,
				"y": 0.4001998723,
				"z": 2.0875348675,
				"element": "H" 
			},
			{
				"x": -2.4048518884,
				"y": 0.3118029286,
				"z": 0.4158920033,
				"element": "H" 
			},
			{
				"x": 0.7359810829,
				"y": -1.206292004,
				"z": 0.952813441,
				"element": "H" 
			},
			{
				"x": -0.0884254341,
				"y": -2.4621378184,
				"z": 0.0672267335,
				"element": "H" 
			},
			{
				"x": -0.3590426126,
				"y": 0.5377667097,
				"z": -0.5083844821,
				"element": "H" 
			},
			{
				"x": 0.7679814558,
				"y": -0.5559841238,
				"z": -1.3202417001,
				"element": "H" 
			},
			{
				"x": -1.2924627543,
				"y": -1.7772850161,
				"z": -2.1247077751,
				"element": "H" 
			},
			{
				"x": 0.0893071446,
				"y": 2.3305765721,
				"z": -2.8799744664,
				"element": "H" 
			},
			{
				"x": 2.3138932644,
				"y": 1.3559727566,
				"z": -6.4370039231,
				"element": "H" 
			},
			{
				"x": 0.7529719799,
				"y": -0.5449603155,
				"z": -6.8781122777,
				"element": "H" 
			},
			{
				"x": -1.128415866,
				"y": -0.9883882754,
				"z": -5.2986427321,
				"element": "H" 
			},
			{
				"x": 0.90364531,
				"y": 4.0964984493,
				"z": -3.5192932847,
				"element": "H" 
			},
			{
				"x": -0.6211622758,
				"y": -2.9804111814,
				"z": 2.5441138896,
				"element": "H" 
			},
			{
				"x": -2.4546829682,
				"y": -2.8897692873,
				"z": 4.2131692946,
				"element": "H" 
			}
		],
		 "valence_orbital": [ 
			{
				"type": "occ",
				"energy": -0.29664,
				"method": "rhf"
			},
			{
				"type": "occ",
				"energy": -0.29106,
				"method": "rhf"
			},
			{
				"type": "occ",
				"energy": -0.2814,
				"method": "rhf"
			},
			{
				"type": "occ",
				"energy": -0.26725,
				"method": "rhf"
			},
			{
				"type": "occ",
				"energy": -0.2589,
				"method": "rhf"
			},
			{
				"type": "unocc",
				"energy": -0.07597,
				"method": "rhf"
			},
			{
				"type": "unocc",
				"energy": -0.05978,
				"method": "rhf"
			},
			{
				"type": "unocc",
				"energy": -0.03648,
				"method": "rhf"
			},
			{
				"type": "unocc",
				"energy": -0.01899,
				"method": "rhf"
			},
			{
				"type": "unocc",
				"energy": 0.01925,
				"method": "rhf"
			}
		],
		"cosmo_sigma_profile": { 
			"-0.025": 0.0,
			"-0.024": 0.0,
			"-0.023": 0.0,
			"-0.022": 0.0,
			"-0.021": 0.0,
			"-0.02": 0.112481310035,
			"-0.019": 0.974118836362,
			"-0.018": 1.05826944816,
			"-0.017": 1.08745370158,
			"-0.016": 0.961754146707,
			"-0.015": 2.25204815458,
			"-0.014": 4.70894302385,
			"-0.013": 4.83602254873,
			"-0.012": 5.04908699124,
			"-0.011": 4.88247589977,
			"-0.01": 3.67734926616,
			"-0.009": 4.483989755,
			"-0.008": 7.91470179674,
			"-0.007": 14.2143633494,
			"-0.006": 21.6086848555,
			"-0.005": 29.4519560935,
			"-0.004": 25.0127806914,
			"-0.003": 22.9696654772,
			"-0.002": 18.3718219903,
			"-0.001": 17.0240626417,
			"0.0": 22.5863258694,
			"0.001": 24.3387772723,
			"0.002": 18.4355643926,
			"0.003": 19.7221762867,
			"0.004": 13.293530311,
			"0.005": 9.01799889866,
			"0.006": 9.47413998329,
			"0.007": 10.0146799484,
			"0.008": 9.94809881062,
			"0.009": 12.2243915871,
			"0.01": 19.3271693181,
			"0.011": 22.7091152888,
			"0.012": 8.4848560938,
			"0.013": 0.741178734242,
			"0.014": 0.0,
			"0.015": 0.0,
			"0.016": 0.0,
			"0.017": 0.0,
			"0.018": 0.0,
			"0.019": 0.0,
			"0.02": 0.0,
			"0.021": 0.0,
			"0.022": 0.0,
			"0.023": 0.0,
			"0.024": 0.0,
			"0.025": 0.0
		}
	}
}
