{
	 "smiles": "NC1=CC(CC2=CC=CC=C2)=CC=C1", 
	 "Tm": 323.15, 
	 "num_atms": 27, 
	 "gaussian": { 
		 "optdone": 1, 
		 "sigma_profile": "yes", 
		 "theory": "DFT", 
		 "functional": "B3LYP", 
		 "basiset": "6-31G**", 
		 "properties": { 
			 "R2extent": 3496.0991, 
			 "electric_dipole_moment_norm": 1.56256484665, 
			 "electric_quadrupole_moment_norm": 7.97061708966, 
			 "total_energy": -557.980776041, 
			 "HOMO_LUMO_gap": 0.19957, 
			 "cosmo_polarized_energy": -9.62, 
			 "cosmo_cavitation_energy": 30.54, 
			 "cosmo_dispersion_energy": -21.78, 
			 "cosmo_repulsion_energy": 1.73, 
			 "cosmo_total_nonelectrostatic_energy": 10.5, 
			 "SMD_solvation_energy": 4.84 
		},
		"coords": [
			{
				"x": -2.8108249737,
				"y": 1.4151747369,
				"z": -2.3883307031,
				"element": "N" 
			},
			{
				"x": -1.8651653555,
				"y": 1.9288035657,
				"z": -1.4959920842,
				"element": "C" 
			},
			{
				"x": -0.5990693679,
				"y": 1.3365137024,
				"z": -1.3781160058,
				"element": "C" 
			},
			{
				"x": 0.3782146048,
				"y": 1.8720371906,
				"z": -0.5327798668,
				"element": "C" 
			},
			{
				"x": 1.7481069232,
				"y": 1.2176554738,
				"z": -0.4418529721,
				"element": "C" 
			},
			{
				"x": 1.726214995,
				"y": -0.2470139857,
				"z": -0.0351906578,
				"element": "C" 
			},
			{
				"x": 2.3272529736,
				"y": -1.2257985946,
				"z": -0.8349777429,
				"element": "C" 
			},
			{
				"x": 2.3253199533,
				"y": -2.5694976242,
				"z": -0.4506370974,
				"element": "C" 
			},
			{
				"x": 1.7189116825,
				"y": -2.9535951998,
				"z": 0.7447981059,
				"element": "C" 
			},
			{
				"x": 1.1135957029,
				"y": -1.9855665616,
				"z": 1.5514742462,
				"element": "C" 
			},
			{
				"x": 1.1163989974,
				"y": -0.6469931095,
				"z": 1.1633990268,
				"element": "C" 
			},
			{
				"x": 0.0826957623,
				"y": 3.0189397157,
				"z": 0.2128900653,
				"element": "C" 
			},
			{
				"x": -1.1760773974,
				"y": 3.6152239642,
				"z": 0.1015678234,
				"element": "C" 
			},
			{
				"x": -2.1455298491,
				"y": 3.0828119306,
				"z": -0.7416371754,
				"element": "C" 
			},
			{
				"x": -2.69672351,
				"y": 0.435650604,
				"z": -2.6110384797,
				"element": "H" 
			},
			{
				"x": -3.7714615123,
				"y": 1.6371619883,
				"z": -2.1652069695,
				"element": "H" 
			},
			{
				"x": -0.3765531857,
				"y": 0.4391091679,
				"z": -1.9517262082,
				"element": "H" 
			},
			{
				"x": 2.2576304342,
				"y": 1.3057105962,
				"z": -1.4096071477,
				"element": "H" 
			},
			{
				"x": 2.3583561114,
				"y": 1.7827236193,
				"z": 0.273623927,
				"element": "H" 
			},
			{
				"x": 2.8050712058,
				"y": -0.9330619128,
				"z": -1.7670877341,
				"element": "H" 
			},
			{
				"x": 2.7975988693,
				"y": -3.3131925993,
				"z": -1.0867511751,
				"element": "H" 
			},
			{
				"x": 1.7159511566,
				"y": -3.9970544666,
				"z": 1.0469451464,
				"element": "H" 
			},
			{
				"x": 0.6379371454,
				"y": -2.2755004546,
				"z": 2.4845153851,
				"element": "H" 
			},
			{
				"x": 0.6353561843,
				"y": 0.0997658203,
				"z": 1.7899219729,
				"element": "H" 
			},
			{
				"x": 0.8329991614,
				"y": 3.444258835,
				"z": 0.8735619399,
				"element": "H" 
			},
			{
				"x": -1.4054875114,
				"y": 4.5047081002,
				"z": 0.6823017011,
				"element": "H" 
			},
			{
				"x": -3.1213192004,
				"y": 3.5553254975,
				"z": -0.8246673204,
				"element": "H" 
			}
		],
		 "valence_orbital": [ 
			{
				"type": "occ",
				"energy": -0.29806,
				"method": "rhf"
			},
			{
				"type": "occ",
				"energy": -0.24555,
				"method": "rhf"
			},
			{
				"type": "occ",
				"energy": -0.24287,
				"method": "rhf"
			},
			{
				"type": "occ",
				"energy": -0.22782,
				"method": "rhf"
			},
			{
				"type": "occ",
				"energy": -0.1977,
				"method": "rhf"
			},
			{
				"type": "unocc",
				"energy": 0.00187,
				"method": "rhf"
			},
			{
				"type": "unocc",
				"energy": 0.00272,
				"method": "rhf"
			},
			{
				"type": "unocc",
				"energy": 0.00688,
				"method": "rhf"
			},
			{
				"type": "unocc",
				"energy": 0.02723,
				"method": "rhf"
			},
			{
				"type": "unocc",
				"energy": 0.08504,
				"method": "rhf"
			}
		],
		"cosmo_sigma_profile": { 
			"-0.025": 0.0,
			"-0.024": 0.0,
			"-0.023": 0.0,
			"-0.022": 0.0,
			"-0.021": 0.0,
			"-0.02": 0.0,
			"-0.019": 0.0,
			"-0.018": 0.0,
			"-0.017": 0.0,
			"-0.016": 0.0,
			"-0.015": 0.0,
			"-0.014": 0.0,
			"-0.013": 0.0387049735882,
			"-0.012": 1.86877822689,
			"-0.011": 2.55062702048,
			"-0.01": 2.75599508269,
			"-0.009": 2.95332705052,
			"-0.008": 3.34514673363,
			"-0.007": 2.87490667308,
			"-0.006": 5.23024920152,
			"-0.005": 15.8232187601,
			"-0.004": 22.7155144322,
			"-0.003": 23.2573285833,
			"-0.002": 20.6520104723,
			"-0.001": 17.6875727588,
			"0.0": 14.4705620537,
			"0.001": 13.2703234659,
			"0.002": 13.5832587691,
			"0.003": 12.9384628728,
			"0.004": 13.3319294472,
			"0.005": 16.2044249221,
			"0.006": 17.9721733194,
			"0.007": 11.6578446324,
			"0.008": 2.29926293447,
			"0.009": 1.37109161526,
			"0.01": 0.425743137627,
			"0.011": 0.224640865504,
			"0.012": 1.21516652558,
			"0.013": 0.640744972327,
			"0.014": 0.667393773041,
			"0.015": 0.401712495705,
			"0.016": 0.0294540798268,
			"0.017": 0.0,
			"0.018": 0.0,
			"0.019": 0.0,
			"0.02": 0.0,
			"0.021": 0.0,
			"0.022": 0.0,
			"0.023": 0.0,
			"0.024": 0.0,
			"0.025": 0.0
		}
	}
}
