{
	 "smiles": "NC(=NO)C1=CC(NC(=O)CN2CCOCC2)=CC=C1", 
	 "Tm": 373.15, 
	 "num_atms": 38, 
	 "gaussian": { 
		 "optdone": 1, 
		 "sigma_profile": "yes", 
		 "theory": "DFT", 
		 "functional": "B3LYP", 
		 "basiset": "6-31G**", 
		 "properties": { 
			 "R2extent": 9150.9034, 
			 "electric_dipole_moment_norm": 2.95373439226, 
			 "electric_quadrupole_moment_norm": 17.3607382372, 
			 "total_energy": -950.847997577, 
			 "HOMO_LUMO_gap": 0.18099, 
			 "cosmo_polarized_energy": -23.42, 
			 "cosmo_cavitation_energy": 40.78, 
			 "cosmo_dispersion_energy": -29.33, 
			 "cosmo_repulsion_energy": 2.28, 
			 "cosmo_total_nonelectrostatic_energy": 13.73, 
			 "SMD_solvation_energy": 6.34 
		},
		"coords": [
			{
				"x": -0.9117829334,
				"y": -2.1092833162,
				"z": 5.6344701456,
				"element": "N" 
			},
			{
				"x": -1.1961272323,
				"y": -2.1895426509,
				"z": 4.2816877906,
				"element": "C" 
			},
			{
				"x": -1.5921925434,
				"y": -3.2689260109,
				"z": 3.6893309836,
				"element": "N" 
			},
			{
				"x": -1.5785066942,
				"y": -4.3528895977,
				"z": 4.6112823487,
				"element": "O" 
			},
			{
				"x": -1.10267232,
				"y": -0.9483232717,
				"z": 3.4736831827,
				"element": "C" 
			},
			{
				"x": -0.8860399351,
				"y": -1.0367770587,
				"z": 2.0907803195,
				"element": "C" 
			},
			{
				"x": -0.7974101081,
				"y": 0.1323073434,
				"z": 1.325832978,
				"element": "C" 
			},
			{
				"x": -0.580126536,
				"y": 0.1223849072,
				"z": -0.0643650764,
				"element": "N" 
			},
			{
				"x": -0.3778822884,
				"y": -0.9390413103,
				"z": -0.9056397977,
				"element": "C" 
			},
			{
				"x": -0.3441820618,
				"y": -2.1190756162,
				"z": -0.5863907746,
				"element": "O" 
			},
			{
				"x": -0.2431476624,
				"y": -0.5149853494,
				"z": -2.3782811368,
				"element": "C" 
			},
			{
				"x": 0.1904542454,
				"y": 0.8665699416,
				"z": -2.558846048,
				"element": "N" 
			},
			{
				"x": -0.2645741307,
				"y": 1.4446754326,
				"z": -3.8354085301,
				"element": "C" 
			},
			{
				"x": 0.5139884811,
				"y": 2.7189299939,
				"z": -4.1355281757,
				"element": "C" 
			},
			{
				"x": 1.9060250226,
				"y": 2.4720708882,
				"z": -4.3279000265,
				"element": "O" 
			},
			{
				"x": 2.3939462642,
				"y": 1.3178850674,
				"z": -3.647845154,
				"element": "C" 
			},
			{
				"x": 1.6454594518,
				"y": 1.0676417734,
				"z": -2.3404514348,
				"element": "C" 
			},
			{
				"x": -0.9194253887,
				"y": 1.386285372,
				"z": 1.9500790226,
				"element": "C" 
			},
			{
				"x": -1.1352292025,
				"y": 1.4650119824,
				"z": 3.3212621509,
				"element": "C" 
			},
			{
				"x": -1.2291009387,
				"y": 0.3049951232,
				"z": 4.0903162689,
				"element": "C" 
			},
			{
				"x": -0.1746381607,
				"y": -1.4651619308,
				"z": 5.8835531317,
				"element": "H" 
			},
			{
				"x": -0.8375378073,
				"y": -3.0156635038,
				"z": 6.0773859738,
				"element": "H" 
			},
			{
				"x": -1.8716347792,
				"y": -5.0857011546,
				"z": 4.0567255503,
				"element": "H" 
			},
			{
				"x": -0.7850528672,
				"y": -2.002937908,
				"z": 1.618126069,
				"element": "H" 
			},
			{
				"x": -0.54782839,
				"y": 1.016864786,
				"z": -0.5455897922,
				"element": "H" 
			},
			{
				"x": -1.238572054,
				"y": -0.6291093701,
				"z": -2.8253213679,
				"element": "H" 
			},
			{
				"x": 0.4072125833,
				"y": -1.2581450209,
				"z": -2.8656079243,
				"element": "H" 
			},
			{
				"x": -0.1326187499,
				"y": 0.74457601,
				"z": -4.6785161022,
				"element": "H" 
			},
			{
				"x": -1.3358499862,
				"y": 1.6700401737,
				"z": -3.7675897015,
				"element": "H" 
			},
			{
				"x": 0.3652130304,
				"y": 3.437652545,
				"z": -3.3141580239,
				"element": "H" 
			},
			{
				"x": 0.1404521357,
				"y": 3.1810811348,
				"z": -5.0551339567,
				"element": "H" 
			},
			{
				"x": 2.3205525541,
				"y": 0.431109374,
				"z": -4.2975264141,
				"element": "H" 
			},
			{
				"x": 3.4567872131,
				"y": 1.4931880483,
				"z": -3.4507759338,
				"element": "H" 
			},
			{
				"x": 2.0635183066,
				"y": 0.1898085262,
				"z": -1.8370782968,
				"element": "H" 
			},
			{
				"x": 1.8036165299,
				"y": 1.92407148,
				"z": -1.6726849195,
				"element": "H" 
			},
			{
				"x": -0.8445163856,
				"y": 2.293764999,
				"z": 1.355568019,
				"element": "H" 
			},
			{
				"x": -1.239085946,
				"y": 2.4378988116,
				"z": 3.7928223439,
				"element": "H" 
			},
			{
				"x": -1.4319907162,
				"y": 0.3692493562,
				"z": 5.1540323085,
				"element": "H" 
			}
		],
		 "valence_orbital": [ 
			{
				"type": "occ",
				"energy": -0.25332,
				"method": "rhf"
			},
			{
				"type": "occ",
				"energy": -0.2523,
				"method": "rhf"
			},
			{
				"type": "occ",
				"energy": -0.23033,
				"method": "rhf"
			},
			{
				"type": "occ",
				"energy": -0.21889,
				"method": "rhf"
			},
			{
				"type": "occ",
				"energy": -0.20333,
				"method": "rhf"
			},
			{
				"type": "unocc",
				"energy": -0.02234,
				"method": "rhf"
			},
			{
				"type": "unocc",
				"energy": -0.00955,
				"method": "rhf"
			},
			{
				"type": "unocc",
				"energy": 0.03769,
				"method": "rhf"
			},
			{
				"type": "unocc",
				"energy": 0.06456,
				"method": "rhf"
			},
			{
				"type": "unocc",
				"energy": 0.07018,
				"method": "rhf"
			}
		],
		"cosmo_sigma_profile": { 
			"-0.025": 0.0,
			"-0.024": 0.0,
			"-0.023": 0.0,
			"-0.022": 0.0,
			"-0.021": 0.0,
			"-0.02": 0.0,
			"-0.019": 0.0,
			"-0.018": 0.0,
			"-0.017": 0.413255727986,
			"-0.016": 0.997931364775,
			"-0.015": 0.950520809652,
			"-0.014": 0.61886050067,
			"-0.013": 1.82429744934,
			"-0.012": 2.02113668927,
			"-0.011": 3.19104833049,
			"-0.01": 3.53898388688,
			"-0.009": 4.34269407312,
			"-0.008": 4.41266078086,
			"-0.007": 5.68462115282,
			"-0.006": 13.1074898088,
			"-0.005": 24.969711606,
			"-0.004": 33.9950803662,
			"-0.003": 33.3247556481,
			"-0.002": 25.2442982818,
			"-0.001": 15.4391006142,
			"0.0": 10.7738445972,
			"0.001": 12.4659616978,
			"0.002": 16.0184952713,
			"0.003": 17.8087760756,
			"0.004": 18.5460877883,
			"0.005": 14.6340730926,
			"0.006": 7.54337564511,
			"0.007": 8.48596506586,
			"0.008": 8.21174905941,
			"0.009": 6.75194233415,
			"0.01": 5.56031179616,
			"0.011": 4.97182657385,
			"0.012": 5.64177344649,
			"0.013": 5.62422830166,
			"0.014": 3.47605979779,
			"0.015": 0.140365202897,
			"0.016": 0.0,
			"0.017": 0.0,
			"0.018": 0.0,
			"0.019": 0.0,
			"0.02": 0.0,
			"0.021": 0.0,
			"0.022": 0.0,
			"0.023": 0.0,
			"0.024": 0.0,
			"0.025": 0.0
		}
	}
}
