{
	 "smiles": "CC(=O)O[C@@H]1C2=C(C)[C@H](C[C@@](O)([C@@H](OC(=O)C3=CC=CC=C3)[C@@H]3[C@@]4(CO[C@@H]4C[C@H](O)[C@@]3(C)C1=O)OC(C)=O)C2(C)C)OC(=O)[C@H](O)[C@@H](NC(=O)C1=CC=CC=C1)C1=CC=CC=C1", 
	 "Tm": 489.15, 
	 "num_atms": 32, 
	 "gaussian": { 
		 "optdone": 1, 
		 "sigma_profile": "yes", 
		 "theory": "DFT", 
		 "functional": "B3LYP", 
		 "basiset": "6-31G**", 
		 "properties": { 
			 "R2extent": 5886.2921, 
			 "electric_dipole_moment_norm": 1.58858553751, 
			 "electric_quadrupole_moment_norm": 17.3867437121, 
			 "total_energy": -917.824662511, 
			 "HOMO_LUMO_gap": 0.15461, 
			 "cosmo_polarized_energy": -13.67, 
			 "cosmo_cavitation_energy": 36.81, 
			 "cosmo_dispersion_energy": -25.93, 
			 "cosmo_repulsion_energy": 1.99, 
			 "cosmo_total_nonelectrostatic_energy": 12.87, 
			 "SMD_solvation_energy": 7.92 
		},
		"coords": [
			{
				"x": -2.741918373,
				"y": -0.8963462829,
				"z": -0.6251084483,
				"element": "O" 
			},
			{
				"x": -1.9037461661,
				"y": -1.9610634483,
				"z": -0.7696854962,
				"element": "C" 
			},
			{
				"x": -2.2418417808,
				"y": -3.0975038984,
				"z": -0.5219054543,
				"element": "O" 
			},
			{
				"x": -0.5729165987,
				"y": -1.5583743875,
				"z": -1.2417026957,
				"element": "C" 
			},
			{
				"x": -0.0035267782,
				"y": -0.3576579612,
				"z": -1.5914143851,
				"element": "C" 
			},
			{
				"x": -0.6246499465,
				"y": 1.0111356872,
				"z": -1.6726056908,
				"element": "C" 
			},
			{
				"x": 0.2364801496,
				"y": 2.0322696999,
				"z": -1.1676934837,
				"element": "O" 
			},
			{
				"x": 0.3395707338,
				"y": 2.2142056296,
				"z": 0.1901349057,
				"element": "C" 
			},
			{
				"x": -0.3686837884,
				"y": 1.4853490379,
				"z": 1.1517579769,
				"element": "C" 
			},
			{
				"x": -0.1861567246,
				"y": 1.7836244761,
				"z": 2.5061695632,
				"element": "C" 
			},
			{
				"x": 0.6888155681,
				"y": 2.7897622699,
				"z": 2.9097031799,
				"element": "C" 
			},
			{
				"x": 1.3928868268,
				"y": 3.510506923,
				"z": 1.9395327686,
				"element": "C" 
			},
			{
				"x": 1.2226959196,
				"y": 3.2274617738,
				"z": 0.5884417114,
				"element": "C" 
			},
			{
				"x": 1.3542915476,
				"y": -0.6708582762,
				"z": -1.9647568798,
				"element": "C" 
			},
			{
				"x": 1.4825647603,
				"y": -2.0627712818,
				"z": -1.8064808906,
				"element": "C" 
			},
			{
				"x": 0.3130530105,
				"y": -2.6038844927,
				"z": -1.3697804209,
				"element": "O" 
			},
			{
				"x": 2.6559739916,
				"y": -2.7631792225,
				"z": -2.0728735076,
				"element": "C" 
			},
			{
				"x": 3.7352089658,
				"y": -2.0062714194,
				"z": -2.5189478037,
				"element": "C" 
			},
			{
				"x": 3.6388338211,
				"y": -0.6080270896,
				"z": -2.686151408,
				"element": "C" 
			},
			{
				"x": 2.4608101977,
				"y": 0.0741440288,
				"z": -2.4116740348,
				"element": "C" 
			},
			{
				"x": -3.5799954734,
				"y": -1.2655872409,
				"z": -0.3002447267,
				"element": "H" 
			},
			{
				"x": -0.7626677662,
				"y": 1.2775062146,
				"z": -2.7261366853,
				"element": "H" 
			},
			{
				"x": -1.6034475786,
				"y": 1.0376618126,
				"z": -1.190558923,
				"element": "H" 
			},
			{
				"x": -1.0527861618,
				"y": 0.6955258331,
				"z": 0.8671235245,
				"element": "H" 
			},
			{
				"x": -0.7379689908,
				"y": 1.213177039,
				"z": 3.2481778703,
				"element": "H" 
			},
			{
				"x": 0.8236491686,
				"y": 3.0105328577,
				"z": 3.9639657553,
				"element": "H" 
			},
			{
				"x": 2.0790638295,
				"y": 4.2986984552,
				"z": 2.2365157724,
				"element": "H" 
			},
			{
				"x": 1.7584030641,
				"y": 3.778989469,
				"z": -0.1774877884,
				"element": "H" 
			},
			{
				"x": 2.7147819911,
				"y": -3.8372382986,
				"z": -1.9374883628,
				"element": "H" 
			},
			{
				"x": 4.6748262763,
				"y": -2.5030189644,
				"z": -2.7412290016,
				"element": "H" 
			},
			{
				"x": 4.5082740955,
				"y": -0.0574618251,
				"z": -3.0322127135,
				"element": "H" 
			},
			{
				"x": 2.3899222098,
				"y": 1.1500928821,
				"z": -2.5234842278,
				"element": "H" 
			}
		],
		 "valence_orbital": [ 
			{
				"type": "occ",
				"energy": -0.28915,
				"method": "rhf"
			},
			{
				"type": "occ",
				"energy": -0.24908,
				"method": "rhf"
			},
			{
				"type": "occ",
				"energy": -0.24788,
				"method": "rhf"
			},
			{
				"type": "occ",
				"energy": -0.23593,
				"method": "rhf"
			},
			{
				"type": "occ",
				"energy": -0.21982,
				"method": "rhf"
			},
			{
				"type": "unocc",
				"energy": -0.06521,
				"method": "rhf"
			},
			{
				"type": "unocc",
				"energy": 0.00029,
				"method": "rhf"
			},
			{
				"type": "unocc",
				"energy": 0.0004,
				"method": "rhf"
			},
			{
				"type": "unocc",
				"energy": 0.01145,
				"method": "rhf"
			},
			{
				"type": "unocc",
				"energy": 0.01436,
				"method": "rhf"
			}
		],
		"cosmo_sigma_profile": { 
			"-0.025": 0.0,
			"-0.024": 0.0,
			"-0.023": 0.0,
			"-0.022": 0.0,
			"-0.021": 0.0,
			"-0.02": 0.0,
			"-0.019": 0.375519124194,
			"-0.018": 0.929801183839,
			"-0.017": 0.74667457973,
			"-0.016": 1.28858939163,
			"-0.015": 0.470090764462,
			"-0.014": 0.956217600497,
			"-0.013": 0.465217536493,
			"-0.012": 0.643216017544,
			"-0.011": 0.959240681916,
			"-0.01": 0.324992866173,
			"-0.009": 0.605292896391,
			"-0.008": 2.02538482202,
			"-0.007": 5.40244774194,
			"-0.006": 13.0659021924,
			"-0.005": 20.5708381767,
			"-0.004": 26.0685423351,
			"-0.003": 23.5874558227,
			"-0.002": 19.8514917711,
			"-0.001": 20.3477260347,
			"0.0": 19.5512071991,
			"0.001": 21.3905441796,
			"0.002": 22.8335635211,
			"0.003": 23.816611827,
			"0.004": 21.881563116,
			"0.005": 14.1011104612,
			"0.006": 10.4930647686,
			"0.007": 4.33927120142,
			"0.008": 2.50580361336,
			"0.009": 3.12866642566,
			"0.01": 3.76398598239,
			"0.011": 6.00110395063,
			"0.012": 2.96010555134,
			"0.013": 0.367659197002,
			"0.014": 0.0,
			"0.015": 0.0,
			"0.016": 0.0,
			"0.017": 0.0,
			"0.018": 0.0,
			"0.019": 0.0,
			"0.02": 0.0,
			"0.021": 0.0,
			"0.022": 0.0,
			"0.023": 0.0,
			"0.024": 0.0,
			"0.025": 0.0
		}
	}
}
