{
	 "smiles": "IC1=CC=CC(I)=C1I", 
	 "Tm": 389.15, 
	 "num_atms": 12, 
	 "gaussian": { 
		 "optdone": 1, 
		 "sigma_profile": "no", 
		 "theory": "DFT", 
		 "functional": "B3LYP", 
		 "basiset": "6-31G**", 
		 "properties": { 
			 "R2extent": 1996.4152, 
			 "electric_dipole_moment_norm": 1.96630482632, 
			 "electric_quadrupole_moment_norm": 6.11816901041, 
			 "total_energy": -264.585864686, 
			 "HOMO_LUMO_gap": 0.16354, 
			 "cosmo_polarized_energy": -533314.58, 
			 "cosmo_cavitation_energy": 25.06, 
			 "cosmo_dispersion_energy": -22.48, 
			 "cosmo_repulsion_energy": 1.71, 
			 "cosmo_total_nonelectrostatic_energy": 4.29, 
			 "SMD_solvation_energy": 1.87 
		},
		"coords": [
			{
				"x": 1.396804966,
				"y": -1.8598556659,
				"z": -3.4182929427,
				"element": "I" 
			},
			{
				"x": 0.1380389298,
				"y": -1.4328017838,
				"z": -1.7662982034,
				"element": "C" 
			},
			{
				"x": -0.784967685,
				"y": -0.4010531829,
				"z": -1.9639127222,
				"element": "C" 
			},
			{
				"x": -1.6584071567,
				"y": -0.0407573926,
				"z": -0.9433469406,
				"element": "C" 
			},
			{
				"x": -1.6161232785,
				"y": -0.7061469642,
				"z": 0.2771982338,
				"element": "C" 
			},
			{
				"x": -0.695872467,
				"y": -1.7389075753,
				"z": 0.4821917459,
				"element": "C" 
			},
			{
				"x": -0.7593838559,
				"y": -2.651260065,
				"z": 2.395203344,
				"element": "I" 
			},
			{
				"x": 0.1994335646,
				"y": -2.1215409967,
				"z": -0.5375733357,
				"element": "C" 
			},
			{
				"x": 1.5925256835,
				"y": -3.6813955768,
				"z": -0.2333093915,
				"element": "I" 
			},
			{
				"x": -0.8159549174,
				"y": 0.11577127,
				"z": -2.9156734409,
				"element": "H" 
			},
			{
				"x": -2.3738899648,
				"y": 0.7605891673,
				"z": -1.099591314,
				"element": "H" 
			},
			{
				"x": -2.2955038187,
				"y": -0.4273412341,
				"z": 1.0738049673,
				"element": "H" 
			}
		],
		 "valence_orbital": [ 
			{
				"type": "occ",
				"energy": -0.27982,
				"method": "rhf"
			},
			{
				"type": "occ",
				"energy": -0.27764,
				"method": "rhf"
			},
			{
				"type": "occ",
				"energy": -0.25102,
				"method": "rhf"
			},
			{
				"type": "occ",
				"energy": -0.24835,
				"method": "rhf"
			},
			{
				"type": "occ",
				"energy": -0.24676,
				"method": "rhf"
			},
			{
				"type": "unocc",
				"energy": -0.08322,
				"method": "rhf"
			},
			{
				"type": "unocc",
				"energy": -0.03936,
				"method": "rhf"
			},
			{
				"type": "unocc",
				"energy": -0.03903,
				"method": "rhf"
			},
			{
				"type": "unocc",
				"energy": -0.03355,
				"method": "rhf"
			},
			{
				"type": "unocc",
				"energy": -0.02411,
				"method": "rhf"
			}
		],
		"cosmo_sigma_profile": { 
			"0.0": 0.0,
			"0.0": 0.0,
			"0.0": 0.0,
			"0.0": 0.0,
			"0.0": 0.0,
			"0.0": 0.0,
			"0.0": 0.0,
			"0.0": 0.0,
			"0.0": 0.0,
			"0.0": 0.0,
			"0.0": 0.0,
			"0.0": 0.0,
			"0.0": 0.0,
			"0.0": 0.0,
			"0.0": 0.0,
			"0.0": 0.0,
			"0.0": 0.0,
			"0.0": 0.0,
			"0.0": 0.0,
			"0.0": 0.0,
			"0.0": 0.0,
			"0.0": 0.0,
			"0.0": 0.0,
			"0.0": 0.0,
			"0.0": 0.0,
			"0.0": 0.0,
			"0.0": 0.0,
			"0.0": 0.0,
			"0.0": 0.0,
			"0.0": 0.0,
			"0.0": 0.0,
			"0.0": 0.0,
			"0.0": 0.0,
			"0.0": 0.0,
			"0.0": 0.0,
			"0.0": 0.0,
			"0.0": 0.0,
			"0.0": 0.0,
			"0.0": 0.0,
			"0.0": 0.0,
			"0.0": 0.0,
			"0.0": 0.0,
			"0.0": 0.0,
			"0.0": 0.0,
			"0.0": 0.0,
			"0.0": 0.0,
			"0.0": 0.0,
			"0.0": 0.0,
			"0.0": 0.0,
			"0.0": 0.0,
			"0.0": 0.0
		}
	}
}
