{
	 "smiles": "CC1=NN(C2=C1C(=CC(C)=N2)C(O)=O)C(C)(C)C", 
	 "Tm": 463.15, 
	 "num_atms": 35, 
	 "gaussian": { 
		 "optdone": 1, 
		 "sigma_profile": "yes", 
		 "theory": "DFT", 
		 "functional": "B3LYP", 
		 "basiset": "6-31G**", 
		 "properties": { 
			 "R2extent": 5782.6913, 
			 "electric_dipole_moment_norm": 3.76771255008, 
			 "electric_quadrupole_moment_norm": 20.6713189831, 
			 "total_energy": -820.357181701, 
			 "HOMO_LUMO_gap": 0.16338, 
			 "cosmo_polarized_energy": -13.22, 
			 "cosmo_cavitation_energy": 36.94, 
			 "cosmo_dispersion_energy": -25.74, 
			 "cosmo_repulsion_energy": 1.99, 
			 "cosmo_total_nonelectrostatic_energy": 13.19, 
			 "SMD_solvation_energy": 6.19 
		},
		"coords": [
			{
				"x": 2.4402678275,
				"y": -2.6954476566,
				"z": -0.9341677511,
				"element": "C" 
			},
			{
				"x": 1.7756191189,
				"y": -1.4911385277,
				"z": -0.3314089026,
				"element": "C" 
			},
			{
				"x": 0.6520428694,
				"y": -1.6603247109,
				"z": 0.3525373442,
				"element": "N" 
			},
			{
				"x": 0.2142290347,
				"y": -0.4452264859,
				"z": 0.7695409355,
				"element": "N" 
			},
			{
				"x": 1.0577800449,
				"y": 0.5408408427,
				"z": 0.3350948906,
				"element": "C" 
			},
			{
				"x": 2.1117295757,
				"y": -0.0961680591,
				"z": -0.3798713586,
				"element": "C" 
			},
			{
				"x": 3.0869751792,
				"y": 0.7645738778,
				"z": -0.9420436997,
				"element": "C" 
			},
			{
				"x": 2.9066485273,
				"y": 2.1303683481,
				"z": -0.7762480823,
				"element": "C" 
			},
			{
				"x": 1.8160709224,
				"y": 2.6444935202,
				"z": -0.0313255686,
				"element": "C" 
			},
			{
				"x": 1.6616658825,
				"y": 4.1323220053,
				"z": 0.1564673674,
				"element": "C" 
			},
			{
				"x": 0.8976710209,
				"y": 1.8578076797,
				"z": 0.5301402147,
				"element": "N" 
			},
			{
				"x": 4.3102812993,
				"y": 0.3251625652,
				"z": -1.6974686096,
				"element": "C" 
			},
			{
				"x": 4.8758871548,
				"y": -0.8409668177,
				"z": -1.2952768216,
				"element": "O" 
			},
			{
				"x": 4.8049813771,
				"y": 0.9680545513,
				"z": -2.5913300148,
				"element": "O" 
			},
			{
				"x": -1.0573853686,
				"y": -0.3035675559,
				"z": 1.5389025183,
				"element": "C" 
			},
			{
				"x": -0.7461608178,
				"y": 0.3958701406,
				"z": 2.875586364,
				"element": "C" 
			},
			{
				"x": -1.6362522126,
				"y": -1.6997808164,
				"z": 1.8015679721,
				"element": "C" 
			},
			{
				"x": -2.0482786355,
				"y": 0.5293246616,
				"z": 0.7035031306,
				"element": "C" 
			},
			{
				"x": 3.3420428685,
				"y": -3.005984392,
				"z": -0.3901591462,
				"element": "H" 
			},
			{
				"x": 1.7413023039,
				"y": -3.5333956272,
				"z": -0.8960544327,
				"element": "H" 
			},
			{
				"x": 2.7299637965,
				"y": -2.5254984746,
				"z": -1.9747745506,
				"element": "H" 
			},
			{
				"x": 3.628234968,
				"y": 2.8078487845,
				"z": -1.2194170498,
				"element": "H" 
			},
			{
				"x": 2.5284931285,
				"y": 4.5563553962,
				"z": 0.6759596834,
				"element": "H" 
			},
			{
				"x": 1.5835946905,
				"y": 4.643965611,
				"z": -0.8094068517,
				"element": "H" 
			},
			{
				"x": 0.7644386349,
				"y": 4.3421311947,
				"z": 0.7405580985,
				"element": "H" 
			},
			{
				"x": 4.4204173608,
				"y": -1.1750774774,
				"z": -0.5096388747,
				"element": "H" 
			},
			{
				"x": -0.3238911745,
				"y": 1.3887054258,
				"z": 2.7097491773,
				"element": "H" 
			},
			{
				"x": -1.6675963838,
				"y": 0.5018098446,
				"z": 3.4566841959,
				"element": "H" 
			},
			{
				"x": -0.0378510472,
				"y": -0.1961677899,
				"z": 3.4636275363,
				"element": "H" 
			},
			{
				"x": -0.9443157639,
				"y": -2.3196982056,
				"z": 2.375970704,
				"element": "H" 
			},
			{
				"x": -1.8629506457,
				"y": -2.2235289828,
				"z": 0.8708021566,
				"element": "H" 
			},
			{
				"x": -2.5614193352,
				"y": -1.5848880213,
				"z": 2.3742722077,
				"element": "H" 
			},
			{
				"x": -1.650743487,
				"y": 1.5263962214,
				"z": 0.5040018844,
				"element": "H" 
			},
			{
				"x": -2.2572701386,
				"y": 0.0346609031,
				"z": -0.2501266892,
				"element": "H" 
			},
			{
				"x": -2.9917225758,
				"y": 0.6337680269,
				"z": 1.2485520222,
				"element": "H" 
			}
		],
		 "valence_orbital": [ 
			{
				"type": "occ",
				"energy": -0.29902,
				"method": "rhf"
			},
			{
				"type": "occ",
				"energy": -0.28285,
				"method": "rhf"
			},
			{
				"type": "occ",
				"energy": -0.2703,
				"method": "rhf"
			},
			{
				"type": "occ",
				"energy": -0.2531,
				"method": "rhf"
			},
			{
				"type": "occ",
				"energy": -0.23405,
				"method": "rhf"
			},
			{
				"type": "unocc",
				"energy": -0.07067,
				"method": "rhf"
			},
			{
				"type": "unocc",
				"energy": -0.00947,
				"method": "rhf"
			},
			{
				"type": "unocc",
				"energy": 0.02451,
				"method": "rhf"
			},
			{
				"type": "unocc",
				"energy": 0.04542,
				"method": "rhf"
			},
			{
				"type": "unocc",
				"energy": 0.06703,
				"method": "rhf"
			}
		],
		"cosmo_sigma_profile": { 
			"-0.025": 0.0,
			"-0.024": 0.0,
			"-0.023": 0.0,
			"-0.022": 0.0,
			"-0.021": 0.0,
			"-0.02": 0.0,
			"-0.019": 0.0,
			"-0.018": 0.255181720051,
			"-0.017": 0.606574088711,
			"-0.016": 0.778536113742,
			"-0.015": 1.16851034079,
			"-0.014": 0.775122644578,
			"-0.013": 0.546437663136,
			"-0.012": 1.2382607987,
			"-0.011": 1.15677172097,
			"-0.01": 0.356394493325,
			"-0.009": 0.693652816508,
			"-0.008": 1.49814452007,
			"-0.007": 2.16424200931,
			"-0.006": 4.63471027424,
			"-0.005": 12.246815995,
			"-0.004": 22.9078758261,
			"-0.003": 30.4007970043,
			"-0.002": 27.0570900399,
			"-0.001": 34.8525721299,
			"0.0": 42.8107933544,
			"0.001": 31.510326029,
			"0.002": 11.8748906095,
			"0.003": 8.29686065365,
			"0.004": 6.99865814512,
			"0.005": 7.1665938668,
			"0.006": 6.50758593985,
			"0.007": 5.5689561733,
			"0.008": 4.76861813518,
			"0.009": 5.68568069806,
			"0.01": 5.8985948228,
			"0.011": 6.45175727291,
			"0.012": 3.4981051716,
			"0.013": 0.545769300564,
			"0.014": 0.0,
			"0.015": 0.0,
			"0.016": 0.0,
			"0.017": 0.0,
			"0.018": 0.0,
			"0.019": 0.0,
			"0.02": 0.0,
			"0.021": 0.0,
			"0.022": 0.0,
			"0.023": 0.0,
			"0.024": 0.0,
			"0.025": 0.0
		}
	}
}
