{
	 "smiles": "O=S(=O)(OC1=CC=CC=C1)C1=CC=CC=C1C=CC1=C(C=CC=C1)S(=O)(=O)OC1=CC=CC=C1", 
	 "Tm": 453.15, 
	 "num_atms": 54, 
	 "gaussian": { 
		 "optdone": 1, 
		 "sigma_profile": "yes", 
		 "theory": "DFT", 
		 "functional": "B3LYP", 
		 "basiset": "6-31G**", 
		 "properties": { 
			 "R2extent": 16089.2649, 
			 "electric_dipole_moment_norm": 0.000489897948557, 
			 "electric_quadrupole_moment_norm": 53.2698239683, 
			 "total_energy": -2250.3736923, 
			 "HOMO_LUMO_gap": 0.15629, 
			 "cosmo_polarized_energy": -20.23, 
			 "cosmo_cavitation_energy": 61.71, 
			 "cosmo_dispersion_energy": -38.14, 
			 "cosmo_repulsion_energy": 2.78, 
			 "cosmo_total_nonelectrostatic_energy": 26.35, 
			 "SMD_solvation_energy": 8.07 
		},
		"coords": [
			{
				"x": 1.233223346,
				"y": 4.5980310819,
				"z": 3.8381414543,
				"element": "O" 
			},
			{
				"x": 0.7414636718,
				"y": 3.8046119614,
				"z": 2.7224081664,
				"element": "S" 
			},
			{
				"x": -0.6545790746,
				"y": 3.3738858092,
				"z": 2.666251294,
				"element": "O" 
			},
			{
				"x": 1.0560169312,
				"y": 4.7804822791,
				"z": 1.405160926,
				"element": "O" 
			},
			{
				"x": 0.4872807967,
				"y": 4.4944312176,
				"z": 0.1586578691,
				"element": "C" 
			},
			{
				"x": 1.3198368412,
				"y": 4.0036899668,
				"z": -0.846080326,
				"element": "C" 
			},
			{
				"x": 0.792045289,
				"y": 3.7936547762,
				"z": -2.1207282636,
				"element": "C" 
			},
			{
				"x": -0.5519533063,
				"y": 4.0709699482,
				"z": -2.3794442749,
				"element": "C" 
			},
			{
				"x": -1.3710337693,
				"y": 4.5663730017,
				"z": -1.3614614208,
				"element": "C" 
			},
			{
				"x": -0.8558539475,
				"y": 4.7851508222,
				"z": -0.0829588745,
				"element": "C" 
			},
			{
				"x": 1.8653958196,
				"y": 2.4209935198,
				"z": 2.464665506,
				"element": "C" 
			},
			{
				"x": 3.150670289,
				"y": 2.6304712344,
				"z": 2.9803482537,
				"element": "C" 
			},
			{
				"x": 4.1399774004,
				"y": 1.6694155747,
				"z": 2.8026936528,
				"element": "C" 
			},
			{
				"x": 3.8360033539,
				"y": 0.4951115314,
				"z": 2.1105631935,
				"element": "C" 
			},
			{
				"x": 2.5567227662,
				"y": 0.2860008852,
				"z": 1.6092793211,
				"element": "C" 
			},
			{
				"x": 1.5288937951,
				"y": 1.2417812467,
				"z": 1.7545490554,
				"element": "C" 
			},
			{
				"x": 0.1886050178,
				"y": 0.9543392237,
				"z": 1.2176235356,
				"element": "C" 
			},
			{
				"x": -0.0328723939,
				"y": 0.1668883669,
				"z": 0.1471094791,
				"element": "C" 
			},
			{
				"x": -1.3731532944,
				"y": -0.1205115971,
				"z": -0.3898246571,
				"element": "C" 
			},
			{
				"x": -1.7096697522,
				"y": -1.2996521236,
				"z": -1.1000513333,
				"element": "C" 
			},
			{
				"x": -2.9949729863,
				"y": -1.5090959745,
				"z": -1.6156804796,
				"element": "C" 
			},
			{
				"x": -3.9842872849,
				"y": -0.5480774774,
				"z": -1.4378580663,
				"element": "C" 
			},
			{
				"x": -3.6802995342,
				"y": 0.6261474821,
				"z": -0.74559562,
				"element": "C" 
			},
			{
				"x": -2.4009961036,
				"y": 0.8352199795,
				"z": -0.2443575341,
				"element": "C" 
			},
			{
				"x": -0.5857365557,
				"y": -2.6832448186,
				"z": -1.3579697746,
				"element": "S" 
			},
			{
				"x": -1.0775826063,
				"y": -3.47664849,
				"z": -2.4736760195,
				"element": "O" 
			},
			{
				"x": 0.8103083556,
				"y": -2.2525080533,
				"z": -1.3019267922,
				"element": "O" 
			},
			{
				"x": -0.9001329289,
				"y": -3.6591549295,
				"z": -0.0407212395,
				"element": "O" 
			},
			{
				"x": -0.3312323651,
				"y": -3.3731606792,
				"z": 1.205718184,
				"element": "C" 
			},
			{
				"x": 1.011948276,
				"y": -3.6638389425,
				"z": 1.4471308433,
				"element": "C" 
			},
			{
				"x": 1.5272980943,
				"y": -3.4451011736,
				"z": 2.7255716383,
				"element": "C" 
			},
			{
				"x": 0.7083391943,
				"y": -2.9497869222,
				"z": 3.7436952611,
				"element": "C" 
			},
			{
				"x": -0.6357052233,
				"y": -2.6725067641,
				"z": 3.4851799969,
				"element": "C" 
			},
			{
				"x": -1.1636660459,
				"y": -2.8824941031,
				"z": 2.2105943378,
				"element": "C" 
			},
			{
				"x": 2.3621300615,
				"y": 3.8029781698,
				"z": -0.6230847094,
				"element": "H" 
			},
			{
				"x": 1.4329322721,
				"y": 3.4139975372,
				"z": -2.9107066981,
				"element": "H" 
			},
			{
				"x": -0.9588449273,
				"y": 3.906682501,
				"z": -3.3725460231,
				"element": "H" 
			},
			{
				"x": -2.4137018109,
				"y": 4.793128318,
				"z": -1.5636673836,
				"element": "H" 
			},
			{
				"x": -1.4709796923,
				"y": 5.17565149,
				"z": 0.7191193987,
				"element": "H" 
			},
			{
				"x": 3.35739763,
				"y": 3.545372929,
				"z": 3.5230997439,
				"element": "H" 
			},
			{
				"x": 5.1327307648,
				"y": 1.8326691059,
				"z": 3.2095993713,
				"element": "H" 
			},
			{
				"x": 4.5941603626,
				"y": -0.2707783101,
				"z": 1.9759345106,
				"element": "H" 
			},
			{
				"x": 2.3213972488,
				"y": -0.6532602567,
				"z": 1.1211854136,
				"element": "H" 
			},
			{
				"x": -0.6434669607,
				"y": 1.4078153508,
				"z": 1.7409285155,
				"element": "H" 
			},
			{
				"x": 0.7991999109,
				"y": -0.286539958,
				"z": -0.37623321,
				"element": "H" 
			},
			{
				"x": -3.2017161272,
				"y": -2.4239425629,
				"z": -2.1585171386,
				"element": "H" 
			},
			{
				"x": -4.9770643419,
				"y": -0.7113059191,
				"z": -1.844716097,
				"element": "H" 
			},
			{
				"x": -4.4384686396,
				"y": 1.3919976811,
				"z": -0.6108098089,
				"element": "H" 
			},
			{
				"x": -2.1656641673,
				"y": 1.7744092208,
				"z": 0.2438767853,
				"element": "H" 
			},
			{
				"x": 1.6269793116,
				"y": -4.0542716096,
				"z": 0.6449465976,
				"element": "H" 
			},
			{
				"x": 2.5700044671,
				"y": -3.6718214242,
				"z": 2.9276197136,
				"element": "H" 
			},
			{
				"x": 1.1153643389,
				"y": -2.7855351647,
				"z": 4.7367480833,
				"element": "H" 
			},
			{
				"x": -1.2764963096,
				"y": -2.2929116892,
				"z": 4.275266148,
				"element": "H" 
			},
			{
				"x": -2.2059954571,
				"y": -2.681803269,
				"z": 1.9877494952,
				"element": "H" 
			}
		],
		 "valence_orbital": [ 
			{
				"type": "occ",
				"energy": -0.26451,
				"method": "rhf"
			},
			{
				"type": "occ",
				"energy": -0.26422,
				"method": "rhf"
			},
			{
				"type": "occ",
				"energy": -0.25602,
				"method": "rhf"
			},
			{
				"type": "occ",
				"energy": -0.25473,
				"method": "rhf"
			},
			{
				"type": "occ",
				"energy": -0.23353,
				"method": "rhf"
			},
			{
				"type": "unocc",
				"energy": -0.07724,
				"method": "rhf"
			},
			{
				"type": "unocc",
				"energy": -0.04727,
				"method": "rhf"
			},
			{
				"type": "unocc",
				"energy": -0.04281,
				"method": "rhf"
			},
			{
				"type": "unocc",
				"energy": -0.02089,
				"method": "rhf"
			},
			{
				"type": "unocc",
				"energy": -0.01847,
				"method": "rhf"
			}
		],
		"cosmo_sigma_profile": { 
			"-0.025": 0.0,
			"-0.024": 0.0,
			"-0.023": 0.0,
			"-0.022": 0.0,
			"-0.021": 0.0,
			"-0.02": 0.0,
			"-0.019": 0.0,
			"-0.018": 0.0,
			"-0.017": 0.0,
			"-0.016": 0.0,
			"-0.015": 0.0,
			"-0.014": 0.0,
			"-0.013": 0.0,
			"-0.012": 0.0,
			"-0.011": 0.0,
			"-0.01": 0.0,
			"-0.009": 0.0,
			"-0.008": 2.05564452388,
			"-0.007": 19.0906199266,
			"-0.006": 34.070385519,
			"-0.005": 34.3933904626,
			"-0.004": 36.7650537402,
			"-0.003": 32.1571410144,
			"-0.002": 30.8972849721,
			"-0.001": 38.5119394784,
			"0.0": 41.9136852301,
			"0.001": 46.6423901728,
			"0.002": 56.155555997,
			"0.003": 37.0947645307,
			"0.004": 21.6554235474,
			"0.005": 9.38093811077,
			"0.006": 8.01406652234,
			"0.007": 8.85257154797,
			"0.008": 11.176804966,
			"0.009": 14.4457347213,
			"0.01": 12.8216812201,
			"0.011": 1.23200188624,
			"0.012": 0.0,
			"0.013": 0.0,
			"0.014": 0.0,
			"0.015": 0.0,
			"0.016": 0.0,
			"0.017": 0.0,
			"0.018": 0.0,
			"0.019": 0.0,
			"0.02": 0.0,
			"0.021": 0.0,
			"0.022": 0.0,
			"0.023": 0.0,
			"0.024": 0.0,
			"0.025": 0.0
		}
	}
}
