{
	 "smiles": "OC(=O)C1=CN2C(I)=CN=C2C=C1", 
	 "Tm": 528.15, 
	 "num_atms": 18, 
	 "gaussian": { 
		 "optdone": 1, 
		 "sigma_profile": "yes", 
		 "theory": "DFT", 
		 "functional": "B3LYP", 
		 "basiset": "6-31G**", 
		 "properties": { 
			 "R2extent": 3074.7087, 
			 "electric_dipole_moment_norm": 3.16048896533, 
			 "electric_quadrupole_moment_norm": 19.1927585269, 
			 "total_energy": -579.191020258, 
			 "HOMO_LUMO_gap": 0.1598, 
			 "cosmo_polarized_energy": -17.53, 
			 "cosmo_cavitation_energy": 26.38, 
			 "cosmo_dispersion_energy": -20.85, 
			 "cosmo_repulsion_energy": 1.59, 
			 "cosmo_total_nonelectrostatic_energy": 7.13, 
			 "SMD_solvation_energy": 3.32 
		},
		"coords": [
			{
				"x": 1.4981269874,
				"y": -3.5339454904,
				"z": -0.4379687641,
				"element": "O" 
			},
			{
				"x": 1.1701909536,
				"y": -2.5123632139,
				"z": 0.3985245763,
				"element": "C" 
			},
			{
				"x": 1.1720806417,
				"y": -2.6796419846,
				"z": 1.5940315398,
				"element": "O" 
			},
			{
				"x": 0.8060910097,
				"y": -1.2058788164,
				"z": -0.2350345599,
				"element": "C" 
			},
			{
				"x": 0.3324881364,
				"y": -1.1336877794,
				"z": -1.5227767193,
				"element": "C" 
			},
			{
				"x": -0.0214672157,
				"y": 0.0820451167,
				"z": -2.0419412024,
				"element": "N" 
			},
			{
				"x": -0.5206440042,
				"y": 0.4531257174,
				"z": -3.2798557635,
				"element": "C" 
			},
			{
				"x": -0.8845226719,
				"y": -0.8866017818,
				"z": -4.8193159906,
				"element": "I" 
			},
			{
				"x": -0.6862484294,
				"y": 1.8245275579,
				"z": -3.2206510227,
				"element": "C" 
			},
			{
				"x": -0.3197471937,
				"y": 2.3260211676,
				"z": -2.0103346162,
				"element": "N" 
			},
			{
				"x": 0.079410832,
				"y": 1.2800756176,
				"z": -1.2956465668,
				"element": "C" 
			},
			{
				"x": 0.5499216804,
				"y": 1.1952001887,
				"z": 0.0356853556,
				"element": "C" 
			},
			{
				"x": 0.8968814318,
				"y": -0.0218599521,
				"z": 0.5601336107,
				"element": "C" 
			},
			{
				"x": 1.677188962,
				"y": -3.1994963642,
				"z": -1.3276996466,
				"element": "H" 
			},
			{
				"x": 0.1689603584,
				"y": -1.9891608885,
				"z": -2.1676586154,
				"element": "H" 
			},
			{
				"x": -1.0568898357,
				"y": 2.4602269076,
				"z": -4.013152997,
				"element": "H" 
			},
			{
				"x": 0.6138780516,
				"y": 2.113635384,
				"z": 0.6074483262,
				"element": "H" 
			},
			{
				"x": 1.2445003059,
				"y": -0.1232213862,
				"z": 1.5813130561,
				"element": "H" 
			}
		],
		 "valence_orbital": [ 
			{
				"type": "occ",
				"energy": -0.3072,
				"method": "rhf"
			},
			{
				"type": "occ",
				"energy": -0.28951,
				"method": "rhf"
			},
			{
				"type": "occ",
				"energy": -0.28843,
				"method": "rhf"
			},
			{
				"type": "occ",
				"energy": -0.26849,
				"method": "rhf"
			},
			{
				"type": "occ",
				"energy": -0.23028,
				"method": "rhf"
			},
			{
				"type": "unocc",
				"energy": -0.07048,
				"method": "rhf"
			},
			{
				"type": "unocc",
				"energy": -0.05606,
				"method": "rhf"
			},
			{
				"type": "unocc",
				"energy": -0.04457,
				"method": "rhf"
			},
			{
				"type": "unocc",
				"energy": 0.01537,
				"method": "rhf"
			},
			{
				"type": "unocc",
				"energy": 0.02024,
				"method": "rhf"
			}
		],
		"cosmo_sigma_profile": { 
			"-0.025": 0.0,
			"-0.024": 0.0,
			"-0.023": 0.0,
			"-0.022": 0.0,
			"-0.021": 0.0,
			"-0.02": 0.247374931807,
			"-0.019": 0.708918062641,
			"-0.018": 1.36200793859,
			"-0.017": 1.08652653355,
			"-0.016": 0.800536335218,
			"-0.015": 0.906599495803,
			"-0.014": 1.16129461519,
			"-0.013": 1.45225880034,
			"-0.012": 0.691862641106,
			"-0.011": 2.06999849769,
			"-0.01": 0.892132131662,
			"-0.009": 2.3043214453,
			"-0.008": 6.42768148783,
			"-0.007": 8.00814202492,
			"-0.006": 9.85191642232,
			"-0.005": 10.113034482,
			"-0.004": 10.5468952991,
			"-0.003": 14.9556074907,
			"-0.002": 13.2704121205,
			"-0.001": 14.8582962369,
			"0.0": 15.9371864154,
			"0.001": 19.2048049102,
			"0.002": 19.5166730984,
			"0.003": 13.5920879086,
			"0.004": 5.69695086655,
			"0.005": 4.43071424265,
			"0.006": 3.20956983518,
			"0.007": 4.45714940212,
			"0.008": 3.59462755392,
			"0.009": 5.42218776928,
			"0.01": 6.01146488453,
			"0.011": 6.07082634584,
			"0.012": 4.69930232021,
			"0.013": 1.6376515366,
			"0.014": 0.859478008627,
			"0.015": 1.09775420409,
			"0.016": 1.0151745986,
			"0.017": 0.227041869066,
			"0.018": 0.0,
			"0.019": 0.0,
			"0.02": 0.0,
			"0.021": 0.0,
			"0.022": 0.0,
			"0.023": 0.0,
			"0.024": 0.0,
			"0.025": 0.0
		}
	}
}
