{
	 "smiles": "BrC1=CC2=C(N=CN2)N=C1", 
	 "Tm": 491.15, 
	 "num_atms": 14, 
	 "gaussian": { 
		 "optdone": 1, 
		 "sigma_profile": "yes", 
		 "theory": "DFT", 
		 "functional": "B3LYP", 
		 "basiset": "6-31G**", 
		 "properties": { 
			 "R2extent": 3883.1495, 
			 "electric_dipole_moment_norm": 5.42768561912, 
			 "electric_quadrupole_moment_norm": 15.3432706976, 
			 "total_energy": -2966.70339537, 
			 "HOMO_LUMO_gap": 0.19143, 
			 "cosmo_polarized_energy": -17.82, 
			 "cosmo_cavitation_energy": 20.99, 
			 "cosmo_dispersion_energy": -16.53, 
			 "cosmo_repulsion_energy": 1.32, 
			 "cosmo_total_nonelectrostatic_energy": 5.78, 
			 "SMD_solvation_energy": -0.9 
		},
		"coords": [
			{
				"x": 1.2172625461,
				"y": -3.8010086743,
				"z": 2.1762064727,
				"element": "Br" 
			},
			{
				"x": 0.9564776684,
				"y": -2.4023604009,
				"z": 0.904137441,
				"element": "C" 
			},
			{
				"x": 1.9959663284,
				"y": -1.5209945217,
				"z": 0.6261236023,
				"element": "C" 
			},
			{
				"x": 1.6879266237,
				"y": -0.5449350358,
				"z": -0.316581925,
				"element": "C" 
			},
			{
				"x": 0.4021308419,
				"y": -0.4921250842,
				"z": -0.9197316892,
				"element": "C" 
			},
			{
				"x": 0.3329557668,
				"y": 0.5582439007,
				"z": -1.8200589509,
				"element": "N" 
			},
			{
				"x": 1.5145352387,
				"y": 1.1132436211,
				"z": -1.765964334,
				"element": "C" 
			},
			{
				"x": 2.3830795342,
				"y": 0.5034499837,
				"z": -0.882791593,
				"element": "N" 
			},
			{
				"x": -0.5817415345,
				"y": -1.3517003167,
				"z": -0.6355538217,
				"element": "N" 
			},
			{
				"x": -0.295973573,
				"y": -2.2888738631,
				"z": 0.265259102,
				"element": "C" 
			},
			{
				"x": 2.9605330905,
				"y": -1.6035147984,
				"z": 1.1141110423,
				"element": "H" 
			},
			{
				"x": 1.823697148,
				"y": 1.9742178564,
				"z": -2.3448447844,
				"element": "H" 
			},
			{
				"x": 3.3354695946,
				"y": 0.7762475496,
				"z": -0.6944296788,
				"element": "H" 
			},
			{
				"x": -1.0824192738,
				"y": -2.9975902164,
				"z": 0.5103191167,
				"element": "H" 
			}
		],
		 "valence_orbital": [ 
			{
				"type": "occ",
				"energy": -0.30223,
				"method": "rhf"
			},
			{
				"type": "occ",
				"energy": -0.29282,
				"method": "rhf"
			},
			{
				"type": "occ",
				"energy": -0.26345,
				"method": "rhf"
			},
			{
				"type": "occ",
				"energy": -0.26062,
				"method": "rhf"
			},
			{
				"type": "occ",
				"energy": -0.2388,
				"method": "rhf"
			},
			{
				"type": "unocc",
				"energy": -0.04737,
				"method": "rhf"
			},
			{
				"type": "unocc",
				"energy": -0.00471,
				"method": "rhf"
			},
			{
				"type": "unocc",
				"energy": 0.00067,
				"method": "rhf"
			},
			{
				"type": "unocc",
				"energy": 0.035,
				"method": "rhf"
			},
			{
				"type": "unocc",
				"energy": 0.05873,
				"method": "rhf"
			}
		],
		"cosmo_sigma_profile": { 
			"-0.025": 0.0,
			"-0.024": 0.0,
			"-0.023": 0.0,
			"-0.022": 0.0,
			"-0.021": 0.0,
			"-0.02": 0.0,
			"-0.019": 0.0,
			"-0.018": 0.423086032914,
			"-0.017": 1.89780674722,
			"-0.016": 2.14560775981,
			"-0.015": 1.32283535727,
			"-0.014": 0.964024301737,
			"-0.013": 1.64183574741,
			"-0.012": 1.73445291948,
			"-0.011": 1.76185692641,
			"-0.01": 4.01899933977,
			"-0.009": 3.94796592732,
			"-0.008": 4.61475872058,
			"-0.007": 4.57447974954,
			"-0.006": 4.36805671609,
			"-0.005": 4.94538118288,
			"-0.004": 6.61715669384,
			"-0.003": 6.69163889681,
			"-0.002": 7.25996762669,
			"-0.001": 13.3566725124,
			"0.0": 18.2943360312,
			"0.001": 17.372085527,
			"0.002": 10.5503860807,
			"0.003": 10.0285978245,
			"0.004": 13.8579266969,
			"0.005": 4.83594380327,
			"0.006": 2.12577998994,
			"0.007": 2.46185559142,
			"0.008": 2.59283823004,
			"0.009": 1.78967798677,
			"0.01": 2.03130756739,
			"0.011": 1.94881760287,
			"0.012": 2.82793768632,
			"0.013": 2.72487344407,
			"0.014": 2.79427866413,
			"0.015": 2.59648373319,
			"0.016": 1.64262838993,
			"0.017": 0.380676766197,
			"0.018": 0.0,
			"0.019": 0.0,
			"0.02": 0.0,
			"0.021": 0.0,
			"0.022": 0.0,
			"0.023": 0.0,
			"0.024": 0.0,
			"0.025": 0.0
		}
	}
}
