{
	 "smiles": "OC(=O)CCCCC1=CC=C(O)C=C1", 
	 "Tm": 391.15, 
	 "num_atms": 28, 
	 "gaussian": { 
		 "optdone": 1, 
		 "sigma_profile": "yes", 
		 "theory": "DFT", 
		 "functional": "B3LYP", 
		 "basiset": "6-31G**", 
		 "properties": { 
			 "R2extent": 3257.1787, 
			 "electric_dipole_moment_norm": 0.919473795168, 
			 "electric_quadrupole_moment_norm": 14.7554194332, 
			 "total_energy": -653.302604845, 
			 "HOMO_LUMO_gap": 0.20911, 
			 "cosmo_polarized_energy": -14.17, 
			 "cosmo_cavitation_energy": 31.34, 
			 "cosmo_dispersion_energy": -21.43, 
			 "cosmo_repulsion_energy": 1.73, 
			 "cosmo_total_nonelectrostatic_energy": 11.65, 
			 "SMD_solvation_energy": 6.24 
		},
		"coords": [
			{
				"x": -1.6409201627,
				"y": 1.7043739513,
				"z": 2.4010767886,
				"element": "O" 
			},
			{
				"x": -1.0619432395,
				"y": 0.4794748349,
				"z": 2.4680542474,
				"element": "C" 
			},
			{
				"x": -1.6959104657,
				"y": -0.5170368812,
				"z": 2.74525322,
				"element": "O" 
			},
			{
				"x": 0.4213642813,
				"y": 0.5521949677,
				"z": 2.1800051472,
				"element": "C" 
			},
			{
				"x": 1.1132145167,
				"y": -0.8172649426,
				"z": 2.1709340314,
				"element": "C" 
			},
			{
				"x": 0.7356802388,
				"y": -1.7701855902,
				"z": 1.0213704807,
				"element": "C" 
			},
			{
				"x": 1.3409341606,
				"y": -1.4460540343,
				"z": -0.3631020746,
				"element": "C" 
			},
			{
				"x": 0.7858872867,
				"y": -0.225942545,
				"z": -1.0734194734,
				"element": "C" 
			},
			{
				"x": 1.5959400037,
				"y": 0.8784786993,
				"z": -1.3752894743,
				"element": "C" 
			},
			{
				"x": 1.0947023757,
				"y": 1.9994441411,
				"z": -2.0346078159,
				"element": "C" 
			},
			{
				"x": -0.2497557714,
				"y": 2.0355412143,
				"z": -2.4151660355,
				"element": "C" 
			},
			{
				"x": -0.6971955409,
				"y": 3.1556023613,
				"z": -3.0600601359,
				"element": "O" 
			},
			{
				"x": -1.0760396698,
				"y": 0.9424935875,
				"z": -2.1317049569,
				"element": "C" 
			},
			{
				"x": -0.5572574278,
				"y": -0.17035815,
				"z": -1.4712137337,
				"element": "C" 
			},
			{
				"x": -2.5797661817,
				"y": 1.5666650465,
				"z": 2.6112527076,
				"element": "H" 
			},
			{
				"x": 0.5553634822,
				"y": 1.0931674064,
				"z": 1.238725082,
				"element": "H" 
			},
			{
				"x": 0.8593790259,
				"y": 1.1951526835,
				"z": 2.9548957747,
				"element": "H" 
			},
			{
				"x": 0.8827663828,
				"y": -1.316636145,
				"z": 3.1184632926,
				"element": "H" 
			},
			{
				"x": 2.198706482,
				"y": -0.6534249621,
				"z": 2.1614734114,
				"element": "H" 
			},
			{
				"x": 1.0802806792,
				"y": -2.7742971012,
				"z": 1.2988367723,
				"element": "H" 
			},
			{
				"x": -0.3552037515,
				"y": -1.8378397742,
				"z": 0.9517431649,
				"element": "H" 
			},
			{
				"x": 1.1873333484,
				"y": -2.3247023926,
				"z": -1.0043432971,
				"element": "H" 
			},
			{
				"x": 2.4282292248,
				"y": -1.3370403581,
				"z": -0.2607401683,
				"element": "H" 
			},
			{
				"x": 2.6448627841,
				"y": 0.8620647007,
				"z": -1.0886459004,
				"element": "H" 
			},
			{
				"x": 1.7286246189,
				"y": 2.8499113374,
				"z": -2.2634794155,
				"element": "H" 
			},
			{
				"x": -1.6353267563,
				"y": 3.0485221968,
				"z": -3.2631803252,
				"element": "H" 
			},
			{
				"x": -2.1224243563,
				"y": 0.9597464239,
				"z": -2.4310490389,
				"element": "H" 
			},
			{
				"x": -1.2142255683,
				"y": -1.0118506762,
				"z": -1.264982275,
				"element": "H" 
			}
		],
		 "valence_orbital": [ 
			{
				"type": "occ",
				"energy": -0.31186,
				"method": "rhf"
			},
			{
				"type": "occ",
				"energy": -0.31031,
				"method": "rhf"
			},
			{
				"type": "occ",
				"energy": -0.26954,
				"method": "rhf"
			},
			{
				"type": "occ",
				"energy": -0.25065,
				"method": "rhf"
			},
			{
				"type": "occ",
				"energy": -0.21365,
				"method": "rhf"
			},
			{
				"type": "unocc",
				"energy": -0.00454,
				"method": "rhf"
			},
			{
				"type": "unocc",
				"energy": 0.01385,
				"method": "rhf"
			},
			{
				"type": "unocc",
				"energy": 0.01747,
				"method": "rhf"
			},
			{
				"type": "unocc",
				"energy": 0.07117,
				"method": "rhf"
			},
			{
				"type": "unocc",
				"energy": 0.08337,
				"method": "rhf"
			}
		],
		"cosmo_sigma_profile": { 
			"-0.025": 0.0,
			"-0.024": 0.0,
			"-0.023": 0.0,
			"-0.022": 0.0,
			"-0.021": 0.0,
			"-0.02": 0.0,
			"-0.019": 0.0,
			"-0.018": 0.675655971527,
			"-0.017": 1.66222272819,
			"-0.016": 1.9936806055,
			"-0.015": 2.03884599784,
			"-0.014": 1.8625302567,
			"-0.013": 0.97506492465,
			"-0.012": 1.30863120823,
			"-0.011": 1.70077287272,
			"-0.01": 2.7441435732,
			"-0.009": 1.93524619656,
			"-0.008": 1.30514157835,
			"-0.007": 1.99298150091,
			"-0.006": 4.90322443296,
			"-0.005": 10.8358970574,
			"-0.004": 12.3552255287,
			"-0.003": 22.317087012,
			"-0.002": 26.0046773881,
			"-0.001": 24.9636614981,
			"0.0": 24.3545563757,
			"0.001": 15.1711195732,
			"0.002": 10.8193755734,
			"0.003": 11.4997261217,
			"0.004": 13.1798478223,
			"0.005": 10.9876621745,
			"0.006": 8.14436040553,
			"0.007": 5.10749934089,
			"0.008": 4.89981277143,
			"0.009": 4.01005013688,
			"0.01": 5.08928355445,
			"0.011": 4.51026367046,
			"0.012": 5.911850319,
			"0.013": 0.653438220909,
			"0.014": 0.0,
			"0.015": 0.0,
			"0.016": 0.0,
			"0.017": 0.0,
			"0.018": 0.0,
			"0.019": 0.0,
			"0.02": 0.0,
			"0.021": 0.0,
			"0.022": 0.0,
			"0.023": 0.0,
			"0.024": 0.0,
			"0.025": 0.0
		}
	}
}
