{
	 "smiles": "COC(=O)C1=C(C=CS1)S(Cl)(=O)=O", 
	 "Tm": 337.15, 
	 "num_atms": 18, 
	 "gaussian": { 
		 "optdone": 1, 
		 "sigma_profile": "yes", 
		 "theory": "DFT", 
		 "functional": "B3LYP", 
		 "basiset": "6-31G**", 
		 "properties": { 
			 "R2extent": 3736.1298, 
			 "electric_dipole_moment_norm": 6.18559037845, 
			 "electric_quadrupole_moment_norm": 10.548887913, 
			 "total_energy": -1789.02388759, 
			 "HOMO_LUMO_gap": 0.18124, 
			 "cosmo_polarized_energy": -13.67, 
			 "cosmo_cavitation_energy": 27.87, 
			 "cosmo_dispersion_energy": -21.31, 
			 "cosmo_repulsion_energy": 1.61, 
			 "cosmo_total_nonelectrostatic_energy": 8.17, 
			 "SMD_solvation_energy": 5.14 
		},
		"coords": [
			{
				"x": 1.576972282,
				"y": -3.939304851,
				"z": 2.7932593722,
				"element": "C" 
			},
			{
				"x": 1.5898346213,
				"y": -2.5258637045,
				"z": 2.5196614629,
				"element": "O" 
			},
			{
				"x": 0.6511322902,
				"y": -2.1001949731,
				"z": 1.6470703256,
				"element": "C" 
			},
			{
				"x": -0.1566387352,
				"y": -2.8182946722,
				"z": 1.1031237191,
				"element": "O" 
			},
			{
				"x": 0.7349515242,
				"y": -0.6330895254,
				"z": 1.4655821119,
				"element": "C" 
			},
			{
				"x": 0.0639399717,
				"y": 0.1828119122,
				"z": 0.5720302712,
				"element": "C" 
			},
			{
				"x": 0.3538474106,
				"y": 1.5688854642,
				"z": 0.7190795155,
				"element": "C" 
			},
			{
				"x": 1.2511232225,
				"y": 1.7918874897,
				"z": 1.7283906201,
				"element": "C" 
			},
			{
				"x": 1.7465294754,
				"y": 0.3305673043,
				"z": 2.4979239624,
				"element": "S" 
			},
			{
				"x": -1.0119350832,
				"y": -0.3168066993,
				"z": -0.7722107637,
				"element": "S" 
			},
			{
				"x": -2.7438945188,
				"y": -0.9662277582,
				"z": 0.2529089039,
				"element": "Cl" 
			},
			{
				"x": -0.4573502476,
				"y": -1.4516202998,
				"z": -1.4909447614,
				"element": "O" 
			},
			{
				"x": -1.4011757388,
				"y": 0.9067829421,
				"z": -1.4657259013,
				"element": "O" 
			},
			{
				"x": 0.6159478988,
				"y": -4.2357815543,
				"z": 3.2199817323,
				"element": "H" 
			},
			{
				"x": 2.3838356254,
				"y": -4.1051600258,
				"z": 3.5058943845,
				"element": "H" 
			},
			{
				"x": 1.7489914446,
				"y": -4.5047161962,
				"z": 1.8746584509,
				"element": "H" 
			},
			{
				"x": -0.0858652025,
				"y": 2.3349600785,
				"z": 0.0951907004,
				"element": "H" 
			},
			{
				"x": 1.6504537592,
				"y": 2.7412650688,
				"z": 2.0585258935,
				"element": "H" 
			}
		],
		 "valence_orbital": [ 
			{
				"type": "occ",
				"energy": -0.32259,
				"method": "rhf"
			},
			{
				"type": "occ",
				"energy": -0.30732,
				"method": "rhf"
			},
			{
				"type": "occ",
				"energy": -0.29604,
				"method": "rhf"
			},
			{
				"type": "occ",
				"energy": -0.29485,
				"method": "rhf"
			},
			{
				"type": "occ",
				"energy": -0.27944,
				"method": "rhf"
			},
			{
				"type": "unocc",
				"energy": -0.0982,
				"method": "rhf"
			},
			{
				"type": "unocc",
				"energy": -0.07007,
				"method": "rhf"
			},
			{
				"type": "unocc",
				"energy": -0.01003,
				"method": "rhf"
			},
			{
				"type": "unocc",
				"energy": -0.00041,
				"method": "rhf"
			},
			{
				"type": "unocc",
				"energy": 0.03836,
				"method": "rhf"
			}
		],
		"cosmo_sigma_profile": { 
			"-0.025": 0.0,
			"-0.024": 0.0,
			"-0.023": 0.0,
			"-0.022": 0.0,
			"-0.021": 0.0,
			"-0.02": 0.0,
			"-0.019": 0.0,
			"-0.018": 0.0,
			"-0.017": 0.0,
			"-0.016": 0.0,
			"-0.015": 0.0,
			"-0.014": 0.0,
			"-0.013": 0.0,
			"-0.012": 0.0,
			"-0.011": 1.84597463757,
			"-0.01": 2.42680255239,
			"-0.009": 3.43737370985,
			"-0.008": 3.36899111697,
			"-0.007": 6.85986078034,
			"-0.006": 10.6571614154,
			"-0.005": 13.9819956328,
			"-0.004": 17.0172839906,
			"-0.003": 16.3248880823,
			"-0.002": 18.9890065098,
			"-0.001": 19.980262948,
			"0.0": 19.9334727313,
			"0.001": 15.6020448331,
			"0.002": 11.6787861179,
			"0.003": 14.6843744011,
			"0.004": 7.93378785766,
			"0.005": 5.29728193595,
			"0.006": 4.97979503959,
			"0.007": 7.82299049625,
			"0.008": 11.0808574273,
			"0.009": 7.09715195283,
			"0.01": 3.74592590153,
			"0.011": 3.79388364486,
			"0.012": 0.260054101489,
			"0.013": 0.0,
			"0.014": 0.0,
			"0.015": 0.0,
			"0.016": 0.0,
			"0.017": 0.0,
			"0.018": 0.0,
			"0.019": 0.0,
			"0.02": 0.0,
			"0.021": 0.0,
			"0.022": 0.0,
			"0.023": 0.0,
			"0.024": 0.0,
			"0.025": 0.0
		}
	}
}
