{
	 "smiles": "NC1=C(SC2=NC=CC=C12)C(O)=O", 
	 "Tm": 476.15, 
	 "num_atms": 19, 
	 "gaussian": { 
		 "optdone": 1, 
		 "sigma_profile": "yes", 
		 "theory": "DFT", 
		 "functional": "B3LYP", 
		 "basiset": "6-31G**", 
		 "properties": { 
			 "R2extent": 4777.4501, 
			 "electric_dipole_moment_norm": 8.20197195191, 
			 "electric_quadrupole_moment_norm": 21.2793619822, 
			 "total_energy": -966.614363546, 
			 "HOMO_LUMO_gap": 0.1738, 
			 "cosmo_polarized_energy": -21.55, 
			 "cosmo_cavitation_energy": 25.2, 
			 "cosmo_dispersion_energy": -19.5, 
			 "cosmo_repulsion_energy": 1.48, 
			 "cosmo_total_nonelectrostatic_energy": 7.18, 
			 "SMD_solvation_energy": 3.91 
		},
		"coords": [
			{
				"x": 1.3757334705,
				"y": 0.080197355,
				"z": -0.7509840787,
				"element": "N" 
			},
			{
				"x": 0.375089902,
				"y": 0.8073220172,
				"z": -1.484717878,
				"element": "C" 
			},
			{
				"x": 0.6810507883,
				"y": 1.978381767,
				"z": -2.1313248056,
				"element": "C" 
			},
			{
				"x": -0.6839032343,
				"y": 2.6946429056,
				"z": -2.9605419102,
				"element": "S" 
			},
			{
				"x": -1.7153090672,
				"y": 1.3750089582,
				"z": -2.4243351366,
				"element": "C" 
			},
			{
				"x": -3.0072895744,
				"y": 1.3006315551,
				"z": -2.739323876,
				"element": "N" 
			},
			{
				"x": -3.6636770702,
				"y": 0.2416036058,
				"z": -2.2608078075,
				"element": "C" 
			},
			{
				"x": -3.0721731736,
				"y": -0.7603274726,
				"z": -1.4687833424,
				"element": "C" 
			},
			{
				"x": -1.7249424,
				"y": -0.6691068658,
				"z": -1.1489080202,
				"element": "C" 
			},
			{
				"x": -1.0049670339,
				"y": 0.4328434888,
				"z": -1.6366165942,
				"element": "C" 
			},
			{
				"x": 1.9948821032,
				"y": 2.686314902,
				"z": -2.2060869686,
				"element": "C" 
			},
			{
				"x": 3.0091498029,
				"y": 2.0996611289,
				"z": -1.5568679121,
				"element": "O" 
			},
			{
				"x": 2.1197399676,
				"y": 3.7249952506,
				"z": -2.8193380383,
				"element": "O" 
			},
			{
				"x": 1.5011672939,
				"y": -0.8592032763,
				"z": -1.1236211487,
				"element": "H" 
			},
			{
				"x": 1.123681773,
				"y": -0.0118325909,
				"z": 0.2313906853,
				"element": "H" 
			},
			{
				"x": -4.7190860355,
				"y": 0.1790711689,
				"z": -2.5171307597,
				"element": "H" 
			},
			{
				"x": -3.674308359,
				"y": -1.591565535,
				"z": -1.1173750013,
				"element": "H" 
			},
			{
				"x": -1.2399556351,
				"y": -1.4272011715,
				"z": -0.5391951561,
				"element": "H" 
			},
			{
				"x": 2.6761164818,
				"y": 1.2678628089,
				"z": -1.1304322508,
				"element": "H" 
			}
		],
		 "valence_orbital": [ 
			{
				"type": "occ",
				"energy": -0.30276,
				"method": "rhf"
			},
			{
				"type": "occ",
				"energy": -0.27605,
				"method": "rhf"
			},
			{
				"type": "occ",
				"energy": -0.2694,
				"method": "rhf"
			},
			{
				"type": "occ",
				"energy": -0.2618,
				"method": "rhf"
			},
			{
				"type": "occ",
				"energy": -0.24907,
				"method": "rhf"
			},
			{
				"type": "unocc",
				"energy": -0.07527,
				"method": "rhf"
			},
			{
				"type": "unocc",
				"energy": -0.03452,
				"method": "rhf"
			},
			{
				"type": "unocc",
				"energy": -0.00206,
				"method": "rhf"
			},
			{
				"type": "unocc",
				"energy": 0.01464,
				"method": "rhf"
			},
			{
				"type": "unocc",
				"energy": 0.04079,
				"method": "rhf"
			}
		],
		"cosmo_sigma_profile": { 
			"-0.025": 0.0,
			"-0.024": 0.0,
			"-0.023": 0.0,
			"-0.022": 0.0,
			"-0.021": 0.0,
			"-0.02": 0.0,
			"-0.019": 0.0,
			"-0.018": 0.0,
			"-0.017": 0.0,
			"-0.016": 0.0,
			"-0.015": 0.0,
			"-0.014": 1.20781190381,
			"-0.013": 3.11833544804,
			"-0.012": 3.89230053116,
			"-0.011": 3.23555678222,
			"-0.01": 3.84597458116,
			"-0.009": 3.88334147266,
			"-0.008": 5.08515893597,
			"-0.007": 8.63819188133,
			"-0.006": 9.06935679031,
			"-0.005": 10.1734451125,
			"-0.004": 8.07685365602,
			"-0.003": 8.97104993567,
			"-0.002": 9.94970472114,
			"-0.001": 13.4289967085,
			"0.0": 18.0495312102,
			"0.001": 18.3413136742,
			"0.002": 15.7286669724,
			"0.003": 9.96739393367,
			"0.004": 7.54342510615,
			"0.005": 4.11139679774,
			"0.006": 4.10073401656,
			"0.007": 3.65542916702,
			"0.008": 4.08563866599,
			"0.009": 3.57906214621,
			"0.01": 4.96696092814,
			"0.011": 7.32674201435,
			"0.012": 6.71427491968,
			"0.013": 2.86525299678,
			"0.014": 0.925782712635,
			"0.015": 0.279402423729,
			"0.016": 0.0,
			"0.017": 0.0,
			"0.018": 0.0,
			"0.019": 0.0,
			"0.02": 0.0,
			"0.021": 0.0,
			"0.022": 0.0,
			"0.023": 0.0,
			"0.024": 0.0,
			"0.025": 0.0
		}
	}
}
