{
	 "smiles": "CC1=C(F)C=C(C(O)=O)C(F)=C1", 
	 "Tm": 441.15, 
	 "num_atms": 18, 
	 "gaussian": { 
		 "optdone": 1, 
		 "sigma_profile": "yes", 
		 "theory": "DFT", 
		 "functional": "B3LYP", 
		 "basiset": "6-31G**", 
		 "properties": { 
			 "R2extent": 2487.2878, 
			 "electric_dipole_moment_norm": 5.32493281836, 
			 "electric_quadrupole_moment_norm": 12.2832525057, 
			 "total_energy": -658.601952225, 
			 "HOMO_LUMO_gap": 0.19986, 
			 "cosmo_polarized_energy": -10.81, 
			 "cosmo_cavitation_energy": 23.39, 
			 "cosmo_dispersion_energy": -17.2, 
			 "cosmo_repulsion_energy": 1.31, 
			 "cosmo_total_nonelectrostatic_energy": 7.51, 
			 "SMD_solvation_energy": 6.16 
		},
		"coords": [
			{
				"x": -2.7781729853,
				"y": -0.3917767605,
				"z": 0.1220075582,
				"element": "C" 
			},
			{
				"x": -1.3866594351,
				"y": 0.1093151535,
				"z": -0.1549761718,
				"element": "C" 
			},
			{
				"x": -0.5075798886,
				"y": 0.3827243376,
				"z": 0.9015616063,
				"element": "C" 
			},
			{
				"x": -0.9535085403,
				"y": 0.1812494692,
				"z": 2.1601041906,
				"element": "F" 
			},
			{
				"x": 0.7812082332,
				"y": 0.8444361233,
				"z": 0.7122137074,
				"element": "C" 
			},
			{
				"x": 1.2668677667,
				"y": 1.061360442,
				"z": -0.5866730244,
				"element": "C" 
			},
			{
				"x": 2.6811882808,
				"y": 1.5649783559,
				"z": -0.7145434728,
				"element": "C" 
			},
			{
				"x": 3.1616281945,
				"y": 1.777173487,
				"z": -1.9558038435,
				"element": "O" 
			},
			{
				"x": 3.369196085,
				"y": 1.7743178632,
				"z": 0.2579666712,
				"element": "O" 
			},
			{
				"x": 0.3901871797,
				"y": 0.7886715644,
				"z": -1.638281308,
				"element": "C" 
			},
			{
				"x": 0.7988405244,
				"y": 0.9780865964,
				"z": -2.9309855179,
				"element": "F" 
			},
			{
				"x": -0.9041751885,
				"y": 0.3250078424,
				"z": -1.4481944601,
				"element": "C" 
			},
			{
				"x": -3.3308911416,
				"y": -0.5536444105,
				"z": -0.8057847694,
				"element": "H" 
			},
			{
				"x": -3.3354895254,
				"y": 0.322084968,
				"z": 0.7375662487,
				"element": "H" 
			},
			{
				"x": -2.750752229,
				"y": -1.3345855882,
				"z": 0.6782971628,
				"element": "H" 
			},
			{
				"x": 1.4337781598,
				"y": 1.0454287629,
				"z": 1.5537327372,
				"element": "H" 
			},
			{
				"x": 2.4906261322,
				"y": 1.5633420142,
				"z": -2.6231361685,
				"element": "H" 
			},
			{
				"x": -1.5275916225,
				"y": 0.1352297792,
				"z": -2.3154711459,
				"element": "H" 
			}
		],
		 "valence_orbital": [ 
			{
				"type": "occ",
				"energy": -0.3622,
				"method": "rhf"
			},
			{
				"type": "occ",
				"energy": -0.316,
				"method": "rhf"
			},
			{
				"type": "occ",
				"energy": -0.28032,
				"method": "rhf"
			},
			{
				"type": "occ",
				"energy": -0.2792,
				"method": "rhf"
			},
			{
				"type": "occ",
				"energy": -0.26184,
				"method": "rhf"
			},
			{
				"type": "unocc",
				"energy": -0.06198,
				"method": "rhf"
			},
			{
				"type": "unocc",
				"energy": -0.02226,
				"method": "rhf"
			},
			{
				"type": "unocc",
				"energy": 0.04576,
				"method": "rhf"
			},
			{
				"type": "unocc",
				"energy": 0.0653,
				"method": "rhf"
			},
			{
				"type": "unocc",
				"energy": 0.0922,
				"method": "rhf"
			}
		],
		"cosmo_sigma_profile": { 
			"-0.025": 0.0,
			"-0.024": 0.0,
			"-0.023": 0.0,
			"-0.022": 0.0,
			"-0.021": 0.0,
			"-0.02": 0.0,
			"-0.019": 0.0,
			"-0.018": 0.0,
			"-0.017": 0.0,
			"-0.016": 0.0,
			"-0.015": 0.0,
			"-0.014": 0.0,
			"-0.013": 0.247444186219,
			"-0.012": 0.894636337084,
			"-0.011": 0.903334819572,
			"-0.01": 1.62104523739,
			"-0.009": 2.37509712632,
			"-0.008": 4.59180077165,
			"-0.007": 4.7282592623,
			"-0.006": 6.52331753197,
			"-0.005": 9.93707784599,
			"-0.004": 12.2455101204,
			"-0.003": 13.2870023363,
			"-0.002": 15.7907674974,
			"-0.001": 22.8739943956,
			"0.0": 22.5731405061,
			"0.001": 13.0121371033,
			"0.002": 9.28647235558,
			"0.003": 8.35660540943,
			"0.004": 10.5180800836,
			"0.005": 2.3238952119,
			"0.006": 1.8949087346,
			"0.007": 2.32996377611,
			"0.008": 2.87342144635,
			"0.009": 3.61895159916,
			"0.01": 4.55967307634,
			"0.011": 5.61360282555,
			"0.012": 3.60549434702,
			"0.013": 1.25107372672,
			"0.014": 0.0,
			"0.015": 0.0,
			"0.016": 0.0,
			"0.017": 0.0,
			"0.018": 0.0,
			"0.019": 0.0,
			"0.02": 0.0,
			"0.021": 0.0,
			"0.022": 0.0,
			"0.023": 0.0,
			"0.024": 0.0,
			"0.025": 0.0
		}
	}
}
