{
	 "smiles": "CCCCC(NC(=O)C(C)NC(C)=O)C(O)=O", 
	 "Tm": 417.15, 
	 "num_atms": 37, 
	 "gaussian": { 
		 "optdone": 1, 
		 "sigma_profile": "yes", 
		 "theory": "DFT", 
		 "functional": "B3LYP", 
		 "basiset": "6-31G**", 
		 "properties": { 
			 "R2extent": 6296.4399, 
			 "electric_dipole_moment_norm": 7.67877013655, 
			 "electric_quadrupole_moment_norm": 28.3405290293, 
			 "total_energy": -841.680639868, 
			 "HOMO_LUMO_gap": 0.20935, 
			 "cosmo_polarized_energy": -23.14, 
			 "cosmo_cavitation_energy": 40.23, 
			 "cosmo_dispersion_energy": -26.0, 
			 "cosmo_repulsion_energy": 2.09, 
			 "cosmo_total_nonelectrostatic_energy": 16.32, 
			 "SMD_solvation_energy": 8.41 
		},
		"coords": [
			{
				"x": 2.879390403,
				"y": -3.5887178893,
				"z": -0.6806861768,
				"element": "C" 
			},
			{
				"x": 1.8640830256,
				"y": -2.4740177028,
				"z": -0.9533042912,
				"element": "C" 
			},
			{
				"x": 0.6671739746,
				"y": -2.9568341144,
				"z": -1.7857240944,
				"element": "C" 
			},
			{
				"x": -0.3145151533,
				"y": -1.8546337214,
				"z": -2.2149963198,
				"element": "C" 
			},
			{
				"x": -0.9646000883,
				"y": -1.0814515219,
				"z": -1.0535474898,
				"element": "C" 
			},
			{
				"x": -1.9019869306,
				"y": -0.0948874301,
				"z": -1.5822644458,
				"element": "N" 
			},
			{
				"x": -2.4114963632,
				"y": 1.0121538064,
				"z": -0.9500407663,
				"element": "C" 
			},
			{
				"x": -3.323193495,
				"y": 1.6592491836,
				"z": -1.4484199114,
				"element": "O" 
			},
			{
				"x": -1.752636071,
				"y": 1.4664759262,
				"z": 0.3670913205,
				"element": "C" 
			},
			{
				"x": -0.5760387434,
				"y": 2.4111418416,
				"z": 0.0383235968,
				"element": "C" 
			},
			{
				"x": -2.7777352822,
				"y": 2.1196324781,
				"z": 1.157905393,
				"element": "N" 
			},
			{
				"x": -3.0098612553,
				"y": 2.0135471214,
				"z": 2.5073135791,
				"element": "C" 
			},
			{
				"x": -2.0250577775,
				"y": 1.1803568117,
				"z": 3.3169781328,
				"element": "C" 
			},
			{
				"x": -3.9682583175,
				"y": 2.5709401583,
				"z": 3.0259042565,
				"element": "O" 
			},
			{
				"x": -1.6643334132,
				"y": -2.0085455455,
				"z": -0.0531375087,
				"element": "C" 
			},
			{
				"x": -2.598210188,
				"y": -2.7830981032,
				"z": -0.6435748544,
				"element": "O" 
			},
			{
				"x": -1.4362010482,
				"y": -2.0335212672,
				"z": 1.1376026875,
				"element": "O" 
			},
			{
				"x": 2.4174986959,
				"y": -4.4192349954,
				"z": -0.1352105052,
				"element": "H" 
			},
			{
				"x": 3.7188906304,
				"y": -3.2241652096,
				"z": -0.0806667469,
				"element": "H" 
			},
			{
				"x": 3.2866266542,
				"y": -3.9914563609,
				"z": -1.6149325035,
				"element": "H" 
			},
			{
				"x": 2.3600663556,
				"y": -1.6454316926,
				"z": -1.4776254554,
				"element": "H" 
			},
			{
				"x": 1.5127746247,
				"y": -2.0701368709,
				"z": 0.0045449315,
				"element": "H" 
			},
			{
				"x": 1.0375370085,
				"y": -3.4440039058,
				"z": -2.6965882694,
				"element": "H" 
			},
			{
				"x": 0.1275071261,
				"y": -3.7365029301,
				"z": -1.231209596,
				"element": "H" 
			},
			{
				"x": -1.1120504687,
				"y": -2.2999142878,
				"z": -2.8219913076,
				"element": "H" 
			},
			{
				"x": 0.1979423722,
				"y": -1.1185448923,
				"z": -2.8459644665,
				"element": "H" 
			},
			{
				"x": -0.1903141311,
				"y": -0.5646534146,
				"z": -0.4847228328,
				"element": "H" 
			},
			{
				"x": -2.4241296182,
				"y": -0.3520585811,
				"z": -2.4121203362,
				"element": "H" 
			},
			{
				"x": -1.3809224899,
				"y": 0.6039469777,
				"z": 0.9222755318,
				"element": "H" 
			},
			{
				"x": -0.1183300399,
				"y": 2.7726247932,
				"z": 0.9631392741,
				"element": "H" 
			},
			{
				"x": -0.9399353453,
				"y": 3.2731481657,
				"z": -0.5277946751,
				"element": "H" 
			},
			{
				"x": 0.1932675323,
				"y": 1.9073638957,
				"z": -0.5573213883,
				"element": "H" 
			},
			{
				"x": -3.4861834456,
				"y": 2.6157173656,
				"z": 0.6284996665,
				"element": "H" 
			},
			{
				"x": -2.0488370959,
				"y": 0.1263392871,
				"z": 3.0183253158,
				"element": "H" 
			},
			{
				"x": -0.9954554924,
				"y": 1.5345050448,
				"z": 3.1977455768,
				"element": "H" 
			},
			{
				"x": -2.3108531186,
				"y": 1.259336475,
				"z": 4.365497156,
				"element": "H" 
			},
			{
				"x": -3.0228230308,
				"y": -3.3006688953,
				"z": 0.0618975228,
				"element": "H" 
			}
		],
		 "valence_orbital": [ 
			{
				"type": "occ",
				"energy": -0.31007,
				"method": "rhf"
			},
			{
				"type": "occ",
				"energy": -0.26961,
				"method": "rhf"
			},
			{
				"type": "occ",
				"energy": -0.26789,
				"method": "rhf"
			},
			{
				"type": "occ",
				"energy": -0.23749,
				"method": "rhf"
			},
			{
				"type": "occ",
				"energy": -0.23204,
				"method": "rhf"
			},
			{
				"type": "unocc",
				"energy": -0.02269,
				"method": "rhf"
			},
			{
				"type": "unocc",
				"energy": 0.00496,
				"method": "rhf"
			},
			{
				"type": "unocc",
				"energy": 0.04141,
				"method": "rhf"
			},
			{
				"type": "unocc",
				"energy": 0.04814,
				"method": "rhf"
			},
			{
				"type": "unocc",
				"energy": 0.07455,
				"method": "rhf"
			}
		],
		"cosmo_sigma_profile": { 
			"-0.025": 0.0,
			"-0.024": 0.0,
			"-0.023": 0.0,
			"-0.022": 0.0,
			"-0.021": 0.0,
			"-0.02": 0.0,
			"-0.019": 0.3565335807,
			"-0.018": 1.00942678608,
			"-0.017": 0.892019992839,
			"-0.016": 0.901661601696,
			"-0.015": 0.982216973533,
			"-0.014": 0.86069963897,
			"-0.013": 1.39886788313,
			"-0.012": 1.83029299304,
			"-0.011": 1.80823592167,
			"-0.01": 1.79546080082,
			"-0.009": 1.87065768006,
			"-0.008": 2.63600765755,
			"-0.007": 5.0686168716,
			"-0.006": 8.92407873189,
			"-0.005": 14.3483213865,
			"-0.004": 20.9944140446,
			"-0.003": 30.6837271276,
			"-0.002": 38.720215379,
			"-0.001": 40.3954798544,
			"0.0": 34.292970284,
			"0.001": 21.4953073084,
			"0.002": 12.7961665363,
			"0.003": 7.1562345821,
			"0.004": 6.51439391342,
			"0.005": 5.49866075389,
			"0.006": 4.69131197871,
			"0.007": 4.04132848815,
			"0.008": 4.2255237501,
			"0.009": 3.52841286189,
			"0.01": 5.37443696762,
			"0.011": 6.41765532276,
			"0.012": 5.42742255049,
			"0.013": 6.58853525432,
			"0.014": 6.14552873626,
			"0.015": 2.97706895106,
			"0.016": 0.119822194816,
			"0.017": 0.0,
			"0.018": 0.0,
			"0.019": 0.0,
			"0.02": 0.0,
			"0.021": 0.0,
			"0.022": 0.0,
			"0.023": 0.0,
			"0.024": 0.0,
			"0.025": 0.0
		}
	}
}
