{
	 "smiles": "NC1=CC=C2C=CC=CC2=N1", 
	 "Tm": 405.15, 
	 "num_atms": 19, 
	 "gaussian": { 
		 "optdone": 1, 
		 "sigma_profile": "yes", 
		 "theory": "DFT", 
		 "functional": "B3LYP", 
		 "basiset": "6-31G**", 
		 "properties": { 
			 "R2extent": 2028.9916, 
			 "electric_dipole_moment_norm": 3.06543488269, 
			 "electric_quadrupole_moment_norm": 11.86067211, 
			 "total_energy": -457.28178378, 
			 "HOMO_LUMO_gap": 0.18164, 
			 "cosmo_polarized_energy": -13.35, 
			 "cosmo_cavitation_energy": 22.86, 
			 "cosmo_dispersion_energy": -17.28, 
			 "cosmo_repulsion_energy": 1.38, 
			 "cosmo_total_nonelectrostatic_energy": 6.95, 
			 "SMD_solvation_energy": 2.1 
		},
		"coords": [
			{
				"x": 0.9973975156,
				"y": 3.1231951465,
				"z": -0.9199390133,
				"element": "N" 
			},
			{
				"x": 0.313469242,
				"y": 1.9907810329,
				"z": -0.3541257867,
				"element": "C" 
			},
			{
				"x": 0.8110892832,
				"y": 1.3456796134,
				"z": 0.8193458455,
				"element": "C" 
			},
			{
				"x": 0.1368997244,
				"y": 0.2677535834,
				"z": 1.3358637539,
				"element": "C" 
			},
			{
				"x": -1.0437459951,
				"y": -0.1867609922,
				"z": 0.6938093775,
				"element": "C" 
			},
			{
				"x": -1.8109218892,
				"y": -1.290332907,
				"z": 1.148727145,
				"element": "C" 
			},
			{
				"x": -2.9477574934,
				"y": -1.6744523891,
				"z": 0.4726240973,
				"element": "C" 
			},
			{
				"x": -3.3631034858,
				"y": -0.9706857827,
				"z": -0.6852578507,
				"element": "C" 
			},
			{
				"x": -2.6381623614,
				"y": 0.1043693191,
				"z": -1.1498942455,
				"element": "C" 
			},
			{
				"x": -1.4614721281,
				"y": 0.5250658354,
				"z": -0.47505243,
				"element": "C" 
			},
			{
				"x": -0.7765469833,
				"y": 1.5964029279,
				"z": -0.9741543738,
				"element": "N" 
			},
			{
				"x": 1.9546436454,
				"y": 2.8662355419,
				"z": -1.1526277556,
				"element": "H" 
			},
			{
				"x": 1.0660054964,
				"y": 3.8655837778,
				"z": -0.2266525436,
				"element": "H" 
			},
			{
				"x": 1.7177496155,
				"y": 1.7165011693,
				"z": 1.2889121384,
				"element": "H" 
			},
			{
				"x": 0.4939495051,
				"y": -0.2415498648,
				"z": 2.2279412312,
				"element": "H" 
			},
			{
				"x": -1.4870040439,
				"y": -1.826151968,
				"z": 2.0376674079,
				"element": "H" 
			},
			{
				"x": -3.5315202796,
				"y": -2.5198727641,
				"z": 0.8248755727,
				"element": "H" 
			},
			{
				"x": -4.2619746529,
				"y": -1.2859949966,
				"z": -1.2073458939,
				"element": "H" 
			},
			{
				"x": -2.9350947149,
				"y": 0.6594337167,
				"z": -2.0337166763,
				"element": "H" 
			}
		],
		 "valence_orbital": [ 
			{
				"type": "occ",
				"energy": -0.30369,
				"method": "rhf"
			},
			{
				"type": "occ",
				"energy": -0.25618,
				"method": "rhf"
			},
			{
				"type": "occ",
				"energy": -0.24611,
				"method": "rhf"
			},
			{
				"type": "occ",
				"energy": -0.24609,
				"method": "rhf"
			},
			{
				"type": "occ",
				"energy": -0.22999,
				"method": "rhf"
			},
			{
				"type": "unocc",
				"energy": -0.04835,
				"method": "rhf"
			},
			{
				"type": "unocc",
				"energy": -0.01485,
				"method": "rhf"
			},
			{
				"type": "unocc",
				"energy": 0.02373,
				"method": "rhf"
			},
			{
				"type": "unocc",
				"energy": 0.086,
				"method": "rhf"
			},
			{
				"type": "unocc",
				"energy": 0.08833,
				"method": "rhf"
			}
		],
		"cosmo_sigma_profile": { 
			"-0.025": 0.0,
			"-0.024": 0.0,
			"-0.023": 0.0,
			"-0.022": 0.0,
			"-0.021": 0.0,
			"-0.02": 0.0,
			"-0.019": 0.0,
			"-0.018": 0.0,
			"-0.017": 0.0,
			"-0.016": 0.0,
			"-0.015": 0.0,
			"-0.014": 0.0,
			"-0.013": 0.0,
			"-0.012": 0.412503056224,
			"-0.011": 2.86367041703,
			"-0.01": 2.91223505195,
			"-0.009": 2.67235141422,
			"-0.008": 3.52011236454,
			"-0.007": 7.27049729677,
			"-0.006": 15.1546466612,
			"-0.005": 12.4835588299,
			"-0.004": 13.2209193219,
			"-0.003": 11.0513543139,
			"-0.002": 8.7526127846,
			"-0.001": 8.1042412865,
			"0.0": 9.08951336777,
			"0.001": 11.7987848104,
			"0.002": 16.4286437693,
			"0.003": 17.9016277067,
			"0.004": 13.2223209375,
			"0.005": 6.03733712079,
			"0.006": 1.72730861832,
			"0.007": 1.70888029857,
			"0.008": 1.55835241757,
			"0.009": 0.996081027057,
			"0.01": 1.07743283526,
			"0.011": 1.81403696069,
			"0.012": 1.38332211937,
			"0.013": 1.01953436018,
			"0.014": 1.24039762178,
			"0.015": 1.4431832509,
			"0.016": 1.11409538424,
			"0.017": 0.727086926813,
			"0.018": 1.744195415,
			"0.019": 1.37517221815,
			"0.02": 0.899214764491,
			"0.021": 0.141609226353,
			"0.022": 0.0,
			"0.023": 0.0,
			"0.024": 0.0,
			"0.025": 0.0
		}
	}
}
