{
	 "smiles": "FC1=C(NC(=O)C2CSCN2)C=CC=C1", 
	 "Tm": 371.15, 
	 "num_atms": 26, 
	 "gaussian": { 
		 "optdone": 1, 
		 "sigma_profile": "yes", 
		 "theory": "DFT", 
		 "functional": "B3LYP", 
		 "basiset": "6-31G**", 
		 "properties": { 
			 "R2extent": 4235.7754, 
			 "electric_dipole_moment_norm": 5.06545445247, 
			 "electric_quadrupole_moment_norm": 11.4549285144, 
			 "total_energy": -1070.43811004, 
			 "HOMO_LUMO_gap": 0.17731, 
			 "cosmo_polarized_energy": -17.09, 
			 "cosmo_cavitation_energy": 30.74, 
			 "cosmo_dispersion_energy": -22.47, 
			 "cosmo_repulsion_energy": 1.7, 
			 "cosmo_total_nonelectrostatic_energy": 9.97, 
			 "SMD_solvation_energy": 3.35 
		},
		"coords": [
			{
				"x": 2.2689147441,
				"y": 0.3050927882,
				"z": -0.6621832462,
				"element": "F" 
			},
			{
				"x": 1.1004561997,
				"y": 0.9071883298,
				"z": -0.9777015262,
				"element": "C" 
			},
			{
				"x": -0.103154978,
				"y": 0.2640340151,
				"z": -0.661272646,
				"element": "C" 
			},
			{
				"x": -0.1378387938,
				"y": -1.0235778506,
				"z": -0.0715459671,
				"element": "N" 
			},
			{
				"x": 0.361192281,
				"y": -1.487153995,
				"z": 1.1365929037,
				"element": "C" 
			},
			{
				"x": 0.2172895586,
				"y": -2.6613060249,
				"z": 1.4324173516,
				"element": "O" 
			},
			{
				"x": 1.0232134977,
				"y": -0.4575571363,
				"z": 2.067601435,
				"element": "C" 
			},
			{
				"x": -0.0498090179,
				"y": 0.4894853276,
				"z": 2.7090703238,
				"element": "C" 
			},
			{
				"x": -0.5013973025,
				"y": -0.2494719676,
				"z": 4.3329173991,
				"element": "S" 
			},
			{
				"x": 0.8379640455,
				"y": -1.5761124058,
				"z": 4.1482139284,
				"element": "C" 
			},
			{
				"x": 1.7586681302,
				"y": -1.1329430721,
				"z": 3.1299912822,
				"element": "N" 
			},
			{
				"x": -1.2943359085,
				"y": 0.9055211198,
				"z": -1.0313880188,
				"element": "C" 
			},
			{
				"x": -1.2767965763,
				"y": 2.1411808111,
				"z": -1.6763843676,
				"element": "C" 
			},
			{
				"x": -0.0601490173,
				"y": 2.768919801,
				"z": -1.9522283034,
				"element": "C" 
			},
			{
				"x": 1.1381495949,
				"y": 2.150393378,
				"z": -1.5952673341,
				"element": "C" 
			},
			{
				"x": -0.673760122,
				"y": -1.7358845763,
				"z": -0.5529366515,
				"element": "H" 
			},
			{
				"x": 1.7331885148,
				"y": 0.1294432897,
				"z": 1.4832094722,
				"element": "H" 
			},
			{
				"x": 0.375162022,
				"y": 1.4842631765,
				"z": 2.8664983936,
				"element": "H" 
			},
			{
				"x": -0.9400147733,
				"y": 0.5932921797,
				"z": 2.0857854936,
				"element": "H" 
			},
			{
				"x": 1.3437771619,
				"y": -1.7103668708,
				"z": 5.1053888033,
				"element": "H" 
			},
			{
				"x": 0.3524907814,
				"y": -2.4986241174,
				"z": 3.8374310144,
				"element": "H" 
			},
			{
				"x": 2.4125769132,
				"y": -0.4661029644,
				"z": 3.5312789221,
				"element": "H" 
			},
			{
				"x": -2.2362227909,
				"y": 0.4163346688,
				"z": -0.8004785224,
				"element": "H" 
			},
			{
				"x": -2.2123463593,
				"y": 2.6158946089,
				"z": -1.9541633601,
				"element": "H" 
			},
			{
				"x": -0.0400418632,
				"y": 3.7359813492,
				"z": -2.4444811034,
				"element": "H" 
			},
			{
				"x": 2.102224058,
				"y": 2.6005761378,
				"z": -1.8060656763,
				"element": "H" 
			}
		],
		 "valence_orbital": [ 
			{
				"type": "occ",
				"energy": -0.26975,
				"method": "rhf"
			},
			{
				"type": "occ",
				"energy": -0.26044,
				"method": "rhf"
			},
			{
				"type": "occ",
				"energy": -0.24623,
				"method": "rhf"
			},
			{
				"type": "occ",
				"energy": -0.23781,
				"method": "rhf"
			},
			{
				"type": "occ",
				"energy": -0.211,
				"method": "rhf"
			},
			{
				"type": "unocc",
				"energy": -0.03369,
				"method": "rhf"
			},
			{
				"type": "unocc",
				"energy": -0.01944,
				"method": "rhf"
			},
			{
				"type": "unocc",
				"energy": 0.01323,
				"method": "rhf"
			},
			{
				"type": "unocc",
				"energy": 0.0379,
				"method": "rhf"
			},
			{
				"type": "unocc",
				"energy": 0.06586,
				"method": "rhf"
			}
		],
		"cosmo_sigma_profile": { 
			"-0.025": 0.0,
			"-0.024": 0.0,
			"-0.023": 0.0,
			"-0.022": 0.0,
			"-0.021": 0.0,
			"-0.02": 0.0,
			"-0.019": 0.0,
			"-0.018": 0.0,
			"-0.017": 0.0,
			"-0.016": 0.0,
			"-0.015": 0.126979977703,
			"-0.014": 1.19122860497,
			"-0.013": 1.40497047578,
			"-0.012": 2.43660310771,
			"-0.011": 2.83977488038,
			"-0.01": 2.33522348884,
			"-0.009": 2.43018247426,
			"-0.008": 3.8413648413,
			"-0.007": 9.75751382291,
			"-0.006": 15.6624938487,
			"-0.005": 16.4713130464,
			"-0.004": 17.1719192434,
			"-0.003": 15.9208968615,
			"-0.002": 14.8654434302,
			"-0.001": 16.5143212002,
			"0.0": 15.9146597145,
			"0.001": 13.6398467388,
			"0.002": 14.2177134321,
			"0.003": 18.6957407954,
			"0.004": 16.0981939442,
			"0.005": 5.15514364268,
			"0.006": 5.73729340198,
			"0.007": 5.14710261155,
			"0.008": 3.16604449539,
			"0.009": 4.94030426838,
			"0.01": 4.20248415277,
			"0.011": 4.4222945868,
			"0.012": 4.3031728823,
			"0.013": 4.51555390773,
			"0.014": 1.51519103546,
			"0.015": 1.1426896364,
			"0.016": 0.610172052161,
			"0.017": 0.0482804900519,
			"0.018": 0.0,
			"0.019": 0.0,
			"0.02": 0.0,
			"0.021": 0.0,
			"0.022": 0.0,
			"0.023": 0.0,
			"0.024": 0.0,
			"0.025": 0.0
		}
	}
}
