{
	 "smiles": "OC(=O)C1=CC=C(CC2=CC=C(C=C2)C(O)=O)C=C1", 
	 "Tm": 621.15, 
	 "num_atms": 31, 
	 "gaussian": { 
		 "optdone": 1, 
		 "sigma_profile": "yes", 
		 "theory": "DFT", 
		 "functional": "B3LYP", 
		 "basiset": "6-31G**", 
		 "properties": { 
			 "R2extent": 8348.2985, 
			 "electric_dipole_moment_norm": 5.39907311119, 
			 "electric_quadrupole_moment_norm": 53.0600229614, 
			 "total_energy": -879.748963173, 
			 "HOMO_LUMO_gap": 0.20045, 
			 "cosmo_polarized_energy": -26.47, 
			 "cosmo_cavitation_energy": 36.7, 
			 "cosmo_dispersion_energy": -26.02, 
			 "cosmo_repulsion_energy": 1.99, 
			 "cosmo_total_nonelectrostatic_energy": 12.67, 
			 "SMD_solvation_energy": 8.25 
		},
		"coords": [
			{
				"x": -3.2317776864,
				"y": -5.4038017235,
				"z": 1.5252992929,
				"element": "O" 
			},
			{
				"x": -2.4303696151,
				"y": -4.7566695234,
				"z": 0.636196848,
				"element": "C" 
			},
			{
				"x": -1.7147792793,
				"y": -5.3902434979,
				"z": -0.1033589294,
				"element": "O" 
			},
			{
				"x": -2.4926015023,
				"y": -3.2590614419,
				"z": 0.6364448333,
				"element": "C" 
			},
			{
				"x": -2.0268509652,
				"y": -2.5855968632,
				"z": -0.5028136084,
				"element": "C" 
			},
			{
				"x": -2.0511968389,
				"y": -1.1979396191,
				"z": -0.5593013316,
				"element": "C" 
			},
			{
				"x": -2.525632643,
				"y": -0.4399987759,
				"z": 0.5239809727,
				"element": "C" 
			},
			{
				"x": -2.5646792594,
				"y": 1.0764511674,
				"z": 0.449804664,
				"element": "C" 
			},
			{
				"x": -1.222358753,
				"y": 1.7273272095,
				"z": 0.1589918699,
				"element": "C" 
			},
			{
				"x": -0.103962054,
				"y": 1.4482293088,
				"z": 0.9575526781,
				"element": "C" 
			},
			{
				"x": 1.1214997088,
				"y": 2.0579538157,
				"z": 0.7050901986,
				"element": "C" 
			},
			{
				"x": 1.260065071,
				"y": 2.9651792998,
				"z": -0.3563216389,
				"element": "C" 
			},
			{
				"x": 0.1413511523,
				"y": 3.2619728473,
				"z": -1.1435545807,
				"element": "C" 
			},
			{
				"x": -1.0797950793,
				"y": 2.6418852613,
				"z": -0.8929771015,
				"element": "C" 
			},
			{
				"x": 2.5446539059,
				"y": 3.6687417573,
				"z": -0.6755495716,
				"element": "C" 
			},
			{
				"x": 3.6880074887,
				"y": 3.1023018289,
				"z": -0.2036260499,
				"element": "O" 
			},
			{
				"x": 2.598612013,
				"y": 4.6907418123,
				"z": -1.3184185127,
				"element": "O" 
			},
			{
				"x": -2.9670175167,
				"y": -1.1154272711,
				"z": 1.6670796771,
				"element": "C" 
			},
			{
				"x": -2.9534954701,
				"y": -2.5094783549,
				"z": 1.7254791173,
				"element": "C" 
			},
			{
				"x": -3.8602251369,
				"y": -4.7842532865,
				"z": 1.9207844752,
				"element": "H" 
			},
			{
				"x": -1.6510102331,
				"y": -3.1748646591,
				"z": -1.332361886,
				"element": "H" 
			},
			{
				"x": -1.6909699881,
				"y": -0.6899354129,
				"z": -1.449712237,
				"element": "H" 
			},
			{
				"x": -3.2791480345,
				"y": 1.3817371063,
				"z": -0.3242599915,
				"element": "H" 
			},
			{
				"x": -2.9577204851,
				"y": 1.4679751004,
				"z": 1.3961902233,
				"element": "H" 
			},
			{
				"x": -0.1950944948,
				"y": 0.7486975637,
				"z": 1.7837007105,
				"element": "H" 
			},
			{
				"x": 1.956085412,
				"y": 1.8465371926,
				"z": 1.3696947061,
				"element": "H" 
			},
			{
				"x": 0.2517657086,
				"y": 3.9797531503,
				"z": -1.9492763133,
				"element": "H" 
			},
			{
				"x": -1.9372527649,
				"y": 2.8750283149,
				"z": -1.5189391185,
				"element": "H" 
			},
			{
				"x": 3.5063109151,
				"y": 2.2162550183,
				"z": 0.1386549125,
				"element": "H" 
			},
			{
				"x": -3.3216178274,
				"y": -0.547339639,
				"z": 2.5230316574,
				"element": "H" 
			},
			{
				"x": -3.2678957479,
				"y": -2.9967576864,
				"z": 2.6455940341,
				"element": "H" 
			}
		],
		 "valence_orbital": [ 
			{
				"type": "occ",
				"energy": -0.28081,
				"method": "rhf"
			},
			{
				"type": "occ",
				"energy": -0.27703,
				"method": "rhf"
			},
			{
				"type": "occ",
				"energy": -0.2768,
				"method": "rhf"
			},
			{
				"type": "occ",
				"energy": -0.27003,
				"method": "rhf"
			},
			{
				"type": "occ",
				"energy": -0.26065,
				"method": "rhf"
			},
			{
				"type": "unocc",
				"energy": -0.0602,
				"method": "rhf"
			},
			{
				"type": "unocc",
				"energy": -0.05398,
				"method": "rhf"
			},
			{
				"type": "unocc",
				"energy": -0.03292,
				"method": "rhf"
			},
			{
				"type": "unocc",
				"energy": -0.02479,
				"method": "rhf"
			},
			{
				"type": "unocc",
				"energy": 0.03793,
				"method": "rhf"
			}
		],
		"cosmo_sigma_profile": { 
			"-0.025": 0.0,
			"-0.024": 0.0,
			"-0.023": 0.0,
			"-0.022": 0.0,
			"-0.021": 0.0,
			"-0.02": 0.0,
			"-0.019": 0.173557849746,
			"-0.018": 1.56769019884,
			"-0.017": 2.00513117896,
			"-0.016": 2.4203720827,
			"-0.015": 1.14760919934,
			"-0.014": 1.63520321909,
			"-0.013": 2.53569577553,
			"-0.012": 2.88577963836,
			"-0.011": 1.6638358032,
			"-0.01": 2.0148662013,
			"-0.009": 2.51508264957,
			"-0.008": 3.54387560118,
			"-0.007": 7.24036757008,
			"-0.006": 19.078197733,
			"-0.005": 21.1218138319,
			"-0.004": 19.2806588907,
			"-0.003": 18.330673828,
			"-0.002": 18.4659083735,
			"-0.001": 15.665283377,
			"0.0": 15.8632889844,
			"0.001": 15.6237779029,
			"0.002": 20.3623403998,
			"0.003": 26.7704130809,
			"0.004": 11.5850253898,
			"0.005": 4.82170043438,
			"0.006": 4.75599361659,
			"0.007": 4.86094968496,
			"0.008": 5.29019259439,
			"0.009": 6.70116694394,
			"0.01": 8.92120271053,
			"0.011": 10.6764733643,
			"0.012": 10.2206379242,
			"0.013": 3.58886329621,
			"0.014": 0.225573890648,
			"0.015": 0.0,
			"0.016": 0.0,
			"0.017": 0.0,
			"0.018": 0.0,
			"0.019": 0.0,
			"0.02": 0.0,
			"0.021": 0.0,
			"0.022": 0.0,
			"0.023": 0.0,
			"0.024": 0.0,
			"0.025": 0.0
		}
	}
}
