{
	 "smiles": "CC1=C(SC2=C1C(O)=NC=N2)C1=CC=CC=C1", 
	 "Tm": 521.15, 
	 "num_atms": 27, 
	 "gaussian": { 
		 "optdone": 1, 
		 "sigma_profile": "yes", 
		 "theory": "DFT", 
		 "functional": "B3LYP", 
		 "basiset": "6-31G**", 
		 "properties": { 
			 "R2extent": 4903.1775, 
			 "electric_dipole_moment_norm": 2.78644591909, 
			 "electric_quadrupole_moment_norm": 12.2763829433, 
			 "total_energy": -1084.34227811, 
			 "HOMO_LUMO_gap": 0.17029, 
			 "cosmo_polarized_energy": -9.64, 
			 "cosmo_cavitation_energy": 32.42, 
			 "cosmo_dispersion_energy": -24.35, 
			 "cosmo_repulsion_energy": 1.81, 
			 "cosmo_total_nonelectrostatic_energy": 9.88, 
			 "SMD_solvation_energy": 2.35 
		},
		"coords": [
			{
				"x": -1.2511071067,
				"y": 1.4735816212,
				"z": -0.6860657316,
				"element": "C" 
			},
			{
				"x": -0.5117398283,
				"y": 0.1687943186,
				"z": -0.5479408672,
				"element": "C" 
			},
			{
				"x": 0.3082040393,
				"y": -0.1759704823,
				"z": 0.4998302522,
				"element": "C" 
			},
			{
				"x": 0.9472302034,
				"y": -1.8255447608,
				"z": 0.3641249638,
				"element": "S" 
			},
			{
				"x": 0.094939977,
				"y": -2.0684311044,
				"z": -1.1396414002,
				"element": "C" 
			},
			{
				"x": -0.6321268541,
				"y": -0.9135338057,
				"z": -1.4965961954,
				"element": "C" 
			},
			{
				"x": -1.3406644118,
				"y": -1.0499771174,
				"z": -2.709515141,
				"element": "C" 
			},
			{
				"x": -2.0807313846,
				"y": -0.0277343627,
				"z": -3.1789192883,
				"element": "O" 
			},
			{
				"x": -1.3086479836,
				"y": -2.1647047322,
				"z": -3.4297057763,
				"element": "N" 
			},
			{
				"x": -0.5677862571,
				"y": -3.1854446012,
				"z": -2.9603307499,
				"element": "C" 
			},
			{
				"x": 0.1477463997,
				"y": -3.2075947426,
				"z": -1.8410205876,
				"element": "N" 
			},
			{
				"x": 0.7062842478,
				"y": 0.6249491526,
				"z": 1.6733372481,
				"element": "C" 
			},
			{
				"x": 0.672153192,
				"y": 0.0715156778,
				"z": 2.9662051097,
				"element": "C" 
			},
			{
				"x": 1.0570427941,
				"y": 0.8243100974,
				"z": 4.0739953006,
				"element": "C" 
			},
			{
				"x": 1.483366192,
				"y": 2.1444132023,
				"z": 3.9141040065,
				"element": "C" 
			},
			{
				"x": 1.5296119022,
				"y": 2.7036590809,
				"z": 2.6358454913,
				"element": "C" 
			},
			{
				"x": 1.1514917934,
				"y": 1.950819675,
				"z": 1.5248161484,
				"element": "C" 
			},
			{
				"x": -0.8325842148,
				"y": 2.0882709674,
				"z": -1.4914665239,
				"element": "H" 
			},
			{
				"x": -2.29867367,
				"y": 1.2953922406,
				"z": -0.942840581,
				"element": "H" 
			},
			{
				"x": -1.2106684169,
				"y": 2.0500337406,
				"z": 0.239444197,
				"element": "H" 
			},
			{
				"x": -2.4695934954,
				"y": -0.3438579068,
				"z": -4.0117322588,
				"element": "H" 
			},
			{
				"x": -0.5577285091,
				"y": -4.0874001845,
				"z": -3.5676537825,
				"element": "H" 
			},
			{
				"x": 0.3264539983,
				"y": -0.9493031776,
				"z": 3.100208277,
				"element": "H" 
			},
			{
				"x": 1.0184411212,
				"y": 0.3801255984,
				"z": 5.0644308639,
				"element": "H" 
			},
			{
				"x": 1.7820666713,
				"y": 2.7306546663,
				"z": 4.7781407339,
				"element": "H" 
			},
			{
				"x": 1.8730404351,
				"y": 3.725184188,
				"z": 2.4999283328,
				"element": "H" 
			},
			{
				"x": 1.2225791657,
				"y": 2.3806927509,
				"z": 0.5310179582,
				"element": "H" 
			}
		],
		 "valence_orbital": [ 
			{
				"type": "occ",
				"energy": -0.27296,
				"method": "rhf"
			},
			{
				"type": "occ",
				"energy": -0.26383,
				"method": "rhf"
			},
			{
				"type": "occ",
				"energy": -0.25869,
				"method": "rhf"
			},
			{
				"type": "occ",
				"energy": -0.25266,
				"method": "rhf"
			},
			{
				"type": "occ",
				"energy": -0.21707,
				"method": "rhf"
			},
			{
				"type": "unocc",
				"energy": -0.04678,
				"method": "rhf"
			},
			{
				"type": "unocc",
				"energy": -0.02181,
				"method": "rhf"
			},
			{
				"type": "unocc",
				"energy": -0.01268,
				"method": "rhf"
			},
			{
				"type": "unocc",
				"energy": -0.00644,
				"method": "rhf"
			},
			{
				"type": "unocc",
				"energy": 0.0248,
				"method": "rhf"
			}
		],
		"cosmo_sigma_profile": { 
			"-0.025": 0.0,
			"-0.024": 0.0,
			"-0.023": 0.0,
			"-0.022": 0.0,
			"-0.021": 0.0,
			"-0.02": 0.0,
			"-0.019": 0.0,
			"-0.018": 0.379400178575,
			"-0.017": 0.945823441138,
			"-0.016": 0.580373071834,
			"-0.015": 0.793131855187,
			"-0.014": 0.802059357951,
			"-0.013": 0.632291889014,
			"-0.012": 0.847193883591,
			"-0.011": 0.879698828147,
			"-0.01": 0.489826198206,
			"-0.009": 0.169642928825,
			"-0.008": 1.07888976206,
			"-0.007": 3.42297162031,
			"-0.006": 9.40623999898,
			"-0.005": 13.7530952432,
			"-0.004": 16.8431656121,
			"-0.003": 18.9962849093,
			"-0.002": 20.7227905898,
			"-0.001": 26.022092268,
			"0.0": 28.1769835141,
			"0.001": 25.6720376795,
			"0.002": 23.7201316781,
			"0.003": 19.8536888381,
			"0.004": 14.9932951442,
			"0.005": 12.9049447683,
			"0.006": 5.40037731559,
			"0.007": 3.36115969011,
			"0.008": 2.25803416993,
			"0.009": 1.92222140121,
			"0.01": 1.86879545522,
			"0.011": 1.59177428346,
			"0.012": 1.78674780203,
			"0.013": 1.24940669577,
			"0.014": 0.711536132171,
			"0.015": 0.35906611407,
			"0.016": 0.0,
			"0.017": 0.0,
			"0.018": 0.0,
			"0.019": 0.0,
			"0.02": 0.0,
			"0.021": 0.0,
			"0.022": 0.0,
			"0.023": 0.0,
			"0.024": 0.0,
			"0.025": 0.0
		}
	}
}
