{
	 "smiles": "CC1=CC2=CC3=C(C=CC=C3)C=C2C=C(C)C1=O", 
	 "Tm": 455.15, 
	 "num_atms": 32, 
	 "gaussian": { 
		 "optdone": 1, 
		 "sigma_profile": "yes", 
		 "theory": "DFT", 
		 "functional": "B3LYP", 
		 "basiset": "6-31G**", 
		 "properties": { 
			 "R2extent": 6078.7717, 
			 "electric_dipole_moment_norm": 4.32269616212, 
			 "electric_quadrupole_moment_norm": 11.9779923405, 
			 "total_energy": -731.476902936, 
			 "HOMO_LUMO_gap": 0.13899, 
			 "cosmo_polarized_energy": -10.53, 
			 "cosmo_cavitation_energy": 34.87, 
			 "cosmo_dispersion_energy": -25.66, 
			 "cosmo_repulsion_energy": 1.91, 
			 "cosmo_total_nonelectrostatic_energy": 11.11, 
			 "SMD_solvation_energy": 5.85 
		},
		"coords": [
			{
				"x": -2.8567912325,
				"y": 1.9075994401,
				"z": -0.8874849659,
				"element": "C" 
			},
			{
				"x": -1.9288743424,
				"y": 0.9005559682,
				"z": -0.249838786,
				"element": "C" 
			},
			{
				"x": -0.7497521709,
				"y": 1.3307691299,
				"z": 0.2691785252,
				"element": "C" 
			},
			{
				"x": 0.3554847444,
				"y": 0.6726955138,
				"z": 0.9365728837,
				"element": "C" 
			},
			{
				"x": 1.4127257338,
				"y": 1.4944346254,
				"z": 1.3280177315,
				"element": "C" 
			},
			{
				"x": 2.5617191279,
				"y": 1.0144735311,
				"z": 1.9868638501,
				"element": "C" 
			},
			{
				"x": 2.6477196152,
				"y": -0.388333742,
				"z": 2.2685566857,
				"element": "C" 
			},
			{
				"x": 3.8023693036,
				"y": -0.8891195026,
				"z": 2.9336430561,
				"element": "C" 
			},
			{
				"x": 4.8204775927,
				"y": -0.041292725,
				"z": 3.3009271945,
				"element": "C" 
			},
			{
				"x": 4.7352268772,
				"y": 1.3490049096,
				"z": 3.0217890428,
				"element": "C" 
			},
			{
				"x": 3.6335392526,
				"y": 1.8644089513,
				"z": 2.3807840219,
				"element": "C" 
			},
			{
				"x": 1.5788420514,
				"y": -1.2161176923,
				"z": 1.8724349288,
				"element": "C" 
			},
			{
				"x": 0.4419231561,
				"y": -0.7385066772,
				"z": 1.2201098577,
				"element": "C" 
			},
			{
				"x": -0.562549176,
				"y": -1.7274558095,
				"z": 0.8839275943,
				"element": "C" 
			},
			{
				"x": -1.7715142483,
				"y": -1.6717068514,
				"z": 0.2674183842,
				"element": "C" 
			},
			{
				"x": -2.55969688,
				"y": -2.9478891393,
				"z": 0.0888707385,
				"element": "C" 
			},
			{
				"x": -2.467280485,
				"y": -0.4823440193,
				"z": -0.2846888479,
				"element": "C" 
			},
			{
				"x": -3.5732714799,
				"y": -0.6557743552,
				"z": -0.8106983623,
				"element": "O" 
			},
			{
				"x": -3.8312436529,
				"y": 1.9044122001,
				"z": -0.3885662083,
				"element": "H" 
			},
			{
				"x": -3.0563158357,
				"y": 1.6419652285,
				"z": -1.9306219289,
				"element": "H" 
			},
			{
				"x": -2.4381907511,
				"y": 2.9162526918,
				"z": -0.848803651,
				"element": "H" 
			},
			{
				"x": -0.5830618859,
				"y": 2.402729737,
				"z": 0.1703871535,
				"element": "H" 
			},
			{
				"x": 1.3500219427,
				"y": 2.5588782565,
				"z": 1.1155348653,
				"element": "H" 
			},
			{
				"x": 3.8650707867,
				"y": -1.9531560285,
				"z": 3.14599184,
				"element": "H" 
			},
			{
				"x": 5.6979092755,
				"y": -0.4316846717,
				"z": 3.8080093158,
				"element": "H" 
			},
			{
				"x": 5.5485210844,
				"y": 2.004529745,
				"z": 3.3188828932,
				"element": "H" 
			},
			{
				"x": 3.5658104688,
				"y": 2.9276497827,
				"z": 2.1660058968,
				"element": "H" 
			},
			{
				"x": 1.6465537257,
				"y": -2.2797524721,
				"z": 2.0874151434,
				"element": "H" 
			},
			{
				"x": -0.268955714,
				"y": -2.7272675846,
				"z": 1.2014591837,
				"element": "H" 
			},
			{
				"x": -2.0266165556,
				"y": -3.8072782667,
				"z": 0.5028480296,
				"element": "H" 
			},
			{
				"x": -3.5391427491,
				"y": -2.8671958323,
				"z": 0.5712275906,
				"element": "H" 
			},
			{
				"x": -2.7646575794,
				"y": -3.1296843417,
				"z": -0.9710536567,
				"element": "H" 
			}
		],
		 "valence_orbital": [ 
			{
				"type": "occ",
				"energy": -0.28634,
				"method": "rhf"
			},
			{
				"type": "occ",
				"energy": -0.27414,
				"method": "rhf"
			},
			{
				"type": "occ",
				"energy": -0.23871,
				"method": "rhf"
			},
			{
				"type": "occ",
				"energy": -0.2271,
				"method": "rhf"
			},
			{
				"type": "occ",
				"energy": -0.21482,
				"method": "rhf"
			},
			{
				"type": "unocc",
				"energy": -0.07583,
				"method": "rhf"
			},
			{
				"type": "unocc",
				"energy": -0.05339,
				"method": "rhf"
			},
			{
				"type": "unocc",
				"energy": -0.02575,
				"method": "rhf"
			},
			{
				"type": "unocc",
				"energy": 0.0236,
				"method": "rhf"
			},
			{
				"type": "unocc",
				"energy": 0.02969,
				"method": "rhf"
			}
		],
		"cosmo_sigma_profile": { 
			"-0.025": 0.0,
			"-0.024": 0.0,
			"-0.023": 0.0,
			"-0.022": 0.0,
			"-0.021": 0.0,
			"-0.02": 0.0,
			"-0.019": 0.0,
			"-0.018": 0.0,
			"-0.017": 0.0,
			"-0.016": 0.0,
			"-0.015": 0.0,
			"-0.014": 0.0,
			"-0.013": 0.0,
			"-0.012": 0.0,
			"-0.011": 0.0,
			"-0.01": 0.0,
			"-0.009": 0.0,
			"-0.008": 0.981056423198,
			"-0.007": 8.5517524075,
			"-0.006": 18.2433216817,
			"-0.005": 15.4091556414,
			"-0.004": 18.8517691825,
			"-0.003": 18.8949497504,
			"-0.002": 18.0783136311,
			"-0.001": 21.2988096818,
			"0.0": 31.7893540371,
			"0.001": 29.6070933992,
			"0.002": 33.1119366707,
			"0.003": 29.3581646264,
			"0.004": 11.4475118494,
			"0.005": 4.75099079587,
			"0.006": 1.8960870836,
			"0.007": 1.43698639336,
			"0.008": 1.48533988044,
			"0.009": 1.79305821345,
			"0.01": 1.73543964932,
			"0.011": 1.87586499062,
			"0.012": 1.76308216165,
			"0.013": 3.58984704121,
			"0.014": 2.4576454773,
			"0.015": 0.00551485091585,
			"0.016": 0.0,
			"0.017": 0.0,
			"0.018": 0.0,
			"0.019": 0.0,
			"0.02": 0.0,
			"0.021": 0.0,
			"0.022": 0.0,
			"0.023": 0.0,
			"0.024": 0.0,
			"0.025": 0.0
		}
	}
}
