{
	 "smiles": "OC1=CC=C(C=C1[N+]([O-])=O)C1=CC=CC=C1", 
	 "Tm": 340.15, 
	 "num_atms": 25, 
	 "gaussian": { 
		 "optdone": 1, 
		 "sigma_profile": "yes", 
		 "theory": "DFT", 
		 "functional": "B3LYP", 
		 "basiset": "6-31G**", 
		 "properties": { 
			 "R2extent": 4480.4447, 
			 "electric_dipole_moment_norm": 3.84708158609, 
			 "electric_quadrupole_moment_norm": 5.12744041409, 
			 "total_energy": -743.037130403, 
			 "HOMO_LUMO_gap": 0.13052, 
			 "cosmo_polarized_energy": -8.9, 
			 "cosmo_cavitation_energy": 29.81, 
			 "cosmo_dispersion_energy": -22.14, 
			 "cosmo_repulsion_energy": 1.69, 
			 "cosmo_total_nonelectrostatic_energy": 9.35, 
			 "SMD_solvation_energy": 7.29 
		},
		"coords": [
			{
				"x": 1.31642603,
				"y": 0.6520077219,
				"z": -3.9006565252,
				"element": "O" 
			},
			{
				"x": 1.1949165994,
				"y": 0.5326297019,
				"z": -2.5764899541,
				"element": "C" 
			},
			{
				"x": 2.0516732245,
				"y": 1.2861452675,
				"z": -1.7536316852,
				"element": "C" 
			},
			{
				"x": 1.9712917938,
				"y": 1.1992343779,
				"z": -0.3759696243,
				"element": "C" 
			},
			{
				"x": 1.0323156609,
				"y": 0.3601350927,
				"z": 0.2714411117,
				"element": "C" 
			},
			{
				"x": 0.1800017287,
				"y": -0.3877982383,
				"z": -0.5340248647,
				"element": "C" 
			},
			{
				"x": 0.2566871951,
				"y": -0.3107849007,
				"z": -1.931974222,
				"element": "C" 
			},
			{
				"x": -0.6637486356,
				"y": -1.1125989587,
				"z": -2.7078187255,
				"element": "N" 
			},
			{
				"x": -0.6006313058,
				"y": -1.0406890422,
				"z": -3.9587816461,
				"element": "O" 
			},
			{
				"x": -1.4688288307,
				"y": -1.8332699726,
				"z": -2.1299306338,
				"element": "O" 
			},
			{
				"x": 0.9609752987,
				"y": 0.2823529253,
				"z": 1.7520771148,
				"element": "C" 
			},
			{
				"x": 1.1603789633,
				"y": 1.4260255413,
				"z": 2.5438218383,
				"element": "C" 
			},
			{
				"x": 1.0923161019,
				"y": 1.3537445678,
				"z": 3.9344608343,
				"element": "C" 
			},
			{
				"x": 0.8206265518,
				"y": 0.137140334,
				"z": 4.562856037,
				"element": "C" 
			},
			{
				"x": 0.6192322576,
				"y": -1.0070686551,
				"z": 3.7885101821,
				"element": "C" 
			},
			{
				"x": 0.691359472,
				"y": -0.936000596,
				"z": 2.3982626218,
				"element": "C" 
			},
			{
				"x": 0.6364495148,
				"y": 0.0524142065,
				"z": -4.2934982872,
				"element": "H" 
			},
			{
				"x": 2.7811490051,
				"y": 1.9251825533,
				"z": -2.2390607216,
				"element": "H" 
			},
			{
				"x": 2.665252268,
				"y": 1.7772678212,
				"z": 0.2266474607,
				"element": "H" 
			},
			{
				"x": -0.5777133283,
				"y": -1.031761248,
				"z": -0.1057432399,
				"element": "H" 
			},
			{
				"x": 1.3428751983,
				"y": 2.3845061922,
				"z": 2.066389913,
				"element": "H" 
			},
			{
				"x": 1.2419395466,
				"y": 2.2517319241,
				"z": 4.5270432966,
				"element": "H" 
			},
			{
				"x": 0.7667514676,
				"y": 0.081038024,
				"z": 5.6460539614,
				"element": "H" 
			},
			{
				"x": 0.4155429006,
				"y": -1.960405946,
				"z": 4.2675499779,
				"element": "H" 
			},
			{
				"x": 0.5616613216,
				"y": -1.838178694,
				"z": 1.80756578,
				"element": "H" 
			}
		],
		 "valence_orbital": [ 
			{
				"type": "occ",
				"energy": -0.30526,
				"method": "rhf"
			},
			{
				"type": "occ",
				"energy": -0.28725,
				"method": "rhf"
			},
			{
				"type": "occ",
				"energy": -0.27529,
				"method": "rhf"
			},
			{
				"type": "occ",
				"energy": -0.26017,
				"method": "rhf"
			},
			{
				"type": "occ",
				"energy": -0.23,
				"method": "rhf"
			},
			{
				"type": "unocc",
				"energy": -0.09948,
				"method": "rhf"
			},
			{
				"type": "unocc",
				"energy": -0.03824,
				"method": "rhf"
			},
			{
				"type": "unocc",
				"energy": -0.01329,
				"method": "rhf"
			},
			{
				"type": "unocc",
				"energy": -0.00929,
				"method": "rhf"
			},
			{
				"type": "unocc",
				"energy": 0.02237,
				"method": "rhf"
			}
		],
		"cosmo_sigma_profile": { 
			"-0.025": 0.0,
			"-0.024": 0.0,
			"-0.023": 0.0,
			"-0.022": 0.0,
			"-0.021": 0.0,
			"-0.02": 0.0,
			"-0.019": 0.0,
			"-0.018": 0.0,
			"-0.017": 0.0,
			"-0.016": 0.0,
			"-0.015": 0.0,
			"-0.014": 0.0,
			"-0.013": 0.0,
			"-0.012": 0.0,
			"-0.011": 0.000681663754293,
			"-0.01": 0.383650695343,
			"-0.009": 0.526645416447,
			"-0.008": 1.59920743556,
			"-0.007": 9.65847858394,
			"-0.006": 16.6421829924,
			"-0.005": 17.6580168818,
			"-0.004": 20.3129261708,
			"-0.003": 15.7096274276,
			"-0.002": 14.8307309069,
			"-0.001": 16.6405427054,
			"0.0": 17.2150733576,
			"0.001": 20.7655934084,
			"0.002": 19.5887407065,
			"0.003": 11.338416177,
			"0.004": 12.09671235,
			"0.005": 14.1915264334,
			"0.006": 8.54321711463,
			"0.007": 7.54053892105,
			"0.008": 6.12040157084,
			"0.009": 5.66551398707,
			"0.01": 2.88332432969,
			"0.011": 0.0686379289862,
			"0.012": 0.0,
			"0.013": 0.0,
			"0.014": 0.0,
			"0.015": 0.0,
			"0.016": 0.0,
			"0.017": 0.0,
			"0.018": 0.0,
			"0.019": 0.0,
			"0.02": 0.0,
			"0.021": 0.0,
			"0.022": 0.0,
			"0.023": 0.0,
			"0.024": 0.0,
			"0.025": 0.0
		}
	}
}
