{
	 "smiles": "NS(=O)(=O)C1=CN=C(C=C1)C(O)=O", 
	 "Tm": 468.15, 
	 "num_atms": 19, 
	 "gaussian": { 
		 "optdone": 1, 
		 "sigma_profile": "yes", 
		 "theory": "DFT", 
		 "functional": "B3LYP", 
		 "basiset": "6-31G**", 
		 "properties": { 
			 "R2extent": 4035.4897, 
			 "electric_dipole_moment_norm": 4.6221492014, 
			 "electric_quadrupole_moment_norm": 16.2652926316, 
			 "total_energy": -1040.77791018, 
			 "HOMO_LUMO_gap": 0.18911, 
			 "cosmo_polarized_energy": -20.18, 
			 "cosmo_cavitation_energy": 25.89, 
			 "cosmo_dispersion_energy": -19.83, 
			 "cosmo_repulsion_energy": 1.52, 
			 "cosmo_total_nonelectrostatic_energy": 7.58, 
			 "SMD_solvation_energy": 4.68 
		},
		"coords": [
			{
				"x": 2.196279423,
				"y": 0.520283805,
				"z": 2.5261669853,
				"element": "N" 
			},
			{
				"x": 1.5569971011,
				"y": -1.0418254114,
				"z": 2.5324382787,
				"element": "S" 
			},
			{
				"x": 2.5112008654,
				"y": -1.9062189533,
				"z": 1.8361273321,
				"element": "O" 
			},
			{
				"x": 1.0712897303,
				"y": -1.3162935104,
				"z": 3.8857160624,
				"element": "O" 
			},
			{
				"x": 0.1133626006,
				"y": -0.8914104199,
				"z": 1.475351564,
				"element": "C" 
			},
			{
				"x": -1.1265115318,
				"y": -0.573822886,
				"z": 2.0361899277,
				"element": "C" 
			},
			{
				"x": -2.2247382223,
				"y": -0.4526837385,
				"z": 1.2869364642,
				"element": "N" 
			},
			{
				"x": -2.1172212388,
				"y": -0.6514452846,
				"z": -0.0360461224,
				"element": "C" 
			},
			{
				"x": -0.9241160503,
				"y": -0.9900528329,
				"z": -0.6750814048,
				"element": "C" 
			},
			{
				"x": 0.2233503386,
				"y": -1.1160988963,
				"z": 0.1027088677,
				"element": "C" 
			},
			{
				"x": -3.3945757436,
				"y": -0.4945528676,
				"z": -0.8295066436,
				"element": "C" 
			},
			{
				"x": -4.4601477457,
				"y": -0.1799104688,
				"z": -0.0813304073,
				"element": "O" 
			},
			{
				"x": -3.4389289474,
				"y": -0.6405483633,
				"z": -2.0293854359,
				"element": "O" 
			},
			{
				"x": 3.1385607444,
				"y": 0.5069597432,
				"z": 2.1450709017,
				"element": "H" 
			},
			{
				"x": 2.171798594,
				"y": 0.9104895703,
				"z": 3.4645130865,
				"element": "H" 
			},
			{
				"x": -1.2302575834,
				"y": -0.4313129351,
				"z": 3.107650974,
				"element": "H" 
			},
			{
				"x": -0.9234595335,
				"y": -1.1491325451,
				"z": -1.7469763715,
				"element": "H" 
			},
			{
				"x": 1.1782349255,
				"y": -1.3955058542,
				"z": -0.3296384384,
				"element": "H" 
			},
			{
				"x": -4.1460177261,
				"y": -0.1263181511,
				"z": 0.8451943795,
				"element": "H" 
			}
		],
		 "valence_orbital": [ 
			{
				"type": "occ",
				"energy": -0.32612,
				"method": "rhf"
			},
			{
				"type": "occ",
				"energy": -0.31764,
				"method": "rhf"
			},
			{
				"type": "occ",
				"energy": -0.31311,
				"method": "rhf"
			},
			{
				"type": "occ",
				"energy": -0.29533,
				"method": "rhf"
			},
			{
				"type": "occ",
				"energy": -0.28025,
				"method": "rhf"
			},
			{
				"type": "unocc",
				"energy": -0.09114,
				"method": "rhf"
			},
			{
				"type": "unocc",
				"energy": -0.06302,
				"method": "rhf"
			},
			{
				"type": "unocc",
				"energy": 0.01664,
				"method": "rhf"
			},
			{
				"type": "unocc",
				"energy": 0.03468,
				"method": "rhf"
			},
			{
				"type": "unocc",
				"energy": 0.06325,
				"method": "rhf"
			}
		],
		"cosmo_sigma_profile": { 
			"-0.025": 0.0,
			"-0.024": 0.0,
			"-0.023": 0.0,
			"-0.022": 0.0,
			"-0.021": 0.0,
			"-0.02": 0.0,
			"-0.019": 0.0,
			"-0.018": 0.0,
			"-0.017": 0.0,
			"-0.016": 0.335994964609,
			"-0.015": 2.36531998074,
			"-0.014": 2.15557453945,
			"-0.013": 3.54254987935,
			"-0.012": 3.02762129632,
			"-0.011": 2.13507456141,
			"-0.01": 2.85155750418,
			"-0.009": 5.63304166522,
			"-0.008": 7.57487866763,
			"-0.007": 8.03342004024,
			"-0.006": 10.0919954593,
			"-0.005": 10.7045153347,
			"-0.004": 9.37743352402,
			"-0.003": 14.0610534003,
			"-0.002": 16.8535419861,
			"-0.001": 12.3330548684,
			"0.0": 8.16991703984,
			"0.001": 7.07744454435,
			"0.002": 6.63533702522,
			"0.003": 6.62894077719,
			"0.004": 6.22448724376,
			"0.005": 4.94715333401,
			"0.006": 5.85304071133,
			"0.007": 6.18214941729,
			"0.008": 6.30369855679,
			"0.009": 10.9550598166,
			"0.01": 14.2882538614,
			"0.011": 10.5967751159,
			"0.012": 2.41078375935,
			"0.013": 0.473166118965,
			"0.014": 0.0,
			"0.015": 0.0,
			"0.016": 0.0,
			"0.017": 0.0,
			"0.018": 0.0,
			"0.019": 0.0,
			"0.02": 0.0,
			"0.021": 0.0,
			"0.022": 0.0,
			"0.023": 0.0,
			"0.024": 0.0,
			"0.025": 0.0
		}
	}
}
