{
	 "smiles": "OC1CC2=CC=CC=C2C1", 
	 "Tm": 343.15, 
	 "num_atms": 20, 
	 "gaussian": { 
		 "optdone": 1, 
		 "sigma_profile": "yes", 
		 "theory": "DFT", 
		 "functional": "B3LYP", 
		 "basiset": "6-31G**", 
		 "properties": { 
			 "R2extent": 1957.9906, 
			 "electric_dipole_moment_norm": 1.3758904971, 
			 "electric_quadrupole_moment_norm": 10.2972978698, 
			 "total_energy": -424.206686719, 
			 "HOMO_LUMO_gap": 0.23091, 
			 "cosmo_polarized_energy": -7.59, 
			 "cosmo_cavitation_energy": 22.48, 
			 "cosmo_dispersion_energy": -17.01, 
			 "cosmo_repulsion_energy": 1.39, 
			 "cosmo_total_nonelectrostatic_energy": 6.86, 
			 "SMD_solvation_energy": 3.28 
		},
		"coords": [
			{
				"x": 2.5991310965,
				"y": -2.9813491396,
				"z": -0.7842731651,
				"element": "O" 
			},
			{
				"x": 1.3049645015,
				"y": -2.5772281691,
				"z": -0.3673756693,
				"element": "C" 
			},
			{
				"x": 1.009648132,
				"y": -1.1563812558,
				"z": -0.8890085155,
				"element": "C" 
			},
			{
				"x": 0.0199496257,
				"y": -0.623378957,
				"z": 0.1226650214,
				"element": "C" 
			},
			{
				"x": -0.8596721003,
				"y": 0.4514909814,
				"z": 0.0168041631,
				"element": "C" 
			},
			{
				"x": -1.6838683068,
				"y": 0.7667162277,
				"z": 1.1025447894,
				"element": "C" 
			},
			{
				"x": -1.6265318851,
				"y": 0.0128343977,
				"z": 2.2781180406,
				"element": "C" 
			},
			{
				"x": -0.7434089623,
				"y": -1.0670649779,
				"z": 2.385091704,
				"element": "C" 
			},
			{
				"x": 0.0783912468,
				"y": -1.3799405193,
				"z": 1.3048030322,
				"element": "C" 
			},
			{
				"x": 1.1162388133,
				"y": -2.4721140268,
				"z": 1.1691841182,
				"element": "C" 
			},
			{
				"x": 2.728917851,
				"y": -3.8984924182,
				"z": -0.5116425321,
				"element": "H" 
			},
			{
				"x": 0.5388277375,
				"y": -3.2620035708,
				"z": -0.7660041243,
				"element": "H" 
			},
			{
				"x": 1.9456034123,
				"y": -0.5803468279,
				"z": -0.8709507895,
				"element": "H" 
			},
			{
				"x": 0.6432137514,
				"y": -1.1500476213,
				"z": -1.920191625,
				"element": "H" 
			},
			{
				"x": -0.9122436427,
				"y": 1.0365429023,
				"z": -0.897988312,
				"element": "H" 
			},
			{
				"x": -2.3778302157,
				"y": 1.5994608388,
				"z": 1.029193742,
				"element": "H" 
			},
			{
				"x": -2.2760436963,
				"y": 0.2635390508,
				"z": 3.1122045729,
				"element": "H" 
			},
			{
				"x": -0.7051835714,
				"y": -1.6543956447,
				"z": 3.2992143921,
				"element": "H" 
			},
			{
				"x": 0.8240112593,
				"y": -3.4202988831,
				"z": 1.6350592557,
				"element": "H" 
			},
			{
				"x": 2.0724849534,
				"y": -2.1646423872,
				"z": 1.6160519012,
				"element": "H" 
			}
		],
		 "valence_orbital": [ 
			{
				"type": "occ",
				"energy": -0.32656,
				"method": "rhf"
			},
			{
				"type": "occ",
				"energy": -0.31276,
				"method": "rhf"
			},
			{
				"type": "occ",
				"energy": -0.26509,
				"method": "rhf"
			},
			{
				"type": "occ",
				"energy": -0.2422,
				"method": "rhf"
			},
			{
				"type": "occ",
				"energy": -0.23041,
				"method": "rhf"
			},
			{
				"type": "unocc",
				"energy": 0.0005,
				"method": "rhf"
			},
			{
				"type": "unocc",
				"energy": 0.00731,
				"method": "rhf"
			},
			{
				"type": "unocc",
				"energy": 0.07511,
				"method": "rhf"
			},
			{
				"type": "unocc",
				"energy": 0.10207,
				"method": "rhf"
			},
			{
				"type": "unocc",
				"energy": 0.11927,
				"method": "rhf"
			}
		],
		"cosmo_sigma_profile": { 
			"-0.025": 0.0,
			"-0.024": 0.0,
			"-0.023": 0.0,
			"-0.022": 0.0,
			"-0.021": 0.0,
			"-0.02": 0.0,
			"-0.019": 0.0,
			"-0.018": 0.0,
			"-0.017": 0.0,
			"-0.016": 0.413006154723,
			"-0.015": 0.920830913565,
			"-0.014": 0.949526069166,
			"-0.013": 0.839332081742,
			"-0.012": 0.923668276282,
			"-0.011": 0.741247350163,
			"-0.01": 0.953666177322,
			"-0.009": 0.991241651149,
			"-0.008": 0.828946908057,
			"-0.007": 0.810661574288,
			"-0.006": 1.78646424837,
			"-0.005": 9.15538552352,
			"-0.004": 16.3684555319,
			"-0.003": 22.6334426892,
			"-0.002": 19.934738751,
			"-0.001": 15.4505618956,
			"0.0": 14.2506822416,
			"0.001": 9.41379911395,
			"0.002": 9.57771536693,
			"0.003": 7.83132950071,
			"0.004": 8.84942115385,
			"0.005": 8.72394463708,
			"0.006": 8.72458360754,
			"0.007": 6.14481271527,
			"0.008": 0.943159647406,
			"0.009": 0.950572285877,
			"0.01": 1.32534178646,
			"0.011": 1.50326254275,
			"0.012": 1.29501920064,
			"0.013": 1.70787229581,
			"0.014": 1.93839136645,
			"0.015": 0.200661515751,
			"0.016": 0.0,
			"0.017": 0.0,
			"0.018": 0.0,
			"0.019": 0.0,
			"0.02": 0.0,
			"0.021": 0.0,
			"0.022": 0.0,
			"0.023": 0.0,
			"0.024": 0.0,
			"0.025": 0.0
		}
	}
}
