{
	 "smiles": "OC1=CC=C(C=C1)C1=NC2=C(S1)C=CC(=C2)C(F)(F)F", 
	 "Tm": 456.15, 
	 "num_atms": 28, 
	 "gaussian": { 
		 "optdone": 1, 
		 "sigma_profile": "yes", 
		 "theory": "DFT", 
		 "functional": "B3LYP", 
		 "basiset": "6-31G**", 
		 "properties": { 
			 "R2extent": 11591.1205, 
			 "electric_dipole_moment_norm": 3.74604814838, 
			 "electric_quadrupole_moment_norm": 18.1293881524, 
			 "total_energy": -1366.01648222, 
			 "HOMO_LUMO_gap": 0.15809, 
			 "cosmo_polarized_energy": -11.71, 
			 "cosmo_cavitation_energy": 36.15, 
			 "cosmo_dispersion_energy": -26.73, 
			 "cosmo_repulsion_energy": 1.9, 
			 "cosmo_total_nonelectrostatic_energy": 11.32, 
			 "SMD_solvation_energy": 5.6 
		},
		"coords": [
			{
				"x": 4.6138846414,
				"y": -2.0726653225,
				"z": 1.6854494812,
				"element": "O" 
			},
			{
				"x": 3.5485938961,
				"y": -1.7242641471,
				"z": 0.914249177,
				"element": "C" 
			},
			{
				"x": 3.1470725939,
				"y": -2.6288689478,
				"z": -0.0771698372,
				"element": "C" 
			},
			{
				"x": 2.0659883295,
				"y": -2.322927938,
				"z": -0.8920195806,
				"element": "C" 
			},
			{
				"x": 1.3606409823,
				"y": -1.1156744938,
				"z": -0.7420784163,
				"element": "C" 
			},
			{
				"x": 1.7760353633,
				"y": -0.2179810415,
				"z": 0.2578025965,
				"element": "C" 
			},
			{
				"x": 2.8564124963,
				"y": -0.5161356678,
				"z": 1.0772764839,
				"element": "C" 
			},
			{
				"x": 0.2166693452,
				"y": -0.7624619326,
				"z": -1.5841208689,
				"element": "C" 
			},
			{
				"x": -0.4580515661,
				"y": 0.3429648849,
				"z": -1.4707195411,
				"element": "N" 
			},
			{
				"x": -1.4827596261,
				"y": 0.4171604757,
				"z": -2.3916705279,
				"element": "C" 
			},
			{
				"x": -1.6034578912,
				"y": -0.6945975688,
				"z": -3.262027996,
				"element": "C" 
			},
			{
				"x": -0.3605219814,
				"y": -1.8622473837,
				"z": -2.8790237512,
				"element": "S" 
			},
			{
				"x": -2.6007961512,
				"y": -0.7506860762,
				"z": -4.2389280969,
				"element": "C" 
			},
			{
				"x": -3.4819376707,
				"y": 0.3192111443,
				"z": -4.3423753209,
				"element": "C" 
			},
			{
				"x": -3.3698437846,
				"y": 1.4290969049,
				"z": -3.483125535,
				"element": "C" 
			},
			{
				"x": -2.3794313468,
				"y": 1.4883642557,
				"z": -2.5098450427,
				"element": "C" 
			},
			{
				"x": -4.3200838307,
				"y": 2.5806454053,
				"z": -3.668776281,
				"element": "C" 
			},
			{
				"x": -4.3294354767,
				"y": 3.4136579595,
				"z": -2.6064245714,
				"element": "F" 
			},
			{
				"x": -3.9966801709,
				"y": 3.3239798361,
				"z": -4.753652557,
				"element": "F" 
			},
			{
				"x": -5.5895809765,
				"y": 2.1524828114,
				"z": -3.8609232258,
				"element": "F" 
			},
			{
				"x": 4.7900670093,
				"y": -1.3713092096,
				"z": 2.3264852847,
				"element": "H" 
			},
			{
				"x": 3.6926821628,
				"y": -3.5592550082,
				"z": -0.190738194,
				"element": "H" 
			},
			{
				"x": 1.7698093236,
				"y": -3.0373454114,
				"z": -1.6549510737,
				"element": "H" 
			},
			{
				"x": 1.234953209,
				"y": 0.7139706385,
				"z": 0.3767918834,
				"element": "H" 
			},
			{
				"x": 3.1660638579,
				"y": 0.1882699186,
				"z": 1.8463951057,
				"element": "H" 
			},
			{
				"x": -2.6929137038,
				"y": -1.6054658778,
				"z": -4.9006366028,
				"element": "H" 
			},
			{
				"x": -4.2709045342,
				"y": 0.2985095432,
				"z": -5.0864497626,
				"element": "H" 
			},
			{
				"x": -2.2925744997,
				"y": 2.3381722487,
				"z": -1.8436932294,
				"element": "H" 
			}
		],
		 "valence_orbital": [ 
			{
				"type": "occ",
				"energy": -0.2824,
				"method": "rhf"
			},
			{
				"type": "occ",
				"energy": -0.27018,
				"method": "rhf"
			},
			{
				"type": "occ",
				"energy": -0.26775,
				"method": "rhf"
			},
			{
				"type": "occ",
				"energy": -0.24673,
				"method": "rhf"
			},
			{
				"type": "occ",
				"energy": -0.22025,
				"method": "rhf"
			},
			{
				"type": "unocc",
				"energy": -0.06216,
				"method": "rhf"
			},
			{
				"type": "unocc",
				"energy": -0.02656,
				"method": "rhf"
			},
			{
				"type": "unocc",
				"energy": -0.01639,
				"method": "rhf"
			},
			{
				"type": "unocc",
				"energy": 0.00148,
				"method": "rhf"
			},
			{
				"type": "unocc",
				"energy": 0.00489,
				"method": "rhf"
			}
		],
		"cosmo_sigma_profile": { 
			"-0.025": 0.0,
			"-0.024": 0.0,
			"-0.023": 0.0,
			"-0.022": 0.0,
			"-0.021": 0.0,
			"-0.02": 0.0,
			"-0.019": 0.0800045413095,
			"-0.018": 0.921965885839,
			"-0.017": 1.58305811121,
			"-0.016": 0.790804888966,
			"-0.015": 0.723093549236,
			"-0.014": 1.44786410854,
			"-0.013": 0.978127925766,
			"-0.012": 0.731342864907,
			"-0.011": 1.40900923538,
			"-0.01": 1.3251870465,
			"-0.009": 0.448776961235,
			"-0.008": 4.22713045198,
			"-0.007": 9.58918746487,
			"-0.006": 12.8728335559,
			"-0.005": 11.9903817415,
			"-0.004": 12.6575951692,
			"-0.003": 11.088094996,
			"-0.002": 12.6102612365,
			"-0.001": 17.7210843346,
			"0.0": 23.1174257804,
			"0.001": 31.7340222336,
			"0.002": 46.7640707517,
			"0.003": 52.8544904868,
			"0.004": 16.1516650797,
			"0.005": 4.03743614095,
			"0.006": 3.00307716529,
			"0.007": 2.20296875197,
			"0.008": 2.89080512584,
			"0.009": 2.9713266675,
			"0.01": 2.87027155742,
			"0.011": 1.98810560788,
			"0.012": 0.0362669074835,
			"0.013": 0.0,
			"0.014": 0.0,
			"0.015": 0.0,
			"0.016": 0.0,
			"0.017": 0.0,
			"0.018": 0.0,
			"0.019": 0.0,
			"0.02": 0.0,
			"0.021": 0.0,
			"0.022": 0.0,
			"0.023": 0.0,
			"0.024": 0.0,
			"0.025": 0.0
		}
	}
}
