{
	 "smiles": "NC1=CC(C(=O)NC2CCCCC2)=C(Cl)C=C1", 
	 "Tm": 433.15, 
	 "num_atms": 34, 
	 "gaussian": { 
		 "optdone": 1, 
		 "sigma_profile": "yes", 
		 "theory": "DFT", 
		 "functional": "B3LYP", 
		 "basiset": "6-31G**", 
		 "properties": { 
			 "R2extent": 6789.7114, 
			 "electric_dipole_moment_norm": 5.2018820373, 
			 "electric_quadrupole_moment_norm": 27.675208132, 
			 "total_energy": -1150.57634986, 
			 "HOMO_LUMO_gap": 0.18471, 
			 "cosmo_polarized_energy": -18.89, 
			 "cosmo_cavitation_energy": 37.77, 
			 "cosmo_dispersion_energy": -26.82, 
			 "cosmo_repulsion_energy": 2.12, 
			 "cosmo_total_nonelectrostatic_energy": 13.07, 
			 "SMD_solvation_energy": 5.34 
		},
		"coords": [
			{
				"x": -0.7913228127,
				"y": -5.0879530901,
				"z": 2.4007689027,
				"element": "N" 
			},
			{
				"x": -1.0488027727,
				"y": -3.7355024618,
				"z": 2.6254824551,
				"element": "C" 
			},
			{
				"x": -1.1041527377,
				"y": -2.8276053525,
				"z": 1.5565723664,
				"element": "C" 
			},
			{
				"x": -1.3232943437,
				"y": -1.4594965492,
				"z": 1.7582289332,
				"element": "C" 
			},
			{
				"x": -1.4424631287,
				"y": -0.5593552259,
				"z": 0.5490240791,
				"element": "C" 
			},
			{
				"x": -2.4111398863,
				"y": 0.163512883,
				"z": 0.3555218061,
				"element": "O" 
			},
			{
				"x": -0.3997873512,
				"y": -0.6711606757,
				"z": -0.3327045931,
				"element": "N" 
			},
			{
				"x": -0.3119831334,
				"y": 0.1448510758,
				"z": -1.5408724216,
				"element": "C" 
			},
			{
				"x": 0.3796018942,
				"y": 1.4975727041,
				"z": -1.2996810541,
				"element": "C" 
			},
			{
				"x": 0.2698349508,
				"y": 2.402970182,
				"z": -2.5508431337,
				"element": "C" 
			},
			{
				"x": 0.2269908868,
				"y": 1.5897731338,
				"z": -3.8675031439,
				"element": "C" 
			},
			{
				"x": 1.0201918239,
				"y": 0.2829336261,
				"z": -3.7347783796,
				"element": "C" 
			},
			{
				"x": 0.3969647745,
				"y": -0.6453955862,
				"z": -2.6649596626,
				"element": "C" 
			},
			{
				"x": -1.4754119489,
				"y": -0.987591595,
				"z": 3.0694527519,
				"element": "C" 
			},
			{
				"x": -1.6994633079,
				"y": 0.7201918111,
				"z": 3.4159995933,
				"element": "Cl" 
			},
			{
				"x": -1.405682067,
				"y": -1.8750910122,
				"z": 4.1433523917,
				"element": "C" 
			},
			{
				"x": -1.2009120946,
				"y": -3.2339509725,
				"z": 3.928287089,
				"element": "C" 
			},
			{
				"x": -1.1015547408,
				"y": -5.712135083,
				"z": 3.1326406686,
				"element": "H" 
			},
			{
				"x": -1.046711951,
				"y": -5.4285472013,
				"z": 1.4840710381,
				"element": "H" 
			},
			{
				"x": -0.9976709817,
				"y": -3.1932752653,
				"z": 0.5385980927,
				"element": "H" 
			},
			{
				"x": 0.4322834837,
				"y": -1.152064229,
				"z": -0.0202363441,
				"element": "H" 
			},
			{
				"x": -1.3498299124,
				"y": 0.3459311857,
				"z": -1.82236567,
				"element": "H" 
			},
			{
				"x": 1.4340110678,
				"y": 1.3156519878,
				"z": -1.0500612778,
				"element": "H" 
			},
			{
				"x": -0.0716836642,
				"y": 1.9855482302,
				"z": -0.4309484591,
				"element": "H" 
			},
			{
				"x": 1.1210676083,
				"y": 3.0933071985,
				"z": -2.5678965069,
				"element": "H" 
			},
			{
				"x": -0.6292368243,
				"y": 3.0250319393,
				"z": -2.4784862511,
				"element": "H" 
			},
			{
				"x": 0.6140118947,
				"y": 2.1924181756,
				"z": -4.6965411337,
				"element": "H" 
			},
			{
				"x": -0.8127460674,
				"y": 1.3495968233,
				"z": -4.12532406,
				"element": "H" 
			},
			{
				"x": 2.0552844193,
				"y": 0.5237448157,
				"z": -3.460033999,
				"element": "H" 
			},
			{
				"x": 1.07410105,
				"y": -0.2402105093,
				"z": -4.695742755,
				"element": "H" 
			},
			{
				"x": -0.321924053,
				"y": -1.3340591882,
				"z": -3.1234265934,
				"element": "H" 
			},
			{
				"x": 1.1854066417,
				"y": -1.2725477077,
				"z": -2.2267021375,
				"element": "H" 
			},
			{
				"x": -1.5135708557,
				"y": -1.4956706802,
				"z": 5.1536974321,
				"element": "H" 
			},
			{
				"x": -1.1548058606,
				"y": -3.9108233868,
				"z": 4.7774099759,
				"element": "H" 
			}
		],
		 "valence_orbital": [ 
			{
				"type": "occ",
				"energy": -0.29085,
				"method": "rhf"
			},
			{
				"type": "occ",
				"energy": -0.26298,
				"method": "rhf"
			},
			{
				"type": "occ",
				"energy": -0.24723,
				"method": "rhf"
			},
			{
				"type": "occ",
				"energy": -0.23782,
				"method": "rhf"
			},
			{
				"type": "occ",
				"energy": -0.20838,
				"method": "rhf"
			},
			{
				"type": "unocc",
				"energy": -0.02367,
				"method": "rhf"
			},
			{
				"type": "unocc",
				"energy": -0.00084,
				"method": "rhf"
			},
			{
				"type": "unocc",
				"energy": 0.03863,
				"method": "rhf"
			},
			{
				"type": "unocc",
				"energy": 0.04949,
				"method": "rhf"
			},
			{
				"type": "unocc",
				"energy": 0.07478,
				"method": "rhf"
			}
		],
		"cosmo_sigma_profile": { 
			"-0.025": 0.0,
			"-0.024": 0.0,
			"-0.023": 0.0,
			"-0.022": 0.0,
			"-0.021": 0.0,
			"-0.02": 0.0,
			"-0.019": 0.0,
			"-0.018": 0.0,
			"-0.017": 0.0,
			"-0.016": 0.0,
			"-0.015": 0.0,
			"-0.014": 0.0614224993787,
			"-0.013": 1.89573646249,
			"-0.012": 4.20761332134,
			"-0.011": 3.83090521624,
			"-0.01": 4.14647422819,
			"-0.009": 4.95868964304,
			"-0.008": 5.16091392527,
			"-0.007": 6.68522398995,
			"-0.006": 7.28528764273,
			"-0.005": 9.42383387913,
			"-0.004": 7.92497220879,
			"-0.003": 17.5205602308,
			"-0.002": 34.3261942657,
			"-0.001": 34.7090324967,
			"0.0": 31.8308926062,
			"0.001": 30.6532598735,
			"0.002": 13.8458425876,
			"0.003": 16.340072407,
			"0.004": 19.3764771454,
			"0.005": 11.8206902276,
			"0.006": 4.56110982065,
			"0.007": 2.87541156363,
			"0.008": 3.86348243249,
			"0.009": 2.32206187769,
			"0.01": 2.211701976,
			"0.011": 2.9530161506,
			"0.012": 2.67838994263,
			"0.013": 4.40672542755,
			"0.014": 4.9447254771,
			"0.015": 0.858882330697,
			"0.016": 0.0,
			"0.017": 0.0,
			"0.018": 0.0,
			"0.019": 0.0,
			"0.02": 0.0,
			"0.021": 0.0,
			"0.022": 0.0,
			"0.023": 0.0,
			"0.024": 0.0,
			"0.025": 0.0
		}
	}
}
