{
	 "smiles": "CCCNCC(=O)NC1=CC=C(Cl)C=C1", 
	 "Tm": 318.15, 
	 "num_atms": 30, 
	 "gaussian": { 
		 "optdone": 1, 
		 "sigma_profile": "yes", 
		 "theory": "DFT", 
		 "functional": "B3LYP", 
		 "basiset": "6-31G**", 
		 "properties": { 
			 "R2extent": 6810.6472, 
			 "electric_dipole_moment_norm": 1.15998953875, 
			 "electric_quadrupole_moment_norm": 19.1840642691, 
			 "total_energy": -1073.14283894, 
			 "HOMO_LUMO_gap": 0.20011, 
			 "cosmo_polarized_energy": -12.31, 
			 "cosmo_cavitation_energy": 34.74, 
			 "cosmo_dispersion_energy": -24.77, 
			 "cosmo_repulsion_energy": 1.98, 
			 "cosmo_total_nonelectrostatic_energy": 11.95, 
			 "SMD_solvation_energy": 5.42 
		},
		"coords": [
			{
				"x": 1.7294863586,
				"y": 0.1535758302,
				"z": -3.846477486,
				"element": "C" 
			},
			{
				"x": 0.8546464468,
				"y": 1.1134366769,
				"z": -3.0308813209,
				"element": "C" 
			},
			{
				"x": 1.1342933449,
				"y": 1.0983708913,
				"z": -1.5255713563,
				"element": "C" 
			},
			{
				"x": 0.8218713105,
				"y": -0.2080214166,
				"z": -0.9291703372,
				"element": "N" 
			},
			{
				"x": 0.9718696663,
				"y": -0.2529531677,
				"z": 0.5302914093,
				"element": "C" 
			},
			{
				"x": -0.1549115438,
				"y": 0.5126638651,
				"z": 1.2259285908,
				"element": "C" 
			},
			{
				"x": -0.0512950583,
				"y": 1.7071982787,
				"z": 1.4761707445,
				"element": "O" 
			},
			{
				"x": -1.2966456013,
				"y": -0.1652245896,
				"z": 1.6089805814,
				"element": "N" 
			},
			{
				"x": -1.7227608136,
				"y": -1.4963174664,
				"z": 1.4002247414,
				"element": "C" 
			},
			{
				"x": -1.4965549725,
				"y": -2.1753993246,
				"z": 0.1940874447,
				"element": "C" 
			},
			{
				"x": -1.9540200257,
				"y": -3.4826170719,
				"z": 0.031378739,
				"element": "C" 
			},
			{
				"x": -2.6651505494,
				"y": -4.1017607657,
				"z": 1.0577543373,
				"element": "C" 
			},
			{
				"x": -3.2525208937,
				"y": -5.7450181372,
				"z": 0.8426646889,
				"element": "Cl" 
			},
			{
				"x": -2.9237506636,
				"y": -3.4292873008,
				"z": 2.2520285842,
				"element": "C" 
			},
			{
				"x": -2.4452028337,
				"y": -2.1329494844,
				"z": 2.4210623047,
				"element": "C" 
			},
			{
				"x": 1.5342801076,
				"y": 0.2583739052,
				"z": -4.9183674034,
				"element": "H" 
			},
			{
				"x": 1.536217244,
				"y": -0.8940901575,
				"z": -3.5890180491,
				"element": "H" 
			},
			{
				"x": 2.7959057944,
				"y": 0.3501444428,
				"z": -3.6833628093,
				"element": "H" 
			},
			{
				"x": -0.2039919115,
				"y": 0.8782715069,
				"z": -3.193720466,
				"element": "H" 
			},
			{
				"x": 1.010451963,
				"y": 2.1377401174,
				"z": -3.3913181388,
				"element": "H" 
			},
			{
				"x": 0.5131202083,
				"y": 1.8485886692,
				"z": -1.028494195,
				"element": "H" 
			},
			{
				"x": 2.1843301124,
				"y": 1.39239575,
				"z": -1.3378682782,
				"element": "H" 
			},
			{
				"x": 1.439193548,
				"y": -0.9107978488,
				"z": -1.3268804064,
				"element": "H" 
			},
			{
				"x": 1.9018732353,
				"y": 0.2186409482,
				"z": 0.8853112356,
				"element": "H" 
			},
			{
				"x": 0.9740010656,
				"y": -1.3008174976,
				"z": 0.8440952862,
				"element": "H" 
			},
			{
				"x": -1.911755227,
				"y": 0.4288216962,
				"z": 2.1527954089,
				"element": "H" 
			},
			{
				"x": -0.9800960336,
				"y": -1.6659759071,
				"z": -0.6144150337,
				"element": "H" 
			},
			{
				"x": -1.778136297,
				"y": -4.0094456551,
				"z": -0.9002117002,
				"element": "H" 
			},
			{
				"x": -3.4818178304,
				"y": -3.917483288,
				"z": 3.0431922107,
				"element": "H" 
			},
			{
				"x": -2.6252301506,
				"y": -1.6114634988,
				"z": 3.3570906731,
				"element": "H" 
			}
		],
		 "valence_orbital": [ 
			{
				"type": "occ",
				"energy": -0.29094,
				"method": "rhf"
			},
			{
				"type": "occ",
				"energy": -0.26934,
				"method": "rhf"
			},
			{
				"type": "occ",
				"energy": -0.25915,
				"method": "rhf"
			},
			{
				"type": "occ",
				"energy": -0.23735,
				"method": "rhf"
			},
			{
				"type": "occ",
				"energy": -0.22521,
				"method": "rhf"
			},
			{
				"type": "unocc",
				"energy": -0.0251,
				"method": "rhf"
			},
			{
				"type": "unocc",
				"energy": -0.01981,
				"method": "rhf"
			},
			{
				"type": "unocc",
				"energy": 0.01905,
				"method": "rhf"
			},
			{
				"type": "unocc",
				"energy": 0.02854,
				"method": "rhf"
			},
			{
				"type": "unocc",
				"energy": 0.08188,
				"method": "rhf"
			}
		],
		"cosmo_sigma_profile": { 
			"-0.025": 0.0,
			"-0.024": 0.0,
			"-0.023": 0.0,
			"-0.022": 0.0,
			"-0.021": 0.0,
			"-0.02": 0.0,
			"-0.019": 0.0,
			"-0.018": 0.0,
			"-0.017": 0.0,
			"-0.016": 0.0,
			"-0.015": 0.0221183539658,
			"-0.014": 0.920994332425,
			"-0.013": 1.33540418957,
			"-0.012": 0.981420322987,
			"-0.011": 1.3631693508,
			"-0.01": 2.42744360825,
			"-0.009": 2.47095594217,
			"-0.008": 3.09319856238,
			"-0.007": 7.54998187774,
			"-0.006": 9.06246436698,
			"-0.005": 11.0716166976,
			"-0.004": 11.5394164782,
			"-0.003": 20.2345919046,
			"-0.002": 28.171908755,
			"-0.001": 27.3229950146,
			"0.0": 27.1876418658,
			"0.001": 28.7097489802,
			"0.002": 23.1348490407,
			"0.003": 20.6015963143,
			"0.004": 16.7577173825,
			"0.005": 9.87907147745,
			"0.006": 3.10123667879,
			"0.007": 2.10093270514,
			"0.008": 2.15468948817,
			"0.009": 2.03080171522,
			"0.01": 1.60741942391,
			"0.011": 1.56995985001,
			"0.012": 2.218169356,
			"0.013": 4.81184337764,
			"0.014": 2.51501903748,
			"0.015": 0.120986808325,
			"0.016": 0.0,
			"0.017": 0.0,
			"0.018": 0.0,
			"0.019": 0.0,
			"0.02": 0.0,
			"0.021": 0.0,
			"0.022": 0.0,
			"0.023": 0.0,
			"0.024": 0.0,
			"0.025": 0.0
		}
	}
}
