{
	 "smiles": "NC(N)=NC(=O)C1=C(N)N=C(N)C(Cl)=N1", 
	 "Tm": 513.15, 
	 "num_atms": 23, 
	 "gaussian": { 
		 "optdone": 1, 
		 "sigma_profile": "yes", 
		 "theory": "DFT", 
		 "functional": "B3LYP", 
		 "basiset": "6-31G**", 
		 "properties": { 
			 "R2extent": 4606.9587, 
			 "electric_dipole_moment_norm": 2.46408046541, 
			 "electric_quadrupole_moment_norm": 34.6860298828, 
			 "total_energy": -1152.18678727, 
			 "HOMO_LUMO_gap": 0.15298, 
			 "cosmo_polarized_energy": -24.66, 
			 "cosmo_cavitation_energy": 29.74, 
			 "cosmo_dispersion_energy": -23.01, 
			 "cosmo_repulsion_energy": 1.86, 
			 "cosmo_total_nonelectrostatic_energy": 8.59, 
			 "SMD_solvation_energy": 1.51 
		},
		"coords": [
			{
				"x": 0.6355007296,
				"y": 0.3445339968,
				"z": 3.7590831185,
				"element": "N" 
			},
			{
				"x": 0.096828738,
				"y": -0.5341049343,
				"z": 2.8534224329,
				"element": "C" 
			},
			{
				"x": -0.0768797417,
				"y": -1.8119646805,
				"z": 3.270610164,
				"element": "N" 
			},
			{
				"x": -0.193194766,
				"y": -0.0515072473,
				"z": 1.661744339,
				"element": "N" 
			},
			{
				"x": -0.6206849371,
				"y": -0.8825938983,
				"z": 0.6665383527,
				"element": "C" 
			},
			{
				"x": -0.828649408,
				"y": -2.1222422163,
				"z": 0.7825985719,
				"element": "O" 
			},
			{
				"x": -0.8537047316,
				"y": -0.228465246,
				"z": -0.6436098497,
				"element": "C" 
			},
			{
				"x": -1.3089128173,
				"y": -0.9524496593,
				"z": -1.7945110041,
				"element": "C" 
			},
			{
				"x": -1.5482003009,
				"y": -2.27950464,
				"z": -1.7649742386,
				"element": "N" 
			},
			{
				"x": -1.5140508598,
				"y": -0.330111637,
				"z": -2.9741571848,
				"element": "N" 
			},
			{
				"x": -1.2911771308,
				"y": 0.9792675443,
				"z": -3.0526273132,
				"element": "C" 
			},
			{
				"x": -1.5374943849,
				"y": 1.6032264937,
				"z": -4.2351111252,
				"element": "N" 
			},
			{
				"x": -0.8319380613,
				"y": 1.6820223491,
				"z": -1.8998908418,
				"element": "C" 
			},
			{
				"x": -0.5181633378,
				"y": 3.4297527102,
				"z": -2.0245866821,
				"element": "Cl" 
			},
			{
				"x": -0.6295666923,
				"y": 1.0923921665,
				"z": -0.7646837584,
				"element": "N" 
			},
			{
				"x": 0.5854721073,
				"y": 1.306945158,
				"z": 3.456227504,
				"element": "H" 
			},
			{
				"x": 0.4730669355,
				"y": 0.1810708463,
				"z": 4.7419945705,
				"element": "H" 
			},
			{
				"x": -0.3573396308,
				"y": -2.4460816937,
				"z": 2.522259273,
				"element": "H" 
			},
			{
				"x": 0.4262806187,
				"y": -2.1502652814,
				"z": 4.0762615772,
				"element": "H" 
			},
			{
				"x": -1.4096364596,
				"y": -2.7583891106,
				"z": -0.8817619163,
				"element": "H" 
			},
			{
				"x": -1.8861271657,
				"y": -2.7227576854,
				"z": -2.6032306957,
				"element": "H" 
			},
			{
				"x": -1.203401677,
				"y": 2.542246105,
				"z": -4.3781834255,
				"element": "H" 
			},
			{
				"x": -1.7090270264,
				"y": 1.0158805601,
				"z": -5.0359118684,
				"element": "H" 
			}
		],
		 "valence_orbital": [ 
			{
				"type": "occ",
				"energy": -0.25615,
				"method": "rhf"
			},
			{
				"type": "occ",
				"energy": -0.24761,
				"method": "rhf"
			},
			{
				"type": "occ",
				"energy": -0.24288,
				"method": "rhf"
			},
			{
				"type": "occ",
				"energy": -0.23138,
				"method": "rhf"
			},
			{
				"type": "occ",
				"energy": -0.19579,
				"method": "rhf"
			},
			{
				"type": "unocc",
				"energy": -0.04281,
				"method": "rhf"
			},
			{
				"type": "unocc",
				"energy": -0.00389,
				"method": "rhf"
			},
			{
				"type": "unocc",
				"energy": 0.03353,
				"method": "rhf"
			},
			{
				"type": "unocc",
				"energy": 0.04493,
				"method": "rhf"
			},
			{
				"type": "unocc",
				"energy": 0.06671,
				"method": "rhf"
			}
		],
		"cosmo_sigma_profile": { 
			"-0.025": 0.0,
			"-0.024": 0.0,
			"-0.023": 0.0,
			"-0.022": 0.0,
			"-0.021": 0.0,
			"-0.02": 0.0,
			"-0.019": 0.0,
			"-0.018": 0.0,
			"-0.017": 0.0,
			"-0.016": 0.0,
			"-0.015": 2.47466697232,
			"-0.014": 4.83097877327,
			"-0.013": 7.38508227145,
			"-0.012": 5.21672327683,
			"-0.011": 5.13037177156,
			"-0.01": 6.60011246828,
			"-0.009": 6.66956375655,
			"-0.008": 6.70879863394,
			"-0.007": 5.94378736608,
			"-0.006": 5.41064855978,
			"-0.005": 5.53528098025,
			"-0.004": 4.95088750238,
			"-0.003": 4.38383810217,
			"-0.002": 10.9431493004,
			"-0.001": 11.0534366352,
			"0.0": 16.6923268614,
			"0.001": 19.172448144,
			"0.002": 16.3267532685,
			"0.003": 16.2943818113,
			"0.004": 16.6341826499,
			"0.005": 16.6771739562,
			"0.006": 9.37144861237,
			"0.007": 7.65196636759,
			"0.008": 6.80875553538,
			"0.009": 4.26605466684,
			"0.01": 4.68706876846,
			"0.011": 2.61933262612,
			"0.012": 1.58360787775,
			"0.013": 1.17407698124,
			"0.014": 1.03150664881,
			"0.015": 1.18084445577,
			"0.016": 0.631290100282,
			"0.017": 0.644436346106,
			"0.018": 0.941207214836,
			"0.019": 0.820905597538,
			"0.02": 0.548289882279,
			"0.021": 0.176604219917,
			"0.022": 0.0,
			"0.023": 0.0,
			"0.024": 0.0,
			"0.025": 0.0
		}
	}
}
