{
	 "smiles": "CC1=NN(C2=C1C(=O)C1=C(O2)N=CC=C1)C1=CC=CC=C1", 
	 "Tm": 497.15, 
	 "num_atms": 32, 
	 "gaussian": { 
		 "optdone": 1, 
		 "sigma_profile": "yes", 
		 "theory": "DFT", 
		 "functional": "B3LYP", 
		 "basiset": "6-31G**", 
		 "properties": { 
			 "R2extent": 6489.6181, 
			 "electric_dipole_moment_norm": 2.13899365357, 
			 "electric_quadrupole_moment_norm": 15.7817516268, 
			 "total_energy": -931.026423165, 
			 "HOMO_LUMO_gap": 0.16122, 
			 "cosmo_polarized_energy": -11.82, 
			 "cosmo_cavitation_energy": 36.8, 
			 "cosmo_dispersion_energy": -27.06, 
			 "cosmo_repulsion_energy": 2.0, 
			 "cosmo_total_nonelectrostatic_energy": 11.73, 
			 "SMD_solvation_energy": 4.79 
		},
		"coords": [
			{
				"x": 2.4732935192,
				"y": -3.5816222449,
				"z": -0.0223006055,
				"element": "C" 
			},
			{
				"x": 1.5407661852,
				"y": -2.4267010876,
				"z": -0.1878091528,
				"element": "C" 
			},
			{
				"x": 0.75753745,
				"y": -2.3185822266,
				"z": -1.2459040501,
				"element": "N" 
			},
			{
				"x": 0.0292011725,
				"y": -1.1492326979,
				"z": -1.0900898874,
				"element": "N" 
			},
			{
				"x": 0.3819602068,
				"y": -0.5522429487,
				"z": 0.0749731413,
				"element": "C" 
			},
			{
				"x": 1.3499119401,
				"y": -1.3254513336,
				"z": 0.7006999908,
				"element": "C" 
			},
			{
				"x": 1.9129855788,
				"y": -0.9251551268,
				"z": 1.9712199474,
				"element": "C" 
			},
			{
				"x": 2.7708172104,
				"y": -1.532798808,
				"z": 2.6080708707,
				"element": "O" 
			},
			{
				"x": 1.3193899055,
				"y": 0.3611324413,
				"z": 2.4532971879,
				"element": "C" 
			},
			{
				"x": 0.337252268,
				"y": 1.0644716181,
				"z": 1.7316142023,
				"element": "C" 
			},
			{
				"x": -0.1451000595,
				"y": 0.6026489163,
				"z": 0.5164335893,
				"element": "O" 
			},
			{
				"x": -0.2223257822,
				"y": 2.2023967009,
				"z": 2.1065814908,
				"element": "N" 
			},
			{
				"x": 0.1846495294,
				"y": 2.7208419625,
				"z": 3.2693339718,
				"element": "C" 
			},
			{
				"x": 1.1530137771,
				"y": 2.1263494408,
				"z": 4.0864807553,
				"element": "C" 
			},
			{
				"x": 1.7229128977,
				"y": 0.9314576204,
				"z": 3.6661937319,
				"element": "C" 
			},
			{
				"x": -0.9104150407,
				"y": -0.7716600756,
				"z": -2.0950036027,
				"element": "C" 
			},
			{
				"x": -1.0575605336,
				"y": -1.6069625041,
				"z": -3.2103541436,
				"element": "C" 
			},
			{
				"x": -1.9664082742,
				"y": -1.2664697347,
				"z": -4.2087399739,
				"element": "C" 
			},
			{
				"x": -2.7314789644,
				"y": -0.1027253813,
				"z": -4.1097621191,
				"element": "C" 
			},
			{
				"x": -2.577372887,
				"y": 0.7216000018,
				"z": -2.9956914763,
				"element": "C" 
			},
			{
				"x": -1.6724225019,
				"y": 0.3990660224,
				"z": -1.9838624679,
				"element": "C" 
			},
			{
				"x": 3.5081238003,
				"y": -3.2349093941,
				"z": 0.0594466216,
				"element": "H" 
			},
			{
				"x": 2.3849610518,
				"y": -4.257775145,
				"z": -0.874904256,
				"element": "H" 
			},
			{
				"x": 2.2514598982,
				"y": -4.1292337379,
				"z": 0.8989299979,
				"element": "H" 
			},
			{
				"x": -0.2868434766,
				"y": 3.6568009584,
				"z": 3.5609173483,
				"element": "H" 
			},
			{
				"x": 1.4430376771,
				"y": 2.5948301921,
				"z": 5.0207255352,
				"element": "H" 
			},
			{
				"x": 2.4797351643,
				"y": 0.4082427724,
				"z": 4.2423823392,
				"element": "H" 
			},
			{
				"x": -0.4594798482,
				"y": -2.5061202644,
				"z": -3.2764263224,
				"element": "H" 
			},
			{
				"x": -2.0743607268,
				"y": -1.9193269176,
				"z": -5.0699188251,
				"element": "H" 
			},
			{
				"x": -3.4386332223,
				"y": 0.157812242,
				"z": -4.8912819954,
				"element": "H" 
			},
			{
				"x": -3.1648003754,
				"y": 1.6302954279,
				"z": -2.9033305986,
				"element": "H" 
			},
			{
				"x": -1.5684075395,
				"y": 1.0518233116,
				"z": -1.1285212449,
				"element": "H" 
			}
		],
		 "valence_orbital": [ 
			{
				"type": "occ",
				"energy": -0.2799,
				"method": "rhf"
			},
			{
				"type": "occ",
				"energy": -0.25775,
				"method": "rhf"
			},
			{
				"type": "occ",
				"energy": -0.25175,
				"method": "rhf"
			},
			{
				"type": "occ",
				"energy": -0.24716,
				"method": "rhf"
			},
			{
				"type": "occ",
				"energy": -0.22936,
				"method": "rhf"
			},
			{
				"type": "unocc",
				"energy": -0.06814,
				"method": "rhf"
			},
			{
				"type": "unocc",
				"energy": -0.03746,
				"method": "rhf"
			},
			{
				"type": "unocc",
				"energy": -0.02333,
				"method": "rhf"
			},
			{
				"type": "unocc",
				"energy": -0.00872,
				"method": "rhf"
			},
			{
				"type": "unocc",
				"energy": 0.00557,
				"method": "rhf"
			}
		],
		"cosmo_sigma_profile": { 
			"-0.025": 0.0,
			"-0.024": 0.0,
			"-0.023": 0.0,
			"-0.022": 0.0,
			"-0.021": 0.0,
			"-0.02": 0.0,
			"-0.019": 0.0,
			"-0.018": 0.0,
			"-0.017": 0.0,
			"-0.016": 0.0,
			"-0.015": 0.0,
			"-0.014": 0.0,
			"-0.013": 0.0,
			"-0.012": 0.0,
			"-0.011": 0.0,
			"-0.01": 0.0,
			"-0.009": 0.00882416107783,
			"-0.008": 3.80287192493,
			"-0.007": 7.25354313813,
			"-0.006": 15.9443831575,
			"-0.005": 20.7184248487,
			"-0.004": 24.0205585465,
			"-0.003": 24.9723725417,
			"-0.002": 25.3964197715,
			"-0.001": 32.5220922065,
			"0.0": 29.1366471068,
			"0.001": 19.6704253109,
			"0.002": 17.1854528749,
			"0.003": 15.635010155,
			"0.004": 16.8833286237,
			"0.005": 11.3542173052,
			"0.006": 4.67741619415,
			"0.007": 3.11388816693,
			"0.008": 5.12919884779,
			"0.009": 4.78391640759,
			"0.01": 3.18455278352,
			"0.011": 3.42111379938,
			"0.012": 5.15064449052,
			"0.013": 2.8832704781,
			"0.014": 0.621134101572,
			"0.015": 0.0146922605006,
			"0.016": 0.0,
			"0.017": 0.0,
			"0.018": 0.0,
			"0.019": 0.0,
			"0.02": 0.0,
			"0.021": 0.0,
			"0.022": 0.0,
			"0.023": 0.0,
			"0.024": 0.0,
			"0.025": 0.0
		}
	}
}
