{
	 "smiles": "CCCC(=O)NC1=C(C)C(N)=CC=C1", 
	 "Tm": 380.15, 
	 "num_atms": 30, 
	 "gaussian": { 
		 "optdone": 1, 
		 "sigma_profile": "yes", 
		 "theory": "DFT", 
		 "functional": "B3LYP", 
		 "basiset": "6-31G**", 
		 "properties": { 
			 "R2extent": 3689.9369, 
			 "electric_dipole_moment_norm": 4.66501970307, 
			 "electric_quadrupole_moment_norm": 10.3324993699, 
			 "total_energy": -613.574358792, 
			 "HOMO_LUMO_gap": 0.19904, 
			 "cosmo_polarized_energy": -14.58, 
			 "cosmo_cavitation_energy": 32.56, 
			 "cosmo_dispersion_energy": -23.03, 
			 "cosmo_repulsion_energy": 1.86, 
			 "cosmo_total_nonelectrostatic_energy": 11.4, 
			 "SMD_solvation_energy": 6.21 
		},
		"coords": [
			{
				"x": -1.5368266772,
				"y": -4.2255643065,
				"z": 0.1464067162,
				"element": "C" 
			},
			{
				"x": -1.5903841692,
				"y": -3.0451170908,
				"z": 1.1197944371,
				"element": "C" 
			},
			{
				"x": -0.6565111213,
				"y": -1.9017108824,
				"z": 0.7081430489,
				"element": "C" 
			},
			{
				"x": -0.6361514824,
				"y": -0.7808032719,
				"z": 1.7421710826,
				"element": "C" 
			},
			{
				"x": -0.928622242,
				"y": -0.9653149403,
				"z": 2.9172365618,
				"element": "O" 
			},
			{
				"x": -0.2901942329,
				"y": 0.4854651912,
				"z": 1.3117610661,
				"element": "N" 
			},
			{
				"x": 0.1435399227,
				"y": 0.9226799349,
				"z": 0.0250769746,
				"element": "C" 
			},
			{
				"x": -0.5768658717,
				"y": 1.9301738755,
				"z": -0.6446456736,
				"element": "C" 
			},
			{
				"x": -1.834861257,
				"y": 2.5360760788,
				"z": -0.0730276163,
				"element": "C" 
			},
			{
				"x": -0.0940036245,
				"y": 2.3841043907,
				"z": -1.8948490184,
				"element": "C" 
			},
			{
				"x": -0.7362926329,
				"y": 3.4348567028,
				"z": -2.5528111598,
				"element": "N" 
			},
			{
				"x": 1.0592135702,
				"y": 1.8106638806,
				"z": -2.4540920389,
				"element": "C" 
			},
			{
				"x": 1.7479123071,
				"y": 0.8111369227,
				"z": -1.7759450968,
				"element": "C" 
			},
			{
				"x": 1.3054238684,
				"y": 0.3719104335,
				"z": -0.5308758937,
				"element": "C" 
			},
			{
				"x": -0.5271844452,
				"y": -4.6490509639,
				"z": 0.0884911795,
				"element": "H" 
			},
			{
				"x": -1.8257039398,
				"y": -3.9254803752,
				"z": -0.867745702,
				"element": "H" 
			},
			{
				"x": -2.21393963,
				"y": -5.0266765467,
				"z": 0.4599804554,
				"element": "H" 
			},
			{
				"x": -1.3232436143,
				"y": -3.3668183879,
				"z": 2.1306796378,
				"element": "H" 
			},
			{
				"x": -2.6167171394,
				"y": -2.6642932649,
				"z": 1.1882678252,
				"element": "H" 
			},
			{
				"x": 0.3679561403,
				"y": -2.2849434576,
				"z": 0.6036870842,
				"element": "H" 
			},
			{
				"x": -0.9258963482,
				"y": -1.5043535573,
				"z": -0.276625051,
				"element": "H" 
			},
			{
				"x": -0.3517225708,
				"y": 1.1715856882,
				"z": 2.0543959526,
				"element": "H" 
			},
			{
				"x": -1.7056094698,
				"y": 3.6029563969,
				"z": 0.1497210192,
				"element": "H" 
			},
			{
				"x": -2.1452963999,
				"y": 2.0306631794,
				"z": 0.8418836789,
				"element": "H" 
			},
			{
				"x": -2.6742784683,
				"y": 2.4565085544,
				"z": -0.7782499475,
				"element": "H" 
			},
			{
				"x": -1.7210330583,
				"y": 3.5456626072,
				"z": -2.3583469641,
				"element": "H" 
			},
			{
				"x": -0.5350946353,
				"y": 3.5046188594,
				"z": -3.5406318622,
				"element": "H" 
			},
			{
				"x": 1.4150422149,
				"y": 2.1642015872,
				"z": -3.4186883953,
				"element": "H" 
			},
			{
				"x": 2.6453582155,
				"y": 0.3838969873,
				"z": -2.2137421287,
				"element": "H" 
			},
			{
				"x": 1.8602867911,
				"y": -0.3744342252,
				"z": 0.0263798283,
				"element": "H" 
			}
		],
		 "valence_orbital": [ 
			{
				"type": "occ",
				"energy": -0.31474,
				"method": "rhf"
			},
			{
				"type": "occ",
				"energy": -0.26928,
				"method": "rhf"
			},
			{
				"type": "occ",
				"energy": -0.24218,
				"method": "rhf"
			},
			{
				"type": "occ",
				"energy": -0.229,
				"method": "rhf"
			},
			{
				"type": "occ",
				"energy": -0.20686,
				"method": "rhf"
			},
			{
				"type": "unocc",
				"energy": -0.00782,
				"method": "rhf"
			},
			{
				"type": "unocc",
				"energy": 0.00981,
				"method": "rhf"
			},
			{
				"type": "unocc",
				"energy": 0.03998,
				"method": "rhf"
			},
			{
				"type": "unocc",
				"energy": 0.06911,
				"method": "rhf"
			},
			{
				"type": "unocc",
				"energy": 0.09037,
				"method": "rhf"
			}
		],
		"cosmo_sigma_profile": { 
			"-0.025": 0.0,
			"-0.024": 0.0,
			"-0.023": 0.0,
			"-0.022": 0.0,
			"-0.021": 0.0,
			"-0.02": 0.0,
			"-0.019": 0.0,
			"-0.018": 0.0,
			"-0.017": 0.0,
			"-0.016": 0.0,
			"-0.015": 0.0,
			"-0.014": 0.00924725289505,
			"-0.013": 0.987715374908,
			"-0.012": 2.70526442918,
			"-0.011": 2.9333911003,
			"-0.01": 3.97774477474,
			"-0.009": 3.72982865388,
			"-0.008": 4.20182293311,
			"-0.007": 4.70670431198,
			"-0.006": 6.46522095037,
			"-0.005": 11.2256448664,
			"-0.004": 13.3562869178,
			"-0.003": 22.1107422346,
			"-0.002": 27.2900385057,
			"-0.001": 26.1371615898,
			"0.0": 26.5035194395,
			"0.001": 23.0321376627,
			"0.002": 12.4660001316,
			"0.003": 8.85220048658,
			"0.004": 9.38816239132,
			"0.005": 8.53924330872,
			"0.006": 8.82596884271,
			"0.007": 4.70424542344,
			"0.008": 3.05034052613,
			"0.009": 1.76352370868,
			"0.01": 2.38921076819,
			"0.011": 1.9243973755,
			"0.012": 2.7369933531,
			"0.013": 3.30352611001,
			"0.014": 6.674841201,
			"0.015": 0.980573224224,
			"0.016": 0.0,
			"0.017": 0.0,
			"0.018": 0.0,
			"0.019": 0.0,
			"0.02": 0.0,
			"0.021": 0.0,
			"0.022": 0.0,
			"0.023": 0.0,
			"0.024": 0.0,
			"0.025": 0.0
		}
	}
}
