{
	 "smiles": "OC(=O)C1=CN=C(CC2=CC=C(F)C=C2)S1", 
	 "Tm": 452.15, 
	 "num_atms": 24, 
	 "gaussian": { 
		 "optdone": 1, 
		 "sigma_profile": "yes", 
		 "theory": "DFT", 
		 "functional": "B3LYP", 
		 "basiset": "6-31G**", 
		 "properties": { 
			 "R2extent": 5754.3755, 
			 "electric_dipole_moment_norm": 4.49572239468, 
			 "electric_quadrupole_moment_norm": 28.0380959, 
			 "total_energy": -1127.21155018, 
			 "HOMO_LUMO_gap": 0.17602, 
			 "cosmo_polarized_energy": -16.06, 
			 "cosmo_cavitation_energy": 31.88, 
			 "cosmo_dispersion_energy": -22.94, 
			 "cosmo_repulsion_energy": 1.72, 
			 "cosmo_total_nonelectrostatic_energy": 10.66, 
			 "SMD_solvation_energy": 5.28 
		},
		"coords": [
			{
				"x": 2.538604239,
				"y": -0.3427694278,
				"z": 4.5306554159,
				"element": "O" 
			},
			{
				"x": 1.3234521808,
				"y": -0.8859633502,
				"z": 4.262016933,
				"element": "C" 
			},
			{
				"x": 0.9547866509,
				"y": -1.873880319,
				"z": 4.8524145245,
				"element": "O" 
			},
			{
				"x": 0.4843857033,
				"y": -0.2276553918,
				"z": 3.2324963732,
				"element": "C" 
			},
			{
				"x": -0.7369421231,
				"y": -0.6966652933,
				"z": 2.8174574279,
				"element": "C" 
			},
			{
				"x": -1.3821559835,
				"y": 0.0398152961,
				"z": 1.8626794363,
				"element": "N" 
			},
			{
				"x": -0.6886957275,
				"y": 1.089435473,
				"z": 1.5140525431,
				"element": "C" 
			},
			{
				"x": -1.1120725363,
				"y": 2.068498774,
				"z": 0.4521644483,
				"element": "C" 
			},
			{
				"x": -0.5136490536,
				"y": 1.7657363222,
				"z": -0.9153650993,
				"element": "C" 
			},
			{
				"x": 0.3074637594,
				"y": 2.6966578203,
				"z": -1.5606120769,
				"element": "C" 
			},
			{
				"x": 0.8495548915,
				"y": 2.4281718659,
				"z": -2.8189928581,
				"element": "C" 
			},
			{
				"x": 0.5592069839,
				"y": 1.2110102018,
				"z": -3.4216565498,
				"element": "C" 
			},
			{
				"x": 1.0776175623,
				"y": 0.9408895969,
				"z": -4.6369099832,
				"element": "F" 
			},
			{
				"x": -0.2520014468,
				"y": 0.261289718,
				"z": -2.8077282452,
				"element": "C" 
			},
			{
				"x": -0.7850096285,
				"y": 0.5462714375,
				"z": -1.5526760327,
				"element": "C" 
			},
			{
				"x": 0.8476348311,
				"y": 1.2448635795,
				"z": 2.3622264665,
				"element": "S" 
			},
			{
				"x": 2.7271824036,
				"y": 0.418614684,
				"z": 3.9637322747,
				"element": "H" 
			},
			{
				"x": -1.1886009945,
				"y": -1.5983904013,
				"z": 3.2123612473,
				"element": "H" 
			},
			{
				"x": -2.205090934,
				"y": 2.0169371223,
				"z": 0.4085006782,
				"element": "H" 
			},
			{
				"x": -0.8446741433,
				"y": 3.0859241032,
				"z": 0.7540457426,
				"element": "H" 
			},
			{
				"x": 0.5258562495,
				"y": 3.6474706259,
				"z": -1.0813719253,
				"element": "H" 
			},
			{
				"x": 1.4855372697,
				"y": 3.1427905027,
				"z": -3.3299196064,
				"element": "H" 
			},
			{
				"x": -0.4545169284,
				"y": -0.6770221318,
				"z": -3.3126442892,
				"element": "H" 
			},
			{
				"x": -1.4150732256,
				"y": -0.186930808,
				"z": -1.0571268454,
				"element": "H" 
			}
		],
		 "valence_orbital": [ 
			{
				"type": "occ",
				"energy": -0.29722,
				"method": "rhf"
			},
			{
				"type": "occ",
				"energy": -0.28421,
				"method": "rhf"
			},
			{
				"type": "occ",
				"energy": -0.2717,
				"method": "rhf"
			},
			{
				"type": "occ",
				"energy": -0.26697,
				"method": "rhf"
			},
			{
				"type": "occ",
				"energy": -0.24938,
				"method": "rhf"
			},
			{
				"type": "unocc",
				"energy": -0.07336,
				"method": "rhf"
			},
			{
				"type": "unocc",
				"energy": -0.02724,
				"method": "rhf"
			},
			{
				"type": "unocc",
				"energy": -0.01949,
				"method": "rhf"
			},
			{
				"type": "unocc",
				"energy": -0.01238,
				"method": "rhf"
			},
			{
				"type": "unocc",
				"energy": 0.00723,
				"method": "rhf"
			}
		],
		"cosmo_sigma_profile": { 
			"-0.025": 0.0,
			"-0.024": 0.0,
			"-0.023": 0.0,
			"-0.022": 0.0,
			"-0.021": 0.0,
			"-0.02": 0.0,
			"-0.019": 0.215012335965,
			"-0.018": 0.769893461104,
			"-0.017": 0.712046769022,
			"-0.016": 1.20113408309,
			"-0.015": 0.952589162173,
			"-0.014": 0.942867898611,
			"-0.013": 0.973013978814,
			"-0.012": 1.26893245633,
			"-0.011": 0.942743759836,
			"-0.01": 0.668966150902,
			"-0.009": 1.42977160453,
			"-0.008": 4.47136166579,
			"-0.007": 11.6887588771,
			"-0.006": 12.5130155062,
			"-0.005": 15.7200279426,
			"-0.004": 13.0599197055,
			"-0.003": 14.3126496318,
			"-0.002": 15.8340773119,
			"-0.001": 16.4441860588,
			"0.0": 24.2569109364,
			"0.001": 24.5490979626,
			"0.002": 17.6078291022,
			"0.003": 16.0126009243,
			"0.004": 20.353132005,
			"0.005": 8.32532552433,
			"0.006": 3.56975910513,
			"0.007": 3.70716819212,
			"0.008": 3.16592867576,
			"0.009": 4.98943719819,
			"0.01": 5.85678649564,
			"0.011": 5.8176032424,
			"0.012": 4.32236809075,
			"0.013": 1.41781204938,
			"0.014": 0.284470931789,
			"0.015": 0.0,
			"0.016": 0.0,
			"0.017": 0.0,
			"0.018": 0.0,
			"0.019": 0.0,
			"0.02": 0.0,
			"0.021": 0.0,
			"0.022": 0.0,
			"0.023": 0.0,
			"0.024": 0.0,
			"0.025": 0.0
		}
	}
}
