{
	 "smiles": "CC(C)CN1C(=O)NC(=O)C1=O", 
	 "Tm": 419.15, 
	 "num_atms": 22, 
	 "gaussian": { 
		 "optdone": 1, 
		 "sigma_profile": "yes", 
		 "theory": "DFT", 
		 "functional": "B3LYP", 
		 "basiset": "6-31G**", 
		 "properties": { 
			 "R2extent": 2808.3271, 
			 "electric_dipole_moment_norm": 2.64660481939, 
			 "electric_quadrupole_moment_norm": 14.9279551584, 
			 "total_energy": -607.994992004, 
			 "HOMO_LUMO_gap": 0.18893, 
			 "cosmo_polarized_energy": -14.78, 
			 "cosmo_cavitation_energy": 25.89, 
			 "cosmo_dispersion_energy": -18.26, 
			 "cosmo_repulsion_energy": 1.46, 
			 "cosmo_total_nonelectrostatic_energy": 9.09, 
			 "SMD_solvation_energy": 6.78 
		},
		"coords": [
			{
				"x": -1.3391021652,
				"y": -0.9163788037,
				"z": -1.8048096168,
				"element": "C" 
			},
			{
				"x": -1.802501215,
				"y": -1.9864404511,
				"z": -0.8061934471,
				"element": "C" 
			},
			{
				"x": -0.6948706043,
				"y": -3.0114967542,
				"z": -0.5247402719,
				"element": "C" 
			},
			{
				"x": -2.388738778,
				"y": -1.3771197542,
				"z": 0.4835139756,
				"element": "C" 
			},
			{
				"x": -1.4473364803,
				"y": -0.5837115902,
				"z": 1.2830184295,
				"element": "N" 
			},
			{
				"x": -0.7166668888,
				"y": -1.1102646816,
				"z": 2.3588687126,
				"element": "C" 
			},
			{
				"x": -0.7001197212,
				"y": -2.2593261392,
				"z": 2.7332148093,
				"element": "O" 
			},
			{
				"x": -0.0157226956,
				"y": -0.038259415,
				"z": 2.9262443478,
				"element": "N" 
			},
			{
				"x": -0.2879363363,
				"y": 1.1707525506,
				"z": 2.3054338303,
				"element": "C" 
			},
			{
				"x": 0.1489944817,
				"y": 2.2626259888,
				"z": 2.5695986237,
				"element": "O" 
			},
			{
				"x": -1.2981195014,
				"y": 0.7945749804,
				"z": 1.1902687454,
				"element": "C" 
			},
			{
				"x": -1.8475173346,
				"y": 1.5452748387,
				"z": 0.4197284106,
				"element": "O" 
			},
			{
				"x": -0.4720035422,
				"y": -0.3657077739,
				"z": -1.4244470057,
				"element": "H" 
			},
			{
				"x": -2.1264786535,
				"y": -0.1863213231,
				"z": -2.0137366387,
				"element": "H" 
			},
			{
				"x": -1.042115331,
				"y": -1.3813171289,
				"z": -2.7503857001,
				"element": "H" 
			},
			{
				"x": -2.6501910287,
				"y": -2.5230208043,
				"z": -1.2571796316,
				"element": "H" 
			},
			{
				"x": -0.3890559502,
				"y": -3.5053297727,
				"z": -1.4527071598,
				"element": "H" 
			},
			{
				"x": 0.194036435,
				"y": -2.5310806345,
				"z": -0.1017756121,
				"element": "H" 
			},
			{
				"x": -1.0213278423,
				"y": -3.7801564923,
				"z": 0.1817910936,
				"element": "H" 
			},
			{
				"x": -2.7618714381,
				"y": -2.1692795626,
				"z": 1.1377942144,
				"element": "H" 
			},
			{
				"x": -3.2154195131,
				"y": -0.7049041646,
				"z": 0.2366610679,
				"element": "H" 
			},
			{
				"x": 0.5968641031,
				"y": -0.1602131126,
				"z": 3.7208388231,
				"element": "H" 
			}
		],
		 "valence_orbital": [ 
			{
				"type": "occ",
				"energy": -0.34099,
				"method": "rhf"
			},
			{
				"type": "occ",
				"energy": -0.31606,
				"method": "rhf"
			},
			{
				"type": "occ",
				"energy": -0.30236,
				"method": "rhf"
			},
			{
				"type": "occ",
				"energy": -0.2916,
				"method": "rhf"
			},
			{
				"type": "occ",
				"energy": -0.27712,
				"method": "rhf"
			},
			{
				"type": "unocc",
				"energy": -0.08819,
				"method": "rhf"
			},
			{
				"type": "unocc",
				"energy": 0.02917,
				"method": "rhf"
			},
			{
				"type": "unocc",
				"energy": 0.06494,
				"method": "rhf"
			},
			{
				"type": "unocc",
				"energy": 0.06945,
				"method": "rhf"
			},
			{
				"type": "unocc",
				"energy": 0.08136,
				"method": "rhf"
			}
		],
		"cosmo_sigma_profile": { 
			"-0.025": 0.0,
			"-0.024": 0.0,
			"-0.023": 0.0,
			"-0.022": 0.0,
			"-0.021": 0.0,
			"-0.02": 0.0,
			"-0.019": 0.0,
			"-0.018": 0.752469852559,
			"-0.017": 1.34274491764,
			"-0.016": 1.74373273503,
			"-0.015": 0.640223812454,
			"-0.014": 0.842913357328,
			"-0.013": 0.777451272666,
			"-0.012": 1.16693721555,
			"-0.011": 0.637143215356,
			"-0.01": 2.32212877488,
			"-0.009": 2.63682611968,
			"-0.008": 3.01334099652,
			"-0.007": 2.72816094709,
			"-0.006": 6.71494698886,
			"-0.005": 13.3171746421,
			"-0.004": 17.558319881,
			"-0.003": 20.6712895021,
			"-0.002": 14.8661027008,
			"-0.001": 16.1468483201,
			"0.0": 14.4585806029,
			"0.001": 16.6187018927,
			"0.002": 5.99071397663,
			"0.003": 4.33198002936,
			"0.004": 4.32770721216,
			"0.005": 4.63493800729,
			"0.006": 4.73659193893,
			"0.007": 4.42913337576,
			"0.008": 6.26350656844,
			"0.009": 8.55285720952,
			"0.01": 14.3723879758,
			"0.011": 6.97237697883,
			"0.012": 0.185317629962,
			"0.013": 0.0,
			"0.014": 0.0,
			"0.015": 0.0,
			"0.016": 0.0,
			"0.017": 0.0,
			"0.018": 0.0,
			"0.019": 0.0,
			"0.02": 0.0,
			"0.021": 0.0,
			"0.022": 0.0,
			"0.023": 0.0,
			"0.024": 0.0,
			"0.025": 0.0
		}
	}
}
