{
	 "smiles": "CC(C)(C)NC(=O)NN", 
	 "Tm": 393.15, 
	 "num_atms": 22, 
	 "gaussian": { 
		 "optdone": 1, 
		 "sigma_profile": "yes", 
		 "theory": "DFT", 
		 "functional": "B3LYP", 
		 "basiset": "6-31G**", 
		 "properties": { 
			 "R2extent": 1354.9907, 
			 "electric_dipole_moment_norm": 3.37269759836, 
			 "electric_quadrupole_moment_norm": 5.76016101337, 
			 "total_energy": -437.834575433, 
			 "HOMO_LUMO_gap": 0.25781, 
			 "cosmo_polarized_energy": -12.13, 
			 "cosmo_cavitation_energy": 23.67, 
			 "cosmo_dispersion_energy": -16.85, 
			 "cosmo_repulsion_energy": 1.37, 
			 "cosmo_total_nonelectrostatic_energy": 8.19, 
			 "SMD_solvation_energy": 4.67 
		},
		"coords": [
			{
				"x": 1.2836775254,
				"y": 0.2654271989,
				"z": 0.7568019376,
				"element": "C" 
			},
			{
				"x": 0.1054578672,
				"y": 1.115565711,
				"z": 0.2625810311,
				"element": "C" 
			},
			{
				"x": 0.4761108832,
				"y": 1.7881530681,
				"z": -1.0747757948,
				"element": "C" 
			},
			{
				"x": -0.2278814692,
				"y": 2.1840857864,
				"z": 1.316130375,
				"element": "C" 
			},
			{
				"x": -1.1466954922,
				"y": 0.2986283857,
				"z": 0.1071295402,
				"element": "N" 
			},
			{
				"x": -1.2523667534,
				"y": -0.6816028528,
				"z": -0.9109939207,
				"element": "C" 
			},
			{
				"x": -1.9264760203,
				"y": -0.5185414671,
				"z": -1.9199742283,
				"element": "O" 
			},
			{
				"x": -0.5982915139,
				"y": -1.8799775048,
				"z": -0.6749361753,
				"element": "N" 
			},
			{
				"x": -0.4508490597,
				"y": -2.4393925347,
				"z": 0.6231393094,
				"element": "N" 
			},
			{
				"x": 1.0597660286,
				"y": -0.1948683838,
				"z": 1.7236515554,
				"element": "H" 
			},
			{
				"x": 1.5447174688,
				"y": -0.5128339275,
				"z": 0.0340525068,
				"element": "H" 
			},
			{
				"x": 2.1626543529,
				"y": 0.9043675415,
				"z": 0.8869072288,
				"element": "H" 
			},
			{
				"x": 0.7068914001,
				"y": 1.0416005772,
				"z": -1.8407797892,
				"element": "H" 
			},
			{
				"x": -0.3512800756,
				"y": 2.4013384589,
				"z": -1.4466073922,
				"element": "H" 
			},
			{
				"x": 1.3518070365,
				"y": 2.4350378261,
				"z": -0.9547367468,
				"element": "H" 
			},
			{
				"x": 0.6382302544,
				"y": 2.8278938688,
				"z": 1.4969934383,
				"element": "H" 
			},
			{
				"x": -1.0529332865,
				"y": 2.823939434,
				"z": 0.9822030216,
				"element": "H" 
			},
			{
				"x": -0.5193575377,
				"y": 1.7175924132,
				"z": 2.2617929632,
				"element": "H" 
			},
			{
				"x": -1.8986859221,
				"y": 0.950958204,
				"z": -0.1039448846,
				"element": "H" 
			},
			{
				"x": -0.8735677865,
				"y": -2.5741124363,
				"z": -1.3597641235,
				"element": "H" 
			},
			{
				"x": 0.4792868425,
				"y": -2.2139238481,
				"z": 0.9638345112,
				"element": "H" 
			},
			{
				"x": -1.1081147428,
				"y": -1.9726355187,
				"z": 1.246295637,
				"element": "H" 
			}
		],
		 "valence_orbital": [ 
			{
				"type": "occ",
				"energy": -0.3411,
				"method": "rhf"
			},
			{
				"type": "occ",
				"energy": -0.29715,
				"method": "rhf"
			},
			{
				"type": "occ",
				"energy": -0.2783,
				"method": "rhf"
			},
			{
				"type": "occ",
				"energy": -0.24465,
				"method": "rhf"
			},
			{
				"type": "occ",
				"energy": -0.23485,
				"method": "rhf"
			},
			{
				"type": "unocc",
				"energy": 0.02296,
				"method": "rhf"
			},
			{
				"type": "unocc",
				"energy": 0.06234,
				"method": "rhf"
			},
			{
				"type": "unocc",
				"energy": 0.09261,
				"method": "rhf"
			},
			{
				"type": "unocc",
				"energy": 0.11725,
				"method": "rhf"
			},
			{
				"type": "unocc",
				"energy": 0.11925,
				"method": "rhf"
			}
		],
		"cosmo_sigma_profile": { 
			"-0.025": 0.0,
			"-0.024": 0.0,
			"-0.023": 0.0,
			"-0.022": 0.0,
			"-0.021": 0.0,
			"-0.02": 0.0,
			"-0.019": 0.0,
			"-0.018": 0.0,
			"-0.017": 0.0,
			"-0.016": 0.0,
			"-0.015": 0.0,
			"-0.014": 0.0,
			"-0.013": 0.333353765806,
			"-0.012": 1.114604975,
			"-0.011": 1.12212935814,
			"-0.01": 2.23667144591,
			"-0.009": 5.23900795355,
			"-0.008": 5.46380474563,
			"-0.007": 4.40063119275,
			"-0.006": 4.44272587568,
			"-0.005": 6.03763049332,
			"-0.004": 11.1276479461,
			"-0.003": 20.266879551,
			"-0.002": 18.2229468813,
			"-0.001": 18.2716539224,
			"0.0": 21.3774280913,
			"0.001": 17.0350698069,
			"0.002": 4.68781909865,
			"0.003": 5.51788339283,
			"0.004": 3.53344538572,
			"0.005": 2.88379906117,
			"0.006": 3.41287464608,
			"0.007": 2.82623623219,
			"0.008": 2.11901510281,
			"0.009": 2.386579051,
			"0.01": 2.29647102589,
			"0.011": 1.64024797571,
			"0.012": 2.61753302568,
			"0.013": 4.70704406741,
			"0.014": 5.4535354977,
			"0.015": 0.966704519827,
			"0.016": 0.73455676962,
			"0.017": 0.149583351935,
			"0.018": 0.0,
			"0.019": 0.0,
			"0.02": 0.0,
			"0.021": 0.0,
			"0.022": 0.0,
			"0.023": 0.0,
			"0.024": 0.0,
			"0.025": 0.0
		}
	}
}
