{
	 "smiles": "CNC1=NC=NC(Cl)=C1[N+]([O-])=O", 
	 "Tm": 409.15, 
	 "num_atms": 17, 
	 "gaussian": { 
		 "optdone": 1, 
		 "sigma_profile": "yes", 
		 "theory": "DFT", 
		 "functional": "B3LYP", 
		 "basiset": "6-31G**", 
		 "properties": { 
			 "R2extent": 2490.8233, 
			 "electric_dipole_moment_norm": 4.35585265247, 
			 "electric_quadrupole_moment_norm": 4.93297486918, 
			 "total_energy": -1023.07315708, 
			 "HOMO_LUMO_gap": 0.16378, 
			 "cosmo_polarized_energy": -11.75, 
			 "cosmo_cavitation_energy": 23.83, 
			 "cosmo_dispersion_energy": -17.7, 
			 "cosmo_repulsion_energy": 1.4, 
			 "cosmo_total_nonelectrostatic_energy": 7.53, 
			 "SMD_solvation_energy": 3.13 
		},
		"coords": [
			{
				"x": -0.7997087299,
				"y": -1.2236431837,
				"z": 1.7018078281,
				"element": "C" 
			},
			{
				"x": -0.1740957059,
				"y": 0.0504607644,
				"z": 1.3809831002,
				"element": "N" 
			},
			{
				"x": 0.1819601617,
				"y": 0.5493058996,
				"z": 0.1774949363,
				"element": "C" 
			},
			{
				"x": 0.5021405027,
				"y": 1.8661805684,
				"z": 0.1861903133,
				"element": "N" 
			},
			{
				"x": 0.7787096807,
				"y": 2.4384987689,
				"z": -0.9724826697,
				"element": "C" 
			},
			{
				"x": 0.7717737228,
				"y": 1.8696054335,
				"z": -2.1871958222,
				"element": "N" 
			},
			{
				"x": 0.49433152,
				"y": 0.5766751562,
				"z": -2.2067051135,
				"element": "C" 
			},
			{
				"x": 0.5668852383,
				"y": -0.2039877121,
				"z": -3.764596383,
				"element": "Cl" 
			},
			{
				"x": 0.2090001739,
				"y": -0.1598361071,
				"z": -1.0540037048,
				"element": "C" 
			},
			{
				"x": 0.045570897,
				"y": -1.6135188602,
				"z": -1.1021215134,
				"element": "N" 
			},
			{
				"x": -0.8694062359,
				"y": -2.0747533381,
				"z": -1.7771645102,
				"element": "O" 
			},
			{
				"x": 0.8546927918,
				"y": -2.2732359277,
				"z": -0.4466810807,
				"element": "O" 
			},
			{
				"x": -1.5691433944,
				"y": -1.4772530411,
				"z": 0.9662256029,
				"element": "H" 
			},
			{
				"x": -1.2846700268,
				"y": -1.1224891809,
				"z": 2.6740135713,
				"element": "H" 
			},
			{
				"x": -0.0751839984,
				"y": -2.041828589,
				"z": 1.7431690972,
				"element": "H" 
			},
			{
				"x": -0.1018715441,
				"y": 0.7450097369,
				"z": 2.1116751078,
				"element": "H" 
			},
			{
				"x": 1.0388149467,
				"y": 3.494309612,
				"z": -0.9424087597,
				"element": "H" 
			}
		],
		 "valence_orbital": [ 
			{
				"type": "occ",
				"energy": -0.31459,
				"method": "rhf"
			},
			{
				"type": "occ",
				"energy": -0.30925,
				"method": "rhf"
			},
			{
				"type": "occ",
				"energy": -0.29337,
				"method": "rhf"
			},
			{
				"type": "occ",
				"energy": -0.28403,
				"method": "rhf"
			},
			{
				"type": "occ",
				"energy": -0.25663,
				"method": "rhf"
			},
			{
				"type": "unocc",
				"energy": -0.09285,
				"method": "rhf"
			},
			{
				"type": "unocc",
				"energy": -0.05109,
				"method": "rhf"
			},
			{
				"type": "unocc",
				"energy": -0.03622,
				"method": "rhf"
			},
			{
				"type": "unocc",
				"energy": 0.01502,
				"method": "rhf"
			},
			{
				"type": "unocc",
				"energy": 0.06373,
				"method": "rhf"
			}
		],
		"cosmo_sigma_profile": { 
			"-0.025": 0.0,
			"-0.024": 0.0,
			"-0.023": 0.0,
			"-0.022": 0.0,
			"-0.021": 0.0,
			"-0.02": 0.0,
			"-0.019": 0.0,
			"-0.018": 0.0,
			"-0.017": 0.0,
			"-0.016": 0.0954633797902,
			"-0.015": 0.976781695728,
			"-0.014": 1.28244814486,
			"-0.013": 0.970816334548,
			"-0.012": 1.06638653757,
			"-0.011": 1.07250745319,
			"-0.01": 1.00219652895,
			"-0.009": 2.69051410097,
			"-0.008": 3.80093174427,
			"-0.007": 5.72452488135,
			"-0.006": 7.56833051653,
			"-0.005": 13.1205757557,
			"-0.004": 14.6952161697,
			"-0.003": 16.9167301228,
			"-0.002": 12.8902555401,
			"-0.001": 12.1646750405,
			"0.0": 10.9640148908,
			"0.001": 11.6159772136,
			"0.002": 11.6920237235,
			"0.003": 9.96132718717,
			"0.004": 7.66404816768,
			"0.005": 8.0920703945,
			"0.006": 8.48725416445,
			"0.007": 11.3013364026,
			"0.008": 7.71635941762,
			"0.009": 3.46182035569,
			"0.01": 2.76043542645,
			"0.011": 1.06411965555,
			"0.012": 1.76258944841,
			"0.013": 0.724241413527,
			"0.014": 0.162393075852,
			"0.015": 0.0,
			"0.016": 0.0,
			"0.017": 0.0,
			"0.018": 0.0,
			"0.019": 0.0,
			"0.02": 0.0,
			"0.021": 0.0,
			"0.022": 0.0,
			"0.023": 0.0,
			"0.024": 0.0,
			"0.025": 0.0
		}
	}
}
