{
	 "smiles": "OCCNC(=O)C1=CC=CC=C1", 
	 "Tm": 334.15, 
	 "num_atms": 23, 
	 "gaussian": { 
		 "optdone": 1, 
		 "sigma_profile": "yes", 
		 "theory": "DFT", 
		 "functional": "B3LYP", 
		 "basiset": "6-31G**", 
		 "properties": { 
			 "R2extent": 2600.8, 
			 "electric_dipole_moment_norm": 2.95925232618, 
			 "electric_quadrupole_moment_norm": 14.9761515788, 
			 "total_energy": -554.784857324, 
			 "HOMO_LUMO_gap": 0.20785, 
			 "cosmo_polarized_energy": -15.09, 
			 "cosmo_cavitation_energy": 27.0, 
			 "cosmo_dispersion_energy": -19.31, 
			 "cosmo_repulsion_energy": 1.59, 
			 "cosmo_total_nonelectrostatic_energy": 9.28, 
			 "SMD_solvation_energy": 4.64 
		},
		"coords": [
			{
				"x": -0.6569231953,
				"y": 1.6439618026,
				"z": -2.9765182667,
				"element": "O" 
			},
			{
				"x": -0.3251465092,
				"y": 0.4451241597,
				"z": -2.2947500629,
				"element": "C" 
			},
			{
				"x": 0.8848750781,
				"y": 0.7582279681,
				"z": -1.4111855999,
				"element": "C" 
			},
			{
				"x": 1.3847507095,
				"y": -0.4177521445,
				"z": -0.706650577,
				"element": "N" 
			},
			{
				"x": 0.914751041,
				"y": -0.9418092082,
				"z": 0.4827666528,
				"element": "C" 
			},
			{
				"x": 0.9750644514,
				"y": -2.1474580714,
				"z": 0.7021772566,
				"element": "O" 
			},
			{
				"x": 0.387296888,
				"y": 0.0043526938,
				"z": 1.5245643374,
				"element": "C" 
			},
			{
				"x": -0.6906840378,
				"y": -0.4273052731,
				"z": 2.3094154789,
				"element": "C" 
			},
			{
				"x": -1.1866292172,
				"y": 0.3808384715,
				"z": 3.3301491619,
				"element": "C" 
			},
			{
				"x": -0.5909714979,
				"y": 1.6166175048,
				"z": 3.5965960959,
				"element": "C" 
			},
			{
				"x": 0.5041644479,
				"y": 2.0388089617,
				"z": 2.8406470763,
				"element": "C" 
			},
			{
				"x": 0.9900405652,
				"y": 1.2387889356,
				"z": 1.8055873681,
				"element": "C" 
			},
			{
				"x": -1.4412442703,
				"y": 1.4824070958,
				"z": -3.5144037886,
				"element": "H" 
			},
			{
				"x": -0.0703504952,
				"y": -0.3678861613,
				"z": -2.9953116596,
				"element": "H" 
			},
			{
				"x": -1.1516162064,
				"y": 0.0863954719,
				"z": -1.6610371373,
				"element": "H" 
			},
			{
				"x": 1.6842369416,
				"y": 1.1698677121,
				"z": -2.0367784643,
				"element": "H" 
			},
			{
				"x": 0.6057630084,
				"y": 1.5291157025,
				"z": -0.6933639339,
				"element": "H" 
			},
			{
				"x": 1.7306681106,
				"y": -1.1633211944,
				"z": -1.3014891705,
				"element": "H" 
			},
			{
				"x": -1.1212758476,
				"y": -1.4032360396,
				"z": 2.1103777653,
				"element": "H" 
			},
			{
				"x": -2.0306910597,
				"y": 0.0439809537,
				"z": 3.925024907,
				"element": "H" 
			},
			{
				"x": -0.9725504172,
				"y": 2.2433962798,
				"z": 4.3975713725,
				"element": "H" 
			},
			{
				"x": 0.9844750757,
				"y": 2.9880192052,
				"z": 3.0598228769,
				"element": "H" 
			},
			{
				"x": 1.8570964363,
				"y": 1.5584651738,
				"z": 1.2356883111,
				"element": "H" 
			}
		],
		 "valence_orbital": [ 
			{
				"type": "occ",
				"energy": -0.27812,
				"method": "rhf"
			},
			{
				"type": "occ",
				"energy": -0.26432,
				"method": "rhf"
			},
			{
				"type": "occ",
				"energy": -0.25645,
				"method": "rhf"
			},
			{
				"type": "occ",
				"energy": -0.25369,
				"method": "rhf"
			},
			{
				"type": "occ",
				"energy": -0.23854,
				"method": "rhf"
			},
			{
				"type": "unocc",
				"energy": -0.03069,
				"method": "rhf"
			},
			{
				"type": "unocc",
				"energy": -0.00712,
				"method": "rhf"
			},
			{
				"type": "unocc",
				"energy": 0.04953,
				"method": "rhf"
			},
			{
				"type": "unocc",
				"energy": 0.06821,
				"method": "rhf"
			},
			{
				"type": "unocc",
				"energy": 0.08419,
				"method": "rhf"
			}
		],
		"cosmo_sigma_profile": { 
			"-0.025": 0.0,
			"-0.024": 0.0,
			"-0.023": 0.0,
			"-0.022": 0.0,
			"-0.021": 0.0,
			"-0.02": 0.0,
			"-0.019": 0.0,
			"-0.018": 0.0,
			"-0.017": 0.0,
			"-0.016": 0.633093680787,
			"-0.015": 1.29604727767,
			"-0.014": 0.93429461259,
			"-0.013": 1.61578339495,
			"-0.012": 1.89684597285,
			"-0.011": 1.74531204302,
			"-0.01": 2.49455911269,
			"-0.009": 1.97742294249,
			"-0.008": 2.01149373842,
			"-0.007": 2.69793656709,
			"-0.006": 10.9739876853,
			"-0.005": 15.2956512233,
			"-0.004": 23.1637512627,
			"-0.003": 18.5916469013,
			"-0.002": 17.5247062362,
			"-0.001": 11.7366668258,
			"0.0": 11.1006534672,
			"0.001": 9.95898814158,
			"0.002": 10.2567988318,
			"0.003": 11.5772351524,
			"0.004": 14.3067816048,
			"0.005": 9.17626896088,
			"0.006": 2.55779115147,
			"0.007": 3.04908617978,
			"0.008": 2.70424028863,
			"0.009": 2.49588904916,
			"0.01": 2.87937906897,
			"0.011": 2.58706126444,
			"0.012": 3.45708771051,
			"0.013": 6.49223602289,
			"0.014": 5.58137041978,
			"0.015": 0.50987588044,
			"0.016": 0.0,
			"0.017": 0.0,
			"0.018": 0.0,
			"0.019": 0.0,
			"0.02": 0.0,
			"0.021": 0.0,
			"0.022": 0.0,
			"0.023": 0.0,
			"0.024": 0.0,
			"0.025": 0.0
		}
	}
}
