{
	 "smiles": "CCOC(=O)C(SP(=S)(OC)OC)C1=CC=CC=C1", 
	 "Tm": 290.65, 
	 "num_atms": 36, 
	 "gaussian": { 
		 "optdone": 1, 
		 "sigma_profile": "yes", 
		 "theory": "DFT", 
		 "functional": "B3LYP", 
		 "basiset": "6-31G**", 
		 "properties": { 
			 "R2extent": 6872.8137, 
			 "electric_dipole_moment_norm": 4.95164070385, 
			 "electric_quadrupole_moment_norm": 27.6462069445, 
			 "total_energy": -1906.2044427, 
			 "HOMO_LUMO_gap": 0.19118, 
			 "cosmo_polarized_energy": -14.26, 
			 "cosmo_cavitation_energy": 43.46, 
			 "cosmo_dispersion_energy": -29.15, 
			 "cosmo_repulsion_energy": 2.2, 
			 "cosmo_total_nonelectrostatic_energy": 16.51, 
			 "SMD_solvation_energy": 8.17 
		},
		"coords": [
			{
				"x": 4.1883948716,
				"y": -0.9553994081,
				"z": -1.7664272151,
				"element": "C" 
			},
			{
				"x": 4.0930452016,
				"y": 0.019528129,
				"z": -0.6034111187,
				"element": "C" 
			},
			{
				"x": 3.0185652696,
				"y": -0.3467808974,
				"z": 0.3018565077,
				"element": "O" 
			},
			{
				"x": 1.7886652481,
				"y": 0.108070762,
				"z": -0.0016515851,
				"element": "C" 
			},
			{
				"x": 1.535732477,
				"y": 0.7900019664,
				"z": -0.9742377551,
				"element": "O" 
			},
			{
				"x": 0.7949420111,
				"y": -0.3482748127,
				"z": 1.0611842731,
				"element": "C" 
			},
			{
				"x": 0.3911059545,
				"y": 1.1414113361,
				"z": 2.1589905913,
				"element": "S" 
			},
			{
				"x": -1.3023239483,
				"y": 2.1557474458,
				"z": 1.4125968901,
				"element": "P" 
			},
			{
				"x": -1.5747544247,
				"y": 3.7999891445,
				"z": 2.4135159476,
				"element": "S" 
			},
			{
				"x": -2.4422741984,
				"y": 1.0174021721,
				"z": 1.5004295906,
				"element": "O" 
			},
			{
				"x": -3.7646941549,
				"y": 1.2874198202,
				"z": 0.992352958,
				"element": "C" 
			},
			{
				"x": -1.1882009905,
				"y": 2.3033583775,
				"z": -0.1975536615,
				"element": "O" 
			},
			{
				"x": -0.4079705345,
				"y": 3.3544402969,
				"z": -0.8032560144,
				"element": "C" 
			},
			{
				"x": -0.3677649583,
				"y": -1.170774443,
				"z": 0.5513004149,
				"element": "C" 
			},
			{
				"x": -0.8826043391,
				"y": -2.1741857493,
				"z": 1.3852705476,
				"element": "C" 
			},
			{
				"x": -1.9427441455,
				"y": -2.9744139216,
				"z": 0.9657478722,
				"element": "C" 
			},
			{
				"x": -2.500624956,
				"y": -2.7863800164,
				"z": -0.3009286653,
				"element": "C" 
			},
			{
				"x": -1.9916327715,
				"y": -1.7922475529,
				"z": -1.1374091141,
				"element": "C" 
			},
			{
				"x": -0.9336173709,
				"y": -0.9844933445,
				"z": -0.7172399298,
				"element": "C" 
			},
			{
				"x": 3.2904581388,
				"y": -0.9045577293,
				"z": -2.3869615159,
				"element": "H" 
			},
			{
				"x": 4.3139493907,
				"y": -1.9807273607,
				"z": -1.4067741712,
				"element": "H" 
			},
			{
				"x": 5.0516338977,
				"y": -0.7020522405,
				"z": -2.3905879208,
				"element": "H" 
			},
			{
				"x": 4.9887967399,
				"y": -0.0078003153,
				"z": 0.0207897697,
				"element": "H" 
			},
			{
				"x": 3.9223101479,
				"y": 1.0404008526,
				"z": -0.9524076365,
				"element": "H" 
			},
			{
				"x": 1.3536514834,
				"y": -0.94818832,
				"z": 1.7823659992,
				"element": "H" 
			},
			{
				"x": -4.3638479573,
				"y": 0.4119425607,
				"z": 1.2433832152,
				"element": "H" 
			},
			{
				"x": -4.1844864637,
				"y": 2.1768685265,
				"z": 1.4710921894,
				"element": "H" 
			},
			{
				"x": -3.7331320091,
				"y": 1.4210602558,
				"z": -0.0916627358,
				"element": "H" 
			},
			{
				"x": 0.654000697,
				"y": 3.1132612293,
				"z": -0.7315211224,
				"element": "H" 
			},
			{
				"x": -0.6244580699,
				"y": 4.3138576532,
				"z": -0.3265809718,
				"element": "H" 
			},
			{
				"x": -0.7055013361,
				"y": 3.3795972114,
				"z": -1.8524310965,
				"element": "H" 
			},
			{
				"x": -0.4523376567,
				"y": -2.3232016468,
				"z": 2.3723195295,
				"element": "H" 
			},
			{
				"x": -2.3281820834,
				"y": -3.7475874529,
				"z": 1.624074512,
				"element": "H" 
			},
			{
				"x": -3.3229302749,
				"y": -3.4133982355,
				"z": -0.6337605284,
				"element": "H" 
			},
			{
				"x": -2.417545963,
				"y": -1.6424932184,
				"z": -2.1255958755,
				"element": "H" 
			},
			{
				"x": -0.546922922,
				"y": -0.2087010747,
				"z": -1.3659721742,
				"element": "H" 
			}
		],
		 "valence_orbital": [ 
			{
				"type": "occ",
				"energy": -0.26471,
				"method": "rhf"
			},
			{
				"type": "occ",
				"energy": -0.25405,
				"method": "rhf"
			},
			{
				"type": "occ",
				"energy": -0.25032,
				"method": "rhf"
			},
			{
				"type": "occ",
				"energy": -0.23639,
				"method": "rhf"
			},
			{
				"type": "occ",
				"energy": -0.23321,
				"method": "rhf"
			},
			{
				"type": "unocc",
				"energy": -0.04203,
				"method": "rhf"
			},
			{
				"type": "unocc",
				"energy": -0.00637,
				"method": "rhf"
			},
			{
				"type": "unocc",
				"energy": -0.00255,
				"method": "rhf"
			},
			{
				"type": "unocc",
				"energy": 0.0053,
				"method": "rhf"
			},
			{
				"type": "unocc",
				"energy": 0.0352,
				"method": "rhf"
			}
		],
		"cosmo_sigma_profile": { 
			"-0.025": 0.0,
			"-0.024": 0.0,
			"-0.023": 0.0,
			"-0.022": 0.0,
			"-0.021": 0.0,
			"-0.02": 0.0,
			"-0.019": 0.0,
			"-0.018": 0.0,
			"-0.017": 0.0,
			"-0.016": 0.0,
			"-0.015": 0.0,
			"-0.014": 0.0,
			"-0.013": 0.0,
			"-0.012": 0.0,
			"-0.011": 0.0,
			"-0.01": 0.0684229271651,
			"-0.009": 1.6728670439,
			"-0.008": 2.2956267931,
			"-0.007": 5.12424604765,
			"-0.006": 17.0567915526,
			"-0.005": 25.4488565838,
			"-0.004": 38.83570007,
			"-0.003": 33.4747628392,
			"-0.002": 27.6850828844,
			"-0.001": 23.6972099164,
			"0.0": 24.2419968955,
			"0.001": 20.0208849089,
			"0.002": 19.0691124989,
			"0.003": 23.4938049509,
			"0.004": 22.5713605951,
			"0.005": 18.959581052,
			"0.006": 14.406157015,
			"0.007": 11.7378636677,
			"0.008": 10.1096282637,
			"0.009": 5.99859189696,
			"0.01": 1.23039976229,
			"0.011": 0.646420135766,
			"0.012": 0.0,
			"0.013": 0.0,
			"0.014": 0.0,
			"0.015": 0.0,
			"0.016": 0.0,
			"0.017": 0.0,
			"0.018": 0.0,
			"0.019": 0.0,
			"0.02": 0.0,
			"0.021": 0.0,
			"0.022": 0.0,
			"0.023": 0.0,
			"0.024": 0.0,
			"0.025": 0.0
		}
	}
}
