{
	 "smiles": "CN1C(=O)N(CC2=CC=CC=C2)C(N)=C(Br)C1=O", 
	 "Tm": 484.15, 
	 "num_atms": 30, 
	 "gaussian": { 
		 "optdone": 1, 
		 "sigma_profile": "yes", 
		 "theory": "DFT", 
		 "functional": "B3LYP", 
		 "basiset": "6-31G**", 
		 "properties": { 
			 "R2extent": 7123.3008, 
			 "electric_dipole_moment_norm": 5.69461439081, 
			 "electric_quadrupole_moment_norm": 17.5203351615, 
			 "total_energy": -3350.6559091, 
			 "HOMO_LUMO_gap": 0.19241, 
			 "cosmo_polarized_energy": -17.53, 
			 "cosmo_cavitation_energy": 35.26, 
			 "cosmo_dispersion_energy": -25.88, 
			 "cosmo_repulsion_energy": 1.97, 
			 "cosmo_total_nonelectrostatic_energy": 11.36, 
			 "SMD_solvation_energy": 5.91 
		},
		"coords": [
			{
				"x": -0.1589047472,
				"y": -2.1718924348,
				"z": 4.4268702455,
				"element": "C" 
			},
			{
				"x": 0.1294186978,
				"y": -1.8155585415,
				"z": 3.0333109158,
				"element": "N" 
			},
			{
				"x": -0.2646151452,
				"y": -0.5560435434,
				"z": 2.6355522768,
				"element": "C" 
			},
			{
				"x": -0.8287699594,
				"y": 0.2256247458,
				"z": 3.3925043485,
				"element": "O" 
			},
			{
				"x": 0.0220933264,
				"y": -0.2015236191,
				"z": 1.3052685953,
				"element": "N" 
			},
			{
				"x": -0.2313638477,
				"y": 1.2022625645,
				"z": 0.9219582973,
				"element": "C" 
			},
			{
				"x": -1.4676217632,
				"y": 1.4002644482,
				"z": 0.0633778482,
				"element": "C" 
			},
			{
				"x": -1.378608903,
				"y": 2.060954982,
				"z": -1.1683857287,
				"element": "C" 
			},
			{
				"x": -2.5188049859,
				"y": 2.2644680516,
				"z": -1.9517174743,
				"element": "C" 
			},
			{
				"x": -3.7583266391,
				"y": 1.8062909774,
				"z": -1.5078553492,
				"element": "C" 
			},
			{
				"x": -3.856023159,
				"y": 1.1518898163,
				"z": -0.2757103222,
				"element": "C" 
			},
			{
				"x": -2.720623937,
				"y": 0.9517293534,
				"z": 0.506795287,
				"element": "C" 
			},
			{
				"x": 0.5942147261,
				"y": -1.0954965054,
				"z": 0.4127735256,
				"element": "C" 
			},
			{
				"x": 0.8066566672,
				"y": -0.6376973408,
				"z": -0.861366151,
				"element": "N" 
			},
			{
				"x": 0.9615051877,
				"y": -2.3461349758,
				"z": 0.8452510576,
				"element": "C" 
			},
			{
				"x": 1.7228295723,
				"y": -3.593943721,
				"z": -0.3669974503,
				"element": "Br" 
			},
			{
				"x": 0.7692515334,
				"y": -2.784223228,
				"z": 2.2061776252,
				"element": "C" 
			},
			{
				"x": 1.080484945,
				"y": -3.8770985366,
				"z": 2.6561978388,
				"element": "O" 
			},
			{
				"x": 0.218057497,
				"y": -3.1798441229,
				"z": 4.5827892278,
				"element": "H" 
			},
			{
				"x": -1.2353045381,
				"y": -2.1309443953,
				"z": 4.6079203713,
				"element": "H" 
			},
			{
				"x": 0.3320234713,
				"y": -1.4669264124,
				"z": 5.1009509027,
				"element": "H" 
			},
			{
				"x": 0.6578151679,
				"y": 1.5767454701,
				"z": 0.4075639314,
				"element": "H" 
			},
			{
				"x": -0.3405060364,
				"y": 1.7376325052,
				"z": 1.8659529775,
				"element": "H" 
			},
			{
				"x": -0.4146822707,
				"y": 2.4316744931,
				"z": -1.5120730679,
				"element": "H" 
			},
			{
				"x": -2.4348715082,
				"y": 2.7796468779,
				"z": -2.9041850042,
				"element": "H" 
			},
			{
				"x": -4.6457740901,
				"y": 1.9604337639,
				"z": -2.1145282833,
				"element": "H" 
			},
			{
				"x": -4.8215871653,
				"y": 0.802016857,
				"z": 0.0778247401,
				"element": "H" 
			},
			{
				"x": -2.7984698539,
				"y": 0.4608146388,
				"z": 1.4724213987,
				"element": "H" 
			},
			{
				"x": 0.1026178522,
				"y": -0.0205588318,
				"z": -1.2458956786,
				"element": "H" 
			},
			{
				"x": 1.1259899051,
				"y": -1.3558633364,
				"z": -1.4991469012,
				"element": "H" 
			}
		],
		 "valence_orbital": [ 
			{
				"type": "occ",
				"energy": -0.26968,
				"method": "rhf"
			},
			{
				"type": "occ",
				"energy": -0.26793,
				"method": "rhf"
			},
			{
				"type": "occ",
				"energy": -0.26435,
				"method": "rhf"
			},
			{
				"type": "occ",
				"energy": -0.25656,
				"method": "rhf"
			},
			{
				"type": "occ",
				"energy": -0.2179,
				"method": "rhf"
			},
			{
				"type": "unocc",
				"energy": -0.02549,
				"method": "rhf"
			},
			{
				"type": "unocc",
				"energy": -0.02321,
				"method": "rhf"
			},
			{
				"type": "unocc",
				"energy": -0.0197,
				"method": "rhf"
			},
			{
				"type": "unocc",
				"energy": 0.00521,
				"method": "rhf"
			},
			{
				"type": "unocc",
				"energy": 0.01293,
				"method": "rhf"
			}
		],
		"cosmo_sigma_profile": { 
			"-0.025": 0.0,
			"-0.024": 0.0,
			"-0.023": 0.0,
			"-0.022": 0.0,
			"-0.021": 0.0,
			"-0.02": 0.0,
			"-0.019": 0.0,
			"-0.018": 0.0,
			"-0.017": 0.0,
			"-0.016": 0.0,
			"-0.015": 0.0,
			"-0.014": 0.0879699122221,
			"-0.013": 0.714222489261,
			"-0.012": 1.76705573423,
			"-0.011": 1.34425577003,
			"-0.01": 2.19203824793,
			"-0.009": 1.74586233133,
			"-0.008": 3.77483447489,
			"-0.007": 5.58429108431,
			"-0.006": 13.7604338464,
			"-0.005": 22.3731967402,
			"-0.004": 29.3993231983,
			"-0.003": 26.4113199924,
			"-0.002": 24.1615022939,
			"-0.001": 16.2852550202,
			"0.0": 16.5161146484,
			"0.001": 16.6660743263,
			"0.002": 17.2293973514,
			"0.003": 15.114063853,
			"0.004": 18.2401856603,
			"0.005": 14.9224273107,
			"0.006": 4.96508201755,
			"0.007": 3.958122799,
			"0.008": 3.16500803648,
			"0.009": 3.30725454581,
			"0.01": 3.29170551889,
			"0.011": 4.09116410598,
			"0.012": 6.76790035921,
			"0.013": 5.913784244,
			"0.014": 1.24144324413,
			"0.015": 0.0,
			"0.016": 0.0,
			"0.017": 0.0,
			"0.018": 0.0,
			"0.019": 0.0,
			"0.02": 0.0,
			"0.021": 0.0,
			"0.022": 0.0,
			"0.023": 0.0,
			"0.024": 0.0,
			"0.025": 0.0
		}
	}
}
