{
	 "smiles": "NC1=NNC(=C1)C1=CC(F)=CC(F)=C1", 
	 "Tm": 384.15, 
	 "num_atms": 21, 
	 "gaussian": { 
		 "optdone": 1, 
		 "sigma_profile": "yes", 
		 "theory": "DFT", 
		 "functional": "B3LYP", 
		 "basiset": "6-31G**", 
		 "properties": { 
			 "R2extent": 3473.351, 
			 "electric_dipole_moment_norm": 1.12988706073, 
			 "electric_quadrupole_moment_norm": 11.6734722572, 
			 "total_energy": -711.083060093, 
			 "HOMO_LUMO_gap": 0.16607, 
			 "cosmo_polarized_energy": -13.2, 
			 "cosmo_cavitation_energy": 27.13, 
			 "cosmo_dispersion_energy": -19.75, 
			 "cosmo_repulsion_energy": 1.5, 
			 "cosmo_total_nonelectrostatic_energy": 8.88, 
			 "SMD_solvation_energy": 4.46 
		},
		"coords": [
			{
				"x": 0.0743997384,
				"y": -2.3211416435,
				"z": -3.9684280988,
				"element": "N" 
			},
			{
				"x": 0.4197765508,
				"y": -1.6071113637,
				"z": -2.8220053746,
				"element": "C" 
			},
			{
				"x": 1.6855143392,
				"y": -1.5645883978,
				"z": -2.4011324523,
				"element": "N" 
			},
			{
				"x": 1.6319802929,
				"y": -0.8292979318,
				"z": -1.2600536887,
				"element": "N" 
			},
			{
				"x": 0.3710179427,
				"y": -0.4263325078,
				"z": -0.9356620346,
				"element": "C" 
			},
			{
				"x": -0.450635865,
				"y": -0.9130104334,
				"z": -1.9438940569,
				"element": "C" 
			},
			{
				"x": 0.0730087676,
				"y": 0.3691297674,
				"z": 0.2570240541,
				"element": "C" 
			},
			{
				"x": 1.0492387884,
				"y": 1.2053565819,
				"z": 0.8267762234,
				"element": "C" 
			},
			{
				"x": 0.7328926587,
				"y": 1.9364554631,
				"z": 1.9642944921,
				"element": "C" 
			},
			{
				"x": 1.6742299175,
				"y": 2.736480817,
				"z": 2.5010225132,
				"element": "F" 
			},
			{
				"x": -0.5196710732,
				"y": 1.8904410082,
				"z": 2.5653223254,
				"element": "C" 
			},
			{
				"x": -1.4673618367,
				"y": 1.0617277938,
				"z": 1.9731754188,
				"element": "C" 
			},
			{
				"x": -2.6909085173,
				"y": 0.9884937767,
				"z": 2.5308462024,
				"element": "F" 
			},
			{
				"x": -1.2017157857,
				"y": 0.3000335853,
				"z": 0.8438420576,
				"element": "C" 
			},
			{
				"x": 0.8871104114,
				"y": -2.5472552397,
				"z": -4.529016955,
				"element": "H" 
			},
			{
				"x": -0.6401574744,
				"y": -1.8731420683,
				"z": -4.5273586208,
				"element": "H" 
			},
			{
				"x": 2.4537710742,
				"y": -0.7783933052,
				"z": -0.6796167833,
				"element": "H" 
			},
			{
				"x": -1.5143136668,
				"y": -0.7606203419,
				"z": -2.0484247252,
				"element": "H" 
			},
			{
				"x": 2.0302325969,
				"y": 1.324236194,
				"z": 0.3812003757,
				"element": "H" 
			},
			{
				"x": -0.7473155586,
				"y": 2.472753405,
				"z": 3.4492199638,
				"element": "H" 
			},
			{
				"x": -1.9696933009,
				"y": -0.3516151594,
				"z": 0.4450691636,
				"element": "H" 
			}
		],
		 "valence_orbital": [ 
			{
				"type": "occ",
				"energy": -0.29134,
				"method": "rhf"
			},
			{
				"type": "occ",
				"energy": -0.28197,
				"method": "rhf"
			},
			{
				"type": "occ",
				"energy": -0.25579,
				"method": "rhf"
			},
			{
				"type": "occ",
				"energy": -0.23228,
				"method": "rhf"
			},
			{
				"type": "occ",
				"energy": -0.2075,
				"method": "rhf"
			},
			{
				"type": "unocc",
				"energy": -0.04143,
				"method": "rhf"
			},
			{
				"type": "unocc",
				"energy": -0.00939,
				"method": "rhf"
			},
			{
				"type": "unocc",
				"energy": 0.04697,
				"method": "rhf"
			},
			{
				"type": "unocc",
				"energy": 0.06772,
				"method": "rhf"
			},
			{
				"type": "unocc",
				"energy": 0.07942,
				"method": "rhf"
			}
		],
		"cosmo_sigma_profile": { 
			"-0.025": 0.0,
			"-0.024": 0.0,
			"-0.023": 0.0,
			"-0.022": 0.0,
			"-0.021": 0.0,
			"-0.02": 0.0,
			"-0.019": 0.0,
			"-0.018": 0.0,
			"-0.017": 0.00259077610857,
			"-0.016": 0.674562218704,
			"-0.015": 1.05502883988,
			"-0.014": 1.51355971373,
			"-0.013": 1.3620046607,
			"-0.012": 2.95040009149,
			"-0.011": 3.59368663538,
			"-0.01": 4.25540372689,
			"-0.009": 4.78913616094,
			"-0.008": 5.77950237081,
			"-0.007": 7.46781490008,
			"-0.006": 9.56774122836,
			"-0.005": 8.2377912348,
			"-0.004": 6.61204040634,
			"-0.003": 7.85611784233,
			"-0.002": 6.93665286918,
			"-0.001": 10.2761965614,
			"0.0": 19.7274205495,
			"0.001": 23.5296340823,
			"0.002": 19.5567879071,
			"0.003": 14.8403944713,
			"0.004": 24.484014237,
			"0.005": 6.87937306393,
			"0.006": 5.11872088648,
			"0.007": 3.65473013913,
			"0.008": 2.31496118327,
			"0.009": 2.07363127981,
			"0.01": 2.06966010044,
			"0.011": 1.95196119672,
			"0.012": 2.46360110545,
			"0.013": 1.34546961262,
			"0.014": 1.79535895919,
			"0.015": 1.52242104198,
			"0.016": 1.2305604564,
			"0.017": 0.0997355281021,
			"0.018": 0.0,
			"0.019": 0.0,
			"0.02": 0.0,
			"0.021": 0.0,
			"0.022": 0.0,
			"0.023": 0.0,
			"0.024": 0.0,
			"0.025": 0.0
		}
	}
}
