{
	 "smiles": "CCCC1C2CCC(C)(C1=O)C2(C)C", 
	 "Tm": 401.15, 
	 "num_atms": 36, 
	 "gaussian": { 
		 "optdone": 1, 
		 "sigma_profile": "yes", 
		 "theory": "DFT", 
		 "functional": "B3LYP", 
		 "basiset": "6-31G**", 
		 "properties": { 
			 "R2extent": 2926.1982, 
			 "electric_dipole_moment_norm": 2.73925598293, 
			 "electric_quadrupole_moment_norm": 6.28792715845, 
			 "total_energy": -583.880188455, 
			 "HOMO_LUMO_gap": 0.22037, 
			 "cosmo_polarized_energy": -6.49, 
			 "cosmo_cavitation_energy": 33.34, 
			 "cosmo_dispersion_energy": -23.2, 
			 "cosmo_repulsion_energy": 1.79, 
			 "cosmo_total_nonelectrostatic_energy": 11.93, 
			 "SMD_solvation_energy": 5.72 
		},
		"coords": [
			{
				"x": -1.8776295812,
				"y": -2.4209423718,
				"z": 3.0568380329,
				"element": "C" 
			},
			{
				"x": -0.6642732967,
				"y": -1.5767918605,
				"z": 3.4622227899,
				"element": "C" 
			},
			{
				"x": 0.194604812,
				"y": -1.0704419256,
				"z": 2.2912789202,
				"element": "C" 
			},
			{
				"x": -0.5322112682,
				"y": -0.0937986875,
				"z": 1.3411434794,
				"element": "C" 
			},
			{
				"x": -1.2091757022,
				"y": -0.637881673,
				"z": 0.0500320947,
				"element": "C" 
			},
			{
				"x": -2.2860382085,
				"y": 0.4030563887,
				"z": -0.3405046963,
				"element": "C" 
			},
			{
				"x": -1.4270209667,
				"y": 1.6197488194,
				"z": -0.805661349,
				"element": "C" 
			},
			{
				"x": 0.0488838598,
				"y": 1.1013355721,
				"z": -0.7518464914,
				"element": "C" 
			},
			{
				"x": 1.0497003511,
				"y": 1.9210452736,
				"z": -1.5474959101,
				"element": "C" 
			},
			{
				"x": 0.3763424093,
				"y": 1.0040333382,
				"z": 0.7447896844,
				"element": "C" 
			},
			{
				"x": 1.2034707093,
				"y": 1.6515106576,
				"z": 1.3514373591,
				"element": "O" 
			},
			{
				"x": -0.1279745846,
				"y": -0.4279942027,
				"z": -1.0693135205,
				"element": "C" 
			},
			{
				"x": -0.6429957163,
				"y": -0.7294611665,
				"z": -2.4874105823,
				"element": "C" 
			},
			{
				"x": 1.1713683246,
				"y": -1.2337698598,
				"z": -0.8789916191,
				"element": "C" 
			},
			{
				"x": -2.414647132,
				"y": -2.7867874284,
				"z": 3.938272387,
				"element": "H" 
			},
			{
				"x": -2.5902224333,
				"y": -1.8469380867,
				"z": 2.4548067374,
				"element": "H" 
			},
			{
				"x": -1.5742783507,
				"y": -3.2944076701,
				"z": 2.4675805541,
				"element": "H" 
			},
			{
				"x": -0.0231836878,
				"y": -2.1693232676,
				"z": 4.1275284882,
				"element": "H" 
			},
			{
				"x": -1.0009145037,
				"y": -0.7156944693,
				"z": 4.0555931525,
				"element": "H" 
			},
			{
				"x": 1.06631284,
				"y": -0.5453378,
				"z": 2.7004753532,
				"element": "H" 
			},
			{
				"x": 0.5763864621,
				"y": -1.9306058651,
				"z": 1.7295700543,
				"element": "H" 
			},
			{
				"x": -1.2758622734,
				"y": 0.4409225714,
				"z": 1.9502070569,
				"element": "H" 
			},
			{
				"x": -1.5823466635,
				"y": -1.6619286378,
				"z": 0.1388671137,
				"element": "H" 
			},
			{
				"x": -2.9367385735,
				"y": 0.6481118207,
				"z": 0.5044663557,
				"element": "H" 
			},
			{
				"x": -2.9332028142,
				"y": 0.0387354492,
				"z": -1.1427418924,
				"element": "H" 
			},
			{
				"x": -1.6711820077,
				"y": 1.9250682061,
				"z": -1.8279617629,
				"element": "H" 
			},
			{
				"x": -1.563508825,
				"y": 2.5034391846,
				"z": -0.1739031795,
				"element": "H" 
			},
			{
				"x": 0.7682707296,
				"y": 1.9759077609,
				"z": -2.6043101969,
				"element": "H" 
			},
			{
				"x": 1.104254034,
				"y": 2.9411068229,
				"z": -1.1548011468,
				"element": "H" 
			},
			{
				"x": 2.0566111449,
				"y": 1.4983746355,
				"z": -1.4795230937,
				"element": "H" 
			},
			{
				"x": 0.1308436875,
				"y": -0.5098047555,
				"z": -3.2306775502,
				"element": "H" 
			},
			{
				"x": -0.887954401,
				"y": -1.7942672442,
				"z": -2.5790023016,
				"element": "H" 
			},
			{
				"x": -1.5333149527,
				"y": -0.1626961131,
				"z": -2.765445589,
				"element": "H" 
			},
			{
				"x": 1.8655738319,
				"y": -1.0293285463,
				"z": -1.7011301257,
				"element": "H" 
			},
			{
				"x": 1.7007144602,
				"y": -1.0030354597,
				"z": 0.0483019231,
				"element": "H" 
			},
			{
				"x": 0.9649382864,
				"y": -2.3099594098,
				"z": -0.8883905293,
				"element": "H" 
			}
		],
		 "valence_orbital": [ 
			{
				"type": "occ",
				"energy": -0.32079,
				"method": "rhf"
			},
			{
				"type": "occ",
				"energy": -0.31328,
				"method": "rhf"
			},
			{
				"type": "occ",
				"energy": -0.29956,
				"method": "rhf"
			},
			{
				"type": "occ",
				"energy": -0.29159,
				"method": "rhf"
			},
			{
				"type": "occ",
				"energy": -0.22814,
				"method": "rhf"
			},
			{
				"type": "unocc",
				"energy": -0.00777,
				"method": "rhf"
			},
			{
				"type": "unocc",
				"energy": 0.07197,
				"method": "rhf"
			},
			{
				"type": "unocc",
				"energy": 0.09016,
				"method": "rhf"
			},
			{
				"type": "unocc",
				"energy": 0.09774,
				"method": "rhf"
			},
			{
				"type": "unocc",
				"energy": 0.10312,
				"method": "rhf"
			}
		],
		"cosmo_sigma_profile": { 
			"-0.025": 0.0,
			"-0.024": 0.0,
			"-0.023": 0.0,
			"-0.022": 0.0,
			"-0.021": 0.0,
			"-0.02": 0.0,
			"-0.019": 0.0,
			"-0.018": 0.0,
			"-0.017": 0.0,
			"-0.016": 0.0,
			"-0.015": 0.0,
			"-0.014": 0.0,
			"-0.013": 0.0,
			"-0.012": 0.0,
			"-0.011": 0.0,
			"-0.01": 0.0,
			"-0.009": 0.0,
			"-0.008": 0.0,
			"-0.007": 0.0,
			"-0.006": 0.0,
			"-0.005": 1.38247968855,
			"-0.004": 8.02236712869,
			"-0.003": 26.757016119,
			"-0.002": 49.9241194883,
			"-0.001": 53.6345842872,
			"0.0": 43.3476487719,
			"0.001": 37.0929389517,
			"0.002": 11.347925354,
			"0.003": 2.12305665334,
			"0.004": 1.71941366979,
			"0.005": 1.86624793278,
			"0.006": 1.93469455105,
			"0.007": 1.00558372257,
			"0.008": 1.73367507143,
			"0.009": 1.94056165059,
			"0.01": 2.09454279671,
			"0.011": 2.52479273722,
			"0.012": 4.35633734566,
			"0.013": 2.99816895922,
			"0.014": 0.105900247276,
			"0.015": 0.0,
			"0.016": 0.0,
			"0.017": 0.0,
			"0.018": 0.0,
			"0.019": 0.0,
			"0.02": 0.0,
			"0.021": 0.0,
			"0.022": 0.0,
			"0.023": 0.0,
			"0.024": 0.0,
			"0.025": 0.0
		}
	}
}
