{
	 "smiles": "CC1=CC(OCC(O)CN)=CC=C1", 
	 "Tm": 349.15, 
	 "num_atms": 28, 
	 "gaussian": { 
		 "optdone": 1, 
		 "sigma_profile": "yes", 
		 "theory": "DFT", 
		 "functional": "B3LYP", 
		 "basiset": "6-31G**", 
		 "properties": { 
			 "R2extent": 3993.4385, 
			 "electric_dipole_moment_norm": 2.16133134433, 
			 "electric_quadrupole_moment_norm": 11.7564967988, 
			 "total_energy": -595.290591876, 
			 "HOMO_LUMO_gap": 0.22115, 
			 "cosmo_polarized_energy": -11.12, 
			 "cosmo_cavitation_energy": 30.82, 
			 "cosmo_dispersion_energy": -22.05, 
			 "cosmo_repulsion_energy": 1.79, 
			 "cosmo_total_nonelectrostatic_energy": 10.56, 
			 "SMD_solvation_energy": 4.2 
		},
		"coords": [
			{
				"x": 3.9618712145,
				"y": 0.7851372681,
				"z": -2.2521221829,
				"element": "C" 
			},
			{
				"x": 2.5438573566,
				"y": 0.2975507559,
				"z": -2.4397065873,
				"element": "C" 
			},
			{
				"x": 1.8411527173,
				"y": -0.2772274291,
				"z": -1.3821495359,
				"element": "C" 
			},
			{
				"x": 0.5286544408,
				"y": -0.7419050748,
				"z": -1.553628493,
				"element": "C" 
			},
			{
				"x": -0.0572458632,
				"y": -1.2809030417,
				"z": -0.4392100007,
				"element": "O" 
			},
			{
				"x": -1.3808762862,
				"y": -1.8157439127,
				"z": -0.5379950444,
				"element": "C" 
			},
			{
				"x": -1.7178447631,
				"y": -2.4050063657,
				"z": 0.8282212454,
				"element": "C" 
			},
			{
				"x": -0.8199627421,
				"y": -3.4579420205,
				"z": 1.1533614895,
				"element": "O" 
			},
			{
				"x": -1.7469995973,
				"y": -1.3554341637,
				"z": 1.9530588636,
				"element": "C" 
			},
			{
				"x": -2.6922548088,
				"y": -0.2747048612,
				"z": 1.6484010404,
				"element": "N" 
			},
			{
				"x": -0.0969445072,
				"y": -0.6321545504,
				"z": -2.7981768898,
				"element": "C" 
			},
			{
				"x": 0.6098295796,
				"y": -0.0539814354,
				"z": -3.8586467661,
				"element": "C" 
			},
			{
				"x": 1.9108728749,
				"y": 0.4067038387,
				"z": -3.6901124696,
				"element": "C" 
			},
			{
				"x": 4.6678282564,
				"y": 0.1845870513,
				"z": -2.8380405833,
				"element": "H" 
			},
			{
				"x": 4.0724135521,
				"y": 1.8235388053,
				"z": -2.5837481202,
				"element": "H" 
			},
			{
				"x": 4.2698211796,
				"y": 0.7317851601,
				"z": -1.2044227284,
				"element": "H" 
			},
			{
				"x": 2.2963173865,
				"y": -0.3769938706,
				"z": -0.4009755195,
				"element": "H" 
			},
			{
				"x": -1.410191845,
				"y": -2.6065148082,
				"z": -1.2983521222,
				"element": "H" 
			},
			{
				"x": -2.0988759709,
				"y": -1.0318624321,
				"z": -0.8099545121,
				"element": "H" 
			},
			{
				"x": -2.7146945295,
				"y": -2.8533788513,
				"z": 0.7509784662,
				"element": "H" 
			},
			{
				"x": 0.0705047057,
				"y": -3.1041930073,
				"z": 1.0148843284,
				"element": "H" 
			},
			{
				"x": -0.716532207,
				"y": -1.0111572464,
				"z": 2.1355191641,
				"element": "H" 
			},
			{
				"x": -2.0756101281,
				"y": -1.869736526,
				"z": 2.8612602409,
				"element": "H" 
			},
			{
				"x": -2.2325495171,
				"y": 0.4440724124,
				"z": 1.0955524486,
				"element": "H" 
			},
			{
				"x": -2.9931406798,
				"y": 0.1794264651,
				"z": 2.5055220778,
				"element": "H" 
			},
			{
				"x": -1.11067588,
				"y": -0.981796049,
				"z": -2.9509251204,
				"element": "H" 
			},
			{
				"x": 0.1264986373,
				"y": 0.034468562,
				"z": -4.8277655514,
				"element": "H" 
			},
			{
				"x": 2.4422774241,
				"y": 0.8535653273,
				"z": -4.5261271377,
				"element": "H" 
			}
		],
		 "valence_orbital": [ 
			{
				"type": "occ",
				"energy": -0.31296,
				"method": "rhf"
			},
			{
				"type": "occ",
				"energy": -0.26937,
				"method": "rhf"
			},
			{
				"type": "occ",
				"energy": -0.24278,
				"method": "rhf"
			},
			{
				"type": "occ",
				"energy": -0.23511,
				"method": "rhf"
			},
			{
				"type": "occ",
				"energy": -0.21896,
				"method": "rhf"
			},
			{
				"type": "unocc",
				"energy": 0.00219,
				"method": "rhf"
			},
			{
				"type": "unocc",
				"energy": 0.0109,
				"method": "rhf"
			},
			{
				"type": "unocc",
				"energy": 0.07544,
				"method": "rhf"
			},
			{
				"type": "unocc",
				"energy": 0.08971,
				"method": "rhf"
			},
			{
				"type": "unocc",
				"energy": 0.09856,
				"method": "rhf"
			}
		],
		"cosmo_sigma_profile": { 
			"-0.025": 0.0,
			"-0.024": 0.0,
			"-0.023": 0.0,
			"-0.022": 0.0,
			"-0.021": 0.0,
			"-0.02": 0.0,
			"-0.019": 0.0,
			"-0.018": 0.0,
			"-0.017": 0.0,
			"-0.016": 0.0,
			"-0.015": 0.0,
			"-0.014": 0.0,
			"-0.013": 0.315439872068,
			"-0.012": 0.757908175082,
			"-0.011": 0.261457627981,
			"-0.01": 1.88800271708,
			"-0.009": 3.34801685343,
			"-0.008": 2.52675461355,
			"-0.007": 4.36763250207,
			"-0.006": 6.70561175599,
			"-0.005": 17.0870931387,
			"-0.004": 26.1158359791,
			"-0.003": 23.4649315669,
			"-0.002": 21.9826891128,
			"-0.001": 19.2433744953,
			"0.0": 20.9660240919,
			"0.001": 12.8236277892,
			"0.002": 11.4592542322,
			"0.003": 11.1781607467,
			"0.004": 12.8259168705,
			"0.005": 11.0405846032,
			"0.006": 11.0217947923,
			"0.007": 5.01436322851,
			"0.008": 1.61790783121,
			"0.009": 0.876231352248,
			"0.01": 2.27905819702,
			"0.011": 2.21305458409,
			"0.012": 1.78106431361,
			"0.013": 1.90103657218,
			"0.014": 3.10067614254,
			"0.015": 0.896802282546,
			"0.016": 0.543426899389,
			"0.017": 0.642794830519,
			"0.018": 0.302494931809,
			"0.019": 0.372267338283,
			"0.02": 0.0,
			"0.021": 0.0,
			"0.022": 0.0,
			"0.023": 0.0,
			"0.024": 0.0,
			"0.025": 0.0
		}
	}
}
