{
	 "smiles": "CC1=NC(C)=C2C(=O)N3C4=C(SC3=C(C#N)C2=C1)C=CC=C4", 
	 "Tm": 560.15, 
	 "num_atms": 33, 
	 "gaussian": { 
		 "optdone": 1, 
		 "sigma_profile": "yes", 
		 "theory": "DFT", 
		 "functional": "B3LYP", 
		 "basiset": "6-31G**", 
		 "properties": { 
			 "R2extent": 7545.9448, 
			 "electric_dipole_moment_norm": 3.6079194919, 
			 "electric_quadrupole_moment_norm": 24.3102477429, 
			 "total_energy": -1292.12861616, 
			 "HOMO_LUMO_gap": 0.15465, 
			 "cosmo_polarized_energy": -12.46, 
			 "cosmo_cavitation_energy": 38.95, 
			 "cosmo_dispersion_energy": -28.64, 
			 "cosmo_repulsion_energy": 2.07, 
			 "cosmo_total_nonelectrostatic_energy": 12.38, 
			 "SMD_solvation_energy": 6.23 
		},
		"coords": [
			{
				"x": -3.840346101,
				"y": -3.2627793328,
				"z": 2.0611955679,
				"element": "C" 
			},
			{
				"x": -2.8406405037,
				"y": -2.3273561463,
				"z": 1.4295170003,
				"element": "C" 
			},
			{
				"x": -3.3450935491,
				"y": -1.2453369901,
				"z": 0.7977321659,
				"element": "N" 
			},
			{
				"x": -2.5248535641,
				"y": -0.3697021938,
				"z": 0.2134361589,
				"element": "C" 
			},
			{
				"x": -3.2149255805,
				"y": 0.7911888561,
				"z": -0.4555645551,
				"element": "C" 
			},
			{
				"x": -1.108552978,
				"y": -0.5402821896,
				"z": 0.2336340845,
				"element": "C" 
			},
			{
				"x": -0.2257381653,
				"y": 0.4328058517,
				"z": -0.4136720671,
				"element": "C" 
			},
			{
				"x": -0.5872217572,
				"y": 1.4389559398,
				"z": -1.0078225372,
				"element": "O" 
			},
			{
				"x": 1.1805153088,
				"y": 0.1480150874,
				"z": -0.3234479596,
				"element": "N" 
			},
			{
				"x": 2.1981482842,
				"y": 0.9682068214,
				"z": -0.8857045848,
				"element": "C" 
			},
			{
				"x": 3.4799173632,
				"y": 0.4464679502,
				"z": -0.6434409617,
				"element": "C" 
			},
			{
				"x": 3.4201304549,
				"y": -1.057400544,
				"z": 0.2796095227,
				"element": "S" 
			},
			{
				"x": 1.6701130004,
				"y": -0.9671107551,
				"z": 0.3290571146,
				"element": "C" 
			},
			{
				"x": 0.8457910932,
				"y": -1.8846315267,
				"z": 0.9392860031,
				"element": "C" 
			},
			{
				"x": 1.4133978585,
				"y": -3.0115303462,
				"z": 1.594462309,
				"element": "C" 
			},
			{
				"x": 1.8806633525,
				"y": -3.9346380764,
				"z": 2.1310342655,
				"element": "N" 
			},
			{
				"x": -0.5837660954,
				"y": -1.6794503168,
				"z": 0.8989901065,
				"element": "C" 
			},
			{
				"x": -1.4771140324,
				"y": -2.5771306339,
				"z": 1.5011063829,
				"element": "C" 
			},
			{
				"x": 4.6287510139,
				"y": 1.0848925459,
				"z": -1.1025191818,
				"element": "C" 
			},
			{
				"x": 4.4839092051,
				"y": 2.2719353366,
				"z": -1.819598777,
				"element": "C" 
			},
			{
				"x": 3.2114334457,
				"y": 2.7965725097,
				"z": -2.0640870346,
				"element": "C" 
			},
			{
				"x": 2.0572428378,
				"y": 2.1599630108,
				"z": -1.605723224,
				"element": "C" 
			},
			{
				"x": -3.7584995612,
				"y": -4.2701975838,
				"z": 1.6381345372,
				"element": "H" 
			},
			{
				"x": -4.8509406252,
				"y": -2.8890700089,
				"z": 1.8922065627,
				"element": "H" 
			},
			{
				"x": -3.6697033514,
				"y": -3.3508748836,
				"z": 3.1399449807,
				"element": "H" 
			},
			{
				"x": -2.8899812434,
				"y": 1.7470603863,
				"z": -0.0356856191,
				"element": "H" 
			},
			{
				"x": -4.2898670183,
				"y": 0.6691448502,
				"z": -0.3172558033,
				"element": "H" 
			},
			{
				"x": -2.9780428131,
				"y": 0.8382080698,
				"z": -1.521986795,
				"element": "H" 
			},
			{
				"x": -1.099529742,
				"y": -3.4549269074,
				"z": 2.0154435535,
				"element": "H" 
			},
			{
				"x": 5.6102564156,
				"y": 0.6664052092,
				"z": -0.9053966351,
				"element": "H" 
			},
			{
				"x": 5.3657248033,
				"y": 2.7869332152,
				"z": -2.1872722327,
				"element": "H" 
			},
			{
				"x": 3.1093503611,
				"y": 3.7212353115,
				"z": -2.6232185587,
				"element": "H" 
			},
			{
				"x": 1.075271883,
				"y": 2.5644274839,
				"z": -1.7939937892,
				"element": "H" 
			}
		],
		 "valence_orbital": [ 
			{
				"type": "occ",
				"energy": -0.27941,
				"method": "rhf"
			},
			{
				"type": "occ",
				"energy": -0.26769,
				"method": "rhf"
			},
			{
				"type": "occ",
				"energy": -0.26012,
				"method": "rhf"
			},
			{
				"type": "occ",
				"energy": -0.25972,
				"method": "rhf"
			},
			{
				"type": "occ",
				"energy": -0.22012,
				"method": "rhf"
			},
			{
				"type": "unocc",
				"energy": -0.06547,
				"method": "rhf"
			},
			{
				"type": "unocc",
				"energy": -0.06208,
				"method": "rhf"
			},
			{
				"type": "unocc",
				"energy": -0.02802,
				"method": "rhf"
			},
			{
				"type": "unocc",
				"energy": -0.02238,
				"method": "rhf"
			},
			{
				"type": "unocc",
				"energy": -0.01853,
				"method": "rhf"
			}
		],
		"cosmo_sigma_profile": { 
			"-0.025": 0.0,
			"-0.024": 0.0,
			"-0.023": 0.0,
			"-0.022": 0.0,
			"-0.021": 0.0,
			"-0.02": 0.0,
			"-0.019": 0.0,
			"-0.018": 0.0,
			"-0.017": 0.0,
			"-0.016": 0.0,
			"-0.015": 0.0,
			"-0.014": 0.0,
			"-0.013": 0.0,
			"-0.012": 0.0,
			"-0.011": 0.0,
			"-0.01": 0.0607893310897,
			"-0.009": 1.37203243053,
			"-0.008": 2.8224246241,
			"-0.007": 5.39871137328,
			"-0.006": 13.2838809035,
			"-0.005": 19.3427049711,
			"-0.004": 24.3391597338,
			"-0.003": 27.3542277544,
			"-0.002": 31.6084316421,
			"-0.001": 36.9538635875,
			"0.0": 37.3481690356,
			"0.001": 27.3350879022,
			"0.002": 20.7260780448,
			"0.003": 15.5905552776,
			"0.004": 9.75681048616,
			"0.005": 5.59326361737,
			"0.006": 5.33554741115,
			"0.007": 5.33464834191,
			"0.008": 5.75409310629,
			"0.009": 6.15769963132,
			"0.01": 5.19443769688,
			"0.011": 4.10923464045,
			"0.012": 3.51062858365,
			"0.013": 2.07834713228,
			"0.014": 0.5745797035,
			"0.015": 0.0295308236128,
			"0.016": 0.0,
			"0.017": 0.0,
			"0.018": 0.0,
			"0.019": 0.0,
			"0.02": 0.0,
			"0.021": 0.0,
			"0.022": 0.0,
			"0.023": 0.0,
			"0.024": 0.0,
			"0.025": 0.0
		}
	}
}
