{
	 "smiles": "CC(N)(C(O)=O)C1=C(F)C=CC(F)=C1", 
	 "Tm": 575.15, 
	 "num_atms": 23, 
	 "gaussian": { 
		 "optdone": 1, 
		 "sigma_profile": "yes", 
		 "theory": "DFT", 
		 "functional": "B3LYP", 
		 "basiset": "6-31G**", 
		 "properties": { 
			 "R2extent": 3194.5931, 
			 "electric_dipole_moment_norm": 4.56626689868, 
			 "electric_quadrupole_moment_norm": 15.0027493474, 
			 "total_energy": -753.257686901, 
			 "HOMO_LUMO_gap": 0.2088, 
			 "cosmo_polarized_energy": -15.81, 
			 "cosmo_cavitation_energy": 27.16, 
			 "cosmo_dispersion_energy": -19.36, 
			 "cosmo_repulsion_energy": 1.47, 
			 "cosmo_total_nonelectrostatic_energy": 9.28, 
			 "SMD_solvation_energy": 6.66 
		},
		"coords": [
			{
				"x": 0.1761485058,
				"y": -0.2147131591,
				"z": 1.8573952323,
				"element": "C" 
			},
			{
				"x": 0.2934910347,
				"y": 0.2227588789,
				"z": 0.3871608689,
				"element": "C" 
			},
			{
				"x": -0.9139031155,
				"y": 0.9446445295,
				"z": -0.0754514526,
				"element": "N" 
			},
			{
				"x": 1.4879526292,
				"y": 1.2204839646,
				"z": 0.2236599108,
				"element": "C" 
			},
			{
				"x": 1.2899792134,
				"y": 2.138463551,
				"z": -0.7366824196,
				"element": "O" 
			},
			{
				"x": 2.4995934888,
				"y": 1.1589933312,
				"z": 0.8768368636,
				"element": "O" 
			},
			{
				"x": 0.5671615372,
				"y": -0.948977608,
				"z": -0.5726107074,
				"element": "C" 
			},
			{
				"x": 1.5442980499,
				"y": -1.9222633791,
				"z": -0.3124337567,
				"element": "C" 
			},
			{
				"x": 2.2816891075,
				"y": -1.8644984096,
				"z": 0.8166003965,
				"element": "F" 
			},
			{
				"x": 1.8044195131,
				"y": -2.9761518581,
				"z": -1.1810555824,
				"element": "C" 
			},
			{
				"x": 1.0943266653,
				"y": -3.0875974596,
				"z": -2.3743559153,
				"element": "C" 
			},
			{
				"x": 0.1407428023,
				"y": -2.1191761853,
				"z": -2.6557333694,
				"element": "C" 
			},
			{
				"x": -0.5550827116,
				"y": -2.1938491708,
				"z": -3.8096846014,
				"element": "F" 
			},
			{
				"x": -0.1223189312,
				"y": -1.0651804583,
				"z": -1.7895176775,
				"element": "C" 
			},
			{
				"x": 1.1190861772,
				"y": -0.6030308139,
				"z": 2.2338026337,
				"element": "H" 
			},
			{
				"x": -0.5977104637,
				"y": -0.9818442401,
				"z": 1.9617305119,
				"element": "H" 
			},
			{
				"x": -0.104552378,
				"y": 0.6474228585,
				"z": 2.4719975529,
				"element": "H" 
			},
			{
				"x": -1.6924215231,
				"y": 0.2979010096,
				"z": -0.1814353412,
				"element": "H" 
			},
			{
				"x": -1.1914848722,
				"y": 1.6116401986,
				"z": 0.6422391197,
				"element": "H" 
			},
			{
				"x": 0.3681607211,
				"y": 2.003232559,
				"z": -1.0488302814,
				"element": "H" 
			},
			{
				"x": 2.5702767219,
				"y": -3.6938212385,
				"z": -0.9087890749,
				"element": "H" 
			},
			{
				"x": 1.2757971116,
				"y": -3.8959757139,
				"z": -3.0733721387,
				"element": "H" 
			},
			{
				"x": -0.8584492837,
				"y": -0.3283611866,
				"z": -2.0847707717,
				"element": "H" 
			}
		],
		 "valence_orbital": [ 
			{
				"type": "occ",
				"energy": -0.30757,
				"method": "rhf"
			},
			{
				"type": "occ",
				"energy": -0.29583,
				"method": "rhf"
			},
			{
				"type": "occ",
				"energy": -0.28067,
				"method": "rhf"
			},
			{
				"type": "occ",
				"energy": -0.26018,
				"method": "rhf"
			},
			{
				"type": "occ",
				"energy": -0.24399,
				"method": "rhf"
			},
			{
				"type": "unocc",
				"energy": -0.03519,
				"method": "rhf"
			},
			{
				"type": "unocc",
				"energy": -0.00939,
				"method": "rhf"
			},
			{
				"type": "unocc",
				"energy": 0.02243,
				"method": "rhf"
			},
			{
				"type": "unocc",
				"energy": 0.05895,
				"method": "rhf"
			},
			{
				"type": "unocc",
				"energy": 0.08,
				"method": "rhf"
			}
		],
		"cosmo_sigma_profile": { 
			"-0.025": 0.0,
			"-0.024": 0.0,
			"-0.023": 0.0,
			"-0.022": 0.0,
			"-0.021": 0.0,
			"-0.02": 0.0,
			"-0.019": 0.0,
			"-0.018": 0.0,
			"-0.017": 0.0,
			"-0.016": 0.0,
			"-0.015": 0.0,
			"-0.014": 0.0,
			"-0.013": 0.0682737904772,
			"-0.012": 2.69769452828,
			"-0.011": 3.69346924523,
			"-0.01": 4.65656906488,
			"-0.009": 4.45323321522,
			"-0.008": 6.86189570181,
			"-0.007": 7.62057023343,
			"-0.006": 9.18060194288,
			"-0.005": 9.91385509791,
			"-0.004": 10.8251612152,
			"-0.003": 9.16818876497,
			"-0.002": 11.4302807123,
			"-0.001": 13.3812928241,
			"0.0": 21.2792197093,
			"0.001": 19.9426294603,
			"0.002": 15.4045371148,
			"0.003": 11.382213678,
			"0.004": 16.0506849062,
			"0.005": 7.0183006468,
			"0.006": 3.23947303432,
			"0.007": 3.20551902095,
			"0.008": 3.13619466088,
			"0.009": 3.97329337333,
			"0.01": 5.73765608149,
			"0.011": 5.17463647457,
			"0.012": 4.65901863156,
			"0.013": 1.62868096203,
			"0.014": 0.0484952957721,
			"0.015": 0.0,
			"0.016": 0.0,
			"0.017": 0.0,
			"0.018": 0.0,
			"0.019": 0.0,
			"0.02": 0.0,
			"0.021": 0.0,
			"0.022": 0.0,
			"0.023": 0.0,
			"0.024": 0.0,
			"0.025": 0.0
		}
	}
}
