{
	 "smiles": "CCN(CC)S(=O)(=O)C1=CC(N)=C(OC(C)C)C=C1", 
	 "Tm": 363.15, 
	 "num_atms": 41, 
	 "gaussian": { 
		 "optdone": 1, 
		 "sigma_profile": "yes", 
		 "theory": "DFT", 
		 "functional": "B3LYP", 
		 "basiset": "6-31G**", 
		 "properties": { 
			 "R2extent": 8229.249, 
			 "electric_dipole_moment_norm": 6.11780226143, 
			 "electric_quadrupole_moment_norm": 25.4133505949, 
			 "total_energy": -1241.94863699, 
			 "HOMO_LUMO_gap": 0.18817, 
			 "cosmo_polarized_energy": -17.74, 
			 "cosmo_cavitation_energy": 43.25, 
			 "cosmo_dispersion_energy": -29.95, 
			 "cosmo_repulsion_energy": 2.32, 
			 "cosmo_total_nonelectrostatic_energy": 15.62, 
			 "SMD_solvation_energy": 6.83 
		},
		"coords": [
			{
				"x": -3.3121755819,
				"y": 2.0391726969,
				"z": 2.1989803117,
				"element": "C" 
			},
			{
				"x": -4.3535215849,
				"y": 1.8624131386,
				"z": 1.0880138286,
				"element": "C" 
			},
			{
				"x": -3.8000730359,
				"y": 1.8357065162,
				"z": -0.2709583008,
				"element": "N" 
			},
			{
				"x": -3.3540906315,
				"y": 3.0922936856,
				"z": -0.8897148815,
				"element": "C" 
			},
			{
				"x": -4.4688738468,
				"y": 3.8076942719,
				"z": -1.6560134512,
				"element": "C" 
			},
			{
				"x": -3.5234539831,
				"y": 0.3896698042,
				"z": -1.0602353439,
				"element": "S" 
			},
			{
				"x": -3.5442253913,
				"y": 0.6955200945,
				"z": -2.4957385417,
				"element": "O" 
			},
			{
				"x": -4.4316775724,
				"y": -0.594830693,
				"z": -0.4616393589,
				"element": "O" 
			},
			{
				"x": -1.8505725805,
				"y": -0.1315111192,
				"z": -0.6709972979,
				"element": "C" 
			},
			{
				"x": -0.7975412981,
				"y": 0.2930579785,
				"z": -1.4879217619,
				"element": "C" 
			},
			{
				"x": 0.517116769,
				"y": -0.066622081,
				"z": -1.1849262504,
				"element": "C" 
			},
			{
				"x": 1.5994511082,
				"y": 0.3693554122,
				"z": -1.9412657507,
				"element": "N" 
			},
			{
				"x": 0.7559538933,
				"y": -0.8747190743,
				"z": -0.0414002363,
				"element": "C" 
			},
			{
				"x": 2.072845179,
				"y": -1.1975874654,
				"z": 0.1396118939,
				"element": "O" 
			},
			{
				"x": 2.490662879,
				"y": -2.0008233485,
				"z": 1.2613879342,
				"element": "C" 
			},
			{
				"x": 2.5669333366,
				"y": -1.1498698661,
				"z": 2.5288549365,
				"element": "C" 
			},
			{
				"x": 3.8398053062,
				"y": -2.5902487084,
				"z": 0.8666806131,
				"element": "C" 
			},
			{
				"x": -0.3069950084,
				"y": -1.2998564404,
				"z": 0.7549080781,
				"element": "C" 
			},
			{
				"x": -1.6202030983,
				"y": -0.9303795553,
				"z": 0.4450602598,
				"element": "C" 
			},
			{
				"x": -3.8091326809,
				"y": 2.0794912163,
				"z": 3.1744756022,
				"element": "H" 
			},
			{
				"x": -2.7428932435,
				"y": 2.9667838852,
				"z": 2.0786067109,
				"element": "H" 
			},
			{
				"x": -2.6023047098,
				"y": 1.2076089276,
				"z": 2.2092593032,
				"element": "H" 
			},
			{
				"x": -5.0834341016,
				"y": 2.6809426091,
				"z": 1.1231859893,
				"element": "H" 
			},
			{
				"x": -4.9156464442,
				"y": 0.9379925943,
				"z": 1.2302340414,
				"element": "H" 
			},
			{
				"x": -2.5175549845,
				"y": 2.8833171092,
				"z": -1.5609924961,
				"element": "H" 
			},
			{
				"x": -2.9589794423,
				"y": 3.7335738346,
				"z": -0.0929863847,
				"element": "H" 
			},
			{
				"x": -5.322407508,
				"y": 4.0240532927,
				"z": -1.00517294,
				"element": "H" 
			},
			{
				"x": -4.8133789471,
				"y": 3.1821161341,
				"z": -2.4824244142,
				"element": "H" 
			},
			{
				"x": -4.1043295206,
				"y": 4.7585123311,
				"z": -2.0609944376,
				"element": "H" 
			},
			{
				"x": -1.0085671486,
				"y": 0.8763128295,
				"z": -2.3781798684,
				"element": "H" 
			},
			{
				"x": 2.4349245494,
				"y": -0.1863882715,
				"z": -1.8222525998,
				"element": "H" 
			},
			{
				"x": 1.3926435863,
				"y": 0.5831464645,
				"z": -2.9066057973,
				"element": "H" 
			},
			{
				"x": 1.770375351,
				"y": -2.818637476,
				"z": 1.3952412367,
				"element": "H" 
			},
			{
				"x": 2.8747940806,
				"y": -1.7644486628,
				"z": 3.3809267001,
				"element": "H" 
			},
			{
				"x": 1.6022789623,
				"y": -0.6948631594,
				"z": 2.7670984953,
				"element": "H" 
			},
			{
				"x": 3.2997589575,
				"y": -0.3475967288,
				"z": 2.3980274691,
				"element": "H" 
			},
			{
				"x": 4.5670654582,
				"y": -1.7920645702,
				"z": 0.68717934,
				"element": "H" 
			},
			{
				"x": 3.74883091,
				"y": -3.1880368206,
				"z": -0.0442561704,
				"element": "H" 
			},
			{
				"x": 4.2223596675,
				"y": -3.2315679694,
				"z": 1.66625872,
				"element": "H" 
			},
			{
				"x": -0.1287869147,
				"y": -1.9319554205,
				"z": 1.616420563,
				"element": "H" 
			},
			{
				"x": -2.4500807349,
				"y": -1.2843273958,
				"z": 1.0451642565,
				"element": "H" 
			}
		],
		 "valence_orbital": [ 
			{
				"type": "occ",
				"energy": -0.28637,
				"method": "rhf"
			},
			{
				"type": "occ",
				"energy": -0.28451,
				"method": "rhf"
			},
			{
				"type": "occ",
				"energy": -0.25062,
				"method": "rhf"
			},
			{
				"type": "occ",
				"energy": -0.23022,
				"method": "rhf"
			},
			{
				"type": "occ",
				"energy": -0.20038,
				"method": "rhf"
			},
			{
				"type": "unocc",
				"energy": -0.01221,
				"method": "rhf"
			},
			{
				"type": "unocc",
				"energy": 0.00041,
				"method": "rhf"
			},
			{
				"type": "unocc",
				"energy": 0.06908,
				"method": "rhf"
			},
			{
				"type": "unocc",
				"energy": 0.07751,
				"method": "rhf"
			},
			{
				"type": "unocc",
				"energy": 0.08411,
				"method": "rhf"
			}
		],
		"cosmo_sigma_profile": { 
			"-0.025": 0.0,
			"-0.024": 0.0,
			"-0.023": 0.0,
			"-0.022": 0.0,
			"-0.021": 0.0,
			"-0.02": 0.0,
			"-0.019": 0.0,
			"-0.018": 0.0,
			"-0.017": 0.0,
			"-0.016": 0.0,
			"-0.015": 0.0,
			"-0.014": 0.0,
			"-0.013": 0.642512003803,
			"-0.012": 1.59396922567,
			"-0.011": 1.71944128993,
			"-0.01": 2.60802968788,
			"-0.009": 2.77404999458,
			"-0.008": 2.75369896695,
			"-0.007": 4.09852150375,
			"-0.006": 6.39078604585,
			"-0.005": 15.8808573664,
			"-0.004": 32.1860717635,
			"-0.003": 36.8652489473,
			"-0.002": 37.9039935698,
			"-0.001": 30.309775318,
			"0.0": 37.0260148334,
			"0.001": 27.4604488254,
			"0.002": 15.6205406079,
			"0.003": 15.4214085251,
			"0.004": 17.8860220417,
			"0.005": 8.28106153368,
			"0.006": 4.98674999216,
			"0.007": 5.11877094262,
			"0.008": 4.78414757735,
			"0.009": 4.26134938763,
			"0.01": 5.87275068981,
			"0.011": 7.42043574652,
			"0.012": 6.86300449748,
			"0.013": 1.65901685437,
			"0.014": 0.483862338574,
			"0.015": 0.0,
			"0.016": 0.0,
			"0.017": 0.0,
			"0.018": 0.0,
			"0.019": 0.0,
			"0.02": 0.0,
			"0.021": 0.0,
			"0.022": 0.0,
			"0.023": 0.0,
			"0.024": 0.0,
			"0.025": 0.0
		}
	}
}
