{
	 "smiles": "COC(=O)C1=CC2=C(S1)C1=C(SC2)C=CC(Cl)=C1", 
	 "Tm": 432.15, 
	 "num_atms": 27, 
	 "gaussian": { 
		 "optdone": 1, 
		 "sigma_profile": "yes", 
		 "theory": "DFT", 
		 "functional": "B3LYP", 
		 "basiset": "6-31G**", 
		 "properties": { 
			 "R2extent": 7887.2989, 
			 "electric_dipole_moment_norm": 3.75140288559, 
			 "electric_quadrupole_moment_norm": 15.5701503255, 
			 "total_energy": -1907.83145589, 
			 "HOMO_LUMO_gap": 0.141, 
			 "cosmo_polarized_energy": -10.97, 
			 "cosmo_cavitation_energy": 36.28, 
			 "cosmo_dispersion_energy": -27.66, 
			 "cosmo_repulsion_energy": 2.03, 
			 "cosmo_total_nonelectrostatic_energy": 10.66, 
			 "SMD_solvation_energy": 6.26 
		},
		"coords": [
			{
				"x": -0.6118470625,
				"y": -0.4430142445,
				"z": -5.5867589627,
				"element": "C" 
			},
			{
				"x": -0.7602611795,
				"y": -0.5257676884,
				"z": -4.1599654694,
				"element": "O" 
			},
			{
				"x": -0.0408213405,
				"y": 0.3796734112,
				"z": -3.4576736868,
				"element": "C" 
			},
			{
				"x": 0.683952529,
				"y": 1.2139669954,
				"z": -3.9670932754,
				"element": "O" 
			},
			{
				"x": -0.244627379,
				"y": 0.2289038503,
				"z": -2.0112102866,
				"element": "C" 
			},
			{
				"x": -1.0303561345,
				"y": -0.6698987264,
				"z": -1.3254236683,
				"element": "C" 
			},
			{
				"x": -0.9619929446,
				"y": -0.5031117517,
				"z": 0.0806632811,
				"element": "C" 
			},
			{
				"x": -0.1188703027,
				"y": 0.5306660587,
				"z": 0.4554399196,
				"element": "C" 
			},
			{
				"x": 0.6078181874,
				"y": 1.2941728557,
				"z": -0.9304707673,
				"element": "S" 
			},
			{
				"x": 0.1675274309,
				"y": 0.9235818087,
				"z": 1.8326029708,
				"element": "C" 
			},
			{
				"x": -0.0976710499,
				"y": 0.0185557853,
				"z": 2.891365467,
				"element": "C" 
			},
			{
				"x": -0.7489188962,
				"y": -1.6131142248,
				"z": 2.6027519676,
				"element": "S" 
			},
			{
				"x": -1.7470955641,
				"y": -1.2856888024,
				"z": 1.0957375982,
				"element": "C" 
			},
			{
				"x": 0.2253647154,
				"y": 0.3765072636,
				"z": 4.2047122648,
				"element": "C" 
			},
			{
				"x": 0.8010485279,
				"y": 1.6110659036,
				"z": 4.4946974611,
				"element": "C" 
			},
			{
				"x": 1.037096956,
				"y": 2.5072533639,
				"z": 3.4519539709,
				"element": "C" 
			},
			{
				"x": 1.7327720445,
				"y": 4.0810848774,
				"z": 3.8026077485,
				"element": "Cl" 
			},
			{
				"x": 0.720585484,
				"y": 2.1789435716,
				"z": 2.1394401486,
				"element": "C" 
			},
			{
				"x": -1.2472465861,
				"y": -1.2297296295,
				"z": -5.9930573956,
				"element": "H" 
			},
			{
				"x": -0.932075723,
				"y": 0.5363195877,
				"z": -5.9510877243,
				"element": "H" 
			},
			{
				"x": 0.4299943198,
				"y": -0.6029428653,
				"z": -5.8753756963,
				"element": "H" 
			},
			{
				"x": -1.6349387477,
				"y": -1.4164838158,
				"z": -1.8264622235,
				"element": "H" 
			},
			{
				"x": -2.0264514718,
				"y": -2.2694354094,
				"z": 0.7105178859,
				"element": "H" 
			},
			{
				"x": -2.6670552122,
				"y": -0.7629773359,
				"z": 1.3822475317,
				"element": "H" 
			},
			{
				"x": 0.0168108082,
				"y": -0.3181225445,
				"z": 5.0126193562,
				"element": "H" 
			},
			{
				"x": 1.0470687862,
				"y": 1.8810870637,
				"z": 5.5153385341,
				"element": "H" 
			},
			{
				"x": 0.899889805,
				"y": 2.9004046417,
				"z": 1.3494830501,
				"element": "H" 
			}
		],
		 "valence_orbital": [ 
			{
				"type": "occ",
				"energy": -0.28453,
				"method": "rhf"
			},
			{
				"type": "occ",
				"energy": -0.27999,
				"method": "rhf"
			},
			{
				"type": "occ",
				"energy": -0.26433,
				"method": "rhf"
			},
			{
				"type": "occ",
				"energy": -0.23907,
				"method": "rhf"
			},
			{
				"type": "occ",
				"energy": -0.21784,
				"method": "rhf"
			},
			{
				"type": "unocc",
				"energy": -0.07684,
				"method": "rhf"
			},
			{
				"type": "unocc",
				"energy": -0.02698,
				"method": "rhf"
			},
			{
				"type": "unocc",
				"energy": -0.01966,
				"method": "rhf"
			},
			{
				"type": "unocc",
				"energy": 0.01457,
				"method": "rhf"
			},
			{
				"type": "unocc",
				"energy": 0.02189,
				"method": "rhf"
			}
		],
		"cosmo_sigma_profile": { 
			"-0.025": 0.0,
			"-0.024": 0.0,
			"-0.023": 0.0,
			"-0.022": 0.0,
			"-0.021": 0.0,
			"-0.02": 0.0,
			"-0.019": 0.0,
			"-0.018": 0.0,
			"-0.017": 0.0,
			"-0.016": 0.0,
			"-0.015": 0.0,
			"-0.014": 0.0,
			"-0.013": 0.0,
			"-0.012": 0.0,
			"-0.011": 0.0,
			"-0.01": 0.0,
			"-0.009": 0.142266878763,
			"-0.008": 6.94647506093,
			"-0.007": 11.6055081415,
			"-0.006": 17.5541704323,
			"-0.005": 16.380377106,
			"-0.004": 20.4344509087,
			"-0.003": 18.6567601003,
			"-0.002": 17.733323295,
			"-0.001": 18.5748628379,
			"0.0": 21.3635027089,
			"0.001": 34.656907348,
			"0.002": 38.1148727286,
			"0.003": 23.0724831788,
			"0.004": 17.2546317146,
			"0.005": 11.3441802648,
			"0.006": 5.62145062124,
			"0.007": 4.19757160066,
			"0.008": 2.99257910936,
			"0.009": 1.61014530067,
			"0.01": 2.09149214457,
			"0.011": 3.73380173765,
			"0.012": 3.61996966857,
			"0.013": 0.0434375611843,
			"0.014": 0.0,
			"0.015": 0.0,
			"0.016": 0.0,
			"0.017": 0.0,
			"0.018": 0.0,
			"0.019": 0.0,
			"0.02": 0.0,
			"0.021": 0.0,
			"0.022": 0.0,
			"0.023": 0.0,
			"0.024": 0.0,
			"0.025": 0.0
		}
	}
}
