{
	 "smiles": "CC(C)(C)C1=CC=C(C=C1)C1=NOC(N)=C1", 
	 "Tm": 422.15, 
	 "num_atms": 32, 
	 "gaussian": { 
		 "optdone": 1, 
		 "sigma_profile": "yes", 
		 "theory": "DFT", 
		 "functional": "B3LYP", 
		 "basiset": "6-31G**", 
		 "properties": { 
			 "R2extent": 5992.2726, 
			 "electric_dipole_moment_norm": 3.38442145425, 
			 "electric_quadrupole_moment_norm": 28.2546458274, 
			 "total_energy": -689.722752029, 
			 "HOMO_LUMO_gap": 0.18845, 
			 "cosmo_polarized_energy": -14.54, 
			 "cosmo_cavitation_energy": 34.49, 
			 "cosmo_dispersion_energy": -24.94, 
			 "cosmo_repulsion_energy": 1.92, 
			 "cosmo_total_nonelectrostatic_energy": 11.47, 
			 "SMD_solvation_energy": 6.06 
		},
		"coords": [
			{
				"x": 1.2828475521,
				"y": -2.9046211917,
				"z": -2.42746714,
				"element": "C" 
			},
			{
				"x": 0.0520488372,
				"y": -2.3833440407,
				"z": -1.6616759001,
				"element": "C" 
			},
			{
				"x": -0.3862963236,
				"y": -3.4728619731,
				"z": -0.6539100756,
				"element": "C" 
			},
			{
				"x": -1.0856229777,
				"y": -2.1433499675,
				"z": -2.6830112852,
				"element": "C" 
			},
			{
				"x": 0.3436910418,
				"y": -1.0752133283,
				"z": -0.9056106273,
				"element": "C" 
			},
			{
				"x": 1.5935715413,
				"y": -0.4435467304,
				"z": -0.9260070003,
				"element": "C" 
			},
			{
				"x": 1.8225718158,
				"y": 0.7439314814,
				"z": -0.2285997524,
				"element": "C" 
			},
			{
				"x": 0.8061756189,
				"y": 1.3485707275,
				"z": 0.5181800029,
				"element": "C" 
			},
			{
				"x": -0.4521109698,
				"y": 0.7236567693,
				"z": 0.5463327911,
				"element": "C" 
			},
			{
				"x": -0.6706687391,
				"y": -0.457994263,
				"z": -0.1494294359,
				"element": "C" 
			},
			{
				"x": 1.0404584317,
				"y": 2.6023154231,
				"z": 1.2568724993,
				"element": "C" 
			},
			{
				"x": 0.0897189015,
				"y": 3.0980002436,
				"z": 2.0289211379,
				"element": "N" 
			},
			{
				"x": 0.6351294124,
				"y": 4.2846713718,
				"z": 2.5716206725,
				"element": "O" 
			},
			{
				"x": 1.8852639211,
				"y": 4.4438011469,
				"z": 2.1043790874,
				"element": "C" 
			},
			{
				"x": 2.5756764073,
				"y": 5.5300779073,
				"z": 2.5874782348,
				"element": "N" 
			},
			{
				"x": 2.213402381,
				"y": 3.4159193939,
				"z": 1.2620848931,
				"element": "C" 
			},
			{
				"x": 2.1192311303,
				"y": -3.1227115394,
				"z": -1.7551877459,
				"element": "H" 
			},
			{
				"x": 1.0271291176,
				"y": -3.8336339445,
				"z": -2.9472755526,
				"element": "H" 
			},
			{
				"x": 1.6270183342,
				"y": -2.1891945677,
				"z": -3.1816502977,
				"element": "H" 
			},
			{
				"x": 0.4035166011,
				"y": -3.6693031148,
				"z": 0.0785499469,
				"element": "H" 
			},
			{
				"x": -1.285699333,
				"y": -3.1810056472,
				"z": -0.1038494987,
				"element": "H" 
			},
			{
				"x": -0.6055039347,
				"y": -4.4102737351,
				"z": -1.1776927145,
				"element": "H" 
			},
			{
				"x": -2.0065251213,
				"y": -1.8096372317,
				"z": -2.1958805368,
				"element": "H" 
			},
			{
				"x": -1.3119063519,
				"y": -3.0681818587,
				"z": -3.225821961,
				"element": "H" 
			},
			{
				"x": -0.8002304535,
				"y": -1.38072996,
				"z": -3.4150826037,
				"element": "H" 
			},
			{
				"x": 2.4137954272,
				"y": -0.873140991,
				"z": -1.4894723075,
				"element": "H" 
			},
			{
				"x": 2.8097799432,
				"y": 1.1944733642,
				"z": -0.2685991187,
				"element": "H" 
			},
			{
				"x": -1.2528939585,
				"y": 1.1780910397,
				"z": 1.1198509235,
				"element": "H" 
			},
			{
				"x": -1.6576496219,
				"y": -0.9088697334,
				"z": -0.1023890902,
				"element": "H" 
			},
			{
				"x": 1.9883545675,
				"y": 6.2721987944,
				"z": 2.9441502358,
				"element": "H" 
			},
			{
				"x": 3.3216387079,
				"y": 5.8618325726,
				"z": 1.9933817063,
				"element": "H" 
			},
			{
				"x": 3.1411880942,
				"y": 3.2683735825,
				"z": 0.7337105125,
				"element": "H" 
			}
		],
		 "valence_orbital": [ 
			{
				"type": "occ",
				"energy": -0.29636,
				"method": "rhf"
			},
			{
				"type": "occ",
				"energy": -0.28966,
				"method": "rhf"
			},
			{
				"type": "occ",
				"energy": -0.24618,
				"method": "rhf"
			},
			{
				"type": "occ",
				"energy": -0.22721,
				"method": "rhf"
			},
			{
				"type": "occ",
				"energy": -0.21339,
				"method": "rhf"
			},
			{
				"type": "unocc",
				"energy": -0.02494,
				"method": "rhf"
			},
			{
				"type": "unocc",
				"energy": 0.00241,
				"method": "rhf"
			},
			{
				"type": "unocc",
				"energy": 0.03647,
				"method": "rhf"
			},
			{
				"type": "unocc",
				"energy": 0.06368,
				"method": "rhf"
			},
			{
				"type": "unocc",
				"energy": 0.08309,
				"method": "rhf"
			}
		],
		"cosmo_sigma_profile": { 
			"-0.025": 0.0,
			"-0.024": 0.0,
			"-0.023": 0.0,
			"-0.022": 0.0,
			"-0.021": 0.0,
			"-0.02": 0.0,
			"-0.019": 0.0,
			"-0.018": 0.0,
			"-0.017": 0.0,
			"-0.016": 0.0,
			"-0.015": 0.463813222522,
			"-0.014": 3.05085895428,
			"-0.013": 2.30748328073,
			"-0.012": 2.54498031235,
			"-0.011": 2.90867726595,
			"-0.01": 2.32017190648,
			"-0.009": 2.03964052908,
			"-0.008": 3.87416048701,
			"-0.007": 5.05450341443,
			"-0.006": 4.6753007049,
			"-0.005": 9.63750902181,
			"-0.004": 12.5591326117,
			"-0.003": 22.3500334408,
			"-0.002": 26.0155394418,
			"-0.001": 22.6716644689,
			"0.0": 23.9332461684,
			"0.001": 27.4240269672,
			"0.002": 20.0174832964,
			"0.003": 18.4449682934,
			"0.004": 16.2283935731,
			"0.005": 14.9477919897,
			"0.006": 6.27674166209,
			"0.007": 2.52805829029,
			"0.008": 4.95751247248,
			"0.009": 5.08603130575,
			"0.01": 2.22894646188,
			"0.011": 2.43203321273,
			"0.012": 1.71990847355,
			"0.013": 1.63946001578,
			"0.014": 1.10739666231,
			"0.015": 0.302316611231,
			"0.016": 0.0,
			"0.017": 0.0,
			"0.018": 0.0,
			"0.019": 0.0,
			"0.02": 0.0,
			"0.021": 0.0,
			"0.022": 0.0,
			"0.023": 0.0,
			"0.024": 0.0,
			"0.025": 0.0
		}
	}
}
