{
	 "smiles": "CCOC(=O)C(=CNC1=C(CC)C=CC=C1)C#N", 
	 "Tm": 398.15, 
	 "num_atms": 34, 
	 "gaussian": { 
		 "optdone": 1, 
		 "sigma_profile": "yes", 
		 "theory": "DFT", 
		 "functional": "B3LYP", 
		 "basiset": "6-31G**", 
		 "properties": { 
			 "R2extent": 7102.8761, 
			 "electric_dipole_moment_norm": 3.56012160045, 
			 "electric_quadrupole_moment_norm": 21.2015789065, 
			 "total_energy": -803.091664513, 
			 "HOMO_LUMO_gap": 0.16316, 
			 "cosmo_polarized_energy": -15.39, 
			 "cosmo_cavitation_energy": 39.18, 
			 "cosmo_dispersion_energy": -26.53, 
			 "cosmo_repulsion_energy": 2.09, 
			 "cosmo_total_nonelectrostatic_energy": 14.74, 
			 "SMD_solvation_energy": 9.19 
		},
		"coords": [
			{
				"x": -0.4419435793,
				"y": 2.6915036601,
				"z": 5.0802280347,
				"element": "C" 
			},
			{
				"x": 0.5369985931,
				"y": 3.363433194,
				"z": 4.1291928501,
				"element": "C" 
			},
			{
				"x": 0.9058509615,
				"y": 2.4801489985,
				"z": 3.043720607,
				"element": "O" 
			},
			{
				"x": 0.0825213823,
				"y": 2.4602277011,
				"z": 1.9751515494,
				"element": "C" 
			},
			{
				"x": -0.928074889,
				"y": 3.1352556063,
				"z": 1.8695940918,
				"element": "O" 
			},
			{
				"x": 0.5616901702,
				"y": 1.5237115432,
				"z": 0.9411562247,
				"element": "C" 
			},
			{
				"x": -0.1835682596,
				"y": 1.3997780993,
				"z": -0.2068801844,
				"element": "C" 
			},
			{
				"x": 0.1067931547,
				"y": 0.5749858229,
				"z": -1.2300052087,
				"element": "N" 
			},
			{
				"x": -0.5865488775,
				"y": 0.4567057752,
				"z": -2.4576601885,
				"element": "C" 
			},
			{
				"x": -0.387445395,
				"y": -0.7028647764,
				"z": -3.239210433,
				"element": "C" 
			},
			{
				"x": 0.5115818817,
				"y": -1.8394830081,
				"z": -2.7912675474,
				"element": "C" 
			},
			{
				"x": -0.1303968007,
				"y": -2.7567114445,
				"z": -1.7329688598,
				"element": "C" 
			},
			{
				"x": -1.0819543946,
				"y": -0.7985693687,
				"z": -4.4501068102,
				"element": "C" 
			},
			{
				"x": -1.9530731724,
				"y": 0.1996606047,
				"z": -4.8849464148,
				"element": "C" 
			},
			{
				"x": -2.1295153854,
				"y": 1.3404418915,
				"z": -4.1028357879,
				"element": "C" 
			},
			{
				"x": -1.4400218472,
				"y": 1.4760445758,
				"z": -2.9005913738,
				"element": "C" 
			},
			{
				"x": 1.745534207,
				"y": 0.7523229288,
				"z": 1.0989593238,
				"element": "C" 
			},
			{
				"x": 2.6923113908,
				"y": 0.0715527681,
				"z": 1.1270755771,
				"element": "N" 
			},
			{
				"x": -0.0315906521,
				"y": 1.7516641886,
				"z": 5.4608057214,
				"element": "H" 
			},
			{
				"x": -1.3888337684,
				"y": 2.4869695306,
				"z": 4.5746057103,
				"element": "H" 
			},
			{
				"x": -0.6425547198,
				"y": 3.349861361,
				"z": 5.9321458798,
				"element": "H" 
			},
			{
				"x": 0.1147961609,
				"y": 4.279734943,
				"z": 3.7098711725,
				"element": "H" 
			},
			{
				"x": 1.4841701178,
				"y": 3.5913738534,
				"z": 4.6234133911,
				"element": "H" 
			},
			{
				"x": -1.0817164884,
				"y": 2.0023523433,
				"z": -0.2818532916,
				"element": "H" 
			},
			{
				"x": 0.9178836006,
				"y": -0.0206786403,
				"z": -1.1066530919,
				"element": "H" 
			},
			{
				"x": 0.7716818105,
				"y": -2.4364915075,
				"z": -3.6715723771,
				"element": "H" 
			},
			{
				"x": 1.4716246972,
				"y": -1.4590182997,
				"z": -2.4141588387,
				"element": "H" 
			},
			{
				"x": -1.0506818216,
				"y": -3.2047650434,
				"z": -2.1197054812,
				"element": "H" 
			},
			{
				"x": -0.3868230533,
				"y": -2.2073993318,
				"z": -0.8220598623,
				"element": "H" 
			},
			{
				"x": 0.553966162,
				"y": -3.5645156878,
				"z": -1.456252084,
				"element": "H" 
			},
			{
				"x": -0.9337163342,
				"y": -1.6853777677,
				"z": -5.0610818413,
				"element": "H" 
			},
			{
				"x": -2.4787557076,
				"y": 0.0919106266,
				"z": -5.8284731701,
				"element": "H" 
			},
			{
				"x": -2.7889257774,
				"y": 2.1376172398,
				"z": -4.4321369244,
				"element": "H" 
			},
			{
				"x": -1.5507633668,
				"y": 2.3866176198,
				"z": -2.3218003631,
				"element": "H" 
			}
		],
		 "valence_orbital": [ 
			{
				"type": "occ",
				"energy": -0.29663,
				"method": "rhf"
			},
			{
				"type": "occ",
				"energy": -0.27407,
				"method": "rhf"
			},
			{
				"type": "occ",
				"energy": -0.27376,
				"method": "rhf"
			},
			{
				"type": "occ",
				"energy": -0.26139,
				"method": "rhf"
			},
			{
				"type": "occ",
				"energy": -0.21953,
				"method": "rhf"
			},
			{
				"type": "unocc",
				"energy": -0.05637,
				"method": "rhf"
			},
			{
				"type": "unocc",
				"energy": -0.01746,
				"method": "rhf"
			},
			{
				"type": "unocc",
				"energy": 0.00456,
				"method": "rhf"
			},
			{
				"type": "unocc",
				"energy": 0.02862,
				"method": "rhf"
			},
			{
				"type": "unocc",
				"energy": 0.03273,
				"method": "rhf"
			}
		],
		"cosmo_sigma_profile": { 
			"-0.025": 0.0,
			"-0.024": 0.0,
			"-0.023": 0.0,
			"-0.022": 0.0,
			"-0.021": 0.0,
			"-0.02": 0.0,
			"-0.019": 0.0,
			"-0.018": 0.0,
			"-0.017": 0.0,
			"-0.016": 0.0,
			"-0.015": 0.0,
			"-0.014": 0.1218229428,
			"-0.013": 0.416692431655,
			"-0.012": 0.678664045449,
			"-0.011": 1.25916272725,
			"-0.01": 2.10263853043,
			"-0.009": 3.6744290625,
			"-0.008": 4.33812482295,
			"-0.007": 4.27133056052,
			"-0.006": 10.1209514679,
			"-0.005": 18.3543292323,
			"-0.004": 25.8721019363,
			"-0.003": 29.3808835296,
			"-0.002": 33.1883883109,
			"-0.001": 35.1187342888,
			"0.0": 30.377969224,
			"0.001": 20.1891888361,
			"0.002": 13.3714373476,
			"0.003": 12.1417746402,
			"0.004": 12.5310596443,
			"0.005": 12.6358836823,
			"0.006": 5.49295323896,
			"0.007": 6.00867235209,
			"0.008": 6.17542699998,
			"0.009": 3.82946659824,
			"0.01": 5.02207305734,
			"0.011": 5.123148236,
			"0.012": 6.70387703713,
			"0.013": 2.7866417815,
			"0.014": 0.646422305917,
			"0.015": 0.0,
			"0.016": 0.0,
			"0.017": 0.0,
			"0.018": 0.0,
			"0.019": 0.0,
			"0.02": 0.0,
			"0.021": 0.0,
			"0.022": 0.0,
			"0.023": 0.0,
			"0.024": 0.0,
			"0.025": 0.0
		}
	}
}
