{
	 "smiles": "CC1=CC(=NO1)C(=O)NCC1=CC=C(Cl)C=C1", 
	 "Tm": 415.15, 
	 "num_atms": 28, 
	 "gaussian": { 
		 "optdone": 1, 
		 "sigma_profile": "yes", 
		 "theory": "DFT", 
		 "functional": "B3LYP", 
		 "basiset": "6-31G**", 
		 "properties": { 
			 "R2extent": 7027.6504, 
			 "electric_dipole_moment_norm": 3.23493079679, 
			 "electric_quadrupole_moment_norm": 23.5376361906, 
			 "total_energy": -1184.01628682, 
			 "HOMO_LUMO_gap": 0.19526, 
			 "cosmo_polarized_energy": -13.62, 
			 "cosmo_cavitation_energy": 35.08, 
			 "cosmo_dispersion_energy": -25.33, 
			 "cosmo_repulsion_energy": 1.99, 
			 "cosmo_total_nonelectrostatic_energy": 11.73, 
			 "SMD_solvation_energy": 6.56 
		},
		"coords": [
			{
				"x": 1.5371325945,
				"y": 5.5840309469,
				"z": 2.1680929255,
				"element": "C" 
			},
			{
				"x": 1.019848071,
				"y": 4.3591429651,
				"z": 1.498431239,
				"element": "C" 
			},
			{
				"x": -0.185732451,
				"y": 4.0013083604,
				"z": 0.9774934756,
				"element": "C" 
			},
			{
				"x": 0.0254316365,
				"y": 2.6803850991,
				"z": 0.49102604,
				"element": "C" 
			},
			{
				"x": 1.2597325516,
				"y": 2.2718157384,
				"z": 0.7106442979,
				"element": "N" 
			},
			{
				"x": 1.8947759916,
				"y": 3.3329194879,
				"z": 1.3471391165,
				"element": "O" 
			},
			{
				"x": -1.0691158115,
				"y": 1.85369968,
				"z": -0.1221727458,
				"element": "C" 
			},
			{
				"x": -2.2281408041,
				"y": 2.2303846711,
				"z": 0.0353560489,
				"element": "O" 
			},
			{
				"x": -0.7795544449,
				"y": 0.7247155362,
				"z": -0.8299380574,
				"element": "N" 
			},
			{
				"x": 0.4943481996,
				"y": 0.1183637536,
				"z": -1.2230123537,
				"element": "C" 
			},
			{
				"x": 0.7392334365,
				"y": -1.2240814463,
				"z": -0.5574751082,
				"element": "C" 
			},
			{
				"x": 0.6168838454,
				"y": -2.4142124197,
				"z": -1.2809316973,
				"element": "C" 
			},
			{
				"x": 0.8262114748,
				"y": -3.6543747456,
				"z": -0.6739544536,
				"element": "C" 
			},
			{
				"x": 1.1616970527,
				"y": -3.6941065214,
				"z": 0.6770380353,
				"element": "C" 
			},
			{
				"x": 1.4290138611,
				"y": -5.2480808955,
				"z": 1.4566536964,
				"element": "Cl" 
			},
			{
				"x": 1.2937165353,
				"y": -2.521199701,
				"z": 1.4227602707,
				"element": "C" 
			},
			{
				"x": 1.0815175392,
				"y": -1.2932409079,
				"z": 0.8004644855,
				"element": "C" 
			},
			{
				"x": 1.8955721752,
				"y": 5.3554513757,
				"z": 3.1771047951,
				"element": "H" 
			},
			{
				"x": 2.3747934016,
				"y": 6.0122071836,
				"z": 1.607749603,
				"element": "H" 
			},
			{
				"x": 0.7465047776,
				"y": 6.3330151528,
				"z": 2.2400712502,
				"element": "H" 
			},
			{
				"x": -1.1057121642,
				"y": 4.5610705954,
				"z": 0.9380730506,
				"element": "H" 
			},
			{
				"x": -1.6233921397,
				"y": 0.2549313898,
				"z": -1.1355481938,
				"element": "H" 
			},
			{
				"x": 0.4910434813,
				"y": -0.0095285088,
				"z": -2.3121977259,
				"element": "H" 
			},
			{
				"x": 1.2927138612,
				"y": 0.8153321454,
				"z": -0.9716024391,
				"element": "H" 
			},
			{
				"x": 0.3585377535,
				"y": -2.3794589888,
				"z": -2.3367271907,
				"element": "H" 
			},
			{
				"x": 0.731041535,
				"y": -4.5744805288,
				"z": -1.2398127634,
				"element": "H" 
			},
			{
				"x": 1.5633422334,
				"y": -2.5728006268,
				"z": 2.4719079248,
				"element": "H" 
			},
			{
				"x": 1.1931558069,
				"y": -0.3744087908,
				"z": 1.3685664737,
				"element": "H" 
			}
		],
		 "valence_orbital": [ 
			{
				"type": "occ",
				"energy": -0.2692,
				"method": "rhf"
			},
			{
				"type": "occ",
				"energy": -0.26482,
				"method": "rhf"
			},
			{
				"type": "occ",
				"energy": -0.26264,
				"method": "rhf"
			},
			{
				"type": "occ",
				"energy": -0.25925,
				"method": "rhf"
			},
			{
				"type": "occ",
				"energy": -0.24082,
				"method": "rhf"
			},
			{
				"type": "unocc",
				"energy": -0.04556,
				"method": "rhf"
			},
			{
				"type": "unocc",
				"energy": -0.01772,
				"method": "rhf"
			},
			{
				"type": "unocc",
				"energy": -0.01384,
				"method": "rhf"
			},
			{
				"type": "unocc",
				"energy": 0.01324,
				"method": "rhf"
			},
			{
				"type": "unocc",
				"energy": 0.03046,
				"method": "rhf"
			}
		],
		"cosmo_sigma_profile": { 
			"-0.025": 0.0,
			"-0.024": 0.0,
			"-0.023": 0.0,
			"-0.022": 0.0,
			"-0.021": 0.0,
			"-0.02": 0.0,
			"-0.019": 0.0,
			"-0.018": 0.0,
			"-0.017": 0.0,
			"-0.016": 0.0,
			"-0.015": 0.00182860324579,
			"-0.014": 0.699279867306,
			"-0.013": 1.07561173242,
			"-0.012": 1.00398692835,
			"-0.011": 0.789342131167,
			"-0.01": 0.914832507472,
			"-0.009": 1.06947825653,
			"-0.008": 2.37416184641,
			"-0.007": 9.65427703643,
			"-0.006": 19.3558537892,
			"-0.005": 16.1506836614,
			"-0.004": 18.4647238689,
			"-0.003": 21.8958241232,
			"-0.002": 24.207417867,
			"-0.001": 18.3719804917,
			"0.0": 19.493313648,
			"0.001": 21.0057615945,
			"0.002": 22.5225071135,
			"0.003": 21.1903588644,
			"0.004": 21.6700827292,
			"0.005": 12.1873691071,
			"0.006": 4.58946032972,
			"0.007": 5.31473047797,
			"0.008": 4.09136558539,
			"0.009": 1.84762865397,
			"0.01": 1.67486007508,
			"0.011": 1.75701970171,
			"0.012": 2.42500257631,
			"0.013": 5.46949031601,
			"0.014": 1.71033474862,
			"0.015": 0.00364361978256,
			"0.016": 0.0,
			"0.017": 0.0,
			"0.018": 0.0,
			"0.019": 0.0,
			"0.02": 0.0,
			"0.021": 0.0,
			"0.022": 0.0,
			"0.023": 0.0,
			"0.024": 0.0,
			"0.025": 0.0
		}
	}
}
