{
	 "smiles": "N#CC1=CC=C(C=C1)C1=NN=CO1", 
	 "Tm": 416.15, 
	 "num_atms": 18, 
	 "gaussian": { 
		 "optdone": 1, 
		 "sigma_profile": "yes", 
		 "theory": "DFT", 
		 "functional": "B3LYP", 
		 "basiset": "6-31G**", 
		 "properties": { 
			 "R2extent": 4921.8883, 
			 "electric_dipole_moment_norm": 3.79785268408, 
			 "electric_quadrupole_moment_norm": 20.0090195559, 
			 "total_energy": -585.396878263, 
			 "HOMO_LUMO_gap": 0.17516, 
			 "cosmo_polarized_energy": -14.72, 
			 "cosmo_cavitation_energy": 24.89, 
			 "cosmo_dispersion_energy": -17.83, 
			 "cosmo_repulsion_energy": 1.38, 
			 "cosmo_total_nonelectrostatic_energy": 8.43, 
			 "SMD_solvation_energy": 5.0 
		},
		"coords": [
			{
				"x": 0.1482230144,
				"y": 2.2187821145,
				"z": -1.3525833246,
				"element": "N" 
			},
			{
				"x": -0.0169204218,
				"y": 1.3249154565,
				"z": -0.626711068,
				"element": "C" 
			},
			{
				"x": -0.219260705,
				"y": 0.2228172611,
				"z": 0.2675447031,
				"element": "C" 
			},
			{
				"x": 0.88111113,
				"y": -0.5218443401,
				"z": 0.7246776933,
				"element": "C" 
			},
			{
				"x": 0.6843158187,
				"y": -1.589979764,
				"z": 1.5914650919,
				"element": "C" 
			},
			{
				"x": -0.6119680623,
				"y": -1.9265463628,
				"z": 2.0113553139,
				"element": "C" 
			},
			{
				"x": -1.7122721306,
				"y": -1.1815710066,
				"z": 1.5539554471,
				"element": "C" 
			},
			{
				"x": -1.5187153931,
				"y": -0.1144973796,
				"z": 0.6883898287,
				"element": "C" 
			},
			{
				"x": -0.8434462746,
				"y": -3.0427910333,
				"z": 2.9203166452,
				"element": "C" 
			},
			{
				"x": -1.9748716123,
				"y": -3.4754124109,
				"z": 3.3962798477,
				"element": "N" 
			},
			{
				"x": -1.6741380892,
				"y": -4.5602624139,
				"z": 4.2173087329,
				"element": "N" 
			},
			{
				"x": -0.3896928608,
				"y": -4.6945894162,
				"z": 4.1709684327,
				"element": "C" 
			},
			{
				"x": 0.217364205,
				"y": -3.7771662651,
				"z": 3.3742899597,
				"element": "O" 
			},
			{
				"x": 1.8807655999,
				"y": -0.2577879014,
				"z": 0.3973215022,
				"element": "H" 
			},
			{
				"x": 1.5327217292,
				"y": -2.1653454407,
				"z": 1.9449116666,
				"element": "H" 
			},
			{
				"x": -2.7080870644,
				"y": -1.4527697997,
				"z": 1.8865172039,
				"element": "H" 
			},
			{
				"x": -2.3644352787,
				"y": 0.4636635094,
				"z": 0.3324263948,
				"element": "H" 
			},
			{
				"x": 0.2304063956,
				"y": -5.4219148071,
				"z": 4.6717659288,
				"element": "H" 
			}
		],
		 "valence_orbital": [ 
			{
				"type": "occ",
				"energy": -0.33861,
				"method": "rhf"
			},
			{
				"type": "occ",
				"energy": -0.31813,
				"method": "rhf"
			},
			{
				"type": "occ",
				"energy": -0.29517,
				"method": "rhf"
			},
			{
				"type": "occ",
				"energy": -0.29111,
				"method": "rhf"
			},
			{
				"type": "occ",
				"energy": -0.26272,
				"method": "rhf"
			},
			{
				"type": "unocc",
				"energy": -0.08756,
				"method": "rhf"
			},
			{
				"type": "unocc",
				"energy": -0.03891,
				"method": "rhf"
			},
			{
				"type": "unocc",
				"energy": -0.01312,
				"method": "rhf"
			},
			{
				"type": "unocc",
				"energy": 0.01692,
				"method": "rhf"
			},
			{
				"type": "unocc",
				"energy": 0.02677,
				"method": "rhf"
			}
		],
		"cosmo_sigma_profile": { 
			"-0.025": 0.0,
			"-0.024": 0.0,
			"-0.023": 0.0,
			"-0.022": 0.0,
			"-0.021": 0.0,
			"-0.02": 0.0,
			"-0.019": 0.0,
			"-0.018": 0.0,
			"-0.017": 0.0,
			"-0.016": 0.0,
			"-0.015": 0.0,
			"-0.014": 0.0,
			"-0.013": 0.936095728249,
			"-0.012": 2.27916860858,
			"-0.011": 1.97351898719,
			"-0.01": 1.3452421948,
			"-0.009": 2.83837685416,
			"-0.008": 8.22322199881,
			"-0.007": 10.009492446,
			"-0.006": 9.10839520545,
			"-0.005": 10.4862901538,
			"-0.004": 12.9727531133,
			"-0.003": 14.308084885,
			"-0.002": 16.2264663311,
			"-0.001": 16.738412113,
			"0.0": 17.2910855836,
			"0.001": 16.562989838,
			"0.002": 5.7054721203,
			"0.003": 5.96569141931,
			"0.004": 3.89341872385,
			"0.005": 4.61087539434,
			"0.006": 4.10048023262,
			"0.007": 4.82233551676,
			"0.008": 6.31491325302,
			"0.009": 5.30252987035,
			"0.01": 6.14789248814,
			"0.011": 5.94273575387,
			"0.012": 4.63837333652,
			"0.013": 3.23181748251,
			"0.014": 1.1835551488,
			"0.015": 0.171759917604,
			"0.016": 0.0,
			"0.017": 0.0,
			"0.018": 0.0,
			"0.019": 0.0,
			"0.02": 0.0,
			"0.021": 0.0,
			"0.022": 0.0,
			"0.023": 0.0,
			"0.024": 0.0,
			"0.025": 0.0
		}
	}
}
