{
	 "smiles": "OC(=O)CNC(=O)C1=CC(F)=CC=C1", 
	 "Tm": 427.15, 
	 "num_atms": 22, 
	 "gaussian": { 
		 "optdone": 1, 
		 "sigma_profile": "yes", 
		 "theory": "DFT", 
		 "functional": "B3LYP", 
		 "basiset": "6-31G**", 
		 "properties": { 
			 "R2extent": 4624.2912, 
			 "electric_dipole_moment_norm": 1.28444399644, 
			 "electric_quadrupole_moment_norm": 15.1492143374, 
			 "total_energy": -728.055247276, 
			 "HOMO_LUMO_gap": 0.20341, 
			 "cosmo_polarized_energy": -16.76, 
			 "cosmo_cavitation_energy": 28.05, 
			 "cosmo_dispersion_energy": -19.77, 
			 "cosmo_repulsion_energy": 1.57, 
			 "cosmo_total_nonelectrostatic_energy": 9.85, 
			 "SMD_solvation_energy": 6.71 
		},
		"coords": [
			{
				"x": -2.5721932705,
				"y": 3.3989459266,
				"z": -0.0315635408,
				"element": "O" 
			},
			{
				"x": -1.4672710754,
				"y": 3.9157806701,
				"z": 0.5490933021,
				"element": "C" 
			},
			{
				"x": -1.4919387164,
				"y": 4.8279910882,
				"z": 1.3416812168,
				"element": "O" 
			},
			{
				"x": -0.178865782,
				"y": 3.2624693818,
				"z": 0.0555685987,
				"element": "C" 
			},
			{
				"x": -0.3494870945,
				"y": 2.0158562657,
				"z": -0.6676991592,
				"element": "N" 
			},
			{
				"x": -0.0917709794,
				"y": 0.7417725601,
				"z": -0.1933891753,
				"element": "C" 
			},
			{
				"x": -0.7266820109,
				"y": -0.2195334052,
				"z": -0.6079357788,
				"element": "O" 
			},
			{
				"x": 1.0304147923,
				"y": 0.5575425523,
				"z": 0.7907118447,
				"element": "C" 
			},
			{
				"x": 2.2318168872,
				"y": 1.274306646,
				"z": 0.7034349957,
				"element": "C" 
			},
			{
				"x": 3.2506500513,
				"y": 0.9866450583,
				"z": 1.6040212148,
				"element": "C" 
			},
			{
				"x": 4.4105385416,
				"y": 1.6688077744,
				"z": 1.5090340712,
				"element": "F" 
			},
			{
				"x": 3.1155780609,
				"y": 0.0193429457,
				"z": 2.5930444835,
				"element": "C" 
			},
			{
				"x": 1.917781882,
				"y": -0.6955169815,
				"z": 2.6650547308,
				"element": "C" 
			},
			{
				"x": 0.8855514637,
				"y": -0.4402938222,
				"z": 1.7641703732,
				"element": "C" 
			},
			{
				"x": -3.3299863675,
				"y": 3.893068567,
				"z": 0.3244381618,
				"element": "H" 
			},
			{
				"x": 0.3246412744,
				"y": 4.0153910314,
				"z": -0.5667067633,
				"element": "H" 
			},
			{
				"x": 0.4527418714,
				"y": 3.112233112,
				"z": 0.9309467765,
				"element": "H" 
			},
			{
				"x": -1.1263684296,
				"y": 2.0020583095,
				"z": -1.3189816998,
				"element": "H" 
			},
			{
				"x": 2.3991247812,
				"y": 2.0200019425,
				"z": -0.0658502642,
				"element": "H" 
			},
			{
				"x": 3.9373019812,
				"y": -0.1660701548,
				"z": 3.2761736234,
				"element": "H" 
			},
			{
				"x": 1.7967945924,
				"y": -1.4609872016,
				"z": 3.4253889889,
				"element": "H" 
			},
			{
				"x": -0.0365724535,
				"y": -1.0098122662,
				"z": 1.793163999,
				"element": "H" 
			}
		],
		 "valence_orbital": [ 
			{
				"type": "occ",
				"energy": -0.30808,
				"method": "rhf"
			},
			{
				"type": "occ",
				"energy": -0.27482,
				"method": "rhf"
			},
			{
				"type": "occ",
				"energy": -0.26522,
				"method": "rhf"
			},
			{
				"type": "occ",
				"energy": -0.25822,
				"method": "rhf"
			},
			{
				"type": "occ",
				"energy": -0.2479,
				"method": "rhf"
			},
			{
				"type": "unocc",
				"energy": -0.04449,
				"method": "rhf"
			},
			{
				"type": "unocc",
				"energy": -0.01476,
				"method": "rhf"
			},
			{
				"type": "unocc",
				"energy": -0.00554,
				"method": "rhf"
			},
			{
				"type": "unocc",
				"energy": 0.04227,
				"method": "rhf"
			},
			{
				"type": "unocc",
				"energy": 0.05815,
				"method": "rhf"
			}
		],
		"cosmo_sigma_profile": { 
			"-0.025": 0.0,
			"-0.024": 0.0,
			"-0.023": 0.0,
			"-0.022": 0.0,
			"-0.021": 0.0,
			"-0.02": 0.0,
			"-0.019": 0.379833132126,
			"-0.018": 1.22153675553,
			"-0.017": 0.732471434034,
			"-0.016": 0.693222164184,
			"-0.015": 1.24629435072,
			"-0.014": 0.468633077669,
			"-0.013": 0.58045469474,
			"-0.012": 1.21776816294,
			"-0.011": 1.89715655675,
			"-0.01": 1.18042152154,
			"-0.009": 1.85558328269,
			"-0.008": 7.41706707999,
			"-0.007": 12.4426787275,
			"-0.006": 14.9409020688,
			"-0.005": 13.3933071913,
			"-0.004": 11.6033936734,
			"-0.003": 10.4630834351,
			"-0.002": 10.3460003346,
			"-0.001": 11.2953721904,
			"0.0": 14.9793739394,
			"0.001": 15.9755942553,
			"0.002": 15.3855975953,
			"0.003": 15.3628694043,
			"0.004": 16.2920407926,
			"0.005": 6.32292873859,
			"0.006": 4.50059439673,
			"0.007": 2.91768746808,
			"0.008": 2.15863517969,
			"0.009": 2.93507759418,
			"0.01": 4.46239610249,
			"0.011": 6.89460305029,
			"0.012": 5.72323603645,
			"0.013": 5.32756084862,
			"0.014": 1.44640519591,
			"0.015": 0.0,
			"0.016": 0.0,
			"0.017": 0.0,
			"0.018": 0.0,
			"0.019": 0.0,
			"0.02": 0.0,
			"0.021": 0.0,
			"0.022": 0.0,
			"0.023": 0.0,
			"0.024": 0.0,
			"0.0": 0.0
		}
	}
}
