{
	 "smiles": "CCCCN(CCO)CCCC", 
	 "Tm": 198.15, 
	 "num_atms": 35, 
	 "gaussian": { 
		 "optdone": 1, 
		 "sigma_profile": "yes", 
		 "theory": "DFT", 
		 "functional": "B3LYP", 
		 "basiset": "6-31G**", 
		 "properties": { 
			 "R2extent": 3364.3119, 
			 "electric_dipole_moment_norm": 2.46282292299, 
			 "electric_quadrupole_moment_norm": 7.21726805169, 
			 "total_energy": -524.901427074, 
			 "HOMO_LUMO_gap": 0.29289, 
			 "cosmo_polarized_energy": -5.8, 
			 "cosmo_cavitation_energy": 34.39, 
			 "cosmo_dispersion_energy": -23.54, 
			 "cosmo_repulsion_energy": 1.94, 
			 "cosmo_total_nonelectrostatic_energy": 12.79, 
			 "SMD_solvation_energy": 5.23 
		},
		"coords": [
			{
				"x": 0.1364149073,
				"y": -2.1348012028,
				"z": -4.1663607372,
				"element": "C" 
			},
			{
				"x": -0.9100020887,
				"y": -2.0450046174,
				"z": -3.0479850135,
				"element": "C" 
			},
			{
				"x": -0.3634354152,
				"y": -1.5625283415,
				"z": -1.6934008151,
				"element": "C" 
			},
			{
				"x": 0.1044726465,
				"y": -0.1022320156,
				"z": -1.7030263173,
				"element": "C" 
			},
			{
				"x": 0.4735069772,
				"y": 0.4125279673,
				"z": -0.3771423091,
				"element": "N" 
			},
			{
				"x": 1.6811278428,
				"y": -0.2326436048,
				"z": 0.178295459,
				"element": "C" 
			},
			{
				"x": 1.3112579895,
				"y": -1.1787259273,
				"z": 1.3286550805,
				"element": "C" 
			},
			{
				"x": 0.4982037479,
				"y": -0.5136466007,
				"z": 2.2766743319,
				"element": "O" 
			},
			{
				"x": 0.5548488325,
				"y": 1.8835845913,
				"z": -0.3520332201,
				"element": "C" 
			},
			{
				"x": -0.7975021625,
				"y": 2.6025186792,
				"z": -0.4629179198,
				"element": "C" 
			},
			{
				"x": -1.8093871999,
				"y": 2.2204539723,
				"z": 0.6243985146,
				"element": "C" 
			},
			{
				"x": -3.1067939671,
				"y": 3.031329841,
				"z": 0.5452440755,
				"element": "C" 
			},
			{
				"x": -0.3024999262,
				"y": -2.5443868212,
				"z": -5.0820669488,
				"element": "H" 
			},
			{
				"x": 0.5581245776,
				"y": -1.1557469759,
				"z": -4.4155053373,
				"element": "H" 
			},
			{
				"x": 0.9674361525,
				"y": -2.7883940761,
				"z": -3.876242067,
				"element": "H" 
			},
			{
				"x": -1.3608162414,
				"y": -3.0347518944,
				"z": -2.9043962734,
				"element": "H" 
			},
			{
				"x": -1.7289823806,
				"y": -1.3843002993,
				"z": -3.3644604447,
				"element": "H" 
			},
			{
				"x": 0.4579182925,
				"y": -2.2229232947,
				"z": -1.3868276015,
				"element": "H" 
			},
			{
				"x": -1.1440181983,
				"y": -1.6624793117,
				"z": -0.9292434449,
				"element": "H" 
			},
			{
				"x": 0.943397281,
				"y": 0.0247992631,
				"z": -2.4130463,
				"element": "H" 
			},
			{
				"x": -0.7192185544,
				"y": 0.5098041807,
				"z": -2.0851970173,
				"element": "H" 
			},
			{
				"x": 2.2438994506,
				"y": -0.7714073723,
				"z": -0.5991958554,
				"element": "H" 
			},
			{
				"x": 2.3508800843,
				"y": 0.5390392722,
				"z": 0.5731571125,
				"element": "H" 
			},
			{
				"x": 2.2178877925,
				"y": -1.5098865532,
				"z": 1.8481479338,
				"element": "H" 
			},
			{
				"x": 0.8105265022,
				"y": -2.0776639622,
				"z": 0.9347623147,
				"element": "H" 
			},
			{
				"x": -0.189956965,
				"y": -0.090116393,
				"z": 1.7379029537,
				"element": "H" 
			},
			{
				"x": 1.2328743515,
				"y": 2.2635892454,
				"z": -1.1405542606,
				"element": "H" 
			},
			{
				"x": 1.0033413547,
				"y": 2.1604889775,
				"z": 0.6078265279,
				"element": "H" 
			},
			{
				"x": -1.2454764139,
				"y": 2.4410434179,
				"z": -1.4521333695,
				"element": "H" 
			},
			{
				"x": -0.5922036965,
				"y": 3.6805142459,
				"z": -0.4085547096,
				"element": "H" 
			},
			{
				"x": -2.0381574665,
				"y": 1.1513194163,
				"z": 0.5433807272,
				"element": "H" 
			},
			{
				"x": -1.3479410035,
				"y": 2.3614534465,
				"z": 1.6117933274,
				"element": "H" 
			},
			{
				"x": -3.6049569262,
				"y": 2.8896087028,
				"z": -0.420924491,
				"element": "H" 
			},
			{
				"x": -3.8119864313,
				"y": 2.7343535968,
				"z": 1.3282678978,
				"element": "H" 
			},
			{
				"x": -2.9134837459,
				"y": 4.104010448,
				"z": 0.6613081965,
				"element": "H" 
			}
		],
		 "valence_orbital": [ 
			{
				"type": "occ",
				"energy": -0.32394,
				"method": "rhf"
			},
			{
				"type": "occ",
				"energy": -0.3184,
				"method": "rhf"
			},
			{
				"type": "occ",
				"energy": -0.30719,
				"method": "rhf"
			},
			{
				"type": "occ",
				"energy": -0.25243,
				"method": "rhf"
			},
			{
				"type": "occ",
				"energy": -0.2165,
				"method": "rhf"
			},
			{
				"type": "unocc",
				"energy": 0.07639,
				"method": "rhf"
			},
			{
				"type": "unocc",
				"energy": 0.08819,
				"method": "rhf"
			},
			{
				"type": "unocc",
				"energy": 0.09859,
				"method": "rhf"
			},
			{
				"type": "unocc",
				"energy": 0.10164,
				"method": "rhf"
			},
			{
				"type": "unocc",
				"energy": 0.1158,
				"method": "rhf"
			}
		],
		"cosmo_sigma_profile": { 
			"-0.025": 0.0,
			"-0.024": 0.0,
			"-0.023": 0.0,
			"-0.022": 0.0,
			"-0.021": 0.0,
			"-0.02": 0.0,
			"-0.019": 0.0,
			"-0.018": 0.0,
			"-0.017": 0.0,
			"-0.016": 0.0,
			"-0.015": 0.0,
			"-0.014": 0.0,
			"-0.013": 0.0,
			"-0.012": 0.0,
			"-0.011": 0.0,
			"-0.01": 0.0,
			"-0.009": 0.0,
			"-0.008": 0.0,
			"-0.007": 0.0,
			"-0.006": 0.324729318196,
			"-0.005": 1.30141125658,
			"-0.004": 6.60477185465,
			"-0.003": 24.6608010941,
			"-0.002": 50.0237706096,
			"-0.001": 54.7323015917,
			"0.0": 52.0851252613,
			"0.001": 36.369922831,
			"0.002": 16.0236697149,
			"0.003": 3.12992651635,
			"0.004": 1.93798274326,
			"0.005": 1.22802078808,
			"0.006": 0.895442971679,
			"0.007": 1.73294847408,
			"0.008": 1.47980198392,
			"0.009": 0.85246049599,
			"0.01": 0.9282105133,
			"0.011": 1.21623508571,
			"0.012": 1.53279658193,
			"0.013": 1.70975451902,
			"0.014": 1.4308247586,
			"0.015": 2.89616872298,
			"0.016": 0.29428443113,
			"0.017": 0.0,
			"0.018": 0.0,
			"0.019": 0.0,
			"0.02": 0.0,
			"0.021": 0.0,
			"0.022": 0.0,
			"0.023": 0.0,
			"0.024": 0.0,
			"0.025": 0.0
		}
	}
}
