{
	 "smiles": "CC1=C(O)C=C(CC(O)=O)C=C1", 
	 "Tm": 379.15, 
	 "num_atms": 22, 
	 "gaussian": { 
		 "optdone": 1, 
		 "sigma_profile": "yes", 
		 "theory": "DFT", 
		 "functional": "B3LYP", 
		 "basiset": "6-31G**", 
		 "properties": { 
			 "R2extent": 3006.7353, 
			 "electric_dipole_moment_norm": 2.15301575006, 
			 "electric_quadrupole_moment_norm": 10.9234548253, 
			 "total_energy": -574.677230796, 
			 "HOMO_LUMO_gap": 0.20722, 
			 "cosmo_polarized_energy": -13.91, 
			 "cosmo_cavitation_energy": 26.46, 
			 "cosmo_dispersion_energy": -18.98, 
			 "cosmo_repulsion_energy": 1.54, 
			 "cosmo_total_nonelectrostatic_energy": 9.02, 
			 "SMD_solvation_energy": 6.05 
		},
		"coords": [
			{
				"x": 1.6229879917,
				"y": -4.4080768594,
				"z": -0.7282228777,
				"element": "C" 
			},
			{
				"x": 1.0172320913,
				"y": -3.0316548667,
				"z": -0.6367634884,
				"element": "C" 
			},
			{
				"x": 0.741895098,
				"y": -2.3017803371,
				"z": -1.8087494142,
				"element": "C" 
			},
			{
				"x": 1.0532022154,
				"y": -2.9071073568,
				"z": -2.9973056627,
				"element": "O" 
			},
			{
				"x": 0.1773262512,
				"y": -1.0277014148,
				"z": -1.7509214416,
				"element": "C" 
			},
			{
				"x": -0.1309046364,
				"y": -0.4409957162,
				"z": -0.5170655149,
				"element": "C" 
			},
			{
				"x": -0.7318900958,
				"y": 0.9542386869,
				"z": -0.4559124912,
				"element": "C" 
			},
			{
				"x": 0.3279693277,
				"y": 2.0309619262,
				"z": -0.6157755558,
				"element": "C" 
			},
			{
				"x": 0.6882342766,
				"y": 2.1891537464,
				"z": -1.9152533907,
				"element": "O" 
			},
			{
				"x": 0.8237901783,
				"y": 2.6748522635,
				"z": 0.2802193317,
				"element": "O" 
			},
			{
				"x": 0.1414964236,
				"y": -1.1513157336,
				"z": 0.6536468453,
				"element": "C" 
			},
			{
				"x": 0.7058709774,
				"y": -2.4278011405,
				"z": 0.5820288739,
				"element": "C" 
			},
			{
				"x": 0.9829020925,
				"y": -5.0875017419,
				"z": -1.3021342429,
				"element": "H" 
			},
			{
				"x": 2.5898809812,
				"y": -4.3836108003,
				"z": -1.2431317417,
				"element": "H" 
			},
			{
				"x": 1.7735218561,
				"y": -4.8351632669,
				"z": 0.266705382,
				"element": "H" 
			},
			{
				"x": 0.8266512936,
				"y": -2.311273523,
				"z": -3.7229939923,
				"element": "H" 
			},
			{
				"x": -0.0159683922,
				"y": -0.4809725568,
				"z": -2.6718705799,
				"element": "H" 
			},
			{
				"x": -1.4790706062,
				"y": 1.0814173007,
				"z": -1.2460662254,
				"element": "H" 
			},
			{
				"x": -1.2113707143,
				"y": 1.1192758612,
				"z": 0.5104373913,
				"element": "H" 
			},
			{
				"x": 1.3941048698,
				"y": 2.8575942651,
				"z": -1.9184098553,
				"element": "H" 
			},
			{
				"x": -0.0860523932,
				"y": -0.7111409638,
				"z": 1.6199706621,
				"element": "H" 
			},
			{
				"x": 0.9098909138,
				"y": -2.9726977723,
				"z": 1.5003679883,
				"element": "H" 
			}
		],
		 "valence_orbital": [ 
			{
				"type": "occ",
				"energy": -0.32976,
				"method": "rhf"
			},
			{
				"type": "occ",
				"energy": -0.31829,
				"method": "rhf"
			},
			{
				"type": "occ",
				"energy": -0.27782,
				"method": "rhf"
			},
			{
				"type": "occ",
				"energy": -0.24034,
				"method": "rhf"
			},
			{
				"type": "occ",
				"energy": -0.21781,
				"method": "rhf"
			},
			{
				"type": "unocc",
				"energy": -0.01059,
				"method": "rhf"
			},
			{
				"type": "unocc",
				"energy": 0.00963,
				"method": "rhf"
			},
			{
				"type": "unocc",
				"energy": 0.02274,
				"method": "rhf"
			},
			{
				"type": "unocc",
				"energy": 0.06905,
				"method": "rhf"
			},
			{
				"type": "unocc",
				"energy": 0.0761,
				"method": "rhf"
			}
		],
		"cosmo_sigma_profile": { 
			"-0.025": 0.0,
			"-0.024": 0.0,
			"-0.023": 0.0,
			"-0.022": 0.0,
			"-0.021": 0.0,
			"-0.02": 0.0,
			"-0.019": 0.0140265026861,
			"-0.018": 0.921097911006,
			"-0.017": 2.15273505423,
			"-0.016": 2.00480849676,
			"-0.015": 1.55482162655,
			"-0.014": 1.59755939046,
			"-0.013": 1.57126499426,
			"-0.012": 1.18024134366,
			"-0.011": 2.5548390986,
			"-0.01": 1.30645578621,
			"-0.009": 1.52338535675,
			"-0.008": 1.72624949478,
			"-0.007": 1.83486678313,
			"-0.006": 7.29838788133,
			"-0.005": 12.8680356032,
			"-0.004": 15.0816716846,
			"-0.003": 15.0730835052,
			"-0.002": 13.6213286688,
			"-0.001": 13.371244158,
			"0.0": 13.3158132798,
			"0.001": 13.1488441697,
			"0.002": 12.3444472275,
			"0.003": 11.2532123142,
			"0.004": 12.220343822,
			"0.005": 12.7956460621,
			"0.006": 10.520754183,
			"0.007": 3.71557071817,
			"0.008": 4.13810569498,
			"0.009": 4.51946297634,
			"0.01": 3.02513428623,
			"0.011": 5.33008076614,
			"0.012": 4.34964589317,
			"0.013": 0.859764873322,
			"0.014": 0.0,
			"0.015": 0.0,
			"0.016": 0.0,
			"0.017": 0.0,
			"0.018": 0.0,
			"0.019": 0.0,
			"0.02": 0.0,
			"0.021": 0.0,
			"0.022": 0.0,
			"0.023": 0.0,
			"0.024": 0.0,
			"0.025": 0.0
		}
	}
}
