{
	 "smiles": "CC1=C(C=CC(C=O)=C1)N1C=NC=N1", 
	 "Tm": 378.15, 
	 "num_atms": 23, 
	 "gaussian": { 
		 "optdone": 1, 
		 "sigma_profile": "yes", 
		 "theory": "DFT", 
		 "functional": "B3LYP", 
		 "basiset": "6-31G**", 
		 "properties": { 
			 "R2extent": 3488.8177, 
			 "electric_dipole_moment_norm": 2.91403067245, 
			 "electric_quadrupole_moment_norm": 19.9738840757, 
			 "total_energy": -625.942636409, 
			 "HOMO_LUMO_gap": 0.17883, 
			 "cosmo_polarized_energy": -13.91, 
			 "cosmo_cavitation_energy": 27.78, 
			 "cosmo_dispersion_energy": -20.06, 
			 "cosmo_repulsion_energy": 1.53, 
			 "cosmo_total_nonelectrostatic_energy": 9.25, 
			 "SMD_solvation_energy": 3.94 
		},
		"coords": [
			{
				"x": 2.3215906898,
				"y": 0.240916622,
				"z": -1.4976699742,
				"element": "C" 
			},
			{
				"x": 0.9730334225,
				"y": 0.3612144611,
				"z": -0.8263878334,
				"element": "C" 
			},
			{
				"x": 0.8007567183,
				"y": 0.7524692308,
				"z": 0.5163342317,
				"element": "C" 
			},
			{
				"x": -0.4693422374,
				"y": 0.7866030698,
				"z": 1.1145287614,
				"element": "C" 
			},
			{
				"x": -1.5945731769,
				"y": 0.455051494,
				"z": 0.3788652455,
				"element": "C" 
			},
			{
				"x": -1.4576915168,
				"y": 0.0864241045,
				"z": -0.9672888549,
				"element": "C" 
			},
			{
				"x": -2.6476010311,
				"y": -0.2671812401,
				"z": -1.7744111166,
				"element": "C" 
			},
			{
				"x": -3.7896477626,
				"y": -0.256891669,
				"z": -1.3572038449,
				"element": "O" 
			},
			{
				"x": -0.1858603148,
				"y": 0.0410887463,
				"z": -1.5436772986,
				"element": "C" 
			},
			{
				"x": 1.9102748642,
				"y": 1.1112575139,
				"z": 1.3335207613,
				"element": "N" 
			},
			{
				"x": 2.997930107,
				"y": 1.8862665766,
				"z": 1.0598652828,
				"element": "C" 
			},
			{
				"x": 3.7394477722,
				"y": 2.04558402,
				"z": 2.1374996458,
				"element": "N" 
			},
			{
				"x": 3.0484960546,
				"y": 1.3390950433,
				"z": 3.0790093838,
				"element": "C" 
			},
			{
				"x": 1.9366523162,
				"y": 0.7634188834,
				"z": 2.655472987,
				"element": "N" 
			},
			{
				"x": 2.6741934403,
				"y": 1.2009287283,
				"z": -1.8935357987,
				"element": "H" 
			},
			{
				"x": 2.2587898244,
				"y": -0.4484911762,
				"z": -2.3432716452,
				"element": "H" 
			},
			{
				"x": 3.0876388026,
				"y": -0.1327878475,
				"z": -0.8126389711,
				"element": "H" 
			},
			{
				"x": -0.540076698,
				"y": 1.071819915,
				"z": 2.1573536377,
				"element": "H" 
			},
			{
				"x": -2.5857409273,
				"y": 0.478762515,
				"z": 0.8193676491,
				"element": "H" 
			},
			{
				"x": -2.4254633519,
				"y": -0.5535497839,
				"z": -2.8267674767,
				"element": "H" 
			},
			{
				"x": -0.0878113108,
				"y": -0.2705587691,
				"z": -2.581712146,
				"element": "H" 
			},
			{
				"x": 3.1852877183,
				"y": 2.319068772,
				"z": 0.0892173358,
				"element": "H" 
			},
			{
				"x": 3.3772165973,
				"y": 1.2435907897,
				"z": 4.1047300383,
				"element": "H" 
			}
		],
		 "valence_orbital": [ 
			{
				"type": "occ",
				"energy": -0.28866,
				"method": "rhf"
			},
			{
				"type": "occ",
				"energy": -0.28448,
				"method": "rhf"
			},
			{
				"type": "occ",
				"energy": -0.27287,
				"method": "rhf"
			},
			{
				"type": "occ",
				"energy": -0.26261,
				"method": "rhf"
			},
			{
				"type": "occ",
				"energy": -0.25559,
				"method": "rhf"
			},
			{
				"type": "unocc",
				"energy": -0.07676,
				"method": "rhf"
			},
			{
				"type": "unocc",
				"energy": -0.02724,
				"method": "rhf"
			},
			{
				"type": "unocc",
				"energy": -0.00974,
				"method": "rhf"
			},
			{
				"type": "unocc",
				"energy": 0.03332,
				"method": "rhf"
			},
			{
				"type": "unocc",
				"energy": 0.04215,
				"method": "rhf"
			}
		],
		"cosmo_sigma_profile": { 
			"-0.025": 0.0,
			"-0.024": 0.0,
			"-0.023": 0.0,
			"-0.022": 0.0,
			"-0.021": 0.0,
			"-0.02": 0.0,
			"-0.019": 0.0,
			"-0.018": 0.0,
			"-0.017": 0.0,
			"-0.016": 0.0,
			"-0.015": 0.0,
			"-0.014": 0.0,
			"-0.013": 0.0,
			"-0.012": 0.0,
			"-0.011": 0.729422934165,
			"-0.01": 2.73707531711,
			"-0.009": 3.2043347697,
			"-0.008": 5.56095636156,
			"-0.007": 10.0026471424,
			"-0.006": 13.5043275127,
			"-0.005": 15.7384044854,
			"-0.004": 15.2610128116,
			"-0.003": 16.2215318028,
			"-0.002": 17.873614528,
			"-0.001": 17.3711225031,
			"0.0": 13.7459428204,
			"0.001": 16.5692653474,
			"0.002": 17.8144612844,
			"0.003": 8.60379065188,
			"0.004": 6.06678373276,
			"0.005": 3.35090459392,
			"0.006": 5.28112852266,
			"0.007": 5.44340996349,
			"0.008": 3.2544384403,
			"0.009": 3.68441877561,
			"0.01": 5.04963855103,
			"0.011": 6.34646338715,
			"0.012": 4.60144024308,
			"0.013": 2.2162206445,
			"0.014": 1.21574617955,
			"0.015": 1.14674292755,
			"0.016": 0.724595175467,
			"0.017": 0.0345574134048,
			"0.018": 0.0,
			"0.019": 0.0,
			"0.02": 0.0,
			"0.021": 0.0,
			"0.022": 0.0,
			"0.023": 0.0,
			"0.024": 0.0,
			"0.025": 0.0
		}
	}
}
