{
	 "smiles": "OC(=O)C1=C(O)C(Cl)=CC(Br)=C1", 
	 "Tm": 481.15, 
	 "num_atms": 16, 
	 "gaussian": { 
		 "optdone": 1, 
		 "sigma_profile": "yes", 
		 "theory": "DFT", 
		 "functional": "B3LYP", 
		 "basiset": "6-31G**", 
		 "properties": { 
			 "R2extent": 6112.4785, 
			 "electric_dipole_moment_norm": 5.04281684577, 
			 "electric_quadrupole_moment_norm": 24.9745313942, 
			 "total_energy": -3526.43152244, 
			 "HOMO_LUMO_gap": 0.18454, 
			 "cosmo_polarized_energy": -13.3, 
			 "cosmo_cavitation_energy": 24.91, 
			 "cosmo_dispersion_energy": -19.43, 
			 "cosmo_repulsion_energy": 1.54, 
			 "cosmo_total_nonelectrostatic_energy": 7.02, 
			 "SMD_solvation_energy": 4.35 
		},
		"coords": [
			{
				"x": -1.8414448263,
				"y": 3.2281052036,
				"z": -3.0267864725,
				"element": "O" 
			},
			{
				"x": -0.9242642087,
				"y": 3.7396493438,
				"z": -2.1886702819,
				"element": "C" 
			},
			{
				"x": -0.6735884993,
				"y": 4.9236511672,
				"z": -2.191299188,
				"element": "O" 
			},
			{
				"x": -0.2149275317,
				"y": 2.7934486653,
				"z": -1.2427488241,
				"element": "C" 
			},
			{
				"x": -0.4404991121,
				"y": 1.4064726457,
				"z": -1.1685348341,
				"element": "C" 
			},
			{
				"x": -1.3606537379,
				"y": 0.8337629374,
				"z": -1.9956575586,
				"element": "O" 
			},
			{
				"x": 0.2882632005,
				"y": 0.6448063008,
				"z": -0.2434312803,
				"element": "C" 
			},
			{
				"x": -0.0129431682,
				"y": -1.087690613,
				"z": -0.1707591224,
				"element": "Cl" 
			},
			{
				"x": 1.2273424076,
				"y": 1.2229206459,
				"z": 0.6019448936,
				"element": "C" 
			},
			{
				"x": 1.4408338432,
				"y": 2.5984801884,
				"z": 0.5176390042,
				"element": "C" 
			},
			{
				"x": 2.7249571867,
				"y": 3.4098921116,
				"z": 1.6683188677,
				"element": "Br" 
			},
			{
				"x": 0.7318596996,
				"y": 3.3741486974,
				"z": -0.389868208,
				"element": "C" 
			},
			{
				"x": -1.9285316458,
				"y": 2.2663818128,
				"z": -2.90374361,
				"element": "H" 
			},
			{
				"x": -1.4075185129,
				"y": -0.1217770437,
				"z": -1.8321384605,
				"element": "H" 
			},
			{
				"x": 1.7762118406,
				"y": 0.6111421154,
				"z": 1.3070143068,
				"element": "H" 
			},
			{
				"x": 0.8859030648,
				"y": 4.4434058214,
				"z": -0.4676792317,
				"element": "H" 
			}
		],
		 "valence_orbital": [ 
			{
				"type": "occ",
				"energy": -0.3103,
				"method": "rhf"
			},
			{
				"type": "occ",
				"energy": -0.30321,
				"method": "rhf"
			},
			{
				"type": "occ",
				"energy": -0.28406,
				"method": "rhf"
			},
			{
				"type": "occ",
				"energy": -0.27962,
				"method": "rhf"
			},
			{
				"type": "occ",
				"energy": -0.25397,
				"method": "rhf"
			},
			{
				"type": "unocc",
				"energy": -0.06943,
				"method": "rhf"
			},
			{
				"type": "unocc",
				"energy": -0.03481,
				"method": "rhf"
			},
			{
				"type": "unocc",
				"energy": -0.02702,
				"method": "rhf"
			},
			{
				"type": "unocc",
				"energy": 0.01348,
				"method": "rhf"
			},
			{
				"type": "unocc",
				"energy": 0.03684,
				"method": "rhf"
			}
		],
		"cosmo_sigma_profile": { 
			"-0.025": 0.0,
			"-0.024": 0.0,
			"-0.023": 0.0,
			"-0.022": 0.0,
			"-0.021": 0.0,
			"-0.02": 0.0,
			"-0.019": 0.0,
			"-0.018": 0.0130384718277,
			"-0.017": 0.632184490369,
			"-0.016": 0.625663677743,
			"-0.015": 1.14411480235,
			"-0.014": 0.187672715706,
			"-0.013": 0.602730563665,
			"-0.012": 1.54006571798,
			"-0.011": 0.906300190126,
			"-0.01": 1.90292942559,
			"-0.009": 3.55906220573,
			"-0.008": 3.85821104726,
			"-0.007": 4.94606047389,
			"-0.006": 6.7204509797,
			"-0.005": 7.95141759101,
			"-0.004": 10.3273284988,
			"-0.003": 12.4275703479,
			"-0.002": 17.5761758443,
			"-0.001": 22.3374002586,
			"0.0": 23.3381775179,
			"0.001": 15.9611037985,
			"0.002": 13.5741218676,
			"0.003": 15.4899777343,
			"0.004": 12.3379766902,
			"0.005": 2.44060439481,
			"0.006": 1.90568408331,
			"0.007": 2.83836697585,
			"0.008": 2.84182168482,
			"0.009": 3.09598682538,
			"0.01": 4.58823601254,
			"0.011": 5.62397271895,
			"0.012": 3.70647475609,
			"0.013": 1.46381057082,
			"0.014": 0.0272704533605,
			"0.015": 0.0,
			"0.016": 0.0,
			"0.017": 0.0,
			"0.018": 0.0,
			"0.019": 0.0,
			"0.02": 0.0,
			"0.021": 0.0,
			"0.022": 0.0,
			"0.023": 0.0,
			"0.024": 0.0,
			"0.025": 0.0
		}
	}
}
