{
	 "smiles": "CC1=CC(C(=O)CCl)=C(C)N1CCC1=CC=CC=C1", 
	 "Tm": 354.15, 
	 "num_atms": 37, 
	 "gaussian": { 
		 "optdone": 1, 
		 "sigma_profile": "yes", 
		 "theory": "DFT", 
		 "functional": "B3LYP", 
		 "basiset": "6-31G**", 
		 "properties": { 
			 "R2extent": 6390.3322, 
			 "electric_dipole_moment_norm": 5.17385902205, 
			 "electric_quadrupole_moment_norm": 9.56315024247, 
			 "total_energy": -1210.73399816, 
			 "HOMO_LUMO_gap": 0.16825, 
			 "cosmo_polarized_energy": -13.82, 
			 "cosmo_cavitation_energy": 40.7, 
			 "cosmo_dispersion_energy": -27.15, 
			 "cosmo_repulsion_energy": 2.11, 
			 "cosmo_total_nonelectrostatic_energy": 15.66, 
			 "SMD_solvation_energy": 6.82 
		},
		"coords": [
			{
				"x": 0.5561919802,
				"y": 2.9727272174,
				"z": 0.6631535925,
				"element": "C" 
			},
			{
				"x": 0.8412349394,
				"y": 1.5086953147,
				"z": 0.5497036409,
				"element": "C" 
			},
			{
				"x": 1.6684610915,
				"y": 0.7222428104,
				"z": 1.3050147999,
				"element": "C" 
			},
			{
				"x": 1.6457045543,
				"y": -0.605019991,
				"z": 0.7596068777,
				"element": "C" 
			},
			{
				"x": 2.4005942828,
				"y": -1.7610485799,
				"z": 1.2302499571,
				"element": "C" 
			},
			{
				"x": 2.3988173783,
				"y": -2.8675590601,
				"z": 0.6959805739,
				"element": "O" 
			},
			{
				"x": 3.3026304651,
				"y": -1.5772056084,
				"z": 2.4605068716,
				"element": "C" 
			},
			{
				"x": 2.3455908924,
				"y": -1.3768826908,
				"z": 3.9954291337,
				"element": "Cl" 
			},
			{
				"x": 0.7785178686,
				"y": -0.5813119713,
				"z": -0.3403217292,
				"element": "C" 
			},
			{
				"x": 0.4129304379,
				"y": -1.6763313028,
				"z": -1.2909677348,
				"element": "C" 
			},
			{
				"x": 0.2949354027,
				"y": 0.6990502873,
				"z": -0.4537966886,
				"element": "N" 
			},
			{
				"x": -0.6796150659,
				"y": 1.1555514741,
				"z": -1.4397437913,
				"element": "C" 
			},
			{
				"x": -2.1291665536,
				"y": 1.2606977616,
				"z": -0.9060806106,
				"element": "C" 
			},
			{
				"x": -2.7508194806,
				"y": -0.0579186091,
				"z": -0.5015000117,
				"element": "C" 
			},
			{
				"x": -2.5663438214,
				"y": -0.5741743706,
				"z": 0.7888896869,
				"element": "C" 
			},
			{
				"x": -3.1126064878,
				"y": -1.8069947901,
				"z": 1.1488704697,
				"element": "C" 
			},
			{
				"x": -3.8573703376,
				"y": -2.5415794809,
				"z": 0.2243343714,
				"element": "C" 
			},
			{
				"x": -4.0540587984,
				"y": -2.0353029611,
				"z": -1.0619777214,
				"element": "C" 
			},
			{
				"x": -3.5043307479,
				"y": -0.8032331494,
				"z": -1.4194829709,
				"element": "C" 
			},
			{
				"x": 1.1425755275,
				"y": 3.3859700242,
				"z": 1.487105774,
				"element": "H" 
			},
			{
				"x": -0.4978943493,
				"y": 3.1950395838,
				"z": 0.8684018866,
				"element": "H" 
			},
			{
				"x": 0.8334343369,
				"y": 3.5243523344,
				"z": -0.2444584987,
				"element": "H" 
			},
			{
				"x": 2.2278850759,
				"y": 1.0598717069,
				"z": 2.1656007119,
				"element": "H" 
			},
			{
				"x": 3.9420501651,
				"y": -0.6966351936,
				"z": 2.3747942992,
				"element": "H" 
			},
			{
				"x": 3.902690358,
				"y": -2.4776662504,
				"z": 2.5768409592,
				"element": "H" 
			},
			{
				"x": 0.7254994931,
				"y": -1.4389154803,
				"z": -2.3164897356,
				"element": "H" 
			},
			{
				"x": 0.9253342612,
				"y": -2.585830624,
				"z": -0.9811373004,
				"element": "H" 
			},
			{
				"x": -0.6657959683,
				"y": -1.8619831983,
				"z": -1.3059871459,
				"element": "H" 
			},
			{
				"x": -0.6474907705,
				"y": 0.4704045444,
				"z": -2.2892473668,
				"element": "H" 
			},
			{
				"x": -0.3618349523,
				"y": 2.1376148267,
				"z": -1.8047403971,
				"element": "H" 
			},
			{
				"x": -2.7258740884,
				"y": 1.7238715504,
				"z": -1.7011436808,
				"element": "H" 
			},
			{
				"x": -2.1446376354,
				"y": 1.9548612894,
				"z": -0.0594700247,
				"element": "H" 
			},
			{
				"x": -1.9864938361,
				"y": -0.0098959938,
				"z": 1.5144410546,
				"element": "H" 
			},
			{
				"x": -2.9551752742,
				"y": -2.1928692708,
				"z": 2.1518248132,
				"element": "H" 
			},
			{
				"x": -4.2842227136,
				"y": -3.4999797761,
				"z": 0.5051228664,
				"element": "H" 
			},
			{
				"x": -4.6384643479,
				"y": -2.5965759964,
				"z": -1.7856447019,
				"element": "H" 
			},
			{
				"x": -3.6662832818,
				"y": -0.4121363767,
				"z": -2.42168223,
				"element": "H" 
			}
		],
		 "valence_orbital": [ 
			{
				"type": "occ",
				"energy": -0.25364,
				"method": "rhf"
			},
			{
				"type": "occ",
				"energy": -0.25049,
				"method": "rhf"
			},
			{
				"type": "occ",
				"energy": -0.24006,
				"method": "rhf"
			},
			{
				"type": "occ",
				"energy": -0.23655,
				"method": "rhf"
			},
			{
				"type": "occ",
				"energy": -0.20685,
				"method": "rhf"
			},
			{
				"type": "unocc",
				"energy": -0.0386,
				"method": "rhf"
			},
			{
				"type": "unocc",
				"energy": -0.00718,
				"method": "rhf"
			},
			{
				"type": "unocc",
				"energy": -0.00501,
				"method": "rhf"
			},
			{
				"type": "unocc",
				"energy": 0.02912,
				"method": "rhf"
			},
			{
				"type": "unocc",
				"energy": 0.0438,
				"method": "rhf"
			}
		],
		"cosmo_sigma_profile": { 
			"-0.025": 0.0,
			"-0.024": 0.0,
			"-0.023": 0.0,
			"-0.022": 0.0,
			"-0.021": 0.0,
			"-0.02": 0.0,
			"-0.019": 0.0,
			"-0.018": 0.0,
			"-0.017": 0.0,
			"-0.016": 0.0,
			"-0.015": 0.0,
			"-0.014": 0.0,
			"-0.013": 0.0,
			"-0.012": 0.0,
			"-0.011": 0.0,
			"-0.01": 0.0,
			"-0.009": 0.00315623179523,
			"-0.008": 1.9651043615,
			"-0.007": 4.5644928303,
			"-0.006": 13.6950308804,
			"-0.005": 31.7918224535,
			"-0.004": 35.6797932142,
			"-0.003": 29.2611204334,
			"-0.002": 21.9748556306,
			"-0.001": 25.2036134414,
			"0.0": 24.180382198,
			"0.001": 18.4609349874,
			"0.002": 19.838348389,
			"0.003": 20.632586508,
			"0.004": 22.5218660283,
			"0.005": 18.1912913671,
			"0.006": 19.2991256941,
			"0.007": 4.57273279866,
			"0.008": 0.770071755479,
			"0.009": 2.10950142858,
			"0.01": 2.36383390889,
			"0.011": 2.17311809856,
			"0.012": 2.70495194607,
			"0.013": 2.10141476645,
			"0.014": 0.297491519312,
			"0.015": 0.0,
			"0.016": 0.0,
			"0.017": 0.0,
			"0.018": 0.0,
			"0.019": 0.0,
			"0.02": 0.0,
			"0.021": 0.0,
			"0.022": 0.0,
			"0.023": 0.0,
			"0.024": 0.0,
			"0.025": 0.0
		}
	}
}
