{
	 "smiles": "CC1=NN(C(C)=C1S(Cl)(=O)=O)C(C)(C)C", 
	 "Tm": 342.15, 
	 "num_atms": 30, 
	 "gaussian": { 
		 "optdone": 1, 
		 "sigma_profile": "yes", 
		 "theory": "DFT", 
		 "functional": "B3LYP", 
		 "basiset": "6-31G**", 
		 "properties": { 
			 "R2extent": 4763.3711, 
			 "electric_dipole_moment_norm": 6.48224227332, 
			 "electric_quadrupole_moment_norm": 11.4676121913, 
			 "total_energy": -1470.26790067, 
			 "HOMO_LUMO_gap": 0.18643, 
			 "cosmo_polarized_energy": -10.84, 
			 "cosmo_cavitation_energy": 34.54, 
			 "cosmo_dispersion_energy": -24.47, 
			 "cosmo_repulsion_energy": 1.87, 
			 "cosmo_total_nonelectrostatic_energy": 11.94, 
			 "SMD_solvation_energy": 4.29 
		},
		"coords": [
			{
				"x": 0.0365909942,
				"y": -3.2143839263,
				"z": -1.6828911609,
				"element": "C" 
			},
			{
				"x": -0.0340962098,
				"y": -1.8720653956,
				"z": -1.026698345,
				"element": "C" 
			},
			{
				"x": 0.827092692,
				"y": -0.9205913332,
				"z": -1.3461674428,
				"element": "N" 
			},
			{
				"x": 0.5046996692,
				"y": 0.1808107826,
				"z": -0.6028982558,
				"element": "N" 
			},
			{
				"x": -0.5504693772,
				"y": -0.0467696301,
				"z": 0.222479574,
				"element": "C" 
			},
			{
				"x": -1.1807406953,
				"y": 0.9347748125,
				"z": 1.162020091,
				"element": "C" 
			},
			{
				"x": -0.9172723189,
				"y": -1.376522074,
				"z": -0.0265432966,
				"element": "C" 
			},
			{
				"x": -2.2350399693,
				"y": -2.2501451022,
				"z": 0.7013041837,
				"element": "S" 
			},
			{
				"x": -3.9294824756,
				"y": -1.5812942736,
				"z": -0.4474369459,
				"element": "Cl" 
			},
			{
				"x": -2.0960330419,
				"y": -3.6696889834,
				"z": 0.400700743,
				"element": "O" 
			},
			{
				"x": -2.4911421234,
				"y": -1.7794717599,
				"z": 2.0599105916,
				"element": "O" 
			},
			{
				"x": 1.3859581311,
				"y": 1.3921168809,
				"z": -0.7315005164,
				"element": "C" 
			},
			{
				"x": 2.2847731585,
				"y": 1.2141748561,
				"z": -1.9667361516,
				"element": "C" 
			},
			{
				"x": 2.2667776784,
				"y": 1.4987095625,
				"z": 0.5276282479,
				"element": "C" 
			},
			{
				"x": 0.5256813071,
				"y": 2.6533458391,
				"z": -0.9326839395,
				"element": "C" 
			},
			{
				"x": -0.8984146709,
				"y": -3.4553792833,
				"z": -2.1971162622,
				"element": "H" 
			},
			{
				"x": 0.2066171703,
				"y": -4.0054101633,
				"z": -0.9478515819,
				"element": "H" 
			},
			{
				"x": 0.8529573083,
				"y": -3.2109460692,
				"z": -2.4075586769,
				"element": "H" 
			},
			{
				"x": -0.437197499,
				"y": 1.5206632745,
				"z": 1.7051269849,
				"element": "H" 
			},
			{
				"x": -1.7881736376,
				"y": 0.3964494285,
				"z": 1.8886772739,
				"element": "H" 
			},
			{
				"x": -1.834527545,
				"y": 1.6298381059,
				"z": 0.6246333873,
				"element": "H" 
			},
			{
				"x": 1.6924725613,
				"y": 1.102104084,
				"z": -2.8776035898,
				"element": "H" 
			},
			{
				"x": 2.9301062735,
				"y": 0.3406332068,
				"z": -1.8761130027,
				"element": "H" 
			},
			{
				"x": 2.9083666061,
				"y": 2.1079625132,
				"z": -2.0630580314,
				"element": "H" 
			},
			{
				"x": 1.6776043705,
				"y": 1.6426220898,
				"z": 1.4368863278,
				"element": "H" 
			},
			{
				"x": 2.8683426373,
				"y": 0.5934775576,
				"z": 0.6484873028,
				"element": "H" 
			},
			{
				"x": 2.9453022361,
				"y": 2.3517834285,
				"z": 0.4318171494,
				"element": "H" 
			},
			{
				"x": 1.1837258079,
				"y": 3.4965760917,
				"z": -1.1611754773,
				"element": "H" 
			},
			{
				"x": -0.1609834809,
				"y": 2.523241454,
				"z": -1.7743511396,
				"element": "H" 
			},
			{
				"x": -0.0529955571,
				"y": 2.9235840258,
				"z": -0.0489880411,
				"element": "H" 
			}
		],
		 "valence_orbital": [ 
			{
				"type": "occ",
				"energy": -0.32357,
				"method": "rhf"
			},
			{
				"type": "occ",
				"energy": -0.30367,
				"method": "rhf"
			},
			{
				"type": "occ",
				"energy": -0.29945,
				"method": "rhf"
			},
			{
				"type": "occ",
				"energy": -0.27183,
				"method": "rhf"
			},
			{
				"type": "occ",
				"energy": -0.26421,
				"method": "rhf"
			},
			{
				"type": "unocc",
				"energy": -0.07778,
				"method": "rhf"
			},
			{
				"type": "unocc",
				"energy": -0.01052,
				"method": "rhf"
			},
			{
				"type": "unocc",
				"energy": 0.01781,
				"method": "rhf"
			},
			{
				"type": "unocc",
				"energy": 0.05798,
				"method": "rhf"
			},
			{
				"type": "unocc",
				"energy": 0.07312,
				"method": "rhf"
			}
		],
		"cosmo_sigma_profile": { 
			"-0.025": 0.0,
			"-0.024": 0.0,
			"-0.023": 0.0,
			"-0.022": 0.0,
			"-0.021": 0.0,
			"-0.02": 0.0,
			"-0.019": 0.0,
			"-0.018": 0.0,
			"-0.017": 0.0,
			"-0.016": 0.0,
			"-0.015": 0.0,
			"-0.014": 0.0,
			"-0.013": 0.0,
			"-0.012": 0.0,
			"-0.011": 0.0,
			"-0.01": 0.0,
			"-0.009": 0.00167310285937,
			"-0.008": 0.701611651489,
			"-0.007": 2.95883861975,
			"-0.006": 5.21746702132,
			"-0.005": 15.0542665229,
			"-0.004": 26.5190496177,
			"-0.003": 29.4984807293,
			"-0.002": 33.1126596417,
			"-0.001": 35.1840138232,
			"0.0": 30.6515004015,
			"0.001": 15.2764837561,
			"0.002": 11.3213691624,
			"0.003": 12.0502088902,
			"0.004": 17.7952185973,
			"0.005": 8.14260993082,
			"0.006": 6.08720539737,
			"0.007": 5.84573959458,
			"0.008": 8.0412149752,
			"0.009": 8.03731730142,
			"0.01": 1.89507105297,
			"0.011": 0.752539797968,
			"0.012": 0.178137996879,
			"0.013": 0.0,
			"0.014": 0.0,
			"0.015": 0.0,
			"0.016": 0.0,
			"0.017": 0.0,
			"0.018": 0.0,
			"0.019": 0.0,
			"0.02": 0.0,
			"0.021": 0.0,
			"0.022": 0.0,
			"0.023": 0.0,
			"0.024": 0.0,
			"0.025": 0.0
		}
	}
}
