{
	 "smiles": "CC1C(N1S(=O)(=O)C1=CC=C(C)C=C1)C1=CC=CC=C1", 
	 "Tm": 462.15, 
	 "num_atms": 37, 
	 "gaussian": { 
		 "optdone": 1, 
		 "sigma_profile": "yes", 
		 "theory": "DFT", 
		 "functional": "B3LYP", 
		 "basiset": "6-31G**", 
		 "properties": { 
			 "R2extent": 5477.9744, 
			 "electric_dipole_moment_norm": 6.80696164966, 
			 "electric_quadrupole_moment_norm": 16.2268579882, 
			 "total_energy": -1223.23575074, 
			 "HOMO_LUMO_gap": 0.21495, 
			 "cosmo_polarized_energy": -17.52, 
			 "cosmo_cavitation_energy": 40.52, 
			 "cosmo_dispersion_energy": -27.43, 
			 "cosmo_repulsion_energy": 2.09, 
			 "cosmo_total_nonelectrostatic_energy": 15.18, 
			 "SMD_solvation_energy": 3.57 
		},
		"coords": [
			{
				"x": -1.7470805356,
				"y": 0.7728008891,
				"z": 3.2419766021,
				"element": "C" 
			},
			{
				"x": -1.3324766563,
				"y": 0.4528763749,
				"z": 1.8253524352,
				"element": "C" 
			},
			{
				"x": -2.2313825491,
				"y": 0.6356885571,
				"z": 0.6399403942,
				"element": "C" 
			},
			{
				"x": -1.1299809276,
				"y": 1.5840744029,
				"z": 0.9178148708,
				"element": "N" 
			},
			{
				"x": 0.2818795221,
				"y": 1.8641045391,
				"z": 0.0047572429,
				"element": "S" 
			},
			{
				"x": -0.1763186571,
				"y": 2.3778582439,
				"z": -1.288615554,
				"element": "O" 
			},
			{
				"x": 1.1287675337,
				"y": 2.6581476524,
				"z": 0.8960789958,
				"element": "O" 
			},
			{
				"x": 1.1576507091,
				"y": 0.3194775203,
				"z": -0.2810066346,
				"element": "C" 
			},
			{
				"x": 1.0106768131,
				"y": -0.3522789663,
				"z": -1.4956453429,
				"element": "C" 
			},
			{
				"x": 1.7358043505,
				"y": -1.5213714024,
				"z": -1.7166710221,
				"element": "C" 
			},
			{
				"x": 2.6040269954,
				"y": -2.0346845557,
				"z": -0.7426804762,
				"element": "C" 
			},
			{
				"x": 3.361646578,
				"y": -3.3184467355,
				"z": -0.9815593699,
				"element": "C" 
			},
			{
				"x": 2.7425437929,
				"y": -1.3335636393,
				"z": 0.4644348531,
				"element": "C" 
			},
			{
				"x": 2.0318590836,
				"y": -0.1587029937,
				"z": 0.7000189208,
				"element": "C" 
			},
			{
				"x": -2.2821979953,
				"y": -0.3189378154,
				"z": -0.5165189805,
				"element": "C" 
			},
			{
				"x": -2.5586177595,
				"y": 0.1689735098,
				"z": -1.8031688303,
				"element": "C" 
			},
			{
				"x": -2.6801565068,
				"y": -0.7088806417,
				"z": -2.8796355763,
				"element": "C" 
			},
			{
				"x": -2.5393934169,
				"y": -2.0855449805,
				"z": -2.6833947391,
				"element": "C" 
			},
			{
				"x": -2.2772860431,
				"y": -2.5792021822,
				"z": -1.404978798,
				"element": "C" 
			},
			{
				"x": -2.1514882745,
				"y": -1.6999751201,
				"z": -0.3275695595,
				"element": "C" 
			},
			{
				"x": -2.4697578332,
				"y": 1.5927132153,
				"z": 3.2560490705,
				"element": "H" 
			},
			{
				"x": -2.2008427075,
				"y": -0.1043207419,
				"z": 3.7161436246,
				"element": "H" 
			},
			{
				"x": -0.8801694431,
				"y": 1.0747720064,
				"z": 3.8379215339,
				"element": "H" 
			},
			{
				"x": -0.6169754962,
				"y": -0.3645652012,
				"z": 1.7229051862,
				"element": "H" 
			},
			{
				"x": -3.1855183996,
				"y": 1.1310659386,
				"z": 0.8285368719,
				"element": "H" 
			},
			{
				"x": 0.3479656027,
				"y": 0.045354943,
				"z": -2.2549889417,
				"element": "H" 
			},
			{
				"x": 1.6293602853,
				"y": -2.0405609726,
				"z": -2.665378122,
				"element": "H" 
			},
			{
				"x": 4.3111173321,
				"y": -3.3304833903,
				"z": -0.4386148427,
				"element": "H" 
			},
			{
				"x": 2.7809756916,
				"y": -4.1854083063,
				"z": -0.6420483389,
				"element": "H" 
			},
			{
				"x": 3.5740186876,
				"y": -3.4659035047,
				"z": -2.044353798,
				"element": "H" 
			},
			{
				"x": 3.4279944378,
				"y": -1.7031921923,
				"z": 1.2226508199,
				"element": "H" 
			},
			{
				"x": 2.17330927,
				"y": 0.403692572,
				"z": 1.6167328794,
				"element": "H" 
			},
			{
				"x": -2.6529349573,
				"y": 1.2390437019,
				"z": -1.9581302722,
				"element": "H" 
			},
			{
				"x": -2.8869060759,
				"y": -0.3182556285,
				"z": -3.8718653262,
				"element": "H" 
			},
			{
				"x": -2.6388006355,
				"y": -2.7687041339,
				"z": -3.5221235057,
				"element": "H" 
			},
			{
				"x": -2.1736359578,
				"y": -3.6483564905,
				"z": -1.2433401969,
				"element": "H" 
			},
			{
				"x": -1.9564758578,
				"y": -2.0910044712,
				"z": 0.6667739262,
				"element": "H" 
			}
		],
		 "valence_orbital": [ 
			{
				"type": "occ",
				"energy": -0.27249,
				"method": "rhf"
			},
			{
				"type": "occ",
				"energy": -0.26676,
				"method": "rhf"
			},
			{
				"type": "occ",
				"energy": -0.25799,
				"method": "rhf"
			},
			{
				"type": "occ",
				"energy": -0.25567,
				"method": "rhf"
			},
			{
				"type": "occ",
				"energy": -0.25116,
				"method": "rhf"
			},
			{
				"type": "unocc",
				"energy": -0.03621,
				"method": "rhf"
			},
			{
				"type": "unocc",
				"energy": -0.0193,
				"method": "rhf"
			},
			{
				"type": "unocc",
				"energy": -0.01444,
				"method": "rhf"
			},
			{
				"type": "unocc",
				"energy": -0.01053,
				"method": "rhf"
			},
			{
				"type": "unocc",
				"energy": 0.05853,
				"method": "rhf"
			}
		],
		"cosmo_sigma_profile": { 
			"-0.025": 0.0,
			"-0.024": 0.0,
			"-0.023": 0.0,
			"-0.022": 0.0,
			"-0.021": 0.0,
			"-0.02": 0.0,
			"-0.019": 0.0,
			"-0.018": 0.0,
			"-0.017": 0.0,
			"-0.016": 0.0,
			"-0.015": 0.0,
			"-0.014": 0.0,
			"-0.013": 0.0,
			"-0.012": 0.0,
			"-0.011": 0.0,
			"-0.01": 0.0,
			"-0.009": 0.0,
			"-0.008": 0.17612285196,
			"-0.007": 4.10910107581,
			"-0.006": 18.1994787595,
			"-0.005": 32.0590131727,
			"-0.004": 34.8234464183,
			"-0.003": 28.3955194888,
			"-0.002": 28.2797997444,
			"-0.001": 28.9450082326,
			"0.0": 23.8902179078,
			"0.001": 17.5804827396,
			"0.002": 19.4677042387,
			"0.003": 22.2426182139,
			"0.004": 12.809004544,
			"0.005": 10.9312408039,
			"0.006": 3.69636257397,
			"0.007": 3.90544751395,
			"0.008": 5.02216119682,
			"0.009": 4.22300619649,
			"0.01": 6.64433868891,
			"0.011": 9.45023797434,
			"0.012": 6.79978579063,
			"0.013": 0.34497788196,
			"0.014": 0.0,
			"0.015": 0.0,
			"0.016": 0.0,
			"0.017": 0.0,
			"0.018": 0.0,
			"0.019": 0.0,
			"0.02": 0.0,
			"0.021": 0.0,
			"0.022": 0.0,
			"0.023": 0.0,
			"0.024": 0.0,
			"0.025": 0.0
		}
	}
}
