{
	 "smiles": "O=C1NC2=C(C=CC=C2)C2=CC=CC=C12", 
	 "Tm": 564.15, 
	 "num_atms": 24, 
	 "gaussian": { 
		 "optdone": 1, 
		 "sigma_profile": "yes", 
		 "theory": "DFT", 
		 "functional": "B3LYP", 
		 "basiset": "6-31G**", 
		 "properties": { 
			 "R2extent": 3149.4052, 
			 "electric_dipole_moment_norm": 3.30065229159, 
			 "electric_quadrupole_moment_norm": 17.2065806365, 
			 "total_energy": -630.828430063, 
			 "HOMO_LUMO_gap": 0.16956, 
			 "cosmo_polarized_energy": -12.2, 
			 "cosmo_cavitation_energy": 27.52, 
			 "cosmo_dispersion_energy": -20.89, 
			 "cosmo_repulsion_energy": 1.57, 
			 "cosmo_total_nonelectrostatic_energy": 8.2, 
			 "SMD_solvation_energy": 4.81 
		},
		"coords": [
			{
				"x": 2.9420092128,
				"y": -1.6829512829,
				"z": 1.8494504061,
				"element": "O" 
			},
			{
				"x": 1.8765811304,
				"y": -1.3319033257,
				"z": 1.3519317549,
				"element": "C" 
			},
			{
				"x": 0.8214496929,
				"y": -2.2200244158,
				"z": 1.242192894,
				"element": "N" 
			},
			{
				"x": -0.4302365449,
				"y": -1.9549037976,
				"z": 0.7032555348,
				"element": "C" 
			},
			{
				"x": -0.7110496989,
				"y": -0.6622141591,
				"z": 0.200248127,
				"element": "C" 
			},
			{
				"x": -1.9920688695,
				"y": -0.4370299364,
				"z": -0.3370914206,
				"element": "C" 
			},
			{
				"x": -2.9530609537,
				"y": -1.438442659,
				"z": -0.3775857959,
				"element": "C" 
			},
			{
				"x": -2.6540131512,
				"y": -2.7108624713,
				"z": 0.1258228912,
				"element": "C" 
			},
			{
				"x": -1.4007396049,
				"y": -2.9681720611,
				"z": 0.6629860539,
				"element": "C" 
			},
			{
				"x": 0.3413163739,
				"y": 0.3582561109,
				"z": 0.2681549019,
				"element": "C" 
			},
			{
				"x": 0.1658302218,
				"y": 1.6747711969,
				"z": -0.2036741772,
				"element": "C" 
			},
			{
				"x": 1.1897832465,
				"y": 2.6086414803,
				"z": -0.1193244177,
				"element": "C" 
			},
			{
				"x": 2.4284693772,
				"y": 2.2637434905,
				"z": 0.4394593594,
				"element": "C" 
			},
			{
				"x": 2.625514863,
				"y": 0.974489054,
				"z": 0.9107059797,
				"element": "C" 
			},
			{
				"x": 1.5972873613,
				"y": 0.0242744157,
				"z": 0.8298898681,
				"element": "C" 
			},
			{
				"x": 1.0165199877,
				"y": -3.1466347063,
				"z": 1.6005029295,
				"element": "H" 
			},
			{
				"x": -2.240115196,
				"y": 0.5424313742,
				"z": -0.7311289603,
				"element": "H" 
			},
			{
				"x": -3.9319303804,
				"y": -1.2326371381,
				"z": -0.798645211,
				"element": "H" 
			},
			{
				"x": -3.3990046766,
				"y": -3.5002929992,
				"z": 0.098515789,
				"element": "H" 
			},
			{
				"x": -1.1584745271,
				"y": -3.9520653803,
				"z": 1.0562493073,
				"element": "H" 
			},
			{
				"x": -0.7801942066,
				"y": 1.9733417347,
				"z": -0.6413378348,
				"element": "H" 
			},
			{
				"x": 1.0246687549,
				"y": 3.6158380543,
				"z": -0.4915459309,
				"element": "H" 
			},
			{
				"x": 3.224700503,
				"y": 2.9991157936,
				"z": 0.5021750084,
				"element": "H" 
			},
			{
				"x": 3.5664570844,
				"y": 0.6620316277,
				"z": 1.3507929431,
				"element": "H" 
			}
		],
		 "valence_orbital": [ 
			{
				"type": "occ",
				"energy": -0.29343,
				"method": "rhf"
			},
			{
				"type": "occ",
				"energy": -0.25829,
				"method": "rhf"
			},
			{
				"type": "occ",
				"energy": -0.25462,
				"method": "rhf"
			},
			{
				"type": "occ",
				"energy": -0.24081,
				"method": "rhf"
			},
			{
				"type": "occ",
				"energy": -0.21656,
				"method": "rhf"
			},
			{
				"type": "unocc",
				"energy": -0.047,
				"method": "rhf"
			},
			{
				"type": "unocc",
				"energy": -0.03441,
				"method": "rhf"
			},
			{
				"type": "unocc",
				"energy": -0.00509,
				"method": "rhf"
			},
			{
				"type": "unocc",
				"energy": 0.02731,
				"method": "rhf"
			},
			{
				"type": "unocc",
				"energy": 0.07341,
				"method": "rhf"
			}
		],
		"cosmo_sigma_profile": { 
			"-0.025": 0.0,
			"-0.024": 0.0,
			"-0.023": 0.0,
			"-0.022": 0.0,
			"-0.021": 0.0,
			"-0.02": 0.0,
			"-0.019": 0.0,
			"-0.018": 0.0,
			"-0.017": 0.0,
			"-0.016": 0.00214722223822,
			"-0.015": 0.776211201026,
			"-0.014": 1.26686669714,
			"-0.013": 1.6961484404,
			"-0.012": 0.705228420589,
			"-0.011": 1.11366846925,
			"-0.01": 1.2005275621,
			"-0.009": 1.94981571531,
			"-0.008": 2.97569443163,
			"-0.007": 5.62793595542,
			"-0.006": 12.3868695955,
			"-0.005": 16.1775935836,
			"-0.004": 15.1332528938,
			"-0.003": 12.1504000214,
			"-0.002": 14.4004766173,
			"-0.001": 12.454307649,
			"0.0": 14.2628011683,
			"0.001": 18.6355388696,
			"0.002": 20.1356956298,
			"0.003": 20.8831958383,
			"0.004": 20.0313726721,
			"0.005": 9.1084511478,
			"0.006": 1.32648094467,
			"0.007": 1.38147275783,
			"0.008": 1.54637187672,
			"0.009": 1.00737427029,
			"0.01": 1.23484575847,
			"0.011": 1.80644339959,
			"0.012": 1.51826403312,
			"0.013": 4.97390187666,
			"0.014": 3.78593166655,
			"0.015": 0.132862880608,
			"0.016": 0.0,
			"0.017": 0.0,
			"0.018": 0.0,
			"0.019": 0.0,
			"0.02": 0.0,
			"0.021": 0.0,
			"0.022": 0.0,
			"0.023": 0.0,
			"0.024": 0.0,
			"0.025": 0.0
		}
	}
}
