{
	 "smiles": "CC1=NOC(=N1)C1=C(N)C=CC=C1", 
	 "Tm": 394.15, 
	 "num_atms": 22, 
	 "gaussian": { 
		 "optdone": 1, 
		 "sigma_profile": "yes", 
		 "theory": "DFT", 
		 "functional": "B3LYP", 
		 "basiset": "6-31G**", 
		 "properties": { 
			 "R2extent": 3234.562, 
			 "electric_dipole_moment_norm": 3.11013932485, 
			 "electric_quadrupole_moment_norm": 12.8490438691, 
			 "total_energy": -587.844903212, 
			 "HOMO_LUMO_gap": 0.15718, 
			 "cosmo_polarized_energy": -9.49, 
			 "cosmo_cavitation_energy": 26.11, 
			 "cosmo_dispersion_energy": -19.82, 
			 "cosmo_repulsion_energy": 1.56, 
			 "cosmo_total_nonelectrostatic_energy": 7.85, 
			 "SMD_solvation_energy": 3.21 
		},
		"coords": [
			{
				"x": 3.2320176632,
				"y": -2.7449170507,
				"z": -1.6449460451,
				"element": "C" 
			},
			{
				"x": 1.7988579272,
				"y": -2.3471715706,
				"z": -1.7616647631,
				"element": "C" 
			},
			{
				"x": 0.9910059662,
				"y": -2.8990207855,
				"z": -2.6316526218,
				"element": "N" 
			},
			{
				"x": -0.235031117,
				"y": -2.2407193399,
				"z": -2.4009632189,
				"element": "O" 
			},
			{
				"x": -0.0268554903,
				"y": -1.3545322401,
				"z": -1.4057910948,
				"element": "C" 
			},
			{
				"x": 1.2166894485,
				"y": -1.3812618203,
				"z": -0.9739139521,
				"element": "N" 
			},
			{
				"x": -1.1248561121,
				"y": -0.5202917774,
				"z": -0.9594189986,
				"element": "C" 
			},
			{
				"x": -0.94458887,
				"y": 0.4154096035,
				"z": 0.1033843096,
				"element": "C" 
			},
			{
				"x": 0.2404374255,
				"y": 0.532211406,
				"z": 0.7692018946,
				"element": "N" 
			},
			{
				"x": -2.0515315684,
				"y": 1.2149984915,
				"z": 0.4713941161,
				"element": "C" 
			},
			{
				"x": -3.2725430781,
				"y": 1.0909511255,
				"z": -0.1693690476,
				"element": "C" 
			},
			{
				"x": -3.4513126712,
				"y": 0.1642024514,
				"z": -1.2087537356,
				"element": "C" 
			},
			{
				"x": -2.3812301433,
				"y": -0.6266426078,
				"z": -1.5907716293,
				"element": "C" 
			},
			{
				"x": 3.4425080466,
				"y": -3.1137586639,
				"z": -0.6363886281,
				"element": "H" 
			},
			{
				"x": 3.4666235587,
				"y": -3.5270778173,
				"z": -2.3685374868,
				"element": "H" 
			},
			{
				"x": 3.8814284283,
				"y": -1.882647916,
				"z": -1.8247069682,
				"element": "H" 
			},
			{
				"x": 1.0463197002,
				"y": 0.0239560682,
				"z": 0.4229680876,
				"element": "H" 
			},
			{
				"x": 0.3706236945,
				"y": 1.3004323992,
				"z": 1.4057845115,
				"element": "H" 
			},
			{
				"x": -1.9279231529,
				"y": 1.9327686497,
				"z": 1.2783294171,
				"element": "H" 
			},
			{
				"x": -4.1002135065,
				"y": 1.7224423791,
				"z": 0.1419375601,
				"element": "H" 
			},
			{
				"x": -4.4102707611,
				"y": 0.0696377525,
				"z": -1.7066242632,
				"element": "H" 
			},
			{
				"x": -2.4924553878,
				"y": -1.3463687369,
				"z": -2.3947974434,
				"element": "H" 
			}
		],
		 "valence_orbital": [ 
			{
				"type": "occ",
				"energy": -0.31526,
				"method": "rhf"
			},
			{
				"type": "occ",
				"energy": -0.29892,
				"method": "rhf"
			},
			{
				"type": "occ",
				"energy": -0.29472,
				"method": "rhf"
			},
			{
				"type": "occ",
				"energy": -0.24481,
				"method": "rhf"
			},
			{
				"type": "occ",
				"energy": -0.20412,
				"method": "rhf"
			},
			{
				"type": "unocc",
				"energy": -0.04694,
				"method": "rhf"
			},
			{
				"type": "unocc",
				"energy": 0.01115,
				"method": "rhf"
			},
			{
				"type": "unocc",
				"energy": 0.02408,
				"method": "rhf"
			},
			{
				"type": "unocc",
				"energy": 0.06451,
				"method": "rhf"
			},
			{
				"type": "unocc",
				"energy": 0.08572,
				"method": "rhf"
			}
		],
		"cosmo_sigma_profile": { 
			"-0.025": 0.0,
			"-0.024": 0.0,
			"-0.023": 0.0,
			"-0.022": 0.0,
			"-0.021": 0.0,
			"-0.02": 0.0,
			"-0.019": 0.0,
			"-0.018": 0.0,
			"-0.017": 0.0,
			"-0.016": 0.0,
			"-0.015": 0.0,
			"-0.014": 0.302208910468,
			"-0.013": 1.3809233988,
			"-0.012": 1.34811172098,
			"-0.011": 1.41046611771,
			"-0.01": 1.4087867182,
			"-0.009": 1.06879354803,
			"-0.008": 2.45564911662,
			"-0.007": 3.44281973203,
			"-0.006": 10.0452352976,
			"-0.005": 13.8297697437,
			"-0.004": 15.2634284007,
			"-0.003": 14.7494962515,
			"-0.002": 18.0297780368,
			"-0.001": 17.1548984142,
			"0.0": 13.750945908,
			"0.001": 12.8195340725,
			"0.002": 13.1251430252,
			"0.003": 14.4801055929,
			"0.004": 15.3177185615,
			"0.005": 13.593551353,
			"0.006": 7.99373307204,
			"0.007": 5.69625935135,
			"0.008": 2.27851974076,
			"0.009": 2.04652975893,
			"0.01": 1.7737940632,
			"0.011": 1.38954213609,
			"0.012": 1.08201464666,
			"0.013": 1.52904746598,
			"0.014": 0.366288068387,
			"0.015": 0.0,
			"0.016": 0.0,
			"0.017": 0.0,
			"0.018": 0.0,
			"0.019": 0.0,
			"0.02": 0.0,
			"0.021": 0.0,
			"0.022": 0.0,
			"0.023": 0.0,
			"0.024": 0.0,
			"0.025": 0.0
		}
	}
}
