{
	 "smiles": "CC(C)(C)C(=O)OCOC1=CC=CC=C1C(N)=O", 
	 "Tm": 368.15, 
	 "num_atms": 35, 
	 "gaussian": { 
		 "optdone": 1, 
		 "sigma_profile": "yes", 
		 "theory": "DFT", 
		 "functional": "B3LYP", 
		 "basiset": "6-31G**", 
		 "properties": { 
			 "R2extent": 5024.2609, 
			 "electric_dipole_moment_norm": 5.65911407289, 
			 "electric_quadrupole_moment_norm": 13.5236914487, 
			 "total_energy": -861.300564294, 
			 "HOMO_LUMO_gap": 0.20899, 
			 "cosmo_polarized_energy": -20.27, 
			 "cosmo_cavitation_energy": 38.02, 
			 "cosmo_dispersion_energy": -25.33, 
			 "cosmo_repulsion_energy": 1.94, 
			 "cosmo_total_nonelectrostatic_energy": 14.63, 
			 "SMD_solvation_energy": 8.33 
		},
		"coords": [
			{
				"x": -1.8430105149,
				"y": 2.0422834605,
				"z": 1.7593369378,
				"element": "C" 
			},
			{
				"x": -2.6135759825,
				"y": 1.5003235451,
				"z": 0.5443692025,
				"element": "C" 
			},
			{
				"x": -3.2052634438,
				"y": 0.1043880328,
				"z": 0.8614502473,
				"element": "C" 
			},
			{
				"x": -3.7512499588,
				"y": 2.4701141252,
				"z": 0.1619593122,
				"element": "C" 
			},
			{
				"x": -1.7281014398,
				"y": 1.3135120281,
				"z": -0.6925703701,
				"element": "C" 
			},
			{
				"x": -2.159526488,
				"y": 1.0820578563,
				"z": -1.7991434583,
				"element": "O" 
			},
			{
				"x": -0.3902495093,
				"y": 1.4297628895,
				"z": -0.4219029959,
				"element": "O" 
			},
			{
				"x": 0.509010138,
				"y": 1.1153456647,
				"z": -1.4903041019,
				"element": "C" 
			},
			{
				"x": 1.0175537612,
				"y": -0.1850196617,
				"z": -1.3512391838,
				"element": "O" 
			},
			{
				"x": 2.1249186546,
				"y": -0.3495944049,
				"z": -0.5462759786,
				"element": "C" 
			},
			{
				"x": 3.3800903443,
				"y": -0.0358812179,
				"z": -1.0753439031,
				"element": "C" 
			},
			{
				"x": 4.5361875159,
				"y": -0.2298278512,
				"z": -0.321352178,
				"element": "C" 
			},
			{
				"x": 4.4432687538,
				"y": -0.743417922,
				"z": 0.9726088691,
				"element": "C" 
			},
			{
				"x": 3.1914262291,
				"y": -1.0494017868,
				"z": 1.5024328592,
				"element": "C" 
			},
			{
				"x": 2.0134354011,
				"y": -0.8561494291,
				"z": 0.7623170161,
				"element": "C" 
			},
			{
				"x": 0.6815052657,
				"y": -1.2198552763,
				"z": 1.3625478221,
				"element": "C" 
			},
			{
				"x": 0.5722290103,
				"y": -0.9304792691,
				"z": 2.7059318121,
				"element": "N" 
			},
			{
				"x": -0.2181422805,
				"y": -1.769153555,
				"z": 0.744859001,
				"element": "O" 
			},
			{
				"x": -1.3846981481,
				"y": 3.0126690477,
				"z": 1.5453545092,
				"element": "H" 
			},
			{
				"x": -2.5352960086,
				"y": 2.1736088313,
				"z": 2.5981745057,
				"element": "H" 
			},
			{
				"x": -1.0506239306,
				"y": 1.3584402217,
				"z": 2.0721315793,
				"element": "H" 
			},
			{
				"x": -2.4172855906,
				"y": -0.6296058326,
				"z": 1.0568552622,
				"element": "H" 
			},
			{
				"x": -3.8007267725,
				"y": -0.2576947595,
				"z": 0.0190746383,
				"element": "H" 
			},
			{
				"x": -3.8548597093,
				"y": 0.1727772247,
				"z": 1.7411767993,
				"element": "H" 
			},
			{
				"x": -3.3670964307,
				"y": 3.4766269182,
				"z": -0.0375157105,
				"element": "H" 
			},
			{
				"x": -4.4713603066,
				"y": 2.5409346537,
				"z": 0.9837055844,
				"element": "H" 
			},
			{
				"x": -4.2716711355,
				"y": 2.1206109241,
				"z": -0.7322388927,
				"element": "H" 
			},
			{
				"x": 1.3061345314,
				"y": 1.8630728433,
				"z": -1.4368719553,
				"element": "H" 
			},
			{
				"x": -0.0307646454,
				"y": 1.1479780829,
				"z": -2.4351906378,
				"element": "H" 
			},
			{
				"x": 3.4327617216,
				"y": 0.3416221841,
				"z": -2.0918215723,
				"element": "H" 
			},
			{
				"x": 5.5054085384,
				"y": 0.008306586,
				"z": -0.74951444,
				"element": "H" 
			},
			{
				"x": 5.3388450393,
				"y": -0.9149508479,
				"z": 1.5616973491,
				"element": "H" 
			},
			{
				"x": 3.11804612,
				"y": -1.4711248064,
				"z": 2.5002727604,
				"element": "H" 
			},
			{
				"x": -0.3333702628,
				"y": -1.0924095174,
				"z": 3.1226174117,
				"element": "H" 
			},
			{
				"x": 1.1626515336,
				"y": -0.2322689822,
				"z": 3.1306118993,
				"element": "H" 
			}
		],
		 "valence_orbital": [ 
			{
				"type": "occ",
				"energy": -0.27363,
				"method": "rhf"
			},
			{
				"type": "occ",
				"energy": -0.26861,
				"method": "rhf"
			},
			{
				"type": "occ",
				"energy": -0.26346,
				"method": "rhf"
			},
			{
				"type": "occ",
				"energy": -0.255,
				"method": "rhf"
			},
			{
				"type": "occ",
				"energy": -0.24655,
				"method": "rhf"
			},
			{
				"type": "unocc",
				"energy": -0.03756,
				"method": "rhf"
			},
			{
				"type": "unocc",
				"energy": -0.01539,
				"method": "rhf"
			},
			{
				"type": "unocc",
				"energy": 0.01358,
				"method": "rhf"
			},
			{
				"type": "unocc",
				"energy": 0.04274,
				"method": "rhf"
			},
			{
				"type": "unocc",
				"energy": 0.07027,
				"method": "rhf"
			}
		],
		"cosmo_sigma_profile": { 
			"-0.025": 0.0,
			"-0.024": 0.0,
			"-0.023": 0.0,
			"-0.022": 0.0,
			"-0.021": 0.0,
			"-0.02": 0.0,
			"-0.019": 0.0,
			"-0.018": 0.0,
			"-0.017": 0.0,
			"-0.016": 0.0,
			"-0.015": 0.0010799683291,
			"-0.014": 0.860424001293,
			"-0.013": 2.33139878394,
			"-0.012": 2.04337921365,
			"-0.011": 1.62630571994,
			"-0.01": 2.40972936867,
			"-0.009": 2.0161268746,
			"-0.008": 2.81263589081,
			"-0.007": 9.15962916647,
			"-0.006": 15.4957550657,
			"-0.005": 16.0182414036,
			"-0.004": 17.6115024064,
			"-0.003": 25.8432173546,
			"-0.002": 24.5388355637,
			"-0.001": 23.252662264,
			"0.0": 28.1131572293,
			"0.001": 26.9009640845,
			"0.002": 17.9047171316,
			"0.003": 17.5373546395,
			"0.004": 15.29533265,
			"0.005": 6.86538975818,
			"0.006": 5.86523948292,
			"0.007": 5.62883221062,
			"0.008": 4.37845407663,
			"0.009": 2.93743538038,
			"0.01": 4.47490961392,
			"0.011": 5.79970555329,
			"0.012": 4.42529187227,
			"0.013": 3.71810133032,
			"0.014": 1.73852492001,
			"0.015": 1.42230709909,
			"0.016": 0.320065273855,
			"0.017": 0.0,
			"0.018": 0.0,
			"0.019": 0.0,
			"0.02": 0.0,
			"0.021": 0.0,
			"0.022": 0.0,
			"0.023": 0.0,
			"0.024": 0.0,
			"0.025": 0.0
		}
	}
}
