{
	 "smiles": "SC1=NN=C2SC3=C(C=CC=C3)N12", 
	 "Tm": 526.15, 
	 "num_atms": 18, 
	 "gaussian": { 
		 "optdone": 1, 
		 "sigma_profile": "yes", 
		 "theory": "DFT", 
		 "functional": "B3LYP", 
		 "basiset": "6-31G**", 
		 "properties": { 
			 "R2extent": 3676.7763, 
			 "electric_dipole_moment_norm": 5.28013755976, 
			 "electric_quadrupole_moment_norm": 17.7006523352, 
			 "total_energy": -1268.45381528, 
			 "HOMO_LUMO_gap": 0.1839, 
			 "cosmo_polarized_energy": -13.44, 
			 "cosmo_cavitation_energy": 25.67, 
			 "cosmo_dispersion_energy": -20.42, 
			 "cosmo_repulsion_energy": 1.48, 
			 "cosmo_total_nonelectrostatic_energy": 6.73, 
			 "SMD_solvation_energy": 1.43 
		},
		"coords": [
			{
				"x": -1.4760048583,
				"y": -3.961729008,
				"z": 1.2323537501,
				"element": "S" 
			},
			{
				"x": -2.1112374366,
				"y": -2.7913331639,
				"z": 0.0757224028,
				"element": "C" 
			},
			{
				"x": -3.2451602335,
				"y": -2.8906892968,
				"z": -0.5822304323,
				"element": "N" 
			},
			{
				"x": -3.3842924561,
				"y": -1.7680893468,
				"z": -1.3927066411,
				"element": "N" 
			},
			{
				"x": -2.3226260838,
				"y": -1.0417700229,
				"z": -1.1834029626,
				"element": "C" 
			},
			{
				"x": -1.7086297653,
				"y": 0.4952909735,
				"z": -1.7805474227,
				"element": "S" 
			},
			{
				"x": -0.274903865,
				"y": 0.2986324035,
				"z": -0.7413791935,
				"element": "C" 
			},
			{
				"x": -0.299298794,
				"y": -0.8945574129,
				"z": 0.0101637985,
				"element": "C" 
			},
			{
				"x": 0.7393882807,
				"y": -1.2191536099,
				"z": 0.8801226774,
				"element": "C" 
			},
			{
				"x": 1.8096795333,
				"y": -0.3301781234,
				"z": 0.9899777639,
				"element": "C" 
			},
			{
				"x": 1.8392730543,
				"y": 0.8548292253,
				"z": 0.2469878989,
				"element": "C" 
			},
			{
				"x": 0.7977846262,
				"y": 1.1792386729,
				"z": -0.6246130279,
				"element": "C" 
			},
			{
				"x": -1.4658241906,
				"y": -1.6227421131,
				"z": -0.2643710104,
				"element": "N" 
			},
			{
				"x": -2.5353795613,
				"y": -4.7792997492,
				"z": 1.081283794,
				"element": "H" 
			},
			{
				"x": 0.7171446127,
				"y": -2.1373625353,
				"z": 1.4562811828,
				"element": "H" 
			},
			{
				"x": 2.6276484324,
				"y": -0.5665795135,
				"z": 1.6627073885,
				"element": "H" 
			},
			{
				"x": 2.680506332,
				"y": 1.5333727767,
				"z": 0.3462872407,
				"element": "H" 
			},
			{
				"x": 0.822932373,
				"y": 2.099019844,
				"z": -1.1999372072,
				"element": "H" 
			}
		],
		 "valence_orbital": [ 
			{
				"type": "occ",
				"energy": -0.30965,
				"method": "rhf"
			},
			{
				"type": "occ",
				"energy": -0.26863,
				"method": "rhf"
			},
			{
				"type": "occ",
				"energy": -0.26827,
				"method": "rhf"
			},
			{
				"type": "occ",
				"energy": -0.25657,
				"method": "rhf"
			},
			{
				"type": "occ",
				"energy": -0.22303,
				"method": "rhf"
			},
			{
				"type": "unocc",
				"energy": -0.03913,
				"method": "rhf"
			},
			{
				"type": "unocc",
				"energy": -0.0301,
				"method": "rhf"
			},
			{
				"type": "unocc",
				"energy": -0.01095,
				"method": "rhf"
			},
			{
				"type": "unocc",
				"energy": -0.0031,
				"method": "rhf"
			},
			{
				"type": "unocc",
				"energy": 0.02706,
				"method": "rhf"
			}
		],
		"cosmo_sigma_profile": { 
			"-0.025": 0.0,
			"-0.024": 0.0,
			"-0.023": 0.0,
			"-0.022": 0.0,
			"-0.021": 0.0,
			"-0.02": 0.0,
			"-0.019": 0.0,
			"-0.018": 0.0,
			"-0.017": 0.0,
			"-0.016": 0.0,
			"-0.015": 0.0,
			"-0.014": 0.0,
			"-0.013": 0.647047552851,
			"-0.012": 1.56401837062,
			"-0.011": 1.43484733776,
			"-0.01": 1.33932457331,
			"-0.009": 1.73068395561,
			"-0.008": 4.01141901073,
			"-0.007": 8.77263524328,
			"-0.006": 11.4647409282,
			"-0.005": 13.1248108184,
			"-0.004": 15.5512879821,
			"-0.003": 13.5756791421,
			"-0.002": 14.307722119,
			"-0.001": 15.9581044369,
			"0.0": 17.6583545111,
			"0.001": 19.0796321864,
			"0.002": 17.3896893659,
			"0.003": 16.6819738171,
			"0.004": 7.5935499333,
			"0.005": 4.7660007969,
			"0.006": 3.60640627094,
			"0.007": 1.77492402931,
			"0.008": 1.86069234501,
			"0.009": 1.70272811496,
			"0.01": 2.34169815131,
			"0.011": 2.82206157623,
			"0.012": 3.21104890165,
			"0.013": 3.32381747559,
			"0.014": 2.55173994904,
			"0.015": 2.31162186098,
			"0.016": 0.826782661477,
			"0.017": 0.0,
			"0.018": 0.0,
			"0.019": 0.0,
			"0.02": 0.0,
			"0.021": 0.0,
			"0.022": 0.0,
			"0.023": 0.0,
			"0.024": 0.0,
			"0.025": 0.0
		}
	}
}
