{
	 "smiles": "CC1=C(CC2=CC=CC=C12)C1=CC=CC=C1", 
	 "Tm": 348.15, 
	 "num_atms": 30, 
	 "gaussian": { 
		 "optdone": 1, 
		 "sigma_profile": "yes", 
		 "theory": "DFT", 
		 "functional": "B3LYP", 
		 "basiset": "6-31G**", 
		 "properties": { 
			 "R2extent": 4550.3002, 
			 "electric_dipole_moment_norm": 0.532093525614, 
			 "electric_quadrupole_moment_norm": 8.49204860031, 
			 "total_energy": -618.150020168, 
			 "HOMO_LUMO_gap": 0.16371, 
			 "cosmo_polarized_energy": -5.87, 
			 "cosmo_cavitation_energy": 32.52, 
			 "cosmo_dispersion_energy": -23.7, 
			 "cosmo_repulsion_energy": 1.82, 
			 "cosmo_total_nonelectrostatic_energy": 10.64, 
			 "SMD_solvation_energy": 4.8 
		},
		"coords": [
			{
				"x": -1.6900549822,
				"y": -1.5189258447,
				"z": 1.2429255433,
				"element": "C" 
			},
			{
				"x": -1.0563099535,
				"y": -0.1625773943,
				"z": 1.1455521969,
				"element": "C" 
			},
			{
				"x": -0.4392982526,
				"y": 0.4197353988,
				"z": 0.0766828115,
				"element": "C" 
			},
			{
				"x": -0.0278173771,
				"y": 1.8426789994,
				"z": 0.4264569542,
				"element": "C" 
			},
			{
				"x": -0.4669865768,
				"y": 1.9920494128,
				"z": 1.8597835896,
				"element": "C" 
			},
			{
				"x": -0.3583245499,
				"y": 3.0646187264,
				"z": 2.7346865674,
				"element": "C" 
			},
			{
				"x": -0.8677842256,
				"y": 2.9313824079,
				"z": 4.0335622798,
				"element": "C" 
			},
			{
				"x": -1.4776083738,
				"y": 1.7397049809,
				"z": 4.4391117785,
				"element": "C" 
			},
			{
				"x": -1.5904367595,
				"y": 0.6585753867,
				"z": 3.5599897655,
				"element": "C" 
			},
			{
				"x": -1.0798455845,
				"y": 0.7894451066,
				"z": 2.2654982268,
				"element": "C" 
			},
			{
				"x": -0.1615513311,
				"y": -0.1587336285,
				"z": -1.2479952191,
				"element": "C" 
			},
			{
				"x": 0.2359824004,
				"y": -1.5016441687,
				"z": -1.4011765766,
				"element": "C" 
			},
			{
				"x": 0.5030232014,
				"y": -2.0350387391,
				"z": -2.6612524064,
				"element": "C" 
			},
			{
				"x": 0.3906868758,
				"y": -1.2392373634,
				"z": -3.8026058163,
				"element": "C" 
			},
			{
				"x": 0.0151802536,
				"y": 0.0992603538,
				"z": -3.6692063396,
				"element": "C" 
			},
			{
				"x": -0.2526625175,
				"y": 0.6325033317,
				"z": -2.4102240558,
				"element": "C" 
			},
			{
				"x": -1.8310144071,
				"y": -1.9761295115,
				"z": 0.2616678998,
				"element": "H" 
			},
			{
				"x": -1.0870688943,
				"y": -2.2050850247,
				"z": 1.85211687,
				"element": "H" 
			},
			{
				"x": -2.6701995032,
				"y": -1.4462014266,
				"z": 1.7288662392,
				"element": "H" 
			},
			{
				"x": 1.0532222225,
				"y": 1.9907675924,
				"z": 0.2989840955,
				"element": "H" 
			},
			{
				"x": -0.5145738328,
				"y": 2.5829597715,
				"z": -0.2237258981,
				"element": "H" 
			},
			{
				"x": 0.1123644425,
				"y": 3.9941265982,
				"z": 2.4238017932,
				"element": "H" 
			},
			{
				"x": -0.788978117,
				"y": 3.7605506879,
				"z": 4.7308955839,
				"element": "H" 
			},
			{
				"x": -1.866896344,
				"y": 1.6533638259,
				"z": 5.4498206501,
				"element": "H" 
			},
			{
				"x": -2.0635750929,
				"y": -0.2642052564,
				"z": 3.8842597625,
				"element": "H" 
			},
			{
				"x": 0.36774847,
				"y": -2.1207317996,
				"z": -0.5201432227,
				"element": "H" 
			},
			{
				"x": 0.8126737777,
				"y": -3.0728064149,
				"z": -2.749448893,
				"element": "H" 
			},
			{
				"x": 0.6011614668,
				"y": -1.6545195279,
				"z": -4.7838727146,
				"element": "H" 
			},
			{
				"x": -0.0718494205,
				"y": 0.7304980791,
				"z": -4.549282128,
				"element": "H" 
			},
			{
				"x": -0.5538070147,
				"y": 1.6724154404,
				"z": -2.3269293375,
				"element": "H" 
			}
		],
		 "valence_orbital": [ 
			{
				"type": "occ",
				"energy": -0.28333,
				"method": "rhf"
			},
			{
				"type": "occ",
				"energy": -0.25355,
				"method": "rhf"
			},
			{
				"type": "occ",
				"energy": -0.24905,
				"method": "rhf"
			},
			{
				"type": "occ",
				"energy": -0.23917,
				"method": "rhf"
			},
			{
				"type": "occ",
				"energy": -0.19808,
				"method": "rhf"
			},
			{
				"type": "unocc",
				"energy": -0.03437,
				"method": "rhf"
			},
			{
				"type": "unocc",
				"energy": -0.00026,
				"method": "rhf"
			},
			{
				"type": "unocc",
				"energy": 0.004,
				"method": "rhf"
			},
			{
				"type": "unocc",
				"energy": 0.01774,
				"method": "rhf"
			},
			{
				"type": "unocc",
				"energy": 0.06236,
				"method": "rhf"
			}
		],
		"cosmo_sigma_profile": { 
			"-0.025": 0.0,
			"-0.024": 0.0,
			"-0.023": 0.0,
			"-0.022": 0.0,
			"-0.021": 0.0,
			"-0.02": 0.0,
			"-0.019": 0.0,
			"-0.018": 0.0,
			"-0.017": 0.0,
			"-0.016": 0.0,
			"-0.015": 0.0,
			"-0.014": 0.0,
			"-0.013": 0.0,
			"-0.012": 0.0,
			"-0.011": 0.0,
			"-0.01": 0.0,
			"-0.009": 0.0,
			"-0.008": 0.0,
			"-0.007": 0.252950951637,
			"-0.006": 5.78127471303,
			"-0.005": 19.7852100198,
			"-0.004": 25.4136749834,
			"-0.003": 31.1769949731,
			"-0.002": 25.9582481117,
			"-0.001": 22.1491511289,
			"0.0": 19.1660255919,
			"0.001": 16.8801666923,
			"0.002": 16.4044045311,
			"0.003": 17.3885508798,
			"0.004": 20.282732698,
			"0.005": 17.8092627013,
			"0.006": 16.5855243348,
			"0.007": 4.51071949733,
			"0.008": 0.0,
			"0.009": 0.0,
			"0.01": 0.0,
			"0.011": 0.0,
			"0.012": 0.0,
			"0.013": 0.0,
			"0.014": 0.0,
			"0.015": 0.0,
			"0.016": 0.0,
			"0.017": 0.0,
			"0.018": 0.0,
			"0.019": 0.0,
			"0.02": 0.0,
			"0.021": 0.0,
			"0.022": 0.0,
			"0.023": 0.0,
			"0.024": 0.0,
			"0.025": 0.0
		}
	}
}
