{
	 "smiles": "CSC(SC)SC", 
	 "Tm": 289.15, 
	 "num_atms": 17, 
	 "gaussian": { 
		 "optdone": 1, 
		 "sigma_profile": "yes", 
		 "theory": "DFT", 
		 "functional": "B3LYP", 
		 "basiset": "6-31G**", 
		 "properties": { 
			 "R2extent": 1632.6959, 
			 "electric_dipole_moment_norm": 1.5451995664, 
			 "electric_quadrupole_moment_norm": 7.89661186522, 
			 "total_energy": -1353.00920429, 
			 "HOMO_LUMO_gap": 0.2242, 
			 "cosmo_polarized_energy": -7.18, 
			 "cosmo_cavitation_energy": 23.82, 
			 "cosmo_dispersion_energy": -18.39, 
			 "cosmo_repulsion_energy": 1.4, 
			 "cosmo_total_nonelectrostatic_energy": 6.83, 
			 "SMD_solvation_energy": 4.3 
		},
		"coords": [
			{
				"x": -1.876293009,
				"y": -1.5694136508,
				"z": 1.917153881,
				"element": "C" 
			},
			{
				"x": -0.6668148618,
				"y": -0.2295289467,
				"z": 1.6468610166,
				"element": "S" 
			},
			{
				"x": -0.309134859,
				"y": -0.4849956223,
				"z": -0.1444340539,
				"element": "C" 
			},
			{
				"x": 0.4591084351,
				"y": -2.1024754829,
				"z": -0.5798399992,
				"element": "S" 
			},
			{
				"x": 2.0311010181,
				"y": -2.0191916941,
				"z": 0.3421314313,
				"element": "C" 
			},
			{
				"x": 0.6295829448,
				"y": 1.0112062854,
				"z": -0.6756276486,
				"element": "S" 
			},
			{
				"x": 0.5797466619,
				"y": 0.7835909067,
				"z": -2.4858503989,
				"element": "C" 
			},
			{
				"x": -1.4476167541,
				"y": -2.5374551634,
				"z": 1.6506057484,
				"element": "H" 
			},
			{
				"x": -2.1114987455,
				"y": -1.5566839035,
				"z": 2.9837869665,
				"element": "H" 
			},
			{
				"x": -2.793454875,
				"y": -1.3949659745,
				"z": 1.3483848152,
				"element": "H" 
			},
			{
				"x": -1.2609601899,
				"y": -0.5010769041,
				"z": -0.6843744178,
				"element": "H" 
			},
			{
				"x": 2.5578454102,
				"y": -2.9529800939,
				"z": 0.1348108551,
				"element": "H" 
			},
			{
				"x": 2.6313237305,
				"y": -1.1741373437,
				"z": -0.0001190188,
				"element": "H" 
			},
			{
				"x": 1.8425406664,
				"y": -1.932979662,
				"z": 1.4138180109,
				"element": "H" 
			},
			{
				"x": -0.4425727805,
				"y": 0.8583170462,
				"z": -2.8658421178,
				"element": "H" 
			},
			{
				"x": 1.1772286499,
				"y": 1.5931264507,
				"z": -2.9111218857,
				"element": "H" 
			},
			{
				"x": 1.0156685578,
				"y": -0.1769562472,
				"z": -2.7673431845,
				"element": "H" 
			}
		],
		 "valence_orbital": [ 
			{
				"type": "occ",
				"energy": -0.33491,
				"method": "rhf"
			},
			{
				"type": "occ",
				"energy": -0.30197,
				"method": "rhf"
			},
			{
				"type": "occ",
				"energy": -0.23532,
				"method": "rhf"
			},
			{
				"type": "occ",
				"energy": -0.23236,
				"method": "rhf"
			},
			{
				"type": "occ",
				"energy": -0.22312,
				"method": "rhf"
			},
			{
				"type": "unocc",
				"energy": 0.00108,
				"method": "rhf"
			},
			{
				"type": "unocc",
				"energy": 0.03698,
				"method": "rhf"
			},
			{
				"type": "unocc",
				"energy": 0.03916,
				"method": "rhf"
			},
			{
				"type": "unocc",
				"energy": 0.06305,
				"method": "rhf"
			},
			{
				"type": "unocc",
				"energy": 0.07321,
				"method": "rhf"
			}
		],
		"cosmo_sigma_profile": { 
			"-0.025": 0.0,
			"-0.024": 0.0,
			"-0.023": 0.0,
			"-0.022": 0.0,
			"-0.021": 0.0,
			"-0.02": 0.0,
			"-0.019": 0.0,
			"-0.018": 0.0,
			"-0.017": 0.0,
			"-0.016": 0.0,
			"-0.015": 0.0,
			"-0.014": 0.0,
			"-0.013": 0.0,
			"-0.012": 0.0,
			"-0.011": 0.0,
			"-0.01": 0.0,
			"-0.009": 0.220371474175,
			"-0.008": 2.38264606399,
			"-0.007": 5.32579604638,
			"-0.006": 11.0230719796,
			"-0.005": 11.8356976185,
			"-0.004": 13.5148899224,
			"-0.003": 17.1030117839,
			"-0.002": 21.1742870397,
			"-0.001": 20.6516123475,
			"0.0": 11.1720612532,
			"0.001": 10.9790853345,
			"0.002": 10.834640447,
			"0.003": 9.14437422614,
			"0.004": 9.44807415571,
			"0.005": 10.7059336118,
			"0.006": 8.52451733312,
			"0.007": 7.23791759606,
			"0.008": 5.65950920042,
			"0.009": 3.31408777175,
			"0.01": 1.93659039973,
			"0.011": 0.325867536459,
			"0.012": 0.0,
			"0.013": 0.0,
			"0.014": 0.0,
			"0.015": 0.0,
			"0.016": 0.0,
			"0.017": 0.0,
			"0.018": 0.0,
			"0.019": 0.0,
			"0.02": 0.0,
			"0.021": 0.0,
			"0.022": 0.0,
			"0.023": 0.0,
			"0.024": 0.0,
			"0.025": 0.0
		}
	}
}
