{
	 "smiles": "COC1=C(C=C(C=C1)C(=O)C1=CC=CC=C1F)[N+]([O-])=O", 
	 "Tm": 409.15, 
	 "num_atms": 30, 
	 "gaussian": { 
		 "optdone": 1, 
		 "sigma_profile": "yes", 
		 "theory": "DFT", 
		 "functional": "B3LYP", 
		 "basiset": "6-31G**", 
		 "properties": { 
			 "R2extent": 7382.9717, 
			 "electric_dipole_moment_norm": 8.06194223807, 
			 "electric_quadrupole_moment_norm": 26.4299791625, 
			 "total_energy": -994.874393454, 
			 "HOMO_LUMO_gap": 0.17065, 
			 "cosmo_polarized_energy": -17.07, 
			 "cosmo_cavitation_energy": 36.23, 
			 "cosmo_dispersion_energy": -25.71, 
			 "cosmo_repulsion_energy": 1.95, 
			 "cosmo_total_nonelectrostatic_energy": 12.47, 
			 "SMD_solvation_energy": 10.11 
		},
		"coords": [
			{
				"x": 4.8390867368,
				"y": -0.4670781804,
				"z": -1.0954528026,
				"element": "C" 
			},
			{
				"x": 3.8154722064,
				"y": -1.0800414454,
				"z": -1.8749981399,
				"element": "O" 
			},
			{
				"x": 2.5422569745,
				"y": -1.0110498689,
				"z": -1.4538432769,
				"element": "C" 
			},
			{
				"x": 1.5395820774,
				"y": -1.6729205872,
				"z": -2.2074121699,
				"element": "C" 
			},
			{
				"x": 0.2170237197,
				"y": -1.6806235565,
				"z": -1.7918983806,
				"element": "C" 
			},
			{
				"x": -0.171145924,
				"y": -1.0283524535,
				"z": -0.6160173215,
				"element": "C" 
			},
			{
				"x": 0.8109077834,
				"y": -0.3580258952,
				"z": 0.1255513183,
				"element": "C" 
			},
			{
				"x": 2.1402408545,
				"y": -0.3491471108,
				"z": -0.2811966241,
				"element": "C" 
			},
			{
				"x": -1.6247598002,
				"y": -1.0146548109,
				"z": -0.275308086,
				"element": "C" 
			},
			{
				"x": -2.4604192996,
				"y": -1.2546559596,
				"z": -1.1384039847,
				"element": "O" 
			},
			{
				"x": -2.0960052439,
				"y": -0.6521681753,
				"z": 1.1073075098,
				"element": "C" 
			},
			{
				"x": -3.2790679181,
				"y": 0.0987448413,
				"z": 1.2172032746,
				"element": "C" 
			},
			{
				"x": -3.8084276999,
				"y": 0.4376367196,
				"z": 2.4582227305,
				"element": "C" 
			},
			{
				"x": -3.1750766198,
				"y": 0.0016210651,
				"z": 3.6262229622,
				"element": "C" 
			},
			{
				"x": -2.0187706827,
				"y": -0.7729811112,
				"z": 3.5486030056,
				"element": "C" 
			},
			{
				"x": -1.5006782845,
				"y": -1.0856331642,
				"z": 2.2967262228,
				"element": "C" 
			},
			{
				"x": -0.3959317481,
				"y": -1.8633310462,
				"z": 2.2499377988,
				"element": "F" 
			},
			{
				"x": 1.847679021,
				"y": -2.3666567755,
				"z": -3.4671188572,
				"element": "N" 
			},
			{
				"x": 2.7778787707,
				"y": -1.9463438884,
				"z": -4.1492162552,
				"element": "O" 
			},
			{
				"x": 1.1234947358,
				"y": -3.3164288549,
				"z": -3.7694931017,
				"element": "O" 
			},
			{
				"x": 4.8888349604,
				"y": -0.8988268316,
				"z": -0.0890805374,
				"element": "H" 
			},
			{
				"x": 4.6913918683,
				"y": 0.6166320701,
				"z": -1.0247114329,
				"element": "H" 
			},
			{
				"x": 5.7684589841,
				"y": -0.6715763999,
				"z": -1.6266164446,
				"element": "H" 
			},
			{
				"x": -0.5238415023,
				"y": -2.196593953,
				"z": -2.3899896846,
				"element": "H" 
			},
			{
				"x": 0.5393980939,
				"y": 0.179698613,
				"z": 1.0270097435,
				"element": "H" 
			},
			{
				"x": 2.8727804623,
				"y": 0.1754277272,
				"z": 0.3187303416,
				"element": "H" 
			},
			{
				"x": -3.7689685096,
				"y": 0.4044190476,
				"z": 0.2987190068,
				"element": "H" 
			},
			{
				"x": -4.7147701378,
				"y": 1.0315974565,
				"z": 2.5177418133,
				"element": "H" 
			},
			{
				"x": -3.5855035817,
				"y": 0.2547143349,
				"z": 4.599098676,
				"element": "H" 
			},
			{
				"x": -1.5180202967,
				"y": -1.1489018066,
				"z": 4.4341826961,
				"element": "H" 
			}
		],
		 "valence_orbital": [ 
			{
				"type": "occ",
				"energy": -0.27853,
				"method": "rhf"
			},
			{
				"type": "occ",
				"energy": -0.27274,
				"method": "rhf"
			},
			{
				"type": "occ",
				"energy": -0.26275,
				"method": "rhf"
			},
			{
				"type": "occ",
				"energy": -0.25994,
				"method": "rhf"
			},
			{
				"type": "occ",
				"energy": -0.24987,
				"method": "rhf"
			},
			{
				"type": "unocc",
				"energy": -0.07922,
				"method": "rhf"
			},
			{
				"type": "unocc",
				"energy": -0.07333,
				"method": "rhf"
			},
			{
				"type": "unocc",
				"energy": -0.02523,
				"method": "rhf"
			},
			{
				"type": "unocc",
				"energy": -0.01495,
				"method": "rhf"
			},
			{
				"type": "unocc",
				"energy": -0.01053,
				"method": "rhf"
			}
		],
		"cosmo_sigma_profile": { 
			"-0.025": 0.0,
			"-0.024": 0.0,
			"-0.023": 0.0,
			"-0.022": 0.0,
			"-0.021": 0.0,
			"-0.02": 0.0,
			"-0.019": 0.0,
			"-0.018": 0.0,
			"-0.017": 0.0,
			"-0.016": 0.0,
			"-0.015": 0.0,
			"-0.014": 0.0,
			"-0.013": 0.0,
			"-0.012": 0.0,
			"-0.011": 0.0,
			"-0.01": 0.0,
			"-0.009": 0.547150040591,
			"-0.008": 5.56342771926,
			"-0.007": 16.2678670232,
			"-0.006": 21.6424759776,
			"-0.005": 21.9903484864,
			"-0.004": 20.9525742203,
			"-0.003": 20.0245619958,
			"-0.002": 18.2069135486,
			"-0.001": 19.8993161663,
			"0.0": 22.4481617843,
			"0.001": 20.3541107332,
			"0.002": 16.4839168947,
			"0.003": 20.9446779357,
			"0.004": 13.2873738538,
			"0.005": 4.99783187521,
			"0.006": 4.99533497816,
			"0.007": 9.33132366338,
			"0.008": 11.3713194296,
			"0.009": 8.17118870388,
			"0.01": 6.30426487217,
			"0.011": 5.15663369138,
			"0.012": 2.39813555349,
			"0.013": 0.0836669078623,
			"0.014": 0.0,
			"0.015": 0.0,
			"0.016": 0.0,
			"0.017": 0.0,
			"0.018": 0.0,
			"0.019": 0.0,
			"0.02": 0.0,
			"0.021": 0.0,
			"0.022": 0.0,
			"0.023": 0.0,
			"0.024": 0.0,
			"0.025": 0.0
		}
	}
}
