{
	 "smiles": "CNC(=O)C1=CC=C(NC(=O)CCl)C=C1", 
	 "Tm": 480.15, 
	 "num_atms": 26, 
	 "gaussian": { 
		 "optdone": 1, 
		 "sigma_profile": "yes", 
		 "theory": "DFT", 
		 "functional": "B3LYP", 
		 "basiset": "6-31G**", 
		 "properties": { 
			 "R2extent": 6197.5942, 
			 "electric_dipole_moment_norm": 4.65365152649, 
			 "electric_quadrupole_moment_norm": 18.6991245153, 
			 "total_energy": -1107.86781404, 
			 "HOMO_LUMO_gap": 0.18963, 
			 "cosmo_polarized_energy": -18.8, 
			 "cosmo_cavitation_energy": 32.13, 
			 "cosmo_dispersion_energy": -23.61, 
			 "cosmo_repulsion_energy": 1.87, 
			 "cosmo_total_nonelectrostatic_energy": 10.39, 
			 "SMD_solvation_energy": 6.01 
		},
		"coords": [
			{
				"x": -0.9819404449,
				"y": 3.8902024229,
				"z": -1.6188908537,
				"element": "C" 
			},
			{
				"x": -0.9602381604,
				"y": 4.0784234322,
				"z": -0.1749829129,
				"element": "N" 
			},
			{
				"x": -1.2743503089,
				"y": 3.1753071754,
				"z": 0.8146222403,
				"element": "C" 
			},
			{
				"x": -1.610879122,
				"y": 3.5650952438,
				"z": 1.9297807741,
				"element": "O" 
			},
			{
				"x": -1.1623506175,
				"y": 1.7085955821,
				"z": 0.515554124,
				"element": "C" 
			},
			{
				"x": -2.0415662603,
				"y": 0.8406294899,
				"z": 1.1769379971,
				"element": "C" 
			},
			{
				"x": -1.9736858845,
				"y": -0.538033803,
				"z": 1.0068190008,
				"element": "C" 
			},
			{
				"x": -0.9794279261,
				"y": -1.0788275045,
				"z": 0.1751418833,
				"element": "C" 
			},
			{
				"x": -0.827294898,
				"y": -2.4626817105,
				"z": -0.0512739492,
				"element": "N" 
			},
			{
				"x": -1.5745963858,
				"y": -3.489752253,
				"z": 0.442065023,
				"element": "C" 
			},
			{
				"x": -2.5379017694,
				"y": -3.3941130089,
				"z": 1.1888029885,
				"element": "O" 
			},
			{
				"x": -1.1709450354,
				"y": -4.9094802063,
				"z": 0.0248173198,
				"element": "C" 
			},
			{
				"x": 0.2415495529,
				"y": -5.0758992271,
				"z": -1.1058586041,
				"element": "Cl" 
			},
			{
				"x": -0.0722480395,
				"y": -0.222011525,
				"z": -0.4669098325,
				"element": "C" 
			},
			{
				"x": -0.1665810207,
				"y": 1.1554143287,
				"z": -0.3013838289,
				"element": "C" 
			},
			{
				"x": -1.5997827373,
				"y": 4.6645667908,
				"z": -2.0854585859,
				"element": "H" 
			},
			{
				"x": 0.0209144607,
				"y": 3.9443307176,
				"z": -2.0616786084,
				"element": "H" 
			},
			{
				"x": -1.4153736619,
				"y": 2.9210808341,
				"z": -1.8687239849,
				"element": "H" 
			},
			{
				"x": -1.0484273801,
				"y": 5.0287427089,
				"z": 0.1615060301,
				"element": "H" 
			},
			{
				"x": -2.7846435619,
				"y": 1.2686682133,
				"z": 1.8414096395,
				"element": "H" 
			},
			{
				"x": -2.6658160348,
				"y": -1.1979192628,
				"z": 1.5102013659,
				"element": "H" 
			},
			{
				"x": -0.0640671627,
				"y": -2.7296618454,
				"z": -0.6602883713,
				"element": "H" 
			},
			{
				"x": -2.0277653521,
				"y": -5.3760971818,
				"z": -0.4613564749,
				"element": "H" 
			},
			{
				"x": -0.927292284,
				"y": -5.472038947,
				"z": 0.926368348,
				"element": "H" 
			},
			{
				"x": 0.7140778517,
				"y": -0.6381290776,
				"z": -1.0923223326,
				"element": "H" 
			},
			{
				"x": 0.5605321827,
				"y": 1.796088613,
				"z": -0.7894983951,
				"element": "H" 
			}
		],
		 "valence_orbital": [ 
			{
				"type": "occ",
				"energy": -0.27229,
				"method": "rhf"
			},
			{
				"type": "occ",
				"energy": -0.26343,
				"method": "rhf"
			},
			{
				"type": "occ",
				"energy": -0.25441,
				"method": "rhf"
			},
			{
				"type": "occ",
				"energy": -0.24481,
				"method": "rhf"
			},
			{
				"type": "occ",
				"energy": -0.23059,
				"method": "rhf"
			},
			{
				"type": "unocc",
				"energy": -0.04096,
				"method": "rhf"
			},
			{
				"type": "unocc",
				"energy": -0.01263,
				"method": "rhf"
			},
			{
				"type": "unocc",
				"energy": 0.00285,
				"method": "rhf"
			},
			{
				"type": "unocc",
				"energy": 0.01335,
				"method": "rhf"
			},
			{
				"type": "unocc",
				"energy": 0.06513,
				"method": "rhf"
			}
		],
		"cosmo_sigma_profile": { 
			"-0.025": 0.0,
			"-0.024": 0.0,
			"-0.023": 0.0,
			"-0.022": 0.0,
			"-0.021": 0.0,
			"-0.02": 0.0,
			"-0.019": 0.0,
			"-0.018": 0.0,
			"-0.017": 0.0,
			"-0.016": 0.0,
			"-0.015": 0.0,
			"-0.014": 0.155716673427,
			"-0.013": 1.93437761193,
			"-0.012": 2.49774307246,
			"-0.011": 1.04412578459,
			"-0.01": 2.84978769448,
			"-0.009": 7.58460412726,
			"-0.008": 6.29967070565,
			"-0.007": 8.5802641671,
			"-0.006": 11.4681709018,
			"-0.005": 17.7635253335,
			"-0.004": 17.0868048353,
			"-0.003": 17.9506660037,
			"-0.002": 19.9289615803,
			"-0.001": 15.135962911,
			"0.0": 14.681828713,
			"0.001": 15.8911442297,
			"0.002": 15.5253183679,
			"0.003": 18.4691938667,
			"0.004": 16.6330481895,
			"0.005": 10.7197922186,
			"0.006": 4.25224092524,
			"0.007": 2.84133326187,
			"0.008": 2.35112485136,
			"0.009": 3.57341207766,
			"0.01": 3.08437961977,
			"0.011": 3.46984453221,
			"0.012": 5.0921908481,
			"0.013": 4.17623250945,
			"0.014": 5.63327650274,
			"0.015": 1.56278320367,
			"0.016": 0.0,
			"0.017": 0.0,
			"0.018": 0.0,
			"0.019": 0.0,
			"0.02": 0.0,
			"0.021": 0.0,
			"0.022": 0.0,
			"0.023": 0.0,
			"0.024": 0.0,
			"0.025": 0.0
		}
	}
}
