{
	 "smiles": "COC1=CC=CC=C1N1CCN(CC(C)N(C(=O)C2CCCCC2)C2=NC=CC=C2)CC1", 
	 "Tm": 363.65, 
	 "num_atms": 68, 
	 "gaussian": { 
		 "optdone": 1, 
		 "sigma_profile": "yes", 
		 "theory": "DFT", 
		 "functional": "B3LYP", 
		 "basiset": "6-31G**", 
		 "properties": { 
			 "R2extent": 15155.0266, 
			 "electric_dipole_moment_norm": 3.74977516793, 
			 "electric_quadrupole_moment_norm": 19.5446672919, 
			 "total_energy": -1381.91024017, 
			 "HOMO_LUMO_gap": 0.15025, 
			 "cosmo_polarized_energy": -15.76, 
			 "cosmo_cavitation_energy": 64.23, 
			 "cosmo_dispersion_energy": -40.09, 
			 "cosmo_repulsion_energy": 3.01, 
			 "cosmo_total_nonelectrostatic_energy": 27.15, 
			 "SMD_solvation_energy": 9.04 
		},
		"coords": [
			{
				"x": -1.0721688357,
				"y": -3.4233267489,
				"z": -1.8023262773,
				"element": "C" 
			},
			{
				"x": -1.3825427297,
				"y": -4.2809958988,
				"z": -0.7027106828,
				"element": "O" 
			},
			{
				"x": -2.3525200871,
				"y": -3.7616526324,
				"z": 0.1434494942,
				"element": "C" 
			},
			{
				"x": -3.6546624076,
				"y": -4.2288420313,
				"z": -0.0020789319,
				"element": "C" 
			},
			{
				"x": -4.6913172359,
				"y": -3.7270447004,
				"z": 0.7875987669,
				"element": "C" 
			},
			{
				"x": -4.4004257658,
				"y": -2.7377204044,
				"z": 1.72281705,
				"element": "C" 
			},
			{
				"x": -3.0913519,
				"y": -2.2839955847,
				"z": 1.8948028425,
				"element": "C" 
			},
			{
				"x": -2.0238686275,
				"y": -2.7930761718,
				"z": 1.1295190028,
				"element": "C" 
			},
			{
				"x": -0.7057839923,
				"y": -2.3271470918,
				"z": 1.2805813445,
				"element": "N" 
			},
			{
				"x": -0.4852789314,
				"y": -1.1439338214,
				"z": 2.1134633875,
				"element": "C" 
			},
			{
				"x": 1.0187760082,
				"y": -0.8292058158,
				"z": 2.2367980026,
				"element": "C" 
			},
			{
				"x": 1.7082418197,
				"y": -1.2134742754,
				"z": 1.0072427983,
				"element": "N" 
			},
			{
				"x": 3.0594284056,
				"y": -0.690279249,
				"z": 0.8540865407,
				"element": "C" 
			},
			{
				"x": 3.1815897144,
				"y": 0.8461119934,
				"z": 0.820818712,
				"element": "C" 
			},
			{
				"x": 4.6291133433,
				"y": 1.2597557341,
				"z": 0.5218167657,
				"element": "C" 
			},
			{
				"x": 2.2251421845,
				"y": 1.4923168021,
				"z": -0.1060198278,
				"element": "N" 
			},
			{
				"x": 1.2752669764,
				"y": 2.3528746406,
				"z": 0.4149050341,
				"element": "C" 
			},
			{
				"x": 1.17217872,
				"y": 2.5355742093,
				"z": 1.6283032106,
				"element": "O" 
			},
			{
				"x": 0.3679945687,
				"y": 3.1032229611,
				"z": -0.5586454464,
				"element": "C" 
			},
			{
				"x": 0.9264224584,
				"y": 4.5328353937,
				"z": -0.7671249253,
				"element": "C" 
			},
			{
				"x": 0.0060698253,
				"y": 5.3724308604,
				"z": -1.6648527484,
				"element": "C" 
			},
			{
				"x": -1.4308858155,
				"y": 5.41318273,
				"z": -1.1247628551,
				"element": "C" 
			},
			{
				"x": -1.9876571071,
				"y": 3.9963240636,
				"z": -0.9210200065,
				"element": "C" 
			},
			{
				"x": -1.0749470097,
				"y": 3.1527224435,
				"z": -0.0190286,
				"element": "C" 
			},
			{
				"x": 2.3556648287,
				"y": 1.2396749406,
				"z": -1.5085804676,
				"element": "C" 
			},
			{
				"x": 3.0538069959,
				"y": 2.1244215652,
				"z": -2.2306779101,
				"element": "N" 
			},
			{
				"x": 3.1876897856,
				"y": 1.8867629669,
				"z": -3.5419651371,
				"element": "C" 
			},
			{
				"x": 2.6514318046,
				"y": 0.7703297627,
				"z": -4.1842420117,
				"element": "C" 
			},
			{
				"x": 1.9320432558,
				"y": -0.1483431457,
				"z": -3.4197424914,
				"element": "C" 
			},
			{
				"x": 1.7776656579,
				"y": 0.0865999915,
				"z": -2.0549622369,
				"element": "C" 
			},
			{
				"x": 1.6931832865,
				"y": -2.6748945332,
				"z": 0.8502751554,
				"element": "C" 
			},
			{
				"x": 0.3942926301,
				"y": -3.2858756955,
				"z": 1.4105798277,
				"element": "C" 
			},
			{
				"x": -0.2896768037,
				"y": -3.9240900306,
				"z": -2.3781771334,
				"element": "H" 
			},
			{
				"x": -1.9517748258,
				"y": -3.2739989017,
				"z": -2.4419864456,
				"element": "H" 
			},
			{
				"x": -0.7099706004,
				"y": -2.4484389292,
				"z": -1.4556527325,
				"element": "H" 
			},
			{
				"x": -3.8361508879,
				"y": -4.9833649307,
				"z": -0.7618005571,
				"element": "H" 
			},
			{
				"x": -5.7050585073,
				"y": -4.093672824,
				"z": 0.6601063467,
				"element": "H" 
			},
			{
				"x": -5.1897810209,
				"y": -2.3187830101,
				"z": 2.3406322396,
				"element": "H" 
			},
			{
				"x": -2.8995168818,
				"y": -1.5274859396,
				"z": 2.6455802011,
				"element": "H" 
			},
			{
				"x": -1.0099678246,
				"y": -0.2965991624,
				"z": 1.6578850502,
				"element": "H" 
			},
			{
				"x": -0.8861211113,
				"y": -1.2704688607,
				"z": 3.1340295237,
				"element": "H" 
			},
			{
				"x": 1.4476391206,
				"y": -1.341903409,
				"z": 3.1194351353,
				"element": "H" 
			},
			{
				"x": 1.1235023668,
				"y": 0.2439805443,
				"z": 2.4052552673,
				"element": "H" 
			},
			{
				"x": 3.4609878776,
				"y": -1.1045441709,
				"z": -0.0804810311,
				"element": "H" 
			},
			{
				"x": 3.7348566204,
				"y": -1.0466864038,
				"z": 1.658198877,
				"element": "H" 
			},
			{
				"x": 2.9060403193,
				"y": 1.2518244974,
				"z": 1.7950497282,
				"element": "H" 
			},
			{
				"x": 4.725036254,
				"y": 2.3479346696,
				"z": 0.5355374842,
				"element": "H" 
			},
			{
				"x": 4.9626681792,
				"y": 0.9051428897,
				"z": -0.4583744957,
				"element": "H" 
			},
			{
				"x": 5.3012651242,
				"y": 0.8432148001,
				"z": 1.2792886969,
				"element": "H" 
			},
			{
				"x": 0.3589655017,
				"y": 2.5991736983,
				"z": -1.5315153402,
				"element": "H" 
			},
			{
				"x": 1.0214652554,
				"y": 5.0092870853,
				"z": 0.2172415923,
				"element": "H" 
			},
			{
				"x": 1.9320713652,
				"y": 4.4713354346,
				"z": -1.1965660104,
				"element": "H" 
			},
			{
				"x": 0.4079461315,
				"y": 6.3886085212,
				"z": -1.7591695907,
				"element": "H" 
			},
			{
				"x": 0.000636926,
				"y": 4.9453962282,
				"z": -2.6781800322,
				"element": "H" 
			},
			{
				"x": -2.0773285478,
				"y": 5.9824866091,
				"z": -1.8037284076,
				"element": "H" 
			},
			{
				"x": -1.4395694195,
				"y": 5.9456693461,
				"z": -0.1632316074,
				"element": "H" 
			},
			{
				"x": -2.9952282438,
				"y": 4.0411884541,
				"z": -0.4903795043,
				"element": "H" 
			},
			{
				"x": -2.0909522214,
				"y": 3.5054275161,
				"z": -1.8997669111,
				"element": "H" 
			},
			{
				"x": -1.4724158183,
				"y": 2.1341760744,
				"z": 0.0737513436,
				"element": "H" 
			},
			{
				"x": -1.0485784005,
				"y": 3.5707404062,
				"z": 0.99317309,
				"element": "H" 
			},
			{
				"x": 3.7539857314,
				"y": 2.6269165934,
				"z": -4.1042283224,
				"element": "H" 
			},
			{
				"x": 2.7949216326,
				"y": 0.6298378806,
				"z": -5.2507965412,
				"element": "H" 
			},
			{
				"x": 1.4937484531,
				"y": -1.0298269339,
				"z": -3.8790855926,
				"element": "H" 
			},
			{
				"x": 1.2270193211,
				"y": -0.5784718516,
				"z": -1.3974726815,
				"element": "H" 
			},
			{
				"x": 1.7989288146,
				"y": -2.9083817216,
				"z": -0.2171636088,
				"element": "H" 
			},
			{
				"x": 2.5467385783,
				"y": -3.1503526345,
				"z": 1.370499699,
				"element": "H" 
			},
			{
				"x": 0.5335220422,
				"y": -3.5599057468,
				"z": 2.4699333236,
				"element": "H" 
			},
			{
				"x": 0.1532536753,
				"y": -4.1961990453,
				"z": 0.8665415676,
				"element": "H" 
			}
		],
		 "valence_orbital": [ 
			{
				"type": "occ",
				"energy": -0.24272,
				"method": "rhf"
			},
			{
				"type": "occ",
				"energy": -0.23859,
				"method": "rhf"
			},
			{
				"type": "occ",
				"energy": -0.23451,
				"method": "rhf"
			},
			{
				"type": "occ",
				"energy": -0.2166,
				"method": "rhf"
			},
			{
				"type": "occ",
				"energy": -0.1875,
				"method": "rhf"
			},
			{
				"type": "unocc",
				"energy": -0.03725,
				"method": "rhf"
			},
			{
				"type": "unocc",
				"energy": -0.02571,
				"method": "rhf"
			},
			{
				"type": "unocc",
				"energy": 0.00956,
				"method": "rhf"
			},
			{
				"type": "unocc",
				"energy": 0.01393,
				"method": "rhf"
			},
			{
				"type": "unocc",
				"energy": 0.0296,
				"method": "rhf"
			}
		],
		"cosmo_sigma_profile": { 
			"-0.025": 0.0,
			"-0.024": 0.0,
			"-0.023": 0.0,
			"-0.022": 0.0,
			"-0.021": 0.0,
			"-0.02": 0.0,
			"-0.019": 0.0,
			"-0.018": 0.0,
			"-0.017": 0.0,
			"-0.016": 0.0,
			"-0.015": 0.0,
			"-0.014": 0.0,
			"-0.013": 0.0,
			"-0.012": 0.0,
			"-0.011": 0.0,
			"-0.01": 0.0,
			"-0.009": 0.0,
			"-0.008": 0.238780090975,
			"-0.007": 4.83406016374,
			"-0.006": 8.6768319433,
			"-0.005": 17.2379296192,
			"-0.004": 24.0092785422,
			"-0.003": 56.9804037592,
			"-0.002": 91.5832881716,
			"-0.001": 71.6772633118,
			"0.0": 59.3805167266,
			"0.001": 46.0918927596,
			"0.002": 27.3557100747,
			"0.003": 17.4648052941,
			"0.004": 14.9986695617,
			"0.005": 13.3036014338,
			"0.006": 13.4883785623,
			"0.007": 10.1469374759,
			"0.008": 4.65419634868,
			"0.009": 4.19734047951,
			"0.01": 3.28913809558,
			"0.011": 3.13080910292,
			"0.012": 2.939948127,
			"0.013": 2.79697195024,
			"0.014": 3.05154855396,
			"0.015": 0.238905689516,
			"0.016": 0.0,
			"0.017": 0.0,
			"0.018": 0.0,
			"0.019": 0.0,
			"0.02": 0.0,
			"0.021": 0.0,
			"0.022": 0.0,
			"0.023": 0.0,
			"0.024": 0.0,
			"0.025": 0.0
		}
	}
}
