{
	 "smiles": "CC(C)(C)OC(=O)N1CC2CCC(O)C2C1", 
	 "Tm": 335.15, 
	 "num_atms": 37, 
	 "gaussian": { 
		 "optdone": 1, 
		 "sigma_profile": "yes", 
		 "theory": "DFT", 
		 "functional": "B3LYP", 
		 "basiset": "6-31G**", 
		 "properties": { 
			 "R2extent": 4763.0766, 
			 "electric_dipole_moment_norm": 3.54657457979, 
			 "electric_quadrupole_moment_norm": 11.8396109442, 
			 "total_energy": -750.38887507, 
			 "HOMO_LUMO_gap": 0.27773, 
			 "cosmo_polarized_energy": -12.6, 
			 "cosmo_cavitation_energy": 36.33, 
			 "cosmo_dispersion_energy": -25.52, 
			 "cosmo_repulsion_energy": 2.02, 
			 "cosmo_total_nonelectrostatic_energy": 12.84, 
			 "SMD_solvation_energy": 6.2 
		},
		"coords": [
			{
				"x": 1.0633655307,
				"y": 2.8741785363,
				"z": 2.2220935709,
				"element": "C" 
			},
			{
				"x": 1.5804313342,
				"y": 1.4914741737,
				"z": 1.8144685682,
				"element": "C" 
			},
			{
				"x": 1.6276388903,
				"y": 0.5523351917,
				"z": 3.0251974606,
				"element": "C" 
			},
			{
				"x": 2.9412066419,
				"y": 1.6062985739,
				"z": 1.1177257289,
				"element": "C" 
			},
			{
				"x": 0.5613036773,
				"y": 1.0376952309,
				"z": 0.8599770755,
				"element": "O" 
			},
			{
				"x": 0.6596930332,
				"y": -0.1836906924,
				"z": 0.2679655481,
				"element": "C" 
			},
			{
				"x": 1.5663551611,
				"y": -0.9888091815,
				"z": 0.4316249866,
				"element": "O" 
			},
			{
				"x": -0.4157655433,
				"y": -0.412705765,
				"z": -0.539828662,
				"element": "N" 
			},
			{
				"x": -1.4309698171,
				"y": 0.56365709,
				"z": -0.9214620176,
				"element": "C" 
			},
			{
				"x": -2.5812098983,
				"y": -0.30634776,
				"z": -1.4551443724,
				"element": "C" 
			},
			{
				"x": -3.5789921507,
				"y": -0.7979771185,
				"z": -0.3585774711,
				"element": "C" 
			},
			{
				"x": -3.216354412,
				"y": -2.2680762196,
				"z": -0.0909233045,
				"element": "C" 
			},
			{
				"x": -2.7500501323,
				"y": -2.7599073912,
				"z": -1.4685524553,
				"element": "C" 
			},
			{
				"x": -2.0108135426,
				"y": -3.971070881,
				"z": -1.4698041528,
				"element": "O" 
			},
			{
				"x": -1.8849399173,
				"y": -1.6001679063,
				"z": -1.9998138563,
				"element": "C" 
			},
			{
				"x": -0.4495001141,
				"y": -1.5864921419,
				"z": -1.414620264,
				"element": "C" 
			},
			{
				"x": 0.9859186831,
				"y": 3.5297392097,
				"z": 1.3496695567,
				"element": "H" 
			},
			{
				"x": 0.074399227,
				"y": 2.7962622476,
				"z": 2.6835386182,
				"element": "H" 
			},
			{
				"x": 1.7462027001,
				"y": 3.3348575688,
				"z": 2.9423032497,
				"element": "H" 
			},
			{
				"x": 1.9749784062,
				"y": -0.4391011992,
				"z": 2.7341797657,
				"element": "H" 
			},
			{
				"x": 0.6332137025,
				"y": 0.4630375761,
				"z": 3.4745163598,
				"element": "H" 
			},
			{
				"x": 2.306458119,
				"y": 0.9597583436,
				"z": 3.7817495447,
				"element": "H" 
			},
			{
				"x": 3.6703565979,
				"y": 2.0507827141,
				"z": 1.8032380749,
				"element": "H" 
			},
			{
				"x": 3.3005530425,
				"y": 0.6261472927,
				"z": 0.8041602927,
				"element": "H" 
			},
			{
				"x": 2.8629779564,
				"y": 2.2541434091,
				"z": 0.2386201411,
				"element": "H" 
			},
			{
				"x": -1.7152007432,
				"y": 1.1776471308,
				"z": -0.0651137218,
				"element": "H" 
			},
			{
				"x": -1.055472344,
				"y": 1.2394105976,
				"z": -1.7063842851,
				"element": "H" 
			},
			{
				"x": -3.1191670898,
				"y": 0.2318168427,
				"z": -2.2407256451,
				"element": "H" 
			},
			{
				"x": -4.6044118767,
				"y": -0.7296274624,
				"z": -0.7394268018,
				"element": "H" 
			},
			{
				"x": -3.5351931018,
				"y": -0.1827871241,
				"z": 0.5453600771,
				"element": "H" 
			},
			{
				"x": -4.0504198255,
				"y": -2.8524927925,
				"z": 0.3144365418,
				"element": "H" 
			},
			{
				"x": -2.3798083688,
				"y": -2.3443326652,
				"z": 0.6131302956,
				"element": "H" 
			},
			{
				"x": -3.6320392055,
				"y": -2.8541171356,
				"z": -2.1257594452,
				"element": "H" 
			},
			{
				"x": -2.565077544,
				"y": -4.6606309936,
				"z": -1.0835423218,
				"element": "H" 
			},
			{
				"x": -1.840754422,
				"y": -1.6231486011,
				"z": -3.0916099836,
				"element": "H" 
			},
			{
				"x": -0.2157171042,
				"y": -2.4894975213,
				"z": -0.8495245828,
				"element": "H" 
			},
			{
				"x": 0.2995044499,
				"y": -1.499461177,
				"z": -2.213042114,
				"element": "H" 
			}
		],
		 "valence_orbital": [ 
			{
				"type": "occ",
				"energy": -0.30941,
				"method": "rhf"
			},
			{
				"type": "occ",
				"energy": -0.277,
				"method": "rhf"
			},
			{
				"type": "occ",
				"energy": -0.26486,
				"method": "rhf"
			},
			{
				"type": "occ",
				"energy": -0.24951,
				"method": "rhf"
			},
			{
				"type": "occ",
				"energy": -0.22633,
				"method": "rhf"
			},
			{
				"type": "unocc",
				"energy": 0.0514,
				"method": "rhf"
			},
			{
				"type": "unocc",
				"energy": 0.07013,
				"method": "rhf"
			},
			{
				"type": "unocc",
				"energy": 0.08513,
				"method": "rhf"
			},
			{
				"type": "unocc",
				"energy": 0.09184,
				"method": "rhf"
			},
			{
				"type": "unocc",
				"energy": 0.10312,
				"method": "rhf"
			}
		],
		"cosmo_sigma_profile": { 
			"-0.025": 0.0,
			"-0.024": 0.0,
			"-0.023": 0.0,
			"-0.022": 0.0,
			"-0.021": 0.0,
			"-0.02": 0.0,
			"-0.019": 0.0,
			"-0.018": 0.0,
			"-0.017": 0.0,
			"-0.016": 0.139772255869,
			"-0.015": 1.10153393718,
			"-0.014": 0.879335532934,
			"-0.013": 0.931523187321,
			"-0.012": 0.602448028704,
			"-0.011": 0.878325379784,
			"-0.01": 0.798082736498,
			"-0.009": 0.988182964704,
			"-0.008": 1.20920903796,
			"-0.007": 0.94980493749,
			"-0.006": 0.773102118291,
			"-0.005": 1.38095148166,
			"-0.004": 18.9362643004,
			"-0.003": 47.8183205633,
			"-0.002": 40.6312459297,
			"-0.001": 33.207715092,
			"0.0": 34.675086835,
			"0.001": 31.8874444641,
			"0.002": 11.4762802337,
			"0.003": 7.34320735507,
			"0.004": 5.17019154105,
			"0.005": 6.20437883127,
			"0.006": 6.13470877197,
			"0.007": 4.27323156001,
			"0.008": 3.77342512399,
			"0.009": 2.1212249631,
			"0.01": 2.29927888435,
			"0.011": 2.82894685104,
			"0.012": 3.35359149011,
			"0.013": 3.5112113793,
			"0.014": 3.70292858394,
			"0.015": 0.343070654267,
			"0.016": 0.0,
			"0.017": 0.0,
			"0.018": 0.0,
			"0.019": 0.0,
			"0.02": 0.0,
			"0.021": 0.0,
			"0.022": 0.0,
			"0.023": 0.0,
			"0.024": 0.0,
			"0.025": 0.0
		}
	}
}
