{
	 "smiles": "CN1NC=C2CN=C(Cl)N=C12", 
	 "Tm": 463.15, 
	 "num_atms": 18, 
	 "gaussian": { 
		 "optdone": 1, 
		 "sigma_profile": "yes", 
		 "theory": "DFT", 
		 "functional": "B3LYP", 
		 "basiset": "6-31G**", 
		 "properties": { 
			 "R2extent": 2464.782, 
			 "electric_dipole_moment_norm": 8.30239873892, 
			 "electric_quadrupole_moment_norm": 13.2615443471, 
			 "total_energy": -911.993025095, 
			 "HOMO_LUMO_gap": 0.1611, 
			 "cosmo_polarized_energy": -20.72, 
			 "cosmo_cavitation_energy": 23.58, 
			 "cosmo_dispersion_energy": -18.14, 
			 "cosmo_repulsion_energy": 1.48, 
			 "cosmo_total_nonelectrostatic_energy": 6.92, 
			 "SMD_solvation_energy": -0.51 
		},
		"coords": [
			{
				"x": -0.9060541442,
				"y": 2.9774697137,
				"z": -1.4422590852,
				"element": "C" 
			},
			{
				"x": -0.1629348702,
				"y": 1.7444968066,
				"z": -1.6275942286,
				"element": "N" 
			},
			{
				"x": 1.2452673373,
				"y": 1.7840504375,
				"z": -1.6726213878,
				"element": "N" 
			},
			{
				"x": 1.672651875,
				"y": 0.4756706591,
				"z": -1.4227395466,
				"element": "C" 
			},
			{
				"x": 0.6302962561,
				"y": -0.3057836549,
				"z": -1.0539335839,
				"element": "C" 
			},
			{
				"x": 0.4329682287,
				"y": -1.718129776,
				"z": -0.5652798426,
				"element": "C" 
			},
			{
				"x": -0.9420128314,
				"y": -1.981433616,
				"z": -0.1285092539,
				"element": "N" 
			},
			{
				"x": -1.8232749648,
				"y": -1.0734123227,
				"z": -0.2722442211,
				"element": "C" 
			},
			{
				"x": -3.4677059061,
				"y": -1.4840325287,
				"z": 0.2657449791,
				"element": "Cl" 
			},
			{
				"x": -1.7663762067,
				"y": 0.2171335483,
				"z": -0.7699331362,
				"element": "N" 
			},
			{
				"x": -0.5469995197,
				"y": 0.5256328803,
				"z": -1.1352381863,
				"element": "C" 
			},
			{
				"x": -1.948886831,
				"y": 2.6907940762,
				"z": -1.29981962,
				"element": "H" 
			},
			{
				"x": -0.8204622122,
				"y": 3.6148164494,
				"z": -2.3274356853,
				"element": "H" 
			},
			{
				"x": -0.5518637169,
				"y": 3.5234845527,
				"z": -0.5611542638,
				"element": "H" 
			},
			{
				"x": 1.5890401174,
				"y": 2.2172535242,
				"z": -2.5284848992,
				"element": "H" 
			},
			{
				"x": 2.7265218865,
				"y": 0.2509320951,
				"z": -1.5219833922,
				"element": "H" 
			},
			{
				"x": 0.6808189892,
				"y": -2.442435783,
				"z": -1.3553495263,
				"element": "H" 
			},
			{
				"x": 1.107806513,
				"y": -1.9495070617,
				"z": 0.2699348799,
				"element": "H" 
			}
		],
		 "valence_orbital": [ 
			{
				"type": "occ",
				"energy": -0.28586,
				"method": "rhf"
			},
			{
				"type": "occ",
				"energy": -0.28238,
				"method": "rhf"
			},
			{
				"type": "occ",
				"energy": -0.26541,
				"method": "rhf"
			},
			{
				"type": "occ",
				"energy": -0.23731,
				"method": "rhf"
			},
			{
				"type": "occ",
				"energy": -0.20452,
				"method": "rhf"
			},
			{
				"type": "unocc",
				"energy": -0.04342,
				"method": "rhf"
			},
			{
				"type": "unocc",
				"energy": 0.02228,
				"method": "rhf"
			},
			{
				"type": "unocc",
				"energy": 0.05611,
				"method": "rhf"
			},
			{
				"type": "unocc",
				"energy": 0.05865,
				"method": "rhf"
			},
			{
				"type": "unocc",
				"energy": 0.09409,
				"method": "rhf"
			}
		],
		"cosmo_sigma_profile": { 
			"-0.025": 0.0,
			"-0.024": 0.0,
			"-0.023": 0.0,
			"-0.022": 0.0,
			"-0.021": 0.0,
			"-0.02": 0.0,
			"-0.019": 0.0,
			"-0.018": 0.0,
			"-0.017": 0.177262811794,
			"-0.016": 2.10144623224,
			"-0.015": 1.31963882105,
			"-0.014": 1.50047612308,
			"-0.013": 1.46944884642,
			"-0.012": 1.38938398228,
			"-0.011": 1.38332164625,
			"-0.01": 3.99956003827,
			"-0.009": 3.15879093337,
			"-0.008": 3.09885126581,
			"-0.007": 3.54022508905,
			"-0.006": 8.83909497134,
			"-0.005": 13.4378759234,
			"-0.004": 14.2839674344,
			"-0.003": 14.6639620844,
			"-0.002": 10.0108412282,
			"-0.001": 10.5147477888,
			"0.0": 10.4839692234,
			"0.001": 10.1299509136,
			"0.002": 9.80914489335,
			"0.003": 7.89247442929,
			"0.004": 7.83540199564,
			"0.005": 9.9858792901,
			"0.006": 10.7047161364,
			"0.007": 5.75284261938,
			"0.008": 4.24247418661,
			"0.009": 3.69063408697,
			"0.01": 2.80361385082,
			"0.011": 2.660907096,
			"0.012": 2.26849322695,
			"0.013": 2.50692069119,
			"0.014": 2.09288266906,
			"0.015": 1.61711904116,
			"0.016": 0.68825809205,
			"0.017": 0.524857778806,
			"0.018": 0.0,
			"0.019": 0.0,
			"0.02": 0.0,
			"0.021": 0.0,
			"0.022": 0.0,
			"0.023": 0.0,
			"0.024": 0.0,
			"0.025": 0.0
		}
	}
}
