{
	 "smiles": "CCC(C)(C)C(C)=C", 
	 "Tm": 204.15, 
	 "num_atms": 24, 
	 "gaussian": { 
		 "optdone": 1, 
		 "sigma_profile": "yes", 
		 "theory": "DFT", 
		 "functional": "B3LYP", 
		 "basiset": "6-31G**", 
		 "properties": { 
			 "R2extent": 1219.9855, 
			 "electric_dipole_moment_norm": 0.505988744934, 
			 "electric_quadrupole_moment_norm": 1.1604909306, 
			 "total_energy": -314.489789726, 
			 "HOMO_LUMO_gap": 0.268, 
			 "cosmo_polarized_energy": -1.72, 
			 "cosmo_cavitation_energy": 24.02, 
			 "cosmo_dispersion_energy": -17.04, 
			 "cosmo_repulsion_energy": 1.38, 
			 "cosmo_total_nonelectrostatic_energy": 8.36, 
			 "SMD_solvation_energy": 4.99 
		},
		"coords": [
			{
				"x": 2.2327923529,
				"y": -0.3545895635,
				"z": 1.0627848917,
				"element": "C" 
			},
			{
				"x": 0.7617569619,
				"y": -0.4448143854,
				"z": 0.6350915578,
				"element": "C" 
			},
			{
				"x": 0.126149673,
				"y": 0.8494229105,
				"z": 0.0342837388,
				"element": "C" 
			},
			{
				"x": 0.8981052315,
				"y": 1.2953669442,
				"z": -1.2311843861,
				"element": "C" 
			},
			{
				"x": 0.2015983445,
				"y": 1.9892188125,
				"z": 1.0684469234,
				"element": "C" 
			},
			{
				"x": -1.3316404584,
				"y": 0.5217837402,
				"z": -0.3419801222,
				"element": "C" 
			},
			{
				"x": -1.5621883285,
				"y": -0.3848516732,
				"z": -1.5342573914,
				"element": "C" 
			},
			{
				"x": -2.3868987343,
				"y": 0.991110396,
				"z": 0.3348764888,
				"element": "C" 
			},
			{
				"x": 2.5670441344,
				"y": -1.3196598899,
				"z": 1.4582102981,
				"element": "H" 
			},
			{
				"x": 2.3911442712,
				"y": 0.3899156229,
				"z": 1.8489045214,
				"element": "H" 
			},
			{
				"x": 2.8907335926,
				"y": -0.1024190372,
				"z": 0.2250685864,
				"element": "H" 
			},
			{
				"x": 0.6682323115,
				"y": -1.256811052,
				"z": -0.0957056749,
				"element": "H" 
			},
			{
				"x": 0.1548068731,
				"y": -0.7432072181,
				"z": 1.499175205,
				"element": "H" 
			},
			{
				"x": 0.9862158769,
				"y": 0.4891039901,
				"z": -1.9657589163,
				"element": "H" 
			},
			{
				"x": 0.3937162464,
				"y": 2.1388458626,
				"z": -1.7151031411,
				"element": "H" 
			},
			{
				"x": 1.91086988,
				"y": 1.6208155646,
				"z": -0.9756195165,
				"element": "H" 
			},
			{
				"x": 1.2418585104,
				"y": 2.2648319367,
				"z": 1.2630179639,
				"element": "H" 
			},
			{
				"x": -0.3143450641,
				"y": 2.8836853518,
				"z": 0.7055094684,
				"element": "H" 
			},
			{
				"x": -0.2478925298,
				"y": 1.7027739938,
				"z": 2.0248086132,
				"element": "H" 
			},
			{
				"x": -2.6202875238,
				"y": -0.643699802,
				"z": -1.6248576327,
				"element": "H" 
			},
			{
				"x": -0.9952596304,
				"y": -1.3200506758,
				"z": -1.4632465732,
				"element": "H" 
			},
			{
				"x": -1.2567488302,
				"y": 0.0954155558,
				"z": -2.4712387031,
				"element": "H" 
			},
			{
				"x": -3.3987924503,
				"y": 0.7177681973,
				"z": 0.0476796498,
				"element": "H" 
			},
			{
				"x": -2.2983707106,
				"y": 1.6556444182,
				"z": 1.1862941509,
				"element": "H" 
			}
		],
		 "valence_orbital": [ 
			{
				"type": "occ",
				"energy": -0.33877,
				"method": "rhf"
			},
			{
				"type": "occ",
				"energy": -0.31549,
				"method": "rhf"
			},
			{
				"type": "occ",
				"energy": -0.30972,
				"method": "rhf"
			},
			{
				"type": "occ",
				"energy": -0.30616,
				"method": "rhf"
			},
			{
				"type": "occ",
				"energy": -0.23813,
				"method": "rhf"
			},
			{
				"type": "unocc",
				"energy": 0.02987,
				"method": "rhf"
			},
			{
				"type": "unocc",
				"energy": 0.08232,
				"method": "rhf"
			},
			{
				"type": "unocc",
				"energy": 0.11414,
				"method": "rhf"
			},
			{
				"type": "unocc",
				"energy": 0.13026,
				"method": "rhf"
			},
			{
				"type": "unocc",
				"energy": 0.13588,
				"method": "rhf"
			}
		],
		"cosmo_sigma_profile": { 
			"-0.025": 0.0,
			"-0.024": 0.0,
			"-0.023": 0.0,
			"-0.022": 0.0,
			"-0.021": 0.0,
			"-0.02": 0.0,
			"-0.019": 0.0,
			"-0.018": 0.0,
			"-0.017": 0.0,
			"-0.016": 0.0,
			"-0.015": 0.0,
			"-0.014": 0.0,
			"-0.013": 0.0,
			"-0.012": 0.0,
			"-0.011": 0.0,
			"-0.01": 0.0,
			"-0.009": 0.0,
			"-0.008": 0.0,
			"-0.007": 0.0,
			"-0.006": 0.0,
			"-0.005": 0.0,
			"-0.004": 3.08531698627,
			"-0.003": 16.1312346303,
			"-0.002": 31.2271645305,
			"-0.001": 32.721220745,
			"0.0": 33.0047296331,
			"0.001": 33.2265218534,
			"0.002": 17.6156041283,
			"0.003": 5.11674935241,
			"0.004": 3.91702355369,
			"0.005": 3.06391773823,
			"0.006": 3.03396077183,
			"0.007": 2.39486562782,
			"0.008": 0.673200365064,
			"0.009": 0.0,
			"0.01": 0.0,
			"0.011": 0.0,
			"0.012": 0.0,
			"0.013": 0.0,
			"0.014": 0.0,
			"0.015": 0.0,
			"0.016": 0.0,
			"0.017": 0.0,
			"0.018": 0.0,
			"0.019": 0.0,
			"0.02": 0.0,
			"0.021": 0.0,
			"0.022": 0.0,
			"0.023": 0.0,
			"0.024": 0.0,
			"0.025": 0.0
		}
	}
}
