{
	 "smiles": "CC1=CC(=O)C(C)=CC1=O", 
	 "Tm": 397.15, 
	 "num_atms": 18, 
	 "gaussian": { 
		 "optdone": 1, 
		 "sigma_profile": "yes", 
		 "theory": "DFT", 
		 "functional": "B3LYP", 
		 "basiset": "6-31G**", 
		 "properties": { 
			 "R2extent": 1940.3787, 
			 "electric_dipole_moment_norm": 0.000141421356237, 
			 "electric_quadrupole_moment_norm": 16.384575039, 
			 "total_energy": -460.099561165, 
			 "HOMO_LUMO_gap": 0.14198, 
			 "cosmo_polarized_energy": -8.64, 
			 "cosmo_cavitation_energy": 22.39, 
			 "cosmo_dispersion_energy": -16.21, 
			 "cosmo_repulsion_energy": 1.31, 
			 "cosmo_total_nonelectrostatic_energy": 7.5, 
			 "SMD_solvation_energy": 5.28 
		},
		"coords": [
			{
				"x": 1.5909512711,
				"y": -0.041061482,
				"z": -0.8795017128,
				"element": "C" 
			},
			{
				"x": 0.3506242044,
				"y": -0.5020504923,
				"z": -0.1755373433,
				"element": "C" 
			},
			{
				"x": -0.1114552512,
				"y": -1.7674228279,
				"z": -0.1974891234,
				"element": "C" 
			},
			{
				"x": -1.3414392273,
				"y": -2.1848828403,
				"z": 0.5110481353,
				"element": "C" 
			},
			{
				"x": -1.7310748708,
				"y": -3.3474829008,
				"z": 0.4672955502,
				"element": "O" 
			},
			{
				"x": -2.103801457,
				"y": -1.1516149834,
				"z": 1.2858043465,
				"element": "C" 
			},
			{
				"x": -3.3441711037,
				"y": -1.6125858716,
				"z": 1.9897057445,
				"element": "C" 
			},
			{
				"x": -1.6417212134,
				"y": 0.1137573624,
				"z": 1.3077581022,
				"element": "C" 
			},
			{
				"x": -0.4116818315,
				"y": 0.5311959567,
				"z": 0.5993038693,
				"element": "C" 
			},
			{
				"x": -0.0221321488,
				"y": 1.6938296056,
				"z": 0.6429271792,
				"element": "O" 
			},
			{
				"x": 1.3544060833,
				"y": 0.7584880576,
				"z": -1.5893764392,
				"element": "H" 
			},
			{
				"x": 2.0726217351,
				"y": -0.8632218597,
				"z": -1.4131025471,
				"element": "H" 
			},
			{
				"x": 2.3007186276,
				"y": 0.3881459224,
				"z": -0.1645419117,
				"element": "H" 
			},
			{
				"x": 0.398154063,
				"y": -2.5583744994,
				"z": -0.7415750301,
				"element": "H" 
			},
			{
				"x": -4.0538797567,
				"y": -2.0418440129,
				"z": 1.2747180863,
				"element": "H" 
			},
			{
				"x": -3.8258920909,
				"y": -0.7904042225,
				"z": 2.5232276067,
				"element": "H" 
			},
			{
				"x": -3.1076642306,
				"y": -2.4120931089,
				"z": 2.699640945,
				"element": "H" 
			},
			{
				"x": -2.1513628028,
				"y": 0.9047221969,
				"z": 1.8517945422,
				"element": "H" 
			}
		],
		 "valence_orbital": [ 
			{
				"type": "occ",
				"energy": -0.38071,
				"method": "rhf"
			},
			{
				"type": "occ",
				"energy": -0.29098,
				"method": "rhf"
			},
			{
				"type": "occ",
				"energy": -0.27856,
				"method": "rhf"
			},
			{
				"type": "occ",
				"energy": -0.27155,
				"method": "rhf"
			},
			{
				"type": "occ",
				"energy": -0.26087,
				"method": "rhf"
			},
			{
				"type": "unocc",
				"energy": -0.11889,
				"method": "rhf"
			},
			{
				"type": "unocc",
				"energy": -0.01125,
				"method": "rhf"
			},
			{
				"type": "unocc",
				"energy": 0.01717,
				"method": "rhf"
			},
			{
				"type": "unocc",
				"energy": 0.1043,
				"method": "rhf"
			},
			{
				"type": "unocc",
				"energy": 0.11057,
				"method": "rhf"
			}
		],
		"cosmo_sigma_profile": { 
			"-0.025": 0.0,
			"-0.024": 0.0,
			"-0.023": 0.0,
			"-0.022": 0.0,
			"-0.021": 0.0,
			"-0.02": 0.0,
			"-0.019": 0.0,
			"-0.018": 0.0,
			"-0.017": 0.0,
			"-0.016": 0.0,
			"-0.015": 0.0,
			"-0.014": 0.0,
			"-0.013": 0.0,
			"-0.012": 0.0,
			"-0.011": 0.0,
			"-0.01": 0.0,
			"-0.009": 0.0,
			"-0.008": 0.382897281732,
			"-0.007": 3.96155643971,
			"-0.006": 7.0990413332,
			"-0.005": 14.7239767076,
			"-0.004": 19.5166890321,
			"-0.003": 20.0718478528,
			"-0.002": 19.9691173441,
			"-0.001": 23.8862460937,
			"0.0": 15.6334785034,
			"0.001": 9.08057523665,
			"0.002": 3.29353869339,
			"0.003": 3.09213805335,
			"0.004": 3.32370873115,
			"0.005": 2.60564610795,
			"0.006": 2.45690890392,
			"0.007": 3.9551731647,
			"0.008": 3.60090990344,
			"0.009": 3.79776566854,
			"0.01": 5.00826238509,
			"0.011": 8.38824344459,
			"0.012": 4.02209038239,
			"0.013": 0.210529250451,
			"0.014": 0.0,
			"0.015": 0.0,
			"0.016": 0.0,
			"0.017": 0.0,
			"0.018": 0.0,
			"0.019": 0.0,
			"0.02": 0.0,
			"0.021": 0.0,
			"0.022": 0.0,
			"0.023": 0.0,
			"0.024": 0.0,
			"0.025": 0.0
		}
	}
}
