{
	 "smiles": "COC1=CC=C(SC2=CC=C(N)C=C2)C=C1", 
	 "Tm": 367.15, 
	 "num_atms": 29, 
	 "gaussian": { 
		 "optdone": 1, 
		 "sigma_profile": "yes", 
		 "theory": "DFT", 
		 "functional": "B3LYP", 
		 "basiset": "6-31G**", 
		 "properties": { 
			 "R2extent": 6023.7972, 
			 "electric_dipole_moment_norm": 4.88179862243, 
			 "electric_quadrupole_moment_norm": 10.0281423005, 
			 "total_energy": -1031.36916882, 
			 "HOMO_LUMO_gap": 0.18297, 
			 "cosmo_polarized_energy": -13.48, 
			 "cosmo_cavitation_energy": 34.71, 
			 "cosmo_dispersion_energy": -25.36, 
			 "cosmo_repulsion_energy": 1.95, 
			 "cosmo_total_nonelectrostatic_energy": 11.3, 
			 "SMD_solvation_energy": 6.1 
		},
		"coords": [
			{
				"x": 3.7715944033,
				"y": -3.2404441323,
				"z": -2.3243075079,
				"element": "C" 
			},
			{
				"x": 2.5993738614,
				"y": -2.8531229173,
				"z": -3.0200003642,
				"element": "O" 
			},
			{
				"x": 1.7384332685,
				"y": -1.9897675948,
				"z": -2.401257856,
				"element": "C" 
			},
			{
				"x": 0.5941217776,
				"y": -1.6403401787,
				"z": -3.132489239,
				"element": "C" 
			},
			{
				"x": -0.3368091813,
				"y": -0.7584641856,
				"z": -2.5987401301,
				"element": "C" 
			},
			{
				"x": -0.157815686,
				"y": -0.2192939964,
				"z": -1.3146773755,
				"element": "C" 
			},
			{
				"x": -1.4517657677,
				"y": 0.8476349901,
				"z": -0.6684295773,
				"element": "S" 
			},
			{
				"x": -0.574775337,
				"y": 1.9514826152,
				"z": 0.4343295606,
				"element": "C" 
			},
			{
				"x": -0.7568090636,
				"y": 1.8495998223,
				"z": 1.8197593021,
				"element": "C" 
			},
			{
				"x": -0.1347990833,
				"y": 2.7410585656,
				"z": 2.6899095763,
				"element": "C" 
			},
			{
				"x": 0.6989877142,
				"y": 3.7590139205,
				"z": 2.1958552717,
				"element": "C" 
			},
			{
				"x": 1.283577001,
				"y": 4.683716632,
				"z": 3.056281708,
				"element": "N" 
			},
			{
				"x": 0.8831699114,
				"y": 3.8581188499,
				"z": 0.8031918171,
				"element": "C" 
			},
			{
				"x": 0.2482565593,
				"y": 2.9745449283,
				"z": -0.0607413015,
				"element": "C" 
			},
			{
				"x": 0.978130413,
				"y": -0.5777424741,
				"z": -0.5865177326,
				"element": "C" 
			},
			{
				"x": 1.9297706291,
				"y": -1.4486737621,
				"z": -1.1250348203,
				"element": "C" 
			},
			{
				"x": 4.4140601176,
				"y": -2.3790319446,
				"z": -2.0981543287,
				"element": "H" 
			},
			{
				"x": 4.3070400978,
				"y": -3.9209007437,
				"z": -2.9885449157,
				"element": "H" 
			},
			{
				"x": 3.5352059089,
				"y": -3.7635987402,
				"z": -1.3882622083,
				"element": "H" 
			},
			{
				"x": 0.4631568513,
				"y": -2.0610897221,
				"z": -4.1242406287,
				"element": "H" 
			},
			{
				"x": -1.2084082467,
				"y": -0.4799646973,
				"z": -3.1841065503,
				"element": "H" 
			},
			{
				"x": -1.3920449797,
				"y": 1.0641301885,
				"z": 2.2173705269,
				"element": "H" 
			},
			{
				"x": -0.2934349017,
				"y": 2.6503795832,
				"z": 3.7617590103,
				"element": "H" 
			},
			{
				"x": 2.106206075,
				"y": 5.1527097679,
				"z": 2.7046079888,
				"element": "H" 
			},
			{
				"x": 1.3891580423,
				"y": 4.3858370559,
				"z": 4.0157068688,
				"element": "H" 
			},
			{
				"x": 1.5168023571,
				"y": 4.645582249,
				"z": 0.4021647221,
				"element": "H" 
			},
			{
				"x": 0.3927461325,
				"y": 3.0729126465,
				"z": -1.1321128726,
				"element": "H" 
			},
			{
				"x": 1.1330960841,
				"y": -0.1720538676,
				"z": 0.4079403445,
				"element": "H" 
			},
			{
				"x": 2.8044750414,
				"y": -1.7004328583,
				"z": -0.5366592889,
				"element": "H" 
			}
		],
		 "valence_orbital": [ 
			{
				"type": "occ",
				"energy": -0.25278,
				"method": "rhf"
			},
			{
				"type": "occ",
				"energy": -0.25202,
				"method": "rhf"
			},
			{
				"type": "occ",
				"energy": -0.24546,
				"method": "rhf"
			},
			{
				"type": "occ",
				"energy": -0.21081,
				"method": "rhf"
			},
			{
				"type": "occ",
				"energy": -0.18826,
				"method": "rhf"
			},
			{
				"type": "unocc",
				"energy": -0.00529,
				"method": "rhf"
			},
			{
				"type": "unocc",
				"energy": -0.00162,
				"method": "rhf"
			},
			{
				"type": "unocc",
				"energy": 0.00326,
				"method": "rhf"
			},
			{
				"type": "unocc",
				"energy": 0.01525,
				"method": "rhf"
			},
			{
				"type": "unocc",
				"energy": 0.06529,
				"method": "rhf"
			}
		],
		"cosmo_sigma_profile": { 
			"-0.025": 0.0,
			"-0.024": 0.0,
			"-0.023": 0.0,
			"-0.022": 0.0,
			"-0.021": 0.0,
			"-0.02": 0.0,
			"-0.019": 0.0,
			"-0.018": 0.0,
			"-0.017": 0.0,
			"-0.016": 0.0,
			"-0.015": 0.0,
			"-0.014": 0.0,
			"-0.013": 1.13456002352,
			"-0.012": 2.5126491112,
			"-0.011": 2.92763470759,
			"-0.01": 3.80209804473,
			"-0.009": 2.63230281476,
			"-0.008": 2.4901271463,
			"-0.007": 4.22812139821,
			"-0.006": 14.8027635298,
			"-0.005": 22.1948624198,
			"-0.004": 22.3605956296,
			"-0.003": 20.6436649114,
			"-0.002": 15.3249392391,
			"-0.001": 13.3799199293,
			"0.0": 15.1733522493,
			"0.001": 15.3351022788,
			"0.002": 16.8584094207,
			"0.003": 19.7944861984,
			"0.004": 24.2177318315,
			"0.005": 28.0343923197,
			"0.006": 12.6662363416,
			"0.007": 4.42199321002,
			"0.008": 4.40800415829,
			"0.009": 4.16770649406,
			"0.01": 2.12349067552,
			"0.011": 1.14791298554,
			"0.012": 0.673192267257,
			"0.013": 0.640746522406,
			"0.014": 0.251607702742,
			"0.015": 0.0,
			"0.016": 0.0,
			"0.017": 0.0,
			"0.018": 0.0,
			"0.019": 0.0,
			"0.02": 0.0,
			"0.021": 0.0,
			"0.022": 0.0,
			"0.023": 0.0,
			"0.024": 0.0,
			"0.025": 0.0
		}
	}
}
