{
	 "smiles": "COCCOC1=CC=C(CC#N)C=C1", 
	 "Tm": 323.15, 
	 "num_atms": 27, 
	 "gaussian": { 
		 "optdone": 1, 
		 "sigma_profile": "yes", 
		 "theory": "DFT", 
		 "functional": "B3LYP", 
		 "basiset": "6-31G**", 
		 "properties": { 
			 "R2extent": 4952.6845, 
			 "electric_dipole_moment_norm": 3.68836830048, 
			 "electric_quadrupole_moment_norm": 27.9487985965, 
			 "total_energy": -632.159917722, 
			 "HOMO_LUMO_gap": 0.21434, 
			 "cosmo_polarized_energy": -13.96, 
			 "cosmo_cavitation_energy": 31.81, 
			 "cosmo_dispersion_energy": -22.22, 
			 "cosmo_repulsion_energy": 1.77, 
			 "cosmo_total_nonelectrostatic_energy": 11.37, 
			 "SMD_solvation_energy": 7.5 
		},
		"coords": [
			{
				"x": -0.8019866436,
				"y": 2.8640703753,
				"z": 3.5371433032,
				"element": "C" 
			},
			{
				"x": 0.4261901507,
				"y": 3.210458035,
				"z": 2.9159331759,
				"element": "O" 
			},
			{
				"x": 0.3782105551,
				"y": 3.3100190974,
				"z": 1.5086578863,
				"element": "C" 
			},
			{
				"x": 0.5047475162,
				"y": 1.978867286,
				"z": 0.7784145255,
				"element": "C" 
			},
			{
				"x": -0.7354816923,
				"y": 1.2780520049,
				"z": 0.8670399361,
				"element": "O" 
			},
			{
				"x": -0.8414134093,
				"y": 0.0528669231,
				"z": 0.2759784978,
				"element": "C" 
			},
			{
				"x": -2.0957553365,
				"y": -0.5693694714,
				"z": 0.382941303,
				"element": "C" 
			},
			{
				"x": -2.3075861486,
				"y": -1.8169555272,
				"z": -0.18548597,
				"element": "C" 
			},
			{
				"x": -1.2793577963,
				"y": -2.4777304171,
				"z": -0.8754312715,
				"element": "C" 
			},
			{
				"x": -1.4965106781,
				"y": -3.8624790312,
				"z": -1.4696506818,
				"element": "C" 
			},
			{
				"x": -2.6694709169,
				"y": -3.94644147,
				"z": -2.3493775821,
				"element": "C" 
			},
			{
				"x": -3.6056647108,
				"y": -4.0099953128,
				"z": -3.032487592,
				"element": "N" 
			},
			{
				"x": -0.0397232568,
				"y": -1.8490141463,
				"z": -0.9803338534,
				"element": "C" 
			},
			{
				"x": 0.1918936745,
				"y": -0.5929364871,
				"z": -0.4105855905,
				"element": "C" 
			},
			{
				"x": -0.6450603566,
				"y": 2.960772003,
				"z": 4.6144452184,
				"element": "H" 
			},
			{
				"x": -1.6100925726,
				"y": 3.547683149,
				"z": 3.2346138533,
				"element": "H" 
			},
			{
				"x": -1.1126810389,
				"y": 1.8387050486,
				"z": 3.306340844,
				"element": "H" 
			},
			{
				"x": -0.5379782581,
				"y": 3.8212825304,
				"z": 1.1728965368,
				"element": "H" 
			},
			{
				"x": 1.2360672415,
				"y": 3.9280847425,
				"z": 1.2185765218,
				"element": "H" 
			},
			{
				"x": 1.312282827,
				"y": 1.3890879135,
				"z": 1.2324414602,
				"element": "H" 
			},
			{
				"x": 0.7557038288,
				"y": 2.1625929273,
				"z": -0.2769782698,
				"element": "H" 
			},
			{
				"x": -2.8883040147,
				"y": -0.0514977743,
				"z": 0.9129285458,
				"element": "H" 
			},
			{
				"x": -3.2869736432,
				"y": -2.2805428376,
				"z": -0.1022830742,
				"element": "H" 
			},
			{
				"x": -1.6238866254,
				"y": -4.6116305615,
				"z": -0.6764330373,
				"element": "H" 
			},
			{
				"x": -0.6160430396,
				"y": -4.1688612231,
				"z": -2.0447867726,
				"element": "H" 
			},
			{
				"x": 0.7705232884,
				"y": -2.3391348432,
				"z": -1.5143988542,
				"element": "H" 
			},
			{
				"x": 1.1686510562,
				"y": -0.1361529328,
				"z": -0.5126190586,
				"element": "H" 
			}
		],
		 "valence_orbital": [ 
			{
				"type": "occ",
				"energy": -0.31932,
				"method": "rhf"
			},
			{
				"type": "occ",
				"energy": -0.31479,
				"method": "rhf"
			},
			{
				"type": "occ",
				"energy": -0.26311,
				"method": "rhf"
			},
			{
				"type": "occ",
				"energy": -0.25797,
				"method": "rhf"
			},
			{
				"type": "occ",
				"energy": -0.22949,
				"method": "rhf"
			},
			{
				"type": "unocc",
				"energy": -0.01515,
				"method": "rhf"
			},
			{
				"type": "unocc",
				"energy": -0.00478,
				"method": "rhf"
			},
			{
				"type": "unocc",
				"energy": 0.03478,
				"method": "rhf"
			},
			{
				"type": "unocc",
				"energy": 0.04442,
				"method": "rhf"
			},
			{
				"type": "unocc",
				"energy": 0.08916,
				"method": "rhf"
			}
		],
		"cosmo_sigma_profile": { 
			"-0.025": 0.0,
			"-0.024": 0.0,
			"-0.023": 0.0,
			"-0.022": 0.0,
			"-0.021": 0.0,
			"-0.02": 0.0,
			"-0.019": 0.0,
			"-0.018": 0.0,
			"-0.017": 0.0,
			"-0.016": 0.0,
			"-0.015": 0.0,
			"-0.014": 0.0,
			"-0.013": 0.0,
			"-0.012": 0.0,
			"-0.011": 0.0,
			"-0.01": 0.0,
			"-0.009": 2.05500282375,
			"-0.008": 6.49203762669,
			"-0.007": 7.17245614523,
			"-0.006": 17.8678907598,
			"-0.005": 25.2008996702,
			"-0.004": 22.8313434814,
			"-0.003": 20.1186406314,
			"-0.002": 19.5339774994,
			"-0.001": 14.357955433,
			"0.0": 11.9916921661,
			"0.001": 11.4943606835,
			"0.002": 13.0574186682,
			"0.003": 14.7465980449,
			"0.004": 15.213179677,
			"0.005": 13.1358865878,
			"0.006": 5.23772168073,
			"0.007": 5.02051937881,
			"0.008": 5.00834364876,
			"0.009": 5.25657226453,
			"0.01": 4.44830488303,
			"0.011": 3.94030329527,
			"0.012": 3.94726082627,
			"0.013": 3.83085947559,
			"0.014": 0.701309016744,
			"0.015": 0.0,
			"0.016": 0.0,
			"0.017": 0.0,
			"0.018": 0.0,
			"0.019": 0.0,
			"0.02": 0.0,
			"0.021": 0.0,
			"0.022": 0.0,
			"0.023": 0.0,
			"0.024": 0.0,
			"0.025": 0.0
		}
	}
}
