{
	 "smiles": "CCCCCCCCNCCCCCCCC", 
	 "Tm": 308.65, 
	 "num_atms": 52, 
	 "gaussian": { 
		 "optdone": 1, 
		 "sigma_profile": "yes", 
		 "theory": "DFT", 
		 "functional": "B3LYP", 
		 "basiset": "6-31G**", 
		 "properties": { 
			 "R2extent": 6610.3487, 
			 "electric_dipole_moment_norm": 1.09075838296, 
			 "electric_quadrupole_moment_norm": 2.30404238459, 
			 "total_energy": -685.580789909, 
			 "HOMO_LUMO_gap": 0.28283, 
			 "cosmo_polarized_energy": -3.31, 
			 "cosmo_cavitation_energy": 49.61, 
			 "cosmo_dispersion_energy": -30.55, 
			 "cosmo_repulsion_energy": 2.43, 
			 "cosmo_total_nonelectrostatic_energy": 21.48, 
			 "SMD_solvation_energy": 5.98 
		},
		"coords": [
			{
				"x": -2.8092868983,
				"y": 0.6768627461,
				"z": 1.2631668189,
				"element": "C" 
			},
			{
				"x": -2.872818846,
				"y": -0.8136318547,
				"z": 1.617433838,
				"element": "C" 
			},
			{
				"x": -1.6344245772,
				"y": -1.3753429763,
				"z": 2.3395334963,
				"element": "C" 
			},
			{
				"x": -1.3148192283,
				"y": -0.7033498304,
				"z": 3.6955123317,
				"element": "C" 
			},
			{
				"x": -0.2522493639,
				"y": 0.411222385,
				"z": 3.6368616199,
				"element": "C" 
			},
			{
				"x": 1.1891352868,
				"y": -0.1169811545,
				"z": 3.5493442311,
				"element": "C" 
			},
			{
				"x": 2.2747093232,
				"y": 0.9797818646,
				"z": 3.5322483864,
				"element": "C" 
			},
			{
				"x": 2.689437621,
				"y": 1.5061275025,
				"z": 2.1528081963,
				"element": "C" 
			},
			{
				"x": 1.5813070749,
				"y": 2.0935660401,
				"z": 1.3963204511,
				"element": "N" 
			},
			{
				"x": 2.0095327405,
				"y": 2.915781967,
				"z": 0.2583044763,
				"element": "C" 
			},
			{
				"x": 2.6159476709,
				"y": 2.1423276399,
				"z": -0.9234193188,
				"element": "C" 
			},
			{
				"x": 1.6697725356,
				"y": 1.2167722817,
				"z": -1.708805862,
				"element": "C" 
			},
			{
				"x": 1.3553400201,
				"y": -0.127877755,
				"z": -1.0348089265,
				"element": "C" 
			},
			{
				"x": 0.6015903562,
				"y": -1.122338568,
				"z": -1.93439831,
				"element": "C" 
			},
			{
				"x": -0.8090486619,
				"y": -0.6734963236,
				"z": -2.3456517189,
				"element": "C" 
			},
			{
				"x": -1.6124953949,
				"y": -1.7323762008,
				"z": -3.11960016,
				"element": "C" 
			},
			{
				"x": -1.0402931619,
				"y": -2.0817777932,
				"z": -4.4989171365,
				"element": "C" 
			},
			{
				"x": -3.6987480776,
				"y": 0.9826965154,
				"z": 0.7016215418,
				"element": "H" 
			},
			{
				"x": -2.7575099977,
				"y": 1.3047255515,
				"z": 2.1588033124,
				"element": "H" 
			},
			{
				"x": -1.9309515732,
				"y": 0.9055292857,
				"z": 0.6490274163,
				"element": "H" 
			},
			{
				"x": -3.7579548306,
				"y": -0.9948814919,
				"z": 2.2432664052,
				"element": "H" 
			},
			{
				"x": -3.0311197976,
				"y": -1.3924389127,
				"z": 0.6978476828,
				"element": "H" 
			},
			{
				"x": -1.7979113221,
				"y": -2.4491359075,
				"z": 2.4942969914,
				"element": "H" 
			},
			{
				"x": -0.763115174,
				"y": -1.2995278817,
				"z": 1.6750628544,
				"element": "H" 
			},
			{
				"x": -2.2442141421,
				"y": -0.2984615719,
				"z": 4.118227788,
				"element": "H" 
			},
			{
				"x": -0.9743730871,
				"y": -1.4634678794,
				"z": 4.4114454204,
				"element": "H" 
			},
			{
				"x": -0.4485533966,
				"y": 1.0693413272,
				"z": 2.7844774938,
				"element": "H" 
			},
			{
				"x": -0.334621921,
				"y": 1.0316007497,
				"z": 4.5405581373,
				"element": "H" 
			},
			{
				"x": 1.3620054395,
				"y": -0.7695248385,
				"z": 4.4160191781,
				"element": "H" 
			},
			{
				"x": 1.305241688,
				"y": -0.7539869531,
				"z": 2.6629208596,
				"element": "H" 
			},
			{
				"x": 1.9521560667,
				"y": 1.8230982544,
				"z": 4.1615005718,
				"element": "H" 
			},
			{
				"x": 3.1861670086,
				"y": 0.5933629086,
				"z": 4.0049939514,
				"element": "H" 
			},
			{
				"x": 3.1041596724,
				"y": 0.6741105746,
				"z": 1.5694909503,
				"element": "H" 
			},
			{
				"x": 3.5181262252,
				"y": 2.2288120233,
				"z": 2.2921038539,
				"element": "H" 
			},
			{
				"x": 1.0476091773,
				"y": 2.6890767911,
				"z": 2.0252785909,
				"element": "H" 
			},
			{
				"x": 1.1278147416,
				"y": 3.4628693158,
				"z": -0.0991717828,
				"element": "H" 
			},
			{
				"x": 2.7514173037,
				"y": 3.6775672216,
				"z": 0.5703109725,
				"element": "H" 
			},
			{
				"x": 3.0076746422,
				"y": 2.9023822703,
				"z": -1.6123543981,
				"element": "H" 
			},
			{
				"x": 3.4930358779,
				"y": 1.5730928696,
				"z": -0.5874721774,
				"element": "H" 
			},
			{
				"x": 0.7386034662,
				"y": 1.7591108935,
				"z": -1.9210982233,
				"element": "H" 
			},
			{
				"x": 2.1287016123,
				"y": 1.0133963436,
				"z": -2.687237352,
				"element": "H" 
			},
			{
				"x": 0.792499103,
				"y": 0.0539146922,
				"z": -0.1124190115,
				"element": "H" 
			},
			{
				"x": 2.3036294402,
				"y": -0.5918349937,
				"z": -0.7280163595,
				"element": "H" 
			},
			{
				"x": 0.522166989,
				"y": -2.0834436627,
				"z": -1.4067943633,
				"element": "H" 
			},
			{
				"x": 1.205203166,
				"y": -1.318576053,
				"z": -2.831256402,
				"element": "H" 
			},
			{
				"x": -1.3677907492,
				"y": -0.4000807824,
				"z": -1.440163815,
				"element": "H" 
			},
			{
				"x": -0.7490799592,
				"y": 0.2398895134,
				"z": -2.9528464523,
				"element": "H" 
			},
			{
				"x": -1.6834540029,
				"y": -2.6456312962,
				"z": -2.5124177283,
				"element": "H" 
			},
			{
				"x": -2.6416558142,
				"y": -1.3711965297,
				"z": -3.24381828,
				"element": "H" 
			},
			{
				"x": -0.9596933027,
				"y": -1.1883714192,
				"z": -5.1295439971,
				"element": "H" 
			},
			{
				"x": -1.6812627544,
				"y": -2.7995556075,
				"z": -5.0217637481,
				"element": "H" 
			},
			{
				"x": -0.0422382141,
				"y": -2.5258312907,
				"z": -4.4268122947,
				"element": "H" 
			}
		],
		 "valence_orbital": [ 
			{
				"type": "occ",
				"energy": -0.30001,
				"method": "rhf"
			},
			{
				"type": "occ",
				"energy": -0.29902,
				"method": "rhf"
			},
			{
				"type": "occ",
				"energy": -0.29709,
				"method": "rhf"
			},
			{
				"type": "occ",
				"energy": -0.29566,
				"method": "rhf"
			},
			{
				"type": "occ",
				"energy": -0.21662,
				"method": "rhf"
			},
			{
				"type": "unocc",
				"energy": 0.06621,
				"method": "rhf"
			},
			{
				"type": "unocc",
				"energy": 0.08197,
				"method": "rhf"
			},
			{
				"type": "unocc",
				"energy": 0.09149,
				"method": "rhf"
			},
			{
				"type": "unocc",
				"energy": 0.09922,
				"method": "rhf"
			},
			{
				"type": "unocc",
				"energy": 0.10542,
				"method": "rhf"
			}
		],
		"cosmo_sigma_profile": { 
			"-0.025": 0.0,
			"-0.024": 0.0,
			"-0.023": 0.0,
			"-0.022": 0.0,
			"-0.021": 0.0,
			"-0.02": 0.0,
			"-0.019": 0.0,
			"-0.018": 0.0,
			"-0.017": 0.0,
			"-0.016": 0.0,
			"-0.015": 0.0,
			"-0.014": 0.0,
			"-0.013": 0.0,
			"-0.012": 0.0,
			"-0.011": 0.0,
			"-0.01": 0.0,
			"-0.009": 0.340689081985,
			"-0.008": 0.96144912587,
			"-0.007": 1.39652602065,
			"-0.006": 1.34568257415,
			"-0.005": 1.36433148717,
			"-0.004": 2.56174002072,
			"-0.003": 8.03493931795,
			"-0.002": 37.9021448928,
			"-0.001": 91.4719555089,
			"0.0": 100.300781077,
			"0.001": 83.4416522208,
			"0.002": 35.5387628156,
			"0.003": 3.8177951497,
			"0.004": 2.22859389614,
			"0.005": 1.23266675306,
			"0.006": 1.4850010269,
			"0.007": 1.12063531176,
			"0.008": 0.713173031703,
			"0.009": 1.62512731248,
			"0.01": 1.21860082149,
			"0.011": 0.00834998690551,
			"0.012": 0.0,
			"0.013": 0.0,
			"0.014": 0.0,
			"0.015": 0.0,
			"0.016": 0.0,
			"0.017": 0.0,
			"0.018": 0.0,
			"0.019": 0.0,
			"0.02": 0.0,
			"0.021": 0.0,
			"0.022": 0.0,
			"0.023": 0.0,
			"0.024": 0.0,
			"0.025": 0.0
		}
	}
}
