{
	 "smiles": "ClCCOC(=O)OCCCl", 
	 "Tm": 281.15, 
	 "num_atms": 18, 
	 "gaussian": { 
		 "optdone": 1, 
		 "sigma_profile": "yes", 
		 "theory": "DFT", 
		 "functional": "B3LYP", 
		 "basiset": "6-31G**", 
		 "properties": { 
			 "R2extent": 4126.2547, 
			 "electric_dipole_moment_norm": 1.77262815334, 
			 "electric_quadrupole_moment_norm": 8.03906965824, 
			 "total_energy": -1341.42703582, 
			 "HOMO_LUMO_gap": 0.30512, 
			 "cosmo_polarized_energy": -9.66, 
			 "cosmo_cavitation_energy": 26.06, 
			 "cosmo_dispersion_energy": -19.28, 
			 "cosmo_repulsion_energy": 1.63, 
			 "cosmo_total_nonelectrostatic_energy": 8.41, 
			 "SMD_solvation_energy": 5.33 
		},
		"coords": [
			{
				"x": -3.0923363537,
				"y": -1.9103042203,
				"z": 1.92041783,
				"element": "Cl" 
			},
			{
				"x": -1.845582313,
				"y": -1.8061281223,
				"z": 0.6143127764,
				"element": "C" 
			},
			{
				"x": -0.5109234709,
				"y": -1.3887187737,
				"z": 1.2189000068,
				"element": "C" 
			},
			{
				"x": 0.5181983677,
				"y": -1.4247690942,
				"z": 0.2078517394,
				"element": "O" 
			},
			{
				"x": 0.6014127601,
				"y": -0.3369910385,
				"z": -0.5757341846,
				"element": "C" 
			},
			{
				"x": -0.1143575942,
				"y": 0.6399505802,
				"z": -0.5235225047,
				"element": "O" 
			},
			{
				"x": 1.6226377742,
				"y": -0.5281934119,
				"z": -1.4270461399,
				"element": "O" 
			},
			{
				"x": 1.8902497032,
				"y": 0.5605350113,
				"z": -2.3357111997,
				"element": "C" 
			},
			{
				"x": 0.9598162031,
				"y": 0.4714542113,
				"z": -3.5388077833,
				"element": "C" 
			},
			{
				"x": 1.4089680295,
				"y": 1.7437698691,
				"z": -4.7432281555,
				"element": "Cl" 
			},
			{
				"x": -1.7770027769,
				"y": -2.7897647781,
				"z": 0.1480673731,
				"element": "H" 
			},
			{
				"x": -2.1937395072,
				"y": -1.0700760455,
				"z": -0.1098703639,
				"element": "H" 
			},
			{
				"x": -0.5775400678,
				"y": -0.3874915096,
				"z": 1.6483781644,
				"element": "H" 
			},
			{
				"x": -0.1866965038,
				"y": -2.1011357868,
				"z": 1.9784854045,
				"element": "H" 
			},
			{
				"x": 2.9304829651,
				"y": 0.4293072697,
				"z": -2.6362543968,
				"element": "H" 
			},
			{
				"x": 1.7664399609,
				"y": 1.5152382026,
				"z": -1.8213597459,
				"element": "H" 
			},
			{
				"x": -0.0746574627,
				"y": 0.6505007599,
				"z": -3.246847283,
				"element": "H" 
			},
			{
				"x": 1.0488302863,
				"y": -0.4954831234,
				"z": -4.0355315373,
				"element": "H" 
			}
		],
		 "valence_orbital": [ 
			{
				"type": "occ",
				"energy": -0.31166,
				"method": "rhf"
			},
			{
				"type": "occ",
				"energy": -0.30903,
				"method": "rhf"
			},
			{
				"type": "occ",
				"energy": -0.30717,
				"method": "rhf"
			},
			{
				"type": "occ",
				"energy": -0.30581,
				"method": "rhf"
			},
			{
				"type": "occ",
				"energy": -0.30227,
				"method": "rhf"
			},
			{
				"type": "unocc",
				"energy": 0.00285,
				"method": "rhf"
			},
			{
				"type": "unocc",
				"energy": 0.01491,
				"method": "rhf"
			},
			{
				"type": "unocc",
				"energy": 0.02126,
				"method": "rhf"
			},
			{
				"type": "unocc",
				"energy": 0.0869,
				"method": "rhf"
			},
			{
				"type": "unocc",
				"energy": 0.10297,
				"method": "rhf"
			}
		],
		"cosmo_sigma_profile": { 
			"-0.025": 0.0,
			"-0.024": 0.0,
			"-0.023": 0.0,
			"-0.022": 0.0,
			"-0.021": 0.0,
			"-0.02": 0.0,
			"-0.019": 0.0,
			"-0.018": 0.0,
			"-0.017": 0.0,
			"-0.016": 0.0,
			"-0.015": 0.0,
			"-0.014": 0.0,
			"-0.013": 0.0,
			"-0.012": 0.0,
			"-0.011": 0.0,
			"-0.01": 0.0,
			"-0.009": 0.0,
			"-0.008": 4.28518017897,
			"-0.007": 13.8046879567,
			"-0.006": 17.2957354641,
			"-0.005": 20.3949444804,
			"-0.004": 15.3651088832,
			"-0.003": 11.6495991096,
			"-0.002": 9.95487372522,
			"-0.001": 11.4717149898,
			"0.0": 10.5301149982,
			"0.001": 8.90220359141,
			"0.002": 9.55979014764,
			"0.003": 12.1944539094,
			"0.004": 12.3095283201,
			"0.005": 17.8265161749,
			"0.006": 17.2810656658,
			"0.007": 4.44281508193,
			"0.008": 4.48494553526,
			"0.009": 3.6924668695,
			"0.01": 1.49411626387,
			"0.011": 3.3055837184,
			"0.012": 0.25350594372,
			"0.013": 0.0,
			"0.014": 0.0,
			"0.015": 0.0,
			"0.016": 0.0,
			"0.017": 0.0,
			"0.018": 0.0,
			"0.019": 0.0,
			"0.02": 0.0,
			"0.021": 0.0,
			"0.022": 0.0,
			"0.023": 0.0,
			"0.024": 0.0,
			"0.025": 0.0
		}
	}
}
