{
	 "smiles": "OC(=O)CC1=CSC(=N1)N1CCCC1=O", 
	 "Tm": 392.15, 
	 "num_atms": 25, 
	 "gaussian": { 
		 "optdone": 1, 
		 "sigma_profile": "yes", 
		 "theory": "DFT", 
		 "functional": "B3LYP", 
		 "basiset": "6-31G**", 
		 "properties": { 
			 "R2extent": 4518.4515, 
			 "electric_dipole_moment_norm": 5.71113219336, 
			 "electric_quadrupole_moment_norm": 35.8964842603, 
			 "total_energy": -1082.37965796, 
			 "HOMO_LUMO_gap": 0.18547, 
			 "cosmo_polarized_energy": -18.06, 
			 "cosmo_cavitation_energy": 30.3, 
			 "cosmo_dispersion_energy": -22.85, 
			 "cosmo_repulsion_energy": 1.75, 
			 "cosmo_total_nonelectrostatic_energy": 9.2, 
			 "SMD_solvation_energy": 5.93 
		},
		"coords": [
			{
				"x": 1.6666842421,
				"y": -3.4237265528,
				"z": 0.0820866272,
				"element": "O" 
			},
			{
				"x": 2.7748728254,
				"y": -3.3992478127,
				"z": -0.6778097358,
				"element": "C" 
			},
			{
				"x": 3.3674527071,
				"y": -4.4077651195,
				"z": -0.9776565604,
				"element": "O" 
			},
			{
				"x": 3.2915520065,
				"y": -2.0039450752,
				"z": -1.0760375901,
				"element": "C" 
			},
			{
				"x": 2.2423877388,
				"y": -0.971487423,
				"z": -1.3863499591,
				"element": "C" 
			},
			{
				"x": 2.2026323369,
				"y": -0.1375027391,
				"z": -2.4613414708,
				"element": "C" 
			},
			{
				"x": 0.8119159727,
				"y": 0.9141198315,
				"z": -2.3891140314,
				"element": "S" 
			},
			{
				"x": 0.3724253022,
				"y": 0.1280415292,
				"z": -0.8835483136,
				"element": "C" 
			},
			{
				"x": 1.1956861055,
				"y": -0.8120645909,
				"z": -0.4903463795,
				"element": "N" 
			},
			{
				"x": -0.7496641006,
				"y": 0.469025575,
				"z": -0.1582920531,
				"element": "N" 
			},
			{
				"x": -1.1200046816,
				"y": -0.2271266186,
				"z": 1.0826773397,
				"element": "C" 
			},
			{
				"x": -2.22161743,
				"y": 0.6794690599,
				"z": 1.6703272842,
				"element": "C" 
			},
			{
				"x": -2.8178652975,
				"y": 1.4001429129,
				"z": 0.4495997331,
				"element": "C" 
			},
			{
				"x": -1.689356963,
				"y": 1.4091216097,
				"z": -0.5708533106,
				"element": "C" 
			},
			{
				"x": -1.5886168084,
				"y": 2.0754012571,
				"z": -1.5851575707,
				"element": "O" 
			},
			{
				"x": 1.3017067013,
				"y": -2.5112494129,
				"z": 0.157612945,
				"element": "H" 
			},
			{
				"x": 3.8984711848,
				"y": -1.6558054141,
				"z": -0.227259843,
				"element": "H" 
			},
			{
				"x": 3.9696591613,
				"y": -2.1392670698,
				"z": -1.9190679923,
				"element": "H" 
			},
			{
				"x": 2.8974111163,
				"y": -0.076000164,
				"z": -3.2867362184,
				"element": "H" 
			},
			{
				"x": -0.2469131881,
				"y": -0.3270763277,
				"z": 1.7304733167,
				"element": "H" 
			},
			{
				"x": -1.4845251493,
				"y": -1.234479539,
				"z": 0.8478726211,
				"element": "H" 
			},
			{
				"x": -2.9580138502,
				"y": 0.1045529447,
				"z": 2.2352694426,
				"element": "H" 
			},
			{
				"x": -1.7723581998,
				"y": 1.4081643384,
				"z": 2.3516629046,
				"element": "H" 
			},
			{
				"x": -3.1616855828,
				"y": 2.4177380166,
				"z": 0.6450553931,
				"element": "H" 
			},
			{
				"x": -3.6596361497,
				"y": 0.8484667842,
				"z": 0.0127334215,
				"element": "H" 
			}
		],
		 "valence_orbital": [ 
			{
				"type": "occ",
				"energy": -0.30059,
				"method": "rhf"
			},
			{
				"type": "occ",
				"energy": -0.29094,
				"method": "rhf"
			},
			{
				"type": "occ",
				"energy": -0.28198,
				"method": "rhf"
			},
			{
				"type": "occ",
				"energy": -0.25795,
				"method": "rhf"
			},
			{
				"type": "occ",
				"energy": -0.23256,
				"method": "rhf"
			},
			{
				"type": "unocc",
				"energy": -0.04709,
				"method": "rhf"
			},
			{
				"type": "unocc",
				"energy": 0.00747,
				"method": "rhf"
			},
			{
				"type": "unocc",
				"energy": 0.01495,
				"method": "rhf"
			},
			{
				"type": "unocc",
				"energy": 0.02672,
				"method": "rhf"
			},
			{
				"type": "unocc",
				"energy": 0.04403,
				"method": "rhf"
			}
		],
		"cosmo_sigma_profile": { 
			"-0.025": 0.0,
			"-0.024": 0.0,
			"-0.023": 0.0,
			"-0.022": 0.0,
			"-0.021": 0.0,
			"-0.02": 0.0,
			"-0.019": 0.0,
			"-0.018": 0.0,
			"-0.017": 0.0,
			"-0.016": 0.0,
			"-0.015": 0.0,
			"-0.014": 0.0,
			"-0.013": 0.0,
			"-0.012": 0.0,
			"-0.011": 0.0,
			"-0.01": 0.0166551443759,
			"-0.009": 1.78983616412,
			"-0.008": 4.63435454058,
			"-0.007": 10.2763016035,
			"-0.006": 17.1405349567,
			"-0.005": 28.6316582604,
			"-0.004": 25.6413183142,
			"-0.003": 20.8429019407,
			"-0.002": 18.2990992336,
			"-0.001": 14.8065696519,
			"0.0": 10.6672145148,
			"0.001": 10.3474767066,
			"0.002": 11.5752101247,
			"0.003": 10.0457045526,
			"0.004": 6.35519993433,
			"0.005": 4.28961937154,
			"0.006": 4.5949816311,
			"0.007": 4.5337657779,
			"0.008": 4.01803026461,
			"0.009": 4.96242444207,
			"0.01": 6.33775980422,
			"0.011": 8.20121207567,
			"0.012": 9.61064729486,
			"0.013": 4.84425598539,
			"0.014": 0.529688188474,
			"0.015": 0.0,
			"0.016": 0.0,
			"0.017": 0.0,
			"0.018": 0.0,
			"0.019": 0.0,
			"0.02": 0.0,
			"0.021": 0.0,
			"0.022": 0.0,
			"0.023": 0.0,
			"0.024": 0.0,
			"0.025": 0.0
		}
	}
}
