{
	 "smiles": "OC(=O)C1=CC=CC=C1C1CCCCC1", 
	 "Tm": 377.15, 
	 "num_atms": 31, 
	 "gaussian": { 
		 "optdone": 1, 
		 "sigma_profile": "yes", 
		 "theory": "DFT", 
		 "functional": "B3LYP", 
		 "basiset": "6-31G**", 
		 "properties": { 
			 "R2extent": 3187.9025, 
			 "electric_dipole_moment_norm": 4.39233249652, 
			 "electric_quadrupole_moment_norm": 12.8355464204, 
			 "total_energy": -655.494270508, 
			 "HOMO_LUMO_gap": 0.21572, 
			 "cosmo_polarized_energy": -12.47, 
			 "cosmo_cavitation_energy": 31.28, 
			 "cosmo_dispersion_energy": -22.63, 
			 "cosmo_repulsion_energy": 1.77, 
			 "cosmo_total_nonelectrostatic_energy": 10.42, 
			 "SMD_solvation_energy": 5.32 
		},
		"coords": [
			{
				"x": 0.194832784,
				"y": -2.2913526528,
				"z": -2.3361689038,
				"element": "O" 
			},
			{
				"x": 1.1846746549,
				"y": -1.4848115468,
				"z": -1.8581293112,
				"element": "C" 
			},
			{
				"x": 2.0540238953,
				"y": -1.0994817004,
				"z": -2.6017285504,
				"element": "O" 
			},
			{
				"x": 1.1457126608,
				"y": -1.1855585558,
				"z": -0.3821367133,
				"element": "C" 
			},
			{
				"x": 2.332972118,
				"y": -1.4714354814,
				"z": 0.3050578,
				"element": "C" 
			},
			{
				"x": 2.4212236774,
				"y": -1.3000800352,
				"z": 1.6836938078,
				"element": "C" 
			},
			{
				"x": 1.3112011414,
				"y": -0.8223943636,
				"z": 2.3757864462,
				"element": "C" 
			},
			{
				"x": 0.1411501754,
				"y": -0.4956624275,
				"z": 1.6875152853,
				"element": "C" 
			},
			{
				"x": 0.0225720698,
				"y": -0.6488084471,
				"z": 0.2986902187,
				"element": "C" 
			},
			{
				"x": -1.2427968702,
				"y": -0.2260741176,
				"z": -0.4628094962,
				"element": "C" 
			},
			{
				"x": -0.960095455,
				"y": 0.9094755984,
				"z": -1.4892905613,
				"element": "C" 
			},
			{
				"x": -0.8442646219,
				"y": 2.2932246779,
				"z": -0.8365162928,
				"element": "C" 
			},
			{
				"x": -2.1220308277,
				"y": 2.6442329596,
				"z": -0.0630324871,
				"element": "C" 
			},
			{
				"x": -2.419456759,
				"y": 1.5838416562,
				"z": 1.0062289336,
				"element": "C" 
			},
			{
				"x": -2.4609403198,
				"y": 0.1619758962,
				"z": 0.412244403,
				"element": "C" 
			},
			{
				"x": -0.3353993204,
				"y": -2.620331898,
				"z": -1.5962719148,
				"element": "H" 
			},
			{
				"x": 3.1819183325,
				"y": -1.8409474786,
				"z": -0.2614332571,
				"element": "H" 
			},
			{
				"x": 3.3420328466,
				"y": -1.538612301,
				"z": 2.2070169082,
				"element": "H" 
			},
			{
				"x": 1.3522746425,
				"y": -0.6894379165,
				"z": 3.4531654013,
				"element": "H" 
			},
			{
				"x": -0.6962643171,
				"y": -0.1097250972,
				"z": 2.2547643117,
				"element": "H" 
			},
			{
				"x": -1.565591415,
				"y": -1.091203784,
				"z": -1.0548014914,
				"element": "H" 
			},
			{
				"x": -0.0600183155,
				"y": 0.6907767545,
				"z": -2.0703720318,
				"element": "H" 
			},
			{
				"x": -1.7924745675,
				"y": 0.9258685425,
				"z": -2.2057950552,
				"element": "H" 
			},
			{
				"x": 0.0165489004,
				"y": 2.3109766046,
				"z": -0.154353667,
				"element": "H" 
			},
			{
				"x": -0.6450776453,
				"y": 3.0453079123,
				"z": -1.6087016917,
				"element": "H" 
			},
			{
				"x": -2.0337438513,
				"y": 3.6331467616,
				"z": 0.4020497235,
				"element": "H" 
			},
			{
				"x": -2.9645473003,
				"y": 2.7030354593,
				"z": -0.7670840903,
				"element": "H" 
			},
			{
				"x": -3.3779629563,
				"y": 1.7932413171,
				"z": 1.4965159584,
				"element": "H" 
			},
			{
				"x": -1.6537187533,
				"y": 1.6555575534,
				"z": 1.7874288594,
				"element": "H" 
			},
			{
				"x": -2.614453279,
				"y": -0.5812997379,
				"z": 1.2037381055,
				"element": "H" 
			},
			{
				"x": -3.3455013246,
				"y": 0.0964558478,
				"z": -0.2348706471,
				"element": "H" 
			}
		],
		 "valence_orbital": [ 
			{
				"type": "occ",
				"energy": -0.30729,
				"method": "rhf"
			},
			{
				"type": "occ",
				"energy": -0.29973,
				"method": "rhf"
			},
			{
				"type": "occ",
				"energy": -0.27873,
				"method": "rhf"
			},
			{
				"type": "occ",
				"energy": -0.25613,
				"method": "rhf"
			},
			{
				"type": "occ",
				"energy": -0.2523,
				"method": "rhf"
			},
			{
				"type": "unocc",
				"energy": -0.03658,
				"method": "rhf"
			},
			{
				"type": "unocc",
				"energy": -0.01328,
				"method": "rhf"
			},
			{
				"type": "unocc",
				"energy": 0.02845,
				"method": "rhf"
			},
			{
				"type": "unocc",
				"energy": 0.05789,
				"method": "rhf"
			},
			{
				"type": "unocc",
				"energy": 0.08457,
				"method": "rhf"
			}
		],
		"cosmo_sigma_profile": { 
			"-0.025": 0.0,
			"-0.024": 0.0,
			"-0.023": 0.0,
			"-0.022": 0.0,
			"-0.021": 0.0,
			"-0.02": 0.0,
			"-0.019": 0.13825665355,
			"-0.018": 0.658604061301,
			"-0.017": 0.66750802846,
			"-0.016": 0.932944197324,
			"-0.015": 0.988137014701,
			"-0.014": 1.01373794525,
			"-0.013": 0.650953726452,
			"-0.012": 0.751488739619,
			"-0.011": 1.16751097469,
			"-0.01": 1.10294618785,
			"-0.009": 0.492039170619,
			"-0.008": 0.766661638395,
			"-0.007": 2.14676629714,
			"-0.006": 6.54267384103,
			"-0.005": 10.0766858222,
			"-0.004": 13.2932859524,
			"-0.003": 15.7504594855,
			"-0.002": 29.9134077806,
			"-0.001": 33.8499303252,
			"0.0": 34.5678107127,
			"0.001": 24.9730665892,
			"0.002": 10.8841437339,
			"0.003": 9.46083533269,
			"0.004": 10.3237410276,
			"0.005": 6.87460280151,
			"0.006": 2.22796050462,
			"0.007": 2.31067813888,
			"0.008": 3.4322413863,
			"0.009": 2.60159521744,
			"0.01": 4.67088245581,
			"0.011": 5.32437216644,
			"0.012": 4.99459180007,
			"0.013": 1.62676248863,
			"0.014": 0.0,
			"0.015": 0.0,
			"0.016": 0.0,
			"0.017": 0.0,
			"0.018": 0.0,
			"0.019": 0.0,
			"0.02": 0.0,
			"0.021": 0.0,
			"0.022": 0.0,
			"0.023": 0.0,
			"0.024": 0.0,
			"0.025": 0.0
		}
	}
}
