{
	 "smiles": "CC(=O)OC1=C(N(C(C)=O)C2=CC(=CC=C12)[N+]([O-])=O)C1=CC=CC=C1", 
	 "Tm": 451.15, 
	 "num_atms": 39, 
	 "gaussian": { 
		 "optdone": 1, 
		 "sigma_profile": "yes", 
		 "theory": "DFT", 
		 "functional": "B3LYP", 
		 "basiset": "6-31G**", 
		 "properties": { 
			 "R2extent": 9483.4057, 
			 "electric_dipole_moment_norm": 9.26319929452, 
			 "electric_quadrupole_moment_norm": 31.603668251, 
			 "total_energy": -1179.89697293, 
			 "HOMO_LUMO_gap": 0.14703, 
			 "cosmo_polarized_energy": -17.59, 
			 "cosmo_cavitation_energy": 44.48, 
			 "cosmo_dispersion_energy": -30.02, 
			 "cosmo_repulsion_energy": 2.27, 
			 "cosmo_total_nonelectrostatic_energy": 16.73, 
			 "SMD_solvation_energy": 11.4 
		},
		"coords": [
			{
				"x": -2.1524474579,
				"y": 3.7586140514,
				"z": -1.1824800263,
				"element": "C" 
			},
			{
				"x": -1.7718036438,
				"y": 2.4909337184,
				"z": -0.4645349853,
				"element": "C" 
			},
			{
				"x": -1.9790132384,
				"y": 2.2280480094,
				"z": 0.6927986438,
				"element": "O" 
			},
			{
				"x": -1.1190496942,
				"y": 1.6423465111,
				"z": -1.3337396857,
				"element": "O" 
			},
			{
				"x": -0.7428095574,
				"y": 0.3931557872,
				"z": -0.8774417259,
				"element": "C" 
			},
			{
				"x": 0.435595336,
				"y": 0.0829468186,
				"z": -0.2514060778,
				"element": "C" 
			},
			{
				"x": 0.4922550494,
				"y": -1.325981602,
				"z": -0.1038993994,
				"element": "N" 
			},
			{
				"x": 1.3800302365,
				"y": -2.1052242299,
				"z": 0.6899278244,
				"element": "C" 
			},
			{
				"x": 2.2382205706,
				"y": -1.4120643678,
				"z": 1.7257930402,
				"element": "C" 
			},
			{
				"x": 1.3973728583,
				"y": -3.3122605058,
				"z": 0.5541524667,
				"element": "O" 
			},
			{
				"x": -0.6687682192,
				"y": -1.8754666228,
				"z": -0.6908442232,
				"element": "C" 
			},
			{
				"x": -1.0870009275,
				"y": -3.199372687,
				"z": -0.8123743201,
				"element": "C" 
			},
			{
				"x": -2.3143762124,
				"y": -3.401628676,
				"z": -1.439113597,
				"element": "C" 
			},
			{
				"x": -3.11857673,
				"y": -2.362905108,
				"z": -1.9367358207,
				"element": "C" 
			},
			{
				"x": -2.6920031693,
				"y": -1.0522873878,
				"z": -1.8011495268,
				"element": "C" 
			},
			{
				"x": -1.465023347,
				"y": -0.8053908232,
				"z": -1.1674941263,
				"element": "C" 
			},
			{
				"x": -2.7873419422,
				"y": -4.784566887,
				"z": -1.597060302,
				"element": "N" 
			},
			{
				"x": -2.07559224,
				"y": -5.6902426676,
				"z": -1.1633084933,
				"element": "O" 
			},
			{
				"x": -3.8726935219,
				"y": -4.9566742956,
				"z": -2.1550475788,
				"element": "O" 
			},
			{
				"x": 1.5496097814,
				"y": 1.0088605404,
				"z": 0.0370218191,
				"element": "C" 
			},
			{
				"x": 2.7840500301,
				"y": 0.8558611099,
				"z": -0.6180423306,
				"element": "C" 
			},
			{
				"x": 3.8211010295,
				"y": 1.7573292927,
				"z": -0.3863112458,
				"element": "C" 
			},
			{
				"x": 3.6379235844,
				"y": 2.8259370708,
				"z": 0.4957953895,
				"element": "C" 
			},
			{
				"x": 2.4117578382,
				"y": 2.9899159566,
				"z": 1.1415204995,
				"element": "C" 
			},
			{
				"x": 1.3701841187,
				"y": 2.0882873487,
				"z": 0.9154601867,
				"element": "C" 
			},
			{
				"x": -1.2522115518,
				"y": 4.2535777665,
				"z": -1.5587050159,
				"element": "H" 
			},
			{
				"x": -2.7822372085,
				"y": 3.5281761176,
				"z": -2.0463843854,
				"element": "H" 
			},
			{
				"x": -2.6825197768,
				"y": 4.4180248485,
				"z": -0.4965418844,
				"element": "H" 
			},
			{
				"x": 2.5297925033,
				"y": -2.1779787491,
				"z": 2.4451782152,
				"element": "H" 
			},
			{
				"x": 1.7150381464,
				"y": -0.5978647288,
				"z": 2.2297221831,
				"element": "H" 
			},
			{
				"x": 3.1419490486,
				"y": -0.9962984342,
				"z": 1.2736542266,
				"element": "H" 
			},
			{
				"x": -0.4996711403,
				"y": -4.0332032661,
				"z": -0.4617810227,
				"element": "H" 
			},
			{
				"x": -4.0555441195,
				"y": -2.6122777706,
				"z": -2.4172176449,
				"element": "H" 
			},
			{
				"x": -3.2921123626,
				"y": -0.2304535366,
				"z": -2.1766799958,
				"element": "H" 
			},
			{
				"x": 2.9216005512,
				"y": 0.0359042902,
				"z": -1.3173741453,
				"element": "H" 
			},
			{
				"x": 4.7692578277,
				"y": 1.6311418691,
				"z": -0.9006645324,
				"element": "H" 
			},
			{
				"x": 4.4469917896,
				"y": 3.5278770191,
				"z": 0.6749547183,
				"element": "H" 
			},
			{
				"x": 2.264237967,
				"y": 3.8184608597,
				"z": 1.8280588966,
				"element": "H" 
			},
			{
				"x": 0.4176277939,
				"y": 2.20854336,
				"z": 1.4209939821,
				"element": "H" 
			}
		],
		 "valence_orbital": [ 
			{
				"type": "occ",
				"energy": -0.27912,
				"method": "rhf"
			},
			{
				"type": "occ",
				"energy": -0.27793,
				"method": "rhf"
			},
			{
				"type": "occ",
				"energy": -0.27367,
				"method": "rhf"
			},
			{
				"type": "occ",
				"energy": -0.25455,
				"method": "rhf"
			},
			{
				"type": "occ",
				"energy": -0.23195,
				"method": "rhf"
			},
			{
				"type": "unocc",
				"energy": -0.08492,
				"method": "rhf"
			},
			{
				"type": "unocc",
				"energy": -0.04487,
				"method": "rhf"
			},
			{
				"type": "unocc",
				"energy": -0.03102,
				"method": "rhf"
			},
			{
				"type": "unocc",
				"energy": -0.02577,
				"method": "rhf"
			},
			{
				"type": "unocc",
				"energy": -0.01832,
				"method": "rhf"
			}
		],
		"cosmo_sigma_profile": { 
			"-0.025": 0.0,
			"-0.024": 0.0,
			"-0.023": 0.0,
			"-0.022": 0.0,
			"-0.021": 0.0,
			"-0.02": 0.0,
			"-0.019": 0.0,
			"-0.018": 0.0,
			"-0.017": 0.0,
			"-0.016": 0.0,
			"-0.015": 0.0,
			"-0.014": 0.0,
			"-0.013": 0.0,
			"-0.012": 0.0,
			"-0.011": 0.0,
			"-0.01": 0.0,
			"-0.009": 0.0,
			"-0.008": 1.11168193829,
			"-0.007": 12.0222675359,
			"-0.006": 27.0065360986,
			"-0.005": 28.5212837452,
			"-0.004": 28.8497788834,
			"-0.003": 29.4024521687,
			"-0.002": 30.0248648371,
			"-0.001": 28.1597579444,
			"0.0": 29.4942821253,
			"0.001": 27.0073408738,
			"0.002": 19.9106823299,
			"0.003": 16.7341918316,
			"0.004": 14.9543941526,
			"0.005": 8.14220535294,
			"0.006": 8.23186218681,
			"0.007": 10.1489635718,
			"0.008": 11.5347798792,
			"0.009": 9.56059196399,
			"0.01": 8.41842498777,
			"0.011": 5.90538410008,
			"0.012": 1.8898954826,
			"0.013": 0.0,
			"0.014": 0.0,
			"0.015": 0.0,
			"0.016": 0.0,
			"0.017": 0.0,
			"0.018": 0.0,
			"0.019": 0.0,
			"0.02": 0.0,
			"0.021": 0.0,
			"0.022": 0.0,
			"0.023": 0.0,
			"0.024": 0.0,
			"0.025": 0.0
		}
	}
}
