{
	 "smiles": "CC=CC", 
	 "Tm": 168.15, 
	 "num_atms": 12, 
	 "gaussian": { 
		 "optdone": 1, 
		 "sigma_profile": "yes", 
		 "theory": "DFT", 
		 "functional": "B3LYP", 
		 "basiset": "6-31G**", 
		 "properties": { 
			 "R2extent": 474.551, 
			 "electric_dipole_moment_norm": 0.198565908454, 
			 "electric_quadrupole_moment_norm": 1.86644207786, 
			 "total_energy": -157.233159255, 
			 "HOMO_LUMO_gap": 0.27077, 
			 "cosmo_polarized_energy": -1.41, 
			 "cosmo_cavitation_energy": 14.54, 
			 "cosmo_dispersion_energy": -10.88, 
			 "cosmo_repulsion_energy": 1.0, 
			 "cosmo_total_nonelectrostatic_energy": 4.66, 
			 "SMD_solvation_energy": 3.2 
		},
		"coords": [
			{
				"x": -1.980817214,
				"y": 0.045588438,
				"z": -1.4638172244,
				"element": "C" 
			},
			{
				"x": -0.52416481,
				"y": 0.3234978437,
				"z": -1.2182715648,
				"element": "C" 
			},
			{
				"x": 0.0597017406,
				"y": 0.6960495598,
				"z": -0.0731108726,
				"element": "C" 
			},
			{
				"x": -0.5916159945,
				"y": 0.9320189211,
				"z": 1.2608543336,
				"element": "C" 
			},
			{
				"x": -2.1272228984,
				"y": -0.9812901243,
				"z": -1.8227260106,
				"element": "H" 
			},
			{
				"x": -2.3783347673,
				"y": 0.7072264079,
				"z": -2.244164929,
				"element": "H" 
			},
			{
				"x": -2.5961456373,
				"y": 0.1769949318,
				"z": -0.5706645588,
				"element": "H" 
			},
			{
				"x": 0.1188921832,
				"y": 0.2015820044,
				"z": -2.090201866,
				"element": "H" 
			},
			{
				"x": 1.1385749822,
				"y": 0.8522110488,
				"z": -0.090253088,
				"element": "H" 
			},
			{
				"x": -0.4159811739,
				"y": 1.9594582715,
				"z": 1.6047260149,
				"element": "H" 
			},
			{
				"x": -0.1648314049,
				"y": 0.270921696,
				"z": 2.0260546758,
				"element": "H" 
			},
			{
				"x": -1.6714550059,
				"y": 0.7669410015,
				"z": 1.2429750898,
				"element": "H" 
			}
		],
		 "valence_orbital": [ 
			{
				"type": "occ",
				"energy": -0.39603,
				"method": "rhf"
			},
			{
				"type": "occ",
				"energy": -0.37977,
				"method": "rhf"
			},
			{
				"type": "occ",
				"energy": -0.35695,
				"method": "rhf"
			},
			{
				"type": "occ",
				"energy": -0.32638,
				"method": "rhf"
			},
			{
				"type": "occ",
				"energy": -0.23471,
				"method": "rhf"
			},
			{
				"type": "unocc",
				"energy": 0.03606,
				"method": "rhf"
			},
			{
				"type": "unocc",
				"energy": 0.10314,
				"method": "rhf"
			},
			{
				"type": "unocc",
				"energy": 0.12037,
				"method": "rhf"
			},
			{
				"type": "unocc",
				"energy": 0.14355,
				"method": "rhf"
			},
			{
				"type": "unocc",
				"energy": 0.16861,
				"method": "rhf"
			}
		],
		"cosmo_sigma_profile": { 
			"-0.025": 0.0,
			"-0.024": 0.0,
			"-0.023": 0.0,
			"-0.022": 0.0,
			"-0.021": 0.0,
			"-0.02": 0.0,
			"-0.019": 0.0,
			"-0.018": 0.0,
			"-0.017": 0.0,
			"-0.016": 0.0,
			"-0.015": 0.0,
			"-0.014": 0.0,
			"-0.013": 0.0,
			"-0.012": 0.0,
			"-0.011": 0.0,
			"-0.01": 0.0,
			"-0.009": 0.0,
			"-0.008": 0.0,
			"-0.007": 0.0,
			"-0.006": 0.0,
			"-0.005": 0.577191814169,
			"-0.004": 6.37541403817,
			"-0.003": 14.0344486414,
			"-0.002": 14.8528707929,
			"-0.001": 18.75602744,
			"0.0": 18.684227457,
			"0.001": 16.5772654826,
			"0.002": 5.3728126452,
			"0.003": 5.46804679,
			"0.004": 3.40343994043,
			"0.005": 3.01878680695,
			"0.006": 2.70550207513,
			"0.007": 2.60527949045,
			"0.008": 1.35287169763,
			"0.009": 0.0146109019541,
			"0.01": 0.0,
			"0.011": 0.0,
			"0.012": 0.0,
			"0.013": 0.0,
			"0.014": 0.0,
			"0.015": 0.0,
			"0.016": 0.0,
			"0.017": 0.0,
			"0.018": 0.0,
			"0.019": 0.0,
			"0.02": 0.0,
			"0.021": 0.0,
			"0.022": 0.0,
			"0.023": 0.0,
			"0.024": 0.0,
			"0.025": 0.0
		}
	}
}
