{
	 "smiles": "COC1=CC(=CC=C1)N1C(C)=CC(C(O)=O)=C1C", 
	 "Tm": 416.15, 
	 "num_atms": 33, 
	 "gaussian": { 
		 "optdone": 1, 
		 "sigma_profile": "yes", 
		 "theory": "DFT", 
		 "functional": "B3LYP", 
		 "basiset": "6-31G**", 
		 "properties": { 
			 "R2extent": 6000.4591, 
			 "electric_dipole_moment_norm": 8.21887605698, 
			 "electric_quadrupole_moment_norm": 27.5776354614, 
			 "total_energy": -822.958460549, 
			 "HOMO_LUMO_gap": 0.18216, 
			 "cosmo_polarized_energy": -17.55, 
			 "cosmo_cavitation_energy": 36.85, 
			 "cosmo_dispersion_energy": -25.6, 
			 "cosmo_repulsion_energy": 1.99, 
			 "cosmo_total_nonelectrostatic_energy": 13.25, 
			 "SMD_solvation_energy": 8.35 
		},
		"coords": [
			{
				"x": 1.4218519589,
				"y": -2.4928135903,
				"z": -4.303731031,
				"element": "C" 
			},
			{
				"x": 0.563880884,
				"y": -1.5932101697,
				"z": -3.6163180778,
				"element": "O" 
			},
			{
				"x": 0.6857126469,
				"y": -1.4880174208,
				"z": -2.2643665291,
				"element": "C" 
			},
			{
				"x": -0.1810823747,
				"y": -0.5700469618,
				"z": -1.65162082,
				"element": "C" 
			},
			{
				"x": -0.1375422487,
				"y": -0.3904536262,
				"z": -0.2724515792,
				"element": "C" 
			},
			{
				"x": 0.7655446871,
				"y": -1.1134723693,
				"z": 0.5171852441,
				"element": "C" 
			},
			{
				"x": 1.6255691186,
				"y": -2.016641424,
				"z": -0.101272153,
				"element": "C" 
			},
			{
				"x": 1.5952831174,
				"y": -2.2139185521,
				"z": -1.4848628659,
				"element": "C" 
			},
			{
				"x": -1.0331854324,
				"y": 0.5441919234,
				"z": 0.3438377165,
				"element": "N" 
			},
			{
				"x": -2.3740420385,
				"y": 0.2873513946,
				"z": 0.635717276,
				"element": "C" 
			},
			{
				"x": -3.0147938665,
				"y": -1.0340253454,
				"z": 0.3580579851,
				"element": "C" 
			},
			{
				"x": -2.884243085,
				"y": 1.4215402512,
				"z": 1.2132748322,
				"element": "C" 
			},
			{
				"x": -1.8367788475,
				"y": 2.4008630381,
				"z": 1.2828184089,
				"element": "C" 
			},
			{
				"x": -1.9181715855,
				"y": 3.7717545525,
				"z": 1.8141070158,
				"element": "C" 
			},
			{
				"x": -3.1797942673,
				"y": 4.2375323707,
				"z": 2.0590417954,
				"element": "O" 
			},
			{
				"x": -0.9726558715,
				"y": 4.4975343402,
				"z": 2.0464641669,
				"element": "O" 
			},
			{
				"x": -0.693455546,
				"y": 1.8228008968,
				"z": 0.7387028791,
				"element": "C" 
			},
			{
				"x": 0.6748282961,
				"y": 2.3847630027,
				"z": 0.5282173574,
				"element": "C" 
			},
			{
				"x": 2.4774929658,
				"y": -2.2231146661,
				"z": -4.1736319639,
				"element": "H" 
			},
			{
				"x": 1.1578742407,
				"y": -2.411460657,
				"z": -5.3588911413,
				"element": "H" 
			},
			{
				"x": 1.2708362992,
				"y": -3.5280536073,
				"z": -3.9725348629,
				"element": "H" 
			},
			{
				"x": -0.8733264678,
				"y": -0.0041653362,
				"z": -2.2651987508,
				"element": "H" 
			},
			{
				"x": 0.7811350822,
				"y": -0.9642096598,
				"z": 1.5912952157,
				"element": "H" 
			},
			{
				"x": 2.3319760312,
				"y": -2.5832669519,
				"z": 0.497998628,
				"element": "H" 
			},
			{
				"x": 2.2748655226,
				"y": -2.9250766188,
				"z": -1.9384620501,
				"element": "H" 
			},
			{
				"x": -3.0273014539,
				"y": -1.2755784143,
				"z": -0.7110781333,
				"element": "H" 
			},
			{
				"x": -4.0489993337,
				"y": -1.0167460643,
				"z": 0.7098830986,
				"element": "H" 
			},
			{
				"x": -2.4989810454,
				"y": -1.8567017341,
				"z": 0.8672878031,
				"element": "H" 
			},
			{
				"x": -3.8956237865,
				"y": 1.5066203101,
				"z": 1.5912292835,
				"element": "H" 
			},
			{
				"x": -3.830026277,
				"y": 3.6086168393,
				"z": 1.7181223636,
				"element": "H" 
			},
			{
				"x": 0.9614560891,
				"y": 2.3564536262,
				"z": -0.5296427339,
				"element": "H" 
			},
			{
				"x": 0.6876772645,
				"y": 3.4150164293,
				"z": 0.8814527346,
				"element": "H" 
			},
			{
				"x": 1.4326193234,
				"y": 1.8191341943,
				"z": 1.0825688877,
				"element": "H" 
			}
		],
		 "valence_orbital": [ 
			{
				"type": "occ",
				"energy": -0.27151,
				"method": "rhf"
			},
			{
				"type": "occ",
				"energy": -0.25095,
				"method": "rhf"
			},
			{
				"type": "occ",
				"energy": -0.24544,
				"method": "rhf"
			},
			{
				"type": "occ",
				"energy": -0.2377,
				"method": "rhf"
			},
			{
				"type": "occ",
				"energy": -0.2073,
				"method": "rhf"
			},
			{
				"type": "unocc",
				"energy": -0.02514,
				"method": "rhf"
			},
			{
				"type": "unocc",
				"energy": -0.00956,
				"method": "rhf"
			},
			{
				"type": "unocc",
				"energy": -0.00186,
				"method": "rhf"
			},
			{
				"type": "unocc",
				"energy": 0.03646,
				"method": "rhf"
			},
			{
				"type": "unocc",
				"energy": 0.07452,
				"method": "rhf"
			}
		],
		"cosmo_sigma_profile": { 
			"-0.025": 0.0,
			"-0.024": 0.0,
			"-0.023": 0.0,
			"-0.022": 0.0,
			"-0.021": 0.0,
			"-0.02": 0.0,
			"-0.019": 0.0,
			"-0.018": 0.0,
			"-0.017": 0.48835664681,
			"-0.016": 0.787063778164,
			"-0.015": 0.817612215391,
			"-0.014": 1.25380241829,
			"-0.013": 0.847653733464,
			"-0.012": 0.918610281891,
			"-0.011": 1.20884799749,
			"-0.01": 0.985465550457,
			"-0.009": 1.42631633076,
			"-0.008": 0.876774422024,
			"-0.007": 3.833316473,
			"-0.006": 15.1592538762,
			"-0.005": 20.989388226,
			"-0.004": 27.6479063957,
			"-0.003": 25.1664042049,
			"-0.002": 24.0321332953,
			"-0.001": 26.8765214563,
			"0.0": 23.3241283663,
			"0.001": 16.8837102066,
			"0.002": 16.5983264473,
			"0.003": 16.1971433104,
			"0.004": 15.7427296538,
			"0.005": 10.6955081372,
			"0.006": 6.59434789178,
			"0.007": 5.26846875622,
			"0.008": 3.79875565827,
			"0.009": 4.19653054186,
			"0.01": 3.97761979527,
			"0.011": 5.04289214005,
			"0.012": 4.74506395628,
			"0.013": 4.09657376357,
			"0.014": 2.00525008988,
			"0.015": 0.164373312953,
			"0.016": 0.0,
			"0.017": 0.0,
			"0.018": 0.0,
			"0.019": 0.0,
			"0.02": 0.0,
			"0.021": 0.0,
			"0.022": 0.0,
			"0.023": 0.0,
			"0.024": 0.0,
			"0.025": 0.0
		}
	}
}
