{
	 "smiles": "OC(=O)COC1=CC=C(NC2=CC=CC=C2)C=C1", 
	 "Tm": 413.15, 
	 "num_atms": 31, 
	 "gaussian": { 
		 "optdone": 1, 
		 "sigma_profile": "yes", 
		 "theory": "DFT", 
		 "functional": "B3LYP", 
		 "basiset": "6-31G**", 
		 "properties": { 
			 "R2extent": 7246.2831, 
			 "electric_dipole_moment_norm": 1.87115334487, 
			 "electric_quadrupole_moment_norm": 16.8503496157, 
			 "total_energy": -821.744678509, 
			 "HOMO_LUMO_gap": 0.17272, 
			 "cosmo_polarized_energy": -17.44, 
			 "cosmo_cavitation_energy": 35.78, 
			 "cosmo_dispersion_energy": -25.91, 
			 "cosmo_repulsion_energy": 2.02, 
			 "cosmo_total_nonelectrostatic_energy": 11.88, 
			 "SMD_solvation_energy": 7.23 
		},
		"coords": [
			{
				"x": -2.6912076062,
				"y": -5.4227134274,
				"z": 1.9858871194,
				"element": "O" 
			},
			{
				"x": -1.9483936351,
				"y": -4.8909309405,
				"z": 0.9843122697,
				"element": "C" 
			},
			{
				"x": -0.7473059824,
				"y": -4.974657896,
				"z": 0.9216288154,
				"element": "O" 
			},
			{
				"x": -2.8619752948,
				"y": -4.2115488912,
				"z": -0.0316903136,
				"element": "C" 
			},
			{
				"x": -2.1599057925,
				"y": -3.6029070753,
				"z": -1.0816009588,
				"element": "O" 
			},
			{
				"x": -1.5690342304,
				"y": -2.377091516,
				"z": -0.8688122129,
				"element": "C" 
			},
			{
				"x": -0.9815322067,
				"y": -1.7899468325,
				"z": -1.9952496436,
				"element": "C" 
			},
			{
				"x": -0.355694822,
				"y": -0.5552777762,
				"z": -1.8964413368,
				"element": "C" 
			},
			{
				"x": -0.318303272,
				"y": 0.14501146,
				"z": -0.6764054071,
				"element": "C" 
			},
			{
				"x": 0.2732836176,
				"y": 1.4173426266,
				"z": -0.6439271311,
				"element": "N" 
			},
			{
				"x": 0.9136288705,
				"y": 2.068247873,
				"z": 0.4126726883,
				"element": "C" 
			},
			{
				"x": 1.432321979,
				"y": 1.3899731685,
				"z": 1.5308972985,
				"element": "C" 
			},
			{
				"x": 2.0862403155,
				"y": 2.0984758333,
				"z": 2.5379362492,
				"element": "C" 
			},
			{
				"x": 2.2541061347,
				"y": 3.4817639163,
				"z": 2.4560178303,
				"element": "C" 
			},
			{
				"x": 1.7552648367,
				"y": 4.1556351803,
				"z": 1.338586,
				"element": "C" 
			},
			{
				"x": 1.0877786762,
				"y": 3.4633010659,
				"z": 0.3328362919,
				"element": "C" 
			},
			{
				"x": -0.9284294602,
				"y": -0.4429861979,
				"z": 0.4399511527,
				"element": "C" 
			},
			{
				"x": -1.5344968563,
				"y": -1.6985448649,
				"z": 0.3508931414,
				"element": "C" 
			},
			{
				"x": -2.0673024206,
				"y": -5.864675451,
				"z": 2.586159106,
				"element": "H" 
			},
			{
				"x": -3.532916422,
				"y": -3.516788185,
				"z": 0.4911059855,
				"element": "H" 
			},
			{
				"x": -3.4894505545,
				"y": -4.9864526198,
				"z": -0.484274072,
				"element": "H" 
			},
			{
				"x": -1.0136243416,
				"y": -2.3256262201,
				"z": -2.9382241521,
				"element": "H" 
			},
			{
				"x": 0.1159086433,
				"y": -0.1216827376,
				"z": -2.7747862033,
				"element": "H" 
			},
			{
				"x": 0.2597945991,
				"y": 1.9226805324,
				"z": -1.5166061112,
				"element": "H" 
			},
			{
				"x": 1.3454938193,
				"y": 0.3118494248,
				"z": 1.597779181,
				"element": "H" 
			},
			{
				"x": 2.4811950886,
				"y": 1.5536149077,
				"z": 3.3912730674,
				"element": "H" 
			},
			{
				"x": 2.7661948833,
				"y": 4.0239118823,
				"z": 3.2446757573,
				"element": "H" 
			},
			{
				"x": 1.8774651398,
				"y": 5.2317975664,
				"z": 1.2507621549,
				"element": "H" 
			},
			{
				"x": 0.6887660188,
				"y": 3.9998971264,
				"z": -0.5250886317,
				"element": "H" 
			},
			{
				"x": -0.9445295139,
				"y": 0.0840633803,
				"z": 1.3868489121,
				"element": "H" 
			},
			{
				"x": -1.976040211,
				"y": -2.1221353127,
				"z": 1.2455831535,
				"element": "H" 
			}
		],
		 "valence_orbital": [ 
			{
				"type": "occ",
				"energy": -0.28368,
				"method": "rhf"
			},
			{
				"type": "occ",
				"energy": -0.25161,
				"method": "rhf"
			},
			{
				"type": "occ",
				"energy": -0.24408,
				"method": "rhf"
			},
			{
				"type": "occ",
				"energy": -0.23365,
				"method": "rhf"
			},
			{
				"type": "occ",
				"energy": -0.17957,
				"method": "rhf"
			},
			{
				"type": "unocc",
				"energy": -0.00685,
				"method": "rhf"
			},
			{
				"type": "unocc",
				"energy": 0.0014,
				"method": "rhf"
			},
			{
				"type": "unocc",
				"energy": 0.0029,
				"method": "rhf"
			},
			{
				"type": "unocc",
				"energy": 0.00536,
				"method": "rhf"
			},
			{
				"type": "unocc",
				"energy": 0.0379,
				"method": "rhf"
			}
		],
		"cosmo_sigma_profile": { 
			"-0.025": 0.0,
			"-0.024": 0.0,
			"-0.023": 0.0,
			"-0.022": 0.0,
			"-0.021": 0.0,
			"-0.02": 0.0,
			"-0.019": 0.215715602917,
			"-0.018": 1.06328602327,
			"-0.017": 0.891620042859,
			"-0.016": 1.03192549732,
			"-0.015": 0.603305271845,
			"-0.014": 0.955921780512,
			"-0.013": 1.27537826338,
			"-0.012": 2.92780335172,
			"-0.011": 2.26468318857,
			"-0.01": 1.51259395561,
			"-0.009": 4.71863852346,
			"-0.008": 7.63386957529,
			"-0.007": 8.87280367927,
			"-0.006": 11.052585236,
			"-0.005": 18.6600757219,
			"-0.004": 20.664469414,
			"-0.003": 20.8488884995,
			"-0.002": 14.6769481013,
			"-0.001": 14.4546397203,
			"0.0": 13.3265812084,
			"0.001": 14.2489516469,
			"0.002": 13.5962534879,
			"0.003": 17.1651879978,
			"0.004": 21.0468850446,
			"0.005": 23.4898544048,
			"0.006": 15.6631159794,
			"0.007": 10.5371660947,
			"0.008": 5.10651318495,
			"0.009": 4.71446399944,
			"0.01": 4.12268918445,
			"0.011": 5.91584873681,
			"0.012": 2.17010563619,
			"0.013": 0.0109187345682,
			"0.014": 0.0,
			"0.015": 0.0,
			"0.016": 0.0,
			"0.017": 0.0,
			"0.018": 0.0,
			"0.019": 0.0,
			"0.02": 0.0,
			"0.021": 0.0,
			"0.022": 0.0,
			"0.023": 0.0,
			"0.024": 0.0,
			"0.025": 0.0
		}
	}
}
