{
	 "smiles": "CNCCC(OC1=CC=C(C=C1)C(F)(F)F)C1=CC=CC=C1", 
	 "Tm": 453.65, 
	 "num_atms": 40, 
	 "gaussian": { 
		 "optdone": 1, 
		 "sigma_profile": "yes", 
		 "theory": "DFT", 
		 "functional": "B3LYP", 
		 "basiset": "6-31G**", 
		 "properties": { 
			 "R2extent": 10544.4393, 
			 "electric_dipole_moment_norm": 4.78325334265, 
			 "electric_quadrupole_moment_norm": 22.8125522489, 
			 "total_energy": -1088.15593905, 
			 "HOMO_LUMO_gap": 0.2108, 
			 "cosmo_polarized_energy": -9.22, 
			 "cosmo_cavitation_energy": 44.87, 
			 "cosmo_dispersion_energy": -29.75, 
			 "cosmo_repulsion_energy": 2.27, 
			 "cosmo_total_nonelectrostatic_energy": 17.4, 
			 "SMD_solvation_energy": 7.41 
		},
		"coords": [
			{
				"x": -3.1020520039,
				"y": 3.4036092715,
				"z": 0.334403666,
				"element": "C" 
			},
			{
				"x": -2.2267224178,
				"y": 2.4887858489,
				"z": -0.3905242977,
				"element": "N" 
			},
			{
				"x": -0.8473997245,
				"y": 2.9601848378,
				"z": -0.491628572,
				"element": "C" 
			},
			{
				"x": 0.0518996154,
				"y": 1.8994720727,
				"z": -1.1334006318,
				"element": "C" 
			},
			{
				"x": 0.1666236251,
				"y": 0.617168274,
				"z": -0.2959419961,
				"element": "C" 
			},
			{
				"x": 0.8727442322,
				"y": 1.003403885,
				"z": 0.8982173303,
				"element": "O" 
			},
			{
				"x": 0.774185588,
				"y": 0.2464864162,
				"z": 2.0270590202,
				"element": "C" 
			},
			{
				"x": 0.1380347351,
				"y": -0.9994274177,
				"z": 2.1062509498,
				"element": "C" 
			},
			{
				"x": 0.0974088511,
				"y": -1.6744869716,
				"z": 3.3261359778,
				"element": "C" 
			},
			{
				"x": 0.6892531415,
				"y": -1.1288484375,
				"z": 4.4651505808,
				"element": "C" 
			},
			{
				"x": 1.3325856153,
				"y": 0.1126315318,
				"z": 4.3789500085,
				"element": "C" 
			},
			{
				"x": 1.376076263,
				"y": 0.7943961879,
				"z": 3.1718693387,
				"element": "C" 
			},
			{
				"x": 0.5932543249,
				"y": -1.8326649448,
				"z": 5.7859088398,
				"element": "C" 
			},
			{
				"x": 1.6954535744,
				"y": -1.6312072472,
				"z": 6.5460374025,
				"element": "F" 
			},
			{
				"x": -0.4619835749,
				"y": -1.3986701667,
				"z": 6.5194478612,
				"element": "F" 
			},
			{
				"x": 0.4395838314,
				"y": -3.1689437674,
				"z": 5.6410138491,
				"element": "F" 
			},
			{
				"x": 0.8801043123,
				"y": -0.493623285,
				"z": -1.0478554126,
				"element": "C" 
			},
			{
				"x": 2.2763763225,
				"y": -0.5952534468,
				"z": -1.0355294326,
				"element": "C" 
			},
			{
				"x": 2.9188205919,
				"y": -1.5891392954,
				"z": -1.7747690233,
				"element": "C" 
			},
			{
				"x": 2.1746434588,
				"y": -2.4900569611,
				"z": -2.5393712843,
				"element": "C" 
			},
			{
				"x": 0.7819355448,
				"y": -2.394827259,
				"z": -2.5573302736,
				"element": "C" 
			},
			{
				"x": 0.1400803209,
				"y": -1.4038870608,
				"z": -1.8130793042,
				"element": "C" 
			},
			{
				"x": -2.7812891481,
				"y": 3.4618109709,
				"z": 1.380354544,
				"element": "H" 
			},
			{
				"x": -4.1263102273,
				"y": 3.0187962644,
				"z": 0.3228351255,
				"element": "H" 
			},
			{
				"x": -3.1172837155,
				"y": 4.4336811098,
				"z": -0.0660850799,
				"element": "H" 
			},
			{
				"x": -2.5966769046,
				"y": 2.3464472868,
				"z": -1.3280417385,
				"element": "H" 
			},
			{
				"x": -0.4862798754,
				"y": 3.1658472511,
				"z": 0.5225756938,
				"element": "H" 
			},
			{
				"x": -0.7539212588,
				"y": 3.9067218733,
				"z": -1.0570651736,
				"element": "H" 
			},
			{
				"x": 1.0570468403,
				"y": 2.3065222825,
				"z": -1.292229243,
				"element": "H" 
			},
			{
				"x": -0.3365984541,
				"y": 1.6273922584,
				"z": -2.1229960365,
				"element": "H" 
			},
			{
				"x": -0.847753637,
				"y": 0.3026509901,
				"z": -0.0234211409,
				"element": "H" 
			},
			{
				"x": -0.3016952935,
				"y": -1.4566400427,
				"z": 1.2294079581,
				"element": "H" 
			},
			{
				"x": -0.388652753,
				"y": -2.6424269809,
				"z": 3.3846848702,
				"element": "H" 
			},
			{
				"x": 1.8035280561,
				"y": 0.5386924162,
				"z": 5.2586359779,
				"element": "H" 
			},
			{
				"x": 1.8698781419,
				"y": 1.7566655842,
				"z": 3.0868963351,
				"element": "H" 
			},
			{
				"x": 2.8537367405,
				"y": 0.0997425236,
				"z": -0.4338505607,
				"element": "H" 
			},
			{
				"x": 4.0025974888,
				"y": -1.661213826,
				"z": -1.7520786517,
				"element": "H" 
			},
			{
				"x": 2.6761646897,
				"y": -3.2642395433,
				"z": -3.1128303657,
				"element": "H" 
			},
			{
				"x": 0.1946080715,
				"y": -3.0959190986,
				"z": -3.1436244932,
				"element": "H" 
			},
			{
				"x": -0.9459049889,
				"y": -1.3378333845,
				"z": -1.8243826175,
				"element": "H" 
			}
		],
		 "valence_orbital": [ 
			{
				"type": "occ",
				"energy": -0.26033,
				"method": "rhf"
			},
			{
				"type": "occ",
				"energy": -0.25457,
				"method": "rhf"
			},
			{
				"type": "occ",
				"energy": -0.24898,
				"method": "rhf"
			},
			{
				"type": "occ",
				"energy": -0.23029,
				"method": "rhf"
			},
			{
				"type": "occ",
				"energy": -0.22426,
				"method": "rhf"
			},
			{
				"type": "unocc",
				"energy": -0.01346,
				"method": "rhf"
			},
			{
				"type": "unocc",
				"energy": -0.00854,
				"method": "rhf"
			},
			{
				"type": "unocc",
				"energy": -0.00518,
				"method": "rhf"
			},
			{
				"type": "unocc",
				"energy": -0.00389,
				"method": "rhf"
			},
			{
				"type": "unocc",
				"energy": 0.07819,
				"method": "rhf"
			}
		],
		"cosmo_sigma_profile": { 
			"-0.025": 0.0,
			"-0.024": 0.0,
			"-0.023": 0.0,
			"-0.022": 0.0,
			"-0.021": 0.0,
			"-0.02": 0.0,
			"-0.019": 0.0,
			"-0.018": 0.0,
			"-0.017": 0.0,
			"-0.016": 0.0,
			"-0.015": 0.0,
			"-0.014": 0.0,
			"-0.013": 0.0,
			"-0.012": 0.0,
			"-0.011": 0.0,
			"-0.01": 0.473659800755,
			"-0.009": 1.46379039054,
			"-0.008": 1.64983348069,
			"-0.007": 4.04421887724,
			"-0.006": 13.6705737512,
			"-0.005": 20.9372720122,
			"-0.004": 25.2081522815,
			"-0.003": 27.5349620046,
			"-0.002": 30.4556184407,
			"-0.001": 33.915461267,
			"0.0": 33.4177665765,
			"0.001": 25.5938354937,
			"0.002": 31.1895723573,
			"0.003": 53.2332796895,
			"0.004": 27.7101345023,
			"0.005": 10.1724702176,
			"0.006": 8.09641838927,
			"0.007": 1.05522605218,
			"0.008": 1.1066923293,
			"0.009": 1.54481967331,
			"0.01": 0.647977662091,
			"0.011": 0.463474553009,
			"0.012": 0.252673025125,
			"0.013": 0.982732009362,
			"0.014": 0.433574991654,
			"0.015": 0.163920557209,
			"0.016": 0.0,
			"0.017": 0.0,
			"0.018": 0.0,
			"0.019": 0.0,
			"0.02": 0.0,
			"0.021": 0.0,
			"0.022": 0.0,
			"0.023": 0.0,
			"0.024": 0.0,
			"0.025": 0.0
		}
	}
}
