{
	 "smiles": "CC1=CC=C(C=C1)S(=O)(=O)N1CCCN(CCN(CC1)S(=O)(=O)C1=CC=C(C)C=C1)S(=O)(=O)C1=CC=C(C)C=C1", 
	 "Tm": 509.15, 
	 "num_atms": 75, 
	 "gaussian": { 
		 "optdone": 1, 
		 "sigma_profile": "yes", 
		 "theory": "DFT", 
		 "functional": "B3LYP", 
		 "basiset": "6-31G**", 
		 "properties": { 
			 "R2extent": 24869.2576, 
			 "electric_dipole_moment_norm": 2.02443627956, 
			 "electric_quadrupole_moment_norm": 53.3381951259, 
			 "total_energy": -2898.02729727, 
			 "HOMO_LUMO_gap": 0.19309, 
			 "cosmo_polarized_energy": -31.95, 
			 "cosmo_cavitation_energy": 75.91, 
			 "cosmo_dispersion_energy": -47.63, 
			 "cosmo_repulsion_energy": 3.41, 
			 "cosmo_total_nonelectrostatic_energy": 31.69, 
			 "SMD_solvation_energy": 9.81 
		},
		"coords": [
			{
				"x": 3.0397290498,
				"y": -5.7748978707,
				"z": -0.394095046,
				"element": "C" 
			},
			{
				"x": 3.3527364206,
				"y": -4.3278154161,
				"z": -0.6826196216,
				"element": "C" 
			},
			{
				"x": 2.8596434169,
				"y": -3.7073852889,
				"z": -1.8410949836,
				"element": "C" 
			},
			{
				"x": 3.0944703431,
				"y": -2.3588823197,
				"z": -2.091773224,
				"element": "C" 
			},
			{
				"x": 3.8347183809,
				"y": -1.6142657641,
				"z": -1.1697272241,
				"element": "C" 
			},
			{
				"x": 4.3711327232,
				"y": -2.2137856569,
				"z": -0.0294771171,
				"element": "C" 
			},
			{
				"x": 4.1219455951,
				"y": -3.5651831229,
				"z": 0.2065553414,
				"element": "C" 
			},
			{
				"x": 4.1144605595,
				"y": 0.1270945957,
				"z": -1.4721075741,
				"element": "S" 
			},
			{
				"x": 5.2826117383,
				"y": 0.5287138575,
				"z": -0.6751317486,
				"element": "O" 
			},
			{
				"x": 4.0863104624,
				"y": 0.3692225503,
				"z": -2.9205489151,
				"element": "O" 
			},
			{
				"x": 2.6906112244,
				"y": 0.8603006677,
				"z": -0.8699929633,
				"element": "N" 
			},
			{
				"x": 2.5677328669,
				"y": 0.8611485096,
				"z": 0.6093663201,
				"element": "C" 
			},
			{
				"x": 1.4376142429,
				"y": -0.0318324557,
				"z": 1.1407833997,
				"element": "C" 
			},
			{
				"x": 0.0103814705,
				"y": 0.447903081,
				"z": 0.7689302209,
				"element": "C" 
			},
			{
				"x": -0.7717343797,
				"y": -0.4495289694,
				"z": -0.1029562928,
				"element": "N" 
			},
			{
				"x": -0.2492949583,
				"y": -0.7123412819,
				"z": -1.4546878545,
				"element": "C" 
			},
			{
				"x": -0.7030974669,
				"y": 0.3257895154,
				"z": -2.4834777494,
				"element": "C" 
			},
			{
				"x": -0.1160778047,
				"y": 1.664653841,
				"z": -2.2587109793,
				"element": "N" 
			},
			{
				"x": 1.274979958,
				"y": 1.8645981888,
				"z": -2.7284192739,
				"element": "C" 
			},
			{
				"x": 2.3048457607,
				"y": 2.0878711074,
				"z": -1.6113718276,
				"element": "C" 
			},
			{
				"x": -1.1739027566,
				"y": 2.9719254637,
				"z": -2.5721691173,
				"element": "S" 
			},
			{
				"x": -2.513746031,
				"y": 2.5208064561,
				"z": -2.1753480574,
				"element": "O" 
			},
			{
				"x": -0.9427229985,
				"y": 3.5224853064,
				"z": -3.9157455194,
				"element": "O" 
			},
			{
				"x": -0.6248781058,
				"y": 4.2079166667,
				"z": -1.3950579352,
				"element": "C" 
			},
			{
				"x": -1.0263883537,
				"y": 4.1112098863,
				"z": -0.0594565627,
				"element": "C" 
			},
			{
				"x": -0.6069258546,
				"y": 5.0813719842,
				"z": 0.8460935335,
				"element": "C" 
			},
			{
				"x": 0.2016272865,
				"y": 6.1553857871,
				"z": 0.4389622788,
				"element": "C" 
			},
			{
				"x": 0.6244304122,
				"y": 7.2158948636,
				"z": 1.4263512167,
				"element": "C" 
			},
			{
				"x": 0.5764602766,
				"y": 6.2345139937,
				"z": -0.9086662395,
				"element": "C" 
			},
			{
				"x": 0.1637903246,
				"y": 5.2724539467,
				"z": -1.831233671,
				"element": "C" 
			},
			{
				"x": -1.5159366733,
				"y": -1.7647519821,
				"z": 0.6598764974,
				"element": "S" 
			},
			{
				"x": -0.7710412456,
				"y": -3.0159901944,
				"z": 0.4366901028,
				"element": "O" 
			},
			{
				"x": -1.7985762253,
				"y": -1.3313070349,
				"z": 2.0342071748,
				"element": "O" 
			},
			{
				"x": -3.0479255997,
				"y": -1.8961905076,
				"z": -0.2656356866,
				"element": "C" 
			},
			{
				"x": -3.8051864056,
				"y": -0.7565065343,
				"z": -0.5563238624,
				"element": "C" 
			},
			{
				"x": -5.0233826393,
				"y": -0.9021237289,
				"z": -1.2127925318,
				"element": "C" 
			},
			{
				"x": -5.5080916576,
				"y": -2.1694412163,
				"z": -1.5758488752,
				"element": "C" 
			},
			{
				"x": -6.8254217866,
				"y": -2.3052938583,
				"z": -2.3005238185,
				"element": "C" 
			},
			{
				"x": -4.7322218581,
				"y": -3.293286938,
				"z": -1.266378535,
				"element": "C" 
			},
			{
				"x": -3.5046529073,
				"y": -3.1666651703,
				"z": -0.6152297747,
				"element": "C" 
			},
			{
				"x": 3.0153417859,
				"y": -6.3705319711,
				"z": -1.311589797,
				"element": "H" 
			},
			{
				"x": 3.7747608258,
				"y": -6.2181216427,
				"z": 0.2832806562,
				"element": "H" 
			},
			{
				"x": 2.055087554,
				"y": -5.8649353072,
				"z": 0.0805605543,
				"element": "H" 
			},
			{
				"x": 2.2839630649,
				"y": -4.2901569356,
				"z": -2.5549619596,
				"element": "H" 
			},
			{
				"x": 2.7281635058,
				"y": -1.8882083462,
				"z": -2.9976027956,
				"element": "H" 
			},
			{
				"x": 4.9853910797,
				"y": -1.6320632519,
				"z": 0.6489275286,
				"element": "H" 
			},
			{
				"x": 4.5335941999,
				"y": -4.0347471526,
				"z": 1.0956978065,
				"element": "H" 
			},
			{
				"x": 3.5214771848,
				"y": 0.5531618153,
				"z": 1.0472941789,
				"element": "H" 
			},
			{
				"x": 2.4140833062,
				"y": 1.8955639456,
				"z": 0.9389053412,
				"element": "H" 
			},
			{
				"x": 1.5898916594,
				"y": -1.0599434059,
				"z": 0.7984208572,
				"element": "H" 
			},
			{
				"x": 1.5310981067,
				"y": -0.0627459345,
				"z": 2.2332382537,
				"element": "H" 
			},
			{
				"x": -0.5833792216,
				"y": 0.5961225387,
				"z": 1.6711862497,
				"element": "H" 
			},
			{
				"x": 0.053145271,
				"y": 1.4030519591,
				"z": 0.2426085383,
				"element": "H" 
			},
			{
				"x": -0.6160413163,
				"y": -1.6863442805,
				"z": -1.7906152998,
				"element": "H" 
			},
			{
				"x": 0.8428139574,
				"y": -0.780710858,
				"z": -1.4286071018,
				"element": "H" 
			},
			{
				"x": -1.7879141205,
				"y": 0.4174474939,
				"z": -2.4396249514,
				"element": "H" 
			},
			{
				"x": -0.4318086553,
				"y": -0.0357484547,
				"z": -3.4869158161,
				"element": "H" 
			},
			{
				"x": 1.3072282998,
				"y": 2.7250140907,
				"z": -3.4049033715,
				"element": "H" 
			},
			{
				"x": 1.576987539,
				"y": 1.0014424652,
				"z": -3.3270688973,
				"element": "H" 
			},
			{
				"x": 1.9046001367,
				"y": 2.7949770512,
				"z": -0.8816572187,
				"element": "H" 
			},
			{
				"x": 3.1855615762,
				"y": 2.5562173536,
				"z": -2.0633307543,
				"element": "H" 
			},
			{
				"x": -1.6685384715,
				"y": 3.2961082629,
				"z": 0.2558337192,
				"element": "H" 
			},
			{
				"x": -0.9176610557,
				"y": 5.0100113829,
				"z": 1.8851488649,
				"element": "H" 
			},
			{
				"x": 1.5100902989,
				"y": 7.7556936331,
				"z": 1.0806301098,
				"element": "H" 
			},
			{
				"x": 0.8480084577,
				"y": 6.783756308,
				"z": 2.4064597336,
				"element": "H" 
			},
			{
				"x": -0.1743530102,
				"y": 7.953395527,
				"z": 1.5722256118,
				"element": "H" 
			},
			{
				"x": 1.1940645581,
				"y": 7.0630976482,
				"z": -1.2445004208,
				"element": "H" 
			},
			{
				"x": 0.4346732904,
				"y": 5.3478302227,
				"z": -2.8786171384,
				"element": "H" 
			},
			{
				"x": -3.4334227306,
				"y": 0.2292598279,
				"z": -0.2998230837,
				"element": "H" 
			},
			{
				"x": -5.6054344193,
				"y": -0.0159596042,
				"z": -1.4513770506,
				"element": "H" 
			},
			{
				"x": -7.6157707818,
				"y": -1.7384041662,
				"z": -1.7973591497,
				"element": "H" 
			},
			{
				"x": -7.1436683843,
				"y": -3.3492617509,
				"z": -2.3622705446,
				"element": "H" 
			},
			{
				"x": -6.7534433313,
				"y": -1.9172817902,
				"z": -3.3235894611,
				"element": "H" 
			},
			{
				"x": -5.0897367231,
				"y": -4.2822053308,
				"z": -1.5406251486,
				"element": "H" 
			},
			{
				"x": -2.8991802415,
				"y": -4.0360663007,
				"z": -0.3840915473,
				"element": "H" 
			}
		],
		 "valence_orbital": [ 
			{
				"type": "occ",
				"energy": -0.2646,
				"method": "rhf"
			},
			{
				"type": "occ",
				"energy": -0.26102,
				"method": "rhf"
			},
			{
				"type": "occ",
				"energy": -0.25413,
				"method": "rhf"
			},
			{
				"type": "occ",
				"energy": -0.24651,
				"method": "rhf"
			},
			{
				"type": "occ",
				"energy": -0.23637,
				"method": "rhf"
			},
			{
				"type": "unocc",
				"energy": -0.04328,
				"method": "rhf"
			},
			{
				"type": "unocc",
				"energy": -0.03874,
				"method": "rhf"
			},
			{
				"type": "unocc",
				"energy": -0.03142,
				"method": "rhf"
			},
			{
				"type": "unocc",
				"energy": -0.02772,
				"method": "rhf"
			},
			{
				"type": "unocc",
				"energy": -0.02217,
				"method": "rhf"
			}
		],
		"cosmo_sigma_profile": { 
			"-0.025": 0.0,
			"-0.024": 0.0,
			"-0.023": 0.0,
			"-0.022": 0.0,
			"-0.021": 0.0,
			"-0.02": 0.0,
			"-0.019": 0.0,
			"-0.018": 0.0,
			"-0.017": 0.0,
			"-0.016": 0.0,
			"-0.015": 0.0,
			"-0.014": 0.0,
			"-0.013": 0.0,
			"-0.012": 0.0,
			"-0.011": 0.0,
			"-0.01": 0.0,
			"-0.009": 0.0,
			"-0.008": 0.21086645278,
			"-0.007": 8.71422948328,
			"-0.006": 38.2720130496,
			"-0.005": 57.7905083971,
			"-0.004": 62.0802011454,
			"-0.003": 58.105311948,
			"-0.002": 51.3152920707,
			"-0.001": 51.8874517096,
			"0.0": 47.8631825026,
			"0.001": 34.7009297288,
			"0.002": 39.0182927478,
			"0.003": 38.9749244778,
			"0.004": 16.7751163569,
			"0.005": 9.42571391517,
			"0.006": 5.76466124937,
			"0.007": 8.16907199914,
			"0.008": 10.2349119263,
			"0.009": 12.201437844,
			"0.01": 16.3783751148,
			"0.011": 21.1396052437,
			"0.012": 11.4220861903,
			"0.013": 0.304051446758,
			"0.014": 0.0,
			"0.015": 0.0,
			"0.016": 0.0,
			"0.017": 0.0,
			"0.018": 0.0,
			"0.019": 0.0,
			"0.02": 0.0,
			"0.021": 0.0,
			"0.022": 0.0,
			"0.023": 0.0,
			"0.024": 0.0,
			"0.025": 0.0
		}
	}
}
