{
	 "smiles": "CC1[C@@H]2CC[C@@]3(C)C=CC(=O)C(C)=C3[C@H]2OC1=O", 
	 "Tm": 448.15, 
	 "num_atms": 36, 
	 "gaussian": { 
		 "optdone": 1, 
		 "sigma_profile": "yes", 
		 "theory": "DFT", 
		 "functional": "B3LYP", 
		 "basiset": "6-31G**", 
		 "properties": { 
			 "R2extent": 4590.6593, 
			 "electric_dipole_moment_norm": 6.67120297548, 
			 "electric_quadrupole_moment_norm": 12.2989188318, 
			 "total_energy": -808.100736626, 
			 "HOMO_LUMO_gap": 0.17656, 
			 "cosmo_polarized_energy": -18.2, 
			 "cosmo_cavitation_energy": 36.17, 
			 "cosmo_dispersion_energy": -25.04, 
			 "cosmo_repulsion_energy": 1.91, 
			 "cosmo_total_nonelectrostatic_energy": 13.04, 
			 "SMD_solvation_energy": 7.39 
		},
		"coords": [
			{
				"x": 0.6095959644,
				"y": -0.9956445192,
				"z": 3.8170722664,
				"element": "C" 
			},
			{
				"x": -0.1394092824,
				"y": -0.810949827,
				"z": 2.4997725436,
				"element": "C" 
			},
			{
				"x": 0.3875554962,
				"y": 0.2474310333,
				"z": 1.525257595,
				"element": "C" 
			},
			{
				"x": 0.1181962592,
				"y": 1.755246101,
				"z": 1.7182488073,
				"element": "C" 
			},
			{
				"x": -0.6007078641,
				"y": 2.3630713631,
				"z": 0.493650516,
				"element": "C" 
			},
			{
				"x": -0.0534275531,
				"y": 1.9243979913,
				"z": -0.9122546289,
				"element": "C" 
			},
			{
				"x": -1.2585956247,
				"y": 1.9862634049,
				"z": -1.9099875782,
				"element": "C" 
			},
			{
				"x": 0.9671985833,
				"y": 2.8950073444,
				"z": -1.4473685472,
				"element": "C" 
			},
			{
				"x": 2.0147476289,
				"y": 2.5111581688,
				"z": -2.1856803776,
				"element": "C" 
			},
			{
				"x": 2.2841098486,
				"y": 1.0841883916,
				"z": -2.4597294402,
				"element": "C" 
			},
			{
				"x": 3.1677565772,
				"y": 0.7497944348,
				"z": -3.2452764846,
				"element": "O" 
			},
			{
				"x": 1.5008267883,
				"y": 0.0700703118,
				"z": -1.6883876965,
				"element": "C" 
			},
			{
				"x": 2.0161499411,
				"y": -1.341207871,
				"z": -1.8234956266,
				"element": "C" 
			},
			{
				"x": 0.4783329079,
				"y": 0.4824958236,
				"z": -0.9052376189,
				"element": "C" 
			},
			{
				"x": -0.205028417,
				"y": -0.2730987463,
				"z": 0.1964356676,
				"element": "C" 
			},
			{
				"x": -0.0597690314,
				"y": -1.7002926234,
				"z": 0.2882710081,
				"element": "O" 
			},
			{
				"x": -0.0866214422,
				"y": -2.0669562402,
				"z": 1.6145003941,
				"element": "C" 
			},
			{
				"x": -0.0600789554,
				"y": -3.2181836511,
				"z": 1.957231941,
				"element": "O" 
			},
			{
				"x": 0.4911845852,
				"y": -0.1189725938,
				"z": 4.4609861024,
				"element": "H" 
			},
			{
				"x": 1.6791029798,
				"y": -1.1483614946,
				"z": 3.6397021215,
				"element": "H" 
			},
			{
				"x": 0.2303884479,
				"y": -1.8724496809,
				"z": 4.3480347918,
				"element": "H" 
			},
			{
				"x": -1.2049870946,
				"y": -0.6193805086,
				"z": 2.7062362417,
				"element": "H" 
			},
			{
				"x": 1.4707170042,
				"y": 0.0888430903,
				"z": 1.441056146,
				"element": "H" 
			},
			{
				"x": -0.4938547813,
				"y": 1.9355828703,
				"z": 2.60972533,
				"element": "H" 
			},
			{
				"x": 1.0673303496,
				"y": 2.2731480837,
				"z": 1.8878979649,
				"element": "H" 
			},
			{
				"x": -1.66071089,
				"y": 2.0917282212,
				"z": 0.5462729414,
				"element": "H" 
			},
			{
				"x": -0.576463993,
				"y": 3.4565809292,
				"z": 0.5532965541,
				"element": "H" 
			},
			{
				"x": -0.9327734878,
				"y": 1.7390152692,
				"z": -2.9224970309,
				"element": "H" 
			},
			{
				"x": -1.6923989786,
				"y": 2.9919671902,
				"z": -1.9181923834,
				"element": "H" 
			},
			{
				"x": -2.0437423782,
				"y": 1.2827157394,
				"z": -1.6137952469,
				"element": "H" 
			},
			{
				"x": 0.7553898471,
				"y": 3.9526111667,
				"z": -1.2936574427,
				"element": "H" 
			},
			{
				"x": 2.7011003678,
				"y": 3.2206456236,
				"z": -2.6382385566,
				"element": "H" 
			},
			{
				"x": 1.2999687556,
				"y": -2.0826856454,
				"z": -1.4790268419,
				"element": "H" 
			},
			{
				"x": 2.9480220581,
				"y": -1.469580137,
				"z": -1.2588404888,
				"element": "H" 
			},
			{
				"x": 2.2720314558,
				"y": -1.5219546501,
				"z": -2.8707298308,
				"element": "H" 
			},
			{
				"x": -1.2850360723,
				"y": -0.0714443638,
				"z": 0.1655468878,
				"element": "H" 
			}
		],
		 "valence_orbital": [ 
			{
				"type": "occ",
				"energy": -0.30481,
				"method": "rhf"
			},
			{
				"type": "occ",
				"energy": -0.27376,
				"method": "rhf"
			},
			{
				"type": "occ",
				"energy": -0.27124,
				"method": "rhf"
			},
			{
				"type": "occ",
				"energy": -0.25043,
				"method": "rhf"
			},
			{
				"type": "occ",
				"energy": -0.24042,
				"method": "rhf"
			},
			{
				"type": "unocc",
				"energy": -0.06386,
				"method": "rhf"
			},
			{
				"type": "unocc",
				"energy": -0.00153,
				"method": "rhf"
			},
			{
				"type": "unocc",
				"energy": 0.00088,
				"method": "rhf"
			},
			{
				"type": "unocc",
				"energy": 0.05753,
				"method": "rhf"
			},
			{
				"type": "unocc",
				"energy": 0.07608,
				"method": "rhf"
			}
		],
		"cosmo_sigma_profile": { 
			"-0.025": 0.0,
			"-0.024": 0.0,
			"-0.023": 0.0,
			"-0.022": 0.0,
			"-0.021": 0.0,
			"-0.02": 0.0,
			"-0.019": 0.0,
			"-0.018": 0.0,
			"-0.017": 0.0,
			"-0.016": 0.0,
			"-0.015": 0.0,
			"-0.014": 0.0,
			"-0.013": 0.0,
			"-0.012": 0.0,
			"-0.011": 0.0,
			"-0.01": 0.0,
			"-0.009": 0.685862657313,
			"-0.008": 3.6316119675,
			"-0.007": 7.85071500061,
			"-0.006": 11.330031733,
			"-0.005": 15.5740496089,
			"-0.004": 28.8083066345,
			"-0.003": 31.7161621332,
			"-0.002": 31.8108172972,
			"-0.001": 31.5564130129,
			"0.0": 28.7150833223,
			"0.001": 19.3947448131,
			"0.002": 11.2642202673,
			"0.003": 8.11591426552,
			"0.004": 5.19654973415,
			"0.005": 3.74176809576,
			"0.006": 3.70152944645,
			"0.007": 4.34033913721,
			"0.008": 4.09645893804,
			"0.009": 5.03689727301,
			"0.01": 4.57470652444,
			"0.011": 7.33150282987,
			"0.012": 6.92789972279,
			"0.013": 5.27569081108,
			"0.014": 1.99014857167,
			"0.015": 0.180751176113,
			"0.016": 0.0,
			"0.017": 0.0,
			"0.018": 0.0,
			"0.019": 0.0,
			"0.02": 0.0,
			"0.021": 0.0,
			"0.022": 0.0,
			"0.023": 0.0,
			"0.024": 0.0,
			"0.025": 0.0
		}
	}
}
