{
	 "smiles": "OCC1=CC(OCC2=CC=CC=C2)=CC=C1", 
	 "Tm": 322.15, 
	 "num_atms": 30, 
	 "gaussian": { 
		 "optdone": 1, 
		 "sigma_profile": "yes", 
		 "theory": "DFT", 
		 "functional": "B3LYP", 
		 "basiset": "6-31G**", 
		 "properties": { 
			 "R2extent": 4431.8647, 
			 "electric_dipole_moment_norm": 2.05123399202, 
			 "electric_quadrupole_moment_norm": 10.4997006562, 
			 "total_energy": -692.356916113, 
			 "HOMO_LUMO_gap": 0.20757, 
			 "cosmo_polarized_energy": -10.63, 
			 "cosmo_cavitation_energy": 33.62, 
			 "cosmo_dispersion_energy": -23.73, 
			 "cosmo_repulsion_energy": 1.89, 
			 "cosmo_total_nonelectrostatic_energy": 11.78, 
			 "SMD_solvation_energy": 5.79 
		},
		"coords": [
			{
				"x": 2.4035620065,
				"y": 3.086463596,
				"z": 2.1400503142,
				"element": "O" 
			},
			{
				"x": 1.9064572851,
				"y": 1.7706893757,
				"z": 2.3344307232,
				"element": "C" 
			},
			{
				"x": 2.1135199767,
				"y": 0.8535812689,
				"z": 1.1424772777,
				"element": "C" 
			},
			{
				"x": 1.2213429823,
				"y": -0.2047925611,
				"z": 0.9186837134,
				"element": "C" 
			},
			{
				"x": 1.4232544557,
				"y": -1.0739983859,
				"z": -0.1579085138,
				"element": "C" 
			},
			{
				"x": 0.6212148038,
				"y": -2.144847803,
				"z": -0.4592082996,
				"element": "O" 
			},
			{
				"x": -0.4079741406,
				"y": -2.5232349088,
				"z": 0.4502722084,
				"element": "C" 
			},
			{
				"x": -1.6628094654,
				"y": -1.674395533,
				"z": 0.362449877,
				"element": "C" 
			},
			{
				"x": -2.0448718724,
				"y": -1.0827830651,
				"z": -0.8470593611,
				"element": "C" 
			},
			{
				"x": -3.2289702142,
				"y": -0.3498109871,
				"z": -0.9302933908,
				"element": "C" 
			},
			{
				"x": -4.0486799287,
				"y": -0.2061477633,
				"z": 0.1914634895,
				"element": "C" 
			},
			{
				"x": -3.6747239332,
				"y": -0.7956966511,
				"z": 1.4001511144,
				"element": "C" 
			},
			{
				"x": -2.485570949,
				"y": -1.5220915819,
				"z": 1.4846349668,
				"element": "C" 
			},
			{
				"x": 2.5063887067,
				"y": -0.8745901256,
				"z": -1.0259397971,
				"element": "C" 
			},
			{
				"x": 3.3803892129,
				"y": 0.1834800241,
				"z": -0.8032648335,
				"element": "C" 
			},
			{
				"x": 3.1946293332,
				"y": 1.047688864,
				"z": 0.2798167747,
				"element": "C" 
			},
			{
				"x": 1.9790108241,
				"y": 3.4395134217,
				"z": 1.3465504737,
				"element": "H" 
			},
			{
				"x": 0.8398984392,
				"y": 1.7784420663,
				"z": 2.6112414016,
				"element": "H" 
			},
			{
				"x": 2.4540558722,
				"y": 1.38468449,
				"z": 3.2031028886,
				"element": "H" 
			},
			{
				"x": 0.3627683531,
				"y": -0.320705543,
				"z": 1.5708363651,
				"element": "H" 
			},
			{
				"x": -0.6397580262,
				"y": -3.5576345224,
				"z": 0.172389233,
				"element": "H" 
			},
			{
				"x": -0.0247882235,
				"y": -2.5398029347,
				"z": 1.4793403009,
				"element": "H" 
			},
			{
				"x": -1.4040885993,
				"y": -1.193511397,
				"z": -1.7162130847,
				"element": "H" 
			},
			{
				"x": -3.512792375,
				"y": 0.109413606,
				"z": -1.8731072702,
				"element": "H" 
			},
			{
				"x": -4.9705734289,
				"y": 0.3643524252,
				"z": 0.1248097982,
				"element": "H" 
			},
			{
				"x": -4.3032552387,
				"y": -0.6843179635,
				"z": 2.2792070306,
				"element": "H" 
			},
			{
				"x": -2.1951787976,
				"y": -1.9734466525,
				"z": 2.4311104157,
				"element": "H" 
			},
			{
				"x": 2.638830178,
				"y": -1.55838974,
				"z": -1.8579629379,
				"element": "H" 
			},
			{
				"x": 4.2191158044,
				"y": 0.3334969814,
				"z": -1.4775407116,
				"element": "H" 
			},
			{
				"x": 3.875496959,
				"y": 1.8729919995,
				"z": 0.4591798335,
				"element": "H" 
			}
		],
		 "valence_orbital": [ 
			{
				"type": "occ",
				"energy": -0.2727,
				"method": "rhf"
			},
			{
				"type": "occ",
				"energy": -0.25429,
				"method": "rhf"
			},
			{
				"type": "occ",
				"energy": -0.24978,
				"method": "rhf"
			},
			{
				"type": "occ",
				"energy": -0.2414,
				"method": "rhf"
			},
			{
				"type": "occ",
				"energy": -0.21738,
				"method": "rhf"
			},
			{
				"type": "unocc",
				"energy": -0.00981,
				"method": "rhf"
			},
			{
				"type": "unocc",
				"energy": -0.00685,
				"method": "rhf"
			},
			{
				"type": "unocc",
				"energy": 0.00049,
				"method": "rhf"
			},
			{
				"type": "unocc",
				"energy": 0.0134,
				"method": "rhf"
			},
			{
				"type": "unocc",
				"energy": 0.09022,
				"method": "rhf"
			}
		],
		"cosmo_sigma_profile": { 
			"-0.025": 0.0,
			"-0.024": 0.0,
			"-0.023": 0.0,
			"-0.022": 0.0,
			"-0.021": 0.0,
			"-0.02": 0.0,
			"-0.019": 0.0,
			"-0.018": 0.0,
			"-0.017": 0.0,
			"-0.016": 0.0210160094865,
			"-0.015": 0.845768711633,
			"-0.014": 0.775697735209,
			"-0.013": 1.00995647609,
			"-0.012": 1.10428601986,
			"-0.011": 0.641383393104,
			"-0.01": 0.565486247011,
			"-0.009": 0.68084183446,
			"-0.008": 0.514010698962,
			"-0.007": 2.15413981558,
			"-0.006": 12.7828658867,
			"-0.005": 24.3911941228,
			"-0.004": 27.3342796186,
			"-0.003": 25.4291200092,
			"-0.002": 18.7460021331,
			"-0.001": 17.5299625042,
			"0.0": 13.7158855923,
			"0.001": 15.62442212,
			"0.002": 16.194338405,
			"0.003": 16.7764410192,
			"0.004": 19.6024997904,
			"0.005": 20.3328566211,
			"0.006": 14.5166009156,
			"0.007": 2.69413264928,
			"0.008": 2.19165673137,
			"0.009": 2.35401923689,
			"0.01": 2.130116058,
			"0.011": 1.17350110334,
			"0.012": 1.46327061611,
			"0.013": 1.69230783539,
			"0.014": 1.95533814344,
			"0.015": 0.122246083487,
			"0.016": 0.0,
			"0.017": 0.0,
			"0.018": 0.0,
			"0.019": 0.0,
			"0.02": 0.0,
			"0.021": 0.0,
			"0.022": 0.0,
			"0.023": 0.0,
			"0.024": 0.0,
			"0.025": 0.0
		}
	}
}
