{
	 "smiles": "COC1=C(NCC2=CC=NC=C2)C=C(Br)C=C1", 
	 "Tm": 363.15, 
	 "num_atms": 30, 
	 "gaussian": { 
		 "optdone": 1, 
		 "sigma_profile": "yes", 
		 "theory": "DFT", 
		 "functional": "B3LYP", 
		 "basiset": "6-31G**", 
		 "properties": { 
			 "R2extent": 8055.774, 
			 "electric_dipole_moment_norm": 5.53625261526, 
			 "electric_quadrupole_moment_norm": 15.4325956964, 
			 "total_energy": -3259.3317942, 
			 "HOMO_LUMO_gap": 0.17606, 
			 "cosmo_polarized_energy": -12.74, 
			 "cosmo_cavitation_energy": 36.15, 
			 "cosmo_dispersion_energy": -25.99, 
			 "cosmo_repulsion_energy": 2.05, 
			 "cosmo_total_nonelectrostatic_energy": 12.21, 
			 "SMD_solvation_energy": 3.85 
		},
		"coords": [
			{
				"x": -0.051362506,
				"y": -2.0381018958,
				"z": 2.5450833023,
				"element": "C" 
			},
			{
				"x": -0.3675197441,
				"y": -1.0821774284,
				"z": 1.5458070779,
				"element": "O" 
			},
			{
				"x": 0.5921473025,
				"y": -0.1611597679,
				"z": 1.2032310634,
				"element": "C" 
			},
			{
				"x": 0.1772658443,
				"y": 0.7719937302,
				"z": 0.2156738315,
				"element": "C" 
			},
			{
				"x": -1.102107985,
				"y": 0.6444631903,
				"z": -0.310015787,
				"element": "N" 
			},
			{
				"x": -1.7642152148,
				"y": 1.7384923832,
				"z": -0.9931349738,
				"element": "C" 
			},
			{
				"x": -1.4390058808,
				"y": 1.8563990681,
				"z": -2.4762622555,
				"element": "C" 
			},
			{
				"x": -1.6428999717,
				"y": 3.0643542022,
				"z": -3.1514943202,
				"element": "C" 
			},
			{
				"x": -1.3859267533,
				"y": 3.1286310407,
				"z": -4.5206161655,
				"element": "C" 
			},
			{
				"x": -0.9430369522,
				"y": 2.093263579,
				"z": -5.2455459109,
				"element": "N" 
			},
			{
				"x": -0.7433613035,
				"y": 0.9432898818,
				"z": -4.5892845907,
				"element": "C" 
			},
			{
				"x": -0.9735292775,
				"y": 0.7726142947,
				"z": -3.2234784071,
				"element": "C" 
			},
			{
				"x": 1.0799062083,
				"y": 1.7598321125,
				"z": -0.1924119954,
				"element": "C" 
			},
			{
				"x": 2.3568503561,
				"y": 1.8098652093,
				"z": 0.3727494319,
				"element": "C" 
			},
			{
				"x": 3.5658249056,
				"y": 3.1756296272,
				"z": -0.2106647259,
				"element": "Br" 
			},
			{
				"x": 2.7672205883,
				"y": 0.9018734891,
				"z": 1.3355715505,
				"element": "C" 
			},
			{
				"x": 1.8669541325,
				"y": -0.0913038435,
				"z": 1.7496442627,
				"element": "C" 
			},
			{
				"x": 0.7914215213,
				"y": -2.6717154753,
				"z": 2.2413431188,
				"element": "H" 
			},
			{
				"x": 0.187878355,
				"y": -1.5561621023,
				"z": 3.5016684978,
				"element": "H" 
			},
			{
				"x": -0.9413225921,
				"y": -2.6576346414,
				"z": 2.6659458579,
				"element": "H" 
			},
			{
				"x": -1.6924167537,
				"y": 0.0298944009,
				"z": 0.2300630938,
				"element": "H" 
			},
			{
				"x": -2.844311875,
				"y": 1.5768126125,
				"z": -0.8941310475,
				"element": "H" 
			},
			{
				"x": -1.5515414695,
				"y": 2.7019223341,
				"z": -0.5039321742,
				"element": "H" 
			},
			{
				"x": -1.9944583108,
				"y": 3.9466815866,
				"z": -2.6221982903,
				"element": "H" 
			},
			{
				"x": -1.5394373642,
				"y": 4.0615367538,
				"z": -5.0608547849,
				"element": "H" 
			},
			{
				"x": -0.3774431912,
				"y": 0.1097067796,
				"z": -5.1868445542,
				"element": "H" 
			},
			{
				"x": -0.786999012,
				"y": -0.1809674994,
				"z": -2.7409912469,
				"element": "H" 
			},
			{
				"x": 0.8014508151,
				"y": 2.4734685167,
				"z": -0.9568681137,
				"element": "H" 
			},
			{
				"x": 3.761292987,
				"y": 0.9538002907,
				"z": 1.762139289,
				"element": "H" 
			},
			{
				"x": 2.1799831416,
				"y": -0.8014024293,
				"z": 2.5060089663,
				"element": "H" 
			}
		],
		 "valence_orbital": [ 
			{
				"type": "occ",
				"energy": -0.27293,
				"method": "rhf"
			},
			{
				"type": "occ",
				"energy": -0.25862,
				"method": "rhf"
			},
			{
				"type": "occ",
				"energy": -0.24965,
				"method": "rhf"
			},
			{
				"type": "occ",
				"energy": -0.23253,
				"method": "rhf"
			},
			{
				"type": "occ",
				"energy": -0.1977,
				"method": "rhf"
			},
			{
				"type": "unocc",
				"energy": -0.02164,
				"method": "rhf"
			},
			{
				"type": "unocc",
				"energy": -0.00916,
				"method": "rhf"
			},
			{
				"type": "unocc",
				"energy": 0.00165,
				"method": "rhf"
			},
			{
				"type": "unocc",
				"energy": 0.00849,
				"method": "rhf"
			},
			{
				"type": "unocc",
				"energy": 0.0161,
				"method": "rhf"
			}
		],
		"cosmo_sigma_profile": { 
			"-0.025": 0.0,
			"-0.024": 0.0,
			"-0.023": 0.0,
			"-0.022": 0.0,
			"-0.021": 0.0,
			"-0.02": 0.0,
			"-0.019": 0.0,
			"-0.018": 0.0,
			"-0.017": 0.0,
			"-0.016": 0.0,
			"-0.015": 0.0,
			"-0.014": 0.0,
			"-0.013": 0.0110824806219,
			"-0.012": 0.51648157421,
			"-0.011": 0.944281819492,
			"-0.01": 0.721310559886,
			"-0.009": 1.03759984725,
			"-0.008": 1.86046129788,
			"-0.007": 4.98214401222,
			"-0.006": 19.5136446119,
			"-0.005": 26.5468443187,
			"-0.004": 25.8445713605,
			"-0.003": 22.0117522536,
			"-0.002": 16.8127926456,
			"-0.001": 16.6942495606,
			"0.0": 16.2204643932,
			"0.001": 16.1101043714,
			"0.002": 23.6863705588,
			"0.003": 31.2866823542,
			"0.004": 23.7432358908,
			"0.005": 25.037646587,
			"0.006": 6.00637711377,
			"0.007": 1.6771405218,
			"0.008": 1.72399008586,
			"0.009": 1.99407613048,
			"0.01": 0.550891194213,
			"0.011": 0.96255077987,
			"0.012": 0.692863046506,
			"0.013": 1.20508981482,
			"0.014": 0.916449612686,
			"0.015": 0.947224502466,
			"0.016": 0.818400186576,
			"0.017": 0.707562617763,
			"0.018": 0.0258205973419,
			"0.019": 0.0,
			"0.02": 0.0,
			"0.021": 0.0,
			"0.022": 0.0,
			"0.023": 0.0,
			"0.024": 0.0,
			"0.025": 0.0
		}
	}
}
