{
	 "smiles": "CC1=C(C=CC=C1N)C1=NC2=C(C=CC(F)=C2)N1C1CC1", 
	 "Tm": 405.15, 
	 "num_atms": 37, 
	 "gaussian": { 
		 "optdone": 1, 
		 "sigma_profile": "yes", 
		 "theory": "DFT", 
		 "functional": "B3LYP", 
		 "basiset": "6-31G**", 
		 "properties": { 
			 "R2extent": 7758.7812, 
			 "electric_dipole_moment_norm": 4.48022999633, 
			 "electric_quadrupole_moment_norm": 23.7319668479, 
			 "total_energy": -921.532145216, 
			 "HOMO_LUMO_gap": 0.17291, 
			 "cosmo_polarized_energy": -14.9, 
			 "cosmo_cavitation_energy": 39.78, 
			 "cosmo_dispersion_energy": -27.7, 
			 "cosmo_repulsion_energy": 2.09, 
			 "cosmo_total_nonelectrostatic_energy": 14.17, 
			 "SMD_solvation_energy": 4.65 
		},
		"coords": [
			{
				"x": -2.3424996527,
				"y": 1.4153941397,
				"z": 0.6535414849,
				"element": "C" 
			},
			{
				"x": -1.647570921,
				"y": 0.8185842456,
				"z": -0.5463480157,
				"element": "C" 
			},
			{
				"x": -0.2504949711,
				"y": 0.6468256108,
				"z": -0.6303376822,
				"element": "C" 
			},
			{
				"x": 0.3299424968,
				"y": 0.0519624038,
				"z": -1.764332751,
				"element": "C" 
			},
			{
				"x": -0.4708712615,
				"y": -0.374840908,
				"z": -2.8180212039,
				"element": "C" 
			},
			{
				"x": -1.8505262275,
				"y": -0.2092073317,
				"z": -2.7561355529,
				"element": "C" 
			},
			{
				"x": -2.4454289341,
				"y": 0.3851163644,
				"z": -1.6334911069,
				"element": "C" 
			},
			{
				"x": -3.837864602,
				"y": 0.493417855,
				"z": -1.5597089053,
				"element": "N" 
			},
			{
				"x": 0.6484753902,
				"y": 1.1286743888,
				"z": 0.4417045045,
				"element": "C" 
			},
			{
				"x": 0.6139325664,
				"y": 2.3449639946,
				"z": 0.950587417,
				"element": "N" 
			},
			{
				"x": 1.6603977032,
				"y": 2.4023544298,
				"z": 1.8501774556,
				"element": "C" 
			},
			{
				"x": 2.346431331,
				"y": 1.1663278027,
				"z": 1.8839733191,
				"element": "C" 
			},
			{
				"x": 3.4552423623,
				"y": 0.9506446886,
				"z": 2.7049926324,
				"element": "C" 
			},
			{
				"x": 3.8695263763,
				"y": 2.0121828098,
				"z": 3.5062701671,
				"element": "C" 
			},
			{
				"x": 3.181356757,
				"y": 3.2347855568,
				"z": 3.4675236806,
				"element": "C" 
			},
			{
				"x": 3.627408402,
				"y": 4.2336220632,
				"z": 4.2664218715,
				"element": "F" 
			},
			{
				"x": 2.0817425132,
				"y": 3.4671548619,
				"z": 2.6591366023,
				"element": "C" 
			},
			{
				"x": 1.6735409401,
				"y": 0.3497025596,
				"z": 0.9809350229,
				"element": "N" 
			},
			{
				"x": 1.9909313649,
				"y": -1.031043777,
				"z": 0.7328662518,
				"element": "C" 
			},
			{
				"x": 1.9724711627,
				"y": -1.9996719647,
				"z": 1.8959431936,
				"element": "C" 
			},
			{
				"x": 0.9106249406,
				"y": -2.0743887168,
				"z": 0.8325987271,
				"element": "C" 
			},
			{
				"x": -2.7954082067,
				"y": 2.3870477837,
				"z": 0.4102402131,
				"element": "H" 
			},
			{
				"x": -3.1502255398,
				"y": 0.7570256755,
				"z": 0.9967285673,
				"element": "H" 
			},
			{
				"x": -1.6547254037,
				"y": 1.5981210467,
				"z": 1.476341596,
				"element": "H" 
			},
			{
				"x": 1.4083516099,
				"y": -0.0439464046,
				"z": -1.82721579,
				"element": "H" 
			},
			{
				"x": -0.0199744372,
				"y": -0.8238526148,
				"z": -3.6982623446,
				"element": "H" 
			},
			{
				"x": -2.4792866234,
				"y": -0.5368373944,
				"z": -3.5808458325,
				"element": "H" 
			},
			{
				"x": -4.185115214,
				"y": 1.2750340408,
				"z": -1.0216439315,
				"element": "H" 
			},
			{
				"x": -4.3110729728,
				"y": 0.4149132746,
				"z": -2.4495592033,
				"element": "H" 
			},
			{
				"x": 3.9814197393,
				"y": 0.0025963875,
				"z": 2.7211324396,
				"element": "H" 
			},
			{
				"x": 4.7247279608,
				"y": 1.9174874961,
				"z": 4.1662286657,
				"element": "H" 
			},
			{
				"x": 1.5784899451,
				"y": 4.4268253045,
				"z": 2.6540355796,
				"element": "H" 
			},
			{
				"x": 2.7617994453,
				"y": -1.1843460459,
				"z": -0.0197335389,
				"element": "H" 
			},
			{
				"x": 1.6871469514,
				"y": -1.6049506791,
				"z": 2.8654058946,
				"element": "H" 
			},
			{
				"x": 2.743898769,
				"y": -2.7628543285,
				"z": 1.9252224484,
				"element": "H" 
			},
			{
				"x": -0.0865468705,
				"y": -1.7336832859,
				"z": 1.0872906795,
				"element": "H" 
			},
			{
				"x": 0.9370531106,
				"y": -2.8866413332,
				"z": 0.1137374447,
				"element": "H" 
			}
		],
		 "valence_orbital": [ 
			{
				"type": "occ",
				"energy": -0.26251,
				"method": "rhf"
			},
			{
				"type": "occ",
				"energy": -0.25002,
				"method": "rhf"
			},
			{
				"type": "occ",
				"energy": -0.21902,
				"method": "rhf"
			},
			{
				"type": "occ",
				"energy": -0.21292,
				"method": "rhf"
			},
			{
				"type": "occ",
				"energy": -0.20322,
				"method": "rhf"
			},
			{
				"type": "unocc",
				"energy": -0.03031,
				"method": "rhf"
			},
			{
				"type": "unocc",
				"energy": 0.00676,
				"method": "rhf"
			},
			{
				"type": "unocc",
				"energy": 0.01387,
				"method": "rhf"
			},
			{
				"type": "unocc",
				"energy": 0.03048,
				"method": "rhf"
			},
			{
				"type": "unocc",
				"energy": 0.06195,
				"method": "rhf"
			}
		],
		"cosmo_sigma_profile": { 
			"-0.025": 0.0,
			"-0.024": 0.0,
			"-0.023": 0.0,
			"-0.022": 0.0,
			"-0.021": 0.0,
			"-0.02": 0.0,
			"-0.019": 0.0,
			"-0.018": 0.0,
			"-0.017": 0.0,
			"-0.016": 0.0,
			"-0.015": 0.0,
			"-0.014": 0.0,
			"-0.013": 0.13354690948,
			"-0.012": 1.28448425009,
			"-0.011": 2.8544677518,
			"-0.01": 3.13437436917,
			"-0.009": 2.83804320679,
			"-0.008": 3.00764505639,
			"-0.007": 5.72146437462,
			"-0.006": 15.9877374246,
			"-0.005": 21.8527858017,
			"-0.004": 23.0014680703,
			"-0.003": 25.0660971987,
			"-0.002": 23.7814119067,
			"-0.001": 24.1364705359,
			"0.0": 20.2591013977,
			"0.001": 20.3188064857,
			"0.002": 21.6542371555,
			"0.003": 22.8359485909,
			"0.004": 27.669757797,
			"0.005": 21.5885353198,
			"0.006": 10.7959990971,
			"0.007": 3.72774385353,
			"0.008": 2.53386164208,
			"0.009": 1.83329477149,
			"0.01": 2.00337868704,
			"0.011": 1.7643322986,
			"0.012": 1.4404763835,
			"0.013": 1.77330558649,
			"0.014": 1.28977100039,
			"0.015": 1.16848683078,
			"0.016": 0.59151756772,
			"0.017": 0.514550169065,
			"0.018": 0.046346511345,
			"0.019": 0.0,
			"0.02": 0.0,
			"0.021": 0.0,
			"0.022": 0.0,
			"0.023": 0.0,
			"0.024": 0.0,
			"0.025": 0.0
		}
	}
}
