{
	 "smiles": "N#CCN1CCOCC1", 
	 "Tm": 336.15, 
	 "num_atms": 19, 
	 "gaussian": { 
		 "optdone": 1, 
		 "sigma_profile": "yes", 
		 "theory": "DFT", 
		 "functional": "B3LYP", 
		 "basiset": "6-31G**", 
		 "properties": { 
			 "R2extent": 1318.8312, 
			 "electric_dipole_moment_norm": 3.35622435186, 
			 "electric_quadrupole_moment_norm": 17.2626030166, 
			 "total_energy": -419.338663183, 
			 "HOMO_LUMO_gap": 0.23954, 
			 "cosmo_polarized_energy": -12.37, 
			 "cosmo_cavitation_energy": 21.64, 
			 "cosmo_dispersion_energy": -15.81, 
			 "cosmo_repulsion_energy": 1.29, 
			 "cosmo_total_nonelectrostatic_energy": 7.12, 
			 "SMD_solvation_energy": 2.37 
		},
		"coords": [
			{
				"x": -0.6724694405,
				"y": -3.2668960482,
				"z": -1.6993268029,
				"element": "N" 
			},
			{
				"x": -0.910500541,
				"y": -2.2729742157,
				"z": -1.1502521626,
				"element": "C" 
			},
			{
				"x": -1.2001447219,
				"y": -1.0226547957,
				"z": -0.4271119526,
				"element": "C" 
			},
			{
				"x": -0.5060062976,
				"y": 0.113227226,
				"z": -1.0296336101,
				"element": "N" 
			},
			{
				"x": -0.9962185503,
				"y": 1.4169719326,
				"z": -0.5591499334,
				"element": "C" 
			},
			{
				"x": -0.4359630242,
				"y": 1.8081314342,
				"z": 0.8133388321,
				"element": "C" 
			},
			{
				"x": 0.9860937366,
				"y": 1.7733842856,
				"z": 0.8029621994,
				"element": "O" 
			},
			{
				"x": 1.4747444887,
				"y": 0.4811372812,
				"z": 0.4549024472,
				"element": "C" 
			},
			{
				"x": 0.9622020144,
				"y": 0.0585399305,
				"z": -0.9257503808,
				"element": "C" 
			},
			{
				"x": -2.2794600942,
				"y": -0.8419239008,
				"z": -0.4939914087,
				"element": "H" 
			},
			{
				"x": -0.979607343,
				"y": -1.2059308519,
				"z": 0.6400189199,
				"element": "H" 
			},
			{
				"x": -2.0923674043,
				"y": 1.4112742147,
				"z": -0.546457917,
				"element": "H" 
			},
			{
				"x": -0.676694573,
				"y": 2.169020774,
				"z": -1.2912153075,
				"element": "H" 
			},
			{
				"x": -0.8262134608,
				"y": 1.1394422539,
				"z": 1.6005932335,
				"element": "H" 
			},
			{
				"x": -0.7217893492,
				"y": 2.8323911574,
				"z": 1.0725161721,
				"element": "H" 
			},
			{
				"x": 1.1808223708,
				"y": -0.2526364008,
				"z": 1.225267551,
				"element": "H" 
			},
			{
				"x": 2.5667804023,
				"y": 0.54931348,
				"z": 0.4592221544,
				"element": "H" 
			},
			{
				"x": 1.3063537097,
				"y": -0.9487574617,
				"z": -1.1825575229,
				"element": "H" 
			},
			{
				"x": 1.3682380774,
				"y": 0.7474397047,
				"z": -1.6762745111,
				"element": "H" 
			}
		],
		 "valence_orbital": [ 
			{
				"type": "occ",
				"energy": -0.33631,
				"method": "rhf"
			},
			{
				"type": "occ",
				"energy": -0.3327,
				"method": "rhf"
			},
			{
				"type": "occ",
				"energy": -0.31967,
				"method": "rhf"
			},
			{
				"type": "occ",
				"energy": -0.28398,
				"method": "rhf"
			},
			{
				"type": "occ",
				"energy": -0.22161,
				"method": "rhf"
			},
			{
				"type": "unocc",
				"energy": 0.01793,
				"method": "rhf"
			},
			{
				"type": "unocc",
				"energy": 0.03498,
				"method": "rhf"
			},
			{
				"type": "unocc",
				"energy": 0.06851,
				"method": "rhf"
			},
			{
				"type": "unocc",
				"energy": 0.09982,
				"method": "rhf"
			},
			{
				"type": "unocc",
				"energy": 0.11437,
				"method": "rhf"
			}
		],
		"cosmo_sigma_profile": { 
			"-0.025": 0.0,
			"-0.024": 0.0,
			"-0.023": 0.0,
			"-0.022": 0.0,
			"-0.021": 0.0,
			"-0.02": 0.0,
			"-0.019": 0.0,
			"-0.018": 0.0,
			"-0.017": 0.0,
			"-0.016": 0.0,
			"-0.015": 0.0,
			"-0.014": 0.0,
			"-0.013": 0.0,
			"-0.012": 0.0,
			"-0.011": 0.0,
			"-0.01": 0.0,
			"-0.009": 1.61274224807,
			"-0.008": 4.58186095215,
			"-0.007": 9.51093804762,
			"-0.006": 10.3695723788,
			"-0.005": 15.2245613589,
			"-0.004": 20.4985547919,
			"-0.003": 19.2293262142,
			"-0.002": 13.4978203381,
			"-0.001": 8.68720636887,
			"0.0": 5.88601508061,
			"0.001": 4.65474452085,
			"0.002": 4.4068402387,
			"0.003": 4.46611378814,
			"0.004": 5.51361491283,
			"0.005": 4.06407251961,
			"0.006": 3.95038048083,
			"0.007": 5.51137210572,
			"0.008": 5.1560592417,
			"0.009": 4.96348699664,
			"0.01": 4.48755367344,
			"0.011": 4.18312837594,
			"0.012": 4.45126568637,
			"0.013": 4.02604572393,
			"0.014": 1.04490125007,
			"0.015": 0.0,
			"0.016": 0.0,
			"0.017": 0.0,
			"0.018": 0.0,
			"0.019": 0.0,
			"0.02": 0.0,
			"0.021": 0.0,
			"0.022": 0.0,
			"0.023": 0.0,
			"0.024": 0.0,
			"0.025": 0.0
		}
	}
}
