{
	 "smiles": "CC(C)(C)OC(=O)NCCCC(O)=O", 
	 "Tm": 328.15, 
	 "num_atms": 31, 
	 "gaussian": { 
		 "optdone": 1, 
		 "sigma_profile": "yes", 
		 "theory": "DFT", 
		 "functional": "B3LYP", 
		 "basiset": "6-31G**", 
		 "properties": { 
			 "R2extent": 4111.449, 
			 "electric_dipole_moment_norm": 2.79641964126, 
			 "electric_quadrupole_moment_norm": 13.020151483, 
			 "total_energy": -708.913956794, 
			 "HOMO_LUMO_gap": 0.268, 
			 "cosmo_polarized_energy": -14.99, 
			 "cosmo_cavitation_energy": 33.24, 
			 "cosmo_dispersion_energy": -22.94, 
			 "cosmo_repulsion_energy": 1.86, 
			 "cosmo_total_nonelectrostatic_energy": 12.17, 
			 "SMD_solvation_energy": 6.96 
		},
		"coords": [
			{
				"x": -1.1099040144,
				"y": 1.0368853565,
				"z": 1.8744222905,
				"element": "C" 
			},
			{
				"x": -0.7115418108,
				"y": 2.3954857222,
				"z": 1.2869989842,
				"element": "C" 
			},
			{
				"x": 0.5395804742,
				"y": 2.972883703,
				"z": 1.9581957294,
				"element": "C" 
			},
			{
				"x": -1.8772238251,
				"y": 3.3848700732,
				"z": 1.3695705217,
				"element": "C" 
			},
			{
				"x": -0.496225009,
				"y": 2.2759717005,
				"z": -0.1622605129,
				"element": "O" 
			},
			{
				"x": 0.4698120883,
				"y": 1.4608033604,
				"z": -0.6579663275,
				"element": "C" 
			},
			{
				"x": 1.2485544515,
				"y": 0.7804344445,
				"z": -0.004753125,
				"element": "O" 
			},
			{
				"x": 0.4442842924,
				"y": 1.5068486482,
				"z": -2.0214129499,
				"element": "N" 
			},
			{
				"x": 1.4162772981,
				"y": 0.8030425375,
				"z": -2.8472729354,
				"element": "C" 
			},
			{
				"x": 0.9265781083,
				"y": -0.5551371283,
				"z": -3.3753305517,
				"element": "C" 
			},
			{
				"x": 0.6799417907,
				"y": -1.5929813647,
				"z": -2.2771923718,
				"element": "C" 
			},
			{
				"x": 1.9558134917,
				"y": -2.0506746108,
				"z": -1.6019463061,
				"element": "C" 
			},
			{
				"x": 1.6981340198,
				"y": -2.80834888,
				"z": -0.5115051634,
				"element": "O" 
			},
			{
				"x": 3.0839110432,
				"y": -1.8161742049,
				"z": -1.9805377637,
				"element": "O" 
			},
			{
				"x": -1.9823296659,
				"y": 0.6365105791,
				"z": 1.3478244098,
				"element": "H" 
			},
			{
				"x": -0.2900298428,
				"y": 0.3225208969,
				"z": 1.7964388446,
				"element": "H" 
			},
			{
				"x": -1.3766091649,
				"y": 1.1559429972,
				"z": 2.9296554358,
				"element": "H" 
			},
			{
				"x": 1.378141654,
				"y": 2.2807866168,
				"z": 1.8790995632,
				"element": "H" 
			},
			{
				"x": 0.3349641374,
				"y": 3.1636801153,
				"z": 3.0168115487,
				"element": "H" 
			},
			{
				"x": 0.8173852992,
				"y": 3.9224071504,
				"z": 1.4895796346,
				"element": "H" 
			},
			{
				"x": -2.756813664,
				"y": 2.989948292,
				"z": 0.8526318407,
				"element": "H" 
			},
			{
				"x": -1.6065724294,
				"y": 4.3396596581,
				"z": 0.9092920688,
				"element": "H" 
			},
			{
				"x": -2.1426595867,
				"y": 3.5671421457,
				"z": 2.4151879975,
				"element": "H" 
			},
			{
				"x": -0.2519488951,
				"y": 2.0981264669,
				"z": -2.4485506001,
				"element": "H" 
			},
			{
				"x": 2.3180686437,
				"y": 0.6597495335,
				"z": -2.2491692453,
				"element": "H" 
			},
			{
				"x": 1.6762035955,
				"y": 1.4500581182,
				"z": -3.6923446492,
				"element": "H" 
			},
			{
				"x": 1.6809059005,
				"y": -0.9399540133,
				"z": -4.0702937779,
				"element": "H" 
			},
			{
				"x": 0.0008859816,
				"y": -0.4125784993,
				"z": -3.9461967174,
				"element": "H" 
			},
			{
				"x": 0.0054119686,
				"y": -1.2135171493,
				"z": -1.5042490216,
				"element": "H" 
			},
			{
				"x": 0.195343267,
				"y": -2.4868003428,
				"z": -2.6909419395,
				"element": "H" 
			},
			{
				"x": 2.5642604024,
				"y": -3.0484919226,
				"z": -0.1417849114,
				"element": "H" 
			}
		],
		 "valence_orbital": [ 
			{
				"type": "occ",
				"energy": -0.30802,
				"method": "rhf"
			},
			{
				"type": "occ",
				"energy": -0.28508,
				"method": "rhf"
			},
			{
				"type": "occ",
				"energy": -0.26722,
				"method": "rhf"
			},
			{
				"type": "occ",
				"energy": -0.2616,
				"method": "rhf"
			},
			{
				"type": "occ",
				"energy": -0.24783,
				"method": "rhf"
			},
			{
				"type": "unocc",
				"energy": 0.02017,
				"method": "rhf"
			},
			{
				"type": "unocc",
				"energy": 0.0582,
				"method": "rhf"
			},
			{
				"type": "unocc",
				"energy": 0.08015,
				"method": "rhf"
			},
			{
				"type": "unocc",
				"energy": 0.08916,
				"method": "rhf"
			},
			{
				"type": "unocc",
				"energy": 0.09376,
				"method": "rhf"
			}
		],
		"cosmo_sigma_profile": { 
			"-0.025": 0.0,
			"-0.024": 0.0,
			"-0.023": 0.0,
			"-0.022": 0.0,
			"-0.021": 0.0,
			"-0.02": 0.0,
			"-0.019": 0.0,
			"-0.018": 0.463284533558,
			"-0.017": 1.0291700601,
			"-0.016": 0.999632219247,
			"-0.015": 0.739112110593,
			"-0.014": 1.1370178165,
			"-0.013": 1.53197067593,
			"-0.012": 1.34144805226,
			"-0.011": 2.15847755271,
			"-0.01": 2.2175822234,
			"-0.009": 0.853389457722,
			"-0.008": 1.29853171081,
			"-0.007": 2.23185705231,
			"-0.006": 5.25306760703,
			"-0.005": 6.93983853046,
			"-0.004": 19.1727291566,
			"-0.003": 30.3735332918,
			"-0.002": 27.640693931,
			"-0.001": 26.5652020113,
			"0.0": 30.1832753938,
			"0.001": 23.9046117334,
			"0.002": 10.6605525757,
			"0.003": 6.68778501659,
			"0.004": 5.704595595,
			"0.005": 6.41465227389,
			"0.006": 6.83737921523,
			"0.007": 6.94857578548,
			"0.008": 6.12127210979,
			"0.009": 6.17967185032,
			"0.01": 4.38979392971,
			"0.011": 3.73858294018,
			"0.012": 6.33127186168,
			"0.013": 1.87402695932,
			"0.014": 0.128919091408,
			"0.015": 0.0,
			"0.016": 0.0,
			"0.017": 0.0,
			"0.018": 0.0,
			"0.019": 0.0,
			"0.02": 0.0,
			"0.021": 0.0,
			"0.022": 0.0,
			"0.023": 0.0,
			"0.024": 0.0,
			"0.025": 0.0
		}
	}
}
