{
	 "smiles": "CC1=NC(=NC(CO)=C1)N1CCCCC1", 
	 "Tm": 325.15, 
	 "num_atms": 32, 
	 "gaussian": { 
		 "optdone": 1, 
		 "sigma_profile": "yes", 
		 "theory": "DFT", 
		 "functional": "B3LYP", 
		 "basiset": "6-31G**", 
		 "properties": { 
			 "R2extent": 3990.9061, 
			 "electric_dipole_moment_norm": 2.64530006048, 
			 "electric_quadrupole_moment_norm": 18.1192709608, 
			 "total_energy": -668.91928811, 
			 "HOMO_LUMO_gap": 0.18286, 
			 "cosmo_polarized_energy": -8.29, 
			 "cosmo_cavitation_energy": 32.94, 
			 "cosmo_dispersion_energy": -24.32, 
			 "cosmo_repulsion_energy": 1.94, 
			 "cosmo_total_nonelectrostatic_energy": 10.57, 
			 "SMD_solvation_energy": 3.09 
		},
		"coords": [
			{
				"x": -1.311633499,
				"y": 3.0474440254,
				"z": -0.2601944661,
				"element": "C" 
			},
			{
				"x": -0.3295785441,
				"y": 1.9113697309,
				"z": -0.1381904281,
				"element": "C" 
			},
			{
				"x": -0.8234800687,
				"y": 0.681066886,
				"z": -0.3241208996,
				"element": "N" 
			},
			{
				"x": 0.0325713601,
				"y": -0.3543749622,
				"z": -0.2187032878,
				"element": "C" 
			},
			{
				"x": 1.3565694758,
				"y": -0.2349568326,
				"z": 0.0521731732,
				"element": "N" 
			},
			{
				"x": 1.8304902147,
				"y": 0.9960091122,
				"z": 0.2337851831,
				"element": "C" 
			},
			{
				"x": 3.317449269,
				"y": 1.0832013233,
				"z": 0.5357105141,
				"element": "C" 
			},
			{
				"x": 3.9406278408,
				"y": -0.1735843993,
				"z": 0.5582572244,
				"element": "O" 
			},
			{
				"x": 1.0186201846,
				"y": 2.1290313117,
				"z": 0.1508332736,
				"element": "C" 
			},
			{
				"x": -0.4732138757,
				"y": -1.6147227063,
				"z": -0.3874260858,
				"element": "N" 
			},
			{
				"x": 0.3630071388,
				"y": -2.8136599078,
				"z": -0.3672848174,
				"element": "C" 
			},
			{
				"x": -0.2362980029,
				"y": -3.8824976059,
				"z": 0.5573798266,
				"element": "C" 
			},
			{
				"x": -1.6960606678,
				"y": -4.1822250178,
				"z": 0.1884475947,
				"element": "C" 
			},
			{
				"x": -2.5189664291,
				"y": -2.8865791586,
				"z": 0.1524837332,
				"element": "C" 
			},
			{
				"x": -1.8693046925,
				"y": -1.8415020456,
				"z": -0.7641424462,
				"element": "C" 
			},
			{
				"x": -2.1176414767,
				"y": 2.9276277356,
				"z": 0.4710530999,
				"element": "H" 
			},
			{
				"x": -0.8333749682,
				"y": 4.0170935661,
				"z": -0.10301506,
				"element": "H" 
			},
			{
				"x": -1.7762400712,
				"y": 3.0376559098,
				"z": -1.2514437898,
				"element": "H" 
			},
			{
				"x": 3.7863409862,
				"y": 1.7338894227,
				"z": -0.2206700321,
				"element": "H" 
			},
			{
				"x": 3.4435926932,
				"y": 1.5946773837,
				"z": 1.5042638441,
				"element": "H" 
			},
			{
				"x": 3.2251685971,
				"y": -0.8059900666,
				"z": 0.3655064996,
				"element": "H" 
			},
			{
				"x": 1.4171232195,
				"y": 3.1266739825,
				"z": 0.2981152587,
				"element": "H" 
			},
			{
				"x": 1.3642799829,
				"y": -2.5336741284,
				"z": -0.0481247782,
				"element": "H" 
			},
			{
				"x": 0.437504282,
				"y": -3.2143232399,
				"z": -1.3915986103,
				"element": "H" 
			},
			{
				"x": 0.3744295615,
				"y": -4.7910502328,
				"z": 0.4971534709,
				"element": "H" 
			},
			{
				"x": -0.1821811089,
				"y": -3.5239073172,
				"z": 1.5932033808,
				"element": "H" 
			},
			{
				"x": -1.7287053155,
				"y": -4.6595887748,
				"z": -0.8015804153,
				"element": "H" 
			},
			{
				"x": -2.1322908543,
				"y": -4.8969344061,
				"z": 0.8955241281,
				"element": "H" 
			},
			{
				"x": -3.5395082996,
				"y": -3.0843095389,
				"z": -0.1962577784,
				"element": "H" 
			},
			{
				"x": -2.5978679911,
				"y": -2.4695054336,
				"z": 1.1646094331,
				"element": "H" 
			},
			{
				"x": -2.3906737341,
				"y": -0.8874020447,
				"z": -0.7200920391,
				"element": "H" 
			},
			{
				"x": -1.9015552066,
				"y": -2.1978525707,
				"z": -1.8069547041,
				"element": "H" 
			}
		],
		 "valence_orbital": [ 
			{
				"type": "occ",
				"energy": -0.29888,
				"method": "rhf"
			},
			{
				"type": "occ",
				"energy": -0.29197,
				"method": "rhf"
			},
			{
				"type": "occ",
				"energy": -0.25188,
				"method": "rhf"
			},
			{
				"type": "occ",
				"energy": -0.24483,
				"method": "rhf"
			},
			{
				"type": "occ",
				"energy": -0.20792,
				"method": "rhf"
			},
			{
				"type": "unocc",
				"energy": -0.02506,
				"method": "rhf"
			},
			{
				"type": "unocc",
				"energy": 0.00381,
				"method": "rhf"
			},
			{
				"type": "unocc",
				"energy": 0.08746,
				"method": "rhf"
			},
			{
				"type": "unocc",
				"energy": 0.10722,
				"method": "rhf"
			},
			{
				"type": "unocc",
				"energy": 0.11125,
				"method": "rhf"
			}
		],
		"cosmo_sigma_profile": { 
			"-0.025": 0.0,
			"-0.024": 0.0,
			"-0.023": 0.0,
			"-0.022": 0.0,
			"-0.021": 0.0,
			"-0.02": 0.0,
			"-0.019": 0.0,
			"-0.018": 0.0,
			"-0.017": 0.0,
			"-0.016": 0.0,
			"-0.015": 0.0,
			"-0.014": 0.0,
			"-0.013": 0.0,
			"-0.012": 0.0,
			"-0.011": 0.0,
			"-0.01": 0.0,
			"-0.009": 0.0,
			"-0.008": 0.154028144264,
			"-0.007": 0.867312663141,
			"-0.006": 3.97688882734,
			"-0.005": 13.0675130367,
			"-0.004": 16.351186475,
			"-0.003": 31.3901925812,
			"-0.002": 39.062711786,
			"-0.001": 37.0950484986,
			"0.0": 32.2261873368,
			"0.001": 21.8785847207,
			"0.002": 15.6501499154,
			"0.003": 10.4913613382,
			"0.004": 5.77921151724,
			"0.005": 5.40646049532,
			"0.006": 4.52601139626,
			"0.007": 1.74816289132,
			"0.008": 3.00501674058,
			"0.009": 3.62208424001,
			"0.01": 2.57959780722,
			"0.011": 1.58679949733,
			"0.012": 1.6897175493,
			"0.013": 1.53364637452,
			"0.014": 2.53733364191,
			"0.015": 1.37939226568,
			"0.016": 0.0,
			"0.017": 0.0,
			"0.018": 0.0,
			"0.019": 0.0,
			"0.02": 0.0,
			"0.021": 0.0,
			"0.022": 0.0,
			"0.023": 0.0,
			"0.024": 0.0,
			"0.025": 0.0
		}
	}
}
