{
	 "smiles": "CC1=C(SC2=C1C=CC=C2)C(O)=O", 
	 "Tm": 515.65, 
	 "num_atms": 21, 
	 "gaussian": { 
		 "optdone": 1, 
		 "sigma_profile": "yes", 
		 "theory": "DFT", 
		 "functional": "B3LYP", 
		 "basiset": "6-31G**", 
		 "properties": { 
			 "R2extent": 3294.0155, 
			 "electric_dipole_moment_norm": 4.61813675523, 
			 "electric_quadrupole_moment_norm": 16.179351305, 
			 "total_energy": -934.536080631, 
			 "HOMO_LUMO_gap": 0.16512, 
			 "cosmo_polarized_energy": -12.06, 
			 "cosmo_cavitation_energy": 26.24, 
			 "cosmo_dispersion_energy": -20.19, 
			 "cosmo_repulsion_energy": 1.52, 
			 "cosmo_total_nonelectrostatic_energy": 7.58, 
			 "SMD_solvation_energy": 5.1 
		},
		"coords": [
			{
				"x": 2.6964777791,
				"y": 0.3327026954,
				"z": 0.4074707103,
				"element": "C" 
			},
			{
				"x": 1.4803498886,
				"y": -0.5389531668,
				"z": 0.2595416818,
				"element": "C" 
			},
			{
				"x": 1.492595354,
				"y": -1.9140210156,
				"z": 0.3010173401,
				"element": "C" 
			},
			{
				"x": -0.1158340933,
				"y": -2.623605405,
				"z": 0.0927493074,
				"element": "S" 
			},
			{
				"x": -0.8348482519,
				"y": -1.0369286278,
				"z": -0.0553540513,
				"element": "C" 
			},
			{
				"x": 0.1453516057,
				"y": -0.0193695308,
				"z": 0.0546176845,
				"element": "C" 
			},
			{
				"x": -0.2744335001,
				"y": 1.3231528158,
				"z": -0.0439111905,
				"element": "C" 
			},
			{
				"x": -1.6150911796,
				"y": 1.6149352218,
				"z": -0.2429942591,
				"element": "C" 
			},
			{
				"x": -2.5686681932,
				"y": 0.5850614678,
				"z": -0.3487985783,
				"element": "C" 
			},
			{
				"x": -2.1885454942,
				"y": -0.7480284215,
				"z": -0.2562004099,
				"element": "C" 
			},
			{
				"x": 2.6950889432,
				"y": -2.7541598592,
				"z": 0.4965636258,
				"element": "C" 
			},
			{
				"x": 2.5298166975,
				"y": -4.1043623531,
				"z": 0.5123904286,
				"element": "O" 
			},
			{
				"x": 3.8063873245,
				"y": -2.2925667923,
				"z": 0.6413003387,
				"element": "O" 
			},
			{
				"x": 3.4378002121,
				"y": 0.1024265694,
				"z": -0.3622463303,
				"element": "H" 
			},
			{
				"x": 2.4354069329,
				"y": 1.3905945192,
				"z": 0.3407382732,
				"element": "H" 
			},
			{
				"x": 3.1929630693,
				"y": 0.1508419192,
				"z": 1.3642602742,
				"element": "H" 
			},
			{
				"x": 0.4498756839,
				"y": 2.1273685375,
				"z": 0.0357950066,
				"element": "H" 
			},
			{
				"x": -1.9352367948,
				"y": 2.6495454571,
				"z": -0.3184413768,
				"element": "H" 
			},
			{
				"x": -3.6141060054,
				"y": 0.8336380972,
				"z": -0.5046192436,
				"element": "H" 
			},
			{
				"x": -2.922320226,
				"y": -1.5436425554,
				"z": -0.337505205,
				"element": "H" 
			},
			{
				"x": 1.6055702478,
				"y": -4.3635295729,
				"z": 0.3887259735,
				"element": "H" 
			}
		],
		 "valence_orbital": [ 
			{
				"type": "occ",
				"energy": -0.31531,
				"method": "rhf"
			},
			{
				"type": "occ",
				"energy": -0.29315,
				"method": "rhf"
			},
			{
				"type": "occ",
				"energy": -0.27392,
				"method": "rhf"
			},
			{
				"type": "occ",
				"energy": -0.25205,
				"method": "rhf"
			},
			{
				"type": "occ",
				"energy": -0.23071,
				"method": "rhf"
			},
			{
				"type": "unocc",
				"energy": -0.06559,
				"method": "rhf"
			},
			{
				"type": "unocc",
				"energy": -0.01792,
				"method": "rhf"
			},
			{
				"type": "unocc",
				"energy": -0.01043,
				"method": "rhf"
			},
			{
				"type": "unocc",
				"energy": 0.01358,
				"method": "rhf"
			},
			{
				"type": "unocc",
				"energy": 0.0634,
				"method": "rhf"
			}
		],
		"cosmo_sigma_profile": { 
			"-0.025": 0.0,
			"-0.024": 0.0,
			"-0.023": 0.0,
			"-0.022": 0.0,
			"-0.021": 0.0,
			"-0.02": 0.0,
			"-0.019": 0.0,
			"-0.018": 0.0933039223329,
			"-0.017": 0.887731215385,
			"-0.016": 0.571245026711,
			"-0.015": 0.851515504666,
			"-0.014": 0.641850171661,
			"-0.013": 0.555202008265,
			"-0.012": 1.31084858658,
			"-0.011": 1.52307011687,
			"-0.01": 0.779580523844,
			"-0.009": 0.887596465222,
			"-0.008": 1.93824082539,
			"-0.007": 7.07313239535,
			"-0.006": 10.4125063737,
			"-0.005": 12.0749574379,
			"-0.004": 13.706660227,
			"-0.003": 13.6876254602,
			"-0.002": 14.306200194,
			"-0.001": 18.3768109004,
			"0.0": 16.7714918997,
			"0.001": 18.2042700822,
			"0.002": 17.3238943535,
			"0.003": 15.461113759,
			"0.004": 14.6469786762,
			"0.005": 4.95697992641,
			"0.006": 3.21056961933,
			"0.007": 1.78804821136,
			"0.008": 2.53852412085,
			"0.009": 3.70716944413,
			"0.01": 3.83580481918,
			"0.011": 4.76884579428,
			"0.012": 3.85323796433,
			"0.013": 1.77268938899,
			"0.014": 0.0815386990991,
			"0.015": 0.0,
			"0.016": 0.0,
			"0.017": 0.0,
			"0.018": 0.0,
			"0.019": 0.0,
			"0.02": 0.0,
			"0.021": 0.0,
			"0.022": 0.0,
			"0.023": 0.0,
			"0.024": 0.0,
			"0.025": 0.0
		}
	}
}
