{
	 "smiles": "OC(=O)C1=CC=CC(C(O)=O)=C1O", 
	 "Tm": 517.15, 
	 "num_atms": 19, 
	 "gaussian": { 
		 "optdone": 1, 
		 "sigma_profile": "yes", 
		 "theory": "DFT", 
		 "functional": "B3LYP", 
		 "basiset": "6-31G**", 
		 "properties": { 
			 "R2extent": 2732.534, 
			 "electric_dipole_moment_norm": 3.8089568992, 
			 "electric_quadrupole_moment_norm": 10.503733928, 
			 "total_energy": -684.624722256, 
			 "HOMO_LUMO_gap": 0.17103, 
			 "cosmo_polarized_energy": -16.16, 
			 "cosmo_cavitation_energy": 24.12, 
			 "cosmo_dispersion_energy": -18.4, 
			 "cosmo_repulsion_energy": 1.44, 
			 "cosmo_total_nonelectrostatic_energy": 7.17, 
			 "SMD_solvation_energy": 6.89 
		},
		"coords": [
			{
				"x": 2.4053422779,
				"y": 1.3293497765,
				"z": 0.6794114824,
				"element": "O" 
			},
			{
				"x": 1.2105162885,
				"y": 0.7399282055,
				"z": 0.873333067,
				"element": "C" 
			},
			{
				"x": 0.7751370719,
				"y": 0.5635256427,
				"z": 2.013550673,
				"element": "O" 
			},
			{
				"x": 0.5105463665,
				"y": 0.3465917024,
				"z": -0.3538495438,
				"element": "C" 
			},
			{
				"x": 1.0737732956,
				"y": 0.5822235099,
				"z": -1.6176761332,
				"element": "C" 
			},
			{
				"x": 0.4037425369,
				"y": 0.2064713295,
				"z": -2.7725546182,
				"element": "C" 
			},
			{
				"x": -0.8429164111,
				"y": -0.4116317899,
				"z": -2.6650053608,
				"element": "C" 
			},
			{
				"x": -1.4442440598,
				"y": -0.6671242708,
				"z": -1.4266621301,
				"element": "C" 
			},
			{
				"x": -2.7755077079,
				"y": -1.3291445042,
				"z": -1.3709792462,
				"element": "C" 
			},
			{
				"x": -3.2527225978,
				"y": -1.613566502,
				"z": -2.6189921871,
				"element": "O" 
			},
			{
				"x": -3.4105705845,
				"y": -1.608998957,
				"z": -0.3776360948,
				"element": "O" 
			},
			{
				"x": -0.7638982428,
				"y": -0.285048391,
				"z": -0.2381953384,
				"element": "C" 
			},
			{
				"x": -1.3156630811,
				"y": -0.5179320867,
				"z": 0.9476953869,
				"element": "O" 
			},
			{
				"x": 2.7526028923,
				"y": 1.5343459262,
				"z": 1.5634344237,
				"element": "H" 
			},
			{
				"x": 2.0435294076,
				"y": 1.0641057601,
				"z": -1.6720381147,
				"element": "H" 
			},
			{
				"x": 0.8409980492,
				"y": 0.3895896987,
				"z": -3.7479402708,
				"element": "H" 
			},
			{
				"x": -1.3760521459,
				"y": -0.7097477269,
				"z": -3.5597899415,
				"element": "H" 
			},
			{
				"x": -4.1130132773,
				"y": -2.0368456995,
				"z": -2.4665929626,
				"element": "H" 
			},
			{
				"x": -0.6890000783,
				"y": -0.1806916234,
				"z": 1.6358869093,
				"element": "H" 
			}
		],
		 "valence_orbital": [ 
			{
				"type": "occ",
				"energy": -0.31307,
				"method": "rhf"
			},
			{
				"type": "occ",
				"energy": -0.30172,
				"method": "rhf"
			},
			{
				"type": "occ",
				"energy": -0.27761,
				"method": "rhf"
			},
			{
				"type": "occ",
				"energy": -0.26467,
				"method": "rhf"
			},
			{
				"type": "occ",
				"energy": -0.24061,
				"method": "rhf"
			},
			{
				"type": "unocc",
				"energy": -0.06958,
				"method": "rhf"
			},
			{
				"type": "unocc",
				"energy": -0.03257,
				"method": "rhf"
			},
			{
				"type": "unocc",
				"energy": 0.02366,
				"method": "rhf"
			},
			{
				"type": "unocc",
				"energy": 0.06247,
				"method": "rhf"
			},
			{
				"type": "unocc",
				"energy": 0.0751,
				"method": "rhf"
			}
		],
		"cosmo_sigma_profile": { 
			"-0.025": 0.0,
			"-0.024": 0.0,
			"-0.023": 0.0,
			"-0.022": 0.0,
			"-0.021": 0.0,
			"-0.02": 0.0,
			"-0.019": 0.675899044558,
			"-0.018": 1.52044676792,
			"-0.017": 1.83943388701,
			"-0.016": 1.63936718166,
			"-0.015": 1.37607763535,
			"-0.014": 1.61729043459,
			"-0.013": 1.00375219789,
			"-0.012": 1.05943589558,
			"-0.011": 1.47204862777,
			"-0.01": 1.539226663,
			"-0.009": 1.67883821822,
			"-0.008": 1.8248727232,
			"-0.007": 6.07403720732,
			"-0.006": 7.368850458,
			"-0.005": 7.99779233754,
			"-0.004": 11.2934674303,
			"-0.003": 12.5998559811,
			"-0.002": 11.8942183554,
			"-0.001": 15.3711400735,
			"0.0": 16.7888051209,
			"0.001": 16.2534335107,
			"0.002": 12.7712676424,
			"0.003": 9.94686707337,
			"0.004": 5.26954641421,
			"0.005": 5.4799868801,
			"0.006": 6.35340152041,
			"0.007": 4.94406488402,
			"0.008": 3.34809571222,
			"0.009": 3.98553988735,
			"0.01": 4.18516053992,
			"0.011": 4.06894912837,
			"0.012": 4.71568278356,
			"0.013": 1.75795692704,
			"0.014": 1.77285882772,
			"0.015": 1.22993967427,
			"0.016": 0.751312757537,
			"0.017": 0.0101252048718,
			"0.018": 0.0,
			"0.019": 0.0,
			"0.02": 0.0,
			"0.021": 0.0,
			"0.022": 0.0,
			"0.023": 0.0,
			"0.024": 0.0,
			"0.025": 0.0
		}
	}
}
