{
	 "smiles": "CC1(NC(=O)NC1=O)C1=CC2=C(OCO2)C=C1", 
	 "Tm": 471.15, 
	 "num_atms": 27, 
	 "gaussian": { 
		 "optdone": 1, 
		 "sigma_profile": "yes", 
		 "theory": "DFT", 
		 "functional": "B3LYP", 
		 "basiset": "6-31G**", 
		 "properties": { 
			 "R2extent": 5389.19, 
			 "electric_dipole_moment_norm": 2.58384772965, 
			 "electric_quadrupole_moment_norm": 14.4570653817, 
			 "total_energy": -835.610289012, 
			 "HOMO_LUMO_gap": 0.19308, 
			 "cosmo_polarized_energy": -18.28, 
			 "cosmo_cavitation_energy": 31.18, 
			 "cosmo_dispersion_energy": -22.85, 
			 "cosmo_repulsion_energy": 1.77, 
			 "cosmo_total_nonelectrostatic_energy": 10.11, 
			 "SMD_solvation_energy": 7.69 
		},
		"coords": [
			{
				"x": 2.0678063335,
				"y": -2.7336052309,
				"z": 0.1674558167,
				"element": "C" 
			},
			{
				"x": 0.8859701795,
				"y": -2.4863310577,
				"z": 1.1284980543,
				"element": "C" 
			},
			{
				"x": 1.2145896016,
				"y": -2.9010472728,
				"z": 2.490947226,
				"element": "N" 
			},
			{
				"x": 0.5101615828,
				"y": -3.9961412084,
				"z": 2.92764176,
				"element": "C" 
			},
			{
				"x": 0.6374578557,
				"y": -4.614284935,
				"z": 3.9631444306,
				"element": "O" 
			},
			{
				"x": -0.419104537,
				"y": -4.2741215322,
				"z": 1.9033877053,
				"element": "N" 
			},
			{
				"x": -0.2602887215,
				"y": -3.4803730277,
				"z": 0.790152087,
				"element": "C" 
			},
			{
				"x": -0.872146182,
				"y": -3.5526550063,
				"z": -0.2546132404,
				"element": "O" 
			},
			{
				"x": 0.3845250237,
				"y": -1.0386961295,
				"z": 1.0444620585,
				"element": "C" 
			},
			{
				"x": -0.0956059521,
				"y": -0.5568403514,
				"z": -0.1965698352,
				"element": "C" 
			},
			{
				"x": -0.5148437622,
				"y": 0.7548432564,
				"z": -0.2422994609,
				"element": "C" 
			},
			{
				"x": -0.4723253684,
				"y": 1.5911277548,
				"z": 0.8724400085,
				"element": "C" 
			},
			{
				"x": -0.9273763431,
				"y": 2.8409146595,
				"z": 0.5323680015,
				"element": "O" 
			},
			{
				"x": -1.4084312445,
				"y": 2.726316333,
				"z": -0.8131022424,
				"element": "C" 
			},
			{
				"x": -1.0020022906,
				"y": 1.4512114974,
				"z": -1.3219945924,
				"element": "O" 
			},
			{
				"x": -0.0144235725,
				"y": 1.1412857479,
				"z": 2.0927249395,
				"element": "C" 
			},
			{
				"x": 0.4124681745,
				"y": -0.1988968699,
				"z": 2.1598349782,
				"element": "C" 
			},
			{
				"x": 2.8952724761,
				"y": -2.0614125788,
				"z": 0.4141631447,
				"element": "H" 
			},
			{
				"x": 2.4154533091,
				"y": -3.7683227325,
				"z": 0.244523688,
				"element": "H" 
			},
			{
				"x": 1.7667557231,
				"y": -2.5448576421,
				"z": -0.8646370079,
				"element": "H" 
			},
			{
				"x": 2.0769408736,
				"y": -2.6566680788,
				"z": 2.9535476839,
				"element": "H" 
			},
			{
				"x": -1.0821543146,
				"y": -5.0331532765,
				"z": 1.969639538,
				"element": "H" 
			},
			{
				"x": -0.170182471,
				"y": -1.1996527696,
				"z": -1.0645474206,
				"element": "H" 
			},
			{
				"x": -0.9697424002,
				"y": 3.5204832883,
				"z": -1.425318311,
				"element": "H" 
			},
			{
				"x": -2.5057048577,
				"y": 2.791220778,
				"z": -0.8166811859,
				"element": "H" 
			},
			{
				"x": 0.0117065522,
				"y": 1.7890186168,
				"z": 2.9615477398,
				"element": "H" 
			},
			{
				"x": 0.755324332,
				"y": -0.5887622319,
				"z": 3.110884436,
				"element": "H" 
			}
		],
		 "valence_orbital": [ 
			{
				"type": "occ",
				"energy": -0.29002,
				"method": "rhf"
			},
			{
				"type": "occ",
				"energy": -0.27336,
				"method": "rhf"
			},
			{
				"type": "occ",
				"energy": -0.26452,
				"method": "rhf"
			},
			{
				"type": "occ",
				"energy": -0.25024,
				"method": "rhf"
			},
			{
				"type": "occ",
				"energy": -0.21188,
				"method": "rhf"
			},
			{
				"type": "unocc",
				"energy": -0.0188,
				"method": "rhf"
			},
			{
				"type": "unocc",
				"energy": -0.0042,
				"method": "rhf"
			},
			{
				"type": "unocc",
				"energy": 0.00834,
				"method": "rhf"
			},
			{
				"type": "unocc",
				"energy": 0.05795,
				"method": "rhf"
			},
			{
				"type": "unocc",
				"energy": 0.07161,
				"method": "rhf"
			}
		],
		"cosmo_sigma_profile": { 
			"-0.025": 0.0,
			"-0.024": 0.0,
			"-0.023": 0.0,
			"-0.022": 0.0,
			"-0.021": 0.0,
			"-0.02": 0.0,
			"-0.019": 0.0,
			"-0.018": 0.0,
			"-0.017": 0.414966487365,
			"-0.016": 1.38331659006,
			"-0.015": 2.02532276583,
			"-0.014": 2.53723972457,
			"-0.013": 1.49628222684,
			"-0.012": 2.09734811056,
			"-0.011": 2.17015651453,
			"-0.01": 1.62350543004,
			"-0.009": 1.94564612455,
			"-0.008": 5.06953679561,
			"-0.007": 10.6586108479,
			"-0.006": 15.5018281645,
			"-0.005": 16.8357182042,
			"-0.004": 13.8910515452,
			"-0.003": 14.6619080597,
			"-0.002": 16.8450299511,
			"-0.001": 16.9721215943,
			"0.0": 13.2280979595,
			"0.001": 11.3215974202,
			"0.002": 14.4811171018,
			"0.003": 15.057758267,
			"0.004": 12.6892364535,
			"0.005": 8.05868312642,
			"0.006": 5.41210142623,
			"0.007": 5.42435339509,
			"0.008": 4.82827229954,
			"0.009": 6.75100771286,
			"0.01": 4.60578827834,
			"0.011": 5.95186235583,
			"0.012": 8.2072084289,
			"0.013": 5.72268598408,
			"0.014": 0.520707255673,
			"0.015": 0.0,
			"0.016": 0.0,
			"0.017": 0.0,
			"0.018": 0.0,
			"0.019": 0.0,
			"0.02": 0.0,
			"0.021": 0.0,
			"0.022": 0.0,
			"0.023": 0.0,
			"0.024": 0.0,
			"0.025": 0.0
		}
	}
}
