{
	 "smiles": "CCCC(N)P(O)(O)=O", 
	 "Tm": 551.15, 
	 "num_atms": 21, 
	 "gaussian": { 
		 "optdone": 1, 
		 "sigma_profile": "yes", 
		 "theory": "DFT", 
		 "functional": "B3LYP", 
		 "basiset": "6-31G**", 
		 "properties": { 
			 "R2extent": 1657.5852, 
			 "electric_dipole_moment_norm": 4.36562021596, 
			 "electric_quadrupole_moment_norm": 14.2958074158, 
			 "total_energy": -781.510061399, 
			 "HOMO_LUMO_gap": 0.31229, 
			 "cosmo_polarized_energy": -18.54, 
			 "cosmo_cavitation_energy": 24.34, 
			 "cosmo_dispersion_energy": -18.07, 
			 "cosmo_repulsion_energy": 1.47, 
			 "cosmo_total_nonelectrostatic_energy": 7.75, 
			 "SMD_solvation_energy": 5.76 
		},
		"coords": [
			{
				"x": 1.3106821393,
				"y": 1.7449465164,
				"z": 0.5193111476,
				"element": "C" 
			},
			{
				"x": 1.2831195406,
				"y": 0.5171650722,
				"z": 1.4361784801,
				"element": "C" 
			},
			{
				"x": -0.0726654734,
				"y": -0.1988314839,
				"z": 1.576486548,
				"element": "C" 
			},
			{
				"x": -0.5973418881,
				"y": -0.9875404352,
				"z": 0.35819037,
				"element": "C" 
			},
			{
				"x": -1.5863028634,
				"y": -2.0360055017,
				"z": 0.7246628683,
				"element": "N" 
			},
			{
				"x": -1.4758384704,
				"y": 0.0322663476,
				"z": -0.9300155796,
				"element": "P" 
			},
			{
				"x": -2.3753666194,
				"y": -1.1000916644,
				"z": -1.6337915412,
				"element": "O" 
			},
			{
				"x": -0.3612925285,
				"y": 0.3523193802,
				"z": -2.0747121779,
				"element": "O" 
			},
			{
				"x": -2.1577452559,
				"y": 1.250851246,
				"z": -0.4172037733,
				"element": "O" 
			},
			{
				"x": 1.1844522109,
				"y": 1.4647821505,
				"z": -0.5288072453,
				"element": "H" 
			},
			{
				"x": 0.5137688436,
				"y": 2.4499677499,
				"z": 0.7771852896,
				"element": "H" 
			},
			{
				"x": 2.2689601854,
				"y": 2.267161594,
				"z": 0.6079371641,
				"element": "H" 
			},
			{
				"x": 2.0397405923,
				"y": -0.2076501923,
				"z": 1.1048602441,
				"element": "H" 
			},
			{
				"x": 1.5863387941,
				"y": 0.8247707951,
				"z": 2.4447215755,
				"element": "H" 
			},
			{
				"x": -0.8426036467,
				"y": 0.5203961677,
				"z": 1.8838768522,
				"element": "H" 
			},
			{
				"x": 0.0231595261,
				"y": -0.9271647018,
				"z": 2.3933577118,
				"element": "H" 
			},
			{
				"x": 0.2290858975,
				"y": -1.4935081318,
				"z": -0.1549237489,
				"element": "H" 
			},
			{
				"x": -2.2257913737,
				"y": -1.6714577652,
				"z": 1.429267511,
				"element": "H" 
			},
			{
				"x": -1.1152879001,
				"y": -2.833911132,
				"z": 1.1433349005,
				"element": "H" 
			},
			{
				"x": -2.4302275531,
				"y": -1.8307817664,
				"z": -0.9703330492,
				"element": "H" 
			},
			{
				"x": -0.4204441572,
				"y": 1.2870157551,
				"z": -2.3194835474,
				"element": "H" 
			}
		],
		 "valence_orbital": [ 
			{
				"type": "occ",
				"energy": -0.33405,
				"method": "rhf"
			},
			{
				"type": "occ",
				"energy": -0.31597,
				"method": "rhf"
			},
			{
				"type": "occ",
				"energy": -0.28928,
				"method": "rhf"
			},
			{
				"type": "occ",
				"energy": -0.27786,
				"method": "rhf"
			},
			{
				"type": "occ",
				"energy": -0.26928,
				"method": "rhf"
			},
			{
				"type": "unocc",
				"energy": 0.04301,
				"method": "rhf"
			},
			{
				"type": "unocc",
				"energy": 0.05756,
				"method": "rhf"
			},
			{
				"type": "unocc",
				"energy": 0.07697,
				"method": "rhf"
			},
			{
				"type": "unocc",
				"energy": 0.10067,
				"method": "rhf"
			},
			{
				"type": "unocc",
				"energy": 0.11141,
				"method": "rhf"
			}
		],
		"cosmo_sigma_profile": { 
			"-0.025": 0.0,
			"-0.024": 0.0,
			"-0.023": 0.0,
			"-0.022": 0.0,
			"-0.021": 0.0,
			"-0.02": 0.0,
			"-0.019": 0.18375768925,
			"-0.018": 0.56375720819,
			"-0.017": 0.649314590593,
			"-0.016": 0.944361941236,
			"-0.015": 1.0696579705,
			"-0.014": 0.291377281687,
			"-0.013": 0.229923938396,
			"-0.012": 2.26239491895,
			"-0.011": 4.06903908256,
			"-0.01": 3.43146840897,
			"-0.009": 4.85715245683,
			"-0.008": 4.46425487173,
			"-0.007": 6.31169487487,
			"-0.006": 7.17955980767,
			"-0.005": 7.37247897158,
			"-0.004": 7.53163435131,
			"-0.003": 11.7955513289,
			"-0.002": 16.6885060709,
			"-0.001": 18.01620824,
			"0.0": 16.4107866609,
			"0.001": 14.9598890075,
			"0.002": 6.81395688677,
			"0.003": 4.08427653987,
			"0.004": 2.9094329468,
			"0.005": 4.56158119978,
			"0.006": 2.9245020605,
			"0.007": 2.87754946399,
			"0.008": 3.50736079095,
			"0.009": 3.99407171368,
			"0.01": 4.83028732213,
			"0.011": 4.95554547613,
			"0.012": 4.00587423315,
			"0.013": 1.15404907288,
			"0.014": 3.08992058335,
			"0.015": 5.10862698107,
			"0.016": 1.73557614534,
			"0.017": 0.0,
			"0.018": 0.0,
			"0.019": 0.0,
			"0.02": 0.0,
			"0.021": 0.0,
			"0.022": 0.0,
			"0.023": 0.0,
			"0.024": 0.0,
			"0.025": 0.0
		}
	}
}
