{
	 "smiles": "NNC1=C(C=C(C(Cl)=C1)C(F)(F)F)[N+]([O-])=O", 
	 "Tm": 415.15, 
	 "num_atms": 21, 
	 "gaussian": { 
		 "optdone": 1, 
		 "sigma_profile": "yes", 
		 "theory": "DFT", 
		 "functional": "B3LYP", 
		 "basiset": "6-31G**", 
		 "properties": { 
			 "R2extent": 4657.6347, 
			 "electric_dipole_moment_norm": 4.27729542702, 
			 "electric_quadrupole_moment_norm": 12.9588991982, 
			 "total_energy": -1344.04440353, 
			 "HOMO_LUMO_gap": 0.14669, 
			 "cosmo_polarized_energy": -13.31, 
			 "cosmo_cavitation_energy": 29.11, 
			 "cosmo_dispersion_energy": -21.17, 
			 "cosmo_repulsion_energy": 1.59, 
			 "cosmo_total_nonelectrostatic_energy": 9.53, 
			 "SMD_solvation_energy": 8.23 
		},
		"coords": [
			{
				"x": -0.7123221146,
				"y": -0.9395003675,
				"z": 3.1024170536,
				"element": "N" 
			},
			{
				"x": -0.5948394868,
				"y": 0.3228753472,
				"z": 2.5148143644,
				"element": "N" 
			},
			{
				"x": -0.3138728782,
				"y": 0.5506605105,
				"z": 1.2062487427,
				"element": "C" 
			},
			{
				"x": -0.2005067065,
				"y": 1.8567248063,
				"z": 0.6399953723,
				"element": "C" 
			},
			{
				"x": 0.0910532082,
				"y": 2.0309796966,
				"z": -0.7139565117,
				"element": "C" 
			},
			{
				"x": 0.2835111437,
				"y": 0.9589803004,
				"z": -1.5703260072,
				"element": "C" 
			},
			{
				"x": 0.173121659,
				"y": -0.3367638557,
				"z": -1.0201635678,
				"element": "C" 
			},
			{
				"x": 0.3963980068,
				"y": -1.7586538108,
				"z": -2.0109511834,
				"element": "Cl" 
			},
			{
				"x": -0.114536996,
				"y": -0.5345165636,
				"z": 0.3171140335,
				"element": "C" 
			},
			{
				"x": 0.5964177348,
				"y": 1.2095364683,
				"z": -3.0239966426,
				"element": "C" 
			},
			{
				"x": -0.3358362703,
				"y": 0.6737260248,
				"z": -3.8394893776,
				"element": "F" 
			},
			{
				"x": 0.6462798669,
				"y": 2.5325778607,
				"z": -3.2889315407,
				"element": "F" 
			},
			{
				"x": 1.7879678944,
				"y": 0.6855937319,
				"z": -3.3802051906,
				"element": "F" 
			},
			{
				"x": -0.3790811852,
				"y": 3.0629049201,
				"z": 1.4274426308,
				"element": "N" 
			},
			{
				"x": -0.2659859622,
				"y": 4.1517639131,
				"z": 0.8679974978,
				"element": "O" 
			},
			{
				"x": -0.6398611363,
				"y": 2.9476146924,
				"z": 2.638896799,
				"element": "O" 
			},
			{
				"x": -1.4620296078,
				"y": -1.4711187964,
				"z": 2.6639631633,
				"element": "H" 
			},
			{
				"x": 0.1585548501,
				"y": -1.4595699012,
				"z": 3.0127926967,
				"element": "H" 
			},
			{
				"x": -0.7293416375,
				"y": 1.1270375002,
				"z": 3.1132795658,
				"element": "H" 
			},
			{
				"x": 0.1645155017,
				"y": 3.0440396103,
				"z": -1.0852421352,
				"element": "H" 
			},
			{
				"x": -0.1892058842,
				"y": -1.5454920879,
				"z": 0.693400237,
				"element": "H" 
			}
		],
		 "valence_orbital": [ 
			{
				"type": "occ",
				"energy": -0.31909,
				"method": "rhf"
			},
			{
				"type": "occ",
				"energy": -0.30812,
				"method": "rhf"
			},
			{
				"type": "occ",
				"energy": -0.29389,
				"method": "rhf"
			},
			{
				"type": "occ",
				"energy": -0.28647,
				"method": "rhf"
			},
			{
				"type": "occ",
				"energy": -0.24875,
				"method": "rhf"
			},
			{
				"type": "unocc",
				"energy": -0.10206,
				"method": "rhf"
			},
			{
				"type": "unocc",
				"energy": -0.03829,
				"method": "rhf"
			},
			{
				"type": "unocc",
				"energy": -0.02289,
				"method": "rhf"
			},
			{
				"type": "unocc",
				"energy": 0.00546,
				"method": "rhf"
			},
			{
				"type": "unocc",
				"energy": 0.04726,
				"method": "rhf"
			}
		],
		"cosmo_sigma_profile": { 
			"-0.025": 0.0,
			"-0.024": 0.0,
			"-0.023": 0.0,
			"-0.022": 0.0,
			"-0.021": 0.0,
			"-0.02": 0.0,
			"-0.019": 0.0,
			"-0.018": 0.0,
			"-0.017": 0.0,
			"-0.016": 0.0,
			"-0.015": 0.0,
			"-0.014": 0.0,
			"-0.013": 1.10924032206,
			"-0.012": 5.25758848226,
			"-0.011": 5.03110865747,
			"-0.01": 3.28170818964,
			"-0.009": 3.47401575521,
			"-0.008": 2.93284671173,
			"-0.007": 3.53340582522,
			"-0.006": 5.05680339773,
			"-0.005": 7.53985997464,
			"-0.004": 10.1598786722,
			"-0.003": 13.5523819035,
			"-0.002": 19.0095226455,
			"-0.001": 24.4096845883,
			"0.0": 19.1104663303,
			"0.001": 13.4147687586,
			"0.002": 28.0721219167,
			"0.003": 30.5830768593,
			"0.004": 8.5307768625,
			"0.005": 3.7981343694,
			"0.006": 3.99342303304,
			"0.007": 5.65341267954,
			"0.008": 5.90520540693,
			"0.009": 4.89804748482,
			"0.01": 3.92894897915,
			"0.011": 1.23758362863,
			"0.012": 0.579836501708,
			"0.013": 0.202882618154,
			"0.014": 0.837787286233,
			"0.015": 0.540914476073,
			"0.016": 0.0183208083369,
			"0.017": 0.0,
			"0.018": 0.0,
			"0.019": 0.0,
			"0.02": 0.0,
			"0.021": 0.0,
			"0.022": 0.0,
			"0.023": 0.0,
			"0.024": 0.0,
			"0.025": 0.0
		}
	}
}
