{
	 "smiles": "CS(=O)(=O)NC1CCNCC1", 
	 "Tm": 417.15, 
	 "num_atms": 25, 
	 "gaussian": { 
		 "optdone": 1, 
		 "sigma_profile": "yes", 
		 "theory": "DFT", 
		 "functional": "B3LYP", 
		 "basiset": "6-31G**", 
		 "properties": { 
			 "R2extent": 2918.7235, 
			 "electric_dipole_moment_norm": 3.92430865376, 
			 "electric_quadrupole_moment_norm": 16.7844972915, 
			 "total_energy": -895.150946946, 
			 "HOMO_LUMO_gap": 0.28865, 
			 "cosmo_polarized_energy": -16.19, 
			 "cosmo_cavitation_energy": 27.3, 
			 "cosmo_dispersion_energy": -20.63, 
			 "cosmo_repulsion_energy": 1.61, 
			 "cosmo_total_nonelectrostatic_energy": 8.28, 
			 "SMD_solvation_energy": 0.61 
		},
		"coords": [
			{
				"x": 1.8151546177,
				"y": 0.4952497315,
				"z": 3.5851703386,
				"element": "C" 
			},
			{
				"x": 0.123045887,
				"y": 0.5764539741,
				"z": 2.9777368119,
				"element": "S" 
			},
			{
				"x": -0.498519328,
				"y": -0.7311679501,
				"z": 3.2184993442,
				"element": "O" 
			},
			{
				"x": -0.4784573028,
				"y": 1.8124846138,
				"z": 3.4906760876,
				"element": "O" 
			},
			{
				"x": 0.3390695954,
				"y": 0.8205834687,
				"z": 1.3117068986,
				"element": "N" 
			},
			{
				"x": 0.0514602433,
				"y": -0.2962223832,
				"z": 0.3791468692,
				"element": "C" 
			},
			{
				"x": -0.1258760333,
				"y": 0.2917713704,
				"z": -1.0280983362,
				"element": "C" 
			},
			{
				"x": -0.3241466036,
				"y": -0.8322449223,
				"z": -2.0642599235,
				"element": "C" 
			},
			{
				"x": 0.7251256847,
				"y": -1.8518272918,
				"z": -2.0489298795,
				"element": "N" 
			},
			{
				"x": 0.9331402023,
				"y": -2.4000976999,
				"z": -0.7070539356,
				"element": "C" 
			},
			{
				"x": 1.1809125926,
				"y": -1.3358692163,
				"z": 0.3800303919,
				"element": "C" 
			},
			{
				"x": 1.7572225914,
				"y": 0.3426846373,
				"z": 4.664477633,
				"element": "H" 
			},
			{
				"x": 2.3122532198,
				"y": 1.4375098542,
				"z": 3.3549860404,
				"element": "H" 
			},
			{
				"x": 2.3258774177,
				"y": -0.342169887,
				"z": 3.109374798,
				"element": "H" 
			},
			{
				"x": -0.1924832466,
				"y": 1.6600242352,
				"z": 1.0877961722,
				"element": "H" 
			},
			{
				"x": -0.8803456144,
				"y": -0.8005947599,
				"z": 0.6712436852,
				"element": "H" 
			},
			{
				"x": 0.7660449832,
				"y": 0.8791465496,
				"z": -1.2855934141,
				"element": "H" 
			},
			{
				"x": -0.9839542017,
				"y": 0.9777169734,
				"z": -1.0475815516,
				"element": "H" 
			},
			{
				"x": -1.2819016017,
				"y": -1.3353659896,
				"z": -1.87252946,
				"element": "H" 
			},
			{
				"x": -0.3885674052,
				"y": -0.4076075111,
				"z": -3.0715786366,
				"element": "H" 
			},
			{
				"x": 1.5956364588,
				"y": -1.4422823407,
				"z": -2.3828212123,
				"element": "H" 
			},
			{
				"x": 0.0410646647,
				"y": -2.984926594,
				"z": -0.4437981971,
				"element": "H" 
			},
			{
				"x": 1.769743849,
				"y": -3.1056538177,
				"z": -0.7426354382,
				"element": "H" 
			},
			{
				"x": 2.1339238157,
				"y": -0.8229578532,
				"z": 0.1909340138,
				"element": "H" 
			},
			{
				"x": 1.247275514,
				"y": -1.8187371915,
				"z": 1.3615009001,
				"element": "H" 
			}
		],
		 "valence_orbital": [ 
			{
				"type": "occ",
				"energy": -0.31235,
				"method": "rhf"
			},
			{
				"type": "occ",
				"energy": -0.30472,
				"method": "rhf"
			},
			{
				"type": "occ",
				"energy": -0.29778,
				"method": "rhf"
			},
			{
				"type": "occ",
				"energy": -0.27316,
				"method": "rhf"
			},
			{
				"type": "occ",
				"energy": -0.2256,
				"method": "rhf"
			},
			{
				"type": "unocc",
				"energy": 0.06305,
				"method": "rhf"
			},
			{
				"type": "unocc",
				"energy": 0.0656,
				"method": "rhf"
			},
			{
				"type": "unocc",
				"energy": 0.07768,
				"method": "rhf"
			},
			{
				"type": "unocc",
				"energy": 0.09025,
				"method": "rhf"
			},
			{
				"type": "unocc",
				"energy": 0.09329,
				"method": "rhf"
			}
		],
		"cosmo_sigma_profile": { 
			"-0.025": 0.0,
			"-0.024": 0.0,
			"-0.023": 0.0,
			"-0.022": 0.0,
			"-0.021": 0.0,
			"-0.02": 0.0,
			"-0.019": 0.0,
			"-0.018": 0.0,
			"-0.017": 0.0,
			"-0.016": 0.0,
			"-0.015": 0.0,
			"-0.014": 0.0,
			"-0.013": 0.529372266247,
			"-0.012": 1.17093824787,
			"-0.011": 0.943121367319,
			"-0.01": 1.07979476828,
			"-0.009": 3.89891197989,
			"-0.008": 6.30383184197,
			"-0.007": 7.73192559352,
			"-0.006": 9.56491386989,
			"-0.005": 8.95338632363,
			"-0.004": 22.3082021918,
			"-0.003": 30.8478004813,
			"-0.002": 22.577142228,
			"-0.001": 17.3807360874,
			"0.0": 11.2706447823,
			"0.001": 5.10158780879,
			"0.002": 3.83527227035,
			"0.003": 5.17985420205,
			"0.004": 4.80759705441,
			"0.005": 4.03995772604,
			"0.006": 2.84684722798,
			"0.007": 3.14432082646,
			"0.008": 4.09260130784,
			"0.009": 4.93375869767,
			"0.01": 5.44491882787,
			"0.011": 10.9258817807,
			"0.012": 8.63345905723,
			"0.013": 0.99485439781,
			"0.014": 0.641829619485,
			"0.015": 0.590054924329,
			"0.016": 0.680347478818,
			"0.017": 0.628615705113,
			"0.018": 0.39751210924,
			"0.019": 0.234324605295,
			"0.02": 0.0,
			"0.021": 0.0,
			"0.022": 0.0,
			"0.023": 0.0,
			"0.024": 0.0,
			"0.025": 0.0
		}
	}
}
