{
	 "smiles": "CCCCCCCCCCCCCCCC(C)=C", 
	 "Tm": 282.15, 
	 "num_atms": 54, 
	 "gaussian": { 
		 "optdone": 1, 
		 "sigma_profile": "yes", 
		 "theory": "DFT", 
		 "functional": "B3LYP", 
		 "basiset": "6-31G**", 
		 "properties": { 
			 "R2extent": 11333.2117, 
			 "electric_dipole_moment_norm": 0.549304223541, 
			 "electric_quadrupole_moment_norm": 3.29046087957, 
			 "total_energy": -707.634712265, 
			 "HOMO_LUMO_gap": 0.26242, 
			 "cosmo_polarized_energy": -2.22, 
			 "cosmo_cavitation_energy": 51.51, 
			 "cosmo_dispersion_energy": -34.39, 
			 "cosmo_repulsion_energy": 2.76, 
			 "cosmo_total_nonelectrostatic_energy": 19.88, 
			 "SMD_solvation_energy": 7.51 
		},
		"coords": [
			{
				"x": -1.5881749155,
				"y": -5.8109884265,
				"z": 1.9118376665,
				"element": "C" 
			},
			{
				"x": -0.9071871917,
				"y": -6.1817258886,
				"z": 0.587278633,
				"element": "C" 
			},
			{
				"x": -0.6174831486,
				"y": -4.9928266328,
				"z": -0.3568725172,
				"element": "C" 
			},
			{
				"x": 0.7680701054,
				"y": -4.3349026761,
				"z": -0.2177348462,
				"element": "C" 
			},
			{
				"x": 1.0640611739,
				"y": -3.6680680478,
				"z": 1.1333699183,
				"element": "C" 
			},
			{
				"x": 2.4384353042,
				"y": -2.9771125585,
				"z": 1.2106372368,
				"element": "C" 
			},
			{
				"x": 2.6511506489,
				"y": -1.7813533992,
				"z": 0.2623198446,
				"element": "C" 
			},
			{
				"x": 1.682094925,
				"y": -0.5972443819,
				"z": 0.4373479028,
				"element": "C" 
			},
			{
				"x": 1.7764102088,
				"y": 0.1011503186,
				"z": 1.8014158368,
				"element": "C" 
			},
			{
				"x": 0.8112564886,
				"y": 1.2828319308,
				"z": 2.0114527359,
				"element": "C" 
			},
			{
				"x": 1.0272825171,
				"y": 2.4921445263,
				"z": 1.0703217543,
				"element": "C" 
			},
			{
				"x": 0.1298666695,
				"y": 2.5386250346,
				"z": -0.1824188621,
				"element": "C" 
			},
			{
				"x": -1.3353085964,
				"y": 2.8895716583,
				"z": 0.1188274275,
				"element": "C" 
			},
			{
				"x": -2.264281884,
				"y": 2.8681822639,
				"z": -1.1060578207,
				"element": "C" 
			},
			{
				"x": -1.9919613885,
				"y": 3.9309469416,
				"z": -2.197148591,
				"element": "C" 
			},
			{
				"x": -2.1709095786,
				"y": 5.3699434456,
				"z": -1.7355025529,
				"element": "C" 
			},
			{
				"x": -0.9226249317,
				"y": 6.1440436639,
				"z": -1.3874884823,
				"element": "C" 
			},
			{
				"x": -3.3850970186,
				"y": 5.9245535457,
				"z": -1.6518714321,
				"element": "C" 
			},
			{
				"x": -0.9834652185,
				"y": -5.12551888,
				"z": 2.5124653222,
				"element": "H" 
			},
			{
				"x": -2.5523488528,
				"y": -5.3225448818,
				"z": 1.7290448835,
				"element": "H" 
			},
			{
				"x": -1.7798905654,
				"y": -6.7024699416,
				"z": 2.5190325626,
				"element": "H" 
			},
			{
				"x": -1.5540737893,
				"y": -6.8969770485,
				"z": 0.0639055788,
				"element": "H" 
			},
			{
				"x": 0.0281717047,
				"y": -6.7219136773,
				"z": 0.7890641684,
				"element": "H" 
			},
			{
				"x": -1.3988405039,
				"y": -4.2299169417,
				"z": -0.2290179944,
				"element": "H" 
			},
			{
				"x": -0.7091923111,
				"y": -5.3391392754,
				"z": -1.3941145151,
				"element": "H" 
			},
			{
				"x": 0.8669479901,
				"y": -3.5904046009,
				"z": -1.0181548417,
				"element": "H" 
			},
			{
				"x": 1.5413592985,
				"y": -5.0918016791,
				"z": -0.415736837,
				"element": "H" 
			},
			{
				"x": 0.268353941,
				"y": -2.9471406719,
				"z": 1.3663264449,
				"element": "H" 
			},
			{
				"x": 1.0248548524,
				"y": -4.4240344514,
				"z": 1.9267828427,
				"element": "H" 
			},
			{
				"x": 2.6091187094,
				"y": -2.6544031917,
				"z": 2.245338683,
				"element": "H" 
			},
			{
				"x": 3.218399184,
				"y": -3.7223706996,
				"z": 1.0017391567,
				"element": "H" 
			},
			{
				"x": 3.6788708077,
				"y": -1.4167243101,
				"z": 0.3972530403,
				"element": "H" 
			},
			{
				"x": 2.5956457605,
				"y": -2.1272179898,
				"z": -0.7774859614,
				"element": "H" 
			},
			{
				"x": 1.8929453218,
				"y": 0.1290738228,
				"z": -0.3571853559,
				"element": "H" 
			},
			{
				"x": 0.648613528,
				"y": -0.9313034834,
				"z": 0.2709238407,
				"element": "H" 
			},
			{
				"x": 1.5933630075,
				"y": -0.631325603,
				"z": 2.597972495,
				"element": "H" 
			},
			{
				"x": 2.8077752679,
				"y": 0.4543657918,
				"z": 1.9488509092,
				"element": "H" 
			},
			{
				"x": 0.9205179695,
				"y": 1.6167249663,
				"z": 3.0506301255,
				"element": "H" 
			},
			{
				"x": -0.2230331879,
				"y": 0.9227669546,
				"z": 1.926844363,
				"element": "H" 
			},
			{
				"x": 0.8660626973,
				"y": 3.4210153807,
				"z": 1.6335948618,
				"element": "H" 
			},
			{
				"x": 2.0808999673,
				"y": 2.5157278583,
				"z": 0.7608926108,
				"element": "H" 
			},
			{
				"x": 0.1670111889,
				"y": 1.5755494766,
				"z": -0.7077679997,
				"element": "H" 
			},
			{
				"x": 0.5453197746,
				"y": 3.2779391099,
				"z": -0.8790101566,
				"element": "H" 
			},
			{
				"x": -1.3844518756,
				"y": 3.874740506,
				"z": 0.6021481748,
				"element": "H" 
			},
			{
				"x": -1.7325540746,
				"y": 2.1790870527,
				"z": 0.8551950455,
				"element": "H" 
			},
			{
				"x": -3.2992046146,
				"y": 2.9932588471,
				"z": -0.7648065449,
				"element": "H" 
			},
			{
				"x": -2.211528496,
				"y": 1.8753838426,
				"z": -1.5744840084,
				"element": "H" 
			},
			{
				"x": -2.6817768017,
				"y": 3.7353350985,
				"z": -3.0266515005,
				"element": "H" 
			},
			{
				"x": -0.9818281936,
				"y": 3.7951811247,
				"z": -2.6025446111,
				"element": "H" 
			},
			{
				"x": -0.3427063759,
				"y": 5.6446631831,
				"z": -0.6019028347,
				"element": "H" 
			},
			{
				"x": -0.2593811244,
				"y": 6.2218108567,
				"z": -2.2592102927,
				"element": "H" 
			},
			{
				"x": -1.1549853555,
				"y": 7.1570293602,
				"z": -1.0470172618,
				"element": "H" 
			},
			{
				"x": -3.5260804695,
				"y": 6.9453074393,
				"z": -1.3070224689,
				"element": "H" 
			},
			{
				"x": -4.283288548,
				"y": 5.3762753375,
				"z": -1.9257057772,
				"element": "H" 
			}
		],
		 "valence_orbital": [ 
			{
				"type": "occ",
				"energy": -0.30116,
				"method": "rhf"
			},
			{
				"type": "occ",
				"energy": -0.29969,
				"method": "rhf"
			},
			{
				"type": "occ",
				"energy": -0.29594,
				"method": "rhf"
			},
			{
				"type": "occ",
				"energy": -0.29121,
				"method": "rhf"
			},
			{
				"type": "occ",
				"energy": -0.23634,
				"method": "rhf"
			},
			{
				"type": "unocc",
				"energy": 0.02608,
				"method": "rhf"
			},
			{
				"type": "unocc",
				"energy": 0.07465,
				"method": "rhf"
			},
			{
				"type": "unocc",
				"energy": 0.08313,
				"method": "rhf"
			},
			{
				"type": "unocc",
				"energy": 0.09867,
				"method": "rhf"
			},
			{
				"type": "unocc",
				"energy": 0.1027,
				"method": "rhf"
			}
		],
		"cosmo_sigma_profile": { 
			"-0.025": 0.0,
			"-0.024": 0.0,
			"-0.023": 0.0,
			"-0.022": 0.0,
			"-0.021": 0.0,
			"-0.02": 0.0,
			"-0.019": 0.0,
			"-0.018": 0.0,
			"-0.017": 0.0,
			"-0.016": 0.0,
			"-0.015": 0.0,
			"-0.014": 0.0,
			"-0.013": 0.0,
			"-0.012": 0.0,
			"-0.011": 0.0,
			"-0.01": 0.0,
			"-0.009": 0.0,
			"-0.008": 0.0,
			"-0.007": 0.0,
			"-0.006": 0.0,
			"-0.005": 0.0056048774695,
			"-0.004": 2.72914662179,
			"-0.003": 13.0028609986,
			"-0.002": 52.0107603919,
			"-0.001": 89.15407126,
			"0.0": 100.997349989,
			"0.001": 82.6233328368,
			"0.002": 34.9661723826,
			"0.003": 5.64149517315,
			"0.004": 4.09818125089,
			"0.005": 2.9976504284,
			"0.006": 3.16207197941,
			"0.007": 2.22248840856,
			"0.008": 0.905552172232,
			"0.009": 0.0,
			"0.01": 0.0,
			"0.011": 0.0,
			"0.012": 0.0,
			"0.013": 0.0,
			"0.014": 0.0,
			"0.015": 0.0,
			"0.016": 0.0,
			"0.017": 0.0,
			"0.018": 0.0,
			"0.019": 0.0,
			"0.02": 0.0,
			"0.021": 0.0,
			"0.022": 0.0,
			"0.023": 0.0,
			"0.024": 0.0,
			"0.025": 0.0
		}
	}
}
