{
	 "smiles": "OC1=CC2=C(C=C1O)C1C3=C(OCC1(O)C2)C(O)=C(O)C=C3", 
	 "Tm": 413.15, 
	 "num_atms": 36, 
	 "gaussian": { 
		 "optdone": 1, 
		 "sigma_profile": "yes", 
		 "theory": "DFT", 
		 "functional": "B3LYP", 
		 "basiset": "6-31G**", 
		 "properties": { 
			 "R2extent": 7491.381, 
			 "electric_dipole_moment_norm": 5.48853577651, 
			 "electric_quadrupole_moment_norm": 18.8980997926, 
			 "total_energy": -1069.46145504, 
			 "HOMO_LUMO_gap": 0.19617, 
			 "cosmo_polarized_energy": -22.94, 
			 "cosmo_cavitation_energy": 38.23, 
			 "cosmo_dispersion_energy": -28.17, 
			 "cosmo_repulsion_energy": 2.12, 
			 "cosmo_total_nonelectrostatic_energy": 12.18, 
			 "SMD_solvation_energy": 6.99 
		},
		"coords": [
			{
				"x": 1.6980658836,
				"y": -1.8068397316,
				"z": -5.1935626189,
				"element": "O" 
			},
			{
				"x": 1.169801687,
				"y": -1.6501490033,
				"z": -3.9298914791,
				"element": "C" 
			},
			{
				"x": -0.1626650358,
				"y": -1.8811002049,
				"z": -3.5991458453,
				"element": "C" 
			},
			{
				"x": -0.5708023389,
				"y": -1.6930612717,
				"z": -2.2774324479,
				"element": "C" 
			},
			{
				"x": 0.3420195416,
				"y": -1.2755339396,
				"z": -1.3058334707,
				"element": "C" 
			},
			{
				"x": 1.680225352,
				"y": -1.0562173864,
				"z": -1.6343804345,
				"element": "C" 
			},
			{
				"x": 2.0967041538,
				"y": -1.2416938659,
				"z": -2.9515827823,
				"element": "C" 
			},
			{
				"x": 3.4023015561,
				"y": -1.0377478618,
				"z": -3.2881526478,
				"element": "O" 
			},
			{
				"x": -0.3407709244,
				"y": -1.124157173,
				"z": 0.0473272588,
				"element": "C" 
			},
			{
				"x": -0.61277562,
				"y": 0.3283865523,
				"z": 0.438578913,
				"element": "C" 
			},
			{
				"x": -1.9229545368,
				"y": 0.7941670123,
				"z": 0.5915611101,
				"element": "C" 
			},
			{
				"x": -3.043124086,
				"y": -0.0027050364,
				"z": 0.4323038637,
				"element": "O" 
			},
			{
				"x": -2.7961082345,
				"y": -1.383399801,
				"z": 0.7086637192,
				"element": "C" 
			},
			{
				"x": -1.6554108266,
				"y": -1.9340589449,
				"z": -0.1487450354,
				"element": "C" 
			},
			{
				"x": -1.3662121452,
				"y": -3.2632537216,
				"z": 0.2836284684,
				"element": "O" 
			},
			{
				"x": -1.9408419525,
				"y": -1.8794050106,
				"z": -1.6724398496,
				"element": "C" 
			},
			{
				"x": -2.1962831078,
				"y": 2.1234392626,
				"z": 0.9214795354,
				"element": "C" 
			},
			{
				"x": -3.4803597919,
				"y": 2.5828868889,
				"z": 1.0789452727,
				"element": "O" 
			},
			{
				"x": -1.1489745628,
				"y": 3.0282842297,
				"z": 1.1103412046,
				"element": "C" 
			},
			{
				"x": -1.4101999798,
				"y": 4.325852989,
				"z": 1.4386463442,
				"element": "O" 
			},
			{
				"x": 0.1674670656,
				"y": 2.5816007468,
				"z": 0.9764941328,
				"element": "C" 
			},
			{
				"x": 0.4217630576,
				"y": 1.251267416,
				"z": 0.648051821,
				"element": "C" 
			},
			{
				"x": 1.0046481338,
				"y": -2.0803071596,
				"z": -5.8059137905,
				"element": "H" 
			},
			{
				"x": -0.8633634293,
				"y": -2.2095648545,
				"z": -4.3649547187,
				"element": "H" 
			},
			{
				"x": 2.4192124116,
				"y": -0.7561658281,
				"z": -0.8986577634,
				"element": "H" 
			},
			{
				"x": 3.4897208803,
				"y": -1.2206617538,
				"z": -4.2355182186,
				"element": "H" 
			},
			{
				"x": 0.2389397271,
				"y": -1.61012817,
				"z": 0.8415337113,
				"element": "H" 
			},
			{
				"x": -3.7349207935,
				"y": -1.9057112566,
				"z": 0.4976113096,
				"element": "H" 
			},
			{
				"x": -2.5446094049,
				"y": -1.5189582587,
				"z": 1.7688532243,
				"element": "H" 
			},
			{
				"x": -2.0623679949,
				"y": -3.8467076377,
				"z": -0.0471457559,
				"element": "H" 
			},
			{
				"x": -2.4526864526,
				"y": -2.7907646178,
				"z": -2.0102014138,
				"element": "H" 
			},
			{
				"x": -2.603986859,
				"y": -1.0353223965,
				"z": -1.9034614112,
				"element": "H" 
			},
			{
				"x": -4.0688885133,
				"y": 1.8203901262,
				"z": 0.9716774564,
				"element": "H" 
			},
			{
				"x": -2.3726262138,
				"y": 4.4238424225,
				"z": 1.4917579289,
				"element": "H" 
			},
			{
				"x": 0.9758531216,
				"y": 3.2873894155,
				"z": 1.1336862454,
				"element": "H" 
			},
			{
				"x": 1.4515102329,
				"y": 0.9251078243,
				"z": 0.5429781639,
				"element": "H" 
			}
		],
		 "valence_orbital": [ 
			{
				"type": "occ",
				"energy": -0.27433,
				"method": "rhf"
			},
			{
				"type": "occ",
				"energy": -0.23591,
				"method": "rhf"
			},
			{
				"type": "occ",
				"energy": -0.21371,
				"method": "rhf"
			},
			{
				"type": "occ",
				"energy": -0.20236,
				"method": "rhf"
			},
			{
				"type": "occ",
				"energy": -0.19807,
				"method": "rhf"
			},
			{
				"type": "unocc",
				"energy": -0.0019,
				"method": "rhf"
			},
			{
				"type": "unocc",
				"energy": 0.01404,
				"method": "rhf"
			},
			{
				"type": "unocc",
				"energy": 0.02021,
				"method": "rhf"
			},
			{
				"type": "unocc",
				"energy": 0.02972,
				"method": "rhf"
			},
			{
				"type": "unocc",
				"energy": 0.05364,
				"method": "rhf"
			}
		],
		"cosmo_sigma_profile": { 
			"-0.025": 0.0,
			"-0.024": 0.0,
			"-0.023": 0.0,
			"-0.022": 0.0,
			"-0.021": 0.0,
			"-0.02": 0.0,
			"-0.019": 0.0,
			"-0.018": 0.547463540876,
			"-0.017": 1.54329989247,
			"-0.016": 0.777138466947,
			"-0.015": 2.7790775947,
			"-0.014": 3.94115197075,
			"-0.013": 4.28715112882,
			"-0.012": 4.32146548374,
			"-0.011": 3.59709296436,
			"-0.01": 3.31559076003,
			"-0.009": 4.13760205006,
			"-0.008": 4.75278603814,
			"-0.007": 6.04274256287,
			"-0.006": 12.1051254117,
			"-0.005": 14.8333682079,
			"-0.004": 17.1650055816,
			"-0.003": 19.3765630104,
			"-0.002": 18.0884407769,
			"-0.001": 14.9819669215,
			"0.0": 13.90664544,
			"0.001": 15.3169533226,
			"0.002": 17.0163171684,
			"0.003": 20.7331523775,
			"0.004": 21.2555604595,
			"0.005": 21.5464906527,
			"0.006": 18.7974401494,
			"0.007": 9.6421134361,
			"0.008": 6.5731562939,
			"0.009": 4.68056749893,
			"0.01": 5.09435337463,
			"0.011": 5.04294178142,
			"0.012": 4.04861707413,
			"0.013": 1.734831826,
			"0.014": 0.265052593987,
			"0.015": 0.0,
			"0.016": 0.0,
			"0.017": 0.0,
			"0.018": 0.0,
			"0.019": 0.0,
			"0.02": 0.0,
			"0.021": 0.0,
			"0.022": 0.0,
			"0.023": 0.0,
			"0.024": 0.0,
			"0.025": 0.0
		}
	}
}
