{
	 "smiles": "ClC1=CC2=C(OC(=O)C=C2)C=C1", 
	 "Tm": 438.15, 
	 "num_atms": 17, 
	 "gaussian": { 
		 "optdone": 1, 
		 "sigma_profile": "yes", 
		 "theory": "DFT", 
		 "functional": "B3LYP", 
		 "basiset": "6-31G**", 
		 "properties": { 
			 "R2extent": 3320.9163, 
			 "electric_dipole_moment_norm": 2.88358703007, 
			 "electric_quadrupole_moment_norm": 15.9114971297, 
			 "total_energy": -956.612350229, 
			 "HOMO_LUMO_gap": 0.16356, 
			 "cosmo_polarized_energy": -10.6, 
			 "cosmo_cavitation_energy": 23.79, 
			 "cosmo_dispersion_energy": -18.02, 
			 "cosmo_repulsion_energy": 1.41, 
			 "cosmo_total_nonelectrostatic_energy": 7.19, 
			 "SMD_solvation_energy": 4.96 
		},
		"coords": [
			{
				"x": -3.2633451885,
				"y": 1.4789798719,
				"z": 3.6650983589,
				"element": "Cl" 
			},
			{
				"x": -2.4924795157,
				"y": 0.7779639664,
				"z": 2.2514984927,
				"element": "C" 
			},
			{
				"x": -1.1094058162,
				"y": 0.7785587585,
				"z": 2.1540457893,
				"element": "C" 
			},
			{
				"x": -0.4913912554,
				"y": 0.217296861,
				"z": 1.0221153882,
				"element": "C" 
			},
			{
				"x": -1.2976203761,
				"y": -0.3352986193,
				"z": 0.0085257776,
				"element": "C" 
			},
			{
				"x": -0.7540601824,
				"y": -0.8923221517,
				"z": -1.1098878295,
				"element": "O" 
			},
			{
				"x": 0.6252209518,
				"y": -0.9553533353,
				"z": -1.3307177916,
				"element": "C" 
			},
			{
				"x": 1.0112942086,
				"y": -1.4683492417,
				"z": -2.3527061646,
				"element": "O" 
			},
			{
				"x": 1.4662337596,
				"y": -0.3830510854,
				"z": -0.2812965313,
				"element": "C" 
			},
			{
				"x": 0.9383107657,
				"y": 0.1717848631,
				"z": 0.8319074342,
				"element": "C" 
			},
			{
				"x": -2.6904572547,
				"y": -0.3313156753,
				"z": 0.1155730303,
				"element": "C" 
			},
			{
				"x": -3.2896453449,
				"y": 0.2261520764,
				"z": 1.238780792,
				"element": "C" 
			},
			{
				"x": -0.5021614359,
				"y": 1.2082931817,
				"z": 2.9436466226,
				"element": "H" 
			},
			{
				"x": 2.5336388126,
				"y": -0.4353669519,
				"z": -0.4588845577,
				"element": "H" 
			},
			{
				"x": 1.5819755262,
				"y": 0.5919983509,
				"z": 1.6005618383,
				"element": "H" 
			},
			{
				"x": -3.2822204476,
				"y": -0.7650354977,
				"z": -0.6828813156,
				"element": "H" 
			},
			{
				"x": -4.3692872071,
				"y": 0.2368646284,
				"z": 1.3365206663,
				"element": "H" 
			}
		],
		 "valence_orbital": [ 
			{
				"type": "occ",
				"energy": -0.32581,
				"method": "rhf"
			},
			{
				"type": "occ",
				"energy": -0.3152,
				"method": "rhf"
			},
			{
				"type": "occ",
				"energy": -0.28213,
				"method": "rhf"
			},
			{
				"type": "occ",
				"energy": -0.26863,
				"method": "rhf"
			},
			{
				"type": "occ",
				"energy": -0.24315,
				"method": "rhf"
			},
			{
				"type": "unocc",
				"energy": -0.07959,
				"method": "rhf"
			},
			{
				"type": "unocc",
				"energy": -0.02718,
				"method": "rhf"
			},
			{
				"type": "unocc",
				"energy": -0.01102,
				"method": "rhf"
			},
			{
				"type": "unocc",
				"energy": 0.01621,
				"method": "rhf"
			},
			{
				"type": "unocc",
				"energy": 0.07411,
				"method": "rhf"
			}
		],
		"cosmo_sigma_profile": { 
			"-0.025": 0.0,
			"-0.024": 0.0,
			"-0.023": 0.0,
			"-0.022": 0.0,
			"-0.021": 0.0,
			"-0.02": 0.0,
			"-0.019": 0.0,
			"-0.018": 0.0,
			"-0.017": 0.0,
			"-0.016": 0.0,
			"-0.015": 0.0,
			"-0.014": 0.0,
			"-0.013": 0.0,
			"-0.012": 0.0,
			"-0.011": 0.0,
			"-0.01": 0.577706717139,
			"-0.009": 4.13615277413,
			"-0.008": 9.00417277073,
			"-0.007": 8.4139284927,
			"-0.006": 9.21775579636,
			"-0.005": 8.96079266301,
			"-0.004": 9.52983924657,
			"-0.003": 9.17106771191,
			"-0.002": 12.3087361059,
			"-0.001": 18.1708834621,
			"0.0": 20.1841320212,
			"0.001": 23.059608735,
			"0.002": 13.0224462115,
			"0.003": 8.75331803656,
			"0.004": 11.2767337514,
			"0.005": 5.8373481174,
			"0.006": 1.86927279362,
			"0.007": 2.09036447755,
			"0.008": 2.08126160624,
			"0.009": 2.71477787479,
			"0.01": 2.88425820222,
			"0.011": 4.28493569166,
			"0.012": 5.75490485623,
			"0.013": 1.45668546903,
			"0.014": 0.00149053909151,
			"0.015": 0.0,
			"0.016": 0.0,
			"0.017": 0.0,
			"0.018": 0.0,
			"0.019": 0.0,
			"0.02": 0.0,
			"0.021": 0.0,
			"0.022": 0.0,
			"0.023": 0.0,
			"0.024": 0.0,
			"0.025": 0.0
		}
	}
}
