{
	 "smiles": "OC(=O)C1=C(F)C=CC(Cl)=C1F", 
	 "Tm": 400.15, 
	 "num_atms": 15, 
	 "gaussian": { 
		 "optdone": 1, 
		 "sigma_profile": "yes", 
		 "theory": "DFT", 
		 "functional": "B3LYP", 
		 "basiset": "6-31G**", 
		 "properties": { 
			 "R2extent": 2735.4021, 
			 "electric_dipole_moment_norm": 4.5621788413, 
			 "electric_quadrupole_moment_norm": 12.4543225809, 
			 "total_energy": -1078.85669644, 
			 "HOMO_LUMO_gap": 0.19503, 
			 "cosmo_polarized_energy": -12.2, 
			 "cosmo_cavitation_energy": 22.59, 
			 "cosmo_dispersion_energy": -17.03, 
			 "cosmo_repulsion_energy": 1.31, 
			 "cosmo_total_nonelectrostatic_energy": 6.88, 
			 "SMD_solvation_energy": 5.64 
		},
		"coords": [
			{
				"x": 0.8603950465,
				"y": 0.3062522759,
				"z": -2.7720170542,
				"element": "O" 
			},
			{
				"x": 1.3510495479,
				"y": 0.2150557938,
				"z": -1.5188337165,
				"element": "C" 
			},
			{
				"x": 2.4419426993,
				"y": -0.261689937,
				"z": -1.3277397529,
				"element": "O" 
			},
			{
				"x": 0.4834327449,
				"y": 0.7297091333,
				"z": -0.3868499286,
				"element": "C" 
			},
			{
				"x": 0.9430709891,
				"y": 0.6604397479,
				"z": 0.9444597545,
				"element": "C" 
			},
			{
				"x": 2.1389485518,
				"y": 0.1444119892,
				"z": 1.2209601496,
				"element": "F" 
			},
			{
				"x": 0.1901552043,
				"y": 1.117191104,
				"z": 2.0220118874,
				"element": "C" 
			},
			{
				"x": -1.0675297766,
				"y": 1.6677277545,
				"z": 1.8057702295,
				"element": "C" 
			},
			{
				"x": -1.5689149274,
				"y": 1.759568876,
				"z": 0.5082988642,
				"element": "C" 
			},
			{
				"x": -3.141354003,
				"y": 2.4438931692,
				"z": 0.1999441487,
				"element": "Cl" 
			},
			{
				"x": -0.7925231109,
				"y": 1.2941994098,
				"z": -0.5494104997,
				"element": "C" 
			},
			{
				"x": -1.3210225822,
				"y": 1.403773389,
				"z": -1.7955385622,
				"element": "F" 
			},
			{
				"x": -0.0213834003,
				"y": 0.7068757055,
				"z": -2.7826806429,
				"element": "H" 
			},
			{
				"x": 0.6063398828,
				"y": 1.032524385,
				"z": 3.0190321591,
				"element": "H" 
			},
			{
				"x": -1.6657068663,
				"y": 2.027767204,
				"z": 2.6349929642,
				"element": "H" 
			}
		],
		 "valence_orbital": [ 
			{
				"type": "occ",
				"energy": -0.34206,
				"method": "rhf"
			},
			{
				"type": "occ",
				"energy": -0.32147,
				"method": "rhf"
			},
			{
				"type": "occ",
				"energy": -0.2961,
				"method": "rhf"
			},
			{
				"type": "occ",
				"energy": -0.28042,
				"method": "rhf"
			},
			{
				"type": "occ",
				"energy": -0.26916,
				"method": "rhf"
			},
			{
				"type": "unocc",
				"energy": -0.07413,
				"method": "rhf"
			},
			{
				"type": "unocc",
				"energy": -0.03744,
				"method": "rhf"
			},
			{
				"type": "unocc",
				"energy": -0.00675,
				"method": "rhf"
			},
			{
				"type": "unocc",
				"energy": 0.03207,
				"method": "rhf"
			},
			{
				"type": "unocc",
				"energy": 0.07457,
				"method": "rhf"
			}
		],
		"cosmo_sigma_profile": { 
			"-0.025": 0.0,
			"-0.024": 0.0,
			"-0.023": 0.0,
			"-0.022": 0.0,
			"-0.021": 0.0,
			"-0.02": 0.0,
			"-0.019": 0.0,
			"-0.018": 0.0,
			"-0.017": 0.0,
			"-0.016": 0.0,
			"-0.015": 0.0,
			"-0.014": 0.0990281663701,
			"-0.013": 0.794653594166,
			"-0.012": 1.01226371514,
			"-0.011": 1.70813431627,
			"-0.01": 2.53495009998,
			"-0.009": 4.81758652208,
			"-0.008": 6.0814902607,
			"-0.007": 5.99994761045,
			"-0.006": 5.3892780486,
			"-0.005": 6.08616044123,
			"-0.004": 9.90959122989,
			"-0.003": 14.978017676,
			"-0.002": 17.4087835513,
			"-0.001": 16.1661553829,
			"0.0": 13.6842932464,
			"0.001": 10.7847133639,
			"0.002": 11.1599805701,
			"0.003": 18.1182147723,
			"0.004": 8.0371407612,
			"0.005": 2.78050200505,
			"0.006": 1.82833541918,
			"0.007": 3.62654103549,
			"0.008": 2.73331922533,
			"0.009": 3.80791009829,
			"0.01": 5.26517436541,
			"0.011": 6.67321646179,
			"0.012": 3.35314763561,
			"0.013": 0.58100640986,
			"0.014": 0.0,
			"0.015": 0.0,
			"0.016": 0.0,
			"0.017": 0.0,
			"0.018": 0.0,
			"0.019": 0.0,
			"0.02": 0.0,
			"0.021": 0.0,
			"0.022": 0.0,
			"0.023": 0.0,
			"0.024": 0.0,
			"0.025": 0.0
		}
	}
}
