{
	 "smiles": "COC1=C(OC)C=C(C(C)=O)C(N)=C1", 
	 "Tm": 379.15, 
	 "num_atms": 27, 
	 "gaussian": { 
		 "optdone": 1, 
		 "sigma_profile": "yes", 
		 "theory": "DFT", 
		 "functional": "B3LYP", 
		 "basiset": "6-31G**", 
		 "properties": { 
			 "R2extent": 3986.0983, 
			 "electric_dipole_moment_norm": 2.12581772972, 
			 "electric_quadrupole_moment_norm": 10.9145939123, 
			 "total_energy": -669.303436656, 
			 "HOMO_LUMO_gap": 0.15235, 
			 "cosmo_polarized_energy": -10.87, 
			 "cosmo_cavitation_energy": 30.05, 
			 "cosmo_dispersion_energy": -21.81, 
			 "cosmo_repulsion_energy": 1.73, 
			 "cosmo_total_nonelectrostatic_energy": 9.97, 
			 "SMD_solvation_energy": 7.08 
		},
		"coords": [
			{
				"x": -3.124140145,
				"y": -0.5614213452,
				"z": -0.0507850547,
				"element": "C" 
			},
			{
				"x": -2.3419587486,
				"y": -0.8997485797,
				"z": -1.2048713995,
				"element": "O" 
			},
			{
				"x": -1.0943149679,
				"y": -0.3331662549,
				"z": -1.2643137956,
				"element": "C" 
			},
			{
				"x": -0.9162198078,
				"y": 1.0688325632,
				"z": -1.3699360884,
				"element": "C" 
			},
			{
				"x": -1.9951874798,
				"y": 1.9341273376,
				"z": -1.371297062,
				"element": "O" 
			},
			{
				"x": -2.7315746539,
				"y": 1.9465103514,
				"z": -2.5984173945,
				"element": "C" 
			},
			{
				"x": 0.3690272471,
				"y": 1.5691026343,
				"z": -1.4461586137,
				"element": "C" 
			},
			{
				"x": 1.5145181725,
				"y": 0.7423910882,
				"z": -1.43781802,
				"element": "C" 
			},
			{
				"x": 2.8641961772,
				"y": 1.3262128127,
				"z": -1.4894102709,
				"element": "C" 
			},
			{
				"x": 3.0206501854,
				"y": 2.8398844867,
				"z": -1.5504208834,
				"element": "C" 
			},
			{
				"x": 3.8891682801,
				"y": 0.6321234507,
				"z": -1.4800224752,
				"element": "O" 
			},
			{
				"x": 1.3239306948,
				"y": -0.675754798,
				"z": -1.3739138116,
				"element": "C" 
			},
			{
				"x": 2.3755938507,
				"y": -1.5376122007,
				"z": -1.4077612241,
				"element": "N" 
			},
			{
				"x": 0.0053315139,
				"y": -1.1749915108,
				"z": -1.2751251117,
				"element": "C" 
			},
			{
				"x": -3.2816512058,
				"y": 0.5175879655,
				"z": 0.0239821624,
				"element": "H" 
			},
			{
				"x": -4.0812193412,
				"y": -1.071469886,
				"z": -0.1755555101,
				"element": "H" 
			},
			{
				"x": -2.6366282413,
				"y": -0.9260279053,
				"z": 0.8618963159,
				"element": "H" 
			},
			{
				"x": -3.1469305635,
				"y": 0.9582939443,
				"z": -2.8246904517,
				"element": "H" 
			},
			{
				"x": -3.5448713591,
				"y": 2.663475849,
				"z": -2.4647778844,
				"element": "H" 
			},
			{
				"x": -2.095918221,
				"y": 2.2706543118,
				"z": -3.432449491,
				"element": "H" 
			},
			{
				"x": 0.4742695148,
				"y": 2.645954512,
				"z": -1.5131641336,
				"element": "H" 
			},
			{
				"x": 2.536521586,
				"y": 3.2560530095,
				"z": -2.4403159546,
				"element": "H" 
			},
			{
				"x": 4.086252871,
				"y": 3.068480699,
				"z": -1.5818054457,
				"element": "H" 
			},
			{
				"x": 2.5731570428,
				"y": 3.3236902339,
				"z": -0.6758213374,
				"element": "H" 
			},
			{
				"x": 3.3047927443,
				"y": -1.131818869,
				"z": -1.386043062,
				"element": "H" 
			},
			{
				"x": 2.2247954645,
				"y": -2.517327937,
				"z": -1.2363444617,
				"element": "H" 
			},
			{
				"x": -0.16819061,
				"y": -2.2447359629,
				"z": -1.2050595405,
				"element": "H" 
			}
		],
		 "valence_orbital": [ 
			{
				"type": "occ",
				"energy": -0.2869,
				"method": "rhf"
			},
			{
				"type": "occ",
				"energy": -0.26514,
				"method": "rhf"
			},
			{
				"type": "occ",
				"energy": -0.24275,
				"method": "rhf"
			},
			{
				"type": "occ",
				"energy": -0.24069,
				"method": "rhf"
			},
			{
				"type": "occ",
				"energy": -0.19637,
				"method": "rhf"
			},
			{
				"type": "unocc",
				"energy": -0.04402,
				"method": "rhf"
			},
			{
				"type": "unocc",
				"energy": 0.01514,
				"method": "rhf"
			},
			{
				"type": "unocc",
				"energy": 0.04863,
				"method": "rhf"
			},
			{
				"type": "unocc",
				"energy": 0.08501,
				"method": "rhf"
			},
			{
				"type": "unocc",
				"energy": 0.10033,
				"method": "rhf"
			}
		],
		"cosmo_sigma_profile": { 
			"-0.025": 0.0,
			"-0.024": 0.0,
			"-0.023": 0.0,
			"-0.022": 0.0,
			"-0.021": 0.0,
			"-0.02": 0.0,
			"-0.019": 0.0,
			"-0.018": 0.0,
			"-0.017": 0.0,
			"-0.016": 0.0,
			"-0.015": 0.0,
			"-0.014": 0.220705656499,
			"-0.013": 1.21692896444,
			"-0.012": 1.42005275801,
			"-0.011": 1.40742513942,
			"-0.01": 1.00069005002,
			"-0.009": 1.83987146686,
			"-0.008": 1.93491963588,
			"-0.007": 3.1820558664,
			"-0.006": 8.55997403502,
			"-0.005": 15.649684801,
			"-0.004": 19.6496211608,
			"-0.003": 26.1352690296,
			"-0.002": 22.5809648174,
			"-0.001": 20.3539046994,
			"0.0": 17.2669154772,
			"0.001": 12.0169448059,
			"0.002": 11.1970973039,
			"0.003": 17.7373064395,
			"0.004": 17.8755455297,
			"0.005": 6.13494079522,
			"0.006": 4.92925729563,
			"0.007": 4.31190909175,
			"0.008": 4.0786978871,
			"0.009": 3.99276987524,
			"0.01": 3.43789084454,
			"0.011": 3.77566928249,
			"0.012": 3.21652525724,
			"0.013": 1.65849815196,
			"0.014": 0.813692761819,
			"0.015": 0.0,
			"0.016": 0.0,
			"0.017": 0.0,
			"0.018": 0.0,
			"0.019": 0.0,
			"0.02": 0.0,
			"0.021": 0.0,
			"0.022": 0.0,
			"0.023": 0.0,
			"0.024": 0.0,
			"0.025": 0.0
		}
	}
}
