{
	 "smiles": "NC1=CC=CC2=C1C(=O)C1=CC=CC(Cl)=C1C2=O", 
	 "Tm": 480.15, 
	 "num_atms": 26, 
	 "gaussian": { 
		 "optdone": 1, 
		 "sigma_profile": "yes", 
		 "theory": "DFT", 
		 "functional": "B3LYP", 
		 "basiset": "6-31G**", 
		 "properties": { 
			 "R2extent": 6351.0792, 
			 "electric_dipole_moment_norm": 3.66107310771, 
			 "electric_quadrupole_moment_norm": 23.5682264668, 
			 "total_energy": -1203.72338829, 
			 "HOMO_LUMO_gap": 0.11501, 
			 "cosmo_polarized_energy": -12.95, 
			 "cosmo_cavitation_energy": 31.51, 
			 "cosmo_dispersion_energy": -24.08, 
			 "cosmo_repulsion_energy": 1.78, 
			 "cosmo_total_nonelectrostatic_energy": 9.21, 
			 "SMD_solvation_energy": 5.34 
		},
		"coords": [
			{
				"x": -2.1778497216,
				"y": -1.3824128546,
				"z": 0.2125515952,
				"element": "N" 
			},
			{
				"x": -0.8810535535,
				"y": -1.7598257809,
				"z": 0.0945746409,
				"element": "C" 
			},
			{
				"x": -0.4632014755,
				"y": -3.0219778763,
				"z": 0.5862538866,
				"element": "C" 
			},
			{
				"x": 0.8534432984,
				"y": -3.4276963118,
				"z": 0.4793378459,
				"element": "C" 
			},
			{
				"x": 1.8150894586,
				"y": -2.6019618996,
				"z": -0.1190152393,
				"element": "C" 
			},
			{
				"x": 1.437844114,
				"y": -1.3589900024,
				"z": -0.6116026976,
				"element": "C" 
			},
			{
				"x": 0.0952059121,
				"y": -0.9120512554,
				"z": -0.518460527,
				"element": "C" 
			},
			{
				"x": -0.2741501362,
				"y": 0.3968304843,
				"z": -1.0456178208,
				"element": "C" 
			},
			{
				"x": -1.4334058477,
				"y": 0.8408505723,
				"z": -0.9926255174,
				"element": "O" 
			},
			{
				"x": 0.7879027226,
				"y": 1.2452806378,
				"z": -1.6800321067,
				"element": "C" 
			},
			{
				"x": 0.3841811851,
				"y": 2.4892289148,
				"z": -2.170604088,
				"element": "C" 
			},
			{
				"x": 1.3079636308,
				"y": 3.3352760574,
				"z": -2.7735700466,
				"element": "C" 
			},
			{
				"x": 2.637812605,
				"y": 2.9405151782,
				"z": -2.8880656684,
				"element": "C" 
			},
			{
				"x": 3.0508001321,
				"y": 1.6978307628,
				"z": -2.3999245991,
				"element": "C" 
			},
			{
				"x": 4.7499638141,
				"y": 1.3362356341,
				"z": -2.6135986951,
				"element": "Cl" 
			},
			{
				"x": 2.1347751393,
				"y": 0.8183960042,
				"z": -1.782883839,
				"element": "C" 
			},
			{
				"x": 2.5135632195,
				"y": -0.5234132032,
				"z": -1.2398429618,
				"element": "C" 
			},
			{
				"x": 3.6589878475,
				"y": -0.9510760154,
				"z": -1.2932951642,
				"element": "O" 
			},
			{
				"x": -2.8478442726,
				"y": -1.9991174087,
				"z": 0.6400526034,
				"element": "H" 
			},
			{
				"x": -2.4422309802,
				"y": -0.4755429482,
				"z": -0.1548854542,
				"element": "H" 
			},
			{
				"x": -1.2016692473,
				"y": -3.6693055101,
				"z": 1.0524139979,
				"element": "H" 
			},
			{
				"x": 1.1439136857,
				"y": -4.4006608823,
				"z": 0.8655369612,
				"element": "H" 
			},
			{
				"x": 2.8507605526,
				"y": -2.9056137661,
				"z": -0.2096503427,
				"element": "H" 
			},
			{
				"x": -0.658516214,
				"y": 2.7643311981,
				"z": -2.0649731132,
				"element": "H" 
			},
			{
				"x": 0.9992275664,
				"y": 4.3032761291,
				"z": -3.1565374827,
				"element": "H" 
			},
			{
				"x": 3.3709865651,
				"y": 3.5880941418,
				"z": -3.3557361673,
				"element": "H" 
			}
		],
		 "valence_orbital": [ 
			{
				"type": "occ",
				"energy": -0.26727,
				"method": "rhf"
			},
			{
				"type": "occ",
				"energy": -0.26721,
				"method": "rhf"
			},
			{
				"type": "occ",
				"energy": -0.25438,
				"method": "rhf"
			},
			{
				"type": "occ",
				"energy": -0.24703,
				"method": "rhf"
			},
			{
				"type": "occ",
				"energy": -0.21548,
				"method": "rhf"
			},
			{
				"type": "unocc",
				"energy": -0.10047,
				"method": "rhf"
			},
			{
				"type": "unocc",
				"energy": -0.05243,
				"method": "rhf"
			},
			{
				"type": "unocc",
				"energy": -0.02405,
				"method": "rhf"
			},
			{
				"type": "unocc",
				"energy": -0.00171,
				"method": "rhf"
			},
			{
				"type": "unocc",
				"energy": 0.03181,
				"method": "rhf"
			}
		],
		"cosmo_sigma_profile": { 
			"-0.025": 0.0,
			"-0.024": 0.0,
			"-0.023": 0.0,
			"-0.022": 0.0,
			"-0.021": 0.0,
			"-0.02": 0.0,
			"-0.019": 0.0,
			"-0.018": 0.0,
			"-0.017": 0.0,
			"-0.016": 0.0,
			"-0.015": 0.0947821389302,
			"-0.014": 1.31638034916,
			"-0.013": 1.39549838972,
			"-0.012": 1.43746564031,
			"-0.011": 1.43190349678,
			"-0.01": 1.56173903915,
			"-0.009": 2.18736679147,
			"-0.008": 5.08533276183,
			"-0.007": 9.37442645835,
			"-0.006": 10.8759155696,
			"-0.005": 12.9680438998,
			"-0.004": 12.8016326904,
			"-0.003": 13.7844831446,
			"-0.002": 13.8698360253,
			"-0.001": 17.5976508593,
			"0.0": 24.7763597343,
			"0.001": 29.9373683809,
			"0.002": 28.0004045771,
			"0.003": 20.699093386,
			"0.004": 13.2591423207,
			"0.005": 7.64217002713,
			"0.006": 3.67133203995,
			"0.007": 3.61276102517,
			"0.008": 3.02411421431,
			"0.009": 4.07592585339,
			"0.01": 4.06494472653,
			"0.011": 5.2625257925,
			"0.012": 2.8723330973,
			"0.013": 0.0,
			"0.014": 0.0,
			"0.015": 0.0,
			"0.016": 0.0,
			"0.017": 0.0,
			"0.018": 0.0,
			"0.019": 0.0,
			"0.02": 0.0,
			"0.021": 0.0,
			"0.022": 0.0,
			"0.023": 0.0,
			"0.024": 0.0,
			"0.025": 0.0
		}
	}
}
