{
	 "smiles": "COC1=CC=C(C=N1)C#N", 
	 "Tm": 367.65, 
	 "num_atms": 16, 
	 "gaussian": { 
		 "optdone": 1, 
		 "sigma_profile": "yes", 
		 "theory": "DFT", 
		 "functional": "B3LYP", 
		 "basiset": "6-31G**", 
		 "properties": { 
			 "R2extent": 1731.407, 
			 "electric_dipole_moment_norm": 4.46322688422, 
			 "electric_quadrupole_moment_norm": 13.2717938143, 
			 "total_energy": -455.06259668, 
			 "HOMO_LUMO_gap": 0.20182, 
			 "cosmo_polarized_energy": -9.6, 
			 "cosmo_cavitation_energy": 21.74, 
			 "cosmo_dispersion_energy": -15.63, 
			 "cosmo_repulsion_energy": 1.28, 
			 "cosmo_total_nonelectrostatic_energy": 7.39, 
			 "SMD_solvation_energy": 5.32 
		},
		"coords": [
			{
				"x": 2.4157838767,
				"y": -1.8603350361,
				"z": -0.9134653148,
				"element": "C" 
			},
			{
				"x": 2.3969671055,
				"y": -0.7992899692,
				"z": 0.0511857955,
				"element": "O" 
			},
			{
				"x": 1.2177789957,
				"y": -0.2073401728,
				"z": 0.29962931,
				"element": "C" 
			},
			{
				"x": 1.2187194056,
				"y": 0.8342812443,
				"z": 1.2513878112,
				"element": "C" 
			},
			{
				"x": 0.0209613162,
				"y": 1.4604124486,
				"z": 1.526487451,
				"element": "C" 
			},
			{
				"x": -1.146957154,
				"y": 1.0395734724,
				"z": 0.8525487005,
				"element": "C" 
			},
			{
				"x": -1.0278736833,
				"y": -0.0050599228,
				"z": -0.072237769,
				"element": "C" 
			},
			{
				"x": 0.1272267881,
				"y": -0.6178999735,
				"z": -0.3457616545,
				"element": "N" 
			},
			{
				"x": -2.4138546847,
				"y": 1.6533326971,
				"z": 1.0992576063,
				"element": "C" 
			},
			{
				"x": -3.4462340198,
				"y": 2.1520339718,
				"z": 1.299005715,
				"element": "N" 
			},
			{
				"x": 1.7662038356,
				"y": -2.6829574014,
				"z": -0.6029925456,
				"element": "H" 
			},
			{
				"x": 3.454229055,
				"y": -2.1892339596,
				"z": -0.9564051766,
				"element": "H" 
			},
			{
				"x": 2.0861508171,
				"y": -1.5043730087,
				"z": -1.8931029606,
				"element": "H" 
			},
			{
				"x": 2.1448011033,
				"y": 1.1159963944,
				"z": 1.7382816429,
				"element": "H" 
			},
			{
				"x": -0.0319344289,
				"y": 2.2670018925,
				"z": 2.2502092281,
				"element": "H" 
			},
			{
				"x": -1.9043683282,
				"y": -0.3570426771,
				"z": -0.6110278395,
				"element": "H" 
			}
		],
		 "valence_orbital": [ 
			{
				"type": "occ",
				"energy": -0.33712,
				"method": "rhf"
			},
			{
				"type": "occ",
				"energy": -0.33228,
				"method": "rhf"
			},
			{
				"type": "occ",
				"energy": -0.30766,
				"method": "rhf"
			},
			{
				"type": "occ",
				"energy": -0.28734,
				"method": "rhf"
			},
			{
				"type": "occ",
				"energy": -0.25018,
				"method": "rhf"
			},
			{
				"type": "unocc",
				"energy": -0.04836,
				"method": "rhf"
			},
			{
				"type": "unocc",
				"energy": -0.04379,
				"method": "rhf"
			},
			{
				"type": "unocc",
				"energy": 0.03185,
				"method": "rhf"
			},
			{
				"type": "unocc",
				"energy": 0.07439,
				"method": "rhf"
			},
			{
				"type": "unocc",
				"energy": 0.08616,
				"method": "rhf"
			}
		],
		"cosmo_sigma_profile": { 
			"-0.025": 0.0,
			"-0.024": 0.0,
			"-0.023": 0.0,
			"-0.022": 0.0,
			"-0.021": 0.0,
			"-0.02": 0.0,
			"-0.019": 0.0,
			"-0.018": 0.0,
			"-0.017": 0.0,
			"-0.016": 0.0,
			"-0.015": 0.0,
			"-0.014": 0.0,
			"-0.013": 0.0,
			"-0.012": 0.0,
			"-0.011": 0.0,
			"-0.01": 0.000628076567239,
			"-0.009": 2.33802026681,
			"-0.008": 6.49988696417,
			"-0.007": 6.74587533139,
			"-0.006": 9.58969692663,
			"-0.005": 11.185029488,
			"-0.004": 12.2948581387,
			"-0.003": 15.5008821075,
			"-0.002": 13.7311075387,
			"-0.001": 17.6793041558,
			"0.0": 16.8006787559,
			"0.001": 9.55316417625,
			"0.002": 5.69677196209,
			"0.003": 5.44894325041,
			"0.004": 4.89682774834,
			"0.005": 4.37653511338,
			"0.006": 4.87422475443,
			"0.007": 5.79785536686,
			"0.008": 5.58706989888,
			"0.009": 5.30612944681,
			"0.01": 3.77182765608,
			"0.011": 3.39544266133,
			"0.012": 2.93210053578,
			"0.013": 1.60082283281,
			"0.014": 0.0714971505073,
			"0.015": 0.0,
			"0.016": 0.0,
			"0.017": 0.0,
			"0.018": 0.0,
			"0.019": 0.0,
			"0.02": 0.0,
			"0.021": 0.0,
			"0.022": 0.0,
			"0.023": 0.0,
			"0.024": 0.0,
			"0.025": 0.0
		}
	}
}
