{
	 "smiles": "ClS(=O)(=O)C1=CC=C(C=C1)C1=CN=CO1", 
	 "Tm": 374.15, 
	 "num_atms": 21, 
	 "gaussian": { 
		 "optdone": 1, 
		 "sigma_profile": "yes", 
		 "theory": "DFT", 
		 "functional": "B3LYP", 
		 "basiset": "6-31G**", 
		 "properties": { 
			 "R2extent": 5488.8217, 
			 "electric_dipole_moment_norm": 4.67176161314, 
			 "electric_quadrupole_moment_norm": 24.2171126338, 
			 "total_energy": -1485.29074874, 
			 "HOMO_LUMO_gap": 0.15308, 
			 "cosmo_polarized_energy": -12.99, 
			 "cosmo_cavitation_energy": 30.01, 
			 "cosmo_dispersion_energy": -22.48, 
			 "cosmo_repulsion_energy": 1.68, 
			 "cosmo_total_nonelectrostatic_energy": 9.2, 
			 "SMD_solvation_energy": 3.14 
		},
		"coords": [
			{
				"x": -1.9667503496,
				"y": 3.3367174776,
				"z": -1.9783300487,
				"element": "Cl" 
			},
			{
				"x": 0.0980355713,
				"y": 3.3005573911,
				"z": -1.4266808963,
				"element": "S" 
			},
			{
				"x": 0.2751124412,
				"y": 4.3776457502,
				"z": -0.4608241519,
				"element": "O" 
			},
			{
				"x": 0.8465488982,
				"y": 3.2394215294,
				"z": -2.6759371269,
				"element": "O" 
			},
			{
				"x": 0.2136176449,
				"y": 1.7307336406,
				"z": -0.5908414701,
				"element": "C" 
			},
			{
				"x": 0.5331966881,
				"y": 0.5906817858,
				"z": -1.3325642889,
				"element": "C" 
			},
			{
				"x": 0.6349106804,
				"y": -0.6270828137,
				"z": -0.6737965685,
				"element": "C" 
			},
			{
				"x": 0.4172832933,
				"y": -0.7140085927,
				"z": 0.7153943665,
				"element": "C" 
			},
			{
				"x": 0.0981122774,
				"y": 0.4530904095,
				"z": 1.434913982,
				"element": "C" 
			},
			{
				"x": -0.0066876889,
				"y": 1.6780705208,
				"z": 0.7862533677,
				"element": "C" 
			},
			{
				"x": 0.5264379772,
				"y": -1.9955513633,
				"z": 1.3913636487,
				"element": "C" 
			},
			{
				"x": 0.815005338,
				"y": -3.2759897707,
				"z": 1.0036221599,
				"element": "C" 
			},
			{
				"x": 0.776560592,
				"y": -4.1193016735,
				"z": 2.0996582353,
				"element": "N" 
			},
			{
				"x": 0.4732549814,
				"y": -3.3383167176,
				"z": 3.0887712154,
				"element": "C" 
			},
			{
				"x": 0.3038355854,
				"y": -2.037514637,
				"z": 2.7506791585,
				"element": "O" 
			},
			{
				"x": 0.7076916059,
				"y": 0.6647401286,
				"z": -2.3999102612,
				"element": "H" 
			},
			{
				"x": 0.888011352,
				"y": -1.5167725091,
				"z": -1.240757757,
				"element": "H" 
			},
			{
				"x": -0.0640133339,
				"y": 0.3937134771,
				"z": 2.5048650023,
				"element": "H" 
			},
			{
				"x": -0.2444157736,
				"y": 2.58170634,
				"z": 1.3360442368,
				"element": "H" 
			},
			{
				"x": 1.0470517684,
				"y": -3.6483654377,
				"z": 0.0166412723,
				"element": "H" 
			},
			{
				"x": 0.341300451,
				"y": -3.5920749353,
				"z": 4.1302359241,
				"element": "H" 
			}
		],
		 "valence_orbital": [ 
			{
				"type": "occ",
				"energy": -0.31777,
				"method": "rhf"
			},
			{
				"type": "occ",
				"energy": -0.31382,
				"method": "rhf"
			},
			{
				"type": "occ",
				"energy": -0.3114,
				"method": "rhf"
			},
			{
				"type": "occ",
				"energy": -0.29456,
				"method": "rhf"
			},
			{
				"type": "occ",
				"energy": -0.25089,
				"method": "rhf"
			},
			{
				"type": "unocc",
				"energy": -0.09781,
				"method": "rhf"
			},
			{
				"type": "unocc",
				"energy": -0.06425,
				"method": "rhf"
			},
			{
				"type": "unocc",
				"energy": -0.04294,
				"method": "rhf"
			},
			{
				"type": "unocc",
				"energy": -0.00583,
				"method": "rhf"
			},
			{
				"type": "unocc",
				"energy": 0.03142,
				"method": "rhf"
			}
		],
		"cosmo_sigma_profile": { 
			"-0.025": 0.0,
			"-0.024": 0.0,
			"-0.023": 0.0,
			"-0.022": 0.0,
			"-0.021": 0.0,
			"-0.02": 0.0,
			"-0.019": 0.0,
			"-0.018": 0.0,
			"-0.017": 0.0,
			"-0.016": 0.0,
			"-0.015": 0.0,
			"-0.014": 0.0,
			"-0.013": 0.0,
			"-0.012": 0.441500137873,
			"-0.011": 2.07815300323,
			"-0.01": 2.74334633588,
			"-0.009": 6.15088119771,
			"-0.008": 9.02296065821,
			"-0.007": 9.41494113018,
			"-0.006": 10.2687785054,
			"-0.005": 8.99187631299,
			"-0.004": 8.22940192648,
			"-0.003": 11.3931459453,
			"-0.002": 18.4152423329,
			"-0.001": 23.5773656282,
			"0.0": 27.0436665128,
			"0.001": 22.3954256515,
			"0.002": 14.3332054201,
			"0.003": 17.5851991712,
			"0.004": 13.9603608671,
			"0.005": 4.28775193372,
			"0.006": 5.45502415101,
			"0.007": 6.78839107256,
			"0.008": 10.5519413393,
			"0.009": 5.63195991649,
			"0.01": 1.76643636955,
			"0.011": 0.818156695203,
			"0.012": 0.972482003723,
			"0.013": 1.33429355782,
			"0.014": 0.807089949878,
			"0.015": 1.05957091625,
			"0.016": 0.060288734541,
			"0.017": 0.0,
			"0.018": 0.0,
			"0.019": 0.0,
			"0.02": 0.0,
			"0.021": 0.0,
			"0.022": 0.0,
			"0.023": 0.0,
			"0.024": 0.0,
			"0.025": 0.0
		}
	}
}
