{
	 "smiles": "FC1=C(NC(=O)NC2=C3CCCNC3=CC=C2)C=CC=C1", 
	 "Tm": 478.15, 
	 "num_atms": 37, 
	 "gaussian": { 
		 "optdone": 1, 
		 "sigma_profile": "yes", 
		 "theory": "DFT", 
		 "functional": "B3LYP", 
		 "basiset": "6-31G**", 
		 "properties": { 
			 "R2extent": 8659.739, 
			 "electric_dipole_moment_norm": 5.50571912923, 
			 "electric_quadrupole_moment_norm": 11.1699758366, 
			 "total_energy": -958.690916922, 
			 "HOMO_LUMO_gap": 0.18641, 
			 "cosmo_polarized_energy": -18.36, 
			 "cosmo_cavitation_energy": 40.03, 
			 "cosmo_dispersion_energy": -28.9, 
			 "cosmo_repulsion_energy": 2.2, 
			 "cosmo_total_nonelectrostatic_energy": 13.33, 
			 "SMD_solvation_energy": 6.21 
		},
		"coords": [
			{
				"x": -3.6729689878,
				"y": 1.6042236712,
				"z": -2.3001631576,
				"element": "F" 
			},
			{
				"x": -3.7307242905,
				"y": 0.3732324678,
				"z": -2.8345453998,
				"element": "C" 
			},
			{
				"x": -2.6878791578,
				"y": -0.5310327274,
				"z": -2.5910227957,
				"element": "C" 
			},
			{
				"x": -1.5822470465,
				"y": -0.1708264817,
				"z": -1.7913397569,
				"element": "N" 
			},
			{
				"x": -1.7190630328,
				"y": 0.262091525,
				"z": -0.4804798583,
				"element": "C" 
			},
			{
				"x": -2.7946290315,
				"y": 0.4081612903,
				"z": 0.0779443934,
				"element": "O" 
			},
			{
				"x": -0.527408503,
				"y": 0.5077233171,
				"z": 0.1966098643,
				"element": "N" 
			},
			{
				"x": 0.8187409314,
				"y": 0.4249636271,
				"z": -0.2281604457,
				"element": "C" 
			},
			{
				"x": 1.7658320781,
				"y": -0.1477691831,
				"z": 0.6473429754,
				"element": "C" 
			},
			{
				"x": 1.3520397631,
				"y": -0.6807442992,
				"z": 2.0092400414,
				"element": "C" 
			},
			{
				"x": 2.5515958824,
				"y": -0.9762147826,
				"z": 2.9230445155,
				"element": "C" 
			},
			{
				"x": 3.6676389118,
				"y": -1.6674072871,
				"z": 2.1430247989,
				"element": "C" 
			},
			{
				"x": 4.0806325725,
				"y": -0.7939942798,
				"z": 1.053671865,
				"element": "N" 
			},
			{
				"x": 3.1097568407,
				"y": -0.2396606789,
				"z": 0.2218075963,
				"element": "C" 
			},
			{
				"x": 3.4830054545,
				"y": 0.2462740833,
				"z": -1.0456528488,
				"element": "C" 
			},
			{
				"x": 2.5368923148,
				"y": 0.8273033966,
				"z": -1.8774845568,
				"element": "C" 
			},
			{
				"x": 1.20404619,
				"y": 0.9318605741,
				"z": -1.4791715804,
				"element": "C" 
			},
			{
				"x": -2.7429054736,
				"y": -1.7796926765,
				"z": -3.2209104741,
				"element": "C" 
			},
			{
				"x": -3.8076808653,
				"y": -2.1164455489,
				"z": -4.0571454164,
				"element": "C" 
			},
			{
				"x": -4.8498564001,
				"y": -1.210626239,
				"z": -4.2581171785,
				"element": "C" 
			},
			{
				"x": -4.8116172769,
				"y": 0.0404742915,
				"z": -3.6401595186,
				"element": "C" 
			},
			{
				"x": -0.6757377913,
				"y": -0.5164461774,
				"z": -2.0757575966,
				"element": "H" 
			},
			{
				"x": -0.7066330368,
				"y": 0.6440463527,
				"z": 1.1807539794,
				"element": "H" 
			},
			{
				"x": 0.7010155257,
				"y": 0.0364895134,
				"z": 2.5262943208,
				"element": "H" 
			},
			{
				"x": 0.7449963985,
				"y": -1.5880128184,
				"z": 1.8797689944,
				"element": "H" 
			},
			{
				"x": 2.2379264459,
				"y": -1.5982909704,
				"z": 3.7675439433,
				"element": "H" 
			},
			{
				"x": 2.9469065899,
				"y": -0.0397670647,
				"z": 3.3322072167,
				"element": "H" 
			},
			{
				"x": 3.3131864004,
				"y": -2.6477980149,
				"z": 1.778447717,
				"element": "H" 
			},
			{
				"x": 4.5340270453,
				"y": -1.8503524245,
				"z": 2.7867326851,
				"element": "H" 
			},
			{
				"x": 4.9212573328,
				"y": -1.0793353221,
				"z": 0.5707615976,
				"element": "H" 
			},
			{
				"x": 4.5209496579,
				"y": 0.1694305629,
				"z": -1.3596250238,
				"element": "H" 
			},
			{
				"x": 2.8389706362,
				"y": 1.2180603766,
				"z": -2.8449674607,
				"element": "H" 
			},
			{
				"x": 0.4761711586,
				"y": 1.4334006027,
				"z": -2.1057644679,
				"element": "H" 
			},
			{
				"x": -1.941501912,
				"y": -2.4906884927,
				"z": -3.0387253732,
				"element": "H" 
			},
			{
				"x": -3.827506581,
				"y": -3.0902107342,
				"z": -4.5364388417,
				"element": "H" 
			},
			{
				"x": -5.6890371715,
				"y": -1.4705124117,
				"z": -4.8957845126,
				"element": "H" 
			},
			{
				"x": -5.5953915719,
				"y": 0.7759929627,
				"z": -3.7863802406,
				"element": "H" 
			}
		],
		 "valence_orbital": [ 
			{
				"type": "occ",
				"energy": -0.25651,
				"method": "rhf"
			},
			{
				"type": "occ",
				"energy": -0.24367,
				"method": "rhf"
			},
			{
				"type": "occ",
				"energy": -0.22676,
				"method": "rhf"
			},
			{
				"type": "occ",
				"energy": -0.21637,
				"method": "rhf"
			},
			{
				"type": "occ",
				"energy": -0.19784,
				"method": "rhf"
			},
			{
				"type": "unocc",
				"energy": -0.01143,
				"method": "rhf"
			},
			{
				"type": "unocc",
				"energy": 0.00083,
				"method": "rhf"
			},
			{
				"type": "unocc",
				"energy": 0.00777,
				"method": "rhf"
			},
			{
				"type": "unocc",
				"energy": 0.0094,
				"method": "rhf"
			},
			{
				"type": "unocc",
				"energy": 0.07005,
				"method": "rhf"
			}
		],
		"cosmo_sigma_profile": { 
			"-0.025": 0.0,
			"-0.024": 0.0,
			"-0.023": 0.0,
			"-0.022": 0.0,
			"-0.021": 0.0,
			"-0.02": 0.0,
			"-0.019": 0.0,
			"-0.018": 0.0,
			"-0.017": 0.0,
			"-0.016": 0.0,
			"-0.015": 0.0,
			"-0.014": 0.00664118800704,
			"-0.013": 0.715095499687,
			"-0.012": 3.55824782773,
			"-0.011": 2.97813992531,
			"-0.01": 3.47752553234,
			"-0.009": 3.37722866065,
			"-0.008": 4.84586537892,
			"-0.007": 7.15640585608,
			"-0.006": 12.0826649337,
			"-0.005": 17.1482384199,
			"-0.004": 22.6405682179,
			"-0.003": 27.8584120982,
			"-0.002": 31.3801613155,
			"-0.001": 26.7142726749,
			"0.0": 18.9311645346,
			"0.001": 17.4453272914,
			"0.002": 17.3904931674,
			"0.003": 18.1344019211,
			"0.004": 24.8812937869,
			"0.005": 19.6597769949,
			"0.006": 9.78511875574,
			"0.007": 5.35701380934,
			"0.008": 3.37339386572,
			"0.009": 1.98787237027,
			"0.01": 2.29541355754,
			"0.011": 2.97511805999,
			"0.012": 2.4187178045,
			"0.013": 3.62763119004,
			"0.014": 5.36048612003,
			"0.015": 0.336627072778,
			"0.016": 0.0,
			"0.017": 0.0,
			"0.018": 0.0,
			"0.019": 0.0,
			"0.02": 0.0,
			"0.021": 0.0,
			"0.022": 0.0,
			"0.023": 0.0,
			"0.024": 0.0,
			"0.025": 0.0
		}
	}
}
