{
	 "smiles": "CC(C)(C)C1=CC=C(NC(N)=S)C=C1", 
	 "Tm": 427.15, 
	 "num_atms": 30, 
	 "gaussian": { 
		 "optdone": 1, 
		 "sigma_profile": "yes", 
		 "theory": "DFT", 
		 "functional": "B3LYP", 
		 "basiset": "6-31G**", 
		 "properties": { 
			 "R2extent": 5697.8303, 
			 "electric_dipole_moment_norm": 6.10209716245, 
			 "electric_quadrupole_moment_norm": 38.7651854355, 
			 "total_energy": -936.53798574, 
			 "HOMO_LUMO_gap": 0.17552, 
			 "cosmo_polarized_energy": -16.63, 
			 "cosmo_cavitation_energy": 33.53, 
			 "cosmo_dispersion_energy": -24.45, 
			 "cosmo_repulsion_energy": 1.88, 
			 "cosmo_total_nonelectrostatic_energy": 10.96, 
			 "SMD_solvation_energy": 4.93 
		},
		"coords": [
			{
				"x": 2.330626746,
				"y": 1.898399371,
				"z": -1.2062694611,
				"element": "C" 
			},
			{
				"x": 1.9889472065,
				"y": 0.8338714067,
				"z": -0.1362400129,
				"element": "C" 
			},
			{
				"x": 2.2891421498,
				"y": 1.4064120753,
				"z": 1.269752554,
				"element": "C" 
			},
			{
				"x": 2.9012078737,
				"y": -0.3864136683,
				"z": -0.3633498603,
				"element": "C" 
			},
			{
				"x": 0.496405881,
				"y": 0.4719036334,
				"z": -0.2339137892,
				"element": "C" 
			},
			{
				"x": 0.0379896282,
				"y": -0.825010538,
				"z": -0.4966755294,
				"element": "C" 
			},
			{
				"x": -1.3234683059,
				"y": -1.1297248068,
				"z": -0.5723708528,
				"element": "C" 
			},
			{
				"x": -2.2810418892,
				"y": -0.1209425464,
				"z": -0.4120724881,
				"element": "C" 
			},
			{
				"x": -3.6742264186,
				"y": -0.3730640952,
				"z": -0.4519592835,
				"element": "N" 
			},
			{
				"x": -4.4013924643,
				"y": -1.1719194714,
				"z": -1.2928790078,
				"element": "C" 
			},
			{
				"x": -3.7187463321,
				"y": -1.8202264516,
				"z": -2.2743254617,
				"element": "N" 
			},
			{
				"x": -6.0631909659,
				"y": -1.3382592427,
				"z": -1.0947151841,
				"element": "S" 
			},
			{
				"x": -1.8414237593,
				"y": 1.1839087116,
				"z": -0.1430527456,
				"element": "C" 
			},
			{
				"x": -0.4835062424,
				"y": 1.4641856517,
				"z": -0.0497531237,
				"element": "C" 
			},
			{
				"x": 2.1365251507,
				"y": 1.517641456,
				"z": -2.2143988951,
				"element": "H" 
			},
			{
				"x": 3.3895004934,
				"y": 2.173486751,
				"z": -1.1452123421,
				"element": "H" 
			},
			{
				"x": 1.742617537,
				"y": 2.8117868383,
				"z": -1.0754906469,
				"element": "H" 
			},
			{
				"x": 1.7016945078,
				"y": 2.3055831063,
				"z": 1.4781087464,
				"element": "H" 
			},
			{
				"x": 2.0626137255,
				"y": 0.671398618,
				"z": 2.0489625438,
				"element": "H" 
			},
			{
				"x": 3.3481499039,
				"y": 1.6750415943,
				"z": 1.3531591432,
				"element": "H" 
			},
			{
				"x": 2.7316803965,
				"y": -1.1679553385,
				"z": 0.384635641,
				"element": "H" 
			},
			{
				"x": 2.7573176515,
				"y": -0.8246354796,
				"z": -1.3565563394,
				"element": "H" 
			},
			{
				"x": 3.9496736327,
				"y": -0.0811552121,
				"z": -0.2876311278,
				"element": "H" 
			},
			{
				"x": 0.7446203013,
				"y": -1.6363315045,
				"z": -0.6277687724,
				"element": "H" 
			},
			{
				"x": -1.636927808,
				"y": -2.1568133271,
				"z": -0.7246976116,
				"element": "H" 
			},
			{
				"x": -4.2587316096,
				"y": 0.1560811936,
				"z": 0.1803866523,
				"element": "H" 
			},
			{
				"x": -2.8001159136,
				"y": -1.5041099519,
				"z": -2.5538930937,
				"element": "H" 
			},
			{
				"x": -4.290456783,
				"y": -2.2808647113,
				"z": -2.9648974835,
				"element": "H" 
			},
			{
				"x": -2.5719183607,
				"y": 1.9782240595,
				"z": -0.0148528803,
				"element": "H" 
			},
			{
				"x": -0.1842659328,
				"y": 2.4865018785,
				"z": 0.1611707121,
				"element": "H" 
			}
		],
		 "valence_orbital": [ 
			{
				"type": "occ",
				"energy": -0.2983,
				"method": "rhf"
			},
			{
				"type": "occ",
				"energy": -0.26583,
				"method": "rhf"
			},
			{
				"type": "occ",
				"energy": -0.24247,
				"method": "rhf"
			},
			{
				"type": "occ",
				"energy": -0.20666,
				"method": "rhf"
			},
			{
				"type": "occ",
				"energy": -0.20295,
				"method": "rhf"
			},
			{
				"type": "unocc",
				"energy": -0.02743,
				"method": "rhf"
			},
			{
				"type": "unocc",
				"energy": -0.01928,
				"method": "rhf"
			},
			{
				"type": "unocc",
				"energy": 0.01896,
				"method": "rhf"
			},
			{
				"type": "unocc",
				"energy": 0.06898,
				"method": "rhf"
			},
			{
				"type": "unocc",
				"energy": 0.07437,
				"method": "rhf"
			}
		],
		"cosmo_sigma_profile": { 
			"-0.025": 0.0,
			"-0.024": 0.0,
			"-0.023": 0.0,
			"-0.022": 0.0,
			"-0.021": 0.0,
			"-0.02": 0.0,
			"-0.019": 0.0,
			"-0.018": 0.0,
			"-0.017": 0.0,
			"-0.016": 0.0,
			"-0.015": 0.213304533664,
			"-0.014": 2.01059706141,
			"-0.013": 3.18367726002,
			"-0.012": 3.47229065513,
			"-0.011": 3.26033909773,
			"-0.01": 2.71845649327,
			"-0.009": 2.70888835697,
			"-0.008": 2.4780845041,
			"-0.007": 4.09111504619,
			"-0.006": 6.56287060672,
			"-0.005": 11.4726473391,
			"-0.004": 12.7813241619,
			"-0.003": 21.6064691465,
			"-0.002": 27.8810994969,
			"-0.001": 23.4204845469,
			"0.0": 23.2993761564,
			"0.001": 30.684585871,
			"0.002": 16.4229800045,
			"0.003": 9.46675134445,
			"0.004": 11.5388715478,
			"0.005": 11.1598543357,
			"0.006": 3.34295561747,
			"0.007": 4.10581295867,
			"0.008": 3.2938173679,
			"0.009": 3.94886842155,
			"0.01": 4.89803460841,
			"0.011": 8.01140020963,
			"0.012": 6.47988381667,
			"0.013": 1.39237905428,
			"0.014": 0.0,
			"0.015": 0.0,
			"0.016": 0.0,
			"0.017": 0.0,
			"0.018": 0.0,
			"0.019": 0.0,
			"0.02": 0.0,
			"0.021": 0.0,
			"0.022": 0.0,
			"0.023": 0.0,
			"0.024": 0.0,
			"0.025": 0.0
		}
	}
}
