{
	 "smiles": "CCC(=O)C1=CC=CC(Br)=C1", 
	 "Tm": 313.15, 
	 "num_atms": 20, 
	 "gaussian": { 
		 "optdone": 1, 
		 "sigma_profile": "yes", 
		 "theory": "DFT", 
		 "functional": "B3LYP", 
		 "basiset": "6-31G**", 
		 "properties": { 
			 "R2extent": 4070.267, 
			 "electric_dipole_moment_norm": 1.12269977287, 
			 "electric_quadrupole_moment_norm": 12.012338334, 
			 "total_energy": -2995.01536115, 
			 "HOMO_LUMO_gap": 0.18563, 
			 "cosmo_polarized_energy": -7.37, 
			 "cosmo_cavitation_energy": 26.19, 
			 "cosmo_dispersion_energy": -19.26, 
			 "cosmo_repulsion_energy": 1.56, 
			 "cosmo_total_nonelectrostatic_energy": 8.49, 
			 "SMD_solvation_energy": 3.93 
		},
		"coords": [
			{
				"x": 0.2865972885,
				"y": 2.1548280055,
				"z": 3.3303661297,
				"element": "C" 
			},
			{
				"x": -0.7880390872,
				"y": 2.1309825667,
				"z": 2.2254103974,
				"element": "C" 
			},
			{
				"x": -0.8691597822,
				"y": 0.7691522102,
				"z": 1.5478207185,
				"element": "C" 
			},
			{
				"x": -1.705676029,
				"y": -0.0465788951,
				"z": 1.9056545122,
				"element": "O" 
			},
			{
				"x": 0.110354207,
				"y": 0.4112760555,
				"z": 0.4621722163,
				"element": "C" 
			},
			{
				"x": 0.0426498204,
				"y": -0.8797395437,
				"z": -0.0842235854,
				"element": "C" 
			},
			{
				"x": 0.9214419394,
				"y": -1.2648579956,
				"z": -1.0913027216,
				"element": "C" 
			},
			{
				"x": 1.8838280355,
				"y": -0.371754193,
				"z": -1.5709654376,
				"element": "C" 
			},
			{
				"x": 1.9472860754,
				"y": 0.9085782835,
				"z": -1.0245264035,
				"element": "C" 
			},
			{
				"x": 3.2589222417,
				"y": 2.1408330255,
				"z": -1.67202791,
				"element": "Br" 
			},
			{
				"x": 1.0742849259,
				"y": 1.310946034,
				"z": -0.0165090633,
				"element": "C" 
			},
			{
				"x": 0.0814212138,
				"y": 1.3850590445,
				"z": 4.0801087675,
				"element": "H" 
			},
			{
				"x": 0.2932496934,
				"y": 3.1259581014,
				"z": 3.8337915436,
				"element": "H" 
			},
			{
				"x": 1.2884638181,
				"y": 1.9757116614,
				"z": 2.9284723302,
				"element": "H" 
			},
			{
				"x": -1.7721982077,
				"y": 2.3146008524,
				"z": 2.6640634773,
				"element": "H" 
			},
			{
				"x": -0.594776731,
				"y": 2.9229622692,
				"z": 1.493767627,
				"element": "H" 
			},
			{
				"x": -0.7108991061,
				"y": -1.557851562,
				"z": 0.3006498388,
				"element": "H" 
			},
			{
				"x": 0.8653124608,
				"y": -2.2643480719,
				"z": -1.5121645473,
				"element": "H" 
			},
			{
				"x": 2.5723212113,
				"y": -0.6638621193,
				"z": -2.3558094425,
				"element": "H" 
			},
			{
				"x": 1.1530160119,
				"y": 2.3146042708,
				"z": 0.3822515527,
				"element": "H" 
			}
		],
		 "valence_orbital": [ 
			{
				"type": "occ",
				"energy": -0.31771,
				"method": "rhf"
			},
			{
				"type": "occ",
				"energy": -0.29524,
				"method": "rhf"
			},
			{
				"type": "occ",
				"energy": -0.27377,
				"method": "rhf"
			},
			{
				"type": "occ",
				"energy": -0.25225,
				"method": "rhf"
			},
			{
				"type": "occ",
				"energy": -0.25137,
				"method": "rhf"
			},
			{
				"type": "unocc",
				"energy": -0.06574,
				"method": "rhf"
			},
			{
				"type": "unocc",
				"energy": -0.02358,
				"method": "rhf"
			},
			{
				"type": "unocc",
				"energy": -0.00097,
				"method": "rhf"
			},
			{
				"type": "unocc",
				"energy": 0.02783,
				"method": "rhf"
			},
			{
				"type": "unocc",
				"energy": 0.09225,
				"method": "rhf"
			}
		],
		"cosmo_sigma_profile": { 
			"-0.025": 0.0,
			"-0.024": 0.0,
			"-0.023": 0.0,
			"-0.022": 0.0,
			"-0.021": 0.0,
			"-0.02": 0.0,
			"-0.019": 0.0,
			"-0.018": 0.0,
			"-0.017": 0.0,
			"-0.016": 0.0,
			"-0.015": 0.0,
			"-0.014": 0.0,
			"-0.013": 0.0,
			"-0.012": 0.0,
			"-0.011": 0.0,
			"-0.01": 0.0,
			"-0.009": 0.136266837848,
			"-0.008": 2.41835910739,
			"-0.007": 5.92439903805,
			"-0.006": 8.44873394948,
			"-0.005": 10.2652761367,
			"-0.004": 15.4775208444,
			"-0.003": 19.3203729676,
			"-0.002": 21.3615936932,
			"-0.001": 19.0443784463,
			"0.0": 19.8616927048,
			"0.001": 19.5463175166,
			"0.002": 21.8937061307,
			"0.003": 13.5808577595,
			"0.004": 12.5709498916,
			"0.005": 5.92259932859,
			"0.006": 1.48280236957,
			"0.007": 1.88608205123,
			"0.008": 0.988551576079,
			"0.009": 1.90989345566,
			"0.01": 2.19850300303,
			"0.011": 3.46663183389,
			"0.012": 3.13173428287,
			"0.013": 1.11527374288,
			"0.014": 0.0431590701211,
			"0.015": 0.0,
			"0.016": 0.0,
			"0.017": 0.0,
			"0.018": 0.0,
			"0.019": 0.0,
			"0.02": 0.0,
			"0.021": 0.0,
			"0.022": 0.0,
			"0.023": 0.0,
			"0.024": 0.0,
			"0.025": 0.0
		}
	}
}
