{
	 "smiles": "CCN(CCO)C1=CC=CC=C1", 
	 "Tm": 310.15, 
	 "num_atms": 27, 
	 "gaussian": { 
		 "optdone": 1, 
		 "sigma_profile": "yes", 
		 "theory": "DFT", 
		 "functional": "B3LYP", 
		 "basiset": "6-31G**", 
		 "properties": { 
			 "R2extent": 3028.5066, 
			 "electric_dipole_moment_norm": 2.00184881797, 
			 "electric_quadrupole_moment_norm": 12.3091584379, 
			 "total_energy": -520.062167422, 
			 "HOMO_LUMO_gap": 0.19389, 
			 "cosmo_polarized_energy": -8.56, 
			 "cosmo_cavitation_energy": 28.19, 
			 "cosmo_dispersion_energy": -20.33, 
			 "cosmo_repulsion_energy": 1.63, 
			 "cosmo_total_nonelectrostatic_energy": 9.48, 
			 "SMD_solvation_energy": 3.56 
		},
		"coords": [
			{
				"x": -1.9295749199,
				"y": -2.43366341,
				"z": 0.0565077708,
				"element": "C" 
			},
			{
				"x": -1.8860760416,
				"y": -1.188374483,
				"z": -0.8325347864,
				"element": "C" 
			},
			{
				"x": -0.6520273197,
				"y": -0.4120897489,
				"z": -0.6917633389,
				"element": "N" 
			},
			{
				"x": 0.6072666901,
				"y": -1.1489483631,
				"z": -0.862649697,
				"element": "C" 
			},
			{
				"x": 0.872907679,
				"y": -1.6335034347,
				"z": -2.2957100776,
				"element": "C" 
			},
			{
				"x": 1.1183418949,
				"y": -0.5763175552,
				"z": -3.2066110106,
				"element": "O" 
			},
			{
				"x": -0.6856983729,
				"y": 0.9427308851,
				"z": -1.0932582236,
				"element": "C" 
			},
			{
				"x": -1.7304205471,
				"y": 1.4679835849,
				"z": -1.8816249441,
				"element": "C" 
			},
			{
				"x": -1.7648562168,
				"y": 2.825047125,
				"z": -2.2162501955,
				"element": "C" 
			},
			{
				"x": -0.7614801428,
				"y": 3.6917221511,
				"z": -1.7929114626,
				"element": "C" 
			},
			{
				"x": 0.2830894613,
				"y": 3.1804674239,
				"z": -1.0150031373,
				"element": "C" 
			},
			{
				"x": 0.3211176779,
				"y": 1.8365221312,
				"z": -0.6647634372,
				"element": "C" 
			},
			{
				"x": -2.9364036977,
				"y": -2.8617871684,
				"z": 0.0283856331,
				"element": "H" 
			},
			{
				"x": -1.2373140084,
				"y": -3.2143400506,
				"z": -0.271624107,
				"element": "H" 
			},
			{
				"x": -1.6946385198,
				"y": -2.1774700726,
				"z": 1.0941554689,
				"element": "H" 
			},
			{
				"x": -2.7077889014,
				"y": -0.5293172784,
				"z": -0.5374188591,
				"element": "H" 
			},
			{
				"x": -2.0861240467,
				"y": -1.4844087342,
				"z": -1.8781342051,
				"element": "H" 
			},
			{
				"x": 1.4370634213,
				"y": -0.5079041951,
				"z": -0.5595710958,
				"element": "H" 
			},
			{
				"x": 0.6103673013,
				"y": -2.007581255,
				"z": -0.1835478545,
				"element": "H" 
			},
			{
				"x": 1.7772106572,
				"y": -2.2533124967,
				"z": -2.2964195463,
				"element": "H" 
			},
			{
				"x": 0.0449221415,
				"y": -2.2770350502,
				"z": -2.6372296051,
				"element": "H" 
			},
			{
				"x": 0.3657206534,
				"y": 0.0297667069,
				"z": -3.1754134711,
				"element": "H" 
			},
			{
				"x": -2.5190861729,
				"y": 0.8205926915,
				"z": -2.247161722,
				"element": "H" 
			},
			{
				"x": -2.5855188826,
				"y": 3.196042826,
				"z": -2.8244962742,
				"element": "H" 
			},
			{
				"x": -0.7889590995,
				"y": 4.7437609474,
				"z": -2.0587429643,
				"element": "H" 
			},
			{
				"x": 1.071951113,
				"y": 3.8400140698,
				"z": -0.6635998691,
				"element": "H" 
			},
			{
				"x": 1.1252081988,
				"y": 1.475702753,
				"z": -0.0326089883,
				"element": "H" 
			}
		],
		 "valence_orbital": [ 
			{
				"type": "occ",
				"energy": -0.32329,
				"method": "rhf"
			},
			{
				"type": "occ",
				"energy": -0.28046,
				"method": "rhf"
			},
			{
				"type": "occ",
				"energy": -0.26267,
				"method": "rhf"
			},
			{
				"type": "occ",
				"energy": -0.24624,
				"method": "rhf"
			},
			{
				"type": "occ",
				"energy": -0.19278,
				"method": "rhf"
			},
			{
				"type": "unocc",
				"energy": 0.00111,
				"method": "rhf"
			},
			{
				"type": "unocc",
				"energy": 0.01108,
				"method": "rhf"
			},
			{
				"type": "unocc",
				"energy": 0.07489,
				"method": "rhf"
			},
			{
				"type": "unocc",
				"energy": 0.09371,
				"method": "rhf"
			},
			{
				"type": "unocc",
				"energy": 0.10389,
				"method": "rhf"
			}
		],
		"cosmo_sigma_profile": { 
			"-0.025": 0.0,
			"-0.024": 0.0,
			"-0.023": 0.0,
			"-0.022": 0.0,
			"-0.021": 0.0,
			"-0.02": 0.0,
			"-0.019": 0.0,
			"-0.018": 0.0,
			"-0.017": 0.0,
			"-0.016": 0.0,
			"-0.015": 0.0,
			"-0.014": 0.0,
			"-0.013": 0.0,
			"-0.012": 0.0,
			"-0.011": 0.0,
			"-0.01": 0.0,
			"-0.009": 0.125365143434,
			"-0.008": 1.30867644383,
			"-0.007": 1.74113054782,
			"-0.006": 4.25662975004,
			"-0.005": 13.8325618431,
			"-0.004": 26.9870689802,
			"-0.003": 32.4277167386,
			"-0.002": 25.6558910071,
			"-0.001": 20.7848433677,
			"0.0": 15.8047783161,
			"0.001": 13.2123529303,
			"0.002": 8.31803277088,
			"0.003": 8.2779716384,
			"0.004": 8.88592457414,
			"0.005": 10.3365117424,
			"0.006": 9.8962007431,
			"0.007": 5.85483709991,
			"0.008": 2.63339830348,
			"0.009": 1.42321914683,
			"0.01": 1.95948086323,
			"0.011": 1.10293576799,
			"0.012": 0.880764266769,
			"0.013": 2.27550003935,
			"0.014": 2.11469192541,
			"0.015": 0.960906029964,
			"0.016": 0.0,
			"0.017": 0.0,
			"0.018": 0.0,
			"0.019": 0.0,
			"0.02": 0.0,
			"0.021": 0.0,
			"0.022": 0.0,
			"0.023": 0.0,
			"0.024": 0.0,
			"0.025": 0.0
		}
	}
}
