{
	 "smiles": "CC(C)(C)C1=CC(=O)C(=O)C(=C1)C(C)(C)C", 
	 "Tm": 387.15, 
	 "num_atms": 36, 
	 "gaussian": { 
		 "optdone": 1, 
		 "sigma_profile": "yes", 
		 "theory": "DFT", 
		 "functional": "B3LYP", 
		 "basiset": "6-31G**", 
		 "properties": { 
			 "R2extent": 4287.9016, 
			 "electric_dipole_moment_norm": 5.83550451118, 
			 "electric_quadrupole_moment_norm": 14.9436052638, 
			 "total_energy": -695.972025871, 
			 "HOMO_LUMO_gap": 0.11916, 
			 "cosmo_polarized_energy": -12.15, 
			 "cosmo_cavitation_energy": 36.32, 
			 "cosmo_dispersion_energy": -24.61, 
			 "cosmo_repulsion_energy": 1.9, 
			 "cosmo_total_nonelectrostatic_energy": 13.61, 
			 "SMD_solvation_energy": 7.75 
		},
		"coords": [
			{
				"x": -1.4367691435,
				"y": 2.5015452855,
				"z": 1.8161769303,
				"element": "C" 
			},
			{
				"x": -0.4600865112,
				"y": 1.998299203,
				"z": 0.737944142,
				"element": "C" 
			},
			{
				"x": 0.9830073798,
				"y": 2.316819073,
				"z": 1.2032570133,
				"element": "C" 
			},
			{
				"x": -0.7599570474,
				"y": 2.7553324469,
				"z": -0.5801420451,
				"element": "C" 
			},
			{
				"x": -0.5924913739,
				"y": 0.4891088708,
				"z": 0.4966050842,
				"element": "C" 
			},
			{
				"x": -1.4718732558,
				"y": -0.2945610524,
				"z": 1.1651597275,
				"element": "C" 
			},
			{
				"x": -1.5596246673,
				"y": -1.7298607318,
				"z": 0.8990887258,
				"element": "C" 
			},
			{
				"x": -2.33891264,
				"y": -2.4674044631,
				"z": 1.4809049648,
				"element": "O" 
			},
			{
				"x": -0.6095291632,
				"y": -2.3373742067,
				"z": -0.1791207075,
				"element": "C" 
			},
			{
				"x": -0.6847964806,
				"y": -3.5354813931,
				"z": -0.3971262616,
				"element": "O" 
			},
			{
				"x": 0.332871601,
				"y": -1.417421446,
				"z": -0.8774109279,
				"element": "C" 
			},
			{
				"x": 0.2937620253,
				"y": -0.1099015671,
				"z": -0.5185223677,
				"element": "C" 
			},
			{
				"x": 1.2827039524,
				"y": -1.977370126,
				"z": -1.9454231923,
				"element": "C" 
			},
			{
				"x": 0.4569696292,
				"y": -2.6149198915,
				"z": -3.0916781221,
				"element": "C" 
			},
			{
				"x": 2.1752485278,
				"y": -0.8784142131,
				"z": -2.5522979379,
				"element": "C" 
			},
			{
				"x": 2.2037835559,
				"y": -3.0498517517,
				"z": -1.3101188707,
				"element": "C" 
			},
			{
				"x": -1.3069692674,
				"y": 3.5794021962,
				"z": 1.9541455217,
				"element": "H" 
			},
			{
				"x": -2.479573916,
				"y": 2.32724771,
				"z": 1.5331804836,
				"element": "H" 
			},
			{
				"x": -1.2582588544,
				"y": 2.0201915596,
				"z": 2.7827880075,
				"element": "H" 
			},
			{
				"x": 1.7353775405,
				"y": 2.0258372167,
				"z": 0.4644501843,
				"element": "H" 
			},
			{
				"x": 1.2146214046,
				"y": 1.8014640747,
				"z": 2.1408208889,
				"element": "H" 
			},
			{
				"x": 1.0883816379,
				"y": 3.3935958424,
				"z": 1.3731023052,
				"element": "H" 
			},
			{
				"x": -0.0735413985,
				"y": 2.4810991226,
				"z": -1.3864741726,
				"element": "H" 
			},
			{
				"x": -0.6625212025,
				"y": 3.8340814425,
				"z": -0.4182733199,
				"element": "H" 
			},
			{
				"x": -1.7799115411,
				"y": 2.554801125,
				"z": -0.9232834991,
				"element": "H" 
			},
			{
				"x": -2.1484702021,
				"y": 0.0859239582,
				"z": 1.920845833,
				"element": "H" 
			},
			{
				"x": 0.9700321105,
				"y": 0.5762637348,
				"z": -1.0130345638,
				"element": "H" 
			},
			{
				"x": -0.160569791,
				"y": -3.4364125878,
				"z": -2.7271291117,
				"element": "H" 
			},
			{
				"x": -0.1935611015,
				"y": -1.871311006,
				"z": -3.5652150721,
				"element": "H" 
			},
			{
				"x": 1.1336861172,
				"y": -3.0056260851,
				"z": -3.859588558,
				"element": "H" 
			},
			{
				"x": 2.8144685814,
				"y": -0.4039041654,
				"z": -1.7995512477,
				"element": "H" 
			},
			{
				"x": 2.8327076283,
				"y": -1.3228599279,
				"z": -3.3057354349,
				"element": "H" 
			},
			{
				"x": 1.5882462152,
				"y": -0.0984030878,
				"z": -3.0497081103,
				"element": "H" 
			},
			{
				"x": 1.6254081333,
				"y": -3.8809562944,
				"z": -0.9053213689,
				"element": "H" 
			},
			{
				"x": 2.8889948811,
				"y": -3.4429331769,
				"z": -2.0692359083,
				"element": "H" 
			},
			{
				"x": 2.8080466358,
				"y": -2.6185456881,
				"z": -0.504379012,
				"element": "H" 
			}
		],
		 "valence_orbital": [ 
			{
				"type": "occ",
				"energy": -0.3274,
				"method": "rhf"
			},
			{
				"type": "occ",
				"energy": -0.3169,
				"method": "rhf"
			},
			{
				"type": "occ",
				"energy": -0.28348,
				"method": "rhf"
			},
			{
				"type": "occ",
				"energy": -0.2478,
				"method": "rhf"
			},
			{
				"type": "occ",
				"energy": -0.23688,
				"method": "rhf"
			},
			{
				"type": "unocc",
				"energy": -0.11772,
				"method": "rhf"
			},
			{
				"type": "unocc",
				"energy": 0.00496,
				"method": "rhf"
			},
			{
				"type": "unocc",
				"energy": 0.00701,
				"method": "rhf"
			},
			{
				"type": "unocc",
				"energy": 0.06328,
				"method": "rhf"
			},
			{
				"type": "unocc",
				"energy": 0.08655,
				"method": "rhf"
			}
		],
		"cosmo_sigma_profile": { 
			"-0.025": 0.0,
			"-0.024": 0.0,
			"-0.023": 0.0,
			"-0.022": 0.0,
			"-0.021": 0.0,
			"-0.02": 0.0,
			"-0.019": 0.0,
			"-0.018": 0.0,
			"-0.017": 0.0,
			"-0.016": 0.0,
			"-0.015": 0.0,
			"-0.014": 0.0,
			"-0.013": 0.0,
			"-0.012": 0.0,
			"-0.011": 0.0,
			"-0.01": 0.0,
			"-0.009": 0.0,
			"-0.008": 0.215431925759,
			"-0.007": 2.20251850139,
			"-0.006": 5.02256962592,
			"-0.005": 7.72535081617,
			"-0.004": 15.8556824607,
			"-0.003": 41.9638413331,
			"-0.002": 38.8486554069,
			"-0.001": 38.7363838928,
			"0.0": 45.392986399,
			"0.001": 38.1560213458,
			"0.002": 10.1066359317,
			"0.003": 3.13930861502,
			"0.004": 2.83013341858,
			"0.005": 2.5753968523,
			"0.006": 2.63957083874,
			"0.007": 2.99664970106,
			"0.008": 2.68947546127,
			"0.009": 3.6427480319,
			"0.01": 4.78439084452,
			"0.011": 6.21903403311,
			"0.012": 3.55441628274,
			"0.013": 1.5607351461,
			"0.014": 1.54992669216,
			"0.015": 0.609066987091,
			"0.016": 0.00402626422321,
			"0.017": 0.0,
			"0.018": 0.0,
			"0.019": 0.0,
			"0.02": 0.0,
			"0.021": 0.0,
			"0.022": 0.0,
			"0.023": 0.0,
			"0.024": 0.0,
			"0.025": 0.0
		}
	}
}
