{
	 "smiles": "CC(=O)C1=CC=C(Cl)C(=C1)[N+]([O-])=O", 
	 "Tm": 371.15, 
	 "num_atms": 19, 
	 "gaussian": { 
		 "optdone": 1, 
		 "sigma_profile": "yes", 
		 "theory": "DFT", 
		 "functional": "B3LYP", 
		 "basiset": "6-31G**", 
		 "properties": { 
			 "R2extent": 3394.5552, 
			 "electric_dipole_moment_norm": 6.06932203875, 
			 "electric_quadrupole_moment_norm": 7.37160347211, 
			 "total_energy": -1048.97081857, 
			 "HOMO_LUMO_gap": 0.17325, 
			 "cosmo_polarized_energy": -13.16, 
			 "cosmo_cavitation_energy": 26.41, 
			 "cosmo_dispersion_energy": -19.19, 
			 "cosmo_repulsion_energy": 1.51, 
			 "cosmo_total_nonelectrostatic_energy": 8.73, 
			 "SMD_solvation_energy": 7.29 
		},
		"coords": [
			{
				"x": -1.8185171342,
				"y": 1.3859083102,
				"z": 2.4565345253,
				"element": "C" 
			},
			{
				"x": -0.4364221762,
				"y": 0.7887101612,
				"z": 2.2722575828,
				"element": "C" 
			},
			{
				"x": 0.3469600098,
				"y": 0.7077026071,
				"z": 3.2032833798,
				"element": "O" 
			},
			{
				"x": -0.0395341566,
				"y": 0.2905746384,
				"z": 0.9093659527,
				"element": "C" 
			},
			{
				"x": -0.8775223312,
				"y": 0.3564700726,
				"z": -0.2121846254,
				"element": "C" 
			},
			{
				"x": -0.4536914067,
				"y": -0.1279785198,
				"z": -1.4462256779,
				"element": "C" 
			},
			{
				"x": 0.825763609,
				"y": -0.6700089429,
				"z": -1.5969536599,
				"element": "C" 
			},
			{
				"x": 1.2601994109,
				"y": -1.2986723084,
				"z": -3.1582691482,
				"element": "Cl" 
			},
			{
				"x": 1.66778628,
				"y": -0.7311720486,
				"z": -0.4729911368,
				"element": "C" 
			},
			{
				"x": 1.2319700166,
				"y": -0.2716415324,
				"z": 0.7641518217,
				"element": "C" 
			},
			{
				"x": 3.0429547217,
				"y": -1.264475873,
				"z": -0.5295398011,
				"element": "N" 
			},
			{
				"x": 3.4438406752,
				"y": -1.8566317559,
				"z": 0.4703017091,
				"element": "O" 
			},
			{
				"x": 3.6974985016,
				"y": -1.0557174337,
				"z": -1.5451237733,
				"element": "O" 
			},
			{
				"x": -1.9312960344,
				"y": 1.6893389486,
				"z": 3.4973869191,
				"element": "H" 
			},
			{
				"x": -2.5979974191,
				"y": 0.6582400275,
				"z": 2.2041871267,
				"element": "H" 
			},
			{
				"x": -1.9603559499,
				"y": 2.2571674273,
				"z": 1.8072826298,
				"element": "H" 
			},
			{
				"x": -1.8730191732,
				"y": 0.7801140259,
				"z": -0.1331213284,
				"element": "H" 
			},
			{
				"x": -1.1105293287,
				"y": -0.0945006912,
				"z": -2.3079373974,
				"element": "H" 
			},
			{
				"x": 1.8844118854,
				"y": -0.344327113,
				"z": 1.6261949013,
				"element": "H" 
			}
		],
		 "valence_orbital": [ 
			{
				"type": "occ",
				"energy": -0.31643,
				"method": "rhf"
			},
			{
				"type": "occ",
				"energy": -0.3073,
				"method": "rhf"
			},
			{
				"type": "occ",
				"energy": -0.28841,
				"method": "rhf"
			},
			{
				"type": "occ",
				"energy": -0.27897,
				"method": "rhf"
			},
			{
				"type": "occ",
				"energy": -0.27085,
				"method": "rhf"
			},
			{
				"type": "unocc",
				"energy": -0.0976,
				"method": "rhf"
			},
			{
				"type": "unocc",
				"energy": -0.0794,
				"method": "rhf"
			},
			{
				"type": "unocc",
				"energy": -0.03209,
				"method": "rhf"
			},
			{
				"type": "unocc",
				"energy": 0.00289,
				"method": "rhf"
			},
			{
				"type": "unocc",
				"energy": 0.01343,
				"method": "rhf"
			}
		],
		"cosmo_sigma_profile": { 
			"-0.025": 0.0,
			"-0.024": 0.0,
			"-0.023": 0.0,
			"-0.022": 0.0,
			"-0.021": 0.0,
			"-0.02": 0.0,
			"-0.019": 0.0,
			"-0.018": 0.0,
			"-0.017": 0.0,
			"-0.016": 0.0,
			"-0.015": 0.0,
			"-0.014": 0.0,
			"-0.013": 0.0,
			"-0.012": 0.0,
			"-0.011": 0.0,
			"-0.01": 0.0,
			"-0.009": 2.28824167685,
			"-0.008": 8.26847688332,
			"-0.007": 11.683872399,
			"-0.006": 10.6417147074,
			"-0.005": 11.1992793844,
			"-0.004": 12.3570038404,
			"-0.003": 13.9189359131,
			"-0.002": 22.7462152962,
			"-0.001": 23.6516535707,
			"0.0": 14.4335060766,
			"0.001": 9.53773823143,
			"0.002": 11.5677181923,
			"0.003": 9.20942292161,
			"0.004": 5.51809447481,
			"0.005": 5.30324026409,
			"0.006": 7.2666489095,
			"0.007": 12.6657921138,
			"0.008": 7.9464947722,
			"0.009": 5.13030333932,
			"0.01": 3.08102020099,
			"0.011": 3.49155814981,
			"0.012": 1.91171037554,
			"0.013": 0.3518074017,
			"0.014": 0.0,
			"0.015": 0.0,
			"0.016": 0.0,
			"0.017": 0.0,
			"0.018": 0.0,
			"0.019": 0.0,
			"0.02": 0.0,
			"0.021": 0.0,
			"0.022": 0.0,
			"0.023": 0.0,
			"0.024": 0.0,
			"0.025": 0.0
		}
	}
}
