{
	 "smiles": "OC(=O)C=C/C(=O)NC1=C(F)C=C(F)C=C1", 
	 "Tm": 464.15, 
	 "num_atms": 23, 
	 "gaussian": { 
		 "optdone": 1, 
		 "sigma_profile": "yes", 
		 "theory": "DFT", 
		 "functional": "B3LYP", 
		 "basiset": "6-31G**", 
		 "properties": { 
			 "R2extent": 4446.2771, 
			 "electric_dipole_moment_norm": 2.68663322581, 
			 "electric_quadrupole_moment_norm": 16.129342703, 
			 "total_energy": -865.367548585, 
			 "HOMO_LUMO_gap": 0.17227, 
			 "cosmo_polarized_energy": -16.73, 
			 "cosmo_cavitation_energy": 30.12, 
			 "cosmo_dispersion_energy": -20.76, 
			 "cosmo_repulsion_energy": 1.61, 
			 "cosmo_total_nonelectrostatic_energy": 10.96, 
			 "SMD_solvation_energy": 8.06 
		},
		"coords": [
			{
				"x": 0.8037167051,
				"y": -0.056612382,
				"z": 3.9005946564,
				"element": "O" 
			},
			{
				"x": 0.1387047441,
				"y": -0.4135465398,
				"z": 2.7789582342,
				"element": "C" 
			},
			{
				"x": -1.0702461641,
				"y": -0.3200963693,
				"z": 2.6730792524,
				"element": "O" 
			},
			{
				"x": 1.0621279147,
				"y": -0.8813844752,
				"z": 1.7209504324,
				"element": "C" 
			},
			{
				"x": 0.647964057,
				"y": -1.6010664042,
				"z": 0.6720064064,
				"element": "C" 
			},
			{
				"x": -0.7002655187,
				"y": -2.2612678629,
				"z": 0.5083036888,
				"element": "C" 
			},
			{
				"x": -0.9751999522,
				"y": -3.2543114567,
				"z": 1.1627123393,
				"element": "O" 
			},
			{
				"x": -1.5138962219,
				"y": -1.8099068322,
				"z": -0.5024548016,
				"element": "N" 
			},
			{
				"x": -1.3963526498,
				"y": -0.6155446189,
				"z": -1.2483266147,
				"element": "C" 
			},
			{
				"x": -1.5163387466,
				"y": -0.6657341117,
				"z": -2.6433917723,
				"element": "C" 
			},
			{
				"x": -1.7362167492,
				"y": -1.8621036861,
				"z": -3.2238967086,
				"element": "F" 
			},
			{
				"x": -1.432170123,
				"y": 0.4663164656,
				"z": -3.4404121614,
				"element": "C" 
			},
			{
				"x": -1.205322257,
				"y": 1.6839657071,
				"z": -2.8060969447,
				"element": "C" 
			},
			{
				"x": -1.1093534818,
				"y": 2.7943601521,
				"z": -3.5615842799,
				"element": "F" 
			},
			{
				"x": -1.0881752157,
				"y": 1.7885170601,
				"z": -1.4245755006,
				"element": "C" 
			},
			{
				"x": -1.2048297761,
				"y": 0.6354765401,
				"z": -0.6486284522,
				"element": "C" 
			},
			{
				"x": 0.1294573987,
				"y": 0.2385065288,
				"z": 4.5355398098,
				"element": "H" 
			},
			{
				"x": 2.1066384151,
				"y": -0.6059404225,
				"z": 1.8272434757,
				"element": "H" 
			},
			{
				"x": 1.3732130275,
				"y": -1.8787775927,
				"z": -0.0914034964,
				"element": "H" 
			},
			{
				"x": -2.298260323,
				"y": -2.4214671979,
				"z": -0.6949037151,
				"element": "H" 
			},
			{
				"x": -1.5305832,
				"y": 0.3989103562,
				"z": -4.516900113,
				"element": "H" 
			},
			{
				"x": -0.9356711403,
				"y": 2.7613137291,
				"z": -0.9714637754,
				"element": "H" 
			},
			{
				"x": -1.1720407427,
				"y": 0.689493413,
				"z": 0.4337500403,
				"element": "H" 
			}
		],
		 "valence_orbital": [ 
			{
				"type": "occ",
				"energy": -0.29672,
				"method": "rhf"
			},
			{
				"type": "occ",
				"energy": -0.28999,
				"method": "rhf"
			},
			{
				"type": "occ",
				"energy": -0.26907,
				"method": "rhf"
			},
			{
				"type": "occ",
				"energy": -0.25937,
				"method": "rhf"
			},
			{
				"type": "occ",
				"energy": -0.23742,
				"method": "rhf"
			},
			{
				"type": "unocc",
				"energy": -0.06515,
				"method": "rhf"
			},
			{
				"type": "unocc",
				"energy": -0.0248,
				"method": "rhf"
			},
			{
				"type": "unocc",
				"energy": -0.01543,
				"method": "rhf"
			},
			{
				"type": "unocc",
				"energy": 0.0196,
				"method": "rhf"
			},
			{
				"type": "unocc",
				"energy": 0.0599,
				"method": "rhf"
			}
		],
		"cosmo_sigma_profile": { 
			"-0.025": 0.0,
			"-0.024": 0.0,
			"-0.023": 0.0,
			"-0.022": 0.0,
			"-0.021": 0.0,
			"-0.02": 0.0,
			"-0.019": 0.140694492848,
			"-0.018": 1.09058001017,
			"-0.017": 0.767307687685,
			"-0.016": 0.913888299706,
			"-0.015": 1.3499236145,
			"-0.014": 2.03391205457,
			"-0.013": 0.856129620987,
			"-0.012": 1.62287604699,
			"-0.011": 1.51263295907,
			"-0.01": 2.36731173177,
			"-0.009": 6.11464587375,
			"-0.008": 7.75702951913,
			"-0.007": 9.34510625522,
			"-0.006": 8.63730777447,
			"-0.005": 9.45059732201,
			"-0.004": 10.1220875552,
			"-0.003": 11.6238701103,
			"-0.002": 12.2037990676,
			"-0.001": 14.531438446,
			"0.0": 23.0585030102,
			"0.001": 22.4925929133,
			"0.002": 16.3437209087,
			"0.003": 18.7010782926,
			"0.004": 17.5628145057,
			"0.005": 3.8132057017,
			"0.006": 3.81309509298,
			"0.007": 4.21901645488,
			"0.008": 4.55363932798,
			"0.009": 4.78479716636,
			"0.01": 4.55510556608,
			"0.011": 5.45411066976,
			"0.012": 5.90248900749,
			"0.013": 3.82632097407,
			"0.014": 0.316634883231,
			"0.015": 0.0,
			"0.016": 0.0,
			"0.017": 0.0,
			"0.018": 0.0,
			"0.019": 0.0,
			"0.02": 0.0,
			"0.021": 0.0,
			"0.022": 0.0,
			"0.023": 0.0,
			"0.024": 0.0,
			"0.025": 0.0
		}
	}
}
