{
	 "smiles": "FC(F)N1C=CN=C1COC1=CC=C(Br)C=C1", 
	 "Tm": 335.15, 
	 "num_atms": 26, 
	 "gaussian": { 
		 "optdone": 1, 
		 "sigma_profile": "yes", 
		 "theory": "DFT", 
		 "functional": "B3LYP", 
		 "basiset": "6-31G**", 
		 "properties": { 
			 "R2extent": 7582.2516, 
			 "electric_dipole_moment_norm": 2.13467226759, 
			 "electric_quadrupole_moment_norm": 10.0595712801, 
			 "total_energy": -3380.38132611, 
			 "HOMO_LUMO_gap": 0.20721, 
			 "cosmo_polarized_energy": -9.87, 
			 "cosmo_cavitation_energy": 33.96, 
			 "cosmo_dispersion_energy": -24.09, 
			 "cosmo_repulsion_energy": 1.83, 
			 "cosmo_total_nonelectrostatic_energy": 11.7, 
			 "SMD_solvation_energy": 4.47 
		},
		"coords": [
			{
				"x": 1.4686345457,
				"y": -3.8915251951,
				"z": 2.0535372753,
				"element": "F" 
			},
			{
				"x": 1.6693110675,
				"y": -2.5537951015,
				"z": 1.8862910316,
				"element": "C" 
			},
			{
				"x": 2.6888891625,
				"y": -2.189397642,
				"z": 2.699399411,
				"element": "F" 
			},
			{
				"x": 2.0359619417,
				"y": -2.271540546,
				"z": 0.5305689941,
				"element": "N" 
			},
			{
				"x": 3.3204028745,
				"y": -2.2630308656,
				"z": 0.006817324,
				"element": "C" 
			},
			{
				"x": 3.1614878754,
				"y": -2.0371401271,
				"z": -1.3332169843,
				"element": "C" 
			},
			{
				"x": 1.8255703496,
				"y": -1.9122688556,
				"z": -1.6540038735,
				"element": "N" 
			},
			{
				"x": 1.1698469361,
				"y": -2.0635058007,
				"z": -0.5251519184,
				"element": "C" 
			},
			{
				"x": -0.3224077077,
				"y": -2.0526188732,
				"z": -0.3858867504,
				"element": "C" 
			},
			{
				"x": -0.809919873,
				"y": -1.0813673514,
				"z": 0.5470524737,
				"element": "O" 
			},
			{
				"x": -0.8709617828,
				"y": 0.2401542819,
				"z": 0.168824088,
				"element": "C" 
			},
			{
				"x": -0.3571249013,
				"y": 0.7532744775,
				"z": -1.0267714661,
				"element": "C" 
			},
			{
				"x": -0.4943579139,
				"y": 2.1168872616,
				"z": -1.30386682,
				"element": "C" 
			},
			{
				"x": -1.1322495725,
				"y": 2.9530619344,
				"z": -0.393973903,
				"element": "C" 
			},
			{
				"x": -1.3128244764,
				"y": 4.8169422303,
				"z": -0.7820801874,
				"element": "Br" 
			},
			{
				"x": -1.6401174923,
				"y": 2.4465199227,
				"z": 0.8036274413,
				"element": "C" 
			},
			{
				"x": -1.508787843,
				"y": 1.0905052346,
				"z": 1.0814919455,
				"element": "C" 
			},
			{
				"x": 0.7558588666,
				"y": -2.021411427,
				"z": 2.1585869034,
				"element": "H" 
			},
			{
				"x": 4.1883500063,
				"y": -2.3908178171,
				"z": 0.6326248637,
				"element": "H" 
			},
			{
				"x": 3.9320036878,
				"y": -1.9456621499,
				"z": -2.0854525586,
				"element": "H" 
			},
			{
				"x": -0.6840114751,
				"y": -3.0066390909,
				"z": 0.0105229074,
				"element": "H" 
			},
			{
				"x": -0.7515701218,
				"y": -1.9071229187,
				"z": -1.3816922816,
				"element": "H" 
			},
			{
				"x": 0.1690095739,
				"y": 0.1226460848,
				"z": -1.7334453387,
				"element": "H" 
			},
			{
				"x": -0.0957127368,
				"y": 2.5198445676,
				"z": -2.2279370274,
				"element": "H" 
			},
			{
				"x": -2.1364044377,
				"y": 3.1037186211,
				"z": 1.5085274988,
				"element": "H" 
			},
			{
				"x": -1.9029765533,
				"y": 0.6707891453,
				"z": 2.0012069519,
				"element": "H" 
			}
		],
		 "valence_orbital": [ 
			{
				"type": "occ",
				"energy": -0.28863,
				"method": "rhf"
			},
			{
				"type": "occ",
				"energy": -0.28441,
				"method": "rhf"
			},
			{
				"type": "occ",
				"energy": -0.26592,
				"method": "rhf"
			},
			{
				"type": "occ",
				"energy": -0.24723,
				"method": "rhf"
			},
			{
				"type": "occ",
				"energy": -0.22583,
				"method": "rhf"
			},
			{
				"type": "unocc",
				"energy": -0.01862,
				"method": "rhf"
			},
			{
				"type": "unocc",
				"energy": -0.01389,
				"method": "rhf"
			},
			{
				"type": "unocc",
				"energy": -0.00421,
				"method": "rhf"
			},
			{
				"type": "unocc",
				"energy": 0.00981,
				"method": "rhf"
			},
			{
				"type": "unocc",
				"energy": 0.04513,
				"method": "rhf"
			}
		],
		"cosmo_sigma_profile": { 
			"-0.025": 0.0,
			"-0.024": 0.0,
			"-0.023": 0.0,
			"-0.022": 0.0,
			"-0.021": 0.0,
			"-0.02": 0.0,
			"-0.019": 0.0,
			"-0.018": 0.0,
			"-0.017": 0.0,
			"-0.016": 0.0,
			"-0.015": 0.0,
			"-0.014": 0.0,
			"-0.013": 0.0,
			"-0.012": 0.0,
			"-0.011": 0.0220713647403,
			"-0.01": 0.916659426322,
			"-0.009": 2.52018819193,
			"-0.008": 5.43485880057,
			"-0.007": 14.0125753365,
			"-0.006": 15.6982640506,
			"-0.005": 16.0459171784,
			"-0.004": 16.1010290402,
			"-0.003": 14.3413873307,
			"-0.002": 14.7647980752,
			"-0.001": 15.2531877747,
			"0.0": 17.5831846623,
			"0.001": 21.0580137288,
			"0.002": 27.6675792433,
			"0.003": 41.8954828303,
			"0.004": 27.9679234502,
			"0.005": 12.1215260757,
			"0.006": 3.04522072429,
			"0.007": 1.78849313453,
			"0.008": 1.49436768737,
			"0.009": 0.829122522677,
			"0.01": 1.08053451034,
			"0.011": 1.32417636496,
			"0.012": 0.325947949934,
			"0.013": 1.26747160437,
			"0.014": 0.512527126804,
			"0.015": 0.637841101035,
			"0.016": 0.647873443326,
			"0.017": 0.0,
			"0.018": 0.0,
			"0.019": 0.0,
			"0.02": 0.0,
			"0.021": 0.0,
			"0.022": 0.0,
			"0.023": 0.0,
			"0.024": 0.0,
			"0.025": 0.0
		}
	}
}
