{
	 "smiles": "CC1=CC(=CC=C1F)[N+]([O-])=O", 
	 "Tm": 312.15, 
	 "num_atms": 17, 
	 "gaussian": { 
		 "optdone": 1, 
		 "sigma_profile": "yes", 
		 "theory": "DFT", 
		 "functional": "B3LYP", 
		 "basiset": "6-31G**", 
		 "properties": { 
			 "R2extent": 2591.7083, 
			 "electric_dipole_moment_norm": 3.76024658367, 
			 "electric_quadrupole_moment_norm": 5.91355357716, 
			 "total_energy": -575.302288645, 
			 "HOMO_LUMO_gap": 0.18164, 
			 "cosmo_polarized_energy": -7.44, 
			 "cosmo_cavitation_energy": 22.38, 
			 "cosmo_dispersion_energy": -16.32, 
			 "cosmo_repulsion_energy": 1.28, 
			 "cosmo_total_nonelectrostatic_energy": 7.34, 
			 "SMD_solvation_energy": 6.72 
		},
		"coords": [
			{
				"x": 2.8560243063,
				"y": -1.8437479793,
				"z": 0.8897936916,
				"element": "C" 
			},
			{
				"x": 1.3609357772,
				"y": -1.7614274719,
				"z": 1.0549304206,
				"element": "C" 
			},
			{
				"x": 0.61860666,
				"y": -0.6418709954,
				"z": 0.6794764011,
				"element": "C" 
			},
			{
				"x": -0.7653910241,
				"y": -0.6277323938,
				"z": 0.8585991619,
				"element": "C" 
			},
			{
				"x": -1.4551115411,
				"y": -1.7063529425,
				"z": 1.4082722387,
				"element": "C" 
			},
			{
				"x": -0.7294347176,
				"y": -2.8312475251,
				"z": 1.7882063949,
				"element": "C" 
			},
			{
				"x": 0.6492467051,
				"y": -2.8349825398,
				"z": 1.6053321481,
				"element": "C" 
			},
			{
				"x": 1.3440456354,
				"y": -3.927778408,
				"z": 1.9756523782,
				"element": "F" 
			},
			{
				"x": -1.5198613211,
				"y": 0.5654707932,
				"z": 0.4533682919,
				"element": "N" 
			},
			{
				"x": -2.7393755574,
				"y": 0.5540821244,
				"z": 0.6210673546,
				"element": "O" 
			},
			{
				"x": -0.8881261976,
				"y": 1.5053578288,
				"z": -0.0295892494,
				"element": "O" 
			},
			{
				"x": 3.2493567389,
				"y": -0.9260664088,
				"z": 0.4474989126,
				"element": "H" 
			},
			{
				"x": 3.3516219891,
				"y": -2.0017221185,
				"z": 1.8533882481,
				"element": "H" 
			},
			{
				"x": 3.1364795339,
				"y": -2.6841513983,
				"z": 0.2462551607,
				"element": "H" 
			},
			{
				"x": 1.1014844121,
				"y": 0.226015627,
				"z": 0.2468392905,
				"element": "H" 
			},
			{
				"x": -2.529324382,
				"y": -1.6515161226,
				"z": 1.5286693476,
				"element": "H" 
			},
			{
				"x": -1.2114770171,
				"y": -3.7004300693,
				"z": 2.2212398082,
				"element": "H" 
			}
		],
		 "valence_orbital": [ 
			{
				"type": "occ",
				"energy": -0.31023,
				"method": "rhf"
			},
			{
				"type": "occ",
				"energy": -0.3081,
				"method": "rhf"
			},
			{
				"type": "occ",
				"energy": -0.29119,
				"method": "rhf"
			},
			{
				"type": "occ",
				"energy": -0.28186,
				"method": "rhf"
			},
			{
				"type": "occ",
				"energy": -0.27025,
				"method": "rhf"
			},
			{
				"type": "unocc",
				"energy": -0.08861,
				"method": "rhf"
			},
			{
				"type": "unocc",
				"energy": -0.03277,
				"method": "rhf"
			},
			{
				"type": "unocc",
				"energy": 0.00185,
				"method": "rhf"
			},
			{
				"type": "unocc",
				"energy": 0.0769,
				"method": "rhf"
			},
			{
				"type": "unocc",
				"energy": 0.09676,
				"method": "rhf"
			}
		],
		"cosmo_sigma_profile": { 
			"-0.025": 0.0,
			"-0.024": 0.0,
			"-0.023": 0.0,
			"-0.022": 0.0,
			"-0.021": 0.0,
			"-0.02": 0.0,
			"-0.019": 0.0,
			"-0.018": 0.0,
			"-0.017": 0.0,
			"-0.016": 0.0,
			"-0.015": 0.0,
			"-0.014": 0.0,
			"-0.013": 0.0,
			"-0.012": 0.0,
			"-0.011": 0.0,
			"-0.01": 0.0,
			"-0.009": 0.615852883257,
			"-0.008": 3.1865229024,
			"-0.007": 5.33181020949,
			"-0.006": 7.58097830545,
			"-0.005": 10.863139664,
			"-0.004": 11.6498182972,
			"-0.003": 12.1710295658,
			"-0.002": 17.615681319,
			"-0.001": 23.7560358691,
			"0.0": 19.6816392056,
			"0.001": 13.8219541828,
			"0.002": 7.27406443473,
			"0.003": 9.66014302479,
			"0.004": 6.42882716323,
			"0.005": 2.88962129158,
			"0.006": 3.20269579934,
			"0.007": 7.33314075432,
			"0.008": 8.47079504469,
			"0.009": 4.37351347393,
			"0.01": 3.15406877519,
			"0.011": 0.265833887105,
			"0.012": 0.0,
			"0.013": 0.0,
			"0.014": 0.0,
			"0.015": 0.0,
			"0.016": 0.0,
			"0.017": 0.0,
			"0.018": 0.0,
			"0.019": 0.0,
			"0.02": 0.0,
			"0.021": 0.0,
			"0.022": 0.0,
			"0.023": 0.0,
			"0.024": 0.0,
			"0.025": 0.0
		}
	}
}
