{
	 "smiles": "CN(O)C(=O)CC1=CC=C(OCC2=CC=CC=C2)C=C1", 
	 "Tm": 369.15, 
	 "num_atms": 37, 
	 "gaussian": { 
		 "optdone": 1, 
		 "sigma_profile": "yes", 
		 "theory": "DFT", 
		 "functional": "B3LYP", 
		 "basiset": "6-31G**", 
		 "properties": { 
			 "R2extent": 8026.0322, 
			 "electric_dipole_moment_norm": 3.1154989793, 
			 "electric_quadrupole_moment_norm": 16.3210757636, 
			 "total_energy": -900.318467849, 
			 "HOMO_LUMO_gap": 0.20306, 
			 "cosmo_polarized_energy": -14.63, 
			 "cosmo_cavitation_energy": 40.9, 
			 "cosmo_dispersion_energy": -28.3, 
			 "cosmo_repulsion_energy": 2.21, 
			 "cosmo_total_nonelectrostatic_energy": 14.81, 
			 "SMD_solvation_energy": 8.22 
		},
		"coords": [
			{
				"x": 3.899703426,
				"y": 0.0245902353,
				"z": -3.9863875955,
				"element": "C" 
			},
			{
				"x": 3.9013580115,
				"y": -0.3536190702,
				"z": -2.5875351042,
				"element": "N" 
			},
			{
				"x": 4.5115235066,
				"y": 0.5969295931,
				"z": -1.7487802027,
				"element": "O" 
			},
			{
				"x": 3.8765132993,
				"y": -1.6656932538,
				"z": -2.1634807131,
				"element": "C" 
			},
			{
				"x": 3.574120554,
				"y": -2.5737565948,
				"z": -2.9277400075,
				"element": "O" 
			},
			{
				"x": 4.1490478321,
				"y": -1.8866621995,
				"z": -0.6751714245,
				"element": "C" 
			},
			{
				"x": 3.0544369473,
				"y": -1.3110865238,
				"z": 0.2067891927,
				"element": "C" 
			},
			{
				"x": 1.7473814005,
				"y": -1.8058682282,
				"z": 0.12839074,
				"element": "C" 
			},
			{
				"x": 0.7196917553,
				"y": -1.2903936224,
				"z": 0.9198010323,
				"element": "C" 
			},
			{
				"x": 0.9942190317,
				"y": -0.2546598339,
				"z": 1.8219537172,
				"element": "C" 
			},
			{
				"x": 0.0766773082,
				"y": 0.3217932423,
				"z": 2.6602769995,
				"element": "O" 
			},
			{
				"x": -1.230504717,
				"y": -0.2405548611,
				"z": 2.7549406858,
				"element": "C" 
			},
			{
				"x": -2.1564082681,
				"y": 0.1388497152,
				"z": 1.6146547181,
				"element": "C" 
			},
			{
				"x": -2.037335531,
				"y": 1.3800542716,
				"z": 0.9787030043,
				"element": "C" 
			},
			{
				"x": -2.9273993513,
				"y": 1.7424299798,
				"z": -0.0324018279,
				"element": "C" 
			},
			{
				"x": -3.951235916,
				"y": 0.8723766869,
				"z": -0.4141790641,
				"element": "C" 
			},
			{
				"x": -4.0772227238,
				"y": -0.3657086851,
				"z": 0.2177140812,
				"element": "C" 
			},
			{
				"x": -3.1810387955,
				"y": -0.7308960822,
				"z": 1.2238958432,
				"element": "C" 
			},
			{
				"x": 2.2953750835,
				"y": 0.2563795085,
				"z": 1.9097668002,
				"element": "C" 
			},
			{
				"x": 3.3073312297,
				"y": -0.2666535676,
				"z": 1.1092131664,
				"element": "C" 
			},
			{
				"x": 3.250265014,
				"y": 0.8915621777,
				"z": -4.1417971818,
				"element": "H" 
			},
			{
				"x": 3.5215689014,
				"y": -0.828363568,
				"z": -4.5493413514,
				"element": "H" 
			},
			{
				"x": 4.9128077463,
				"y": 0.2713800868,
				"z": -4.3251093473,
				"element": "H" 
			},
			{
				"x": 3.7798582032,
				"y": 0.9684313163,
				"z": -1.2284010956,
				"element": "H" 
			},
			{
				"x": 4.2153857444,
				"y": -2.9707349146,
				"z": -0.5532382184,
				"element": "H" 
			},
			{
				"x": 5.1137653908,
				"y": -1.4472171659,
				"z": -0.4080182041,
				"element": "H" 
			},
			{
				"x": 1.5237034181,
				"y": -2.6047275482,
				"z": -0.5740296642,
				"element": "H" 
			},
			{
				"x": -0.2835782564,
				"y": -1.6835167439,
				"z": 0.8105674531,
				"element": "H" 
			},
			{
				"x": -1.1722362847,
				"y": -1.3321127529,
				"z": 2.858807973,
				"element": "H" 
			},
			{
				"x": -1.6200038685,
				"y": 0.1563535988,
				"z": 3.699029732,
				"element": "H" 
			},
			{
				"x": -1.2387599302,
				"y": 2.0528225387,
				"z": 1.2756631228,
				"element": "H" 
			},
			{
				"x": -2.8224088082,
				"y": 2.706229005,
				"z": -0.5227004647,
				"element": "H" 
			},
			{
				"x": -4.6435436314,
				"y": 1.155957952,
				"z": -1.2015770786,
				"element": "H" 
			},
			{
				"x": -4.8666002021,
				"y": -1.0511879059,
				"z": -0.0773102563,
				"element": "H" 
			},
			{
				"x": -3.2789821971,
				"y": -1.700433224,
				"z": 1.7077771113,
				"element": "H" 
			},
			{
				"x": 2.493737596,
				"y": 1.0537696396,
				"z": 2.6187781281,
				"element": "H" 
			},
			{
				"x": 4.3155870815,
				"y": 0.1302367982,
				"z": 1.1995753007,
				"element": "H" 
			}
		],
		 "valence_orbital": [ 
			{
				"type": "occ",
				"energy": -0.25553,
				"method": "rhf"
			},
			{
				"type": "occ",
				"energy": -0.25067,
				"method": "rhf"
			},
			{
				"type": "occ",
				"energy": -0.24823,
				"method": "rhf"
			},
			{
				"type": "occ",
				"energy": -0.23946,
				"method": "rhf"
			},
			{
				"type": "occ",
				"energy": -0.21652,
				"method": "rhf"
			},
			{
				"type": "unocc",
				"energy": -0.01346,
				"method": "rhf"
			},
			{
				"type": "unocc",
				"energy": -0.00857,
				"method": "rhf"
			},
			{
				"type": "unocc",
				"energy": -0.00462,
				"method": "rhf"
			},
			{
				"type": "unocc",
				"energy": 0.00306,
				"method": "rhf"
			},
			{
				"type": "unocc",
				"energy": 0.03026,
				"method": "rhf"
			}
		],
		"cosmo_sigma_profile": { 
			"-0.025": 0.0,
			"-0.024": 0.0,
			"-0.023": 0.0,
			"-0.022": 0.0,
			"-0.021": 0.0,
			"-0.02": 0.0,
			"-0.019": 0.0,
			"-0.018": 0.0,
			"-0.017": 0.0,
			"-0.016": 0.0,
			"-0.015": 0.372557716547,
			"-0.014": 1.00071670464,
			"-0.013": 0.511488720988,
			"-0.012": 0.520455166037,
			"-0.011": 0.66788944947,
			"-0.01": 1.05195801573,
			"-0.009": 0.994914564483,
			"-0.008": 0.980524301059,
			"-0.007": 2.0669881817,
			"-0.006": 15.8862198188,
			"-0.005": 32.4330001144,
			"-0.004": 33.1845733229,
			"-0.003": 32.2434258035,
			"-0.002": 26.709440298,
			"-0.001": 20.5959559865,
			"0.0": 18.4307439656,
			"0.001": 18.6602898954,
			"0.002": 19.5545293973,
			"0.003": 20.8430919618,
			"0.004": 21.3839195759,
			"0.005": 19.2524121257,
			"0.006": 10.830545416,
			"0.007": 3.60177371798,
			"0.008": 3.70390981546,
			"0.009": 3.78832854567,
			"0.01": 3.40493086786,
			"0.011": 2.1304971254,
			"0.012": 2.04458689566,
			"0.013": 4.95640132899,
			"0.014": 2.48671528493,
			"0.015": 0.267995191651,
			"0.016": 0.0,
			"0.017": 0.0,
			"0.018": 0.0,
			"0.019": 0.0,
			"0.02": 0.0,
			"0.021": 0.0,
			"0.022": 0.0,
			"0.023": 0.0,
			"0.024": 0.0,
			"0.025": 0.0
		}
	}
}
