{
	 "smiles": "CC1OC2=C(NC1=O)C=C(C)C=C2", 
	 "Tm": 420.15, 
	 "num_atms": 24, 
	 "gaussian": { 
		 "optdone": 1, 
		 "sigma_profile": "yes", 
		 "theory": "DFT", 
		 "functional": "B3LYP", 
		 "basiset": "6-31G**", 
		 "properties": { 
			 "R2extent": 3092.3589, 
			 "electric_dipole_moment_norm": 2.84265510747, 
			 "electric_quadrupole_moment_norm": 11.0684568513, 
			 "total_energy": -592.913987441, 
			 "HOMO_LUMO_gap": 0.196, 
			 "cosmo_polarized_energy": -11.08, 
			 "cosmo_cavitation_energy": 27.27, 
			 "cosmo_dispersion_energy": -20.03, 
			 "cosmo_repulsion_energy": 1.59, 
			 "cosmo_total_nonelectrostatic_energy": 8.83, 
			 "SMD_solvation_energy": 5.38 
		},
		"coords": [
			{
				"x": 1.0141453984,
				"y": -0.8135067011,
				"z": 3.8177897964,
				"element": "C" 
			},
			{
				"x": -0.4762254664,
				"y": -0.743109007,
				"z": 3.4724868306,
				"element": "C" 
			},
			{
				"x": -0.7840518498,
				"y": 0.4380060132,
				"z": 2.7101611437,
				"element": "O" 
			},
			{
				"x": -0.5196674537,
				"y": 0.3807012757,
				"z": 1.366163166,
				"element": "C" 
			},
			{
				"x": -0.6079337016,
				"y": -0.8387296063,
				"z": 0.6760880609,
				"element": "C" 
			},
			{
				"x": -0.9414638795,
				"y": -1.9845985127,
				"z": 1.4180879958,
				"element": "N" 
			},
			{
				"x": -0.9346734189,
				"y": -2.0348281944,
				"z": 2.7880720406,
				"element": "C" 
			},
			{
				"x": -1.2187572254,
				"y": -3.0392044943,
				"z": 3.4212536699,
				"element": "O" 
			},
			{
				"x": -0.3958850661,
				"y": -0.8765415962,
				"z": -0.7015651662,
				"element": "C" 
			},
			{
				"x": -0.1083149932,
				"y": 0.2926434115,
				"z": -1.4188947547,
				"element": "C" 
			},
			{
				"x": 0.1389101696,
				"y": 0.2351271949,
				"z": -2.9085013088,
				"element": "C" 
			},
			{
				"x": -0.0354423934,
				"y": 1.5011244904,
				"z": -0.7162502568,
				"element": "C" 
			},
			{
				"x": -0.2311581832,
				"y": 1.5468709887,
				"z": 0.6659830087,
				"element": "C" 
			},
			{
				"x": 1.3114114804,
				"y": 0.0915310146,
				"z": 4.3541021176,
				"element": "H" 
			},
			{
				"x": 1.2075283406,
				"y": -1.6833973559,
				"z": 4.4511806418,
				"element": "H" 
			},
			{
				"x": 1.623715546,
				"y": -0.8972508959,
				"z": 2.9127256295,
				"element": "H" 
			},
			{
				"x": -1.0673952618,
				"y": -0.6513631791,
				"z": 4.3860749196,
				"element": "H" 
			},
			{
				"x": -1.1806528446,
				"y": -2.8446936914,
				"z": 0.9413190952,
				"element": "H" 
			},
			{
				"x": -0.4654619842,
				"y": -1.830094061,
				"z": -1.2209813537,
				"element": "H" 
			},
			{
				"x": 0.0465166491,
				"y": 1.2248400591,
				"z": -3.3643505103,
				"element": "H" 
			},
			{
				"x": -0.5705840166,
				"y": -0.4323568685,
				"z": -3.4088109067,
				"element": "H" 
			},
			{
				"x": 1.1462128927,
				"y": -0.1368945844,
				"z": -3.1339209849,
				"element": "H" 
			},
			{
				"x": 0.1833846943,
				"y": 2.4203290049,
				"z": -1.2522978387,
				"element": "H" 
			},
			{
				"x": -0.1783574327,
				"y": 2.4818952952,
				"z": 1.2139849644,
				"element": "H" 
			}
		],
		 "valence_orbital": [ 
			{
				"type": "occ",
				"energy": -0.31848,
				"method": "rhf"
			},
			{
				"type": "occ",
				"energy": -0.30587,
				"method": "rhf"
			},
			{
				"type": "occ",
				"energy": -0.25732,
				"method": "rhf"
			},
			{
				"type": "occ",
				"energy": -0.23821,
				"method": "rhf"
			},
			{
				"type": "occ",
				"energy": -0.21036,
				"method": "rhf"
			},
			{
				"type": "unocc",
				"energy": -0.01436,
				"method": "rhf"
			},
			{
				"type": "unocc",
				"energy": -0.00161,
				"method": "rhf"
			},
			{
				"type": "unocc",
				"energy": 0.03398,
				"method": "rhf"
			},
			{
				"type": "unocc",
				"energy": 0.07971,
				"method": "rhf"
			},
			{
				"type": "unocc",
				"energy": 0.09139,
				"method": "rhf"
			}
		],
		"cosmo_sigma_profile": { 
			"-0.025": 0.0,
			"-0.024": 0.0,
			"-0.023": 0.0,
			"-0.022": 0.0,
			"-0.021": 0.0,
			"-0.02": 0.0,
			"-0.019": 0.0,
			"-0.018": 0.0,
			"-0.017": 0.0,
			"-0.016": 0.106912166884,
			"-0.015": 1.09735604386,
			"-0.014": 1.2197800773,
			"-0.013": 0.954161889663,
			"-0.012": 1.49635923264,
			"-0.011": 1.15890898751,
			"-0.01": 1.1273007694,
			"-0.009": 1.05534682133,
			"-0.008": 0.881359769254,
			"-0.007": 3.58408444679,
			"-0.006": 5.98659230647,
			"-0.005": 11.7299717061,
			"-0.004": 20.5301019716,
			"-0.003": 21.286092926,
			"-0.002": 18.7504756204,
			"-0.001": 21.1810159497,
			"0.0": 20.9085249148,
			"0.001": 14.0893632644,
			"0.002": 9.86298885461,
			"0.003": 10.1495206196,
			"0.004": 10.8389067141,
			"0.005": 10.2585064954,
			"0.006": 5.54009502823,
			"0.007": 2.46751920564,
			"0.008": 2.24235036873,
			"0.009": 2.35109394078,
			"0.01": 2.62880611658,
			"0.011": 1.90688494171,
			"0.012": 3.64175381937,
			"0.013": 5.33997703727,
			"0.014": 1.33778279095,
			"0.015": 0.0,
			"0.016": 0.0,
			"0.017": 0.0,
			"0.018": 0.0,
			"0.019": 0.0,
			"0.02": 0.0,
			"0.021": 0.0,
			"0.022": 0.0,
			"0.023": 0.0,
			"0.024": 0.0,
			"0.025": 0.0
		}
	}
}
