{
	 "smiles": "CCCCCCCCCCCC(=O)OCCOC(=O)CCCCCCCCCCC", 
	 "Tm": 329.75, 
	 "num_atms": 80, 
	 "gaussian": { 
		 "optdone": 1, 
		 "sigma_profile": "yes", 
		 "theory": "DFT", 
		 "functional": "B3LYP", 
		 "basiset": "6-31G**", 
		 "properties": { 
			 "R2extent": 25591.8072, 
			 "electric_dipole_moment_norm": 2.17375449626, 
			 "electric_quadrupole_moment_norm": 14.5462829713, 
			 "total_energy": -1321.86881229, 
			 "HOMO_LUMO_gap": 0.2759, 
			 "cosmo_polarized_energy": -12.34, 
			 "cosmo_cavitation_energy": 77.53, 
			 "cosmo_dispersion_energy": -48.43, 
			 "cosmo_repulsion_energy": 3.92, 
			 "cosmo_total_nonelectrostatic_energy": 33.02, 
			 "SMD_solvation_energy": 12.2 
		},
		"coords": [
			{
				"x": -2.3002224157,
				"y": -6.3185333001,
				"z": -2.8976014101,
				"element": "C" 
			},
			{
				"x": -1.3283231696,
				"y": -5.5411776289,
				"z": -3.792639457,
				"element": "C" 
			},
			{
				"x": -1.9689933965,
				"y": -4.5197050476,
				"z": -4.7499148357,
				"element": "C" 
			},
			{
				"x": -2.7200151853,
				"y": -3.3473202015,
				"z": -4.0763259069,
				"element": "C" 
			},
			{
				"x": -4.2320070513,
				"y": -3.5730022081,
				"z": -3.9114128743,
				"element": "C" 
			},
			{
				"x": -4.9959869678,
				"y": -2.4928262259,
				"z": -3.1238800758,
				"element": "C" 
			},
			{
				"x": -5.018084458,
				"y": -1.0791743713,
				"z": -3.747417785,
				"element": "C" 
			},
			{
				"x": -3.8899308084,
				"y": -0.139829006,
				"z": -3.2913053026,
				"element": "C" 
			},
			{
				"x": -3.986638724,
				"y": 1.2542522621,
				"z": -3.9270152756,
				"element": "C" 
			},
			{
				"x": -2.8495852969,
				"y": 2.2176780435,
				"z": -3.5513273471,
				"element": "C" 
			},
			{
				"x": -2.8344971857,
				"y": 2.607480833,
				"z": -2.0589818265,
				"element": "C" 
			},
			{
				"x": -1.7681707433,
				"y": 3.6300820661,
				"z": -1.7314640973,
				"element": "C" 
			},
			{
				"x": -1.9642223273,
				"y": 4.7551531345,
				"z": -1.3261622441,
				"element": "O" 
			},
			{
				"x": -0.5253419959,
				"y": 3.1328044168,
				"z": -1.9607276927,
				"element": "O" 
			},
			{
				"x": 0.5630909185,
				"y": 4.0350794442,
				"z": -1.6914859435,
				"element": "C" 
			},
			{
				"x": 1.8465577439,
				"y": 3.3758560543,
				"z": -2.1335403886,
				"element": "C" 
			},
			{
				"x": 2.0753133049,
				"y": 2.2274398588,
				"z": -1.2972765951,
				"element": "O" 
			},
			{
				"x": 3.2978161118,
				"y": 1.6512498761,
				"z": -1.4030378973,
				"element": "C" 
			},
			{
				"x": 4.1652854872,
				"y": 2.0782343006,
				"z": -2.1344748836,
				"element": "O" 
			},
			{
				"x": 3.4570414379,
				"y": 0.4463607234,
				"z": -0.4937712024,
				"element": "C" 
			},
			{
				"x": 2.187694764,
				"y": -0.3886432327,
				"z": -0.1926401383,
				"element": "C" 
			},
			{
				"x": 1.5602963089,
				"y": -0.2539979252,
				"z": 1.209282058,
				"element": "C" 
			},
			{
				"x": 0.8582055949,
				"y": 1.0766674542,
				"z": 1.5536553022,
				"element": "C" 
			},
			{
				"x": 1.7086352693,
				"y": 2.2663393159,
				"z": 2.0465457432,
				"element": "C" 
			},
			{
				"x": 2.3663559949,
				"y": 2.1146549495,
				"z": 3.4375468592,
				"element": "C" 
			},
			{
				"x": 3.7992083787,
				"y": 1.5501795697,
				"z": 3.43936935,
				"element": "C" 
			},
			{
				"x": 4.4878403574,
				"y": 1.5182292308,
				"z": 4.8224696785,
				"element": "C" 
			},
			{
				"x": 4.3206344899,
				"y": 0.2234000155,
				"z": 5.6382739744,
				"element": "C" 
			},
			{
				"x": 2.8938512718,
				"y": -0.1232345576,
				"z": 6.0856215988,
				"element": "C" 
			},
			{
				"x": 2.8438554265,
				"y": -1.3521205354,
				"z": 7.0003064341,
				"element": "C" 
			},
			{
				"x": -3.0562981351,
				"y": -6.8441903689,
				"z": -3.4923501457,
				"element": "H" 
			},
			{
				"x": -2.8257635328,
				"y": -5.6611775637,
				"z": -2.1974608281,
				"element": "H" 
			},
			{
				"x": -1.7674971513,
				"y": -7.0680601446,
				"z": -2.3024563575,
				"element": "H" 
			},
			{
				"x": -0.7504632327,
				"y": -6.2570358617,
				"z": -4.3918488497,
				"element": "H" 
			},
			{
				"x": -0.5964500777,
				"y": -5.0197183302,
				"z": -3.1601820656,
				"element": "H" 
			},
			{
				"x": -2.650872298,
				"y": -5.0413506609,
				"z": -5.4366823578,
				"element": "H" 
			},
			{
				"x": -1.1675613893,
				"y": -4.1136621768,
				"z": -5.3796442513,
				"element": "H" 
			},
			{
				"x": -2.2679086227,
				"y": -3.1390202319,
				"z": -3.0956930709,
				"element": "H" 
			},
			{
				"x": -2.5654545861,
				"y": -2.4416941909,
				"z": -4.6744906236,
				"element": "H" 
			},
			{
				"x": -4.6813125153,
				"y": -3.6660362176,
				"z": -4.9108114612,
				"element": "H" 
			},
			{
				"x": -4.4037102966,
				"y": -4.537364088,
				"z": -3.4188556772,
				"element": "H" 
			},
			{
				"x": -4.5951201311,
				"y": -2.4329336538,
				"z": -2.1017773628,
				"element": "H" 
			},
			{
				"x": -6.0306248883,
				"y": -2.8413641758,
				"z": -3.0150782308,
				"element": "H" 
			},
			{
				"x": -5.9735053795,
				"y": -0.5977962121,
				"z": -3.4995173164,
				"element": "H" 
			},
			{
				"x": -5.005553541,
				"y": -1.1631086639,
				"z": -4.8437204716,
				"element": "H" 
			},
			{
				"x": -2.9111111061,
				"y": -0.5750694052,
				"z": -3.5277658846,
				"element": "H" 
			},
			{
				"x": -3.928744216,
				"y": -0.0577180574,
				"z": -2.1966741853,
				"element": "H" 
			},
			{
				"x": -3.9946426341,
				"y": 1.1440462844,
				"z": -5.0197065319,
				"element": "H" 
			},
			{
				"x": -4.9516604067,
				"y": 1.7101004843,
				"z": -3.6632978143,
				"element": "H" 
			},
			{
				"x": -1.8824526553,
				"y": 1.7728780193,
				"z": -3.8127416305,
				"element": "H" 
			},
			{
				"x": -2.9460318582,
				"y": 3.1314115031,
				"z": -4.1510076996,
				"element": "H" 
			},
			{
				"x": -2.654540508,
				"y": 1.7197831528,
				"z": -1.4423526771,
				"element": "H" 
			},
			{
				"x": -3.7936509595,
				"y": 3.0402801881,
				"z": -1.7623370535,
				"element": "H" 
			},
			{
				"x": 0.5863836021,
				"y": 4.2715863642,
				"z": -0.6234433867,
				"element": "H" 
			},
			{
				"x": 0.4117883974,
				"y": 4.9698653756,
				"z": -2.2408954174,
				"element": "H" 
			},
			{
				"x": 2.683534088,
				"y": 4.0742259291,
				"z": -2.0391308934,
				"element": "H" 
			},
			{
				"x": 1.7888223094,
				"y": 3.0558971759,
				"z": -3.1788516129,
				"element": "H" 
			},
			{
				"x": 3.9092220842,
				"y": 0.8128764691,
				"z": 0.4364707864,
				"element": "H" 
			},
			{
				"x": 4.2269285217,
				"y": -0.1650886482,
				"z": -0.9720018236,
				"element": "H" 
			},
			{
				"x": 2.4533631016,
				"y": -1.4438764728,
				"z": -0.3258341046,
				"element": "H" 
			},
			{
				"x": 1.4229921862,
				"y": -0.1730571484,
				"z": -0.9466759287,
				"element": "H" 
			},
			{
				"x": 2.3120433442,
				"y": -0.4980853562,
				"z": 1.9700439044,
				"element": "H" 
			},
			{
				"x": 0.8066008283,
				"y": -1.0488571081,
				"z": 1.2839695713,
				"element": "H" 
			},
			{
				"x": 0.113428153,
				"y": 0.8690896901,
				"z": 2.3344977017,
				"element": "H" 
			},
			{
				"x": 0.2900906958,
				"y": 1.4013446482,
				"z": 0.6731098595,
				"element": "H" 
			},
			{
				"x": 2.4695084181,
				"y": 2.5324351932,
				"z": 1.3041515318,
				"element": "H" 
			},
			{
				"x": 1.0324514595,
				"y": 3.1304588636,
				"z": 2.0874470655,
				"element": "H" 
			},
			{
				"x": 1.7143573795,
				"y": 1.5134849519,
				"z": 4.0830194146,
				"element": "H" 
			},
			{
				"x": 2.4116519329,
				"y": 3.1058393458,
				"z": 3.9084698066,
				"element": "H" 
			},
			{
				"x": 3.8222779889,
				"y": 0.5415952526,
				"z": 3.0070179733,
				"element": "H" 
			},
			{
				"x": 4.3987370734,
				"y": 2.1765839007,
				"z": 2.764531556,
				"element": "H" 
			},
			{
				"x": 4.1414077464,
				"y": 2.3740029279,
				"z": 5.4195133922,
				"element": "H" 
			},
			{
				"x": 5.5643470516,
				"y": 1.6742036229,
				"z": 4.6784014818,
				"element": "H" 
			},
			{
				"x": 4.9547715765,
				"y": 0.2998880272,
				"z": 6.532777228,
				"element": "H" 
			},
			{
				"x": 4.7259741212,
				"y": -0.6179621806,
				"z": 5.0572368486,
				"element": "H" 
			},
			{
				"x": 2.4556370021,
				"y": 0.7393167551,
				"z": 6.6062451849,
				"element": "H" 
			},
			{
				"x": 2.2609559535,
				"y": -0.3043235289,
				"z": 5.2083117667,
				"element": "H" 
			},
			{
				"x": 3.4315503144,
				"y": -1.1916749054,
				"z": 7.9115155188,
				"element": "H" 
			},
			{
				"x": 3.2519495234,
				"y": -2.2367925991,
				"z": 6.4978251629,
				"element": "H" 
			},
			{
				"x": 1.8178921332,
				"y": -1.5862534825,
				"z": 7.3029621402,
				"element": "H" 
			}
		],
		 "valence_orbital": [ 
			{
				"type": "occ",
				"energy": -0.29856,
				"method": "rhf"
			},
			{
				"type": "occ",
				"energy": -0.29751,
				"method": "rhf"
			},
			{
				"type": "occ",
				"energy": -0.29617,
				"method": "rhf"
			},
			{
				"type": "occ",
				"energy": -0.26955,
				"method": "rhf"
			},
			{
				"type": "occ",
				"energy": -0.26636,
				"method": "rhf"
			},
			{
				"type": "unocc",
				"energy": 0.00954,
				"method": "rhf"
			},
			{
				"type": "unocc",
				"energy": 0.01193,
				"method": "rhf"
			},
			{
				"type": "unocc",
				"energy": 0.07123,
				"method": "rhf"
			},
			{
				"type": "unocc",
				"energy": 0.07826,
				"method": "rhf"
			},
			{
				"type": "unocc",
				"energy": 0.08192,
				"method": "rhf"
			}
		],
		"cosmo_sigma_profile": { 
			"-0.025": 0.0,
			"-0.024": 0.0,
			"-0.023": 0.0,
			"-0.022": 0.0,
			"-0.021": 0.0,
			"-0.02": 0.0,
			"-0.019": 0.0,
			"-0.018": 0.0,
			"-0.017": 0.0,
			"-0.016": 0.0,
			"-0.015": 0.0,
			"-0.014": 0.0,
			"-0.013": 0.0,
			"-0.012": 0.0,
			"-0.011": 0.0,
			"-0.01": 0.0,
			"-0.009": 0.0,
			"-0.008": 0.0267399667466,
			"-0.007": 4.78956220207,
			"-0.006": 9.45959537839,
			"-0.005": 12.7886504227,
			"-0.004": 19.1444612672,
			"-0.003": 33.5391882315,
			"-0.002": 78.4042036861,
			"-0.001": 126.862961299,
			"0.0": 120.805190179,
			"0.001": 91.3117712422,
			"0.002": 43.3138949109,
			"0.003": 7.32607430473,
			"0.004": 5.4959147727,
			"0.005": 4.505768228,
			"0.006": 4.56448457333,
			"0.007": 3.6373228909,
			"0.008": 3.98725406318,
			"0.009": 3.32612068299,
			"0.01": 3.9465463677,
			"0.011": 4.7766047149,
			"0.012": 10.0379063152,
			"0.013": 3.22806285548,
			"0.014": 0.1707683948,
			"0.015": 0.0,
			"0.016": 0.0,
			"0.017": 0.0,
			"0.018": 0.0,
			"0.019": 0.0,
			"0.02": 0.0,
			"0.021": 0.0,
			"0.022": 0.0,
			"0.023": 0.0,
			"0.024": 0.0,
			"0.025": 0.0
		}
	}
}
