{
	 "smiles": "CCCN1C(C)=CC(C=O)=C1C", 
	 "Tm": 326.15, 
	 "num_atms": 27, 
	 "gaussian": { 
		 "optdone": 1, 
		 "sigma_profile": "yes", 
		 "theory": "DFT", 
		 "functional": "B3LYP", 
		 "basiset": "6-31G**", 
		 "properties": { 
			 "R2extent": 2532.0057, 
			 "electric_dipole_moment_norm": 5.35332893254, 
			 "electric_quadrupole_moment_norm": 10.511765639, 
			 "total_energy": -520.088657378, 
			 "HOMO_LUMO_gap": 0.18174, 
			 "cosmo_polarized_energy": -10.29, 
			 "cosmo_cavitation_energy": 28.67, 
			 "cosmo_dispersion_energy": -20.25, 
			 "cosmo_repulsion_energy": 1.61, 
			 "cosmo_total_nonelectrostatic_energy": 10.03, 
			 "SMD_solvation_energy": 5.9 
		},
		"coords": [
			{
				"x": -0.7261399829,
				"y": -2.102973501,
				"z": -1.1191250371,
				"element": "C" 
			},
			{
				"x": -0.8108423965,
				"y": -1.019510172,
				"z": -2.1971703468,
				"element": "C" 
			},
			{
				"x": 0.1413748302,
				"y": 0.1712318173,
				"z": -1.9867593915,
				"element": "C" 
			},
			{
				"x": -0.1119793712,
				"y": 0.9444803121,
				"z": -0.7712407078,
				"element": "N" 
			},
			{
				"x": -1.1380372089,
				"y": 1.8873253608,
				"z": -0.6293541342,
				"element": "C" 
			},
			{
				"x": -2.069803555,
				"y": 2.2515865851,
				"z": -1.741213857,
				"element": "C" 
			},
			{
				"x": -1.0636192822,
				"y": 2.3844543916,
				"z": 0.6454091285,
				"element": "C" 
			},
			{
				"x": 0.0319537899,
				"y": 1.7452372688,
				"z": 1.3089040364,
				"element": "C" 
			},
			{
				"x": 0.4481411921,
				"y": 2.0079445651,
				"z": 2.6766699355,
				"element": "C" 
			},
			{
				"x": 1.3842662976,
				"y": 1.4880496743,
				"z": 3.2728098244,
				"element": "O" 
			},
			{
				"x": 0.6074777267,
				"y": 0.8565212783,
				"z": 0.3965552864,
				"element": "C" 
			},
			{
				"x": 1.806004286,
				"y": -0.0201594077,
				"z": 0.5747200185,
				"element": "C" 
			},
			{
				"x": -0.9540216525,
				"y": -1.6986014193,
				"z": -0.1281220003,
				"element": "H" 
			},
			{
				"x": 0.2729559739,
				"y": -2.5509987753,
				"z": -1.0805442746,
				"element": "H" 
			},
			{
				"x": -1.4404438719,
				"y": -2.9068135318,
				"z": -1.3220892091,
				"element": "H" 
			},
			{
				"x": -0.5735972862,
				"y": -1.4511632084,
				"z": -3.1780552952,
				"element": "H" 
			},
			{
				"x": -1.8401243183,
				"y": -0.6502877958,
				"z": -2.2674170126,
				"element": "H" 
			},
			{
				"x": 0.0722487673,
				"y": 0.8511555821,
				"z": -2.84226139,
				"element": "H" 
			},
			{
				"x": 1.1750857823,
				"y": -0.1813613455,
				"z": -1.9453974409,
				"element": "H" 
			},
			{
				"x": -1.5390141928,
				"y": 2.6052211656,
				"z": -2.6344133359,
				"element": "H" 
			},
			{
				"x": -2.7209909044,
				"y": 3.063004479,
				"z": -1.4077129288,
				"element": "H" 
			},
			{
				"x": -2.7144883137,
				"y": 1.4213935992,
				"z": -2.0542958131,
				"element": "H" 
			},
			{
				"x": -1.7160052542,
				"y": 3.1376951773,
				"z": 1.0673570701,
				"element": "H" 
			},
			{
				"x": -0.1814869862,
				"y": 2.7681674294,
				"z": 3.1933511279,
				"element": "H" 
			},
			{
				"x": 1.5717364367,
				"y": -1.0822931002,
				"z": 0.4423911356,
				"element": "H" 
			},
			{
				"x": 2.6059370298,
				"y": 0.2319167223,
				"z": -0.1334552185,
				"element": "H" 
			},
			{
				"x": 2.1832124643,
				"y": 0.1284768485,
				"z": 1.5867598304,
				"element": "H" 
			}
		],
		 "valence_orbital": [ 
			{
				"type": "occ",
				"energy": -0.34687,
				"method": "rhf"
			},
			{
				"type": "occ",
				"energy": -0.3392,
				"method": "rhf"
			},
			{
				"type": "occ",
				"energy": -0.2403,
				"method": "rhf"
			},
			{
				"type": "occ",
				"energy": -0.22947,
				"method": "rhf"
			},
			{
				"type": "occ",
				"energy": -0.20469,
				"method": "rhf"
			},
			{
				"type": "unocc",
				"energy": -0.02295,
				"method": "rhf"
			},
			{
				"type": "unocc",
				"energy": 0.03841,
				"method": "rhf"
			},
			{
				"type": "unocc",
				"energy": 0.07168,
				"method": "rhf"
			},
			{
				"type": "unocc",
				"energy": 0.09206,
				"method": "rhf"
			},
			{
				"type": "unocc",
				"energy": 0.10953,
				"method": "rhf"
			}
		],
		"cosmo_sigma_profile": { 
			"-0.025": 0.0,
			"-0.024": 0.0,
			"-0.023": 0.0,
			"-0.022": 0.0,
			"-0.021": 0.0,
			"-0.02": 0.0,
			"-0.019": 0.0,
			"-0.018": 0.0,
			"-0.017": 0.0,
			"-0.016": 0.0,
			"-0.015": 0.0,
			"-0.014": 0.0,
			"-0.013": 0.0,
			"-0.012": 0.0,
			"-0.011": 0.0,
			"-0.01": 0.0,
			"-0.009": 0.0,
			"-0.008": 0.0,
			"-0.007": 0.0278971153352,
			"-0.006": 4.24851064072,
			"-0.005": 15.745298104,
			"-0.004": 25.5801097171,
			"-0.003": 28.4033946114,
			"-0.002": 25.477988058,
			"-0.001": 27.1788232501,
			"0.0": 26.1983945374,
			"0.001": 15.3326562872,
			"0.002": 8.25529521713,
			"0.003": 8.51093203346,
			"0.004": 7.05705773412,
			"0.005": 6.73104617356,
			"0.006": 5.71772543232,
			"0.007": 4.43513750769,
			"0.008": 1.791799583,
			"0.009": 1.92130939016,
			"0.01": 1.75453143853,
			"0.011": 2.082134844,
			"0.012": 3.28358833336,
			"0.013": 3.22849031863,
			"0.014": 1.75331786961,
			"0.015": 0.389721797092,
			"0.016": 0.0,
			"0.017": 0.0,
			"0.018": 0.0,
			"0.019": 0.0,
			"0.02": 0.0,
			"0.021": 0.0,
			"0.022": 0.0,
			"0.023": 0.0,
			"0.024": 0.0,
			"0.025": 0.0
		}
	}
}
