{
	 "smiles": "OC(C(O)C1CCCCC1)C1CCCCC1", 
	 "Tm": 411.15, 
	 "num_atms": 42, 
	 "gaussian": { 
		 "optdone": 1, 
		 "sigma_profile": "yes", 
		 "theory": "DFT", 
		 "functional": "B3LYP", 
		 "basiset": "6-31G**", 
		 "properties": { 
			 "R2extent": 4923.4396, 
			 "electric_dipole_moment_norm": 0.133749616822, 
			 "electric_quadrupole_moment_norm": 5.43885593852, 
			 "total_energy": -699.630128353, 
			 "HOMO_LUMO_gap": 0.3129, 
			 "cosmo_polarized_energy": -8.0, 
			 "cosmo_cavitation_energy": 38.21, 
			 "cosmo_dispersion_energy": -27.31, 
			 "cosmo_repulsion_energy": 2.15, 
			 "cosmo_total_nonelectrostatic_energy": 13.05, 
			 "SMD_solvation_energy": 4.6 
		},
		"coords": [
			{
				"x": -2.5593611682,
				"y": -0.9307265181,
				"z": -0.7705728905,
				"element": "O" 
			},
			{
				"x": -1.1671807101,
				"y": -0.6150048364,
				"z": -0.6005623685,
				"element": "C" 
			},
			{
				"x": -1.0882220384,
				"y": 0.6992519007,
				"z": 0.2162513945,
				"element": "C" 
			},
			{
				"x": -2.0058444458,
				"y": 1.6534797739,
				"z": -0.3354434778,
				"element": "O" 
			},
			{
				"x": 0.2895107285,
				"y": 1.3759721708,
				"z": 0.3046850496,
				"element": "C" 
			},
			{
				"x": 0.8017609587,
				"y": 1.8962359448,
				"z": -1.0548705967,
				"element": "C" 
			},
			{
				"x": 2.1621150158,
				"y": 2.6002567125,
				"z": -0.9252904856,
				"element": "C" 
			},
			{
				"x": 2.1200175047,
				"y": 3.7352671393,
				"z": 0.107428145,
				"element": "C" 
			},
			{
				"x": 1.6223019214,
				"y": 3.2239397877,
				"z": 1.4668030327,
				"element": "C" 
			},
			{
				"x": 0.2629420418,
				"y": 2.5212096828,
				"z": 1.3392400769,
				"element": "C" 
			},
			{
				"x": -0.442273871,
				"y": -1.8062107714,
				"z": 0.080090123,
				"element": "C" 
			},
			{
				"x": -1.249095711,
				"y": -3.1209315106,
				"z": 0.0338684007,
				"element": "C" 
			},
			{
				"x": -0.5038082698,
				"y": -4.2643241592,
				"z": 0.7398111786,
				"element": "C" 
			},
			{
				"x": 0.8988861645,
				"y": -4.4832453033,
				"z": 0.1552097988,
				"element": "C" 
			},
			{
				"x": 1.7116771903,
				"y": -3.1808983159,
				"z": 0.168692633,
				"element": "C" 
			},
			{
				"x": 0.9567723151,
				"y": -2.0404339495,
				"z": -0.5306934263,
				"element": "C" 
			},
			{
				"x": -2.8864238308,
				"y": -0.3263321646,
				"z": -1.4486762748,
				"element": "H" 
			},
			{
				"x": -0.7276613584,
				"y": -0.4497870597,
				"z": -1.5948884439,
				"element": "H" 
			},
			{
				"x": -1.4080603881,
				"y": 0.4452511738,
				"z": 1.2408617353,
				"element": "H" 
			},
			{
				"x": -2.8886914764,
				"y": 1.3493020939,
				"z": -0.0899715634,
				"element": "H" 
			},
			{
				"x": 0.9975592176,
				"y": 0.6187537344,
				"z": 0.6723128822,
				"element": "H" 
			},
			{
				"x": 0.0606221328,
				"y": 2.5946859778,
				"z": -1.4619126016,
				"element": "H" 
			},
			{
				"x": 0.8838423811,
				"y": 1.0740293593,
				"z": -1.7755827973,
				"element": "H" 
			},
			{
				"x": 2.923495864,
				"y": 1.8665942386,
				"z": -0.6221690464,
				"element": "H" 
			},
			{
				"x": 2.476447179,
				"y": 2.9855588473,
				"z": -1.9029241524,
				"element": "H" 
			},
			{
				"x": 3.1108442564,
				"y": 4.194235564,
				"z": 0.2106247876,
				"element": "H" 
			},
			{
				"x": 1.4442462435,
				"y": 4.5247180956,
				"z": -0.2510271657,
				"element": "H" 
			},
			{
				"x": 2.3597807968,
				"y": 2.5194918772,
				"z": 1.8785850153,
				"element": "H" 
			},
			{
				"x": 1.5508585397,
				"y": 4.0511866805,
				"z": 2.1834800769,
				"element": "H" 
			},
			{
				"x": -0.0492334651,
				"y": 2.1271480705,
				"z": 2.3154227407,
				"element": "H" 
			},
			{
				"x": -0.5025056406,
				"y": 3.2452543977,
				"z": 1.0344841759,
				"element": "H" 
			},
			{
				"x": -0.3021012605,
				"y": -1.5554863044,
				"z": 1.1443013781,
				"element": "H" 
			},
			{
				"x": -2.2329456738,
				"y": -2.971104154,
				"z": 0.4856028554,
				"element": "H" 
			},
			{
				"x": -1.4342024404,
				"y": -3.3924903984,
				"z": -1.013970821,
				"element": "H" 
			},
			{
				"x": -0.4150401543,
				"y": -4.031431823,
				"z": 1.8110685977,
				"element": "H" 
			},
			{
				"x": -1.0917606827,
				"y": -5.1878303167,
				"z": 0.6729680982,
				"element": "H" 
			},
			{
				"x": 1.4273556622,
				"y": -5.2689967121,
				"z": 0.7086645691,
				"element": "H" 
			},
			{
				"x": 0.8065736381,
				"y": -4.8390394229,
				"z": -0.8809900988,
				"element": "H" 
			},
			{
				"x": 1.9177734765,
				"y": -2.8925338553,
				"z": 1.2095419774,
				"element": "H" 
			},
			{
				"x": 2.6869838118,
				"y": -3.3328269176,
				"z": -0.3094751954,
				"element": "H" 
			},
			{
				"x": 1.5553382329,
				"y": -1.1229453652,
				"z": -0.4968398621,
				"element": "H" 
			},
			{
				"x": 0.8336073121,
				"y": -2.2884433648,
				"z": -1.5953374546,
				"element": "H" 
			}
		],
		 "valence_orbital": [ 
			{
				"type": "occ",
				"energy": -0.2962,
				"method": "rhf"
			},
			{
				"type": "occ",
				"energy": -0.29055,
				"method": "rhf"
			},
			{
				"type": "occ",
				"energy": -0.28787,
				"method": "rhf"
			},
			{
				"type": "occ",
				"energy": -0.28203,
				"method": "rhf"
			},
			{
				"type": "occ",
				"energy": -0.24943,
				"method": "rhf"
			},
			{
				"type": "unocc",
				"energy": 0.06347,
				"method": "rhf"
			},
			{
				"type": "unocc",
				"energy": 0.07914,
				"method": "rhf"
			},
			{
				"type": "unocc",
				"energy": 0.09117,
				"method": "rhf"
			},
			{
				"type": "unocc",
				"energy": 0.09654,
				"method": "rhf"
			},
			{
				"type": "unocc",
				"energy": 0.11114,
				"method": "rhf"
			}
		],
		"cosmo_sigma_profile": { 
			"-0.025": 0.0,
			"-0.024": 0.0,
			"-0.023": 0.0,
			"-0.022": 0.0,
			"-0.021": 0.0,
			"-0.02": 0.0,
			"-0.019": 0.0,
			"-0.018": 0.0,
			"-0.017": 0.0,
			"-0.016": 0.0,
			"-0.015": 0.146044384477,
			"-0.014": 1.70056283665,
			"-0.013": 1.83829717015,
			"-0.012": 2.12725244448,
			"-0.011": 1.11164434346,
			"-0.01": 1.29684547442,
			"-0.009": 1.49322879777,
			"-0.008": 1.54331162872,
			"-0.007": 1.47778179172,
			"-0.006": 1.36356800183,
			"-0.005": 1.9399324967,
			"-0.004": 1.9502549533,
			"-0.003": 8.90178614338,
			"-0.002": 40.8998629348,
			"-0.001": 62.3361392645,
			"0.0": 58.6906944457,
			"0.001": 50.4558258029,
			"0.002": 19.5647956421,
			"0.003": 3.31049241163,
			"0.004": 3.79254455607,
			"0.005": 2.13000792447,
			"0.006": 3.76525668706,
			"0.007": 3.25506636133,
			"0.008": 2.72397733595,
			"0.009": 2.72523070289,
			"0.01": 2.1071381252,
			"0.011": 3.10973638158,
			"0.012": 2.88536813536,
			"0.013": 2.17834368381,
			"0.014": 0.109924314684,
			"0.015": 0.0,
			"0.016": 0.0,
			"0.017": 0.0,
			"0.018": 0.0,
			"0.019": 0.0,
			"0.02": 0.0,
			"0.021": 0.0,
			"0.022": 0.0,
			"0.023": 0.0,
			"0.024": 0.0,
			"0.025": 0.0
		}
	}
}
