{
	 "smiles": "CC1(NC(=O)NC1=O)C1=CC(=CC=C1)C(N)=O", 
	 "Tm": 499.15, 
	 "num_atms": 28, 
	 "gaussian": { 
		 "optdone": 1, 
		 "sigma_profile": "yes", 
		 "theory": "DFT", 
		 "functional": "B3LYP", 
		 "basiset": "6-31G**", 
		 "properties": { 
			 "R2extent": 5279.9725, 
			 "electric_dipole_moment_norm": 2.11888588414, 
			 "electric_quadrupole_moment_norm": 22.7337942548, 
			 "total_energy": -815.790416772, 
			 "HOMO_LUMO_gap": 0.20786, 
			 "cosmo_polarized_energy": -24.26, 
			 "cosmo_cavitation_energy": 32.62, 
			 "cosmo_dispersion_energy": -23.0, 
			 "cosmo_repulsion_energy": 1.8, 
			 "cosmo_total_nonelectrostatic_energy": 11.42, 
			 "SMD_solvation_energy": 8.02 
		},
		"coords": [
			{
				"x": 0.6837863029,
				"y": -0.0254769872,
				"z": -1.412714753,
				"element": "C" 
			},
			{
				"x": 0.3939023476,
				"y": -0.8433382574,
				"z": -0.1359712155,
				"element": "C" 
			},
			{
				"x": 0.4352718468,
				"y": -2.2800972605,
				"z": -0.4024639228,
				"element": "N" 
			},
			{
				"x": -0.7931494278,
				"y": -2.8933775315,
				"z": -0.3332102727,
				"element": "C" 
			},
			{
				"x": -1.0845428029,
				"y": -4.0368771793,
				"z": -0.6085171499,
				"element": "O" 
			},
			{
				"x": -1.6801187428,
				"y": -1.900528166,
				"z": 0.1360363197,
				"element": "N" 
			},
			{
				"x": -1.0988366838,
				"y": -0.6610455303,
				"z": 0.2591979615,
				"element": "C" 
			},
			{
				"x": -1.6404314973,
				"y": 0.3738465266,
				"z": 0.5897830009,
				"element": "O" 
			},
			{
				"x": 1.3051863288,
				"y": -0.4187269255,
				"z": 1.0219644392,
				"element": "C" 
			},
			{
				"x": 1.2390616004,
				"y": 0.8962158628,
				"z": 1.5014042141,
				"element": "C" 
			},
			{
				"x": 2.0643812876,
				"y": 1.3205253824,
				"z": 2.5473787004,
				"element": "C" 
			},
			{
				"x": 2.9945984502,
				"y": 0.4306219898,
				"z": 3.0995390739,
				"element": "C" 
			},
			{
				"x": 3.0599347065,
				"y": -0.8782920127,
				"z": 2.6336453219,
				"element": "C" 
			},
			{
				"x": 2.2130262334,
				"y": -1.306523291,
				"z": 1.6071815226,
				"element": "C" 
			},
			{
				"x": 2.0110935682,
				"y": 2.7137794118,
				"z": 3.1121869713,
				"element": "C" 
			},
			{
				"x": 0.8689549826,
				"y": 3.4298937973,
				"z": 2.8486580868,
				"element": "N" 
			},
			{
				"x": 2.9407203487,
				"y": 3.1862159363,
				"z": 3.7549619318,
				"element": "O" 
			},
			{
				"x": 0.5275237225,
				"y": 1.0392162986,
				"z": -1.2293650264,
				"element": "H" 
			},
			{
				"x": 1.7232578104,
				"y": -0.1724895423,
				"z": -1.7212045142,
				"element": "H" 
			},
			{
				"x": 0.0240499398,
				"y": -0.3392379554,
				"z": -2.2272892613,
				"element": "H" 
			},
			{
				"x": 1.1659881192,
				"y": -2.7200334061,
				"z": -0.9416960595,
				"element": "H" 
			},
			{
				"x": -2.6579483972,
				"y": -2.08899739,
				"z": 0.3057977768,
				"element": "H" 
			},
			{
				"x": 0.5326413442,
				"y": 1.5838262317,
				"z": 1.0517776725,
				"element": "H" 
			},
			{
				"x": 3.644048276,
				"y": 0.7878273259,
				"z": 3.8913214009,
				"element": "H" 
			},
			{
				"x": 3.7676311189,
				"y": -1.5764424168,
				"z": 3.0709282517,
				"element": "H" 
			},
			{
				"x": 2.2549689984,
				"y": -2.3356436837,
				"z": 1.2673125391,
				"element": "H" 
			},
			{
				"x": 0.0080870808,
				"y": 2.9588243955,
				"z": 2.6156472404,
				"element": "H" 
			},
			{
				"x": 0.7929131381,
				"y": 4.3156343769,
				"z": 3.3276097498,
				"element": "H" 
			}
		],
		 "valence_orbital": [ 
			{
				"type": "occ",
				"energy": -0.27526,
				"method": "rhf"
			},
			{
				"type": "occ",
				"energy": -0.27265,
				"method": "rhf"
			},
			{
				"type": "occ",
				"energy": -0.26417,
				"method": "rhf"
			},
			{
				"type": "occ",
				"energy": -0.25919,
				"method": "rhf"
			},
			{
				"type": "occ",
				"energy": -0.24905,
				"method": "rhf"
			},
			{
				"type": "unocc",
				"energy": -0.04119,
				"method": "rhf"
			},
			{
				"type": "unocc",
				"energy": -0.03035,
				"method": "rhf"
			},
			{
				"type": "unocc",
				"energy": -0.00775,
				"method": "rhf"
			},
			{
				"type": "unocc",
				"energy": 0.04705,
				"method": "rhf"
			},
			{
				"type": "unocc",
				"energy": 0.05687,
				"method": "rhf"
			}
		],
		"cosmo_sigma_profile": { 
			"-0.025": 0.0,
			"-0.024": 0.0,
			"-0.023": 0.0,
			"-0.022": 0.0,
			"-0.021": 0.0,
			"-0.02": 0.0,
			"-0.019": 0.0,
			"-0.018": 0.0,
			"-0.017": 0.711104993138,
			"-0.016": 1.45299460837,
			"-0.015": 2.24562247527,
			"-0.014": 2.17699418899,
			"-0.013": 3.97432502146,
			"-0.012": 4.47909633164,
			"-0.011": 5.11869766177,
			"-0.01": 3.79888372137,
			"-0.009": 4.31682080218,
			"-0.008": 4.89699872625,
			"-0.007": 5.5204857748,
			"-0.006": 12.052320161,
			"-0.005": 16.1199321284,
			"-0.004": 15.6129982974,
			"-0.003": 15.5178768499,
			"-0.002": 16.8610684764,
			"-0.001": 18.5526427586,
			"0.0": 13.4246538469,
			"0.001": 12.3123939774,
			"0.002": 13.9525355699,
			"0.003": 13.3829201488,
			"0.004": 13.2939150144,
			"0.005": 5.8666031046,
			"0.006": 4.96216388372,
			"0.007": 4.09686138896,
			"0.008": 4.17326296425,
			"0.009": 3.88850027013,
			"0.01": 5.10134738851,
			"0.011": 7.14082683111,
			"0.012": 9.61272827661,
			"0.013": 10.2965947886,
			"0.014": 3.92575613355,
			"0.015": 0.226205203698,
			"0.016": 0.0,
			"0.017": 0.0,
			"0.018": 0.0,
			"0.019": 0.0,
			"0.02": 0.0,
			"0.021": 0.0,
			"0.022": 0.0,
			"0.023": 0.0,
			"0.024": 0.0,
			"0.025": 0.0
		}
	}
}
