{
	 "smiles": "C1CCC2=CC=CC=C2C1", 
	 "Tm": 239.65, 
	 "num_atms": 22, 
	 "gaussian": { 
		 "optdone": 1, 
		 "sigma_profile": "yes", 
		 "theory": "DFT", 
		 "functional": "B3LYP", 
		 "basiset": "6-31G**", 
		 "properties": { 
			 "R2extent": 1634.986, 
			 "electric_dipole_moment_norm": 0.612517346693, 
			 "electric_quadrupole_moment_norm": 3.98438588618, 
			 "total_energy": -388.316025575, 
			 "HOMO_LUMO_gap": 0.23253, 
			 "cosmo_polarized_energy": -2.94, 
			 "cosmo_cavitation_energy": 23.21, 
			 "cosmo_dispersion_energy": -17.7, 
			 "cosmo_repulsion_energy": 1.43, 
			 "cosmo_total_nonelectrostatic_energy": 6.94, 
			 "SMD_solvation_energy": 3.07 
		},
		"coords": [
			{
				"x": 1.4491826281,
				"y": 1.9188177107,
				"z": -0.1625072982,
				"element": "C" 
			},
			{
				"x": 1.6646026867,
				"y": 1.0371464449,
				"z": 1.0724404551,
				"element": "C" 
			},
			{
				"x": 0.3326183742,
				"y": 0.7989719549,
				"z": 1.7947283743,
				"element": "C" 
			},
			{
				"x": -0.7972215731,
				"y": 0.3967591886,
				"z": 0.8607838114,
				"element": "C" 
			},
			{
				"x": -1.9581354937,
				"y": -0.1850125246,
				"z": 1.391485639,
				"element": "C" 
			},
			{
				"x": -3.0310362072,
				"y": -0.5392138128,
				"z": 0.5780688226,
				"element": "C" 
			},
			{
				"x": -2.9549780895,
				"y": -0.3123554686,
				"z": -0.7983960326,
				"element": "C" 
			},
			{
				"x": -1.8067812367,
				"y": 0.2629489318,
				"z": -1.335877638,
				"element": "C" 
			},
			{
				"x": -0.7192650942,
				"y": 0.62209163,
				"z": -0.5258492575,
				"element": "C" 
			},
			{
				"x": 0.5266944744,
				"y": 1.2136849362,
				"z": -1.1647266146,
				"element": "C" 
			},
			{
				"x": 2.4046040534,
				"y": 2.1608841566,
				"z": -0.6417241653,
				"element": "H" 
			},
			{
				"x": 1.0005775637,
				"y": 2.8723777645,
				"z": 0.1478318246,
				"element": "H" 
			},
			{
				"x": 2.3845430352,
				"y": 1.4958350182,
				"z": 1.7597316938,
				"element": "H" 
			},
			{
				"x": 2.094405557,
				"y": 0.0757434385,
				"z": 0.7596918841,
				"element": "H" 
			},
			{
				"x": 0.0435908087,
				"y": 1.7221597394,
				"z": 2.3190511007,
				"element": "H" 
			},
			{
				"x": 0.4508958972,
				"y": 0.0381862633,
				"z": 2.5758932721,
				"element": "H" 
			},
			{
				"x": -2.0147114384,
				"y": -0.360649714,
				"z": 2.4638697513,
				"element": "H" 
			},
			{
				"x": -3.9190581666,
				"y": -0.9896525861,
				"z": 1.0126447484,
				"element": "H" 
			},
			{
				"x": -3.7846704812,
				"y": -0.5808224211,
				"z": -1.4463697849,
				"element": "H" 
			},
			{
				"x": -1.744862772,
				"y": 0.440733006,
				"z": -2.4076105595,
				"element": "H" 
			},
			{
				"x": 1.0885065183,
				"y": 0.404464733,
				"z": -1.6548859692,
				"element": "H" 
			},
			{
				"x": 0.2354989554,
				"y": 1.9019016106,
				"z": -1.9675740575,
				"element": "H" 
			}
		],
		 "valence_orbital": [ 
			{
				"type": "occ",
				"energy": -0.32868,
				"method": "rhf"
			},
			{
				"type": "occ",
				"energy": -0.30902,
				"method": "rhf"
			},
			{
				"type": "occ",
				"energy": -0.30368,
				"method": "rhf"
			},
			{
				"type": "occ",
				"energy": -0.23519,
				"method": "rhf"
			},
			{
				"type": "occ",
				"energy": -0.22828,
				"method": "rhf"
			},
			{
				"type": "unocc",
				"energy": 0.00425,
				"method": "rhf"
			},
			{
				"type": "unocc",
				"energy": 0.01021,
				"method": "rhf"
			},
			{
				"type": "unocc",
				"energy": 0.09515,
				"method": "rhf"
			},
			{
				"type": "unocc",
				"energy": 0.10847,
				"method": "rhf"
			},
			{
				"type": "unocc",
				"energy": 0.1248,
				"method": "rhf"
			}
		],
		"cosmo_sigma_profile": { 
			"-0.025": 0.0,
			"-0.024": 0.0,
			"-0.023": 0.0,
			"-0.022": 0.0,
			"-0.021": 0.0,
			"-0.02": 0.0,
			"-0.019": 0.0,
			"-0.018": 0.0,
			"-0.017": 0.0,
			"-0.016": 0.0,
			"-0.015": 0.0,
			"-0.014": 0.0,
			"-0.013": 0.0,
			"-0.012": 0.0,
			"-0.011": 0.0,
			"-0.01": 0.0,
			"-0.009": 0.0,
			"-0.008": 0.0,
			"-0.007": 0.0,
			"-0.006": 0.164448378139,
			"-0.005": 5.36660490118,
			"-0.004": 8.61209844163,
			"-0.003": 21.739873085,
			"-0.002": 28.7690114457,
			"-0.001": 29.7916491113,
			"0.0": 26.7955629723,
			"0.001": 17.0130158173,
			"0.002": 8.02065969857,
			"0.003": 6.1779980272,
			"0.004": 7.6577056108,
			"0.005": 6.8667675214,
			"0.006": 7.24024627375,
			"0.007": 6.64273436257,
			"0.008": 1.06848886615,
			"0.009": 0.0,
			"0.01": 0.0,
			"0.011": 0.0,
			"0.012": 0.0,
			"0.013": 0.0,
			"0.014": 0.0,
			"0.015": 0.0,
			"0.016": 0.0,
			"0.017": 0.0,
			"0.018": 0.0,
			"0.019": 0.0,
			"0.02": 0.0,
			"0.021": 0.0,
			"0.022": 0.0,
			"0.023": 0.0,
			"0.024": 0.0,
			"0.025": 0.0
		}
	}
}
