{
	 "smiles": "OC1=CC(OC2=NC=NC=C2)=CC=C1", 
	 "Tm": 376.15, 
	 "num_atms": 22, 
	 "gaussian": { 
		 "optdone": 1, 
		 "sigma_profile": "yes", 
		 "theory": "DFT", 
		 "functional": "B3LYP", 
		 "basiset": "6-31G**", 
		 "properties": { 
			 "R2extent": 3644.3149, 
			 "electric_dipole_moment_norm": 2.92662138651, 
			 "electric_quadrupole_moment_norm": 15.5818540113, 
			 "total_energy": -645.816170112, 
			 "HOMO_LUMO_gap": 0.20174, 
			 "cosmo_polarized_energy": -14.38, 
			 "cosmo_cavitation_energy": 27.33, 
			 "cosmo_dispersion_energy": -19.98, 
			 "cosmo_repulsion_energy": 1.57, 
			 "cosmo_total_nonelectrostatic_energy": 8.91, 
			 "SMD_solvation_energy": 2.48 
		},
		"coords": [
			{
				"x": -1.7569983599,
				"y": -3.3049575552,
				"z": -1.7236119458,
				"element": "O" 
			},
			{
				"x": -0.9884220451,
				"y": -2.3931055674,
				"z": -1.0632689892,
				"element": "C" 
			},
			{
				"x": -0.5690162225,
				"y": -1.1962892473,
				"z": -1.6543423626,
				"element": "C" 
			},
			{
				"x": 0.2198782231,
				"y": -0.3173262155,
				"z": -0.9141988035,
				"element": "C" 
			},
			{
				"x": 0.6911432435,
				"y": 0.829471184,
				"z": -1.5485156635,
				"element": "O" 
			},
			{
				"x": 0.0832366465,
				"y": 2.0252887214,
				"z": -1.324960956,
				"element": "C" 
			},
			{
				"x": 0.6755577407,
				"y": 3.046520463,
				"z": -1.9390238718,
				"element": "N" 
			},
			{
				"x": 0.1131785937,
				"y": 4.244961969,
				"z": -1.7622730891,
				"element": "C" 
			},
			{
				"x": -0.9735306098,
				"y": 4.5363511166,
				"z": -1.0420630162,
				"element": "N" 
			},
			{
				"x": -1.5486259469,
				"y": 3.4856134909,
				"z": -0.437494779,
				"element": "C" 
			},
			{
				"x": -1.066319526,
				"y": 2.1866486853,
				"z": -0.5381385966,
				"element": "C" 
			},
			{
				"x": 0.6012488032,
				"y": -0.5975389653,
				"z": 0.3955894785,
				"element": "C" 
			},
			{
				"x": 0.1668866054,
				"y": -1.7957682141,
				"z": 0.9698107877,
				"element": "C" 
			},
			{
				"x": -0.6228497908,
				"y": -2.6925609719,
				"z": 0.2553824204,
				"element": "C" 
			},
			{
				"x": -1.9269087999,
				"y": -2.9933661821,
				"z": -2.6221053489,
				"element": "H" 
			},
			{
				"x": -0.8322639952,
				"y": -0.9441945394,
				"z": -2.677774269,
				"element": "H" 
			},
			{
				"x": 0.6007078178,
				"y": 5.078083405,
				"z": -2.2654009404,
				"element": "H" 
			},
			{
				"x": -2.438101845,
				"y": 3.6937531393,
				"z": 0.1547104602,
				"element": "H" 
			},
			{
				"x": -1.5495830369,
				"y": 1.3566289958,
				"z": -0.0395021136,
				"element": "H" 
			},
			{
				"x": 1.2297557486,
				"y": 0.0999449763,
				"z": 0.937761843,
				"element": "H" 
			},
			{
				"x": 0.4551851138,
				"y": -2.0348023784,
				"z": 1.9889891575,
				"element": "H" 
			},
			{
				"x": -0.9587583584,
				"y": -3.6263563102,
				"z": 0.692630598,
				"element": "H" 
			}
		],
		 "valence_orbital": [ 
			{
				"type": "occ",
				"energy": -0.30072,
				"method": "rhf"
			},
			{
				"type": "occ",
				"energy": -0.26768,
				"method": "rhf"
			},
			{
				"type": "occ",
				"energy": -0.26322,
				"method": "rhf"
			},
			{
				"type": "occ",
				"energy": -0.25711,
				"method": "rhf"
			},
			{
				"type": "occ",
				"energy": -0.23601,
				"method": "rhf"
			},
			{
				"type": "unocc",
				"energy": -0.03427,
				"method": "rhf"
			},
			{
				"type": "unocc",
				"energy": -0.0212,
				"method": "rhf"
			},
			{
				"type": "unocc",
				"energy": -0.01405,
				"method": "rhf"
			},
			{
				"type": "unocc",
				"energy": -0.00208,
				"method": "rhf"
			},
			{
				"type": "unocc",
				"energy": 0.05911,
				"method": "rhf"
			}
		],
		"cosmo_sigma_profile": { 
			"-0.025": 0.0,
			"-0.024": 0.0,
			"-0.023": 0.0,
			"-0.022": 0.0,
			"-0.021": 0.0,
			"-0.02": 0.0,
			"-0.019": 0.112266188811,
			"-0.018": 0.828421266323,
			"-0.017": 1.35622722329,
			"-0.016": 1.04503062204,
			"-0.015": 0.759569561819,
			"-0.014": 1.14078215679,
			"-0.013": 1.08901301812,
			"-0.012": 0.628456646865,
			"-0.011": 1.12282019522,
			"-0.01": 1.20824451548,
			"-0.009": 1.44799002164,
			"-0.008": 4.2182023175,
			"-0.007": 10.3044295501,
			"-0.006": 12.1023512572,
			"-0.005": 12.4075676779,
			"-0.004": 12.3008763927,
			"-0.003": 12.0926961958,
			"-0.002": 15.2508404864,
			"-0.001": 17.2929297306,
			"0.0": 15.9142564699,
			"0.001": 12.1670450526,
			"0.002": 14.3492731562,
			"0.003": 16.3919132101,
			"0.004": 12.8929167434,
			"0.005": 5.76167173432,
			"0.006": 4.35104672361,
			"0.007": 5.91461782209,
			"0.008": 4.43740170625,
			"0.009": 4.37136154797,
			"0.01": 3.51265363573,
			"0.011": 4.73361895571,
			"0.012": 2.27488767341,
			"0.013": 2.39196170329,
			"0.014": 1.90187062565,
			"0.015": 1.38404040458,
			"0.016": 0.485343692719,
			"0.017": 0.0,
			"0.018": 0.0,
			"0.019": 0.0,
			"0.02": 0.0,
			"0.021": 0.0,
			"0.022": 0.0,
			"0.023": 0.0,
			"0.024": 0.0,
			"0.025": 0.0
		}
	}
}
