{
	 "smiles": "CC(=O)C1=C(O)C=C(C)C=C1", 
	 "Tm": 294.15, 
	 "num_atms": 21, 
	 "gaussian": { 
		 "optdone": 1, 
		 "sigma_profile": "yes", 
		 "theory": "DFT", 
		 "functional": "B3LYP", 
		 "basiset": "6-31G**", 
		 "properties": { 
			 "R2extent": 2006.242, 
			 "electric_dipole_moment_norm": 4.81905487207, 
			 "electric_quadrupole_moment_norm": 7.08279480925, 
			 "total_energy": -499.438709666, 
			 "HOMO_LUMO_gap": 0.18651, 
			 "cosmo_polarized_energy": -12.17, 
			 "cosmo_cavitation_energy": 24.54, 
			 "cosmo_dispersion_energy": -18.14, 
			 "cosmo_repulsion_energy": 1.45, 
			 "cosmo_total_nonelectrostatic_energy": 7.85, 
			 "SMD_solvation_energy": 5.35 
		},
		"coords": [
			{
				"x": 0.9588374016,
				"y": 0.0690402334,
				"z": 3.2996488733,
				"element": "C" 
			},
			{
				"x": 0.6722475184,
				"y": 0.8512266716,
				"z": 2.0334394233,
				"element": "C" 
			},
			{
				"x": 0.6913878351,
				"y": 2.0753760693,
				"z": 2.0588655569,
				"element": "O" 
			},
			{
				"x": 0.3639897377,
				"y": 0.1462084975,
				"z": 0.7428213594,
				"element": "C" 
			},
			{
				"x": 0.3033588734,
				"y": -1.2484414775,
				"z": 0.548036406,
				"element": "C" 
			},
			{
				"x": 0.5388079236,
				"y": -2.0885473523,
				"z": 1.5992707749,
				"element": "O" 
			},
			{
				"x": 0.0033323849,
				"y": -1.7752834907,
				"z": -0.7162564926,
				"element": "C" 
			},
			{
				"x": -0.2429140219,
				"y": -0.9506353384,
				"z": -1.8129670755,
				"element": "C" 
			},
			{
				"x": -0.5642665104,
				"y": -1.5335250997,
				"z": -3.1673233745,
				"element": "C" 
			},
			{
				"x": -0.1839464539,
				"y": 0.4407740747,
				"z": -1.6246993207,
				"element": "C" 
			},
			{
				"x": 0.112358865,
				"y": 0.9624543272,
				"z": -0.376256264,
				"element": "C" 
			},
			{
				"x": 1.1534019358,
				"y": 0.7823858227,
				"z": 4.1016217205,
				"element": "H" 
			},
			{
				"x": 0.1146634313,
				"y": -0.5754012978,
				"z": 3.5621558132,
				"element": "H" 
			},
			{
				"x": 1.8187101356,
				"y": -0.5938137879,
				"z": 3.1651363129,
				"element": "H" 
			},
			{
				"x": 0.4573005053,
				"y": -3.0011464156,
				"z": 1.2923799852,
				"element": "H" 
			},
			{
				"x": -0.0369071625,
				"y": -2.8570687606,
				"z": -0.838330509,
				"element": "H" 
			},
			{
				"x": -0.5733696808,
				"y": -2.6265440931,
				"z": -3.1473572859,
				"element": "H" 
			},
			{
				"x": -1.5454949466,
				"y": -1.1945400606,
				"z": -3.5184667787,
				"element": "H" 
			},
			{
				"x": 0.1702642762,
				"y": -1.2161563805,
				"z": -3.9161847335,
				"element": "H" 
			},
			{
				"x": -0.371660935,
				"y": 1.1069393051,
				"z": -2.4622752095,
				"element": "H" 
			},
			{
				"x": 0.161698887,
				"y": 2.0339985532,
				"z": -0.2144591816,
				"element": "H" 
			}
		],
		 "valence_orbital": [ 
			{
				"type": "occ",
				"energy": -0.34157,
				"method": "rhf"
			},
			{
				"type": "occ",
				"energy": -0.32515,
				"method": "rhf"
			},
			{
				"type": "occ",
				"energy": -0.25116,
				"method": "rhf"
			},
			{
				"type": "occ",
				"energy": -0.23745,
				"method": "rhf"
			},
			{
				"type": "occ",
				"energy": -0.23021,
				"method": "rhf"
			},
			{
				"type": "unocc",
				"energy": -0.0437,
				"method": "rhf"
			},
			{
				"type": "unocc",
				"energy": 0.00335,
				"method": "rhf"
			},
			{
				"type": "unocc",
				"energy": 0.04374,
				"method": "rhf"
			},
			{
				"type": "unocc",
				"energy": 0.05829,
				"method": "rhf"
			},
			{
				"type": "unocc",
				"energy": 0.09349,
				"method": "rhf"
			}
		],
		"cosmo_sigma_profile": { 
			"-0.025": 0.0,
			"-0.024": 0.0,
			"-0.023": 0.0,
			"-0.022": 0.0,
			"-0.021": 0.0,
			"-0.02": 0.0,
			"-0.019": 0.0565146579252,
			"-0.018": 1.07409899915,
			"-0.017": 0.685814951369,
			"-0.016": 1.37172328037,
			"-0.015": 1.02560521931,
			"-0.014": 0.706236725638,
			"-0.013": 0.601832778857,
			"-0.012": 1.31913428623,
			"-0.011": 1.24686933069,
			"-0.01": 0.927379215886,
			"-0.009": 1.21656324604,
			"-0.008": 0.847571965962,
			"-0.007": 1.34438856997,
			"-0.006": 2.51755329135,
			"-0.005": 9.26671889827,
			"-0.004": 15.6807372612,
			"-0.003": 18.0032696616,
			"-0.002": 16.4684343041,
			"-0.001": 19.5092752254,
			"0.0": 19.5874051094,
			"0.001": 11.0091576986,
			"0.002": 12.0537202821,
			"0.003": 13.250125446,
			"0.004": 13.8978606661,
			"0.005": 8.67241421336,
			"0.006": 4.9245197306,
			"0.007": 2.40242776288,
			"0.008": 1.18380854559,
			"0.009": 1.79290596789,
			"0.01": 1.79507302526,
			"0.011": 2.41578064167,
			"0.012": 3.89515623416,
			"0.013": 2.7040777662,
			"0.014": 0.868544199448,
			"0.015": 0.00117961740439,
			"0.016": 0.0,
			"0.017": 0.0,
			"0.018": 0.0,
			"0.019": 0.0,
			"0.02": 0.0,
			"0.021": 0.0,
			"0.022": 0.0,
			"0.023": 0.0,
			"0.024": 0.0,
			"0.025": 0.0
		}
	}
}
