{
	 "smiles": "CC1=CSC(SC2=CC=C(N)C=C2)=N1", 
	 "Tm": 373.15, 
	 "num_atms": 24, 
	 "gaussian": { 
		 "optdone": 1, 
		 "sigma_profile": "yes", 
		 "theory": "DFT", 
		 "functional": "B3LYP", 
		 "basiset": "6-31G**", 
		 "properties": { 
			 "R2extent": 4478.3038, 
			 "electric_dipole_moment_norm": 3.27065455376, 
			 "electric_quadrupole_moment_norm": 18.8952924021, 
			 "total_energy": -1292.9622132, 
			 "HOMO_LUMO_gap": 0.19533, 
			 "cosmo_polarized_energy": -13.25, 
			 "cosmo_cavitation_energy": 31.9, 
			 "cosmo_dispersion_energy": -23.71, 
			 "cosmo_repulsion_energy": 1.83, 
			 "cosmo_total_nonelectrostatic_energy": 10.02, 
			 "SMD_solvation_energy": 3.74 
		},
		"coords": [
			{
				"x": 3.274194358,
				"y": -0.1170707905,
				"z": -0.2336111773,
				"element": "C" 
			},
			{
				"x": 2.2457658147,
				"y": 0.597232179,
				"z": -1.0598858958,
				"element": "C" 
			},
			{
				"x": 2.4900351588,
				"y": 1.3665674933,
				"z": -2.1598484519,
				"element": "C" 
			},
			{
				"x": 1.0024900252,
				"y": 2.0027734493,
				"z": -2.8065594535,
				"element": "S" 
			},
			{
				"x": 0.1484862912,
				"y": 1.158173817,
				"z": -1.5082232092,
				"element": "C" 
			},
			{
				"x": -1.6228126339,
				"y": 1.2959729657,
				"z": -1.4238604291,
				"element": "S" 
			},
			{
				"x": -2.0133232838,
				"y": 0.3061312162,
				"z": 0.0116874318,
				"element": "C" 
			},
			{
				"x": -2.3072490132,
				"y": -1.0562876147,
				"z": -0.1249444061,
				"element": "C" 
			},
			{
				"x": -2.6721310248,
				"y": -1.8148156196,
				"z": 0.9808099099,
				"element": "C" 
			},
			{
				"x": -2.7533129593,
				"y": -1.227595063,
				"z": 2.2573074941,
				"element": "C" 
			},
			{
				"x": -3.0688762304,
				"y": -1.9946714597,
				"z": 3.3720949322,
				"element": "N" 
			},
			{
				"x": -2.4594744301,
				"y": 0.1425806492,
				"z": 2.3878240991,
				"element": "C" 
			},
			{
				"x": -2.0949178459,
				"y": 0.8966756027,
				"z": 1.2788773743,
				"element": "C" 
			},
			{
				"x": 0.9104761432,
				"y": 0.4882139575,
				"z": -0.7019609343,
				"element": "N" 
			},
			{
				"x": 3.2407159533,
				"y": 0.2263227659,
				"z": 0.8059703853,
				"element": "H" 
			},
			{
				"x": 4.2813627222,
				"y": 0.0513398945,
				"z": -0.6228865892,
				"element": "H" 
			},
			{
				"x": 3.0805317768,
				"y": -1.1951040435,
				"z": -0.2233929034,
				"element": "H" 
			},
			{
				"x": 3.4387917394,
				"y": 1.5957195224,
				"z": -2.6238761731,
				"element": "H" 
			},
			{
				"x": -2.2506659353,
				"y": -1.5219821167,
				"z": -1.1035150845,
				"element": "H" 
			},
			{
				"x": -2.8938656391,
				"y": -2.8724807409,
				"z": 0.8622999222,
				"element": "H" 
			},
			{
				"x": -3.4249345012,
				"y": -1.4908707016,
				"z": 4.1716151548,
				"element": "H" 
			},
			{
				"x": -3.5727207598,
				"y": -2.8514650221,
				"z": 3.193578881,
				"element": "H" 
			},
			{
				"x": -2.5152888108,
				"y": 0.6118816635,
				"z": 3.3668551923,
				"element": "H" 
			},
			{
				"x": -1.8728769152,
				"y": 1.9526579963,
				"z": 1.3941439305,
				"element": "H" 
			}
		],
		 "valence_orbital": [ 
			{
				"type": "occ",
				"energy": -0.26361,
				"method": "rhf"
			},
			{
				"type": "occ",
				"energy": -0.26309,
				"method": "rhf"
			},
			{
				"type": "occ",
				"energy": -0.25303,
				"method": "rhf"
			},
			{
				"type": "occ",
				"energy": -0.20955,
				"method": "rhf"
			},
			{
				"type": "occ",
				"energy": -0.20574,
				"method": "rhf"
			},
			{
				"type": "unocc",
				"energy": -0.01041,
				"method": "rhf"
			},
			{
				"type": "unocc",
				"energy": -0.00868,
				"method": "rhf"
			},
			{
				"type": "unocc",
				"energy": -0.00112,
				"method": "rhf"
			},
			{
				"type": "unocc",
				"energy": 0.02326,
				"method": "rhf"
			},
			{
				"type": "unocc",
				"energy": 0.04675,
				"method": "rhf"
			}
		],
		"cosmo_sigma_profile": { 
			"-0.025": 0.0,
			"-0.024": 0.0,
			"-0.023": 0.0,
			"-0.022": 0.0,
			"-0.021": 0.0,
			"-0.02": 0.0,
			"-0.019": 0.0,
			"-0.018": 0.0,
			"-0.017": 0.0,
			"-0.016": 0.0,
			"-0.015": 0.0,
			"-0.014": 0.0,
			"-0.013": 1.58274661777,
			"-0.012": 3.08328818964,
			"-0.011": 2.97208500305,
			"-0.01": 2.66824690164,
			"-0.009": 3.69319021711,
			"-0.008": 5.41012496277,
			"-0.007": 5.50427957695,
			"-0.006": 9.62851104632,
			"-0.005": 13.8473608321,
			"-0.004": 15.3357632162,
			"-0.003": 15.4213498488,
			"-0.002": 14.0995954175,
			"-0.001": 18.5123224178,
			"0.0": 19.4717403533,
			"0.001": 21.9658578409,
			"0.002": 22.3026892354,
			"0.003": 22.962579121,
			"0.004": 19.9597053448,
			"0.005": 13.6500017706,
			"0.006": 7.91762893554,
			"0.007": 4.30904850157,
			"0.008": 3.61156984256,
			"0.009": 2.10744161548,
			"0.01": 2.85801108637,
			"0.011": 1.67037501527,
			"0.012": 1.40427506724,
			"0.013": 1.83573875983,
			"0.014": 0.830060721939,
			"0.015": 0.14859633771,
			"0.016": 0.0,
			"0.017": 0.0,
			"0.018": 0.0,
			"0.019": 0.0,
			"0.02": 0.0,
			"0.021": 0.0,
			"0.022": 0.0,
			"0.023": 0.0,
			"0.024": 0.0,
			"0.025": 0.0
		}
	}
}
