{
	 "smiles": "CCCCCC#N", 
	 "Tm": 192.95, 
	 "num_atms": 18, 
	 "gaussian": { 
		 "optdone": 1, 
		 "sigma_profile": "yes", 
		 "theory": "DFT", 
		 "functional": "B3LYP", 
		 "basiset": "6-31G**", 
		 "properties": { 
			 "R2extent": 1202.4777, 
			 "electric_dipole_moment_norm": 3.80133080513, 
			 "electric_quadrupole_moment_norm": 10.7821575874, 
			 "total_energy": -290.016550078, 
			 "HOMO_LUMO_gap": 0.34136, 
			 "cosmo_polarized_energy": -8.21, 
			 "cosmo_cavitation_energy": 21.07, 
			 "cosmo_dispersion_energy": -14.75, 
			 "cosmo_repulsion_energy": 1.28, 
			 "cosmo_total_nonelectrostatic_energy": 7.6, 
			 "SMD_solvation_energy": 4.7 
		},
		"coords": [
			{
				"x": 0.4406256183,
				"y": 0.5782563621,
				"z": 2.2578845524,
				"element": "C" 
			},
			{
				"x": -0.0413125888,
				"y": 0.3548012492,
				"z": 0.8205010779,
				"element": "C" 
			},
			{
				"x": -1.5582082334,
				"y": 0.5458566283,
				"z": 0.6758114928,
				"element": "C" 
			},
			{
				"x": -2.1186735033,
				"y": 0.4370561065,
				"z": -0.7514183678,
				"element": "C" 
			},
			{
				"x": -2.1232309997,
				"y": -0.983617639,
				"z": -1.3655230054,
				"element": "C" 
			},
			{
				"x": -0.8123547891,
				"y": -1.4761614326,
				"z": -1.8005930323,
				"element": "C" 
			},
			{
				"x": 0.2187239767,
				"y": -1.8655694346,
				"z": -2.165795698,
				"element": "N" 
			},
			{
				"x": -0.0348432341,
				"y": -0.1260298791,
				"z": 2.9503743752,
				"element": "H" 
			},
			{
				"x": 0.2047956222,
				"y": 1.5912053849,
				"z": 2.6043881269,
				"element": "H" 
			},
			{
				"x": 1.5235494063,
				"y": 0.4420775532,
				"z": 2.3390393614,
				"element": "H" 
			},
			{
				"x": 0.2495063218,
				"y": -0.6488800351,
				"z": 0.4924948485,
				"element": "H" 
			},
			{
				"x": 0.4745508952,
				"y": 1.0522827532,
				"z": 0.147111433,
				"element": "H" 
			},
			{
				"x": -2.0815168873,
				"y": -0.1733983154,
				"z": 1.3226738812,
				"element": "H" 
			},
			{
				"x": -1.822809868,
				"y": 1.5397631028,
				"z": 1.0614346169,
				"element": "H" 
			},
			{
				"x": -1.579675619,
				"y": 1.1160558189,
				"z": -1.4227455084,
				"element": "H" 
			},
			{
				"x": -3.1622094948,
				"y": 0.7726556706,
				"z": -0.7434386567,
				"element": "H" 
			},
			{
				"x": -2.540569949,
				"y": -1.7023744409,
				"z": -0.6492751626,
				"element": "H" 
			},
			{
				"x": -2.779946674,
				"y": -1.001279453,
				"z": -2.2434243349,
				"element": "H" 
			}
		],
		 "valence_orbital": [ 
			{
				"type": "occ",
				"energy": -0.3482,
				"method": "rhf"
			},
			{
				"type": "occ",
				"energy": -0.33165,
				"method": "rhf"
			},
			{
				"type": "occ",
				"energy": -0.32998,
				"method": "rhf"
			},
			{
				"type": "occ",
				"energy": -0.31758,
				"method": "rhf"
			},
			{
				"type": "occ",
				"energy": -0.30851,
				"method": "rhf"
			},
			{
				"type": "unocc",
				"energy": 0.03285,
				"method": "rhf"
			},
			{
				"type": "unocc",
				"energy": 0.04127,
				"method": "rhf"
			},
			{
				"type": "unocc",
				"energy": 0.08349,
				"method": "rhf"
			},
			{
				"type": "unocc",
				"energy": 0.10698,
				"method": "rhf"
			},
			{
				"type": "unocc",
				"energy": 0.11284,
				"method": "rhf"
			}
		],
		"cosmo_sigma_profile": { 
			"-0.025": 0.0,
			"-0.024": 0.0,
			"-0.023": 0.0,
			"-0.022": 0.0,
			"-0.021": 0.0,
			"-0.02": 0.0,
			"-0.019": 0.0,
			"-0.018": 0.0,
			"-0.017": 0.0,
			"-0.016": 0.0,
			"-0.015": 0.0,
			"-0.014": 0.0,
			"-0.013": 0.0,
			"-0.012": 0.0,
			"-0.011": 0.0,
			"-0.01": 0.0,
			"-0.009": 0.0,
			"-0.008": 1.55259903265,
			"-0.007": 5.74522053866,
			"-0.006": 5.47346867366,
			"-0.005": 7.56541844491,
			"-0.004": 13.0033948336,
			"-0.003": 14.3128494625,
			"-0.002": 22.4390562499,
			"-0.001": 22.3665031064,
			"0.0": 18.2751022544,
			"0.001": 15.8081169783,
			"0.002": 7.34313918411,
			"0.003": 2.65489128663,
			"0.004": 2.50327893581,
			"0.005": 2.24572212646,
			"0.006": 2.70760364717,
			"0.007": 2.00312696413,
			"0.008": 2.82383834495,
			"0.009": 3.79527958267,
			"0.01": 2.60752075537,
			"0.011": 3.43207843607,
			"0.012": 2.35950825846,
			"0.013": 2.51054110991,
			"0.014": 0.946230657393,
			"0.015": 0.0,
			"0.016": 0.0,
			"0.017": 0.0,
			"0.018": 0.0,
			"0.019": 0.0,
			"0.02": 0.0,
			"0.021": 0.0,
			"0.022": 0.0,
			"0.023": 0.0,
			"0.024": 0.0,
			"0.025": 0.0
		}
	}
}
