{
	 "smiles": "CC=C(C)C", 
	 "Tm": 139.15, 
	 "num_atms": 15, 
	 "gaussian": { 
		 "optdone": 1, 
		 "sigma_profile": "yes", 
		 "theory": "DFT", 
		 "functional": "B3LYP", 
		 "basiset": "6-31G**", 
		 "properties": { 
			 "R2extent": 805.0395, 
			 "electric_dipole_moment_norm": 0.192180149859, 
			 "electric_quadrupole_moment_norm": 1.3679737534, 
			 "total_energy": -196.553815465, 
			 "HOMO_LUMO_gap": 0.26316, 
			 "cosmo_polarized_energy": -1.42, 
			 "cosmo_cavitation_energy": 17.19, 
			 "cosmo_dispersion_energy": -12.73, 
			 "cosmo_repulsion_energy": 1.13, 
			 "cosmo_total_nonelectrostatic_energy": 5.59, 
			 "SMD_solvation_energy": 3.63 
		},
		"coords": [
			{
				"x": -0.7660693875,
				"y": -2.3047522534,
				"z": 2.1263503292,
				"element": "C" 
			},
			{
				"x": -0.3621287908,
				"y": -1.4070613288,
				"z": 0.9908266007,
				"element": "C" 
			},
			{
				"x": -0.6309737775,
				"y": -0.1037303226,
				"z": 0.8190325133,
				"element": "C" 
			},
			{
				"x": -1.4269482071,
				"y": 0.7469514949,
				"z": 1.7783402695,
				"element": "C" 
			},
			{
				"x": -0.1322143716,
				"y": 0.6330764573,
				"z": -0.4018187426,
				"element": "C" 
			},
			{
				"x": -1.3540802487,
				"y": -1.7932611698,
				"z": 2.8918304898,
				"element": "H" 
			},
			{
				"x": 0.1166780285,
				"y": -2.7346016691,
				"z": 2.6175617931,
				"element": "H" 
			},
			{
				"x": -1.3609359122,
				"y": -3.1523637578,
				"z": 1.7616662406,
				"element": "H" 
			},
			{
				"x": 0.2263497361,
				"y": -1.8977238092,
				"z": 0.2141836463,
				"element": "H" 
			},
			{
				"x": -1.7788548648,
				"y": 0.1987057284,
				"z": 2.6540129666,
				"element": "H" 
			},
			{
				"x": -2.3040004914,
				"y": 1.1777539905,
				"z": 1.2772613855,
				"element": "H" 
			},
			{
				"x": -0.8267045818,
				"y": 1.5955611953,
				"z": 2.1325460569,
				"element": "H" 
			},
			{
				"x": 0.5116630494,
				"y": 1.4770735259,
				"z": -0.1196199549,
				"element": "H" 
			},
			{
				"x": -0.9662862583,
				"y": 1.0596764713,
				"z": -0.9752979609,
				"element": "H" 
			},
			{
				"x": 0.4381060777,
				"y": -0.0199045529,
				"z": -1.0683756332,
				"element": "H" 
			}
		],
		 "valence_orbital": [ 
			{
				"type": "occ",
				"energy": -0.3764,
				"method": "rhf"
			},
			{
				"type": "occ",
				"energy": -0.36304,
				"method": "rhf"
			},
			{
				"type": "occ",
				"energy": -0.3505,
				"method": "rhf"
			},
			{
				"type": "occ",
				"energy": -0.3227,
				"method": "rhf"
			},
			{
				"type": "occ",
				"energy": -0.22546,
				"method": "rhf"
			},
			{
				"type": "unocc",
				"energy": 0.0377,
				"method": "rhf"
			},
			{
				"type": "unocc",
				"energy": 0.09857,
				"method": "rhf"
			},
			{
				"type": "unocc",
				"energy": 0.12312,
				"method": "rhf"
			},
			{
				"type": "unocc",
				"energy": 0.13176,
				"method": "rhf"
			},
			{
				"type": "unocc",
				"energy": 0.15294,
				"method": "rhf"
			}
		],
		"cosmo_sigma_profile": { 
			"-0.025": 0.0,
			"-0.024": 0.0,
			"-0.023": 0.0,
			"-0.022": 0.0,
			"-0.021": 0.0,
			"-0.02": 0.0,
			"-0.019": 0.0,
			"-0.018": 0.0,
			"-0.017": 0.0,
			"-0.016": 0.0,
			"-0.015": 0.0,
			"-0.014": 0.0,
			"-0.013": 0.0,
			"-0.012": 0.0,
			"-0.011": 0.0,
			"-0.01": 0.0,
			"-0.009": 0.0,
			"-0.008": 0.0,
			"-0.007": 0.0,
			"-0.006": 0.0,
			"-0.005": 0.692203510177,
			"-0.004": 3.63047735789,
			"-0.003": 17.3716124763,
			"-0.002": 18.933419927,
			"-0.001": 20.941226736,
			"0.0": 21.7922374113,
			"0.001": 23.5222185301,
			"0.002": 8.80938296902,
			"0.003": 5.20966136079,
			"0.004": 3.68618416733,
			"0.005": 3.71709276937,
			"0.006": 2.46818896751,
			"0.007": 2.62724479199,
			"0.008": 0.505268537255,
			"0.009": 0.0,
			"0.01": 0.0,
			"0.011": 0.0,
			"0.012": 0.0,
			"0.013": 0.0,
			"0.014": 0.0,
			"0.015": 0.0,
			"0.016": 0.0,
			"0.017": 0.0,
			"0.018": 0.0,
			"0.019": 0.0,
			"0.02": 0.0,
			"0.021": 0.0,
			"0.022": 0.0,
			"0.023": 0.0,
			"0.024": 0.0,
			"0.025": 0.0
		}
	}
}
