{
	 "smiles": "OC(=O)C1=CC(=CC(=C1)C(O)=O)S(Cl)(=O)=O", 
	 "Tm": 491.15, 
	 "num_atms": 21, 
	 "gaussian": { 
		 "optdone": 1, 
		 "sigma_profile": "yes", 
		 "theory": "DFT", 
		 "functional": "B3LYP", 
		 "basiset": "6-31G**", 
		 "properties": { 
			 "R2extent": 6527.5237, 
			 "electric_dipole_moment_norm": 5.28926180955, 
			 "electric_quadrupole_moment_norm": 19.6079213661, 
			 "total_energy": -1617.52054096, 
			 "HOMO_LUMO_gap": 0.18846, 
			 "cosmo_polarized_energy": -31.25, 
			 "cosmo_cavitation_energy": 31.06, 
			 "cosmo_dispersion_energy": -22.61, 
			 "cosmo_repulsion_energy": 1.73, 
			 "cosmo_total_nonelectrostatic_energy": 10.18, 
			 "SMD_solvation_energy": 6.43 
		},
		"coords": [
			{
				"x": 0.5464760402,
				"y": -4.1070312871,
				"z": -1.590575789,
				"element": "O" 
			},
			{
				"x": 1.4449988242,
				"y": -3.6183662033,
				"z": -0.6994020332,
				"element": "C" 
			},
			{
				"x": 2.4191445836,
				"y": -4.2596339355,
				"z": -0.3951336316,
				"element": "O" 
			},
			{
				"x": 1.1715230794,
				"y": -2.2500844235,
				"z": -0.1313521893,
				"element": "C" 
			},
			{
				"x": 1.8142761262,
				"y": -1.9185431718,
				"z": 1.0665641034,
				"element": "C" 
			},
			{
				"x": 1.6182869536,
				"y": -0.6487021967,
				"z": 1.6005960004,
				"element": "C" 
			},
			{
				"x": 0.8230471983,
				"y": 0.3099513892,
				"z": 0.9803744367,
				"element": "C" 
			},
			{
				"x": 0.1807367592,
				"y": -0.0227109435,
				"z": -0.2174654254,
				"element": "C" 
			},
			{
				"x": 0.3646104419,
				"y": -1.2979158538,
				"z": -0.7680431642,
				"element": "C" 
			},
			{
				"x": -0.6346945921,
				"y": 1.0569870926,
				"z": -0.8800391558,
				"element": "C" 
			},
			{
				"x": -1.5735492216,
				"y": 0.6593649817,
				"z": -1.7748904981,
				"element": "O" 
			},
			{
				"x": -0.4664722724,
				"y": 2.2272388203,
				"z": -0.6455640028,
				"element": "O" 
			},
			{
				"x": 2.4069532305,
				"y": -0.2372920849,
				"z": 3.1637732088,
				"element": "S" 
			},
			{
				"x": 4.250903742,
				"y": 0.5551374788,
				"z": 2.4839821669,
				"element": "Cl" 
			},
			{
				"x": 2.7145473536,
				"y": -1.4725205084,
				"z": 3.8704883941,
				"element": "O" 
			},
			{
				"x": 1.6774500788,
				"y": 0.8622821043,
				"z": 3.7791011598,
				"element": "O" 
			},
			{
				"x": -0.2708265092,
				"y": -3.5909376207,
				"z": -1.5805603783,
				"element": "H" 
			},
			{
				"x": 2.4502937515,
				"y": -2.6489704658,
				"z": 1.5540161901,
				"element": "H" 
			},
			{
				"x": 0.6935688485,
				"y": 1.3007787781,
				"z": 1.4012592531,
				"element": "H" 
			},
			{
				"x": -0.0660712952,
				"y": -1.5271336743,
				"z": -1.7404481502,
				"element": "H" 
			},
			{
				"x": -1.7385031209,
				"y": -0.2907982757,
				"z": -1.7084804955,
				"element": "H" 
			}
		],
		 "valence_orbital": [ 
			{
				"type": "occ",
				"energy": -0.32938,
				"method": "rhf"
			},
			{
				"type": "occ",
				"energy": -0.32441,
				"method": "rhf"
			},
			{
				"type": "occ",
				"energy": -0.322,
				"method": "rhf"
			},
			{
				"type": "occ",
				"energy": -0.31507,
				"method": "rhf"
			},
			{
				"type": "occ",
				"energy": -0.30174,
				"method": "rhf"
			},
			{
				"type": "unocc",
				"energy": -0.11328,
				"method": "rhf"
			},
			{
				"type": "unocc",
				"energy": -0.10348,
				"method": "rhf"
			},
			{
				"type": "unocc",
				"energy": -0.08508,
				"method": "rhf"
			},
			{
				"type": "unocc",
				"energy": -0.02496,
				"method": "rhf"
			},
			{
				"type": "unocc",
				"energy": 0.00735,
				"method": "rhf"
			}
		],
		"cosmo_sigma_profile": { 
			"-0.025": 0.0,
			"-0.024": 0.0,
			"-0.023": 0.0,
			"-0.022": 0.0,
			"-0.021": 1.10871028197,
			"-0.02": 2.37638319194,
			"-0.019": 3.05886480185,
			"-0.018": 1.95343360546,
			"-0.017": 1.59090041014,
			"-0.016": 1.60731152518,
			"-0.015": 1.78819126183,
			"-0.014": 2.08391626208,
			"-0.013": 2.46354492259,
			"-0.012": 2.52143200336,
			"-0.011": 1.28726884828,
			"-0.01": 2.03129418636,
			"-0.009": 2.78400031888,
			"-0.008": 4.35553132663,
			"-0.007": 7.6994202263,
			"-0.006": 9.66994500581,
			"-0.005": 10.4800041762,
			"-0.004": 12.8108132984,
			"-0.003": 20.2174532153,
			"-0.002": 14.3221286848,
			"-0.001": 10.3289826144,
			"0.0": 9.77816341655,
			"0.001": 13.3072959031,
			"0.002": 14.3400405454,
			"0.003": 16.5350696789,
			"0.004": 7.12454309057,
			"0.005": 6.51071015645,
			"0.006": 8.33763213859,
			"0.007": 13.4421676588,
			"0.008": 14.7779544254,
			"0.009": 10.706192455,
			"0.01": 10.2601374793,
			"0.011": 8.41712402679,
			"0.012": 2.70571361514,
			"0.013": 0.0265517834196,
			"0.014": 0.0,
			"0.015": 0.0,
			"0.016": 0.0,
			"0.017": 0.0,
			"0.018": 0.0,
			"0.019": 0.0,
			"0.02": 0.0,
			"0.021": 0.0,
			"0.022": 0.0,
			"0.023": 0.0,
			"0.024": 0.0,
			"0.025": 0.0
		}
	}
}
