{
	 "smiles": "CC(C)C1=NC2=C(N1)C=CC=C2", 
	 "Tm": 508.15, 
	 "num_atms": 24, 
	 "gaussian": { 
		 "optdone": 1, 
		 "sigma_profile": "yes", 
		 "theory": "DFT", 
		 "functional": "B3LYP", 
		 "basiset": "6-31G**", 
		 "properties": { 
			 "R2extent": 2440.7728, 
			 "electric_dipole_moment_norm": 3.27222255203, 
			 "electric_quadrupole_moment_norm": 6.07613925696, 
			 "total_energy": -497.826865676, 
			 "HOMO_LUMO_gap": 0.20662, 
			 "cosmo_polarized_energy": -12.33, 
			 "cosmo_cavitation_energy": 27.0, 
			 "cosmo_dispersion_energy": -19.79, 
			 "cosmo_repulsion_energy": 1.59, 
			 "cosmo_total_nonelectrostatic_energy": 8.81, 
			 "SMD_solvation_energy": 2.63 
		},
		"coords": [
			{
				"x": 0.3009054961,
				"y": -3.1495806041,
				"z": -1.6662576475,
				"element": "C" 
			},
			{
				"x": -0.6184003039,
				"y": -1.9412685832,
				"z": -1.9242267268,
				"element": "C" 
			},
			{
				"x": -0.6304385933,
				"y": -1.5592396116,
				"z": -3.4160759526,
				"element": "C" 
			},
			{
				"x": -0.1946106806,
				"y": -0.7664988838,
				"z": -1.0820235201,
				"element": "C" 
			},
			{
				"x": 0.9695187917,
				"y": -0.165178938,
				"z": -1.154536285,
				"element": "N" 
			},
			{
				"x": 0.9196013842,
				"y": 0.8479984822,
				"z": -0.207052423,
				"element": "C" 
			},
			{
				"x": -0.3331835091,
				"y": 0.8436606649,
				"z": 0.4551126683,
				"element": "C" 
			},
			{
				"x": -1.0239662262,
				"y": -0.2046567568,
				"z": -0.1304194452,
				"element": "N" 
			},
			{
				"x": -0.6581633327,
				"y": 1.7575368439,
				"z": 1.4585652849,
				"element": "C" 
			},
			{
				"x": 0.3172228648,
				"y": 2.6950706037,
				"z": 1.7921578589,
				"element": "C" 
			},
			{
				"x": 1.5689989927,
				"y": 2.7155257336,
				"z": 1.1452143812,
				"element": "C" 
			},
			{
				"x": 1.8844448891,
				"y": 1.8002352789,
				"z": 0.1455102194,
				"element": "C" 
			},
			{
				"x": 1.3343256901,
				"y": -2.8931444139,
				"z": -1.9151703232,
				"element": "H" 
			},
			{
				"x": 0.2734376983,
				"y": -3.455068441,
				"z": -0.6156061332,
				"element": "H" 
			},
			{
				"x": -0.0060494869,
				"y": -4.0030032735,
				"z": -2.2797939728,
				"element": "H" 
			},
			{
				"x": -1.6412680155,
				"y": -2.213699604,
				"z": -1.6274113112,
				"element": "H" 
			},
			{
				"x": 0.3686439002,
				"y": -1.2442299359,
				"z": -3.7295813045,
				"element": "H" 
			},
			{
				"x": -1.3208238848,
				"y": -0.7326092477,
				"z": -3.6110125794,
				"element": "H" 
			},
			{
				"x": -0.9368336277,
				"y": -2.4137394718,
				"z": -4.0283976814,
				"element": "H" 
			},
			{
				"x": -1.9593287414,
				"y": -0.5084834147,
				"z": 0.0907929113,
				"element": "H" 
			},
			{
				"x": -1.6220867224,
				"y": 1.7442170913,
				"z": 1.958961745,
				"element": "H" 
			},
			{
				"x": 0.107631483,
				"y": 3.4257874966,
				"z": 2.5677730592,
				"element": "H" 
			},
			{
				"x": 2.3005584937,
				"y": 3.4637005657,
				"z": 1.4363149489,
				"element": "H" 
			},
			{
				"x": 2.8471634404,
				"y": 1.8123684192,
				"z": -0.3553377713,
				"element": "H" 
			}
		],
		 "valence_orbital": [ 
			{
				"type": "occ",
				"energy": -0.32741,
				"method": "rhf"
			},
			{
				"type": "occ",
				"energy": -0.29649,
				"method": "rhf"
			},
			{
				"type": "occ",
				"energy": -0.26292,
				"method": "rhf"
			},
			{
				"type": "occ",
				"energy": -0.22197,
				"method": "rhf"
			},
			{
				"type": "occ",
				"energy": -0.21483,
				"method": "rhf"
			},
			{
				"type": "unocc",
				"energy": -0.00821,
				"method": "rhf"
			},
			{
				"type": "unocc",
				"energy": 0.02819,
				"method": "rhf"
			},
			{
				"type": "unocc",
				"energy": 0.05999,
				"method": "rhf"
			},
			{
				"type": "unocc",
				"energy": 0.06918,
				"method": "rhf"
			},
			{
				"type": "unocc",
				"energy": 0.1012,
				"method": "rhf"
			}
		],
		"cosmo_sigma_profile": { 
			"-0.025": 0.0,
			"-0.024": 0.0,
			"-0.023": 0.0,
			"-0.022": 0.0,
			"-0.021": 0.0,
			"-0.02": 0.0,
			"-0.019": 0.0,
			"-0.018": 0.0,
			"-0.017": 0.00410458246561,
			"-0.016": 0.93728864736,
			"-0.015": 1.45194932756,
			"-0.014": 1.46498859028,
			"-0.013": 1.22132594167,
			"-0.012": 1.10696468978,
			"-0.011": 1.63647835929,
			"-0.01": 1.62728485187,
			"-0.009": 1.19754702734,
			"-0.008": 1.67110787055,
			"-0.007": 1.77530003603,
			"-0.006": 4.23516463709,
			"-0.005": 9.46978836542,
			"-0.004": 12.022995677,
			"-0.003": 22.9255968133,
			"-0.002": 21.1985593704,
			"-0.001": 19.1812137932,
			"0.0": 18.681364861,
			"0.001": 20.9706459725,
			"0.002": 10.8071804566,
			"0.003": 9.80533363379,
			"0.004": 9.88849542606,
			"0.005": 12.4446996127,
			"0.006": 10.73093954,
			"0.007": 5.69915507654,
			"0.008": 1.69744150911,
			"0.009": 1.93207225978,
			"0.01": 0.774945998251,
			"0.011": 1.75763259235,
			"0.012": 1.27747685442,
			"0.013": 0.497197110391,
			"0.014": 1.04781583758,
			"0.015": 0.938692014125,
			"0.016": 0.449872979078,
			"0.017": 0.605199885651,
			"0.018": 0.246842994517,
			"0.019": 0.0,
			"0.02": 0.0,
			"0.021": 0.0,
			"0.022": 0.0,
			"0.023": 0.0,
			"0.024": 0.0,
			"0.025": 0.0
		}
	}
}
