{
	 "smiles": "CC1=C(C2=C(C=C1)C(=O)C1=C(Cl)C(Cl)=C(Cl)C(Cl)=C1C2=O)[N+]([O-])=O", 
	 "Tm": 535.15, 
	 "num_atms": 29, 
	 "gaussian": { 
		 "optdone": 1, 
		 "sigma_profile": "yes", 
		 "theory": "DFT", 
		 "functional": "B3LYP", 
		 "basiset": "6-31G**", 
		 "properties": { 
			 "R2extent": 12458.8926, 
			 "electric_dipole_moment_norm": 4.08061644608, 
			 "electric_quadrupole_moment_norm": 22.5254968971, 
			 "total_energy": -2770.88989278, 
			 "HOMO_LUMO_gap": 0.14524, 
			 "cosmo_polarized_energy": -14.7, 
			 "cosmo_cavitation_energy": 41.37, 
			 "cosmo_dispersion_energy": -29.92, 
			 "cosmo_repulsion_energy": 2.19, 
			 "cosmo_total_nonelectrostatic_energy": 13.65, 
			 "SMD_solvation_energy": 8.95 
		},
		"coords": [
			{
				"x": -2.0373367528,
				"y": 3.0298680811,
				"z": -2.8430784996,
				"element": "C" 
			},
			{
				"x": -1.2948749063,
				"y": 2.4644374985,
				"z": -1.6588156145,
				"element": "C" 
			},
			{
				"x": -1.377252714,
				"y": 1.1139890072,
				"z": -1.2987314734,
				"element": "C" 
			},
			{
				"x": -0.7076388245,
				"y": 0.5870329723,
				"z": -0.1874441328,
				"element": "C" 
			},
			{
				"x": 0.085263234,
				"y": 1.4419574723,
				"z": 0.5859802462,
				"element": "C" 
			},
			{
				"x": 0.2074127429,
				"y": 2.791333574,
				"z": 0.2376181155,
				"element": "C" 
			},
			{
				"x": -0.4828379161,
				"y": 3.2876611446,
				"z": -0.859867418,
				"element": "C" 
			},
			{
				"x": 0.8389683896,
				"y": 0.9262315805,
				"z": 1.7646667034,
				"element": "C" 
			},
			{
				"x": 1.7406397465,
				"y": 1.5936764869,
				"z": 2.2441962157,
				"element": "O" 
			},
			{
				"x": 0.4086944449,
				"y": -0.4028743304,
				"z": 2.3338638225,
				"element": "C" 
			},
			{
				"x": 0.7482625615,
				"y": -0.788647456,
				"z": 3.6452527771,
				"element": "C" 
			},
			{
				"x": 1.6628019891,
				"y": 0.2338525732,
				"z": 4.7086806017,
				"element": "Cl" 
			},
			{
				"x": 0.3121851717,
				"y": -2.0298592672,
				"z": 4.1482588603,
				"element": "C" 
			},
			{
				"x": 0.719997039,
				"y": -2.5097366079,
				"z": 5.7622177553,
				"element": "Cl" 
			},
			{
				"x": -0.4635880771,
				"y": -2.8843915628,
				"z": 3.3492862155,
				"element": "C" 
			},
			{
				"x": -1.0075648259,
				"y": -4.3976580213,
				"z": 3.9914096999,
				"element": "Cl" 
			},
			{
				"x": -0.8008402349,
				"y": -2.5107631493,
				"z": 2.0346389896,
				"element": "C" 
			},
			{
				"x": -1.8061813892,
				"y": -3.5838011507,
				"z": 1.1138544279,
				"element": "Cl" 
			},
			{
				"x": -0.3641592259,
				"y": -1.2751272963,
				"z": 1.524681708,
				"element": "C" 
			},
			{
				"x": -0.6751248412,
				"y": -0.8744144739,
				"z": 0.1052048541,
				"element": "C" 
			},
			{
				"x": -0.8492241349,
				"y": -1.6869487359,
				"z": -0.7842205158,
				"element": "O" 
			},
			{
				"x": -2.2711521572,
				"y": 0.2454560022,
				"z": -2.0960929725,
				"element": "N" 
			},
			{
				"x": -3.2535043497,
				"y": -0.2093332388,
				"z": -1.5211768161,
				"element": "O" 
			},
			{
				"x": -1.9937424902,
				"y": 0.0999648844,
				"z": -3.2815382493,
				"element": "O" 
			},
			{
				"x": -1.629205212,
				"y": 2.6388111279,
				"z": -3.7793176027,
				"element": "H" 
			},
			{
				"x": -3.0979561226,
				"y": 2.7596648935,
				"z": -2.8191105659,
				"element": "H" 
			},
			{
				"x": -1.9625847576,
				"y": 4.1190651878,
				"z": -2.8543655235,
				"element": "H" 
			},
			{
				"x": 0.8454851109,
				"y": 3.4279182349,
				"z": 0.840248612,
				"element": "H" 
			},
			{
				"x": -0.4011414981,
				"y": 4.3399345692,
				"z": -1.1155002205,
				"element": "H" 
			}
		],
		 "valence_orbital": [ 
			{
				"type": "occ",
				"energy": -0.28739,
				"method": "rhf"
			},
			{
				"type": "occ",
				"energy": -0.28352,
				"method": "rhf"
			},
			{
				"type": "occ",
				"energy": -0.28066,
				"method": "rhf"
			},
			{
				"type": "occ",
				"energy": -0.27224,
				"method": "rhf"
			},
			{
				"type": "occ",
				"energy": -0.2704,
				"method": "rhf"
			},
			{
				"type": "unocc",
				"energy": -0.12516,
				"method": "rhf"
			},
			{
				"type": "unocc",
				"energy": -0.09548,
				"method": "rhf"
			},
			{
				"type": "unocc",
				"energy": -0.07856,
				"method": "rhf"
			},
			{
				"type": "unocc",
				"energy": -0.05548,
				"method": "rhf"
			},
			{
				"type": "unocc",
				"energy": -0.04542,
				"method": "rhf"
			}
		],
		"cosmo_sigma_profile": { 
			"-0.025": 0.0,
			"-0.024": 0.0,
			"-0.023": 0.0,
			"-0.022": 0.0,
			"-0.021": 0.0,
			"-0.02": 0.0,
			"-0.019": 0.0,
			"-0.018": 0.0,
			"-0.017": 0.0,
			"-0.016": 0.0,
			"-0.015": 0.0,
			"-0.014": 0.0,
			"-0.013": 0.0,
			"-0.012": 0.0,
			"-0.011": 0.21150232111,
			"-0.01": 0.764276598398,
			"-0.009": 1.05045939184,
			"-0.008": 6.26815582002,
			"-0.007": 10.6497709791,
			"-0.006": 12.0295631325,
			"-0.005": 16.1397459298,
			"-0.004": 31.3078517764,
			"-0.003": 32.0961771197,
			"-0.002": 34.2410001714,
			"-0.001": 27.7639948456,
			"0.0": 23.5743163066,
			"0.001": 22.3077988798,
			"0.002": 29.3835229323,
			"0.003": 27.5318107744,
			"0.004": 9.85197636435,
			"0.005": 9.33337184897,
			"0.006": 11.0766835107,
			"0.007": 15.2801071655,
			"0.008": 9.08588523772,
			"0.009": 8.083678117,
			"0.01": 4.52907855075,
			"0.011": 0.367344087158,
			"0.012": 0.0,
			"0.013": 0.0,
			"0.014": 0.0,
			"0.015": 0.0,
			"0.016": 0.0,
			"0.017": 0.0,
			"0.018": 0.0,
			"0.019": 0.0,
			"0.02": 0.0,
			"0.021": 0.0,
			"0.022": 0.0,
			"0.023": 0.0,
			"0.024": 0.0,
			"0.025": 0.0
		}
	}
}
