{
	 "smiles": "CCOC(=O)C(=O)CC(C)=O", 
	 "Tm": 290.15, 
	 "num_atms": 21, 
	 "gaussian": { 
		 "optdone": 1, 
		 "sigma_profile": "yes", 
		 "theory": "DFT", 
		 "functional": "B3LYP", 
		 "basiset": "6-31G**", 
		 "properties": { 
			 "R2extent": 2088.3228, 
			 "electric_dipole_moment_norm": 5.41029064192, 
			 "electric_quadrupole_moment_norm": 13.2914690099, 
			 "total_energy": -573.660185376, 
			 "HOMO_LUMO_gap": 0.18578, 
			 "cosmo_polarized_energy": -15.3, 
			 "cosmo_cavitation_energy": 26.08, 
			 "cosmo_dispersion_energy": -17.76, 
			 "cosmo_repulsion_energy": 1.48, 
			 "cosmo_total_nonelectrostatic_energy": 9.8, 
			 "SMD_solvation_energy": 7.07 
		},
		"coords": [
			{
				"x": -1.7664918242,
				"y": -0.9758629588,
				"z": 1.9565219047,
				"element": "C" 
			},
			{
				"x": -0.7506437783,
				"y": -2.0248677411,
				"z": 1.5323915653,
				"element": "C" 
			},
			{
				"x": 0.0564970117,
				"y": -1.5485560612,
				"z": 0.4219176765,
				"element": "O" 
			},
			{
				"x": -0.4727718003,
				"y": -1.6959667945,
				"z": -0.8084377634,
				"element": "C" 
			},
			{
				"x": -1.5181410613,
				"y": -2.2388897738,
				"z": -1.0677639505,
				"element": "O" 
			},
			{
				"x": 0.4683898453,
				"y": -1.1084958628,
				"z": -1.8836894503,
				"element": "C" 
			},
			{
				"x": 0.3543422376,
				"y": -1.4775954705,
				"z": -3.0290300184,
				"element": "O" 
			},
			{
				"x": 1.4987262879,
				"y": -0.0801324965,
				"z": -1.447792524,
				"element": "C" 
			},
			{
				"x": 0.8459821309,
				"y": 1.2027801712,
				"z": -0.9244241257,
				"element": "C" 
			},
			{
				"x": 1.7778494421,
				"y": 2.3639261716,
				"z": -0.6463823789,
				"element": "C" 
			},
			{
				"x": -0.3555063635,
				"y": 1.2756871136,
				"z": -0.7533529615,
				"element": "O" 
			},
			{
				"x": -2.3096916075,
				"y": -1.3268699184,
				"z": 2.8402212507,
				"element": "H" 
			},
			{
				"x": -1.2729873098,
				"y": -0.0320284919,
				"z": 2.203610912,
				"element": "H" 
			},
			{
				"x": -2.4882471874,
				"y": -0.7936317526,
				"z": 1.1572937935,
				"element": "H" 
			},
			{
				"x": -0.0257924438,
				"y": -2.2323623152,
				"z": 2.3227141477,
				"element": "H" 
			},
			{
				"x": -1.2387887862,
				"y": -2.9549370995,
				"z": 1.2316192163,
				"element": "H" 
			},
			{
				"x": 2.124349886,
				"y": -0.4919965735,
				"z": -0.6459063927,
				"element": "H" 
			},
			{
				"x": 2.1480441945,
				"y": 0.1443198857,
				"z": -2.300199589,
				"element": "H" 
			},
			{
				"x": 2.5904352455,
				"y": 2.0594490221,
				"z": 0.0227360467,
				"element": "H" 
			},
			{
				"x": 1.2167192359,
				"y": 3.186791644,
				"z": -0.201672888,
				"element": "H" 
			},
			{
				"x": 2.242326645,
				"y": 2.7021393021,
				"z": -1.5801744709,
				"element": "H" 
			}
		],
		 "valence_orbital": [ 
			{
				"type": "occ",
				"energy": -0.34947,
				"method": "rhf"
			},
			{
				"type": "occ",
				"energy": -0.30864,
				"method": "rhf"
			},
			{
				"type": "occ",
				"energy": -0.29878,
				"method": "rhf"
			},
			{
				"type": "occ",
				"energy": -0.27107,
				"method": "rhf"
			},
			{
				"type": "occ",
				"energy": -0.2553,
				"method": "rhf"
			},
			{
				"type": "unocc",
				"energy": -0.06952,
				"method": "rhf"
			},
			{
				"type": "unocc",
				"energy": -0.03093,
				"method": "rhf"
			},
			{
				"type": "unocc",
				"energy": 0.05236,
				"method": "rhf"
			},
			{
				"type": "unocc",
				"energy": 0.08233,
				"method": "rhf"
			},
			{
				"type": "unocc",
				"energy": 0.10526,
				"method": "rhf"
			}
		],
		"cosmo_sigma_profile": { 
			"-0.025": 0.0,
			"-0.024": 0.0,
			"-0.023": 0.0,
			"-0.022": 0.0,
			"-0.021": 0.0,
			"-0.02": 0.0,
			"-0.019": 0.0,
			"-0.018": 0.0,
			"-0.017": 0.0,
			"-0.016": 0.0,
			"-0.015": 0.0,
			"-0.014": 0.0,
			"-0.013": 0.0,
			"-0.012": 0.0,
			"-0.011": 0.0,
			"-0.01": 0.000119155225554,
			"-0.009": 1.32510626164,
			"-0.008": 7.4882814088,
			"-0.007": 9.57314060452,
			"-0.006": 12.5294329572,
			"-0.005": 16.0691527311,
			"-0.004": 21.5115290944,
			"-0.003": 17.4252909341,
			"-0.002": 15.9389774405,
			"-0.001": 16.6685372829,
			"0.0": 11.4766032178,
			"0.001": 6.42797238105,
			"0.002": 8.04494681457,
			"0.003": 6.89683872257,
			"0.004": 7.0596386554,
			"0.005": 5.45446579545,
			"0.006": 4.54129540888,
			"0.007": 4.42362030834,
			"0.008": 4.82216907455,
			"0.009": 7.60734686546,
			"0.01": 9.19097675934,
			"0.011": 7.13054418059,
			"0.012": 3.71072441926,
			"0.013": 0.320416849411,
			"0.014": 0.0,
			"0.015": 0.0,
			"0.016": 0.0,
			"0.017": 0.0,
			"0.018": 0.0,
			"0.019": 0.0,
			"0.02": 0.0,
			"0.021": 0.0,
			"0.022": 0.0,
			"0.023": 0.0,
			"0.024": 0.0,
			"0.025": 0.0
		}
	}
}
