{
	 "smiles": "O=CC1=COC2=C(C=CC=C2)C1=O", 
	 "Tm": 426.15, 
	 "num_atms": 19, 
	 "gaussian": { 
		 "optdone": 1, 
		 "sigma_profile": "yes", 
		 "theory": "DFT", 
		 "functional": "B3LYP", 
		 "basiset": "6-31G**", 
		 "properties": { 
			 "R2extent": 2927.4479, 
			 "electric_dipole_moment_norm": 6.30516691214, 
			 "electric_quadrupole_moment_norm": 21.5557294968, 
			 "total_energy": -610.322620421, 
			 "HOMO_LUMO_gap": 0.1682, 
			 "cosmo_polarized_energy": -18.13, 
			 "cosmo_cavitation_energy": 24.34, 
			 "cosmo_dispersion_energy": -18.04, 
			 "cosmo_repulsion_energy": 1.39, 
			 "cosmo_total_nonelectrostatic_energy": 7.69, 
			 "SMD_solvation_energy": 6.53 
		},
		"coords": [
			{
				"x": 1.1909737661,
				"y": 3.6653760691,
				"z": -2.9000090321,
				"element": "O" 
			},
			{
				"x": 0.5723727904,
				"y": 3.4233537393,
				"z": -1.887354217,
				"element": "C" 
			},
			{
				"x": 0.6851067858,
				"y": 2.2012032778,
				"z": -1.0594600507,
				"element": "C" 
			},
			{
				"x": -0.1120228078,
				"y": 2.1462660646,
				"z": 0.0396482933,
				"element": "C" 
			},
			{
				"x": -0.1707104219,
				"y": 1.140922472,
				"z": 0.9210369968,
				"element": "O" 
			},
			{
				"x": 0.6426885323,
				"y": 0.0406661433,
				"z": 0.7239298032,
				"element": "C" 
			},
			{
				"x": 1.5133032076,
				"y": -0.0331195518,
				"z": -0.369523961,
				"element": "C" 
			},
			{
				"x": 2.3101560492,
				"y": -1.181170659,
				"z": -0.5063446538,
				"element": "C" 
			},
			{
				"x": 2.2303121056,
				"y": -2.2098115916,
				"z": 0.4217657784,
				"element": "C" 
			},
			{
				"x": 1.3475263925,
				"y": -2.1082711144,
				"z": 1.5090734605,
				"element": "C" 
			},
			{
				"x": 0.5474700555,
				"y": -0.9827429938,
				"z": 1.6682076266,
				"element": "C" 
			},
			{
				"x": 1.5957342257,
				"y": 1.0727220332,
				"z": -1.3630178942,
				"element": "C" 
			},
			{
				"x": 2.350105333,
				"y": 1.02654026,
				"z": -2.3238384219,
				"element": "O" 
			},
			{
				"x": -0.1716974883,
				"y": 4.1535599882,
				"z": -1.4859964639,
				"element": "H" 
			},
			{
				"x": -0.7981738441,
				"y": 2.9445316397,
				"z": 0.3098422269,
				"element": "H" 
			},
			{
				"x": 2.9803205543,
				"y": -1.2247511583,
				"z": -1.3585982858,
				"element": "H" 
			},
			{
				"x": 2.8494118059,
				"y": -3.0942623403,
				"z": 0.30945637,
				"element": "H" 
			},
			{
				"x": 1.2856054936,
				"y": -2.9134307354,
				"z": 2.2348193678,
				"element": "H" 
			},
			{
				"x": -0.1423825354,
				"y": -0.8793815425,
				"z": 2.4987630569,
				"element": "H" 
			}
		],
		 "valence_orbital": [ 
			{
				"type": "occ",
				"energy": -0.29384,
				"method": "rhf"
			},
			{
				"type": "occ",
				"energy": -0.27587,
				"method": "rhf"
			},
			{
				"type": "occ",
				"energy": -0.27015,
				"method": "rhf"
			},
			{
				"type": "occ",
				"energy": -0.25651,
				"method": "rhf"
			},
			{
				"type": "occ",
				"energy": -0.23813,
				"method": "rhf"
			},
			{
				"type": "unocc",
				"energy": -0.06993,
				"method": "rhf"
			},
			{
				"type": "unocc",
				"energy": -0.06054,
				"method": "rhf"
			},
			{
				"type": "unocc",
				"energy": -0.01656,
				"method": "rhf"
			},
			{
				"type": "unocc",
				"energy": 0.00805,
				"method": "rhf"
			},
			{
				"type": "unocc",
				"energy": 0.07401,
				"method": "rhf"
			}
		],
		"cosmo_sigma_profile": { 
			"-0.025": 0.0,
			"-0.024": 0.0,
			"-0.023": 0.0,
			"-0.022": 0.0,
			"-0.021": 0.0,
			"-0.02": 0.0,
			"-0.019": 0.0,
			"-0.018": 0.0,
			"-0.017": 0.0,
			"-0.016": 0.0,
			"-0.015": 0.0,
			"-0.014": 0.0,
			"-0.013": 0.0,
			"-0.012": 0.683976682537,
			"-0.011": 3.76659812906,
			"-0.01": 2.42950298136,
			"-0.009": 2.42403085192,
			"-0.008": 4.27590838032,
			"-0.007": 9.53125881176,
			"-0.006": 13.425926959,
			"-0.005": 14.2316424681,
			"-0.004": 13.7627826017,
			"-0.003": 13.659481269,
			"-0.002": 13.8961524685,
			"-0.001": 11.9310668124,
			"0.0": 12.7005429762,
			"0.001": 14.2588749068,
			"0.002": 13.7251067006,
			"0.003": 9.86930040707,
			"0.004": 3.79737769249,
			"0.005": 2.78643293777,
			"0.006": 2.38359130769,
			"0.007": 2.54553909155,
			"0.008": 3.08488763858,
			"0.009": 2.63926545617,
			"0.01": 3.90892971339,
			"0.011": 6.12611632198,
			"0.012": 7.33752789712,
			"0.013": 2.88715768336,
			"0.014": 1.8464812027,
			"0.015": 1.4227880888,
			"0.016": 0.972519959689,
			"0.017": 0.574141874409,
			"0.018": 0.0,
			"0.019": 0.0,
			"0.02": 0.0,
			"0.021": 0.0,
			"0.022": 0.0,
			"0.023": 0.0,
			"0.024": 0.0,
			"0.025": 0.0
		}
	}
}
