{
	 "smiles": "CCC1(N2CCCCC2)C(=O)NC(=O)NC1=O", 
	 "Tm": 488.15, 
	 "num_atms": 34, 
	 "gaussian": { 
		 "optdone": 1, 
		 "sigma_profile": "yes", 
		 "theory": "DFT", 
		 "functional": "B3LYP", 
		 "basiset": "6-31G**", 
		 "properties": { 
			 "R2extent": 3990.8142, 
			 "electric_dipole_moment_norm": 1.05536181947, 
			 "electric_quadrupole_moment_norm": 9.75578552245, 
			 "total_energy": -819.391815732, 
			 "HOMO_LUMO_gap": 0.16958, 
			 "cosmo_polarized_energy": -16.86, 
			 "cosmo_cavitation_energy": 34.11, 
			 "cosmo_dispersion_energy": -24.22, 
			 "cosmo_repulsion_energy": 1.87, 
			 "cosmo_total_nonelectrostatic_energy": 11.76, 
			 "SMD_solvation_energy": 6.27 
		},
		"coords": [
			{
				"x": 2.2567374541,
				"y": 1.0458489524,
				"z": -1.1015176822,
				"element": "C" 
			},
			{
				"x": 1.7076141532,
				"y": 0.3197740611,
				"z": 0.1297813418,
				"element": "C" 
			},
			{
				"x": 0.3402989959,
				"y": -0.4248130627,
				"z": -0.0805939523,
				"element": "C" 
			},
			{
				"x": -0.7002677449,
				"y": 0.4380637761,
				"z": -0.619108242,
				"element": "N" 
			},
			{
				"x": -0.9107081337,
				"y": 1.7575609568,
				"z": 0.0013325877,
				"element": "C" 
			},
			{
				"x": -1.7382383804,
				"y": 2.6455940903,
				"z": -0.9366602994,
				"element": "C" 
			},
			{
				"x": -3.0844968197,
				"y": 1.9905969294,
				"z": -1.269518655,
				"element": "C" 
			},
			{
				"x": -2.8616425467,
				"y": 0.5709995799,
				"z": -1.8046883319,
				"element": "C" 
			},
			{
				"x": -1.9831273454,
				"y": -0.2433221877,
				"z": -0.8492287808,
				"element": "C" 
			},
			{
				"x": -0.0208783219,
				"y": -0.9945762598,
				"z": 1.3167439081,
				"element": "C" 
			},
			{
				"x": -0.5487981139,
				"y": -0.3194833716,
				"z": 2.18009233,
				"element": "O" 
			},
			{
				"x": 0.3368744491,
				"y": -2.3119052987,
				"z": 1.5840210275,
				"element": "N" 
			},
			{
				"x": 0.8523818213,
				"y": -3.249397377,
				"z": 0.6980445906,
				"element": "C" 
			},
			{
				"x": 1.1263140953,
				"y": -4.3864338591,
				"z": 1.0236799741,
				"element": "O" 
			},
			{
				"x": 1.014420136,
				"y": -2.7739645032,
				"z": -0.5975363468,
				"element": "N" 
			},
			{
				"x": 0.6385506605,
				"y": -1.5351459507,
				"z": -1.1180913855,
				"element": "C" 
			},
			{
				"x": 0.6449566669,
				"y": -1.3565072446,
				"z": -2.3177203925,
				"element": "O" 
			},
			{
				"x": 1.5562669171,
				"y": 1.7966280506,
				"z": -1.4724880305,
				"element": "H" 
			},
			{
				"x": 2.457198733,
				"y": 0.3554673189,
				"z": -1.923236751,
				"element": "H" 
			},
			{
				"x": 3.1929483284,
				"y": 1.5478468732,
				"z": -0.8370904434,
				"element": "H" 
			},
			{
				"x": 1.5734193501,
				"y": 1.0150493981,
				"z": 0.9636571291,
				"element": "H" 
			},
			{
				"x": 2.4340215059,
				"y": -0.4259054809,
				"z": 0.4751135172,
				"element": "H" 
			},
			{
				"x": -1.4175791084,
				"y": 1.6674803376,
				"z": 0.9742165987,
				"element": "H" 
			},
			{
				"x": 0.0545450731,
				"y": 2.2314205378,
				"z": 0.1868927589,
				"element": "H" 
			},
			{
				"x": -1.8893751991,
				"y": 3.6224893308,
				"z": -0.4618778546,
				"element": "H" 
			},
			{
				"x": -1.1706946774,
				"y": 2.8137098537,
				"z": -1.8605710959,
				"element": "H" 
			},
			{
				"x": -3.6983457382,
				"y": 1.9435165632,
				"z": -0.358867344,
				"element": "H" 
			},
			{
				"x": -3.641889069,
				"y": 2.5944676859,
				"z": -1.9947941231,
				"element": "H" 
			},
			{
				"x": -3.8175861971,
				"y": 0.0529362383,
				"z": -1.9464603824,
				"element": "H" 
			},
			{
				"x": -2.361704802,
				"y": 0.6135609259,
				"z": -2.7796096567,
				"element": "H" 
			},
			{
				"x": -2.5239603958,
				"y": -0.4074058311,
				"z": 0.1016060716,
				"element": "H" 
			},
			{
				"x": -1.7907933595,
				"y": -1.2253259081,
				"z": -1.2914914374,
				"element": "H" 
			},
			{
				"x": 0.1516939874,
				"y": -2.6530001436,
				"z": 2.5206997137,
				"element": "H" 
			},
			{
				"x": 1.3017436258,
				"y": -3.4699249812,
				"z": -1.2760303617,
				"element": "H" 
			}
		],
		 "valence_orbital": [ 
			{
				"type": "occ",
				"energy": -0.30287,
				"method": "rhf"
			},
			{
				"type": "occ",
				"energy": -0.30139,
				"method": "rhf"
			},
			{
				"type": "occ",
				"energy": -0.29564,
				"method": "rhf"
			},
			{
				"type": "occ",
				"energy": -0.26729,
				"method": "rhf"
			},
			{
				"type": "occ",
				"energy": -0.21799,
				"method": "rhf"
			},
			{
				"type": "unocc",
				"energy": -0.04841,
				"method": "rhf"
			},
			{
				"type": "unocc",
				"energy": -0.0061,
				"method": "rhf"
			},
			{
				"type": "unocc",
				"energy": 0.05118,
				"method": "rhf"
			},
			{
				"type": "unocc",
				"energy": 0.072,
				"method": "rhf"
			},
			{
				"type": "unocc",
				"energy": 0.08024,
				"method": "rhf"
			}
		],
		"cosmo_sigma_profile": { 
			"-0.025": 0.0,
			"-0.024": 0.0,
			"-0.023": 0.0,
			"-0.022": 0.0,
			"-0.021": 0.0,
			"-0.02": 0.0,
			"-0.019": 0.0,
			"-0.018": 0.0,
			"-0.017": 0.303551579311,
			"-0.016": 1.67052417918,
			"-0.015": 2.38351899222,
			"-0.014": 0.615860624876,
			"-0.013": 2.24130304007,
			"-0.012": 1.5727610944,
			"-0.011": 1.48381401092,
			"-0.01": 2.00049033521,
			"-0.009": 2.44580647538,
			"-0.008": 2.87340041015,
			"-0.007": 4.0920349669,
			"-0.006": 7.20589227353,
			"-0.005": 9.51356731712,
			"-0.004": 14.3065392362,
			"-0.003": 24.2703893694,
			"-0.002": 36.8840372564,
			"-0.001": 35.8298049472,
			"0.0": 28.8851714493,
			"0.001": 18.8914070597,
			"0.002": 7.13493424474,
			"0.003": 4.14761428425,
			"0.004": 3.84742097204,
			"0.005": 4.92960299597,
			"0.006": 4.62325572891,
			"0.007": 3.29997090065,
			"0.008": 4.76748692004,
			"0.009": 5.20957017501,
			"0.01": 6.56599510363,
			"0.011": 12.8692179563,
			"0.012": 7.3935512889,
			"0.013": 1.49748514517,
			"0.014": 0.832417108971,
			"0.015": 0.613229107255,
			"0.016": 0.23946507898,
			"0.017": 0.0243863737132,
			"0.018": 0.0,
			"0.019": 0.0,
			"0.02": 0.0,
			"0.021": 0.0,
			"0.022": 0.0,
			"0.023": 0.0,
			"0.024": 0.0,
			"0.025": 0.0
		}
	}
}
