{
	 "smiles": "CCOC1=CC=C(C=C1)C1(O)CCCC1", 
	 "Tm": 362.15, 
	 "num_atms": 33, 
	 "gaussian": { 
		 "optdone": 1, 
		 "sigma_profile": "yes", 
		 "theory": "DFT", 
		 "functional": "B3LYP", 
		 "basiset": "6-31G**", 
		 "properties": { 
			 "R2extent": 4843.9599, 
			 "electric_dipole_moment_norm": 1.36989607635, 
			 "electric_quadrupole_moment_norm": 9.71349473619, 
			 "total_energy": -656.677163649, 
			 "HOMO_LUMO_gap": 0.20976, 
			 "cosmo_polarized_energy": -9.0, 
			 "cosmo_cavitation_energy": 33.66, 
			 "cosmo_dispersion_energy": -24.62, 
			 "cosmo_repulsion_energy": 1.94, 
			 "cosmo_total_nonelectrostatic_energy": 10.99, 
			 "SMD_solvation_energy": 5.55 
		},
		"coords": [
			{
				"x": -3.2696000647,
				"y": -2.9095599038,
				"z": 1.8661117231,
				"element": "C" 
			},
			{
				"x": -2.1986306426,
				"y": -2.4652864163,
				"z": 2.8577579918,
				"element": "C" 
			},
			{
				"x": -0.8734518362,
				"y": -2.6699699981,
				"z": 2.3647093319,
				"element": "O" 
			},
			{
				"x": -0.3264138104,
				"y": -1.7719941282,
				"z": 1.4911131915,
				"element": "C" 
			},
			{
				"x": 0.9601746053,
				"y": -2.0888999699,
				"z": 1.0285827503,
				"element": "C" 
			},
			{
				"x": 1.6242609511,
				"y": -1.2365082169,
				"z": 0.1565988337,
				"element": "C" 
			},
			{
				"x": 1.0377645176,
				"y": -0.0382795271,
				"z": -0.2875873476,
				"element": "C" 
			},
			{
				"x": -0.2490155301,
				"y": 0.2547452049,
				"z": 0.1712776251,
				"element": "C" 
			},
			{
				"x": -0.9325917115,
				"y": -0.5910927898,
				"z": 1.0505890263,
				"element": "C" 
			},
			{
				"x": 1.7458544595,
				"y": 0.8941586466,
				"z": -1.267811396,
				"element": "C" 
			},
			{
				"x": 1.0702641666,
				"y": 2.1607954225,
				"z": -1.3471683739,
				"element": "O" 
			},
			{
				"x": 3.2428646791,
				"y": 1.1517152116,
				"z": -0.9784893379,
				"element": "C" 
			},
			{
				"x": 3.7550075022,
				"y": 1.7985563802,
				"z": -2.2766310578,
				"element": "C" 
			},
			{
				"x": 2.9694780044,
				"y": 1.0840949783,
				"z": -3.4119490514,
				"element": "C" 
			},
			{
				"x": 1.7758723517,
				"y": 0.3689435659,
				"z": -2.7220500763,
				"element": "C" 
			},
			{
				"x": -3.2376669973,
				"y": -2.3210003945,
				"z": 0.9453906226,
				"element": "H" 
			},
			{
				"x": -4.2640105335,
				"y": -2.7961008861,
				"z": 2.3110802509,
				"element": "H" 
			},
			{
				"x": -3.1276437759,
				"y": -3.9616486572,
				"z": 1.6029645972,
				"element": "H" 
			},
			{
				"x": -2.2485904496,
				"y": -3.0739802589,
				"z": 3.7653053727,
				"element": "H" 
			},
			{
				"x": -2.337010137,
				"y": -1.4187445497,
				"z": 3.1584170773,
				"element": "H" 
			},
			{
				"x": 1.4198380242,
				"y": -3.0097698671,
				"z": 1.3730529062,
				"element": "H" 
			},
			{
				"x": 2.6171053846,
				"y": -1.5173992794,
				"z": -0.1830793996,
				"element": "H" 
			},
			{
				"x": -0.7339402745,
				"y": 1.1600446823,
				"z": -0.1775507025,
				"element": "H" 
			},
			{
				"x": -1.9305765225,
				"y": -0.3176363476,
				"z": 1.3726855463,
				"element": "H" 
			},
			{
				"x": 1.1548502968,
				"y": 2.5858933176,
				"z": -0.4820784573,
				"element": "H" 
			},
			{
				"x": 3.3860214399,
				"y": 1.7742951984,
				"z": -0.0870491049,
				"element": "H" 
			},
			{
				"x": 3.7600316439,
				"y": 0.2037941484,
				"z": -0.7931731098,
				"element": "H" 
			},
			{
				"x": 4.8396731855,
				"y": 1.7082527129,
				"z": -2.3895915079,
				"element": "H" 
			},
			{
				"x": 3.5119884703,
				"y": 2.8645291826,
				"z": -2.2709502054,
				"element": "H" 
			},
			{
				"x": 3.6021338351,
				"y": 0.3572913059,
				"z": -3.9319830848,
				"element": "H" 
			},
			{
				"x": 2.6295841179,
				"y": 1.8012689616,
				"z": -4.163930627,
				"element": "H" 
			},
			{
				"x": 0.8137351796,
				"y": 0.5620807275,
				"z": -3.2039223623,
				"element": "H" 
			},
			{
				"x": 1.9235394704,
				"y": -0.7151884564,
				"z": -2.7061416444,
				"element": "H" 
			}
		],
		 "valence_orbital": [ 
			{
				"type": "occ",
				"energy": -0.30597,
				"method": "rhf"
			},
			{
				"type": "occ",
				"energy": -0.29825,
				"method": "rhf"
			},
			{
				"type": "occ",
				"energy": -0.26652,
				"method": "rhf"
			},
			{
				"type": "occ",
				"energy": -0.24522,
				"method": "rhf"
			},
			{
				"type": "occ",
				"energy": -0.20814,
				"method": "rhf"
			},
			{
				"type": "unocc",
				"energy": 0.00162,
				"method": "rhf"
			},
			{
				"type": "unocc",
				"energy": 0.01595,
				"method": "rhf"
			},
			{
				"type": "unocc",
				"energy": 0.07597,
				"method": "rhf"
			},
			{
				"type": "unocc",
				"energy": 0.09293,
				"method": "rhf"
			},
			{
				"type": "unocc",
				"energy": 0.10425,
				"method": "rhf"
			}
		],
		"cosmo_sigma_profile": { 
			"-0.025": 0.0,
			"-0.024": 0.0,
			"-0.023": 0.0,
			"-0.022": 0.0,
			"-0.021": 0.0,
			"-0.02": 0.0,
			"-0.019": 0.0,
			"-0.018": 0.0,
			"-0.017": 0.0,
			"-0.016": 0.0,
			"-0.015": 0.156768892981,
			"-0.014": 0.778243459017,
			"-0.013": 0.926898009845,
			"-0.012": 0.681707498927,
			"-0.011": 0.73061335737,
			"-0.01": 1.08893038214,
			"-0.009": 1.10079947492,
			"-0.008": 0.759619171358,
			"-0.007": 1.33532370032,
			"-0.006": 6.10640244427,
			"-0.005": 12.424367846,
			"-0.004": 18.0449521857,
			"-0.003": 27.1593817025,
			"-0.002": 30.5505599129,
			"-0.001": 28.2287940328,
			"0.0": 30.8898778955,
			"0.001": 25.7562930122,
			"0.002": 15.2158447176,
			"0.003": 10.142864257,
			"0.004": 11.3244491472,
			"0.005": 10.9991865751,
			"0.006": 11.6340577038,
			"0.007": 3.71959853103,
			"0.008": 2.02816547629,
			"0.009": 3.1080549713,
			"0.01": 2.75747482818,
			"0.011": 1.70454295708,
			"0.012": 1.29823321873,
			"0.013": 1.04441856527,
			"0.014": 1.16709662712,
			"0.015": 0.0633289416087,
			"0.016": 0.0,
			"0.017": 0.0,
			"0.018": 0.0,
			"0.019": 0.0,
			"0.02": 0.0,
			"0.021": 0.0,
			"0.022": 0.0,
			"0.023": 0.0,
			"0.024": 0.0,
			"0.025": 0.0
		}
	}
}
