{
	 "smiles": "CC(C)C1=CC(OC2=CC=CC=C2)=CC(C(C)C)=C1NC(=S)NC(C)(C)C", 
	 "Tm": 419.15, 
	 "num_atms": 59, 
	 "gaussian": { 
		 "optdone": 1, 
		 "sigma_profile": "yes", 
		 "theory": "DFT", 
		 "functional": "B3LYP", 
		 "basiset": "6-31G**", 
		 "properties": { 
			 "R2extent": 14255.7739, 
			 "electric_dipole_moment_norm": 6.13785873249, 
			 "electric_quadrupole_moment_norm": 23.2652438384, 
			 "total_energy": -1478.68653384, 
			 "HOMO_LUMO_gap": 0.18243, 
			 "cosmo_polarized_energy": -21.59, 
			 "cosmo_cavitation_energy": 61.09, 
			 "cosmo_dispersion_energy": -37.49, 
			 "cosmo_repulsion_energy": 2.86, 
			 "cosmo_total_nonelectrostatic_energy": 26.46, 
			 "SMD_solvation_energy": 9.6 
		},
		"coords": [
			{
				"x": -3.5264661216,
				"y": 1.1445086789,
				"z": 1.1621768353,
				"element": "C" 
			},
			{
				"x": -2.1658882846,
				"y": 1.3808373122,
				"z": 0.4793561851,
				"element": "C" 
			},
			{
				"x": -2.2732122351,
				"y": 2.4423859281,
				"z": -0.6325570573,
				"element": "C" 
			},
			{
				"x": -1.5734631371,
				"y": 0.0765623359,
				"z": -0.0425576171,
				"element": "C" 
			},
			{
				"x": -2.2532972575,
				"y": -0.6317763385,
				"z": -1.0363050942,
				"element": "C" 
			},
			{
				"x": -1.7467290939,
				"y": -1.8318216131,
				"z": -1.527872811,
				"element": "C" 
			},
			{
				"x": -2.5281134899,
				"y": -2.4916829048,
				"z": -2.4556146672,
				"element": "O" 
			},
			{
				"x": -1.9578007476,
				"y": -3.2723473435,
				"z": -3.4422546708,
				"element": "C" 
			},
			{
				"x": -2.6003494113,
				"y": -4.4750326647,
				"z": -3.7432899183,
				"element": "C" 
			},
			{
				"x": -2.1232863871,
				"y": -5.2670952848,
				"z": -4.7876739897,
				"element": "C" 
			},
			{
				"x": -1.0065185207,
				"y": -4.8677594753,
				"z": -5.5249731613,
				"element": "C" 
			},
			{
				"x": -0.372575535,
				"y": -3.6622020784,
				"z": -5.2154967722,
				"element": "C" 
			},
			{
				"x": -0.8443873392,
				"y": -2.855893005,
				"z": -4.1792019642,
				"element": "C" 
			},
			{
				"x": -0.5519193122,
				"y": -2.350953864,
				"z": -1.033658381,
				"element": "C" 
			},
			{
				"x": 0.1613368448,
				"y": -1.6658763458,
				"z": -0.0446245554,
				"element": "C" 
			},
			{
				"x": 1.461657334,
				"y": -2.2660517177,
				"z": 0.4793598002,
				"element": "C" 
			},
			{
				"x": 2.5234292764,
				"y": -2.3773760029,
				"z": -0.6320209332,
				"element": "C" 
			},
			{
				"x": 1.2195749909,
				"y": -3.6257608995,
				"z": 1.161906885,
				"element": "C" 
			},
			{
				"x": -0.358370169,
				"y": -0.4497015413,
				"z": 0.4439847591,
				"element": "C" 
			},
			{
				"x": 0.3980781904,
				"y": 0.3022758481,
				"z": 1.4090895536,
				"element": "N" 
			},
			{
				"x": 0.2864438958,
				"y": 0.1911251107,
				"z": 2.7633867112,
				"element": "C" 
			},
			{
				"x": -0.7807854992,
				"y": -0.8817571304,
				"z": 3.5151730656,
				"element": "S" 
			},
			{
				"x": 1.0829490738,
				"y": 0.992615221,
				"z": 3.5296850488,
				"element": "N" 
			},
			{
				"x": 2.1067979241,
				"y": 2.013390282,
				"z": 3.2005989016,
				"element": "C" 
			},
			{
				"x": 3.2953183775,
				"y": 1.3970411044,
				"z": 2.4319789518,
				"element": "C" 
			},
			{
				"x": 1.4943722873,
				"y": 3.2031221611,
				"z": 2.4305873005,
				"element": "C" 
			},
			{
				"x": 2.6169957155,
				"y": 2.5236561939,
				"z": 4.5611365898,
				"element": "C" 
			},
			{
				"x": -3.9079751161,
				"y": 2.0814572167,
				"z": 1.5832423057,
				"element": "H" 
			},
			{
				"x": -4.2722626591,
				"y": 0.7714651103,
				"z": 0.451523716,
				"element": "H" 
			},
			{
				"x": -3.428687379,
				"y": 0.4167939468,
				"z": 1.9719373617,
				"element": "H" 
			},
			{
				"x": -1.4863301206,
				"y": 1.7701264437,
				"z": 1.2423345577,
				"element": "H" 
			},
			{
				"x": -2.9610491891,
				"y": 2.1269717254,
				"z": -1.4244457114,
				"element": "H" 
			},
			{
				"x": -1.3009988313,
				"y": 2.6372684662,
				"z": -1.0983264877,
				"element": "H" 
			},
			{
				"x": -2.6495454298,
				"y": 3.3869221748,
				"z": -0.2245740632,
				"element": "H" 
			},
			{
				"x": -3.1919586147,
				"y": -0.2665891712,
				"z": -1.4394041189,
				"element": "H" 
			},
			{
				"x": -3.4652061765,
				"y": -4.7672201369,
				"z": -3.1569398643,
				"element": "H" 
			},
			{
				"x": -2.624915958,
				"y": -6.2019156016,
				"z": -5.0208297095,
				"element": "H" 
			},
			{
				"x": -0.6348455638,
				"y": -5.4883836013,
				"z": -6.3345446198,
				"element": "H" 
			},
			{
				"x": 0.4917315848,
				"y": -3.3391405558,
				"z": -5.7889722648,
				"element": "H" 
			},
			{
				"x": -0.3610569171,
				"y": -1.914023104,
				"z": -3.9430589553,
				"element": "H" 
			},
			{
				"x": -0.1811720906,
				"y": -3.2957445026,
				"z": -1.4148964111,
				"element": "H" 
			},
			{
				"x": 1.8531415967,
				"y": -1.5884573386,
				"z": 1.242820034,
				"element": "H" 
			},
			{
				"x": 3.4653248308,
				"y": -2.7607568138,
				"z": -0.2244822067,
				"element": "H" 
			},
			{
				"x": 2.7250126803,
				"y": -1.404873105,
				"z": -1.0944858131,
				"element": "H" 
			},
			{
				"x": 2.2044407945,
				"y": -3.0610023242,
				"z": -1.4262801882,
				"element": "H" 
			},
			{
				"x": 0.8472151329,
				"y": -4.3717321824,
				"z": 0.4509880576,
				"element": "H" 
			},
			{
				"x": 2.1543553567,
				"y": -4.0093928814,
				"z": 1.58582504,
				"element": "H" 
			},
			{
				"x": 0.4900080956,
				"y": -3.5253618967,
				"z": 1.9696308457,
				"element": "H" 
			},
			{
				"x": 1.0542482007,
				"y": 0.9736131449,
				"z": 1.0398490561,
				"element": "H" 
			},
			{
				"x": 0.9188835892,
				"y": 0.8272381148,
				"z": 4.5126389563,
				"element": "H" 
			},
			{
				"x": 3.0185832356,
				"y": 1.0172847849,
				"z": 1.4443864359,
				"element": "H" 
			},
			{
				"x": 4.0758580708,
				"y": 2.1500395244,
				"z": 2.2831517844,
				"element": "H" 
			},
			{
				"x": 3.7219030505,
				"y": 0.5640791536,
				"z": 2.997890347,
				"element": "H" 
			},
			{
				"x": 0.6601985369,
				"y": 3.6305667769,
				"z": 2.9940320535,
				"element": "H" 
			},
			{
				"x": 2.2488975844,
				"y": 3.9826746023,
				"z": 2.2844049915,
				"element": "H" 
			},
			{
				"x": 1.1174848124,
				"y": 2.9280975328,
				"z": 1.441318649,
				"element": "H" 
			},
			{
				"x": 1.801570454,
				"y": 2.9665426046,
				"z": 5.1425639543,
				"element": "H" 
			},
			{
				"x": 3.3842530942,
				"y": 3.2886933451,
				"z": 4.4163639085,
				"element": "H" 
			},
			{
				"x": 3.0571019756,
				"y": 1.7076265806,
				"z": 5.1438193646,
				"element": "H" 
			}
		],
		 "valence_orbital": [ 
			{
				"type": "occ",
				"energy": -0.246,
				"method": "rhf"
			},
			{
				"type": "occ",
				"energy": -0.23543,
				"method": "rhf"
			},
			{
				"type": "occ",
				"energy": -0.21599,
				"method": "rhf"
			},
			{
				"type": "occ",
				"energy": -0.20085,
				"method": "rhf"
			},
			{
				"type": "occ",
				"energy": -0.19062,
				"method": "rhf"
			},
			{
				"type": "unocc",
				"energy": -0.00819,
				"method": "rhf"
			},
			{
				"type": "unocc",
				"energy": -0.00378,
				"method": "rhf"
			},
			{
				"type": "unocc",
				"energy": 0.00323,
				"method": "rhf"
			},
			{
				"type": "unocc",
				"energy": 0.01098,
				"method": "rhf"
			},
			{
				"type": "unocc",
				"energy": 0.01362,
				"method": "rhf"
			}
		],
		"cosmo_sigma_profile": { 
			"-0.025": 0.0,
			"-0.024": 0.0,
			"-0.023": 0.0,
			"-0.022": 0.0,
			"-0.021": 0.0,
			"-0.02": 0.0,
			"-0.019": 0.0,
			"-0.018": 0.0,
			"-0.017": 0.0,
			"-0.016": 0.0,
			"-0.015": 0.0,
			"-0.014": 0.824809831087,
			"-0.013": 0.605139888457,
			"-0.012": 0.884148673723,
			"-0.011": 2.56221690065,
			"-0.01": 1.85546910938,
			"-0.009": 1.7335641301,
			"-0.008": 2.24460540615,
			"-0.007": 2.49047512488,
			"-0.006": 11.9928820041,
			"-0.005": 21.381155588,
			"-0.004": 36.2932347923,
			"-0.003": 47.6856558756,
			"-0.002": 51.6022803856,
			"-0.001": 54.8585283333,
			"0.0": 52.5417783222,
			"0.001": 48.6031624218,
			"0.002": 29.2248541105,
			"0.003": 21.0895911407,
			"0.004": 28.7253650143,
			"0.005": 23.6312824806,
			"0.006": 9.98752819788,
			"0.007": 6.99041727394,
			"0.008": 6.32428989749,
			"0.009": 4.9769829676,
			"0.01": 4.09168387269,
			"0.011": 3.43107007275,
			"0.012": 3.77778893521,
			"0.013": 1.12106563214,
			"0.014": 0.0,
			"0.015": 0.0,
			"0.016": 0.0,
			"0.017": 0.0,
			"0.018": 0.0,
			"0.019": 0.0,
			"0.02": 0.0,
			"0.021": 0.0,
			"0.022": 0.0,
			"0.023": 0.0,
			"0.024": 0.0,
			"0.025": 0.0
		}
	}
}
