{
	 "smiles": "C[Si](N[Si](C)(C1=CC=CC=C1)C1=CC=CC=C1)(C1=CC=CC=C1)C1=CC=CC=C1", 
	 "Tm": 364.15, 
	 "num_atms": 56, 
	 "gaussian": { 
		 "optdone": 1, 
		 "sigma_profile": "yes", 
		 "theory": "DFT", 
		 "functional": "B3LYP", 
		 "basiset": "6-31G**", 
		 "properties": { 
			 "R2extent": 13954.1452, 
			 "electric_dipole_moment_norm": 0.26668305158, 
			 "electric_quadrupole_moment_norm": 4.69826448064, 
			 "total_energy": -1640.90317277, 
			 "HOMO_LUMO_gap": 0.22216, 
			 "cosmo_polarized_energy": -10.7, 
			 "cosmo_cavitation_energy": 62.7, 
			 "cosmo_dispersion_energy": -36.04, 
			 "cosmo_repulsion_energy": 2.87, 
			 "cosmo_total_nonelectrostatic_energy": 29.53, 
			 "SMD_solvation_energy": 11.41 
		},
		"coords": [
			{
				"x": -0.1826855571,
				"y": 1.9331845341,
				"z": -0.7640129516,
				"element": "C" 
			},
			{
				"x": 0.7804237913,
				"y": 0.3106485872,
				"z": -0.6976384578,
				"element": "Si" 
			},
			{
				"x": -0.1157986283,
				"y": -0.8919145922,
				"z": 0.2068120022,
				"element": "N" 
			},
			{
				"x": -1.8119228178,
				"y": -1.3264654047,
				"z": 0.250225502,
				"element": "Si" 
			},
			{
				"x": -2.5346639427,
				"y": -1.3207528545,
				"z": -1.4938838345,
				"element": "C" 
			},
			{
				"x": -1.8930883221,
				"y": -3.0622796904,
				"z": 0.999580895,
				"element": "C" 
			},
			{
				"x": -1.0224319507,
				"y": -4.0750847285,
				"z": 0.5518075767,
				"element": "C" 
			},
			{
				"x": -1.0814113227,
				"y": -5.3685967875,
				"z": 1.0718451807,
				"element": "C" 
			},
			{
				"x": -2.0200134466,
				"y": -5.6812521505,
				"z": 2.0576490686,
				"element": "C" 
			},
			{
				"x": -2.8935994379,
				"y": -4.6950724559,
				"z": 2.5180289156,
				"element": "C" 
			},
			{
				"x": -2.8275259116,
				"y": -3.4018703151,
				"z": 1.9947532467,
				"element": "C" 
			},
			{
				"x": -2.8059058421,
				"y": -0.1331327869,
				"z": 1.3331891174,
				"element": "C" 
			},
			{
				"x": -4.1814622839,
				"y": 0.0856077352,
				"z": 1.129937563,
				"element": "C" 
			},
			{
				"x": -4.9120007087,
				"y": 0.9470415315,
				"z": 1.9514754493,
				"element": "C" 
			},
			{
				"x": -4.2783449944,
				"y": 1.6157686157,
				"z": 3.0001423619,
				"element": "C" 
			},
			{
				"x": -2.9140034243,
				"y": 1.4175207625,
				"z": 3.2219814995,
				"element": "C" 
			},
			{
				"x": -2.1920426163,
				"y": 0.5537639247,
				"z": 2.3969330872,
				"element": "C" 
			},
			{
				"x": 2.4207844041,
				"y": 0.543987278,
				"z": 0.2166627258,
				"element": "C" 
			},
			{
				"x": 2.4448442273,
				"y": 0.687393914,
				"z": 1.6177799864,
				"element": "C" 
			},
			{
				"x": 3.6405551507,
				"y": 0.8860795275,
				"z": 2.3091176782,
				"element": "C" 
			},
			{
				"x": 4.8479082266,
				"y": 0.9476879997,
				"z": 1.6098582121,
				"element": "C" 
			},
			{
				"x": 4.850421782,
				"y": 0.8081653689,
				"z": 0.2212529499,
				"element": "C" 
			},
			{
				"x": 3.6502498393,
				"y": 0.6071390493,
				"z": -0.4640682954,
				"element": "C" 
			},
			{
				"x": 1.1307587525,
				"y": -0.269815423,
				"z": -2.465554511,
				"element": "C" 
			},
			{
				"x": 1.3095898633,
				"y": 0.6384097145,
				"z": -3.5258379609,
				"element": "C" 
			},
			{
				"x": 1.5943508502,
				"y": 0.200226743,
				"z": -4.8211180473,
				"element": "C" 
			},
			{
				"x": 1.704810225,
				"y": -1.1654936131,
				"z": -5.0872894332,
				"element": "C" 
			},
			{
				"x": 1.5301417738,
				"y": -2.0874930163,
				"z": -4.0531125826,
				"element": "C" 
			},
			{
				"x": 1.247095041,
				"y": -1.6406686911,
				"z": -2.7615755289,
				"element": "C" 
			},
			{
				"x": -1.1360990885,
				"y": 1.8202343619,
				"z": -1.2912369727,
				"element": "H" 
			},
			{
				"x": -0.4029544446,
				"y": 2.28857666,
				"z": 0.2472742464,
				"element": "H" 
			},
			{
				"x": 0.3882416239,
				"y": 2.71558072,
				"z": -1.2752516863,
				"element": "H" 
			},
			{
				"x": 0.4627686442,
				"y": -1.4495898841,
				"z": 0.8265878483,
				"element": "H" 
			},
			{
				"x": -3.581650097,
				"y": -1.6421294219,
				"z": -1.4930872413,
				"element": "H" 
			},
			{
				"x": -2.4938078908,
				"y": -0.3253780386,
				"z": -1.9491080121,
				"element": "H" 
			},
			{
				"x": -1.9767324729,
				"y": -2.004606869,
				"z": -2.1409089537,
				"element": "H" 
			},
			{
				"x": -0.2836165146,
				"y": -3.8504678534,
				"z": -0.2144484747,
				"element": "H" 
			},
			{
				"x": -0.3970179688,
				"y": -6.1312910286,
				"z": 0.7098533129,
				"element": "H" 
			},
			{
				"x": -2.0682926178,
				"y": -6.6873651951,
				"z": 2.4653043399,
				"element": "H" 
			},
			{
				"x": -3.6235257266,
				"y": -4.9310118099,
				"z": 3.2878238612,
				"element": "H" 
			},
			{
				"x": -3.5095388558,
				"y": -2.6440302352,
				"z": 2.3709911287,
				"element": "H" 
			},
			{
				"x": -4.6963577012,
				"y": -0.4192023727,
				"z": 0.3158982374,
				"element": "H" 
			},
			{
				"x": -5.972774442,
				"y": 1.0992839702,
				"z": 1.770699581,
				"element": "H" 
			},
			{
				"x": -4.8434494242,
				"y": 2.2889973434,
				"z": 3.6389861648,
				"element": "H" 
			},
			{
				"x": -2.4138924154,
				"y": 1.9369196394,
				"z": 4.0351979622,
				"element": "H" 
			},
			{
				"x": -1.1290796979,
				"y": 0.4133190992,
				"z": 2.577169965,
				"element": "H" 
			},
			{
				"x": 1.5148338612,
				"y": 0.6405628944,
				"z": 2.1801843896,
				"element": "H" 
			},
			{
				"x": 3.6314506876,
				"y": 0.9921658585,
				"z": 3.3906877322,
				"element": "H" 
			},
			{
				"x": 5.7809691031,
				"y": 1.1015848096,
				"z": 2.145103913,
				"element": "H" 
			},
			{
				"x": 5.7870545275,
				"y": 0.8509414763,
				"z": -0.3282271452,
				"element": "H" 
			},
			{
				"x": 3.6716772576,
				"y": 0.4912237087,
				"z": -1.5444151376,
				"element": "H" 
			},
			{
				"x": 1.2223503892,
				"y": 1.7071205445,
				"z": -3.3447957925,
				"element": "H" 
			},
			{
				"x": 1.7254404167,
				"y": 0.9233005773,
				"z": -5.6217930079,
				"element": "H" 
			},
			{
				"x": 1.9231720273,
				"y": -1.5094865105,
				"z": -6.0946065498,
				"element": "H" 
			},
			{
				"x": 1.6124121495,
				"y": -3.152427022,
				"z": -4.2539853393,
				"element": "H" 
			},
			{
				"x": 1.1074859504,
				"y": -2.3697581986,
				"z": -1.967139785,
				"element": "H" 
			}
		],
		 "valence_orbital": [ 
			{
				"type": "occ",
				"energy": -0.24584,
				"method": "rhf"
			},
			{
				"type": "occ",
				"energy": -0.24552,
				"method": "rhf"
			},
			{
				"type": "occ",
				"energy": -0.24428,
				"method": "rhf"
			},
			{
				"type": "occ",
				"energy": -0.24269,
				"method": "rhf"
			},
			{
				"type": "occ",
				"energy": -0.2354,
				"method": "rhf"
			},
			{
				"type": "unocc",
				"energy": -0.01324,
				"method": "rhf"
			},
			{
				"type": "unocc",
				"energy": -0.01102,
				"method": "rhf"
			},
			{
				"type": "unocc",
				"energy": -0.01047,
				"method": "rhf"
			},
			{
				"type": "unocc",
				"energy": -0.00808,
				"method": "rhf"
			},
			{
				"type": "unocc",
				"energy": -0.00074,
				"method": "rhf"
			}
		],
		"cosmo_sigma_profile": { 
			"-0.025": 0.0,
			"-0.024": 0.0,
			"-0.023": 0.0,
			"-0.022": 0.0,
			"-0.021": 0.0,
			"-0.02": 0.0,
			"-0.019": 0.0,
			"-0.018": 0.0,
			"-0.017": 0.0,
			"-0.016": 0.0,
			"-0.015": 0.0,
			"-0.014": 0.0,
			"-0.013": 0.0,
			"-0.012": 0.0,
			"-0.011": 0.0,
			"-0.01": 0.0450164029296,
			"-0.009": 0.53942522445,
			"-0.008": 0.871996273061,
			"-0.007": 0.660386301625,
			"-0.006": 9.3656179127,
			"-0.005": 35.904824796,
			"-0.004": 47.3579398292,
			"-0.003": 55.57249717,
			"-0.002": 40.0623122259,
			"-0.001": 44.2497431808,
			"0.0": 38.6044301567,
			"0.001": 41.5695985157,
			"0.002": 38.2820788237,
			"0.003": 37.2810984099,
			"0.004": 32.7643797476,
			"0.005": 30.6846125121,
			"0.006": 30.3291101849,
			"0.007": 3.7352216538,
			"0.008": 0.0,
			"0.009": 0.0,
			"0.01": 0.0,
			"0.011": 0.0,
			"0.012": 0.0,
			"0.013": 0.0,
			"0.014": 0.0,
			"0.015": 0.0,
			"0.016": 0.0,
			"0.017": 0.0,
			"0.018": 0.0,
			"0.019": 0.0,
			"0.02": 0.0,
			"0.021": 0.0,
			"0.022": 0.0,
			"0.023": 0.0,
			"0.024": 0.0,
			"0.025": 0.0
		}
	}
}
