{
	 "smiles": "OC(=O)C1(CC1)C1=CC(Cl)=CC=C1", 
	 "Tm": 409.15, 
	 "num_atms": 22, 
	 "gaussian": { 
		 "optdone": 1, 
		 "sigma_profile": "yes", 
		 "theory": "DFT", 
		 "functional": "B3LYP", 
		 "basiset": "6-31G**", 
		 "properties": { 
			 "R2extent": 3244.0471, 
			 "electric_dipole_moment_norm": 4.15979909851, 
			 "electric_quadrupole_moment_norm": 11.0948071628, 
			 "total_energy": -997.113312259, 
			 "HOMO_LUMO_gap": 0.22009, 
			 "cosmo_polarized_energy": -12.55, 
			 "cosmo_cavitation_energy": 27.89, 
			 "cosmo_dispersion_energy": -19.8, 
			 "cosmo_repulsion_energy": 1.57, 
			 "cosmo_total_nonelectrostatic_energy": 9.66, 
			 "SMD_solvation_energy": 5.43 
		},
		"coords": [
			{
				"x": -1.4345352139,
				"y": 0.1875109457,
				"z": 1.7044190079,
				"element": "O" 
			},
			{
				"x": -1.5048992959,
				"y": -0.8556294722,
				"z": 0.8461242309,
				"element": "C" 
			},
			{
				"x": -2.3216560767,
				"y": -1.7318476586,
				"z": 1.0124776755,
				"element": "O" 
			},
			{
				"x": -0.5199599304,
				"y": -0.8577836464,
				"z": -0.3057871032,
				"element": "C" 
			},
			{
				"x": -1.0580614959,
				"y": -1.5060546698,
				"z": -1.5766819593,
				"element": "C" 
			},
			{
				"x": -0.0795006882,
				"y": -2.254918949,
				"z": -0.7348066531,
				"element": "C" 
			},
			{
				"x": 0.451580872,
				"y": 0.287602447,
				"z": -0.4037067324,
				"element": "C" 
			},
			{
				"x": 0.1469006101,
				"y": 1.4131262249,
				"z": -1.1849897376,
				"element": "C" 
			},
			{
				"x": 1.0412468,
				"y": 2.4810386111,
				"z": -1.2419435245,
				"element": "C" 
			},
			{
				"x": 0.6480968625,
				"y": 3.8768110114,
				"z": -2.2330918563,
				"element": "Cl" 
			},
			{
				"x": 2.2405155566,
				"y": 2.463173945,
				"z": -0.5297886739,
				"element": "C" 
			},
			{
				"x": 2.5389949177,
				"y": 1.3473223888,
				"z": 0.253323617,
				"element": "C" 
			},
			{
				"x": 1.6558947824,
				"y": 0.2691800217,
				"z": 0.3186160306,
				"element": "C" 
			},
			{
				"x": -0.7308337017,
				"y": 0.7948162332,
				"z": 1.4269887964,
				"element": "H" 
			},
			{
				"x": -2.0948187506,
				"y": -1.822330184,
				"z": -1.5466272634,
				"element": "H" 
			},
			{
				"x": -0.7153248387,
				"y": -1.0903184523,
				"z": -2.5188608168,
				"element": "H" 
			},
			{
				"x": -0.4549084743,
				"y": -3.0766367974,
				"z": -0.1349559163,
				"element": "H" 
			},
			{
				"x": 0.9403514256,
				"y": -2.3536035667,
				"z": -1.0928251207,
				"element": "H" 
			},
			{
				"x": -0.7787790996,
				"y": 1.4502372086,
				"z": -1.7492750821,
				"element": "H" 
			},
			{
				"x": 2.9222380842,
				"y": 3.3040637621,
				"z": -0.5901092821,
				"element": "H" 
			},
			{
				"x": 3.4699277621,
				"y": 1.320325,
				"z": 0.8115942443,
				"element": "H" 
			},
			{
				"x": 1.8996298927,
				"y": -0.5991844031,
				"z": 0.923706119,
				"element": "H" 
			}
		],
		 "valence_orbital": [ 
			{
				"type": "occ",
				"energy": -0.31906,
				"method": "rhf"
			},
			{
				"type": "occ",
				"energy": -0.29859,
				"method": "rhf"
			},
			{
				"type": "occ",
				"energy": -0.28916,
				"method": "rhf"
			},
			{
				"type": "occ",
				"energy": -0.26858,
				"method": "rhf"
			},
			{
				"type": "occ",
				"energy": -0.25826,
				"method": "rhf"
			},
			{
				"type": "unocc",
				"energy": -0.03817,
				"method": "rhf"
			},
			{
				"type": "unocc",
				"energy": -0.03379,
				"method": "rhf"
			},
			{
				"type": "unocc",
				"energy": 0.0091,
				"method": "rhf"
			},
			{
				"type": "unocc",
				"energy": 0.01699,
				"method": "rhf"
			},
			{
				"type": "unocc",
				"energy": 0.08649,
				"method": "rhf"
			}
		],
		"cosmo_sigma_profile": { 
			"-0.025": 0.0,
			"-0.024": 0.0,
			"-0.023": 0.0,
			"-0.022": 0.0,
			"-0.021": 0.0,
			"-0.02": 0.0,
			"-0.019": 0.0,
			"-0.018": 0.0,
			"-0.017": 0.0,
			"-0.016": 0.0,
			"-0.015": 0.0437561759389,
			"-0.014": 0.503333581821,
			"-0.013": 0.874690531485,
			"-0.012": 0.52421305283,
			"-0.011": 0.48110028669,
			"-0.01": 1.39088533605,
			"-0.009": 0.794700146906,
			"-0.008": 2.08648720237,
			"-0.007": 7.11536096567,
			"-0.006": 13.9566842036,
			"-0.005": 17.0860214848,
			"-0.004": 17.4058439391,
			"-0.003": 15.6132152347,
			"-0.002": 16.7913152601,
			"-0.001": 18.0808240736,
			"0.0": 14.2543188804,
			"0.001": 17.664860536,
			"0.002": 16.6169528342,
			"0.003": 16.8277480232,
			"0.004": 12.6954568576,
			"0.005": 7.68125044627,
			"0.006": 2.2017957302,
			"0.007": 1.96420212453,
			"0.008": 2.41066720098,
			"0.009": 3.43303620601,
			"0.01": 4.52217707403,
			"0.011": 3.72114428829,
			"0.012": 5.22535948905,
			"0.013": 2.45350813164,
			"0.014": 0.339619203846,
			"0.015": 0.0,
			"0.016": 0.0,
			"0.017": 0.0,
			"0.018": 0.0,
			"0.019": 0.0,
			"0.02": 0.0,
			"0.021": 0.0,
			"0.022": 0.0,
			"0.023": 0.0,
			"0.024": 0.0,
			"0.025": 0.0
		}
	}
}
