{
	 "smiles": "OC(=O)CN(CC(O)=O)C1=CC=CC=C1C(O)=O", 
	 "Tm": 490.15, 
	 "num_atms": 29, 
	 "gaussian": { 
		 "optdone": 1, 
		 "sigma_profile": "yes", 
		 "theory": "DFT", 
		 "functional": "B3LYP", 
		 "basiset": "6-31G**", 
		 "properties": { 
			 "R2extent": 4537.7622, 
			 "electric_dipole_moment_norm": 6.73479133827, 
			 "electric_quadrupole_moment_norm": 23.0067575014, 
			 "total_energy": -931.907752898, 
			 "HOMO_LUMO_gap": 0.17955, 
			 "cosmo_polarized_energy": -25.64, 
			 "cosmo_cavitation_energy": 33.59, 
			 "cosmo_dispersion_energy": -23.22, 
			 "cosmo_repulsion_energy": 1.8, 
			 "cosmo_total_nonelectrostatic_energy": 12.17, 
			 "SMD_solvation_energy": 9.3 
		},
		"coords": [
			{
				"x": -1.4265068109,
				"y": 2.023039651,
				"z": 1.788610661,
				"element": "O" 
			},
			{
				"x": -0.134339894,
				"y": 2.4032521448,
				"z": 1.6968305783,
				"element": "C" 
			},
			{
				"x": 0.3551814095,
				"y": 3.26858803,
				"z": 2.3845601583,
				"element": "O" 
			},
			{
				"x": 0.6639125136,
				"y": 1.6318849634,
				"z": 0.642288445,
				"element": "C" 
			},
			{
				"x": -0.0122265044,
				"y": 0.5989425525,
				"z": -0.1338762706,
				"element": "N" 
			},
			{
				"x": -0.8791276829,
				"y": 1.083508303,
				"z": -1.2112525679,
				"element": "C" 
			},
			{
				"x": -0.0765562902,
				"y": 1.5262845349,
				"z": -2.4452453678,
				"element": "C" 
			},
			{
				"x": 1.1780592573,
				"y": 1.0311532053,
				"z": -2.508333755,
				"element": "O" 
			},
			{
				"x": -0.5399389441,
				"y": 2.2323981293,
				"z": -3.3057619962,
				"element": "O" 
			},
			{
				"x": -0.199039175,
				"y": -0.6662488863,
				"z": 0.5146827857,
				"element": "C" 
			},
			{
				"x": 0.9642241733,
				"y": -1.4400433361,
				"z": 0.6717165038,
				"element": "C" 
			},
			{
				"x": 0.9631101978,
				"y": -2.6619346967,
				"z": 1.3360944615,
				"element": "C" 
			},
			{
				"x": -0.2269820022,
				"y": -3.1557752045,
				"z": 1.8685973371,
				"element": "C" 
			},
			{
				"x": -1.389740854,
				"y": -2.4064422426,
				"z": 1.7349904053,
				"element": "C" 
			},
			{
				"x": -1.4056219447,
				"y": -1.1685839107,
				"z": 1.0663176152,
				"element": "C" 
			},
			{
				"x": -2.7379826903,
				"y": -0.4947932928,
				"z": 0.9740701473,
				"element": "C" 
			},
			{
				"x": -3.4318361395,
				"y": -0.6050116777,
				"z": 2.135043064,
				"element": "O" 
			},
			{
				"x": -3.2223278789,
				"y": 0.0382135203,
				"z": -0.0023426538,
				"element": "O" 
			},
			{
				"x": -1.8248685019,
				"y": 2.5716775502,
				"z": 2.4858513593,
				"element": "H" 
			},
			{
				"x": 1.5180916485,
				"y": 1.2031127214,
				"z": 1.1748896591,
				"element": "H" 
			},
			{
				"x": 1.0798626935,
				"y": 2.3850778016,
				"z": -0.0368228335,
				"element": "H" 
			},
			{
				"x": -1.5231075061,
				"y": 1.9137015622,
				"z": -0.908969192,
				"element": "H" 
			},
			{
				"x": -1.5516491225,
				"y": 0.2843266549,
				"z": -1.5223476185,
				"element": "H" 
			},
			{
				"x": 1.2889520355,
				"y": 0.5017663746,
				"z": -1.6939927462,
				"element": "H" 
			},
			{
				"x": 1.8908608409,
				"y": -1.0595777915,
				"z": 0.2512331074,
				"element": "H" 
			},
			{
				"x": 1.8855757952,
				"y": -3.227911817,
				"z": 1.4245804669,
				"element": "H" 
			},
			{
				"x": -0.2506374298,
				"y": -4.1104392158,
				"z": 2.3842193373,
				"element": "H" 
			},
			{
				"x": -2.3182363889,
				"y": -2.7719404667,
				"z": 2.1586567348,
				"element": "H" 
			},
			{
				"x": -4.3053048049,
				"y": -0.2188251612,
				"z": 1.9525121743,
				"element": "H" 
			}
		],
		 "valence_orbital": [ 
			{
				"type": "occ",
				"energy": -0.29523,
				"method": "rhf"
			},
			{
				"type": "occ",
				"energy": -0.28743,
				"method": "rhf"
			},
			{
				"type": "occ",
				"energy": -0.27621,
				"method": "rhf"
			},
			{
				"type": "occ",
				"energy": -0.26828,
				"method": "rhf"
			},
			{
				"type": "occ",
				"energy": -0.2349,
				"method": "rhf"
			},
			{
				"type": "unocc",
				"energy": -0.05535,
				"method": "rhf"
			},
			{
				"type": "unocc",
				"energy": -0.03153,
				"method": "rhf"
			},
			{
				"type": "unocc",
				"energy": -0.00675,
				"method": "rhf"
			},
			{
				"type": "unocc",
				"energy": 0.0167,
				"method": "rhf"
			},
			{
				"type": "unocc",
				"energy": 0.02481,
				"method": "rhf"
			}
		],
		"cosmo_sigma_profile": { 
			"-0.025": 0.0,
			"-0.024": 0.0,
			"-0.023": 0.0,
			"-0.022": 0.0,
			"-0.021": 0.0,
			"-0.02": 0.0,
			"-0.019": 0.25533663998,
			"-0.018": 1.66301211387,
			"-0.017": 1.68447131687,
			"-0.016": 2.17635905141,
			"-0.015": 1.58634468092,
			"-0.014": 0.513508574442,
			"-0.013": 0.965224684911,
			"-0.012": 2.84060308432,
			"-0.011": 3.45300596055,
			"-0.01": 4.06921445431,
			"-0.009": 4.40719902361,
			"-0.008": 8.22697014491,
			"-0.007": 13.4596100937,
			"-0.006": 17.4540969747,
			"-0.005": 16.8613469144,
			"-0.004": 14.5441944761,
			"-0.003": 13.3371353379,
			"-0.002": 12.88963339,
			"-0.001": 11.2844434306,
			"0.0": 11.8066516846,
			"0.001": 10.69754429,
			"0.002": 13.5608950949,
			"0.003": 16.0753981765,
			"0.004": 12.5356352489,
			"0.005": 8.17630973117,
			"0.006": 6.69227711893,
			"0.007": 5.7269353074,
			"0.008": 6.34836664765,
			"0.009": 8.41464679912,
			"0.01": 9.52490943907,
			"0.011": 11.8590584254,
			"0.012": 10.3219704683,
			"0.013": 3.05626208955,
			"0.014": 0.148090190201,
			"0.015": 0.0,
			"0.016": 0.0,
			"0.017": 0.0,
			"0.018": 0.0,
			"0.019": 0.0,
			"0.02": 0.0,
			"0.021": 0.0,
			"0.022": 0.0,
			"0.023": 0.0,
			"0.024": 0.0,
			"0.025": 0.0
		}
	}
}
