{
	 "smiles": "CC1=CC2=C(C=C1)C(CCN)=CN2", 
	 "Tm": 413.15, 
	 "num_atms": 27, 
	 "gaussian": { 
		 "optdone": 1, 
		 "sigma_profile": "yes", 
		 "theory": "DFT", 
		 "functional": "B3LYP", 
		 "basiset": "6-31G**", 
		 "properties": { 
			 "R2extent": 3370.7855, 
			 "electric_dipole_moment_norm": 2.12651496585, 
			 "electric_quadrupole_moment_norm": 10.1186743371, 
			 "total_energy": -537.121274056, 
			 "HOMO_LUMO_gap": 0.19052, 
			 "cosmo_polarized_energy": -10.39, 
			 "cosmo_cavitation_energy": 29.38, 
			 "cosmo_dispersion_energy": -21.77, 
			 "cosmo_repulsion_energy": 1.75, 
			 "cosmo_total_nonelectrostatic_energy": 9.36, 
			 "SMD_solvation_energy": 4.07 
		},
		"coords": [
			{
				"x": 0.5760651396,
				"y": 1.1711002284,
				"z": -4.3105274085,
				"element": "C" 
			},
			{
				"x": 0.0461416222,
				"y": 0.7930675706,
				"z": -2.9462003562,
				"element": "C" 
			},
			{
				"x": 0.3686372842,
				"y": -0.4339636277,
				"z": -2.3705454687,
				"element": "C" 
			},
			{
				"x": -0.1504930931,
				"y": -0.7375559683,
				"z": -1.1067529523,
				"element": "C" 
			},
			{
				"x": -0.9897733422,
				"y": 0.158370554,
				"z": -0.391151915,
				"element": "C" 
			},
			{
				"x": -1.3046747318,
				"y": 1.3923170375,
				"z": -0.9880573023,
				"element": "C" 
			},
			{
				"x": -0.7904524756,
				"y": 1.6932885538,
				"z": -2.2412388761,
				"element": "C" 
			},
			{
				"x": -1.3268940976,
				"y": -0.4722662392,
				"z": 0.8636460201,
				"element": "C" 
			},
			{
				"x": -2.2005591178,
				"y": 0.1213708456,
				"z": 1.9360816753,
				"element": "C" 
			},
			{
				"x": -1.8764499415,
				"y": -0.3033072108,
				"z": 3.3746833204,
				"element": "C" 
			},
			{
				"x": -2.1328245899,
				"y": -1.7344654724,
				"z": 3.5910833606,
				"element": "N" 
			},
			{
				"x": -0.7024133341,
				"y": -1.6960066118,
				"z": 0.8596948719,
				"element": "C" 
			},
			{
				"x": 0.0074146551,
				"y": -1.8577183579,
				"z": -0.3191587752,
				"element": "N" 
			},
			{
				"x": -0.238470731,
				"y": 1.3390141575,
				"z": -5.0256365989,
				"element": "H" 
			},
			{
				"x": 1.1612506999,
				"y": 2.097809206,
				"z": -4.2715720981,
				"element": "H" 
			},
			{
				"x": 1.2211029861,
				"y": 0.3886837848,
				"z": -4.721004295,
				"element": "H" 
			},
			{
				"x": 1.0096283478,
				"y": -1.1380919762,
				"z": -2.8961675637,
				"element": "H" 
			},
			{
				"x": -1.9464228703,
				"y": 2.1056904491,
				"z": -0.4772248734,
				"element": "H" 
			},
			{
				"x": -1.0342227687,
				"y": 2.6474117073,
				"z": -2.7026621585,
				"element": "H" 
			},
			{
				"x": -2.1222966833,
				"y": 1.2150822394,
				"z": 1.8890528166,
				"element": "H" 
			},
			{
				"x": -3.2622323619,
				"y": -0.0996021404,
				"z": 1.7380037428,
				"element": "H" 
			},
			{
				"x": -0.8127352133,
				"y": -0.1215221986,
				"z": 3.5685414586,
				"element": "H" 
			},
			{
				"x": -2.4435316444,
				"y": 0.3492187869,
				"z": 4.0619317797,
				"element": "H" 
			},
			{
				"x": -1.914242549,
				"y": -1.9827046481,
				"z": 4.5530923936,
				"element": "H" 
			},
			{
				"x": -3.1258345894,
				"y": -1.9235101565,
				"z": 3.467385598,
				"element": "H" 
			},
			{
				"x": -0.7240932243,
				"y": -2.4620311733,
				"z": 1.6199475819,
				"element": "H" 
			},
			{
				"x": 0.5505766245,
				"y": -2.6697793397,
				"z": -0.5606439776,
				"element": "H" 
			}
		],
		 "valence_orbital": [ 
			{
				"type": "occ",
				"energy": -0.30883,
				"method": "rhf"
			},
			{
				"type": "occ",
				"energy": -0.25406,
				"method": "rhf"
			},
			{
				"type": "occ",
				"energy": -0.23477,
				"method": "rhf"
			},
			{
				"type": "occ",
				"energy": -0.20337,
				"method": "rhf"
			},
			{
				"type": "occ",
				"energy": -0.18298,
				"method": "rhf"
			},
			{
				"type": "unocc",
				"energy": 0.00754,
				"method": "rhf"
			},
			{
				"type": "unocc",
				"energy": 0.03739,
				"method": "rhf"
			},
			{
				"type": "unocc",
				"energy": 0.07564,
				"method": "rhf"
			},
			{
				"type": "unocc",
				"energy": 0.08813,
				"method": "rhf"
			},
			{
				"type": "unocc",
				"energy": 0.09341,
				"method": "rhf"
			}
		],
		"cosmo_sigma_profile": { 
			"-0.025": 0.0,
			"-0.024": 0.0,
			"-0.023": 0.0,
			"-0.022": 0.0,
			"-0.021": 0.0,
			"-0.02": 0.0,
			"-0.019": 0.0,
			"-0.018": 0.0,
			"-0.017": 0.0,
			"-0.016": 0.0,
			"-0.015": 0.869340375971,
			"-0.014": 1.59147578865,
			"-0.013": 1.24623071622,
			"-0.012": 1.08698300371,
			"-0.011": 0.818923727621,
			"-0.01": 2.00528202738,
			"-0.009": 3.35975993683,
			"-0.008": 4.50327492861,
			"-0.007": 3.76258894999,
			"-0.006": 5.38440062474,
			"-0.005": 7.54738318421,
			"-0.004": 13.548496883,
			"-0.003": 19.9033702103,
			"-0.002": 23.0115692143,
			"-0.001": 26.6182559025,
			"0.0": 21.979032383,
			"0.001": 14.5248921346,
			"0.002": 8.9633420405,
			"0.003": 8.12094500238,
			"0.004": 9.73197481967,
			"0.005": 11.4992216058,
			"0.006": 14.8585417227,
			"0.007": 15.0553864762,
			"0.008": 6.51448680892,
			"0.009": 1.19613506482,
			"0.01": 1.43964130371,
			"0.011": 0.65503741356,
			"0.012": 0.67317882129,
			"0.013": 0.189281111735,
			"0.014": 0.0,
			"0.015": 0.0,
			"0.016": 0.0,
			"0.017": 0.0,
			"0.018": 0.0,
			"0.019": 0.0,
			"0.02": 0.0,
			"0.021": 0.0,
			"0.022": 0.0,
			"0.023": 0.0,
			"0.024": 0.0,
			"0.025": 0.0
		}
	}
}
