{
	 "smiles": "CC1=CC(N)=C2C=CC=CC2=N1", 
	 "Tm": 439.15, 
	 "num_atms": 22, 
	 "gaussian": { 
		 "optdone": 1, 
		 "sigma_profile": "yes", 
		 "theory": "DFT", 
		 "functional": "B3LYP", 
		 "basiset": "6-31G**", 
		 "properties": { 
			 "R2extent": 2348.6895, 
			 "electric_dipole_moment_norm": 3.4086266208, 
			 "electric_quadrupole_moment_norm": 12.1770681069, 
			 "total_energy": -496.616647766, 
			 "HOMO_LUMO_gap": 0.17332, 
			 "cosmo_polarized_energy": -12.52, 
			 "cosmo_cavitation_energy": 25.18, 
			 "cosmo_dispersion_energy": -19.03, 
			 "cosmo_repulsion_energy": 1.5, 
			 "cosmo_total_nonelectrostatic_energy": 7.65, 
			 "SMD_solvation_energy": 2.69 
		},
		"coords": [
			{
				"x": 1.2988896146,
				"y": 0.8548288888,
				"z": -4.2941173912,
				"element": "C" 
			},
			{
				"x": 0.9555109581,
				"y": 0.6024954984,
				"z": -2.8457269649,
				"element": "C" 
			},
			{
				"x": 0.7320350639,
				"y": 1.7019405103,
				"z": -1.9800883893,
				"element": "C" 
			},
			{
				"x": 0.4150315569,
				"y": 1.4932156073,
				"z": -0.6489053761,
				"element": "C" 
			},
			{
				"x": 0.1608431898,
				"y": 2.549054374,
				"z": 0.2114465245,
				"element": "N" 
			},
			{
				"x": 0.3040992892,
				"y": 0.1355525722,
				"z": -0.1912587345,
				"element": "C" 
			},
			{
				"x": -0.0576320405,
				"y": -0.2222769009,
				"z": 1.1322002111,
				"element": "C" 
			},
			{
				"x": -0.124655276,
				"y": -1.5462589588,
				"z": 1.5132060832,
				"element": "C" 
			},
			{
				"x": 0.1642888329,
				"y": -2.5682943676,
				"z": 0.5801716223,
				"element": "C" 
			},
			{
				"x": 0.5005048742,
				"y": -2.2491550718,
				"z": -0.7170276971,
				"element": "C" 
			},
			{
				"x": 0.5731436684,
				"y": -0.8964516804,
				"z": -1.14302714,
				"element": "C" 
			},
			{
				"x": 0.892992688,
				"y": -0.6576742393,
				"z": -2.4501951283,
				"element": "N" 
			},
			{
				"x": 1.4569613755,
				"y": -0.0967328932,
				"z": -4.8035371485,
				"element": "H" 
			},
			{
				"x": 0.493730141,
				"y": 1.3994454104,
				"z": -4.8013834184,
				"element": "H" 
			},
			{
				"x": 2.2069164346,
				"y": 1.462375054,
				"z": -4.3864705075,
				"element": "H" 
			},
			{
				"x": 0.8219654199,
				"y": 2.7146115872,
				"z": -2.365845941,
				"element": "H" 
			},
			{
				"x": 0.3811600121,
				"y": 2.3978238045,
				"z": 1.1849675443,
				"element": "H" 
			},
			{
				"x": 0.4638364338,
				"y": 3.455284611,
				"z": -0.1167672952,
				"element": "H" 
			},
			{
				"x": -0.3152179717,
				"y": 0.5483621113,
				"z": 1.8533727416,
				"element": "H" 
			},
			{
				"x": -0.4078806263,
				"y": -1.8053080615,
				"z": 2.5291305845,
				"element": "H" 
			},
			{
				"x": 0.1110683607,
				"y": -3.6084445019,
				"z": 0.8891035348,
				"element": "H" 
			},
			{
				"x": 0.7153080011,
				"y": -3.0126933539,
				"z": -1.4576477144,
				"element": "H" 
			}
		],
		 "valence_orbital": [ 
			{
				"type": "occ",
				"energy": -0.31977,
				"method": "rhf"
			},
			{
				"type": "occ",
				"energy": -0.25506,
				"method": "rhf"
			},
			{
				"type": "occ",
				"energy": -0.24009,
				"method": "rhf"
			},
			{
				"type": "occ",
				"energy": -0.23716,
				"method": "rhf"
			},
			{
				"type": "occ",
				"energy": -0.20645,
				"method": "rhf"
			},
			{
				"type": "unocc",
				"energy": -0.03313,
				"method": "rhf"
			},
			{
				"type": "unocc",
				"energy": -0.00617,
				"method": "rhf"
			},
			{
				"type": "unocc",
				"energy": 0.03965,
				"method": "rhf"
			},
			{
				"type": "unocc",
				"energy": 0.06729,
				"method": "rhf"
			},
			{
				"type": "unocc",
				"energy": 0.09726,
				"method": "rhf"
			}
		],
		"cosmo_sigma_profile": { 
			"-0.025": 0.0,
			"-0.024": 0.0,
			"-0.023": 0.0,
			"-0.022": 0.0,
			"-0.021": 0.0,
			"-0.02": 0.0,
			"-0.019": 0.0,
			"-0.018": 0.0,
			"-0.017": 0.0,
			"-0.016": 0.0,
			"-0.015": 0.0,
			"-0.014": 0.367127494378,
			"-0.013": 2.18752803292,
			"-0.012": 2.92317366485,
			"-0.011": 2.92939272993,
			"-0.01": 3.17023182588,
			"-0.009": 2.92696706856,
			"-0.008": 2.28963922822,
			"-0.007": 3.21952975039,
			"-0.006": 6.30438248464,
			"-0.005": 10.9145567097,
			"-0.004": 13.815257704,
			"-0.003": 16.1004364357,
			"-0.002": 12.7547349536,
			"-0.001": 14.012157621,
			"0.0": 12.910676953,
			"0.001": 11.7741579504,
			"0.002": 10.6621654694,
			"0.003": 17.3390056011,
			"0.004": 18.2250593696,
			"0.005": 14.3309919714,
			"0.006": 4.6719696281,
			"0.007": 2.95664021766,
			"0.008": 2.12127820934,
			"0.009": 2.67984597444,
			"0.01": 1.96326934842,
			"0.011": 1.5813516211,
			"0.012": 1.18860568737,
			"0.013": 0.78991541977,
			"0.014": 1.68354307768,
			"0.015": 0.628637090139,
			"0.016": 0.541653965079,
			"0.017": 0.581468485272,
			"0.018": 0.0,
			"0.019": 0.0,
			"0.02": 0.0,
			"0.021": 0.0,
			"0.022": 0.0,
			"0.023": 0.0,
			"0.024": 0.0,
			"0.025": 0.0
		}
	}
}
