{
	 "smiles": "C1=CC2=C3C(C=CC4=CC=CC(C=C2)=C34)=C1", 
	 "Tm": 426.06, 
	 "num_atms": 26, 
	 "gaussian": { 
		 "optdone": 1, 
		 "sigma_profile": "yes", 
		 "theory": "DFT", 
		 "functional": "B3LYP", 
		 "basiset": "6-31G**", 
		 "properties": { 
			 "R2extent": 3180.3081, 
			 "electric_dipole_moment_norm": 0.0, 
			 "electric_quadrupole_moment_norm": 13.4466666256, 
			 "total_energy": -615.775588678, 
			 "HOMO_LUMO_gap": 0.14105, 
			 "cosmo_polarized_energy": -5.95, 
			 "cosmo_cavitation_energy": 28.62, 
			 "cosmo_dispersion_energy": -21.74, 
			 "cosmo_repulsion_energy": 1.59, 
			 "cosmo_total_nonelectrostatic_energy": 8.48, 
			 "SMD_solvation_energy": 3.86 
		},
		"coords": [
			{
				"x": -1.8447475394,
				"y": 0.9634526973,
				"z": 2.8427560736,
				"element": "C" 
			},
			{
				"x": -2.2666016236,
				"y": 0.8052061851,
				"z": 1.5236309065,
				"element": "C" 
			},
			{
				"x": -1.3397190794,
				"y": 0.5583418,
				"z": 0.4978963227,
				"element": "C" 
			},
			{
				"x": 0.0488750859,
				"y": 0.4708148795,
				"z": 0.8245616073,
				"element": "C" 
			},
			{
				"x": 0.4724866712,
				"y": 0.6343483513,
				"z": 2.1796850233,
				"element": "C" 
			},
			{
				"x": 1.8761278865,
				"y": 0.5408834289,
				"z": 2.476736851,
				"element": "C" 
			},
			{
				"x": 2.7934535376,
				"y": 0.3022258892,
				"z": 1.4990648742,
				"element": "C" 
			},
			{
				"x": 2.3984960761,
				"y": 0.1332657384,
				"z": 0.12697465,
				"element": "C" 
			},
			{
				"x": 3.3253791091,
				"y": -0.1135997827,
				"z": -0.8987637842,
				"element": "C" 
			},
			{
				"x": 2.9035256881,
				"y": -0.2718445514,
				"z": -2.217885764,
				"element": "C" 
			},
			{
				"x": 1.5511670201,
				"y": -0.188015792,
				"z": -2.5452944339,
				"element": "C" 
			},
			{
				"x": 0.5862914503,
				"y": 0.0572597761,
				"z": -1.5548169195,
				"element": "C" 
			},
			{
				"x": -0.8173534974,
				"y": 0.1507250581,
				"z": -1.8518686872,
				"element": "C" 
			},
			{
				"x": -1.7346765368,
				"y": 0.389381538,
				"z": -0.8741974295,
				"element": "C" 
			},
			{
				"x": 1.009902539,
				"y": 0.2207936429,
				"z": -0.1996917684,
				"element": "C" 
			},
			{
				"x": -0.4923914481,
				"y": 0.8796240971,
				"z": 3.1701638969,
				"element": "C" 
			},
			{
				"x": -2.5765150395,
				"y": 1.1538289973,
				"z": 3.6226657164,
				"element": "H" 
			},
			{
				"x": -3.3229860395,
				"y": 0.8720004604,
				"z": 1.2767614441,
				"element": "H" 
			},
			{
				"x": 2.1939541818,
				"y": 0.6659372917,
				"z": 3.5087455811,
				"element": "H" 
			},
			{
				"x": 3.8506327399,
				"y": 0.2349455073,
				"z": 1.7430659327,
				"element": "H" 
			},
			{
				"x": 4.3817629237,
				"y": -0.1803935383,
				"z": -0.6518905047,
				"element": "H" 
			},
			{
				"x": 3.6352915434,
				"y": -0.4622203271,
				"z": -2.9977968162,
				"element": "H" 
			},
			{
				"x": 1.2305410612,
				"y": -0.3126158523,
				"z": -3.5763262159,
				"element": "H" 
			},
			{
				"x": -1.1351758656,
				"y": 0.0256682424,
				"z": -2.8838782555,
				"element": "H" 
			},
			{
				"x": -2.7918576523,
				"y": 0.4566622427,
				"z": -1.1181933059,
				"element": "H" 
			},
			{
				"x": -0.1717631922,
				"y": 1.0042240201,
				"z": 4.2011950051,
				"element": "H" 
			}
		],
		 "valence_orbital": [ 
			{
				"type": "occ",
				"energy": -0.2947,
				"method": "rhf"
			},
			{
				"type": "occ",
				"energy": -0.2711,
				"method": "rhf"
			},
			{
				"type": "occ",
				"energy": -0.25283,
				"method": "rhf"
			},
			{
				"type": "occ",
				"energy": -0.22826,
				"method": "rhf"
			},
			{
				"type": "occ",
				"energy": -0.19609,
				"method": "rhf"
			},
			{
				"type": "unocc",
				"energy": -0.05504,
				"method": "rhf"
			},
			{
				"type": "unocc",
				"energy": -0.02308,
				"method": "rhf"
			},
			{
				"type": "unocc",
				"energy": -0.0019,
				"method": "rhf"
			},
			{
				"type": "unocc",
				"energy": 0.02161,
				"method": "rhf"
			},
			{
				"type": "unocc",
				"energy": 0.0585,
				"method": "rhf"
			}
		],
		"cosmo_sigma_profile": { 
			"-0.025": 0.0,
			"-0.024": 0.0,
			"-0.023": 0.0,
			"-0.022": 0.0,
			"-0.021": 0.0,
			"-0.02": 0.0,
			"-0.019": 0.0,
			"-0.018": 0.0,
			"-0.017": 0.0,
			"-0.016": 0.0,
			"-0.015": 0.0,
			"-0.014": 0.0,
			"-0.013": 0.0,
			"-0.012": 0.0,
			"-0.011": 0.0,
			"-0.01": 0.0,
			"-0.009": 0.0,
			"-0.008": 0.0,
			"-0.007": 0.143648942671,
			"-0.006": 18.3137929362,
			"-0.005": 21.4765782858,
			"-0.004": 19.9234851061,
			"-0.003": 17.740730988,
			"-0.002": 12.3581706556,
			"-0.001": 12.2559389348,
			"0.0": 11.8771229156,
			"0.001": 11.4790252487,
			"0.002": 15.484482554,
			"0.003": 34.282973917,
			"0.004": 36.6125802794,
			"0.005": 18.1136976888,
			"0.006": 0.775418909316,
			"0.007": 0.0,
			"0.008": 0.0,
			"0.009": 0.0,
			"0.01": 0.0,
			"0.011": 0.0,
			"0.012": 0.0,
			"0.013": 0.0,
			"0.014": 0.0,
			"0.015": 0.0,
			"0.016": 0.0,
			"0.017": 0.0,
			"0.018": 0.0,
			"0.019": 0.0,
			"0.02": 0.0,
			"0.021": 0.0,
			"0.022": 0.0,
			"0.023": 0.0,
			"0.024": 0.0,
			"0.025": 0.0
		}
	}
}
