{
	 "smiles": "COC1=CC(OC)=CC(CO)=C1", 
	 "Tm": 321.15, 
	 "num_atms": 24, 
	 "gaussian": { 
		 "optdone": 1, 
		 "sigma_profile": "yes", 
		 "theory": "DFT", 
		 "functional": "B3LYP", 
		 "basiset": "6-31G**", 
		 "properties": { 
			 "R2extent": 2645.1984, 
			 "electric_dipole_moment_norm": 1.64310407765, 
			 "electric_quadrupole_moment_norm": 4.74206800879, 
			 "total_energy": -575.827786699, 
			 "HOMO_LUMO_gap": 0.2134, 
			 "cosmo_polarized_energy": -10.49, 
			 "cosmo_cavitation_energy": 27.38, 
			 "cosmo_dispersion_energy": -20.13, 
			 "cosmo_repulsion_energy": 1.63, 
			 "cosmo_total_nonelectrostatic_energy": 8.88, 
			 "SMD_solvation_energy": 6.29 
		},
		"coords": [
			{
				"x": -3.025093796,
				"y": -1.5084795857,
				"z": -1.3348220312,
				"element": "C" 
			},
			{
				"x": -1.6202669874,
				"y": -1.6490673846,
				"z": -1.198945211,
				"element": "O" 
			},
			{
				"x": -0.9456019761,
				"y": -0.7132975628,
				"z": -0.4690858144,
				"element": "C" 
			},
			{
				"x": -1.5490203567,
				"y": 0.3755719511,
				"z": 0.1568071354,
				"element": "C" 
			},
			{
				"x": -0.7546449947,
				"y": 1.2741817647,
				"z": 0.8889949382,
				"element": "C" 
			},
			{
				"x": -1.4412824733,
				"y": 2.3052616802,
				"z": 1.4649733877,
				"element": "O" 
			},
			{
				"x": -0.7071666423,
				"y": 3.2630198677,
				"z": 2.2109867122,
				"element": "C" 
			},
			{
				"x": 0.6243669012,
				"y": 1.0897251021,
				"z": 0.9931178977,
				"element": "C" 
			},
			{
				"x": 1.2178387662,
				"y": -0.0124497522,
				"z": 0.3550350453,
				"element": "C" 
			},
			{
				"x": 2.722577041,
				"y": -0.1951540861,
				"z": 0.4342604267,
				"element": "C" 
			},
			{
				"x": 3.2944145231,
				"y": 0.2781165931,
				"z": 1.646832508,
				"element": "O" 
			},
			{
				"x": 0.4418680027,
				"y": -0.9124361568,
				"z": -0.3653580279,
				"element": "C" 
			},
			{
				"x": -3.354794656,
				"y": -2.3492481664,
				"z": -1.9473436435,
				"element": "H" 
			},
			{
				"x": -3.5325057846,
				"y": -1.5492392635,
				"z": -0.36230294,
				"element": "H" 
			},
			{
				"x": -3.2916431276,
				"y": -0.5694879368,
				"z": -1.8368667146,
				"element": "H" 
			},
			{
				"x": -2.6141548412,
				"y": 0.5611671935,
				"z": 0.1079577969,
				"element": "H" 
			},
			{
				"x": 0.0384526322,
				"y": 3.7755499033,
				"z": 1.5900088328,
				"element": "H" 
			},
			{
				"x": -1.4377780258,
				"y": 3.989847516,
				"z": 2.5698780539,
				"element": "H" 
			},
			{
				"x": -0.2004109671,
				"y": 2.8059202412,
				"z": 3.0705720261,
				"element": "H" 
			},
			{
				"x": 1.2547231161,
				"y": 1.7672611346,
				"z": 1.5542793189,
				"element": "H" 
			},
			{
				"x": 2.9747017738,
				"y": -1.2516592602,
				"z": 0.2538987403,
				"element": "H" 
			},
			{
				"x": 3.2112475503,
				"y": 0.3869963377,
				"z": -0.356360335,
				"element": "H" 
			},
			{
				"x": 2.8507605338,
				"y": -0.1829055546,
				"z": 2.3714514983,
				"element": "H" 
			},
			{
				"x": 0.8810137885,
				"y": -1.7764945753,
				"z": -0.8542696006,
				"element": "H" 
			}
		],
		 "valence_orbital": [ 
			{
				"type": "occ",
				"energy": -0.32034,
				"method": "rhf"
			},
			{
				"type": "occ",
				"energy": -0.29416,
				"method": "rhf"
			},
			{
				"type": "occ",
				"energy": -0.2697,
				"method": "rhf"
			},
			{
				"type": "occ",
				"energy": -0.22461,
				"method": "rhf"
			},
			{
				"type": "occ",
				"energy": -0.20906,
				"method": "rhf"
			},
			{
				"type": "unocc",
				"energy": 0.00434,
				"method": "rhf"
			},
			{
				"type": "unocc",
				"energy": 0.0218,
				"method": "rhf"
			},
			{
				"type": "unocc",
				"energy": 0.08884,
				"method": "rhf"
			},
			{
				"type": "unocc",
				"energy": 0.10193,
				"method": "rhf"
			},
			{
				"type": "unocc",
				"energy": 0.10905,
				"method": "rhf"
			}
		],
		"cosmo_sigma_profile": { 
			"-0.025": 0.0,
			"-0.024": 0.0,
			"-0.023": 0.0,
			"-0.022": 0.0,
			"-0.021": 0.0,
			"-0.02": 0.0,
			"-0.019": 0.0,
			"-0.018": 0.0,
			"-0.017": 0.0,
			"-0.016": 0.0697189186595,
			"-0.015": 0.885737188882,
			"-0.014": 0.987182501875,
			"-0.013": 0.899302478671,
			"-0.012": 0.613280382565,
			"-0.011": 0.359382590072,
			"-0.01": 1.02283357819,
			"-0.009": 0.980002889681,
			"-0.008": 0.686450619146,
			"-0.007": 0.975841956746,
			"-0.006": 6.99256571437,
			"-0.005": 24.8739283158,
			"-0.004": 25.4422438802,
			"-0.003": 25.8419736926,
			"-0.002": 16.6325974862,
			"-0.001": 11.5642055791,
			"0.0": 9.07688108701,
			"0.001": 7.87809211801,
			"0.002": 7.94514959295,
			"0.003": 10.5773014743,
			"0.004": 13.5629987818,
			"0.005": 16.0660816748,
			"0.006": 8.14326517556,
			"0.007": 3.97618292774,
			"0.008": 3.95946289829,
			"0.009": 3.67899769442,
			"0.01": 4.24040493226,
			"0.011": 2.88417058101,
			"0.012": 1.27736072535,
			"0.013": 1.56861061428,
			"0.014": 1.95933667391,
			"0.015": 0.0958425426391,
			"0.016": 0.0,
			"0.017": 0.0,
			"0.018": 0.0,
			"0.019": 0.0,
			"0.02": 0.0,
			"0.021": 0.0,
			"0.022": 0.0,
			"0.023": 0.0,
			"0.024": 0.0,
			"0.025": 0.0
		}
	}
}
