{
	 "smiles": "FC(F)(F)C1=NN=C2SC(=NN12)C(=O)C1=CC=CC=C1", 
	 "Tm": 430.15, 
	 "num_atms": 25, 
	 "gaussian": { 
		 "optdone": 1, 
		 "sigma_profile": "yes", 
		 "theory": "DFT", 
		 "functional": "B3LYP", 
		 "basiset": "6-31G**", 
		 "properties": { 
			 "R2extent": 7478.0529, 
			 "electric_dipole_moment_norm": 6.07500283292, 
			 "electric_quadrupole_moment_norm": 11.735583409, 
			 "total_energy": -1414.0414268, 
			 "HOMO_LUMO_gap": 0.15232, 
			 "cosmo_polarized_energy": -12.13, 
			 "cosmo_cavitation_energy": 34.64, 
			 "cosmo_dispersion_energy": -24.86, 
			 "cosmo_repulsion_energy": 1.77, 
			 "cosmo_total_nonelectrostatic_energy": 11.54, 
			 "SMD_solvation_energy": 4.8 
		},
		"coords": [
			{
				"x": -1.7006450563,
				"y": -3.7178146316,
				"z": -0.8020979671,
				"element": "F" 
			},
			{
				"x": -2.3481111663,
				"y": -3.785785291,
				"z": 0.3818637197,
				"element": "C" 
			},
			{
				"x": -2.8431965624,
				"y": -5.0150475349,
				"z": 0.532450939,
				"element": "F" 
			},
			{
				"x": -3.3752820707,
				"y": -2.912331381,
				"z": 0.3211094567,
				"element": "F" 
			},
			{
				"x": -1.419543883,
				"y": -3.4424899598,
				"z": 1.5044842699,
				"element": "C" 
			},
			{
				"x": -1.222615592,
				"y": -4.1267132307,
				"z": 2.6084000052,
				"element": "N" 
			},
			{
				"x": -0.3075320494,
				"y": -3.4580168528,
				"z": 3.4048205488,
				"element": "N" 
			},
			{
				"x": 0.0187864847,
				"y": -2.3735209481,
				"z": 2.7432416467,
				"element": "C" 
			},
			{
				"x": 1.0471137882,
				"y": -0.9708646859,
				"z": 2.9010107841,
				"element": "S" 
			},
			{
				"x": 0.4438561447,
				"y": -0.4681291524,
				"z": 1.2980800009,
				"element": "C" 
			},
			{
				"x": -0.4209191614,
				"y": -1.2483080667,
				"z": 0.7231257128,
				"element": "N" 
			},
			{
				"x": -0.6501374944,
				"y": -2.3055007493,
				"z": 1.5392666268,
				"element": "N" 
			},
			{
				"x": 1.0018486839,
				"y": 0.8310719253,
				"z": 0.7833940208,
				"element": "C" 
			},
			{
				"x": 1.7719232844,
				"y": 1.3957061084,
				"z": 1.5535948197,
				"element": "O" 
			},
			{
				"x": 0.6526930503,
				"y": 1.3936735006,
				"z": -0.5453594309,
				"element": "C" 
			},
			{
				"x": -0.1571274949,
				"y": 0.7486170212,
				"z": -1.4973571066,
				"element": "C" 
			},
			{
				"x": -0.4137119988,
				"y": 1.3647693165,
				"z": -2.7209420414,
				"element": "C" 
			},
			{
				"x": 0.1274446156,
				"y": 2.619409959,
				"z": -3.0071549701,
				"element": "C" 
			},
			{
				"x": 0.9345496958,
				"y": 3.2660322224,
				"z": -2.0653332527,
				"element": "C" 
			},
			{
				"x": 1.1973449993,
				"y": 2.6578514228,
				"z": -0.844311322,
				"element": "C" 
			},
			{
				"x": -0.5824132614,
				"y": -0.2234894302,
				"z": -1.2863162323,
				"element": "H" 
			},
			{
				"x": -1.0383177868,
				"y": 0.8616393273,
				"z": -3.4525584579,
				"element": "H" 
			},
			{
				"x": -0.0780037004,
				"y": 3.0935520124,
				"z": -3.962582049,
				"element": "H" 
			},
			{
				"x": 1.356512669,
				"y": 4.241664971,
				"z": -2.2862020429,
				"element": "H" 
			},
			{
				"x": 1.8221838622,
				"y": 3.1403241275,
				"z": -0.1010276781,
				"element": "H" 
			}
		],
		 "valence_orbital": [ 
			{
				"type": "occ",
				"energy": -0.29981,
				"method": "rhf"
			},
			{
				"type": "occ",
				"energy": -0.28563,
				"method": "rhf"
			},
			{
				"type": "occ",
				"energy": -0.28261,
				"method": "rhf"
			},
			{
				"type": "occ",
				"energy": -0.27786,
				"method": "rhf"
			},
			{
				"type": "occ",
				"energy": -0.27242,
				"method": "rhf"
			},
			{
				"type": "unocc",
				"energy": -0.1201,
				"method": "rhf"
			},
			{
				"type": "unocc",
				"energy": -0.04908,
				"method": "rhf"
			},
			{
				"type": "unocc",
				"energy": -0.02657,
				"method": "rhf"
			},
			{
				"type": "unocc",
				"energy": -0.02182,
				"method": "rhf"
			},
			{
				"type": "unocc",
				"energy": -0.01441,
				"method": "rhf"
			}
		],
		"cosmo_sigma_profile": { 
			"-0.025": 0.0,
			"-0.024": 0.0,
			"-0.023": 0.0,
			"-0.022": 0.0,
			"-0.021": 0.0,
			"-0.02": 0.0,
			"-0.019": 0.0,
			"-0.018": 0.0,
			"-0.017": 0.0,
			"-0.016": 0.0,
			"-0.015": 0.0,
			"-0.014": 0.0,
			"-0.013": 0.0,
			"-0.012": 0.0,
			"-0.011": 0.0,
			"-0.01": 0.173505974074,
			"-0.009": 1.35885435634,
			"-0.008": 2.22527020538,
			"-0.007": 9.63802086178,
			"-0.006": 17.927755383,
			"-0.005": 20.5796971843,
			"-0.004": 17.9099581773,
			"-0.003": 20.3044324982,
			"-0.002": 17.7641796004,
			"-0.001": 20.1101497134,
			"0.0": 26.1858274656,
			"0.001": 33.2170749599,
			"0.002": 39.6682549534,
			"0.003": 16.8601901969,
			"0.004": 3.84379612701,
			"0.005": 4.50879524934,
			"0.006": 4.19594178921,
			"0.007": 3.69551505466,
			"0.008": 3.97050240297,
			"0.009": 5.11388640239,
			"0.01": 5.52128850959,
			"0.011": 3.0462117973,
			"0.012": 2.29878575156,
			"0.013": 2.65033589096,
			"0.014": 1.1175419404,
			"0.015": 0.142165416715,
			"0.016": 0.0,
			"0.017": 0.0,
			"0.018": 0.0,
			"0.019": 0.0,
			"0.02": 0.0,
			"0.021": 0.0,
			"0.022": 0.0,
			"0.023": 0.0,
			"0.024": 0.0,
			"0.025": 0.0
		}
	}
}
