{
	 "smiles": "O=C(NC1=CC=CC=C1)OCC1(COC(=O)NC2=CC=CC=C2)CCCC1", 
	 "Tm": 425.15, 
	 "num_atms": 51, 
	 "gaussian": { 
		 "optdone": 1, 
		 "sigma_profile": "yes", 
		 "theory": "DFT", 
		 "functional": "B3LYP", 
		 "basiset": "6-31G**", 
		 "properties": { 
			 "R2extent": 14246.6963, 
			 "electric_dipole_moment_norm": 1.19325006181, 
			 "electric_quadrupole_moment_norm": 12.9407272524, 
			 "total_energy": -1225.15066258, 
			 "HOMO_LUMO_gap": 0.2142, 
			 "cosmo_polarized_energy": -18.5, 
			 "cosmo_cavitation_energy": 53.72, 
			 "cosmo_dispersion_energy": -35.56, 
			 "cosmo_repulsion_energy": 2.66, 
			 "cosmo_total_nonelectrostatic_energy": 20.82, 
			 "SMD_solvation_energy": 10.11 
		},
		"coords": [
			{
				"x": -1.3214951527,
				"y": -2.8572776808,
				"z": -1.3555432751,
				"element": "O" 
			},
			{
				"x": -0.8917121908,
				"y": -1.8362292911,
				"z": -1.8637759925,
				"element": "C" 
			},
			{
				"x": 0.0783728038,
				"y": -1.8591589939,
				"z": -2.8371896736,
				"element": "N" 
			},
			{
				"x": 0.7876961911,
				"y": -0.8508587385,
				"z": -3.5286479644,
				"element": "C" 
			},
			{
				"x": 1.9641335278,
				"y": -1.2504726035,
				"z": -4.1846558252,
				"element": "C" 
			},
			{
				"x": 2.7165862496,
				"y": -0.3340163184,
				"z": -4.9133781863,
				"element": "C" 
			},
			{
				"x": 2.3144145676,
				"y": 1.0001832334,
				"z": -4.997146752,
				"element": "C" 
			},
			{
				"x": 1.1447683108,
				"y": 1.3963698551,
				"z": -4.3488429602,
				"element": "C" 
			},
			{
				"x": 0.3746860412,
				"y": 0.48630881,
				"z": -3.6235125441,
				"element": "C" 
			},
			{
				"x": -1.2966194556,
				"y": -0.5822012984,
				"z": -1.5501256699,
				"element": "O" 
			},
			{
				"x": -2.3211313741,
				"y": -0.461658815,
				"z": -0.5373111766,
				"element": "C" 
			},
			{
				"x": -1.7882172995,
				"y": 0.2038081761,
				"z": 0.7449492764,
				"element": "C" 
			},
			{
				"x": -1.2534491807,
				"y": 1.5860144558,
				"z": 0.362587104,
				"element": "C" 
			},
			{
				"x": -0.8028895523,
				"y": 2.2666677422,
				"z": 1.5566794483,
				"element": "O" 
			},
			{
				"x": -0.3153878326,
				"y": 3.5090122989,
				"z": 1.342695,
				"element": "C" 
			},
			{
				"x": -0.2825555623,
				"y": 4.0571281806,
				"z": 0.2556339272,
				"element": "O" 
			},
			{
				"x": 0.1546875228,
				"y": 4.1233145486,
				"z": 2.4828626881,
				"element": "N" 
			},
			{
				"x": 0.296328272,
				"y": 3.713385946,
				"z": 3.8252651846,
				"element": "C" 
			},
			{
				"x": 1.1382624145,
				"y": 4.4929698546,
				"z": 4.6368920869,
				"element": "C" 
			},
			{
				"x": 1.3163532929,
				"y": 4.1811709439,
				"z": 5.9814289411,
				"element": "C" 
			},
			{
				"x": 0.6630303625,
				"y": 3.0829299582,
				"z": 6.5438298727,
				"element": "C" 
			},
			{
				"x": -0.1750254474,
				"y": 2.31098192,
				"z": 5.7394282703,
				"element": "C" 
			},
			{
				"x": -0.3696184529,
				"y": 2.6166343497,
				"z": 4.3919194417,
				"element": "C" 
			},
			{
				"x": -2.978663539,
				"y": 0.2669378715,
				"z": 1.7647409532,
				"element": "C" 
			},
			{
				"x": -2.629985144,
				"y": -0.712403872,
				"z": 2.9145185233,
				"element": "C" 
			},
			{
				"x": -1.5371647718,
				"y": -1.6316661453,
				"z": 2.3401289248,
				"element": "C" 
			},
			{
				"x": -0.7253977737,
				"y": -0.688633766,
				"z": 1.4419250508,
				"element": "C" 
			},
			{
				"x": 0.3907014019,
				"y": -2.8057808464,
				"z": -3.0018695547,
				"element": "H" 
			},
			{
				"x": 2.2898438129,
				"y": -2.2858978298,
				"z": -4.1157108158,
				"element": "H" 
			},
			{
				"x": 3.622760339,
				"y": -0.6661683258,
				"z": -5.4117240946,
				"element": "H" 
			},
			{
				"x": 2.9025397029,
				"y": 1.7182132016,
				"z": -5.5600066597,
				"element": "H" 
			},
			{
				"x": 0.8145142195,
				"y": 2.4295202648,
				"z": -4.407295409,
				"element": "H" 
			},
			{
				"x": -0.5353422911,
				"y": 0.8092082749,
				"z": -3.139664594,
				"element": "H" 
			},
			{
				"x": -2.7194312276,
				"y": -1.4544422942,
				"z": -0.325813528,
				"element": "H" 
			},
			{
				"x": -3.1086846181,
				"y": 0.1539954178,
				"z": -0.9850583435,
				"element": "H" 
			},
			{
				"x": -2.0301952692,
				"y": 2.1939155812,
				"z": -0.1136921238,
				"element": "H" 
			},
			{
				"x": -0.4162377121,
				"y": 1.5073597121,
				"z": -0.3354992266,
				"element": "H" 
			},
			{
				"x": 0.5529300209,
				"y": 5.0233930174,
				"z": 2.2548930219,
				"element": "H" 
			},
			{
				"x": 1.6579616073,
				"y": 5.3451247364,
				"z": 4.204931072,
				"element": "H" 
			},
			{
				"x": 1.9725559084,
				"y": 4.7984537882,
				"z": 6.588240712,
				"element": "H" 
			},
			{
				"x": 0.803425398,
				"y": 2.8354725294,
				"z": 7.5913549663,
				"element": "H" 
			},
			{
				"x": -0.6966525773,
				"y": 1.4569760622,
				"z": 6.1627156816,
				"element": "H" 
			},
			{
				"x": -1.0314939423,
				"y": 2.0151239385,
				"z": 3.7865739451,
				"element": "H" 
			},
			{
				"x": -3.9149389112,
				"y": -0.0257490014,
				"z": 1.2739753591,
				"element": "H" 
			},
			{
				"x": -3.1270280524,
				"y": 1.2856631729,
				"z": 2.1326146432,
				"element": "H" 
			},
			{
				"x": -2.2242078703,
				"y": -0.1550001314,
				"z": 3.7671138735,
				"element": "H" 
			},
			{
				"x": -3.505040688,
				"y": -1.2588224306,
				"z": 3.2797341109,
				"element": "H" 
			},
			{
				"x": -0.929390632,
				"y": -2.1079348809,
				"z": 3.1158935912,
				"element": "H" 
			},
			{
				"x": -1.9795028444,
				"y": -2.4349053175,
				"z": 1.7389184345,
				"element": "H" 
			},
			{
				"x": -0.0775537022,
				"y": -0.0555636893,
				"z": 2.0575624885,
				"element": "H" 
			},
			{
				"x": -0.0858388998,
				"y": -1.2136955715,
				"z": 0.7271577764,
				"element": "H" 
			}
		],
		 "valence_orbital": [ 
			{
				"type": "occ",
				"energy": -0.27796,
				"method": "rhf"
			},
			{
				"type": "occ",
				"energy": -0.25368,
				"method": "rhf"
			},
			{
				"type": "occ",
				"energy": -0.25257,
				"method": "rhf"
			},
			{
				"type": "occ",
				"energy": -0.22061,
				"method": "rhf"
			},
			{
				"type": "occ",
				"energy": -0.21955,
				"method": "rhf"
			},
			{
				"type": "unocc",
				"energy": -0.00535,
				"method": "rhf"
			},
			{
				"type": "unocc",
				"energy": -0.00506,
				"method": "rhf"
			},
			{
				"type": "unocc",
				"energy": -0.00427,
				"method": "rhf"
			},
			{
				"type": "unocc",
				"energy": -0.00321,
				"method": "rhf"
			},
			{
				"type": "unocc",
				"energy": 0.0589,
				"method": "rhf"
			}
		],
		"cosmo_sigma_profile": { 
			"-0.025": 0.0,
			"-0.024": 0.0,
			"-0.023": 0.0,
			"-0.022": 0.0,
			"-0.021": 0.0,
			"-0.02": 0.0,
			"-0.019": 0.0,
			"-0.018": 0.0,
			"-0.017": 0.0,
			"-0.016": 0.0,
			"-0.015": 0.92839487114,
			"-0.014": 2.35774688709,
			"-0.013": 2.2498374515,
			"-0.012": 2.08976923045,
			"-0.011": 2.30176713116,
			"-0.01": 2.18553822863,
			"-0.009": 2.04892415815,
			"-0.008": 2.74992430147,
			"-0.007": 4.07909348786,
			"-0.006": 13.6570704311,
			"-0.005": 23.7674406221,
			"-0.004": 30.3501798258,
			"-0.003": 37.2249545859,
			"-0.002": 39.5634357651,
			"-0.001": 44.9772483855,
			"0.0": 40.7005407982,
			"0.001": 37.8447233616,
			"0.002": 24.4378347623,
			"0.003": 23.3112196779,
			"0.004": 20.4707919972,
			"0.005": 21.9637729085,
			"0.006": 16.6538347946,
			"0.007": 3.0983684153,
			"0.008": 2.28381789321,
			"0.009": 2.07787420896,
			"0.01": 3.1696127444,
			"0.011": 3.22859411452,
			"0.012": 6.59868524998,
			"0.013": 8.33789498311,
			"0.014": 0.41500598116,
			"0.015": 0.0,
			"0.016": 0.0,
			"0.017": 0.0,
			"0.018": 0.0,
			"0.019": 0.0,
			"0.02": 0.0,
			"0.021": 0.0,
			"0.022": 0.0,
			"0.023": 0.0,
			"0.024": 0.0,
			"0.025": 0.0
		}
	}
}
