{
	 "smiles": "CCS(=O)CCSP(=O)(OC)OC", 
	 "Tm": 224.15, 
	 "num_atms": 28, 
	 "gaussian": { 
		 "optdone": 1, 
		 "sigma_profile": "yes", 
		 "theory": "DFT", 
		 "functional": "B3LYP", 
		 "basiset": "6-31G**", 
		 "properties": { 
			 "R2extent": 5375.0576, 
			 "electric_dipole_moment_norm": 4.26956423655, 
			 "electric_quadrupole_moment_norm": 20.3171801378, 
			 "total_energy": -1676.31551618, 
			 "HOMO_LUMO_gap": 0.22204, 
			 "cosmo_polarized_energy": -19.71, 
			 "cosmo_cavitation_energy": 35.88, 
			 "cosmo_dispersion_energy": -25.04, 
			 "cosmo_repulsion_energy": 1.92, 
			 "cosmo_total_nonelectrostatic_energy": 12.75, 
			 "SMD_solvation_energy": 7.7 
		},
		"coords": [
			{
				"x": -2.771038599,
				"y": 1.3567646715,
				"z": 1.5690894856,
				"element": "C" 
			},
			{
				"x": -3.6041401144,
				"y": 1.115891732,
				"z": 0.311729743,
				"element": "C" 
			},
			{
				"x": -2.991412225,
				"y": -0.2851768775,
				"z": -0.7280978263,
				"element": "S" 
			},
			{
				"x": -3.9013201123,
				"y": -0.3684790339,
				"z": -1.9382580228,
				"element": "O" 
			},
			{
				"x": -1.4460118729,
				"y": 0.5468563489,
				"z": -1.3276670649,
				"element": "C" 
			},
			{
				"x": -0.8625602691,
				"y": -0.2200491902,
				"z": -2.5076996137,
				"element": "C" 
			},
			{
				"x": -0.1654411833,
				"y": -1.8806470163,
				"z": -2.0782373183,
				"element": "S" 
			},
			{
				"x": 1.7089968596,
				"y": -1.2704519524,
				"z": -1.3648357002,
				"element": "P" 
			},
			{
				"x": 2.1986337309,
				"y": 0.0226903975,
				"z": -1.9131093857,
				"element": "O" 
			},
			{
				"x": 1.538065231,
				"y": -1.3516823286,
				"z": 0.2371221027,
				"element": "O" 
			},
			{
				"x": 2.6861892568,
				"y": -1.0544802935,
				"z": 1.0622076407,
				"element": "C" 
			},
			{
				"x": 2.6639653794,
				"y": -2.5501556613,
				"z": -1.6227083609,
				"element": "O" 
			},
			{
				"x": 3.2769017554,
				"y": -2.7115899416,
				"z": -2.9179554481,
				"element": "C" 
			},
			{
				"x": -1.7767399197,
				"y": 1.7482429572,
				"z": 1.3365003787,
				"element": "H" 
			},
			{
				"x": -3.270218373,
				"y": 2.0881188226,
				"z": 2.2122542999,
				"element": "H" 
			},
			{
				"x": -2.6473997426,
				"y": 0.4359706865,
				"z": 2.1482773735,
				"element": "H" 
			},
			{
				"x": -4.6241306227,
				"y": 0.8090168074,
				"z": 0.5629368732,
				"element": "H" 
			},
			{
				"x": -3.6718641895,
				"y": 1.9971611915,
				"z": -0.334540545,
				"element": "H" 
			},
			{
				"x": -0.7396622996,
				"y": 0.6253646641,
				"z": -0.496951374,
				"element": "H" 
			},
			{
				"x": -1.7319747279,
				"y": 1.551204202,
				"z": -1.6617018768,
				"element": "H" 
			},
			{
				"x": -0.0679808108,
				"y": 0.3588621207,
				"z": -2.981324643,
				"element": "H" 
			},
			{
				"x": -1.6491079151,
				"y": -0.4247443971,
				"z": -3.2387894238,
				"element": "H" 
			},
			{
				"x": 3.4429679453,
				"y": -1.8354032309,
				"z": 0.9497390533,
				"element": "H" 
			},
			{
				"x": 2.3247869353,
				"y": -1.0350786718,
				"z": 2.0908909098,
				"element": "H" 
			},
			{
				"x": 3.1091771827,
				"y": -0.0817282775,
				"z": 0.7968370154,
				"element": "H" 
			},
			{
				"x": 3.9956242974,
				"y": -3.5255877158,
				"z": -2.8167007124,
				"element": "H" 
			},
			{
				"x": 2.5223530256,
				"y": -2.9788180318,
				"z": -3.6642458239,
				"element": "H" 
			},
			{
				"x": 3.7861413772,
				"y": -1.7927719818,
				"z": -3.2185617361,
				"element": "H" 
			}
		],
		 "valence_orbital": [ 
			{
				"type": "occ",
				"energy": -0.29847,
				"method": "rhf"
			},
			{
				"type": "occ",
				"energy": -0.29246,
				"method": "rhf"
			},
			{
				"type": "occ",
				"energy": -0.26088,
				"method": "rhf"
			},
			{
				"type": "occ",
				"energy": -0.25465,
				"method": "rhf"
			},
			{
				"type": "occ",
				"energy": -0.2192,
				"method": "rhf"
			},
			{
				"type": "unocc",
				"energy": 0.00284,
				"method": "rhf"
			},
			{
				"type": "unocc",
				"energy": 0.02887,
				"method": "rhf"
			},
			{
				"type": "unocc",
				"energy": 0.04443,
				"method": "rhf"
			},
			{
				"type": "unocc",
				"energy": 0.04487,
				"method": "rhf"
			},
			{
				"type": "unocc",
				"energy": 0.07006,
				"method": "rhf"
			}
		],
		"cosmo_sigma_profile": { 
			"-0.025": 0.0,
			"-0.024": 0.0,
			"-0.023": 0.0,
			"-0.022": 0.0,
			"-0.021": 0.0,
			"-0.02": 0.0,
			"-0.019": 0.0,
			"-0.018": 0.0,
			"-0.017": 0.0,
			"-0.016": 0.0,
			"-0.015": 0.0,
			"-0.014": 0.0,
			"-0.013": 0.0,
			"-0.012": 0.0,
			"-0.011": 0.0,
			"-0.01": 0.0,
			"-0.009": 0.0,
			"-0.008": 1.35745173546,
			"-0.007": 9.06707273664,
			"-0.006": 22.6175605161,
			"-0.005": 26.946110426,
			"-0.004": 37.0564607124,
			"-0.003": 31.7995351662,
			"-0.002": 20.3032794633,
			"-0.001": 18.3289947592,
			"0.0": 15.185578375,
			"0.001": 10.8245655897,
			"0.002": 11.285983561,
			"0.003": 11.4588279047,
			"0.004": 10.230782038,
			"0.005": 9.32541220897,
			"0.006": 6.20789005501,
			"0.007": 5.15021387555,
			"0.008": 4.80074937706,
			"0.009": 4.32486005705,
			"0.01": 1.79578843687,
			"0.011": 1.53459003692,
			"0.012": 3.26103528641,
			"0.013": 6.03743968033,
			"0.014": 5.58727632018,
			"0.015": 4.29422322798,
			"0.016": 2.76221132662,
			"0.017": 0.148199271473,
			"0.018": 0.0,
			"0.019": 0.0,
			"0.02": 0.0,
			"0.021": 0.0,
			"0.022": 0.0,
			"0.023": 0.0,
			"0.024": 0.0,
			"0.025": 0.0
		}
	}
}
