{
	 "smiles": "ON=C1CCC1", 
	 "Tm": 356.15, 
	 "num_atms": 13, 
	 "gaussian": { 
		 "optdone": 1, 
		 "sigma_profile": "yes", 
		 "theory": "DFT", 
		 "functional": "B3LYP", 
		 "basiset": "6-31G**", 
		 "properties": { 
			 "R2extent": 1187.4741, 
			 "electric_dipole_moment_norm": 0.872092518028, 
			 "electric_quadrupole_moment_norm": 4.15090185261, 
			 "total_energy": -286.528779933, 
			 "HOMO_LUMO_gap": 0.24652, 
			 "cosmo_polarized_energy": -6.97, 
			 "cosmo_cavitation_energy": 16.35, 
			 "cosmo_dispersion_energy": -12.4, 
			 "cosmo_repulsion_energy": 1.11, 
			 "cosmo_total_nonelectrostatic_energy": 5.06, 
			 "SMD_solvation_energy": 2.7 
		},
		"coords": [
			{
				"x": 3.1213609541,
				"y": 0.5718407569,
				"z": -1.1309990174,
				"element": "O" 
			},
			{
				"x": 2.2658990484,
				"y": 0.4097675872,
				"z": -2.2477277311,
				"element": "N" 
			},
			{
				"x": 1.1119254339,
				"y": 0.0355598747,
				"z": -1.871673448,
				"element": "C" 
			},
			{
				"x": -0.1330412658,
				"y": -0.252458885,
				"z": -2.6903532083,
				"element": "C" 
			},
			{
				"x": -0.8872110753,
				"y": -0.5042501892,
				"z": -1.3421185635,
				"element": "C" 
			},
			{
				"x": 0.4345528107,
				"y": -0.2557034878,
				"z": -0.5469480741,
				"element": "C" 
			},
			{
				"x": 3.9439341317,
				"y": 0.856577984,
				"z": -1.550122942,
				"element": "H" 
			},
			{
				"x": -0.0500692831,
				"y": -1.1288258824,
				"z": -3.341899363,
				"element": "H" 
			},
			{
				"x": -0.4980400033,
				"y": 0.586375148,
				"z": -3.2915409405,
				"element": "H" 
			},
			{
				"x": -1.673527697,
				"y": 0.2247001825,
				"z": -1.1332980696,
				"element": "H" 
			},
			{
				"x": -1.3051092574,
				"y": -1.5075815614,
				"z": -1.2341115632,
				"element": "H" 
			},
			{
				"x": 0.8409740277,
				"y": -1.1278749281,
				"z": -0.0236171255,
				"element": "H" 
			},
			{
				"x": 0.4286521755,
				"y": 0.5845734007,
				"z": 0.1549100464,
				"element": "H" 
			}
		],
		 "valence_orbital": [ 
			{
				"type": "occ",
				"energy": -0.34684,
				"method": "rhf"
			},
			{
				"type": "occ",
				"energy": -0.34485,
				"method": "rhf"
			},
			{
				"type": "occ",
				"energy": -0.32717,
				"method": "rhf"
			},
			{
				"type": "occ",
				"energy": -0.26191,
				"method": "rhf"
			},
			{
				"type": "occ",
				"energy": -0.23977,
				"method": "rhf"
			},
			{
				"type": "unocc",
				"energy": 0.00675,
				"method": "rhf"
			},
			{
				"type": "unocc",
				"energy": 0.07683,
				"method": "rhf"
			},
			{
				"type": "unocc",
				"energy": 0.09695,
				"method": "rhf"
			},
			{
				"type": "unocc",
				"energy": 0.12757,
				"method": "rhf"
			},
			{
				"type": "unocc",
				"energy": 0.13709,
				"method": "rhf"
			}
		],
		"cosmo_sigma_profile": { 
			"-0.025": 0.0,
			"-0.024": 0.0,
			"-0.023": 0.0,
			"-0.022": 0.0,
			"-0.021": 0.0,
			"-0.02": 0.0,
			"-0.019": 0.0,
			"-0.018": 0.0,
			"-0.017": 0.279164620817,
			"-0.016": 1.44430631451,
			"-0.015": 0.317622233716,
			"-0.014": 1.00848262042,
			"-0.013": 0.776479974589,
			"-0.012": 0.838421701036,
			"-0.011": 0.673756536123,
			"-0.01": 0.722429533789,
			"-0.009": 0.156718097452,
			"-0.008": 0.562459058471,
			"-0.007": 0.702461801225,
			"-0.006": 1.00884157486,
			"-0.005": 6.43477057072,
			"-0.004": 11.1232117005,
			"-0.003": 18.7531095195,
			"-0.002": 15.839454116,
			"-0.001": 12.4027632859,
			"0.0": 10.8898480304,
			"0.001": 7.07226800697,
			"0.002": 3.98377459943,
			"0.003": 1.91691650275,
			"0.004": 2.84214043148,
			"0.005": 2.64031070754,
			"0.006": 4.09401149106,
			"0.007": 5.26963077259,
			"0.008": 3.25758399251,
			"0.009": 2.58484682359,
			"0.01": 3.52742799739,
			"0.011": 3.48097246239,
			"0.012": 1.6198640778,
			"0.013": 1.03937372339,
			"0.014": 0.802487874544,
			"0.015": 0.0980190526139,
			"0.016": 0.0,
			"0.017": 0.0,
			"0.018": 0.0,
			"0.019": 0.0,
			"0.02": 0.0,
			"0.021": 0.0,
			"0.022": 0.0,
			"0.023": 0.0,
			"0.024": 0.0,
			"0.025": 0.0
		}
	}
}
