{
	 "smiles": "CP(=O)(C1=CC=CC=C1)C1=CC=CC=C1", 
	 "Tm": 386.15, 
	 "num_atms": 28, 
	 "gaussian": { 
		 "optdone": 1, 
		 "sigma_profile": "yes", 
		 "theory": "DFT", 
		 "functional": "B3LYP", 
		 "basiset": "6-31G**", 
		 "properties": { 
			 "R2extent": 3817.1476, 
			 "electric_dipole_moment_norm": 3.97024092594, 
			 "electric_quadrupole_moment_norm": 13.4227508652, 
			 "total_energy": -919.824932234, 
			 "HOMO_LUMO_gap": 0.21964, 
			 "cosmo_polarized_energy": -15.25, 
			 "cosmo_cavitation_energy": 32.77, 
			 "cosmo_dispersion_energy": -23.22, 
			 "cosmo_repulsion_energy": 1.78, 
			 "cosmo_total_nonelectrostatic_energy": 11.33, 
			 "SMD_solvation_energy": 6.96 
		},
		"coords": [
			{
				"x": 2.2484064081,
				"y": -0.7128848502,
				"z": -2.1105245182,
				"element": "C" 
			},
			{
				"x": 0.9562251201,
				"y": -1.1819310953,
				"z": -0.9005047009,
				"element": "P" 
			},
			{
				"x": 0.6102152673,
				"y": -2.6449498972,
				"z": -0.8926883916,
				"element": "O" 
			},
			{
				"x": -0.4948094677,
				"y": -0.1404770034,
				"z": -1.3070815431,
				"element": "C" 
			},
			{
				"x": -1.7385834064,
				"y": -0.7860083813,
				"z": -1.3454043705,
				"element": "C" 
			},
			{
				"x": -2.8962742267,
				"y": -0.0664230381,
				"z": -1.6455131695,
				"element": "C" 
			},
			{
				"x": -2.8205040353,
				"y": 1.3014952785,
				"z": -1.9121625657,
				"element": "C" 
			},
			{
				"x": -1.5838321464,
				"y": 1.9509397903,
				"z": -1.8816270099,
				"element": "C" 
			},
			{
				"x": -0.4258809475,
				"y": 1.2337640763,
				"z": -1.5813218794,
				"element": "C" 
			},
			{
				"x": 1.5893477481,
				"y": -0.6253451114,
				"z": 0.7261987256,
				"element": "C" 
			},
			{
				"x": 1.542132667,
				"y": -1.5589958246,
				"z": 1.7705574822,
				"element": "C" 
			},
			{
				"x": 2.0068049428,
				"y": -1.217115387,
				"z": 3.0416926026,
				"element": "C" 
			},
			{
				"x": 2.5231673905,
				"y": 0.057680209,
				"z": 3.2783622826,
				"element": "C" 
			},
			{
				"x": 2.5766373914,
				"y": 0.9927146372,
				"z": 2.2413588579,
				"element": "C" 
			},
			{
				"x": 2.1123392061,
				"y": 0.653294138,
				"z": 0.9708623254,
				"element": "C" 
			},
			{
				"x": 1.9015737794,
				"y": -0.9770442196,
				"z": -3.1128517427,
				"element": "H" 
			},
			{
				"x": 2.4835554811,
				"y": 0.3545521156,
				"z": -2.0839283145,
				"element": "H" 
			},
			{
				"x": 3.1547860998,
				"y": -1.2817458003,
				"z": -1.887778774,
				"element": "H" 
			},
			{
				"x": -1.777452212,
				"y": -1.8527557542,
				"z": -1.1474886444,
				"element": "H" 
			},
			{
				"x": -3.8559200467,
				"y": -0.5745814446,
				"z": -1.674182929,
				"element": "H" 
			},
			{
				"x": -3.721277933,
				"y": 1.8614871391,
				"z": -2.1470531488,
				"element": "H" 
			},
			{
				"x": -1.5214295761,
				"y": 3.0143957032,
				"z": -2.0942837936,
				"element": "H" 
			},
			{
				"x": 0.5274985356,
				"y": 1.7546178105,
				"z": -1.5677149962,
				"element": "H" 
			},
			{
				"x": 1.1452788726,
				"y": -2.5485454581,
				"z": 1.5657661706,
				"element": "H" 
			},
			{
				"x": 1.9674706671,
				"y": -1.9467103607,
				"z": 3.8455142806,
				"element": "H" 
			},
			{
				"x": 2.8856880707,
				"y": 0.3237012674,
				"z": 4.2672964959,
				"element": "H" 
			},
			{
				"x": 2.980906367,
				"y": 1.9846134728,
				"z": 2.4223688803,
				"element": "H" 
			},
			{
				"x": 2.162329983,
				"y": 1.392757988,
				"z": 0.1764323882,
				"element": "H" 
			}
		],
		 "valence_orbital": [ 
			{
				"type": "occ",
				"energy": -0.26005,
				"method": "rhf"
			},
			{
				"type": "occ",
				"energy": -0.25977,
				"method": "rhf"
			},
			{
				"type": "occ",
				"energy": -0.2551,
				"method": "rhf"
			},
			{
				"type": "occ",
				"energy": -0.25458,
				"method": "rhf"
			},
			{
				"type": "occ",
				"energy": -0.25196,
				"method": "rhf"
			},
			{
				"type": "unocc",
				"energy": -0.03232,
				"method": "rhf"
			},
			{
				"type": "unocc",
				"energy": -0.01228,
				"method": "rhf"
			},
			{
				"type": "unocc",
				"energy": -0.0102,
				"method": "rhf"
			},
			{
				"type": "unocc",
				"energy": -0.00436,
				"method": "rhf"
			},
			{
				"type": "unocc",
				"energy": 0.05905,
				"method": "rhf"
			}
		],
		"cosmo_sigma_profile": { 
			"-0.025": 0.0,
			"-0.024": 0.0,
			"-0.023": 0.0,
			"-0.022": 0.0,
			"-0.021": 0.0,
			"-0.02": 0.0,
			"-0.019": 0.0,
			"-0.018": 0.0,
			"-0.017": 0.0,
			"-0.016": 0.00792084220606,
			"-0.015": 0.0841369608552,
			"-0.014": 0.209163654185,
			"-0.013": 0.204962351687,
			"-0.012": 0.261854901408,
			"-0.011": 0.353124676745,
			"-0.01": 0.562432345825,
			"-0.009": 0.998188395566,
			"-0.008": 2.35201628709,
			"-0.007": 4.9891351078,
			"-0.006": 19.3173549553,
			"-0.005": 23.4441350314,
			"-0.004": 25.2841321949,
			"-0.003": 19.0061187248,
			"-0.002": 18.9895080167,
			"-0.001": 17.7881162021,
			"0.0": 14.671462418,
			"0.001": 16.3321453518,
			"0.002": 18.1697798961,
			"0.003": 18.4919994389,
			"0.004": 23.1316840133,
			"0.005": 15.2326437654,
			"0.006": 1.69635838916,
			"0.007": 1.13117193732,
			"0.008": 1.88462377066,
			"0.009": 1.73090404551,
			"0.01": 0.684347434151,
			"0.011": 0.79106244576,
			"0.012": 1.05450037043,
			"0.013": 1.58974894459,
			"0.014": 1.42339748975,
			"0.015": 2.30748664444,
			"0.016": 3.99153687392,
			"0.017": 2.28892082925,
			"0.018": 0.0,
			"0.019": 0.0,
			"0.02": 0.0,
			"0.021": 0.0,
			"0.022": 0.0,
			"0.023": 0.0,
			"0.024": 0.0,
			"0.025": 0.0
		}
	}
}
