{
	 "smiles": "CC1=C(OC(COC2=CC=C(C=O)C=C2)=C1)C(O)=O", 
	 "Tm": 453.15, 
	 "num_atms": 31, 
	 "gaussian": { 
		 "optdone": 1, 
		 "sigma_profile": "yes", 
		 "theory": "DFT", 
		 "functional": "B3LYP", 
		 "basiset": "6-31G**", 
		 "properties": { 
			 "R2extent": 6704.9863, 
			 "electric_dipole_moment_norm": 7.0335162714, 
			 "electric_quadrupole_moment_norm": 15.2499290159, 
			 "total_energy": -916.818485784, 
			 "HOMO_LUMO_gap": 0.18097, 
			 "cosmo_polarized_energy": -20.32, 
			 "cosmo_cavitation_energy": 36.95, 
			 "cosmo_dispersion_energy": -25.79, 
			 "cosmo_repulsion_energy": 1.99, 
			 "cosmo_total_nonelectrostatic_energy": 13.15, 
			 "SMD_solvation_energy": 9.18 
		},
		"coords": [
			{
				"x": 4.1928661907,
				"y": -0.6972096897,
				"z": -1.4695442892,
				"element": "C" 
			},
			{
				"x": 2.8857340578,
				"y": -0.177191021,
				"z": -0.9562164938,
				"element": "C" 
			},
			{
				"x": 1.6316815228,
				"y": -0.6883603869,
				"z": -1.1830632866,
				"element": "C" 
			},
			{
				"x": 0.6797830097,
				"y": 0.07433691,
				"z": -0.5384837323,
				"element": "O" 
			},
			{
				"x": 1.3396160569,
				"y": 1.0736599075,
				"z": 0.1138775267,
				"element": "C" 
			},
			{
				"x": 0.5298888097,
				"y": 2.0486826159,
				"z": 0.8989291423,
				"element": "C" 
			},
			{
				"x": -0.0742389631,
				"y": 1.471359277,
				"z": 2.0634751272,
				"element": "O" 
			},
			{
				"x": -1.3200153419,
				"y": 0.9198056005,
				"z": 2.002474729,
				"element": "C" 
			},
			{
				"x": -1.8235015835,
				"y": 0.4693539621,
				"z": 3.2342782467,
				"element": "C" 
			},
			{
				"x": -3.0883387494,
				"y": -0.0951728914,
				"z": 3.2984501646,
				"element": "C" 
			},
			{
				"x": -3.8771014424,
				"y": -0.2200913277,
				"z": 2.1438569781,
				"element": "C" 
			},
			{
				"x": -5.2240625228,
				"y": -0.8166443,
				"z": 2.2169950776,
				"element": "C" 
			},
			{
				"x": -5.9727939183,
				"y": -0.9588866872,
				"z": 1.2671678293,
				"element": "O" 
			},
			{
				"x": -3.3645768711,
				"y": 0.2289891348,
				"z": 0.9191822617,
				"element": "C" 
			},
			{
				"x": -2.095586017,
				"y": 0.7916229448,
				"z": 0.8367229176,
				"element": "C" 
			},
			{
				"x": 2.6819057736,
				"y": 0.9617273376,
				"z": -0.1096616448,
				"element": "C" 
			},
			{
				"x": 1.1512817912,
				"y": -1.85977696,
				"z": -1.9337121087,
				"element": "C" 
			},
			{
				"x": -0.1778967359,
				"y": -2.1041917777,
				"z": -1.8473366771,
				"element": "O" 
			},
			{
				"x": 1.8798016224,
				"y": -2.5716444211,
				"z": -2.5901660521,
				"element": "O" 
			},
			{
				"x": 4.696035934,
				"y": 0.0602596824,
				"z": -2.0810915726,
				"element": "H" 
			},
			{
				"x": 4.8647826794,
				"y": -0.9416373748,
				"z": -0.6392932356,
				"element": "H" 
			},
			{
				"x": 4.0370172392,
				"y": -1.5897669105,
				"z": -2.0750979585,
				"element": "H" 
			},
			{
				"x": 1.2033736651,
				"y": 2.8205745572,
				"z": 1.2778979631,
				"element": "H" 
			},
			{
				"x": -0.2277213893,
				"y": 2.539815821,
				"z": 0.277689659,
				"element": "H" 
			},
			{
				"x": -1.2027508603,
				"y": 0.5794716013,
				"z": 4.1169082536,
				"element": "H" 
			},
			{
				"x": -3.4762462822,
				"y": -0.4421704835,
				"z": 4.2534410559,
				"element": "H" 
			},
			{
				"x": -5.5294078418,
				"y": -1.1427232966,
				"z": 3.2369407449,
				"element": "H" 
			},
			{
				"x": -3.9825946538,
				"y": 0.1230663707,
				"z": 0.0327922937,
				"element": "H" 
			},
			{
				"x": -1.7165132735,
				"y": 1.1114178503,
				"z": -0.125909937,
				"element": "H" 
			},
			{
				"x": 3.4475897307,
				"y": 1.6150565178,
				"z": 0.2858849654,
				"element": "H" 
			},
			{
				"x": -0.5977116367,
				"y": -1.4607325627,
				"z": -1.2548879483,
				"element": "H" 
			}
		],
		 "valence_orbital": [ 
			{
				"type": "occ",
				"energy": -0.27947,
				"method": "rhf"
			},
			{
				"type": "occ",
				"energy": -0.27492,
				"method": "rhf"
			},
			{
				"type": "occ",
				"energy": -0.25589,
				"method": "rhf"
			},
			{
				"type": "occ",
				"energy": -0.2532,
				"method": "rhf"
			},
			{
				"type": "occ",
				"energy": -0.24196,
				"method": "rhf"
			},
			{
				"type": "unocc",
				"energy": -0.06099,
				"method": "rhf"
			},
			{
				"type": "unocc",
				"energy": -0.05464,
				"method": "rhf"
			},
			{
				"type": "unocc",
				"energy": -0.02296,
				"method": "rhf"
			},
			{
				"type": "unocc",
				"energy": 0.01301,
				"method": "rhf"
			},
			{
				"type": "unocc",
				"energy": 0.04113,
				"method": "rhf"
			}
		],
		"cosmo_sigma_profile": { 
			"-0.025": 0.0,
			"-0.024": 0.0,
			"-0.023": 0.0,
			"-0.022": 0.0,
			"-0.021": 0.0,
			"-0.02": 0.0,
			"-0.019": 0.0,
			"-0.018": 0.0,
			"-0.017": 0.0,
			"-0.016": 0.0,
			"-0.015": 0.0,
			"-0.014": 0.0,
			"-0.013": 0.0,
			"-0.012": 0.227624050861,
			"-0.011": 1.19570732177,
			"-0.01": 2.23214573014,
			"-0.009": 3.6310017162,
			"-0.008": 10.3550756086,
			"-0.007": 14.2455164618,
			"-0.006": 18.4778795351,
			"-0.005": 21.3441538157,
			"-0.004": 17.7094099173,
			"-0.003": 19.1827609458,
			"-0.002": 18.2588842247,
			"-0.001": 21.0718456635,
			"0.0": 21.7187834283,
			"0.001": 23.4276835556,
			"0.002": 21.0673543813,
			"0.003": 19.6097150996,
			"0.004": 7.39015487614,
			"0.005": 5.5899749778,
			"0.006": 6.11167297997,
			"0.007": 4.36222444198,
			"0.008": 6.54277213888,
			"0.009": 5.85119109604,
			"0.01": 6.50549885314,
			"0.011": 8.64088823025,
			"0.012": 7.70594176841,
			"0.013": 3.2804981849,
			"0.014": 0.246594847222,
			"0.015": 0.0,
			"0.016": 0.0,
			"0.017": 0.0,
			"0.018": 0.0,
			"0.019": 0.0,
			"0.02": 0.0,
			"0.021": 0.0,
			"0.022": 0.0,
			"0.023": 0.0,
			"0.024": 0.0,
			"0.025": 0.0
		}
	}
}
