{
	 "smiles": "NC1=C(N)C=C(C=C1)S(=O)(=O)NC1=CC(=CC=C1)C(F)(F)F", 
	 "Tm": 418.15, 
	 "num_atms": 34, 
	 "gaussian": { 
		 "optdone": 1, 
		 "sigma_profile": "yes", 
		 "theory": "DFT", 
		 "functional": "B3LYP", 
		 "basiset": "6-31G**", 
		 "properties": { 
			 "R2extent": 7854.0823, 
			 "electric_dipole_moment_norm": 7.33781601091, 
			 "electric_quadrupole_moment_norm": 24.4684490485, 
			 "total_energy": -1514.97525805, 
			 "HOMO_LUMO_gap": 0.17462, 
			 "cosmo_polarized_energy": -22.8, 
			 "cosmo_cavitation_energy": 40.32, 
			 "cosmo_dispersion_energy": -27.69, 
			 "cosmo_repulsion_energy": 2.0, 
			 "cosmo_total_nonelectrostatic_energy": 14.63, 
			 "SMD_solvation_energy": 6.65 
		},
		"coords": [
			{
				"x": 1.5673806805,
				"y": 3.2383509669,
				"z": 1.4044473596,
				"element": "N" 
			},
			{
				"x": 0.911923686,
				"y": 2.4867027017,
				"z": 0.426987038,
				"element": "C" 
			},
			{
				"x": 1.6099567252,
				"y": 1.3885825292,
				"z": -0.1402849677,
				"element": "C" 
			},
			{
				"x": 2.9257397978,
				"y": 1.1437367333,
				"z": 0.286139924,
				"element": "N" 
			},
			{
				"x": 0.9932981083,
				"y": 0.6288590828,
				"z": -1.1300528268,
				"element": "C" 
			},
			{
				"x": -0.3241051297,
				"y": 0.9114295285,
				"z": -1.5133145742,
				"element": "C" 
			},
			{
				"x": -1.0386028263,
				"y": 1.957546631,
				"z": -0.9289714014,
				"element": "C" 
			},
			{
				"x": -0.403891147,
				"y": 2.7486139244,
				"z": 0.0269813388,
				"element": "C" 
			},
			{
				"x": -1.1298402054,
				"y": -0.1503898363,
				"z": -2.6944605618,
				"element": "S" 
			},
			{
				"x": -0.1062076164,
				"y": -0.7063030621,
				"z": -3.5795122873,
				"element": "O" 
			},
			{
				"x": -2.3300506958,
				"y": 0.5142398819,
				"z": -3.203719089,
				"element": "O" 
			},
			{
				"x": -1.7755852689,
				"y": -1.468253862,
				"z": -1.7992841107,
				"element": "N" 
			},
			{
				"x": -1.0147316688,
				"y": -2.227172142,
				"z": -0.885189355,
				"element": "C" 
			},
			{
				"x": 0.2910006058,
				"y": -2.6291347501,
				"z": -1.1912202068,
				"element": "C" 
			},
			{
				"x": 1.0446615476,
				"y": -3.3116164655,
				"z": -0.235611879,
				"element": "C" 
			},
			{
				"x": 0.4968915665,
				"y": -3.6767490092,
				"z": 0.9945497725,
				"element": "C" 
			},
			{
				"x": -0.8280899482,
				"y": -3.33230642,
				"z": 1.2673003853,
				"element": "C" 
			},
			{
				"x": -1.5726134189,
				"y": -2.5957281535,
				"z": 0.3500842944,
				"element": "C" 
			},
			{
				"x": 2.4919288814,
				"y": -3.5745415635,
				"z": -0.5472605844,
				"element": "C" 
			},
			{
				"x": 2.6634431246,
				"y": -4.1088253318,
				"z": -1.7725932976,
				"element": "F" 
			},
			{
				"x": 3.2078888584,
				"y": -2.4102283341,
				"z": -0.5354387113,
				"element": "F" 
			},
			{
				"x": 3.0753488131,
				"y": -4.3976225115,
				"z": 0.3463985167,
				"element": "F" 
			},
			{
				"x": 2.5505261152,
				"y": 3.3870976354,
				"z": 1.2012050529,
				"element": "H" 
			},
			{
				"x": 1.1052666234,
				"y": 4.105883198,
				"z": 1.644262387,
				"element": "H" 
			},
			{
				"x": 3.0209675873,
				"y": 1.2075927488,
				"z": 1.2954149048,
				"element": "H" 
			},
			{
				"x": 3.2868922392,
				"y": 0.2537330973,
				"z": -0.0381713272,
				"element": "H" 
			},
			{
				"x": 1.5381255545,
				"y": -0.1832382832,
				"z": -1.5954125062,
				"element": "H" 
			},
			{
				"x": -2.053144318,
				"y": 2.1699725813,
				"z": -1.2458391861,
				"element": "H" 
			},
			{
				"x": -0.9307305936,
				"y": 3.5930947629,
				"z": 0.4639977143,
				"element": "H" 
			},
			{
				"x": -2.7111997016,
				"y": -1.2272443667,
				"z": -1.4891500827,
				"element": "H" 
			},
			{
				"x": 0.7110563758,
				"y": -2.3962641749,
				"z": -2.1621423813,
				"element": "H" 
			},
			{
				"x": 1.092702076,
				"y": -4.2182749323,
				"z": 1.7195085648,
				"element": "H" 
			},
			{
				"x": -1.277213546,
				"y": -3.6168209193,
				"z": 2.2138699487,
				"element": "H" 
			},
			{
				"x": -2.5895928819,
				"y": -2.2966218853,
				"z": 0.5906821346,
				"element": "H" 
			}
		],
		 "valence_orbital": [ 
			{
				"type": "occ",
				"energy": -0.30221,
				"method": "rhf"
			},
			{
				"type": "occ",
				"energy": -0.27408,
				"method": "rhf"
			},
			{
				"type": "occ",
				"energy": -0.24577,
				"method": "rhf"
			},
			{
				"type": "occ",
				"energy": -0.24006,
				"method": "rhf"
			},
			{
				"type": "occ",
				"energy": -0.21023,
				"method": "rhf"
			},
			{
				"type": "unocc",
				"energy": -0.03561,
				"method": "rhf"
			},
			{
				"type": "unocc",
				"energy": -0.03029,
				"method": "rhf"
			},
			{
				"type": "unocc",
				"energy": -0.01423,
				"method": "rhf"
			},
			{
				"type": "unocc",
				"energy": -0.00482,
				"method": "rhf"
			},
			{
				"type": "unocc",
				"energy": 0.05888,
				"method": "rhf"
			}
		],
		"cosmo_sigma_profile": { 
			"-0.025": 0.0,
			"-0.024": 0.0,
			"-0.023": 0.0,
			"-0.022": 0.0,
			"-0.021": 0.0,
			"-0.02": 0.0,
			"-0.019": 0.0,
			"-0.018": 0.0,
			"-0.017": 0.0,
			"-0.016": 0.333420540856,
			"-0.015": 0.792968043012,
			"-0.014": 1.23122885655,
			"-0.013": 2.66956722236,
			"-0.012": 3.43964713961,
			"-0.011": 5.18794860369,
			"-0.01": 5.15029667996,
			"-0.009": 6.27689710614,
			"-0.008": 9.46972676061,
			"-0.007": 11.3884376037,
			"-0.006": 14.3237407923,
			"-0.005": 15.7247067165,
			"-0.004": 14.3644026845,
			"-0.003": 14.2143046335,
			"-0.002": 14.7400448156,
			"-0.001": 15.8606197538,
			"0.0": 16.4332419179,
			"0.001": 22.3845318621,
			"0.002": 37.2343179739,
			"0.003": 40.1217041364,
			"0.004": 19.3097421123,
			"0.005": 7.76021507331,
			"0.006": 5.22494130526,
			"0.007": 6.36049212458,
			"0.008": 5.01606447686,
			"0.009": 6.08572703748,
			"0.01": 8.17136602584,
			"0.011": 9.28079966502,
			"0.012": 2.28175308023,
			"0.013": 0.683295551011,
			"0.014": 0.545220904204,
			"0.015": 0.0,
			"0.016": 0.0,
			"0.017": 0.0,
			"0.018": 0.0,
			"0.019": 0.0,
			"0.02": 0.0,
			"0.021": 0.0,
			"0.022": 0.0,
			"0.023": 0.0,
			"0.024": 0.0,
			"0.025": 0.0
		}
	}
}
