{
	 "smiles": "CC1=CC=C(C)C(C=C)=C1", 
	 "Tm": 238.15, 
	 "num_atms": 22, 
	 "gaussian": { 
		 "optdone": 1, 
		 "sigma_profile": "yes", 
		 "theory": "DFT", 
		 "functional": "B3LYP", 
		 "basiset": "6-31G**", 
		 "properties": { 
			 "R2extent": 1692.0957, 
			 "electric_dipole_moment_norm": 0.184656952211, 
			 "electric_quadrupole_moment_norm": 6.61445171575, 
			 "total_energy": -388.29129907, 
			 "HOMO_LUMO_gap": 0.19031, 
			 "cosmo_polarized_energy": -4.27, 
			 "cosmo_cavitation_energy": 24.92, 
			 "cosmo_dispersion_energy": -17.91, 
			 "cosmo_repulsion_energy": 1.44, 
			 "cosmo_total_nonelectrostatic_energy": 8.45, 
			 "SMD_solvation_energy": 4.95 
		},
		"coords": [
			{
				"x": -2.7066421113,
				"y": -0.4026046572,
				"z": -1.1399484658,
				"element": "C" 
			},
			{
				"x": -1.4226475315,
				"y": -0.063569052,
				"z": -0.4189816637,
				"element": "C" 
			},
			{
				"x": -1.4166230833,
				"y": 0.2088333202,
				"z": 0.9549589716,
				"element": "C" 
			},
			{
				"x": -0.2285627291,
				"y": 0.5291392355,
				"z": 1.6078378088,
				"element": "C" 
			},
			{
				"x": 0.9922464541,
				"y": 0.5945973065,
				"z": 0.926950925,
				"element": "C" 
			},
			{
				"x": 2.2529538423,
				"y": 0.9581756369,
				"z": 1.6787819375,
				"element": "C" 
			},
			{
				"x": 1.0015797479,
				"y": 0.329959459,
				"z": -0.4628027676,
				"element": "C" 
			},
			{
				"x": 2.2618243692,
				"y": 0.3906578503,
				"z": -1.2278085609,
				"element": "C" 
			},
			{
				"x": 2.3827407189,
				"y": 0.6439334345,
				"z": -2.5372911346,
				"element": "C" 
			},
			{
				"x": -0.2057474898,
				"y": -0.0044292633,
				"z": -1.1002906897,
				"element": "C" 
			},
			{
				"x": -2.5101808027,
				"y": -0.8912079719,
				"z": -2.0986939401,
				"element": "H" 
			},
			{
				"x": -3.3371829412,
				"y": -1.070372819,
				"z": -0.5436765747,
				"element": "H" 
			},
			{
				"x": -3.2972629943,
				"y": 0.4988521135,
				"z": -1.3463065849,
				"element": "H" 
			},
			{
				"x": -2.3449194123,
				"y": 0.1605708298,
				"z": 1.519356012,
				"element": "H" 
			},
			{
				"x": -0.2462436546,
				"y": 0.7337510068,
				"z": 2.6756929297,
				"element": "H" 
			},
			{
				"x": 2.9900308327,
				"y": 0.1456371582,
				"z": 1.6628568868,
				"element": "H" 
			},
			{
				"x": 2.0288962042,
				"y": 1.1740780063,
				"z": 2.7268420771,
				"element": "H" 
			},
			{
				"x": 2.7421031129,
				"y": 1.841509251,
				"z": 1.2533830202,
				"element": "H" 
			},
			{
				"x": 3.1736858246,
				"y": 0.2216998089,
				"z": -0.6582890517,
				"element": "H" 
			},
			{
				"x": 1.5266594513,
				"y": 0.8649181482,
				"z": -3.168530501,
				"element": "H" 
			},
			{
				"x": 3.3552978512,
				"y": 0.6507142115,
				"z": -3.0191735766,
				"element": "H" 
			},
			{
				"x": -0.1844056592,
				"y": -0.2496430139,
				"z": -2.1588670575,
				"element": "H" 
			}
		],
		 "valence_orbital": [ 
			{
				"type": "occ",
				"energy": -0.32953,
				"method": "rhf"
			},
			{
				"type": "occ",
				"energy": -0.32484,
				"method": "rhf"
			},
			{
				"type": "occ",
				"energy": -0.28566,
				"method": "rhf"
			},
			{
				"type": "occ",
				"energy": -0.23316,
				"method": "rhf"
			},
			{
				"type": "occ",
				"energy": -0.21643,
				"method": "rhf"
			},
			{
				"type": "unocc",
				"energy": -0.02612,
				"method": "rhf"
			},
			{
				"type": "unocc",
				"energy": 0.00932,
				"method": "rhf"
			},
			{
				"type": "unocc",
				"energy": 0.05587,
				"method": "rhf"
			},
			{
				"type": "unocc",
				"energy": 0.10385,
				"method": "rhf"
			},
			{
				"type": "unocc",
				"energy": 0.10646,
				"method": "rhf"
			}
		],
		"cosmo_sigma_profile": { 
			"-0.025": 0.0,
			"-0.024": 0.0,
			"-0.023": 0.0,
			"-0.022": 0.0,
			"-0.021": 0.0,
			"-0.02": 0.0,
			"-0.019": 0.0,
			"-0.018": 0.0,
			"-0.017": 0.0,
			"-0.016": 0.0,
			"-0.015": 0.0,
			"-0.014": 0.0,
			"-0.013": 0.0,
			"-0.012": 0.0,
			"-0.011": 0.0,
			"-0.01": 0.0,
			"-0.009": 0.0,
			"-0.008": 0.0,
			"-0.007": 0.700176657854,
			"-0.006": 1.54108565572,
			"-0.005": 8.93217296782,
			"-0.004": 21.4252020296,
			"-0.003": 21.9065011211,
			"-0.002": 22.7236305979,
			"-0.001": 19.8191894308,
			"0.0": 24.381996987,
			"0.001": 15.8497522106,
			"0.002": 11.0407798929,
			"0.003": 9.1553511285,
			"0.004": 10.9009362741,
			"0.005": 11.6906969092,
			"0.006": 11.4858780385,
			"0.007": 5.44880579344,
			"0.008": 0.0515416348955,
			"0.009": 0.0,
			"0.01": 0.0,
			"0.011": 0.0,
			"0.012": 0.0,
			"0.013": 0.0,
			"0.014": 0.0,
			"0.015": 0.0,
			"0.016": 0.0,
			"0.017": 0.0,
			"0.018": 0.0,
			"0.019": 0.0,
			"0.02": 0.0,
			"0.021": 0.0,
			"0.022": 0.0,
			"0.023": 0.0,
			"0.024": 0.0,
			"0.025": 0.0
		}
	}
}
