{
	 "smiles": "ClC1(Cl)CCCCC1", 
	 "Tm": 226.15, 
	 "num_atms": 18, 
	 "gaussian": { 
		 "optdone": 1, 
		 "sigma_profile": "yes", 
		 "theory": "DFT", 
		 "functional": "B3LYP", 
		 "basiset": "6-31G**", 
		 "properties": { 
			 "R2extent": 1667.8682, 
			 "electric_dipole_moment_norm": 2.90394452254, 
			 "electric_quadrupole_moment_norm": 5.01682398336, 
			 "total_energy": -1155.06248774, 
			 "HOMO_LUMO_gap": 0.28234, 
			 "cosmo_polarized_energy": -4.18, 
			 "cosmo_cavitation_energy": 21.98, 
			 "cosmo_dispersion_energy": -16.87, 
			 "cosmo_repulsion_energy": 1.39, 
			 "cosmo_total_nonelectrostatic_energy": 6.5, 
			 "SMD_solvation_energy": 2.37 
		},
		"coords": [
			{
				"x": -2.9081434608,
				"y": 1.0150018464,
				"z": 1.0051704063,
				"element": "Cl" 
			},
			{
				"x": -1.3618078558,
				"y": 0.5393719903,
				"z": 0.1532278939,
				"element": "C" 
			},
			{
				"x": -0.0236090441,
				"y": 1.5788020616,
				"z": 0.8609809046,
				"element": "Cl" 
			},
			{
				"x": -1.4950949396,
				"y": 0.852668805,
				"z": -1.3346565966,
				"element": "C" 
			},
			{
				"x": -0.2104076609,
				"y": 0.5154732399,
				"z": -2.1284321758,
				"element": "C" 
			},
			{
				"x": 0.5489031021,
				"y": -0.7092137434,
				"z": -1.5622272145,
				"element": "C" 
			},
			{
				"x": -0.3971893475,
				"y": -1.6463747384,
				"z": -0.8022058785,
				"element": "C" 
			},
			{
				"x": -1.0645784592,
				"y": -0.9557084277,
				"z": 0.4112005513,
				"element": "C" 
			},
			{
				"x": -2.3342006015,
				"y": 0.2462708529,
				"z": -1.6959886159,
				"element": "H" 
			},
			{
				"x": -1.77769606,
				"y": 1.8990971018,
				"z": -1.4699990702,
				"element": "H" 
			},
			{
				"x": 0.4511054692,
				"y": 1.386154128,
				"z": -2.1406947299,
				"element": "H" 
			},
			{
				"x": -0.5051374894,
				"y": 0.3309069365,
				"z": -3.1675125484,
				"element": "H" 
			},
			{
				"x": 1.0443587508,
				"y": -1.2518683263,
				"z": -2.3741460366,
				"element": "H" 
			},
			{
				"x": 1.3398631846,
				"y": -0.3724003455,
				"z": -0.8836928113,
				"element": "H" 
			},
			{
				"x": 0.1362316069,
				"y": -2.5363767804,
				"z": -0.4522274384,
				"element": "H" 
			},
			{
				"x": -1.1751941147,
				"y": -2.0054225425,
				"z": -1.4879866562,
				"element": "H" 
			},
			{
				"x": -0.4427178119,
				"y": -1.0397733516,
				"z": 1.3054324809,
				"element": "H" 
			},
			{
				"x": -2.0112852682,
				"y": -1.4539087066,
				"z": 0.6353575354,
				"element": "H" 
			}
		],
		 "valence_orbital": [ 
			{
				"type": "occ",
				"energy": -0.32713,
				"method": "rhf"
			},
			{
				"type": "occ",
				"energy": -0.31111,
				"method": "rhf"
			},
			{
				"type": "occ",
				"energy": -0.30563,
				"method": "rhf"
			},
			{
				"type": "occ",
				"energy": -0.2958,
				"method": "rhf"
			},
			{
				"type": "occ",
				"energy": -0.29073,
				"method": "rhf"
			},
			{
				"type": "unocc",
				"energy": -0.00839,
				"method": "rhf"
			},
			{
				"type": "unocc",
				"energy": 0.01514,
				"method": "rhf"
			},
			{
				"type": "unocc",
				"energy": 0.07956,
				"method": "rhf"
			},
			{
				"type": "unocc",
				"energy": 0.10906,
				"method": "rhf"
			},
			{
				"type": "unocc",
				"energy": 0.12259,
				"method": "rhf"
			}
		],
		"cosmo_sigma_profile": { 
			"-0.025": 0.0,
			"-0.024": 0.0,
			"-0.023": 0.0,
			"-0.022": 0.0,
			"-0.021": 0.0,
			"-0.02": 0.0,
			"-0.019": 0.0,
			"-0.018": 0.0,
			"-0.017": 0.0,
			"-0.016": 0.0,
			"-0.015": 0.0,
			"-0.014": 0.0,
			"-0.013": 0.0,
			"-0.012": 0.0,
			"-0.011": 0.0,
			"-0.01": 0.0,
			"-0.009": 0.0,
			"-0.008": 0.0,
			"-0.007": 0.0,
			"-0.006": 0.739955510577,
			"-0.005": 7.34994908231,
			"-0.004": 12.7072869374,
			"-0.003": 20.9676746607,
			"-0.002": 25.5043310546,
			"-0.001": 23.9807408702,
			"0.0": 19.549336952,
			"0.001": 11.7817387876,
			"0.002": 8.61280049599,
			"0.003": 8.27177118673,
			"0.004": 11.2698321988,
			"0.005": 14.3279632572,
			"0.006": 9.71671175062,
			"0.007": 0.204747827299,
			"0.008": 0.0,
			"0.009": 0.0,
			"0.01": 0.0,
			"0.011": 0.0,
			"0.012": 0.0,
			"0.013": 0.0,
			"0.014": 0.0,
			"0.015": 0.0,
			"0.016": 0.0,
			"0.017": 0.0,
			"0.018": 0.0,
			"0.019": 0.0,
			"0.02": 0.0,
			"0.021": 0.0,
			"0.022": 0.0,
			"0.023": 0.0,
			"0.024": 0.0,
			"0.025": 0.0
		}
	}
}
