{
	 "smiles": "NC1=CN=C(SC2=CC(Cl)=CC=C2Cl)C=C1", 
	 "Tm": 381.15, 
	 "num_atms": 24, 
	 "gaussian": { 
		 "optdone": 1, 
		 "sigma_profile": "yes", 
		 "theory": "DFT", 
		 "functional": "B3LYP", 
		 "basiset": "6-31G**", 
		 "properties": { 
			 "R2extent": 6238.6722, 
			 "electric_dipole_moment_norm": 4.27218702891, 
			 "electric_quadrupole_moment_norm": 13.7311247893, 
			 "total_energy": -1852.05732141, 
			 "HOMO_LUMO_gap": 0.16889, 
			 "cosmo_polarized_energy": -14.03, 
			 "cosmo_cavitation_energy": 34.16, 
			 "cosmo_dispersion_energy": -24.86, 
			 "cosmo_repulsion_energy": 1.92, 
			 "cosmo_total_nonelectrostatic_energy": 11.23, 
			 "SMD_solvation_energy": 3.8 
		},
		"coords": [
			{
				"x": -3.7316678262,
				"y": -2.1451832132,
				"z": -0.9992798673,
				"element": "N" 
			},
			{
				"x": -2.4582149336,
				"y": -1.6125023237,
				"z": -1.1846272611,
				"element": "C" 
			},
			{
				"x": -1.5842022302,
				"y": -1.415828907,
				"z": -0.1018651275,
				"element": "C" 
			},
			{
				"x": -0.3309831468,
				"y": -0.9751442246,
				"z": -0.2265196618,
				"element": "N" 
			},
			{
				"x": 0.1179139977,
				"y": -0.6791668275,
				"z": -1.4417631879,
				"element": "C" 
			},
			{
				"x": 1.8227255847,
				"y": -0.1282170514,
				"z": -1.6441603334,
				"element": "S" 
			},
			{
				"x": 2.2150281098,
				"y": 0.5245423947,
				"z": -0.0297151024,
				"element": "C" 
			},
			{
				"x": 3.1926193371,
				"y": -0.1436858727,
				"z": 0.7195943502,
				"element": "C" 
			},
			{
				"x": 3.6049082668,
				"y": 0.3622347113,
				"z": 1.949749026,
				"element": "C" 
			},
			{
				"x": 4.8366000617,
				"y": -0.492841951,
				"z": 2.8637258409,
				"element": "Cl" 
			},
			{
				"x": 3.0469107494,
				"y": 1.5279050217,
				"z": 2.4694328937,
				"element": "C" 
			},
			{
				"x": 2.0693154193,
				"y": 2.1953553629,
				"z": 1.7344016633,
				"element": "C" 
			},
			{
				"x": 1.6616175717,
				"y": 1.7072178326,
				"z": 0.4927601771,
				"element": "C" 
			},
			{
				"x": 0.4519959674,
				"y": 2.6157254688,
				"z": -0.3865625449,
				"element": "Cl" 
			},
			{
				"x": -0.6676856751,
				"y": -0.815324801,
				"z": -2.5939615558,
				"element": "C" 
			},
			{
				"x": -1.9626692204,
				"y": -1.2975442934,
				"z": -2.4610901151,
				"element": "C" 
			},
			{
				"x": -4.1137516159,
				"y": -2.0354912928,
				"z": -0.0698470825,
				"element": "H" 
			},
			{
				"x": -4.4073876529,
				"y": -1.9157793484,
				"z": -1.7149451045,
				"element": "H" 
			},
			{
				"x": -1.9190692176,
				"y": -1.6360071286,
				"z": 0.9119139492,
				"element": "H" 
			},
			{
				"x": 3.619601708,
				"y": -1.0620580309,
				"z": 0.3352121015,
				"element": "H" 
			},
			{
				"x": 3.3696988462,
				"y": 1.9106002612,
				"z": 3.4309789027,
				"element": "H" 
			},
			{
				"x": 1.6255075619,
				"y": 3.1063241077,
				"z": 2.1201461186,
				"element": "H" 
			},
			{
				"x": -0.2770900458,
				"y": -0.5396867489,
				"z": -3.5682683603,
				"element": "H" 
			},
			{
				"x": -2.5942216174,
				"y": -1.420443146,
				"z": -3.3375097187,
				"element": "H" 
			}
		],
		 "valence_orbital": [ 
			{
				"type": "occ",
				"energy": -0.27479,
				"method": "rhf"
			},
			{
				"type": "occ",
				"energy": -0.2586,
				"method": "rhf"
			},
			{
				"type": "occ",
				"energy": -0.25528,
				"method": "rhf"
			},
			{
				"type": "occ",
				"energy": -0.24137,
				"method": "rhf"
			},
			{
				"type": "occ",
				"energy": -0.20235,
				"method": "rhf"
			},
			{
				"type": "unocc",
				"energy": -0.03346,
				"method": "rhf"
			},
			{
				"type": "unocc",
				"energy": -0.0267,
				"method": "rhf"
			},
			{
				"type": "unocc",
				"energy": -0.02018,
				"method": "rhf"
			},
			{
				"type": "unocc",
				"energy": -0.00228,
				"method": "rhf"
			},
			{
				"type": "unocc",
				"energy": 0.01347,
				"method": "rhf"
			}
		],
		"cosmo_sigma_profile": { 
			"-0.025": 0.0,
			"-0.024": 0.0,
			"-0.023": 0.0,
			"-0.022": 0.0,
			"-0.021": 0.0,
			"-0.02": 0.0,
			"-0.019": 0.0,
			"-0.018": 0.0,
			"-0.017": 0.0,
			"-0.016": 0.0,
			"-0.015": 0.0,
			"-0.014": 0.0511501936938,
			"-0.013": 1.85014993504,
			"-0.012": 3.52724293706,
			"-0.011": 2.23391334842,
			"-0.01": 3.48508159132,
			"-0.009": 3.97686215826,
			"-0.008": 8.76924378088,
			"-0.007": 11.8844080375,
			"-0.006": 11.3523654521,
			"-0.005": 10.58171141,
			"-0.004": 10.3022181699,
			"-0.003": 10.48452918,
			"-0.002": 14.7956374713,
			"-0.001": 17.0112418851,
			"0.0": 20.8459931107,
			"0.001": 27.9804001497,
			"0.002": 26.9892535621,
			"0.003": 27.0217089488,
			"0.004": 28.9735110823,
			"0.005": 13.6062228249,
			"0.006": 6.78311962098,
			"0.007": 4.98990300406,
			"0.008": 3.90200284612,
			"0.009": 2.12780971699,
			"0.01": 1.69338437521,
			"0.011": 1.79227134726,
			"0.012": 1.83587421391,
			"0.013": 1.25588153207,
			"0.014": 0.436858472461,
			"0.015": 0.0,
			"0.016": 0.0,
			"0.017": 0.0,
			"0.018": 0.0,
			"0.019": 0.0,
			"0.02": 0.0,
			"0.021": 0.0,
			"0.022": 0.0,
			"0.023": 0.0,
			"0.024": 0.0,
			"0.025": 0.0
		}
	}
}
