{
	 "smiles": "OC1=CC(=NC2=C1C(Cl)=CC(Cl)=C2)C(F)(F)F", 
	 "Tm": 503.15, 
	 "num_atms": 21, 
	 "gaussian": { 
		 "optdone": 1, 
		 "sigma_profile": "yes", 
		 "theory": "DFT", 
		 "functional": "B3LYP", 
		 "basiset": "6-31G**", 
		 "properties": { 
			 "R2extent": 6110.7833, 
			 "electric_dipole_moment_norm": 3.55074378828, 
			 "electric_quadrupole_moment_norm": 4.51460430603, 
			 "total_energy": -1733.36119195, 
			 "HOMO_LUMO_gap": 0.16515, 
			 "cosmo_polarized_energy": -7.93, 
			 "cosmo_cavitation_energy": 30.86, 
			 "cosmo_dispersion_energy": -22.82, 
			 "cosmo_repulsion_energy": 1.68, 
			 "cosmo_total_nonelectrostatic_energy": 9.73, 
			 "SMD_solvation_energy": 4.7 
		},
		"coords": [
			{
				"x": 1.547993239,
				"y": 1.755931669,
				"z": 1.2922237696,
				"element": "O" 
			},
			{
				"x": 0.4514657179,
				"y": 0.9901791088,
				"z": 1.159904664,
				"element": "C" 
			},
			{
				"x": -0.7350139349,
				"y": 1.5443805903,
				"z": 1.6178415168,
				"element": "C" 
			},
			{
				"x": -1.9180352256,
				"y": 0.8043085259,
				"z": 1.5125867469,
				"element": "C" 
			},
			{
				"x": -2.0047572698,
				"y": -0.4077101583,
				"z": 1.0016518103,
				"element": "N" 
			},
			{
				"x": -0.8619728768,
				"y": -0.9775518985,
				"z": 0.5448694929,
				"element": "C" 
			},
			{
				"x": 0.4276003099,
				"y": -0.3284655993,
				"z": 0.5910608982,
				"element": "C" 
			},
			{
				"x": 1.5259240904,
				"y": -1.0731323083,
				"z": 0.0663945864,
				"element": "C" 
			},
			{
				"x": 3.1785109331,
				"y": -0.4219821105,
				"z": 0.0472458141,
				"element": "Cl" 
			},
			{
				"x": 1.3893219724,
				"y": -2.3363539781,
				"z": -0.4578130789,
				"element": "C" 
			},
			{
				"x": 0.1111162592,
				"y": -2.9370073553,
				"z": -0.4850520656,
				"element": "C" 
			},
			{
				"x": -0.0328772281,
				"y": -4.5453550985,
				"z": -1.1579241592,
				"element": "Cl" 
			},
			{
				"x": -0.9910082917,
				"y": -2.2837729217,
				"z": 0.0006635252,
				"element": "C" 
			},
			{
				"x": -3.2338088019,
				"y": 1.3853694125,
				"z": 2.0055574154,
				"element": "C" 
			},
			{
				"x": -3.7716640803,
				"y": 0.6176048135,
				"z": 2.9700755913,
				"element": "F" 
			},
			{
				"x": -3.0649427995,
				"y": 2.6258136634,
				"z": 2.5160641063,
				"element": "F" 
			},
			{
				"x": -4.1289972302,
				"y": 1.4747494916,
				"z": 1.0056491488,
				"element": "F" 
			},
			{
				"x": 2.3350719558,
				"y": 1.3020354823,
				"z": 0.9511466304,
				"element": "H" 
			},
			{
				"x": -0.7220268008,
				"y": 2.5372130546,
				"z": 2.0471581075,
				"element": "H" 
			},
			{
				"x": 2.2499367229,
				"y": -2.8665070158,
				"z": -0.8457413725,
				"element": "H" 
			},
			{
				"x": -1.9784366611,
				"y": -2.7278473673,
				"z": -0.0116631479,
				"element": "H" 
			}
		],
		 "valence_orbital": [ 
			{
				"type": "occ",
				"energy": -0.33332,
				"method": "rhf"
			},
			{
				"type": "occ",
				"energy": -0.29928,
				"method": "rhf"
			},
			{
				"type": "occ",
				"energy": -0.28684,
				"method": "rhf"
			},
			{
				"type": "occ",
				"energy": -0.27882,
				"method": "rhf"
			},
			{
				"type": "occ",
				"energy": -0.24633,
				"method": "rhf"
			},
			{
				"type": "unocc",
				"energy": -0.08118,
				"method": "rhf"
			},
			{
				"type": "unocc",
				"energy": -0.05301,
				"method": "rhf"
			},
			{
				"type": "unocc",
				"energy": -0.02217,
				"method": "rhf"
			},
			{
				"type": "unocc",
				"energy": -0.00708,
				"method": "rhf"
			},
			{
				"type": "unocc",
				"energy": 0.02604,
				"method": "rhf"
			}
		],
		"cosmo_sigma_profile": { 
			"-0.025": 0.0,
			"-0.024": 0.0,
			"-0.023": 0.0,
			"-0.022": 0.0,
			"-0.021": 0.0,
			"-0.02": 0.0,
			"-0.019": 0.0,
			"-0.018": 0.0,
			"-0.017": 0.0,
			"-0.016": 0.0,
			"-0.015": 0.0,
			"-0.014": 0.0,
			"-0.013": 0.218552409469,
			"-0.012": 0.507680826726,
			"-0.011": 0.676067640187,
			"-0.01": 1.38986672342,
			"-0.009": 2.750000435,
			"-0.008": 4.79915384287,
			"-0.007": 6.31956279753,
			"-0.006": 6.70266067324,
			"-0.005": 6.90679368558,
			"-0.004": 9.52249027946,
			"-0.003": 15.9310293896,
			"-0.002": 22.5841562218,
			"-0.001": 27.6384267263,
			"0.0": 30.9131450532,
			"0.001": 21.2224598319,
			"0.002": 33.9579939941,
			"0.003": 33.1358156793,
			"0.004": 10.8524659782,
			"0.005": 3.75921688034,
			"0.006": 3.56614365503,
			"0.007": 2.98864552121,
			"0.008": 2.85860288815,
			"0.009": 2.527694618,
			"0.01": 1.0679897197,
			"0.011": 0.979356268432,
			"0.012": 0.475723970994,
			"0.013": 0.0543420653938,
			"0.014": 0.0,
			"0.015": 0.0,
			"0.016": 0.0,
			"0.017": 0.0,
			"0.018": 0.0,
			"0.019": 0.0,
			"0.02": 0.0,
			"0.021": 0.0,
			"0.022": 0.0,
			"0.023": 0.0,
			"0.024": 0.0,
			"0.025": 0.0
		}
	}
}
