{
	 "smiles": "CC(C)N(C)S(=O)(=O)C1=CC(=CC=C1)C(O)=O", 
	 "Tm": 442.15, 
	 "num_atms": 32, 
	 "gaussian": { 
		 "optdone": 1, 
		 "sigma_profile": "yes", 
		 "theory": "DFT", 
		 "functional": "B3LYP", 
		 "basiset": "6-31G**", 
		 "properties": { 
			 "R2extent": 5771.7777, 
			 "electric_dipole_moment_norm": 3.71305743155, 
			 "electric_quadrupole_moment_norm": 12.6971341357, 
			 "total_energy": -1181.99748126, 
			 "HOMO_LUMO_gap": 0.18332, 
			 "cosmo_polarized_energy": -16.8, 
			 "cosmo_cavitation_energy": 36.47, 
			 "cosmo_dispersion_energy": -25.49, 
			 "cosmo_repulsion_energy": 1.93, 
			 "cosmo_total_nonelectrostatic_energy": 12.91, 
			 "SMD_solvation_energy": 6.54 
		},
		"coords": [
			{
				"x": 1.5700619725,
				"y": -2.7956726333,
				"z": 1.6145373903,
				"element": "C" 
			},
			{
				"x": 1.4915583556,
				"y": -2.4653271982,
				"z": 0.1197609497,
				"element": "C" 
			},
			{
				"x": 2.7753053173,
				"y": -2.8495036291,
				"z": -0.6304331848,
				"element": "C" 
			},
			{
				"x": 1.1052764893,
				"y": -1.0333082446,
				"z": -0.0540272949,
				"element": "N" 
			},
			{
				"x": 2.1109068167,
				"y": -0.0190288978,
				"z": 0.2922688259,
				"element": "C" 
			},
			{
				"x": 0.2646063164,
				"y": -0.6734259016,
				"z": -1.4852769773,
				"element": "S" 
			},
			{
				"x": -0.5573015864,
				"y": -1.8476576281,
				"z": -1.7999463157,
				"element": "O" 
			},
			{
				"x": 1.1593775244,
				"y": -0.0968547343,
				"z": -2.4999000021,
				"element": "O" 
			},
			{
				"x": -0.8300120192,
				"y": 0.6447876682,
				"z": -0.9336074133,
				"element": "C" 
			},
			{
				"x": -0.6351206623,
				"y": 1.937187432,
				"z": -1.4121219231,
				"element": "C" 
			},
			{
				"x": -1.5154505919,
				"y": 2.9490271132,
				"z": -1.0038267797,
				"element": "C" 
			},
			{
				"x": -2.5724704288,
				"y": 2.6504777677,
				"z": -0.1356422863,
				"element": "C" 
			},
			{
				"x": -2.7580807688,
				"y": 1.3475102195,
				"z": 0.325955845,
				"element": "C" 
			},
			{
				"x": -1.8871937806,
				"y": 0.3344815216,
				"z": -0.0728063686,
				"element": "C" 
			},
			{
				"x": -1.3703231161,
				"y": 4.356526103,
				"z": -1.4693273697,
				"element": "C" 
			},
			{
				"x": -0.3155082188,
				"y": 4.5308330663,
				"z": -2.2995789084,
				"element": "O" 
			},
			{
				"x": -2.1070852622,
				"y": 5.2675441719,
				"z": -1.1492387009,
				"element": "O" 
			},
			{
				"x": 0.648713004,
				"y": -2.5044945707,
				"z": 2.1260835241,
				"element": "H" 
			},
			{
				"x": 2.4120440137,
				"y": -2.2971669555,
				"z": 2.1066843437,
				"element": "H" 
			},
			{
				"x": 1.7118325523,
				"y": -3.8732980903,
				"z": 1.7438287308,
				"element": "H" 
			},
			{
				"x": 0.6603427314,
				"y": -3.0314596092,
				"z": -0.3056999965,
				"element": "H" 
			},
			{
				"x": 2.6993531156,
				"y": -2.6087264555,
				"z": -1.6945833281,
				"element": "H" 
			},
			{
				"x": 2.9519091861,
				"y": -3.9259858907,
				"z": -0.5377182234,
				"element": "H" 
			},
			{
				"x": 3.6531549563,
				"y": -2.33600396,
				"z": -0.2238047933,
				"element": "H" 
			},
			{
				"x": 2.4898578674,
				"y": -0.2376021742,
				"z": 1.2924297415,
				"element": "H" 
			},
			{
				"x": 2.9478066537,
				"y": 0.0222137796,
				"z": -0.4136104583,
				"element": "H" 
			},
			{
				"x": 1.6378670068,
				"y": 0.9655775975,
				"z": 0.3284565702,
				"element": "H" 
			},
			{
				"x": 0.179430021,
				"y": 2.1452082966,
				"z": -2.0952610335,
				"element": "H" 
			},
			{
				"x": -3.2388362677,
				"y": 3.4532085037,
				"z": 0.1614394344,
				"element": "H" 
			},
			{
				"x": -3.5835688302,
				"y": 1.1195805151,
				"z": 0.9928670777,
				"element": "H" 
			},
			{
				"x": -2.0235369038,
				"y": -0.6859382352,
				"z": 0.268694442,
				"element": "H" 
			},
			{
				"x": -0.3178154639,
				"y": 5.4707910524,
				"z": -2.5443955175,
				"element": "H" 
			}
		],
		 "valence_orbital": [ 
			{
				"type": "occ",
				"energy": -0.29979,
				"method": "rhf"
			},
			{
				"type": "occ",
				"energy": -0.28742,
				"method": "rhf"
			},
			{
				"type": "occ",
				"energy": -0.28313,
				"method": "rhf"
			},
			{
				"type": "occ",
				"energy": -0.28071,
				"method": "rhf"
			},
			{
				"type": "occ",
				"energy": -0.24931,
				"method": "rhf"
			},
			{
				"type": "unocc",
				"energy": -0.06599,
				"method": "rhf"
			},
			{
				"type": "unocc",
				"energy": -0.0396,
				"method": "rhf"
			},
			{
				"type": "unocc",
				"energy": 0.03244,
				"method": "rhf"
			},
			{
				"type": "unocc",
				"energy": 0.05697,
				"method": "rhf"
			},
			{
				"type": "unocc",
				"energy": 0.07224,
				"method": "rhf"
			}
		],
		"cosmo_sigma_profile": { 
			"-0.025": 0.0,
			"-0.024": 0.0,
			"-0.023": 0.0,
			"-0.022": 0.0,
			"-0.021": 0.0,
			"-0.02": 0.0,
			"-0.019": 0.193833275136,
			"-0.018": 0.926850604416,
			"-0.017": 0.974431175605,
			"-0.016": 0.669126572463,
			"-0.015": 0.670276606954,
			"-0.014": 0.736877333887,
			"-0.013": 1.09592162031,
			"-0.012": 0.796713066548,
			"-0.011": 0.776217545124,
			"-0.01": 0.439174959984,
			"-0.009": 0.514678196267,
			"-0.008": 2.87888967839,
			"-0.007": 7.3223321088,
			"-0.006": 9.42309226789,
			"-0.005": 10.7975844743,
			"-0.004": 22.1589206636,
			"-0.003": 31.0060698079,
			"-0.002": 29.0377070876,
			"-0.001": 29.4567519822,
			"0.0": 33.9259921336,
			"0.001": 24.9790607714,
			"0.002": 12.9278866123,
			"0.003": 6.54778576266,
			"0.004": 6.48346324517,
			"0.005": 7.59672764718,
			"0.006": 5.22673731584,
			"0.007": 4.41316639433,
			"0.008": 5.02510909714,
			"0.009": 5.67629525277,
			"0.01": 8.7885611785,
			"0.011": 12.1923905167,
			"0.012": 4.54295462302,
			"0.013": 0.0,
			"0.014": 0.0,
			"0.015": 0.0,
			"0.016": 0.0,
			"0.017": 0.0,
			"0.018": 0.0,
			"0.019": 0.0,
			"0.02": 0.0,
			"0.021": 0.0,
			"0.022": 0.0,
			"0.023": 0.0,
			"0.024": 0.0,
			"0.025": 0.0
		}
	}
}
