{
	 "smiles": "CC1=NN=C(CO)S1", 
	 "Tm": 357.15, 
	 "num_atms": 14, 
	 "gaussian": { 
		 "optdone": 1, 
		 "sigma_profile": "yes", 
		 "theory": "DFT", 
		 "functional": "B3LYP", 
		 "basiset": "6-31G**", 
		 "properties": { 
			 "R2extent": 1976.6268, 
			 "electric_dipole_moment_norm": 3.81663115064, 
			 "electric_quadrupole_moment_norm": 8.2392164767, 
			 "total_energy": -738.917070114, 
			 "HOMO_LUMO_gap": 0.22389, 
			 "cosmo_polarized_energy": -10.51, 
			 "cosmo_cavitation_energy": 19.61, 
			 "cosmo_dispersion_energy": -15.45, 
			 "cosmo_repulsion_energy": 1.25, 
			 "cosmo_total_nonelectrostatic_energy": 5.41, 
			 "SMD_solvation_energy": 1.62 
		},
		"coords": [
			{
				"x": 1.5593204533,
				"y": 3.1976119777,
				"z": -1.6195342214,
				"element": "C" 
			},
			{
				"x": 0.5646747494,
				"y": 2.3382727315,
				"z": -0.906133244,
				"element": "C" 
			},
			{
				"x": 0.8717341083,
				"y": 1.2358311919,
				"z": -0.2895799013,
				"element": "N" 
			},
			{
				"x": -0.2084547915,
				"y": 0.6239341348,
				"z": 0.2908928608,
				"element": "N" 
			},
			{
				"x": -1.3280171482,
				"y": 1.2607401647,
				"z": 0.1167532034,
				"element": "C" 
			},
			{
				"x": -2.6221850532,
				"y": 0.7086384368,
				"z": 0.6615290722,
				"element": "C" 
			},
			{
				"x": -2.397122282,
				"y": -0.3879157395,
				"z": 1.5106250104,
				"element": "O" 
			},
			{
				"x": -1.1555432626,
				"y": 2.7291624958,
				"z": -0.815366339,
				"element": "S" 
			},
			{
				"x": 1.5997742573,
				"y": 4.2031978452,
				"z": -1.1887864666,
				"element": "H" 
			},
			{
				"x": 2.5426597016,
				"y": 2.7332416013,
				"z": -1.5262929671,
				"element": "H" 
			},
			{
				"x": 1.3127808712,
				"y": 3.2967377832,
				"z": -2.6814743877,
				"element": "H" 
			},
			{
				"x": -3.2663983675,
				"y": 0.4302736373,
				"z": -0.1901451182,
				"element": "H" 
			},
			{
				"x": -3.1546934727,
				"y": 1.4940113779,
				"z": 1.2156981528,
				"element": "H" 
			},
			{
				"x": -1.4827297636,
				"y": -0.6772376386,
				"z": 1.3599143455,
				"element": "H" 
			}
		],
		 "valence_orbital": [ 
			{
				"type": "occ",
				"energy": -0.31386,
				"method": "rhf"
			},
			{
				"type": "occ",
				"energy": -0.30523,
				"method": "rhf"
			},
			{
				"type": "occ",
				"energy": -0.28458,
				"method": "rhf"
			},
			{
				"type": "occ",
				"energy": -0.2758,
				"method": "rhf"
			},
			{
				"type": "occ",
				"energy": -0.2671,
				"method": "rhf"
			},
			{
				"type": "unocc",
				"energy": -0.04321,
				"method": "rhf"
			},
			{
				"type": "unocc",
				"energy": -0.00666,
				"method": "rhf"
			},
			{
				"type": "unocc",
				"energy": 0.02286,
				"method": "rhf"
			},
			{
				"type": "unocc",
				"energy": 0.07386,
				"method": "rhf"
			},
			{
				"type": "unocc",
				"energy": 0.10276,
				"method": "rhf"
			}
		],
		"cosmo_sigma_profile": { 
			"-0.025": 0.0,
			"-0.024": 0.0,
			"-0.023": 0.0,
			"-0.022": 0.0,
			"-0.021": 0.0,
			"-0.02": 0.0,
			"-0.019": 0.0,
			"-0.018": 0.0,
			"-0.017": 0.0,
			"-0.016": 0.0,
			"-0.015": 0.0,
			"-0.014": 0.0,
			"-0.013": 0.0,
			"-0.012": 0.0,
			"-0.011": 0.352145006354,
			"-0.01": 0.563437797672,
			"-0.009": 0.148879024977,
			"-0.008": 1.81953469826,
			"-0.007": 7.65491242329,
			"-0.006": 15.9651266431,
			"-0.005": 11.8020344664,
			"-0.004": 12.7258319889,
			"-0.003": 12.5962791033,
			"-0.002": 16.4801211043,
			"-0.001": 11.570100622,
			"0.0": 10.667247488,
			"0.001": 8.49272145071,
			"0.002": 6.87275001858,
			"0.003": 3.6053522693,
			"0.004": 3.49252617181,
			"0.005": 2.9263159549,
			"0.006": 3.65142119699,
			"0.007": 3.30205493599,
			"0.008": 3.22875341047,
			"0.009": 3.05089653371,
			"0.01": 3.86633135339,
			"0.011": 4.17686136436,
			"0.012": 3.53247336538,
			"0.013": 2.87243846829,
			"0.014": 2.51216524124,
			"0.015": 0.231420299411,
			"0.016": 0.0,
			"0.017": 0.0,
			"0.018": 0.0,
			"0.019": 0.0,
			"0.02": 0.0,
			"0.021": 0.0,
			"0.022": 0.0,
			"0.023": 0.0,
			"0.024": 0.0,
			"0.025": 0.0
		}
	}
}
