{
	 "smiles": "OC1=CC=C(C=C1)C(=O)NC1=NN=CS1", 
	 "Tm": 577.15, 
	 "num_atms": 22, 
	 "gaussian": { 
		 "optdone": 1, 
		 "sigma_profile": "yes", 
		 "theory": "DFT", 
		 "functional": "B3LYP", 
		 "basiset": "6-31G**", 
		 "properties": { 
			 "R2extent": 3826.6615, 
			 "electric_dipole_moment_norm": 5.08181019224, 
			 "electric_quadrupole_moment_norm": 13.5021436891, 
			 "total_energy": -1060.03146245, 
			 "HOMO_LUMO_gap": 0.1836, 
			 "cosmo_polarized_energy": -19.97, 
			 "cosmo_cavitation_energy": 29.09, 
			 "cosmo_dispersion_energy": -21.49, 
			 "cosmo_repulsion_energy": 1.64, 
			 "cosmo_total_nonelectrostatic_energy": 9.23, 
			 "SMD_solvation_energy": 4.43 
		},
		"coords": [
			{
				"x": -4.0807670692,
				"y": -0.8196758092,
				"z": -0.1784693348,
				"element": "O" 
			},
			{
				"x": -2.7262075111,
				"y": -0.9207322428,
				"z": -0.139929795,
				"element": "C" 
			},
			{
				"x": -1.9760963955,
				"y": -0.6076563815,
				"z": 1.0010291848,
				"element": "C" 
			},
			{
				"x": -0.5894715572,
				"y": -0.7198101676,
				"z": 0.9703131006,
				"element": "C" 
			},
			{
				"x": 0.0655745682,
				"y": -1.1533379319,
				"z": -0.1916297616,
				"element": "C" 
			},
			{
				"x": -0.7027607971,
				"y": -1.4979556964,
				"z": -1.3174823362,
				"element": "C" 
			},
			{
				"x": -2.0827022064,
				"y": -1.3683337833,
				"z": -1.3037312716,
				"element": "C" 
			},
			{
				"x": 1.5296805099,
				"y": -1.405612063,
				"z": -0.2391661686,
				"element": "C" 
			},
			{
				"x": 2.0154199445,
				"y": -2.3462081322,
				"z": -0.847663302,
				"element": "O" 
			},
			{
				"x": 2.386035483,
				"y": -0.5719485788,
				"z": 0.4999859282,
				"element": "N" 
			},
			{
				"x": 2.3456807475,
				"y": 0.7848316676,
				"z": 0.7693557527,
				"element": "C" 
			},
			{
				"x": 3.3173541385,
				"y": 1.3434770288,
				"z": 1.445914558,
				"element": "N" 
			},
			{
				"x": 3.1778197701,
				"y": 2.6996254571,
				"z": 1.5554981796,
				"element": "N" 
			},
			{
				"x": 2.1184856184,
				"y": 3.1495275073,
				"z": 0.9607830263,
				"element": "C" 
			},
			{
				"x": 1.1403722046,
				"y": 1.9227196642,
				"z": 0.1776728295,
				"element": "S" 
			},
			{
				"x": -4.407813003,
				"y": -0.5126927896,
				"z": 0.6775936898,
				"element": "H" 
			},
			{
				"x": -2.476774596,
				"y": -0.2844525789,
				"z": 1.9107972617,
				"element": "H" 
			},
			{
				"x": -0.0182839018,
				"y": -0.4935053875,
				"z": 1.8648410628,
				"element": "H" 
			},
			{
				"x": -0.1946953298,
				"y": -1.8710992729,
				"z": -2.2004215196,
				"element": "H" 
			},
			{
				"x": -2.6839254181,
				"y": -1.6163397755,
				"z": -2.1717215097,
				"element": "H" 
			},
			{
				"x": 3.325049351,
				"y": -0.9517048212,
				"z": 0.5712532216,
				"element": "H" 
			},
			{
				"x": 1.8284254494,
				"y": 4.1926840872,
				"z": 0.9568772034,
				"element": "H" 
			}
		],
		 "valence_orbital": [ 
			{
				"type": "occ",
				"energy": -0.28033,
				"method": "rhf"
			},
			{
				"type": "occ",
				"energy": -0.27388,
				"method": "rhf"
			},
			{
				"type": "occ",
				"energy": -0.27003,
				"method": "rhf"
			},
			{
				"type": "occ",
				"energy": -0.24734,
				"method": "rhf"
			},
			{
				"type": "occ",
				"energy": -0.24295,
				"method": "rhf"
			},
			{
				"type": "unocc",
				"energy": -0.05935,
				"method": "rhf"
			},
			{
				"type": "unocc",
				"energy": -0.02809,
				"method": "rhf"
			},
			{
				"type": "unocc",
				"energy": -0.02144,
				"method": "rhf"
			},
			{
				"type": "unocc",
				"energy": 0.00055,
				"method": "rhf"
			},
			{
				"type": "unocc",
				"energy": 0.02318,
				"method": "rhf"
			}
		],
		"cosmo_sigma_profile": { 
			"-0.025": 0.0,
			"-0.024": 0.0,
			"-0.023": 0.0,
			"-0.022": 0.0,
			"-0.021": 0.0,
			"-0.02": 0.0,
			"-0.019": 0.100182484706,
			"-0.018": 1.31137091344,
			"-0.017": 0.933114994438,
			"-0.016": 1.72126599276,
			"-0.015": 1.70946517721,
			"-0.014": 1.46968034571,
			"-0.013": 1.41294219593,
			"-0.012": 1.80279094215,
			"-0.011": 3.58984733408,
			"-0.01": 4.760616798,
			"-0.009": 3.6290219887,
			"-0.008": 4.27830747941,
			"-0.007": 8.16048861617,
			"-0.006": 10.3947214216,
			"-0.005": 12.1593976605,
			"-0.004": 12.0170734402,
			"-0.003": 13.6418569419,
			"-0.002": 13.9221671369,
			"-0.001": 15.2491189137,
			"0.0": 14.7255537554,
			"0.001": 15.9284220996,
			"0.002": 17.1269500496,
			"0.003": 16.1070651494,
			"0.004": 7.00646174299,
			"0.005": 5.21039662328,
			"0.006": 5.19195246582,
			"0.007": 5.55176886619,
			"0.008": 4.15048347364,
			"0.009": 5.43225168148,
			"0.01": 6.2564168308,
			"0.011": 7.55068188624,
			"0.012": 7.38764745823,
			"0.013": 3.52500292033,
			"0.014": 1.92241577401,
			"0.015": 0.365930181601,
			"0.016": 0.0,
			"0.017": 0.0,
			"0.018": 0.0,
			"0.019": 0.0,
			"0.02": 0.0,
			"0.021": 0.0,
			"0.022": 0.0,
			"0.023": 0.0,
			"0.024": 0.0,
			"0.025": 0.0
		}
	}
}
