{
	 "smiles": "NN1CCN(CC1)C(C1=CC=CC=C1)C1=CC=CC=C1", 
	 "Tm": 382.15, 
	 "num_atms": 41, 
	 "gaussian": { 
		 "optdone": 1, 
		 "sigma_profile": "yes", 
		 "theory": "DFT", 
		 "functional": "B3LYP", 
		 "basiset": "6-31G**", 
		 "properties": { 
			 "R2extent": 5941.0484, 
			 "electric_dipole_moment_norm": 2.00877995808, 
			 "electric_quadrupole_moment_norm": 9.01504756893, 
			 "total_energy": -824.661326893, 
			 "HOMO_LUMO_gap": 0.18752, 
			 "cosmo_polarized_energy": -11.05, 
			 "cosmo_cavitation_energy": 41.05, 
			 "cosmo_dispersion_energy": -27.88, 
			 "cosmo_repulsion_energy": 2.15, 
			 "cosmo_total_nonelectrostatic_energy": 15.31, 
			 "SMD_solvation_energy": 4.82 
		},
		"coords": [
			{
				"x": -2.1672566733,
				"y": 1.7944012968,
				"z": -1.7086406411,
				"element": "N" 
			},
			{
				"x": -2.5638435266,
				"y": 2.3928977524,
				"z": -0.4672222182,
				"element": "N" 
			},
			{
				"x": -1.451266112,
				"y": 2.9066800231,
				"z": 0.3316949823,
				"element": "C" 
			},
			{
				"x": -0.4666720758,
				"y": 1.8024651879,
				"z": 0.8196348979,
				"element": "C" 
			},
			{
				"x": -1.1092411881,
				"y": 0.4820705541,
				"z": 0.7207389443,
				"element": "N" 
			},
			{
				"x": -2.4690482429,
				"y": 0.5735168659,
				"z": 1.2731472198,
				"element": "C" 
			},
			{
				"x": -3.3457402546,
				"y": 1.4420397042,
				"z": 0.3336323589,
				"element": "C" 
			},
			{
				"x": -0.312467784,
				"y": -0.5960237372,
				"z": 1.3302394179,
				"element": "C" 
			},
			{
				"x": 1.136373272,
				"y": -0.5782901264,
				"z": 0.8344416,
				"element": "C" 
			},
			{
				"x": 2.1892750779,
				"y": -0.4210416704,
				"z": 1.7418387204,
				"element": "C" 
			},
			{
				"x": 3.5175809222,
				"y": -0.4248186355,
				"z": 1.308079356,
				"element": "C" 
			},
			{
				"x": 3.809151913,
				"y": -0.5805922271,
				"z": -0.0463855747,
				"element": "C" 
			},
			{
				"x": 2.7646073662,
				"y": -0.7370478691,
				"z": -0.9622135098,
				"element": "C" 
			},
			{
				"x": 1.4412783028,
				"y": -0.7412987301,
				"z": -0.5248098552,
				"element": "C" 
			},
			{
				"x": -0.9287399362,
				"y": -1.9733960984,
				"z": 1.0723710418,
				"element": "C" 
			},
			{
				"x": -1.6122794584,
				"y": -2.2686126533,
				"z": -0.1152704301,
				"element": "C" 
			},
			{
				"x": -2.1111396735,
				"y": -3.5516121843,
				"z": -0.3464202397,
				"element": "C" 
			},
			{
				"x": -1.9324337826,
				"y": -4.5597549356,
				"z": 0.6026388972,
				"element": "C" 
			},
			{
				"x": -1.2563560333,
				"y": -4.273507612,
				"z": 1.7900472865,
				"element": "C" 
			},
			{
				"x": -0.7624230515,
				"y": -2.9893593409,
				"z": 2.0214839,
				"element": "C" 
			},
			{
				"x": -1.9555496743,
				"y": 2.5536241559,
				"z": -2.3517695073,
				"element": "H" 
			},
			{
				"x": -1.3250178236,
				"y": 1.2296167077,
				"z": -1.5802319324,
				"element": "H" 
			},
			{
				"x": -1.8898622901,
				"y": 3.4226603508,
				"z": 1.1945818085,
				"element": "H" 
			},
			{
				"x": -0.9137795601,
				"y": 3.6642359449,
				"z": -0.2484694682,
				"element": "H" 
			},
			{
				"x": 0.4434955173,
				"y": 1.7944530688,
				"z": 0.2162594624,
				"element": "H" 
			},
			{
				"x": -0.1575339484,
				"y": 2.026101738,
				"z": 1.8594909389,
				"element": "H" 
			},
			{
				"x": -2.4428209118,
				"y": 1.0008578245,
				"z": 2.2950373811,
				"element": "H" 
			},
			{
				"x": -2.8942337496,
				"y": -0.4275264607,
				"z": 1.3629104385,
				"element": "H" 
			},
			{
				"x": -4.0780418203,
				"y": 1.9997928233,
				"z": 0.9331634684,
				"element": "H" 
			},
			{
				"x": -3.8926727218,
				"y": 0.8176024849,
				"z": -0.3743348424,
				"element": "H" 
			},
			{
				"x": -0.2695804218,
				"y": -0.4563251901,
				"z": 2.4281733804,
				"element": "H" 
			},
			{
				"x": 1.9683596297,
				"y": -0.2916294753,
				"z": 2.7985547015,
				"element": "H" 
			},
			{
				"x": 4.320898478,
				"y": -0.3026727028,
				"z": 2.0292953473,
				"element": "H" 
			},
			{
				"x": 4.8403249718,
				"y": -0.5827552005,
				"z": -0.3878516891,
				"element": "H" 
			},
			{
				"x": 2.9829566578,
				"y": -0.8629376924,
				"z": -2.0191322364,
				"element": "H" 
			},
			{
				"x": 0.6361717113,
				"y": -0.8783821058,
				"z": -1.2399907708,
				"element": "H" 
			},
			{
				"x": -1.7696402014,
				"y": -1.480767086,
				"z": -0.8453628314,
				"element": "H" 
			},
			{
				"x": -2.643935062,
				"y": -3.7618163232,
				"z": -1.2698031331,
				"element": "H" 
			},
			{
				"x": -2.3216080088,
				"y": -5.5575992909,
				"z": 0.4214774824,
				"element": "H" 
			},
			{
				"x": -1.1174021061,
				"y": -5.0480873693,
				"z": 2.5391710399,
				"element": "H" 
			},
			{
				"x": -0.2373877269,
				"y": -2.7730617658,
				"z": 2.9490048076,
				"element": "H" 
			}
		],
		 "valence_orbital": [ 
			{
				"type": "occ",
				"energy": -0.24597,
				"method": "rhf"
			},
			{
				"type": "occ",
				"energy": -0.23898,
				"method": "rhf"
			},
			{
				"type": "occ",
				"energy": -0.23268,
				"method": "rhf"
			},
			{
				"type": "occ",
				"energy": -0.2251,
				"method": "rhf"
			},
			{
				"type": "occ",
				"energy": -0.20115,
				"method": "rhf"
			},
			{
				"type": "unocc",
				"energy": -0.01363,
				"method": "rhf"
			},
			{
				"type": "unocc",
				"energy": -0.00642,
				"method": "rhf"
			},
			{
				"type": "unocc",
				"energy": 0.0041,
				"method": "rhf"
			},
			{
				"type": "unocc",
				"energy": 0.01282,
				"method": "rhf"
			},
			{
				"type": "unocc",
				"energy": 0.0731,
				"method": "rhf"
			}
		],
		"cosmo_sigma_profile": { 
			"-0.025": 0.0,
			"-0.024": 0.0,
			"-0.023": 0.0,
			"-0.022": 0.0,
			"-0.021": 0.0,
			"-0.02": 0.0,
			"-0.019": 0.0,
			"-0.018": 0.0,
			"-0.017": 0.0,
			"-0.016": 0.0,
			"-0.015": 0.0,
			"-0.014": 0.0,
			"-0.013": 0.0,
			"-0.012": 0.0,
			"-0.011": 0.0,
			"-0.01": 0.54824172257,
			"-0.009": 1.62731508829,
			"-0.008": 0.91659974713,
			"-0.007": 1.50701864933,
			"-0.006": 6.90179840991,
			"-0.005": 21.1159926075,
			"-0.004": 30.2188583621,
			"-0.003": 42.0941051282,
			"-0.002": 42.8220738048,
			"-0.001": 31.2516535145,
			"0.0": 23.3481537519,
			"0.001": 18.2767565122,
			"0.002": 17.5319427509,
			"0.003": 16.0413820291,
			"0.004": 17.295540891,
			"0.005": 19.1170478213,
			"0.006": 16.3202039993,
			"0.007": 2.49771820065,
			"0.008": 1.27236996776,
			"0.009": 0.966054791262,
			"0.01": 1.67139144049,
			"0.011": 1.79914616266,
			"0.012": 1.51432346202,
			"0.013": 1.27113538879,
			"0.014": 1.24758233061,
			"0.015": 1.28010009344,
			"0.016": 0.953160042905,
			"0.017": 0.606236144402,
			"0.018": 0.494641230431,
			"0.019": 0.0848777872971,
			"0.02": 0.0,
			"0.021": 0.0,
			"0.022": 0.0,
			"0.023": 0.0,
			"0.024": 0.0,
			"0.025": 0.0
		}
	}
}
