{
	 "smiles": "CC1=C[C@H]2O[C@@H]3[C@H](O)C[C@@](C)(C33CO3)[C@@]2(CO)[C@H](O)C1=O", 
	 "Tm": 425.15, 
	 "num_atms": 41, 
	 "gaussian": { 
		 "optdone": 1, 
		 "sigma_profile": "yes", 
		 "theory": "DFT", 
		 "functional": "B3LYP", 
		 "basiset": "6-31G**", 
		 "properties": { 
			 "R2extent": 5205.172, 
			 "electric_dipole_moment_norm": 2.79102352014, 
			 "electric_quadrupole_moment_norm": 16.9445672022, 
			 "total_energy": -1034.87874428, 
			 "HOMO_LUMO_gap": 0.18275, 
			 "cosmo_polarized_energy": -19.23, 
			 "cosmo_cavitation_energy": 37.38, 
			 "cosmo_dispersion_energy": -26.62, 
			 "cosmo_repulsion_energy": 1.96, 
			 "cosmo_total_nonelectrostatic_energy": 12.71, 
			 "SMD_solvation_energy": 6.45 
		},
		"coords": [
			{
				"x": -3.821503694,
				"y": -2.2337704741,
				"z": -0.7227375245,
				"element": "C" 
			},
			{
				"x": -2.5801572004,
				"y": -1.5049357956,
				"z": -0.2877253631,
				"element": "C" 
			},
			{
				"x": -1.7621443327,
				"y": -1.9220414939,
				"z": 0.6938650006,
				"element": "C" 
			},
			{
				"x": -0.5089938324,
				"y": -1.229009579,
				"z": 1.1746980434,
				"element": "C" 
			},
			{
				"x": 0.4673461222,
				"y": -2.2266210162,
				"z": 1.5292982325,
				"element": "O" 
			},
			{
				"x": 1.265863909,
				"y": -2.7499479254,
				"z": 0.447019045,
				"element": "C" 
			},
			{
				"x": 2.6569609702,
				"y": -2.0483506919,
				"z": 0.5127673034,
				"element": "C" 
			},
			{
				"x": 3.009374115,
				"y": -1.7025168867,
				"z": 1.8403371324,
				"element": "O" 
			},
			{
				"x": 2.5032705662,
				"y": -0.8383186349,
				"z": -0.4548381231,
				"element": "C" 
			},
			{
				"x": 1.0014889658,
				"y": -0.7797858252,
				"z": -0.8968559537,
				"element": "C" 
			},
			{
				"x": 0.8845643405,
				"y": -0.1273256359,
				"z": -2.2807885471,
				"element": "C" 
			},
			{
				"x": 0.7491538664,
				"y": -2.2978937243,
				"z": -0.9047810038,
				"element": "C" 
			},
			{
				"x": -0.1247491087,
				"y": -3.0774884454,
				"z": -1.7806633563,
				"element": "C" 
			},
			{
				"x": 1.2929712375,
				"y": -3.0455581652,
				"z": -2.0075614217,
				"element": "O" 
			},
			{
				"x": 0.0540116199,
				"y": -0.1243038945,
				"z": 0.226761251,
				"element": "C" 
			},
			{
				"x": 0.8237005811,
				"y": 0.8935451446,
				"z": 1.0953074526,
				"element": "C" 
			},
			{
				"x": 1.3367724714,
				"y": 1.9146755485,
				"z": 0.2422756391,
				"element": "O" 
			},
			{
				"x": -1.1613045726,
				"y": 0.6243832749,
				"z": -0.3812453432,
				"element": "C" 
			},
			{
				"x": -1.8532902563,
				"y": 1.2777109454,
				"z": 0.6985157066,
				"element": "O" 
			},
			{
				"x": -2.215594207,
				"y": -0.2752579386,
				"z": -1.0303964444,
				"element": "C" 
			},
			{
				"x": -2.7954236277,
				"y": 0.0687802258,
				"z": -2.0532115014,
				"element": "O" 
			},
			{
				"x": -4.7089723114,
				"y": -1.6063364611,
				"z": -0.5839193357,
				"element": "H" 
			},
			{
				"x": -3.9583071015,
				"y": -3.1598501289,
				"z": -0.1587360703,
				"element": "H" 
			},
			{
				"x": -3.7774196334,
				"y": -2.4682877316,
				"z": -1.7911016063,
				"element": "H" 
			},
			{
				"x": -1.9884302674,
				"y": -2.8368672448,
				"z": 1.240307365,
				"element": "H" 
			},
			{
				"x": -0.7596185341,
				"y": -0.7611126074,
				"z": 2.1353840026,
				"element": "H" 
			},
			{
				"x": 1.3103366331,
				"y": -3.8355366537,
				"z": 0.5653552437,
				"element": "H" 
			},
			{
				"x": 3.4262752419,
				"y": -2.7315155877,
				"z": 0.1381899126,
				"element": "H" 
			},
			{
				"x": 2.1734567545,
				"y": -1.7133204387,
				"z": 2.3354716117,
				"element": "H" 
			},
			{
				"x": 2.8757765249,
				"y": 0.0883421394,
				"z": -0.0232810763,
				"element": "H" 
			},
			{
				"x": 3.0884679205,
				"y": -1.0311028329,
				"z": -1.3592056906,
				"element": "H" 
			},
			{
				"x": 1.5006530357,
				"y": -0.6884636629,
				"z": -2.987939492,
				"element": "H" 
			},
			{
				"x": -0.1356115359,
				"y": -0.1130874802,
				"z": -2.67320202,
				"element": "H" 
			},
			{
				"x": 1.2483415399,
				"y": 0.9022380318,
				"z": -2.2417616069,
				"element": "H" 
			},
			{
				"x": -0.7268375104,
				"y": -2.5668484275,
				"z": -2.5313596001,
				"element": "H" 
			},
			{
				"x": -0.5240476295,
				"y": -4.0323971558,
				"z": -1.4382601166,
				"element": "H" 
			},
			{
				"x": 0.1282259973,
				"y": 1.3176826312,
				"z": 1.8277972386,
				"element": "H" 
			},
			{
				"x": 1.6296309841,
				"y": 0.3820947845,
				"z": 1.6350125973,
				"element": "H" 
			},
			{
				"x": 1.775083081,
				"y": 2.5737661592,
				"z": 0.7940216018,
				"element": "H" 
			},
			{
				"x": -0.8223909399,
				"y": 1.3620891637,
				"z": -1.1108133779,
				"element": "H" 
			},
			{
				"x": -2.4946301829,
				"y": 1.8821444912,
				"z": 0.3021001953,
				"element": "H" 
			}
		],
		 "valence_orbital": [ 
			{
				"type": "occ",
				"energy": -0.27428,
				"method": "rhf"
			},
			{
				"type": "occ",
				"energy": -0.26727,
				"method": "rhf"
			},
			{
				"type": "occ",
				"energy": -0.26436,
				"method": "rhf"
			},
			{
				"type": "occ",
				"energy": -0.25211,
				"method": "rhf"
			},
			{
				"type": "occ",
				"energy": -0.2454,
				"method": "rhf"
			},
			{
				"type": "unocc",
				"energy": -0.06265,
				"method": "rhf"
			},
			{
				"type": "unocc",
				"energy": 0.03117,
				"method": "rhf"
			},
			{
				"type": "unocc",
				"energy": 0.06228,
				"method": "rhf"
			},
			{
				"type": "unocc",
				"energy": 0.06806,
				"method": "rhf"
			},
			{
				"type": "unocc",
				"energy": 0.08204,
				"method": "rhf"
			}
		],
		"cosmo_sigma_profile": { 
			"-0.025": 0.0,
			"-0.024": 0.0,
			"-0.023": 0.0,
			"-0.022": 0.0,
			"-0.021": 0.0,
			"-0.02": 0.0,
			"-0.019": 0.0,
			"-0.018": 0.0,
			"-0.017": 0.46263006439,
			"-0.016": 1.59818998903,
			"-0.015": 2.40308205859,
			"-0.014": 1.56877111959,
			"-0.013": 1.40679866934,
			"-0.012": 1.53169858692,
			"-0.011": 1.59627883222,
			"-0.01": 1.45704112624,
			"-0.009": 2.88786772144,
			"-0.008": 2.89488189897,
			"-0.007": 6.50328891495,
			"-0.006": 12.9138807353,
			"-0.005": 17.6308810837,
			"-0.004": 24.3716839722,
			"-0.003": 26.2785825463,
			"-0.002": 26.3080355111,
			"-0.001": 25.1606721566,
			"0.0": 23.3324556564,
			"0.001": 17.2162859693,
			"0.002": 9.42847849206,
			"0.003": 8.80254933458,
			"0.004": 8.39470586477,
			"0.005": 5.52343398308,
			"0.006": 8.65206011384,
			"0.007": 7.44557912624,
			"0.008": 9.23299967673,
			"0.009": 8.57999808706,
			"0.01": 7.32564552184,
			"0.011": 6.94010264814,
			"0.012": 6.0744871585,
			"0.013": 2.75842758103,
			"0.014": 2.0746209677,
			"0.015": 0.750208807896,
			"0.016": 0.0,
			"0.017": 0.0,
			"0.018": 0.0,
			"0.019": 0.0,
			"0.02": 0.0,
			"0.021": 0.0,
			"0.022": 0.0,
			"0.023": 0.0,
			"0.024": 0.0,
			"0.025": 0.0
		}
	}
}
