{
	 "smiles": "ClC1=CC(=CC(Cl)=C1)S(=O)(=O)OC1=CC=C(CC#N)C=C1", 
	 "Tm": 355.15, 
	 "num_atms": 30, 
	 "gaussian": { 
		 "optdone": 1, 
		 "sigma_profile": "yes", 
		 "theory": "DFT", 
		 "functional": "B3LYP", 
		 "basiset": "6-31G**", 
		 "properties": { 
			 "R2extent": 9086.0821, 
			 "electric_dipole_moment_norm": 1.2984516356, 
			 "electric_quadrupole_moment_norm": 39.1596811992, 
			 "total_energy": -2137.81251949, 
			 "HOMO_LUMO_gap": 0.19142, 
			 "cosmo_polarized_energy": -17.51, 
			 "cosmo_cavitation_energy": 41.95, 
			 "cosmo_dispersion_energy": -28.73, 
			 "cosmo_repulsion_energy": 2.2, 
			 "cosmo_total_nonelectrostatic_energy": 15.42, 
			 "SMD_solvation_energy": 6.77 
		},
		"coords": [
			{
				"x": 1.4581001377,
				"y": 4.9150361318,
				"z": -1.6277613991,
				"element": "Cl" 
			},
			{
				"x": 1.469892341,
				"y": 3.2255660557,
				"z": -1.1754655347,
				"element": "C" 
			},
			{
				"x": 0.6077413223,
				"y": 2.3390714735,
				"z": -1.8175750899,
				"element": "C" 
			},
			{
				"x": 0.6502389443,
				"y": 0.9990182455,
				"z": -1.4307178551,
				"element": "C" 
			},
			{
				"x": 1.515525809,
				"y": 0.5250695608,
				"z": -0.4456273462,
				"element": "C" 
			},
			{
				"x": 2.3620309938,
				"y": 1.4463317016,
				"z": 0.1711783765,
				"element": "C" 
			},
			{
				"x": 3.4684701191,
				"y": 0.8986009402,
				"z": 1.4097612068,
				"element": "Cl" 
			},
			{
				"x": 2.350256688,
				"y": 2.7965048344,
				"z": -0.179771971,
				"element": "C" 
			},
			{
				"x": -0.4619219796,
				"y": -0.155649503,
				"z": -2.2322257881,
				"element": "S" 
			},
			{
				"x": -0.7971150295,
				"y": 0.3458080513,
				"z": -3.5537321929,
				"element": "O" 
			},
			{
				"x": 0.03431575,
				"y": -1.5080168862,
				"z": -2.0045993974,
				"element": "O" 
			},
			{
				"x": -1.8717367587,
				"y": 0.060808503,
				"z": -1.370853041,
				"element": "O" 
			},
			{
				"x": -2.0066714053,
				"y": -0.508329828,
				"z": -0.0983717197,
				"element": "C" 
			},
			{
				"x": -2.1739879527,
				"y": -1.8856064284,
				"z": 0.0517605093,
				"element": "C" 
			},
			{
				"x": -2.3782554923,
				"y": -2.4009681738,
				"z": 1.3287662177,
				"element": "C" 
			},
			{
				"x": -2.4287973732,
				"y": -1.5591424325,
				"z": 2.4482161826,
				"element": "C" 
			},
			{
				"x": -2.6887923407,
				"y": -2.1835058855,
				"z": 3.8155556625,
				"element": "C" 
			},
			{
				"x": -2.4921009228,
				"y": -1.2755482036,
				"z": 4.9476938517,
				"element": "C" 
			},
			{
				"x": -2.3397991216,
				"y": -0.549291642,
				"z": 5.8397598692,
				"element": "N" 
			},
			{
				"x": -2.2661338833,
				"y": -0.1824516788,
				"z": 2.2720203292,
				"element": "C" 
			},
			{
				"x": -2.0501663175,
				"y": 0.3473254983,
				"z": 0.9988840664,
				"element": "C" 
			},
			{
				"x": -0.0622897145,
				"y": 2.6707653027,
				"z": -2.6013304114,
				"element": "H" 
			},
			{
				"x": 1.5380180374,
				"y": -0.5254436762,
				"z": -0.184509669,
				"element": "H" 
			},
			{
				"x": 3.0158678588,
				"y": 3.4986465808,
				"z": 0.3070729692,
				"element": "H" 
			},
			{
				"x": -2.1350973919,
				"y": -2.5318986533,
				"z": -0.8164731084,
				"element": "H" 
			},
			{
				"x": -2.5051363357,
				"y": -3.4734378027,
				"z": 1.4524328663,
				"element": "H" 
			},
			{
				"x": -3.7182027121,
				"y": -2.5627350033,
				"z": 3.8658010832,
				"element": "H" 
			},
			{
				"x": -2.0362603747,
				"y": -3.0529815192,
				"z": 3.961003996,
				"element": "H" 
			},
			{
				"x": -2.3015034021,
				"y": 0.4822842864,
				"z": 3.1293754766,
				"element": "H" 
			},
			{
				"x": -1.9284894932,
				"y": 1.4147701508,
				"z": 0.8503318609,
				"element": "H" 
			}
		],
		 "valence_orbital": [ 
			{
				"type": "occ",
				"energy": -0.32674,
				"method": "rhf"
			},
			{
				"type": "occ",
				"energy": -0.29281,
				"method": "rhf"
			},
			{
				"type": "occ",
				"energy": -0.27983,
				"method": "rhf"
			},
			{
				"type": "occ",
				"energy": -0.27734,
				"method": "rhf"
			},
			{
				"type": "occ",
				"energy": -0.26513,
				"method": "rhf"
			},
			{
				"type": "unocc",
				"energy": -0.07371,
				"method": "rhf"
			},
			{
				"type": "unocc",
				"energy": -0.05283,
				"method": "rhf"
			},
			{
				"type": "unocc",
				"energy": -0.03502,
				"method": "rhf"
			},
			{
				"type": "unocc",
				"energy": -0.03095,
				"method": "rhf"
			},
			{
				"type": "unocc",
				"energy": -0.01626,
				"method": "rhf"
			}
		],
		"cosmo_sigma_profile": { 
			"-0.025": 0.0,
			"-0.024": 0.0,
			"-0.023": 0.0,
			"-0.022": 0.0,
			"-0.021": 0.0,
			"-0.02": 0.0,
			"-0.019": 0.0,
			"-0.018": 0.0,
			"-0.017": 0.0,
			"-0.016": 0.0,
			"-0.015": 0.0,
			"-0.014": 0.0,
			"-0.013": 0.0,
			"-0.012": 0.0,
			"-0.011": 0.0,
			"-0.01": 0.925821147819,
			"-0.009": 8.63546110461,
			"-0.008": 11.5079613147,
			"-0.007": 15.0745596414,
			"-0.006": 16.3038457974,
			"-0.005": 17.1454115339,
			"-0.004": 15.6154706997,
			"-0.003": 21.8683837148,
			"-0.002": 27.4349458915,
			"-0.001": 36.3571619181,
			"0.0": 22.6732006188,
			"0.001": 22.2299242044,
			"0.002": 23.7016727193,
			"0.003": 34.3925026784,
			"0.004": 14.4553498079,
			"0.005": 6.4652793154,
			"0.006": 5.45864889983,
			"0.007": 7.95049690193,
			"0.008": 10.6512374203,
			"0.009": 11.7838955702,
			"0.01": 6.07056266876,
			"0.011": 2.89137110727,
			"0.012": 2.34273709909,
			"0.013": 1.53803015177,
			"0.014": 0.0798794786112,
			"0.015": 0.0,
			"0.016": 0.0,
			"0.017": 0.0,
			"0.018": 0.0,
			"0.019": 0.0,
			"0.02": 0.0,
			"0.021": 0.0,
			"0.022": 0.0,
			"0.023": 0.0,
			"0.024": 0.0,
			"0.025": 0.0
		}
	}
}
