{
	 "smiles": "OC(=O)C1=CC(NS(=O)(=O)C2=CC=CS2)=CC=C1", 
	 "Tm": 471.15, 
	 "num_atms": 27, 
	 "gaussian": { 
		 "optdone": 1, 
		 "sigma_profile": "yes", 
		 "theory": "DFT", 
		 "functional": "B3LYP", 
		 "basiset": "6-31G**", 
		 "properties": { 
			 "R2extent": 6830.2711, 
			 "electric_dipole_moment_norm": 3.07806622898, 
			 "electric_quadrupole_moment_norm": 31.32633104, 
			 "total_energy": -1576.53146788, 
			 "HOMO_LUMO_gap": 0.18688, 
			 "cosmo_polarized_energy": -23.98, 
			 "cosmo_cavitation_energy": 35.33, 
			 "cosmo_dispersion_energy": -25.58, 
			 "cosmo_repulsion_energy": 1.9, 
			 "cosmo_total_nonelectrostatic_energy": 11.65, 
			 "SMD_solvation_energy": 6.4 
		},
		"coords": [
			{
				"x": 1.655832959,
				"y": 0.5395749712,
				"z": -4.1920257094,
				"element": "O" 
			},
			{
				"x": 1.9465900975,
				"y": 0.7062056662,
				"z": -2.8754874924,
				"element": "C" 
			},
			{
				"x": 2.5708853913,
				"y": 1.6752013742,
				"z": -2.5115259634,
				"element": "O" 
			},
			{
				"x": 1.4593357891,
				"y": -0.3579045986,
				"z": -1.9357866742,
				"element": "C" 
			},
			{
				"x": 2.0688112135,
				"y": -0.422280982,
				"z": -0.6786149963,
				"element": "C" 
			},
			{
				"x": 1.678642864,
				"y": -1.3900291164,
				"z": 0.250621838,
				"element": "C" 
			},
			{
				"x": 2.3738149224,
				"y": -1.4834448608,
				"z": 1.4838643052,
				"element": "N" 
			},
			{
				"x": 1.6158147206,
				"y": -1.5297826225,
				"z": 3.0048467488,
				"element": "S" 
			},
			{
				"x": 2.7310974056,
				"y": -1.5278999686,
				"z": 3.9469299406,
				"element": "O" 
			},
			{
				"x": 0.613055318,
				"y": -2.5903094403,
				"z": 2.9490670023,
				"element": "O" 
			},
			{
				"x": 0.7565341522,
				"y": 0.0047140878,
				"z": 3.2032336966,
				"element": "C" 
			},
			{
				"x": 1.2652296997,
				"y": 1.1261601309,
				"z": 3.8126663769,
				"element": "C" 
			},
			{
				"x": 0.3432096561,
				"y": 2.2089879719,
				"z": 3.7959012851,
				"element": "C" 
			},
			{
				"x": -0.8376007105,
				"y": 1.8859030139,
				"z": 3.1779944516,
				"element": "C" 
			},
			{
				"x": -0.8604879183,
				"y": 0.2536552056,
				"z": 2.6092775575,
				"element": "S" 
			},
			{
				"x": 0.6488281135,
				"y": -2.2895209755,
				"z": -0.0725465799,
				"element": "C" 
			},
			{
				"x": 0.0117139477,
				"y": -2.1888585837,
				"z": -1.3070083433,
				"element": "C" 
			},
			{
				"x": 0.4121834841,
				"y": -1.2359268542,
				"z": -2.244333528,
				"element": "C" 
			},
			{
				"x": 1.3022945828,
				"y": -0.3472374362,
				"z": -4.3473415127,
				"element": "H" 
			},
			{
				"x": 2.8503120143,
				"y": 0.2956707273,
				"z": -0.4491950995,
				"element": "H" 
			},
			{
				"x": 3.2140970941,
				"y": -0.9166812131,
				"z": 1.5446311748,
				"element": "H" 
			},
			{
				"x": 2.2495792141,
				"y": 1.153248228,
				"z": 4.2638161687,
				"element": "H" 
			},
			{
				"x": 0.5445953832,
				"y": 3.1810910976,
				"z": 4.2300598581,
				"element": "H" 
			},
			{
				"x": -1.7066334934,
				"y": 2.5133690088,
				"z": 3.0319035287,
				"element": "H" 
			},
			{
				"x": 0.3590213736,
				"y": -3.048188241,
				"z": 0.6436654915,
				"element": "H" 
			},
			{
				"x": -0.7988939596,
				"y": -2.8711157321,
				"z": -1.5435555701,
				"element": "H" 
			},
			{
				"x": -0.1216633146,
				"y": -1.1638008586,
				"z": -3.1883579549,
				"element": "H" 
			}
		],
		 "valence_orbital": [ 
			{
				"type": "occ",
				"energy": -0.28484,
				"method": "rhf"
			},
			{
				"type": "occ",
				"energy": -0.27977,
				"method": "rhf"
			},
			{
				"type": "occ",
				"energy": -0.27302,
				"method": "rhf"
			},
			{
				"type": "occ",
				"energy": -0.26984,
				"method": "rhf"
			},
			{
				"type": "occ",
				"energy": -0.24798,
				"method": "rhf"
			},
			{
				"type": "unocc",
				"energy": -0.0611,
				"method": "rhf"
			},
			{
				"type": "unocc",
				"energy": -0.05639,
				"method": "rhf"
			},
			{
				"type": "unocc",
				"energy": -0.02849,
				"method": "rhf"
			},
			{
				"type": "unocc",
				"energy": 0.00626,
				"method": "rhf"
			},
			{
				"type": "unocc",
				"energy": 0.02656,
				"method": "rhf"
			}
		],
		"cosmo_sigma_profile": { 
			"-0.025": 0.0,
			"-0.024": 0.0,
			"-0.023": 0.0,
			"-0.022": 0.0,
			"-0.021": 0.0,
			"-0.02": 0.0,
			"-0.019": 0.30185319515,
			"-0.018": 1.01782487361,
			"-0.017": 1.05602009971,
			"-0.016": 2.07130382177,
			"-0.015": 1.70423296845,
			"-0.014": 2.08819076644,
			"-0.013": 2.4513375952,
			"-0.012": 2.68780183684,
			"-0.011": 2.3872448584,
			"-0.01": 3.96007201013,
			"-0.009": 5.51876047571,
			"-0.008": 7.69700958046,
			"-0.007": 10.3346652274,
			"-0.006": 14.607252439,
			"-0.005": 13.4854525109,
			"-0.004": 11.9812330151,
			"-0.003": 12.0838443624,
			"-0.002": 11.2224950041,
			"-0.001": 14.2664392694,
			"0.0": 20.0440944892,
			"0.001": 25.3182918429,
			"0.002": 31.4576170289,
			"0.003": 19.2472121019,
			"0.004": 8.04058228634,
			"0.005": 5.49546709523,
			"0.006": 6.05724727661,
			"0.007": 7.11577998493,
			"0.008": 5.83698480054,
			"0.009": 9.36225817915,
			"0.01": 13.2674601506,
			"0.011": 8.84169033295,
			"0.012": 3.97061323244,
			"0.013": 1.32198046917,
			"0.014": 0.0122088938631,
			"0.015": 0.0,
			"0.016": 0.0,
			"0.017": 0.0,
			"0.018": 0.0,
			"0.019": 0.0,
			"0.02": 0.0,
			"0.021": 0.0,
			"0.022": 0.0,
			"0.023": 0.0,
			"0.024": 0.0,
			"0.025": 0.0
		}
	}
}
