{
	 "smiles": "CC(=CC(=O)C1=CC=C(F)C=C1)C1=CC=C(F)C=C1", 
	 "Tm": 324.15, 
	 "num_atms": 31, 
	 "gaussian": { 
		 "optdone": 1, 
		 "sigma_profile": "yes", 
		 "theory": "DFT", 
		 "functional": "B3LYP", 
		 "basiset": "6-31G**", 
		 "properties": { 
			 "R2extent": 8779.8506, 
			 "electric_dipole_moment_norm": 1.63299608389, 
			 "electric_quadrupole_moment_norm": 9.35650947523, 
			 "total_energy": -891.820229411, 
			 "HOMO_LUMO_gap": 0.16016, 
			 "cosmo_polarized_energy": -9.84, 
			 "cosmo_cavitation_energy": 36.69, 
			 "cosmo_dispersion_energy": -25.99, 
			 "cosmo_repulsion_energy": 1.91, 
			 "cosmo_total_nonelectrostatic_energy": 12.61, 
			 "SMD_solvation_energy": 7.63 
		},
		"coords": [
			{
				"x": 1.8628290979,
				"y": -0.2022911983,
				"z": 0.1068031339,
				"element": "C" 
			},
			{
				"x": 0.4509615978,
				"y": -0.2548001954,
				"z": -0.4251813189,
				"element": "C" 
			},
			{
				"x": -0.6504663986,
				"y": -0.0319713313,
				"z": 0.3387130008,
				"element": "C" 
			},
			{
				"x": -0.6668769228,
				"y": 0.2798050229,
				"z": 1.7827144965,
				"element": "C" 
			},
			{
				"x": 0.3429713835,
				"y": 0.6092742317,
				"z": 2.408289452,
				"element": "O" 
			},
			{
				"x": -1.9845457243,
				"y": 0.2165767356,
				"z": 2.5060965868,
				"element": "C" 
			},
			{
				"x": -2.0457549139,
				"y": 0.7889684692,
				"z": 3.7884080203,
				"element": "C" 
			},
			{
				"x": -3.2195921115,
				"y": 0.7638494413,
				"z": 4.531883969,
				"element": "C" 
			},
			{
				"x": -4.3405199764,
				"y": 0.1447986451,
				"z": 3.9842540866,
				"element": "C" 
			},
			{
				"x": -5.4824539363,
				"y": 0.1136086855,
				"z": 4.6972309088,
				"element": "F" 
			},
			{
				"x": -4.3170315924,
				"y": -0.4457391428,
				"z": 2.7256708035,
				"element": "C" 
			},
			{
				"x": -3.1340184485,
				"y": -0.4032721685,
				"z": 1.9899510198,
				"element": "C" 
			},
			{
				"x": 0.2894316417,
				"y": -0.551701916,
				"z": -1.8719730493,
				"element": "C" 
			},
			{
				"x": 1.2578848728,
				"y": -0.1259048475,
				"z": -2.8011016734,
				"element": "C" 
			},
			{
				"x": 1.1129318997,
				"y": -0.3678690985,
				"z": -4.1649331778,
				"element": "C" 
			},
			{
				"x": -0.0064418499,
				"y": -1.0647031248,
				"z": -4.6052750516,
				"element": "C" 
			},
			{
				"x": -0.149521667,
				"y": -1.3125523018,
				"z": -5.921860433,
				"element": "F" 
			},
			{
				"x": -0.9769625565,
				"y": -1.5238283296,
				"z": -3.7211566296,
				"element": "C" 
			},
			{
				"x": -0.8216084856,
				"y": -1.2639550705,
				"z": -2.3625728556,
				"element": "C" 
			},
			{
				"x": 2.2803727219,
				"y": 0.8053615558,
				"z": -0.0182951979,
				"element": "H" 
			},
			{
				"x": 1.8904060473,
				"y": -0.4074266198,
				"z": 1.1752982283,
				"element": "H" 
			},
			{
				"x": 2.5078651964,
				"y": -0.8997252161,
				"z": -0.4345392513,
				"element": "H" 
			},
			{
				"x": -1.6147619001,
				"y": -0.0456712756,
				"z": -0.1572959928,
				"element": "H" 
			},
			{
				"x": -1.1473517675,
				"y": 1.2512267084,
				"z": 4.1824045712,
				"element": "H" 
			},
			{
				"x": -3.2825851904,
				"y": 1.20912295,
				"z": 5.5189423459,
				"element": "H" 
			},
			{
				"x": -5.2101397854,
				"y": -0.9276543722,
				"z": 2.3432846836,
				"element": "H" 
			},
			{
				"x": -3.1129057919,
				"y": -0.8810061106,
				"z": 1.0167442194,
				"element": "H" 
			},
			{
				"x": 2.1282076398,
				"y": 0.4231879501,
				"z": -2.4579853404,
				"element": "H" 
			},
			{
				"x": 1.8496747347,
				"y": -0.0266633269,
				"z": -4.8840114491,
				"element": "H" 
			},
			{
				"x": -1.824810385,
				"y": -2.0844556416,
				"z": -4.0995602782,
				"element": "H" 
			},
			{
				"x": -1.5589874298,
				"y": -1.6496891079,
				"z": -1.6664478277,
				"element": "H" 
			}
		],
		 "valence_orbital": [ 
			{
				"type": "occ",
				"energy": -0.27163,
				"method": "rhf"
			},
			{
				"type": "occ",
				"energy": -0.26863,
				"method": "rhf"
			},
			{
				"type": "occ",
				"energy": -0.25255,
				"method": "rhf"
			},
			{
				"type": "occ",
				"energy": -0.24461,
				"method": "rhf"
			},
			{
				"type": "occ",
				"energy": -0.23559,
				"method": "rhf"
			},
			{
				"type": "unocc",
				"energy": -0.07543,
				"method": "rhf"
			},
			{
				"type": "unocc",
				"energy": -0.02426,
				"method": "rhf"
			},
			{
				"type": "unocc",
				"energy": -0.02135,
				"method": "rhf"
			},
			{
				"type": "unocc",
				"energy": -0.01633,
				"method": "rhf"
			},
			{
				"type": "unocc",
				"energy": 0.02245,
				"method": "rhf"
			}
		],
		"cosmo_sigma_profile": { 
			"-0.025": 0.0,
			"-0.024": 0.0,
			"-0.023": 0.0,
			"-0.022": 0.0,
			"-0.021": 0.0,
			"-0.02": 0.0,
			"-0.019": 0.0,
			"-0.018": 0.0,
			"-0.017": 0.0,
			"-0.016": 0.0,
			"-0.015": 0.0,
			"-0.014": 0.0,
			"-0.013": 0.0,
			"-0.012": 0.0,
			"-0.011": 0.0,
			"-0.01": 0.0,
			"-0.009": 0.43092143771,
			"-0.008": 3.86172902329,
			"-0.007": 12.6469939311,
			"-0.006": 14.4398625517,
			"-0.005": 19.4152953069,
			"-0.004": 16.0858799295,
			"-0.003": 15.965936327,
			"-0.002": 17.086468866,
			"-0.001": 21.0129485225,
			"0.0": 33.5956606568,
			"0.001": 29.4076650579,
			"0.002": 30.3286455492,
			"0.003": 34.9602622317,
			"0.004": 25.8186707552,
			"0.005": 4.33175910786,
			"0.006": 1.78761402243,
			"0.007": 2.06991928601,
			"0.008": 1.53036974883,
			"0.009": 1.8718218738,
			"0.01": 2.0113402298,
			"0.011": 2.04284257568,
			"0.012": 2.97350649562,
			"0.013": 1.46327727445,
			"0.014": 0.0,
			"0.015": 0.0,
			"0.016": 0.0,
			"0.017": 0.0,
			"0.018": 0.0,
			"0.019": 0.0,
			"0.02": 0.0,
			"0.021": 0.0,
			"0.022": 0.0,
			"0.023": 0.0,
			"0.024": 0.0,
			"0.025": 0.0
		}
	}
}
