{
	 "smiles": "CCOC1=CC2=C(C=C1)N=C(S2)C1=CC=C(N)C=C1", 
	 "Tm": 477.15, 
	 "num_atms": 33, 
	 "gaussian": { 
		 "optdone": 1, 
		 "sigma_profile": "yes", 
		 "theory": "DFT", 
		 "functional": "B3LYP", 
		 "basiset": "6-31G**", 
		 "properties": { 
			 "R2extent": 8805.809, 
			 "electric_dipole_moment_norm": 2.97535837169, 
			 "electric_quadrupole_moment_norm": 30.0652233037, 
			 "total_energy": -1162.96437882, 
			 "HOMO_LUMO_gap": 0.14794, 
			 "cosmo_polarized_energy": -14.75, 
			 "cosmo_cavitation_energy": 38.3, 
			 "cosmo_dispersion_energy": -28.79, 
			 "cosmo_repulsion_energy": 2.16, 
			 "cosmo_total_nonelectrostatic_energy": 11.67, 
			 "SMD_solvation_energy": 4.75 
		},
		"coords": [
			{
				"x": 1.6349527912,
				"y": -0.1326576506,
				"z": 5.8885133948,
				"element": "C" 
			},
			{
				"x": 2.5188097556,
				"y": -1.2027060633,
				"z": 5.2546792905,
				"element": "C" 
			},
			{
				"x": 1.7627494726,
				"y": -2.2425327425,
				"z": 4.6312727324,
				"element": "O" 
			},
			{
				"x": 1.2399348181,
				"y": -2.0550549552,
				"z": 3.3827926822,
				"element": "C" 
			},
			{
				"x": 1.4220028798,
				"y": -0.9083271335,
				"z": 2.603755024,
				"element": "C" 
			},
			{
				"x": 0.8368276323,
				"y": -0.8835866526,
				"z": 1.3339559151,
				"element": "C" 
			},
			{
				"x": 0.0779295508,
				"y": -1.9642324543,
				"z": 0.8292129003,
				"element": "C" 
			},
			{
				"x": -0.0923172396,
				"y": -3.1035911344,
				"z": 1.634222735,
				"element": "C" 
			},
			{
				"x": 0.4825278129,
				"y": -3.1424324971,
				"z": 2.8922600524,
				"element": "C" 
			},
			{
				"x": -0.4398377183,
				"y": -1.791726337,
				"z": -0.4390090665,
				"element": "N" 
			},
			{
				"x": -0.1231700515,
				"y": -0.6369426967,
				"z": -0.9430396619,
				"element": "C" 
			},
			{
				"x": 0.8827584674,
				"y": 0.3924513526,
				"z": 0.1360028245,
				"element": "S" 
			},
			{
				"x": -0.5276772696,
				"y": -0.1744653117,
				"z": -2.2698889004,
				"element": "C" 
			},
			{
				"x": -1.3073953854,
				"y": -1.0163660978,
				"z": -3.0864287874,
				"element": "C" 
			},
			{
				"x": -1.7141944273,
				"y": -0.6143645885,
				"z": -4.348387682,
				"element": "C" 
			},
			{
				"x": -1.357359573,
				"y": 0.6526750668,
				"z": -4.8511233453,
				"element": "C" 
			},
			{
				"x": -1.7211458375,
				"y": 1.0359036591,
				"z": -6.135522004,
				"element": "N" 
			},
			{
				"x": -0.5779275574,
				"y": 1.496993157,
				"z": -4.0391861069,
				"element": "C" 
			},
			{
				"x": -0.1735777924,
				"y": 1.0872608587,
				"z": -2.7758183651,
				"element": "C" 
			},
			{
				"x": 1.0326347384,
				"y": 0.3912524934,
				"z": 5.1415922364,
				"element": "H" 
			},
			{
				"x": 0.9558037904,
				"y": -0.5863134154,
				"z": 6.6159131609,
				"element": "H" 
			},
			{
				"x": 2.2544988985,
				"y": 0.6058879357,
				"z": 6.4083893047,
				"element": "H" 
			},
			{
				"x": 3.102245698,
				"y": -1.7156193088,
				"z": 6.0246776366,
				"element": "H" 
			},
			{
				"x": 3.2311015166,
				"y": -0.7688044476,
				"z": 4.5409819971,
				"element": "H" 
			},
			{
				"x": 1.9928217311,
				"y": -0.0608821629,
				"z": 2.9612128296,
				"element": "H" 
			},
			{
				"x": -0.6726689552,
				"y": -3.9391222264,
				"z": 1.2568900534,
				"element": "H" 
			},
			{
				"x": 0.3707380602,
				"y": -4.0094838426,
				"z": 3.5344222251,
				"element": "H" 
			},
			{
				"x": -1.5872476559,
				"y": -1.9917917903,
				"z": -2.7039851204,
				"element": "H" 
			},
			{
				"x": -2.3127951267,
				"y": -1.2832003037,
				"z": -4.9620500944,
				"element": "H" 
			},
			{
				"x": -2.5174640212,
				"y": 0.5586324904,
				"z": -6.5329324924,
				"element": "H" 
			},
			{
				"x": -1.7266793375,
				"y": 2.0288448453,
				"z": -6.319509436,
				"element": "H" 
			},
			{
				"x": -0.2877370104,
				"y": 2.4773922706,
				"z": -4.4082723849,
				"element": "H" 
			},
			{
				"x": 0.4253573453,
				"y": 1.7667096832,
				"z": -2.1754935474,
				"element": "H" 
			}
		],
		 "valence_orbital": [ 
			{
				"type": "occ",
				"energy": -0.26243,
				"method": "rhf"
			},
			{
				"type": "occ",
				"energy": -0.25232,
				"method": "rhf"
			},
			{
				"type": "occ",
				"energy": -0.22975,
				"method": "rhf"
			},
			{
				"type": "occ",
				"energy": -0.22187,
				"method": "rhf"
			},
			{
				"type": "occ",
				"energy": -0.18684,
				"method": "rhf"
			},
			{
				"type": "unocc",
				"energy": -0.0389,
				"method": "rhf"
			},
			{
				"type": "unocc",
				"energy": -0.00241,
				"method": "rhf"
			},
			{
				"type": "unocc",
				"energy": 0.00254,
				"method": "rhf"
			},
			{
				"type": "unocc",
				"energy": 0.02127,
				"method": "rhf"
			},
			{
				"type": "unocc",
				"energy": 0.03097,
				"method": "rhf"
			}
		],
		"cosmo_sigma_profile": { 
			"-0.025": 0.0,
			"-0.024": 0.0,
			"-0.023": 0.0,
			"-0.022": 0.0,
			"-0.021": 0.0,
			"-0.02": 0.0,
			"-0.019": 0.0,
			"-0.018": 0.0,
			"-0.017": 0.0,
			"-0.016": 0.0,
			"-0.015": 0.0,
			"-0.014": 0.0217095519915,
			"-0.013": 1.75534122957,
			"-0.012": 3.11591577169,
			"-0.011": 2.75499910492,
			"-0.01": 2.82462679808,
			"-0.009": 3.48459215789,
			"-0.008": 4.1747327171,
			"-0.007": 6.50398754035,
			"-0.006": 12.9198165724,
			"-0.005": 17.0310283405,
			"-0.004": 23.8824973421,
			"-0.003": 23.0778950161,
			"-0.002": 17.0477570807,
			"-0.001": 17.8393057295,
			"0.0": 19.0980415586,
			"0.001": 22.1739584365,
			"0.002": 22.8493448262,
			"0.003": 27.0887749206,
			"0.004": 31.8578828076,
			"0.005": 22.6850618861,
			"0.006": 6.98111037237,
			"0.007": 4.01518251371,
			"0.008": 3.77170320388,
			"0.009": 3.13891556933,
			"0.01": 3.42542372471,
			"0.011": 1.85618782552,
			"0.012": 1.83307938264,
			"0.013": 0.593335292581,
			"0.014": 0.0280816905921,
			"0.015": 0.0,
			"0.016": 0.0,
			"0.017": 0.0,
			"0.018": 0.0,
			"0.019": 0.0,
			"0.02": 0.0,
			"0.021": 0.0,
			"0.022": 0.0,
			"0.023": 0.0,
			"0.024": 0.0,
			"0.025": 0.0
		}
	}
}
