{
	 "smiles": "COC1=C(OC)C=C(C(C=C[N+]([O-])=O)=C1)[N+]([O-])=O", 
	 "Tm": 441.15, 
	 "num_atms": 28, 
	 "gaussian": { 
		 "optdone": 1, 
		 "sigma_profile": "yes", 
		 "theory": "DFT", 
		 "functional": "B3LYP", 
		 "basiset": "6-31G**", 
		 "properties": { 
			 "R2extent": 5853.493, 
			 "electric_dipole_moment_norm": 8.42768164681, 
			 "electric_quadrupole_moment_norm": 15.5793838213, 
			 "total_energy": -947.684270299, 
			 "HOMO_LUMO_gap": 0.1353, 
			 "cosmo_polarized_energy": -19.15, 
			 "cosmo_cavitation_energy": 34.51, 
			 "cosmo_dispersion_energy": -24.37, 
			 "cosmo_repulsion_energy": 1.9, 
			 "cosmo_total_nonelectrostatic_energy": 12.04, 
			 "SMD_solvation_energy": 12.38 
		},
		"coords": [
			{
				"x": -1.7308218891,
				"y": 0.9154522735,
				"z": 2.9847160356,
				"element": "C" 
			},
			{
				"x": -2.125110696,
				"y": 1.2886905423,
				"z": 1.6679357821,
				"element": "O" 
			},
			{
				"x": -1.5088646334,
				"y": 0.707588561,
				"z": 0.618571234,
				"element": "C" 
			},
			{
				"x": -1.9562666866,
				"y": 1.1318012169,
				"z": -0.6655657558,
				"element": "C" 
			},
			{
				"x": -2.9436162763,
				"y": 2.052862619,
				"z": -0.6690957873,
				"element": "O" 
			},
			{
				"x": -3.4138109129,
				"y": 2.527886942,
				"z": -1.9270926906,
				"element": "C" 
			},
			{
				"x": -1.3651879392,
				"y": 0.5866191941,
				"z": -1.7955411052,
				"element": "C" 
			},
			{
				"x": -0.3490734784,
				"y": -0.3692195335,
				"z": -1.676527659,
				"element": "C" 
			},
			{
				"x": 0.1199545291,
				"y": -0.8064409648,
				"z": -0.4264230946,
				"element": "C" 
			},
			{
				"x": 1.2258168725,
				"y": -1.7535406286,
				"z": -0.238140824,
				"element": "C" 
			},
			{
				"x": 1.2782081351,
				"y": -2.6226117317,
				"z": 0.7787544507,
				"element": "C" 
			},
			{
				"x": 2.4388040775,
				"y": -3.4781499022,
				"z": 0.9659999723,
				"element": "N" 
			},
			{
				"x": 2.3725731164,
				"y": -4.2644021438,
				"z": 1.9151425241,
				"element": "O" 
			},
			{
				"x": 3.3945964738,
				"y": -3.3716796318,
				"z": 0.1976783661,
				"element": "O" 
			},
			{
				"x": -0.4871472597,
				"y": -0.2323731538,
				"z": 0.7106348894,
				"element": "C" 
			},
			{
				"x": 0.1652580736,
				"y": -0.9212648401,
				"z": -2.9332158507,
				"element": "N" 
			},
			{
				"x": -0.1365187696,
				"y": -0.342256858,
				"z": -3.9782906405,
				"element": "O" 
			},
			{
				"x": 0.8613989079,
				"y": -1.938379991,
				"z": -2.8836709012,
				"element": "O" 
			},
			{
				"x": -2.3660576387,
				"y": 1.4918546616,
				"z": 3.6572599812,
				"element": "H" 
			},
			{
				"x": -1.8898290137,
				"y": -0.1551050962,
				"z": 3.1608498437,
				"element": "H" 
			},
			{
				"x": -0.6799284929,
				"y": 1.1653199622,
				"z": 3.173267677,
				"element": "H" 
			},
			{
				"x": -3.8453256373,
				"y": 1.7158178628,
				"z": -2.5244474871,
				"element": "H" 
			},
			{
				"x": -4.1881155868,
				"y": 3.2595204134,
				"z": -1.6960817955,
				"element": "H" 
			},
			{
				"x": -2.6111784752,
				"y": 3.0116147219,
				"z": -2.4963978717,
				"element": "H" 
			},
			{
				"x": -1.672289651,
				"y": 0.8708392718,
				"z": -2.7915509391,
				"element": "H" 
			},
			{
				"x": 2.0514603727,
				"y": -1.7536678764,
				"z": -0.9391681347,
				"element": "H" 
			},
			{
				"x": 0.5131345496,
				"y": -2.8101182721,
				"z": 1.518995726,
				"element": "H" 
			},
			{
				"x": -0.1079620716,
				"y": -0.5132576183,
				"z": 1.6842040548,
				"element": "H" 
			}
		],
		 "valence_orbital": [ 
			{
				"type": "occ",
				"energy": -0.30221,
				"method": "rhf"
			},
			{
				"type": "occ",
				"energy": -0.29448,
				"method": "rhf"
			},
			{
				"type": "occ",
				"energy": -0.2853,
				"method": "rhf"
			},
			{
				"type": "occ",
				"energy": -0.27396,
				"method": "rhf"
			},
			{
				"type": "occ",
				"energy": -0.24169,
				"method": "rhf"
			},
			{
				"type": "unocc",
				"energy": -0.10639,
				"method": "rhf"
			},
			{
				"type": "unocc",
				"energy": -0.08016,
				"method": "rhf"
			},
			{
				"type": "unocc",
				"energy": -0.02967,
				"method": "rhf"
			},
			{
				"type": "unocc",
				"energy": -0.00586,
				"method": "rhf"
			},
			{
				"type": "unocc",
				"energy": 0.0326,
				"method": "rhf"
			}
		],
		"cosmo_sigma_profile": { 
			"-0.025": 0.0,
			"-0.024": 0.0,
			"-0.023": 0.0,
			"-0.022": 0.0,
			"-0.021": 0.0,
			"-0.02": 0.0,
			"-0.019": 0.0,
			"-0.018": 0.0,
			"-0.017": 0.0,
			"-0.016": 0.0,
			"-0.015": 0.0,
			"-0.014": 0.0,
			"-0.013": 0.0,
			"-0.012": 0.0,
			"-0.011": 0.0,
			"-0.01": 0.820668204474,
			"-0.009": 3.80402101678,
			"-0.008": 6.50842963596,
			"-0.007": 14.0819201588,
			"-0.006": 22.6208582088,
			"-0.005": 22.4968345747,
			"-0.004": 24.1452114841,
			"-0.003": 17.9943665066,
			"-0.002": 16.4849200957,
			"-0.001": 23.0613373268,
			"0.0": 19.7790057903,
			"0.001": 9.66511106314,
			"0.002": 7.64916399967,
			"0.003": 6.62764573965,
			"0.004": 7.24559658017,
			"0.005": 8.88079536052,
			"0.006": 7.71341548486,
			"0.007": 13.375419099,
			"0.008": 18.8386722602,
			"0.009": 12.0751532614,
			"0.01": 8.1409600024,
			"0.011": 2.02152261225,
			"0.012": 1.45967470535,
			"0.013": 0.43160309233,
			"0.014": 0.0,
			"0.015": 0.0,
			"0.016": 0.0,
			"0.017": 0.0,
			"0.018": 0.0,
			"0.019": 0.0,
			"0.02": 0.0,
			"0.021": 0.0,
			"0.022": 0.0,
			"0.023": 0.0,
			"0.024": 0.0,
			"0.025": 0.0
		}
	}
}
