{
	 "smiles": "CC(=NO)C1=CC2=C(CCCC2)C=C1", 
	 "Tm": 378.15, 
	 "num_atms": 29, 
	 "gaussian": { 
		 "optdone": 1, 
		 "sigma_profile": "yes", 
		 "theory": "DFT", 
		 "functional": "B3LYP", 
		 "basiset": "6-31G**", 
		 "properties": { 
			 "R2extent": 3879.6212, 
			 "electric_dipole_moment_norm": 0.793575938395, 
			 "electric_quadrupole_moment_norm": 5.74002756962, 
			 "total_energy": -596.261510494, 
			 "HOMO_LUMO_gap": 0.18345, 
			 "cosmo_polarized_energy": -7.87, 
			 "cosmo_cavitation_energy": 30.6, 
			 "cosmo_dispersion_energy": -22.86, 
			 "cosmo_repulsion_energy": 1.81, 
			 "cosmo_total_nonelectrostatic_energy": 9.55, 
			 "SMD_solvation_energy": 4.59 
		},
		"coords": [
			{
				"x": 0.8731761622,
				"y": 3.615130481,
				"z": 1.3605692452,
				"element": "C" 
			},
			{
				"x": -0.2337498931,
				"y": 2.5943883532,
				"z": 1.2777387522,
				"element": "C" 
			},
			{
				"x": -1.2872454899,
				"y": 2.6115852913,
				"z": 2.0197469915,
				"element": "N" 
			},
			{
				"x": -1.3074043211,
				"y": 3.6854045071,
				"z": 2.9237753188,
				"element": "O" 
			},
			{
				"x": -0.1417121451,
				"y": 1.4842498022,
				"z": 0.2930373329,
				"element": "C" 
			},
			{
				"x": -1.1591710793,
				"y": 0.5233878503,
				"z": 0.1835445853,
				"element": "C" 
			},
			{
				"x": -1.0961628773,
				"y": -0.52752357,
				"z": -0.7332531883,
				"element": "C" 
			},
			{
				"x": 0.0207454029,
				"y": -0.6351079478,
				"z": -1.5864692493,
				"element": "C" 
			},
			{
				"x": 0.1219188716,
				"y": -1.7328162276,
				"z": -2.6310627256,
				"element": "C" 
			},
			{
				"x": -0.8296601433,
				"y": -2.9079297439,
				"z": -2.3728077905,
				"element": "C" 
			},
			{
				"x": -2.2369131745,
				"y": -2.3912334594,
				"z": -2.0534064389,
				"element": "C" 
			},
			{
				"x": -2.2177101106,
				"y": -1.5537410108,
				"z": -0.7684489069,
				"element": "C" 
			},
			{
				"x": 1.0383223619,
				"y": 0.3196426267,
				"z": -1.4777083111,
				"element": "C" 
			},
			{
				"x": 0.9678092837,
				"y": 1.3626904369,
				"z": -0.5591226552,
				"element": "C" 
			},
			{
				"x": 1.0043387818,
				"y": 4.1183227695,
				"z": 0.3966047832,
				"element": "H" 
			},
			{
				"x": 1.8242742731,
				"y": 3.1310937228,
				"z": 1.6075551047,
				"element": "H" 
			},
			{
				"x": 0.6531029884,
				"y": 4.3626642161,
				"z": 2.119759235,
				"element": "H" 
			},
			{
				"x": -2.1453485745,
				"y": 3.5404884344,
				"z": 3.3816975544,
				"element": "H" 
			},
			{
				"x": -2.0206852546,
				"y": 0.6084458538,
				"z": 0.8383259663,
				"element": "H" 
			},
			{
				"x": 1.1589968193,
				"y": -2.0840575903,
				"z": -2.6956093152,
				"element": "H" 
			},
			{
				"x": -0.1082851053,
				"y": -1.3009866513,
				"z": -3.6167246098,
				"element": "H" 
			},
			{
				"x": -0.8451302115,
				"y": -3.5727262703,
				"z": -3.2438843668,
				"element": "H" 
			},
			{
				"x": -0.4624073917,
				"y": -3.5041495002,
				"z": -1.5264048872,
				"element": "H" 
			},
			{
				"x": -2.5959134217,
				"y": -1.7782683615,
				"z": -2.891451949,
				"element": "H" 
			},
			{
				"x": -2.9429936708,
				"y": -3.2223835431,
				"z": -1.945698525,
				"element": "H" 
			},
			{
				"x": -2.101651317,
				"y": -2.2286916976,
				"z": 0.0924832241,
				"element": "H" 
			},
			{
				"x": -3.180237623,
				"y": -1.0490688395,
				"z": -0.6237458248,
				"element": "H" 
			},
			{
				"x": 1.9060533612,
				"y": 0.2433635597,
				"z": -2.1294831651,
				"element": "H" 
			},
			{
				"x": 1.7815434983,
				"y": 2.0781265085,
				"z": -0.5106561847,
				"element": "H" 
			}
		],
		 "valence_orbital": [ 
			{
				"type": "occ",
				"energy": -0.3066,
				"method": "rhf"
			},
			{
				"type": "occ",
				"energy": -0.26935,
				"method": "rhf"
			},
			{
				"type": "occ",
				"energy": -0.26491,
				"method": "rhf"
			},
			{
				"type": "occ",
				"energy": -0.23513,
				"method": "rhf"
			},
			{
				"type": "occ",
				"energy": -0.21184,
				"method": "rhf"
			},
			{
				"type": "unocc",
				"energy": -0.02839,
				"method": "rhf"
			},
			{
				"type": "unocc",
				"energy": 0.00467,
				"method": "rhf"
			},
			{
				"type": "unocc",
				"energy": 0.0535,
				"method": "rhf"
			},
			{
				"type": "unocc",
				"energy": 0.08101,
				"method": "rhf"
			},
			{
				"type": "unocc",
				"energy": 0.09574,
				"method": "rhf"
			}
		],
		"cosmo_sigma_profile": { 
			"-0.025": 0.0,
			"-0.024": 0.0,
			"-0.023": 0.0,
			"-0.022": 0.0,
			"-0.021": 0.0,
			"-0.02": 0.0,
			"-0.019": 0.0,
			"-0.018": 0.0113257317976,
			"-0.017": 0.664936080985,
			"-0.016": 0.911166105482,
			"-0.015": 0.961956794722,
			"-0.014": 0.881122339806,
			"-0.013": 0.944842386604,
			"-0.012": 0.587288682545,
			"-0.011": 0.265267734023,
			"-0.01": 0.441016012519,
			"-0.009": 0.716775378903,
			"-0.008": 0.584405834535,
			"-0.007": 1.11698792733,
			"-0.006": 1.40791739423,
			"-0.005": 9.26459256269,
			"-0.004": 12.3713016364,
			"-0.003": 25.1783680727,
			"-0.002": 31.9331957721,
			"-0.001": 34.0485027657,
			"0.0": 30.6592408182,
			"0.001": 15.8880270058,
			"0.002": 10.245341102,
			"0.003": 7.87588876233,
			"0.004": 12.8621929764,
			"0.005": 12.4995813789,
			"0.006": 12.5126163918,
			"0.007": 4.76582833115,
			"0.008": 3.53316547479,
			"0.009": 3.6138881455,
			"0.01": 2.82999385311,
			"0.011": 0.326320147894,
			"0.012": 0.0,
			"0.013": 0.0,
			"0.014": 0.0,
			"0.015": 0.0,
			"0.016": 0.0,
			"0.017": 0.0,
			"0.018": 0.0,
			"0.019": 0.0,
			"0.02": 0.0,
			"0.021": 0.0,
			"0.022": 0.0,
			"0.023": 0.0,
			"0.024": 0.0,
			"0.025": 0.0
		}
	}
}
