{
	 "smiles": "ClC(=O)C1=CC=C(S1)C1=CC=CC=N1", 
	 "Tm": 413.15, 
	 "num_atms": 20, 
	 "gaussian": { 
		 "optdone": 1, 
		 "sigma_profile": "yes", 
		 "theory": "DFT", 
		 "functional": "B3LYP", 
		 "basiset": "6-31G**", 
		 "properties": { 
			 "R2extent": 5003.9105, 
			 "electric_dipole_moment_norm": 5.76935993937, 
			 "electric_quadrupole_moment_norm": 13.0319612269, 
			 "total_energy": -1373.0308149, 
			 "HOMO_LUMO_gap": 0.14795, 
			 "cosmo_polarized_energy": -8.69, 
			 "cosmo_cavitation_energy": 28.75, 
			 "cosmo_dispersion_energy": -21.77, 
			 "cosmo_repulsion_energy": 1.65, 
			 "cosmo_total_nonelectrostatic_energy": 8.63, 
			 "SMD_solvation_energy": 4.23 
		},
		"coords": [
			{
				"x": -2.6181122744,
				"y": 4.3945447175,
				"z": 0.1244246802,
				"element": "Cl" 
			},
			{
				"x": -0.8550489724,
				"y": 4.3742823547,
				"z": -0.3824911966,
				"element": "C" 
			},
			{
				"x": -0.3208842913,
				"y": 5.391667781,
				"z": -0.7154887317,
				"element": "O" 
			},
			{
				"x": -0.2428701812,
				"y": 3.0566195793,
				"z": -0.328715066,
				"element": "C" 
			},
			{
				"x": 1.0764808768,
				"y": 2.8095028235,
				"z": -0.6673945662,
				"element": "C" 
			},
			{
				"x": 1.4349717496,
				"y": 1.4543009295,
				"z": -0.5336120612,
				"element": "C" 
			},
			{
				"x": 0.3912098807,
				"y": 0.6591599774,
				"z": -0.0918799652,
				"element": "C" 
			},
			{
				"x": -1.0555792366,
				"y": 1.5939520216,
				"z": 0.1630216704,
				"element": "S" 
			},
			{
				"x": 0.4499873138,
				"y": -0.7909620833,
				"z": 0.1453682707,
				"element": "C" 
			},
			{
				"x": -0.6565482133,
				"y": -1.5296388313,
				"z": 0.596116001,
				"element": "C" 
			},
			{
				"x": -0.5148449816,
				"y": -2.8998116521,
				"z": 0.7951382878,
				"element": "C" 
			},
			{
				"x": 0.7195424257,
				"y": -3.4952529043,
				"z": 0.5411268845,
				"element": "C" 
			},
			{
				"x": 1.7626567205,
				"y": -2.679160281,
				"z": 0.09528057,
				"element": "C" 
			},
			{
				"x": 1.6442095271,
				"y": -1.3656903081,
				"z": -0.1005630232,
				"element": "N" 
			},
			{
				"x": 1.7403557716,
				"y": 3.5991098813,
				"z": -0.9980512372,
				"element": "H" 
			},
			{
				"x": 2.4124794867,
				"y": 1.0410267506,
				"z": -0.7442165494,
				"element": "H" 
			},
			{
				"x": -1.6083180375,
				"y": -1.0438849125,
				"z": 0.7873419872,
				"element": "H" 
			},
			{
				"x": -1.3564333671,
				"y": -3.4912492527,
				"z": 1.143142239,
				"element": "H" 
			},
			{
				"x": 0.8753240846,
				"y": -4.5596199952,
				"z": 0.6824470184,
				"element": "H" 
			},
			{
				"x": 2.7422217184,
				"y": -3.1051965959,
				"z": -0.1143952126,
				"element": "H" 
			}
		],
		 "valence_orbital": [ 
			{
				"type": "occ",
				"energy": -0.29857,
				"method": "rhf"
			},
			{
				"type": "occ",
				"energy": -0.29373,
				"method": "rhf"
			},
			{
				"type": "occ",
				"energy": -0.27586,
				"method": "rhf"
			},
			{
				"type": "occ",
				"energy": -0.27534,
				"method": "rhf"
			},
			{
				"type": "occ",
				"energy": -0.24194,
				"method": "rhf"
			},
			{
				"type": "unocc",
				"energy": -0.09399,
				"method": "rhf"
			},
			{
				"type": "unocc",
				"energy": -0.04203,
				"method": "rhf"
			},
			{
				"type": "unocc",
				"energy": -0.02736,
				"method": "rhf"
			},
			{
				"type": "unocc",
				"energy": -0.00064,
				"method": "rhf"
			},
			{
				"type": "unocc",
				"energy": 0.03164,
				"method": "rhf"
			}
		],
		"cosmo_sigma_profile": { 
			"-0.025": 0.0,
			"-0.024": 0.0,
			"-0.023": 0.0,
			"-0.022": 0.0,
			"-0.021": 0.0,
			"-0.02": 0.0,
			"-0.019": 0.0,
			"-0.018": 0.0,
			"-0.017": 0.0,
			"-0.016": 0.0,
			"-0.015": 0.0,
			"-0.014": 0.0,
			"-0.013": 0.0,
			"-0.012": 0.0,
			"-0.011": 0.0,
			"-0.01": 0.0,
			"-0.009": 0.630672465246,
			"-0.008": 4.55927302395,
			"-0.007": 11.1557146379,
			"-0.006": 13.4351494186,
			"-0.005": 11.0538630986,
			"-0.004": 10.629708579,
			"-0.003": 13.2710678507,
			"-0.002": 13.7427758455,
			"-0.001": 18.5762534702,
			"0.0": 25.8457122159,
			"0.001": 32.5046842395,
			"0.002": 28.6927456314,
			"0.003": 11.5840350479,
			"0.004": 12.334475857,
			"0.005": 7.09978635184,
			"0.006": 4.38323121106,
			"0.007": 4.09157750067,
			"0.008": 5.03113885249,
			"0.009": 5.25793067237,
			"0.01": 1.63189644911,
			"0.011": 1.07647142333,
			"0.012": 0.263841763753,
			"0.013": 0.0,
			"0.014": 0.0,
			"0.015": 0.0,
			"0.016": 0.0,
			"0.017": 0.0,
			"0.018": 0.0,
			"0.019": 0.0,
			"0.02": 0.0,
			"0.021": 0.0,
			"0.022": 0.0,
			"0.023": 0.0,
			"0.024": 0.0,
			"0.025": 0.0
		}
	}
}
