{
	 "smiles": "OC(=O)CSC1=NC=NN1", 
	 "Tm": 428.15, 
	 "num_atms": 15, 
	 "gaussian": { 
		 "optdone": 1, 
		 "sigma_profile": "yes", 
		 "theory": "DFT", 
		 "functional": "B3LYP", 
		 "basiset": "6-31G**", 
		 "properties": { 
			 "R2extent": 1796.6726, 
			 "electric_dipole_moment_norm": 2.52704258175, 
			 "electric_quadrupole_moment_norm": 5.04840287715, 
			 "total_energy": -868.313811748, 
			 "HOMO_LUMO_gap": 0.23062, 
			 "cosmo_polarized_energy": -17.79, 
			 "cosmo_cavitation_energy": 21.92, 
			 "cosmo_dispersion_energy": -16.56, 
			 "cosmo_repulsion_energy": 1.33, 
			 "cosmo_total_nonelectrostatic_energy": 6.69, 
			 "SMD_solvation_energy": 2.99 
		},
		"coords": [
			{
				"x": -1.0515037473,
				"y": -0.617868265,
				"z": -1.6341373068,
				"element": "O" 
			},
			{
				"x": -0.5593686366,
				"y": 0.6105464351,
				"z": -1.391749185,
				"element": "C" 
			},
			{
				"x": 0.0037974548,
				"y": 1.2846558272,
				"z": -2.2222914591,
				"element": "O" 
			},
			{
				"x": -0.8261917925,
				"y": 1.1264407158,
				"z": 0.0158490512,
				"element": "C" 
			},
			{
				"x": -1.2741840335,
				"y": -0.0800434107,
				"z": 1.3115770735,
				"element": "S" 
			},
			{
				"x": 0.270238041,
				"y": -0.917106614,
				"z": 1.4319824642,
				"element": "C" 
			},
			{
				"x": 1.3768142184,
				"y": -0.6403351557,
				"z": 0.7617839429,
				"element": "N" 
			},
			{
				"x": 2.2545323645,
				"y": -1.5750507865,
				"z": 1.2351944719,
				"element": "C" 
			},
			{
				"x": 1.7725907463,
				"y": -2.403381905,
				"z": 2.1442973395,
				"element": "N" 
			},
			{
				"x": 0.4853425367,
				"y": -1.9660214669,
				"z": 2.2612652313,
				"element": "N" 
			},
			{
				"x": -0.8208978626,
				"y": -0.8217219922,
				"z": -2.5561928888,
				"element": "H" 
			},
			{
				"x": 0.0540913417,
				"y": 1.6893994414,
				"z": 0.3259606831,
				"element": "H" 
			},
			{
				"x": -1.6757745124,
				"y": 1.8153300022,
				"z": -0.0304064388,
				"element": "H" 
			},
			{
				"x": 3.2784730742,
				"y": -1.6400578259,
				"z": 0.8942745183,
				"element": "H" 
			},
			{
				"x": -0.1491591927,
				"y": -2.4229849998,
				"z": 2.8986925027,
				"element": "H" 
			}
		],
		 "valence_orbital": [ 
			{
				"type": "occ",
				"energy": -0.31908,
				"method": "rhf"
			},
			{
				"type": "occ",
				"energy": -0.30086,
				"method": "rhf"
			},
			{
				"type": "occ",
				"energy": -0.28624,
				"method": "rhf"
			},
			{
				"type": "occ",
				"energy": -0.28345,
				"method": "rhf"
			},
			{
				"type": "occ",
				"energy": -0.23634,
				"method": "rhf"
			},
			{
				"type": "unocc",
				"energy": -0.00572,
				"method": "rhf"
			},
			{
				"type": "unocc",
				"energy": 0.00246,
				"method": "rhf"
			},
			{
				"type": "unocc",
				"energy": 0.00825,
				"method": "rhf"
			},
			{
				"type": "unocc",
				"energy": 0.04883,
				"method": "rhf"
			},
			{
				"type": "unocc",
				"energy": 0.06464,
				"method": "rhf"
			}
		],
		"cosmo_sigma_profile": { 
			"-0.025": 0.0,
			"-0.024": 0.0,
			"-0.023": 0.0,
			"-0.022": 0.0,
			"-0.021": 0.0,
			"-0.02": 0.0,
			"-0.019": 0.451199555261,
			"-0.018": 1.73572768951,
			"-0.017": 3.24523844666,
			"-0.016": 1.70287996599,
			"-0.015": 1.91396114798,
			"-0.014": 1.72897451288,
			"-0.013": 1.59500266418,
			"-0.012": 1.98052397022,
			"-0.011": 2.07718341788,
			"-0.01": 4.72916284206,
			"-0.009": 4.71299017034,
			"-0.008": 6.15683710138,
			"-0.007": 6.05668466084,
			"-0.006": 6.41902103916,
			"-0.005": 6.13383795405,
			"-0.004": 5.57062282416,
			"-0.003": 5.53735296484,
			"-0.002": 7.17965663547,
			"-0.001": 6.71890448042,
			"0.0": 9.52015808196,
			"0.001": 10.7553908781,
			"0.002": 10.5534871287,
			"0.003": 8.8825155864,
			"0.004": 7.48873139289,
			"0.005": 7.25434355977,
			"0.006": 9.36149421149,
			"0.007": 5.73792682496,
			"0.008": 5.2927978982,
			"0.009": 5.5405350313,
			"0.01": 6.41759093394,
			"0.011": 7.5743807846,
			"0.012": 3.96870594107,
			"0.013": 1.52172519735,
			"0.014": 1.28225056435,
			"0.015": 0.278372682616,
			"0.016": 0.0,
			"0.017": 0.0,
			"0.018": 0.0,
			"0.019": 0.0,
			"0.02": 0.0,
			"0.021": 0.0,
			"0.022": 0.0,
			"0.023": 0.0,
			"0.024": 0.0,
			"0.025": 0.0
		}
	}
}
