{
	 "smiles": "CCCC1=CC=C(OCC(=O)N2CCN(CC2)C(=O)COC2=CC=C(CCC)C=C2OC)C(OC)=C1", 
	 "Tm": 401.15, 
	 "num_atms": 74, 
	 "gaussian": { 
		 "optdone": 1, 
		 "sigma_profile": "yes", 
		 "theory": "DFT", 
		 "functional": "B3LYP", 
		 "basiset": "6-31G**", 
		 "properties": { 
			 "R2extent": 29022.9841, 
			 "electric_dipole_moment_norm": 1.78443271378, 
			 "electric_quadrupole_moment_norm": 48.6064434039, 
			 "total_energy": -1650.7033269, 
			 "HOMO_LUMO_gap": 0.21245, 
			 "cosmo_polarized_energy": -32.83, 
			 "cosmo_cavitation_energy": 74.65, 
			 "cosmo_dispersion_energy": -49.46, 
			 "cosmo_repulsion_energy": 3.85, 
			 "cosmo_total_nonelectrostatic_energy": 29.04, 
			 "SMD_solvation_energy": 13.14 
		},
		"coords": [
			{
				"x": -2.6934085007,
				"y": 5.7289822348,
				"z": -3.2957349628,
				"element": "C" 
			},
			{
				"x": -1.4541334273,
				"y": 6.5155994103,
				"z": -3.731763498,
				"element": "C" 
			},
			{
				"x": -0.1364611914,
				"y": 5.7160293134,
				"z": -3.6274475276,
				"element": "C" 
			},
			{
				"x": 0.2513069784,
				"y": 5.3421079462,
				"z": -2.2116806205,
				"element": "C" 
			},
			{
				"x": 0.0922349747,
				"y": 4.0445239113,
				"z": -1.7219866026,
				"element": "C" 
			},
			{
				"x": 0.425649499,
				"y": 3.7157523862,
				"z": -0.4038329769,
				"element": "C" 
			},
			{
				"x": 0.9355252049,
				"y": 4.686383546,
				"z": 0.4575528892,
				"element": "C" 
			},
			{
				"x": 1.3030120902,
				"y": 4.4723865031,
				"z": 1.763255855,
				"element": "O" 
			},
			{
				"x": 1.265876708,
				"y": 3.166926154,
				"z": 2.2823515877,
				"element": "C" 
			},
			{
				"x": -0.1577806618,
				"y": 2.7314115509,
				"z": 2.677611109,
				"element": "C" 
			},
			{
				"x": -1.1183016048,
				"y": 3.471419193,
				"z": 2.5266773512,
				"element": "O" 
			},
			{
				"x": -0.2590113833,
				"y": 1.4702131497,
				"z": 3.2179449555,
				"element": "N" 
			},
			{
				"x": 0.8791704319,
				"y": 0.5535693194,
				"z": 3.383507491,
				"element": "C" 
			},
			{
				"x": 0.4249560415,
				"y": -0.724539784,
				"z": 4.0892715948,
				"element": "C" 
			},
			{
				"x": -0.7231526236,
				"y": -1.3171893867,
				"z": 3.4075318689,
				"element": "N" 
			},
			{
				"x": -1.8288862188,
				"y": -0.4202768316,
				"z": 3.041809464,
				"element": "C" 
			},
			{
				"x": -1.5801297013,
				"y": 0.9781312299,
				"z": 3.6071764891,
				"element": "C" 
			},
			{
				"x": -0.6863242354,
				"y": -2.6576053294,
				"z": 3.0904961379,
				"element": "C" 
			},
			{
				"x": 0.262476347,
				"y": -3.3746936761,
				"z": 3.3795496238,
				"element": "O" 
			},
			{
				"x": -1.9284789049,
				"y": -3.1969373101,
				"z": 2.3620691212,
				"element": "C" 
			},
			{
				"x": -1.8106669874,
				"y": -4.5708915501,
				"z": 2.063354751,
				"element": "O" 
			},
			{
				"x": -1.0947878825,
				"y": -4.9014914684,
				"z": 0.9280132486,
				"element": "C" 
			},
			{
				"x": 0.1143344251,
				"y": -5.5763820542,
				"z": 1.0528756678,
				"element": "C" 
			},
			{
				"x": 0.8023707012,
				"y": -6.0132552766,
				"z": -0.0800528177,
				"element": "C" 
			},
			{
				"x": 0.2963265999,
				"y": -5.7698690003,
				"z": -1.3609897251,
				"element": "C" 
			},
			{
				"x": 1.0590636812,
				"y": -6.2184479527,
				"z": -2.5916080512,
				"element": "C" 
			},
			{
				"x": 2.261396148,
				"y": -5.3178369217,
				"z": -2.9530069255,
				"element": "C" 
			},
			{
				"x": 1.8724239167,
				"y": -3.8975796983,
				"z": -3.3730159324,
				"element": "C" 
			},
			{
				"x": -0.9228276242,
				"y": -5.0852318321,
				"z": -1.4833772703,
				"element": "C" 
			},
			{
				"x": -1.6261977051,
				"y": -4.6540051503,
				"z": -0.3544266306,
				"element": "C" 
			},
			{
				"x": -2.8248896642,
				"y": -3.9916137362,
				"z": -0.3909732538,
				"element": "O" 
			},
			{
				"x": -3.4300978249,
				"y": -3.7737636758,
				"z": -1.655213901,
				"element": "C" 
			},
			{
				"x": 1.1163275057,
				"y": 6.0014113296,
				"z": -0.0240110418,
				"element": "C" 
			},
			{
				"x": 1.5726969938,
				"y": 7.0097120799,
				"z": 0.7919519755,
				"element": "O" 
			},
			{
				"x": 2.9457705852,
				"y": 6.9266511555,
				"z": 1.1728056538,
				"element": "C" 
			},
			{
				"x": 0.773482542,
				"y": 6.3073150469,
				"z": -1.336791092,
				"element": "C" 
			},
			{
				"x": -3.5991416218,
				"y": 6.3372270383,
				"z": -3.3883307508,
				"element": "H" 
			},
			{
				"x": -2.8301861811,
				"y": 4.8334206668,
				"z": -3.913812765,
				"element": "H" 
			},
			{
				"x": -2.6121875263,
				"y": 5.4044381066,
				"z": -2.2537821892,
				"element": "H" 
			},
			{
				"x": -1.3666822253,
				"y": 7.4270475015,
				"z": -3.1266478894,
				"element": "H" 
			},
			{
				"x": -1.5766220224,
				"y": 6.8467798939,
				"z": -4.7711660282,
				"element": "H" 
			},
			{
				"x": -0.2230881484,
				"y": 4.8046778491,
				"z": -4.2327646781,
				"element": "H" 
			},
			{
				"x": 0.6682391751,
				"y": 6.3110036633,
				"z": -4.0782288827,
				"element": "H" 
			},
			{
				"x": -0.3074870945,
				"y": 3.2700996339,
				"z": -2.3713700132,
				"element": "H" 
			},
			{
				"x": 0.2546366604,
				"y": 2.7039334184,
				"z": -0.0553805552,
				"element": "H" 
			},
			{
				"x": 1.7158462691,
				"y": 2.443512207,
				"z": 1.58739162,
				"element": "H" 
			},
			{
				"x": 1.8952864624,
				"y": 3.1896632254,
				"z": 3.1789672573,
				"element": "H" 
			},
			{
				"x": 1.6743597744,
				"y": 1.0203643071,
				"z": 3.978981611,
				"element": "H" 
			},
			{
				"x": 1.306401235,
				"y": 0.288834176,
				"z": 2.4069877279,
				"element": "H" 
			},
			{
				"x": 1.2226794115,
				"y": -1.4676967979,
				"z": 4.0782653084,
				"element": "H" 
			},
			{
				"x": 0.184640012,
				"y": -0.5109041534,
				"z": 5.1390775423,
				"element": "H" 
			},
			{
				"x": -1.9249883472,
				"y": -0.3523397376,
				"z": 1.9499990307,
				"element": "H" 
			},
			{
				"x": -2.783019132,
				"y": -0.7935498984,
				"z": 3.4351135452,
				"element": "H" 
			},
			{
				"x": -1.6808038542,
				"y": 0.969005534,
				"z": 4.7002242486,
				"element": "H" 
			},
			{
				"x": -2.3136826107,
				"y": 1.6828609189,
				"z": 3.2148329547,
				"element": "H" 
			},
			{
				"x": -2.1371717069,
				"y": -2.6083173993,
				"z": 1.4607734707,
				"element": "H" 
			},
			{
				"x": -2.8002606202,
				"y": -3.0991032842,
				"z": 3.0202880575,
				"element": "H" 
			},
			{
				"x": 0.4973807808,
				"y": -5.7372984387,
				"z": 2.0536544368,
				"element": "H" 
			},
			{
				"x": 1.7420129919,
				"y": -6.5467930417,
				"z": 0.036896594,
				"element": "H" 
			},
			{
				"x": 1.4262971315,
				"y": -7.23987011,
				"z": -2.432328675,
				"element": "H" 
			},
			{
				"x": 0.3776065083,
				"y": -6.2651357532,
				"z": -3.4506828334,
				"element": "H" 
			},
			{
				"x": 2.8213073529,
				"y": -5.7984226387,
				"z": -3.7656014998,
				"element": "H" 
			},
			{
				"x": 2.9423414378,
				"y": -5.2729899791,
				"z": -2.0936297623,
				"element": "H" 
			},
			{
				"x": 1.332221873,
				"y": -3.3803821632,
				"z": -2.573831655,
				"element": "H" 
			},
			{
				"x": 2.7579375849,
				"y": -3.3026160582,
				"z": -3.6196322259,
				"element": "H" 
			},
			{
				"x": 1.2248350921,
				"y": -3.9105647559,
				"z": -4.2579720082,
				"element": "H" 
			},
			{
				"x": -1.3241394943,
				"y": -4.9045926235,
				"z": -2.4744307287,
				"element": "H" 
			},
			{
				"x": -2.8093209852,
				"y": -3.1390374474,
				"z": -2.3011083163,
				"element": "H" 
			},
			{
				"x": -3.6328703597,
				"y": -4.7195100202,
				"z": -2.1733267392,
				"element": "H" 
			},
			{
				"x": -4.3745933606,
				"y": -3.2654832816,
				"z": -1.4538759781,
				"element": "H" 
			},
			{
				"x": 3.1507316703,
				"y": 7.816878377,
				"z": 1.7715436013,
				"element": "H" 
			},
			{
				"x": 3.1457656764,
				"y": 6.03266997,
				"z": 1.7715897985,
				"element": "H" 
			},
			{
				"x": 3.5998304685,
				"y": 6.9282619444,
				"z": 0.2903731397,
				"element": "H" 
			},
			{
				"x": 0.9244224895,
				"y": 7.3324143251,
				"z": -1.6644497759,
				"element": "H" 
			}
		],
		 "valence_orbital": [ 
			{
				"type": "occ",
				"energy": -0.24851,
				"method": "rhf"
			},
			{
				"type": "occ",
				"energy": -0.23285,
				"method": "rhf"
			},
			{
				"type": "occ",
				"energy": -0.23258,
				"method": "rhf"
			},
			{
				"type": "occ",
				"energy": -0.20908,
				"method": "rhf"
			},
			{
				"type": "occ",
				"energy": -0.20645,
				"method": "rhf"
			},
			{
				"type": "unocc",
				"energy": 0.006,
				"method": "rhf"
			},
			{
				"type": "unocc",
				"energy": 0.00715,
				"method": "rhf"
			},
			{
				"type": "unocc",
				"energy": 0.01327,
				"method": "rhf"
			},
			{
				"type": "unocc",
				"energy": 0.01416,
				"method": "rhf"
			},
			{
				"type": "unocc",
				"energy": 0.01815,
				"method": "rhf"
			}
		],
		"cosmo_sigma_profile": { 
			"-0.025": 0.0,
			"-0.024": 0.0,
			"-0.023": 0.0,
			"-0.022": 0.0,
			"-0.021": 0.0,
			"-0.02": 0.0,
			"-0.019": 0.0,
			"-0.018": 0.0,
			"-0.017": 0.0,
			"-0.016": 0.0,
			"-0.015": 0.0,
			"-0.014": 0.0,
			"-0.013": 0.0,
			"-0.012": 0.0,
			"-0.011": 0.0103115577947,
			"-0.01": 0.20016883431,
			"-0.009": 3.37451740472,
			"-0.008": 9.04331766867,
			"-0.007": 13.1360802424,
			"-0.006": 26.0788838016,
			"-0.005": 47.4371479342,
			"-0.004": 43.5212861058,
			"-0.003": 54.3340270817,
			"-0.002": 61.7633304351,
			"-0.001": 51.8963686624,
			"0.0": 52.2904025361,
			"0.001": 49.2400139952,
			"0.002": 32.9649643803,
			"0.003": 19.6300007552,
			"0.004": 20.4209452969,
			"0.005": 21.0445556465,
			"0.006": 14.7495465198,
			"0.007": 8.66046199239,
			"0.008": 8.29749940381,
			"0.009": 7.18740639017,
			"0.01": 7.40052652014,
			"0.011": 9.98820015695,
			"0.012": 8.70729579511,
			"0.013": 9.01510486654,
			"0.014": 4.12198302548,
			"0.015": 0.215752211718,
			"0.016": 0.0,
			"0.017": 0.0,
			"0.018": 0.0,
			"0.019": 0.0,
			"0.02": 0.0,
			"0.021": 0.0,
			"0.022": 0.0,
			"0.023": 0.0,
			"0.024": 0.0,
			"0.025": 0.0
		}
	}
}
