{
	 "smiles": "[O-][N+](=O)C1=CC=C(OC2=CC=CC=C2)C=C1", 
	 "Tm": 331.15, 
	 "num_atms": 25, 
	 "gaussian": { 
		 "optdone": 1, 
		 "sigma_profile": "yes", 
		 "theory": "DFT", 
		 "functional": "B3LYP", 
		 "basiset": "6-31G**", 
		 "properties": { 
			 "R2extent": 6309.6505, 
			 "electric_dipole_moment_norm": 5.87457540508, 
			 "electric_quadrupole_moment_norm": 29.19132919, 
			 "total_energy": -743.016006758, 
			 "HOMO_LUMO_gap": 0.16784, 
			 "cosmo_polarized_energy": -9.95, 
			 "cosmo_cavitation_energy": 30.73, 
			 "cosmo_dispersion_energy": -22.18, 
			 "cosmo_repulsion_energy": 1.72, 
			 "cosmo_total_nonelectrostatic_energy": 10.27, 
			 "SMD_solvation_energy": 7.76 
		},
		"coords": [
			{
				"x": 2.4286192195,
				"y": 5.0649990813,
				"z": -3.8752456293,
				"element": "O" 
			},
			{
				"x": 2.028486581,
				"y": 3.9019321183,
				"z": -3.9526884872,
				"element": "N" 
			},
			{
				"x": 1.8875571211,
				"y": 3.2809763501,
				"z": -5.0079442707,
				"element": "O" 
			},
			{
				"x": 1.6982750839,
				"y": 3.2115428109,
				"z": -2.7060270797,
				"element": "C" 
			},
			{
				"x": 1.8435322951,
				"y": 3.8874375985,
				"z": -1.4917425806,
				"element": "C" 
			},
			{
				"x": 1.5272328306,
				"y": 3.2305390359,
				"z": -0.312826393,
				"element": "C" 
			},
			{
				"x": 1.068883502,
				"y": 1.9038725687,
				"z": -0.3508754939,
				"element": "C" 
			},
			{
				"x": 0.8026506695,
				"y": 1.3377641007,
				"z": 0.863646198,
				"element": "O" 
			},
			{
				"x": 0.1966221361,
				"y": 0.0855608192,
				"z": 0.9384268477,
				"element": "C" 
			},
			{
				"x": 0.9704298213,
				"y": -1.0048575595,
				"z": 1.3306880452,
				"element": "C" 
			},
			{
				"x": 0.3580879225,
				"y": -2.2495086187,
				"z": 1.4906619899,
				"element": "C" 
			},
			{
				"x": -1.0104861968,
				"y": -2.3965762466,
				"z": 1.2559982233,
				"element": "C" 
			},
			{
				"x": -1.7727372269,
				"y": -1.2929119743,
				"z": 0.8649059861,
				"element": "C" 
			},
			{
				"x": -1.1733033868,
				"y": -0.0427071389,
				"z": 0.7065186936,
				"element": "C" 
			},
			{
				"x": 0.9299418071,
				"y": 1.2327366224,
				"z": -1.5741503643,
				"element": "C" 
			},
			{
				"x": 1.2468008486,
				"y": 1.8938369048,
				"z": -2.7561112697,
				"element": "C" 
			},
			{
				"x": 2.1976900986,
				"y": 4.9106006179,
				"z": -1.4926006422,
				"element": "H" 
			},
			{
				"x": 1.6256904709,
				"y": 3.7207965312,
				"z": 0.6493887518,
				"element": "H" 
			},
			{
				"x": 2.0309894418,
				"y": -0.8659527029,
				"z": 1.5126641573,
				"element": "H" 
			},
			{
				"x": 0.9535390517,
				"y": -3.1035492314,
				"z": 1.7991851157,
				"element": "H" 
			},
			{
				"x": -1.4827116718,
				"y": -3.3660432125,
				"z": 1.381516958,
				"element": "H" 
			},
			{
				"x": -2.8386936188,
				"y": -1.4015204419,
				"z": 0.6884184407,
				"element": "H" 
			},
			{
				"x": -1.7526473831,
				"y": 0.8276205535,
				"z": 0.415679251,
				"element": "H" 
			},
			{
				"x": 0.5816445046,
				"y": 0.2074651073,
				"z": -1.5989482675,
				"element": "H" 
			},
			{
				"x": 1.1522060782,
				"y": 1.4030463061,
				"z": -3.71673818,
				"element": "H" 
			}
		],
		 "valence_orbital": [ 
			{
				"type": "occ",
				"energy": -0.28291,
				"method": "rhf"
			},
			{
				"type": "occ",
				"energy": -0.27946,
				"method": "rhf"
			},
			{
				"type": "occ",
				"energy": -0.27134,
				"method": "rhf"
			},
			{
				"type": "occ",
				"energy": -0.26446,
				"method": "rhf"
			},
			{
				"type": "occ",
				"energy": -0.24813,
				"method": "rhf"
			},
			{
				"type": "unocc",
				"energy": -0.08029,
				"method": "rhf"
			},
			{
				"type": "unocc",
				"energy": -0.03078,
				"method": "rhf"
			},
			{
				"type": "unocc",
				"energy": -0.01809,
				"method": "rhf"
			},
			{
				"type": "unocc",
				"energy": -0.01764,
				"method": "rhf"
			},
			{
				"type": "unocc",
				"energy": 0.01311,
				"method": "rhf"
			}
		],
		"cosmo_sigma_profile": { 
			"-0.025": 0.0,
			"-0.024": 0.0,
			"-0.023": 0.0,
			"-0.022": 0.0,
			"-0.021": 0.0,
			"-0.02": 0.0,
			"-0.019": 0.0,
			"-0.018": 0.0,
			"-0.017": 0.0,
			"-0.016": 0.0,
			"-0.015": 0.0,
			"-0.014": 0.0,
			"-0.013": 0.0,
			"-0.012": 0.0,
			"-0.011": 0.0,
			"-0.01": 0.0,
			"-0.009": 0.0,
			"-0.008": 2.04644336129,
			"-0.007": 9.75497196256,
			"-0.006": 16.4296286021,
			"-0.005": 18.5671007221,
			"-0.004": 17.4233299037,
			"-0.003": 15.4618706892,
			"-0.002": 17.9255510218,
			"-0.001": 19.6901213718,
			"0.0": 20.3486026354,
			"0.001": 24.1524800229,
			"0.002": 19.9893944138,
			"0.003": 14.2731201869,
			"0.004": 11.9983869355,
			"0.005": 7.75494479655,
			"0.006": 4.54809759699,
			"0.007": 6.79340746888,
			"0.008": 10.7045568342,
			"0.009": 4.64393407953,
			"0.01": 4.0974454152,
			"0.011": 0.877796239498,
			"0.012": 0.0,
			"0.013": 0.0,
			"0.014": 0.0,
			"0.015": 0.0,
			"0.016": 0.0,
			"0.017": 0.0,
			"0.018": 0.0,
			"0.019": 0.0,
			"0.02": 0.0,
			"0.021": 0.0,
			"0.022": 0.0,
			"0.023": 0.0,
			"0.024": 0.0,
			"0.025": 0.0
		}
	}
}
