{
	 "smiles": "FC(F)(F)C(Br)(C(=O)NC1CCCCC1)C(F)(F)F", 
	 "Tm": 360.15, 
	 "num_atms": 31, 
	 "gaussian": { 
		 "optdone": 1, 
		 "sigma_profile": "yes", 
		 "theory": "DFT", 
		 "functional": "B3LYP", 
		 "basiset": "6-31G**", 
		 "properties": { 
			 "R2extent": 7792.9233, 
			 "electric_dipole_moment_norm": 3.58403562622, 
			 "electric_quadrupole_moment_norm": 7.03501986991, 
			 "total_energy": -3688.73508263, 
			 "HOMO_LUMO_gap": 0.22591, 
			 "cosmo_polarized_energy": -8.01, 
			 "cosmo_cavitation_energy": 36.11, 
			 "cosmo_dispersion_energy": -24.53, 
			 "cosmo_repulsion_energy": 1.78, 
			 "cosmo_total_nonelectrostatic_energy": 13.37, 
			 "SMD_solvation_energy": 6.48 
		},
		"coords": [
			{
				"x": 2.0342202739,
				"y": 1.2730582465,
				"z": -3.404977932,
				"element": "F" 
			},
			{
				"x": 1.1051205617,
				"y": 1.3860893882,
				"z": -2.4501707337,
				"element": "C" 
			},
			{
				"x": 0.7769589182,
				"y": 2.6782080572,
				"z": -2.3192684698,
				"element": "F" 
			},
			{
				"x": 1.6844447323,
				"y": 0.9958115483,
				"z": -1.2858408689,
				"element": "F" 
			},
			{
				"x": -0.1580969221,
				"y": 0.5413680979,
				"z": -2.7485428791,
				"element": "C" 
			},
			{
				"x": -0.8285141765,
				"y": 1.0973230669,
				"z": -4.5021601596,
				"element": "Br" 
			},
			{
				"x": -1.2814836351,
				"y": 0.8253257159,
				"z": -1.6677982114,
				"element": "C" 
			},
			{
				"x": -2.3355460419,
				"y": 1.3491389592,
				"z": -1.9756591163,
				"element": "O" 
			},
			{
				"x": -0.9544482297,
				"y": 0.4530094797,
				"z": -0.4100055745,
				"element": "N" 
			},
			{
				"x": -1.8636992209,
				"y": 0.699650827,
				"z": 0.7227285489,
				"element": "C" 
			},
			{
				"x": -1.85738523,
				"y": 2.1890559396,
				"z": 1.1685222149,
				"element": "C" 
			},
			{
				"x": -0.8736981592,
				"y": 2.475934859,
				"z": 2.3259498811,
				"element": "C" 
			},
			{
				"x": 0.3596709521,
				"y": 1.5650877493,
				"z": 2.2586152798,
				"element": "C" 
			},
			{
				"x": -0.0408132762,
				"y": 0.0774960305,
				"z": 2.4181890325,
				"element": "C" 
			},
			{
				"x": -1.468082243,
				"y": -0.216174298,
				"z": 1.8878976749,
				"element": "C" 
			},
			{
				"x": 0.1713507076,
				"y": -0.9679380802,
				"z": -2.8424975274,
				"element": "C" 
			},
			{
				"x": 0.7334276199,
				"y": -1.4141201182,
				"z": -1.6906261747,
				"element": "F" 
			},
			{
				"x": -0.9486544805,
				"y": -1.6742847409,
				"z": -3.042308861,
				"element": "F" 
			},
			{
				"x": 1.0335954122,
				"y": -1.242070055,
				"z": -3.8276026767,
				"element": "F" 
			},
			{
				"x": -0.0564480278,
				"y": 0.0312942192,
				"z": -0.2320988415,
				"element": "H" 
			},
			{
				"x": -2.8645994482,
				"y": 0.4451802084,
				"z": 0.3640778085,
				"element": "H" 
			},
			{
				"x": -2.8737447216,
				"y": 2.4649387774,
				"z": 1.4708461644,
				"element": "H" 
			},
			{
				"x": -1.6219182129,
				"y": 2.8075426863,
				"z": 0.2976341542,
				"element": "H" 
			},
			{
				"x": -1.3760422507,
				"y": 2.320539173,
				"z": 3.2899826814,
				"element": "H" 
			},
			{
				"x": -0.5755303255,
				"y": 3.5296384869,
				"z": 2.3059742866,
				"element": "H" 
			},
			{
				"x": 0.86343353,
				"y": 1.7194679547,
				"z": 1.2962493773,
				"element": "H" 
			},
			{
				"x": 1.0868693261,
				"y": 1.8403627239,
				"z": 3.0299737572,
				"element": "H" 
			},
			{
				"x": 0.6948035793,
				"y": -0.5618815451,
				"z": 1.9138777191,
				"element": "H" 
			},
			{
				"x": 0.0010710202,
				"y": -0.2089001928,
				"z": 3.4749148054,
				"element": "H" 
			},
			{
				"x": -1.564597476,
				"y": -1.2681325916,
				"z": 1.5977708082,
				"element": "H" 
			},
			{
				"x": -2.1992645555,
				"y": -0.0475205733,
				"z": 2.6861538323,
				"element": "H" 
			}
		],
		 "valence_orbital": [ 
			{
				"type": "occ",
				"energy": -0.3133,
				"method": "rhf"
			},
			{
				"type": "occ",
				"energy": -0.30083,
				"method": "rhf"
			},
			{
				"type": "occ",
				"energy": -0.29539,
				"method": "rhf"
			},
			{
				"type": "occ",
				"energy": -0.2756,
				"method": "rhf"
			},
			{
				"type": "occ",
				"energy": -0.26706,
				"method": "rhf"
			},
			{
				"type": "unocc",
				"energy": -0.04115,
				"method": "rhf"
			},
			{
				"type": "unocc",
				"energy": -0.00449,
				"method": "rhf"
			},
			{
				"type": "unocc",
				"energy": 0.06094,
				"method": "rhf"
			},
			{
				"type": "unocc",
				"energy": 0.08071,
				"method": "rhf"
			},
			{
				"type": "unocc",
				"energy": 0.08833,
				"method": "rhf"
			}
		],
		"cosmo_sigma_profile": { 
			"-0.025": 0.0,
			"-0.024": 0.0,
			"-0.023": 0.0,
			"-0.022": 0.0,
			"-0.021": 0.0,
			"-0.02": 0.0,
			"-0.019": 0.0,
			"-0.018": 0.0,
			"-0.017": 0.0,
			"-0.016": 0.0,
			"-0.015": 0.0,
			"-0.014": 0.0,
			"-0.013": 0.0,
			"-0.012": 0.0,
			"-0.011": 0.00355127508636,
			"-0.01": 0.527599691036,
			"-0.009": 1.35571548276,
			"-0.008": 1.53891087434,
			"-0.007": 2.26845438032,
			"-0.006": 2.19147167785,
			"-0.005": 4.84829474197,
			"-0.004": 11.6174110509,
			"-0.003": 28.9894527241,
			"-0.002": 35.9716194648,
			"-0.001": 36.0078624629,
			"0.0": 43.9085571977,
			"0.001": 61.204306124,
			"0.002": 27.9920200576,
			"0.003": 6.55471298936,
			"0.004": 2.32558740146,
			"0.005": 1.99434404967,
			"0.006": 2.51530260251,
			"0.007": 1.71020438549,
			"0.008": 1.63024804974,
			"0.009": 1.80078435501,
			"0.01": 1.87089634063,
			"0.011": 3.12232934511,
			"0.012": 4.72170996842,
			"0.013": 0.395665368322,
			"0.014": 0.0,
			"0.015": 0.0,
			"0.016": 0.0,
			"0.017": 0.0,
			"0.018": 0.0,
			"0.019": 0.0,
			"0.02": 0.0,
			"0.021": 0.0,
			"0.022": 0.0,
			"0.023": 0.0,
			"0.024": 0.0,
			"0.025": 0.0
		}
	}
}
