{
	 "smiles": "CC1=CC=C(C=C1)C1=CC=C(O1)C=O", 
	 "Tm": 327.15, 
	 "num_atms": 24, 
	 "gaussian": { 
		 "optdone": 1, 
		 "sigma_profile": "yes", 
		 "theory": "DFT", 
		 "functional": "B3LYP", 
		 "basiset": "6-31G**", 
		 "properties": { 
			 "R2extent": 4871.1475, 
			 "electric_dipole_moment_norm": 4.90012712284, 
			 "electric_quadrupole_moment_norm": 20.0885540814, 
			 "total_energy": -613.735085409, 
			 "HOMO_LUMO_gap": 0.1484, 
			 "cosmo_polarized_energy": -9.33, 
			 "cosmo_cavitation_energy": 29.14, 
			 "cosmo_dispersion_energy": -21.06, 
			 "cosmo_repulsion_energy": 1.64, 
			 "cosmo_total_nonelectrostatic_energy": 9.72, 
			 "SMD_solvation_energy": 6.53 
		},
		"coords": [
			{
				"x": -1.3070990713,
				"y": -3.0522388659,
				"z": -1.942284677,
				"element": "C" 
			},
			{
				"x": -0.4069316661,
				"y": -2.15470164,
				"z": -1.1286446445,
				"element": "C" 
			},
			{
				"x": 0.2359132581,
				"y": -2.6284669118,
				"z": 0.0245547348,
				"element": "C" 
			},
			{
				"x": 1.0426882867,
				"y": -1.7982181181,
				"z": 0.794398068,
				"element": "C" 
			},
			{
				"x": 1.2381710384,
				"y": -0.4535191862,
				"z": 0.4329070135,
				"element": "C" 
			},
			{
				"x": 0.5995898588,
				"y": 0.0260207735,
				"z": -0.7240445067,
				"element": "C" 
			},
			{
				"x": -0.2053275467,
				"y": -0.8143779719,
				"z": -1.4864257365,
				"element": "C" 
			},
			{
				"x": 2.0857377494,
				"y": 0.415588212,
				"z": 1.237607447,
				"element": "C" 
			},
			{
				"x": 2.8180593794,
				"y": 0.2148244844,
				"z": 2.3932382207,
				"element": "C" 
			},
			{
				"x": 3.4421471491,
				"y": 1.4460451941,
				"z": 2.702010013,
				"element": "C" 
			},
			{
				"x": 3.062519878,
				"y": 2.3355263218,
				"z": 1.724266847,
				"element": "C" 
			},
			{
				"x": 2.232802136,
				"y": 1.7046175179,
				"z": 0.8289712316,
				"element": "O" 
			},
			{
				"x": 3.36674897,
				"y": 3.7353036612,
				"z": 1.4890263659,
				"element": "C" 
			},
			{
				"x": 4.0898347944,
				"y": 4.4015538929,
				"z": 2.2129981181,
				"element": "O" 
			},
			{
				"x": -0.989671639,
				"y": -4.097684515,
				"z": -1.8840603343,
				"element": "H" 
			},
			{
				"x": -1.3189320541,
				"y": -2.7585580861,
				"z": -2.9961238372,
				"element": "H" 
			},
			{
				"x": -2.3422243565,
				"y": -3.006311103,
				"z": -1.5804935361,
				"element": "H" 
			},
			{
				"x": 0.1027596456,
				"y": -3.6654690623,
				"z": 0.3222509411,
				"element": "H" 
			},
			{
				"x": 1.527396496,
				"y": -2.1979707983,
				"z": 1.6799142271,
				"element": "H" 
			},
			{
				"x": 0.7422508283,
				"y": 1.0590151795,
				"z": -1.0218072718,
				"element": "H" 
			},
			{
				"x": -0.686171416,
				"y": -0.4224616155,
				"z": -2.3791841495,
				"element": "H" 
			},
			{
				"x": 2.8943576153,
				"y": -0.7082150417,
				"z": 2.9486745175,
				"element": "H" 
			},
			{
				"x": 4.0931784238,
				"y": 1.6744558517,
				"z": 3.5331206737,
				"element": "H" 
			},
			{
				"x": 2.8828022425,
				"y": 4.1603418265,
				"z": 0.5842302746,
				"element": "H" 
			}
		],
		 "valence_orbital": [ 
			{
				"type": "occ",
				"energy": -0.29717,
				"method": "rhf"
			},
			{
				"type": "occ",
				"energy": -0.27952,
				"method": "rhf"
			},
			{
				"type": "occ",
				"energy": -0.26167,
				"method": "rhf"
			},
			{
				"type": "occ",
				"energy": -0.25203,
				"method": "rhf"
			},
			{
				"type": "occ",
				"energy": -0.21626,
				"method": "rhf"
			},
			{
				"type": "unocc",
				"energy": -0.06786,
				"method": "rhf"
			},
			{
				"type": "unocc",
				"energy": -0.01885,
				"method": "rhf"
			},
			{
				"type": "unocc",
				"energy": -0.01049,
				"method": "rhf"
			},
			{
				"type": "unocc",
				"energy": 0.05869,
				"method": "rhf"
			},
			{
				"type": "unocc",
				"energy": 0.0855,
				"method": "rhf"
			}
		],
		"cosmo_sigma_profile": { 
			"-0.025": 0.0,
			"-0.024": 0.0,
			"-0.023": 0.0,
			"-0.022": 0.0,
			"-0.021": 0.0,
			"-0.02": 0.0,
			"-0.019": 0.0,
			"-0.018": 0.0,
			"-0.017": 0.0,
			"-0.016": 0.0,
			"-0.015": 0.0,
			"-0.014": 0.0,
			"-0.013": 0.0,
			"-0.012": 0.0,
			"-0.011": 0.0,
			"-0.01": 0.0,
			"-0.009": 1.085923963,
			"-0.008": 4.05661903675,
			"-0.007": 5.40270356841,
			"-0.006": 9.47768887513,
			"-0.005": 15.6242835848,
			"-0.004": 20.6177971487,
			"-0.003": 17.7240154608,
			"-0.002": 17.3714602245,
			"-0.001": 19.0672068795,
			"0.0": 22.6733855108,
			"0.001": 23.4630834002,
			"0.002": 19.6906230028,
			"0.003": 16.3773792214,
			"0.004": 12.7357908858,
			"0.005": 9.69068339899,
			"0.006": 1.48335597272,
			"0.007": 0.908689103187,
			"0.008": 2.14845196688,
			"0.009": 1.74670025557,
			"0.01": 1.88252821955,
			"0.011": 3.66699642609,
			"0.012": 4.72667122053,
			"0.013": 1.90904034212,
			"0.014": 0.226237287812,
			"0.015": 0.0,
			"0.016": 0.0,
			"0.017": 0.0,
			"0.018": 0.0,
			"0.019": 0.0,
			"0.02": 0.0,
			"0.021": 0.0,
			"0.022": 0.0,
			"0.023": 0.0,
			"0.024": 0.0,
			"0.025": 0.0
		}
	}
}
