{
	 "smiles": "CCNC(=O)C(C)OC(=O)NC1=CC=CC=C1", 
	 "Tm": 392.15, 
	 "num_atms": 33, 
	 "gaussian": { 
		 "optdone": 1, 
		 "sigma_profile": "yes", 
		 "theory": "DFT", 
		 "functional": "B3LYP", 
		 "basiset": "6-31G**", 
		 "properties": { 
			 "R2extent": 5052.8691, 
			 "electric_dipole_moment_norm": 4.81298640139, 
			 "electric_quadrupole_moment_norm": 7.85558074874, 
			 "total_energy": -802.145892325, 
			 "HOMO_LUMO_gap": 0.21589, 
			 "cosmo_polarized_energy": -16.01, 
			 "cosmo_cavitation_energy": 37.16, 
			 "cosmo_dispersion_energy": -25.12, 
			 "cosmo_repulsion_energy": 2.01, 
			 "cosmo_total_nonelectrostatic_energy": 14.04, 
			 "SMD_solvation_energy": 7.58 
		},
		"coords": [
			{
				"x": -3.3906931108,
				"y": -1.2892869983,
				"z": 1.8463988882,
				"element": "C" 
			},
			{
				"x": -2.2577503602,
				"y": -2.0312249876,
				"z": 1.1320183968,
				"element": "C" 
			},
			{
				"x": -1.5901343767,
				"y": -1.2153075433,
				"z": 0.1260900802,
				"element": "N" 
			},
			{
				"x": -1.79917094,
				"y": -1.3863523643,
				"z": -1.2048437663,
				"element": "C" 
			},
			{
				"x": -2.5158629502,
				"y": -2.2563116728,
				"z": -1.6892415666,
				"element": "O" 
			},
			{
				"x": -1.0857411299,
				"y": -0.4020190475,
				"z": -2.1426772737,
				"element": "C" 
			},
			{
				"x": -0.3093107084,
				"y": -1.1267180137,
				"z": -3.2349084741,
				"element": "C" 
			},
			{
				"x": -0.1988050294,
				"y": 0.4411097895,
				"z": -1.3585083768,
				"element": "O" 
			},
			{
				"x": -0.0157148296,
				"y": 1.7067781498,
				"z": -1.8097128843,
				"element": "C" 
			},
			{
				"x": -0.5154910605,
				"y": 2.1623565642,
				"z": -2.8206106674,
				"element": "O" 
			},
			{
				"x": 0.8064857551,
				"y": 2.4477421665,
				"z": -0.9915590072,
				"element": "N" 
			},
			{
				"x": 1.4067545851,
				"y": 2.1651108938,
				"z": 0.257003532,
				"element": "C" 
			},
			{
				"x": 1.7939347467,
				"y": 0.8774851446,
				"z": 0.6589644614,
				"element": "C" 
			},
			{
				"x": 2.4068920341,
				"y": 0.6957972818,
				"z": 1.8995443477,
				"element": "C" 
			},
			{
				"x": 2.6616536061,
				"y": 1.7772678691,
				"z": 2.7432711811,
				"element": "C" 
			},
			{
				"x": 2.2938187641,
				"y": 3.0600073682,
				"z": 2.3330205696,
				"element": "C" 
			},
			{
				"x": 1.6679202315,
				"y": 3.2537176108,
				"z": 1.1043170786,
				"element": "C" 
			},
			{
				"x": -3.8548970856,
				"y": -1.9355918847,
				"z": 2.5988185173,
				"element": "H" 
			},
			{
				"x": -4.1616260859,
				"y": -0.9849046534,
				"z": 1.1325742576,
				"element": "H" 
			},
			{
				"x": -3.0222976059,
				"y": -0.3919504438,
				"z": 2.3557133488,
				"element": "H" 
			},
			{
				"x": -2.6452670034,
				"y": -2.907522017,
				"z": 0.6079470698,
				"element": "H" 
			},
			{
				"x": -1.510785357,
				"y": -2.3752890466,
				"z": 1.8575312461,
				"element": "H" 
			},
			{
				"x": -0.9971392951,
				"y": -0.4505691655,
				"z": 0.4145449553,
				"element": "H" 
			},
			{
				"x": -1.8475840425,
				"y": 0.2402330093,
				"z": -2.592917899,
				"element": "H" 
			},
			{
				"x": 0.0843100486,
				"y": -0.4058384295,
				"z": -3.9548603411,
				"element": "H" 
			},
			{
				"x": 0.5196085288,
				"y": -1.6976032795,
				"z": -2.8052035519,
				"element": "H" 
			},
			{
				"x": -0.9819811628,
				"y": -1.8193618478,
				"z": -3.744125011,
				"element": "H" 
			},
			{
				"x": 0.8527143051,
				"y": 3.4079946369,
				"z": -1.3025998101,
				"element": "H" 
			},
			{
				"x": 1.626576313,
				"y": 0.0331227635,
				"z": 0.0044945411,
				"element": "H" 
			},
			{
				"x": 2.7005841981,
				"y": -0.3066197127,
				"z": 2.1980367636,
				"element": "H" 
			},
			{
				"x": 3.1442992169,
				"y": 1.624322145,
				"z": 3.703402967,
				"element": "H" 
			},
			{
				"x": 2.4866480255,
				"y": 3.9159916794,
				"z": 2.9731082341,
				"element": "H" 
			},
			{
				"x": 1.3709517753,
				"y": 4.2535340361,
				"z": 0.7971681933,
				"element": "H" 
			}
		],
		 "valence_orbital": [ 
			{
				"type": "occ",
				"energy": -0.28864,
				"method": "rhf"
			},
			{
				"type": "occ",
				"energy": -0.26375,
				"method": "rhf"
			},
			{
				"type": "occ",
				"energy": -0.25105,
				"method": "rhf"
			},
			{
				"type": "occ",
				"energy": -0.24748,
				"method": "rhf"
			},
			{
				"type": "occ",
				"energy": -0.23156,
				"method": "rhf"
			},
			{
				"type": "unocc",
				"energy": -0.01567,
				"method": "rhf"
			},
			{
				"type": "unocc",
				"energy": -0.01497,
				"method": "rhf"
			},
			{
				"type": "unocc",
				"energy": 0.02916,
				"method": "rhf"
			},
			{
				"type": "unocc",
				"energy": 0.05002,
				"method": "rhf"
			},
			{
				"type": "unocc",
				"energy": 0.0725,
				"method": "rhf"
			}
		],
		"cosmo_sigma_profile": { 
			"-0.025": 0.0,
			"-0.024": 0.0,
			"-0.023": 0.0,
			"-0.022": 0.0,
			"-0.021": 0.0,
			"-0.02": 0.0,
			"-0.019": 0.0,
			"-0.018": 0.0,
			"-0.017": 0.0,
			"-0.016": 0.0,
			"-0.015": 0.713133986536,
			"-0.014": 1.15983695186,
			"-0.013": 1.05471636341,
			"-0.012": 0.706849672459,
			"-0.011": 1.14720175391,
			"-0.01": 1.91919290759,
			"-0.009": 1.92997899197,
			"-0.008": 2.84108816836,
			"-0.007": 3.69438179255,
			"-0.006": 8.54722297717,
			"-0.005": 17.2071841632,
			"-0.004": 27.4001950307,
			"-0.003": 30.486432725,
			"-0.002": 31.5004725425,
			"-0.001": 29.8727116632,
			"0.0": 27.0902209349,
			"0.001": 19.8388875543,
			"0.002": 13.0781489167,
			"0.003": 12.8072200779,
			"0.004": 10.1319812442,
			"0.005": 12.5969554068,
			"0.006": 7.82933111778,
			"0.007": 2.5574635985,
			"0.008": 2.28796237636,
			"0.009": 2.69092294791,
			"0.01": 1.99669350592,
			"0.011": 4.0940532248,
			"0.012": 5.86128539622,
			"0.013": 5.60068601866,
			"0.014": 4.78994968738,
			"0.015": 0.319068519371,
			"0.016": 0.0,
			"0.017": 0.0,
			"0.018": 0.0,
			"0.019": 0.0,
			"0.02": 0.0,
			"0.021": 0.0,
			"0.022": 0.0,
			"0.023": 0.0,
			"0.024": 0.0,
			"0.025": 0.0
		}
	}
}
