{
	 "smiles": "OC(=O)C1CCC(CC1)C(F)(F)F", 
	 "Tm": 337.15, 
	 "num_atms": 24, 
	 "gaussian": { 
		 "optdone": 1, 
		 "sigma_profile": "yes", 
		 "theory": "DFT", 
		 "functional": "B3LYP", 
		 "basiset": "6-31G**", 
		 "properties": { 
			 "R2extent": 3054.4207, 
			 "electric_dipole_moment_norm": 4.83675595828, 
			 "electric_quadrupole_moment_norm": 8.54269949138, 
			 "total_energy": -761.477091207, 
			 "HOMO_LUMO_gap": 0.27258, 
			 "cosmo_polarized_energy": -14.3, 
			 "cosmo_cavitation_energy": 26.77, 
			 "cosmo_dispersion_energy": -19.05, 
			 "cosmo_repulsion_energy": 1.44, 
			 "cosmo_total_nonelectrostatic_energy": 9.17, 
			 "SMD_solvation_energy": 5.97 
		},
		"coords": [
			{
				"x": -1.0423947317,
				"y": -1.6672226148,
				"z": 2.144941629,
				"element": "O" 
			},
			{
				"x": -1.5672072054,
				"y": -0.8009472707,
				"z": 1.2331912913,
				"element": "C" 
			},
			{
				"x": -2.5068735261,
				"y": -1.1474596721,
				"z": 0.5598860378,
				"element": "O" 
			},
			{
				"x": -0.8859862405,
				"y": 0.5680722095,
				"z": 1.1625779839,
				"element": "C" 
			},
			{
				"x": -1.6587697246,
				"y": 1.5381312827,
				"z": 0.2538937349,
				"element": "C" 
			},
			{
				"x": -1.6351339712,
				"y": 1.1427234815,
				"z": -1.2402375628,
				"element": "C" 
			},
			{
				"x": -0.3367276426,
				"y": 0.3941000623,
				"z": -1.6267030292,
				"element": "C" 
			},
			{
				"x": 0.8398637564,
				"y": 0.8486904046,
				"z": -0.7501132317,
				"element": "C" 
			},
			{
				"x": 0.6132695347,
				"y": 0.4503359175,
				"z": 0.7221600718,
				"element": "C" 
			},
			{
				"x": -0.026385279,
				"y": 0.5645424012,
				"z": -3.1002570409,
				"element": "C" 
			},
			{
				"x": 0.2551961926,
				"y": 1.8536435065,
				"z": -3.4129117216,
				"element": "F" 
			},
			{
				"x": -1.0645708244,
				"y": 0.1840482595,
				"z": -3.8760064398,
				"element": "F" 
			},
			{
				"x": 1.0455558144,
				"y": -0.1740586829,
				"z": -3.4732194104,
				"element": "F" 
			},
			{
				"x": -0.3185438425,
				"y": -1.247261779,
				"z": 2.6309395866,
				"element": "H" 
			},
			{
				"x": -0.9097062762,
				"y": 0.962219549,
				"z": 2.1885042483,
				"element": "H" 
			},
			{
				"x": -2.6946599293,
				"y": 1.6169424119,
				"z": 0.5949317432,
				"element": "H" 
			},
			{
				"x": -1.2098108071,
				"y": 2.5299021336,
				"z": 0.3822033857,
				"element": "H" 
			},
			{
				"x": -1.7203005228,
				"y": 2.0523474343,
				"z": -1.8439112247,
				"element": "H" 
			},
			{
				"x": -2.4932314388,
				"y": 0.5114453901,
				"z": -1.4721637123,
				"element": "H" 
			},
			{
				"x": -0.4874083249,
				"y": -0.6832525286,
				"z": -1.4865455391,
				"element": "H" 
			},
			{
				"x": 0.9445094977,
				"y": 1.9358163927,
				"z": -0.8385367879,
				"element": "H" 
			},
			{
				"x": 1.7771904085,
				"y": 0.4133062889,
				"z": -1.1085882734,
				"element": "H" 
			},
			{
				"x": 0.9643371739,
				"y": -0.5777844406,
				"z": 0.8716847533,
				"element": "H" 
			},
			{
				"x": 1.234687909,
				"y": 1.0841198634,
				"z": 1.3630795076,
				"element": "H" 
			}
		],
		 "valence_orbital": [ 
			{
				"type": "occ",
				"energy": -0.33396,
				"method": "rhf"
			},
			{
				"type": "occ",
				"energy": -0.32716,
				"method": "rhf"
			},
			{
				"type": "occ",
				"energy": -0.3265,
				"method": "rhf"
			},
			{
				"type": "occ",
				"energy": -0.32061,
				"method": "rhf"
			},
			{
				"type": "occ",
				"energy": -0.27334,
				"method": "rhf"
			},
			{
				"type": "unocc",
				"energy": -0.00076,
				"method": "rhf"
			},
			{
				"type": "unocc",
				"energy": 0.04634,
				"method": "rhf"
			},
			{
				"type": "unocc",
				"energy": 0.07227,
				"method": "rhf"
			},
			{
				"type": "unocc",
				"energy": 0.0903,
				"method": "rhf"
			},
			{
				"type": "unocc",
				"energy": 0.12127,
				"method": "rhf"
			}
		],
		"cosmo_sigma_profile": { 
			"-0.025": 0.0,
			"-0.024": 0.0,
			"-0.023": 0.0,
			"-0.022": 0.0,
			"-0.021": 0.0,
			"-0.02": 0.0,
			"-0.019": 0.124796672687,
			"-0.018": 0.961323782087,
			"-0.017": 1.0030953647,
			"-0.016": 0.944692328694,
			"-0.015": 1.00635228077,
			"-0.014": 0.910003455419,
			"-0.013": 0.917973513556,
			"-0.012": 1.37513719843,
			"-0.011": 1.4604210362,
			"-0.01": 1.04864369325,
			"-0.009": 0.612310951272,
			"-0.008": 1.77399092745,
			"-0.007": 2.49195162941,
			"-0.006": 6.22256802728,
			"-0.005": 7.04456851779,
			"-0.004": 18.4975973629,
			"-0.003": 22.5915328062,
			"-0.002": 16.829629213,
			"-0.001": 18.4628603445,
			"0.0": 13.7014221166,
			"0.001": 8.30635131081,
			"0.002": 10.6698263642,
			"0.003": 31.2059153109,
			"0.004": 12.0999875201,
			"0.005": 2.5369842594,
			"0.006": 2.39225514272,
			"0.007": 2.69902917423,
			"0.008": 2.63217497708,
			"0.009": 3.02536680531,
			"0.01": 4.02843020815,
			"0.011": 5.41852857792,
			"0.012": 3.922247996,
			"0.013": 1.7495441542,
			"0.014": 0.0875950748602,
			"0.015": 0.0,
			"0.016": 0.0,
			"0.017": 0.0,
			"0.018": 0.0,
			"0.019": 0.0,
			"0.02": 0.0,
			"0.021": 0.0,
			"0.022": 0.0,
			"0.023": 0.0,
			"0.024": 0.0,
			"0.025": 0.0
		}
	}
}
