{
	 "smiles": "CCOC(=O)C(C#N)C1C2=CC(Br)=CC=C2OC(N)=C1C(=O)OCC", 
	 "Tm": 379.15, 
	 "num_atms": 42, 
	 "gaussian": { 
		 "optdone": 1, 
		 "sigma_profile": "yes", 
		 "theory": "DFT", 
		 "functional": "B3LYP", 
		 "basiset": "6-31G**", 
		 "properties": { 
			 "R2extent": 12160.4219, 
			 "electric_dipole_moment_norm": 6.97853798155, 
			 "electric_quadrupole_moment_norm": 22.7102147385, 
			 "total_energy": -3715.08911726, 
			 "HOMO_LUMO_gap": 0.19285, 
			 "cosmo_polarized_energy": -21.1, 
			 "cosmo_cavitation_energy": 48.92, 
			 "cosmo_dispersion_energy": -32.39, 
			 "cosmo_repulsion_energy": 2.53, 
			 "cosmo_total_nonelectrostatic_energy": 19.05, 
			 "SMD_solvation_energy": 10.05 
		},
		"coords": [
			{
				"x": -1.7649445911,
				"y": 1.0955111854,
				"z": -4.6001845213,
				"element": "C" 
			},
			{
				"x": -1.9460212625,
				"y": -0.0825556159,
				"z": -3.6637723892,
				"element": "C" 
			},
			{
				"x": -1.9493175614,
				"y": 0.4384396153,
				"z": -2.3100688138,
				"element": "O" 
			},
			{
				"x": -2.1400805409,
				"y": -0.4552554655,
				"z": -1.3358493576,
				"element": "C" 
			},
			{
				"x": -2.3998330059,
				"y": -1.627309253,
				"z": -1.4932487422,
				"element": "O" 
			},
			{
				"x": -1.9396136808,
				"y": 0.1774167268,
				"z": 0.0489915512,
				"element": "C" 
			},
			{
				"x": -2.5329130238,
				"y": 1.5151832659,
				"z": 0.1201002964,
				"element": "C" 
			},
			{
				"x": -2.9980353282,
				"y": 2.5762775131,
				"z": 0.1935177681,
				"element": "N" 
			},
			{
				"x": -0.3922001922,
				"y": 0.1974882516,
				"z": 0.431904251,
				"element": "C" 
			},
			{
				"x": -0.1940118726,
				"y": 0.8070451787,
				"z": 1.8009826409,
				"element": "C" 
			},
			{
				"x": -0.0695336138,
				"y": 2.1831552473,
				"z": 2.0228824511,
				"element": "C" 
			},
			{
				"x": 0.0652401486,
				"y": 2.6687893037,
				"z": 3.3213300623,
				"element": "C" 
			},
			{
				"x": 0.2370878601,
				"y": 4.5482512772,
				"z": 3.6072986703,
				"element": "Br" 
			},
			{
				"x": 0.0748667277,
				"y": 1.8073631414,
				"z": 4.4193214541,
				"element": "C" 
			},
			{
				"x": -0.0300532884,
				"y": 0.4347623511,
				"z": 4.2083043861,
				"element": "C" 
			},
			{
				"x": -0.1544584445,
				"y": -0.0430072447,
				"z": 2.9068254873,
				"element": "C" 
			},
			{
				"x": -0.2260340026,
				"y": -1.4193226447,
				"z": 2.7473957485,
				"element": "O" 
			},
			{
				"x": 0.1614736117,
				"y": -1.9530157417,
				"z": 1.5518705571,
				"element": "C" 
			},
			{
				"x": 0.4399466982,
				"y": -3.2671476101,
				"z": 1.7000801467,
				"element": "N" 
			},
			{
				"x": 0.2000738779,
				"y": -1.1970992557,
				"z": 0.4038755977,
				"element": "C" 
			},
			{
				"x": 0.7454899929,
				"y": -1.649430385,
				"z": -0.8674444896,
				"element": "C" 
			},
			{
				"x": 0.7966838777,
				"y": -0.9551045937,
				"z": -1.874026956,
				"element": "O" 
			},
			{
				"x": 1.2235024393,
				"y": -2.9352947288,
				"z": -0.8563024556,
				"element": "O" 
			},
			{
				"x": 1.7887005252,
				"y": -3.4233078589,
				"z": -2.0975020404,
				"element": "C" 
			},
			{
				"x": 3.2478001133,
				"y": -3.0196440909,
				"z": -2.2446959424,
				"element": "C" 
			},
			{
				"x": -2.5806207584,
				"y": 1.8153613625,
				"z": -4.4881390812,
				"element": "H" 
			},
			{
				"x": -0.8199975209,
				"y": 1.6078584339,
				"z": -4.4000919917,
				"element": "H" 
			},
			{
				"x": -1.7543012501,
				"y": 0.7438469828,
				"z": -5.6366746103,
				"element": "H" 
			},
			{
				"x": -2.888012164,
				"y": -0.611352451,
				"z": -3.8367506422,
				"element": "H" 
			},
			{
				"x": -1.1254518498,
				"y": -0.801083371,
				"z": -3.7385405361,
				"element": "H" 
			},
			{
				"x": -2.4559187684,
				"y": -0.4714497337,
				"z": 0.7627270467,
				"element": "H" 
			},
			{
				"x": 0.104507239,
				"y": 0.8042430071,
				"z": -0.3288607899,
				"element": "H" 
			},
			{
				"x": -0.0956229607,
				"y": 2.869765818,
				"z": 1.1849443945,
				"element": "H" 
			},
			{
				"x": 0.1753385736,
				"y": 2.2022179677,
				"z": 5.423400402,
				"element": "H" 
			},
			{
				"x": -0.0048422958,
				"y": -0.2656595735,
				"z": 5.0360826926,
				"element": "H" 
			},
			{
				"x": 0.6570507632,
				"y": -3.5936463916,
				"z": 2.6288606943,
				"element": "H" 
			},
			{
				"x": 0.8231859572,
				"y": -3.7411992382,
				"z": 0.8949873105,
				"element": "H" 
			},
			{
				"x": 1.1878348117,
				"y": -3.0433257329,
				"z": -2.925784305,
				"element": "H" 
			},
			{
				"x": 1.6758969517,
				"y": -4.5088239677,
				"z": -2.0380449906,
				"element": "H" 
			},
			{
				"x": 3.337362894,
				"y": -1.9336080568,
				"z": -2.3198897144,
				"element": "H" 
			},
			{
				"x": 3.6655274471,
				"y": -3.4638051061,
				"z": -3.1545085858,
				"element": "H" 
			},
			{
				"x": 3.8392474669,
				"y": -3.366928518,
				"z": -1.3920026541,
				"element": "H" 
			}
		],
		 "valence_orbital": [ 
			{
				"type": "occ",
				"energy": -0.27672,
				"method": "rhf"
			},
			{
				"type": "occ",
				"energy": -0.2762,
				"method": "rhf"
			},
			{
				"type": "occ",
				"energy": -0.26788,
				"method": "rhf"
			},
			{
				"type": "occ",
				"energy": -0.24075,
				"method": "rhf"
			},
			{
				"type": "occ",
				"energy": -0.22581,
				"method": "rhf"
			},
			{
				"type": "unocc",
				"energy": -0.03296,
				"method": "rhf"
			},
			{
				"type": "unocc",
				"energy": -0.02864,
				"method": "rhf"
			},
			{
				"type": "unocc",
				"energy": -0.01109,
				"method": "rhf"
			},
			{
				"type": "unocc",
				"energy": 0.00132,
				"method": "rhf"
			},
			{
				"type": "unocc",
				"energy": 0.00769,
				"method": "rhf"
			}
		],
		"cosmo_sigma_profile": { 
			"-0.025": 0.0,
			"-0.024": 0.0,
			"-0.023": 0.0,
			"-0.022": 0.0,
			"-0.021": 0.0,
			"-0.02": 0.0,
			"-0.019": 0.0,
			"-0.018": 0.0,
			"-0.017": 0.0,
			"-0.016": 0.02404669625,
			"-0.015": 0.807570464249,
			"-0.014": 1.29175985033,
			"-0.013": 1.08373441611,
			"-0.012": 1.34851180748,
			"-0.011": 1.72466393993,
			"-0.01": 2.480134562,
			"-0.009": 3.98083284441,
			"-0.008": 7.96891790149,
			"-0.007": 10.7434711125,
			"-0.006": 12.1679986591,
			"-0.005": 17.4877849208,
			"-0.004": 32.6755442502,
			"-0.003": 33.3920493896,
			"-0.002": 29.9524264727,
			"-0.001": 31.2155940105,
			"0.0": 36.757403857,
			"0.001": 30.5640234505,
			"0.002": 28.9299345757,
			"0.003": 21.7790032951,
			"0.004": 19.7767799624,
			"0.005": 14.0475944883,
			"0.006": 9.54019258707,
			"0.007": 8.40607750776,
			"0.008": 6.26345991681,
			"0.009": 6.47442583148,
			"0.01": 6.4923602186,
			"0.011": 7.67110563668,
			"0.012": 5.29752589141,
			"0.013": 1.6285722866,
			"0.014": 0.0,
			"0.015": 0.0,
			"0.016": 0.0,
			"0.017": 0.0,
			"0.018": 0.0,
			"0.019": 0.0,
			"0.02": 0.0,
			"0.021": 0.0,
			"0.022": 0.0,
			"0.023": 0.0,
			"0.024": 0.0,
			"0.025": 0.0
		}
	}
}
