{
	 "smiles": "O=C1CCC(=O)N1", 
	 "Tm": 398.15, 
	 "num_atms": 12, 
	 "gaussian": { 
		 "optdone": 1, 
		 "sigma_profile": "yes", 
		 "theory": "DFT", 
		 "functional": "B3LYP", 
		 "basiset": "6-31G**", 
		 "properties": { 
			 "R2extent": 760.7991, 
			 "electric_dipole_moment_norm": 1.92390878162, 
			 "electric_quadrupole_moment_norm": 12.7200284768, 
			 "total_energy": -360.669021493, 
			 "HOMO_LUMO_gap": 0.23832, 
			 "cosmo_polarized_energy": -12.99, 
			 "cosmo_cavitation_energy": 16.1, 
			 "cosmo_dispersion_energy": -12.33, 
			 "cosmo_repulsion_energy": 1.08, 
			 "cosmo_total_nonelectrostatic_energy": 4.84, 
			 "SMD_solvation_energy": 4.34 
		},
		"coords": [
			{
				"x": -1.3910523136,
				"y": 1.39406705,
				"z": 0.3133725145,
				"element": "O" 
			},
			{
				"x": -0.3881941363,
				"y": 0.7508909708,
				"z": 0.0996630299,
				"element": "C" 
			},
			{
				"x": 0.3035970242,
				"y": 0.5050497094,
				"z": -1.2423250489,
				"element": "C" 
			},
			{
				"x": 1.5251629368,
				"y": -0.375132141,
				"z": -0.9200396065,
				"element": "C" 
			},
			{
				"x": 1.481566056,
				"y": -0.5962044528,
				"z": 0.5929580777,
				"element": "C" 
			},
			{
				"x": 2.2536068854,
				"y": -1.2317648372,
				"z": 1.2749313129,
				"element": "O" 
			},
			{
				"x": 0.3609483854,
				"y": 0.0835751882,
				"z": 1.0673306924,
				"element": "N" 
			},
			{
				"x": -0.4097285666,
				"y": 0.0290706104,
				"z": -1.9209134945,
				"element": "H" 
			},
			{
				"x": 0.5663846022,
				"y": 1.4712778115,
				"z": -1.6818848017,
				"element": "H" 
			},
			{
				"x": 1.5033564818,
				"y": -1.3494679393,
				"z": -1.4160810607,
				"element": "H" 
			},
			{
				"x": 2.4795318058,
				"y": 0.0927296052,
				"z": -1.1772421811,
				"element": "H" 
			},
			{
				"x": 0.1084208388,
				"y": 0.0920084247,
				"z": 2.0475305661,
				"element": "H" 
			}
		],
		 "valence_orbital": [ 
			{
				"type": "occ",
				"energy": -0.41274,
				"method": "rhf"
			},
			{
				"type": "occ",
				"energy": -0.35422,
				"method": "rhf"
			},
			{
				"type": "occ",
				"energy": -0.29473,
				"method": "rhf"
			},
			{
				"type": "occ",
				"energy": -0.29017,
				"method": "rhf"
			},
			{
				"type": "occ",
				"energy": -0.26093,
				"method": "rhf"
			},
			{
				"type": "unocc",
				"energy": -0.02261,
				"method": "rhf"
			},
			{
				"type": "unocc",
				"energy": 0.02233,
				"method": "rhf"
			},
			{
				"type": "unocc",
				"energy": 0.07558,
				"method": "rhf"
			},
			{
				"type": "unocc",
				"energy": 0.09596,
				"method": "rhf"
			},
			{
				"type": "unocc",
				"energy": 0.12839,
				"method": "rhf"
			}
		],
		"cosmo_sigma_profile": { 
			"-0.025": 0.0,
			"-0.024": 0.0,
			"-0.023": 0.0,
			"-0.022": 0.0,
			"-0.021": 0.0,
			"-0.02": 0.0,
			"-0.019": 0.0,
			"-0.018": 0.0,
			"-0.017": 0.154892513676,
			"-0.016": 1.10020138826,
			"-0.015": 0.990321346441,
			"-0.014": 1.37841387448,
			"-0.013": 0.59598041196,
			"-0.012": 0.30939263886,
			"-0.011": 1.39083736793,
			"-0.01": 0.66927935952,
			"-0.009": 0.629127702188,
			"-0.008": 1.62758920454,
			"-0.007": 11.9083141096,
			"-0.006": 16.2010873834,
			"-0.005": 9.49302812131,
			"-0.004": 7.84556096909,
			"-0.003": 9.72266742749,
			"-0.002": 8.69722745244,
			"-0.001": 3.6466248656,
			"0.0": 2.90217417662,
			"0.001": 2.19443148371,
			"0.002": 2.99557576028,
			"0.003": 2.53082520483,
			"0.004": 1.52795876424,
			"0.005": 2.15109819082,
			"0.006": 3.14987676542,
			"0.007": 2.42945152714,
			"0.008": 2.2938838686,
			"0.009": 2.85534969893,
			"0.01": 4.39693299374,
			"0.011": 7.07107719486,
			"0.012": 10.9052219821,
			"0.013": 3.78222359619,
			"0.014": 0.0395901357115,
			"0.015": 0.0,
			"0.016": 0.0,
			"0.017": 0.0,
			"0.018": 0.0,
			"0.019": 0.0,
			"0.02": 0.0,
			"0.021": 0.0,
			"0.022": 0.0,
			"0.023": 0.0,
			"0.024": 0.0,
			"0.025": 0.0
		}
	}
}
