{
	 "smiles": "N1C2=CC=CC=C2OC2=CC=CC=C12", 
	 "Tm": 429.15, 
	 "num_atms": 23, 
	 "gaussian": { 
		 "optdone": 1, 
		 "sigma_profile": "yes", 
		 "theory": "DFT", 
		 "functional": "B3LYP", 
		 "basiset": "6-31G**", 
		 "properties": { 
			 "R2extent": 2896.788, 
			 "electric_dipole_moment_norm": 1.87262973649, 
			 "electric_quadrupole_moment_norm": 9.30050305897, 
			 "total_energy": -592.672703672, 
			 "HOMO_LUMO_gap": 0.16736, 
			 "cosmo_polarized_energy": -8.81, 
			 "cosmo_cavitation_energy": 26.56, 
			 "cosmo_dispersion_energy": -20.35, 
			 "cosmo_repulsion_energy": 1.55, 
			 "cosmo_total_nonelectrostatic_energy": 7.76, 
			 "SMD_solvation_energy": 4.25 
		},
		"coords": [
			{
				"x": 0.2904695197,
				"y": -0.6157065866,
				"z": 1.182795974,
				"element": "N" 
			},
			{
				"x": -0.6639799688,
				"y": 0.2219745477,
				"z": 0.5976934568,
				"element": "C" 
			},
			{
				"x": -1.8702182054,
				"y": 0.54354881,
				"z": 1.2230544769,
				"element": "C" 
			},
			{
				"x": -2.8059198106,
				"y": 1.3618845023,
				"z": 0.5825194268,
				"element": "C" 
			},
			{
				"x": -2.5391513037,
				"y": 1.8705848466,
				"z": -0.6860266184,
				"element": "C" 
			},
			{
				"x": -1.3281336418,
				"y": 1.5614986542,
				"z": -1.3166924442,
				"element": "C" 
			},
			{
				"x": -0.4045414262,
				"y": 0.7437825935,
				"z": -0.6823084814,
				"element": "C" 
			},
			{
				"x": 0.7656142162,
				"y": 0.4425950322,
				"z": -1.3584204611,
				"element": "O" 
			},
			{
				"x": 1.7923383777,
				"y": -0.1517269782,
				"z": -0.6444710479,
				"element": "C" 
			},
			{
				"x": 3.0425703659,
				"y": -0.2200732402,
				"z": -1.2414438458,
				"element": "C" 
			},
			{
				"x": 4.1053903924,
				"y": -0.837799662,
				"z": -0.571627737,
				"element": "C" 
			},
			{
				"x": 3.9030570266,
				"y": -1.3727522039,
				"z": 0.6980368005,
				"element": "C" 
			},
			{
				"x": 2.6435490055,
				"y": -1.2963336405,
				"z": 1.3007806524,
				"element": "C" 
			},
			{
				"x": 1.5752595802,
				"y": -0.6908040216,
				"z": 0.636253688,
				"element": "C" 
			},
			{
				"x": 0.1881882159,
				"y": -0.8251876563,
				"z": 2.1643240672,
				"element": "H" 
			},
			{
				"x": -2.0759928335,
				"y": 0.1434156432,
				"z": 2.2128830913,
				"element": "H" 
			},
			{
				"x": -3.7402706716,
				"y": 1.5963787486,
				"z": 1.0830257198,
				"element": "H" 
			},
			{
				"x": -3.2609691807,
				"y": 2.505839198,
				"z": -1.1890378136,
				"element": "H" 
			},
			{
				"x": -1.0862585244,
				"y": 1.9442808827,
				"z": -2.3027941206,
				"element": "H" 
			},
			{
				"x": 3.1663430046,
				"y": 0.2108491226,
				"z": -2.2295785097,
				"element": "H" 
			},
			{
				"x": 5.0800400195,
				"y": -0.8940357953,
				"z": -1.0454270625,
				"element": "H" 
			},
			{
				"x": 4.7198840831,
				"y": -1.8520253295,
				"z": 1.2286948284,
				"element": "H" 
			},
			{
				"x": 2.4817317594,
				"y": -1.7143874676,
				"z": 2.29136596,
				"element": "H" 
			}
		],
		 "valence_orbital": [ 
			{
				"type": "occ",
				"energy": -0.31951,
				"method": "rhf"
			},
			{
				"type": "occ",
				"energy": -0.25627,
				"method": "rhf"
			},
			{
				"type": "occ",
				"energy": -0.25389,
				"method": "rhf"
			},
			{
				"type": "occ",
				"energy": -0.22811,
				"method": "rhf"
			},
			{
				"type": "occ",
				"energy": -0.17562,
				"method": "rhf"
			},
			{
				"type": "unocc",
				"energy": -0.00826,
				"method": "rhf"
			},
			{
				"type": "unocc",
				"energy": 0.00173,
				"method": "rhf"
			},
			{
				"type": "unocc",
				"energy": 0.0043,
				"method": "rhf"
			},
			{
				"type": "unocc",
				"energy": 0.0385,
				"method": "rhf"
			},
			{
				"type": "unocc",
				"energy": 0.07863,
				"method": "rhf"
			}
		],
		"cosmo_sigma_profile": { 
			"-0.025": 0.0,
			"-0.024": 0.0,
			"-0.023": 0.0,
			"-0.022": 0.0,
			"-0.021": 0.0,
			"-0.02": 0.0,
			"-0.019": 0.0,
			"-0.018": 0.0,
			"-0.017": 0.0,
			"-0.016": 0.0,
			"-0.015": 0.464871159444,
			"-0.014": 1.05781431777,
			"-0.013": 1.59762247307,
			"-0.012": 1.18394849305,
			"-0.011": 1.26254216627,
			"-0.01": 2.19414107798,
			"-0.009": 1.64919428246,
			"-0.008": 1.74117296602,
			"-0.007": 3.10267543254,
			"-0.006": 9.03815051739,
			"-0.005": 14.8657669711,
			"-0.004": 16.2345737707,
			"-0.003": 15.0603974139,
			"-0.002": 11.4553209677,
			"-0.001": 11.9462950763,
			"0.0": 11.9884398306,
			"0.001": 14.5545313607,
			"0.002": 14.0885406341,
			"0.003": 19.0777073882,
			"0.004": 21.0960357698,
			"0.005": 18.6514777949,
			"0.006": 14.9386638585,
			"0.007": 3.71605429034,
			"0.008": 1.64874705235,
			"0.009": 0.875912629852,
			"0.01": 0.0247180679886,
			"0.011": 0.0,
			"0.012": 0.0,
			"0.013": 0.0,
			"0.014": 0.0,
			"0.015": 0.0,
			"0.016": 0.0,
			"0.017": 0.0,
			"0.018": 0.0,
			"0.019": 0.0,
			"0.02": 0.0,
			"0.021": 0.0,
			"0.022": 0.0,
			"0.023": 0.0,
			"0.024": 0.0,
			"0.025": 0.0
		}
	}
}
