{
	 "smiles": "OC1=CN(N=N1)C1=CC=CC=C1", 
	 "Tm": 434.15, 
	 "num_atms": 19, 
	 "gaussian": { 
		 "optdone": 1, 
		 "sigma_profile": "yes", 
		 "theory": "DFT", 
		 "functional": "B3LYP", 
		 "basiset": "6-31G**", 
		 "properties": { 
			 "R2extent": 3398.4469, 
			 "electric_dipole_moment_norm": 5.39070377038, 
			 "electric_quadrupole_moment_norm": 21.7126010611, 
			 "total_energy": -548.490007561, 
			 "HOMO_LUMO_gap": 0.18501, 
			 "cosmo_polarized_energy": -17.98, 
			 "cosmo_cavitation_energy": 23.77, 
			 "cosmo_dispersion_energy": -17.97, 
			 "cosmo_repulsion_energy": 1.41, 
			 "cosmo_total_nonelectrostatic_energy": 7.21, 
			 "SMD_solvation_energy": 3.51 
		},
		"coords": [
			{
				"x": 0.2149991259,
				"y": 5.7525984097,
				"z": -0.4773216466,
				"element": "O" 
			},
			{
				"x": 0.1630869377,
				"y": 4.4127369839,
				"z": -0.3039503732,
				"element": "C" 
			},
			{
				"x": 1.1389042082,
				"y": 3.4425692331,
				"z": -0.3894058372,
				"element": "C" 
			},
			{
				"x": 0.4645165997,
				"y": 2.2824526249,
				"z": -0.1081879556,
				"element": "N" 
			},
			{
				"x": -0.840279487,
				"y": 2.5475025915,
				"z": 0.1310397291,
				"element": "N" 
			},
			{
				"x": -1.0230266594,
				"y": 3.8340721355,
				"z": 0.0132540311,
				"element": "N" 
			},
			{
				"x": 0.9510801166,
				"y": 0.9468549351,
				"z": -0.0476331222,
				"element": "C" 
			},
			{
				"x": 2.2998587175,
				"y": 0.6716038035,
				"z": -0.2945936742,
				"element": "C" 
			},
			{
				"x": 2.7575978796,
				"y": -0.6445636617,
				"z": -0.2305586594,
				"element": "C" 
			},
			{
				"x": 1.8813980894,
				"y": -1.6849742947,
				"z": 0.0772984373,
				"element": "C" 
			},
			{
				"x": 0.53600196,
				"y": -1.3991989234,
				"z": 0.3223014552,
				"element": "C" 
			},
			{
				"x": 0.0632617069,
				"y": -0.0909646278,
				"z": 0.262347677,
				"element": "C" 
			},
			{
				"x": 1.1184397516,
				"y": 6.0106017403,
				"z": -0.6969755668,
				"element": "H" 
			},
			{
				"x": 2.1905772283,
				"y": 3.4861230638,
				"z": -0.6136271271,
				"element": "H" 
			},
			{
				"x": 2.9954122781,
				"y": 1.4675846893,
				"z": -0.5353858149,
				"element": "H" 
			},
			{
				"x": 3.8060000481,
				"y": -0.8512748028,
				"z": -0.4233829749,
				"element": "H" 
			},
			{
				"x": 2.242249005,
				"y": -2.7076350726,
				"z": 0.1259836055,
				"element": "H" 
			},
			{
				"x": -0.155872314,
				"y": -2.2007775351,
				"z": 0.562976052,
				"element": "H" 
			},
			{
				"x": -0.976905192,
				"y": 0.1423887073,
				"z": 0.450221765,
				"element": "H" 
			}
		],
		 "valence_orbital": [ 
			{
				"type": "occ",
				"energy": -0.31306,
				"method": "rhf"
			},
			{
				"type": "occ",
				"energy": -0.2686,
				"method": "rhf"
			},
			{
				"type": "occ",
				"energy": -0.26645,
				"method": "rhf"
			},
			{
				"type": "occ",
				"energy": -0.25636,
				"method": "rhf"
			},
			{
				"type": "occ",
				"energy": -0.22632,
				"method": "rhf"
			},
			{
				"type": "unocc",
				"energy": -0.04131,
				"method": "rhf"
			},
			{
				"type": "unocc",
				"energy": -0.01604,
				"method": "rhf"
			},
			{
				"type": "unocc",
				"energy": 0.02715,
				"method": "rhf"
			},
			{
				"type": "unocc",
				"energy": 0.05484,
				"method": "rhf"
			},
			{
				"type": "unocc",
				"energy": 0.07301,
				"method": "rhf"
			}
		],
		"cosmo_sigma_profile": { 
			"-0.025": 0.0,
			"-0.024": 0.0,
			"-0.023": 0.0,
			"-0.022": 0.0,
			"-0.021": 0.0,
			"-0.02": 0.0817331523583,
			"-0.019": 1.18128873092,
			"-0.018": 0.980307287456,
			"-0.017": 1.20000303188,
			"-0.016": 1.02830082153,
			"-0.015": 1.42299742937,
			"-0.014": 0.635769316494,
			"-0.013": 0.616008148253,
			"-0.012": 1.63503150121,
			"-0.011": 3.83951352786,
			"-0.01": 2.90524428653,
			"-0.009": 2.02289338435,
			"-0.008": 2.71506910447,
			"-0.007": 4.06793261791,
			"-0.006": 10.3843194435,
			"-0.005": 11.3280074058,
			"-0.004": 10.9522538267,
			"-0.003": 7.92426378883,
			"-0.002": 9.64055136809,
			"-0.001": 10.1516083439,
			"0.0": 13.8358054731,
			"0.001": 14.976506923,
			"0.002": 12.3851372443,
			"0.003": 11.7712083464,
			"0.004": 14.467838875,
			"0.005": 6.11654490587,
			"0.006": 2.64191614956,
			"0.007": 3.27172925393,
			"0.008": 3.90701307123,
			"0.009": 4.58790374696,
			"0.01": 7.24032212842,
			"0.011": 5.37125388947,
			"0.012": 2.26205865304,
			"0.013": 1.37726331211,
			"0.014": 1.43729268125,
			"0.015": 1.04459715825,
			"0.016": 0.0917751486487,
			"0.017": 0.0,
			"0.018": 0.0,
			"0.019": 0.0,
			"0.02": 0.0,
			"0.021": 0.0,
			"0.022": 0.0,
			"0.023": 0.0,
			"0.024": 0.0,
			"0.025": 0.0
		}
	}
}
