{
	 "smiles": "OC1=C(Cl)C=C(Cl)C(=C1)[N+]([O-])=O", 
	 "Tm": 373.15, 
	 "num_atms": 15, 
	 "gaussian": { 
		 "optdone": 1, 
		 "sigma_profile": "yes", 
		 "theory": "DFT", 
		 "functional": "B3LYP", 
		 "basiset": "6-31G**", 
		 "properties": { 
			 "R2extent": 2980.3518, 
			 "electric_dipole_moment_norm": 3.06672535777, 
			 "electric_quadrupole_moment_norm": 12.6173608076, 
			 "total_energy": -1431.13065499, 
			 "HOMO_LUMO_gap": 0.15597, 
			 "cosmo_polarized_energy": -13.2, 
			 "cosmo_cavitation_energy": 24.23, 
			 "cosmo_dispersion_energy": -18.28, 
			 "cosmo_repulsion_energy": 1.46, 
			 "cosmo_total_nonelectrostatic_energy": 7.41, 
			 "SMD_solvation_energy": 6.32 
		},
		"coords": [
			{
				"x": 1.6542302825,
				"y": 0.2581719273,
				"z": 2.0912188057,
				"element": "O" 
			},
			{
				"x": 0.7818995339,
				"y": 0.3898963825,
				"z": 1.0652638487,
				"element": "C" 
			},
			{
				"x": 0.4939846404,
				"y": 1.6839349388,
				"z": 0.5919592041,
				"element": "C" 
			},
			{
				"x": 1.2567273763,
				"y": 3.0601611779,
				"z": 1.3330310036,
				"element": "Cl" 
			},
			{
				"x": -0.3997074339,
				"y": 1.8718511622,
				"z": -0.4558159053,
				"element": "C" 
			},
			{
				"x": -1.0208167501,
				"y": 0.7866744195,
				"z": -1.0819670464,
				"element": "C" 
			},
			{
				"x": -2.1594337371,
				"y": 1.1485554646,
				"z": -2.3478405588,
				"element": "Cl" 
			},
			{
				"x": -0.7292991476,
				"y": -0.502605635,
				"z": -0.6140666129,
				"element": "C" 
			},
			{
				"x": 0.1525670083,
				"y": -0.689385573,
				"z": 0.452460303,
				"element": "C" 
			},
			{
				"x": -1.2998589415,
				"y": -1.7322192699,
				"z": -1.1932786353,
				"element": "N" 
			},
			{
				"x": -1.6731558061,
				"y": -1.7062117877,
				"z": -2.3600748614,
				"element": "O" 
			},
			{
				"x": -1.3378130253,
				"y": -2.7225613559,
				"z": -0.4606488272,
				"element": "O" 
			},
			{
				"x": 1.7514506823,
				"y": -0.6761397677,
				"z": 2.3186234578,
				"element": "H" 
			},
			{
				"x": -0.6223157874,
				"y": 2.8766158045,
				"z": -0.79318953,
				"element": "H" 
			},
			{
				"x": 0.3292411053,
				"y": -1.704437888,
				"z": 0.7905253545,
				"element": "H" 
			}
		],
		 "valence_orbital": [ 
			{
				"type": "occ",
				"energy": -0.31847,
				"method": "rhf"
			},
			{
				"type": "occ",
				"energy": -0.31379,
				"method": "rhf"
			},
			{
				"type": "occ",
				"energy": -0.29899,
				"method": "rhf"
			},
			{
				"type": "occ",
				"energy": -0.2835,
				"method": "rhf"
			},
			{
				"type": "occ",
				"energy": -0.25607,
				"method": "rhf"
			},
			{
				"type": "unocc",
				"energy": -0.1001,
				"method": "rhf"
			},
			{
				"type": "unocc",
				"energy": -0.04151,
				"method": "rhf"
			},
			{
				"type": "unocc",
				"energy": -0.01939,
				"method": "rhf"
			},
			{
				"type": "unocc",
				"energy": -0.00817,
				"method": "rhf"
			},
			{
				"type": "unocc",
				"energy": 0.02465,
				"method": "rhf"
			}
		],
		"cosmo_sigma_profile": { 
			"-0.025": 0.0,
			"-0.024": 0.0,
			"-0.023": 0.0,
			"-0.022": 0.0,
			"-0.021": 0.0,
			"-0.02": 0.445685439721,
			"-0.019": 1.33960057487,
			"-0.018": 1.47220949849,
			"-0.017": 1.41061908509,
			"-0.016": 1.05585830391,
			"-0.015": 1.33403941436,
			"-0.014": 0.470455160207,
			"-0.013": 0.838558605322,
			"-0.012": 1.28738279914,
			"-0.011": 1.47692250779,
			"-0.01": 1.25431951833,
			"-0.009": 1.88706736572,
			"-0.008": 3.43199934198,
			"-0.007": 5.3033228579,
			"-0.006": 4.04052747054,
			"-0.005": 4.96316801911,
			"-0.004": 6.92740717841,
			"-0.003": 9.98896258857,
			"-0.002": 17.0902707783,
			"-0.001": 24.1692501456,
			"0.0": 15.4625855965,
			"0.001": 10.9910890725,
			"0.002": 14.0196696339,
			"0.003": 17.3727637683,
			"0.004": 10.0776125487,
			"0.005": 5.67859365103,
			"0.006": 7.33256952264,
			"0.007": 12.0578360625,
			"0.008": 9.1585862828,
			"0.009": 5.64407309011,
			"0.01": 1.57064379579,
			"0.011": 0.0,
			"0.012": 0.0,
			"0.013": 0.0,
			"0.014": 0.0,
			"0.015": 0.0,
			"0.016": 0.0,
			"0.017": 0.0,
			"0.018": 0.0,
			"0.019": 0.0,
			"0.02": 0.0,
			"0.021": 0.0,
			"0.022": 0.0,
			"0.023": 0.0,
			"0.024": 0.0,
			"0.025": 0.0
		}
	}
}
