{
	 "smiles": "COC1=C(NS(=O)(=O)C2=C(Cl)C=CC(=C2)C(O)=O)C=C(C=C1)[N+]([O-])=O", 
	 "Tm": 331.15, 
	 "num_atms": 36, 
	 "gaussian": { 
		 "optdone": 1, 
		 "sigma_profile": "yes", 
		 "theory": "DFT", 
		 "functional": "B3LYP", 
		 "basiset": "6-31G**", 
		 "properties": { 
			 "R2extent": 10252.1074, 
			 "electric_dipole_moment_norm": 7.30167830981, 
			 "electric_quadrupole_moment_norm": 29.8520241332, 
			 "total_energy": -2034.39905867, 
			 "HOMO_LUMO_gap": 0.15668, 
			 "cosmo_polarized_energy": -24.92, 
			 "cosmo_cavitation_energy": 45.62, 
			 "cosmo_dispersion_energy": -30.78, 
			 "cosmo_repulsion_energy": 2.29, 
			 "cosmo_total_nonelectrostatic_energy": 17.13, 
			 "SMD_solvation_energy": 10.96 
		},
		"coords": [
			{
				"x": 3.7769952002,
				"y": -2.0768190089,
				"z": 0.1929879608,
				"element": "C" 
			},
			{
				"x": 2.4719702645,
				"y": -1.7886006728,
				"z": -0.3017490383,
				"element": "O" 
			},
			{
				"x": 1.5457498657,
				"y": -1.2686038228,
				"z": 0.5471183076,
				"element": "C" 
			},
			{
				"x": 0.2727026267,
				"y": -1.0343114714,
				"z": -0.0365648652,
				"element": "C" 
			},
			{
				"x": 0.1226736696,
				"y": -1.38921842,
				"z": -1.3943322121,
				"element": "N" 
			},
			{
				"x": -0.8706906205,
				"y": -0.6107012639,
				"z": -2.5084101575,
				"element": "S" 
			},
			{
				"x": -2.2178805532,
				"y": -0.5617316666,
				"z": -1.9454825778,
				"element": "O" 
			},
			{
				"x": -0.5881205254,
				"y": -1.266105683,
				"z": -3.7794146678,
				"element": "O" 
			},
			{
				"x": -0.3015104497,
				"y": 1.1090881757,
				"z": -2.5813422799,
				"element": "C" 
			},
			{
				"x": 0.9823578883,
				"y": 1.4923844904,
				"z": -3.0021130084,
				"element": "C" 
			},
			{
				"x": 2.2077117806,
				"y": 0.3257622477,
				"z": -3.4439397698,
				"element": "Cl" 
			},
			{
				"x": 1.325376013,
				"y": 2.8448317928,
				"z": -3.0668298078,
				"element": "C" 
			},
			{
				"x": 0.3928687689,
				"y": 3.8146973444,
				"z": -2.7166578533,
				"element": "C" 
			},
			{
				"x": -0.888413351,
				"y": 3.443368245,
				"z": -2.2957571306,
				"element": "C" 
			},
			{
				"x": -1.2312195817,
				"y": 2.0897916198,
				"z": -2.2297555192,
				"element": "C" 
			},
			{
				"x": -1.8472094028,
				"y": 4.5234950344,
				"z": -1.9265115137,
				"element": "C" 
			},
			{
				"x": -3.0506425338,
				"y": 4.045393665,
				"z": -1.5443280308,
				"element": "O" 
			},
			{
				"x": -1.5848042985,
				"y": 5.7083868123,
				"z": -1.9609879524,
				"element": "O" 
			},
			{
				"x": -0.753871553,
				"y": -0.5186722953,
				"z": 0.7471931408,
				"element": "C" 
			},
			{
				"x": -0.4929662014,
				"y": -0.218764133,
				"z": 2.086031229,
				"element": "C" 
			},
			{
				"x": 0.7459821372,
				"y": -0.4411316087,
				"z": 2.6736367416,
				"element": "C" 
			},
			{
				"x": 1.7696840102,
				"y": -0.9771888319,
				"z": 1.8941977683,
				"element": "C" 
			},
			{
				"x": -1.5742211048,
				"y": 0.3446834843,
				"z": 2.9018939758,
				"element": "N" 
			},
			{
				"x": -1.3326046372,
				"y": 0.5785717334,
				"z": 4.08729638,
				"element": "O" 
			},
			{
				"x": -2.6563887669,
				"y": 0.5542394396,
				"z": 2.3541105388,
				"element": "O" 
			},
			{
				"x": 3.7393951528,
				"y": -2.8217849045,
				"z": 0.995817022,
				"element": "H" 
			},
			{
				"x": 4.2720577218,
				"y": -1.1688951549,
				"z": 0.555937336,
				"element": "H" 
			},
			{
				"x": 4.333452161,
				"y": -2.4808852157,
				"z": -0.6526972015,
				"element": "H" 
			},
			{
				"x": 0.9653188607,
				"y": -1.7492818865,
				"z": -1.831179595,
				"element": "H" 
			},
			{
				"x": 2.3208210404,
				"y": 3.1236354317,
				"z": -3.3933421707,
				"element": "H" 
			},
			{
				"x": 0.6429617106,
				"y": 4.8691068324,
				"z": -2.7623391309,
				"element": "H" 
			},
			{
				"x": -2.2199246668,
				"y": 1.7854196851,
				"z": -1.9096441877,
				"element": "H" 
			},
			{
				"x": -3.5966867655,
				"y": 4.8163354371,
				"z": -1.3182415423,
				"element": "H" 
			},
			{
				"x": -1.7422000496,
				"y": -0.3570536839,
				"z": 0.3393178629,
				"element": "H" 
			},
			{
				"x": 0.8960037089,
				"y": -0.1996226335,
				"z": 3.7176948342,
				"element": "H" 
			},
			{
				"x": 2.7399724803,
				"y": -1.1579191137,
				"z": 2.3396871148,
				"element": "H" 
			}
		],
		 "valence_orbital": [ 
			{
				"type": "occ",
				"energy": -0.2941,
				"method": "rhf"
			},
			{
				"type": "occ",
				"energy": -0.28703,
				"method": "rhf"
			},
			{
				"type": "occ",
				"energy": -0.28163,
				"method": "rhf"
			},
			{
				"type": "occ",
				"energy": -0.27248,
				"method": "rhf"
			},
			{
				"type": "occ",
				"energy": -0.24195,
				"method": "rhf"
			},
			{
				"type": "unocc",
				"energy": -0.08527,
				"method": "rhf"
			},
			{
				"type": "unocc",
				"energy": -0.07978,
				"method": "rhf"
			},
			{
				"type": "unocc",
				"energy": -0.0556,
				"method": "rhf"
			},
			{
				"type": "unocc",
				"energy": -0.03258,
				"method": "rhf"
			},
			{
				"type": "unocc",
				"energy": -0.00508,
				"method": "rhf"
			}
		],
		"cosmo_sigma_profile": { 
			"-0.025": 0.0,
			"-0.024": 0.0,
			"-0.023": 0.0,
			"-0.022": 0.0,
			"-0.021": 0.0,
			"-0.02": 0.0,
			"-0.019": 0.324589975676,
			"-0.018": 1.20373065711,
			"-0.017": 0.80739284536,
			"-0.016": 1.02749617147,
			"-0.015": 0.556321424065,
			"-0.014": 0.605199705832,
			"-0.013": 0.51108347202,
			"-0.012": 1.3336864398,
			"-0.011": 1.39384811615,
			"-0.01": 0.855942812081,
			"-0.009": 2.99192274728,
			"-0.008": 8.54390832587,
			"-0.007": 14.212105629,
			"-0.006": 18.1872016268,
			"-0.005": 17.1912328934,
			"-0.004": 23.9145181766,
			"-0.003": 25.33670645,
			"-0.002": 32.1727931235,
			"-0.001": 38.4172732111,
			"0.0": 31.4922879389,
			"0.001": 23.194566581,
			"0.002": 21.0625756808,
			"0.003": 15.1024983195,
			"0.004": 7.71071198463,
			"0.005": 10.2494271904,
			"0.006": 10.9014010921,
			"0.007": 10.4662447374,
			"0.008": 14.3658196288,
			"0.009": 13.5603891519,
			"0.01": 13.9357657612,
			"0.011": 6.24570670973,
			"0.012": 0.959951428585,
			"0.013": 0.0,
			"0.014": 0.0,
			"0.015": 0.0,
			"0.016": 0.0,
			"0.017": 0.0,
			"0.018": 0.0,
			"0.019": 0.0,
			"0.02": 0.0,
			"0.021": 0.0,
			"0.022": 0.0,
			"0.023": 0.0,
			"0.024": 0.0,
			"0.0": 0.0
		}
	}
}
