{
	 "smiles": "ClC1=CC=C(C=C1)C(=C/C1=CC=CC=C1)C#N", 
	 "Tm": 388.65, 
	 "num_atms": 27, 
	 "gaussian": { 
		 "optdone": 1, 
		 "sigma_profile": "yes", 
		 "theory": "DFT", 
		 "functional": "B3LYP", 
		 "basiset": "6-31G**", 
		 "properties": { 
			 "R2extent": 6045.7039, 
			 "electric_dipole_moment_norm": 4.77497201458, 
			 "electric_quadrupole_moment_norm": 16.8558082583, 
			 "total_energy": -1092.53833393, 
			 "HOMO_LUMO_gap": 0.15331, 
			 "cosmo_polarized_energy": -10.8, 
			 "cosmo_cavitation_energy": 34.54, 
			 "cosmo_dispersion_energy": -23.79, 
			 "cosmo_repulsion_energy": 1.86, 
			 "cosmo_total_nonelectrostatic_energy": 12.61, 
			 "SMD_solvation_energy": 6.71 
		},
		"coords": [
			{
				"x": 3.7212569789,
				"y": -2.7180397418,
				"z": 2.9897588588,
				"element": "Cl" 
			},
			{
				"x": 2.2455899015,
				"y": -2.5202356929,
				"z": 2.0599690651,
				"element": "C" 
			},
			{
				"x": 1.0983055557,
				"y": -3.2184400226,
				"z": 2.4341207458,
				"element": "C" 
			},
			{
				"x": -0.0679850281,
				"y": -3.0578441745,
				"z": 1.6883612836,
				"element": "C" 
			},
			{
				"x": -0.1061664731,
				"y": -2.1953690953,
				"z": 0.5817844674,
				"element": "C" 
			},
			{
				"x": 1.0687361479,
				"y": -1.5186898451,
				"z": 0.2165830231,
				"element": "C" 
			},
			{
				"x": 2.2417039222,
				"y": -1.6737348976,
				"z": 0.9502395538,
				"element": "C" 
			},
			{
				"x": -1.3513482278,
				"y": -2.0607014312,
				"z": -0.2265889085,
				"element": "C" 
			},
			{
				"x": -1.9091925855,
				"y": -0.9255345664,
				"z": -0.7280523829,
				"element": "C" 
			},
			{
				"x": -1.5662347369,
				"y": 0.4838558682,
				"z": -0.50881161,
				"element": "C" 
			},
			{
				"x": -0.9694019282,
				"y": 0.969600982,
				"z": 0.6712838435,
				"element": "C" 
			},
			{
				"x": -0.7173824448,
				"y": 2.3293936897,
				"z": 0.8287453211,
				"element": "C" 
			},
			{
				"x": -1.049905341,
				"y": 3.2338030197,
				"z": -0.1841691695,
				"element": "C" 
			},
			{
				"x": -1.6562971333,
				"y": 2.7700846831,
				"z": -1.3529457613,
				"element": "C" 
			},
			{
				"x": -1.9231815091,
				"y": 1.4116709232,
				"z": -1.50658694,
				"element": "C" 
			},
			{
				"x": -2.0160065337,
				"y": -3.2979699723,
				"z": -0.5353375059,
				"element": "C" 
			},
			{
				"x": -2.5467240547,
				"y": -4.3094768806,
				"z": -0.7618863578,
				"element": "N" 
			},
			{
				"x": 1.1188545981,
				"y": -3.8809045106,
				"z": 3.2921481904,
				"element": "H" 
			},
			{
				"x": -0.9589185039,
				"y": -3.6115265478,
				"z": 1.9688096354,
				"element": "H" 
			},
			{
				"x": 1.0667097749,
				"y": -0.8707760686,
				"z": -0.6533365431,
				"element": "H" 
			},
			{
				"x": 3.1475021538,
				"y": -1.1530479642,
				"z": 0.6602114099,
				"element": "H" 
			},
			{
				"x": -2.7580920433,
				"y": -1.0768767618,
				"z": -1.3921931997,
				"element": "H" 
			},
			{
				"x": -0.7224871361,
				"y": 0.2822235468,
				"z": 1.4717855713,
				"element": "H" 
			},
			{
				"x": -0.2655483145,
				"y": 2.6869276254,
				"z": 1.7493744348,
				"element": "H" 
			},
			{
				"x": -0.8484875264,
				"y": 4.2933235362,
				"z": -0.0568081424,
				"element": "H" 
			},
			{
				"x": -1.9298996693,
				"y": 3.4663358408,
				"z": -2.1401390802,
				"element": "H" 
			},
			{
				"x": -2.4073998433,
				"y": 1.0556484581,
				"z": -2.4122198025,
				"element": "H" 
			}
		],
		 "valence_orbital": [ 
			{
				"type": "occ",
				"energy": -0.30444,
				"method": "rhf"
			},
			{
				"type": "occ",
				"energy": -0.27664,
				"method": "rhf"
			},
			{
				"type": "occ",
				"energy": -0.26751,
				"method": "rhf"
			},
			{
				"type": "occ",
				"energy": -0.2661,
				"method": "rhf"
			},
			{
				"type": "occ",
				"energy": -0.23252,
				"method": "rhf"
			},
			{
				"type": "unocc",
				"energy": -0.07921,
				"method": "rhf"
			},
			{
				"type": "unocc",
				"energy": -0.02877,
				"method": "rhf"
			},
			{
				"type": "unocc",
				"energy": -0.02172,
				"method": "rhf"
			},
			{
				"type": "unocc",
				"energy": -0.01378,
				"method": "rhf"
			},
			{
				"type": "unocc",
				"energy": 0.01247,
				"method": "rhf"
			}
		],
		"cosmo_sigma_profile": { 
			"-0.025": 0.0,
			"-0.024": 0.0,
			"-0.023": 0.0,
			"-0.022": 0.0,
			"-0.021": 0.0,
			"-0.02": 0.0,
			"-0.019": 0.0,
			"-0.018": 0.0,
			"-0.017": 0.0,
			"-0.016": 0.0,
			"-0.015": 0.0,
			"-0.014": 0.0,
			"-0.013": 0.0,
			"-0.012": 0.0,
			"-0.011": 0.0,
			"-0.01": 0.0,
			"-0.009": 0.145174208166,
			"-0.008": 3.51229489592,
			"-0.007": 10.9259515526,
			"-0.006": 18.7279532387,
			"-0.005": 19.2598294362,
			"-0.004": 18.8211582084,
			"-0.003": 17.0607544918,
			"-0.002": 18.1759236478,
			"-0.001": 20.7080930738,
			"0.0": 24.8349825579,
			"0.001": 26.0167869505,
			"0.002": 26.2014988346,
			"0.003": 22.4792568957,
			"0.004": 22.3364256438,
			"0.005": 10.0285017192,
			"0.006": 2.47382699269,
			"0.007": 2.39464270676,
			"0.008": 3.1729253468,
			"0.009": 3.25848261692,
			"0.01": 3.31559931148,
			"0.011": 2.87909706958,
			"0.012": 2.47322002911,
			"0.013": 1.95279234267,
			"0.014": 0.189239602024,
			"0.015": 0.0,
			"0.016": 0.0,
			"0.017": 0.0,
			"0.018": 0.0,
			"0.019": 0.0,
			"0.02": 0.0,
			"0.021": 0.0,
			"0.022": 0.0,
			"0.023": 0.0,
			"0.024": 0.0,
			"0.025": 0.0
		}
	}
}
