{
	 "smiles": "CSCCC(NS(=O)(=O)C1=CC2=C(C=CC=C2)C=C1)C(O)=O", 
	 "Tm": 615.15, 
	 "num_atms": 39, 
	 "gaussian": { 
		 "optdone": 1, 
		 "sigma_profile": "yes", 
		 "theory": "DFT", 
		 "functional": "B3LYP", 
		 "basiset": "6-31G**", 
		 "properties": { 
			 "R2extent": 10550.4433, 
			 "electric_dipole_moment_norm": 3.47978884129, 
			 "electric_quadrupole_moment_norm": 41.4998650671, 
			 "total_energy": -1733.81741953, 
			 "HOMO_LUMO_gap": 0.16221, 
			 "cosmo_polarized_energy": -22.66, 
			 "cosmo_cavitation_energy": 45.29, 
			 "cosmo_dispersion_energy": -31.38, 
			 "cosmo_repulsion_energy": 2.32, 
			 "cosmo_total_nonelectrostatic_energy": 16.23, 
			 "SMD_solvation_energy": 6.75 
		},
		"coords": [
			{
				"x": 0.1896584262,
				"y": 2.8223396996,
				"z": 3.6050755939,
				"element": "C" 
			},
			{
				"x": 1.5130098228,
				"y": 2.2918419289,
				"z": 2.461964751,
				"element": "S" 
			},
			{
				"x": 0.9257697172,
				"y": 3.0366261779,
				"z": 0.892029374,
				"element": "C" 
			},
			{
				"x": -0.2493110989,
				"y": 2.2894760159,
				"z": 0.2478080024,
				"element": "C" 
			},
			{
				"x": -0.7173864792,
				"y": 2.9372074701,
				"z": -1.0709403595,
				"element": "C" 
			},
			{
				"x": -1.2960270148,
				"y": 1.974008351,
				"z": -2.0258797301,
				"element": "N" 
			},
			{
				"x": -2.7133403789,
				"y": 1.1237419693,
				"z": -1.577966581,
				"element": "S" 
			},
			{
				"x": -3.2712836072,
				"y": 1.7045337287,
				"z": -0.3483575395,
				"element": "O" 
			},
			{
				"x": -3.4906656879,
				"y": 1.0285067295,
				"z": -2.8165642265,
				"element": "O" 
			},
			{
				"x": -2.1134050075,
				"y": -0.5190629857,
				"z": -1.1718933694,
				"element": "C" 
			},
			{
				"x": -1.7627382068,
				"y": -1.3690852962,
				"z": -2.1974390828,
				"element": "C" 
			},
			{
				"x": -1.3021061925,
				"y": -2.6774903411,
				"z": -1.9045015598,
				"element": "C" 
			},
			{
				"x": -1.2178709373,
				"y": -3.0946219315,
				"z": -0.5345145678,
				"element": "C" 
			},
			{
				"x": -0.7544813304,
				"y": -4.4065836893,
				"z": -0.2466600246,
				"element": "C" 
			},
			{
				"x": -0.3933357129,
				"y": -5.263234283,
				"z": -1.2617722079,
				"element": "C" 
			},
			{
				"x": -0.4791625651,
				"y": -4.8510423558,
				"z": -2.6154750485,
				"element": "C" 
			},
			{
				"x": -0.9241031795,
				"y": -3.5876852999,
				"z": -2.9295378368,
				"element": "C" 
			},
			{
				"x": -1.606865583,
				"y": -2.1871427921,
				"z": 0.4873982677,
				"element": "C" 
			},
			{
				"x": -2.0505886645,
				"y": -0.9205673834,
				"z": 0.1837761351,
				"element": "C" 
			},
			{
				"x": -1.6358522455,
				"y": 4.1628756915,
				"z": -0.9370111603,
				"element": "C" 
			},
			{
				"x": -1.5419160085,
				"y": 4.7867838461,
				"z": 0.255116013,
				"element": "O" 
			},
			{
				"x": -2.3287596186,
				"y": 4.5687530033,
				"z": -1.842533152,
				"element": "O" 
			},
			{
				"x": 0.4679958745,
				"y": 2.4551980594,
				"z": 4.5954094176,
				"element": "H" 
			},
			{
				"x": 0.1165212149,
				"y": 3.9125028851,
				"z": 3.6403197577,
				"element": "H" 
			},
			{
				"x": -0.7794252197,
				"y": 2.3967775541,
				"z": 3.3343821477,
				"element": "H" 
			},
			{
				"x": 0.6782291445,
				"y": 4.0853519084,
				"z": 1.0753138659,
				"element": "H" 
			},
			{
				"x": 1.7987988804,
				"y": 3.0134159185,
				"z": 0.2304179174,
				"element": "H" 
			},
			{
				"x": 0.0684476329,
				"y": 1.2673292946,
				"z": 0.0239564042,
				"element": "H" 
			},
			{
				"x": -1.0899611021,
				"y": 2.2280512943,
				"z": 0.9412758853,
				"element": "H" 
			},
			{
				"x": 0.1747834262,
				"y": 3.3174619172,
				"z": -1.5905930222,
				"element": "H" 
			},
			{
				"x": -1.5539826375,
				"y": 2.4511891761,
				"z": -2.890340809,
				"element": "H" 
			},
			{
				"x": -1.8467448125,
				"y": -1.046404709,
				"z": -3.2303480604,
				"element": "H" 
			},
			{
				"x": -0.6902092337,
				"y": -4.7231309697,
				"z": 0.7909091412,
				"element": "H" 
			},
			{
				"x": -0.0404729693,
				"y": -6.2635237856,
				"z": -1.028493872,
				"element": "H" 
			},
			{
				"x": -0.1919083589,
				"y": -5.5392132283,
				"z": -3.4048203495,
				"element": "H" 
			},
			{
				"x": -0.9927144823,
				"y": -3.266999249,
				"z": -3.9654822048,
				"element": "H" 
			},
			{
				"x": -1.5549256669,
				"y": -2.5103744305,
				"z": 1.5234184231,
				"element": "H" 
			},
			{
				"x": -2.3663979607,
				"y": -0.2308777698,
				"z": 0.9574792432,
				"element": "H" 
			},
			{
				"x": -2.1428721771,
				"y": 5.5504678803,
				"z": 0.2102744241,
				"element": "H" 
			}
		],
		 "valence_orbital": [ 
			{
				"type": "occ",
				"energy": -0.29285,
				"method": "rhf"
			},
			{
				"type": "occ",
				"energy": -0.27804,
				"method": "rhf"
			},
			{
				"type": "occ",
				"energy": -0.25849,
				"method": "rhf"
			},
			{
				"type": "occ",
				"energy": -0.23154,
				"method": "rhf"
			},
			{
				"type": "occ",
				"energy": -0.22278,
				"method": "rhf"
			},
			{
				"type": "unocc",
				"energy": -0.06057,
				"method": "rhf"
			},
			{
				"type": "unocc",
				"energy": -0.03248,
				"method": "rhf"
			},
			{
				"type": "unocc",
				"energy": -0.00456,
				"method": "rhf"
			},
			{
				"type": "unocc",
				"energy": 0.01416,
				"method": "rhf"
			},
			{
				"type": "unocc",
				"energy": 0.03743,
				"method": "rhf"
			}
		],
		"cosmo_sigma_profile": { 
			"-0.025": 0.0,
			"-0.024": 0.0,
			"-0.023": 0.0,
			"-0.022": 0.0,
			"-0.021": 0.0,
			"-0.02": 0.0,
			"-0.019": 0.477783662051,
			"-0.018": 0.842054801852,
			"-0.017": 1.27711952058,
			"-0.016": 0.741832230666,
			"-0.015": 0.435404194587,
			"-0.014": 0.526890653473,
			"-0.013": 1.04541799002,
			"-0.012": 1.91558549205,
			"-0.011": 2.01484782969,
			"-0.01": 1.62645308824,
			"-0.009": 4.48389502244,
			"-0.008": 6.25483880191,
			"-0.007": 11.392123736,
			"-0.006": 22.2555251035,
			"-0.005": 23.1232585513,
			"-0.004": 25.5633275988,
			"-0.003": 24.8179775575,
			"-0.002": 23.5375664497,
			"-0.001": 23.800933023,
			"0.0": 19.7997798189,
			"0.001": 22.1653530997,
			"0.002": 29.139401958,
			"0.003": 25.4408512285,
			"0.004": 18.2777825687,
			"0.005": 10.3250053654,
			"0.006": 8.3715967112,
			"0.007": 8.97649004755,
			"0.008": 8.22689642781,
			"0.009": 8.93513261397,
			"0.01": 11.2499043863,
			"0.011": 12.7831760458,
			"0.012": 1.42297500958,
			"0.013": 0.0,
			"0.014": 0.0,
			"0.015": 0.0,
			"0.016": 0.0,
			"0.017": 0.0,
			"0.018": 0.0,
			"0.019": 0.0,
			"0.02": 0.0,
			"0.021": 0.0,
			"0.022": 0.0,
			"0.023": 0.0,
			"0.024": 0.0,
			"0.025": 0.0
		}
	}
}
