{
	 "smiles": "CCCCCCCCCCCCOCCOCCOCCOCCOCCOCCO", 
	 "Tm": 300.15, 
	 "num_atms": 81, 
	 "gaussian": { 
		 "optdone": 1, 
		 "sigma_profile": "yes", 
		 "theory": "DFT", 
		 "functional": "B3LYP", 
		 "basiset": "6-31G**", 
		 "properties": { 
			 "R2extent": 17174.1323, 
			 "electric_dipole_moment_norm": 3.59935028998, 
			 "electric_quadrupole_moment_norm": 22.4717837138, 
			 "total_energy": -1471.19548668, 
			 "HOMO_LUMO_gap": 0.2916, 
			 "cosmo_polarized_energy": -16.37, 
			 "cosmo_cavitation_energy": 78.62, 
			 "cosmo_dispersion_energy": -43.01, 
			 "cosmo_repulsion_energy": 3.34, 
			 "cosmo_total_nonelectrostatic_energy": 38.96, 
			 "SMD_solvation_energy": 11.22 
		},
		"coords": [
			{
				"x": -1.6233272748,
				"y": -4.7405123328,
				"z": -4.0434082494,
				"element": "C" 
			},
			{
				"x": -1.755389147,
				"y": -3.3023180318,
				"z": -4.5590034459,
				"element": "C" 
			},
			{
				"x": -0.4517536822,
				"y": -2.4876544922,
				"z": -4.5162856377,
				"element": "C" 
			},
			{
				"x": 0.0785766547,
				"y": -2.1969590179,
				"z": -3.1051886904,
				"element": "C" 
			},
			{
				"x": 1.345721011,
				"y": -1.3311924869,
				"z": -3.1033984492,
				"element": "C" 
			},
			{
				"x": 1.8661383695,
				"y": -1.0143564518,
				"z": -1.6952641242,
				"element": "C" 
			},
			{
				"x": 3.1338915413,
				"y": -0.14788548,
				"z": -1.6939042826,
				"element": "C" 
			},
			{
				"x": 3.682595456,
				"y": 0.1726415812,
				"z": -0.2897100786,
				"element": "C" 
			},
			{
				"x": 2.8277820103,
				"y": 1.1100448493,
				"z": 0.5941978836,
				"element": "C" 
			},
			{
				"x": 3.1436103816,
				"y": 2.6146773348,
				"z": 0.4888823927,
				"element": "C" 
			},
			{
				"x": 2.864795911,
				"y": 3.3064812004,
				"z": -0.8562465956,
				"element": "C" 
			},
			{
				"x": 1.4154589524,
				"y": 3.2550577143,
				"z": -1.3282208535,
				"element": "C" 
			},
			{
				"x": 0.5839379352,
				"y": 3.9001863875,
				"z": -0.3706684884,
				"element": "O" 
			},
			{
				"x": -0.7838604969,
				"y": 3.9670608283,
				"z": -0.7542789375,
				"element": "C" 
			},
			{
				"x": -1.5506752452,
				"y": 2.6977282018,
				"z": -0.3766591985,
				"element": "C" 
			},
			{
				"x": -2.7754400695,
				"y": 2.7244942094,
				"z": -1.1034718212,
				"element": "O" 
			},
			{
				"x": -3.6728435099,
				"y": 1.671792842,
				"z": -0.8095634786,
				"element": "C" 
			},
			{
				"x": -3.2599646864,
				"y": 0.324087877,
				"z": -1.4079262645,
				"element": "C" 
			},
			{
				"x": -2.2272065404,
				"y": -0.3386613643,
				"z": -0.681829536,
				"element": "O" 
			},
			{
				"x": -2.7092828032,
				"y": -1.1985271169,
				"z": 0.339359737,
				"element": "C" 
			},
			{
				"x": -1.5168904006,
				"y": -1.7321057885,
				"z": 1.1212829238,
				"element": "C" 
			},
			{
				"x": -2.0183971357,
				"y": -2.7883789094,
				"z": 1.9318152756,
				"element": "O" 
			},
			{
				"x": -1.0580041223,
				"y": -3.4395455298,
				"z": 2.742578784,
				"element": "C" 
			},
			{
				"x": -0.9043133953,
				"y": -2.8067533826,
				"z": 4.1173185461,
				"element": "C" 
			},
			{
				"x": -0.1816349109,
				"y": -1.5920518721,
				"z": 4.0142933952,
				"element": "O" 
			},
			{
				"x": -0.170341686,
				"y": -0.8620712841,
				"z": 5.2239706905,
				"element": "C" 
			},
			{
				"x": 0.6810609767,
				"y": 0.3820196359,
				"z": 5.073509246,
				"element": "C" 
			},
			{
				"x": 0.0859137003,
				"y": 1.264766299,
				"z": 4.1426030588,
				"element": "O" 
			},
			{
				"x": 0.6071312401,
				"y": 2.5872637159,
				"z": 4.1952677051,
				"element": "C" 
			},
			{
				"x": -0.1038377277,
				"y": 3.3803212026,
				"z": 3.1091263611,
				"element": "C" 
			},
			{
				"x": -1.515048885,
				"y": 3.276316341,
				"z": 3.2406024309,
				"element": "O" 
			},
			{
				"x": -2.5682058899,
				"y": -5.2848081361,
				"z": -4.1454783206,
				"element": "H" 
			},
			{
				"x": -0.8606777612,
				"y": -5.2918881718,
				"z": -4.6061809344,
				"element": "H" 
			},
			{
				"x": -1.3404199069,
				"y": -4.7713649168,
				"z": -2.9862889851,
				"element": "H" 
			},
			{
				"x": -2.5270252035,
				"y": -2.7765909069,
				"z": -3.9797000156,
				"element": "H" 
			},
			{
				"x": -2.1196677748,
				"y": -3.3288342998,
				"z": -5.5942305667,
				"element": "H" 
			},
			{
				"x": -0.6169665703,
				"y": -1.5321911292,
				"z": -5.0332609476,
				"element": "H" 
			},
			{
				"x": 0.3211543542,
				"y": -3.0140810681,
				"z": -5.0954867532,
				"element": "H" 
			},
			{
				"x": -0.7018885759,
				"y": -1.6943419553,
				"z": -2.5168736965,
				"element": "H" 
			},
			{
				"x": 0.2936490025,
				"y": -3.1408818876,
				"z": -2.5859374855,
				"element": "H" 
			},
			{
				"x": 1.1402879257,
				"y": -0.3892010689,
				"z": -3.6324804789,
				"element": "H" 
			},
			{
				"x": 2.1350047728,
				"y": -1.8347486776,
				"z": -3.6805144365,
				"element": "H" 
			},
			{
				"x": 1.0667924846,
				"y": -0.5191668704,
				"z": -1.1283105405,
				"element": "H" 
			},
			{
				"x": 2.0755449535,
				"y": -1.9547282512,
				"z": -1.1642792511,
				"element": "H" 
			},
			{
				"x": 3.9158435609,
				"y": -0.6733563831,
				"z": -2.2595302839,
				"element": "H" 
			},
			{
				"x": 2.9384360643,
				"y": 0.7782287844,
				"z": -2.2490257358,
				"element": "H" 
			},
			{
				"x": 4.6902114279,
				"y": 0.6002743819,
				"z": -0.3866053506,
				"element": "H" 
			},
			{
				"x": 3.8172529138,
				"y": -0.7816358416,
				"z": 0.2373835484,
				"element": "H" 
			},
			{
				"x": 2.9818275563,
				"y": 0.8274040114,
				"z": 1.6433004054,
				"element": "H" 
			},
			{
				"x": 1.7608041748,
				"y": 0.9375564615,
				"z": 0.4084967437,
				"element": "H" 
			},
			{
				"x": 4.2037829024,
				"y": 2.7654958446,
				"z": 0.7351743774,
				"element": "H" 
			},
			{
				"x": 2.5731229025,
				"y": 3.1416577081,
				"z": 1.2623941706,
				"element": "H" 
			},
			{
				"x": 3.4901973439,
				"y": 2.8743633874,
				"z": -1.6472044129,
				"element": "H" 
			},
			{
				"x": 3.1575611369,
				"y": 4.3605383403,
				"z": -0.7733396357,
				"element": "H" 
			},
			{
				"x": 1.3253806131,
				"y": 3.7676580641,
				"z": -2.3003341893,
				"element": "H" 
			},
			{
				"x": 1.0950165272,
				"y": 2.2140865388,
				"z": -1.4849498182,
				"element": "H" 
			},
			{
				"x": -1.2147984136,
				"y": 4.8354678529,
				"z": -0.2468632619,
				"element": "H" 
			},
			{
				"x": -0.8796828961,
				"y": 4.127749347,
				"z": -1.8385051585,
				"element": "H" 
			},
			{
				"x": -1.7463573652,
				"y": 2.6790882806,
				"z": 0.705839949,
				"element": "H" 
			},
			{
				"x": -0.9613936804,
				"y": 1.8079905452,
				"z": -0.63050165,
				"element": "H" 
			},
			{
				"x": -3.823074206,
				"y": 1.5736588559,
				"z": 0.2783178578,
				"element": "H" 
			},
			{
				"x": -4.6313613855,
				"y": 1.9685401466,
				"z": -1.2523781452,
				"element": "H" 
			},
			{
				"x": -2.8720763615,
				"y": 0.4992528879,
				"z": -2.4171857365,
				"element": "H" 
			},
			{
				"x": -4.1423186193,
				"y": -0.3298667554,
				"z": -1.4923027047,
				"element": "H" 
			},
			{
				"x": -3.259320566,
				"y": -2.046542658,
				"z": -0.0977069045,
				"element": "H" 
			},
			{
				"x": -3.3960837337,
				"y": -0.6736095932,
				"z": 1.0200475388,
				"element": "H" 
			},
			{
				"x": -1.0557261383,
				"y": -0.9432795873,
				"z": 1.7274959753,
				"element": "H" 
			},
			{
				"x": -0.7604431936,
				"y": -2.1095922612,
				"z": 0.4157722336,
				"element": "H" 
			},
			{
				"x": -0.0783936629,
				"y": -3.483107813,
				"z": 2.24360179,
				"element": "H" 
			},
			{
				"x": -1.4133449766,
				"y": -4.4681678917,
				"z": 2.8799347354,
				"element": "H" 
			},
			{
				"x": -1.9068377351,
				"y": -2.6288503508,
				"z": 4.538279544,
				"element": "H" 
			},
			{
				"x": -0.379138442,
				"y": -3.509628552,
				"z": 4.7890176989,
				"element": "H" 
			},
			{
				"x": -1.1941370799,
				"y": -0.5732423887,
				"z": 5.5129975335,
				"element": "H" 
			},
			{
				"x": 0.2474713437,
				"y": -1.47206561,
				"z": 6.0438837645,
				"element": "H" 
			},
			{
				"x": 0.7630723806,
				"y": 0.8608557306,
				"z": 6.063371851,
				"element": "H" 
			},
			{
				"x": 1.6961992777,
				"y": 0.1055728872,
				"z": 4.7479116949,
				"element": "H" 
			},
			{
				"x": 1.6955952284,
				"y": 2.5929375605,
				"z": 4.0239916239,
				"element": "H" 
			},
			{
				"x": 0.4122927385,
				"y": 3.0239088105,
				"z": 5.1884543538,
				"element": "H" 
			},
			{
				"x": 0.2303199011,
				"y": 3.0378587188,
				"z": 2.1203920672,
				"element": "H" 
			},
			{
				"x": 0.1560881635,
				"y": 4.4405715701,
				"z": 3.1948845101,
				"element": "H" 
			},
			{
				"x": -1.686571934,
				"y": 2.33528963,
				"z": 3.3924311341,
				"element": "H" 
			}
		],
		 "valence_orbital": [ 
			{
				"type": "occ",
				"energy": -0.2638,
				"method": "rhf"
			},
			{
				"type": "occ",
				"energy": -0.25765,
				"method": "rhf"
			},
			{
				"type": "occ",
				"energy": -0.24888,
				"method": "rhf"
			},
			{
				"type": "occ",
				"energy": -0.24571,
				"method": "rhf"
			},
			{
				"type": "occ",
				"energy": -0.23134,
				"method": "rhf"
			},
			{
				"type": "unocc",
				"energy": 0.06026,
				"method": "rhf"
			},
			{
				"type": "unocc",
				"energy": 0.07008,
				"method": "rhf"
			},
			{
				"type": "unocc",
				"energy": 0.07372,
				"method": "rhf"
			},
			{
				"type": "unocc",
				"energy": 0.08476,
				"method": "rhf"
			},
			{
				"type": "unocc",
				"energy": 0.08929,
				"method": "rhf"
			}
		],
		"cosmo_sigma_profile": { 
			"-0.025": 0.160520147764,
			"-0.024": -0.0277750598497,
			"-0.023": 0.026233516086,
			"-0.022": 0.0,
			"-0.021": 0.0,
			"-0.02": 0.175506309195,
			"-0.019": 0.222712785152,
			"-0.018": 0.0620833979285,
			"-0.017": 0.387418790375,
			"-0.016": 0.126908203351,
			"-0.015": 0.0,
			"-0.014": 0.0549645794109,
			"-0.013": 0.131198014589,
			"-0.012": 0.0,
			"-0.011": 0.392237391541,
			"-0.01": 0.541896892271,
			"-0.009": 0.815612655598,
			"-0.008": 0.467120716303,
			"-0.007": 0.652853101328,
			"-0.006": 0.984280550457,
			"-0.005": 19.4357984874,
			"-0.004": 53.4422206379,
			"-0.003": 62.8685209137,
			"-0.002": 75.27838562,
			"-0.001": 86.7116839906,
			"0.0": 84.4825821187,
			"0.001": 72.7848529833,
			"0.002": 42.8615202778,
			"0.003": 18.4833061817,
			"0.004": 14.235762908,
			"0.005": 13.0764462433,
			"0.006": 10.157721426,
			"0.007": 7.74221056312,
			"0.008": 7.86321423285,
			"0.009": 6.02070888716,
			"0.01": 6.13644988285,
			"0.011": 5.65567732091,
			"0.012": 4.52363776504,
			"0.013": 2.90463008857,
			"0.014": 2.38508932864,
			"0.015": 1.48072498852,
			"0.016": 6.23721033393,
			"0.017": -6.21261080251,
			"0.018": 0.375780554568,
			"0.019": -0.368580472568,
			"0.02": 0.637946216311,
			"0.021": 2.39262147324,
			"0.022": -0.282849811477,
			"0.023": -2.62715942508,
			"0.024": 9.67674030686,
			"0.025": -9.49238026086
		}
	}
}
