{
	 "smiles": "CC(C)(C)N(NC(=O)C1=CC=CC=C1)C(=O)C1=CC=C(I)C=C1", 
	 "Tm": 507.15, 
	 "num_atms": 42, 
	 "gaussian": { 
		 "optdone": 1, 
		 "sigma_profile": "no", 
		 "theory": "DFT", 
		 "functional": "B3LYP", 
		 "basiset": "6-31G**", 
		 "properties": { 
			 "R2extent": 10294.0359, 
			 "electric_dipole_moment_norm": 3.1075180273, 
			 "electric_quadrupole_moment_norm": 15.1940811808, 
			 "total_energy": -968.701233125, 
			 "HOMO_LUMO_gap": 0.19038, 
			 "cosmo_polarized_energy": -104682.72, 
			 "cosmo_cavitation_energy": 48.26, 
			 "cosmo_dispersion_energy": -33.43, 
			 "cosmo_repulsion_energy": 2.51, 
			 "cosmo_total_nonelectrostatic_energy": 17.34, 
			 "SMD_solvation_energy": 8.7 
		},
		"coords": [
			{
				"x": 0.7473202159,
				"y": -1.5876352587,
				"z": 1.583598122,
				"element": "C" 
			},
			{
				"x": 0.660101188,
				"y": -0.9479381952,
				"z": 0.1906431998,
				"element": "C" 
			},
			{
				"x": 1.0298332081,
				"y": -2.0106130751,
				"z": -0.8651459623,
				"element": "C" 
			},
			{
				"x": 1.6364189393,
				"y": 0.2376304613,
				"z": 0.1251352691,
				"element": "C" 
			},
			{
				"x": -0.7262850201,
				"y": -0.4195835251,
				"z": -0.1173139599,
				"element": "N" 
			},
			{
				"x": -0.8036938756,
				"y": 0.1448499903,
				"z": -1.4047350064,
				"element": "N" 
			},
			{
				"x": -1.0645836882,
				"y": 1.5170389652,
				"z": -1.457002721,
				"element": "C" 
			},
			{
				"x": -0.9931596825,
				"y": 2.241467438,
				"z": -0.47647527,
				"element": "O" 
			},
			{
				"x": -1.3933659702,
				"y": 2.0412049955,
				"z": -2.8235593509,
				"element": "C" 
			},
			{
				"x": -1.1089133233,
				"y": 1.3450204137,
				"z": -4.0078664308,
				"element": "C" 
			},
			{
				"x": -1.4460125716,
				"y": 1.8968554479,
				"z": -5.2438345085,
				"element": "C" 
			},
			{
				"x": -2.0677177206,
				"y": 3.1453212026,
				"z": -5.3071678797,
				"element": "C" 
			},
			{
				"x": -2.3430775838,
				"y": 3.8480270736,
				"z": -4.130909082,
				"element": "C" 
			},
			{
				"x": -2.0024583538,
				"y": 3.3017844835,
				"z": -2.8962880872,
				"element": "C" 
			},
			{
				"x": -1.9328094183,
				"y": -1.0565074563,
				"z": 0.2310866626,
				"element": "C" 
			},
			{
				"x": -2.7632138003,
				"y": -1.3493953903,
				"z": -0.6235474033,
				"element": "O" 
			},
			{
				"x": -2.2559323809,
				"y": -1.2066991097,
				"z": 1.6811247928,
				"element": "C" 
			},
			{
				"x": -2.9858786946,
				"y": -2.3203181264,
				"z": 2.1143349784,
				"element": "C" 
			},
			{
				"x": -3.3872025063,
				"y": -2.4282303568,
				"z": 3.443816662,
				"element": "C" 
			},
			{
				"x": -3.0857355777,
				"y": -1.3912879743,
				"z": 4.3322546866,
				"element": "C" 
			},
			{
				"x": -3.7041873983,
				"y": -1.5413722607,
				"z": 6.354544557,
				"element": "I" 
			},
			{
				"x": -2.3966590173,
				"y": -0.2534380664,
				"z": 3.9071151431,
				"element": "C" 
			},
			{
				"x": -1.978486923,
				"y": -0.1676022657,
				"z": 2.5788947193,
				"element": "C" 
			},
			{
				"x": 0.0818242123,
				"y": -2.4465532091,
				"z": 1.6974475902,
				"element": "H" 
			},
			{
				"x": 1.7724107358,
				"y": -1.9445463532,
				"z": 1.7204393298,
				"element": "H" 
			},
			{
				"x": 0.5310167997,
				"y": -0.8753237204,
				"z": 2.3811526362,
				"element": "H" 
			},
			{
				"x": 2.0458629693,
				"y": -2.3773504178,
				"z": -0.68841426,
				"element": "H" 
			},
			{
				"x": 0.3477892416,
				"y": -2.8663895251,
				"z": -0.817545668,
				"element": "H" 
			},
			{
				"x": 0.9944064972,
				"y": -1.5921780588,
				"z": -1.8739053916,
				"element": "H" 
			},
			{
				"x": 1.6678848042,
				"y": 0.6719679448,
				"z": -0.8762357502,
				"element": "H" 
			},
			{
				"x": 2.6453385107,
				"y": -0.1033886199,
				"z": 0.3777878564,
				"element": "H" 
			},
			{
				"x": 1.3410039217,
				"y": 1.0207625126,
				"z": 0.8271795404,
				"element": "H" 
			},
			{
				"x": -1.3498881147,
				"y": -0.4305719836,
				"z": -2.0402389528,
				"element": "H" 
			},
			{
				"x": -0.5985102991,
				"y": 0.3876637635,
				"z": -3.9724040924,
				"element": "H" 
			},
			{
				"x": -1.2165494821,
				"y": 1.3551992455,
				"z": -6.1567521016,
				"element": "H" 
			},
			{
				"x": -2.3310330304,
				"y": 3.57235043,
				"z": -6.2706349318,
				"element": "H" 
			},
			{
				"x": -2.8216260879,
				"y": 4.8218321024,
				"z": -4.1780800958,
				"element": "H" 
			},
			{
				"x": -2.1977885691,
				"y": 3.8322745808,
				"z": -1.970596218,
				"element": "H" 
			},
			{
				"x": -3.2379572195,
				"y": -3.0998462247,
				"z": 1.4024577728,
				"element": "H" 
			},
			{
				"x": -3.935461582,
				"y": -3.3008935274,
				"z": 3.7799812758,
				"element": "H" 
			},
			{
				"x": -2.1924393915,
				"y": 0.5584932151,
				"z": 4.5957828894,
				"element": "H" 
			},
			{
				"x": -1.4642839609,
				"y": 0.7182184342,
				"z": 2.2188754403,
				"element": "H" 
			}
		],
		 "valence_orbital": [ 
			{
				"type": "occ",
				"energy": -0.26242,
				"method": "rhf"
			},
			{
				"type": "occ",
				"energy": -0.26094,
				"method": "rhf"
			},
			{
				"type": "occ",
				"energy": -0.25381,
				"method": "rhf"
			},
			{
				"type": "occ",
				"energy": -0.24965,
				"method": "rhf"
			},
			{
				"type": "occ",
				"energy": -0.24328,
				"method": "rhf"
			},
			{
				"type": "unocc",
				"energy": -0.0529,
				"method": "rhf"
			},
			{
				"type": "unocc",
				"energy": -0.04245,
				"method": "rhf"
			},
			{
				"type": "unocc",
				"energy": -0.04212,
				"method": "rhf"
			},
			{
				"type": "unocc",
				"energy": -0.02147,
				"method": "rhf"
			},
			{
				"type": "unocc",
				"energy": -0.01059,
				"method": "rhf"
			}
		],
		"cosmo_sigma_profile": { 
			"0.0": 0.0,
			"0.0": 0.0,
			"0.0": 0.0,
			"0.0": 0.0,
			"0.0": 0.0,
			"0.0": 0.0,
			"0.0": 0.0,
			"0.0": 0.0,
			"0.0": 0.0,
			"0.0": 0.0,
			"0.0": 0.0,
			"0.0": 0.0,
			"0.0": 0.0,
			"0.0": 0.0,
			"0.0": 0.0,
			"0.0": 0.0,
			"0.0": 0.0,
			"0.0": 0.0,
			"0.0": 0.0,
			"0.0": 0.0,
			"0.0": 0.0,
			"0.0": 0.0,
			"0.0": 0.0,
			"0.0": 0.0,
			"0.0": 0.0,
			"0.0": 0.0,
			"0.0": 0.0,
			"0.0": 0.0,
			"0.0": 0.0,
			"0.0": 0.0,
			"0.0": 0.0,
			"0.0": 0.0,
			"0.0": 0.0,
			"0.0": 0.0,
			"0.0": 0.0,
			"0.0": 0.0,
			"0.0": 0.0,
			"0.0": 0.0,
			"0.0": 0.0,
			"0.0": 0.0,
			"0.0": 0.0,
			"0.0": 0.0,
			"0.0": 0.0,
			"0.0": 0.0,
			"0.0": 0.0,
			"0.0": 0.0,
			"0.0": 0.0,
			"0.0": 0.0,
			"0.0": 0.0,
			"0.0": 0.0,
			"0.0": 0.0
		}
	}
}
