{
	 "smiles": "OC(=O)COC1=CC=C(OC(F)(F)F)C=C1", 
	 "Tm": 358.15, 
	 "num_atms": 23, 
	 "gaussian": { 
		 "optdone": 1, 
		 "sigma_profile": "yes", 
		 "theory": "DFT", 
		 "functional": "B3LYP", 
		 "basiset": "6-31G**", 
		 "properties": { 
			 "R2extent": 5272.5072, 
			 "electric_dipole_moment_norm": 3.90019759628, 
			 "electric_quadrupole_moment_norm": 13.3846427046, 
			 "total_energy": -947.589604113, 
			 "HOMO_LUMO_gap": 0.21392, 
			 "cosmo_polarized_energy": -13.34, 
			 "cosmo_cavitation_energy": 30.18, 
			 "cosmo_dispersion_energy": -21.29, 
			 "cosmo_repulsion_energy": 1.63, 
			 "cosmo_total_nonelectrostatic_energy": 10.52, 
			 "SMD_solvation_energy": 8.12 
		},
		"coords": [
			{
				"x": 2.7038476703,
				"y": -0.369846958,
				"z": -4.5494261031,
				"element": "O" 
			},
			{
				"x": 1.9896854785,
				"y": -0.8854363717,
				"z": -3.5212329284,
				"element": "C" 
			},
			{
				"x": 2.4544611427,
				"y": -1.5946322311,
				"z": -2.6642294434,
				"element": "O" 
			},
			{
				"x": 0.5330774941,
				"y": -0.4458363997,
				"z": -3.6330448792,
				"element": "C" 
			},
			{
				"x": -0.27068905,
				"y": -0.9509678344,
				"z": -2.5973809641,
				"element": "O" 
			},
			{
				"x": -0.2307429163,
				"y": -0.3594692575,
				"z": -1.361176586,
				"element": "C" 
			},
			{
				"x": 0.6020845776,
				"y": 0.7080505351,
				"z": -1.009861858,
				"element": "C" 
			},
			{
				"x": 0.5325458499,
				"y": 1.2434837015,
				"z": 0.2784164808,
				"element": "C" 
			},
			{
				"x": -0.3592883791,
				"y": 0.7090758648,
				"z": 1.1985103312,
				"element": "C" 
			},
			{
				"x": -0.374021884,
				"y": 1.2036584746,
				"z": 2.5156931317,
				"element": "O" 
			},
			{
				"x": -1.2222197745,
				"y": 2.228207446,
				"z": 2.7743120618,
				"element": "C" 
			},
			{
				"x": -2.5090633158,
				"y": 1.904789893,
				"z": 2.5348291946,
				"element": "F" 
			},
			{
				"x": -1.0968334822,
				"y": 2.5446364868,
				"z": 4.0633527228,
				"element": "F" 
			},
			{
				"x": -0.947660025,
				"y": 3.3231576372,
				"z": 2.0359420885,
				"element": "F" 
			},
			{
				"x": -1.1881483414,
				"y": -0.3598190545,
				"z": 0.8614565564,
				"element": "C" 
			},
			{
				"x": -1.1226732099,
				"y": -0.8922739515,
				"z": -0.4201169214,
				"element": "C" 
			},
			{
				"x": 3.6141124947,
				"y": -0.6952166881,
				"z": -4.4460997949,
				"element": "H" 
			},
			{
				"x": 0.1282971455,
				"y": -0.8532457667,
				"z": -4.564645013,
				"element": "H" 
			},
			{
				"x": 0.4865151429,
				"y": 0.648352089,
				"z": -3.7105080084,
				"element": "H" 
			},
			{
				"x": 1.3158096675,
				"y": 1.1239517603,
				"z": -1.7104322912,
				"element": "H" 
			},
			{
				"x": 1.1749161442,
				"y": 2.0666178489,
				"z": 0.5703402189,
				"element": "H" 
			},
			{
				"x": -1.8712297131,
				"y": -0.7634063579,
				"z": 1.6003823458,
				"element": "H" 
			},
			{
				"x": -1.7539827167,
				"y": -1.7230308661,
				"z": -0.7157803413,
				"element": "H" 
			}
		],
		 "valence_orbital": [ 
			{
				"type": "occ",
				"energy": -0.33577,
				"method": "rhf"
			},
			{
				"type": "occ",
				"energy": -0.32826,
				"method": "rhf"
			},
			{
				"type": "occ",
				"energy": -0.29441,
				"method": "rhf"
			},
			{
				"type": "occ",
				"energy": -0.26652,
				"method": "rhf"
			},
			{
				"type": "occ",
				"energy": -0.23253,
				"method": "rhf"
			},
			{
				"type": "unocc",
				"energy": -0.01861,
				"method": "rhf"
			},
			{
				"type": "unocc",
				"energy": -0.0067,
				"method": "rhf"
			},
			{
				"type": "unocc",
				"energy": -0.00089,
				"method": "rhf"
			},
			{
				"type": "unocc",
				"energy": 0.05874,
				"method": "rhf"
			},
			{
				"type": "unocc",
				"energy": 0.07901,
				"method": "rhf"
			}
		],
		"cosmo_sigma_profile": { 
			"-0.025": 0.0,
			"-0.024": 0.0,
			"-0.023": 0.0,
			"-0.022": 0.0,
			"-0.021": 0.0,
			"-0.02": 0.0,
			"-0.019": 0.463407752905,
			"-0.018": 0.949296042105,
			"-0.017": 1.08552572477,
			"-0.016": 0.515111042748,
			"-0.015": 0.672662855374,
			"-0.014": 0.281736365744,
			"-0.013": 1.00585216088,
			"-0.012": 1.60993223601,
			"-0.011": 0.298060253404,
			"-0.01": 1.64422071099,
			"-0.009": 4.66619290683,
			"-0.008": 6.6980944398,
			"-0.007": 11.2216868851,
			"-0.006": 11.8154567788,
			"-0.005": 10.8418124181,
			"-0.004": 8.63707109319,
			"-0.003": 8.0549307537,
			"-0.002": 9.94554848402,
			"-0.001": 12.1282216986,
			"0.0": 14.1599284187,
			"0.001": 21.5475689563,
			"0.002": 44.3777850255,
			"0.003": 23.8714497088,
			"0.004": 8.60138145276,
			"0.005": 5.5122992124,
			"0.006": 5.16830140624,
			"0.007": 5.84358113808,
			"0.008": 5.40756568335,
			"0.009": 4.67087259739,
			"0.01": 3.00981130291,
			"0.011": 5.56133941061,
			"0.012": 1.07178130387,
			"0.013": 0.0,
			"0.014": 0.0,
			"0.015": 0.0,
			"0.016": 0.0,
			"0.017": 0.0,
			"0.018": 0.0,
			"0.019": 0.0,
			"0.02": 0.0,
			"0.021": 0.0,
			"0.022": 0.0,
			"0.023": 0.0,
			"0.024": 0.0,
			"0.025": 0.0
		}
	}
}
