{
	 "smiles": "OC(=O)C1=C(F)C=C(C=C1)[N+]([O-])=O", 
	 "Tm": 446.65, 
	 "num_atms": 17, 
	 "gaussian": { 
		 "optdone": 1, 
		 "sigma_profile": "yes", 
		 "theory": "DFT", 
		 "functional": "B3LYP", 
		 "basiset": "6-31G**", 
		 "properties": { 
			 "R2extent": 2722.4884, 
			 "electric_dipole_moment_norm": 2.88284589425, 
			 "electric_quadrupole_moment_norm": 7.65568972464, 
			 "total_energy": -724.544862054, 
			 "HOMO_LUMO_gap": 0.17178, 
			 "cosmo_polarized_energy": -11.78, 
			 "cosmo_cavitation_energy": 23.73, 
			 "cosmo_dispersion_energy": -17.43, 
			 "cosmo_repulsion_energy": 1.35, 
			 "cosmo_total_nonelectrostatic_energy": 7.65, 
			 "SMD_solvation_energy": 8.2 
		},
		"coords": [
			{
				"x": 0.6061840346,
				"y": -2.6668496843,
				"z": -2.0818084452,
				"element": "O" 
			},
			{
				"x": -0.0916720613,
				"y": -1.5552910435,
				"z": -2.3825084493,
				"element": "C" 
			},
			{
				"x": -0.6212250237,
				"y": -1.3841620971,
				"z": -3.4622659038,
				"element": "O" 
			},
			{
				"x": -0.1579644733,
				"y": -0.5522054456,
				"z": -1.2755720752,
				"element": "C" 
			},
			{
				"x": 0.432648746,
				"y": -0.6960382486,
				"z": -0.0101250981,
				"element": "C" 
			},
			{
				"x": 1.1283005306,
				"y": -1.7933916048,
				"z": 0.3066582285,
				"element": "F" 
			},
			{
				"x": 0.3218086209,
				"y": 0.2894867549,
				"z": 0.9646720583,
				"element": "C" 
			},
			{
				"x": -0.3972412714,
				"y": 1.4367323955,
				"z": 0.6539583343,
				"element": "C" 
			},
			{
				"x": -1.0030704957,
				"y": 1.6295338254,
				"z": -0.5862416637,
				"element": "C" 
			},
			{
				"x": -0.8743496087,
				"y": 0.6272014531,
				"z": -1.5387693508,
				"element": "C" 
			},
			{
				"x": -0.5196231521,
				"y": 2.4887462379,
				"z": 1.6847555228,
				"element": "N" 
			},
			{
				"x": -1.1594799263,
				"y": 3.4952122076,
				"z": 1.3894076664,
				"element": "O" 
			},
			{
				"x": 0.0257685801,
				"y": 2.2876109408,
				"z": 2.7673335552,
				"element": "O" 
			},
			{
				"x": 0.5697736908,
				"y": -3.2248119826,
				"z": -2.8774537749,
				"element": "H" 
			},
			{
				"x": 0.7829655808,
				"y": 0.1635737407,
				"z": 1.9353157108,
				"element": "H" 
			},
			{
				"x": -1.5530547322,
				"y": 2.5407376954,
				"z": -0.7811442821,
				"element": "H" 
			},
			{
				"x": -1.3262690391,
				"y": 0.7278148555,
				"z": -2.5190120331,
				"element": "H" 
			}
		],
		 "valence_orbital": [ 
			{
				"type": "occ",
				"energy": -0.32171,
				"method": "rhf"
			},
			{
				"type": "occ",
				"energy": -0.30665,
				"method": "rhf"
			},
			{
				"type": "occ",
				"energy": -0.30126,
				"method": "rhf"
			},
			{
				"type": "occ",
				"energy": -0.30111,
				"method": "rhf"
			},
			{
				"type": "occ",
				"energy": -0.28473,
				"method": "rhf"
			},
			{
				"type": "unocc",
				"energy": -0.11295,
				"method": "rhf"
			},
			{
				"type": "unocc",
				"energy": -0.04738,
				"method": "rhf"
			},
			{
				"type": "unocc",
				"energy": -0.03789,
				"method": "rhf"
			},
			{
				"type": "unocc",
				"energy": 0.03776,
				"method": "rhf"
			},
			{
				"type": "unocc",
				"energy": 0.06216,
				"method": "rhf"
			}
		],
		"cosmo_sigma_profile": { 
			"-0.025": 0.0,
			"-0.024": 0.0,
			"-0.023": 0.0,
			"-0.022": 0.0,
			"-0.021": 0.0,
			"-0.02": 0.0,
			"-0.019": 0.413272914653,
			"-0.018": 1.06353499102,
			"-0.017": 0.918713855264,
			"-0.016": 1.1803363486,
			"-0.015": 0.439875068574,
			"-0.014": 0.43365559836,
			"-0.013": 0.53462828942,
			"-0.012": 1.06000174951,
			"-0.011": 0.953302383558,
			"-0.01": 0.352293763455,
			"-0.009": 2.04872136975,
			"-0.008": 5.06193916428,
			"-0.007": 7.44392250273,
			"-0.006": 6.87098318769,
			"-0.005": 7.48168424135,
			"-0.004": 10.7971188179,
			"-0.003": 17.7248263897,
			"-0.002": 20.6805111392,
			"-0.001": 14.2085054983,
			"0.0": 11.2607282351,
			"0.001": 7.72067943771,
			"0.002": 6.47830526862,
			"0.003": 10.1729961834,
			"0.004": 6.27241675492,
			"0.005": 7.64958181289,
			"0.006": 8.41826057984,
			"0.007": 12.257250387,
			"0.008": 8.31758353857,
			"0.009": 4.98780291924,
			"0.01": 3.66225938421,
			"0.011": 4.30815480724,
			"0.012": 0.285863191907,
			"0.013": 0.0,
			"0.014": 0.0,
			"0.015": 0.0,
			"0.016": 0.0,
			"0.017": 0.0,
			"0.018": 0.0,
			"0.019": 0.0,
			"0.02": 0.0,
			"0.021": 0.0,
			"0.022": 0.0,
			"0.023": 0.0,
			"0.024": 0.0,
			"0.025": 0.0
		}
	}
}
