{
	 "smiles": "C1COC2=C(N1)N=CC=C2", 
	 "Tm": 358.65, 
	 "num_atms": 18, 
	 "gaussian": { 
		 "optdone": 1, 
		 "sigma_profile": "yes", 
		 "theory": "DFT", 
		 "functional": "B3LYP", 
		 "basiset": "6-31G**", 
		 "properties": { 
			 "R2extent": 1619.8577, 
			 "electric_dipole_moment_norm": 2.17310878927, 
			 "electric_quadrupole_moment_norm": 7.61709717412, 
			 "total_energy": -456.282997167, 
			 "HOMO_LUMO_gap": 0.18926, 
			 "cosmo_polarized_energy": -8.83, 
			 "cosmo_cavitation_energy": 20.86, 
			 "cosmo_dispersion_energy": -16.38, 
			 "cosmo_repulsion_energy": 1.32, 
			 "cosmo_total_nonelectrostatic_energy": 5.8, 
			 "SMD_solvation_energy": 1.26 
		},
		"coords": [
			{
				"x": -0.4140866419,
				"y": -1.7159623509,
				"z": -0.7924942879,
				"element": "C" 
			},
			{
				"x": -1.1807618661,
				"y": -1.0822240868,
				"z": -1.9512969424,
				"element": "C" 
			},
			{
				"x": -0.4493982751,
				"y": 0.0055761335,
				"z": -2.5230694061,
				"element": "O" 
			},
			{
				"x": 0.0976526056,
				"y": 0.8825666279,
				"z": -1.6169484047,
				"element": "C" 
			},
			{
				"x": 0.2616480654,
				"y": 0.5460260695,
				"z": -0.2501609176,
				"element": "C" 
			},
			{
				"x": -0.1928910792,
				"y": -0.6836039023,
				"z": 0.2039658947,
				"element": "N" 
			},
			{
				"x": 0.8210479533,
				"y": 1.375990589,
				"z": 0.6313060877,
				"element": "N" 
			},
			{
				"x": 1.2346915366,
				"y": 2.5765350835,
				"z": 0.1971607863,
				"element": "C" 
			},
			{
				"x": 1.1192006168,
				"y": 2.9974291273,
				"z": -1.1231737903,
				"element": "C" 
			},
			{
				"x": 0.5344332165,
				"y": 2.1245513981,
				"z": -2.0489031669,
				"element": "C" 
			},
			{
				"x": 0.5224732429,
				"y": -2.1526067228,
				"z": -1.175940257,
				"element": "H" 
			},
			{
				"x": -1.0106646008,
				"y": -2.5248214509,
				"z": -0.3575729636,
				"element": "H" 
			},
			{
				"x": -2.1577832153,
				"y": -0.7270895585,
				"z": -1.5982253769,
				"element": "H" 
			},
			{
				"x": -1.3332226996,
				"y": -1.7983329991,
				"z": -2.7620240758,
				"element": "H" 
			},
			{
				"x": 0.1921347569,
				"y": -0.9508510999,
				"z": 1.1001075957,
				"element": "H" 
			},
			{
				"x": 1.6846147962,
				"y": 3.2220949805,
				"z": 0.9486118473,
				"element": "H" 
			},
			{
				"x": 1.4739560151,
				"y": 3.9764007826,
				"z": -1.427250715,
				"element": "H" 
			},
			{
				"x": 0.4164555727,
				"y": 2.3891213793,
				"z": -3.0950919076,
				"element": "H" 
			}
		],
		 "valence_orbital": [ 
			{
				"type": "occ",
				"energy": -0.32483,
				"method": "rhf"
			},
			{
				"type": "occ",
				"energy": -0.3007,
				"method": "rhf"
			},
			{
				"type": "occ",
				"energy": -0.25123,
				"method": "rhf"
			},
			{
				"type": "occ",
				"energy": -0.24782,
				"method": "rhf"
			},
			{
				"type": "occ",
				"energy": -0.19509,
				"method": "rhf"
			},
			{
				"type": "unocc",
				"energy": -0.00583,
				"method": "rhf"
			},
			{
				"type": "unocc",
				"energy": 0.01825,
				"method": "rhf"
			},
			{
				"type": "unocc",
				"energy": 0.08331,
				"method": "rhf"
			},
			{
				"type": "unocc",
				"energy": 0.10734,
				"method": "rhf"
			},
			{
				"type": "unocc",
				"energy": 0.11858,
				"method": "rhf"
			}
		],
		"cosmo_sigma_profile": { 
			"-0.025": 0.0,
			"-0.024": 0.0,
			"-0.023": 0.0,
			"-0.022": 0.0,
			"-0.021": 0.0,
			"-0.02": 0.0,
			"-0.019": 0.0,
			"-0.018": 0.0,
			"-0.017": 0.0,
			"-0.016": 0.0,
			"-0.015": 0.0,
			"-0.014": 0.0,
			"-0.013": 0.353947439417,
			"-0.012": 1.20128581032,
			"-0.011": 1.05282714681,
			"-0.01": 0.851681475584,
			"-0.009": 0.770236900387,
			"-0.008": 1.05526545211,
			"-0.007": 2.48679360942,
			"-0.006": 11.4385533116,
			"-0.005": 16.8338323521,
			"-0.004": 17.3916615928,
			"-0.003": 14.9962733046,
			"-0.002": 10.5993460553,
			"-0.001": 7.7212946413,
			"0.0": 6.63830669014,
			"0.001": 8.26936988812,
			"0.002": 9.06560747268,
			"0.003": 11.0949902109,
			"0.004": 10.7686661029,
			"0.005": 9.02273956574,
			"0.006": 5.11838769885,
			"0.007": 3.64135672896,
			"0.008": 2.55930128649,
			"0.009": 3.34945843101,
			"0.01": 3.25413075449,
			"0.011": 1.91838817514,
			"0.012": 1.0645395539,
			"0.013": 0.92349009551,
			"0.014": 0.876035792653,
			"0.015": 0.756324189291,
			"0.016": 0.558242745707,
			"0.017": 0.048905234785,
			"0.018": 0.0,
			"0.019": 0.0,
			"0.02": 0.0,
			"0.021": 0.0,
			"0.022": 0.0,
			"0.023": 0.0,
			"0.024": 0.0,
			"0.025": 0.0
		}
	}
}
