{
	 "smiles": "FC1=CC(Br)=CC=C1", 
	 "Tm": 265.15, 
	 "num_atms": 12, 
	 "gaussian": { 
		 "optdone": 1, 
		 "sigma_profile": "yes", 
		 "theory": "DFT", 
		 "functional": "B3LYP", 
		 "basiset": "6-31G**", 
		 "properties": { 
			 "R2extent": 1999.295, 
			 "electric_dipole_moment_norm": 1.55001089996, 
			 "electric_quadrupole_moment_norm": 7.54616103128, 
			 "total_energy": -2902.28534578, 
			 "HOMO_LUMO_gap": 0.22404, 
			 "cosmo_polarized_energy": -3.44, 
			 "cosmo_cavitation_energy": 19.01, 
			 "cosmo_dispersion_energy": -14.52, 
			 "cosmo_repulsion_energy": 1.18, 
			 "cosmo_total_nonelectrostatic_energy": 5.67, 
			 "SMD_solvation_energy": 2.71 
		},
		"coords": [
			{
				"x": 1.886670188,
				"y": -3.0994170768,
				"z": -0.0803621204,
				"element": "F" 
			},
			{
				"x": 1.1189025796,
				"y": -2.2108426342,
				"z": 0.5796963242,
				"element": "C" 
			},
			{
				"x": 0.0576722755,
				"y": -1.6206142466,
				"z": -0.0991682905,
				"element": "C" 
			},
			{
				"x": -0.7274854608,
				"y": -0.7035210137,
				"z": 0.5967757103,
				"element": "C" 
			},
			{
				"x": -2.1936549808,
				"y": 0.1276155282,
				"z": -0.3026271666,
				"element": "Br" 
			},
			{
				"x": -0.4688071925,
				"y": -0.3798120511,
				"z": 1.9284883402,
				"element": "C" 
			},
			{
				"x": 0.6061948476,
				"y": -0.9946802677,
				"z": 2.5737900219,
				"element": "C" 
			},
			{
				"x": 1.4125634397,
				"y": -1.9173971752,
				"z": 1.9067606738,
				"element": "C" 
			},
			{
				"x": -0.1381894424,
				"y": -1.8759106317,
				"z": -1.1330145468,
				"element": "H" 
			},
			{
				"x": -1.0940598679,
				"y": 0.3364565812,
				"z": 2.447695233,
				"element": "H" 
			},
			{
				"x": 0.8162625034,
				"y": -0.7497457239,
				"z": 3.6104690801,
				"element": "H" 
			},
			{
				"x": 2.2510311106,
				"y": -2.4043312885,
				"z": 2.3915967408,
				"element": "H" 
			}
		],
		 "valence_orbital": [ 
			{
				"type": "occ",
				"energy": -0.35662,
				"method": "rhf"
			},
			{
				"type": "occ",
				"energy": -0.31642,
				"method": "rhf"
			},
			{
				"type": "occ",
				"energy": -0.29251,
				"method": "rhf"
			},
			{
				"type": "occ",
				"energy": -0.2636,
				"method": "rhf"
			},
			{
				"type": "occ",
				"energy": -0.24856,
				"method": "rhf"
			},
			{
				"type": "unocc",
				"energy": -0.02452,
				"method": "rhf"
			},
			{
				"type": "unocc",
				"energy": -0.01243,
				"method": "rhf"
			},
			{
				"type": "unocc",
				"energy": -0.00048,
				"method": "rhf"
			},
			{
				"type": "unocc",
				"energy": 0.09823,
				"method": "rhf"
			},
			{
				"type": "unocc",
				"energy": 0.13598,
				"method": "rhf"
			}
		],
		"cosmo_sigma_profile": { 
			"-0.025": 0.0,
			"-0.024": 0.0,
			"-0.023": 0.0,
			"-0.022": 0.0,
			"-0.021": 0.0,
			"-0.02": 0.0,
			"-0.019": 0.0,
			"-0.018": 0.0,
			"-0.017": 0.0,
			"-0.016": 0.0,
			"-0.015": 0.0,
			"-0.014": 0.0,
			"-0.013": 0.0,
			"-0.012": 0.0,
			"-0.011": 0.0,
			"-0.01": 0.0,
			"-0.009": 0.179768032798,
			"-0.008": 2.06203467351,
			"-0.007": 7.20301017443,
			"-0.006": 7.37417674637,
			"-0.005": 8.31414656601,
			"-0.004": 7.3902451953,
			"-0.003": 7.84457920339,
			"-0.002": 7.05172138192,
			"-0.001": 8.91420642603,
			"0.0": 16.1537561471,
			"0.001": 16.1505976862,
			"0.002": 22.1556213059,
			"0.003": 19.3603295702,
			"0.004": 21.9178446,
			"0.005": 4.50375503187,
			"0.006": 0.0,
			"0.007": 0.0,
			"0.008": 0.0,
			"0.009": 0.0,
			"0.01": 0.0,
			"0.011": 0.0,
			"0.012": 0.0,
			"0.013": 0.0,
			"0.014": 0.0,
			"0.015": 0.0,
			"0.016": 0.0,
			"0.017": 0.0,
			"0.018": 0.0,
			"0.019": 0.0,
			"0.02": 0.0,
			"0.021": 0.0,
			"0.022": 0.0,
			"0.023": 0.0,
			"0.024": 0.0,
			"0.025": 0.0
		}
	}
}
