{
	 "smiles": "CCNC(N)=S", 
	 "Tm": 385.15, 
	 "num_atms": 14, 
	 "gaussian": { 
		 "optdone": 1, 
		 "sigma_profile": "yes", 
		 "theory": "DFT", 
		 "functional": "B3LYP", 
		 "basiset": "6-31G**", 
		 "properties": { 
			 "R2extent": 1395.7823, 
			 "electric_dipole_moment_norm": 5.91882791438, 
			 "electric_quadrupole_moment_norm": 15.823461037, 
			 "total_energy": -626.851112136, 
			 "HOMO_LUMO_gap": 0.20283, 
			 "cosmo_polarized_energy": -18.28, 
			 "cosmo_cavitation_energy": 18.78, 
			 "cosmo_dispersion_energy": -14.48, 
			 "cosmo_repulsion_energy": 1.22, 
			 "cosmo_total_nonelectrostatic_energy": 5.52, 
			 "SMD_solvation_energy": 2.05 
		},
		"coords": [
			{
				"x": -0.2985737632,
				"y": -1.65398531,
				"z": 1.6732917805,
				"element": "C" 
			},
			{
				"x": 0.2021063795,
				"y": -0.3719957609,
				"z": 0.9941034178,
				"element": "C" 
			},
			{
				"x": 1.3022154427,
				"y": -0.5857367348,
				"z": 0.0612336058,
				"element": "N" 
			},
			{
				"x": 1.2151773111,
				"y": -0.903743159,
				"z": -1.2555032662,
				"element": "C" 
			},
			{
				"x": -0.0418161956,
				"y": -1.0674676998,
				"z": -1.7634159046,
				"element": "N" 
			},
			{
				"x": 2.5862655467,
				"y": -1.040751699,
				"z": -2.2254136032,
				"element": "S" 
			},
			{
				"x": 0.5049846672,
				"y": -2.1299261595,
				"z": 2.2429023664,
				"element": "H" 
			},
			{
				"x": -1.119622766,
				"y": -1.4269682396,
				"z": 2.3613290959,
				"element": "H" 
			},
			{
				"x": -0.6599514642,
				"y": -2.3841299825,
				"z": 0.9415622161,
				"element": "H" 
			},
			{
				"x": 0.5530628021,
				"y": 0.3350946465,
				"z": 1.7522793363,
				"element": "H" 
			},
			{
				"x": -0.6145692214,
				"y": 0.1329611098,
				"z": 0.4645983368,
				"element": "H" 
			},
			{
				"x": 2.2501086074,
				"y": -0.474222387,
				"z": 0.3890212305,
				"element": "H" 
			},
			{
				"x": -0.0788193601,
				"y": -1.4048995279,
				"z": -2.7124518911,
				"element": "H" 
			},
			{
				"x": -0.8245679863,
				"y": -1.2921290961,
				"z": -1.1672367211,
				"element": "H" 
			}
		],
		 "valence_orbital": [ 
			{
				"type": "occ",
				"energy": -0.37121,
				"method": "rhf"
			},
			{
				"type": "occ",
				"energy": -0.3513,
				"method": "rhf"
			},
			{
				"type": "occ",
				"energy": -0.27309,
				"method": "rhf"
			},
			{
				"type": "occ",
				"energy": -0.20478,
				"method": "rhf"
			},
			{
				"type": "occ",
				"energy": -0.19763,
				"method": "rhf"
			},
			{
				"type": "unocc",
				"energy": 0.0052,
				"method": "rhf"
			},
			{
				"type": "unocc",
				"energy": 0.05214,
				"method": "rhf"
			},
			{
				"type": "unocc",
				"energy": 0.07596,
				"method": "rhf"
			},
			{
				"type": "unocc",
				"energy": 0.10801,
				"method": "rhf"
			},
			{
				"type": "unocc",
				"energy": 0.12203,
				"method": "rhf"
			}
		],
		"cosmo_sigma_profile": { 
			"-0.025": 0.0,
			"-0.024": 0.0,
			"-0.023": 0.0,
			"-0.022": 0.0,
			"-0.021": 0.0,
			"-0.02": 0.0,
			"-0.019": 0.0,
			"-0.018": 0.0,
			"-0.017": 0.0,
			"-0.016": 0.0,
			"-0.015": 0.158944201552,
			"-0.014": 2.07179491051,
			"-0.013": 3.01412764146,
			"-0.012": 3.74555433206,
			"-0.011": 3.81781923746,
			"-0.01": 3.54261198549,
			"-0.009": 2.32246779776,
			"-0.008": 3.42130206401,
			"-0.007": 3.74531590071,
			"-0.006": 6.53976222404,
			"-0.005": 6.65890696175,
			"-0.004": 11.3216547856,
			"-0.003": 12.0151609048,
			"-0.002": 10.4416219485,
			"-0.001": 8.55497222926,
			"0.0": 9.00800371502,
			"0.001": 6.82820185943,
			"0.002": 3.57014208617,
			"0.003": 3.0437922279,
			"0.004": 2.98867001954,
			"0.005": 4.12704502094,
			"0.006": 3.67992160399,
			"0.007": 4.55551728978,
			"0.008": 3.5400591587,
			"0.009": 2.92430942009,
			"0.01": 4.32511541481,
			"0.011": 5.39300771589,
			"0.012": 8.09077407558,
			"0.013": 5.95946512074,
			"0.014": 0.40569640246,
			"0.015": 0.0,
			"0.016": 0.0,
			"0.017": 0.0,
			"0.018": 0.0,
			"0.019": 0.0,
			"0.02": 0.0,
			"0.021": 0.0,
			"0.022": 0.0,
			"0.023": 0.0,
			"0.024": 0.0,
			"0.025": 0.0
		}
	}
}
