{
	 "smiles": "OC(=O)CC1=CC=C(NS(=O)(=O)C2=CC(=CC=C2)C(F)(F)F)C=C1", 
	 "Tm": 396.15, 
	 "num_atms": 36, 
	 "gaussian": { 
		 "optdone": 1, 
		 "sigma_profile": "yes", 
		 "theory": "DFT", 
		 "functional": "B3LYP", 
		 "basiset": "6-31G**", 
		 "properties": { 
			 "R2extent": 10574.6591, 
			 "electric_dipole_moment_norm": 4.29478246946, 
			 "electric_quadrupole_moment_norm": 27.990879178, 
			 "total_energy": -1632.13780392, 
			 "HOMO_LUMO_gap": 0.17852, 
			 "cosmo_polarized_energy": -21.86, 
			 "cosmo_cavitation_energy": 44.55, 
			 "cosmo_dispersion_energy": -29.7, 
			 "cosmo_repulsion_energy": 2.19, 
			 "cosmo_total_nonelectrostatic_energy": 17.04, 
			 "SMD_solvation_energy": 8.89 
		},
		"coords": [
			{
				"x": 2.7989805653,
				"y": -3.973098098,
				"z": 3.925784897,
				"element": "O" 
			},
			{
				"x": 2.7231421571,
				"y": -3.0971358099,
				"z": 2.8967600189,
				"element": "C" 
			},
			{
				"x": 3.6597987438,
				"y": -2.8678868021,
				"z": 2.1646383777,
				"element": "O" 
			},
			{
				"x": 1.3551218912,
				"y": -2.4340082223,
				"z": 2.8362049094,
				"element": "C" 
			},
			{
				"x": 0.8440863955,
				"y": -2.1815417611,
				"z": 1.4335108168,
				"element": "C" 
			},
			{
				"x": -0.3804089713,
				"y": -2.7217733997,
				"z": 1.023838433,
				"element": "C" 
			},
			{
				"x": -0.8826033703,
				"y": -2.5028634016,
				"z": -0.2580807683,
				"element": "C" 
			},
			{
				"x": -0.1634624826,
				"y": -1.7002653113,
				"z": -1.1514886477,
				"element": "C" 
			},
			{
				"x": -0.6365161093,
				"y": -1.4818602817,
				"z": -2.4775302703,
				"element": "N" 
			},
			{
				"x": -2.1459817565,
				"y": -0.7916844026,
				"z": -2.8226547355,
				"element": "S" 
			},
			{
				"x": -2.1432663646,
				"y": -0.6354257987,
				"z": -4.2769298497,
				"element": "O" 
			},
			{
				"x": -3.1554412224,
				"y": -1.571652394,
				"z": -2.110433565,
				"element": "O" 
			},
			{
				"x": -2.1324158621,
				"y": 0.8542610642,
				"z": -2.0954254098,
				"element": "C" 
			},
			{
				"x": -2.4634905877,
				"y": 1.010124808,
				"z": -0.7485628922,
				"element": "C" 
			},
			{
				"x": -2.4220384922,
				"y": 2.2886694826,
				"z": -0.1918819482,
				"element": "C" 
			},
			{
				"x": -2.0651886549,
				"y": 3.391694752,
				"z": -0.9741605954,
				"element": "C" 
			},
			{
				"x": -1.7486838677,
				"y": 3.2188687978,
				"z": -2.3210513642,
				"element": "C" 
			},
			{
				"x": -1.7770580588,
				"y": 1.9454831812,
				"z": -2.8907700584,
				"element": "C" 
			},
			{
				"x": -2.7205035128,
				"y": 2.4819232318,
				"z": 1.2729167707,
				"element": "C" 
			},
			{
				"x": -3.4929965968,
				"y": 1.4923294212,
				"z": 1.7649105072,
				"element": "F" 
			},
			{
				"x": -1.584367762,
				"y": 2.5041728464,
				"z": 2.0069234008,
				"element": "F" 
			},
			{
				"x": -3.3559487644,
				"y": 3.6523267927,
				"z": 1.4991568948,
				"element": "F" 
			},
			{
				"x": 1.0605348434,
				"y": -1.1475879045,
				"z": -0.751367558,
				"element": "C" 
			},
			{
				"x": 1.5633036389,
				"y": -1.3962932085,
				"z": 0.5225224852,
				"element": "C" 
			},
			{
				"x": 3.7083269758,
				"y": -4.3182466568,
				"z": 3.9218960635,
				"element": "H" 
			},
			{
				"x": 1.46406774,
				"y": -1.483124129,
				"z": 3.3774011458,
				"element": "H" 
			},
			{
				"x": 0.6452920593,
				"y": -3.035187754,
				"z": 3.4082381315,
				"element": "H" 
			},
			{
				"x": -0.9488151627,
				"y": -3.3425571414,
				"z": 1.7115570134,
				"element": "H" 
			},
			{
				"x": -1.8189128363,
				"y": -2.9474986526,
				"z": -0.5724925887,
				"element": "H" 
			},
			{
				"x": 0.0549380365,
				"y": -1.1264097681,
				"z": -3.1304100173,
				"element": "H" 
			},
			{
				"x": -2.7693499603,
				"y": 0.1568346722,
				"z": -0.1558992628,
				"element": "H" 
			},
			{
				"x": -2.0524041588,
				"y": 4.3817050144,
				"z": -0.5309352922,
				"element": "H" 
			},
			{
				"x": -1.4886001684,
				"y": 4.0781208236,
				"z": -2.9309620804,
				"element": "H" 
			},
			{
				"x": -1.5528470169,
				"y": 1.7930256604,
				"z": -3.9409480308,
				"element": "H" 
			},
			{
				"x": 1.6216209058,
				"y": -0.5221735605,
				"z": -1.4413752707,
				"element": "H" 
			},
			{
				"x": 2.5236877871,
				"y": -0.9838660902,
				"z": 0.8105003397,
				"element": "H" 
			}
		],
		 "valence_orbital": [ 
			{
				"type": "occ",
				"energy": -0.29002,
				"method": "rhf"
			},
			{
				"type": "occ",
				"energy": -0.287,
				"method": "rhf"
			},
			{
				"type": "occ",
				"energy": -0.28367,
				"method": "rhf"
			},
			{
				"type": "occ",
				"energy": -0.26194,
				"method": "rhf"
			},
			{
				"type": "occ",
				"energy": -0.23648,
				"method": "rhf"
			},
			{
				"type": "unocc",
				"energy": -0.05796,
				"method": "rhf"
			},
			{
				"type": "unocc",
				"energy": -0.04514,
				"method": "rhf"
			},
			{
				"type": "unocc",
				"energy": -0.01864,
				"method": "rhf"
			},
			{
				"type": "unocc",
				"energy": -0.0134,
				"method": "rhf"
			},
			{
				"type": "unocc",
				"energy": 0.00319,
				"method": "rhf"
			}
		],
		"cosmo_sigma_profile": { 
			"-0.025": 0.0,
			"-0.024": 0.0,
			"-0.023": 0.0,
			"-0.022": 0.0,
			"-0.021": 0.0,
			"-0.02": 0.0,
			"-0.019": 0.0253421787343,
			"-0.018": 0.647058211988,
			"-0.017": 1.1894540764,
			"-0.016": 1.53054671044,
			"-0.015": 1.39490588544,
			"-0.014": 2.15356827891,
			"-0.013": 1.87045597965,
			"-0.012": 2.09165628135,
			"-0.011": 2.13254914752,
			"-0.01": 2.17356098455,
			"-0.009": 1.57447158096,
			"-0.008": 8.03179253188,
			"-0.007": 13.5054284249,
			"-0.006": 17.4682294724,
			"-0.005": 17.9365929291,
			"-0.004": 19.9127244697,
			"-0.003": 20.9414363904,
			"-0.002": 17.975397947,
			"-0.001": 21.8297343651,
			"0.0": 28.6075822156,
			"0.001": 29.273930143,
			"0.002": 34.6435184085,
			"0.003": 33.1059900987,
			"0.004": 15.4093509709,
			"0.005": 9.72020985806,
			"0.006": 7.50748038102,
			"0.007": 6.33061567973,
			"0.008": 6.80283614397,
			"0.009": 8.88624307072,
			"0.01": 9.86789425615,
			"0.011": 9.67467878708,
			"0.012": 2.52112095163,
			"0.013": 0.0107101844248,
			"0.014": 0.0,
			"0.015": 0.0,
			"0.016": 0.0,
			"0.017": 0.0,
			"0.018": 0.0,
			"0.019": 0.0,
			"0.02": 0.0,
			"0.021": 0.0,
			"0.022": 0.0,
			"0.023": 0.0,
			"0.024": 0.0,
			"0.025": 0.0
		}
	}
}
