{
	 "smiles": "CC(C)C1CCC(C)CC1OC(=O)C1CCC(=CC1)C(=O)OC1CC(C)CCC1C(C)C", 
	 "Tm": 398.15, 
	 "num_atms": 78, 
	 "gaussian": { 
		 "optdone": 1, 
		 "sigma_profile": "yes", 
		 "theory": "DFT", 
		 "functional": "B3LYP", 
		 "basiset": "6-31G**", 
		 "properties": { 
			 "R2extent": 25332.0039, 
			 "electric_dipole_moment_norm": 3.04750571616, 
			 "electric_quadrupole_moment_norm": 19.7414001332, 
			 "total_energy": -1395.67337201, 
			 "HOMO_LUMO_gap": 0.21994, 
			 "cosmo_polarized_energy": -11.52, 
			 "cosmo_cavitation_energy": 71.03, 
			 "cosmo_dispersion_energy": -45.77, 
			 "cosmo_repulsion_energy": 3.49, 
			 "cosmo_total_nonelectrostatic_energy": 28.74, 
			 "SMD_solvation_energy": 11.62 
		},
		"coords": [
			{
				"x": -4.2056114249,
				"y": -0.914479936,
				"z": -1.1852977204,
				"element": "C" 
			},
			{
				"x": -4.9976634434,
				"y": -0.0666952461,
				"z": -0.1720068693,
				"element": "C" 
			},
			{
				"x": -4.4359210852,
				"y": -0.3036368372,
				"z": 1.2407796059,
				"element": "C" 
			},
			{
				"x": -5.1375851532,
				"y": 1.4152833263,
				"z": -0.6606408762,
				"element": "C" 
			},
			{
				"x": -6.4906879565,
				"y": 2.0737793897,
				"z": -0.2805130593,
				"element": "C" 
			},
			{
				"x": -6.5608170376,
				"y": 2.6139956975,
				"z": 1.1554220115,
				"element": "C" 
			},
			{
				"x": -5.4332004983,
				"y": 3.6214182334,
				"z": 1.4368772028,
				"element": "C" 
			},
			{
				"x": -5.4766401597,
				"y": 4.1520726294,
				"z": 2.874047083,
				"element": "C" 
			},
			{
				"x": -4.0648427995,
				"y": 2.9926954356,
				"z": 1.1115127497,
				"element": "C" 
			},
			{
				"x": -4.0267498795,
				"y": 2.4290711037,
				"z": -0.3140730512,
				"element": "C" 
			},
			{
				"x": -2.7233108659,
				"y": 1.8291678908,
				"z": -0.5763161223,
				"element": "O" 
			},
			{
				"x": -1.7349203842,
				"y": 2.6632691549,
				"z": -0.9807137617,
				"element": "C" 
			},
			{
				"x": -1.8805776659,
				"y": 3.8583511413,
				"z": -1.1351121146,
				"element": "O" 
			},
			{
				"x": -0.4365161689,
				"y": 1.9236011181,
				"z": -1.2617684407,
				"element": "C" 
			},
			{
				"x": -0.5152735961,
				"y": 1.1496870058,
				"z": -2.5970760407,
				"element": "C" 
			},
			{
				"x": 0.8545520506,
				"y": 0.5695644426,
				"z": -2.9687241685,
				"element": "C" 
			},
			{
				"x": 1.5229379691,
				"y": -0.1137566001,
				"z": -1.7964373218,
				"element": "C" 
			},
			{
				"x": 1.11987345,
				"y": 0.0677129542,
				"z": -0.5275359203,
				"element": "C" 
			},
			{
				"x": -0.0136684206,
				"y": 0.9709563509,
				"z": -0.127694659,
				"element": "C" 
			},
			{
				"x": 2.6720283193,
				"y": -0.9983431945,
				"z": -2.1400825669,
				"element": "C" 
			},
			{
				"x": 3.0624269405,
				"y": -1.1609549872,
				"z": -3.2834472831,
				"element": "O" 
			},
			{
				"x": 3.2366688701,
				"y": -1.594019562,
				"z": -1.0638558865,
				"element": "O" 
			},
			{
				"x": 4.3756969112,
				"y": -2.4785619283,
				"z": -1.3135190713,
				"element": "C" 
			},
			{
				"x": 3.8707812316,
				"y": -3.8854459281,
				"z": -1.6414418394,
				"element": "C" 
			},
			{
				"x": 3.111209766,
				"y": -4.5838681088,
				"z": -0.4795373602,
				"element": "C" 
			},
			{
				"x": 1.58630399,
				"y": -4.4836458261,
				"z": -0.621486,
				"element": "C" 
			},
			{
				"x": 3.5859223964,
				"y": -4.0507769798,
				"z": 0.8922490673,
				"element": "C" 
			},
			{
				"x": 5.0651525894,
				"y": -3.6445855712,
				"z": 0.8616421458,
				"element": "C" 
			},
			{
				"x": 5.2765966658,
				"y": -2.4149921379,
				"z": -0.0516443693,
				"element": "C" 
			},
			{
				"x": 6.7604218746,
				"y": -2.1225119513,
				"z": -0.4088998738,
				"element": "C" 
			},
			{
				"x": 7.4300753742,
				"y": -3.2007046332,
				"z": -1.2775217717,
				"element": "C" 
			},
			{
				"x": 7.6008684677,
				"y": -1.8466343078,
				"z": 0.8480663434,
				"element": "C" 
			},
			{
				"x": -3.1648459908,
				"y": -0.5853360862,
				"z": -1.2450304169,
				"element": "H" 
			},
			{
				"x": -4.2110457176,
				"y": -1.9710432101,
				"z": -0.894980834,
				"element": "H" 
			},
			{
				"x": -4.6385385386,
				"y": -0.843986069,
				"z": -2.1892899409,
				"element": "H" 
			},
			{
				"x": -6.0238001329,
				"y": -0.4623569422,
				"z": -0.1734948426,
				"element": "H" 
			},
			{
				"x": -4.4594137242,
				"y": -1.3751774905,
				"z": 1.4690104479,
				"element": "H" 
			},
			{
				"x": -5.0111698696,
				"y": 0.2051428014,
				"z": 2.0185010039,
				"element": "H" 
			},
			{
				"x": -3.3947706164,
				"y": 0.0241109062,
				"z": 1.3169312875,
				"element": "H" 
			},
			{
				"x": -5.1404480832,
				"y": 1.3449205235,
				"z": -1.7565321734,
				"element": "H" 
			},
			{
				"x": -7.300900673,
				"y": 1.3577362994,
				"z": -0.4605933439,
				"element": "H" 
			},
			{
				"x": -6.668744721,
				"y": 2.9128519144,
				"z": -0.9677833507,
				"element": "H" 
			},
			{
				"x": -6.5029403527,
				"y": 1.7899658176,
				"z": 1.8786591529,
				"element": "H" 
			},
			{
				"x": -7.5344292164,
				"y": 3.093641035,
				"z": 1.3176500518,
				"element": "H" 
			},
			{
				"x": -5.5769679193,
				"y": 4.4748416237,
				"z": 0.7558962709,
				"element": "H" 
			},
			{
				"x": -4.6859780229,
				"y": 4.8893582144,
				"z": 3.0505052732,
				"element": "H" 
			},
			{
				"x": -6.4372537719,
				"y": 4.6323063484,
				"z": 3.0902138582,
				"element": "H" 
			},
			{
				"x": -5.3410756779,
				"y": 3.3389335361,
				"z": 3.5974742229,
				"element": "H" 
			},
			{
				"x": -3.2782803315,
				"y": 3.7498189235,
				"z": 1.1990631372,
				"element": "H" 
			},
			{
				"x": -3.8395614314,
				"y": 2.2057037302,
				"z": 1.8378026324,
				"element": "H" 
			},
			{
				"x": -4.1249554517,
				"y": 3.2756108401,
				"z": -1.0016675798,
				"element": "H" 
			},
			{
				"x": 0.3175701851,
				"y": 2.7106717389,
				"z": -1.3687220638,
				"element": "H" 
			},
			{
				"x": -0.8707201273,
				"y": 1.8109449243,
				"z": -3.3944679772,
				"element": "H" 
			},
			{
				"x": -1.2485706674,
				"y": 0.3407055289,
				"z": -2.4974813079,
				"element": "H" 
			},
			{
				"x": 0.7590477738,
				"y": -0.1443211819,
				"z": -3.7930735548,
				"element": "H" 
			},
			{
				"x": 1.5141501792,
				"y": 1.3618377901,
				"z": -3.3491842432,
				"element": "H" 
			},
			{
				"x": 1.6339052224,
				"y": -0.4625539474,
				"z": 0.2689491833,
				"element": "H" 
			},
			{
				"x": -0.8696951393,
				"y": 0.3577158367,
				"z": 0.1841683483,
				"element": "H" 
			},
			{
				"x": 0.2757824205,
				"y": 1.5459273009,
				"z": 0.7618365066,
				"element": "H" 
			},
			{
				"x": 4.8966470875,
				"y": -2.0724590639,
				"z": -2.1843441023,
				"element": "H" 
			},
			{
				"x": 4.7542120581,
				"y": -4.4776380046,
				"z": -1.908335672,
				"element": "H" 
			},
			{
				"x": 3.2519598435,
				"y": -3.840170196,
				"z": -2.5433008672,
				"element": "H" 
			},
			{
				"x": 3.3748963042,
				"y": -5.6495129407,
				"z": -0.5267124971,
				"element": "H" 
			},
			{
				"x": 1.2429615713,
				"y": -4.9379486395,
				"z": -1.5576126722,
				"element": "H" 
			},
			{
				"x": 1.080794036,
				"y": -4.9989802852,
				"z": 0.2036081058,
				"element": "H" 
			},
			{
				"x": 1.2591968263,
				"y": -3.4388828338,
				"z": -0.6143956677,
				"element": "H" 
			},
			{
				"x": 3.4066247624,
				"y": -4.8073032327,
				"z": 1.6652454946,
				"element": "H" 
			},
			{
				"x": 2.9851637087,
				"y": -3.1743940678,
				"z": 1.1700606154,
				"element": "H" 
			},
			{
				"x": 5.4178265383,
				"y": -3.4146689335,
				"z": 1.8724762193,
				"element": "H" 
			},
			{
				"x": 5.6650916322,
				"y": -4.4962425045,
				"z": 0.5142234044,
				"element": "H" 
			},
			{
				"x": 4.922610508,
				"y": -1.5398513449,
				"z": 0.508175298,
				"element": "H" 
			},
			{
				"x": 6.7474322165,
				"y": -1.1948438194,
				"z": -1.0001314766,
				"element": "H" 
			},
			{
				"x": 7.4999485093,
				"y": -4.160710277,
				"z": -0.7542133418,
				"element": "H" 
			},
			{
				"x": 6.8935237322,
				"y": -3.3679346155,
				"z": -2.2169955298,
				"element": "H" 
			},
			{
				"x": 8.4505569738,
				"y": -2.8986786748,
				"z": -1.5364756132,
				"element": "H" 
			},
			{
				"x": 7.7161950719,
				"y": -2.7461271385,
				"z": 1.462770887,
				"element": "H" 
			},
			{
				"x": 8.6058084456,
				"y": -1.5071093327,
				"z": 0.5752787053,
				"element": "H" 
			},
			{
				"x": 7.1441702431,
				"y": -1.0708269401,
				"z": 1.4728689003,
				"element": "H" 
			}
		],
		 "valence_orbital": [ 
			{
				"type": "occ",
				"energy": -0.28338,
				"method": "rhf"
			},
			{
				"type": "occ",
				"energy": -0.27867,
				"method": "rhf"
			},
			{
				"type": "occ",
				"energy": -0.26505,
				"method": "rhf"
			},
			{
				"type": "occ",
				"energy": -0.26169,
				"method": "rhf"
			},
			{
				"type": "occ",
				"energy": -0.25399,
				"method": "rhf"
			},
			{
				"type": "unocc",
				"energy": -0.03405,
				"method": "rhf"
			},
			{
				"type": "unocc",
				"energy": 0.01234,
				"method": "rhf"
			},
			{
				"type": "unocc",
				"energy": 0.069,
				"method": "rhf"
			},
			{
				"type": "unocc",
				"energy": 0.07273,
				"method": "rhf"
			},
			{
				"type": "unocc",
				"energy": 0.07632,
				"method": "rhf"
			}
		],
		"cosmo_sigma_profile": { 
			"-0.025": 0.0,
			"-0.024": 0.0,
			"-0.023": 0.0,
			"-0.022": 0.0,
			"-0.021": 0.0,
			"-0.02": 0.0,
			"-0.019": 0.0,
			"-0.018": 0.0,
			"-0.017": 0.0,
			"-0.016": 0.0,
			"-0.015": 0.0,
			"-0.014": 0.0,
			"-0.013": 0.0,
			"-0.012": 0.0,
			"-0.011": 0.0,
			"-0.01": 0.0,
			"-0.009": 0.0,
			"-0.008": 0.0,
			"-0.007": 0.0,
			"-0.006": 0.197801286436,
			"-0.005": 5.77346518032,
			"-0.004": 18.6693320435,
			"-0.003": 51.7853138328,
			"-0.002": 103.551999319,
			"-0.001": 103.36549958,
			"0.0": 91.809655828,
			"0.001": 74.1049903243,
			"0.002": 42.6658290791,
			"0.003": 11.7643819468,
			"0.004": 6.0334448945,
			"0.005": 4.34664683508,
			"0.006": 2.73878788912,
			"0.007": 3.51048282281,
			"0.008": 3.06481683989,
			"0.009": 3.04299416228,
			"0.01": 2.61589862364,
			"0.011": 4.8508464786,
			"0.012": 7.75643963043,
			"0.013": 4.45291486233,
			"0.014": 0.0992223969121,
			"0.015": 0.0,
			"0.016": 0.0,
			"0.017": 0.0,
			"0.018": 0.0,
			"0.019": 0.0,
			"0.02": 0.0,
			"0.021": 0.0,
			"0.022": 0.0,
			"0.023": 0.0,
			"0.024": 0.0,
			"0.025": 0.0
		}
	}
}
