{
	 "smiles": "OC(=O)C=CC1=CC(Cl)=C(Cl)C=C1", 
	 "Tm": 492.15, 
	 "num_atms": 19, 
	 "gaussian": { 
		 "optdone": 1, 
		 "sigma_profile": "yes", 
		 "theory": "DFT", 
		 "functional": "B3LYP", 
		 "basiset": "6-31G**", 
		 "properties": { 
			 "R2extent": 5070.2009, 
			 "electric_dipole_moment_norm": 2.32969309781, 
			 "electric_quadrupole_moment_norm": 26.979662065, 
			 "total_energy": -1417.3963226, 
			 "HOMO_LUMO_gap": 0.16434, 
			 "cosmo_polarized_energy": -16.7, 
			 "cosmo_cavitation_energy": 28.31, 
			 "cosmo_dispersion_energy": -20.84, 
			 "cosmo_repulsion_energy": 1.65, 
			 "cosmo_total_nonelectrostatic_energy": 9.13, 
			 "SMD_solvation_energy": 5.65 
		},
		"coords": [
			{
				"x": 1.0404246458,
				"y": -0.8086959068,
				"z": 4.3989830091,
				"element": "O" 
			},
			{
				"x": 0.1325334367,
				"y": -1.3499720448,
				"z": 3.5412753821,
				"element": "C" 
			},
			{
				"x": -0.4686296599,
				"y": -2.3523452983,
				"z": 3.8546162588,
				"element": "O" 
			},
			{
				"x": -0.0445688429,
				"y": -0.6339015763,
				"z": 2.24952669,
				"element": "C" 
			},
			{
				"x": -0.9228737429,
				"y": -1.1059540787,
				"z": 1.3472276773,
				"element": "C" 
			},
			{
				"x": -1.2468427277,
				"y": -0.5603247833,
				"z": 0.0297439499,
				"element": "C" 
			},
			{
				"x": -0.6433303202,
				"y": 0.5976832133,
				"z": -0.4899065342,
				"element": "C" 
			},
			{
				"x": -0.9826434775,
				"y": 1.081032522,
				"z": -1.7492319902,
				"element": "C" 
			},
			{
				"x": -0.1938436424,
				"y": 2.525256033,
				"z": -2.3332694812,
				"element": "Cl" 
			},
			{
				"x": -1.9432027936,
				"y": 0.4097219453,
				"z": -2.5247172842,
				"element": "C" 
			},
			{
				"x": -2.3981381621,
				"y": 0.979768772,
				"z": -4.1062868293,
				"element": "Cl" 
			},
			{
				"x": -2.5494765629,
				"y": -0.7418853733,
				"z": -2.0186797496,
				"element": "C" 
			},
			{
				"x": -2.205539008,
				"y": -1.2192444681,
				"z": -0.7594607722,
				"element": "C" 
			},
			{
				"x": 1.4399590989,
				"y": -0.0154808258,
				"z": 4.0161858057,
				"element": "H" 
			},
			{
				"x": 0.5442281575,
				"y": 0.2618098988,
				"z": 2.0621728206,
				"element": "H" 
			},
			{
				"x": -1.458937655,
				"y": -2.0083719705,
				"z": 1.6369490483,
				"element": "H" 
			},
			{
				"x": 0.1010938051,
				"y": 1.1390855546,
				"z": 0.0821462786,
				"element": "H" 
			},
			{
				"x": -3.2898339218,
				"y": -1.2553231457,
				"z": -2.6217466608,
				"element": "H" 
			},
			{
				"x": -2.6855786271,
				"y": -2.1159584676,
				"z": -0.3794276189,
				"element": "H" 
			}
		],
		 "valence_orbital": [ 
			{
				"type": "occ",
				"energy": -0.3216,
				"method": "rhf"
			},
			{
				"type": "occ",
				"energy": -0.30589,
				"method": "rhf"
			},
			{
				"type": "occ",
				"energy": -0.27759,
				"method": "rhf"
			},
			{
				"type": "occ",
				"energy": -0.27521,
				"method": "rhf"
			},
			{
				"type": "occ",
				"energy": -0.25121,
				"method": "rhf"
			},
			{
				"type": "unocc",
				"energy": -0.08687,
				"method": "rhf"
			},
			{
				"type": "unocc",
				"energy": -0.0384,
				"method": "rhf"
			},
			{
				"type": "unocc",
				"energy": -0.00942,
				"method": "rhf"
			},
			{
				"type": "unocc",
				"energy": -0.00187,
				"method": "rhf"
			},
			{
				"type": "unocc",
				"energy": 0.04787,
				"method": "rhf"
			}
		],
		"cosmo_sigma_profile": { 
			"-0.025": 0.0,
			"-0.024": 0.0,
			"-0.023": 0.0,
			"-0.022": 0.0,
			"-0.021": 0.0,
			"-0.02": 0.020002961834,
			"-0.019": 0.944419917863,
			"-0.018": 1.3674105804,
			"-0.017": 1.1979877843,
			"-0.016": 1.08939381397,
			"-0.015": 1.03088849468,
			"-0.014": 0.899535496969,
			"-0.013": 1.08593425915,
			"-0.012": 1.35313739953,
			"-0.011": 1.22112911478,
			"-0.01": 2.95722241621,
			"-0.009": 3.79879242467,
			"-0.008": 7.18795970613,
			"-0.007": 7.01326387951,
			"-0.006": 7.55008509282,
			"-0.005": 6.45833655203,
			"-0.004": 6.37450048437,
			"-0.003": 10.648518927,
			"-0.002": 11.14078931,
			"-0.001": 16.7259576811,
			"0.0": 27.48737697,
			"0.001": 27.3023490507,
			"0.002": 20.2164991865,
			"0.003": 18.0332485123,
			"0.004": 15.6662206654,
			"0.005": 5.28615048254,
			"0.006": 1.86606743326,
			"0.007": 2.79162576696,
			"0.008": 2.41189474997,
			"0.009": 3.20426455449,
			"0.01": 3.95804339878,
			"0.011": 5.40123400142,
			"0.012": 5.53747853308,
			"0.013": 2.53887888419,
			"0.014": 0.310616793176,
			"0.015": 0.0,
			"0.016": 0.0,
			"0.017": 0.0,
			"0.018": 0.0,
			"0.019": 0.0,
			"0.02": 0.0,
			"0.021": 0.0,
			"0.022": 0.0,
			"0.023": 0.0,
			"0.024": 0.0,
			"0.025": 0.0
		}
	}
}
