{
	 "smiles": "NC(=O)NC1=CC=C(C=C1)C1=CC=CC=C1", 
	 "Tm": 447.0, 
	 "num_atms": 28, 
	 "gaussian": { 
		 "optdone": 1, 
		 "sigma_profile": "yes", 
		 "theory": "DFT", 
		 "functional": "B3LYP", 
		 "basiset": "6-31G**", 
		 "properties": { 
			 "R2extent": 5837.8444, 
			 "electric_dipole_moment_norm": 3.42898651645, 
			 "electric_quadrupole_moment_norm": 20.9092395378, 
			 "total_energy": -687.378677089, 
			 "HOMO_LUMO_gap": 0.1799, 
			 "cosmo_polarized_energy": -15.45, 
			 "cosmo_cavitation_energy": 32.23, 
			 "cosmo_dispersion_energy": -23.71, 
			 "cosmo_repulsion_energy": 1.84, 
			 "cosmo_total_nonelectrostatic_energy": 10.35, 
			 "SMD_solvation_energy": 6.22 
		},
		"coords": [
			{
				"x": 3.8570502436,
				"y": -0.195055143,
				"z": -2.0492734877,
				"element": "N" 
			},
			{
				"x": 3.6163796832,
				"y": 0.9880484391,
				"z": -2.7213506525,
				"element": "C" 
			},
			{
				"x": 4.2996425497,
				"y": 1.3701513557,
				"z": -3.6606895831,
				"element": "O" 
			},
			{
				"x": 2.526375616,
				"y": 1.7392187875,
				"z": -2.2902961582,
				"element": "N" 
			},
			{
				"x": 1.5598938185,
				"y": 1.498399552,
				"z": -1.2960216249,
				"element": "C" 
			},
			{
				"x": 1.0599092564,
				"y": 0.2169444759,
				"z": -1.0114624717,
				"element": "C" 
			},
			{
				"x": 0.08857671,
				"y": 0.0459860529,
				"z": -0.0278360244,
				"element": "C" 
			},
			{
				"x": -0.4407139605,
				"y": 1.1316391059,
				"z": 0.6880978902,
				"element": "C" 
			},
			{
				"x": 0.0494241711,
				"y": 2.4111854545,
				"z": 0.3733098024,
				"element": "C" 
			},
			{
				"x": 1.0329960027,
				"y": 2.5933681639,
				"z": -0.5913140961,
				"element": "C" 
			},
			{
				"x": -1.4804214933,
				"y": 0.9373840325,
				"z": 1.7285844507,
				"element": "C" 
			},
			{
				"x": -1.4537622164,
				"y": -0.1836488968,
				"z": 2.5764405208,
				"element": "C" 
			},
			{
				"x": -2.4316235478,
				"y": -0.3682928283,
				"z": 3.5527687132,
				"element": "C" 
			},
			{
				"x": -3.4572695916,
				"y": 0.566314157,
				"z": 3.7070711806,
				"element": "C" 
			},
			{
				"x": -3.4964475462,
				"y": 1.6860021781,
				"z": 2.8739119881,
				"element": "C" 
			},
			{
				"x": -2.5206984843,
				"y": 1.8682556347,
				"z": 1.8950753705,
				"element": "C" 
			},
			{
				"x": 4.7637343994,
				"y": -0.5822754163,
				"z": -2.2670514373,
				"element": "H" 
			},
			{
				"x": 3.565435943,
				"y": -0.2748479812,
				"z": -1.0851479664,
				"element": "H" 
			},
			{
				"x": 2.5072302751,
				"y": 2.6411746473,
				"z": -2.7451338357,
				"element": "H" 
			},
			{
				"x": 1.4025208536,
				"y": -0.6361553402,
				"z": -1.5858395627,
				"element": "H" 
			},
			{
				"x": -0.2994945728,
				"y": -0.9518661508,
				"z": 0.1542239267,
				"element": "H" 
			},
			{
				"x": -0.3194166081,
				"y": 3.2744306553,
				"z": 0.9191320691,
				"element": "H" 
			},
			{
				"x": 1.4152337997,
				"y": 3.5904483461,
				"z": -0.7940567888,
				"element": "H" 
			},
			{
				"x": -0.6443925012,
				"y": -0.9021628318,
				"z": 2.4851596506,
				"element": "H" 
			},
			{
				"x": -2.3862794305,
				"y": -1.2389823606,
				"z": 4.2009930631,
				"element": "H" 
			},
			{
				"x": -4.2183184532,
				"y": 0.4234870071,
				"z": 4.4686375787,
				"element": "H" 
			},
			{
				"x": -4.2950370307,
				"y": 2.4150850282,
				"z": 2.9788798085,
				"element": "H" 
			},
			{
				"x": -2.5791278856,
				"y": 2.7274638756,
				"z": 1.2332876764,
				"element": "H" 
			}
		],
		 "valence_orbital": [ 
			{
				"type": "occ",
				"energy": -0.26186,
				"method": "rhf"
			},
			{
				"type": "occ",
				"energy": -0.25798,
				"method": "rhf"
			},
			{
				"type": "occ",
				"energy": -0.25617,
				"method": "rhf"
			},
			{
				"type": "occ",
				"energy": -0.25308,
				"method": "rhf"
			},
			{
				"type": "occ",
				"energy": -0.21226,
				"method": "rhf"
			},
			{
				"type": "unocc",
				"energy": -0.03236,
				"method": "rhf"
			},
			{
				"type": "unocc",
				"energy": -0.01491,
				"method": "rhf"
			},
			{
				"type": "unocc",
				"energy": -0.00412,
				"method": "rhf"
			},
			{
				"type": "unocc",
				"energy": 0.02041,
				"method": "rhf"
			},
			{
				"type": "unocc",
				"energy": 0.06458,
				"method": "rhf"
			}
		],
		"cosmo_sigma_profile": { 
			"-0.025": 0.0,
			"-0.024": 0.0,
			"-0.023": 0.0,
			"-0.022": 0.0,
			"-0.021": 0.0,
			"-0.02": 0.0,
			"-0.019": 0.0,
			"-0.018": 0.0,
			"-0.017": 0.0,
			"-0.016": 0.0,
			"-0.015": 0.0359147495455,
			"-0.014": 0.910754646035,
			"-0.013": 2.5793730644,
			"-0.012": 3.50502308964,
			"-0.011": 2.97021311219,
			"-0.01": 2.62920382218,
			"-0.009": 3.98341534461,
			"-0.008": 3.99107912181,
			"-0.007": 2.94169474055,
			"-0.006": 9.75682048531,
			"-0.005": 21.800977024,
			"-0.004": 20.9655870821,
			"-0.003": 17.955073127,
			"-0.002": 14.5624969319,
			"-0.001": 14.9031273515,
			"0.0": 13.6931036685,
			"0.001": 15.9025218889,
			"0.002": 15.6485677961,
			"0.003": 19.8317060377,
			"0.004": 19.8536320236,
			"0.005": 18.8825288266,
			"0.006": 9.18400565171,
			"0.007": 1.97006585205,
			"0.008": 1.61055291736,
			"0.009": 2.16831641914,
			"0.01": 0.877085394048,
			"0.011": 1.34622993906,
			"0.012": 1.723899606,
			"0.013": 2.62485356959,
			"0.014": 6.80925207909,
			"0.015": 1.7537916948,
			"0.016": 0.0,
			"0.017": 0.0,
			"0.018": 0.0,
			"0.019": 0.0,
			"0.02": 0.0,
			"0.021": 0.0,
			"0.022": 0.0,
			"0.023": 0.0,
			"0.024": 0.0,
			"0.025": 0.0
		}
	}
}
