{
	 "smiles": "OC(=O)C1=CC(OCC(F)(F)F)=NC=C1", 
	 "Tm": 383.15, 
	 "num_atms": 21, 
	 "gaussian": { 
		 "optdone": 1, 
		 "sigma_profile": "yes", 
		 "theory": "DFT", 
		 "functional": "B3LYP", 
		 "basiset": "6-31G**", 
		 "properties": { 
			 "R2extent": 4667.7244, 
			 "electric_dipole_moment_norm": 3.60803546823, 
			 "electric_quadrupole_moment_norm": 13.1752171804, 
			 "total_energy": -888.413325849, 
			 "HOMO_LUMO_gap": 0.18542, 
			 "cosmo_polarized_energy": -14.97, 
			 "cosmo_cavitation_energy": 28.08, 
			 "cosmo_dispersion_energy": -19.91, 
			 "cosmo_repulsion_energy": 1.51, 
			 "cosmo_total_nonelectrostatic_energy": 9.67, 
			 "SMD_solvation_energy": 6.82 
		},
		"coords": [
			{
				"x": 2.3726308862,
				"y": 1.7495977594,
				"z": 0.9051177057,
				"element": "O" 
			},
			{
				"x": 1.3509633046,
				"y": 1.4897714468,
				"z": 1.7576303689,
				"element": "C" 
			},
			{
				"x": 1.4463962741,
				"y": 1.7582528565,
				"z": 2.9302115434,
				"element": "O" 
			},
			{
				"x": 0.1174881798,
				"y": 0.8601494103,
				"z": 1.1658975494,
				"element": "C" 
			},
			{
				"x": 0.1337097306,
				"y": 0.1382053486,
				"z": -0.0236688259,
				"element": "C" 
			},
			{
				"x": -1.0772874699,
				"y": -0.4195902312,
				"z": -0.4669166574,
				"element": "C" 
			},
			{
				"x": -1.0201658823,
				"y": -1.1002200761,
				"z": -1.6449501624,
				"element": "O" 
			},
			{
				"x": -2.1809356488,
				"y": -1.7941792734,
				"z": -2.0862730538,
				"element": "C" 
			},
			{
				"x": -2.0752352065,
				"y": -3.2674991955,
				"z": -1.7255527138,
				"element": "C" 
			},
			{
				"x": -1.0145217485,
				"y": -3.8508919908,
				"z": -2.314618373,
				"element": "F" 
			},
			{
				"x": -3.1877017289,
				"y": -3.9090503062,
				"z": -2.1425415073,
				"element": "F" 
			},
			{
				"x": -1.9565417667,
				"y": -3.447986524,
				"z": -0.3973743599,
				"element": "F" 
			},
			{
				"x": -2.2267073934,
				"y": -0.2947399678,
				"z": 0.1758404094,
				"element": "N" 
			},
			{
				"x": -2.2251878377,
				"y": 0.3964197334,
				"z": 1.3287091974,
				"element": "C" 
			},
			{
				"x": -1.0905959479,
				"y": 0.9825917681,
				"z": 1.8703390196,
				"element": "C" 
			},
			{
				"x": 2.092886825,
				"y": 1.6156630435,
				"z": -0.0113421766,
				"element": "H" 
			},
			{
				"x": 1.0347798074,
				"y": -0.0490071017,
				"z": -0.5986837014,
				"element": "H" 
			},
			{
				"x": -2.2153697999,
				"y": -1.7061492942,
				"z": -3.1739881059,
				"element": "H" 
			},
			{
				"x": -3.086146007,
				"y": -1.3835365402,
				"z": -1.6379653663,
				"element": "H" 
			},
			{
				"x": -3.1845583989,
				"y": 0.4742805727,
				"z": 1.834565365,
				"element": "H" 
			},
			{
				"x": -1.1160001714,
				"y": 1.5214185618,
				"z": 2.8094638449,
				"element": "H" 
			}
		],
		 "valence_orbital": [ 
			{
				"type": "occ",
				"energy": -0.3325,
				"method": "rhf"
			},
			{
				"type": "occ",
				"energy": -0.31243,
				"method": "rhf"
			},
			{
				"type": "occ",
				"energy": -0.29605,
				"method": "rhf"
			},
			{
				"type": "occ",
				"energy": -0.28622,
				"method": "rhf"
			},
			{
				"type": "occ",
				"energy": -0.26085,
				"method": "rhf"
			},
			{
				"type": "unocc",
				"energy": -0.07543,
				"method": "rhf"
			},
			{
				"type": "unocc",
				"energy": -0.02858,
				"method": "rhf"
			},
			{
				"type": "unocc",
				"energy": 0.03201,
				"method": "rhf"
			},
			{
				"type": "unocc",
				"energy": 0.05282,
				"method": "rhf"
			},
			{
				"type": "unocc",
				"energy": 0.08339,
				"method": "rhf"
			}
		],
		"cosmo_sigma_profile": { 
			"-0.025": 0.0,
			"-0.024": 0.0,
			"-0.023": 0.0,
			"-0.022": 0.0,
			"-0.021": 0.0,
			"-0.02": 0.066977388503,
			"-0.019": 0.694191616949,
			"-0.018": 0.869219163303,
			"-0.017": 1.17385929004,
			"-0.016": 1.0601581713,
			"-0.015": 0.9914485562,
			"-0.014": 1.23009750914,
			"-0.013": 1.28498779361,
			"-0.012": 1.43102426975,
			"-0.011": 0.904606142455,
			"-0.01": 1.79272926927,
			"-0.009": 3.63722703873,
			"-0.008": 5.24684847506,
			"-0.007": 8.71498377473,
			"-0.006": 9.67782881614,
			"-0.005": 9.44693362434,
			"-0.004": 8.92133730253,
			"-0.003": 8.06987212215,
			"-0.002": 9.56687677456,
			"-0.001": 17.2028673942,
			"0.0": 16.6546366932,
			"0.001": 17.0685942322,
			"0.002": 27.4074264935,
			"0.003": 27.3554775655,
			"0.004": 6.32219544988,
			"0.005": 5.42543093312,
			"0.006": 6.57929754525,
			"0.007": 3.68571945912,
			"0.008": 5.27412268822,
			"0.009": 4.94284862455,
			"0.01": 5.03686515079,
			"0.011": 5.39377179421,
			"0.012": 2.13431060507,
			"0.013": 0.17102157535,
			"0.014": 0.0,
			"0.015": 0.0,
			"0.016": 0.0,
			"0.017": 0.0,
			"0.018": 0.0,
			"0.019": 0.0,
			"0.02": 0.0,
			"0.021": 0.0,
			"0.022": 0.0,
			"0.023": 0.0,
			"0.024": 0.0,
			"0.025": 0.0
		}
	}
}
