{
	 "smiles": "CC(C)(C)OC(=O)NC(CC1=CNC=N1)C(O)=O", 
	 "Tm": 471.15, 
	 "num_atms": 35, 
	 "gaussian": { 
		 "optdone": 1, 
		 "sigma_profile": "yes", 
		 "theory": "DFT", 
		 "functional": "B3LYP", 
		 "basiset": "6-31G**", 
		 "properties": { 
			 "R2extent": 4505.9621, 
			 "electric_dipole_moment_norm": 3.43586594762, 
			 "electric_quadrupole_moment_norm": 18.0131019294, 
			 "total_energy": -894.603813596, 
			 "HOMO_LUMO_gap": 0.22992, 
			 "cosmo_polarized_energy": -24.89, 
			 "cosmo_cavitation_energy": 37.54, 
			 "cosmo_dispersion_energy": -24.31, 
			 "cosmo_repulsion_energy": 1.88, 
			 "cosmo_total_nonelectrostatic_energy": 15.12, 
			 "SMD_solvation_energy": 6.72 
		},
		"coords": [
			{
				"x": 2.1639635506,
				"y": 1.0260359458,
				"z": 0.0349169233,
				"element": "C" 
			},
			{
				"x": 1.1287418335,
				"y": 0.2501526426,
				"z": 0.8526249686,
				"element": "C" 
			},
			{
				"x": 1.6659048115,
				"y": -1.1233547712,
				"z": 1.267420272,
				"element": "C" 
			},
			{
				"x": 0.6616073465,
				"y": 1.0820462401,
				"z": 2.052455576,
				"element": "C" 
			},
			{
				"x": 0.025205271,
				"y": 0.0750120859,
				"z": -0.1068523923,
				"element": "O" 
			},
			{
				"x": -1.1560543715,
				"y": -0.427562798,
				"z": 0.2920006401,
				"element": "C" 
			},
			{
				"x": -1.3909736614,
				"y": -0.9821405608,
				"z": 1.35465791,
				"element": "O" 
			},
			{
				"x": -2.1294118048,
				"y": -0.2727497598,
				"z": -0.6696920486,
				"element": "N" 
			},
			{
				"x": -2.0859479789,
				"y": 0.4627122686,
				"z": -1.9196089278,
				"element": "C" 
			},
			{
				"x": -1.5905064388,
				"y": -0.3747107045,
				"z": -3.1348117336,
				"element": "C" 
			},
			{
				"x": -0.2239012805,
				"y": -0.9814448915,
				"z": -3.0426100923,
				"element": "C" 
			},
			{
				"x": 0.1044042466,
				"y": -2.2472986595,
				"z": -2.6158286661,
				"element": "C" 
			},
			{
				"x": 1.4757402729,
				"y": -2.3333393566,
				"z": -2.7339758783,
				"element": "N" 
			},
			{
				"x": 1.9108992179,
				"y": -1.1353604208,
				"z": -3.2287392621,
				"element": "C" 
			},
			{
				"x": 0.9151202655,
				"y": -0.3003909344,
				"z": -3.4263251149,
				"element": "N" 
			},
			{
				"x": -1.4605519079,
				"y": 1.8570491305,
				"z": -1.763436617,
				"element": "C" 
			},
			{
				"x": -1.0995345151,
				"y": 2.367541871,
				"z": -2.9597983092,
				"element": "O" 
			},
			{
				"x": -1.3884786076,
				"y": 2.4846903822,
				"z": -0.7326138154,
				"element": "O" 
			},
			{
				"x": 1.7629355569,
				"y": 1.9991008752,
				"z": -0.2613507233,
				"element": "H" 
			},
			{
				"x": 3.0670772273,
				"y": 1.1869680109,
				"z": 0.6318312438,
				"element": "H" 
			},
			{
				"x": 2.4311309095,
				"y": 0.477339418,
				"z": -0.8716706172,
				"element": "H" 
			},
			{
				"x": 1.96961561,
				"y": -1.6930156503,
				"z": 0.3832733974,
				"element": "H" 
			},
			{
				"x": 2.542016375,
				"y": -0.9997280873,
				"z": 1.9129110212,
				"element": "H" 
			},
			{
				"x": 0.9038291447,
				"y": -1.6858071447,
				"z": 1.8080527328,
				"element": "H" 
			},
			{
				"x": -0.0547878555,
				"y": 0.5307433282,
				"z": 2.6616428589,
				"element": "H" 
			},
			{
				"x": 0.1922451066,
				"y": 2.0061794359,
				"z": 1.7033748803,
				"element": "H" 
			},
			{
				"x": 1.5264054179,
				"y": 1.3432996884,
				"z": 2.671435963,
				"element": "H" 
			},
			{
				"x": -3.0273273517,
				"y": -0.5950978033,
				"z": -0.3445640413,
				"element": "H" 
			},
			{
				"x": -3.1335761899,
				"y": 0.7030778023,
				"z": -2.1519160061,
				"element": "H" 
			},
			{
				"x": -2.323035437,
				"y": -1.1792314525,
				"z": -3.263376755,
				"element": "H" 
			},
			{
				"x": -1.6417279621,
				"y": 0.2581850357,
				"z": -4.0244223554,
				"element": "H" 
			},
			{
				"x": -0.4932397559,
				"y": -3.0651645037,
				"z": -2.2440119822,
				"element": "H" 
			},
			{
				"x": 2.0441256283,
				"y": -3.1367849726,
				"z": -2.5140759878,
				"element": "H" 
			},
			{
				"x": 2.9543914715,
				"y": -0.9402591863,
				"z": -3.4360847178,
				"element": "H" 
			},
			{
				"x": -0.7575041452,
				"y": 3.2592074964,
				"z": -2.7811323434,
				"element": "H" 
			}
		],
		 "valence_orbital": [ 
			{
				"type": "occ",
				"energy": -0.26934,
				"method": "rhf"
			},
			{
				"type": "occ",
				"energy": -0.26433,
				"method": "rhf"
			},
			{
				"type": "occ",
				"energy": -0.25308,
				"method": "rhf"
			},
			{
				"type": "occ",
				"energy": -0.24822,
				"method": "rhf"
			},
			{
				"type": "occ",
				"energy": -0.22088,
				"method": "rhf"
			},
			{
				"type": "unocc",
				"energy": 0.00904,
				"method": "rhf"
			},
			{
				"type": "unocc",
				"energy": 0.02745,
				"method": "rhf"
			},
			{
				"type": "unocc",
				"energy": 0.05669,
				"method": "rhf"
			},
			{
				"type": "unocc",
				"energy": 0.06135,
				"method": "rhf"
			},
			{
				"type": "unocc",
				"energy": 0.06896,
				"method": "rhf"
			}
		],
		"cosmo_sigma_profile": { 
			"-0.025": 0.0,
			"-0.024": 0.0,
			"-0.023": 0.0,
			"-0.022": 0.00239909281186,
			"-0.021": 0.00706700847083,
			"-0.02": 0.0318239068023,
			"-0.019": 0.321814142273,
			"-0.018": 0.971300963435,
			"-0.017": 1.16647935262,
			"-0.016": 2.71646840683,
			"-0.015": 2.04881611602,
			"-0.014": 3.09821235318,
			"-0.013": 3.16429791326,
			"-0.012": 3.42925353799,
			"-0.011": 3.21106709221,
			"-0.01": 3.56610508795,
			"-0.009": 5.17098384789,
			"-0.008": 8.41360528209,
			"-0.007": 8.21418619102,
			"-0.006": 7.42926410628,
			"-0.005": 8.32795621522,
			"-0.004": 15.4830807857,
			"-0.003": 17.5444859926,
			"-0.002": 19.9552101916,
			"-0.001": 23.2488579379,
			"0.0": 27.6880308898,
			"0.001": 25.8675830768,
			"0.002": 15.4036244634,
			"0.003": 11.8666915069,
			"0.004": 9.53588683333,
			"0.005": 9.98884700728,
			"0.006": 8.03290640242,
			"0.007": 7.12530118438,
			"0.008": 6.30233359907,
			"0.009": 6.03520990319,
			"0.01": 4.60473693028,
			"0.011": 4.98219832741,
			"0.012": 5.41201487041,
			"0.013": 5.65528690055,
			"0.014": 4.00925070555,
			"0.015": 1.50409903594,
			"0.016": 1.13069600042,
			"0.017": 0.874846998647,
			"0.018": 0.432038611109,
			"0.019": 0.0,
			"0.02": 0.0,
			"0.021": 0.0,
			"0.022": 0.0,
			"0.023": 0.0,
			"0.024": 0.0,
			"0.025": 0.0
		}
	}
}
