{
	 "smiles": "ClC(Cl)C(Cl)(Cl)C(Cl)(Cl)Cl", 
	 "Tm": 302.55, 
	 "num_atms": 11, 
	 "gaussian": { 
		 "optdone": 1, 
		 "sigma_profile": "yes", 
		 "theory": "DFT", 
		 "functional": "B3LYP", 
		 "basiset": "6-31G**", 
		 "properties": { 
			 "R2extent": 4828.1108, 
			 "electric_dipole_moment_norm": 0.896948393164, 
			 "electric_quadrupole_moment_norm": 3.62631419764, 
			 "total_energy": -3336.20763272, 
			 "HOMO_LUMO_gap": 0.23745, 
			 "cosmo_polarized_energy": -3.79, 
			 "cosmo_cavitation_energy": 25.62, 
			 "cosmo_dispersion_energy": -19.4, 
			 "cosmo_repulsion_energy": 1.53, 
			 "cosmo_total_nonelectrostatic_energy": 7.75, 
			 "SMD_solvation_energy": 2.31 
		},
		"coords": [
			{
				"x": -0.7917687156,
				"y": -2.4931946064,
				"z": -2.2571002587,
				"element": "Cl" 
			},
			{
				"x": -0.75718802,
				"y": -2.2443272674,
				"z": -0.4867152597,
				"element": "C" 
			},
			{
				"x": -0.8945443903,
				"y": -3.8391684333,
				"z": 0.3255504402,
				"element": "Cl" 
			},
			{
				"x": -1.8233441389,
				"y": -1.2258637985,
				"z": 0.0604769552,
				"element": "C" 
			},
			{
				"x": -3.4827595339,
				"y": -1.8311477445,
				"z": -0.2002336531,
				"element": "Cl" 
			},
			{
				"x": -1.4850197436,
				"y": -1.1111067392,
				"z": 1.836550074,
				"element": "Cl" 
			},
			{
				"x": -1.7084190283,
				"y": 0.260238315,
				"z": -0.533223574,
				"element": "C" 
			},
			{
				"x": -2.2555342585,
				"y": 0.3816906299,
				"z": -2.2331100508,
				"element": "Cl" 
			},
			{
				"x": -2.7231589048,
				"y": 1.3919132565,
				"z": 0.4251561732,
				"element": "Cl" 
			},
			{
				"x": 0.0124188232,
				"y": 0.7974722509,
				"z": -0.439825664,
				"element": "Cl" 
			},
			{
				"x": 0.2268179107,
				"y": -1.8532058629,
				"z": -0.2425251824,
				"element": "H" 
			}
		],
		 "valence_orbital": [ 
			{
				"type": "occ",
				"energy": -0.3315,
				"method": "rhf"
			},
			{
				"type": "occ",
				"energy": -0.32752,
				"method": "rhf"
			},
			{
				"type": "occ",
				"energy": -0.32611,
				"method": "rhf"
			},
			{
				"type": "occ",
				"energy": -0.31853,
				"method": "rhf"
			},
			{
				"type": "occ",
				"energy": -0.30394,
				"method": "rhf"
			},
			{
				"type": "unocc",
				"energy": -0.06649,
				"method": "rhf"
			},
			{
				"type": "unocc",
				"energy": -0.05716,
				"method": "rhf"
			},
			{
				"type": "unocc",
				"energy": -0.05101,
				"method": "rhf"
			},
			{
				"type": "unocc",
				"energy": -0.02303,
				"method": "rhf"
			},
			{
				"type": "unocc",
				"energy": -0.00875,
				"method": "rhf"
			}
		],
		"cosmo_sigma_profile": { 
			"-0.025": 0.0,
			"-0.024": 0.0,
			"-0.023": 0.0,
			"-0.022": 0.0,
			"-0.021": 0.0,
			"-0.02": 0.0,
			"-0.019": 0.0,
			"-0.018": 0.0,
			"-0.017": 0.0,
			"-0.016": 0.0,
			"-0.015": 0.0,
			"-0.014": 0.0,
			"-0.013": 0.13249392357,
			"-0.012": 1.0150183423,
			"-0.011": 0.981410484057,
			"-0.01": 1.30800141336,
			"-0.009": 1.1193875649,
			"-0.008": 1.50437238354,
			"-0.007": 1.19508148323,
			"-0.006": 2.72857510376,
			"-0.005": 7.03934369279,
			"-0.004": 10.5762912549,
			"-0.003": 12.9444520112,
			"-0.002": 14.1850030355,
			"-0.001": 17.5945248026,
			"0.0": 21.1101052513,
			"0.001": 37.7312140733,
			"0.002": 53.3712470593,
			"0.003": 29.0846931812,
			"0.004": 5.26428598221,
			"0.005": 0.0,
			"0.006": 0.0,
			"0.007": 0.0,
			"0.008": 0.0,
			"0.009": 0.0,
			"0.01": 0.0,
			"0.011": 0.0,
			"0.012": 0.0,
			"0.013": 0.0,
			"0.014": 0.0,
			"0.015": 0.0,
			"0.016": 0.0,
			"0.017": 0.0,
			"0.018": 0.0,
			"0.019": 0.0,
			"0.02": 0.0,
			"0.021": 0.0,
			"0.022": 0.0,
			"0.023": 0.0,
			"0.024": 0.0,
			"0.025": 0.0
		}
	}
}
