{
	 "smiles": "OC(=O)C1CCCSC1", 
	 "Tm": 350.15, 
	 "num_atms": 19, 
	 "gaussian": { 
		 "optdone": 1, 
		 "sigma_profile": "yes", 
		 "theory": "DFT", 
		 "functional": "B3LYP", 
		 "basiset": "6-31G**", 
		 "properties": { 
			 "R2extent": 1806.6131, 
			 "electric_dipole_moment_norm": 5.23416722507, 
			 "electric_quadrupole_moment_norm": 18.9293456966, 
			 "total_energy": -783.313486009, 
			 "HOMO_LUMO_gap": 0.25822, 
			 "cosmo_polarized_energy": -12.69, 
			 "cosmo_cavitation_energy": 21.91, 
			 "cosmo_dispersion_energy": -17.13, 
			 "cosmo_repulsion_energy": 1.35, 
			 "cosmo_total_nonelectrostatic_energy": 6.13, 
			 "SMD_solvation_energy": 3.91 
		},
		"coords": [
			{
				"x": 2.1840840082,
				"y": -2.2133481468,
				"z": -0.7211087503,
				"element": "O" 
			},
			{
				"x": 2.4686450651,
				"y": -1.1240552018,
				"z": 0.0309430765,
				"element": "C" 
			},
			{
				"x": 3.5070250028,
				"y": -1.0493288009,
				"z": 0.6425564123,
				"element": "O" 
			},
			{
				"x": 1.4199931928,
				"y": -0.007346474,
				"z": 0.0196271226,
				"element": "C" 
			},
			{
				"x": 1.4679687619,
				"y": 0.7526705098,
				"z": -1.3430507427,
				"element": "C" 
			},
			{
				"x": 0.1066452737,
				"y": 1.3242686311,
				"z": -1.7596949972,
				"element": "C" 
			},
			{
				"x": -0.8868033959,
				"y": 0.2330688007,
				"z": -2.1883939024,
				"element": "C" 
			},
			{
				"x": -0.8714779664,
				"y": -1.2536430809,
				"z": -1.0755659388,
				"element": "S" 
			},
			{
				"x": 0.0022874689,
				"y": -0.5188485036,
				"z": 0.3652438247,
				"element": "C" 
			},
			{
				"x": 1.294939584,
				"y": -2.1296569589,
				"z": -1.1243303695,
				"element": "H" 
			},
			{
				"x": 1.7222397335,
				"y": 0.674723126,
				"z": 0.8200119204,
				"element": "H" 
			},
			{
				"x": 1.8159694665,
				"y": 0.0752622413,
				"z": -2.1322132282,
				"element": "H" 
			},
			{
				"x": 2.2134877711,
				"y": 1.5497869417,
				"z": -1.2742020683,
				"element": "H" 
			},
			{
				"x": -0.3175637023,
				"y": 1.921665931,
				"z": -0.9442328407,
				"element": "H" 
			},
			{
				"x": 0.2352986443,
				"y": 2.0111816864,
				"z": -2.6041555671,
				"element": "H" 
			},
			{
				"x": -0.6321193062,
				"y": -0.1438308071,
				"z": -3.1830040431,
				"element": "H" 
			},
			{
				"x": -1.9073825754,
				"y": 0.6224029474,
				"z": -2.225390292,
				"element": "H" 
			},
			{
				"x": 0.0358679217,
				"y": -1.3047844575,
				"z": 1.1245599881,
				"element": "H" 
			},
			{
				"x": -0.6083049482,
				"y": 0.290811616,
				"z": 0.7717003959,
				"element": "H" 
			}
		],
		 "valence_orbital": [ 
			{
				"type": "occ",
				"energy": -0.34096,
				"method": "rhf"
			},
			{
				"type": "occ",
				"energy": -0.31595,
				"method": "rhf"
			},
			{
				"type": "occ",
				"energy": -0.30361,
				"method": "rhf"
			},
			{
				"type": "occ",
				"energy": -0.2604,
				"method": "rhf"
			},
			{
				"type": "occ",
				"energy": -0.24646,
				"method": "rhf"
			},
			{
				"type": "unocc",
				"energy": 0.01176,
				"method": "rhf"
			},
			{
				"type": "unocc",
				"energy": 0.01704,
				"method": "rhf"
			},
			{
				"type": "unocc",
				"energy": 0.05254,
				"method": "rhf"
			},
			{
				"type": "unocc",
				"energy": 0.06239,
				"method": "rhf"
			},
			{
				"type": "unocc",
				"energy": 0.08784,
				"method": "rhf"
			}
		],
		"cosmo_sigma_profile": { 
			"-0.025": 0.0,
			"-0.024": 0.0,
			"-0.023": 0.0,
			"-0.022": 0.0,
			"-0.021": 0.0,
			"-0.02": 0.0,
			"-0.019": 0.0,
			"-0.018": 0.0,
			"-0.017": 0.0,
			"-0.016": 0.0,
			"-0.015": 0.0,
			"-0.014": 0.0,
			"-0.013": 0.0,
			"-0.012": 0.0,
			"-0.011": 0.0,
			"-0.01": 0.0,
			"-0.009": 0.0,
			"-0.008": 0.873989165384,
			"-0.007": 5.73269844037,
			"-0.006": 10.7036439726,
			"-0.005": 18.9471439724,
			"-0.004": 25.2222974895,
			"-0.003": 22.0153147357,
			"-0.002": 17.4318678879,
			"-0.001": 10.1897539069,
			"0.0": 4.88846178991,
			"0.001": 3.80542895769,
			"0.002": 3.97066560951,
			"0.003": 4.54597030123,
			"0.004": 4.31186811488,
			"0.005": 4.5752338645,
			"0.006": 4.0337287414,
			"0.007": 3.40791122616,
			"0.008": 4.36130705859,
			"0.009": 3.33235320205,
			"0.01": 4.45943217929,
			"0.011": 5.73305546807,
			"0.012": 6.22766627177,
			"0.013": 3.67782453427,
			"0.014": 0.44720749684,
			"0.015": 0.0,
			"0.016": 0.0,
			"0.017": 0.0,
			"0.018": 0.0,
			"0.019": 0.0,
			"0.02": 0.0,
			"0.021": 0.0,
			"0.022": 0.0,
			"0.023": 0.0,
			"0.024": 0.0,
			"0.025": 0.0
		}
	}
}
