{
	 "smiles": "CN1C(=O)N(C)C(=O)C(=NNC2=CC=C(F)C=C2)C1=O", 
	 "Tm": 464.15, 
	 "num_atms": 31, 
	 "gaussian": { 
		 "optdone": 1, 
		 "sigma_profile": "yes", 
		 "theory": "DFT", 
		 "functional": "B3LYP", 
		 "basiset": "6-31G**", 
		 "properties": { 
			 "R2extent": 8607.9361, 
			 "electric_dipole_moment_norm": 2.37863811665, 
			 "electric_quadrupole_moment_norm": 5.82766203636, 
			 "total_energy": -1008.44354875, 
			 "HOMO_LUMO_gap": 0.13481, 
			 "cosmo_polarized_energy": -15.39, 
			 "cosmo_cavitation_energy": 36.69, 
			 "cosmo_dispersion_energy": -26.67, 
			 "cosmo_repulsion_energy": 1.97, 
			 "cosmo_total_nonelectrostatic_energy": 11.99, 
			 "SMD_solvation_energy": 8.29 
		},
		"coords": [
			{
				"x": 4.4448637646,
				"y": 0.0578807164,
				"z": -0.6460808291,
				"element": "C" 
			},
			{
				"x": 3.0352471758,
				"y": 0.175540202,
				"z": -0.2540533149,
				"element": "N" 
			},
			{
				"x": 2.7079307604,
				"y": 1.2953152088,
				"z": 0.5016721326,
				"element": "C" 
			},
			{
				"x": 3.5423871934,
				"y": 2.1264738313,
				"z": 0.8177134208,
				"element": "O" 
			},
			{
				"x": 1.3683067049,
				"y": 1.4419870166,
				"z": 0.8957666497,
				"element": "N" 
			},
			{
				"x": 1.0593479292,
				"y": 2.635510057,
				"z": 1.6928554416,
				"element": "C" 
			},
			{
				"x": 0.3570099524,
				"y": 0.5463045533,
				"z": 0.5802625038,
				"element": "C" 
			},
			{
				"x": -0.8090536255,
				"y": 0.7385071314,
				"z": 0.9623848143,
				"element": "O" 
			},
			{
				"x": 0.7405866748,
				"y": -0.6179772169,
				"z": -0.2160357741,
				"element": "C" 
			},
			{
				"x": -0.1112187343,
				"y": -1.5548340209,
				"z": -0.5932173549,
				"element": "N" 
			},
			{
				"x": -1.3668548733,
				"y": -1.4912405862,
				"z": -0.2691258366,
				"element": "N" 
			},
			{
				"x": -2.2699092752,
				"y": -2.4925594256,
				"z": -0.6741499276,
				"element": "C" 
			},
			{
				"x": -3.6105699784,
				"y": -2.3627922881,
				"z": -0.2905567827,
				"element": "C" 
			},
			{
				"x": -4.5395110399,
				"y": -3.3293486573,
				"z": -0.6686067791,
				"element": "C" 
			},
			{
				"x": -4.1091273915,
				"y": -4.4124843609,
				"z": -1.4264776301,
				"element": "C" 
			},
			{
				"x": -5.0035435489,
				"y": -5.3507114529,
				"z": -1.7950970947,
				"element": "F" 
			},
			{
				"x": -2.7793323892,
				"y": -4.5555014166,
				"z": -1.8156772204,
				"element": "C" 
			},
			{
				"x": -1.8514085481,
				"y": -3.590753775,
				"z": -1.4384688994,
				"element": "C" 
			},
			{
				"x": 2.1338165345,
				"y": -0.8284818576,
				"z": -0.6607630613,
				"element": "C" 
			},
			{
				"x": 2.505136894,
				"y": -1.780775514,
				"z": -1.3250506177,
				"element": "O" 
			},
			{
				"x": 4.5416453676,
				"y": -0.8575539256,
				"z": -1.2246855398,
				"element": "H" 
			},
			{
				"x": 4.7395024065,
				"y": 0.9230897363,
				"z": -1.2433163553,
				"element": "H" 
			},
			{
				"x": 5.077356684,
				"y": 0.0194159744,
				"z": 0.2430468381,
				"element": "H" 
			},
			{
				"x": 1.6489823439,
				"y": 2.6301710606,
				"z": 2.6114155359,
				"element": "H" 
			},
			{
				"x": 1.310184102,
				"y": 3.5342879558,
				"z": 1.1264915627,
				"element": "H" 
			},
			{
				"x": -0.0033605482,
				"y": 2.6114910417,
				"z": 1.9206029349,
				"element": "H" 
			},
			{
				"x": -1.6744023142,
				"y": -0.6848651204,
				"z": 0.2921123619,
				"element": "H" 
			},
			{
				"x": -3.9267361221,
				"y": -1.5087006911,
				"z": 0.3017375023,
				"element": "H" 
			},
			{
				"x": -5.5828791236,
				"y": -3.2518347568,
				"z": -0.3843951796,
				"element": "H" 
			},
			{
				"x": -2.4856966608,
				"y": -5.4159601635,
				"z": -2.4067883692,
				"element": "H" 
			},
			{
				"x": -0.8095003148,
				"y": -3.6717992562,
				"z": -1.724515132,
				"element": "H" 
			}
		],
		 "valence_orbital": [ 
			{
				"type": "occ",
				"energy": -0.28624,
				"method": "rhf"
			},
			{
				"type": "occ",
				"energy": -0.27731,
				"method": "rhf"
			},
			{
				"type": "occ",
				"energy": -0.27385,
				"method": "rhf"
			},
			{
				"type": "occ",
				"energy": -0.26014,
				"method": "rhf"
			},
			{
				"type": "occ",
				"energy": -0.22672,
				"method": "rhf"
			},
			{
				"type": "unocc",
				"energy": -0.09191,
				"method": "rhf"
			},
			{
				"type": "unocc",
				"energy": -0.02672,
				"method": "rhf"
			},
			{
				"type": "unocc",
				"energy": -0.00393,
				"method": "rhf"
			},
			{
				"type": "unocc",
				"energy": 0.00311,
				"method": "rhf"
			},
			{
				"type": "unocc",
				"energy": 0.02122,
				"method": "rhf"
			}
		],
		"cosmo_sigma_profile": { 
			"-0.025": 0.0,
			"-0.024": 0.0,
			"-0.023": 0.0,
			"-0.022": 0.0,
			"-0.021": 0.0,
			"-0.02": 0.0,
			"-0.019": 0.0,
			"-0.018": 0.0,
			"-0.017": 0.0,
			"-0.016": 0.0,
			"-0.015": 0.0,
			"-0.014": 0.00128101971175,
			"-0.013": 0.327298902918,
			"-0.012": 0.958277869684,
			"-0.011": 1.06771313181,
			"-0.01": 1.018326105,
			"-0.009": 1.28572860981,
			"-0.008": 5.82485392817,
			"-0.007": 8.55538689644,
			"-0.006": 14.4186784063,
			"-0.005": 23.3369301877,
			"-0.004": 26.2433609818,
			"-0.003": 30.339989061,
			"-0.002": 23.8809637735,
			"-0.001": 17.3523631781,
			"0.0": 19.8918797293,
			"0.001": 19.1734230254,
			"0.002": 21.5731816431,
			"0.003": 15.7449413332,
			"0.004": 14.781896009,
			"0.005": 6.51630086536,
			"0.006": 4.15607852603,
			"0.007": 3.8552680959,
			"0.008": 4.67282353189,
			"0.009": 4.37524233822,
			"0.01": 5.87120077592,
			"0.011": 6.36059804437,
			"0.012": 9.07422120275,
			"0.013": 2.92281956155,
			"0.014": 1.02893871001,
			"0.015": 0.0,
			"0.016": 0.0,
			"0.017": 0.0,
			"0.018": 0.0,
			"0.019": 0.0,
			"0.02": 0.0,
			"0.021": 0.0,
			"0.022": 0.0,
			"0.023": 0.0,
			"0.024": 0.0,
			"0.025": 0.0
		}
	}
}
