{
	 "smiles": "CC1=NNC=C1[N+]([O-])=O", 
	 "Tm": 406.15, 
	 "num_atms": 14, 
	 "gaussian": { 
		 "optdone": 1, 
		 "sigma_profile": "yes", 
		 "theory": "DFT", 
		 "functional": "B3LYP", 
		 "basiset": "6-31G**", 
		 "properties": { 
			 "R2extent": 1283.8019, 
			 "electric_dipole_moment_norm": 4.3734899634, 
			 "electric_quadrupole_moment_norm": 6.96560500603, 
			 "total_energy": -470.020165114, 
			 "HOMO_LUMO_gap": 0.20259, 
			 "cosmo_polarized_energy": -13.81, 
			 "cosmo_cavitation_energy": 19.05, 
			 "cosmo_dispersion_energy": -14.21, 
			 "cosmo_repulsion_energy": 1.18, 
			 "cosmo_total_nonelectrostatic_energy": 6.02, 
			 "SMD_solvation_energy": 5.08 
		},
		"coords": [
			{
				"x": 2.7761293381,
				"y": 1.3008089793,
				"z": 0.9033406595,
				"element": "C" 
			},
			{
				"x": 1.6881062577,
				"y": 0.2773192903,
				"z": 0.9233361017,
				"element": "C" 
			},
			{
				"x": 1.8870779061,
				"y": -0.9256835635,
				"z": 1.4545799798,
				"element": "N" 
			},
			{
				"x": 0.7071956114,
				"y": -1.5859908812,
				"z": 1.3031881304,
				"element": "N" 
			},
			{
				"x": -0.2468342199,
				"y": -0.860291545,
				"z": 0.6960575438,
				"element": "C" 
			},
			{
				"x": 0.352760274,
				"y": 0.3601203962,
				"z": 0.4325848392,
				"element": "C" 
			},
			{
				"x": -0.2945450159,
				"y": 1.458509536,
				"z": -0.2124748262,
				"element": "N" 
			},
			{
				"x": -1.4702300194,
				"y": 1.3033496603,
				"z": -0.5569094378,
				"element": "O" 
			},
			{
				"x": 0.3624530654,
				"y": 2.4894616134,
				"z": -0.383371343,
				"element": "O" 
			},
			{
				"x": 2.4712539658,
				"y": 2.2052870797,
				"z": 1.4370569913,
				"element": "H" 
			},
			{
				"x": 3.6708453101,
				"y": 0.8854310965,
				"z": 1.3706479489,
				"element": "H" 
			},
			{
				"x": 3.006724711,
				"y": 1.605535531,
				"z": -0.1212840011,
				"element": "H" 
			},
			{
				"x": 0.6356189348,
				"y": -2.5331281096,
				"z": 1.6430480599,
				"element": "H" 
			},
			{
				"x": -1.2439561191,
				"y": -1.2164290835,
				"z": 0.4903993535,
				"element": "H" 
			}
		],
		 "valence_orbital": [ 
			{
				"type": "occ",
				"energy": -0.3039,
				"method": "rhf"
			},
			{
				"type": "occ",
				"energy": -0.29936,
				"method": "rhf"
			},
			{
				"type": "occ",
				"energy": -0.28414,
				"method": "rhf"
			},
			{
				"type": "occ",
				"energy": -0.28288,
				"method": "rhf"
			},
			{
				"type": "occ",
				"energy": -0.27974,
				"method": "rhf"
			},
			{
				"type": "unocc",
				"energy": -0.07715,
				"method": "rhf"
			},
			{
				"type": "unocc",
				"energy": -0.00397,
				"method": "rhf"
			},
			{
				"type": "unocc",
				"energy": 0.05467,
				"method": "rhf"
			},
			{
				"type": "unocc",
				"energy": 0.06463,
				"method": "rhf"
			},
			{
				"type": "unocc",
				"energy": 0.11337,
				"method": "rhf"
			}
		],
		"cosmo_sigma_profile": { 
			"-0.025": 0.0,
			"-0.024": 0.0,
			"-0.023": 0.0,
			"-0.022": 0.0,
			"-0.021": 0.0,
			"-0.02": 0.0,
			"-0.019": 0.140429505318,
			"-0.018": 1.64693342358,
			"-0.017": 1.89139720811,
			"-0.016": 1.28322192101,
			"-0.015": 0.799355707601,
			"-0.014": 0.905536699921,
			"-0.013": 1.23807089256,
			"-0.012": 1.99048452434,
			"-0.011": 2.29975493812,
			"-0.01": 2.44289601229,
			"-0.009": 1.86755405246,
			"-0.008": 1.44737876016,
			"-0.007": 1.88295155577,
			"-0.006": 2.34785811149,
			"-0.005": 6.3101730866,
			"-0.004": 9.056703361,
			"-0.003": 11.028986283,
			"-0.002": 12.1288120687,
			"-0.001": 18.0267717495,
			"0.0": 11.2461721389,
			"0.001": 5.57501353575,
			"0.002": 5.18618994368,
			"0.003": 4.74830214479,
			"0.004": 4.82108630311,
			"0.005": 3.73227142989,
			"0.006": 4.54856663735,
			"0.007": 5.33009741885,
			"0.008": 10.6511921977,
			"0.009": 6.75475273128,
			"0.01": 5.37817101166,
			"0.011": 2.17093262404,
			"0.012": 0.858873892422,
			"0.013": 1.21204278356,
			"0.014": 0.778360013595,
			"0.015": 0.321392808925,
			"0.016": 0.0,
			"0.017": 0.0,
			"0.018": 0.0,
			"0.019": 0.0,
			"0.02": 0.0,
			"0.021": 0.0,
			"0.022": 0.0,
			"0.023": 0.0,
			"0.024": 0.0,
			"0.025": 0.0
		}
	}
}
