{
	 "smiles": "CSC1=NC(=CC(O)=N1)C(F)(F)F", 
	 "Tm": 451.15, 
	 "num_atms": 18, 
	 "gaussian": { 
		 "optdone": 1, 
		 "sigma_profile": "yes", 
		 "theory": "DFT", 
		 "functional": "B3LYP", 
		 "basiset": "6-31G**", 
		 "properties": { 
			 "R2extent": 3899.2583, 
			 "electric_dipole_moment_norm": 4.40974980129, 
			 "electric_quadrupole_moment_norm": 8.20095874578, 
			 "total_energy": -1114.09724506, 
			 "HOMO_LUMO_gap": 0.18468, 
			 "cosmo_polarized_energy": -10.06, 
			 "cosmo_cavitation_energy": 26.21, 
			 "cosmo_dispersion_energy": -19.28, 
			 "cosmo_repulsion_energy": 1.45, 
			 "cosmo_total_nonelectrostatic_energy": 8.38, 
			 "SMD_solvation_energy": 4.18 
		},
		"coords": [
			{
				"x": -0.134114672,
				"y": 0.8931263304,
				"z": 3.0710706161,
				"element": "C" 
			},
			{
				"x": 1.1377971303,
				"y": 1.3962493373,
				"z": 1.8648590193,
				"element": "S" 
			},
			{
				"x": 1.0393584107,
				"y": 0.0938961203,
				"z": 0.6739653641,
				"element": "C" 
			},
			{
				"x": 1.8921613359,
				"y": 0.2218556305,
				"z": -0.3463796022,
				"element": "N" 
			},
			{
				"x": 1.8425298096,
				"y": -0.7478072485,
				"z": -1.2650388654,
				"element": "C" 
			},
			{
				"x": 0.9811438629,
				"y": -1.8313941094,
				"z": -1.2046004022,
				"element": "C" 
			},
			{
				"x": 0.1379454444,
				"y": -1.8477632504,
				"z": -0.0836286993,
				"element": "C" 
			},
			{
				"x": -0.7320463368,
				"y": -2.8569159022,
				"z": 0.0642255857,
				"element": "O" 
			},
			{
				"x": 0.1571579034,
				"y": -0.9013323406,
				"z": 0.8525106001,
				"element": "N" 
			},
			{
				"x": 2.8185734383,
				"y": -0.5873417739,
				"z": -2.418275322,
				"element": "C" 
			},
			{
				"x": 4.0871606673,
				"y": -0.5667529928,
				"z": -1.9755819935,
				"element": "F" 
			},
			{
				"x": 2.7056237002,
				"y": -1.6054564064,
				"z": -3.2993433973,
				"element": "F" 
			},
			{
				"x": 2.5928681126,
				"y": 0.55795369,
				"z": -3.0838330232,
				"element": "F" 
			},
			{
				"x": -0.1261502889,
				"y": 1.6643633615,
				"z": 3.8442582164,
				"element": "H" 
			},
			{
				"x": 0.1080419866,
				"y": -0.0742084171,
				"z": 3.5124816513,
				"element": "H" 
			},
			{
				"x": -1.1186287814,
				"y": 0.8490852098,
				"z": 2.6041494005,
				"element": "H" 
			},
			{
				"x": 0.9513023217,
				"y": -2.6086060114,
				"z": -1.9546065365,
				"element": "H" 
			},
			{
				"x": -1.2173240447,
				"y": -2.6898512271,
				"z": 0.888767388,
				"element": "H" 
			}
		],
		 "valence_orbital": [ 
			{
				"type": "occ",
				"energy": -0.32829,
				"method": "rhf"
			},
			{
				"type": "occ",
				"energy": -0.32372,
				"method": "rhf"
			},
			{
				"type": "occ",
				"energy": -0.29297,
				"method": "rhf"
			},
			{
				"type": "occ",
				"energy": -0.28173,
				"method": "rhf"
			},
			{
				"type": "occ",
				"energy": -0.23983,
				"method": "rhf"
			},
			{
				"type": "unocc",
				"energy": -0.05515,
				"method": "rhf"
			},
			{
				"type": "unocc",
				"energy": -0.0328,
				"method": "rhf"
			},
			{
				"type": "unocc",
				"energy": 0.02844,
				"method": "rhf"
			},
			{
				"type": "unocc",
				"energy": 0.06403,
				"method": "rhf"
			},
			{
				"type": "unocc",
				"energy": 0.08212,
				"method": "rhf"
			}
		],
		"cosmo_sigma_profile": { 
			"-0.025": 0.0,
			"-0.024": 0.0,
			"-0.023": 0.0,
			"-0.022": 0.0,
			"-0.021": 0.0,
			"-0.02": 0.0,
			"-0.019": 0.0448162126052,
			"-0.018": 0.757128682642,
			"-0.017": 1.18239497852,
			"-0.016": 0.683237395218,
			"-0.015": 0.546037879736,
			"-0.014": 0.654634001422,
			"-0.013": 0.760503315258,
			"-0.012": 0.718300005089,
			"-0.011": 0.746535085946,
			"-0.01": 0.695916891709,
			"-0.009": 1.41063574814,
			"-0.008": 2.04192447758,
			"-0.007": 4.2437136496,
			"-0.006": 6.75167164059,
			"-0.005": 7.88673831887,
			"-0.004": 11.4426861637,
			"-0.003": 16.7063821483,
			"-0.002": 19.6042830117,
			"-0.001": 15.4488277784,
			"0.0": 12.3575088817,
			"0.001": 14.0788597975,
			"0.002": 31.8593958578,
			"0.003": 20.6000476209,
			"0.004": 10.1323287178,
			"0.005": 10.1238871427,
			"0.006": 7.55441759732,
			"0.007": 4.92263332501,
			"0.008": 3.48049895593,
			"0.009": 2.99312398618,
			"0.01": 0.567787689168,
			"0.011": 0.910178056385,
			"0.012": 0.361336009616,
			"0.013": 0.0,
			"0.014": 0.0,
			"0.015": 0.0,
			"0.016": 0.0,
			"0.017": 0.0,
			"0.018": 0.0,
			"0.019": 0.0,
			"0.02": 0.0,
			"0.021": 0.0,
			"0.022": 0.0,
			"0.023": 0.0,
			"0.024": 0.0,
			"0.025": 0.0
		}
	}
}
