{
	 "smiles": "CCOC(=O)C(CC1=CC=C(O)C=C1)NC(=O)CN", 
	 "Tm": 503.15, 
	 "num_atms": 37, 
	 "gaussian": { 
		 "optdone": 1, 
		 "sigma_profile": "yes", 
		 "theory": "DFT", 
		 "functional": "B3LYP", 
		 "basiset": "6-31G**", 
		 "properties": { 
			 "R2extent": 6848.8193, 
			 "electric_dipole_moment_norm": 3.9589826231, 
			 "electric_quadrupole_moment_norm": 14.2376811283, 
			 "total_energy": -916.657185785, 
			 "HOMO_LUMO_gap": 0.21209, 
			 "cosmo_polarized_energy": -22.07, 
			 "cosmo_cavitation_energy": 40.59, 
			 "cosmo_dispersion_energy": -27.88, 
			 "cosmo_repulsion_energy": 2.24, 
			 "cosmo_total_nonelectrostatic_energy": 14.95, 
			 "SMD_solvation_energy": 7.6 
		},
		"coords": [
			{
				"x": -0.3037509873,
				"y": -0.4362758676,
				"z": -4.7664625904,
				"element": "C" 
			},
			{
				"x": 0.5376738039,
				"y": -1.2923976327,
				"z": -3.8324636117,
				"element": "C" 
			},
			{
				"x": 0.18666279,
				"y": -1.0598144021,
				"z": -2.4449196649,
				"element": "O" 
			},
			{
				"x": 0.7985251806,
				"y": -0.0255905916,
				"z": -1.8319201135,
				"element": "C" 
			},
			{
				"x": 1.5951844198,
				"y": 0.7115269962,
				"z": -2.3700629764,
				"element": "O" 
			},
			{
				"x": 0.3030933275,
				"y": 0.1282519944,
				"z": -0.379806907,
				"element": "C" 
			},
			{
				"x": 0.2523306754,
				"y": -1.2234234747,
				"z": 0.3842806855,
				"element": "C" 
			},
			{
				"x": -0.3247489158,
				"y": -1.0983408976,
				"z": 1.7766380818,
				"element": "C" 
			},
			{
				"x": 0.5075698895,
				"y": -0.9042630161,
				"z": 2.8896880059,
				"element": "C" 
			},
			{
				"x": -0.0155235845,
				"y": -0.7781202104,
				"z": 4.1733661835,
				"element": "C" 
			},
			{
				"x": -1.3990796474,
				"y": -0.8425370694,
				"z": 4.3707599573,
				"element": "C" 
			},
			{
				"x": -1.8631859429,
				"y": -0.7140900303,
				"z": 5.6520483483,
				"element": "O" 
			},
			{
				"x": -2.2461113685,
				"y": -1.0375498041,
				"z": 3.2757241201,
				"element": "C" 
			},
			{
				"x": -1.7054225023,
				"y": -1.164707558,
				"z": 1.9954206785,
				"element": "C" 
			},
			{
				"x": 1.059119067,
				"y": 1.1672115568,
				"z": 0.289776401,
				"element": "N" 
			},
			{
				"x": 2.381415347,
				"y": 1.0567877344,
				"z": 0.5994692144,
				"element": "C" 
			},
			{
				"x": 3.0155500792,
				"y": 0.0068157696,
				"z": 0.6325036265,
				"element": "O" 
			},
			{
				"x": 3.0354200802,
				"y": 2.3918045601,
				"z": 0.9810692574,
				"element": "C" 
			},
			{
				"x": 2.3433901571,
				"y": 3.5349232316,
				"z": 0.3777467891,
				"element": "N" 
			},
			{
				"x": -0.0730788122,
				"y": -0.686157579,
				"z": -5.8074347979,
				"element": "H" 
			},
			{
				"x": -0.0885943765,
				"y": 0.6241652498,
				"z": -4.6138321458,
				"element": "H" 
			},
			{
				"x": -1.3711355223,
				"y": -0.6102817918,
				"z": -4.600796788,
				"element": "H" 
			},
			{
				"x": 1.6031750405,
				"y": -1.0899124229,
				"z": -3.9617389495,
				"element": "H" 
			},
			{
				"x": 0.3483854621,
				"y": -2.3575787849,
				"z": -3.9841528488,
				"element": "H" 
			},
			{
				"x": -0.7289467046,
				"y": 0.4942231251,
				"z": -0.4582101929,
				"element": "H" 
			},
			{
				"x": 1.265504529,
				"y": -1.6250957755,
				"z": 0.4289312848,
				"element": "H" 
			},
			{
				"x": -0.3560136283,
				"y": -1.9050307748,
				"z": -0.216036956,
				"element": "H" 
			},
			{
				"x": 1.5824088073,
				"y": -0.8553859732,
				"z": 2.7393555003,
				"element": "H" 
			},
			{
				"x": 0.6300554826,
				"y": -0.6339780439,
				"z": 5.0337867213,
				"element": "H" 
			},
			{
				"x": -2.826253655,
				"y": -0.7863989503,
				"z": 5.6452962365,
				"element": "H" 
			},
			{
				"x": -3.3228936119,
				"y": -1.0984735635,
				"z": 3.4232969126,
				"element": "H" 
			},
			{
				"x": -2.3761590267,
				"y": -1.327141204,
				"z": 1.1542000065,
				"element": "H" 
			},
			{
				"x": 0.7528984694,
				"y": 2.1297949815,
				"z": 0.1897049573,
				"element": "H" 
			},
			{
				"x": 2.9747649393,
				"y": 2.4841633109,
				"z": 2.0720455556,
				"element": "H" 
			},
			{
				"x": 4.0989533271,
				"y": 2.2938578264,
				"z": 0.7253968884,
				"element": "H" 
			},
			{
				"x": 2.5996226126,
				"y": 3.6178360426,
				"z": -0.6029251135,
				"element": "H" 
			},
			{
				"x": 2.6113947992,
				"y": 4.401883039,
				"z": 0.8331582437,
				"element": "H" 
			}
		],
		 "valence_orbital": [ 
			{
				"type": "occ",
				"energy": -0.26284,
				"method": "rhf"
			},
			{
				"type": "occ",
				"energy": -0.24925,
				"method": "rhf"
			},
			{
				"type": "occ",
				"energy": -0.24229,
				"method": "rhf"
			},
			{
				"type": "occ",
				"energy": -0.23267,
				"method": "rhf"
			},
			{
				"type": "occ",
				"energy": -0.20898,
				"method": "rhf"
			},
			{
				"type": "unocc",
				"energy": 0.00311,
				"method": "rhf"
			},
			{
				"type": "unocc",
				"energy": 0.01083,
				"method": "rhf"
			},
			{
				"type": "unocc",
				"energy": 0.02325,
				"method": "rhf"
			},
			{
				"type": "unocc",
				"energy": 0.02972,
				"method": "rhf"
			},
			{
				"type": "unocc",
				"energy": 0.07557,
				"method": "rhf"
			}
		],
		"cosmo_sigma_profile": { 
			"-0.025": 0.0,
			"-0.024": 0.0,
			"-0.023": 0.0,
			"-0.022": 0.0,
			"-0.021": 0.0,
			"-0.02": 0.0,
			"-0.019": 0.0,
			"-0.018": 0.20078447862,
			"-0.017": 1.17055064696,
			"-0.016": 0.840569373016,
			"-0.015": 0.850291589137,
			"-0.014": 1.546265544,
			"-0.013": 0.863344761727,
			"-0.012": 0.866260336796,
			"-0.011": 3.10888215634,
			"-0.01": 4.56774496995,
			"-0.009": 5.262391037,
			"-0.008": 6.86634006231,
			"-0.007": 6.72668550889,
			"-0.006": 12.5064085714,
			"-0.005": 18.6508554064,
			"-0.004": 25.7105767142,
			"-0.003": 27.1906349112,
			"-0.002": 24.8299798228,
			"-0.001": 21.7196881405,
			"0.0": 23.6684062784,
			"0.001": 15.3079369698,
			"0.002": 13.4273398471,
			"0.003": 13.2998734507,
			"0.004": 15.0380911205,
			"0.005": 16.0390778363,
			"0.006": 14.4881624079,
			"0.007": 7.78783305494,
			"0.008": 6.95814338868,
			"0.009": 5.09979913916,
			"0.01": 5.80798781486,
			"0.011": 7.19428994675,
			"0.012": 4.27390037123,
			"0.013": 2.34160537147,
			"0.014": 3.02683485118,
			"0.015": 1.31627948526,
			"0.016": 0.0254840344406,
			"0.017": 0.0,
			"0.018": 0.0,
			"0.019": 0.0,
			"0.02": 0.0,
			"0.021": 0.0,
			"0.022": 0.0,
			"0.023": 0.0,
			"0.024": 0.0,
			"0.025": 0.0
		}
	}
}
