{
	 "smiles": "CC1=C(C)N=CS1", 
	 "Tm": 356.65, 
	 "num_atms": 14, 
	 "gaussian": { 
		 "optdone": 1, 
		 "sigma_profile": "yes", 
		 "theory": "DFT", 
		 "functional": "B3LYP", 
		 "basiset": "6-31G**", 
		 "properties": { 
			 "R2extent": 1025.0808, 
			 "electric_dipole_moment_norm": 1.66796514952, 
			 "electric_quadrupole_moment_norm": 7.33269846032, 
			 "total_energy": -647.687361256, 
			 "HOMO_LUMO_gap": 0.20895, 
			 "cosmo_polarized_energy": -5.28, 
			 "cosmo_cavitation_energy": 18.86, 
			 "cosmo_dispersion_energy": -14.64, 
			 "cosmo_repulsion_energy": 1.18, 
			 "cosmo_total_nonelectrostatic_energy": 5.4, 
			 "SMD_solvation_energy": 2.08 
		},
		"coords": [
			{
				"x": -0.2504228356,
				"y": -2.725030285,
				"z": 1.1311292061,
				"element": "C" 
			},
			{
				"x": -0.0785765091,
				"y": -1.4298187066,
				"z": 0.3964307622,
				"element": "C" 
			},
			{
				"x": -0.3794575062,
				"y": -1.1356749674,
				"z": -0.9117057357,
				"element": "C" 
			},
			{
				"x": -0.9672290868,
				"y": -2.0908843774,
				"z": -1.9178695652,
				"element": "C" 
			},
			{
				"x": -0.1067943797,
				"y": 0.1614186468,
				"z": -1.3094139697,
				"element": "N" 
			},
			{
				"x": 0.3933369799,
				"y": 0.8577354293,
				"z": -0.3345165141,
				"element": "C" 
			},
			{
				"x": 0.5806734789,
				"y": -0.0082787059,
				"z": 1.1693401162,
				"element": "S" 
			},
			{
				"x": -0.6764902071,
				"y": -3.478999173,
				"z": 0.4645767567,
				"element": "H" 
			},
			{
				"x": 0.7037041025,
				"y": -3.112777465,
				"z": 1.5058432026,
				"element": "H" 
			},
			{
				"x": -0.9227824847,
				"y": -2.6220925054,
				"z": 1.9904617232,
				"element": "H" 
			},
			{
				"x": -0.3193715013,
				"y": -2.9583116163,
				"z": -2.0862980563,
				"element": "H" 
			},
			{
				"x": -1.9465484872,
				"y": -2.4672294475,
				"z": -1.6019328696,
				"element": "H" 
			},
			{
				"x": -1.0937277036,
				"y": -1.5715364527,
				"z": -2.8693452062,
				"element": "H" 
			},
			{
				"x": 0.68358614,
				"y": 1.8987796262,
				"z": -0.4137998504,
				"element": "H" 
			}
		],
		 "valence_orbital": [ 
			{
				"type": "occ",
				"energy": -0.37747,
				"method": "rhf"
			},
			{
				"type": "occ",
				"energy": -0.34457,
				"method": "rhf"
			},
			{
				"type": "occ",
				"energy": -0.27269,
				"method": "rhf"
			},
			{
				"type": "occ",
				"energy": -0.26599,
				"method": "rhf"
			},
			{
				"type": "occ",
				"energy": -0.22962,
				"method": "rhf"
			},
			{
				"type": "unocc",
				"energy": -0.02067,
				"method": "rhf"
			},
			{
				"type": "unocc",
				"energy": 0.02017,
				"method": "rhf"
			},
			{
				"type": "unocc",
				"energy": 0.05808,
				"method": "rhf"
			},
			{
				"type": "unocc",
				"energy": 0.0951,
				"method": "rhf"
			},
			{
				"type": "unocc",
				"energy": 0.10753,
				"method": "rhf"
			}
		],
		"cosmo_sigma_profile": { 
			"-0.025": 0.0,
			"-0.024": 0.0,
			"-0.023": 0.0,
			"-0.022": 0.0,
			"-0.021": 0.0,
			"-0.02": 0.0,
			"-0.019": 0.0,
			"-0.018": 0.0,
			"-0.017": 0.0,
			"-0.016": 0.0,
			"-0.015": 0.0,
			"-0.014": 0.0,
			"-0.013": 0.0,
			"-0.012": 0.0,
			"-0.011": 0.0,
			"-0.01": 0.126305922205,
			"-0.009": 1.76988383308,
			"-0.008": 2.05784661862,
			"-0.007": 1.7018456263,
			"-0.006": 2.08026124269,
			"-0.005": 6.20269416369,
			"-0.004": 14.477769127,
			"-0.003": 17.8333617615,
			"-0.002": 15.4898928016,
			"-0.001": 16.0197511615,
			"0.0": 15.2759549375,
			"0.001": 9.87309353069,
			"0.002": 13.4093621343,
			"0.003": 13.1919188991,
			"0.004": 7.85576696774,
			"0.005": 1.94380608728,
			"0.006": 1.87319135767,
			"0.007": 1.48039274482,
			"0.008": 1.45510507187,
			"0.009": 1.42120725417,
			"0.01": 1.07158859297,
			"0.011": 0.949740567851,
			"0.012": 1.12365919436,
			"0.013": 0.96919448029,
			"0.014": 1.13497103844,
			"0.015": 0.750573091128,
			"0.016": 0.469383313228,
			"0.017": 0.012177550453,
			"0.018": 0.0,
			"0.019": 0.0,
			"0.02": 0.0,
			"0.021": 0.0,
			"0.022": 0.0,
			"0.023": 0.0,
			"0.024": 0.0,
			"0.025": 0.0
		}
	}
}
