{
	 "smiles": "NC1(CCCCC1)C#N", 
	 "Tm": 299.15, 
	 "num_atms": 21, 
	 "gaussian": { 
		 "optdone": 1, 
		 "sigma_profile": "yes", 
		 "theory": "DFT", 
		 "functional": "B3LYP", 
		 "basiset": "6-31G**", 
		 "properties": { 
			 "R2extent": 1738.6883, 
			 "electric_dipole_moment_norm": 4.79102186804, 
			 "electric_quadrupole_moment_norm": 21.389220357, 
			 "total_energy": -383.462120512, 
			 "HOMO_LUMO_gap": 0.28721, 
			 "cosmo_polarized_energy": -11.8, 
			 "cosmo_cavitation_energy": 22.76, 
			 "cosmo_dispersion_energy": -16.33, 
			 "cosmo_repulsion_energy": 1.35, 
			 "cosmo_total_nonelectrostatic_energy": 7.78, 
			 "SMD_solvation_energy": 3.66 
		},
		"coords": [
			{
				"x": -0.2553720602,
				"y": 1.9910738407,
				"z": -1.800620083,
				"element": "N" 
			},
			{
				"x": 0.2890247583,
				"y": 1.8757326784,
				"z": -0.4356408051,
				"element": "C" 
			},
			{
				"x": -0.8899340642,
				"y": 1.9698019684,
				"z": 0.5886992994,
				"element": "C" 
			},
			{
				"x": -1.3510522327,
				"y": 0.5825977105,
				"z": 1.0516141154,
				"element": "C" 
			},
			{
				"x": -0.2356195026,
				"y": -0.1462817799,
				"z": 1.836625046,
				"element": "C" 
			},
			{
				"x": 1.1736548152,
				"y": 0.1948272117,
				"z": 1.2914033795,
				"element": "C" 
			},
			{
				"x": 1.1112980015,
				"y": 0.566829826,
				"z": -0.1945377826,
				"element": "C" 
			},
			{
				"x": 1.1873036362,
				"y": 3.0362038439,
				"z": -0.2317206415,
				"element": "C" 
			},
			{
				"x": 1.9167281903,
				"y": 3.92122566,
				"z": -0.051403751,
				"element": "N" 
			},
			{
				"x": 0.4854958888,
				"y": 1.8359845497,
				"z": -2.4821393142,
				"element": "H" 
			},
			{
				"x": -0.9374359018,
				"y": 1.2478526826,
				"z": -1.9402404158,
				"element": "H" 
			},
			{
				"x": -0.5712817832,
				"y": 2.5492997844,
				"z": 1.4612210516,
				"element": "H" 
			},
			{
				"x": -1.6960679599,
				"y": 2.5343144136,
				"z": 0.1110811698,
				"element": "H" 
			},
			{
				"x": -1.6502889274,
				"y": -0.0160895131,
				"z": 0.1811479185,
				"element": "H" 
			},
			{
				"x": -2.2505557007,
				"y": 0.6791938277,
				"z": 1.6687009495,
				"element": "H" 
			},
			{
				"x": -0.2916672038,
				"y": 0.1252058439,
				"z": 2.8968469777,
				"element": "H" 
			},
			{
				"x": -0.4065787263,
				"y": -1.2277856191,
				"z": 1.7866137184,
				"element": "H" 
			},
			{
				"x": 1.604140579,
				"y": 1.0373002745,
				"z": 1.8464836132,
				"element": "H" 
			},
			{
				"x": 1.8565554868,
				"y": -0.647578686,
				"z": 1.4421975954,
				"element": "H" 
			},
			{
				"x": 2.1128207912,
				"y": 0.6789571916,
				"z": -0.6228801828,
				"element": "H" 
			},
			{
				"x": 0.6159319156,
				"y": -0.2355657095,
				"z": -0.7560518583,
				"element": "H" 
			}
		],
		 "valence_orbital": [ 
			{
				"type": "occ",
				"energy": -0.33113,
				"method": "rhf"
			},
			{
				"type": "occ",
				"energy": -0.32257,
				"method": "rhf"
			},
			{
				"type": "occ",
				"energy": -0.31847,
				"method": "rhf"
			},
			{
				"type": "occ",
				"energy": -0.30928,
				"method": "rhf"
			},
			{
				"type": "occ",
				"energy": -0.25498,
				"method": "rhf"
			},
			{
				"type": "unocc",
				"energy": 0.03223,
				"method": "rhf"
			},
			{
				"type": "unocc",
				"energy": 0.04248,
				"method": "rhf"
			},
			{
				"type": "unocc",
				"energy": 0.06243,
				"method": "rhf"
			},
			{
				"type": "unocc",
				"energy": 0.08584,
				"method": "rhf"
			},
			{
				"type": "unocc",
				"energy": 0.10243,
				"method": "rhf"
			}
		],
		"cosmo_sigma_profile": { 
			"-0.025": 0.0,
			"-0.024": 0.0,
			"-0.023": 0.0,
			"-0.022": 0.0,
			"-0.021": 0.0,
			"-0.02": 0.0,
			"-0.019": 0.0,
			"-0.018": 0.0,
			"-0.017": 0.0,
			"-0.016": 0.0,
			"-0.015": 0.0,
			"-0.014": 0.0,
			"-0.013": 0.0,
			"-0.012": 0.0,
			"-0.011": 1.00221438928,
			"-0.01": 2.84981668978,
			"-0.009": 3.36370223321,
			"-0.008": 4.25945830506,
			"-0.007": 4.18383824599,
			"-0.006": 3.22198950232,
			"-0.005": 5.21345937023,
			"-0.004": 11.0570976297,
			"-0.003": 19.5940606005,
			"-0.002": 26.0211919826,
			"-0.001": 28.6246502514,
			"0.0": 15.8156408384,
			"0.001": 8.76453754947,
			"0.002": 2.47662225451,
			"0.003": 3.025712931,
			"0.004": 2.54868739208,
			"0.005": 3.11042884698,
			"0.006": 3.78893452646,
			"0.007": 3.28390891118,
			"0.008": 4.01784671834,
			"0.009": 3.7378475367,
			"0.01": 4.01533580815,
			"0.011": 4.23793997357,
			"0.012": 3.05993303065,
			"0.013": 2.50200069478,
			"0.014": 1.19294363329,
			"0.015": 0.386352852199,
			"0.016": 0.547860717704,
			"0.017": 0.49882755541,
			"0.018": 0.273597852034,
			"0.019": 0.0,
			"0.02": 0.0,
			"0.021": 0.0,
			"0.022": 0.0,
			"0.023": 0.0,
			"0.024": 0.0,
			"0.025": 0.0
		}
	}
}
