{
	 "smiles": "ClCC(=O)NC1=CC=C(Br)C=C1", 
	 "Tm": 409.15, 
	 "num_atms": 19, 
	 "gaussian": { 
		 "optdone": 1, 
		 "sigma_profile": "yes", 
		 "theory": "DFT", 
		 "functional": "B3LYP", 
		 "basiset": "6-31G**", 
		 "properties": { 
			 "R2extent": 6683.831, 
			 "electric_dipole_moment_norm": 3.44935772717, 
			 "electric_quadrupole_moment_norm": 16.0480233297, 
			 "total_energy": -3470.64790768, 
			 "HOMO_LUMO_gap": 0.20059, 
			 "cosmo_polarized_energy": -15.33, 
			 "cosmo_cavitation_energy": 27.8, 
			 "cosmo_dispersion_energy": -20.82, 
			 "cosmo_repulsion_energy": 1.69, 
			 "cosmo_total_nonelectrostatic_energy": 8.67, 
			 "SMD_solvation_energy": 3.98 
		},
		"coords": [
			{
				"x": 1.233288867,
				"y": -2.6224192729,
				"z": 2.9447852815,
				"element": "Cl" 
			},
			{
				"x": 0.0416516684,
				"y": -1.7623675379,
				"z": 1.9184003739,
				"element": "C" 
			},
			{
				"x": 0.373064789,
				"y": -0.2710592608,
				"z": 1.7944549833,
				"element": "C" 
			},
			{
				"x": 1.0162156656,
				"y": 0.3398388678,
				"z": 2.6258225352,
				"element": "O" 
			},
			{
				"x": -0.1064052482,
				"y": 0.3756736311,
				"z": 0.6671336334,
				"element": "N" 
			},
			{
				"x": -0.8263012799,
				"y": -0.099955777,
				"z": -0.4549232329,
				"element": "C" 
			},
			{
				"x": -1.9661385336,
				"y": -0.9052172034,
				"z": -0.3251859619,
				"element": "C" 
			},
			{
				"x": -2.6577661406,
				"y": -1.341292344,
				"z": -1.4548802719,
				"element": "C" 
			},
			{
				"x": -2.2312399117,
				"y": -0.9424454491,
				"z": -2.7197333688,
				"element": "C" 
			},
			{
				"x": -3.186407549,
				"y": -1.524118852,
				"z": -4.2656655703,
				"element": "Br" 
			},
			{
				"x": -1.1181956658,
				"y": -0.1148026749,
				"z": -2.8671752097,
				"element": "C" 
			},
			{
				"x": -0.4162808157,
				"y": 0.2955449497,
				"z": -1.7370778869,
				"element": "C" 
			},
			{
				"x": 0.0182401897,
				"y": -2.255385858,
				"z": 0.9465519529,
				"element": "H" 
			},
			{
				"x": -0.9341984414,
				"y": -1.8828613313,
				"z": 2.3945069347,
				"element": "H" 
			},
			{
				"x": 0.2381932035,
				"y": 1.3274349868,
				"z": 0.6196805259,
				"element": "H" 
			},
			{
				"x": -2.3360792393,
				"y": -1.1722431852,
				"z": 0.658485927,
				"element": "H" 
			},
			{
				"x": -3.5356066628,
				"y": -1.9680074773,
				"z": -1.3475521969,
				"element": "H" 
			},
			{
				"x": -0.7949819551,
				"y": 0.1948926842,
				"z": -3.8543466913,
				"element": "H" 
			},
			{
				"x": 0.4653470597,
				"y": 0.920291104,
				"z": -1.8478817575,
				"element": "H" 
			}
		],
		 "valence_orbital": [ 
			{
				"type": "occ",
				"energy": -0.29942,
				"method": "rhf"
			},
			{
				"type": "occ",
				"energy": -0.29253,
				"method": "rhf"
			},
			{
				"type": "occ",
				"energy": -0.28442,
				"method": "rhf"
			},
			{
				"type": "occ",
				"energy": -0.27402,
				"method": "rhf"
			},
			{
				"type": "occ",
				"energy": -0.2414,
				"method": "rhf"
			},
			{
				"type": "unocc",
				"energy": -0.04081,
				"method": "rhf"
			},
			{
				"type": "unocc",
				"energy": -0.03562,
				"method": "rhf"
			},
			{
				"type": "unocc",
				"energy": -0.00666,
				"method": "rhf"
			},
			{
				"type": "unocc",
				"energy": 0.00257,
				"method": "rhf"
			},
			{
				"type": "unocc",
				"energy": 0.03172,
				"method": "rhf"
			}
		],
		"cosmo_sigma_profile": { 
			"-0.025": 0.0,
			"-0.024": 0.0,
			"-0.023": 0.0,
			"-0.022": 0.0,
			"-0.021": 0.0,
			"-0.02": 0.0,
			"-0.019": 0.0,
			"-0.018": 0.0,
			"-0.017": 0.0,
			"-0.016": 0.0,
			"-0.015": 0.755942626305,
			"-0.014": 1.10855352118,
			"-0.013": 0.683079850399,
			"-0.012": 1.46884070383,
			"-0.011": 2.54745039854,
			"-0.01": 3.72462990408,
			"-0.009": 4.37908502582,
			"-0.008": 7.17273139205,
			"-0.007": 11.3201988179,
			"-0.006": 11.8012706736,
			"-0.005": 10.0316597551,
			"-0.004": 10.5280895599,
			"-0.003": 9.21344023711,
			"-0.002": 11.3456660188,
			"-0.001": 11.7804589731,
			"0.0": 13.2374184918,
			"0.001": 18.0476158454,
			"0.002": 22.3871200188,
			"0.003": 19.4671222036,
			"0.004": 16.913389551,
			"0.005": 11.8984128394,
			"0.006": 7.47488632948,
			"0.007": 2.31363169627,
			"0.008": 1.84487537581,
			"0.009": 2.06341787375,
			"0.01": 1.53307367463,
			"0.011": 2.70543221531,
			"0.012": 5.09127036361,
			"0.013": 4.27076416821,
			"0.014": 0.922139292247,
			"0.015": 0.0,
			"0.016": 0.0,
			"0.017": 0.0,
			"0.018": 0.0,
			"0.019": 0.0,
			"0.02": 0.0,
			"0.021": 0.0,
			"0.022": 0.0,
			"0.023": 0.0,
			"0.024": 0.0,
			"0.025": 0.0
		}
	}
}
