{
	 "smiles": "COC1=CC=C(C=O)C=C1OCC1=CC=CC=C1", 
	 "Tm": 335.15, 
	 "num_atms": 32, 
	 "gaussian": { 
		 "optdone": 1, 
		 "sigma_profile": "yes", 
		 "theory": "DFT", 
		 "functional": "B3LYP", 
		 "basiset": "6-31G**", 
		 "properties": { 
			 "R2extent": 6163.3882, 
			 "electric_dipole_moment_norm": 3.54756710014, 
			 "electric_quadrupole_moment_norm": 12.4081531446, 
			 "total_energy": -805.668746874, 
			 "HOMO_LUMO_gap": 0.18304, 
			 "cosmo_polarized_energy": -11.26, 
			 "cosmo_cavitation_energy": 36.78, 
			 "cosmo_dispersion_energy": -25.45, 
			 "cosmo_repulsion_energy": 1.97, 
			 "cosmo_total_nonelectrostatic_energy": 13.3, 
			 "SMD_solvation_energy": 8.07 
		},
		"coords": [
			{
				"x": 3.5120509278,
				"y": 0.263715356,
				"z": 0.8268242106,
				"element": "C" 
			},
			{
				"x": 2.678259737,
				"y": 1.4270684131,
				"z": 0.6937476649,
				"element": "O" 
			},
			{
				"x": 1.8548646717,
				"y": 1.457930855,
				"z": -0.399734717,
				"element": "C" 
			},
			{
				"x": 2.0225412977,
				"y": 2.4921171876,
				"z": -1.3253602873,
				"element": "C" 
			},
			{
				"x": 1.1882918288,
				"y": 2.5823984869,
				"z": -2.4362947416,
				"element": "C" 
			},
			{
				"x": 0.1802688285,
				"y": 1.6311689204,
				"z": -2.6373154175,
				"element": "C" 
			},
			{
				"x": -0.6973838599,
				"y": 1.7191285501,
				"z": -3.8224091267,
				"element": "C" 
			},
			{
				"x": -1.5999602499,
				"y": 0.9434528248,
				"z": -4.0776511413,
				"element": "O" 
			},
			{
				"x": -0.0028599548,
				"y": 0.602654644,
				"z": -1.699936916,
				"element": "C" 
			},
			{
				"x": 0.8156532899,
				"y": 0.5144901524,
				"z": -0.5821980881,
				"element": "C" 
			},
			{
				"x": 0.6275197422,
				"y": -0.5112985276,
				"z": 0.3165567386,
				"element": "O" 
			},
			{
				"x": 0.0646194673,
				"y": -0.1096347897,
				"z": 1.5830967445,
				"element": "C" 
			},
			{
				"x": -0.1089146767,
				"y": -1.328425679,
				"z": 2.4545293856,
				"element": "C" 
			},
			{
				"x": 0.121183997,
				"y": -1.2421113234,
				"z": 3.8320547267,
				"element": "C" 
			},
			{
				"x": -0.0873011623,
				"y": -2.3483069341,
				"z": 4.6579697158,
				"element": "C" 
			},
			{
				"x": -0.516251653,
				"y": -3.5577643671,
				"z": 4.1099848858,
				"element": "C" 
			},
			{
				"x": -0.7381242743,
				"y": -3.6536730251,
				"z": 2.7339367522,
				"element": "C" 
			},
			{
				"x": -0.5404037435,
				"y": -2.5452876185,
				"z": 1.9110881669,
				"element": "C" 
			},
			{
				"x": 2.9170431434,
				"y": -0.6487672762,
				"z": 0.9113436041,
				"element": "H" 
			},
			{
				"x": 4.0944240074,
				"y": 0.4166096291,
				"z": 1.7368629719,
				"element": "H" 
			},
			{
				"x": 4.1918009131,
				"y": 0.1831202578,
				"z": -0.0298229949,
				"element": "H" 
			},
			{
				"x": 2.8193980186,
				"y": 3.2078888529,
				"z": -1.1517899989,
				"element": "H" 
			},
			{
				"x": 1.3252397767,
				"y": 3.3841167097,
				"z": -3.1577685084,
				"element": "H" 
			},
			{
				"x": -0.4739439332,
				"y": 2.5758625905,
				"z": -4.497363578,
				"element": "H" 
			},
			{
				"x": -0.7944959843,
				"y": -0.124112677,
				"z": -1.8502239461,
				"element": "H" 
			},
			{
				"x": 0.7173717448,
				"y": 0.6248318873,
				"z": 2.0683237639,
				"element": "H" 
			},
			{
				"x": -0.9045157945,
				"y": 0.3744503088,
				"z": 1.3916720699,
				"element": "H" 
			},
			{
				"x": 0.4664624998,
				"y": -0.3046239937,
				"z": 4.2616692799,
				"element": "H" 
			},
			{
				"x": 0.0945932866,
				"y": -2.2667130673,
				"z": 5.7258403473,
				"element": "H" 
			},
			{
				"x": -0.6728996712,
				"y": -4.4216559205,
				"z": 4.7495759906,
				"element": "H" 
			},
			{
				"x": -1.0676321618,
				"y": -4.5939077413,
				"z": 2.3007486532,
				"element": "H" 
			},
			{
				"x": -0.7053000588,
				"y": -2.6195226857,
				"z": 0.8411437897,
				"element": "H" 
			}
		],
		 "valence_orbital": [ 
			{
				"type": "occ",
				"energy": -0.2588,
				"method": "rhf"
			},
			{
				"type": "occ",
				"energy": -0.25241,
				"method": "rhf"
			},
			{
				"type": "occ",
				"energy": -0.25193,
				"method": "rhf"
			},
			{
				"type": "occ",
				"energy": -0.24605,
				"method": "rhf"
			},
			{
				"type": "occ",
				"energy": -0.24284,
				"method": "rhf"
			},
			{
				"type": "unocc",
				"energy": -0.0598,
				"method": "rhf"
			},
			{
				"type": "unocc",
				"energy": -0.01426,
				"method": "rhf"
			},
			{
				"type": "unocc",
				"energy": -0.00646,
				"method": "rhf"
			},
			{
				"type": "unocc",
				"energy": -0.0032,
				"method": "rhf"
			},
			{
				"type": "unocc",
				"energy": 0.04109,
				"method": "rhf"
			}
		],
		"cosmo_sigma_profile": { 
			"-0.025": 0.0,
			"-0.024": 0.0,
			"-0.023": 0.0,
			"-0.022": 0.0,
			"-0.021": 0.0,
			"-0.02": 0.0,
			"-0.019": 0.0,
			"-0.018": 0.0,
			"-0.017": 0.0,
			"-0.016": 0.0,
			"-0.015": 0.0,
			"-0.014": 0.0,
			"-0.013": 0.0,
			"-0.012": 0.0,
			"-0.011": 0.0,
			"-0.01": 0.0,
			"-0.009": 0.0,
			"-0.008": 1.00036080188,
			"-0.007": 6.01025250332,
			"-0.006": 15.8803951968,
			"-0.005": 24.1435492087,
			"-0.004": 28.3140798386,
			"-0.003": 30.8280208687,
			"-0.002": 22.2336926229,
			"-0.001": 23.3082428925,
			"0.0": 17.3300660293,
			"0.001": 20.6801902498,
			"0.002": 24.7782202345,
			"0.003": 17.7820492996,
			"0.004": 12.7297476118,
			"0.005": 13.1585441636,
			"0.006": 12.3789138059,
			"0.007": 3.35689423783,
			"0.008": 3.35032038694,
			"0.009": 3.54356903927,
			"0.01": 3.75453006553,
			"0.011": 4.55964255978,
			"0.012": 3.62640494026,
			"0.013": 0.958243056121,
			"0.014": 0.00952428047093,
			"0.015": 0.0,
			"0.016": 0.0,
			"0.017": 0.0,
			"0.018": 0.0,
			"0.019": 0.0,
			"0.02": 0.0,
			"0.021": 0.0,
			"0.022": 0.0,
			"0.023": 0.0,
			"0.024": 0.0,
			"0.025": 0.0
		}
	}
}
