{
	 "smiles": "CCOC(CN)OCC", 
	 "Tm": 195.15, 
	 "num_atms": 24, 
	 "gaussian": { 
		 "optdone": 1, 
		 "sigma_profile": "yes", 
		 "theory": "DFT", 
		 "functional": "B3LYP", 
		 "basiset": "6-31G**", 
		 "properties": { 
			 "R2extent": 1507.3248, 
			 "electric_dipole_moment_norm": 3.05969346994, 
			 "electric_quadrupole_moment_norm": 4.60556396112, 
			 "total_energy": -442.848613881, 
			 "HOMO_LUMO_gap": 0.30028, 
			 "cosmo_polarized_energy": -9.61, 
			 "cosmo_cavitation_energy": 24.93, 
			 "cosmo_dispersion_energy": -18.13, 
			 "cosmo_repulsion_energy": 1.53, 
			 "cosmo_total_nonelectrostatic_energy": 8.33, 
			 "SMD_solvation_energy": 3.31 
		},
		"coords": [
			{
				"x": -2.7599876403,
				"y": -0.5583731131,
				"z": -1.0265989052,
				"element": "C" 
			},
			{
				"x": -1.3007110724,
				"y": -0.9339107287,
				"z": -0.7945807827,
				"element": "C" 
			},
			{
				"x": -0.8997861218,
				"y": -0.6138009062,
				"z": 0.5426535315,
				"element": "O" 
			},
			{
				"x": -0.0146756552,
				"y": 0.438959631,
				"z": 0.8233118009,
				"element": "C" 
			},
			{
				"x": -0.072279233,
				"y": 1.6499308563,
				"z": -0.1212087859,
				"element": "C" 
			},
			{
				"x": 0.7182310969,
				"y": 2.7226323735,
				"z": 0.4827068224,
				"element": "N" 
			},
			{
				"x": 1.3429973613,
				"y": 0.0131367336,
				"z": 0.999098467,
				"element": "O" 
			},
			{
				"x": 1.8580798302,
				"y": -1.0661198094,
				"z": 0.2265561156,
				"element": "C" 
			},
			{
				"x": 2.4832167889,
				"y": -0.6447517588,
				"z": -1.1044112537,
				"element": "C" 
			},
			{
				"x": -3.3940653997,
				"y": -1.0233239077,
				"z": -0.2661863105,
				"element": "H" 
			},
			{
				"x": -3.0919028215,
				"y": -0.9042688037,
				"z": -2.0119114508,
				"element": "H" 
			},
			{
				"x": -2.9075394089,
				"y": 0.5245111918,
				"z": -0.9763511983,
				"element": "H" 
			},
			{
				"x": -0.655086272,
				"y": -0.456878261,
				"z": -1.5387267207,
				"element": "H" 
			},
			{
				"x": -1.1733317938,
				"y": -2.0179681915,
				"z": -0.9054921247,
				"element": "H" 
			},
			{
				"x": -0.2963045878,
				"y": 0.7960495045,
				"z": 1.8192859339,
				"element": "H" 
			},
			{
				"x": 0.2595539964,
				"y": 1.3652727598,
				"z": -1.1327606281,
				"element": "H" 
			},
			{
				"x": -1.1152634063,
				"y": 1.9795752249,
				"z": -0.1978237691,
				"element": "H" 
			},
			{
				"x": 0.7860225389,
				"y": 3.5108444906,
				"z": -0.1548497965,
				"element": "H" 
			},
			{
				"x": 1.6618066422,
				"y": 2.3748969946,
				"z": 0.6364717274,
				"element": "H" 
			},
			{
				"x": 2.6311020999,
				"y": -1.5191194272,
				"z": 0.8575503202,
				"element": "H" 
			},
			{
				"x": 1.0835519813,
				"y": -1.8259030384,
				"z": 0.0751331749,
				"element": "H" 
			},
			{
				"x": 2.9831828292,
				"y": -1.5009419585,
				"z": -1.5716849976,
				"element": "H" 
			},
			{
				"x": 3.2298565385,
				"y": 0.139763701,
				"z": -0.9460798906,
				"element": "H" 
			},
			{
				"x": 1.7389317094,
				"y": -0.2682135572,
				"z": -1.8129012793,
				"element": "H" 
			}
		],
		 "valence_orbital": [ 
			{
				"type": "occ",
				"energy": -0.31412,
				"method": "rhf"
			},
			{
				"type": "occ",
				"energy": -0.30737,
				"method": "rhf"
			},
			{
				"type": "occ",
				"energy": -0.2672,
				"method": "rhf"
			},
			{
				"type": "occ",
				"energy": -0.24826,
				"method": "rhf"
			},
			{
				"type": "occ",
				"energy": -0.22898,
				"method": "rhf"
			},
			{
				"type": "unocc",
				"energy": 0.0713,
				"method": "rhf"
			},
			{
				"type": "unocc",
				"energy": 0.09088,
				"method": "rhf"
			},
			{
				"type": "unocc",
				"energy": 0.10134,
				"method": "rhf"
			},
			{
				"type": "unocc",
				"energy": 0.112,
				"method": "rhf"
			},
			{
				"type": "unocc",
				"energy": 0.12488,
				"method": "rhf"
			}
		],
		"cosmo_sigma_profile": { 
			"-0.025": 0.0,
			"-0.024": 0.0,
			"-0.023": 0.0,
			"-0.022": 0.0,
			"-0.021": 0.0,
			"-0.02": 0.0,
			"-0.019": 0.0,
			"-0.018": 0.0,
			"-0.017": 0.0,
			"-0.016": 0.0,
			"-0.015": 0.00167331451277,
			"-0.014": 0.0262611744673,
			"-0.013": 0.0958586337155,
			"-0.012": 0.0174224541468,
			"-0.011": 0.0958113484986,
			"-0.01": 0.786205253662,
			"-0.009": 1.35284673364,
			"-0.008": 1.77144502787,
			"-0.007": 3.06760569481,
			"-0.006": 3.78081381421,
			"-0.005": 5.03644126678,
			"-0.004": 18.1069910763,
			"-0.003": 28.1671966429,
			"-0.002": 30.327436007,
			"-0.001": 22.1476421745,
			"0.0": 19.3496794791,
			"0.001": 15.3581975149,
			"0.002": 5.83648904616,
			"0.003": 2.85941083807,
			"0.004": 3.65247108836,
			"0.005": 3.17447768977,
			"0.006": 3.43056830507,
			"0.007": 3.5864274708,
			"0.008": 3.9620827682,
			"0.009": 2.95446909182,
			"0.01": 2.39251425849,
			"0.011": 2.66456083883,
			"0.012": 2.20185632098,
			"0.013": 2.25979804823,
			"0.014": 0.957183901656,
			"0.015": 0.864104226239,
			"0.016": 0.441192658226,
			"0.017": 0.510455731361,
			"0.018": 0.36183470071,
			"0.019": 0.860633460922,
			"0.02": 0.0819275671723,
			"0.021": 0.0,
			"0.022": 0.0,
			"0.023": 0.0,
			"0.024": 0.0,
			"0.025": 0.0
		}
	}
}
