{
	 "smiles": "CC1=CC(=NO1)C(N)=S", 
	 "Tm": 443.15, 
	 "num_atms": 15, 
	 "gaussian": { 
		 "optdone": 1, 
		 "sigma_profile": "yes", 
		 "theory": "DFT", 
		 "functional": "B3LYP", 
		 "basiset": "6-31G**", 
		 "properties": { 
			 "R2extent": 2031.6243, 
			 "electric_dipole_moment_norm": 6.87374077341, 
			 "electric_quadrupole_moment_norm": 13.6347142647, 
			 "total_energy": -777.012872544, 
			 "HOMO_LUMO_gap": 0.14886, 
			 "cosmo_polarized_energy": -21.2, 
			 "cosmo_cavitation_energy": 21.66, 
			 "cosmo_dispersion_energy": -16.47, 
			 "cosmo_repulsion_energy": 1.33, 
			 "cosmo_total_nonelectrostatic_energy": 6.52, 
			 "SMD_solvation_energy": 3.07 
		},
		"coords": [
			{
				"x": -2.5333123649,
				"y": 0.0831827663,
				"z": 2.8064445555,
				"element": "C" 
			},
			{
				"x": -1.2531483089,
				"y": 0.1019857892,
				"z": 2.0461918634,
				"element": "C" 
			},
			{
				"x": -0.4528674646,
				"y": -0.8646407967,
				"z": 1.5147786816,
				"element": "C" 
			},
			{
				"x": 0.636604534,
				"y": -0.1357689724,
				"z": 0.9427714847,
				"element": "C" 
			},
			{
				"x": 0.4913130279,
				"y": 1.1643491891,
				"z": 1.1060492169,
				"element": "N" 
			},
			{
				"x": -0.7041484432,
				"y": 1.3126367806,
				"z": 1.8004910677,
				"element": "O" 
			},
			{
				"x": 1.8135011197,
				"y": -0.6879918167,
				"z": 0.2249646657,
				"element": "C" 
			},
			{
				"x": 1.5270553742,
				"y": -1.8083036007,
				"z": -0.4827340407,
				"element": "N" 
			},
			{
				"x": 3.3364606989,
				"y": -0.0418054104,
				"z": 0.3178902845,
				"element": "S" 
			},
			{
				"x": -3.3087620105,
				"y": 0.6474465177,
				"z": 2.2780792214,
				"element": "H" 
			},
			{
				"x": -2.8781753376,
				"y": -0.9439840454,
				"z": 2.9392394926,
				"element": "H" 
			},
			{
				"x": -2.4065228413,
				"y": 0.5396475681,
				"z": 3.7934882755,
				"element": "H" 
			},
			{
				"x": -0.5853785239,
				"y": -1.9343960927,
				"z": 1.5674141949,
				"element": "H" 
			},
			{
				"x": 0.5727994814,
				"y": -2.0643143239,
				"z": -0.6919317025,
				"element": "H" 
			},
			{
				"x": 2.2675810587,
				"y": -2.2208435521,
				"z": -1.0319372611,
				"element": "H" 
			}
		],
		 "valence_orbital": [ 
			{
				"type": "occ",
				"energy": -0.31123,
				"method": "rhf"
			},
			{
				"type": "occ",
				"energy": -0.30554,
				"method": "rhf"
			},
			{
				"type": "occ",
				"energy": -0.26943,
				"method": "rhf"
			},
			{
				"type": "occ",
				"energy": -0.23681,
				"method": "rhf"
			},
			{
				"type": "occ",
				"energy": -0.21076,
				"method": "rhf"
			},
			{
				"type": "unocc",
				"energy": -0.0619,
				"method": "rhf"
			},
			{
				"type": "unocc",
				"energy": -0.01079,
				"method": "rhf"
			},
			{
				"type": "unocc",
				"energy": 0.06127,
				"method": "rhf"
			},
			{
				"type": "unocc",
				"energy": 0.06977,
				"method": "rhf"
			},
			{
				"type": "unocc",
				"energy": 0.08152,
				"method": "rhf"
			}
		],
		"cosmo_sigma_profile": { 
			"-0.025": 0.0,
			"-0.024": 0.0,
			"-0.023": 0.0,
			"-0.022": 0.0,
			"-0.021": 0.0,
			"-0.02": 0.0,
			"-0.019": 0.0,
			"-0.018": 0.0,
			"-0.017": 0.0,
			"-0.016": 0.920612504715,
			"-0.015": 2.28726995237,
			"-0.014": 3.15892482544,
			"-0.013": 2.08212803837,
			"-0.012": 2.84684638161,
			"-0.011": 2.26110753493,
			"-0.01": 2.34484939457,
			"-0.009": 3.88589633839,
			"-0.008": 2.68464646273,
			"-0.007": 5.67826322453,
			"-0.006": 10.5149319172,
			"-0.005": 8.83541795513,
			"-0.004": 8.78388476959,
			"-0.003": 11.3661336004,
			"-0.002": 12.8448404019,
			"-0.001": 9.35073894239,
			"0.0": 8.71473404798,
			"0.001": 6.96318283016,
			"0.002": 6.28787480561,
			"0.003": 5.09968894794,
			"0.004": 5.09051445885,
			"0.005": 5.82670606676,
			"0.006": 6.22997009064,
			"0.007": 11.681709113,
			"0.008": 8.01961976554,
			"0.009": 6.05020344123,
			"0.01": 4.05982651457,
			"0.011": 4.77454902406,
			"0.012": 2.04647368225,
			"0.013": 2.90564167833,
			"0.014": 1.89996610869,
			"0.015": 0.179556052041,
			"0.016": 0.0,
			"0.017": 0.0,
			"0.018": 0.0,
			"0.019": 0.0,
			"0.02": 0.0,
			"0.021": 0.0,
			"0.022": 0.0,
			"0.023": 0.0,
			"0.024": 0.0,
			"0.025": 0.0
		}
	}
}
