{
	 "smiles": "CCOC(=O)C1=C(N)N=C2CCCCC2=C1", 
	 "Tm": 401.15, 
	 "num_atms": 32, 
	 "gaussian": { 
		 "optdone": 1, 
		 "sigma_profile": "yes", 
		 "theory": "DFT", 
		 "functional": "B3LYP", 
		 "basiset": "6-31G**", 
		 "properties": { 
			 "R2extent": 5770.0066, 
			 "electric_dipole_moment_norm": 1.72109079365, 
			 "electric_quadrupole_moment_norm": 20.688149605, 
			 "total_energy": -726.918279092, 
			 "HOMO_LUMO_gap": 0.1664, 
			 "cosmo_polarized_energy": -10.44, 
			 "cosmo_cavitation_energy": 33.98, 
			 "cosmo_dispersion_energy": -25.13, 
			 "cosmo_repulsion_energy": 1.99, 
			 "cosmo_total_nonelectrostatic_energy": 10.83, 
			 "SMD_solvation_energy": 4.51 
		},
		"coords": [
			{
				"x": -3.3358187823,
				"y": 2.0636116897,
				"z": 5.015475422,
				"element": "C" 
			},
			{
				"x": -3.1697925315,
				"y": 2.7711383381,
				"z": 3.6836492919,
				"element": "C" 
			},
			{
				"x": -2.3323355178,
				"y": 1.940296461,
				"z": 2.8473498581,
				"element": "O" 
			},
			{
				"x": -2.06879766,
				"y": 2.4356063377,
				"z": 1.6013545731,
				"element": "C" 
			},
			{
				"x": -2.5231685186,
				"y": 3.504511044,
				"z": 1.2342708697,
				"element": "O" 
			},
			{
				"x": -1.2112879419,
				"y": 1.5623365644,
				"z": 0.7725007096,
				"element": "C" 
			},
			{
				"x": -0.624571473,
				"y": 0.3229762688,
				"z": 1.1659443929,
				"element": "C" 
			},
			{
				"x": -0.7478074925,
				"y": -0.2116017947,
				"z": 2.4124285146,
				"element": "N" 
			},
			{
				"x": 0.1352963063,
				"y": -0.4046272503,
				"z": 0.3167725246,
				"element": "N" 
			},
			{
				"x": 0.3437667813,
				"y": 0.0502887698,
				"z": -0.9164041095,
				"element": "C" 
			},
			{
				"x": 1.1865093798,
				"y": -0.7629863517,
				"z": -1.8642839388,
				"element": "C" 
			},
			{
				"x": 2.2385466975,
				"y": 0.1161394645,
				"z": -2.5835591119,
				"element": "C" 
			},
			{
				"x": 1.6761796306,
				"y": 1.4785778217,
				"z": -3.0888157981,
				"element": "C" 
			},
			{
				"x": 0.1625111298,
				"y": 1.6485579195,
				"z": -2.8245056166,
				"element": "C" 
			},
			{
				"x": -0.1782974501,
				"y": 1.2651354753,
				"z": -1.4065979007,
				"element": "C" 
			},
			{
				"x": -0.9556391937,
				"y": 2.0083244922,
				"z": -0.5349784716,
				"element": "C" 
			},
			{
				"x": -3.9645575704,
				"y": 2.6656866847,
				"z": 5.6787041354,
				"element": "H" 
			},
			{
				"x": -2.3686852507,
				"y": 1.9148973792,
				"z": 5.50526882,
				"element": "H" 
			},
			{
				"x": -3.8146716237,
				"y": 1.0880117294,
				"z": 4.8866229093,
				"element": "H" 
			},
			{
				"x": -4.1276709977,
				"y": 2.9273485191,
				"z": 3.1783933607,
				"element": "H" 
			},
			{
				"x": -2.6944528306,
				"y": 3.7502438098,
				"z": 3.7946563965,
				"element": "H" 
			},
			{
				"x": -1.4145512473,
				"y": 0.1765505561,
				"z": 3.0581019044,
				"element": "H" 
			},
			{
				"x": -0.3991776974,
				"y": -1.1496523881,
				"z": 2.5271989505,
				"element": "H" 
			},
			{
				"x": 0.522240524,
				"y": -1.2132725576,
				"z": -2.616725105,
				"element": "H" 
			},
			{
				"x": 1.6595380019,
				"y": -1.5859943953,
				"z": -1.3229437144,
				"element": "H" 
			},
			{
				"x": 3.0641974338,
				"y": 0.3014872243,
				"z": -1.8885324445,
				"element": "H" 
			},
			{
				"x": 2.6623087611,
				"y": -0.4553059228,
				"z": -3.4160726819,
				"element": "H" 
			},
			{
				"x": 1.871854259,
				"y": 1.5992211254,
				"z": -4.1597817459,
				"element": "H" 
			},
			{
				"x": 2.2032625722,
				"y": 2.2955327319,
				"z": -2.5845604625,
				"element": "H" 
			},
			{
				"x": -0.3971097441,
				"y": 1.011538596,
				"z": -3.5257318798,
				"element": "H" 
			},
			{
				"x": -0.1468201766,
				"y": 2.678417376,
				"z": -3.0325291454,
				"element": "H" 
			},
			{
				"x": -1.3935977775,
				"y": 2.9557042821,
				"z": -0.8353705068,
				"element": "H" 
			}
		],
		 "valence_orbital": [ 
			{
				"type": "occ",
				"energy": -0.29461,
				"method": "rhf"
			},
			{
				"type": "occ",
				"energy": -0.273,
				"method": "rhf"
			},
			{
				"type": "occ",
				"energy": -0.26712,
				"method": "rhf"
			},
			{
				"type": "occ",
				"energy": -0.2476,
				"method": "rhf"
			},
			{
				"type": "occ",
				"energy": -0.20333,
				"method": "rhf"
			},
			{
				"type": "unocc",
				"energy": -0.03693,
				"method": "rhf"
			},
			{
				"type": "unocc",
				"energy": 0.00957,
				"method": "rhf"
			},
			{
				"type": "unocc",
				"energy": 0.05961,
				"method": "rhf"
			},
			{
				"type": "unocc",
				"energy": 0.08866,
				"method": "rhf"
			},
			{
				"type": "unocc",
				"energy": 0.09083,
				"method": "rhf"
			}
		],
		"cosmo_sigma_profile": { 
			"-0.025": 0.0,
			"-0.024": 0.0,
			"-0.023": 0.0,
			"-0.022": 0.0,
			"-0.021": 0.0,
			"-0.02": 0.0,
			"-0.019": 0.0,
			"-0.018": 0.0,
			"-0.017": 0.0,
			"-0.016": 0.0,
			"-0.015": 0.0,
			"-0.014": 0.0,
			"-0.013": 0.436227795458,
			"-0.012": 1.08546646875,
			"-0.011": 0.968184877318,
			"-0.01": 0.636060785384,
			"-0.009": 1.5148297839,
			"-0.008": 2.25798079934,
			"-0.007": 1.77280327614,
			"-0.006": 1.83017044194,
			"-0.005": 8.20739878167,
			"-0.004": 21.9510599603,
			"-0.003": 31.8938650833,
			"-0.002": 35.2163744418,
			"-0.001": 36.8165515285,
			"0.0": 31.3111963825,
			"0.001": 20.0387570341,
			"0.002": 16.7012359271,
			"0.003": 13.7282824528,
			"0.004": 6.24749605254,
			"0.005": 3.87940671185,
			"0.006": 5.50295464013,
			"0.007": 3.65333612973,
			"0.008": 3.48360193746,
			"0.009": 2.76120001835,
			"0.01": 2.65745158896,
			"0.011": 3.41464513202,
			"0.012": 4.97512499133,
			"0.013": 2.63186182397,
			"0.014": 0.863287988917,
			"0.015": 0.12884494831,
			"0.016": 0.0,
			"0.017": 0.0,
			"0.018": 0.0,
			"0.019": 0.0,
			"0.02": 0.0,
			"0.021": 0.0,
			"0.022": 0.0,
			"0.023": 0.0,
			"0.024": 0.0,
			"0.025": 0.0
		}
	}
}
