{
	 "smiles": "OC(=O)C1=C(Cl)C(=C(Cl)C(F)=C1)[N+]([O-])=O", 
	 "Tm": 468.15, 
	 "num_atms": 17, 
	 "gaussian": { 
		 "optdone": 1, 
		 "sigma_profile": "yes", 
		 "theory": "DFT", 
		 "functional": "B3LYP", 
		 "basiset": "6-31G**", 
		 "properties": { 
			 "R2extent": 3973.2265, 
			 "electric_dipole_moment_norm": 4.56670632294, 
			 "electric_quadrupole_moment_norm": 10.0375078565, 
			 "total_energy": -1643.69251609, 
			 "HOMO_LUMO_gap": 0.18592, 
			 "cosmo_polarized_energy": -11.73, 
			 "cosmo_cavitation_energy": 27.75, 
			 "cosmo_dispersion_energy": -19.87, 
			 "cosmo_repulsion_energy": 1.52, 
			 "cosmo_total_nonelectrostatic_energy": 9.4, 
			 "SMD_solvation_energy": 8.69 
		},
		"coords": [
			{
				"x": -4.3001920528,
				"y": 0.4018938108,
				"z": 0.4958980814,
				"element": "O" 
			},
			{
				"x": -3.3210882001,
				"y": 0.0688649071,
				"z": -0.3829313308,
				"element": "C" 
			},
			{
				"x": -3.5350035338,
				"y": -0.0587538374,
				"z": -1.5665862662,
				"element": "O" 
			},
			{
				"x": -2.0027655284,
				"y": -0.1066632882,
				"z": 0.3069415032,
				"element": "C" 
			},
			{
				"x": -0.8205087701,
				"y": -0.4547621574,
				"z": -0.3789208435,
				"element": "C" 
			},
			{
				"x": -0.7479267967,
				"y": -0.7207399163,
				"z": -2.0922397224,
				"element": "Cl" 
			},
			{
				"x": 0.366192853,
				"y": -0.5971206892,
				"z": 0.3483848502,
				"element": "C" 
			},
			{
				"x": 0.4238097566,
				"y": -0.4073637464,
				"z": 1.7285403911,
				"element": "C" 
			},
			{
				"x": 1.8960056349,
				"y": -0.5859884733,
				"z": 2.6169766441,
				"element": "Cl" 
			},
			{
				"x": -0.7574427173,
				"y": -0.0632232306,
				"z": 2.3891280492,
				"element": "C" 
			},
			{
				"x": -0.7366324591,
				"y": 0.1257129698,
				"z": 3.7115202163,
				"element": "F" 
			},
			{
				"x": -1.9447151043,
				"y": 0.0842563062,
				"z": 1.6959035184,
				"element": "C" 
			},
			{
				"x": 1.6152962224,
				"y": -0.9622481314,
				"z": -0.3579425554,
				"element": "N" 
			},
			{
				"x": 1.8547388778,
				"y": -2.1575054191,
				"z": -0.4577066093,
				"element": "O" 
			},
			{
				"x": 2.2996804797,
				"y": -0.0351807291,
				"z": -0.7679320886,
				"element": "O" 
			},
			{
				"x": -5.109388447,
				"y": 0.49426787,
				"z": -0.0333434776,
				"element": "H" 
			},
			{
				"x": -2.8387602149,
				"y": 0.3516537544,
				"z": 2.24330964,
				"element": "H" 
			}
		],
		 "valence_orbital": [ 
			{
				"type": "occ",
				"energy": -0.33192,
				"method": "rhf"
			},
			{
				"type": "occ",
				"energy": -0.32602,
				"method": "rhf"
			},
			{
				"type": "occ",
				"energy": -0.29529,
				"method": "rhf"
			},
			{
				"type": "occ",
				"energy": -0.29081,
				"method": "rhf"
			},
			{
				"type": "occ",
				"energy": -0.27792,
				"method": "rhf"
			},
			{
				"type": "unocc",
				"energy": -0.092,
				"method": "rhf"
			},
			{
				"type": "unocc",
				"energy": -0.09094,
				"method": "rhf"
			},
			{
				"type": "unocc",
				"energy": -0.05654,
				"method": "rhf"
			},
			{
				"type": "unocc",
				"energy": -0.02582,
				"method": "rhf"
			},
			{
				"type": "unocc",
				"energy": 0.01833,
				"method": "rhf"
			}
		],
		"cosmo_sigma_profile": { 
			"-0.025": 0.0,
			"-0.024": 0.0,
			"-0.023": 0.0,
			"-0.022": 0.0,
			"-0.021": 0.0,
			"-0.02": 0.0171651379882,
			"-0.019": 0.621610534474,
			"-0.018": 1.05050901958,
			"-0.017": 0.923627019639,
			"-0.016": 0.673432224574,
			"-0.015": 0.806512599953,
			"-0.014": 0.321648816555,
			"-0.013": 0.788595845857,
			"-0.012": 1.2868833631,
			"-0.011": 0.431872383503,
			"-0.01": 0.580032370227,
			"-0.009": 2.00255848466,
			"-0.008": 2.31247138238,
			"-0.007": 1.88621967195,
			"-0.006": 3.50805742821,
			"-0.005": 11.5103911298,
			"-0.004": 20.8767864463,
			"-0.003": 22.5698666081,
			"-0.002": 16.0160074258,
			"-0.001": 16.1247382162,
			"0.0": 18.1839999596,
			"0.001": 20.2257685252,
			"0.002": 22.192913528,
			"0.003": 12.8000807459,
			"0.004": 6.30915621078,
			"0.005": 11.2732048387,
			"0.006": 12.7514173426,
			"0.007": 6.98185082435,
			"0.008": 4.17383137805,
			"0.009": 2.47556017176,
			"0.01": 3.87294437483,
			"0.011": 3.01633256266,
			"0.012": 0.0191957277531,
			"0.013": 0.0,
			"0.014": 0.0,
			"0.015": 0.0,
			"0.016": 0.0,
			"0.017": 0.0,
			"0.018": 0.0,
			"0.019": 0.0,
			"0.02": 0.0,
			"0.021": 0.0,
			"0.022": 0.0,
			"0.023": 0.0,
			"0.024": 0.0,
			"0.025": 0.0
		}
	}
}
