{
	 "smiles": "ClC1=NN=C(C=C1)N1C=CC=N1", 
	 "Tm": 416.15, 
	 "num_atms": 17, 
	 "gaussian": { 
		 "optdone": 1, 
		 "sigma_profile": "yes", 
		 "theory": "DFT", 
		 "functional": "B3LYP", 
		 "basiset": "6-31G**", 
		 "properties": { 
			 "R2extent": 4232.8722, 
			 "electric_dipole_moment_norm": 6.08897504429, 
			 "electric_quadrupole_moment_norm": 20.8103540631, 
			 "total_energy": -948.874417003, 
			 "HOMO_LUMO_gap": 0.17853, 
			 "cosmo_polarized_energy": -19.06, 
			 "cosmo_cavitation_energy": 24.11, 
			 "cosmo_dispersion_energy": -18.32, 
			 "cosmo_repulsion_energy": 1.43, 
			 "cosmo_total_nonelectrostatic_energy": 7.23, 
			 "SMD_solvation_energy": 2.06 
		},
		"coords": [
			{
				"x": -0.0566026134,
				"y": 3.6715087014,
				"z": 4.0139344396,
				"element": "Cl" 
			},
			{
				"x": 0.193818352,
				"y": 2.2332979694,
				"z": 3.0513640306,
				"element": "C" 
			},
			{
				"x": -0.0774336258,
				"y": 1.0782742944,
				"z": 3.6341573394,
				"element": "N" 
			},
			{
				"x": 0.0909718655,
				"y": -0.0571951234,
				"z": 2.9580744348,
				"element": "N" 
			},
			{
				"x": 0.5316744021,
				"y": -0.0187110343,
				"z": 1.6995636647,
				"element": "C" 
			},
			{
				"x": 0.8355186362,
				"y": 1.1839499176,
				"z": 1.0317524775,
				"element": "C" 
			},
			{
				"x": 0.6596199278,
				"y": 2.3551281512,
				"z": 1.735203696,
				"element": "C" 
			},
			{
				"x": 0.6839170878,
				"y": -1.2617283482,
				"z": 1.0511005161,
				"element": "N" 
			},
			{
				"x": 1.1173405104,
				"y": -1.4897282565,
				"z": -0.2363045246,
				"element": "C" 
			},
			{
				"x": 1.103250285,
				"y": -2.8479882,
				"z": -0.425711572,
				"element": "C" 
			},
			{
				"x": 0.6434310977,
				"y": -3.3732613339,
				"z": 0.8108611686,
				"element": "C" 
			},
			{
				"x": 0.3909907492,
				"y": -2.4251266769,
				"z": 1.6980246236,
				"element": "N" 
			},
			{
				"x": 1.1930642089,
				"y": 1.2044960996,
				"z": 0.0095484539,
				"element": "H" 
			},
			{
				"x": 0.8684873426,
				"y": 3.3254669243,
				"z": 1.3005142332,
				"element": "H" 
			},
			{
				"x": 1.3964009345,
				"y": -0.6923217915,
				"z": -0.9059717765,
				"element": "H" 
			},
			{
				"x": 1.3820647213,
				"y": -3.3845248505,
				"z": -1.3201205919,
				"element": "H" 
			},
			{
				"x": 0.4879861181,
				"y": -4.4086364428,
				"z": 1.083809387,
				"element": "H" 
			}
		],
		 "valence_orbital": [ 
			{
				"type": "occ",
				"energy": -0.30668,
				"method": "rhf"
			},
			{
				"type": "occ",
				"energy": -0.29859,
				"method": "rhf"
			},
			{
				"type": "occ",
				"energy": -0.26524,
				"method": "rhf"
			},
			{
				"type": "occ",
				"energy": -0.25127,
				"method": "rhf"
			},
			{
				"type": "occ",
				"energy": -0.24932,
				"method": "rhf"
			},
			{
				"type": "unocc",
				"energy": -0.07079,
				"method": "rhf"
			},
			{
				"type": "unocc",
				"energy": -0.05624,
				"method": "rhf"
			},
			{
				"type": "unocc",
				"energy": 0.01663,
				"method": "rhf"
			},
			{
				"type": "unocc",
				"energy": 0.01918,
				"method": "rhf"
			},
			{
				"type": "unocc",
				"energy": 0.05843,
				"method": "rhf"
			}
		],
		"cosmo_sigma_profile": { 
			"-0.025": 0.0,
			"-0.024": 0.0,
			"-0.023": 0.0,
			"-0.022": 0.0,
			"-0.021": 0.0,
			"-0.02": 0.0,
			"-0.019": 0.0,
			"-0.018": 0.0,
			"-0.017": 0.0,
			"-0.016": 0.0,
			"-0.015": 0.0,
			"-0.014": 0.0855189391436,
			"-0.013": 1.46943784347,
			"-0.012": 1.46029794743,
			"-0.011": 2.81141156189,
			"-0.01": 4.59942116439,
			"-0.009": 4.93749613101,
			"-0.008": 6.69077323552,
			"-0.007": 7.29896833424,
			"-0.006": 7.06370404999,
			"-0.005": 9.69078457969,
			"-0.004": 13.9624851932,
			"-0.003": 15.6428965716,
			"-0.002": 14.8226020196,
			"-0.001": 11.4598359941,
			"0.0": 9.0913731795,
			"0.001": 10.1790648947,
			"0.002": 12.8419221307,
			"0.003": 17.1038537889,
			"0.004": 10.9062211633,
			"0.005": 4.9252379981,
			"0.006": 3.39755503053,
			"0.007": 2.61269324038,
			"0.008": 3.54377522895,
			"0.009": 2.2869434562,
			"0.01": 3.05227784692,
			"0.011": 2.78959111875,
			"0.012": 3.46154714234,
			"0.013": 3.17552113612,
			"0.014": 1.85567841968,
			"0.015": 0.938909601099,
			"0.016": 1.35879800836,
			"0.017": 1.24042259714,
			"0.018": 0.776469177834,
			"0.019": 0.668077368294,
			"0.02": 0.0,
			"0.021": 0.0,
			"0.022": 0.0,
			"0.023": 0.0,
			"0.024": 0.0,
			"0.025": 0.0
		}
	}
}
