{
	 "smiles": "FC1=C(Cl)N=C(Cl)C(=C1)C#N", 
	 "Tm": 364.15, 
	 "num_atms": 12, 
	 "gaussian": { 
		 "optdone": 1, 
		 "sigma_profile": "yes", 
		 "theory": "DFT", 
		 "functional": "B3LYP", 
		 "basiset": "6-31G**", 
		 "properties": { 
			 "R2extent": 2858.9769, 
			 "electric_dipole_moment_norm": 2.53292619119, 
			 "electric_quadrupole_moment_norm": 10.1486153489, 
			 "total_energy": -1358.92600404, 
			 "HOMO_LUMO_gap": 0.18505, 
			 "cosmo_polarized_energy": -9.03, 
			 "cosmo_cavitation_energy": 22.71, 
			 "cosmo_dispersion_energy": -16.39, 
			 "cosmo_repulsion_energy": 1.31, 
			 "cosmo_total_nonelectrostatic_energy": 7.64, 
			 "SMD_solvation_energy": 3.91 
		},
		"coords": [
			{
				"x": 2.691450281,
				"y": -1.4994719027,
				"z": 0.6952036893,
				"element": "F" 
			},
			{
				"x": 1.4410525317,
				"y": -1.0563436459,
				"z": 0.83118628,
				"element": "C" 
			},
			{
				"x": 1.0829494762,
				"y": -0.2458754247,
				"z": 1.9162533465,
				"element": "C" 
			},
			{
				"x": 2.2850431694,
				"y": 0.1831411348,
				"z": 3.094034138,
				"element": "Cl" 
			},
			{
				"x": -0.1469835711,
				"y": 0.2092110151,
				"z": 2.0793736848,
				"element": "N" 
			},
			{
				"x": -1.0795355628,
				"y": -0.1028385664,
				"z": 1.1974311511,
				"element": "C" 
			},
			{
				"x": -2.676108917,
				"y": 0.5330322768,
				"z": 1.478242511,
				"element": "Cl" 
			},
			{
				"x": -0.8308301106,
				"y": -0.9112508934,
				"z": 0.0681256983,
				"element": "C" 
			},
			{
				"x": 0.476708901,
				"y": -1.3930959588,
				"z": -0.1023088993,
				"element": "C" 
			},
			{
				"x": -1.8474516448,
				"y": -1.2428898991,
				"z": -0.8801975305,
				"element": "C" 
			},
			{
				"x": -2.6498444266,
				"y": -1.5318601662,
				"z": -1.6702998726,
				"element": "N" 
			},
			{
				"x": 0.7360498734,
				"y": -2.0193579697,
				"z": -0.9482441965,
				"element": "H" 
			}
		],
		 "valence_orbital": [ 
			{
				"type": "occ",
				"energy": -0.34813,
				"method": "rhf"
			},
			{
				"type": "occ",
				"energy": -0.34261,
				"method": "rhf"
			},
			{
				"type": "occ",
				"energy": -0.32413,
				"method": "rhf"
			},
			{
				"type": "occ",
				"energy": -0.32276,
				"method": "rhf"
			},
			{
				"type": "occ",
				"energy": -0.28081,
				"method": "rhf"
			},
			{
				"type": "unocc",
				"energy": -0.09576,
				"method": "rhf"
			},
			{
				"type": "unocc",
				"energy": -0.06886,
				"method": "rhf"
			},
			{
				"type": "unocc",
				"energy": -0.0108,
				"method": "rhf"
			},
			{
				"type": "unocc",
				"energy": 0.0083,
				"method": "rhf"
			},
			{
				"type": "unocc",
				"energy": 0.01946,
				"method": "rhf"
			}
		],
		"cosmo_sigma_profile": { 
			"-0.025": 0.0,
			"-0.024": 0.0,
			"-0.023": 0.0,
			"-0.022": 0.0,
			"-0.021": 0.0,
			"-0.02": 0.0,
			"-0.019": 0.0,
			"-0.018": 0.0,
			"-0.017": 0.0,
			"-0.016": 0.0,
			"-0.015": 0.0,
			"-0.014": 0.0,
			"-0.013": 0.0,
			"-0.012": 1.53132995368,
			"-0.011": 2.18243673034,
			"-0.01": 2.08504672817,
			"-0.009": 1.79079444119,
			"-0.008": 1.92772216405,
			"-0.007": 3.76669617881,
			"-0.006": 8.22537053682,
			"-0.005": 15.7398651824,
			"-0.004": 15.2969376588,
			"-0.003": 9.74458483257,
			"-0.002": 9.63262913684,
			"-0.001": 10.5675088108,
			"0.0": 11.9850260978,
			"0.001": 14.8743415453,
			"0.002": 30.3002956982,
			"0.003": 16.527340289,
			"0.004": 6.30856124915,
			"0.005": 4.44455465774,
			"0.006": 4.8486051219,
			"0.007": 4.37287339425,
			"0.008": 4.15066508706,
			"0.009": 3.49261576047,
			"0.01": 3.28278668884,
			"0.011": 2.37710024725,
			"0.012": 0.914401086563,
			"0.013": 0.0,
			"0.014": 0.0,
			"0.015": 0.0,
			"0.016": 0.0,
			"0.017": 0.0,
			"0.018": 0.0,
			"0.019": 0.0,
			"0.02": 0.0,
			"0.021": 0.0,
			"0.022": 0.0,
			"0.023": 0.0,
			"0.024": 0.0,
			"0.025": 0.0
		}
	}
}
