{
	 "smiles": "C1CCC(NC1)C1=CN=CC=C1", 
	 "Tm": 282.15, 
	 "num_atms": 26, 
	 "gaussian": { 
		 "optdone": 1, 
		 "sigma_profile": "yes", 
		 "theory": "DFT", 
		 "functional": "B3LYP", 
		 "basiset": "6-31G**", 
		 "properties": { 
			 "R2extent": 2308.4073, 
			 "electric_dipole_moment_norm": 3.38529710808, 
			 "electric_quadrupole_moment_norm": 10.3935764263, 
			 "total_energy": -498.999753568, 
			 "HOMO_LUMO_gap": 0.20133, 
			 "cosmo_polarized_energy": -8.6, 
			 "cosmo_cavitation_energy": 26.56, 
			 "cosmo_dispersion_energy": -19.9, 
			 "cosmo_repulsion_energy": 1.58, 
			 "cosmo_total_nonelectrostatic_energy": 8.23, 
			 "SMD_solvation_energy": 1.0 
		},
		"coords": [
			{
				"x": 0.5561657334,
				"y": -1.1135625767,
				"z": -1.8711658018,
				"element": "C" 
			},
			{
				"x": 1.3040974909,
				"y": -1.438684066,
				"z": -0.5691344821,
				"element": "C" 
			},
			{
				"x": 1.8712213231,
				"y": -0.1558482345,
				"z": 0.058127578,
				"element": "C" 
			},
			{
				"x": 0.7796685881,
				"y": 0.9231645389,
				"z": 0.2608961664,
				"element": "C" 
			},
			{
				"x": 0.0334500114,
				"y": 1.1922169894,
				"z": -0.9836617224,
				"element": "N" 
			},
			{
				"x": -0.4954177133,
				"y": -0.0187746706,
				"z": -1.6278362213,
				"element": "C" 
			},
			{
				"x": -0.1953237346,
				"y": 0.6427985022,
				"z": 1.409855604,
				"element": "C" 
			},
			{
				"x": -1.4631361713,
				"y": 1.2494798441,
				"z": 1.4177209551,
				"element": "C" 
			},
			{
				"x": -2.3631527145,
				"y": 1.1189818267,
				"z": 2.3993832083,
				"element": "N" 
			},
			{
				"x": -2.0275467987,
				"y": 0.3548919689,
				"z": 3.4466569916,
				"element": "C" 
			},
			{
				"x": -0.8000149114,
				"y": -0.2954236694,
				"z": 3.5519070841,
				"element": "C" 
			},
			{
				"x": 0.1259240311,
				"y": -0.1464457755,
				"z": 2.5193069084,
				"element": "C" 
			},
			{
				"x": 0.0772540326,
				"y": -2.0122267382,
				"z": -2.2795405983,
				"element": "H" 
			},
			{
				"x": 1.2739824151,
				"y": -0.7656130487,
				"z": -2.6282776626,
				"element": "H" 
			},
			{
				"x": 0.6135906669,
				"y": -1.9202399601,
				"z": 0.1356621972,
				"element": "H" 
			},
			{
				"x": 2.1118055015,
				"y": -2.1558735434,
				"z": -0.7562118271,
				"element": "H" 
			},
			{
				"x": 2.3979291954,
				"y": -0.3727708322,
				"z": 0.9940620102,
				"element": "H" 
			},
			{
				"x": 2.6259854898,
				"y": 0.2688432196,
				"z": -0.6178566716,
				"element": "H" 
			},
			{
				"x": 1.2882606575,
				"y": 1.8647849906,
				"z": 0.5124023399,
				"element": "H" 
			},
			{
				"x": 0.6521119039,
				"y": 1.67295601,
				"z": -1.6323337263,
				"element": "H" 
			},
			{
				"x": -1.2921552887,
				"y": -0.4166819146,
				"z": -0.9865609874,
				"element": "H" 
			},
			{
				"x": -0.9711437552,
				"y": 0.2816216468,
				"z": -2.5678858524,
				"element": "H" 
			},
			{
				"x": -1.7504742376,
				"y": 1.8685221763,
				"z": 0.5721853184,
				"element": "H" 
			},
			{
				"x": -2.7734856697,
				"y": 0.2612368262,
				"z": 4.2344131119,
				"element": "H" 
			},
			{
				"x": -0.5722777261,
				"y": -0.9053590251,
				"z": 4.4209789692,
				"element": "H" 
			},
			{
				"x": 1.0875816807,
				"y": -0.6447944846,
				"z": 2.5896071104,
				"element": "H" 
			}
		],
		 "valence_orbital": [ 
			{
				"type": "occ",
				"energy": -0.31937,
				"method": "rhf"
			},
			{
				"type": "occ",
				"energy": -0.27578,
				"method": "rhf"
			},
			{
				"type": "occ",
				"energy": -0.24746,
				"method": "rhf"
			},
			{
				"type": "occ",
				"energy": -0.24431,
				"method": "rhf"
			},
			{
				"type": "occ",
				"energy": -0.21782,
				"method": "rhf"
			},
			{
				"type": "unocc",
				"energy": -0.01649,
				"method": "rhf"
			},
			{
				"type": "unocc",
				"energy": -0.00489,
				"method": "rhf"
			},
			{
				"type": "unocc",
				"energy": 0.07223,
				"method": "rhf"
			},
			{
				"type": "unocc",
				"energy": 0.09784,
				"method": "rhf"
			},
			{
				"type": "unocc",
				"energy": 0.11338,
				"method": "rhf"
			}
		],
		"cosmo_sigma_profile": { 
			"-0.025": 0.0,
			"-0.024": 0.0,
			"-0.023": 0.0,
			"-0.022": 0.0,
			"-0.021": 0.0,
			"-0.02": 0.0,
			"-0.019": 0.0,
			"-0.018": 0.0,
			"-0.017": 0.0,
			"-0.016": 0.0,
			"-0.015": 0.0,
			"-0.014": 0.0,
			"-0.013": 0.0,
			"-0.012": 0.0,
			"-0.011": 0.0,
			"-0.01": 0.455768574455,
			"-0.009": 1.35922950305,
			"-0.008": 1.65594052437,
			"-0.007": 2.5791786174,
			"-0.006": 7.68039131937,
			"-0.005": 10.8720474982,
			"-0.004": 12.4323755822,
			"-0.003": 17.7209597909,
			"-0.002": 25.3349013633,
			"-0.001": 27.2334035881,
			"0.0": 26.482641722,
			"0.001": 19.7375664854,
			"0.002": 11.4965318063,
			"0.003": 12.6115200624,
			"0.004": 7.38260783921,
			"0.005": 3.30826113024,
			"0.006": 2.55545162378,
			"0.007": 2.23187408103,
			"0.008": 2.24029627412,
			"0.009": 1.7476289514,
			"0.01": 2.57085324873,
			"0.011": 1.73542456104,
			"0.012": 0.759755588626,
			"0.013": 1.50696738967,
			"0.014": 1.59040572927,
			"0.015": 0.867807122355,
			"0.016": 0.717188655953,
			"0.017": 0.923215344851,
			"0.018": 0.105291405295,
			"0.019": 0.0,
			"0.02": 0.0,
			"0.021": 0.0,
			"0.022": 0.0,
			"0.023": 0.0,
			"0.024": 0.0,
			"0.025": 0.0
		}
	}
}
