{
	 "smiles": "COC(=O)C1=C(CC2=CC3=C(CC3)C=C2C1)C(=O)OC", 
	 "Tm": 406.15, 
	 "num_atms": 36, 
	 "gaussian": { 
		 "optdone": 1, 
		 "sigma_profile": "yes", 
		 "theory": "DFT", 
		 "functional": "B3LYP", 
		 "basiset": "6-31G**", 
		 "properties": { 
			 "R2extent": 7160.6245, 
			 "electric_dipole_moment_norm": 2.85400098984, 
			 "electric_quadrupole_moment_norm": 13.5513188259, 
			 "total_energy": -920.210963583, 
			 "HOMO_LUMO_gap": 0.18217, 
			 "cosmo_polarized_energy": -12.84, 
			 "cosmo_cavitation_energy": 39.63, 
			 "cosmo_dispersion_energy": -28.21, 
			 "cosmo_repulsion_energy": 2.2, 
			 "cosmo_total_nonelectrostatic_energy": 13.62, 
			 "SMD_solvation_energy": 8.32 
		},
		"coords": [
			{
				"x": -3.2599518949,
				"y": -1.9914972428,
				"z": 1.7186339985,
				"element": "C" 
			},
			{
				"x": -1.9770003494,
				"y": -1.60534479,
				"z": 1.2022410911,
				"element": "O" 
			},
			{
				"x": -1.8837140035,
				"y": -0.3175382358,
				"z": 0.794224233,
				"element": "C" 
			},
			{
				"x": -2.8169567445,
				"y": 0.460776759,
				"z": 0.8593048886,
				"element": "O" 
			},
			{
				"x": -0.5278493851,
				"y": -0.0086980602,
				"z": 0.2568493671,
				"element": "C" 
			},
			{
				"x": -0.2225833787,
				"y": 1.2604872044,
				"z": -0.0645199972,
				"element": "C" 
			},
			{
				"x": 1.0871874864,
				"y": 1.6624325878,
				"z": -0.6847839524,
				"element": "C" 
			},
			{
				"x": 2.1055767579,
				"y": 0.5537225842,
				"z": -0.8426687378,
				"element": "C" 
			},
			{
				"x": 3.374531308,
				"y": 0.8929881347,
				"z": -1.3601311205,
				"element": "C" 
			},
			{
				"x": 4.2929995207,
				"y": -0.1296934557,
				"z": -1.501057049,
				"element": "C" 
			},
			{
				"x": 3.9899354762,
				"y": -1.4457966539,
				"z": -1.1469896269,
				"element": "C" 
			},
			{
				"x": 5.3647215078,
				"y": -1.9673267449,
				"z": -1.5421843927,
				"element": "C" 
			},
			{
				"x": 5.7081033251,
				"y": -0.4754039009,
				"z": -1.9435735402,
				"element": "C" 
			},
			{
				"x": 2.7552976667,
				"y": -1.7988494417,
				"z": -0.6367620626,
				"element": "C" 
			},
			{
				"x": 1.7985706621,
				"y": -0.7711869119,
				"z": -0.4860193857,
				"element": "C" 
			},
			{
				"x": 0.4395368103,
				"y": -1.1508635997,
				"z": 0.0684977961,
				"element": "C" 
			},
			{
				"x": -1.1830304971,
				"y": 2.411566183,
				"z": 0.0772967402,
				"element": "C" 
			},
			{
				"x": -1.6990971442,
				"y": 2.9609914508,
				"z": -0.8717923025,
				"element": "O" 
			},
			{
				"x": -1.276417286,
				"y": 2.8326625802,
				"z": 1.3509898233,
				"element": "O" 
			},
			{
				"x": -2.2112108846,
				"y": 3.9028975525,
				"z": 1.5691383264,
				"element": "C" 
			},
			{
				"x": -3.1657559255,
				"y": -3.0447323422,
				"z": 1.9829043088,
				"element": "H" 
			},
			{
				"x": -3.5151962491,
				"y": -1.3956729576,
				"z": 2.5985777493,
				"element": "H" 
			},
			{
				"x": -4.0367396816,
				"y": -1.8514411478,
				"z": 0.9628045274,
				"element": "H" 
			},
			{
				"x": 1.5185860703,
				"y": 2.4811573989,
				"z": -0.0887437919,
				"element": "H" 
			},
			{
				"x": 0.8594238977,
				"y": 2.1179782915,
				"z": -1.6601717703,
				"element": "H" 
			},
			{
				"x": 3.5918374617,
				"y": 1.9247758988,
				"z": -1.6283247375,
				"element": "H" 
			},
			{
				"x": 5.9730450134,
				"y": -2.37228334,
				"z": -0.7264132978,
				"element": "H" 
			},
			{
				"x": 5.3826154584,
				"y": -2.6795872664,
				"z": -2.3739694572,
				"element": "H" 
			},
			{
				"x": 6.5145721276,
				"y": -0.0194470507,
				"z": -1.3594228738,
				"element": "H" 
			},
			{
				"x": 5.9240702235,
				"y": -0.3267606467,
				"z": -3.006931483,
				"element": "H" 
			},
			{
				"x": 2.5019239598,
				"y": -2.8185187144,
				"z": -0.3541706746,
				"element": "H" 
			},
			{
				"x": 0.5659241408,
				"y": -1.6656409955,
				"z": 1.0302178243,
				"element": "H" 
			},
			{
				"x": -0.0249206441,
				"y": -1.9038014027,
				"z": -0.5837356282,
				"element": "H" 
			},
			{
				"x": -1.9738194444,
				"y": 4.761369833,
				"z": 0.9363105268,
				"element": "H" 
			},
			{
				"x": -3.2245418012,
				"y": 3.5600824094,
				"z": 1.3460698446,
				"element": "H" 
			},
			{
				"x": -2.1191735605,
				"y": 4.1633960332,
				"z": 2.6235048363,
				"element": "H" 
			}
		],
		 "valence_orbital": [ 
			{
				"type": "occ",
				"energy": -0.27688,
				"method": "rhf"
			},
			{
				"type": "occ",
				"energy": -0.27073,
				"method": "rhf"
			},
			{
				"type": "occ",
				"energy": -0.2544,
				"method": "rhf"
			},
			{
				"type": "occ",
				"energy": -0.24233,
				"method": "rhf"
			},
			{
				"type": "occ",
				"energy": -0.22553,
				"method": "rhf"
			},
			{
				"type": "unocc",
				"energy": -0.04336,
				"method": "rhf"
			},
			{
				"type": "unocc",
				"energy": -0.00988,
				"method": "rhf"
			},
			{
				"type": "unocc",
				"energy": 0.0115,
				"method": "rhf"
			},
			{
				"type": "unocc",
				"energy": 0.02316,
				"method": "rhf"
			},
			{
				"type": "unocc",
				"energy": 0.07783,
				"method": "rhf"
			}
		],
		"cosmo_sigma_profile": { 
			"-0.025": 0.0,
			"-0.024": 0.0,
			"-0.023": 0.0,
			"-0.022": 0.0,
			"-0.021": 0.0,
			"-0.02": 0.0,
			"-0.019": 0.0,
			"-0.018": 0.0,
			"-0.017": 0.0,
			"-0.016": 0.0,
			"-0.015": 0.0,
			"-0.014": 0.0,
			"-0.013": 0.0,
			"-0.012": 0.0,
			"-0.011": 0.0,
			"-0.01": 0.0,
			"-0.009": 0.0,
			"-0.008": 0.0,
			"-0.007": 1.67568386981,
			"-0.006": 12.913057351,
			"-0.005": 24.8822728271,
			"-0.004": 38.6877349123,
			"-0.003": 38.5582037472,
			"-0.002": 29.3541066394,
			"-0.001": 25.3521524175,
			"0.0": 27.3482164264,
			"0.001": 19.278826052,
			"0.002": 15.3822314678,
			"0.003": 11.910923355,
			"0.004": 11.9755306529,
			"0.005": 12.3744063701,
			"0.006": 11.7913971445,
			"0.007": 6.72795242104,
			"0.008": 4.91011853577,
			"0.009": 4.82856297076,
			"0.01": 4.29097423297,
			"0.011": 6.46048975127,
			"0.012": 4.64414778303,
			"0.013": 0.336490280108,
			"0.014": 0.0,
			"0.015": 0.0,
			"0.016": 0.0,
			"0.017": 0.0,
			"0.018": 0.0,
			"0.019": 0.0,
			"0.02": 0.0,
			"0.021": 0.0,
			"0.022": 0.0,
			"0.023": 0.0,
			"0.024": 0.0,
			"0.025": 0.0
		}
	}
}
