{
	 "smiles": "ClC1C(=O)C2=CC=CC=C12", 
	 "Tm": 340.15, 
	 "num_atms": 15, 
	 "gaussian": { 
		 "optdone": 1, 
		 "sigma_profile": "yes", 
		 "theory": "DFT", 
		 "functional": "B3LYP", 
		 "basiset": "6-31G**", 
		 "properties": { 
			 "R2extent": 2770.4673, 
			 "electric_dipole_moment_norm": 4.78804311906, 
			 "electric_quadrupole_moment_norm": 16.6341394878, 
			 "total_energy": -843.237239415, 
			 "HOMO_LUMO_gap": 0.18247, 
			 "cosmo_polarized_energy": -9.15, 
			 "cosmo_cavitation_energy": 21.64, 
			 "cosmo_dispersion_energy": -15.96, 
			 "cosmo_repulsion_energy": 1.32, 
			 "cosmo_total_nonelectrostatic_energy": 7.0, 
			 "SMD_solvation_energy": 3.87 
		},
		"coords": [
			{
				"x": -3.1887996877,
				"y": -2.729378109,
				"z": -0.6398200211,
				"element": "Cl" 
			},
			{
				"x": -2.4413448391,
				"y": -1.1081765862,
				"z": -0.3438582537,
				"element": "C" 
			},
			{
				"x": -2.8638195844,
				"y": -0.3974723519,
				"z": 1.0086660236,
				"element": "C" 
			},
			{
				"x": -3.9138464402,
				"y": -0.0352847612,
				"z": 1.4649849606,
				"element": "O" 
			},
			{
				"x": -1.4266384978,
				"y": -0.4141168471,
				"z": 1.4208983246,
				"element": "C" 
			},
			{
				"x": -0.5096756493,
				"y": -0.0381490841,
				"z": 2.4021340029,
				"element": "C" 
			},
			{
				"x": 0.8179857466,
				"y": -0.396116801,
				"z": 2.1559543394,
				"element": "C" 
			},
			{
				"x": 1.1945989056,
				"y": -1.0863410587,
				"z": 0.9863247234,
				"element": "C" 
			},
			{
				"x": 0.2677960745,
				"y": -1.4493650015,
				"z": 0.0010639029,
				"element": "C" 
			},
			{
				"x": -1.0486930908,
				"y": -1.085918667,
				"z": 0.2511085577,
				"element": "C" 
			},
			{
				"x": -2.60504189,
				"y": -0.5218180092,
				"z": -1.2504846777,
				"element": "H" 
			},
			{
				"x": -0.799865322,
				"y": 0.4872851855,
				"z": 3.3060646428,
				"element": "H" 
			},
			{
				"x": 1.5848777404,
				"y": -0.1438495891,
				"z": 2.8824782945,
				"element": "H" 
			},
			{
				"x": 2.2417200858,
				"y": -1.3409981686,
				"z": 0.8484570945,
				"element": "H" 
			},
			{
				"x": 0.5755464484,
				"y": -1.982200151,
				"z": -0.8928719144,
				"element": "H" 
			}
		],
		 "valence_orbital": [ 
			{
				"type": "occ",
				"energy": -0.31538,
				"method": "rhf"
			},
			{
				"type": "occ",
				"energy": -0.30081,
				"method": "rhf"
			},
			{
				"type": "occ",
				"energy": -0.28195,
				"method": "rhf"
			},
			{
				"type": "occ",
				"energy": -0.27641,
				"method": "rhf"
			},
			{
				"type": "occ",
				"energy": -0.25742,
				"method": "rhf"
			},
			{
				"type": "unocc",
				"energy": -0.07495,
				"method": "rhf"
			},
			{
				"type": "unocc",
				"energy": -0.03907,
				"method": "rhf"
			},
			{
				"type": "unocc",
				"energy": 0.02049,
				"method": "rhf"
			},
			{
				"type": "unocc",
				"energy": 0.04944,
				"method": "rhf"
			},
			{
				"type": "unocc",
				"energy": 0.07866,
				"method": "rhf"
			}
		],
		"cosmo_sigma_profile": { 
			"-0.025": 0.0,
			"-0.024": 0.0,
			"-0.023": 0.0,
			"-0.022": 0.0,
			"-0.021": 0.0,
			"-0.02": 0.0,
			"-0.019": 0.0,
			"-0.018": 0.0,
			"-0.017": 0.0,
			"-0.016": 0.0,
			"-0.015": 0.0,
			"-0.014": 0.0,
			"-0.013": 0.0,
			"-0.012": 0.0,
			"-0.011": 0.0,
			"-0.01": 0.0352755111486,
			"-0.009": 2.43424925991,
			"-0.008": 5.24683994268,
			"-0.007": 10.8118512413,
			"-0.006": 12.3675098803,
			"-0.005": 10.6996515666,
			"-0.004": 9.71368436537,
			"-0.003": 8.51915110974,
			"-0.002": 9.25144598866,
			"-0.001": 11.8160292186,
			"0.0": 11.8437932052,
			"0.001": 14.607111966,
			"0.002": 18.5441965553,
			"0.003": 9.53443195966,
			"0.004": 6.28578867257,
			"0.005": 12.4130622607,
			"0.006": 6.78034157939,
			"0.007": 1.8767480935,
			"0.008": 1.95723286857,
			"0.009": 3.01969869758,
			"0.01": 4.93388567187,
			"0.011": 3.80035925143,
			"0.012": 0.488078804918,
			"0.013": 0.0,
			"0.014": 0.0,
			"0.015": 0.0,
			"0.016": 0.0,
			"0.017": 0.0,
			"0.018": 0.0,
			"0.019": 0.0,
			"0.02": 0.0,
			"0.021": 0.0,
			"0.022": 0.0,
			"0.023": 0.0,
			"0.024": 0.0,
			"0.025": 0.0
		}
	}
}
