{
	 "smiles": "NNC(=O)C1=CC(Cl)=CC(Cl)=C1", 
	 "Tm": 479.15, 
	 "num_atms": 18, 
	 "gaussian": { 
		 "optdone": 1, 
		 "sigma_profile": "yes", 
		 "theory": "DFT", 
		 "functional": "B3LYP", 
		 "basiset": "6-31G**", 
		 "properties": { 
			 "R2extent": 3645.0431, 
			 "electric_dipole_moment_norm": 2.69934052872, 
			 "electric_quadrupole_moment_norm": 6.06163525627, 
			 "total_energy": -1375.44577639, 
			 "HOMO_LUMO_gap": 0.19869, 
			 "cosmo_polarized_energy": -13.55, 
			 "cosmo_cavitation_energy": 26.65, 
			 "cosmo_dispersion_energy": -19.5, 
			 "cosmo_repulsion_energy": 1.59, 
			 "cosmo_total_nonelectrostatic_energy": 8.74, 
			 "SMD_solvation_energy": 5.11 
		},
		"coords": [
			{
				"x": -0.3992956653,
				"y": -0.241820223,
				"z": 2.9056260723,
				"element": "N" 
			},
			{
				"x": 0.1327292253,
				"y": -1.337711553,
				"z": 2.193651138,
				"element": "N" 
			},
			{
				"x": 1.0059696197,
				"y": -1.2758870374,
				"z": 1.1276298594,
				"element": "C" 
			},
			{
				"x": 1.7681918749,
				"y": -2.2027455425,
				"z": 0.8870808438,
				"element": "O" 
			},
			{
				"x": 0.9816981583,
				"y": -0.0467523648,
				"z": 0.2551883325,
				"element": "C" 
			},
			{
				"x": -0.2044349532,
				"y": 0.6008842555,
				"z": -0.1116055263,
				"element": "C" 
			},
			{
				"x": -0.1440662448,
				"y": 1.6825007738,
				"z": -0.9882783129,
				"element": "C" 
			},
			{
				"x": -1.6294614895,
				"y": 2.4869154092,
				"z": -1.4631379583,
				"element": "Cl" 
			},
			{
				"x": 1.0680597422,
				"y": 2.1433915166,
				"z": -1.5000876477,
				"element": "C" 
			},
			{
				"x": 2.2353940098,
				"y": 1.4746357737,
				"z": -1.1285224313,
				"element": "C" 
			},
			{
				"x": 3.7692558706,
				"y": 2.0298050575,
				"z": -1.7703218612,
				"element": "Cl" 
			},
			{
				"x": 2.2069865665,
				"y": 0.378764291,
				"z": -0.271230507,
				"element": "C" 
			},
			{
				"x": -1.257126762,
				"y": 0.0780766165,
				"z": 2.4671450266,
				"element": "H" 
			},
			{
				"x": 0.2614717129,
				"y": 0.5306935051,
				"z": 2.9232482786,
				"element": "H" 
			},
			{
				"x": 0.2834968513,
				"y": -2.1578959059,
				"z": 2.7699398669,
				"element": "H" 
			},
			{
				"x": -1.1667983836,
				"y": 0.2512769432,
				"z": 0.2416053163,
				"element": "H" 
			},
			{
				"x": 1.1016959104,
				"y": 2.9904213017,
				"z": -2.1739886512,
				"element": "H" 
			},
			{
				"x": 3.1133339564,
				"y": -0.1561528171,
				"z": -0.0145418384,
				"element": "H" 
			}
		],
		 "valence_orbital": [ 
			{
				"type": "occ",
				"energy": -0.30872,
				"method": "rhf"
			},
			{
				"type": "occ",
				"energy": -0.28164,
				"method": "rhf"
			},
			{
				"type": "occ",
				"energy": -0.27013,
				"method": "rhf"
			},
			{
				"type": "occ",
				"energy": -0.26259,
				"method": "rhf"
			},
			{
				"type": "occ",
				"energy": -0.25915,
				"method": "rhf"
			},
			{
				"type": "unocc",
				"energy": -0.06046,
				"method": "rhf"
			},
			{
				"type": "unocc",
				"energy": -0.03735,
				"method": "rhf"
			},
			{
				"type": "unocc",
				"energy": -0.00422,
				"method": "rhf"
			},
			{
				"type": "unocc",
				"energy": 0.022,
				"method": "rhf"
			},
			{
				"type": "unocc",
				"energy": 0.04182,
				"method": "rhf"
			}
		],
		"cosmo_sigma_profile": { 
			"-0.025": 0.0,
			"-0.024": 0.0,
			"-0.023": 0.0,
			"-0.022": 0.0,
			"-0.021": 0.0,
			"-0.02": 0.0,
			"-0.019": 0.0,
			"-0.018": 0.0,
			"-0.017": 0.0,
			"-0.016": 0.0,
			"-0.015": 0.0,
			"-0.014": 0.207919219704,
			"-0.013": 1.88419902233,
			"-0.012": 3.55320271948,
			"-0.011": 4.10218397231,
			"-0.01": 4.31448478802,
			"-0.009": 5.10610857252,
			"-0.008": 5.16911914933,
			"-0.007": 6.92117873978,
			"-0.006": 6.89516191173,
			"-0.005": 7.22892531242,
			"-0.004": 6.7004551527,
			"-0.003": 9.90301329743,
			"-0.002": 13.3579104166,
			"-0.001": 14.5455631549,
			"0.0": 24.0655226473,
			"0.001": 22.4167430907,
			"0.002": 15.7664139029,
			"0.003": 16.9312165081,
			"0.004": 20.4592330743,
			"0.005": 3.37454808499,
			"0.006": 2.52260742977,
			"0.007": 2.04472809672,
			"0.008": 1.95917896104,
			"0.009": 1.76749561861,
			"0.01": 2.37919606915,
			"0.011": 1.81751775339,
			"0.012": 4.46547622662,
			"0.013": 5.65573632331,
			"0.014": 1.36689414457,
			"0.015": 0.382247331921,
			"0.016": 0.233625367399,
			"0.017": 0.0,
			"0.018": 0.0,
			"0.019": 0.0,
			"0.02": 0.0,
			"0.021": 0.0,
			"0.022": 0.0,
			"0.023": 0.0,
			"0.024": 0.0,
			"0.025": 0.0
		}
	}
}
