{
	 "smiles": "COC1=CC=C(C=C1)N1CCC(N)CC1", 
	 "Tm": 324.15, 
	 "num_atms": 33, 
	 "gaussian": { 
		 "optdone": 1, 
		 "sigma_profile": "yes", 
		 "theory": "DFT", 
		 "functional": "B3LYP", 
		 "basiset": "6-31G**", 
		 "properties": { 
			 "R2extent": 5239.648, 
			 "electric_dipole_moment_norm": 2.42087614512, 
			 "electric_quadrupole_moment_norm": 8.83042207598, 
			 "total_energy": -652.827273852, 
			 "HOMO_LUMO_gap": 0.1798, 
			 "cosmo_polarized_energy": -11.01, 
			 "cosmo_cavitation_energy": 33.6, 
			 "cosmo_dispersion_energy": -24.81, 
			 "cosmo_repulsion_energy": 1.93, 
			 "cosmo_total_nonelectrostatic_energy": 10.73, 
			 "SMD_solvation_energy": 3.96 
		},
		"coords": [
			{
				"x": 1.7699935011,
				"y": -5.6303480047,
				"z": 0.6762931753,
				"element": "C" 
			},
			{
				"x": 0.6222791196,
				"y": -5.2365837036,
				"z": -0.0513876375,
				"element": "O" 
			},
			{
				"x": 0.3379110264,
				"y": -3.8961734546,
				"z": -0.1231930086,
				"element": "C" 
			},
			{
				"x": 1.0927354319,
				"y": -2.881533629,
				"z": 0.4753409999,
				"element": "C" 
			},
			{
				"x": 0.7146987706,
				"y": -1.5466570064,
				"z": 0.3323876306,
				"element": "C" 
			},
			{
				"x": -0.433808437,
				"y": -1.1721776951,
				"z": -0.3896632251,
				"element": "C" 
			},
			{
				"x": -1.1794476015,
				"y": -2.2109565944,
				"z": -0.9863382704,
				"element": "C" 
			},
			{
				"x": -0.7957727251,
				"y": -3.5423847487,
				"z": -0.8598704946,
				"element": "C" 
			},
			{
				"x": -0.7807434096,
				"y": 0.1810784019,
				"z": -0.5541101035,
				"element": "N" 
			},
			{
				"x": -0.6316942839,
				"y": 1.1284454915,
				"z": 0.5506829022,
				"element": "C" 
			},
			{
				"x": -0.1751084521,
				"y": 2.5019378966,
				"z": 0.0150654279,
				"element": "C" 
			},
			{
				"x": -0.7181702168,
				"y": 2.7640398278,
				"z": -1.4152689686,
				"element": "C" 
			},
			{
				"x": -0.8506671393,
				"y": 4.1771603648,
				"z": -1.7856885335,
				"element": "N" 
			},
			{
				"x": -2.0604925573,
				"y": 2.0428572055,
				"z": -1.5724884784,
				"element": "C" 
			},
			{
				"x": -1.8902708874,
				"y": 0.5144143428,
				"z": -1.445337932,
				"element": "C" 
			},
			{
				"x": 1.7053680276,
				"y": -5.3364776439,
				"z": 1.7330691292,
				"element": "H" 
			},
			{
				"x": 1.8131299086,
				"y": -6.7192146049,
				"z": 0.6118419521,
				"element": "H" 
			},
			{
				"x": 2.6903023707,
				"y": -5.2095876881,
				"z": 0.2483125874,
				"element": "H" 
			},
			{
				"x": 1.9870310222,
				"y": -3.1113528954,
				"z": 1.0432113713,
				"element": "H" 
			},
			{
				"x": 1.3486276294,
				"y": -0.7854478608,
				"z": 0.7750595655,
				"element": "H" 
			},
			{
				"x": -2.0756345917,
				"y": -1.98745189,
				"z": -1.5520967771,
				"element": "H" 
			},
			{
				"x": -1.3797247424,
				"y": -4.330759354,
				"z": -1.3244634814,
				"element": "H" 
			},
			{
				"x": 0.0791831355,
				"y": 0.7383013054,
				"z": 1.278184802,
				"element": "H" 
			},
			{
				"x": -1.5899267496,
				"y": 1.235098122,
				"z": 1.0897898365,
				"element": "H" 
			},
			{
				"x": 0.9194696795,
				"y": 2.5692191422,
				"z": 0.0108260401,
				"element": "H" 
			},
			{
				"x": -0.541376633,
				"y": 3.2881318676,
				"z": 0.6890596868,
				"element": "H" 
			},
			{
				"x": -0.0182134598,
				"y": 2.3188873438,
				"z": -2.1330459981,
				"element": "H" 
			},
			{
				"x": -1.45486188,
				"y": 4.6491759976,
				"z": -1.1138945067,
				"element": "H" 
			},
			{
				"x": 0.0551244197,
				"y": 4.6369027356,
				"z": -1.7147776896,
				"element": "H" 
			},
			{
				"x": -2.5032548404,
				"y": 2.2870827886,
				"z": -2.5421883589,
				"element": "H" 
			},
			{
				"x": -2.7567304968,
				"y": 2.4140850991,
				"z": -0.8074815414,
				"element": "H" 
			},
			{
				"x": -2.8428871496,
				"y": 0.0679483323,
				"z": -1.1061274247,
				"element": "H" 
			},
			{
				"x": -1.6712677896,
				"y": 0.0856405084,
				"z": -2.4306026767,
				"element": "H" 
			}
		],
		 "valence_orbital": [ 
			{
				"type": "occ",
				"energy": -0.30925,
				"method": "rhf"
			},
			{
				"type": "occ",
				"energy": -0.2463,
				"method": "rhf"
			},
			{
				"type": "occ",
				"energy": -0.24033,
				"method": "rhf"
			},
			{
				"type": "occ",
				"energy": -0.23159,
				"method": "rhf"
			},
			{
				"type": "occ",
				"energy": -0.17263,
				"method": "rhf"
			},
			{
				"type": "unocc",
				"energy": 0.00717,
				"method": "rhf"
			},
			{
				"type": "unocc",
				"energy": 0.03296,
				"method": "rhf"
			},
			{
				"type": "unocc",
				"energy": 0.07703,
				"method": "rhf"
			},
			{
				"type": "unocc",
				"energy": 0.09088,
				"method": "rhf"
			},
			{
				"type": "unocc",
				"energy": 0.10035,
				"method": "rhf"
			}
		],
		"cosmo_sigma_profile": { 
			"-0.025": 0.0,
			"-0.024": 0.0,
			"-0.023": 0.0,
			"-0.022": 0.0,
			"-0.021": 0.0,
			"-0.02": 0.0,
			"-0.019": 0.0,
			"-0.018": 0.0,
			"-0.017": 0.0,
			"-0.016": 0.0,
			"-0.015": 0.0,
			"-0.014": 0.0,
			"-0.013": 0.0,
			"-0.012": 0.0,
			"-0.011": 0.0,
			"-0.01": 0.19997654377,
			"-0.009": 1.64719567555,
			"-0.008": 2.99647585274,
			"-0.007": 3.14749324876,
			"-0.006": 6.94763834569,
			"-0.005": 16.7064294108,
			"-0.004": 22.9048313824,
			"-0.003": 35.3887614019,
			"-0.002": 37.7311367225,
			"-0.001": 26.0415672988,
			"0.0": 18.4780729255,
			"0.001": 12.009984634,
			"0.002": 8.02252124189,
			"0.003": 8.6743546481,
			"0.004": 9.98490264411,
			"0.005": 12.0296096348,
			"0.006": 12.609926892,
			"0.007": 11.3817536966,
			"0.008": 2.31059680849,
			"0.009": 2.61962155771,
			"0.01": 2.08353423026,
			"0.011": 2.59218307964,
			"0.012": 0.829777674244,
			"0.013": 0.714691420494,
			"0.014": 0.589496676466,
			"0.015": 0.706430820254,
			"0.016": 0.398982447058,
			"0.017": 0.785058369553,
			"0.018": 0.626779677861,
			"0.019": 0.489352814552,
			"0.02": 0.329948745448,
			"0.021": 0.0,
			"0.022": 0.0,
			"0.023": 0.0,
			"0.024": 0.0,
			"0.025": 0.0
		}
	}
}
