{
	 "smiles": "CC1=NN=C2SC(SCC3=CC=C(Cl)C=C3)=NN2C1=O", 
	 "Tm": 445.15, 
	 "num_atms": 29, 
	 "gaussian": { 
		 "optdone": 1, 
		 "sigma_profile": "yes", 
		 "theory": "DFT", 
		 "functional": "B3LYP", 
		 "basiset": "6-31G**", 
		 "properties": { 
			 "R2extent": 9443.0388, 
			 "electric_dipole_moment_norm": 3.76094895206, 
			 "electric_quadrupole_moment_norm": 15.5026490407, 
			 "total_energy": -2013.43561487, 
			 "HOMO_LUMO_gap": 0.16853, 
			 "cosmo_polarized_energy": -15.67, 
			 "cosmo_cavitation_energy": 39.73, 
			 "cosmo_dispersion_energy": -28.91, 
			 "cosmo_repulsion_energy": 2.12, 
			 "cosmo_total_nonelectrostatic_energy": 12.94, 
			 "SMD_solvation_energy": 4.19 
		},
		"coords": [
			{
				"x": -2.5442078268,
				"y": -2.663140407,
				"z": -3.2261438057,
				"element": "C" 
			},
			{
				"x": -1.8476633194,
				"y": -1.4060972767,
				"z": -2.7998125027,
				"element": "C" 
			},
			{
				"x": -1.8634412586,
				"y": -0.3759434193,
				"z": -3.6061547112,
				"element": "N" 
			},
			{
				"x": -1.2497885785,
				"y": 0.8075279451,
				"z": -3.2673114674,
				"element": "N" 
			},
			{
				"x": -0.6445456665,
				"y": 0.8441797234,
				"z": -2.122286563,
				"element": "C" 
			},
			{
				"x": 0.2054298178,
				"y": 2.2442846157,
				"z": -1.4549809554,
				"element": "S" 
			},
			{
				"x": 0.5819580758,
				"y": 1.2420716688,
				"z": -0.0332364826,
				"element": "C" 
			},
			{
				"x": 1.5236354625,
				"y": 1.9119110156,
				"z": 1.2813939528,
				"element": "S" 
			},
			{
				"x": 1.5234654001,
				"y": 0.4743269673,
				"z": 2.4722801806,
				"element": "C" 
			},
			{
				"x": 0.2716544085,
				"y": 0.3195499345,
				"z": 3.2938959371,
				"element": "C" 
			},
			{
				"x": -0.6802078333,
				"y": -0.6595348438,
				"z": 2.9767435225,
				"element": "C" 
			},
			{
				"x": -1.8246633249,
				"y": -0.8181613567,
				"z": 3.758903465,
				"element": "C" 
			},
			{
				"x": -2.0177229101,
				"y": 0.0102154034,
				"z": 4.8629130759,
				"element": "C" 
			},
			{
				"x": -3.4562888534,
				"y": -0.1851647375,
				"z": 5.8520013553,
				"element": "Cl" 
			},
			{
				"x": -1.0849868587,
				"y": 0.9923694665,
				"z": 5.1989168356,
				"element": "C" 
			},
			{
				"x": 0.0541871734,
				"y": 1.1378711829,
				"z": 4.4113256537,
				"element": "C" 
			},
			{
				"x": 0.1320724141,
				"y": 0.0298002715,
				"z": -0.0564133932,
				"element": "N" 
			},
			{
				"x": -0.5608828924,
				"y": -0.1937053027,
				"z": -1.2196361142,
				"element": "N" 
			},
			{
				"x": -1.1938502913,
				"y": -1.4317238001,
				"z": -1.4780327815,
				"element": "C" 
			},
			{
				"x": -1.1738297455,
				"y": -2.358601721,
				"z": -0.6886985568,
				"element": "O" 
			},
			{
				"x": -3.3291643049,
				"y": -2.928896656,
				"z": -2.5099752028,
				"element": "H" 
			},
			{
				"x": -2.9801199103,
				"y": -2.5215025735,
				"z": -4.2154322527,
				"element": "H" 
			},
			{
				"x": -1.8424339653,
				"y": -3.5038051501,
				"z": -3.2462377078,
				"element": "H" 
			},
			{
				"x": 1.7442706118,
				"y": -0.417133855,
				"z": 1.8842209889,
				"element": "H" 
			},
			{
				"x": 2.3900617051,
				"y": 0.702000208,
				"z": 3.0989408692,
				"element": "H" 
			},
			{
				"x": -0.5384388936,
				"y": -1.2925706798,
				"z": 2.1066454793,
				"element": "H" 
			},
			{
				"x": -2.5583979525,
				"y": -1.5774574828,
				"z": 3.5124547295,
				"element": "H" 
			},
			{
				"x": -1.2478250203,
				"y": 1.6255262328,
				"z": 6.0638854617,
				"element": "H" 
			},
			{
				"x": 0.7837243373,
				"y": 1.9001046266,
				"z": 4.67373099,
				"element": "H" 
			}
		],
		 "valence_orbital": [ 
			{
				"type": "occ",
				"energy": -0.2752,
				"method": "rhf"
			},
			{
				"type": "occ",
				"energy": -0.26953,
				"method": "rhf"
			},
			{
				"type": "occ",
				"energy": -0.25429,
				"method": "rhf"
			},
			{
				"type": "occ",
				"energy": -0.25051,
				"method": "rhf"
			},
			{
				"type": "occ",
				"energy": -0.24519,
				"method": "rhf"
			},
			{
				"type": "unocc",
				"energy": -0.07666,
				"method": "rhf"
			},
			{
				"type": "unocc",
				"energy": -0.04561,
				"method": "rhf"
			},
			{
				"type": "unocc",
				"energy": -0.03444,
				"method": "rhf"
			},
			{
				"type": "unocc",
				"energy": -0.03164,
				"method": "rhf"
			},
			{
				"type": "unocc",
				"energy": -0.02585,
				"method": "rhf"
			}
		],
		"cosmo_sigma_profile": { 
			"-0.025": 0.0,
			"-0.024": 0.0,
			"-0.023": 0.0,
			"-0.022": 0.0,
			"-0.021": 0.0,
			"-0.02": 0.0,
			"-0.019": 0.0,
			"-0.018": 0.0,
			"-0.017": 0.0,
			"-0.016": 0.0,
			"-0.015": 0.0,
			"-0.014": 0.0,
			"-0.013": 0.0,
			"-0.012": 0.0,
			"-0.011": 0.0,
			"-0.01": 0.301203256841,
			"-0.009": 3.75804881774,
			"-0.008": 7.24073462518,
			"-0.007": 12.720300059,
			"-0.006": 17.8522166926,
			"-0.005": 22.214838774,
			"-0.004": 21.9843674888,
			"-0.003": 25.2777398034,
			"-0.002": 25.9969230959,
			"-0.001": 25.8937311511,
			"0.0": 21.1125466498,
			"0.001": 23.0841955232,
			"0.002": 23.1852623333,
			"0.003": 26.7211037659,
			"0.004": 21.0251285669,
			"0.005": 13.0697875529,
			"0.006": 4.15254172611,
			"0.007": 3.06750880899,
			"0.008": 3.72026464862,
			"0.009": 4.24941484919,
			"0.01": 4.62097967273,
			"0.011": 7.00785679341,
			"0.012": 4.20378471251,
			"0.013": 2.50787683239,
			"0.014": 1.3270527212,
			"0.015": 0.147841493288,
			"0.016": 0.0,
			"0.017": 0.0,
			"0.018": 0.0,
			"0.019": 0.0,
			"0.02": 0.0,
			"0.021": 0.0,
			"0.022": 0.0,
			"0.023": 0.0,
			"0.024": 0.0,
			"0.025": 0.0
		}
	}
}
