{
	 "smiles": "C(OC1=CC=C2C=CC=CC2=C1)C1=CC=CC=C1", 
	 "Tm": 370.15, 
	 "num_atms": 32, 
	 "gaussian": { 
		 "optdone": 1, 
		 "sigma_profile": "yes", 
		 "theory": "DFT", 
		 "functional": "B3LYP", 
		 "basiset": "6-31G**", 
		 "properties": { 
			 "R2extent": 5419.6593, 
			 "electric_dipole_moment_norm": 1.1597153142, 
			 "electric_quadrupole_moment_norm": 6.30413009859, 
			 "total_energy": -731.474808739, 
			 "HOMO_LUMO_gap": 0.17292, 
			 "cosmo_polarized_energy": -8.09, 
			 "cosmo_cavitation_energy": 35.58, 
			 "cosmo_dispersion_energy": -25.39, 
			 "cosmo_repulsion_energy": 1.95, 
			 "cosmo_total_nonelectrostatic_energy": 12.14, 
			 "SMD_solvation_energy": 5.78 
		},
		"coords": [
			{
				"x": -0.1709450172,
				"y": 2.3024047548,
				"z": -0.0614767161,
				"element": "C" 
			},
			{
				"x": -1.4303358572,
				"y": 1.6433718994,
				"z": 0.0438085682,
				"element": "O" 
			},
			{
				"x": -1.4708421721,
				"y": 0.356147145,
				"z": 0.5103219631,
				"element": "C" 
			},
			{
				"x": -2.7855638297,
				"y": -0.1444550729,
				"z": 0.7204877161,
				"element": "C" 
			},
			{
				"x": -2.9739306127,
				"y": -1.4154874211,
				"z": 1.1995929068,
				"element": "C" 
			},
			{
				"x": -1.8691262998,
				"y": -2.261471073,
				"z": 1.4975263523,
				"element": "C" 
			},
			{
				"x": -2.0322610305,
				"y": -3.579811282,
				"z": 1.9963761506,
				"element": "C" 
			},
			{
				"x": -0.9392410773,
				"y": -4.3730614676,
				"z": 2.2694613899,
				"element": "C" 
			},
			{
				"x": 0.3680136471,
				"y": -3.875586524,
				"z": 2.0516187552,
				"element": "C" 
			},
			{
				"x": 0.5586688745,
				"y": -2.5993350114,
				"z": 1.5684966708,
				"element": "C" 
			},
			{
				"x": -0.5473628888,
				"y": -1.7552545957,
				"z": 1.2792940864,
				"element": "C" 
			},
			{
				"x": -0.3724247906,
				"y": -0.4346098362,
				"z": 0.7790046328,
				"element": "C" 
			},
			{
				"x": 0.6383109243,
				"y": 1.9130516125,
				"z": -1.2843980597,
				"element": "C" 
			},
			{
				"x": 0.0044230851,
				"y": 1.5342315455,
				"z": -2.4732649873,
				"element": "C" 
			},
			{
				"x": 0.7572007327,
				"y": 1.2317770893,
				"z": -3.6080777476,
				"element": "C" 
			},
			{
				"x": 2.1510787417,
				"y": 1.3127728847,
				"z": -3.5706991054,
				"element": "C" 
			},
			{
				"x": 2.7893915032,
				"y": 1.6927732703,
				"z": -2.3890436309,
				"element": "C" 
			},
			{
				"x": 2.0356848513,
				"y": 1.9867464988,
				"z": -1.2513726727,
				"element": "C" 
			},
			{
				"x": 0.4162485306,
				"y": 2.1506786092,
				"z": 0.8540677773,
				"element": "H" 
			},
			{
				"x": -0.4321759293,
				"y": 3.3654374873,
				"z": -0.1110100873,
				"element": "H" 
			},
			{
				"x": -3.6219114844,
				"y": 0.5097851939,
				"z": 0.4966815641,
				"element": "H" 
			},
			{
				"x": -3.9812323289,
				"y": -1.7908816063,
				"z": 1.3609760817,
				"element": "H" 
			},
			{
				"x": -3.039649861,
				"y": -3.9550591582,
				"z": 2.1597332703,
				"element": "H" 
			},
			{
				"x": -1.0763568643,
				"y": -5.3806196853,
				"z": 2.6510139048,
				"element": "H" 
			},
			{
				"x": 1.2254236168,
				"y": -4.5068581558,
				"z": 2.2676408516,
				"element": "H" 
			},
			{
				"x": 1.5637007073,
				"y": -2.2201519009,
				"z": 1.4012361343,
				"element": "H" 
			},
			{
				"x": 0.6351194564,
				"y": -0.0813576632,
				"z": 0.5937887176,
				"element": "H" 
			},
			{
				"x": -1.0788057975,
				"y": 1.4685519528,
				"z": -2.4984587327,
				"element": "H" 
			},
			{
				"x": 0.2545903994,
				"y": 0.9324140875,
				"z": -4.5235151955,
				"element": "H" 
			},
			{
				"x": 2.7357017084,
				"y": 1.0772051739,
				"z": -4.4552941048,
				"element": "H" 
			},
			{
				"x": 3.8733880854,
				"y": 1.7524991855,
				"z": -2.3491385615,
				"element": "H" 
			},
			{
				"x": 2.5385209775,
				"y": 2.2747520634,
				"z": -0.3304778923,
				"element": "H" 
			}
		],
		 "valence_orbital": [ 
			{
				"type": "occ",
				"energy": -0.27492,
				"method": "rhf"
			},
			{
				"type": "occ",
				"energy": -0.25239,
				"method": "rhf"
			},
			{
				"type": "occ",
				"energy": -0.24676,
				"method": "rhf"
			},
			{
				"type": "occ",
				"energy": -0.22561,
				"method": "rhf"
			},
			{
				"type": "occ",
				"energy": -0.20311,
				"method": "rhf"
			},
			{
				"type": "unocc",
				"energy": -0.03019,
				"method": "rhf"
			},
			{
				"type": "unocc",
				"energy": -0.00667,
				"method": "rhf"
			},
			{
				"type": "unocc",
				"energy": -0.00514,
				"method": "rhf"
			},
			{
				"type": "unocc",
				"energy": 0.00306,
				"method": "rhf"
			},
			{
				"type": "unocc",
				"energy": 0.03881,
				"method": "rhf"
			}
		],
		"cosmo_sigma_profile": { 
			"-0.025": 0.0,
			"-0.024": 0.0,
			"-0.023": 0.0,
			"-0.022": 0.0,
			"-0.021": 0.0,
			"-0.02": 0.0,
			"-0.019": 0.0,
			"-0.018": 0.0,
			"-0.017": 0.0,
			"-0.016": 0.0,
			"-0.015": 0.0,
			"-0.014": 0.0,
			"-0.013": 0.0,
			"-0.012": 0.0,
			"-0.011": 0.0,
			"-0.01": 0.0,
			"-0.009": 0.0,
			"-0.008": 0.0,
			"-0.007": 1.00032534118,
			"-0.006": 17.685603429,
			"-0.005": 28.6473147961,
			"-0.004": 26.5500209697,
			"-0.003": 27.3727024075,
			"-0.002": 17.5034015708,
			"-0.001": 18.1536923427,
			"0.0": 14.2980663682,
			"0.001": 17.5450363736,
			"0.002": 18.1421500118,
			"0.003": 21.1715620552,
			"0.004": 31.7819648881,
			"0.005": 27.8813942741,
			"0.006": 13.2295493838,
			"0.007": 0.76434654245,
			"0.008": 1.33560862985,
			"0.009": 0.981684953283,
			"0.01": 0.843659599372,
			"0.011": 0.0124147781397,
			"0.012": 0.0,
			"0.013": 0.0,
			"0.014": 0.0,
			"0.015": 0.0,
			"0.016": 0.0,
			"0.017": 0.0,
			"0.018": 0.0,
			"0.019": 0.0,
			"0.02": 0.0,
			"0.021": 0.0,
			"0.022": 0.0,
			"0.023": 0.0,
			"0.024": 0.0,
			"0.025": 0.0
		}
	}
}
