{
	 "smiles": "BrC1=C2NC(=O)OC(=O)C2=CC=C1", 
	 "Tm": 443.15, 
	 "num_atms": 17, 
	 "gaussian": { 
		 "optdone": 1, 
		 "sigma_profile": "yes", 
		 "theory": "DFT", 
		 "functional": "B3LYP", 
		 "basiset": "6-31G**", 
		 "properties": { 
			 "R2extent": 3235.0078, 
			 "electric_dipole_moment_norm": 5.86168880443, 
			 "electric_quadrupole_moment_norm": 7.82687324415, 
			 "total_energy": -3159.12214164, 
			 "HOMO_LUMO_gap": 0.17742, 
			 "cosmo_polarized_energy": -13.9, 
			 "cosmo_cavitation_energy": 24.52, 
			 "cosmo_dispersion_energy": -18.94, 
			 "cosmo_repulsion_energy": 1.47, 
			 "cosmo_total_nonelectrostatic_energy": 7.05, 
			 "SMD_solvation_energy": 5.19 
		},
		"coords": [
			{
				"x": -1.8117261787,
				"y": 2.3323689365,
				"z": -0.8483647363,
				"element": "Br" 
			},
			{
				"x": -1.5561557408,
				"y": 0.7956444239,
				"z": 0.2554944613,
				"element": "C" 
			},
			{
				"x": -0.3267746586,
				"y": 0.1169109031,
				"z": 0.2279320406,
				"element": "C" 
			},
			{
				"x": 0.7269293211,
				"y": 0.5130809601,
				"z": -0.5735201826,
				"element": "N" 
			},
			{
				"x": 1.9534355759,
				"y": -0.1161153424,
				"z": -0.6393172437,
				"element": "C" 
			},
			{
				"x": 2.8552915874,
				"y": 0.2492809748,
				"z": -1.3462296134,
				"element": "O" 
			},
			{
				"x": 2.0969594667,
				"y": -1.219187538,
				"z": 0.171898243,
				"element": "O" 
			},
			{
				"x": 1.1210572083,
				"y": -1.7300982053,
				"z": 1.0291385354,
				"element": "C" 
			},
			{
				"x": 1.3925791385,
				"y": -2.7055193877,
				"z": 1.6785590537,
				"element": "O" 
			},
			{
				"x": -0.1624790536,
				"y": -1.0111570018,
				"z": 1.049291302,
				"element": "C" 
			},
			{
				"x": -1.201534791,
				"y": -1.4501431997,
				"z": 1.8777448846,
				"element": "C" 
			},
			{
				"x": -2.4113014866,
				"y": -0.7686162269,
				"z": 1.893913537,
				"element": "C" 
			},
			{
				"x": -2.5856737328,
				"y": 0.3570128416,
				"z": 1.0792895455,
				"element": "C" 
			},
			{
				"x": 0.6203477347,
				"y": 1.3242498081,
				"z": -1.1694684361,
				"element": "H" 
			},
			{
				"x": -1.0283753861,
				"y": -2.325401379,
				"z": 2.4939650984,
				"element": "H" 
			},
			{
				"x": -3.2232536365,
				"y": -1.0999654015,
				"z": 2.5320257172,
				"element": "H" 
			},
			{
				"x": -3.5256253677,
				"y": 0.8975548342,
				"z": 1.0831477933,
				"element": "H" 
			}
		],
		 "valence_orbital": [ 
			{
				"type": "occ",
				"energy": -0.32598,
				"method": "rhf"
			},
			{
				"type": "occ",
				"energy": -0.31885,
				"method": "rhf"
			},
			{
				"type": "occ",
				"energy": -0.29231,
				"method": "rhf"
			},
			{
				"type": "occ",
				"energy": -0.28242,
				"method": "rhf"
			},
			{
				"type": "occ",
				"energy": -0.25612,
				"method": "rhf"
			},
			{
				"type": "unocc",
				"energy": -0.0787,
				"method": "rhf"
			},
			{
				"type": "unocc",
				"energy": -0.0428,
				"method": "rhf"
			},
			{
				"type": "unocc",
				"energy": -0.02478,
				"method": "rhf"
			},
			{
				"type": "unocc",
				"energy": 0.00632,
				"method": "rhf"
			},
			{
				"type": "unocc",
				"energy": 0.0446,
				"method": "rhf"
			}
		],
		"cosmo_sigma_profile": { 
			"-0.025": 0.0,
			"-0.024": 0.0,
			"-0.023": 0.0,
			"-0.022": 0.0,
			"-0.021": 0.0,
			"-0.02": 0.0,
			"-0.019": 0.0,
			"-0.018": 0.0,
			"-0.017": 0.0,
			"-0.016": 0.0,
			"-0.015": 0.18725415694,
			"-0.014": 0.740082927231,
			"-0.013": 0.7018544134,
			"-0.012": 0.556764406673,
			"-0.011": 1.34880353814,
			"-0.01": 1.88452974518,
			"-0.009": 3.30751182767,
			"-0.008": 6.63209018871,
			"-0.007": 9.62098523128,
			"-0.006": 9.7347917918,
			"-0.005": 11.685925399,
			"-0.004": 11.4851943529,
			"-0.003": 12.9545738883,
			"-0.002": 13.9543684887,
			"-0.001": 15.7371426886,
			"0.0": 18.0072349369,
			"0.001": 14.5987559716,
			"0.002": 12.591770252,
			"0.003": 9.89542075667,
			"0.004": 5.01350342608,
			"0.005": 2.40566965202,
			"0.006": 3.53162426225,
			"0.007": 4.93772907163,
			"0.008": 5.77669388749,
			"0.009": 5.47492096176,
			"0.01": 8.7452896359,
			"0.011": 8.58839053725,
			"0.012": 1.70175550396,
			"0.013": 0.0,
			"0.014": 0.0,
			"0.015": 0.0,
			"0.016": 0.0,
			"0.017": 0.0,
			"0.018": 0.0,
			"0.019": 0.0,
			"0.02": 0.0,
			"0.021": 0.0,
			"0.022": 0.0,
			"0.023": 0.0,
			"0.024": 0.0,
			"0.025": 0.0
		}
	}
}
