{
	 "smiles": "NC1CN(C1)S(=O)(=O)C1=CC2=C(OCCO2)C=C1", 
	 "Tm": 398.15, 
	 "num_atms": 32, 
	 "gaussian": { 
		 "optdone": 1, 
		 "sigma_profile": "yes", 
		 "theory": "DFT", 
		 "functional": "B3LYP", 
		 "basiset": "6-31G**", 
		 "properties": { 
			 "R2extent": 6721.8417, 
			 "electric_dipole_moment_norm": 4.85106835759, 
			 "electric_quadrupole_moment_norm": 34.2055051819, 
			 "total_energy": -1236.06759683, 
			 "HOMO_LUMO_gap": 0.20056, 
			 "cosmo_polarized_energy": -20.18, 
			 "cosmo_cavitation_energy": 36.3, 
			 "cosmo_dispersion_energy": -26.75, 
			 "cosmo_repulsion_energy": 2.05, 
			 "cosmo_total_nonelectrostatic_energy": 11.6, 
			 "SMD_solvation_energy": 3.03 
		},
		"coords": [
			{
				"x": 4.0714612629,
				"y": -2.2197233769,
				"z": 0.9360454307,
				"element": "N" 
			},
			{
				"x": 2.9739146802,
				"y": -2.0995269371,
				"z": 0.0058263601,
				"element": "C" 
			},
			{
				"x": 1.7281822595,
				"y": -1.3454312711,
				"z": 0.5250790274,
				"element": "C" 
			},
			{
				"x": 1.5823150543,
				"y": -0.7338495876,
				"z": -0.8300310233,
				"element": "N" 
			},
			{
				"x": 2.9930546972,
				"y": -1.0834044349,
				"z": -1.1815400682,
				"element": "C" 
			},
			{
				"x": 1.1313417502,
				"y": 0.8969501369,
				"z": -0.9724790107,
				"element": "S" 
			},
			{
				"x": 1.5324021,
				"y": 1.2871640303,
				"z": -2.328320679,
				"element": "O" 
			},
			{
				"x": 1.5982084548,
				"y": 1.6726042967,
				"z": 0.1895222147,
				"element": "O" 
			},
			{
				"x": -0.6491297449,
				"y": 0.7891122924,
				"z": -0.8713493882,
				"element": "C" 
			},
			{
				"x": -1.3533207232,
				"y": 0.2350490492,
				"z": -1.9416948697,
				"element": "C" 
			},
			{
				"x": -2.7409178007,
				"y": 0.1620071094,
				"z": -1.8759760987,
				"element": "C" 
			},
			{
				"x": -3.4169079238,
				"y": 0.6616754151,
				"z": -0.7432337388,
				"element": "C" 
			},
			{
				"x": -4.780754089,
				"y": 0.630552802,
				"z": -0.648656892,
				"element": "O" 
			},
			{
				"x": -5.4518077247,
				"y": 0.3802187463,
				"z": -1.8869911102,
				"element": "C" 
			},
			{
				"x": -4.765823151,
				"y": -0.7508720186,
				"z": -2.6338440293,
				"element": "C" 
			},
			{
				"x": -3.4159223303,
				"y": -0.3930022139,
				"z": -2.9329355044,
				"element": "O" 
			},
			{
				"x": -2.69358091,
				"y": 1.2045348336,
				"z": 0.3202430324,
				"element": "C" 
			},
			{
				"x": -1.3038502889,
				"y": 1.2703209733,
				"z": 0.2644476829,
				"element": "C" 
			},
			{
				"x": 4.8477456799,
				"y": -2.7297003616,
				"z": 0.5237916749,
				"element": "H" 
			},
			{
				"x": 4.419597643,
				"y": -1.302856859,
				"z": 1.2059948108,
				"element": "H" 
			},
			{
				"x": 2.707414447,
				"y": -3.0990824872,
				"z": -0.3494268942,
				"element": "H" 
			},
			{
				"x": 0.8626655708,
				"y": -1.9300378068,
				"z": 0.8467754607,
				"element": "H" 
			},
			{
				"x": 1.9902696278,
				"y": -0.6075659314,
				"z": 1.29369004,
				"element": "H" 
			},
			{
				"x": 3.1100908793,
				"y": -1.4560490335,
				"z": -2.2019187923,
				"element": "H" 
			},
			{
				"x": 3.7034345547,
				"y": -0.2656096262,
				"z": -1.0034233006,
				"element": "H" 
			},
			{
				"x": -0.842599425,
				"y": -0.1377265406,
				"z": -2.822144997,
				"element": "H" 
			},
			{
				"x": -5.449458126,
				"y": 1.2914086852,
				"z": -2.4994797468,
				"element": "H" 
			},
			{
				"x": -6.4827292756,
				"y": 0.1234744129,
				"z": -1.6319788695,
				"element": "H" 
			},
			{
				"x": -5.2532408703,
				"y": -0.9476409857,
				"z": -3.5916962795,
				"element": "H" 
			},
			{
				"x": -4.7840056423,
				"y": -1.6667390357,
				"z": -2.0275879002,
				"element": "H" 
			},
			{
				"x": -3.2432473792,
				"y": 1.5815535133,
				"z": 1.1762723726,
				"element": "H" 
			},
			{
				"x": -0.7288032566,
				"y": 1.7046922114,
				"z": 1.0735210855,
				"element": "H" 
			}
		],
		 "valence_orbital": [ 
			{
				"type": "occ",
				"energy": -0.28597,
				"method": "rhf"
			},
			{
				"type": "occ",
				"energy": -0.2581,
				"method": "rhf"
			},
			{
				"type": "occ",
				"energy": -0.24756,
				"method": "rhf"
			},
			{
				"type": "occ",
				"energy": -0.24208,
				"method": "rhf"
			},
			{
				"type": "occ",
				"energy": -0.22734,
				"method": "rhf"
			},
			{
				"type": "unocc",
				"energy": -0.02678,
				"method": "rhf"
			},
			{
				"type": "unocc",
				"energy": -0.00747,
				"method": "rhf"
			},
			{
				"type": "unocc",
				"energy": 0.05987,
				"method": "rhf"
			},
			{
				"type": "unocc",
				"energy": 0.07209,
				"method": "rhf"
			},
			{
				"type": "unocc",
				"energy": 0.07898,
				"method": "rhf"
			}
		],
		"cosmo_sigma_profile": { 
			"-0.025": 0.0,
			"-0.024": 0.0,
			"-0.023": 0.0,
			"-0.022": 0.0,
			"-0.021": 0.0,
			"-0.02": 0.0,
			"-0.019": 0.0,
			"-0.018": 0.0,
			"-0.017": 0.0,
			"-0.016": 0.0,
			"-0.015": 0.0,
			"-0.014": 0.0,
			"-0.013": 0.0,
			"-0.012": 0.0,
			"-0.011": 0.680690948083,
			"-0.01": 2.68571233014,
			"-0.009": 3.80773946044,
			"-0.008": 6.50525291567,
			"-0.007": 16.2008306862,
			"-0.006": 21.9102862749,
			"-0.005": 26.253170203,
			"-0.004": 22.6171122875,
			"-0.003": 21.1055690352,
			"-0.002": 18.6716942117,
			"-0.001": 11.7155241683,
			"0.0": 12.9432615353,
			"0.001": 16.2757813852,
			"0.002": 19.95673563,
			"0.003": 13.8572519661,
			"0.004": 8.40389696604,
			"0.005": 7.23033600741,
			"0.006": 7.52628555596,
			"0.007": 6.79392899941,
			"0.008": 6.22084710584,
			"0.009": 7.6010110402,
			"0.01": 8.31722274785,
			"0.011": 9.51097485249,
			"0.012": 6.1807868087,
			"0.013": 0.592179528347,
			"0.014": 0.722066416442,
			"0.015": 0.949478363214,
			"0.016": 0.537783986458,
			"0.017": 0.507034672072,
			"0.018": 0.438158003859,
			"0.019": 0.144492494883,
			"0.02": 0.0,
			"0.021": 0.0,
			"0.022": 0.0,
			"0.023": 0.0,
			"0.024": 0.0,
			"0.025": 0.0
		}
	}
}
