{
	 "smiles": "CC(C)(C)P(C1=CC=CC2=C1OC1=C(C=CC=C1C2(C)C)P(C(C)(C)C)C(C)(C)C)C(C)(C)C", 
	 "Tm": 428.15, 
	 "num_atms": 82, 
	 "gaussian": { 
		 "optdone": 1, 
		 "sigma_profile": "yes", 
		 "theory": "DFT", 
		 "functional": "B3LYP", 
		 "basiset": "6-31G**", 
		 "properties": { 
			 "R2extent": 17115.1002, 
			 "electric_dipole_moment_norm": 1.52654890849, 
			 "electric_quadrupole_moment_norm": 10.9311007072, 
			 "total_energy": -1968.17259408, 
			 "HOMO_LUMO_gap": 0.17219, 
			 "cosmo_polarized_energy": -13.69, 
			 "cosmo_cavitation_energy": 74.31, 
			 "cosmo_dispersion_energy": -43.48, 
			 "cosmo_repulsion_energy": 3.14, 
			 "cosmo_total_nonelectrostatic_energy": 33.97, 
			 "SMD_solvation_energy": 12.83 
		},
		"coords": [
			{
				"x": -2.744208687,
				"y": 2.4623497503,
				"z": -2.689159464,
				"element": "C" 
			},
			{
				"x": -1.3041937562,
				"y": 2.9946218584,
				"z": -2.5285437256,
				"element": "C" 
			},
			{
				"x": -0.8736933753,
				"y": 3.7054030587,
				"z": -3.8247310112,
				"element": "C" 
			},
			{
				"x": -1.3234840119,
				"y": 4.0440299317,
				"z": -1.3903123582,
				"element": "C" 
			},
			{
				"x": -0.2395562406,
				"y": 1.5371558887,
				"z": -1.8259284152,
				"element": "P" 
			},
			{
				"x": -0.6680475871,
				"y": 0.0644036982,
				"z": -2.8916901736,
				"element": "C" 
			},
			{
				"x": -0.8732019311,
				"y": 0.1252106848,
				"z": -4.2767717779,
				"element": "C" 
			},
			{
				"x": -1.2873016213,
				"y": -0.9871173496,
				"z": -5.0082700147,
				"element": "C" 
			},
			{
				"x": -1.5195175237,
				"y": -2.1890205867,
				"z": -4.3502226659,
				"element": "C" 
			},
			{
				"x": -1.3244876042,
				"y": -2.3176159984,
				"z": -2.9692606462,
				"element": "C" 
			},
			{
				"x": -0.8701203093,
				"y": -1.1917797785,
				"z": -2.2681055251,
				"element": "C" 
			},
			{
				"x": -0.5817730367,
				"y": -1.2480302438,
				"z": -0.9257380806,
				"element": "O" 
			},
			{
				"x": -0.86850074,
				"y": -2.363353426,
				"z": -0.1759075783,
				"element": "C" 
			},
			{
				"x": -0.5939516684,
				"y": -2.2655124611,
				"z": 1.2116786383,
				"element": "C" 
			},
			{
				"x": -0.9805087894,
				"y": -3.350369211,
				"z": 2.0109286247,
				"element": "C" 
			},
			{
				"x": -1.5505707312,
				"y": -4.4999546869,
				"z": 1.4647940418,
				"element": "C" 
			},
			{
				"x": -1.7412105539,
				"y": -4.5813342658,
				"z": 0.0909851874,
				"element": "C" 
			},
			{
				"x": -1.4133772564,
				"y": -3.5168496293,
				"z": -0.7583664794,
				"element": "C" 
			},
			{
				"x": -1.6152156244,
				"y": -3.6483977967,
				"z": -2.2706552492,
				"element": "C" 
			},
			{
				"x": -0.6505194758,
				"y": -4.7371320165,
				"z": -2.8126742787,
				"element": "C" 
			},
			{
				"x": -3.0802667879,
				"y": -4.0655177815,
				"z": -2.5662678707,
				"element": "C" 
			},
			{
				"x": 0.2747591467,
				"y": -0.7361451917,
				"z": 1.8470960614,
				"element": "P" 
			},
			{
				"x": -1.0811803309,
				"y": 0.0989439356,
				"z": 2.937146015,
				"element": "C" 
			},
			{
				"x": -0.6098254272,
				"y": 1.5457917225,
				"z": 3.2036518936,
				"element": "C" 
			},
			{
				"x": -2.3389060337,
				"y": 0.174373628,
				"z": 2.0438372758,
				"element": "C" 
			},
			{
				"x": -1.4473760263,
				"y": -0.5706014992,
				"z": 4.2712248894,
				"element": "C" 
			},
			{
				"x": 1.7269999535,
				"y": -1.4329321305,
				"z": 2.9169937263,
				"element": "C" 
			},
			{
				"x": 2.7158501728,
				"y": -1.9963182532,
				"z": 1.8703598135,
				"element": "C" 
			},
			{
				"x": 2.3890048299,
				"y": -0.2195537351,
				"z": 3.604594042,
				"element": "C" 
			},
			{
				"x": 1.487306183,
				"y": -2.5242815212,
				"z": 3.9779606325,
				"element": "C" 
			},
			{
				"x": 1.6238317259,
				"y": 1.7900956854,
				"z": -2.2527876658,
				"element": "C" 
			},
			{
				"x": 2.0150942994,
				"y": 1.8067118703,
				"z": -3.7405161284,
				"element": "C" 
			},
			{
				"x": 2.1033972562,
				"y": 3.0891684539,
				"z": -1.5752705468,
				"element": "C" 
			},
			{
				"x": 2.3352637348,
				"y": 0.5978128741,
				"z": -1.5745676743,
				"element": "C" 
			},
			{
				"x": -3.4290922315,
				"y": 3.3048231599,
				"z": -2.8500158394,
				"element": "H" 
			},
			{
				"x": -3.0793364616,
				"y": 1.9311481131,
				"z": -1.7913020866,
				"element": "H" 
			},
			{
				"x": -2.844317753,
				"y": 1.7812131811,
				"z": -3.537304816,
				"element": "H" 
			},
			{
				"x": -0.8488009746,
				"y": 3.0411392567,
				"z": -4.6919342719,
				"element": "H" 
			},
			{
				"x": -1.5908269771,
				"y": 4.5050491379,
				"z": -4.0552277218,
				"element": "H" 
			},
			{
				"x": 0.1090520348,
				"y": 4.1746850823,
				"z": -3.729432186,
				"element": "H" 
			},
			{
				"x": -0.3342639272,
				"y": 4.4685574416,
				"z": -1.1980568906,
				"element": "H" 
			},
			{
				"x": -1.687914469,
				"y": 3.6102658543,
				"z": -0.454490755,
				"element": "H" 
			},
			{
				"x": -1.9900491532,
				"y": 4.8724182254,
				"z": -1.6636241839,
				"element": "H" 
			},
			{
				"x": -0.709872628,
				"y": 1.0604651935,
				"z": -4.7970114191,
				"element": "H" 
			},
			{
				"x": -1.434542242,
				"y": -0.9130442921,
				"z": -6.0816011833,
				"element": "H" 
			},
			{
				"x": -1.8566360968,
				"y": -3.0490524009,
				"z": -4.9208209148,
				"element": "H" 
			},
			{
				"x": -0.8345738729,
				"y": -3.3010895106,
				"z": 3.0812523066,
				"element": "H" 
			},
			{
				"x": -1.8349041547,
				"y": -5.3280502575,
				"z": 2.1071799742,
				"element": "H" 
			},
			{
				"x": -2.1594147872,
				"y": -5.4891504494,
				"z": -0.3328984902,
				"element": "H" 
			},
			{
				"x": -0.8428871455,
				"y": -5.70227269,
				"z": -2.3334979373,
				"element": "H" 
			},
			{
				"x": -0.7735522131,
				"y": -4.8669422836,
				"z": -3.892565079,
				"element": "H" 
			},
			{
				"x": 0.3908401126,
				"y": -4.4637528846,
				"z": -2.6196110058,
				"element": "H" 
			},
			{
				"x": -3.321025333,
				"y": -5.0250514013,
				"z": -2.1000914634,
				"element": "H" 
			},
			{
				"x": -3.2495016556,
				"y": -4.1748650077,
				"z": -3.6411033921,
				"element": "H" 
			},
			{
				"x": -3.780537988,
				"y": -3.3163536575,
				"z": -2.1861356445,
				"element": "H" 
			},
			{
				"x": -0.3697274962,
				"y": 2.0608114341,
				"z": 2.2685908213,
				"element": "H" 
			},
			{
				"x": -1.4094165568,
				"y": 2.1065820649,
				"z": 3.7051162705,
				"element": "H" 
			},
			{
				"x": 0.2714803756,
				"y": 1.5876746599,
				"z": 3.8489979751,
				"element": "H" 
			},
			{
				"x": -2.1091761336,
				"y": 0.6102726222,
				"z": 1.0657040484,
				"element": "H" 
			},
			{
				"x": -2.7846868489,
				"y": -0.8109419086,
				"z": 1.8830516379,
				"element": "H" 
			},
			{
				"x": -3.0916859209,
				"y": 0.8090797509,
				"z": 2.5289141137,
				"element": "H" 
			},
			{
				"x": -0.6091938911,
				"y": -0.5759815858,
				"z": 4.9741034414,
				"element": "H" 
			},
			{
				"x": -2.2653498401,
				"y": -0.0146321118,
				"z": 4.7496476869,
				"element": "H" 
			},
			{
				"x": -1.7935554705,
				"y": -1.5993038844,
				"z": 4.1366671348,
				"element": "H" 
			},
			{
				"x": 2.2841808368,
				"y": -2.8387171822,
				"z": 1.320151281,
				"element": "H" 
			},
			{
				"x": 3.0144800519,
				"y": -1.2349255563,
				"z": 1.1436659178,
				"element": "H" 
			},
			{
				"x": 3.6219830446,
				"y": -2.3571280061,
				"z": 2.3742649096,
				"element": "H" 
			},
			{
				"x": 2.5409417755,
				"y": 0.6127607984,
				"z": 2.9096137019,
				"element": "H" 
			},
			{
				"x": 3.3715773877,
				"y": -0.5109513788,
				"z": 3.9973468284,
				"element": "H" 
			},
			{
				"x": 1.7977562094,
				"y": 0.1446046523,
				"z": 4.4502345379,
				"element": "H" 
			},
			{
				"x": 2.4219008446,
				"y": -2.6987556448,
				"z": 4.5282485674,
				"element": "H" 
			},
			{
				"x": 1.2040443796,
				"y": -3.4771023477,
				"z": 3.5259963808,
				"element": "H" 
			},
			{
				"x": 0.7269937038,
				"y": -2.2481368222,
				"z": 4.7123442125,
				"element": "H" 
			},
			{
				"x": 1.5792788593,
				"y": 2.6480343998,
				"z": -4.2839699444,
				"element": "H" 
			},
			{
				"x": 1.7202961181,
				"y": 0.8831284134,
				"z": -4.2455805945,
				"element": "H" 
			},
			{
				"x": 3.1067234905,
				"y": 1.8928612884,
				"z": -3.8279135512,
				"element": "H" 
			},
			{
				"x": 3.1975078559,
				"y": 3.1529827253,
				"z": -1.6351715751,
				"element": "H" 
			},
			{
				"x": 1.8261543056,
				"y": 3.1184781953,
				"z": -0.5163707475,
				"element": "H" 
			},
			{
				"x": 1.7010278028,
				"y": 3.9840450568,
				"z": -2.0596183401,
				"element": "H" 
			},
			{
				"x": 3.422224733,
				"y": 0.7142818265,
				"z": -1.677701498,
				"element": "H" 
			},
			{
				"x": 2.0886392539,
				"y": 0.5324640671,
				"z": -0.5110631573,
				"element": "H" 
			},
			{
				"x": 2.0589468742,
				"y": -0.3532808153,
				"z": -2.0401805711,
				"element": "H" 
			}
		],
		 "valence_orbital": [ 
			{
				"type": "occ",
				"energy": -0.24322,
				"method": "rhf"
			},
			{
				"type": "occ",
				"energy": -0.23903,
				"method": "rhf"
			},
			{
				"type": "occ",
				"energy": -0.20562,
				"method": "rhf"
			},
			{
				"type": "occ",
				"energy": -0.20416,
				"method": "rhf"
			},
			{
				"type": "occ",
				"energy": -0.19281,
				"method": "rhf"
			},
			{
				"type": "unocc",
				"energy": -0.02062,
				"method": "rhf"
			},
			{
				"type": "unocc",
				"energy": -0.01107,
				"method": "rhf"
			},
			{
				"type": "unocc",
				"energy": -0.00724,
				"method": "rhf"
			},
			{
				"type": "unocc",
				"energy": 0.02489,
				"method": "rhf"
			},
			{
				"type": "unocc",
				"energy": 0.06177,
				"method": "rhf"
			}
		],
		"cosmo_sigma_profile": { 
			"-0.025": 0.0,
			"-0.024": 0.0,
			"-0.023": 0.0,
			"-0.022": 0.0,
			"-0.021": 0.0,
			"-0.02": 0.0,
			"-0.019": 0.0,
			"-0.018": 0.0,
			"-0.017": 0.0,
			"-0.016": 0.0,
			"-0.015": 0.0,
			"-0.014": 0.0,
			"-0.013": 0.0,
			"-0.012": 0.0,
			"-0.011": 0.0,
			"-0.01": 0.0,
			"-0.009": 0.0086081511854,
			"-0.008": 0.0205124365756,
			"-0.007": 0.632506323585,
			"-0.006": 8.61851388097,
			"-0.005": 13.8848347415,
			"-0.004": 25.1754602455,
			"-0.003": 48.6930698846,
			"-0.002": 76.2536821985,
			"-0.001": 78.3106258083,
			"0.0": 88.3410451463,
			"0.001": 106.850386288,
			"0.002": 51.7703377975,
			"0.003": 19.7212288652,
			"0.004": 16.1745675283,
			"0.005": 15.1174638176,
			"0.006": 6.9880119408,
			"0.007": 2.24851531783,
			"0.008": 2.52586232687,
			"0.009": 2.36322894624,
			"0.01": 1.55363369021,
			"0.011": 1.55186882029,
			"0.012": 1.35282920969,
			"0.013": 1.64769418493,
			"0.014": 0.790819370195,
			"0.015": 0.824734363749,
			"0.016": 0.361991374152,
			"0.017": 0.00276498744932,
			"0.018": 0.0,
			"0.019": 0.0,
			"0.02": 0.0,
			"0.021": 0.0,
			"0.022": 0.0,
			"0.023": 0.0,
			"0.024": 0.0,
			"0.025": 0.0
		}
	}
}
