{
	 "smiles": "CCCCCCCCCCC(O)CC", 
	 "Tm": 305.15, 
	 "num_atms": 42, 
	 "gaussian": { 
		 "optdone": 1, 
		 "sigma_profile": "yes", 
		 "theory": "DFT", 
		 "functional": "B3LYP", 
		 "basiset": "6-31G**", 
		 "properties": { 
			 "R2extent": 5612.2766, 
			 "electric_dipole_moment_norm": 1.3595796446, 
			 "electric_quadrupole_moment_norm": 11.3833410935, 
			 "total_energy": -587.510553591, 
			 "HOMO_LUMO_gap": 0.32424, 
			 "cosmo_polarized_energy": -5.9, 
			 "cosmo_cavitation_energy": 40.49, 
			 "cosmo_dispersion_energy": -27.19, 
			 "cosmo_repulsion_energy": 2.23, 
			 "cosmo_total_nonelectrostatic_energy": 15.53, 
			 "SMD_solvation_energy": 5.69 
		},
		"coords": [
			{
				"x": 2.0636139164,
				"y": -3.3845088644,
				"z": -2.348585483,
				"element": "C" 
			},
			{
				"x": 2.2378937311,
				"y": -3.102618913,
				"z": -0.8524931394,
				"element": "C" 
			},
			{
				"x": 0.9899180037,
				"y": -2.4789923847,
				"z": -0.2120371913,
				"element": "C" 
			},
			{
				"x": 1.0850814467,
				"y": -2.262243342,
				"z": 1.3083372884,
				"element": "C" 
			},
			{
				"x": 2.1814586966,
				"y": -1.2886013291,
				"z": 1.7816815902,
				"element": "C" 
			},
			{
				"x": 2.0771999973,
				"y": 0.151359782,
				"z": 1.2479799734,
				"element": "C" 
			},
			{
				"x": 0.8042135444,
				"y": 0.8959630726,
				"z": 1.6786320236,
				"element": "C" 
			},
			{
				"x": 0.7826874648,
				"y": 2.3902905467,
				"z": 1.3074131236,
				"element": "C" 
			},
			{
				"x": 0.7643191296,
				"y": 2.7061975544,
				"z": -0.2011767861,
				"element": "C" 
			},
			{
				"x": -0.5144875452,
				"y": 2.3000307506,
				"z": -0.9675067407,
				"element": "C" 
			},
			{
				"x": -1.5660810361,
				"y": 3.4153139573,
				"z": -1.14339103,
				"element": "C" 
			},
			{
				"x": -0.9991376945,
				"y": 4.5524887046,
				"z": -1.8017918565,
				"element": "O" 
			},
			{
				"x": -2.1979733939,
				"y": 3.9582609637,
				"z": 0.1415548268,
				"element": "C" 
			},
			{
				"x": -3.046962771,
				"y": 2.9378774209,
				"z": 0.9050251332,
				"element": "C" 
			},
			{
				"x": 1.2326488666,
				"y": -4.0766400123,
				"z": -2.5273833165,
				"element": "H" 
			},
			{
				"x": 1.8487657605,
				"y": -2.4634448642,
				"z": -2.902865141,
				"element": "H" 
			},
			{
				"x": 2.9657208143,
				"y": -3.8291409281,
				"z": -2.7817052226,
				"element": "H" 
			},
			{
				"x": 3.1019308517,
				"y": -2.4415352198,
				"z": -0.7090346467,
				"element": "H" 
			},
			{
				"x": 2.4817311259,
				"y": -4.0377910252,
				"z": -0.3293543168,
				"element": "H" 
			},
			{
				"x": 0.1287086189,
				"y": -3.130585067,
				"z": -0.4146985274,
				"element": "H" 
			},
			{
				"x": 0.7649843991,
				"y": -1.5274855541,
				"z": -0.7135304598,
				"element": "H" 
			},
			{
				"x": 0.1101576838,
				"y": -1.9175658859,
				"z": 1.6756359254,
				"element": "H" 
			},
			{
				"x": 1.2571311087,
				"y": -3.2338808076,
				"z": 1.7915984656,
				"element": "H" 
			},
			{
				"x": 2.1625994027,
				"y": -1.2588337822,
				"z": 2.8798479478,
				"element": "H" 
			},
			{
				"x": 3.1658840036,
				"y": -1.6920707958,
				"z": 1.5127600439,
				"element": "H" 
			},
			{
				"x": 2.9507494964,
				"y": 0.7149050359,
				"z": 1.6043161233,
				"element": "H" 
			},
			{
				"x": 2.1551259744,
				"y": 0.1439081616,
				"z": 0.1534887763,
				"element": "H" 
			},
			{
				"x": -0.078863082,
				"y": 0.3965135407,
				"z": 1.259188532,
				"element": "H" 
			},
			{
				"x": 0.7015294002,
				"y": 0.8107258038,
				"z": 2.7694974022,
				"element": "H" 
			},
			{
				"x": 1.6683255973,
				"y": 2.8693446039,
				"z": 1.747434818,
				"element": "H" 
			},
			{
				"x": -0.0815364605,
				"y": 2.8591608495,
				"z": 1.7925003112,
				"element": "H" 
			},
			{
				"x": 0.9178211975,
				"y": 3.781701347,
				"z": -0.3472388263,
				"element": "H" 
			},
			{
				"x": 1.628499469,
				"y": 2.2195134806,
				"z": -0.6685682494,
				"element": "H" 
			},
			{
				"x": -0.2361849456,
				"y": 1.9719096691,
				"z": -1.9796482723,
				"element": "H" 
			},
			{
				"x": -0.991569835,
				"y": 1.425441251,
				"z": -0.5085535407,
				"element": "H" 
			},
			{
				"x": -2.3803700404,
				"y": 2.9987711709,
				"z": -1.7630496685,
				"element": "H" 
			},
			{
				"x": -0.5980902659,
				"y": 4.24767677,
				"z": -2.6263295905,
				"element": "H" 
			},
			{
				"x": -2.8209825036,
				"y": 4.8115275949,
				"z": -0.1504635379,
				"element": "H" 
			},
			{
				"x": -1.4106834825,
				"y": 4.3653575818,
				"z": 0.7862580272,
				"element": "H" 
			},
			{
				"x": -3.8390016847,
				"y": 2.524621337,
				"z": 0.2696751636,
				"element": "H" 
			},
			{
				"x": -3.5290174112,
				"y": 3.403813636,
				"z": 1.7701791242,
				"element": "H" 
			},
			{
				"x": -2.4498575493,
				"y": 2.0984641887,
				"z": 1.2761009235,
				"element": "H" 
			}
		],
		 "valence_orbital": [ 
			{
				"type": "occ",
				"energy": -0.30725,
				"method": "rhf"
			},
			{
				"type": "occ",
				"energy": -0.30285,
				"method": "rhf"
			},
			{
				"type": "occ",
				"energy": -0.29679,
				"method": "rhf"
			},
			{
				"type": "occ",
				"energy": -0.29622,
				"method": "rhf"
			},
			{
				"type": "occ",
				"energy": -0.25965,
				"method": "rhf"
			},
			{
				"type": "unocc",
				"energy": 0.06459,
				"method": "rhf"
			},
			{
				"type": "unocc",
				"energy": 0.08323,
				"method": "rhf"
			},
			{
				"type": "unocc",
				"energy": 0.09044,
				"method": "rhf"
			},
			{
				"type": "unocc",
				"energy": 0.10177,
				"method": "rhf"
			},
			{
				"type": "unocc",
				"energy": 0.10698,
				"method": "rhf"
			}
		],
		"cosmo_sigma_profile": { 
			"-0.025": 0.0,
			"-0.024": 0.0,
			"-0.023": 0.0,
			"-0.022": 0.0,
			"-0.021": 0.0,
			"-0.02": 0.0,
			"-0.019": 0.0,
			"-0.018": 0.0,
			"-0.017": 0.0,
			"-0.016": 0.0,
			"-0.015": 0.304540887244,
			"-0.014": 0.862099354918,
			"-0.013": 0.946370873178,
			"-0.012": 0.854358934612,
			"-0.011": 0.870850806597,
			"-0.01": 1.17340852049,
			"-0.009": 0.707447768855,
			"-0.008": 1.10016772273,
			"-0.007": 0.811815976433,
			"-0.006": 0.979188107038,
			"-0.005": 1.14650905894,
			"-0.004": 2.05206806366,
			"-0.003": 8.87218651433,
			"-0.002": 42.1517865751,
			"-0.001": 64.9665640649,
			"0.0": 72.8659173608,
			"0.001": 62.4535668673,
			"0.002": 26.9510773288,
			"0.003": 2.71459021367,
			"0.004": 1.84169887245,
			"0.005": 1.03339305547,
			"0.006": 1.5000494708,
			"0.007": 1.63630366943,
			"0.008": 1.35204595353,
			"0.009": 1.08610855467,
			"0.01": 1.21417733126,
			"0.011": 1.45862682526,
			"0.012": 0.881929269137,
			"0.013": 1.71488442202,
			"0.014": 1.61126047609,
			"0.015": 1.02460613127,
			"0.016": 0.0,
			"0.017": 0.0,
			"0.018": 0.0,
			"0.019": 0.0,
			"0.02": 0.0,
			"0.021": 0.0,
			"0.022": 0.0,
			"0.023": 0.0,
			"0.024": 0.0,
			"0.025": 0.0
		}
	}
}
