{
	 "smiles": "OC1(COC(=O)C2=CN=CC=C2)OC(COC(=O)C2=CN=CC=C2)C(OC(=O)C2=CC=CN=C2)C1OC(=O)C1=CN=CC=C1", 
	 "Tm": 414.15, 
	 "num_atms": 68, 
	 "gaussian": { 
		 "optdone": 1, 
		 "sigma_profile": "yes", 
		 "theory": "DFT", 
		 "functional": "B3LYP", 
		 "basiset": "6-31G**", 
		 "properties": { 
			 "R2extent": 25257.3365, 
			 "electric_dipole_moment_norm": 3.8377372057, 
			 "electric_quadrupole_moment_norm": 37.804275511, 
			 "total_energy": -2128.90974683, 
			 "HOMO_LUMO_gap": 0.19519, 
			 "cosmo_polarized_energy": -30.88, 
			 "cosmo_cavitation_energy": 74.83, 
			 "cosmo_dispersion_energy": -44.51, 
			 "cosmo_repulsion_energy": 3.21, 
			 "cosmo_total_nonelectrostatic_energy": 33.53, 
			 "SMD_solvation_energy": 9.06 
		},
		"coords": [
			{
				"x": -0.1165027865,
				"y": -0.1283932672,
				"z": 4.6195378942,
				"element": "O" 
			},
			{
				"x": -0.0670933696,
				"y": -0.5918431245,
				"z": 3.2876739716,
				"element": "C" 
			},
			{
				"x": 0.6959858797,
				"y": -1.9098034671,
				"z": 3.1667181862,
				"element": "C" 
			},
			{
				"x": -0.0039883889,
				"y": -2.912163419,
				"z": 3.9281567398,
				"element": "O" 
			},
			{
				"x": -0.666109841,
				"y": -3.8715353419,
				"z": 3.2295064527,
				"element": "C" 
			},
			{
				"x": -0.6450005143,
				"y": -3.9738376447,
				"z": 2.0199247111,
				"element": "O" 
			},
			{
				"x": -1.4041763968,
				"y": -4.8024315226,
				"z": 4.126147122,
				"element": "C" 
			},
			{
				"x": -1.3734481392,
				"y": -4.708058111,
				"z": 5.5248985862,
				"element": "C" 
			},
			{
				"x": -2.0346366766,
				"y": -5.5397077693,
				"z": 6.3358222056,
				"element": "N" 
			},
			{
				"x": -2.7595174089,
				"y": -6.509938766,
				"z": 5.7633245625,
				"element": "C" 
			},
			{
				"x": -2.856097828,
				"y": -6.6961914602,
				"z": 4.3816485013,
				"element": "C" 
			},
			{
				"x": -2.1642660629,
				"y": -5.8257406587,
				"z": 3.5475425202,
				"element": "C" 
			},
			{
				"x": -1.3667128154,
				"y": -0.8032637588,
				"z": 2.7761800644,
				"element": "O" 
			},
			{
				"x": -1.9362771836,
				"y": 0.434195965,
				"z": 2.3307800527,
				"element": "C" 
			},
			{
				"x": -2.7885193555,
				"y": 0.1461969246,
				"z": 1.1036611599,
				"element": "C" 
			},
			{
				"x": -2.0473733427,
				"y": -0.6312613118,
				"z": 0.1543983073,
				"element": "O" 
			},
			{
				"x": -1.9906899869,
				"y": -0.2093704623,
				"z": -1.1271833414,
				"element": "C" 
			},
			{
				"x": -2.4673900795,
				"y": 0.8326656003,
				"z": -1.5321833416,
				"element": "O" 
			},
			{
				"x": -1.2665949135,
				"y": -1.1952033851,
				"z": -1.9775458724,
				"element": "C" 
			},
			{
				"x": -1.0131080791,
				"y": -0.8678550939,
				"z": -3.317351117,
				"element": "C" 
			},
			{
				"x": -0.3633358979,
				"y": -1.6715712201,
				"z": -4.1654297645,
				"element": "N" 
			},
			{
				"x": 0.0441069824,
				"y": -2.8584745724,
				"z": -3.6913715088,
				"element": "C" 
			},
			{
				"x": -0.1617373892,
				"y": -3.2840965726,
				"z": -2.3772354781,
				"element": "C" 
			},
			{
				"x": -0.8253017015,
				"y": -2.4354875321,
				"z": -1.4955052518,
				"element": "C" 
			},
			{
				"x": -0.7385474321,
				"y": 1.4237739954,
				"z": 2.18478021,
				"element": "C" 
			},
			{
				"x": -0.6134698206,
				"y": 2.0653386572,
				"z": 0.9131954638,
				"element": "O" 
			},
			{
				"x": -1.4165834051,
				"y": 3.1444786611,
				"z": 0.7139245221,
				"element": "C" 
			},
			{
				"x": -2.2759854816,
				"y": 3.4804675699,
				"z": 1.5058110803,
				"element": "O" 
			},
			{
				"x": -1.1187683282,
				"y": 3.8462296012,
				"z": -0.5587612704,
				"element": "C" 
			},
			{
				"x": -1.9140270819,
				"y": 4.9384334454,
				"z": -0.9230666619,
				"element": "C" 
			},
			{
				"x": -1.6331784494,
				"y": 5.5972916502,
				"z": -2.114259011,
				"element": "C" 
			},
			{
				"x": -0.5674339589,
				"y": 5.1375496926,
				"z": -2.8922480044,
				"element": "C" 
			},
			{
				"x": 0.2075108932,
				"y": 4.0971544874,
				"z": -2.5569533515,
				"element": "N" 
			},
			{
				"x": -0.0708880345,
				"y": 3.46974717,
				"z": -1.4110315336,
				"element": "C" 
			},
			{
				"x": 0.5209926098,
				"y": 0.5841486303,
				"z": 2.4774944016,
				"element": "C" 
			},
			{
				"x": 1.1203744766,
				"y": 0.1602225721,
				"z": 1.2469835728,
				"element": "O" 
			},
			{
				"x": 2.4814227567,
				"y": 0.0458842489,
				"z": 1.2510568116,
				"element": "C" 
			},
			{
				"x": 3.1490068615,
				"y": 0.1179632528,
				"z": 2.2633287932,
				"element": "O" 
			},
			{
				"x": 3.0345959874,
				"y": -0.1776493057,
				"z": -0.1072277808,
				"element": "C" 
			},
			{
				"x": 4.4159455105,
				"y": -0.3926055573,
				"z": -0.2346191906,
				"element": "C" 
			},
			{
				"x": 5.0272680834,
				"y": -0.5910706154,
				"z": -1.4042876681,
				"element": "N" 
			},
			{
				"x": 4.2622100929,
				"y": -0.5776185693,
				"z": -2.5059974427,
				"element": "C" 
			},
			{
				"x": 2.8808035786,
				"y": -0.3720022467,
				"z": -2.4935343117,
				"element": "C" 
			},
			{
				"x": 2.2530385949,
				"y": -0.1682359941,
				"z": -1.2682698668,
				"element": "C" 
			},
			{
				"x": -0.5608166295,
				"y": -0.8166100726,
				"z": 5.1363912505,
				"element": "H" 
			},
			{
				"x": 1.6871749951,
				"y": -1.8015855552,
				"z": 3.6089119996,
				"element": "H" 
			},
			{
				"x": 0.7625722887,
				"y": -2.2237694544,
				"z": 2.126797934,
				"element": "H" 
			},
			{
				"x": -0.7856250965,
				"y": -3.9306156724,
				"z": 6.0045729809,
				"element": "H" 
			},
			{
				"x": -3.2899869858,
				"y": -7.1732158761,
				"z": 6.4442736745,
				"element": "H" 
			},
			{
				"x": -3.4588492195,
				"y": -7.5030594097,
				"z": 3.977569592,
				"element": "H" 
			},
			{
				"x": -2.1955734188,
				"y": -5.9144410061,
				"z": 2.4666983295,
				"element": "H" 
			},
			{
				"x": -2.6119996905,
				"y": 0.8297204754,
				"z": 3.099931746,
				"element": "H" 
			},
			{
				"x": -3.6407946955,
				"y": -0.4675086248,
				"z": 1.4113530285,
				"element": "H" 
			},
			{
				"x": -3.1565079429,
				"y": 1.0649196723,
				"z": 0.6462002896,
				"element": "H" 
			},
			{
				"x": -1.3507362232,
				"y": 0.0914813539,
				"z": -3.7016586709,
				"element": "H" 
			},
			{
				"x": 0.5656161274,
				"y": -3.499978143,
				"z": -4.3997541622,
				"element": "H" 
			},
			{
				"x": 0.1961504778,
				"y": -4.2557869744,
				"z": -2.0527584572,
				"element": "H" 
			},
			{
				"x": -0.9936612352,
				"y": -2.7177361706,
				"z": -0.4612825761,
				"element": "H" 
			},
			{
				"x": -0.8376617946,
				"y": 2.1941774586,
				"z": 2.9509158253,
				"element": "H" 
			},
			{
				"x": -2.727559231,
				"y": 5.2425357407,
				"z": -0.2728107561,
				"element": "H" 
			},
			{
				"x": -2.2235308912,
				"y": 6.447593372,
				"z": -2.4398190998,
				"element": "H" 
			},
			{
				"x": -0.3227753375,
				"y": 5.6301591671,
				"z": -3.8317050457,
				"element": "H" 
			},
			{
				"x": 0.5671638527,
				"y": 2.6310792804,
				"z": -1.1484216844,
				"element": "H" 
			},
			{
				"x": 1.2619683771,
				"y": 1.1162376687,
				"z": 3.0721019726,
				"element": "H" 
			},
			{
				"x": 5.0363244404,
				"y": -0.3996467259,
				"z": 0.6579929485,
				"element": "H" 
			},
			{
				"x": 4.7826265029,
				"y": -0.73924404,
				"z": -3.4483302919,
				"element": "H" 
			},
			{
				"x": 2.312022322,
				"y": -0.3754085613,
				"z": -3.4173915439,
				"element": "H" 
			},
			{
				"x": 1.1840568498,
				"y": -0.0082292775,
				"z": -1.2050134072,
				"element": "H" 
			}
		],
		 "valence_orbital": [ 
			{
				"type": "occ",
				"energy": -0.27337,
				"method": "rhf"
			},
			{
				"type": "occ",
				"energy": -0.26839,
				"method": "rhf"
			},
			{
				"type": "occ",
				"energy": -0.2639,
				"method": "rhf"
			},
			{
				"type": "occ",
				"energy": -0.26299,
				"method": "rhf"
			},
			{
				"type": "occ",
				"energy": -0.26258,
				"method": "rhf"
			},
			{
				"type": "unocc",
				"energy": -0.06739,
				"method": "rhf"
			},
			{
				"type": "unocc",
				"energy": -0.06571,
				"method": "rhf"
			},
			{
				"type": "unocc",
				"energy": -0.06418,
				"method": "rhf"
			},
			{
				"type": "unocc",
				"energy": -0.06051,
				"method": "rhf"
			},
			{
				"type": "unocc",
				"energy": -0.03734,
				"method": "rhf"
			}
		],
		"cosmo_sigma_profile": { 
			"-0.025": 0.0,
			"-0.024": 0.0,
			"-0.023": 0.0,
			"-0.022": 0.0,
			"-0.021": 0.0,
			"-0.02": 0.0,
			"-0.019": 0.0,
			"-0.018": 0.0,
			"-0.017": 0.0,
			"-0.016": 0.0440869765542,
			"-0.015": 0.527034868938,
			"-0.014": 0.860760390588,
			"-0.013": 0.660941343674,
			"-0.012": 0.325926421797,
			"-0.011": 1.00632504972,
			"-0.01": 0.28290118629,
			"-0.009": 0.992557973026,
			"-0.008": 9.45354427416,
			"-0.007": 32.8821559177,
			"-0.006": 39.7461305163,
			"-0.005": 35.8913224105,
			"-0.004": 38.3339392364,
			"-0.003": 38.8182465107,
			"-0.002": 45.290501291,
			"-0.001": 56.0603424442,
			"0.0": 63.9244077212,
			"0.001": 56.7084744882,
			"0.002": 30.2279301808,
			"0.003": 22.8372170055,
			"0.004": 19.2403789936,
			"0.005": 13.1897531529,
			"0.006": 14.1836916342,
			"0.007": 14.2611365805,
			"0.008": 12.4718848948,
			"0.009": 12.329114298,
			"0.01": 13.3056618886,
			"0.011": 11.0736224923,
			"0.012": 3.93197352068,
			"0.013": 3.53503345949,
			"0.014": 2.78642971306,
			"0.015": 4.02470965935,
			"0.016": 1.61486625786,
			"0.017": 0.0316220234622,
			"0.018": 0.0,
			"0.019": 0.0,
			"0.02": 0.0,
			"0.021": 0.0,
			"0.022": 0.0,
			"0.023": 0.0,
			"0.024": 0.0,
			"0.025": 0.0
		}
	}
}
