{
	 "smiles": "CN(C)C(=S)SC(=S)N(C)C", 
	 "Tm": 381.15, 
	 "num_atms": 23, 
	 "gaussian": { 
		 "optdone": 1, 
		 "sigma_profile": "yes", 
		 "theory": "DFT", 
		 "functional": "B3LYP", 
		 "basiset": "6-31G**", 
		 "properties": { 
			 "R2extent": 3022.4671, 
			 "electric_dipole_moment_norm": 5.21400264192, 
			 "electric_quadrupole_moment_norm": 17.8642957667, 
			 "total_energy": -1539.91772692, 
			 "HOMO_LUMO_gap": 0.15578, 
			 "cosmo_polarized_energy": -17.27, 
			 "cosmo_cavitation_energy": 29.84, 
			 "cosmo_dispersion_energy": -22.22, 
			 "cosmo_repulsion_energy": 1.66, 
			 "cosmo_total_nonelectrostatic_energy": 9.28, 
			 "SMD_solvation_energy": 3.59 
		},
		"coords": [
			{
				"x": 0.3988632484,
				"y": 3.4205139516,
				"z": -1.0841559157,
				"element": "C" 
			},
			{
				"x": -0.1913320391,
				"y": 2.3274219359,
				"z": -0.3044287583,
				"element": "N" 
			},
			{
				"x": -1.4350292039,
				"y": 2.5813279265,
				"z": 0.4286697297,
				"element": "C" 
			},
			{
				"x": 0.3703331703,
				"y": 1.0961461831,
				"z": -0.3802865381,
				"element": "C" 
			},
			{
				"x": 1.7349424371,
				"y": 0.749718811,
				"z": -1.275085196,
				"element": "S" 
			},
			{
				"x": -0.5584016611,
				"y": -0.1357608822,
				"z": 0.5697845852,
				"element": "S" 
			},
			{
				"x": 0.2509683332,
				"y": -1.720460462,
				"z": 0.1448406257,
				"element": "C" 
			},
			{
				"x": -0.5953618669,
				"y": -2.7619292494,
				"z": -0.8355141804,
				"element": "S" 
			},
			{
				"x": 1.4284837414,
				"y": -1.9995289313,
				"z": 0.733489321,
				"element": "N" 
			},
			{
				"x": 2.1780544795,
				"y": -1.1230871547,
				"z": 1.6322647499,
				"element": "C" 
			},
			{
				"x": 2.0923268577,
				"y": -3.2579861501,
				"z": 0.3806666504,
				"element": "C" 
			},
			{
				"x": 0.3402115484,
				"y": 3.209374455,
				"z": -2.1565083947,
				"element": "H" 
			},
			{
				"x": -0.1436776621,
				"y": 4.3396752351,
				"z": -0.8606723885,
				"element": "H" 
			},
			{
				"x": 1.4540693936,
				"y": 3.5423843295,
				"z": -0.8278844545,
				"element": "H" 
			},
			{
				"x": -1.6248516105,
				"y": 3.654040366,
				"z": 0.4388155534,
				"element": "H" 
			},
			{
				"x": -2.2884415894,
				"y": 2.0767379332,
				"z": -0.0387321635,
				"element": "H" 
			},
			{
				"x": -1.3548592024,
				"y": 2.2408059802,
				"z": 1.4660306995,
				"element": "H" 
			},
			{
				"x": 3.0533475736,
				"y": -0.7141998827,
				"z": 1.1182567209,
				"element": "H" 
			},
			{
				"x": 2.5016228656,
				"y": -1.7013804804,
				"z": 2.5034134591,
				"element": "H" 
			},
			{
				"x": 1.5513192259,
				"y": -0.300714549,
				"z": 1.9679038094,
				"element": "H" 
			},
			{
				"x": 3.0552341471,
				"y": -3.2976119647,
				"z": 0.8915674654,
				"element": "H" 
			},
			{
				"x": 1.4751866158,
				"y": -4.1108956416,
				"z": 0.6772241354,
				"element": "H" 
			},
			{
				"x": 2.2429911977,
				"y": -3.3124917588,
				"z": -0.7011595153,
				"element": "H" 
			}
		],
		 "valence_orbital": [ 
			{
				"type": "occ",
				"energy": -0.265,
				"method": "rhf"
			},
			{
				"type": "occ",
				"energy": -0.22856,
				"method": "rhf"
			},
			{
				"type": "occ",
				"energy": -0.225,
				"method": "rhf"
			},
			{
				"type": "occ",
				"energy": -0.21213,
				"method": "rhf"
			},
			{
				"type": "occ",
				"energy": -0.20217,
				"method": "rhf"
			},
			{
				"type": "unocc",
				"energy": -0.04639,
				"method": "rhf"
			},
			{
				"type": "unocc",
				"energy": -0.02963,
				"method": "rhf"
			},
			{
				"type": "unocc",
				"energy": 0.01835,
				"method": "rhf"
			},
			{
				"type": "unocc",
				"energy": 0.05576,
				"method": "rhf"
			},
			{
				"type": "unocc",
				"energy": 0.08476,
				"method": "rhf"
			}
		],
		"cosmo_sigma_profile": { 
			"-0.025": 0.0,
			"-0.024": 0.0,
			"-0.023": 0.0,
			"-0.022": 0.0,
			"-0.021": 0.0,
			"-0.02": 0.0,
			"-0.019": 0.0,
			"-0.018": 0.0,
			"-0.017": 0.0,
			"-0.016": 0.0,
			"-0.015": 0.0,
			"-0.014": 0.0,
			"-0.013": 0.0,
			"-0.012": 0.0,
			"-0.011": 0.0,
			"-0.01": 0.101352104388,
			"-0.009": 1.45761207781,
			"-0.008": 3.12622189282,
			"-0.007": 8.40430129822,
			"-0.006": 14.4913304368,
			"-0.005": 23.0268619844,
			"-0.004": 28.6093422556,
			"-0.003": 33.8285655352,
			"-0.002": 16.4925878579,
			"-0.001": 8.81381977288,
			"0.0": 7.59871549356,
			"0.001": 6.2300281299,
			"0.002": 9.43478329758,
			"0.003": 9.13846566541,
			"0.004": 9.21056694476,
			"0.005": 9.05841660952,
			"0.006": 9.68493397837,
			"0.007": 10.442477477,
			"0.008": 14.4148899505,
			"0.009": 11.8415696533,
			"0.01": 3.86407758507,
			"0.011": 1.76622068592,
			"0.012": 1.03214651007,
			"0.013": 0.0,
			"0.014": 0.0,
			"0.015": 0.0,
			"0.016": 0.0,
			"0.017": 0.0,
			"0.018": 0.0,
			"0.019": 0.0,
			"0.02": 0.0,
			"0.021": 0.0,
			"0.022": 0.0,
			"0.023": 0.0,
			"0.024": 0.0,
			"0.025": 0.0
		}
	}
}
