{
	 "smiles": "CC1=C(CCO)C(=O)N(N1)C(N)=S", 
	 "Tm": 427.15, 
	 "num_atms": 24, 
	 "gaussian": { 
		 "optdone": 1, 
		 "sigma_profile": "yes", 
		 "theory": "DFT", 
		 "functional": "B3LYP", 
		 "basiset": "6-31G**", 
		 "properties": { 
			 "R2extent": 4082.0606, 
			 "electric_dipole_moment_norm": 7.16326738437, 
			 "electric_quadrupole_moment_norm": 28.0056390595, 
			 "total_energy": -986.237946827, 
			 "HOMO_LUMO_gap": 0.15458, 
			 "cosmo_polarized_energy": -31.31, 
			 "cosmo_cavitation_energy": 29.89, 
			 "cosmo_dispersion_energy": -21.73, 
			 "cosmo_repulsion_energy": 1.73, 
			 "cosmo_total_nonelectrostatic_energy": 9.89, 
			 "SMD_solvation_energy": 5.12 
		},
		"coords": [
			{
				"x": -1.4591188453,
				"y": -0.9348789784,
				"z": -1.136063173,
				"element": "C" 
			},
			{
				"x": -0.7602529979,
				"y": -0.411864556,
				"z": 0.0756536274,
				"element": "C" 
			},
			{
				"x": 0.29025203,
				"y": -0.8964438253,
				"z": 0.777867001,
				"element": "C" 
			},
			{
				"x": 1.1709033344,
				"y": -2.0793167644,
				"z": 0.5223354219,
				"element": "C" 
			},
			{
				"x": 2.5518661709,
				"y": -1.6843492454,
				"z": -0.0373948616,
				"element": "C" 
			},
			{
				"x": 3.3777242784,
				"y": -2.8159770179,
				"z": -0.2633703095,
				"element": "O" 
			},
			{
				"x": 0.5297168444,
				"y": -0.0116994472,
				"z": 1.9268254503,
				"element": "C" 
			},
			{
				"x": 1.4009467139,
				"y": -0.0733285635,
				"z": 2.768975745,
				"element": "O" 
			},
			{
				"x": -0.4896115214,
				"y": 0.9979561654,
				"z": 1.8255940504,
				"element": "N" 
			},
			{
				"x": -1.2108123831,
				"y": 0.8082439218,
				"z": 0.6169809242,
				"element": "N" 
			},
			{
				"x": -0.5684905153,
				"y": 2.2340811427,
				"z": 2.4647267826,
				"element": "C" 
			},
			{
				"x": -1.275352343,
				"y": 3.1583656978,
				"z": 1.744393126,
				"element": "N" 
			},
			{
				"x": 0.0365102326,
				"y": 2.5336596922,
				"z": 3.9791321369,
				"element": "S" 
			},
			{
				"x": -1.3472197521,
				"y": -0.2462725217,
				"z": -1.9807151976,
				"element": "H" 
			},
			{
				"x": -1.0533880229,
				"y": -1.9052640065,
				"z": -1.4255636609,
				"element": "H" 
			},
			{
				"x": -2.5339213299,
				"y": -1.057776165,
				"z": -0.9533474886,
				"element": "H" 
			},
			{
				"x": 1.3233990311,
				"y": -2.6067704225,
				"z": 1.4726272626,
				"element": "H" 
			},
			{
				"x": 0.6990210231,
				"y": -2.7846560491,
				"z": -0.1693628292,
				"element": "H" 
			},
			{
				"x": 3.0244255451,
				"y": -0.9603595092,
				"z": 0.6402668453,
				"element": "H" 
			},
			{
				"x": 2.4298495506,
				"y": -1.1983293098,
				"z": -1.0112269326,
				"element": "H" 
			},
			{
				"x": 3.6497620801,
				"y": -3.1573724833,
				"z": 0.5982798424,
				"element": "H" 
			},
			{
				"x": -2.2144781139,
				"y": 0.8350485369,
				"z": 0.803617008,
				"element": "H" 
			},
			{
				"x": -1.2710290626,
				"y": 4.086117114,
				"z": 2.1426742193,
				"element": "H" 
			},
			{
				"x": -1.2830019471,
				"y": 3.0799865943,
				"z": 0.7344950097,
				"element": "H" 
			}
		],
		 "valence_orbital": [ 
			{
				"type": "occ",
				"energy": -0.27262,
				"method": "rhf"
			},
			{
				"type": "occ",
				"energy": -0.26762,
				"method": "rhf"
			},
			{
				"type": "occ",
				"energy": -0.24186,
				"method": "rhf"
			},
			{
				"type": "occ",
				"energy": -0.22406,
				"method": "rhf"
			},
			{
				"type": "occ",
				"energy": -0.20481,
				"method": "rhf"
			},
			{
				"type": "unocc",
				"energy": -0.05023,
				"method": "rhf"
			},
			{
				"type": "unocc",
				"energy": -0.00477,
				"method": "rhf"
			},
			{
				"type": "unocc",
				"energy": 0.0531,
				"method": "rhf"
			},
			{
				"type": "unocc",
				"energy": 0.06992,
				"method": "rhf"
			},
			{
				"type": "unocc",
				"energy": 0.07549,
				"method": "rhf"
			}
		],
		"cosmo_sigma_profile": { 
			"-0.025": 0.0,
			"-0.024": 0.0,
			"-0.023": 0.0,
			"-0.022": 0.0,
			"-0.021": 0.0,
			"-0.02": 0.0,
			"-0.019": 0.0,
			"-0.018": 0.0,
			"-0.017": 0.044575486463,
			"-0.016": 1.09770961221,
			"-0.015": 3.24330319808,
			"-0.014": 3.46090428047,
			"-0.013": 4.41986368398,
			"-0.012": 5.42544491797,
			"-0.011": 3.73930970973,
			"-0.01": 4.31007936551,
			"-0.009": 4.57480720667,
			"-0.008": 4.43299858509,
			"-0.007": 5.51936670859,
			"-0.006": 10.3762118752,
			"-0.005": 10.8667604956,
			"-0.004": 15.6210410579,
			"-0.003": 17.2635868108,
			"-0.002": 20.2192537809,
			"-0.001": 15.2872804876,
			"0.0": 11.9703367229,
			"0.001": 7.37871548304,
			"0.002": 7.65195908665,
			"0.003": 6.93685532518,
			"0.004": 6.77021362667,
			"0.005": 6.39953056178,
			"0.006": 6.36643503402,
			"0.007": 5.46848005694,
			"0.008": 8.65024005978,
			"0.009": 8.05679380906,
			"0.01": 7.32549093349,
			"0.011": 4.87092014145,
			"0.012": 4.46979363498,
			"0.013": 6.71891836124,
			"0.014": 4.29268041393,
			"0.015": 2.62532414462,
			"0.016": 1.53244996668,
			"0.017": 0.556820286844,
			"0.018": 0.0,
			"0.019": 0.0,
			"0.02": 0.0,
			"0.021": 0.0,
			"0.022": 0.0,
			"0.023": 0.0,
			"0.024": 0.0,
			"0.025": 0.0
		}
	}
}
