{
	 "smiles": "CC1CCN(CC1)S(=O)(=O)C1=C(C)NN=C1C", 
	 "Tm": 452.15, 
	 "num_atms": 36, 
	 "gaussian": { 
		 "optdone": 1, 
		 "sigma_profile": "yes", 
		 "theory": "DFT", 
		 "functional": "B3LYP", 
		 "basiset": "6-31G**", 
		 "properties": { 
			 "R2extent": 4922.8318, 
			 "electric_dipole_moment_norm": 5.13463509609, 
			 "electric_quadrupole_moment_norm": 15.5893159032, 
			 "total_energy": -1143.4478709, 
			 "HOMO_LUMO_gap": 0.24122, 
			 "cosmo_polarized_energy": -17.52, 
			 "cosmo_cavitation_energy": 37.53, 
			 "cosmo_dispersion_energy": -26.28, 
			 "cosmo_repulsion_energy": 1.99, 
			 "cosmo_total_nonelectrostatic_energy": 13.24, 
			 "SMD_solvation_energy": 3.85 
		},
		"coords": [
			{
				"x": 2.8475658904,
				"y": 2.5034677477,
				"z": -1.3315115072,
				"element": "C" 
			},
			{
				"x": 1.6943420759,
				"y": 1.8302239371,
				"z": -2.0934988721,
				"element": "C" 
			},
			{
				"x": 2.0227207081,
				"y": 0.3815976067,
				"z": -2.5119874451,
				"element": "C" 
			},
			{
				"x": 1.9981900713,
				"y": -0.5982088802,
				"z": -1.3343221461,
				"element": "C" 
			},
			{
				"x": 0.6732916876,
				"y": -0.5264607543,
				"z": -0.674839628,
				"element": "N" 
			},
			{
				"x": 0.3763325353,
				"y": 0.8199942251,
				"z": -0.1432072382,
				"element": "C" 
			},
			{
				"x": 0.3738139129,
				"y": 1.8313071612,
				"z": -1.2953802932,
				"element": "C" 
			},
			{
				"x": 0.3974515967,
				"y": -1.7840722425,
				"z": 0.4495744837,
				"element": "S" 
			},
			{
				"x": 0.8868886501,
				"y": -3.0070146431,
				"z": -0.2008369079,
				"element": "O" 
			},
			{
				"x": 0.8905880158,
				"y": -1.4178645746,
				"z": 1.7862475095,
				"element": "O" 
			},
			{
				"x": -1.3564733499,
				"y": -1.8205849748,
				"z": 0.5225152712,
				"element": "C" 
			},
			{
				"x": -2.1829211535,
				"y": -2.2471178505,
				"z": -0.5154812614,
				"element": "C" 
			},
			{
				"x": -1.8828814091,
				"y": -2.697696798,
				"z": -1.9063797579,
				"element": "C" 
			},
			{
				"x": -3.42957726,
				"y": -2.1720315712,
				"z": -0.003910593,
				"element": "N" 
			},
			{
				"x": -3.481625111,
				"y": -1.7416581549,
				"z": 1.2842576309,
				"element": "N" 
			},
			{
				"x": -2.2145591797,
				"y": -1.5234304129,
				"z": 1.6249672252,
				"element": "C" 
			},
			{
				"x": -1.8745462206,
				"y": -1.0460844147,
				"z": 3.0020562625,
				"element": "C" 
			},
			{
				"x": 2.5962758692,
				"y": 3.5404856061,
				"z": -1.083557134,
				"element": "H" 
			},
			{
				"x": 3.7586541745,
				"y": 2.5176937586,
				"z": -1.9395198078,
				"element": "H" 
			},
			{
				"x": 3.0882468098,
				"y": 1.9923070996,
				"z": -0.394092956,
				"element": "H" 
			},
			{
				"x": 1.5289102796,
				"y": 2.412266667,
				"z": -3.0097487416,
				"element": "H" 
			},
			{
				"x": 3.0090552964,
				"y": 0.3349374867,
				"z": -2.989236029,
				"element": "H" 
			},
			{
				"x": 1.2886286082,
				"y": 0.0442706787,
				"z": -3.2540522427,
				"element": "H" 
			},
			{
				"x": 2.1461504008,
				"y": -1.6215419957,
				"z": -1.6811939067,
				"element": "H" 
			},
			{
				"x": 2.8033345287,
				"y": -0.367918911,
				"z": -0.6197094883,
				"element": "H" 
			},
			{
				"x": 1.1026572712,
				"y": 1.1006860456,
				"z": 0.6329985044,
				"element": "H" 
			},
			{
				"x": -0.6113756238,
				"y": 0.7948853937,
				"z": 0.3261897777,
				"element": "H" 
			},
			{
				"x": 0.1716699754,
				"y": 2.8298470952,
				"z": -0.8894900986,
				"element": "H" 
			},
			{
				"x": -0.4554465405,
				"y": 1.5820587424,
				"z": -1.9686427752,
				"element": "H" 
			},
			{
				"x": -1.4242995377,
				"y": -1.8853327613,
				"z": -2.47887654,
				"element": "H" 
			},
			{
				"x": -2.7909400499,
				"y": -3.0222417768,
				"z": -2.4224041458,
				"element": "H" 
			},
			{
				"x": -1.1671650046,
				"y": -3.5236106871,
				"z": -1.8880245333,
				"element": "H" 
			},
			{
				"x": -4.2908632664,
				"y": -2.4117692356,
				"z": -0.4720866617,
				"element": "H" 
			},
			{
				"x": -1.3453147166,
				"y": -0.0891095416,
				"z": 2.9744408237,
				"element": "H" 
			},
			{
				"x": -1.2136322844,
				"y": -1.7527673025,
				"z": 3.510376484,
				"element": "H" 
			},
			{
				"x": -2.7956476502,
				"y": -0.9302117683,
				"z": 3.5767667381,
				"element": "H" 
			}
		],
		 "valence_orbital": [ 
			{
				"type": "occ",
				"energy": -0.29007,
				"method": "rhf"
			},
			{
				"type": "occ",
				"energy": -0.28928,
				"method": "rhf"
			},
			{
				"type": "occ",
				"energy": -0.26665,
				"method": "rhf"
			},
			{
				"type": "occ",
				"energy": -0.25517,
				"method": "rhf"
			},
			{
				"type": "occ",
				"energy": -0.24274,
				"method": "rhf"
			},
			{
				"type": "unocc",
				"energy": -0.00152,
				"method": "rhf"
			},
			{
				"type": "unocc",
				"energy": 0.02909,
				"method": "rhf"
			},
			{
				"type": "unocc",
				"energy": 0.06039,
				"method": "rhf"
			},
			{
				"type": "unocc",
				"energy": 0.06949,
				"method": "rhf"
			},
			{
				"type": "unocc",
				"energy": 0.08258,
				"method": "rhf"
			}
		],
		"cosmo_sigma_profile": { 
			"-0.025": 0.0,
			"-0.024": 0.0,
			"-0.023": 0.0,
			"-0.022": 0.0,
			"-0.021": 0.0,
			"-0.02": 0.0,
			"-0.019": 0.0,
			"-0.018": 0.0,
			"-0.017": 0.919492932145,
			"-0.016": 1.83576078686,
			"-0.015": 1.00088474201,
			"-0.014": 1.6629392375,
			"-0.013": 1.37021214842,
			"-0.012": 0.914289731129,
			"-0.011": 1.04141618929,
			"-0.01": 0.97633592894,
			"-0.009": 1.23876913449,
			"-0.008": 1.2963489116,
			"-0.007": 1.70410369066,
			"-0.006": 2.21052039721,
			"-0.005": 6.9943147692,
			"-0.004": 21.3434153228,
			"-0.003": 36.5641963088,
			"-0.002": 47.9624866131,
			"-0.001": 37.6914419029,
			"0.0": 29.8594118218,
			"0.001": 19.4550047596,
			"0.002": 11.6988404042,
			"0.003": 8.21236308133,
			"0.004": 8.74535413494,
			"0.005": 5.67799039239,
			"0.006": 4.83985953394,
			"0.007": 3.93402281643,
			"0.008": 4.01523981014,
			"0.009": 5.16407612512,
			"0.01": 6.3793073506,
			"0.011": 7.22799374439,
			"0.012": 6.96645413906,
			"0.013": 1.70682771651,
			"0.014": 1.0294476435,
			"0.015": 0.908081385009,
			"0.016": 0.119218906162,
			"0.017": 0.0,
			"0.018": 0.0,
			"0.019": 0.0,
			"0.02": 0.0,
			"0.021": 0.0,
			"0.022": 0.0,
			"0.023": 0.0,
			"0.024": 0.0,
			"0.025": 0.0
		}
	}
}
