{
	 "smiles": "NC1=C(C(=O)OC2=C1C=CC=C2)[N+]([O-])=O", 
	 "Tm": 533.15, 
	 "num_atms": 21, 
	 "gaussian": { 
		 "optdone": 1, 
		 "sigma_profile": "yes", 
		 "theory": "DFT", 
		 "functional": "B3LYP", 
		 "basiset": "6-31G**", 
		 "properties": { 
			 "R2extent": 3051.7136, 
			 "electric_dipole_moment_norm": 9.02692165802, 
			 "electric_quadrupole_moment_norm": 9.14201993653, 
			 "total_energy": -756.877870827, 
			 "HOMO_LUMO_gap": 0.16083, 
			 "cosmo_polarized_energy": -23.02, 
			 "cosmo_cavitation_energy": 25.93, 
			 "cosmo_dispersion_energy": -19.95, 
			 "cosmo_repulsion_energy": 1.52, 
			 "cosmo_total_nonelectrostatic_energy": 7.5, 
			 "SMD_solvation_energy": 7.37 
		},
		"coords": [
			{
				"x": -2.5921017742,
				"y": 0.5312935733,
				"z": -0.7777831903,
				"element": "N" 
			},
			{
				"x": -1.3296195321,
				"y": 0.3553700429,
				"z": -0.3740605845,
				"element": "C" 
			},
			{
				"x": -0.850131071,
				"y": 0.8156916565,
				"z": 0.8654186975,
				"element": "C" 
			},
			{
				"x": 0.5541522155,
				"y": 0.7002902178,
				"z": 1.2567337864,
				"element": "C" 
			},
			{
				"x": 1.1093264184,
				"y": 1.1607682674,
				"z": 2.2173198241,
				"element": "O" 
			},
			{
				"x": 1.3639454028,
				"y": -0.0325472656,
				"z": 0.3698509232,
				"element": "O" 
			},
			{
				"x": 0.9204749664,
				"y": -0.5412950459,
				"z": -0.8022481594,
				"element": "C" 
			},
			{
				"x": -0.4014285743,
				"y": -0.3689052913,
				"z": -1.2432036072,
				"element": "C" 
			},
			{
				"x": -0.7589301997,
				"y": -0.9139402313,
				"z": -2.4937772805,
				"element": "C" 
			},
			{
				"x": 0.1622400563,
				"y": -1.6084928307,
				"z": -3.2613564992,
				"element": "C" 
			},
			{
				"x": 1.4752055026,
				"y": -1.7750195651,
				"z": -2.7940362379,
				"element": "C" 
			},
			{
				"x": 1.8563861649,
				"y": -1.2444332743,
				"z": -1.5711722847,
				"element": "C" 
			},
			{
				"x": -1.7433709214,
				"y": 1.436320303,
				"z": 1.81765523,
				"element": "N" 
			},
			{
				"x": -2.8694135329,
				"y": 1.821198115,
				"z": 1.4134813091,
				"element": "O" 
			},
			{
				"x": -1.3946575361,
				"y": 1.5554678222,
				"z": 2.9827017516,
				"element": "O" 
			},
			{
				"x": -3.1918771952,
				"y": 1.0766714311,
				"z": -0.1618191941,
				"element": "H" 
			},
			{
				"x": -2.9211673769,
				"y": 0.1460819062,
				"z": -1.6457498615,
				"element": "H" 
			},
			{
				"x": -1.7665929617,
				"y": -0.7978949224,
				"z": -2.880455798,
				"element": "H" 
			},
			{
				"x": -0.1333392333,
				"y": -2.0205160226,
				"z": -4.2203241309,
				"element": "H" 
			},
			{
				"x": 2.1993753287,
				"y": -2.319010765,
				"z": -3.3925544485,
				"element": "H" 
			},
			{
				"x": 2.8640238534,
				"y": -1.3509981213,
				"z": -1.1854202452,
				"element": "H" 
			}
		],
		 "valence_orbital": [ 
			{
				"type": "occ",
				"energy": -0.29163,
				"method": "rhf"
			},
			{
				"type": "occ",
				"energy": -0.29103,
				"method": "rhf"
			},
			{
				"type": "occ",
				"energy": -0.26916,
				"method": "rhf"
			},
			{
				"type": "occ",
				"energy": -0.26539,
				"method": "rhf"
			},
			{
				"type": "occ",
				"energy": -0.25298,
				"method": "rhf"
			},
			{
				"type": "unocc",
				"energy": -0.09215,
				"method": "rhf"
			},
			{
				"type": "unocc",
				"energy": -0.04759,
				"method": "rhf"
			},
			{
				"type": "unocc",
				"energy": -0.02727,
				"method": "rhf"
			},
			{
				"type": "unocc",
				"energy": -0.00509,
				"method": "rhf"
			},
			{
				"type": "unocc",
				"energy": 0.04179,
				"method": "rhf"
			}
		],
		"cosmo_sigma_profile": { 
			"-0.025": 0.0,
			"-0.024": 0.0,
			"-0.023": 0.0,
			"-0.022": 0.0,
			"-0.021": 0.0,
			"-0.02": 0.0,
			"-0.019": 0.0,
			"-0.018": 0.0607235679165,
			"-0.017": 1.29109191077,
			"-0.016": 1.40061800332,
			"-0.015": 1.35450735424,
			"-0.014": 0.762643663209,
			"-0.013": 1.36043899846,
			"-0.012": 2.28201383723,
			"-0.011": 2.30861144783,
			"-0.01": 2.04720049082,
			"-0.009": 1.72485541306,
			"-0.008": 4.00501044763,
			"-0.007": 9.8338546584,
			"-0.006": 12.189540365,
			"-0.005": 12.8075120555,
			"-0.004": 11.6074206122,
			"-0.003": 15.7139428565,
			"-0.002": 13.1844539744,
			"-0.001": 12.5930806014,
			"0.0": 13.9812193716,
			"0.001": 12.8119468136,
			"0.002": 12.8980260275,
			"0.003": 8.07942029407,
			"0.004": 3.30757404498,
			"0.005": 4.09556920317,
			"0.006": 3.89485792857,
			"0.007": 4.72399302013,
			"0.008": 7.83399007575,
			"0.009": 7.85906956463,
			"0.01": 7.05969474849,
			"0.011": 8.08174210548,
			"0.012": 5.31799054065,
			"0.013": 1.61524612971,
			"0.014": 1.34568813545,
			"0.015": 0.116810569189,
			"0.016": 0.0,
			"0.017": 0.0,
			"0.018": 0.0,
			"0.019": 0.0,
			"0.02": 0.0,
			"0.021": 0.0,
			"0.022": 0.0,
			"0.023": 0.0,
			"0.024": 0.0,
			"0.025": 0.0
		}
	}
}
