{
	 "smiles": "CC1=C(SC(=N1)C1=CC=NC=C1)C(O)=O", 
	 "Tm": 578.15, 
	 "num_atms": 23, 
	 "gaussian": { 
		 "optdone": 1, 
		 "sigma_profile": "yes", 
		 "theory": "DFT", 
		 "functional": "B3LYP", 
		 "basiset": "6-31G**", 
		 "properties": { 
			 "R2extent": 4470.4666, 
			 "electric_dipole_moment_norm": 2.18597851087, 
			 "electric_quadrupole_moment_norm": 22.4419314755, 
			 "total_energy": -1044.02651634, 
			 "HOMO_LUMO_gap": 0.15659, 
			 "cosmo_polarized_energy": -15.77, 
			 "cosmo_cavitation_energy": 29.57, 
			 "cosmo_dispersion_energy": -22.35, 
			 "cosmo_repulsion_energy": 1.68, 
			 "cosmo_total_nonelectrostatic_energy": 8.9, 
			 "SMD_solvation_energy": 3.37 
		},
		"coords": [
			{
				"x": -0.0010938942,
				"y": -3.2808286675,
				"z": -0.148575483,
				"element": "C" 
			},
			{
				"x": -0.1632067282,
				"y": -1.8426478495,
				"z": -0.541304271,
				"element": "C" 
			},
			{
				"x": -0.0056363365,
				"y": -1.3167241771,
				"z": -1.8149941041,
				"element": "C" 
			},
			{
				"x": -0.2966804844,
				"y": 0.4063907679,
				"z": -1.7793692066,
				"element": "S" 
			},
			{
				"x": -0.609038935,
				"y": 0.2904984809,
				"z": -0.0537366212,
				"element": "C" 
			},
			{
				"x": -0.4987267613,
				"y": -0.9258854348,
				"z": 0.4176731128,
				"element": "N" 
			},
			{
				"x": -0.9591161009,
				"y": 1.4560621136,
				"z": 0.7665333218,
				"element": "C" 
			},
			{
				"x": -1.0702375565,
				"y": 2.7508935948,
				"z": 0.2410748797,
				"element": "C" 
			},
			{
				"x": -1.4076738399,
				"y": 3.7972410533,
				"z": 1.0973534605,
				"element": "C" 
			},
			{
				"x": -1.6360904334,
				"y": 3.6455616681,
				"z": 2.4075883507,
				"element": "N" 
			},
			{
				"x": -1.5278470825,
				"y": 2.4046561307,
				"z": 2.9020752123,
				"element": "C" 
			},
			{
				"x": -1.1968604625,
				"y": 1.2876506868,
				"z": 2.1393631485,
				"element": "C" 
			},
			{
				"x": 0.353341623,
				"y": -2.0833999812,
				"z": -3.0261278577,
				"element": "C" 
			},
			{
				"x": 0.4680926266,
				"y": -1.4056023495,
				"z": -4.1988378923,
				"element": "O" 
			},
			{
				"x": 0.5483770359,
				"y": -3.2784089847,
				"z": -3.004732327,
				"element": "O" 
			},
			{
				"x": 1.0043461481,
				"y": -3.6399558115,
				"z": -0.3841480831,
				"element": "H" 
			},
			{
				"x": -0.1893425126,
				"y": -3.382425147,
				"z": 0.92112298,
				"element": "H" 
			},
			{
				"x": -0.6893212825,
				"y": -3.9195412775,
				"z": -0.7087304961,
				"element": "H" 
			},
			{
				"x": -0.8995651573,
				"y": 2.9522801922,
				"z": -0.8124397622,
				"element": "H" 
			},
			{
				"x": -1.4984746671,
				"y": 4.8091666587,
				"z": 0.7073340927,
				"element": "H" 
			},
			{
				"x": -1.7162288991,
				"y": 2.2962041496,
				"z": 3.9684304321,
				"element": "H" 
			},
			{
				"x": -1.1208914792,
				"y": 0.3022646371,
				"z": 2.5836724594,
				"element": "H" 
			},
			{
				"x": 0.2918751793,
				"y": -0.4598504535,
				"z": -4.0955253462,
				"element": "H" 
			}
		],
		 "valence_orbital": [ 
			{
				"type": "occ",
				"energy": -0.29936,
				"method": "rhf"
			},
			{
				"type": "occ",
				"energy": -0.28533,
				"method": "rhf"
			},
			{
				"type": "occ",
				"energy": -0.27869,
				"method": "rhf"
			},
			{
				"type": "occ",
				"energy": -0.26909,
				"method": "rhf"
			},
			{
				"type": "occ",
				"energy": -0.25293,
				"method": "rhf"
			},
			{
				"type": "unocc",
				"energy": -0.09634,
				"method": "rhf"
			},
			{
				"type": "unocc",
				"energy": -0.03304,
				"method": "rhf"
			},
			{
				"type": "unocc",
				"energy": -0.02501,
				"method": "rhf"
			},
			{
				"type": "unocc",
				"energy": -0.02464,
				"method": "rhf"
			},
			{
				"type": "unocc",
				"energy": 0.02431,
				"method": "rhf"
			}
		],
		"cosmo_sigma_profile": { 
			"-0.025": 0.0,
			"-0.024": 0.0,
			"-0.023": 0.0,
			"-0.022": 0.0,
			"-0.021": 0.0,
			"-0.02": 0.0,
			"-0.019": 0.216053908163,
			"-0.018": 0.495163071961,
			"-0.017": 1.02156685178,
			"-0.016": 0.986934523938,
			"-0.015": 1.02597640289,
			"-0.014": 0.508918657789,
			"-0.013": 1.26344757272,
			"-0.012": 1.26001935159,
			"-0.011": 0.965923814676,
			"-0.01": 0.513887112914,
			"-0.009": 1.68669636536,
			"-0.008": 4.3857574268,
			"-0.007": 7.37346329758,
			"-0.006": 9.40483950577,
			"-0.005": 12.0320047184,
			"-0.004": 13.9363769623,
			"-0.003": 16.3759234929,
			"-0.002": 22.5030613734,
			"-0.001": 26.7290246108,
			"0.0": 22.8013871153,
			"0.001": 23.6789650504,
			"0.002": 10.8400298524,
			"0.003": 7.34832654514,
			"0.004": 5.87633628501,
			"0.005": 5.60832918542,
			"0.006": 5.04078657175,
			"0.007": 5.30317308419,
			"0.008": 5.33054679284,
			"0.009": 5.66840736602,
			"0.01": 6.2822850555,
			"0.011": 5.03706652753,
			"0.012": 4.27514269105,
			"0.013": 1.60653824009,
			"0.014": 0.990166596095,
			"0.015": 0.856818046817,
			"0.016": 0.601517269,
			"0.017": 0.0756534895676,
			"0.018": 0.0,
			"0.019": 0.0,
			"0.02": 0.0,
			"0.021": 0.0,
			"0.022": 0.0,
			"0.023": 0.0,
			"0.024": 0.0,
			"0.025": 0.0
		}
	}
}
