{
	 "smiles": "CCN(CC)C1=CC=C(C=C1)N=NC1=CC=CC=C1", 
	 "Tm": 370.65, 
	 "num_atms": 38, 
	 "gaussian": { 
		 "optdone": 1, 
		 "sigma_profile": "yes", 
		 "theory": "DFT", 
		 "functional": "B3LYP", 
		 "basiset": "6-31G**", 
		 "properties": { 
			 "R2extent": 9781.7133, 
			 "electric_dipole_moment_norm": 4.15522554261, 
			 "electric_quadrupole_moment_norm": 15.7755652149, 
			 "total_energy": -785.373659248, 
			 "HOMO_LUMO_gap": 0.12258, 
			 "cosmo_polarized_energy": -10.66, 
			 "cosmo_cavitation_energy": 40.63, 
			 "cosmo_dispersion_energy": -29.27, 
			 "cosmo_repulsion_energy": 2.24, 
			 "cosmo_total_nonelectrostatic_energy": 13.61, 
			 "SMD_solvation_energy": 5.31 
		},
		"coords": [
			{
				"x": 1.9386049954,
				"y": 2.7992045097,
				"z": -2.6255622711,
				"element": "C" 
			},
			{
				"x": 0.4406704099,
				"y": 2.5455461042,
				"z": -2.8501091284,
				"element": "C" 
			},
			{
				"x": 0.0323245759,
				"y": 1.1436384556,
				"z": -2.7701498098,
				"element": "N" 
			},
			{
				"x": -0.0736472542,
				"y": 0.3922779537,
				"z": -4.0204916368,
				"element": "C" 
			},
			{
				"x": 1.1674813135,
				"y": -0.4335997957,
				"z": -4.3891028744,
				"element": "C" 
			},
			{
				"x": -0.15848885,
				"y": 0.5268654265,
				"z": -1.5455680331,
				"element": "C" 
			},
			{
				"x": -0.0226750276,
				"y": 1.2367026745,
				"z": -0.3251348551,
				"element": "C" 
			},
			{
				"x": -0.2576986603,
				"y": 0.6151522988,
				"z": 0.8915867224,
				"element": "C" 
			},
			{
				"x": -0.6260473252,
				"y": -0.7358122442,
				"z": 0.9673955549,
				"element": "C" 
			},
			{
				"x": -0.749118668,
				"y": -1.456220895,
				"z": -0.2356646238,
				"element": "C" 
			},
			{
				"x": -0.5178141368,
				"y": -0.847837606,
				"z": -1.4551566648,
				"element": "C" 
			},
			{
				"x": -0.8331280884,
				"y": -1.2566417976,
				"z": 2.2539068929,
				"element": "N" 
			},
			{
				"x": -1.1609915103,
				"y": -2.4784552243,
				"z": 2.2972804811,
				"element": "N" 
			},
			{
				"x": -1.3679113092,
				"y": -2.9871173885,
				"z": 3.6035956278,
				"element": "C" 
			},
			{
				"x": -1.2353350989,
				"y": -2.2403626731,
				"z": 4.7880827905,
				"element": "C" 
			},
			{
				"x": -1.4644804984,
				"y": -2.8489693396,
				"z": 6.0168961699,
				"element": "C" 
			},
			{
				"x": -1.8264912115,
				"y": -4.2005304489,
				"z": 6.0848101261,
				"element": "C" 
			},
			{
				"x": -1.9588448026,
				"y": -4.9440964305,
				"z": 4.9105574634,
				"element": "C" 
			},
			{
				"x": -1.7305364505,
				"y": -4.3396528703,
				"z": 3.6754275406,
				"element": "C" 
			},
			{
				"x": 2.5420366111,
				"y": 2.3082287865,
				"z": -3.394601595,
				"element": "H" 
			},
			{
				"x": 2.1497511527,
				"y": 3.8735244162,
				"z": -2.6639692658,
				"element": "H" 
			},
			{
				"x": 2.2640788097,
				"y": 2.4225386706,
				"z": -1.65204368,
				"element": "H" 
			},
			{
				"x": 0.1549296808,
				"y": 2.9101802946,
				"z": -3.8417155265,
				"element": "H" 
			},
			{
				"x": -0.1491366476,
				"y": 3.1301435632,
				"z": -2.1350662988,
				"element": "H" 
			},
			{
				"x": -0.954904755,
				"y": -0.2571182765,
				"z": -3.9737864192,
				"element": "H" 
			},
			{
				"x": -0.2781527548,
				"y": 1.115650479,
				"z": -4.816022894,
				"element": "H" 
			},
			{
				"x": 0.9894183091,
				"y": -0.9899844936,
				"z": -5.3159112039,
				"element": "H" 
			},
			{
				"x": 2.0388792008,
				"y": 0.2095783266,
				"z": -4.5429154834,
				"element": "H" 
			},
			{
				"x": 1.414923277,
				"y": -1.1519462076,
				"z": -3.6026970253,
				"element": "H" 
			},
			{
				"x": 0.2689431829,
				"y": 2.2788694563,
				"z": -0.3236088535,
				"element": "H" 
			},
			{
				"x": -0.1552458987,
				"y": 1.1693341968,
				"z": 1.819773682,
				"element": "H" 
			},
			{
				"x": -1.0259054963,
				"y": -2.503516297,
				"z": -0.1867818272,
				"element": "H" 
			},
			{
				"x": -0.6147943287,
				"y": -1.4458940878,
				"z": -2.3524092264,
				"element": "H" 
			},
			{
				"x": -0.9544814973,
				"y": -1.1959642499,
				"z": 4.7153439227,
				"element": "H" 
			},
			{
				"x": -1.3617883578,
				"y": -2.270975201,
				"z": 6.9314575607,
				"element": "H" 
			},
			{
				"x": -2.0036396782,
				"y": -4.6679148773,
				"z": 7.0493342415,
				"element": "H" 
			},
			{
				"x": -2.2394211392,
				"y": -5.9924830798,
				"z": 4.9571718312,
				"element": "H" 
			},
			{
				"x": -1.8260620737,
				"y": -4.8928421287,
				"z": 2.7462485884,
				"element": "H" 
			}
		],
		 "valence_orbital": [ 
			{
				"type": "occ",
				"energy": -0.24921,
				"method": "rhf"
			},
			{
				"type": "occ",
				"energy": -0.24338,
				"method": "rhf"
			},
			{
				"type": "occ",
				"energy": -0.23794,
				"method": "rhf"
			},
			{
				"type": "occ",
				"energy": -0.20896,
				"method": "rhf"
			},
			{
				"type": "occ",
				"energy": -0.18562,
				"method": "rhf"
			},
			{
				"type": "unocc",
				"energy": -0.06304,
				"method": "rhf"
			},
			{
				"type": "unocc",
				"energy": 0.00234,
				"method": "rhf"
			},
			{
				"type": "unocc",
				"energy": 0.00815,
				"method": "rhf"
			},
			{
				"type": "unocc",
				"energy": 0.02568,
				"method": "rhf"
			},
			{
				"type": "unocc",
				"energy": 0.06004,
				"method": "rhf"
			}
		],
		"cosmo_sigma_profile": { 
			"-0.025": 0.0,
			"-0.024": 0.0,
			"-0.023": 0.0,
			"-0.022": 0.0,
			"-0.021": 0.0,
			"-0.02": 0.0,
			"-0.019": 0.0,
			"-0.018": 0.0,
			"-0.017": 0.0,
			"-0.016": 0.0,
			"-0.015": 0.0,
			"-0.014": 0.0,
			"-0.013": 0.0,
			"-0.012": 0.0,
			"-0.011": 0.0,
			"-0.01": 0.0,
			"-0.009": 0.0,
			"-0.008": 0.0,
			"-0.007": 0.971531624257,
			"-0.006": 11.6372873881,
			"-0.005": 21.9599716547,
			"-0.004": 29.6037162125,
			"-0.003": 35.3241845463,
			"-0.002": 33.3364009362,
			"-0.001": 24.9689473356,
			"0.0": 25.8274299257,
			"0.001": 22.0432590943,
			"0.002": 17.4486340583,
			"0.003": 28.6735993432,
			"0.004": 29.5808585605,
			"0.005": 25.6577710769,
			"0.006": 6.03969052492,
			"0.007": 3.45420525959,
			"0.008": 2.89599887535,
			"0.009": 2.72994538571,
			"0.01": 0.545622858761,
			"0.011": 0.0,
			"0.012": 0.0,
			"0.013": 0.0,
			"0.014": 0.0,
			"0.015": 0.0,
			"0.016": 0.0,
			"0.017": 0.0,
			"0.018": 0.0,
			"0.019": 0.0,
			"0.02": 0.0,
			"0.021": 0.0,
			"0.022": 0.0,
			"0.023": 0.0,
			"0.024": 0.0,
			"0.025": 0.0
		}
	}
}
