{
	 "smiles": "CC1=C(NC(=O)CN2CCCC2=O)C=CC(N)=C1", 
	 "Tm": 483.15, 
	 "num_atms": 35, 
	 "gaussian": { 
		 "optdone": 1, 
		 "sigma_profile": "yes", 
		 "theory": "DFT", 
		 "functional": "B3LYP", 
		 "basiset": "6-31G**", 
		 "properties": { 
			 "R2extent": 4250.5935, 
			 "electric_dipole_moment_norm": 7.37120289098, 
			 "electric_quadrupole_moment_norm": 21.9305742668, 
			 "total_energy": -820.368537098, 
			 "HOMO_LUMO_gap": 0.19387, 
			 "cosmo_polarized_energy": -23.79, 
			 "cosmo_cavitation_energy": 36.81, 
			 "cosmo_dispersion_energy": -24.66, 
			 "cosmo_repulsion_energy": 1.92, 
			 "cosmo_total_nonelectrostatic_energy": 14.06, 
			 "SMD_solvation_energy": 7.0 
		},
		"coords": [
			{
				"x": 1.6788007473,
				"y": -2.3923547174,
				"z": 0.5707013351,
				"element": "C" 
			},
			{
				"x": 0.4563959465,
				"y": -1.886844899,
				"z": -0.1569998708,
				"element": "C" 
			},
			{
				"x": -0.6981223743,
				"y": -1.5046858535,
				"z": 0.5578363093,
				"element": "C" 
			},
			{
				"x": -0.7279498996,
				"y": -1.6325968431,
				"z": 1.9755589208,
				"element": "N" 
			},
			{
				"x": -0.9332323064,
				"y": -0.6932407182,
				"z": 2.9585245504,
				"element": "C" 
			},
			{
				"x": -1.0595896393,
				"y": -1.0268643618,
				"z": 4.1271661332,
				"element": "O" 
			},
			{
				"x": -1.0726796639,
				"y": 0.7921948007,
				"z": 2.5822419583,
				"element": "C" 
			},
			{
				"x": -0.1690662679,
				"y": 1.3050824126,
				"z": 1.5704589288,
				"element": "N" 
			},
			{
				"x": -0.5900044552,
				"y": 2.2348560805,
				"z": 0.5255713399,
				"element": "C" 
			},
			{
				"x": 0.6632632608,
				"y": 2.3427374042,
				"z": -0.3683050856,
				"element": "C" 
			},
			{
				"x": 1.8256199527,
				"y": 2.0491049666,
				"z": 0.5937928163,
				"element": "C" 
			},
			{
				"x": 1.1928281157,
				"y": 1.2035132523,
				"z": 1.6989500314,
				"element": "C" 
			},
			{
				"x": 1.7681932965,
				"y": 0.5558806641,
				"z": 2.5627906,
				"element": "O" 
			},
			{
				"x": -1.8270977054,
				"y": -1.065758436,
				"z": -0.1404109018,
				"element": "C" 
			},
			{
				"x": -1.8201576856,
				"y": -0.9525375666,
				"z": -1.5282411559,
				"element": "C" 
			},
			{
				"x": -0.6768897347,
				"y": -1.317751446,
				"z": -2.2566797008,
				"element": "C" 
			},
			{
				"x": -0.6314166438,
				"y": -1.1685745694,
				"z": -3.6451028517,
				"element": "N" 
			},
			{
				"x": 0.4429103517,
				"y": -1.7904053408,
				"z": -1.5497219268,
				"element": "C" 
			},
			{
				"x": 1.9725629473,
				"y": -1.7037212252,
				"z": 1.3686491134,
				"element": "H" 
			},
			{
				"x": 2.5198800501,
				"y": -2.5156869672,
				"z": -0.1166932757,
				"element": "H" 
			},
			{
				"x": 1.4937152229,
				"y": -3.3684572507,
				"z": 1.0380341825,
				"element": "H" 
			},
			{
				"x": -0.5657666906,
				"y": -2.5508960513,
				"z": 2.3724245142,
				"element": "H" 
			},
			{
				"x": -2.0970577453,
				"y": 0.9644648741,
				"z": 2.2362273041,
				"element": "H" 
			},
			{
				"x": -0.9505264296,
				"y": 1.3202097466,
				"z": 3.5338175698,
				"element": "H" 
			},
			{
				"x": -1.4546532608,
				"y": 1.8390209566,
				"z": -0.0161074772,
				"element": "H" 
			},
			{
				"x": -0.871414893,
				"y": 3.2087509938,
				"z": 0.9556098419,
				"element": "H" 
			},
			{
				"x": 0.7353137703,
				"y": 3.3161452552,
				"z": -0.8593491165,
				"element": "H" 
			},
			{
				"x": 0.6171416322,
				"y": 1.5732730833,
				"z": -1.1443353664,
				"element": "H" 
			},
			{
				"x": 2.2228780716,
				"y": 2.9612018136,
				"z": 1.0566590134,
				"element": "H" 
			},
			{
				"x": 2.6672852537,
				"y": 1.5212597692,
				"z": 0.1404369313,
				"element": "H" 
			},
			{
				"x": -2.7290951262,
				"y": -0.8251985128,
				"z": 0.4150132563,
				"element": "H" 
			},
			{
				"x": -2.7070323242,
				"y": -0.60234173,
				"z": -2.0503931819,
				"element": "H" 
			},
			{
				"x": -1.5312441081,
				"y": -1.1803931026,
				"z": -4.1057828778,
				"element": "H" 
			},
			{
				"x": 0.0365192223,
				"y": -1.7628397664,
				"z": -4.1170008939,
				"element": "H" 
			},
			{
				"x": 1.3319891124,
				"y": -2.0819467152,
				"z": -2.1051409675,
				"element": "H" 
			}
		],
		 "valence_orbital": [ 
			{
				"type": "occ",
				"energy": -0.25172,
				"method": "rhf"
			},
			{
				"type": "occ",
				"energy": -0.24804,
				"method": "rhf"
			},
			{
				"type": "occ",
				"energy": -0.24073,
				"method": "rhf"
			},
			{
				"type": "occ",
				"energy": -0.23201,
				"method": "rhf"
			},
			{
				"type": "occ",
				"energy": -0.20054,
				"method": "rhf"
			},
			{
				"type": "unocc",
				"energy": -0.00667,
				"method": "rhf"
			},
			{
				"type": "unocc",
				"energy": 0.00067,
				"method": "rhf"
			},
			{
				"type": "unocc",
				"energy": 0.03133,
				"method": "rhf"
			},
			{
				"type": "unocc",
				"energy": 0.0388,
				"method": "rhf"
			},
			{
				"type": "unocc",
				"energy": 0.07264,
				"method": "rhf"
			}
		],
		"cosmo_sigma_profile": { 
			"-0.025": 0.0,
			"-0.024": 0.0,
			"-0.023": 0.0,
			"-0.022": 0.0,
			"-0.021": 0.0,
			"-0.02": 0.0,
			"-0.019": 0.0,
			"-0.018": 0.0,
			"-0.017": 0.0,
			"-0.016": 0.0,
			"-0.015": 0.0,
			"-0.014": 0.0,
			"-0.013": 0.799998818878,
			"-0.012": 2.96099917045,
			"-0.011": 4.30493161858,
			"-0.01": 4.010458794,
			"-0.009": 3.53189918521,
			"-0.008": 5.73407486823,
			"-0.007": 9.11606346535,
			"-0.006": 11.5167335092,
			"-0.005": 18.1584315009,
			"-0.004": 28.2176234164,
			"-0.003": 28.6552730261,
			"-0.002": 22.1455780588,
			"-0.001": 19.042136263,
			"0.0": 21.3363270402,
			"0.001": 16.748812735,
			"0.002": 14.6265521711,
			"0.003": 12.4427314879,
			"0.004": 6.8447171995,
			"0.005": 6.96801987606,
			"0.006": 7.95560932178,
			"0.007": 4.26208500817,
			"0.008": 3.41036065723,
			"0.009": 3.14587777668,
			"0.01": 4.07118461348,
			"0.011": 4.52687276126,
			"0.012": 4.44854468985,
			"0.013": 8.45231934824,
			"0.014": 9.08107335094,
			"0.015": 1.98543672754,
			"0.016": 0.0496762498784,
			"0.017": 0.0,
			"0.018": 0.0,
			"0.019": 0.0,
			"0.02": 0.0,
			"0.021": 0.0,
			"0.022": 0.0,
			"0.023": 0.0,
			"0.024": 0.0,
			"0.025": 0.0
		}
	}
}
