{
	 "smiles": "NC1=CC(OCC(F)(F)F)=NC=C1", 
	 "Tm": 313.15, 
	 "num_atms": 20, 
	 "gaussian": { 
		 "optdone": 1, 
		 "sigma_profile": "yes", 
		 "theory": "DFT", 
		 "functional": "B3LYP", 
		 "basiset": "6-31G**", 
		 "properties": { 
			 "R2extent": 3845.0189, 
			 "electric_dipole_moment_norm": 4.58619808556, 
			 "electric_quadrupole_moment_norm": 5.95280801891, 
			 "total_energy": -755.216964592, 
			 "HOMO_LUMO_gap": 0.22324, 
			 "cosmo_polarized_energy": -11.55, 
			 "cosmo_cavitation_energy": 26.01, 
			 "cosmo_dispersion_energy": -18.65, 
			 "cosmo_repulsion_energy": 1.44, 
			 "cosmo_total_nonelectrostatic_energy": 8.81, 
			 "SMD_solvation_energy": 5.18 
		},
		"coords": [
			{
				"x": -0.1975826404,
				"y": 0.4384212285,
				"z": 2.8333678015,
				"element": "N" 
			},
			{
				"x": -0.4090084877,
				"y": -0.4751370848,
				"z": 1.8217975659,
				"element": "C" 
			},
			{
				"x": 0.2667187771,
				"y": -0.3776606704,
				"z": 0.6003295222,
				"element": "C" 
			},
			{
				"x": -0.0373623263,
				"y": -1.3086228615,
				"z": -0.3953087951,
				"element": "C" 
			},
			{
				"x": 0.6738037535,
				"y": -1.1802397719,
				"z": -1.5584075454,
				"element": "O" 
			},
			{
				"x": 0.3292623346,
				"y": -2.0145273992,
				"z": -2.6524614424,
				"element": "C" 
			},
			{
				"x": -0.5105944504,
				"y": -1.2406939629,
				"z": -3.6546831164,
				"element": "C" 
			},
			{
				"x": -1.6551904905,
				"y": -0.7895115536,
				"z": -3.1100955509,
				"element": "F" 
			},
			{
				"x": 0.1514719445,
				"y": -0.1771641751,
				"z": -4.1519355717,
				"element": "F" 
			},
			{
				"x": -0.8284400381,
				"y": -2.0484790587,
				"z": -4.6920740495,
				"element": "F" 
			},
			{
				"x": -0.9204549269,
				"y": -2.2907781038,
				"z": -0.2751655778,
				"element": "N" 
			},
			{
				"x": -1.5622775971,
				"y": -2.3737446032,
				"z": 0.9034459821,
				"element": "C" 
			},
			{
				"x": -1.3553657955,
				"y": -1.515197451,
				"z": 1.9680541138,
				"element": "C" 
			},
			{
				"x": -0.472597967,
				"y": 0.1664276664,
				"z": 3.7649605621,
				"element": "H" 
			},
			{
				"x": 0.6516970446,
				"y": 0.9817942195,
				"z": 2.7954168801,
				"element": "H" 
			},
			{
				"x": 1.0036303331,
				"y": 0.3950983631,
				"z": 0.4103545646,
				"element": "H" 
			},
			{
				"x": 1.257418196,
				"y": -2.3150062771,
				"z": -3.1446850987,
				"element": "H" 
			},
			{
				"x": -0.2321306625,
				"y": -2.8901471273,
				"z": -2.3239185711,
				"element": "H" 
			},
			{
				"x": -2.2852423732,
				"y": -3.1823846466,
				"z": 0.9915425328,
				"element": "H" 
			},
			{
				"x": -1.9135546279,
				"y": -1.6339467305,
				"z": 2.8914657939,
				"element": "H" 
			}
		],
		 "valence_orbital": [ 
			{
				"type": "occ",
				"energy": -0.34972,
				"method": "rhf"
			},
			{
				"type": "occ",
				"energy": -0.31805,
				"method": "rhf"
			},
			{
				"type": "occ",
				"energy": -0.26542,
				"method": "rhf"
			},
			{
				"type": "occ",
				"energy": -0.23422,
				"method": "rhf"
			},
			{
				"type": "occ",
				"energy": -0.22984,
				"method": "rhf"
			},
			{
				"type": "unocc",
				"energy": -0.0066,
				"method": "rhf"
			},
			{
				"type": "unocc",
				"energy": 0.00913,
				"method": "rhf"
			},
			{
				"type": "unocc",
				"energy": 0.06999,
				"method": "rhf"
			},
			{
				"type": "unocc",
				"energy": 0.10177,
				"method": "rhf"
			},
			{
				"type": "unocc",
				"energy": 0.11032,
				"method": "rhf"
			}
		],
		"cosmo_sigma_profile": { 
			"-0.025": 0.0,
			"-0.024": 0.0,
			"-0.023": 0.0,
			"-0.022": 0.0,
			"-0.021": 0.0,
			"-0.02": 0.0,
			"-0.019": 0.0,
			"-0.018": 0.0,
			"-0.017": 0.0,
			"-0.016": 0.0,
			"-0.015": 0.0,
			"-0.014": 0.537782100758,
			"-0.013": 2.57418818469,
			"-0.012": 3.04708335119,
			"-0.011": 2.54273053708,
			"-0.01": 3.3120430085,
			"-0.009": 4.34663983785,
			"-0.008": 5.26480618432,
			"-0.007": 6.00956295166,
			"-0.006": 9.84389981833,
			"-0.005": 10.1595696003,
			"-0.004": 8.45089080105,
			"-0.003": 6.82788253848,
			"-0.002": 6.17030015613,
			"-0.001": 7.78524458729,
			"0.0": 8.79632376665,
			"0.001": 11.0944851083,
			"0.002": 25.3984386876,
			"0.003": 42.187125813,
			"0.004": 16.6570568718,
			"0.005": 7.86437949339,
			"0.006": 4.39713322633,
			"0.007": 3.16931455099,
			"0.008": 4.19707828878,
			"0.009": 2.80670251136,
			"0.01": 2.06017572531,
			"0.011": 1.44191615086,
			"0.012": 0.477104190959,
			"0.013": 0.0,
			"0.014": 0.0,
			"0.015": 0.0,
			"0.016": 0.0,
			"0.017": 0.0,
			"0.018": 0.0,
			"0.019": 0.0,
			"0.02": 0.0,
			"0.021": 0.0,
			"0.022": 0.0,
			"0.023": 0.0,
			"0.024": 0.0,
			"0.025": 0.0
		}
	}
}
