{
	 "smiles": "NC(=O)CCCCCl", 
	 "Tm": 350.15, 
	 "num_atms": 18, 
	 "gaussian": { 
		 "optdone": 1, 
		 "sigma_profile": "yes", 
		 "theory": "DFT", 
		 "functional": "B3LYP", 
		 "basiset": "6-31G**", 
		 "properties": { 
			 "R2extent": 3021.6832, 
			 "electric_dipole_moment_norm": 4.75544918278, 
			 "electric_quadrupole_moment_norm": 17.138289793, 
			 "total_energy": -786.757492849, 
			 "HOMO_LUMO_gap": 0.27372, 
			 "cosmo_polarized_energy": -13.75, 
			 "cosmo_cavitation_energy": 22.54, 
			 "cosmo_dispersion_energy": -16.55, 
			 "cosmo_repulsion_energy": 1.43, 
			 "cosmo_total_nonelectrostatic_energy": 7.42, 
			 "SMD_solvation_energy": 3.79 
		},
		"coords": [
			{
				"x": 1.2285390302,
				"y": 0.151895765,
				"z": -2.2041795067,
				"element": "N" 
			},
			{
				"x": 0.3662363316,
				"y": 0.2885048212,
				"z": -1.1523477122,
				"element": "C" 
			},
			{
				"x": -0.6336044957,
				"y": -0.407792778,
				"z": -1.0368673483,
				"element": "O" 
			},
			{
				"x": 0.7532799586,
				"y": 1.3570293609,
				"z": -0.1272505164,
				"element": "C" 
			},
			{
				"x": -0.449479044,
				"y": 1.9094670489,
				"z": 0.6502073708,
				"element": "C" 
			},
			{
				"x": -1.2661562965,
				"y": 2.9929362692,
				"z": -0.0792521954,
				"element": "C" 
			},
			{
				"x": -1.9559868648,
				"y": 2.5041884187,
				"z": -1.348429669,
				"element": "C" 
			},
			{
				"x": -2.9920619093,
				"y": 3.8206519201,
				"z": -2.0714301716,
				"element": "Cl" 
			},
			{
				"x": 2.0884776926,
				"y": 0.6720778769,
				"z": -2.2677364446,
				"element": "H" 
			},
			{
				"x": 1.0687657037,
				"y": -0.6047292929,
				"z": -2.8524374623,
				"element": "H" 
			},
			{
				"x": 1.3186242894,
				"y": 2.1656544106,
				"z": -0.6086184296,
				"element": "H" 
			},
			{
				"x": 1.4462654296,
				"y": 0.8728137947,
				"z": 0.5740035096,
				"element": "H" 
			},
			{
				"x": -1.0966217627,
				"y": 1.0662581655,
				"z": 0.9133155227,
				"element": "H" 
			},
			{
				"x": -0.0888108866,
				"y": 2.3439460497,
				"z": 1.5891507781,
				"element": "H" 
			},
			{
				"x": -2.0311227302,
				"y": 3.374666413,
				"z": 0.6057875694,
				"element": "H" 
			},
			{
				"x": -0.6195174041,
				"y": 3.8436371375,
				"z": -0.328593049,
				"element": "H" 
			},
			{
				"x": -2.6146594065,
				"y": 1.6569663283,
				"z": -1.1581199768,
				"element": "H" 
			},
			{
				"x": -1.2507676353,
				"y": 2.2261282906,
				"z": -2.1316022685,
				"element": "H" 
			}
		],
		 "valence_orbital": [ 
			{
				"type": "occ",
				"energy": -0.3373,
				"method": "rhf"
			},
			{
				"type": "occ",
				"energy": -0.28468,
				"method": "rhf"
			},
			{
				"type": "occ",
				"energy": -0.2841,
				"method": "rhf"
			},
			{
				"type": "occ",
				"energy": -0.2758,
				"method": "rhf"
			},
			{
				"type": "occ",
				"energy": -0.25632,
				"method": "rhf"
			},
			{
				"type": "unocc",
				"energy": 0.0174,
				"method": "rhf"
			},
			{
				"type": "unocc",
				"energy": 0.03608,
				"method": "rhf"
			},
			{
				"type": "unocc",
				"energy": 0.06533,
				"method": "rhf"
			},
			{
				"type": "unocc",
				"energy": 0.09795,
				"method": "rhf"
			},
			{
				"type": "unocc",
				"energy": 0.11645,
				"method": "rhf"
			}
		],
		"cosmo_sigma_profile": { 
			"-0.025": 0.0,
			"-0.024": 0.0,
			"-0.023": 0.0,
			"-0.022": 0.0,
			"-0.021": 0.0,
			"-0.02": 0.0,
			"-0.019": 0.0,
			"-0.018": 0.0,
			"-0.017": 0.0,
			"-0.016": 0.0,
			"-0.015": 0.130842758956,
			"-0.014": 1.2432612599,
			"-0.013": 2.71903765759,
			"-0.012": 1.99138415887,
			"-0.011": 2.6197430497,
			"-0.01": 2.66209863671,
			"-0.009": 2.39945117474,
			"-0.008": 2.29123303927,
			"-0.007": 1.97284157106,
			"-0.006": 4.430730761,
			"-0.005": 10.1923911027,
			"-0.004": 14.6410286972,
			"-0.003": 17.5142672041,
			"-0.002": 17.4072660844,
			"-0.001": 13.6522881492,
			"0.0": 10.3710467103,
			"0.001": 7.95100183354,
			"0.002": 6.53754900131,
			"0.003": 6.39471324347,
			"0.004": 7.54685460027,
			"0.005": 7.88666260103,
			"0.006": 7.82065989748,
			"0.007": 11.5332357824,
			"0.008": 1.95751631305,
			"0.009": 0.955686568205,
			"0.01": 1.54975980878,
			"0.011": 1.58816791052,
			"0.012": 1.58782023343,
			"0.013": 2.32428972443,
			"0.014": 4.57782490139,
			"0.015": 1.03637779797,
			"0.016": 0.0,
			"0.017": 0.0,
			"0.018": 0.0,
			"0.019": 0.0,
			"0.02": 0.0,
			"0.021": 0.0,
			"0.022": 0.0,
			"0.023": 0.0,
			"0.024": 0.0,
			"0.025": 0.0
		}
	}
}
