{
	 "smiles": "ClC1=C(Cl)C=C(C=C1)S(Cl)(=O)=O", 
	 "Tm": 294.15, 
	 "num_atms": 15, 
	 "gaussian": { 
		 "optdone": 1, 
		 "sigma_profile": "yes", 
		 "theory": "DFT", 
		 "functional": "B3LYP", 
		 "basiset": "6-31G**", 
		 "properties": { 
			 "R2extent": 3972.3558, 
			 "electric_dipole_moment_norm": 3.3879026875, 
			 "electric_quadrupole_moment_norm": 11.073953081, 
			 "total_energy": -2159.58113993, 
			 "HOMO_LUMO_gap": 0.18181, 
			 "cosmo_polarized_energy": -8.27, 
			 "cosmo_cavitation_energy": 26.98, 
			 "cosmo_dispersion_energy": -20.53, 
			 "cosmo_repulsion_energy": 1.6, 
			 "cosmo_total_nonelectrostatic_energy": 8.05, 
			 "SMD_solvation_energy": 2.81 
		},
		"coords": [
			{
				"x": -2.2212988588,
				"y": 2.3209668098,
				"z": -1.7501261941,
				"element": "Cl" 
			},
			{
				"x": -1.1544311192,
				"y": 1.1286620155,
				"z": -1.0716679558,
				"element": "C" 
			},
			{
				"x": -0.3606422254,
				"y": 1.4172763097,
				"z": 0.0519677065,
				"element": "C" 
			},
			{
				"x": -0.4073235775,
				"y": 2.9751161129,
				"z": 0.8242811713,
				"element": "Cl" 
			},
			{
				"x": 0.4859357414,
				"y": 0.4375687245,
				"z": 0.571417421,
				"element": "C" 
			},
			{
				"x": 0.5214462316,
				"y": -0.8114560881,
				"z": -0.042559012,
				"element": "C" 
			},
			{
				"x": -0.2598640101,
				"y": -1.1204650058,
				"z": -1.1554452771,
				"element": "C" 
			},
			{
				"x": -1.100376697,
				"y": -0.13704934,
				"z": -1.6654530486,
				"element": "C" 
			},
			{
				"x": 1.595484973,
				"y": -2.0681074174,
				"z": 0.6409603598,
				"element": "S" 
			},
			{
				"x": 3.3807717698,
				"y": -1.732610881,
				"z": -0.4685787212,
				"element": "Cl" 
			},
			{
				"x": 1.9033558449,
				"y": -1.7330717049,
				"z": 2.0247906453,
				"element": "O" 
			},
			{
				"x": 1.1045696495,
				"y": -3.3796547627,
				"z": 0.2394494999,
				"element": "O" 
			},
			{
				"x": 1.0949875878,
				"y": 0.6462297873,
				"z": 1.4428837138,
				"element": "H" 
			},
			{
				"x": -0.2178736788,
				"y": -2.1067586789,
				"z": -1.6026291656,
				"element": "H" 
			},
			{
				"x": -1.7258416312,
				"y": -0.3412458811,
				"z": -2.5268911431,
				"element": "H" 
			}
		],
		 "valence_orbital": [ 
			{
				"type": "occ",
				"energy": -0.33991,
				"method": "rhf"
			},
			{
				"type": "occ",
				"energy": -0.33303,
				"method": "rhf"
			},
			{
				"type": "occ",
				"energy": -0.32342,
				"method": "rhf"
			},
			{
				"type": "occ",
				"energy": -0.29846,
				"method": "rhf"
			},
			{
				"type": "occ",
				"energy": -0.28389,
				"method": "rhf"
			},
			{
				"type": "unocc",
				"energy": -0.10208,
				"method": "rhf"
			},
			{
				"type": "unocc",
				"energy": -0.06158,
				"method": "rhf"
			},
			{
				"type": "unocc",
				"energy": -0.05891,
				"method": "rhf"
			},
			{
				"type": "unocc",
				"energy": -0.02192,
				"method": "rhf"
			},
			{
				"type": "unocc",
				"energy": 0.03311,
				"method": "rhf"
			}
		],
		"cosmo_sigma_profile": { 
			"-0.025": 0.0,
			"-0.024": 0.0,
			"-0.023": 0.0,
			"-0.022": 0.0,
			"-0.021": 0.0,
			"-0.02": 0.0,
			"-0.019": 0.0,
			"-0.018": 0.0,
			"-0.017": 0.0,
			"-0.016": 0.0,
			"-0.015": 0.0,
			"-0.014": 0.0,
			"-0.013": 0.0,
			"-0.012": 0.0,
			"-0.011": 0.0,
			"-0.01": 1.1383157589,
			"-0.009": 5.84732682773,
			"-0.008": 5.34048525829,
			"-0.007": 5.79860079669,
			"-0.006": 5.56702733926,
			"-0.005": 6.49824462049,
			"-0.004": 8.72280027369,
			"-0.003": 14.7517754726,
			"-0.002": 27.8349275552,
			"-0.001": 23.5004301121,
			"0.0": 16.8256094981,
			"0.001": 15.816043629,
			"0.002": 22.7485371919,
			"0.003": 30.4146639706,
			"0.004": 8.24002907172,
			"0.005": 4.15007347615,
			"0.006": 3.37141469522,
			"0.007": 7.35469721685,
			"0.008": 9.06470456425,
			"0.009": 2.04436916424,
			"0.01": 0.0,
			"0.011": 0.0,
			"0.012": 0.0,
			"0.013": 0.0,
			"0.014": 0.0,
			"0.015": 0.0,
			"0.016": 0.0,
			"0.017": 0.0,
			"0.018": 0.0,
			"0.019": 0.0,
			"0.02": 0.0,
			"0.021": 0.0,
			"0.022": 0.0,
			"0.023": 0.0,
			"0.024": 0.0,
			"0.025": 0.0
		}
	}
}
