{
	 "smiles": "OC(=O)C1=CC2=C(C=C1)C(=O)OC(C2)C1=CC=CC=C1", 
	 "Tm": 584.15, 
	 "num_atms": 32, 
	 "gaussian": { 
		 "optdone": 1, 
		 "sigma_profile": "yes", 
		 "theory": "DFT", 
		 "functional": "B3LYP", 
		 "basiset": "6-31G**", 
		 "properties": { 
			 "R2extent": 7421.432, 
			 "electric_dipole_moment_norm": 5.74586793618, 
			 "electric_quadrupole_moment_norm": 23.2483062805, 
			 "total_energy": -917.854718856, 
			 "HOMO_LUMO_gap": 0.17497, 
			 "cosmo_polarized_energy": -22.82, 
			 "cosmo_cavitation_energy": 36.86, 
			 "cosmo_dispersion_energy": -26.52, 
			 "cosmo_repulsion_energy": 2.0, 
			 "cosmo_total_nonelectrostatic_energy": 12.34, 
			 "SMD_solvation_energy": 7.86 
		},
		"coords": [
			{
				"x": -0.0786322894,
				"y": 4.5655528011,
				"z": 2.5185631279,
				"element": "O" 
			},
			{
				"x": 0.0496327433,
				"y": 3.5431080867,
				"z": 3.4052020765,
				"element": "C" 
			},
			{
				"x": 0.1717486928,
				"y": 3.7734375642,
				"z": 4.5841176479,
				"element": "O" 
			},
			{
				"x": 0.0319087299,
				"y": 2.1510162393,
				"z": 2.83968643,
				"element": "C" 
			},
			{
				"x": 0.3653187094,
				"y": 1.8724885357,
				"z": 1.507502143,
				"element": "C" 
			},
			{
				"x": 0.3485538887,
				"y": 0.5611113372,
				"z": 1.0281496508,
				"element": "C" 
			},
			{
				"x": -0.0131170261,
				"y": -0.476359109,
				"z": 1.901497578,
				"element": "C" 
			},
			{
				"x": -0.3283643883,
				"y": -0.2054048686,
				"z": 3.2393751255,
				"element": "C" 
			},
			{
				"x": -0.3003522307,
				"y": 1.1009207548,
				"z": 3.7087611092,
				"element": "C" 
			},
			{
				"x": -0.0064381446,
				"y": -1.8971998109,
				"z": 1.4382536657,
				"element": "C" 
			},
			{
				"x": -0.0620677391,
				"y": -2.8421773857,
				"z": 2.1915081253,
				"element": "O" 
			},
			{
				"x": 0.1023190721,
				"y": -2.1170374494,
				"z": 0.0991491533,
				"element": "O" 
			},
			{
				"x": -0.0957119656,
				"y": -1.026991257,
				"z": -0.8332819838,
				"element": "C" 
			},
			{
				"x": 0.7162831865,
				"y": 0.1948952906,
				"z": -0.3875159067,
				"element": "C" 
			},
			{
				"x": 0.2821838624,
				"y": -1.5135859884,
				"z": -2.2146221014,
				"element": "C" 
			},
			{
				"x": 1.316911378,
				"y": -2.4375649249,
				"z": -2.4016264837,
				"element": "C" 
			},
			{
				"x": 1.6849267566,
				"y": -2.8269359296,
				"z": -3.689926508,
				"element": "C" 
			},
			{
				"x": 1.0292195023,
				"y": -2.2942933126,
				"z": -4.8017311198,
				"element": "C" 
			},
			{
				"x": -0.0047800406,
				"y": -1.3742081623,
				"z": -4.6203954916,
				"element": "C" 
			},
			{
				"x": -0.3783367479,
				"y": -0.9900822593,
				"z": -3.3321205154,
				"element": "C" 
			},
			{
				"x": -0.332738629,
				"y": 4.2261168652,
				"z": 1.6493544947,
				"element": "H" 
			},
			{
				"x": 0.6811144646,
				"y": 2.6678956205,
				"z": 0.8354660331,
				"element": "H" 
			},
			{
				"x": -0.5825671198,
				"y": -1.0353369809,
				"z": 3.8897337881,
				"element": "H" 
			},
			{
				"x": -0.530013158,
				"y": 1.33594358,
				"z": 4.7420519416,
				"element": "H" 
			},
			{
				"x": -1.1626369741,
				"y": -0.7654396855,
				"z": -0.8194974007,
				"element": "H" 
			},
			{
				"x": 0.5327733104,
				"y": 1.0259959223,
				"z": -1.0758650475,
				"element": "H" 
			},
			{
				"x": 1.7848639983,
				"y": -0.0485811102,
				"z": -0.4591626811,
				"element": "H" 
			},
			{
				"x": 1.8135716881,
				"y": -2.8643272428,
				"z": -1.5367707877,
				"element": "H" 
			},
			{
				"x": 2.483174231,
				"y": -3.5511223283,
				"z": -3.8245973705,
				"element": "H" 
			},
			{
				"x": 1.3169102414,
				"y": -2.6004913509,
				"z": -5.8032458075,
				"element": "H" 
			},
			{
				"x": -0.5273525364,
				"y": -0.9632841696,
				"z": -5.4793086423,
				"element": "H" 
			},
			{
				"x": -1.1939054661,
				"y": -0.283359272,
				"z": -3.1951042428,
				"element": "H" 
			}
		],
		 "valence_orbital": [ 
			{
				"type": "occ",
				"energy": -0.28308,
				"method": "rhf"
			},
			{
				"type": "occ",
				"energy": -0.28014,
				"method": "rhf"
			},
			{
				"type": "occ",
				"energy": -0.27403,
				"method": "rhf"
			},
			{
				"type": "occ",
				"energy": -0.26226,
				"method": "rhf"
			},
			{
				"type": "occ",
				"energy": -0.25773,
				"method": "rhf"
			},
			{
				"type": "unocc",
				"energy": -0.08276,
				"method": "rhf"
			},
			{
				"type": "unocc",
				"energy": -0.03698,
				"method": "rhf"
			},
			{
				"type": "unocc",
				"energy": -0.01808,
				"method": "rhf"
			},
			{
				"type": "unocc",
				"energy": -0.01361,
				"method": "rhf"
			},
			{
				"type": "unocc",
				"energy": 0.00115,
				"method": "rhf"
			}
		],
		"cosmo_sigma_profile": { 
			"-0.025": 0.0,
			"-0.024": 0.0,
			"-0.023": 0.0,
			"-0.022": 0.0,
			"-0.021": 0.0,
			"-0.02": 0.0,
			"-0.019": 0.421455162388,
			"-0.018": 0.711331715302,
			"-0.017": 1.51106881091,
			"-0.016": 0.769197550396,
			"-0.015": 0.825142769744,
			"-0.014": 0.914339346972,
			"-0.013": 1.5376317131,
			"-0.012": 1.06153746298,
			"-0.011": 1.10836127067,
			"-0.01": 1.53993466421,
			"-0.009": 1.71902904707,
			"-0.008": 3.29792993396,
			"-0.007": 11.2929457694,
			"-0.006": 19.7459743996,
			"-0.005": 22.3202570774,
			"-0.004": 23.954759876,
			"-0.003": 22.1331333975,
			"-0.002": 17.9455694926,
			"-0.001": 15.3371873131,
			"0.0": 18.2711640739,
			"0.001": 21.1274520067,
			"0.002": 15.4643355199,
			"0.003": 12.4517902134,
			"0.004": 12.4222126047,
			"0.005": 14.4093635725,
			"0.006": 8.46614150608,
			"0.007": 4.82281595416,
			"0.008": 5.12054960216,
			"0.009": 6.08659665999,
			"0.01": 8.416056775,
			"0.011": 10.7372913363,
			"0.012": 7.16897103815,
			"0.013": 2.02045140529,
			"0.014": 0.0163797504367,
			"0.015": 0.0,
			"0.016": 0.0,
			"0.017": 0.0,
			"0.018": 0.0,
			"0.019": 0.0,
			"0.02": 0.0,
			"0.021": 0.0,
			"0.022": 0.0,
			"0.023": 0.0,
			"0.024": 0.0,
			"0.025": 0.0
		}
	}
}
