{
	 "smiles": "C1CCC=CC1", 
	 "Tm": 169.15, 
	 "num_atms": 16, 
	 "gaussian": { 
		 "optdone": 1, 
		 "sigma_profile": "yes", 
		 "theory": "DFT", 
		 "functional": "B3LYP", 
		 "basiset": "6-31G**", 
		 "properties": { 
			 "R2extent": 1070.0444, 
			 "electric_dipole_moment_norm": 0.241724905626, 
			 "electric_quadrupole_moment_norm": 1.31798863804, 
			 "total_energy": -234.65810669, 
			 "HOMO_LUMO_gap": 0.2669, 
			 "cosmo_polarized_energy": -1.21, 
			 "cosmo_cavitation_energy": 17.24, 
			 "cosmo_dispersion_energy": -13.42, 
			 "cosmo_repulsion_energy": 1.17, 
			 "cosmo_total_nonelectrostatic_energy": 4.98, 
			 "SMD_solvation_energy": 2.43 
		},
		"coords": [
			{
				"x": -0.4518837853,
				"y": 1.7412120986,
				"z": -2.6051032049,
				"element": "C" 
			},
			{
				"x": 0.0997807151,
				"y": 0.3168694237,
				"z": -2.4548077221,
				"element": "C" 
			},
			{
				"x": 0.7123240253,
				"y": 0.1085355881,
				"z": -1.0602252432,
				"element": "C" 
			},
			{
				"x": -0.1594989437,
				"y": 0.6783570614,
				"z": 0.0326423559,
				"element": "C" 
			},
			{
				"x": -1.176857896,
				"y": 1.5154588729,
				"z": -0.1949933313,
				"element": "C" 
			},
			{
				"x": -1.5531069183,
				"y": 2.0168262791,
				"z": -1.5683755027,
				"element": "C" 
			},
			{
				"x": 0.3663237846,
				"y": 2.4593327885,
				"z": -2.4604702243,
				"element": "H" 
			},
			{
				"x": -0.8368570467,
				"y": 1.9023022153,
				"z": -3.6186807256,
				"element": "H" 
			},
			{
				"x": -0.7184395295,
				"y": -0.4012537129,
				"z": -2.5993356708,
				"element": "H" 
			},
			{
				"x": 0.8445084378,
				"y": 0.1062363839,
				"z": -3.2310196777,
				"element": "H" 
			},
			{
				"x": 1.7091617494,
				"y": 0.5741384133,
				"z": -1.0124926703,
				"element": "H" 
			},
			{
				"x": 0.882555569,
				"y": -0.9609464482,
				"z": -0.8775359092,
				"element": "H" 
			},
			{
				"x": 0.0674317577,
				"y": 0.3768476168,
				"z": 1.0543328445,
				"element": "H" 
			},
			{
				"x": -1.7773344057,
				"y": 1.8685392111,
				"z": 0.6422737945,
				"element": "H" 
			},
			{
				"x": -2.4959356003,
				"y": 1.5436382063,
				"z": -1.8844427986,
				"element": "H" 
			},
			{
				"x": -1.7693719132,
				"y": 3.092606002,
				"z": -1.5228663144,
				"element": "H" 
			}
		],
		 "valence_orbital": [ 
			{
				"type": "occ",
				"energy": -0.37172,
				"method": "rhf"
			},
			{
				"type": "occ",
				"energy": -0.32186,
				"method": "rhf"
			},
			{
				"type": "occ",
				"energy": -0.31087,
				"method": "rhf"
			},
			{
				"type": "occ",
				"energy": -0.299,
				"method": "rhf"
			},
			{
				"type": "occ",
				"energy": -0.23359,
				"method": "rhf"
			},
			{
				"type": "unocc",
				"energy": 0.03331,
				"method": "rhf"
			},
			{
				"type": "unocc",
				"energy": 0.09235,
				"method": "rhf"
			},
			{
				"type": "unocc",
				"energy": 0.13105,
				"method": "rhf"
			},
			{
				"type": "unocc",
				"energy": 0.13718,
				"method": "rhf"
			},
			{
				"type": "unocc",
				"energy": 0.14173,
				"method": "rhf"
			}
		],
		"cosmo_sigma_profile": { 
			"-0.025": 0.0,
			"-0.024": 0.0,
			"-0.023": 0.0,
			"-0.022": 0.0,
			"-0.021": 0.0,
			"-0.02": 0.0,
			"-0.019": 0.0,
			"-0.018": 0.0,
			"-0.017": 0.0,
			"-0.016": 0.0,
			"-0.015": 0.0,
			"-0.014": 0.0,
			"-0.013": 0.0,
			"-0.012": 0.0,
			"-0.011": 0.0,
			"-0.01": 0.0,
			"-0.009": 0.0,
			"-0.008": 0.0,
			"-0.007": 0.0,
			"-0.006": 0.0,
			"-0.005": 0.00964531672315,
			"-0.004": 2.58913119303,
			"-0.003": 9.93895603615,
			"-0.002": 20.9805044942,
			"-0.001": 28.542225163,
			"0.0": 29.5476532271,
			"0.001": 19.74452309,
			"0.002": 6.79053293587,
			"0.003": 3.11402930859,
			"0.004": 3.69885466702,
			"0.005": 3.18977696256,
			"0.006": 1.87383568921,
			"0.007": 2.4805410343,
			"0.008": 1.17160769131,
			"0.009": 0.0,
			"0.01": 0.0,
			"0.011": 0.0,
			"0.012": 0.0,
			"0.013": 0.0,
			"0.014": 0.0,
			"0.015": 0.0,
			"0.016": 0.0,
			"0.017": 0.0,
			"0.018": 0.0,
			"0.019": 0.0,
			"0.02": 0.0,
			"0.021": 0.0,
			"0.022": 0.0,
			"0.023": 0.0,
			"0.024": 0.0,
			"0.025": 0.0
		}
	}
}
