{
	 "smiles": "ClCC(=O)ON=C(C1=CC2=C(O1)C=CC=C2)C1=CC2=C(O1)C=CC=C2", 
	 "Tm": 409.15, 
	 "num_atms": 37, 
	 "gaussian": { 
		 "optdone": 1, 
		 "sigma_profile": "yes", 
		 "theory": "DFT", 
		 "functional": "B3LYP", 
		 "basiset": "6-31G**", 
		 "properties": { 
			 "R2extent": 12837.2091, 
			 "electric_dipole_moment_norm": 5.88996270362, 
			 "electric_quadrupole_moment_norm": 27.8136414173, 
			 "total_energy": -1547.01878015, 
			 "HOMO_LUMO_gap": 0.14207, 
			 "cosmo_polarized_energy": -16.38, 
			 "cosmo_cavitation_energy": 46.01, 
			 "cosmo_dispersion_energy": -32.47, 
			 "cosmo_repulsion_energy": 2.47, 
			 "cosmo_total_nonelectrostatic_energy": 16.0, 
			 "SMD_solvation_energy": 8.51 
		},
		"coords": [
			{
				"x": 1.7073820213,
				"y": -0.681243766,
				"z": -6.7925125646,
				"element": "Cl" 
			},
			{
				"x": 1.3185129588,
				"y": -1.1903537011,
				"z": -5.124667979,
				"element": "C" 
			},
			{
				"x": 0.8260925959,
				"y": -0.0337024345,
				"z": -4.2583325133,
				"element": "C" 
			},
			{
				"x": 0.6654483035,
				"y": 1.1073827154,
				"z": -4.5774122776,
				"element": "O" 
			},
			{
				"x": 0.600578539,
				"y": -0.5753315156,
				"z": -3.01547965,
				"element": "O" 
			},
			{
				"x": 0.1155742012,
				"y": 0.3655802914,
				"z": -2.0878913418,
				"element": "N" 
			},
			{
				"x": -0.0532213246,
				"y": -0.1581904526,
				"z": -0.9105876441,
				"element": "C" 
			},
			{
				"x": 0.2877588614,
				"y": -1.5022498582,
				"z": -0.4444041589,
				"element": "C" 
			},
			{
				"x": -0.2346622843,
				"y": -2.2356287742,
				"z": 0.5877870695,
				"element": "C" 
			},
			{
				"x": 0.4632480305,
				"y": -3.4875125057,
				"z": 0.5975199811,
				"element": "C" 
			},
			{
				"x": 1.390878065,
				"y": -3.4038739824,
				"z": -0.4593020285,
				"element": "C" 
			},
			{
				"x": 1.2832546731,
				"y": -2.203137282,
				"z": -1.0960057976,
				"element": "O" 
			},
			{
				"x": 2.2816365817,
				"y": -4.4221176645,
				"z": -0.7837952411,
				"element": "C" 
			},
			{
				"x": 2.2169017556,
				"y": -5.5714590468,
				"z": 0.000104828,
				"element": "C" 
			},
			{
				"x": 1.2972782835,
				"y": -5.6881715803,
				"z": 1.0635183949,
				"element": "C" 
			},
			{
				"x": 0.4173017381,
				"y": -4.6590102369,
				"z": 1.373998225,
				"element": "C" 
			},
			{
				"x": -0.7068245682,
				"y": 0.7677184481,
				"z": 0.0226308838,
				"element": "C" 
			},
			{
				"x": -1.468923384,
				"y": 1.8737646498,
				"z": -0.2210440359,
				"element": "C" 
			},
			{
				"x": -1.8100262491,
				"y": 2.4230962187,
				"z": 1.0607285524,
				"element": "C" 
			},
			{
				"x": -1.2093620032,
				"y": 1.5699009161,
				"z": 2.0076190444,
				"element": "C" 
			},
			{
				"x": -0.5358702498,
				"y": 0.5593417548,
				"z": 1.3774695673,
				"element": "O" 
			},
			{
				"x": -1.3053790396,
				"y": 1.7511611762,
				"z": 3.3825642711,
				"element": "C" 
			},
			{
				"x": -2.0457430608,
				"y": 2.8520517535,
				"z": 3.8089618439,
				"element": "C" 
			},
			{
				"x": -2.6604486396,
				"y": 3.7255718969,
				"z": 2.8887499149,
				"element": "C" 
			},
			{
				"x": -2.5530844658,
				"y": 3.5255192816,
				"z": 1.517344545,
				"element": "C" 
			},
			{
				"x": 0.5496411106,
				"y": -1.9643334785,
				"z": -5.1685073665,
				"element": "H" 
			},
			{
				"x": 2.213121511,
				"y": -1.6245466326,
				"z": -4.6743747407,
				"element": "H" 
			},
			{
				"x": -1.0123150273,
				"y": -1.9098562367,
				"z": 1.2605347943,
				"element": "H" 
			},
			{
				"x": 2.9843403897,
				"y": -4.3191735962,
				"z": -1.6031639562,
				"element": "H" 
			},
			{
				"x": 2.8895919646,
				"y": -6.3967348651,
				"z": -0.2124876854,
				"element": "H" 
			},
			{
				"x": 1.2812307213,
				"y": -6.6023075648,
				"z": 1.6490499913,
				"element": "H" 
			},
			{
				"x": -0.2862158221,
				"y": -4.7547949053,
				"z": 2.1953080282,
				"element": "H" 
			},
			{
				"x": -1.7414605394,
				"y": 2.2366431899,
				"z": -1.2006095819,
				"element": "H" 
			},
			{
				"x": -0.8248937455,
				"y": 1.0719002736,
				"z": 4.0781027704,
				"element": "H" 
			},
			{
				"x": -2.1503123125,
				"y": 3.0412882236,
				"z": 4.8729258277,
				"element": "H" 
			},
			{
				"x": -3.2280295672,
				"y": 4.5720104217,
				"z": 3.263354858,
				"element": "H" 
			},
			{
				"x": -3.0285000229,
				"y": 4.2037988688,
				"z": 0.8156051723,
				"element": "H" 
			}
		],
		 "valence_orbital": [ 
			{
				"type": "occ",
				"energy": -0.2852,
				"method": "rhf"
			},
			{
				"type": "occ",
				"energy": -0.25145,
				"method": "rhf"
			},
			{
				"type": "occ",
				"energy": -0.24809,
				"method": "rhf"
			},
			{
				"type": "occ",
				"energy": -0.23458,
				"method": "rhf"
			},
			{
				"type": "occ",
				"energy": -0.2237,
				"method": "rhf"
			},
			{
				"type": "unocc",
				"energy": -0.08163,
				"method": "rhf"
			},
			{
				"type": "unocc",
				"energy": -0.03438,
				"method": "rhf"
			},
			{
				"type": "unocc",
				"energy": -0.00499,
				"method": "rhf"
			},
			{
				"type": "unocc",
				"energy": 0.00067,
				"method": "rhf"
			},
			{
				"type": "unocc",
				"energy": 0.00379,
				"method": "rhf"
			}
		],
		"cosmo_sigma_profile": { 
			"-0.025": 0.0,
			"-0.024": 0.0,
			"-0.023": 0.0,
			"-0.022": 0.0,
			"-0.021": 0.0,
			"-0.02": 0.0,
			"-0.019": 0.0,
			"-0.018": 0.0,
			"-0.017": 0.0,
			"-0.016": 0.0,
			"-0.015": 0.0,
			"-0.014": 0.0,
			"-0.013": 0.0,
			"-0.012": 0.0,
			"-0.011": 0.058659889466,
			"-0.01": 3.50290600703,
			"-0.009": 5.05204470067,
			"-0.008": 6.44563656553,
			"-0.007": 12.6618563528,
			"-0.006": 23.5558348967,
			"-0.005": 23.5703780899,
			"-0.004": 24.1192376013,
			"-0.003": 20.2171279851,
			"-0.002": 20.4190019232,
			"-0.001": 24.1724186547,
			"0.0": 30.538947998,
			"0.001": 31.6880241597,
			"0.002": 31.9971140458,
			"0.003": 31.6946949313,
			"0.004": 29.8158309868,
			"0.005": 21.4994519614,
			"0.006": 8.28636746259,
			"0.007": 4.56909409304,
			"0.008": 3.05237040478,
			"0.009": 2.96209733105,
			"0.01": 5.75882070181,
			"0.011": 4.18140045747,
			"0.012": 1.63368463425,
			"0.013": 0.918512008164,
			"0.014": 1.02126912219,
			"0.015": 0.529062026611,
			"0.016": 0.000724263592469,
			"0.017": 0.0,
			"0.018": 0.0,
			"0.019": 0.0,
			"0.02": 0.0,
			"0.021": 0.0,
			"0.022": 0.0,
			"0.023": 0.0,
			"0.024": 0.0,
			"0.025": 0.0
		}
	}
}
