{
	 "smiles": "CC1=C(C)C(F)=CC=C1N", 
	 "Tm": 317.15, 
	 "num_atms": 20, 
	 "gaussian": { 
		 "optdone": 1, 
		 "sigma_profile": "yes", 
		 "theory": "DFT", 
		 "functional": "B3LYP", 
		 "basiset": "6-31G**", 
		 "properties": { 
			 "R2extent": 2039.3768, 
			 "electric_dipole_moment_norm": 2.67963923318, 
			 "electric_quadrupole_moment_norm": 7.97458891354, 
			 "total_energy": -465.477972327, 
			 "HOMO_LUMO_gap": 0.19617, 
			 "cosmo_polarized_energy": -7.69, 
			 "cosmo_cavitation_energy": 22.85, 
			 "cosmo_dispersion_energy": -16.99, 
			 "cosmo_repulsion_energy": 1.35, 
			 "cosmo_total_nonelectrostatic_energy": 7.21, 
			 "SMD_solvation_energy": 4.35 
		},
		"coords": [
			{
				"x": 0.0663666061,
				"y": 0.9956792992,
				"z": -0.3502917565,
				"element": "C" 
			},
			{
				"x": 0.1523311174,
				"y": -0.5032373706,
				"z": -0.1852312576,
				"element": "C" 
			},
			{
				"x": 1.3693904402,
				"y": -1.1455123408,
				"z": 0.1149813815,
				"element": "C" 
			},
			{
				"x": 2.6700246148,
				"y": -0.3909571522,
				"z": 0.2693450629,
				"element": "C" 
			},
			{
				"x": 1.3572405824,
				"y": -2.5328794896,
				"z": 0.2786997647,
				"element": "C" 
			},
			{
				"x": 2.5212749861,
				"y": -3.1736901425,
				"z": 0.5724058527,
				"element": "F" 
			},
			{
				"x": 0.2060700169,
				"y": -3.2950329326,
				"z": 0.1535177813,
				"element": "C" 
			},
			{
				"x": -0.9896989396,
				"y": -2.6561860675,
				"z": -0.1578998114,
				"element": "C" 
			},
			{
				"x": -1.0291495982,
				"y": -1.2656535194,
				"z": -0.330941083,
				"element": "C" 
			},
			{
				"x": -2.2523471815,
				"y": -0.6207364129,
				"z": -0.5841862405,
				"element": "N" 
			},
			{
				"x": -0.123317908,
				"y": 1.2823015268,
				"z": -1.3954687075,
				"element": "H" 
			},
			{
				"x": -0.7571869407,
				"y": 1.4041266201,
				"z": 0.2473017617,
				"element": "H" 
			},
			{
				"x": 0.9835602369,
				"y": 1.4998663388,
				"z": -0.0449774562,
				"element": "H" 
			},
			{
				"x": 3.4899289799,
				"y": -1.0833153471,
				"z": 0.4614110968,
				"element": "H" 
			},
			{
				"x": 2.914431219,
				"y": 0.1811392799,
				"z": -0.6323766096,
				"element": "H" 
			},
			{
				"x": 2.6286768298,
				"y": 0.318498378,
				"z": 1.103910762,
				"element": "H" 
			},
			{
				"x": 0.2579833675,
				"y": -4.3696023434,
				"z": 0.2910380542,
				"element": "H" 
			},
			{
				"x": -1.9016930602,
				"y": -3.2378067095,
				"z": -0.2666675414,
				"element": "H" 
			},
			{
				"x": -2.1873737201,
				"y": 0.1892438138,
				"z": -1.1865624589,
				"element": "H" 
			},
			{
				"x": -2.9804116488,
				"y": -1.2453454286,
				"z": -0.905508595,
				"element": "H" 
			}
		],
		 "valence_orbital": [ 
			{
				"type": "occ",
				"energy": -0.3518,
				"method": "rhf"
			},
			{
				"type": "occ",
				"energy": -0.32765,
				"method": "rhf"
			},
			{
				"type": "occ",
				"energy": -0.29165,
				"method": "rhf"
			},
			{
				"type": "occ",
				"energy": -0.23496,
				"method": "rhf"
			},
			{
				"type": "occ",
				"energy": -0.19429,
				"method": "rhf"
			},
			{
				"type": "unocc",
				"energy": 0.00188,
				"method": "rhf"
			},
			{
				"type": "unocc",
				"energy": 0.02824,
				"method": "rhf"
			},
			{
				"type": "unocc",
				"energy": 0.07664,
				"method": "rhf"
			},
			{
				"type": "unocc",
				"energy": 0.09623,
				"method": "rhf"
			},
			{
				"type": "unocc",
				"energy": 0.12467,
				"method": "rhf"
			}
		],
		"cosmo_sigma_profile": { 
			"-0.025": 0.0,
			"-0.024": 0.0,
			"-0.023": 0.0,
			"-0.022": 0.0,
			"-0.021": 0.0,
			"-0.02": 0.0,
			"-0.019": 0.0,
			"-0.018": 0.0,
			"-0.017": 0.0,
			"-0.016": 0.0,
			"-0.015": 0.0,
			"-0.014": 0.0,
			"-0.013": 0.00780985717863,
			"-0.012": 0.936440161363,
			"-0.011": 2.57627587359,
			"-0.01": 2.82802564057,
			"-0.009": 2.84502125254,
			"-0.008": 2.65332559766,
			"-0.007": 3.95547495456,
			"-0.006": 4.92188626464,
			"-0.005": 5.19622706562,
			"-0.004": 12.7991054961,
			"-0.003": 15.3142311605,
			"-0.002": 13.4633753718,
			"-0.001": 14.8244941424,
			"0.0": 17.3213475951,
			"0.001": 13.5064421655,
			"0.002": 9.70890869733,
			"0.003": 11.8044995002,
			"0.004": 11.4605481662,
			"0.005": 16.1337628122,
			"0.006": 10.8132444309,
			"0.007": 2.1670518285,
			"0.008": 0.273073461055,
			"0.009": 0.835082597477,
			"0.01": 1.06904804879,
			"0.011": 0.699242799534,
			"0.012": 0.408473497264,
			"0.013": 0.493690486961,
			"0.014": 0.496671630744,
			"0.015": 0.816877648906,
			"0.016": 0.00408218993754,
			"0.017": 0.0,
			"0.018": 0.0,
			"0.019": 0.0,
			"0.02": 0.0,
			"0.021": 0.0,
			"0.022": 0.0,
			"0.023": 0.0,
			"0.024": 0.0,
			"0.025": 0.0
		}
	}
}
