{
	 "smiles": "COC(=O)C1=CC(NS(=O)(=O)C2=CC=C(C)C=C2)=C(NS(=O)(=O)C2=CC=C(C)C=C2)C=C1", 
	 "Tm": 454.15, 
	 "num_atms": 54, 
	 "gaussian": { 
		 "optdone": 1, 
		 "sigma_profile": "yes", 
		 "theory": "DFT", 
		 "functional": "B3LYP", 
		 "basiset": "6-31G**", 
		 "properties": { 
			 "R2extent": 17008.4313, 
			 "electric_dipole_moment_norm": 9.50691455836, 
			 "electric_quadrupole_moment_norm": 31.7247261996, 
			 "total_energy": -2208.71602055, 
			 "HOMO_LUMO_gap": 0.18088, 
			 "cosmo_polarized_energy": -26.34, 
			 "cosmo_cavitation_energy": 61.73, 
			 "cosmo_dispersion_energy": -39.55, 
			 "cosmo_repulsion_energy": 2.93, 
			 "cosmo_total_nonelectrostatic_energy": 25.12, 
			 "SMD_solvation_energy": 10.23 
		},
		"coords": [
			{
				"x": -1.4998469337,
				"y": 5.5901698836,
				"z": -0.5589306491,
				"element": "C" 
			},
			{
				"x": -1.7354454888,
				"y": 4.2542995344,
				"z": -1.0276419483,
				"element": "O" 
			},
			{
				"x": -0.6248060818,
				"y": 3.5555398396,
				"z": -1.3603780496,
				"element": "C" 
			},
			{
				"x": 0.4996434924,
				"y": 4.0124908114,
				"z": -1.265049033,
				"element": "O" 
			},
			{
				"x": -0.9394263701,
				"y": 2.1889619624,
				"z": -1.8456597826,
				"element": "C" 
			},
			{
				"x": 0.1264103788,
				"y": 1.3665014347,
				"z": -2.2239992126,
				"element": "C" 
			},
			{
				"x": -0.0906101851,
				"y": 0.075071344,
				"z": -2.6937341616,
				"element": "C" 
			},
			{
				"x": 1.0035966791,
				"y": -0.7208246604,
				"z": -3.1708573222,
				"element": "N" 
			},
			{
				"x": 1.8140055907,
				"y": -1.8352432845,
				"z": -2.1627467476,
				"element": "S" 
			},
			{
				"x": 3.0104999621,
				"y": -2.2016260665,
				"z": -2.9201632545,
				"element": "O" 
			},
			{
				"x": 0.7990486607,
				"y": -2.8235796002,
				"z": -1.7790713471,
				"element": "O" 
			},
			{
				"x": 2.3160160815,
				"y": -0.972729267,
				"z": -0.6790157916,
				"element": "C" 
			},
			{
				"x": 1.4458319042,
				"y": -0.9001440014,
				"z": 0.4109136443,
				"element": "C" 
			},
			{
				"x": 1.8452526594,
				"y": -0.198372845,
				"z": 1.5464963801,
				"element": "C" 
			},
			{
				"x": 3.0957035693,
				"y": 0.4328145719,
				"z": 1.6095538661,
				"element": "C" 
			},
			{
				"x": 3.5047287928,
				"y": 1.2204424746,
				"z": 2.8299622457,
				"element": "C" 
			},
			{
				"x": 3.9531738269,
				"y": 0.3316093326,
				"z": 0.503318203,
				"element": "C" 
			},
			{
				"x": 3.573375718,
				"y": -0.3637546715,
				"z": -0.6414247777,
				"element": "C" 
			},
			{
				"x": -1.4138036008,
				"y": -0.4321426143,
				"z": -2.7900724034,
				"element": "C" 
			},
			{
				"x": -1.6007811953,
				"y": -1.7166276702,
				"z": -3.2980195399,
				"element": "N" 
			},
			{
				"x": -2.9594310278,
				"y": -2.7144523989,
				"z": -3.0875859415,
				"element": "S" 
			},
			{
				"x": -2.5600121339,
				"y": -3.9578084868,
				"z": -3.7407194234,
				"element": "O" 
			},
			{
				"x": -4.1434391223,
				"y": -1.9623619037,
				"z": -3.5059887805,
				"element": "O" 
			},
			{
				"x": -3.0969734844,
				"y": -2.9972758308,
				"z": -1.3224791729,
				"element": "C" 
			},
			{
				"x": -4.2195115142,
				"y": -2.5269656698,
				"z": -0.6414236252,
				"element": "C" 
			},
			{
				"x": -4.3388769095,
				"y": -2.780244931,
				"z": 0.7251995506,
				"element": "C" 
			},
			{
				"x": -3.3547466744,
				"y": -3.4969431935,
				"z": 1.4174499241,
				"element": "C" 
			},
			{
				"x": -3.5035303547,
				"y": -3.7963933403,
				"z": 2.8895282935,
				"element": "C" 
			},
			{
				"x": -2.2350753533,
				"y": -3.956369664,
				"z": 0.7045069938,
				"element": "C" 
			},
			{
				"x": -2.0988610973,
				"y": -3.7190606045,
				"z": -0.6600735055,
				"element": "C" 
			},
			{
				"x": -2.4816415847,
				"y": 0.4029601485,
				"z": -2.4140995525,
				"element": "C" 
			},
			{
				"x": -2.2446426316,
				"y": 1.6886964014,
				"z": -1.9464262543,
				"element": "C" 
			},
			{
				"x": -0.992594523,
				"y": 6.1834085217,
				"z": -1.3239327142,
				"element": "H" 
			},
			{
				"x": -2.4847621433,
				"y": 6.0045981852,
				"z": -0.3438726946,
				"element": "H" 
			},
			{
				"x": -0.882514731,
				"y": 5.5796078426,
				"z": 0.3430298447,
				"element": "H" 
			},
			{
				"x": 1.1365378056,
				"y": 1.7563439003,
				"z": -2.1480159173,
				"element": "H" 
			},
			{
				"x": 1.6958118089,
				"y": -0.2040437168,
				"z": -3.7062085819,
				"element": "H" 
			},
			{
				"x": 0.4849672567,
				"y": -1.4012345284,
				"z": 0.3738442913,
				"element": "H" 
			},
			{
				"x": 1.1750175565,
				"y": -0.1426772991,
				"z": 2.3999204397,
				"element": "H" 
			},
			{
				"x": 3.2716507453,
				"y": 2.2844804937,
				"z": 2.7002526306,
				"element": "H" 
			},
			{
				"x": 2.978690281,
				"y": 0.8762939406,
				"z": 3.724676892,
				"element": "H" 
			},
			{
				"x": 4.5803371597,
				"y": 1.1436965259,
				"z": 3.0140179075,
				"element": "H" 
			},
			{
				"x": 4.9335555713,
				"y": 0.7985803921,
				"z": 0.5417488023,
				"element": "H" 
			},
			{
				"x": 4.2464575896,
				"y": -0.4582433611,
				"z": -1.4868237432,
				"element": "H" 
			},
			{
				"x": -0.7565417097,
				"y": -2.2701460413,
				"z": -3.4163438526,
				"element": "H" 
			},
			{
				"x": -4.986869989,
				"y": -1.9834288012,
				"z": -1.1807467202,
				"element": "H" 
			},
			{
				"x": -5.2127303422,
				"y": -2.4168554273,
				"z": 1.2593328684,
				"element": "H" 
			},
			{
				"x": -2.5409080001,
				"y": -3.746041224,
				"z": 3.407641227,
				"element": "H" 
			},
			{
				"x": -3.900718972,
				"y": -4.807238534,
				"z": 3.043750983,
				"element": "H" 
			},
			{
				"x": -4.1902417165,
				"y": -3.0970344805,
				"z": 3.3743012278,
				"element": "H" 
			},
			{
				"x": -1.4606751364,
				"y": -4.5138090802,
				"z": 1.2248674949,
				"element": "H" 
			},
			{
				"x": -1.2258440735,
				"y": -4.0742544046,
				"z": -1.1953380791,
				"element": "H" 
			},
			{
				"x": -3.4965541152,
				"y": 0.0459191651,
				"z": -2.5290627894,
				"element": "H" 
			},
			{
				"x": -3.0808958951,
				"y": 2.3193408968,
				"z": -1.6676083413,
				"element": "H" 
			}
		],
		 "valence_orbital": [ 
			{
				"type": "occ",
				"energy": -0.26961,
				"method": "rhf"
			},
			{
				"type": "occ",
				"energy": -0.26847,
				"method": "rhf"
			},
			{
				"type": "occ",
				"energy": -0.26321,
				"method": "rhf"
			},
			{
				"type": "occ",
				"energy": -0.26297,
				"method": "rhf"
			},
			{
				"type": "occ",
				"energy": -0.2321,
				"method": "rhf"
			},
			{
				"type": "unocc",
				"energy": -0.05122,
				"method": "rhf"
			},
			{
				"type": "unocc",
				"energy": -0.04923,
				"method": "rhf"
			},
			{
				"type": "unocc",
				"energy": -0.03638,
				"method": "rhf"
			},
			{
				"type": "unocc",
				"energy": -0.02829,
				"method": "rhf"
			},
			{
				"type": "unocc",
				"energy": -0.02545,
				"method": "rhf"
			}
		],
		"cosmo_sigma_profile": { 
			"-0.025": 0.0,
			"-0.024": 0.0,
			"-0.023": 0.0,
			"-0.022": 0.0,
			"-0.021": 0.0,
			"-0.02": 0.0,
			"-0.019": 0.0,
			"-0.018": 0.0,
			"-0.017": 0.0,
			"-0.016": 0.402656467323,
			"-0.015": 1.14120444412,
			"-0.014": 1.41585475876,
			"-0.013": 1.17346354234,
			"-0.012": 1.23764140089,
			"-0.011": 1.59472371801,
			"-0.01": 1.60007612014,
			"-0.009": 1.46273687382,
			"-0.008": 1.94848184839,
			"-0.007": 7.27443100402,
			"-0.006": 23.7684549882,
			"-0.005": 38.0316201086,
			"-0.004": 39.8140937939,
			"-0.003": 41.4017549003,
			"-0.002": 45.8365442035,
			"-0.001": 41.4946997532,
			"0.0": 40.0791642185,
			"0.001": 40.7446899455,
			"0.002": 43.2729006514,
			"0.003": 32.6214082436,
			"0.004": 10.3439701656,
			"0.005": 11.1795451158,
			"0.006": 8.52988572282,
			"0.007": 7.83344413698,
			"0.008": 6.5576089254,
			"0.009": 10.2263299067,
			"0.01": 16.4815455158,
			"0.011": 10.9958661828,
			"0.012": 4.76144127982,
			"0.013": 0.292259100807,
			"0.014": 0.0,
			"0.015": 0.0,
			"0.016": 0.0,
			"0.017": 0.0,
			"0.018": 0.0,
			"0.019": 0.0,
			"0.02": 0.0,
			"0.021": 0.0,
			"0.022": 0.0,
			"0.023": 0.0,
			"0.024": 0.0,
			"0.025": 0.0
		}
	}
}
