{
	 "smiles": "CC(C)N1CCC(CC1)NC(C)=O", 
	 "Tm": 358.15, 
	 "num_atms": 33, 
	 "gaussian": { 
		 "optdone": 1, 
		 "sigma_profile": "yes", 
		 "theory": "DFT", 
		 "functional": "B3LYP", 
		 "basiset": "6-31G**", 
		 "properties": { 
			 "R2extent": 3600.9744, 
			 "electric_dipole_moment_norm": 4.17096273779, 
			 "electric_quadrupole_moment_norm": 12.743311703, 
			 "total_energy": -577.858501979, 
			 "HOMO_LUMO_gap": 0.2187, 
			 "cosmo_polarized_energy": -12.63, 
			 "cosmo_cavitation_energy": 31.46, 
			 "cosmo_dispersion_energy": -22.98, 
			 "cosmo_repulsion_energy": 1.81, 
			 "cosmo_total_nonelectrostatic_energy": 10.29, 
			 "SMD_solvation_energy": 3.17 
		},
		"coords": [
			{
				"x": 2.4406784344,
				"y": -3.145342291,
				"z": 1.5147557442,
				"element": "C" 
			},
			{
				"x": 1.2344347543,
				"y": -2.1990702181,
				"z": 1.4036346394,
				"element": "C" 
			},
			{
				"x": 0.4963189718,
				"y": -2.1744299921,
				"z": 2.7517351978,
				"element": "C" 
			},
			{
				"x": 1.6720047716,
				"y": -0.8394925131,
				"z": 1.0240628601,
				"element": "N" 
			},
			{
				"x": 2.4556912571,
				"y": -0.7442284957,
				"z": -0.2176032656,
				"element": "C" 
			},
			{
				"x": 1.6302664732,
				"y": -1.008530189,
				"z": -1.4940592695,
				"element": "C" 
			},
			{
				"x": 0.3350762661,
				"y": -0.1618136737,
				"z": -1.5999991404,
				"element": "C" 
			},
			{
				"x": -0.3612997213,
				"y": -0.0120633595,
				"z": -0.2221144753,
				"element": "C" 
			},
			{
				"x": 0.6116339601,
				"y": 0.1785390576,
				"z": 0.9601875586,
				"element": "C" 
			},
			{
				"x": 0.5003520695,
				"y": 1.1104864659,
				"z": -2.3377804048,
				"element": "N" 
			},
			{
				"x": 1.2527577821,
				"y": 2.2018811241,
				"z": -2.0144548871,
				"element": "C" 
			},
			{
				"x": 1.1823254781,
				"y": 3.3484911127,
				"z": -3.0190430874,
				"element": "C" 
			},
			{
				"x": 1.9458249754,
				"y": 2.2977531233,
				"z": -1.0064771374,
				"element": "O" 
			},
			{
				"x": 2.1217049219,
				"y": -4.1090173877,
				"z": 1.9238566403,
				"element": "H" 
			},
			{
				"x": 3.1952868537,
				"y": -2.7172260216,
				"z": 2.1833049665,
				"element": "H" 
			},
			{
				"x": 2.9134621318,
				"y": -3.3464929716,
				"z": 0.5498713905,
				"element": "H" 
			},
			{
				"x": 0.5410919401,
				"y": -2.6398013638,
				"z": 0.6598403413,
				"element": "H" 
			},
			{
				"x": 0.2959928219,
				"y": -3.1973155759,
				"z": 3.0854241061,
				"element": "H" 
			},
			{
				"x": 1.1112159166,
				"y": -1.676566749,
				"z": 3.5091815594,
				"element": "H" 
			},
			{
				"x": -0.4662750858,
				"y": -1.6589669073,
				"z": 2.6999197595,
				"element": "H" 
			},
			{
				"x": 2.8656494738,
				"y": 0.2670414639,
				"z": -0.2603084359,
				"element": "H" 
			},
			{
				"x": 3.3004601938,
				"y": -1.4362114163,
				"z": -0.1800387419,
				"element": "H" 
			},
			{
				"x": 1.3311647629,
				"y": -2.064713654,
				"z": -1.5131712625,
				"element": "H" 
			},
			{
				"x": 2.2446993519,
				"y": -0.8445430727,
				"z": -2.3866564563,
				"element": "H" 
			},
			{
				"x": -0.3548157913,
				"y": -0.7149330164,
				"z": -2.2471296149,
				"element": "H" 
			},
			{
				"x": -0.9517607202,
				"y": -0.9224691544,
				"z": -0.0550946036,
				"element": "H" 
			},
			{
				"x": -1.0764680884,
				"y": 0.8172744228,
				"z": -0.2654699642,
				"element": "H" 
			},
			{
				"x": 0.0491766665,
				"y": 0.1910755302,
				"z": 1.8968547947,
				"element": "H" 
			},
			{
				"x": 1.1046619283,
				"y": 1.1482243541,
				"z": 0.8642307259,
				"element": "H" 
			},
			{
				"x": -0.0202581104,
				"y": 1.1737607128,
				"z": -3.1985641574,
				"element": "H" 
			},
			{
				"x": 0.823936494,
				"y": 4.242134072,
				"z": -2.5009510633,
				"element": "H" 
			},
			{
				"x": 2.1946114532,
				"y": 3.5629184218,
				"z": -3.3720990349,
				"element": "H" 
			},
			{
				"x": 0.5385974131,
				"y": 3.1567481615,
				"z": -3.8822452821,
				"element": "H" 
			}
		],
		 "valence_orbital": [ 
			{
				"type": "occ",
				"energy": -0.31625,
				"method": "rhf"
			},
			{
				"type": "occ",
				"energy": -0.30478,
				"method": "rhf"
			},
			{
				"type": "occ",
				"energy": -0.24605,
				"method": "rhf"
			},
			{
				"type": "occ",
				"energy": -0.2423,
				"method": "rhf"
			},
			{
				"type": "occ",
				"energy": -0.1885,
				"method": "rhf"
			},
			{
				"type": "unocc",
				"energy": 0.0302,
				"method": "rhf"
			},
			{
				"type": "unocc",
				"energy": 0.05407,
				"method": "rhf"
			},
			{
				"type": "unocc",
				"energy": 0.08548,
				"method": "rhf"
			},
			{
				"type": "unocc",
				"energy": 0.11538,
				"method": "rhf"
			},
			{
				"type": "unocc",
				"energy": 0.12233,
				"method": "rhf"
			}
		],
		"cosmo_sigma_profile": { 
			"-0.025": 0.0,
			"-0.024": 0.0,
			"-0.023": 0.0,
			"-0.022": 0.0,
			"-0.021": 0.0,
			"-0.02": 0.0,
			"-0.019": 0.0,
			"-0.018": 0.0,
			"-0.017": 0.0,
			"-0.016": 0.0,
			"-0.015": 0.0,
			"-0.014": 0.472114936145,
			"-0.013": 1.29233695366,
			"-0.012": 1.69488874536,
			"-0.011": 1.07234877818,
			"-0.01": 1.34736155713,
			"-0.009": 1.67026041898,
			"-0.008": 1.89473370342,
			"-0.007": 1.78624376821,
			"-0.006": 2.09460824853,
			"-0.005": 6.75956108227,
			"-0.004": 8.83767826767,
			"-0.003": 27.0949146814,
			"-0.002": 36.3476920524,
			"-0.001": 35.8313040964,
			"0.0": 31.6225624257,
			"0.001": 29.5780691428,
			"0.002": 15.4694930388,
			"0.003": 4.50571531416,
			"0.004": 3.21394871467,
			"0.005": 3.11249046794,
			"0.006": 4.27724723498,
			"0.007": 3.36229117311,
			"0.008": 2.10065111545,
			"0.009": 2.01440184367,
			"0.01": 2.88761815111,
			"0.011": 2.25653784589,
			"0.012": 1.7497185145,
			"0.013": 2.08152207524,
			"0.014": 2.18825146858,
			"0.015": 2.35683388943,
			"0.016": 1.43785352392,
			"0.017": 0.218672819201,
			"0.018": 0.0,
			"0.019": 0.0,
			"0.02": 0.0,
			"0.021": 0.0,
			"0.022": 0.0,
			"0.023": 0.0,
			"0.024": 0.0,
			"0.025": 0.0
		}
	}
}
