{
	 "smiles": "ClS(=O)(=O)CC1=CC=C(C=C1)C#N", 
	 "Tm": 373.15, 
	 "num_atms": 19, 
	 "gaussian": { 
		 "optdone": 1, 
		 "sigma_profile": "yes", 
		 "theory": "DFT", 
		 "functional": "B3LYP", 
		 "basiset": "6-31G**", 
		 "properties": { 
			 "R2extent": 3989.8389, 
			 "electric_dipole_moment_norm": 3.76072435709, 
			 "electric_quadrupole_moment_norm": 30.5425713076, 
			 "total_energy": -1371.96525703, 
			 "HOMO_LUMO_gap": 0.18229, 
			 "cosmo_polarized_energy": -17.1, 
			 "cosmo_cavitation_energy": 28.32, 
			 "cosmo_dispersion_energy": -20.17, 
			 "cosmo_repulsion_energy": 1.56, 
			 "cosmo_total_nonelectrostatic_energy": 9.71, 
			 "SMD_solvation_energy": 4.79 
		},
		"coords": [
			{
				"x": 0.5813972912,
				"y": -1.054610197,
				"z": 3.3851044579,
				"element": "Cl" 
			},
			{
				"x": -1.1828625379,
				"y": 0.0992673792,
				"z": 3.0870413481,
				"element": "S" 
			},
			{
				"x": -2.2021508466,
				"y": -0.7965100749,
				"z": 2.5552409416,
				"element": "O" 
			},
			{
				"x": -1.3987251544,
				"y": 0.8771448113,
				"z": 4.3004699446,
				"element": "O" 
			},
			{
				"x": -0.6197112863,
				"y": 1.2572384679,
				"z": 1.7676076598,
				"element": "C" 
			},
			{
				"x": -0.287386174,
				"y": 0.6091183208,
				"z": 0.4587034186,
				"element": "C" 
			},
			{
				"x": -1.3077493915,
				"y": 0.1521908987,
				"z": -0.3889369814,
				"element": "C" 
			},
			{
				"x": -0.9998948701,
				"y": -0.4374847596,
				"z": -1.6090496361,
				"element": "C" 
			},
			{
				"x": 0.3430308853,
				"y": -0.576678788,
				"z": -1.999521444,
				"element": "C" 
			},
			{
				"x": 1.369287113,
				"y": -0.1246999233,
				"z": -1.1543932688,
				"element": "C" 
			},
			{
				"x": 1.0498964872,
				"y": 0.4598990394,
				"z": 0.0665353313,
				"element": "C" 
			},
			{
				"x": 0.6651913512,
				"y": -1.1757947529,
				"z": -3.2624123765,
				"element": "C" 
			},
			{
				"x": 0.9269808794,
				"y": -1.6589787906,
				"z": -4.2873682381,
				"element": "N" 
			},
			{
				"x": -1.4783545166,
				"y": 1.9337515611,
				"z": 1.7000889506,
				"element": "H" 
			},
			{
				"x": 0.2187331316,
				"y": 1.7953829987,
				"z": 2.2130190079,
				"element": "H" 
			},
			{
				"x": -2.3453430692,
				"y": 0.2489203787,
				"z": -0.0863729145,
				"element": "H" 
			},
			{
				"x": -1.7891270041,
				"y": -0.7903967055,
				"z": -2.2636865292,
				"element": "H" 
			},
			{
				"x": 2.4044909906,
				"y": -0.2345502131,
				"z": -1.4581501667,
				"element": "H" 
			},
			{
				"x": 1.8457967212,
				"y": 0.8050903494,
				"z": 0.7193804948,
				"element": "H" 
			}
		],
		 "valence_orbital": [ 
			{
				"type": "occ",
				"energy": -0.34381,
				"method": "rhf"
			},
			{
				"type": "occ",
				"energy": -0.34089,
				"method": "rhf"
			},
			{
				"type": "occ",
				"energy": -0.32592,
				"method": "rhf"
			},
			{
				"type": "occ",
				"energy": -0.29486,
				"method": "rhf"
			},
			{
				"type": "occ",
				"energy": -0.28236,
				"method": "rhf"
			},
			{
				"type": "unocc",
				"energy": -0.10007,
				"method": "rhf"
			},
			{
				"type": "unocc",
				"energy": -0.07031,
				"method": "rhf"
			},
			{
				"type": "unocc",
				"energy": -0.04478,
				"method": "rhf"
			},
			{
				"type": "unocc",
				"energy": 0.02311,
				"method": "rhf"
			},
			{
				"type": "unocc",
				"energy": 0.02928,
				"method": "rhf"
			}
		],
		"cosmo_sigma_profile": { 
			"-0.025": 0.0,
			"-0.024": 0.0,
			"-0.023": 0.0,
			"-0.022": 0.0,
			"-0.021": 0.0,
			"-0.02": 0.0,
			"-0.019": 0.0,
			"-0.018": 0.0,
			"-0.017": 0.0,
			"-0.016": 0.0,
			"-0.015": 0.0,
			"-0.014": 0.0,
			"-0.013": 0.419998040924,
			"-0.012": 1.55964500079,
			"-0.011": 4.6907403596,
			"-0.01": 5.30483974683,
			"-0.009": 5.23459240074,
			"-0.008": 11.7507934262,
			"-0.007": 11.6398604514,
			"-0.006": 10.4856465548,
			"-0.005": 7.53059952332,
			"-0.004": 8.30629155505,
			"-0.003": 8.71486560843,
			"-0.002": 11.8748537992,
			"-0.001": 14.8250519811,
			"0.0": 15.930096337,
			"0.001": 21.3235280355,
			"0.002": 15.9002712473,
			"0.003": 14.65365391,
			"0.004": 8.62439792528,
			"0.005": 6.12729940415,
			"0.006": 5.69776422024,
			"0.007": 8.52671461944,
			"0.008": 13.7951184928,
			"0.009": 9.0084475032,
			"0.01": 3.0893436347,
			"0.011": 2.63164346328,
			"0.012": 2.33065580169,
			"0.013": 0.93830149804,
			"0.014": 0.0,
			"0.015": 0.0,
			"0.016": 0.0,
			"0.017": 0.0,
			"0.018": 0.0,
			"0.019": 0.0,
			"0.02": 0.0,
			"0.021": 0.0,
			"0.022": 0.0,
			"0.023": 0.0,
			"0.024": 0.0,
			"0.025": 0.0
		}
	}
}
