{
	 "smiles": "CC(O)C1=CC=C(I)C=C1", 
	 "Tm": 317.15, 
	 "num_atms": 19, 
	 "gaussian": { 
		 "optdone": 1, 
		 "sigma_profile": "yes", 
		 "theory": "DFT", 
		 "functional": "B3LYP", 
		 "basiset": "6-31G**", 
		 "properties": { 
			 "R2extent": 2397.1698, 
			 "electric_dipole_moment_norm": 1.57476326475, 
			 "electric_quadrupole_moment_norm": 7.04527930532, 
			 "total_energy": -396.883905094, 
			 "HOMO_LUMO_gap": 0.19839, 
			 "cosmo_polarized_energy": -7.71, 
			 "cosmo_cavitation_energy": 25.67, 
			 "cosmo_dispersion_energy": -20.06, 
			 "cosmo_repulsion_energy": 1.61, 
			 "cosmo_total_nonelectrostatic_energy": 7.21, 
			 "SMD_solvation_energy": 3.56 
		},
		"coords": [
			{
				"x": 0.2057521068,
				"y": -2.6598038526,
				"z": -0.0708307406,
				"element": "C" 
			},
			{
				"x": 0.3491449142,
				"y": -1.3030921397,
				"z": 0.6208928972,
				"element": "C" 
			},
			{
				"x": 1.121192605,
				"y": -1.5370838587,
				"z": 1.7964501342,
				"element": "O" 
			},
			{
				"x": 0.9913343409,
				"y": -0.2641900087,
				"z": -0.2882552423,
				"element": "C" 
			},
			{
				"x": 2.3838446851,
				"y": -0.1352344701,
				"z": -0.3484626699,
				"element": "C" 
			},
			{
				"x": 2.9842185422,
				"y": 0.791987525,
				"z": -1.2013177138,
				"element": "C" 
			},
			{
				"x": 2.1788987509,
				"y": 1.60008379,
				"z": -2.005813162,
				"element": "C" 
			},
			{
				"x": 3.0793304244,
				"y": 3.0183442556,
				"z": -3.303364298,
				"element": "I" 
			},
			{
				"x": 0.7878601534,
				"y": 1.4925499262,
				"z": -1.9615758716,
				"element": "C" 
			},
			{
				"x": 0.2058469409,
				"y": 0.5620884775,
				"z": -1.0993119298,
				"element": "C" 
			},
			{
				"x": -0.4149598974,
				"y": -2.5740448613,
				"z": -0.9670595502,
				"element": "H" 
			},
			{
				"x": -0.2543054243,
				"y": -3.3788182635,
				"z": 0.6129818268,
				"element": "H" 
			},
			{
				"x": 1.1898084987,
				"y": -3.0375422908,
				"z": -0.3637201744,
				"element": "H" 
			},
			{
				"x": -0.6572677994,
				"y": -0.9441375328,
				"z": 0.8936249332,
				"element": "H" 
			},
			{
				"x": 1.2283557261,
				"y": -0.6918107038,
				"z": 2.2529996348,
				"element": "H" 
			},
			{
				"x": 2.9990589026,
				"y": -0.7644333547,
				"z": 0.2874399199,
				"element": "H" 
			},
			{
				"x": 4.0644049256,
				"y": 0.8813877385,
				"z": -1.2354423736,
				"element": "H" 
			},
			{
				"x": 0.1642724764,
				"y": 2.1270754542,
				"z": -2.5814179066,
				"element": "H" 
			},
			{
				"x": -0.8784908722,
				"y": 0.48527417,
				"z": -1.0589177134,
				"element": "H" 
			}
		],
		 "valence_orbital": [ 
			{
				"type": "occ",
				"energy": -0.29593,
				"method": "rhf"
			},
			{
				"type": "occ",
				"energy": -0.27786,
				"method": "rhf"
			},
			{
				"type": "occ",
				"energy": -0.26783,
				"method": "rhf"
			},
			{
				"type": "occ",
				"energy": -0.26473,
				"method": "rhf"
			},
			{
				"type": "occ",
				"energy": -0.23633,
				"method": "rhf"
			},
			{
				"type": "unocc",
				"energy": -0.03794,
				"method": "rhf"
			},
			{
				"type": "unocc",
				"energy": -0.02025,
				"method": "rhf"
			},
			{
				"type": "unocc",
				"energy": -0.01654,
				"method": "rhf"
			},
			{
				"type": "unocc",
				"energy": 0.04321,
				"method": "rhf"
			},
			{
				"type": "unocc",
				"energy": 0.05031,
				"method": "rhf"
			}
		],
		"cosmo_sigma_profile": { 
			"-0.025": 0.0,
			"-0.024": 0.0,
			"-0.023": 0.0,
			"-0.022": 0.0,
			"-0.021": 0.0,
			"-0.02": 0.0,
			"-0.019": 0.0,
			"-0.018": 0.0,
			"-0.017": 0.0,
			"-0.016": 0.163412372307,
			"-0.015": 0.660360322762,
			"-0.014": 1.16073014929,
			"-0.013": 0.802012355307,
			"-0.012": 1.1177445004,
			"-0.011": 0.536858604971,
			"-0.01": 0.668683358888,
			"-0.009": 0.875729989547,
			"-0.008": 0.571539529609,
			"-0.007": 2.90616857509,
			"-0.006": 9.44737762643,
			"-0.005": 11.6687097304,
			"-0.004": 16.641359599,
			"-0.003": 15.6793087851,
			"-0.002": 15.883067318,
			"-0.001": 15.285745291,
			"0.0": 17.3696357661,
			"0.001": 16.780600479,
			"0.002": 15.0353514834,
			"0.003": 17.507929104,
			"0.004": 24.2316053602,
			"0.005": 12.4567481415,
			"0.006": 0.977566452533,
			"0.007": 0.584588040548,
			"0.008": 1.64556965674,
			"0.009": 1.0980851814,
			"0.01": 1.26382767476,
			"0.011": 0.802058251918,
			"0.012": 1.33124822889,
			"0.013": 1.67876803447,
			"0.014": 1.45748131006,
			"0.015": 0.036295166451,
			"0.016": 0.0,
			"0.017": 0.0,
			"0.018": 0.0,
			"0.019": 0.0,
			"0.02": 0.0,
			"0.021": 0.0,
			"0.022": 0.0,
			"0.023": 0.0,
			"0.024": 0.0,
			"0.025": 0.0
		}
	}
}
