{
	 "smiles": "CC(=O)NC1=CC=C(OCC=C)C=C1", 
	 "Tm": 364.15, 
	 "num_atms": 27, 
	 "gaussian": { 
		 "optdone": 1, 
		 "sigma_profile": "yes", 
		 "theory": "DFT", 
		 "functional": "B3LYP", 
		 "basiset": "6-31G**", 
		 "properties": { 
			 "R2extent": 5202.1744, 
			 "electric_dipole_moment_norm": 3.78250190482, 
			 "electric_quadrupole_moment_norm": 21.5949037458, 
			 "total_energy": -632.182376436, 
			 "HOMO_LUMO_gap": 0.19012, 
			 "cosmo_polarized_energy": -13.81, 
			 "cosmo_cavitation_energy": 31.19, 
			 "cosmo_dispersion_energy": -22.55, 
			 "cosmo_repulsion_energy": 1.77, 
			 "cosmo_total_nonelectrostatic_energy": 10.41, 
			 "SMD_solvation_energy": 7.09 
		},
		"coords": [
			{
				"x": 3.8537330854,
				"y": -0.8863997377,
				"z": -3.1046548676,
				"element": "C" 
			},
			{
				"x": 4.6231819623,
				"y": -0.0463597631,
				"z": -2.1069642173,
				"element": "C" 
			},
			{
				"x": 5.7892755045,
				"y": 0.2725120312,
				"z": -2.3018625174,
				"element": "O" 
			},
			{
				"x": 4.007243753,
				"y": 0.379483257,
				"z": -0.941878908,
				"element": "N" 
			},
			{
				"x": 2.7317931049,
				"y": 0.2405704495,
				"z": -0.3547566854,
				"element": "C" 
			},
			{
				"x": 2.5473511796,
				"y": 0.871331146,
				"z": 0.8928555313,
				"element": "C" 
			},
			{
				"x": 1.3394525597,
				"y": 0.8059171096,
				"z": 1.5667112489,
				"element": "C" 
			},
			{
				"x": 0.2580690153,
				"y": 0.1022060709,
				"z": 1.0174103655,
				"element": "C" 
			},
			{
				"x": -0.8903593176,
				"y": 0.0963793711,
				"z": 1.7583784188,
				"element": "O" 
			},
			{
				"x": -2.0177170312,
				"y": -0.5990412116,
				"z": 1.2530417157,
				"element": "C" 
			},
			{
				"x": -3.1665938183,
				"y": -0.4825422603,
				"z": 2.2115927327,
				"element": "C" 
			},
			{
				"x": -3.1458907179,
				"y": 0.1734323485,
				"z": 3.369588,
				"element": "C" 
			},
			{
				"x": 0.4242951764,
				"y": -0.528032217,
				"z": -0.2170593915,
				"element": "C" 
			},
			{
				"x": 1.6471452905,
				"y": -0.4595266623,
				"z": -0.8951414593,
				"element": "C" 
			},
			{
				"x": 4.5278198448,
				"y": -1.1024559114,
				"z": -3.9330062639,
				"element": "H" 
			},
			{
				"x": 2.9759754735,
				"y": -0.3538394502,
				"z": -3.4840395444,
				"element": "H" 
			},
			{
				"x": 3.5164200553,
				"y": -1.8278390635,
				"z": -2.6597720552,
				"element": "H" 
			},
			{
				"x": 4.6635976989,
				"y": 0.9253846044,
				"z": -0.3964321524,
				"element": "H" 
			},
			{
				"x": 3.3725319453,
				"y": 1.4225539804,
				"z": 1.337294074,
				"element": "H" 
			},
			{
				"x": 1.2106750443,
				"y": 1.2958435413,
				"z": 2.5261568581,
				"element": "H" 
			},
			{
				"x": -2.3087154455,
				"y": -0.1916072492,
				"z": 0.2705771171,
				"element": "H" 
			},
			{
				"x": -1.7709082847,
				"y": -1.6619182542,
				"z": 1.0939719854,
				"element": "H" 
			},
			{
				"x": -4.0699648102,
				"y": -0.9960920936,
				"z": 1.8845953857,
				"element": "H" 
			},
			{
				"x": -4.0224483728,
				"y": 0.2105519073,
				"z": 4.0085046932,
				"element": "H" 
			},
			{
				"x": -2.2547061048,
				"y": 0.6895003925,
				"z": 3.7090757829,
				"element": "H" 
			},
			{
				"x": -0.3863495676,
				"y": -1.0816824821,
				"z": -0.6753056325,
				"element": "H" 
			},
			{
				"x": 1.7225927768,
				"y": -0.9645298533,
				"z": -1.8464802144,
				"element": "H" 
			}
		],
		 "valence_orbital": [ 
			{
				"type": "occ",
				"energy": -0.2834,
				"method": "rhf"
			},
			{
				"type": "occ",
				"energy": -0.26411,
				"method": "rhf"
			},
			{
				"type": "occ",
				"energy": -0.25896,
				"method": "rhf"
			},
			{
				"type": "occ",
				"energy": -0.2523,
				"method": "rhf"
			},
			{
				"type": "occ",
				"energy": -0.20338,
				"method": "rhf"
			},
			{
				"type": "unocc",
				"energy": -0.01326,
				"method": "rhf"
			},
			{
				"type": "unocc",
				"energy": -0.00495,
				"method": "rhf"
			},
			{
				"type": "unocc",
				"energy": 0.0161,
				"method": "rhf"
			},
			{
				"type": "unocc",
				"energy": 0.04547,
				"method": "rhf"
			},
			{
				"type": "unocc",
				"energy": 0.07828,
				"method": "rhf"
			}
		],
		"cosmo_sigma_profile": { 
			"-0.025": 0.0,
			"-0.024": 0.0,
			"-0.023": 0.0,
			"-0.022": 0.0,
			"-0.021": 0.0,
			"-0.02": 0.0,
			"-0.019": 0.0,
			"-0.018": 0.0,
			"-0.017": 0.0,
			"-0.016": 0.0,
			"-0.015": 0.0,
			"-0.014": 0.528535369918,
			"-0.013": 1.15220135734,
			"-0.012": 1.31817090236,
			"-0.011": 1.0097863515,
			"-0.01": 0.757242899397,
			"-0.009": 1.64998749669,
			"-0.008": 0.988973902767,
			"-0.007": 5.14426539293,
			"-0.006": 19.9527573885,
			"-0.005": 25.1953284559,
			"-0.004": 20.4250567281,
			"-0.003": 15.9382203493,
			"-0.002": 16.7592540291,
			"-0.001": 17.5319320335,
			"0.0": 12.2130337975,
			"0.001": 13.4959767098,
			"0.002": 13.7823046676,
			"0.003": 15.1139767979,
			"0.004": 16.4547889358,
			"0.005": 17.1504400229,
			"0.006": 7.6429730235,
			"0.007": 4.80896208538,
			"0.008": 3.44556976749,
			"0.009": 0.845304131082,
			"0.01": 0.993295249917,
			"0.011": 2.08677032683,
			"0.012": 1.59584759395,
			"0.013": 4.88635785658,
			"0.014": 4.31996352786,
			"0.015": 0.69901420469,
			"0.016": 0.0,
			"0.017": 0.0,
			"0.018": 0.0,
			"0.019": 0.0,
			"0.02": 0.0,
			"0.021": 0.0,
			"0.022": 0.0,
			"0.023": 0.0,
			"0.024": 0.0,
			"0.025": 0.0
		}
	}
}
