{
	 "smiles": "CCCC(CCC)(C(O)=O)C(O)=O", 
	 "Tm": 428.15, 
	 "num_atms": 29, 
	 "gaussian": { 
		 "optdone": 1, 
		 "sigma_profile": "yes", 
		 "theory": "DFT", 
		 "functional": "B3LYP", 
		 "basiset": "6-31G**", 
		 "properties": { 
			 "R2extent": 2910.9146, 
			 "electric_dipole_moment_norm": 3.53517732653, 
			 "electric_quadrupole_moment_norm": 15.5100537062, 
			 "total_energy": -653.532755701, 
			 "HOMO_LUMO_gap": 0.24364, 
			 "cosmo_polarized_energy": -14.74, 
			 "cosmo_cavitation_energy": 29.94, 
			 "cosmo_dispersion_energy": -21.25, 
			 "cosmo_repulsion_energy": 1.71, 
			 "cosmo_total_nonelectrostatic_energy": 10.4, 
			 "SMD_solvation_energy": 6.67 
		},
		"coords": [
			{
				"x": 3.2207044503,
				"y": -1.5642728022,
				"z": -0.9299912463,
				"element": "C" 
			},
			{
				"x": 1.8023030973,
				"y": -0.9859972708,
				"z": -1.0008440741,
				"element": "C" 
			},
			{
				"x": 1.0126962137,
				"y": -1.2917398455,
				"z": 0.2794479532,
				"element": "C" 
			},
			{
				"x": -0.4917017385,
				"y": -0.8039269986,
				"z": 0.3120195131,
				"element": "C" 
			},
			{
				"x": -0.5781682254,
				"y": 0.7205024862,
				"z": 0.0419145882,
				"element": "C" 
			},
			{
				"x": -1.9201422562,
				"y": 1.4279439523,
				"z": 0.3208374347,
				"element": "C" 
			},
			{
				"x": -3.1466987932,
				"y": 0.8912809421,
				"z": -0.4277279286,
				"element": "C" 
			},
			{
				"x": -1.2251805838,
				"y": -1.5800327461,
				"z": -0.8245392475,
				"element": "C" 
			},
			{
				"x": -1.7853883677,
				"y": -2.7712650115,
				"z": -0.5529140079,
				"element": "O" 
			},
			{
				"x": -1.2234556312,
				"y": -1.1555160278,
				"z": -1.9569000557,
				"element": "O" 
			},
			{
				"x": -0.931231951,
				"y": -1.097136822,
				"z": 1.7474489824,
				"element": "C" 
			},
			{
				"x": -1.2017486773,
				"y": -2.4241190855,
				"z": 1.9833561787,
				"element": "O" 
			},
			{
				"x": -0.963128028,
				"y": -0.3025344844,
				"z": 2.6554235903,
				"element": "O" 
			},
			{
				"x": 3.7813111968,
				"y": -1.3340160199,
				"z": -1.8411915671,
				"element": "H" 
			},
			{
				"x": 3.7808446047,
				"y": -1.1533518638,
				"z": -0.0821757076,
				"element": "H" 
			},
			{
				"x": 3.202231203,
				"y": -2.6543338741,
				"z": -0.8182512336,
				"element": "H" 
			},
			{
				"x": 1.8598651553,
				"y": 0.0973271077,
				"z": -1.151259632,
				"element": "H" 
			},
			{
				"x": 1.2767535688,
				"y": -1.3904604404,
				"z": -1.8709279819,
				"element": "H" 
			},
			{
				"x": 1.5185810272,
				"y": -0.824155641,
				"z": 1.1338424323,
				"element": "H" 
			},
			{
				"x": 1.0243995258,
				"y": -2.3734708946,
				"z": 0.4617771015,
				"element": "H" 
			},
			{
				"x": 0.1935885497,
				"y": 1.2058556689,
				"z": 0.649242067,
				"element": "H" 
			},
			{
				"x": -0.3106000384,
				"y": 0.8626255625,
				"z": -1.0069025532,
				"element": "H" 
			},
			{
				"x": -1.7758514209,
				"y": 2.4806934843,
				"z": 0.0465231946,
				"element": "H" 
			},
			{
				"x": -2.1154860936,
				"y": 1.4223850721,
				"z": 1.3970853398,
				"element": "H" 
			},
			{
				"x": -3.410901364,
				"y": -0.1262854803,
				"z": -0.116726013,
				"element": "H" 
			},
			{
				"x": -4.0183803954,
				"y": 1.521749347,
				"z": -0.2230849761,
				"element": "H" 
			},
			{
				"x": -2.9860285901,
				"y": 0.8667946088,
				"z": -1.5089283858,
				"element": "H" 
			},
			{
				"x": -1.7086705105,
				"y": -2.9786464057,
				"z": 0.3959507032,
				"element": "H" 
			},
			{
				"x": -1.4351159277,
				"y": -2.500396518,
				"z": 2.9242955315,
				"element": "H" 
			}
		],
		 "valence_orbital": [ 
			{
				"type": "occ",
				"energy": -0.32847,
				"method": "rhf"
			},
			{
				"type": "occ",
				"energy": -0.32182,
				"method": "rhf"
			},
			{
				"type": "occ",
				"energy": -0.30783,
				"method": "rhf"
			},
			{
				"type": "occ",
				"energy": -0.29641,
				"method": "rhf"
			},
			{
				"type": "occ",
				"energy": -0.26563,
				"method": "rhf"
			},
			{
				"type": "unocc",
				"energy": -0.02199,
				"method": "rhf"
			},
			{
				"type": "unocc",
				"energy": 0.00812,
				"method": "rhf"
			},
			{
				"type": "unocc",
				"energy": 0.0456,
				"method": "rhf"
			},
			{
				"type": "unocc",
				"energy": 0.0863,
				"method": "rhf"
			},
			{
				"type": "unocc",
				"energy": 0.10137,
				"method": "rhf"
			}
		],
		"cosmo_sigma_profile": { 
			"-0.025": 0.0,
			"-0.024": 0.0,
			"-0.023": 0.0,
			"-0.022": 0.0,
			"-0.021": 0.0,
			"-0.02": 0.244423741769,
			"-0.019": 1.03321644693,
			"-0.018": 0.676090470647,
			"-0.017": 0.894794918083,
			"-0.016": 1.06558092114,
			"-0.015": 0.647190924039,
			"-0.014": 0.210944754551,
			"-0.013": 0.973535596217,
			"-0.012": 0.624071592709,
			"-0.011": 0.845177112529,
			"-0.01": 0.895219166572,
			"-0.009": 2.42383136433,
			"-0.008": 3.52772586033,
			"-0.007": 3.33435562492,
			"-0.006": 3.58888693127,
			"-0.005": 7.22315834688,
			"-0.004": 11.8574492979,
			"-0.003": 22.9072777665,
			"-0.002": 26.1559782823,
			"-0.001": 30.3555519902,
			"0.0": 26.8793051341,
			"0.001": 25.4668576888,
			"0.002": 9.84852229969,
			"0.003": 4.29065309316,
			"0.004": 3.84643697733,
			"0.005": 5.44515131455,
			"0.006": 4.1282849733,
			"0.007": 3.8255591372,
			"0.008": 3.59894844212,
			"0.009": 5.45109650816,
			"0.01": 6.7720508396,
			"0.011": 7.20171683524,
			"0.012": 3.91506877076,
			"0.013": 1.76320815276,
			"0.014": 0.128769486507,
			"0.015": 0.0,
			"0.016": 0.0,
			"0.017": 0.0,
			"0.018": 0.0,
			"0.019": 0.0,
			"0.02": 0.0,
			"0.021": 0.0,
			"0.022": 0.0,
			"0.023": 0.0,
			"0.024": 0.0,
			"0.025": 0.0
		}
	}
}
