{
	 "smiles": "CC1=NN(N=C1C(=O)NN)C1=CC=CC=C1", 
	 "Tm": 397.15, 
	 "num_atms": 27, 
	 "gaussian": { 
		 "optdone": 1, 
		 "sigma_profile": "yes", 
		 "theory": "DFT", 
		 "functional": "B3LYP", 
		 "basiset": "6-31G**", 
		 "properties": { 
			 "R2extent": 4503.6008, 
			 "electric_dipole_moment_norm": 3.45319000346, 
			 "electric_quadrupole_moment_norm": 4.67866249691, 
			 "total_energy": -736.632387423, 
			 "HOMO_LUMO_gap": 0.1807, 
			 "cosmo_polarized_energy": -12.65, 
			 "cosmo_cavitation_energy": 31.79, 
			 "cosmo_dispersion_energy": -23.12, 
			 "cosmo_repulsion_energy": 1.8, 
			 "cosmo_total_nonelectrostatic_energy": 10.47, 
			 "SMD_solvation_energy": 5.43 
		},
		"coords": [
			{
				"x": -2.5151901496,
				"y": -1.1342802693,
				"z": -1.306920637,
				"element": "C" 
			},
			{
				"x": -1.2772962907,
				"y": -0.8492739397,
				"z": -0.5231989766,
				"element": "C" 
			},
			{
				"x": -0.1701131741,
				"y": -0.3893127768,
				"z": -1.1016792032,
				"element": "N" 
			},
			{
				"x": 0.7089387645,
				"y": -0.2591668715,
				"z": -0.0950393066,
				"element": "N" 
			},
			{
				"x": 0.2486056031,
				"y": -0.6037903026,
				"z": 1.1036692144,
				"element": "N" 
			},
			{
				"x": -1.0152500189,
				"y": -0.9854356393,
				"z": 0.8687487075,
				"element": "C" 
			},
			{
				"x": -1.9938759075,
				"y": -1.4718213977,
				"z": 1.8762410539,
				"element": "C" 
			},
			{
				"x": -3.1276528045,
				"y": -1.7929224305,
				"z": 1.5205494521,
				"element": "O" 
			},
			{
				"x": -1.6272866656,
				"y": -1.5593082118,
				"z": 3.1923348778,
				"element": "N" 
			},
			{
				"x": -0.4015755516,
				"y": -1.2476317189,
				"z": 3.8073601597,
				"element": "N" 
			},
			{
				"x": 2.0347698933,
				"y": 0.2138522357,
				"z": -0.3042664059,
				"element": "C" 
			},
			{
				"x": 2.4424607479,
				"y": 0.555387523,
				"z": -1.5973094223,
				"element": "C" 
			},
			{
				"x": 3.7416650015,
				"y": 1.01811398,
				"z": -1.7973948202,
				"element": "C" 
			},
			{
				"x": 4.6268041648,
				"y": 1.1403607295,
				"z": -0.7243095888,
				"element": "C" 
			},
			{
				"x": 4.2040723356,
				"y": 0.7950607458,
				"z": 0.5610874192,
				"element": "C" 
			},
			{
				"x": 2.9087759772,
				"y": 0.330531934,
				"z": 0.7806009107,
				"element": "C" 
			},
			{
				"x": -2.8082927783,
				"y": -2.181892177,
				"z": -1.1999999036,
				"element": "H" 
			},
			{
				"x": -3.3546695815,
				"y": -0.5423085391,
				"z": -0.9332768235,
				"element": "H" 
			},
			{
				"x": -2.3446029246,
				"y": -0.9060739878,
				"z": -2.3610783813,
				"element": "H" 
			},
			{
				"x": -2.3532622948,
				"y": -1.8988286925,
				"z": 3.8092244058,
				"element": "H" 
			},
			{
				"x": -0.173391058,
				"y": -0.2749445461,
				"z": 3.6140206996,
				"element": "H" 
			},
			{
				"x": 0.3351866446,
				"y": -1.7984707235,
				"z": 3.3723235964,
				"element": "H" 
			},
			{
				"x": 1.7447019158,
				"y": 0.4551574959,
				"z": -2.4191116699,
				"element": "H" 
			},
			{
				"x": 4.060964652,
				"y": 1.2840612347,
				"z": -2.8005506844,
				"element": "H" 
			},
			{
				"x": 5.6374034614,
				"y": 1.5015786622,
				"z": -0.8880285125,
				"element": "H" 
			},
			{
				"x": 4.8847446104,
				"y": 0.8865496305,
				"z": 1.4021457429,
				"element": "H" 
			},
			{
				"x": 2.5708654276,
				"y": 0.0601080526,
				"z": 1.7730580955,
				"element": "H" 
			}
		],
		 "valence_orbital": [ 
			{
				"type": "occ",
				"energy": -0.28314,
				"method": "rhf"
			},
			{
				"type": "occ",
				"energy": -0.26575,
				"method": "rhf"
			},
			{
				"type": "occ",
				"energy": -0.25693,
				"method": "rhf"
			},
			{
				"type": "occ",
				"energy": -0.25042,
				"method": "rhf"
			},
			{
				"type": "occ",
				"energy": -0.23665,
				"method": "rhf"
			},
			{
				"type": "unocc",
				"energy": -0.05595,
				"method": "rhf"
			},
			{
				"type": "unocc",
				"energy": -0.01731,
				"method": "rhf"
			},
			{
				"type": "unocc",
				"energy": -0.00544,
				"method": "rhf"
			},
			{
				"type": "unocc",
				"energy": 0.02418,
				"method": "rhf"
			},
			{
				"type": "unocc",
				"energy": 0.0727,
				"method": "rhf"
			}
		],
		"cosmo_sigma_profile": { 
			"-0.025": 0.0,
			"-0.024": 0.0,
			"-0.023": 0.0,
			"-0.022": 0.0,
			"-0.021": 0.0,
			"-0.02": 0.0,
			"-0.019": 0.0,
			"-0.018": 0.0,
			"-0.017": 0.0,
			"-0.016": 0.0,
			"-0.015": 0.0,
			"-0.014": 0.459233469981,
			"-0.013": 0.867972683979,
			"-0.012": 1.1874638061,
			"-0.011": 1.31227871036,
			"-0.01": 2.68888633874,
			"-0.009": 2.57090538302,
			"-0.008": 2.91835006932,
			"-0.007": 5.37214829974,
			"-0.006": 11.5871886976,
			"-0.005": 17.4303244112,
			"-0.004": 16.4364763534,
			"-0.003": 15.8993719513,
			"-0.002": 19.5705223599,
			"-0.001": 27.5871014351,
			"0.0": 22.8524396,
			"0.001": 19.8812688893,
			"0.002": 18.3806054356,
			"0.003": 14.6211186917,
			"0.004": 14.8802556103,
			"0.005": 7.12069134334,
			"0.006": 4.02256466757,
			"0.007": 3.8477172121,
			"0.008": 2.74618356214,
			"0.009": 3.22540733462,
			"0.01": 2.36863152287,
			"0.011": 2.9884641556,
			"0.012": 2.61956606801,
			"0.013": 4.2720420561,
			"0.014": 2.6180648742,
			"0.015": 0.941914956005,
			"0.016": 0.330997219853,
			"0.017": 0.0,
			"0.018": 0.0,
			"0.019": 0.0,
			"0.02": 0.0,
			"0.021": 0.0,
			"0.022": 0.0,
			"0.023": 0.0,
			"0.024": 0.0,
			"0.025": 0.0
		}
	}
}
