{
	 "smiles": "CC(=O)NC(CC(O)=O)C1=CC=CC=C1", 
	 "Tm": 439.15, 
	 "num_atms": 28, 
	 "gaussian": { 
		 "optdone": 1, 
		 "sigma_profile": "yes", 
		 "theory": "DFT", 
		 "functional": "B3LYP", 
		 "basiset": "6-31G**", 
		 "properties": { 
			 "R2extent": 3483.9004, 
			 "electric_dipole_moment_norm": 4.50046798122, 
			 "electric_quadrupole_moment_norm": 13.0622597708, 
			 "total_energy": -707.455773782, 
			 "HOMO_LUMO_gap": 0.22584, 
			 "cosmo_polarized_energy": -18.56, 
			 "cosmo_cavitation_energy": 31.48, 
			 "cosmo_dispersion_energy": -21.71, 
			 "cosmo_repulsion_energy": 1.71, 
			 "cosmo_total_nonelectrostatic_energy": 11.48, 
			 "SMD_solvation_energy": 7.43 
		},
		"coords": [
			{
				"x": -1.8174303946,
				"y": -1.0358286339,
				"z": 1.1254634033,
				"element": "C" 
			},
			{
				"x": -1.5981094252,
				"y": 0.3426019169,
				"z": 1.7192171459,
				"element": "C" 
			},
			{
				"x": -2.3968090304,
				"y": 0.8557921201,
				"z": 2.4904378114,
				"element": "O" 
			},
			{
				"x": -0.4287326701,
				"y": 1.0099681648,
				"z": 1.4037452294,
				"element": "N" 
			},
			{
				"x": 0.6358727069,
				"y": 0.6910173698,
				"z": 0.4484540244,
				"element": "C" 
			},
			{
				"x": 1.4045073535,
				"y": -0.6026890368,
				"z": 0.8236442925,
				"element": "C" 
			},
			{
				"x": 1.6825357333,
				"y": -0.6854911639,
				"z": 2.3076313725,
				"element": "C" 
			},
			{
				"x": 2.4562722818,
				"y": 0.3430738618,
				"z": 2.7334597871,
				"element": "O" 
			},
			{
				"x": 1.281217525,
				"y": -1.55353114,
				"z": 3.049557676,
				"element": "O" 
			},
			{
				"x": 0.1777884823,
				"y": 0.723614405,
				"z": -1.0171518705,
				"element": "C" 
			},
			{
				"x": 0.7915436263,
				"y": -0.0562137236,
				"z": -2.0070656613,
				"element": "C" 
			},
			{
				"x": 0.3966285932,
				"y": 0.0411742878,
				"z": -3.3436007221,
				"element": "C" 
			},
			{
				"x": -0.6185585841,
				"y": 0.9213404285,
				"z": -3.7150392844,
				"element": "C" 
			},
			{
				"x": -1.2364862767,
				"y": 1.704390513,
				"z": -2.7380730172,
				"element": "C" 
			},
			{
				"x": -0.8418243311,
				"y": 1.6058676315,
				"z": -1.4045890369,
				"element": "C" 
			},
			{
				"x": -1.2226383335,
				"y": -1.765889288,
				"z": 1.6852250907,
				"element": "H" 
			},
			{
				"x": -1.5376756451,
				"y": -1.092732616,
				"z": 0.0704575321,
				"element": "H" 
			},
			{
				"x": -2.8724729399,
				"y": -1.2844032742,
				"z": 1.2406476578,
				"element": "H" 
			},
			{
				"x": -0.3656864448,
				"y": 1.8990005005,
				"z": 1.8809476249,
				"element": "H" 
			},
			{
				"x": 1.3532626441,
				"y": 1.5091444635,
				"z": 0.5784128664,
				"element": "H" 
			},
			{
				"x": 2.36362287,
				"y": -0.6120626606,
				"z": 0.2955336157,
				"element": "H" 
			},
			{
				"x": 0.8523463225,
				"y": -1.4991433709,
				"z": 0.5415271313,
				"element": "H" 
			},
			{
				"x": 2.5642027032,
				"y": 0.2226584762,
				"z": 3.6921819642,
				"element": "H" 
			},
			{
				"x": 1.5842929414,
				"y": -0.7506011948,
				"z": -1.7495386654,
				"element": "H" 
			},
			{
				"x": 0.884179772,
				"y": -0.5771789863,
				"z": -4.091890877,
				"element": "H" 
			},
			{
				"x": -0.9275786045,
				"y": 0.994940002,
				"z": -4.7535516032,
				"element": "H" 
			},
			{
				"x": -2.0309521752,
				"y": 2.3925218552,
				"z": -3.012455677,
				"element": "H" 
			},
			{
				"x": -1.3359187003,
				"y": 2.2115590926,
				"z": -0.6517878105,
				"element": "H" 
			}
		],
		 "valence_orbital": [ 
			{
				"type": "occ",
				"energy": -0.28363,
				"method": "rhf"
			},
			{
				"type": "occ",
				"energy": -0.26111,
				"method": "rhf"
			},
			{
				"type": "occ",
				"energy": -0.26001,
				"method": "rhf"
			},
			{
				"type": "occ",
				"energy": -0.2478,
				"method": "rhf"
			},
			{
				"type": "occ",
				"energy": -0.24214,
				"method": "rhf"
			},
			{
				"type": "unocc",
				"energy": -0.0163,
				"method": "rhf"
			},
			{
				"type": "unocc",
				"energy": -0.01231,
				"method": "rhf"
			},
			{
				"type": "unocc",
				"energy": 0.00067,
				"method": "rhf"
			},
			{
				"type": "unocc",
				"energy": 0.03011,
				"method": "rhf"
			},
			{
				"type": "unocc",
				"energy": 0.06215,
				"method": "rhf"
			}
		],
		"cosmo_sigma_profile": { 
			"-0.025": 0.0,
			"-0.024": 0.0,
			"-0.023": 0.0,
			"-0.022": 0.0,
			"-0.021": 0.0,
			"-0.02": 0.0,
			"-0.019": 0.129353322498,
			"-0.018": 0.719216226393,
			"-0.017": 0.879506027149,
			"-0.016": 0.77331356579,
			"-0.015": 1.1657306054,
			"-0.014": 1.24051361143,
			"-0.013": 1.291598043,
			"-0.012": 1.58957224815,
			"-0.011": 1.5936783537,
			"-0.01": 2.06442406524,
			"-0.009": 1.45874814009,
			"-0.008": 3.38224673108,
			"-0.007": 7.47532015249,
			"-0.006": 11.6424976293,
			"-0.005": 19.4466429007,
			"-0.004": 21.6285737391,
			"-0.003": 18.9193203908,
			"-0.002": 15.9083016,
			"-0.001": 20.7391854408,
			"0.0": 14.8403013018,
			"0.001": 13.043844244,
			"0.002": 11.7276594632,
			"0.003": 11.310278711,
			"0.004": 11.0527988635,
			"0.005": 12.0870993235,
			"0.006": 7.17615707394,
			"0.007": 3.43689753522,
			"0.008": 4.60528493389,
			"0.009": 2.94806940033,
			"0.01": 3.16231117139,
			"0.011": 5.21001656488,
			"0.012": 4.89393935123,
			"0.013": 3.71992424276,
			"0.014": 5.65276543247,
			"0.015": 1.55912436508,
			"0.016": 0.0442505916761,
			"0.017": 0.0,
			"0.018": 0.0,
			"0.019": 0.0,
			"0.02": 0.0,
			"0.021": 0.0,
			"0.022": 0.0,
			"0.023": 0.0,
			"0.024": 0.0,
			"0.025": 0.0
		}
	}
}
