{
	 "smiles": "CCOC(=O)C1=CSC(CN2C=NC(Cl)=C2Cl)=N1", 
	 "Tm": 401.15, 
	 "num_atms": 27, 
	 "gaussian": { 
		 "optdone": 1, 
		 "sigma_profile": "yes", 
		 "theory": "DFT", 
		 "functional": "B3LYP", 
		 "basiset": "6-31G**", 
		 "properties": { 
			 "R2extent": 10445.5233, 
			 "electric_dipole_moment_norm": 5.53580254525, 
			 "electric_quadrupole_moment_norm": 22.4632750468, 
			 "total_energy": -2019.74432819, 
			 "HOMO_LUMO_gap": 0.16701, 
			 "cosmo_polarized_energy": -17.44, 
			 "cosmo_cavitation_energy": 38.37, 
			 "cosmo_dispersion_energy": -27.5, 
			 "cosmo_repulsion_energy": 2.12, 
			 "cosmo_total_nonelectrostatic_energy": 12.99, 
			 "SMD_solvation_energy": 4.09 
		},
		"coords": [
			{
				"x": -4.1973325506,
				"y": 2.9728336869,
				"z": 0.8154009027,
				"element": "C" 
			},
			{
				"x": -4.0426016952,
				"y": 1.4608147128,
				"z": 0.7565915164,
				"element": "C" 
			},
			{
				"x": -2.7506644062,
				"y": 1.082884817,
				"z": 0.2194742575,
				"element": "O" 
			},
			{
				"x": -1.7274253761,
				"y": 1.0268963994,
				"z": 1.1034222206,
				"element": "C" 
			},
			{
				"x": -1.8228433047,
				"y": 1.2641661113,
				"z": 2.2870346796,
				"element": "O" 
			},
			{
				"x": -0.4657090056,
				"y": 0.6270470356,
				"z": 0.421254826,
				"element": "C" 
			},
			{
				"x": -0.3387020999,
				"y": 0.3574368534,
				"z": -0.9184291174,
				"element": "C" 
			},
			{
				"x": 1.2902005775,
				"y": -0.0615029519,
				"z": -1.2904514437,
				"element": "S" 
			},
			{
				"x": 1.6923096341,
				"y": 0.1579274827,
				"z": 0.4134509097,
				"element": "C" 
			},
			{
				"x": 3.0757452871,
				"y": -0.0732035566,
				"z": 0.9647874819,
				"element": "C" 
			},
			{
				"x": 3.3864182815,
				"y": -1.4883001304,
				"z": 1.1657867809,
				"element": "N" 
			},
			{
				"x": 2.9447167441,
				"y": -2.2779168496,
				"z": 2.1935716043,
				"element": "C" 
			},
			{
				"x": 3.3513454602,
				"y": -3.525043408,
				"z": 2.0817885768,
				"element": "N" 
			},
			{
				"x": 4.0819997257,
				"y": -3.5620356539,
				"z": 0.9328337439,
				"element": "C" 
			},
			{
				"x": 4.8388055567,
				"y": -5.0050061713,
				"z": 0.3619785119,
				"element": "Cl" 
			},
			{
				"x": 4.1214118437,
				"y": -2.3232865127,
				"z": 0.3380372776,
				"element": "C" 
			},
			{
				"x": 4.8887823552,
				"y": -1.7757669701,
				"z": -1.099741967,
				"element": "Cl" 
			},
			{
				"x": 0.690282339,
				"y": 0.5094210513,
				"z": 1.1602030751,
				"element": "N" 
			},
			{
				"x": -4.0416344629,
				"y": 3.4203556046,
				"z": -0.1706637976,
				"element": "H" 
			},
			{
				"x": -3.481964089,
				"y": 3.4054004387,
				"z": 1.5189436892,
				"element": "H" 
			},
			{
				"x": -5.2072927579,
				"y": 3.2282040579,
				"z": 1.1528358704,
				"element": "H" 
			},
			{
				"x": -4.7624707809,
				"y": 1.0090043332,
				"z": 0.0701874712,
				"element": "H" 
			},
			{
				"x": -4.1542308338,
				"y": 1.0134591031,
				"z": 1.7469398238,
				"element": "H" 
			},
			{
				"x": -1.109211509,
				"y": 0.3890796104,
				"z": -1.6741233413,
				"element": "H" 
			},
			{
				"x": 3.1257176454,
				"y": 0.4311540153,
				"z": 1.9320729429,
				"element": "H" 
			},
			{
				"x": 3.8433746811,
				"y": 0.3497079176,
				"z": 0.3138657568,
				"element": "H" 
			},
			{
				"x": 2.3265727407,
				"y": -1.8820310265,
				"z": 2.9875477478,
				"element": "H" 
			}
		],
		 "valence_orbital": [ 
			{
				"type": "occ",
				"energy": -0.29282,
				"method": "rhf"
			},
			{
				"type": "occ",
				"energy": -0.2871,
				"method": "rhf"
			},
			{
				"type": "occ",
				"energy": -0.28201,
				"method": "rhf"
			},
			{
				"type": "occ",
				"energy": -0.27167,
				"method": "rhf"
			},
			{
				"type": "occ",
				"energy": -0.23209,
				"method": "rhf"
			},
			{
				"type": "unocc",
				"energy": -0.06508,
				"method": "rhf"
			},
			{
				"type": "unocc",
				"energy": -0.03039,
				"method": "rhf"
			},
			{
				"type": "unocc",
				"energy": -0.00726,
				"method": "rhf"
			},
			{
				"type": "unocc",
				"energy": 0.00315,
				"method": "rhf"
			},
			{
				"type": "unocc",
				"energy": 0.01654,
				"method": "rhf"
			}
		],
		"cosmo_sigma_profile": { 
			"-0.025": 0.0,
			"-0.024": 0.0,
			"-0.023": 0.0,
			"-0.022": 0.0,
			"-0.021": 0.0,
			"-0.02": 0.0,
			"-0.019": 0.0,
			"-0.018": 0.0,
			"-0.017": 0.0,
			"-0.016": 0.0,
			"-0.015": 0.0,
			"-0.014": 0.0,
			"-0.013": 0.0,
			"-0.012": 0.0,
			"-0.011": 0.370969282871,
			"-0.01": 4.72875924507,
			"-0.009": 7.54966357746,
			"-0.008": 7.9878595979,
			"-0.007": 6.85152243974,
			"-0.006": 9.97718446381,
			"-0.005": 11.7932521135,
			"-0.004": 18.4920217295,
			"-0.003": 25.3292179457,
			"-0.002": 29.1149846624,
			"-0.001": 31.0449122236,
			"0.0": 37.73831555,
			"0.001": 26.158187248,
			"0.002": 18.8861964122,
			"0.003": 18.6234527291,
			"0.004": 16.3566795891,
			"0.005": 7.04580286746,
			"0.006": 4.6411767822,
			"0.007": 3.65934987546,
			"0.008": 3.39107946135,
			"0.009": 3.44707402308,
			"0.01": 3.49142284577,
			"0.011": 4.71458815281,
			"0.012": 4.73349062941,
			"0.013": 3.45473888866,
			"0.014": 2.68324711398,
			"0.015": 1.80674270186,
			"0.016": 0.299566659106,
			"0.017": 0.0,
			"0.018": 0.0,
			"0.019": 0.0,
			"0.02": 0.0,
			"0.021": 0.0,
			"0.022": 0.0,
			"0.023": 0.0,
			"0.024": 0.0,
			"0.025": 0.0
		}
	}
}
