{
	 "smiles": "CC1=NN(C(C)=C1CN)C1=CC=CC=C1", 
	 "Tm": 351.15, 
	 "num_atms": 30, 
	 "gaussian": { 
		 "optdone": 1, 
		 "sigma_profile": "yes", 
		 "theory": "DFT", 
		 "functional": "B3LYP", 
		 "basiset": "6-31G**", 
		 "properties": { 
			 "R2extent": 4687.51, 
			 "electric_dipole_moment_norm": 1.88540748116, 
			 "electric_quadrupole_moment_norm": 11.7566993629, 
			 "total_energy": -630.561825292, 
			 "HOMO_LUMO_gap": 0.19599, 
			 "cosmo_polarized_energy": -12.0, 
			 "cosmo_cavitation_energy": 32.91, 
			 "cosmo_dispersion_energy": -23.3, 
			 "cosmo_repulsion_energy": 1.84, 
			 "cosmo_total_nonelectrostatic_energy": 11.45, 
			 "SMD_solvation_energy": 3.31 
		},
		"coords": [
			{
				"x": 1.46420012,
				"y": -1.8546836621,
				"z": -0.7400536815,
				"element": "C" 
			},
			{
				"x": 0.3629492537,
				"y": -0.8723320121,
				"z": -0.4775591149,
				"element": "C" 
			},
			{
				"x": -0.2481386943,
				"y": -0.269557274,
				"z": -1.4900724486,
				"element": "N" 
			},
			{
				"x": -1.1895173151,
				"y": 0.5348825595,
				"z": -0.9168866147,
				"element": "N" 
			},
			{
				"x": -1.1619902538,
				"y": 0.458385377,
				"z": 0.4583861129,
				"element": "C" 
			},
			{
				"x": -2.0179285168,
				"y": 1.2867107692,
				"z": 1.3661776729,
				"element": "C" 
			},
			{
				"x": -0.1671053442,
				"y": -0.4551367275,
				"z": 0.7772336822,
				"element": "C" 
			},
			{
				"x": 0.2507337308,
				"y": -0.9291478697,
				"z": 2.1442292031,
				"element": "C" 
			},
			{
				"x": -0.3280254957,
				"y": -2.2069528308,
				"z": 2.6062341928,
				"element": "N" 
			},
			{
				"x": -1.9780639114,
				"y": 1.3598353375,
				"z": -1.7632112922,
				"element": "C" 
			},
			{
				"x": -3.3341546402,
				"y": 1.5833466585,
				"z": -1.4988703065,
				"element": "C" 
			},
			{
				"x": -4.0798888799,
				"y": 2.4024194003,
				"z": -2.3480041883,
				"element": "C" 
			},
			{
				"x": -3.4891100345,
				"y": 2.9810782782,
				"z": -3.4712927593,
				"element": "C" 
			},
			{
				"x": -2.1410319183,
				"y": 2.7336688147,
				"z": -3.74421335,
				"element": "C" 
			},
			{
				"x": -1.3826910962,
				"y": 1.9316482861,
				"z": -2.895248059,
				"element": "C" 
			},
			{
				"x": 2.3770740264,
				"y": -1.5915169625,
				"z": -0.1934210499,
				"element": "H" 
			},
			{
				"x": 1.1857835231,
				"y": -2.870639555,
				"z": -0.4346597238,
				"element": "H" 
			},
			{
				"x": 1.6944067223,
				"y": -1.8741337307,
				"z": -1.8074811788,
				"element": "H" 
			},
			{
				"x": -1.5396325628,
				"y": 1.3701909563,
				"z": 2.3453953121,
				"element": "H" 
			},
			{
				"x": -3.0114667349,
				"y": 0.851014855,
				"z": 1.5272968576,
				"element": "H" 
			},
			{
				"x": -2.1632987443,
				"y": 2.2972087638,
				"z": 0.9738140994,
				"element": "H" 
			},
			{
				"x": 1.3410139588,
				"y": -1.0396106587,
				"z": 2.1778633372,
				"element": "H" 
			},
			{
				"x": 0.0040194998,
				"y": -0.1693065995,
				"z": 2.8947313789,
				"element": "H" 
			},
			{
				"x": -1.3428098887,
				"y": -2.1509309628,
				"z": 2.5389071415,
				"element": "H" 
			},
			{
				"x": -0.0587942359,
				"y": -2.9460517222,
				"z": 1.9594541764,
				"element": "H" 
			},
			{
				"x": -3.8110961388,
				"y": 1.1011701139,
				"z": -0.6538221058,
				"element": "H" 
			},
			{
				"x": -5.1315669633,
				"y": 2.571619684,
				"z": -2.1358101612,
				"element": "H" 
			},
			{
				"x": -4.0745630678,
				"y": 3.6125621561,
				"z": -4.1327017885,
				"element": "H" 
			},
			{
				"x": -1.6733993183,
				"y": 3.1736487995,
				"z": -4.6202780254,
				"element": "H" 
			},
			{
				"x": -0.3374070799,
				"y": 1.7281097581,
				"z": -3.0941373183,
				"element": "H" 
			}
		],
		 "valence_orbital": [ 
			{
				"type": "occ",
				"energy": -0.27364,
				"method": "rhf"
			},
			{
				"type": "occ",
				"energy": -0.25534,
				"method": "rhf"
			},
			{
				"type": "occ",
				"energy": -0.24496,
				"method": "rhf"
			},
			{
				"type": "occ",
				"energy": -0.22831,
				"method": "rhf"
			},
			{
				"type": "occ",
				"energy": -0.21275,
				"method": "rhf"
			},
			{
				"type": "unocc",
				"energy": -0.01676,
				"method": "rhf"
			},
			{
				"type": "unocc",
				"energy": -0.0063,
				"method": "rhf"
			},
			{
				"type": "unocc",
				"energy": 0.0369,
				"method": "rhf"
			},
			{
				"type": "unocc",
				"energy": 0.05561,
				"method": "rhf"
			},
			{
				"type": "unocc",
				"energy": 0.08128,
				"method": "rhf"
			}
		],
		"cosmo_sigma_profile": { 
			"-0.025": 0.0,
			"-0.024": 0.0,
			"-0.023": 0.0,
			"-0.022": 0.0,
			"-0.021": 0.0,
			"-0.02": 0.0,
			"-0.019": 0.0,
			"-0.018": 0.0,
			"-0.017": 0.0,
			"-0.016": 0.0,
			"-0.015": 0.0,
			"-0.014": 0.0,
			"-0.013": 0.0,
			"-0.012": 0.0,
			"-0.011": 0.0,
			"-0.01": 0.0168901670238,
			"-0.009": 1.06227024987,
			"-0.008": 2.76793779069,
			"-0.007": 4.36313158915,
			"-0.006": 13.5505754268,
			"-0.005": 20.7319171443,
			"-0.004": 26.217035738,
			"-0.003": 25.0149895082,
			"-0.002": 25.0197981884,
			"-0.001": 22.5076544307,
			"0.0": 20.5172242533,
			"0.001": 14.491572591,
			"0.002": 13.2647419746,
			"0.003": 12.7048383873,
			"0.004": 15.6186104884,
			"0.005": 16.2727258627,
			"0.006": 5.04364774215,
			"0.007": 2.55134588213,
			"0.008": 2.79561813671,
			"0.009": 2.13718280106,
			"0.01": 1.76652526437,
			"0.011": 2.04522535466,
			"0.012": 1.92762245608,
			"0.013": 1.470219662,
			"0.014": 1.53363797768,
			"0.015": 1.25427657183,
			"0.016": 0.966902478077,
			"0.017": 0.59822783606,
			"0.018": 0.589527006975,
			"0.019": 0.789571670014,
			"0.02": 0.446267300778,
			"0.021": 0.0461551709103,
			"0.022": 0.0,
			"0.023": 0.0,
			"0.024": 0.0,
			"0.025": 0.0
		}
	}
}
