{
	 "smiles": "CC(C)CN1N=C(C)CC1=O", 
	 "Tm": 398.15, 
	 "num_atms": 25, 
	 "gaussian": { 
		 "optdone": 1, 
		 "sigma_profile": "yes", 
		 "theory": "DFT", 
		 "functional": "B3LYP", 
		 "basiset": "6-31G**", 
		 "properties": { 
			 "R2extent": 2619.2607, 
			 "electric_dipole_moment_norm": 2.61061027731, 
			 "electric_quadrupole_moment_norm": 14.2822923573, 
			 "total_energy": -498.015932716, 
			 "HOMO_LUMO_gap": 0.201, 
			 "cosmo_polarized_energy": -10.47, 
			 "cosmo_cavitation_energy": 27.32, 
			 "cosmo_dispersion_energy": -19.21, 
			 "cosmo_repulsion_energy": 1.58, 
			 "cosmo_total_nonelectrostatic_energy": 9.68, 
			 "SMD_solvation_energy": 4.71 
		},
		"coords": [
			{
				"x": 0.690329814,
				"y": 0.068733418,
				"z": -2.7416153877,
				"element": "C" 
			},
			{
				"x": 2.0522993527,
				"y": -0.3558591732,
				"z": -2.1740998894,
				"element": "C" 
			},
			{
				"x": 2.7155210052,
				"y": 0.7810121849,
				"z": -1.3841605855,
				"element": "C" 
			},
			{
				"x": 1.9686275949,
				"y": -1.655942252,
				"z": -1.3458318618,
				"element": "C" 
			},
			{
				"x": 1.247165856,
				"y": -1.5465329129,
				"z": -0.0884458894,
				"element": "N" 
			},
			{
				"x": -0.1461800846,
				"y": -1.6210862351,
				"z": -0.0547968033,
				"element": "N" 
			},
			{
				"x": -0.5239341933,
				"y": -1.5727477813,
				"z": 1.1781902513,
				"element": "C" 
			},
			{
				"x": -1.9655407601,
				"y": -1.6259664276,
				"z": 1.563054834,
				"element": "C" 
			},
			{
				"x": 0.6391246763,
				"y": -1.4653345486,
				"z": 2.1277295743,
				"element": "C" 
			},
			{
				"x": 1.8281615925,
				"y": -1.4758077645,
				"z": 1.1629396679,
				"element": "C" 
			},
			{
				"x": 3.0224900369,
				"y": -1.4355499066,
				"z": 1.4049689597,
				"element": "O" 
			},
			{
				"x": -0.0168955175,
				"y": 0.3041622981,
				"z": -1.9405448699,
				"element": "H" 
			},
			{
				"x": 0.2442820946,
				"y": -0.7264227414,
				"z": -3.3488203312,
				"element": "H" 
			},
			{
				"x": 0.7957066825,
				"y": 0.956969125,
				"z": -3.3739624585,
				"element": "H" 
			},
			{
				"x": 2.7071373411,
				"y": -0.6058968324,
				"z": -3.0221837932,
				"element": "H" 
			},
			{
				"x": 3.6817990403,
				"y": 0.4757625474,
				"z": -0.9710301539,
				"element": "H" 
			},
			{
				"x": 2.8749550356,
				"y": 1.6550419559,
				"z": -2.0242819287,
				"element": "H" 
			},
			{
				"x": 2.0837987466,
				"y": 1.0963190679,
				"z": -0.5465164669,
				"element": "H" 
			},
			{
				"x": 2.9764599106,
				"y": -1.9817362918,
				"z": -1.0715799195,
				"element": "H" 
			},
			{
				"x": 1.4960002845,
				"y": -2.4495588836,
				"z": -1.9347111666,
				"element": "H" 
			},
			{
				"x": -2.2610306137,
				"y": -0.7254564483,
				"z": 2.1154044174,
				"element": "H" 
			},
			{
				"x": -2.5873128305,
				"y": -1.7101438832,
				"z": 0.6692356886,
				"element": "H" 
			},
			{
				"x": -2.1685115779,
				"y": -2.482519841,
				"z": 2.2174763606,
				"element": "H" 
			},
			{
				"x": 0.7023887326,
				"y": -2.2997234383,
				"z": 2.8352615143,
				"element": "H" 
			},
			{
				"x": 0.6299577807,
				"y": -0.5430152354,
				"z": 2.7201202376,
				"element": "H" 
			}
		],
		 "valence_orbital": [ 
			{
				"type": "occ",
				"energy": -0.32668,
				"method": "rhf"
			},
			{
				"type": "occ",
				"energy": -0.32582,
				"method": "rhf"
			},
			{
				"type": "occ",
				"energy": -0.30709,
				"method": "rhf"
			},
			{
				"type": "occ",
				"energy": -0.24708,
				"method": "rhf"
			},
			{
				"type": "occ",
				"energy": -0.22295,
				"method": "rhf"
			},
			{
				"type": "unocc",
				"energy": -0.02195,
				"method": "rhf"
			},
			{
				"type": "unocc",
				"energy": 0.04398,
				"method": "rhf"
			},
			{
				"type": "unocc",
				"energy": 0.08904,
				"method": "rhf"
			},
			{
				"type": "unocc",
				"energy": 0.09688,
				"method": "rhf"
			},
			{
				"type": "unocc",
				"energy": 0.12234,
				"method": "rhf"
			}
		],
		"cosmo_sigma_profile": { 
			"-0.025": 0.0,
			"-0.024": 0.0,
			"-0.023": 0.0,
			"-0.022": 0.0,
			"-0.021": 0.0,
			"-0.02": 0.0,
			"-0.019": 0.0,
			"-0.018": 0.0,
			"-0.017": 0.0,
			"-0.016": 0.0,
			"-0.015": 0.0,
			"-0.014": 0.0,
			"-0.013": 0.0,
			"-0.012": 0.0,
			"-0.011": 0.0,
			"-0.01": 0.0,
			"-0.009": 0.0180860920469,
			"-0.008": 3.13275552701,
			"-0.007": 5.55545956473,
			"-0.006": 6.35562211154,
			"-0.005": 13.3830034042,
			"-0.004": 14.9531026113,
			"-0.003": 23.9527342949,
			"-0.002": 28.2043760452,
			"-0.001": 25.5257470538,
			"0.0": 21.4144484146,
			"0.001": 17.9994088952,
			"0.002": 10.7597766162,
			"0.003": 5.3294864401,
			"0.004": 4.35721364524,
			"0.005": 3.79325835879,
			"0.006": 3.23698820805,
			"0.007": 2.57818217919,
			"0.008": 3.74695849301,
			"0.009": 2.0155079834,
			"0.01": 2.28774352399,
			"0.011": 2.60910433196,
			"0.012": 2.82688054803,
			"0.013": 5.61490155855,
			"0.014": 3.18127485581,
			"0.015": 0.249151127166,
			"0.016": 0.0,
			"0.017": 0.0,
			"0.018": 0.0,
			"0.019": 0.0,
			"0.02": 0.0,
			"0.021": 0.0,
			"0.022": 0.0,
			"0.023": 0.0,
			"0.024": 0.0,
			"0.025": 0.0
		}
	}
}
