{
	 "smiles": "OC(=O)C1=CC(COC2=CC(C=O)=CC=C2)=CC=C1", 
	 "Tm": 396.15, 
	 "num_atms": 31, 
	 "gaussian": { 
		 "optdone": 1, 
		 "sigma_profile": "yes", 
		 "theory": "DFT", 
		 "functional": "B3LYP", 
		 "basiset": "6-31G**", 
		 "properties": { 
			 "R2extent": 6358.7343, 
			 "electric_dipole_moment_norm": 3.4341928848, 
			 "electric_quadrupole_moment_norm": 12.2458661658, 
			 "total_energy": -879.726813509, 
			 "HOMO_LUMO_gap": 0.1732, 
			 "cosmo_polarized_energy": -16.0, 
			 "cosmo_cavitation_energy": 36.85, 
			 "cosmo_dispersion_energy": -25.3, 
			 "cosmo_repulsion_energy": 1.96, 
			 "cosmo_total_nonelectrostatic_energy": 13.51, 
			 "SMD_solvation_energy": 8.66 
		},
		"coords": [
			{
				"x": 2.2642290951,
				"y": -1.4683523128,
				"z": 4.2610699731,
				"element": "O" 
			},
			{
				"x": 1.110657207,
				"y": -0.8678174799,
				"z": 4.6463566661,
				"element": "C" 
			},
			{
				"x": 0.9970040776,
				"y": -0.3186881904,
				"z": 5.7243000086,
				"element": "O" 
			},
			{
				"x": 0.0342042716,
				"y": -0.9626190965,
				"z": 3.623669895,
				"element": "C" 
			},
			{
				"x": 0.2328733004,
				"y": -1.6010359142,
				"z": 2.3922420166,
				"element": "C" 
			},
			{
				"x": -0.8020180409,
				"y": -1.6694183991,
				"z": 1.4570833258,
				"element": "C" 
			},
			{
				"x": -0.6022838862,
				"y": -2.4213007001,
				"z": 0.1548246424,
				"element": "C" 
			},
			{
				"x": -1.3509210499,
				"y": -1.891802962,
				"z": -0.9396141511,
				"element": "O" 
			},
			{
				"x": -0.8945581151,
				"y": -0.7727206615,
				"z": -1.5799421009,
				"element": "C" 
			},
			{
				"x": 0.229803723,
				"y": -0.0381395393,
				"z": -1.2091206385,
				"element": "C" 
			},
			{
				"x": 0.5994562776,
				"y": 1.0836627082,
				"z": -1.9694299487,
				"element": "C" 
			},
			{
				"x": 1.798734328,
				"y": 1.8601656149,
				"z": -1.579512086,
				"element": "C" 
			},
			{
				"x": 2.518950541,
				"y": 1.5940846947,
				"z": -0.6356997688,
				"element": "O" 
			},
			{
				"x": -0.147793381,
				"y": 1.475476419,
				"z": -3.0833253852,
				"element": "C" 
			},
			{
				"x": -1.2779295696,
				"y": 0.7368712707,
				"z": -3.4430585217,
				"element": "C" 
			},
			{
				"x": -1.6493727619,
				"y": -0.3780036811,
				"z": -2.7000241577,
				"element": "C" 
			},
			{
				"x": -2.0381451239,
				"y": -1.0854951001,
				"z": 1.7619764395,
				"element": "C" 
			},
			{
				"x": -2.2355846677,
				"y": -0.4407313616,
				"z": 2.9839282274,
				"element": "C" 
			},
			{
				"x": -1.2043623976,
				"y": -0.3797046099,
				"z": 3.9180370242,
				"element": "C" 
			},
			{
				"x": 2.8886907995,
				"y": -1.335325093,
				"z": 4.9928768415,
				"element": "H" 
			},
			{
				"x": 1.2015083927,
				"y": -2.0381692103,
				"z": 2.1713674529,
				"element": "H" 
			},
			{
				"x": 0.4634986772,
				"y": -2.4798799609,
				"z": -0.0993080153,
				"element": "H" 
			},
			{
				"x": -0.9728038281,
				"y": -3.4471776066,
				"z": 0.253975126,
				"element": "H" 
			},
			{
				"x": 0.8324518285,
				"y": -0.2825807862,
				"z": -0.3432421071,
				"element": "H" 
			},
			{
				"x": 2.0118711698,
				"y": 2.7373671766,
				"z": -2.2300887249,
				"element": "H" 
			},
			{
				"x": 0.1523647273,
				"y": 2.3474223226,
				"z": -3.6583126258,
				"element": "H" 
			},
			{
				"x": -1.8702238827,
				"y": 1.027033553,
				"z": -4.3056509163,
				"element": "H" 
			},
			{
				"x": -2.5203899818,
				"y": -0.9681974468,
				"z": -2.9663596978,
				"element": "H" 
			},
			{
				"x": -2.8395923999,
				"y": -1.1318156457,
				"z": 1.0310765831,
				"element": "H" 
			},
			{
				"x": -3.196571601,
				"y": 0.0133381336,
				"z": 3.2063322495,
				"element": "H" 
			},
			{
				"x": -1.3328477288,
				"y": 0.1150538646,
				"z": 4.8745723741,
				"element": "H" 
			}
		],
		 "valence_orbital": [ 
			{
				"type": "occ",
				"energy": -0.26642,
				"method": "rhf"
			},
			{
				"type": "occ",
				"energy": -0.26569,
				"method": "rhf"
			},
			{
				"type": "occ",
				"energy": -0.25817,
				"method": "rhf"
			},
			{
				"type": "occ",
				"energy": -0.25506,
				"method": "rhf"
			},
			{
				"type": "occ",
				"energy": -0.23653,
				"method": "rhf"
			},
			{
				"type": "unocc",
				"energy": -0.06333,
				"method": "rhf"
			},
			{
				"type": "unocc",
				"energy": -0.05196,
				"method": "rhf"
			},
			{
				"type": "unocc",
				"energy": -0.01675,
				"method": "rhf"
			},
			{
				"type": "unocc",
				"energy": -0.00395,
				"method": "rhf"
			},
			{
				"type": "unocc",
				"energy": 0.04177,
				"method": "rhf"
			}
		],
		"cosmo_sigma_profile": { 
			"-0.025": 0.0,
			"-0.024": 0.0,
			"-0.023": 0.0,
			"-0.022": 0.0,
			"-0.021": 0.0,
			"-0.02": 0.0,
			"-0.019": 0.0319569195,
			"-0.018": 0.751880570275,
			"-0.017": 0.831280962165,
			"-0.016": 1.32519933674,
			"-0.015": 0.649824594595,
			"-0.014": 0.548148820493,
			"-0.013": 0.217962075221,
			"-0.012": 0.407633590062,
			"-0.011": 1.51506648869,
			"-0.01": 0.781942634343,
			"-0.009": 0.408928626744,
			"-0.008": 2.69183228668,
			"-0.007": 13.7985316199,
			"-0.006": 20.5433663146,
			"-0.005": 21.8371379705,
			"-0.004": 18.2226122275,
			"-0.003": 16.0940520015,
			"-0.002": 19.2274014983,
			"-0.001": 15.5196923074,
			"0.0": 21.0087417352,
			"0.001": 22.2258341205,
			"0.002": 27.435156429,
			"0.003": 28.9265209487,
			"0.004": 13.9260603041,
			"0.005": 5.50372102032,
			"0.006": 5.586371629,
			"0.007": 5.30101445403,
			"0.008": 4.61318758811,
			"0.009": 4.8873628216,
			"0.01": 4.9679986855,
			"0.011": 7.81848788284,
			"0.012": 6.75301457226,
			"0.013": 0.814105763652,
			"0.014": 0.0,
			"0.015": 0.0,
			"0.016": 0.0,
			"0.017": 0.0,
			"0.018": 0.0,
			"0.019": 0.0,
			"0.02": 0.0,
			"0.021": 0.0,
			"0.022": 0.0,
			"0.023": 0.0,
			"0.024": 0.0,
			"0.025": 0.0
		}
	}
}
