{
	 "smiles": "NNC1=CC(=CC(=C1)C(F)(F)F)C(F)(F)F", 
	 "Tm": 355.15, 
	 "num_atms": 22, 
	 "gaussian": { 
		 "optdone": 1, 
		 "sigma_profile": "yes", 
		 "theory": "DFT", 
		 "functional": "B3LYP", 
		 "basiset": "6-31G**", 
		 "properties": { 
			 "R2extent": 4139.1612, 
			 "electric_dipole_moment_norm": 5.56625047047, 
			 "electric_quadrupole_moment_norm": 16.5541730896, 
			 "total_energy": -1016.99154064, 
			 "HOMO_LUMO_gap": 0.18783, 
			 "cosmo_polarized_energy": -10.92, 
			 "cosmo_cavitation_energy": 29.59, 
			 "cosmo_dispersion_energy": -20.52, 
			 "cosmo_repulsion_energy": 1.52, 
			 "cosmo_total_nonelectrostatic_energy": 10.58, 
			 "SMD_solvation_energy": 7.94 
		},
		"coords": [
			{
				"x": -0.5966751847,
				"y": -0.2474436559,
				"z": 3.651527587,
				"element": "N" 
			},
			{
				"x": -1.3097491796,
				"y": 0.0699215329,
				"z": 2.4830672991,
				"element": "N" 
			},
			{
				"x": -0.6733487513,
				"y": -0.1171825923,
				"z": 1.2572362307,
				"element": "C" 
			},
			{
				"x": -1.4425783446,
				"y": -0.1275245729,
				"z": 0.0811954312,
				"element": "C" 
			},
			{
				"x": -0.8247584056,
				"y": -0.2498804068,
				"z": -1.1602157652,
				"element": "C" 
			},
			{
				"x": 0.5621424914,
				"y": -0.3698089878,
				"z": -1.2666117746,
				"element": "C" 
			},
			{
				"x": 1.3184359514,
				"y": -0.3640308148,
				"z": -0.0944875108,
				"element": "C" 
			},
			{
				"x": 0.7205748038,
				"y": -0.2410536277,
				"z": 1.1588831122,
				"element": "C" 
			},
			{
				"x": 2.8115494828,
				"y": -0.553719615,
				"z": -0.170588517,
				"element": "C" 
			},
			{
				"x": 3.3117172411,
				"y": -0.1571306044,
				"z": -1.3608950716,
				"element": "F" 
			},
			{
				"x": 3.4579595568,
				"y": 0.1385559156,
				"z": 0.7930568487,
				"element": "F" 
			},
			{
				"x": 3.1527433991,
				"y": -1.8543639111,
				"z": -0.0129428856,
				"element": "F" 
			},
			{
				"x": -1.6732377226,
				"y": -0.3192737258,
				"z": -2.4026331277,
				"element": "C" 
			},
			{
				"x": -1.0340048495,
				"y": 0.18788486,
				"z": -3.4779718909,
				"element": "F" 
			},
			{
				"x": -2.0029583523,
				"y": -1.5965535375,
				"z": -2.7068365282,
				"element": "F" 
			},
			{
				"x": -2.834296664,
				"y": 0.3599322325,
				"z": -2.2608470005,
				"element": "F" 
			},
			{
				"x": -0.8042800707,
				"y": 0.4421319229,
				"z": 4.3662685358,
				"element": "H" 
			},
			{
				"x": -0.8360187862,
				"y": -1.1744729158,
				"z": 4.0002731808,
				"element": "H" 
			},
			{
				"x": -2.3013014901,
				"y": -0.1451154326,
				"z": 2.4791231936,
				"element": "H" 
			},
			{
				"x": -2.5220388293,
				"y": -0.0234193133,
				"z": 0.1357124528,
				"element": "H" 
			},
			{
				"x": 1.0387626461,
				"y": -0.4518878029,
				"z": -2.2348110542,
				"element": "H" 
			},
			{
				"x": 1.314461058,
				"y": -0.229364947,
				"z": 2.0633972544,
				"element": "H" 
			}
		],
		 "valence_orbital": [ 
			{
				"type": "occ",
				"energy": -0.35532,
				"method": "rhf"
			},
			{
				"type": "occ",
				"energy": -0.32397,
				"method": "rhf"
			},
			{
				"type": "occ",
				"energy": -0.28542,
				"method": "rhf"
			},
			{
				"type": "occ",
				"energy": -0.27344,
				"method": "rhf"
			},
			{
				"type": "occ",
				"energy": -0.22258,
				"method": "rhf"
			},
			{
				"type": "unocc",
				"energy": -0.03475,
				"method": "rhf"
			},
			{
				"type": "unocc",
				"energy": -0.01253,
				"method": "rhf"
			},
			{
				"type": "unocc",
				"energy": 0.05537,
				"method": "rhf"
			},
			{
				"type": "unocc",
				"energy": 0.08019,
				"method": "rhf"
			},
			{
				"type": "unocc",
				"energy": 0.11465,
				"method": "rhf"
			}
		],
		"cosmo_sigma_profile": { 
			"-0.025": 0.0,
			"-0.024": 0.0,
			"-0.023": 0.0,
			"-0.022": 0.0,
			"-0.021": 0.0,
			"-0.02": 0.0,
			"-0.019": 0.0,
			"-0.018": 0.0,
			"-0.017": 0.0,
			"-0.016": 0.0,
			"-0.015": 0.0,
			"-0.014": 0.409024768842,
			"-0.013": 1.62317882262,
			"-0.012": 2.90376268276,
			"-0.011": 5.8178889728,
			"-0.01": 4.87150855464,
			"-0.009": 5.22613432867,
			"-0.008": 4.75992865733,
			"-0.007": 4.53063948097,
			"-0.006": 4.59776353164,
			"-0.005": 3.77866192746,
			"-0.004": 7.18439154241,
			"-0.003": 6.55985426673,
			"-0.002": 8.31268130813,
			"-0.001": 10.1286707684,
			"0.0": 15.923748308,
			"0.001": 21.3121100951,
			"0.002": 47.7690292928,
			"0.003": 63.5047412878,
			"0.004": 6.45585716781,
			"0.005": 2.59058258351,
			"0.006": 1.54883429086,
			"0.007": 2.10612745058,
			"0.008": 1.6668351543,
			"0.009": 0.862870990456,
			"0.01": 0.866149701647,
			"0.011": 0.806054546911,
			"0.012": 0.0963602527073,
			"0.013": 0.0,
			"0.014": 0.0,
			"0.015": 0.0,
			"0.016": 0.0,
			"0.017": 0.0,
			"0.018": 0.0,
			"0.019": 0.0,
			"0.02": 0.0,
			"0.021": 0.0,
			"0.022": 0.0,
			"0.023": 0.0,
			"0.024": 0.0,
			"0.025": 0.0
		}
	}
}
