{
	 "smiles": "NC1=C(N)C=C(C=C1)C(O)=O", 
	 "Tm": 488.15, 
	 "num_atms": 19, 
	 "gaussian": { 
		 "optdone": 1, 
		 "sigma_profile": "yes", 
		 "theory": "DFT", 
		 "functional": "B3LYP", 
		 "basiset": "6-31G**", 
		 "properties": { 
			 "R2extent": 2249.6945, 
			 "electric_dipole_moment_norm": 3.25877560443, 
			 "electric_quadrupole_moment_norm": 9.65512150157, 
			 "total_energy": -531.545769097, 
			 "HOMO_LUMO_gap": 0.1724, 
			 "cosmo_polarized_energy": -16.16, 
			 "cosmo_cavitation_energy": 23.3, 
			 "cosmo_dispersion_energy": -17.54, 
			 "cosmo_repulsion_energy": 1.42, 
			 "cosmo_total_nonelectrostatic_energy": 7.17, 
			 "SMD_solvation_energy": 5.2 
		},
		"coords": [
			{
				"x": -1.8151355765,
				"y": 0.1875832503,
				"z": 1.3806356387,
				"element": "N" 
			},
			{
				"x": -0.8062046667,
				"y": 0.0850111254,
				"z": 0.4232252735,
				"element": "C" 
			},
			{
				"x": 0.2719252779,
				"y": -0.7999951907,
				"z": 0.6859785623,
				"element": "C" 
			},
			{
				"x": 0.2747184416,
				"y": -1.4703655837,
				"z": 1.9295236927,
				"element": "N" 
			},
			{
				"x": 1.2896517392,
				"y": -0.9268249218,
				"z": -0.2499452951,
				"element": "C" 
			},
			{
				"x": 1.2608782938,
				"y": -0.2053852717,
				"z": -1.4551428219,
				"element": "C" 
			},
			{
				"x": 0.178412704,
				"y": 0.6403055465,
				"z": -1.7270753108,
				"element": "C" 
			},
			{
				"x": -0.841824638,
				"y": 0.7818440367,
				"z": -0.7911804153,
				"element": "C" 
			},
			{
				"x": 2.3820988512,
				"y": -0.3934169886,
				"z": -2.3978908272,
				"element": "C" 
			},
			{
				"x": 2.2545932956,
				"y": 0.3360401591,
				"z": -3.5400744127,
				"element": "O" 
			},
			{
				"x": 3.3438489117,
				"y": -1.1182849996,
				"z": -2.2126587194,
				"element": "O" 
			},
			{
				"x": -2.4354653119,
				"y": 0.9766709016,
				"z": 1.2554335578,
				"element": "H" 
			},
			{
				"x": -1.4669150568,
				"y": 0.1263791162,
				"z": 2.3317591912,
				"element": "H" 
			},
			{
				"x": 1.0474338487,
				"y": -2.1196305497,
				"z": 2.0188950658,
				"element": "H" 
			},
			{
				"x": -0.6001072812,
				"y": -1.9581484075,
				"z": 2.1036137461,
				"element": "H" 
			},
			{
				"x": 2.1270907258,
				"y": -1.5941255815,
				"z": -0.06801487,
				"element": "H" 
			},
			{
				"x": 0.1447108944,
				"y": 1.1918780745,
				"z": -2.6591394223,
				"element": "H" 
			},
			{
				"x": -1.6742313007,
				"y": 1.4521969517,
				"z": -0.9910879373,
				"element": "H" 
			},
			{
				"x": 3.0432208479,
				"y": 0.1260683329,
				"z": -4.0658546961,
				"element": "H" 
			}
		],
		 "valence_orbital": [ 
			{
				"type": "occ",
				"energy": -0.30943,
				"method": "rhf"
			},
			{
				"type": "occ",
				"energy": -0.29922,
				"method": "rhf"
			},
			{
				"type": "occ",
				"energy": -0.26243,
				"method": "rhf"
			},
			{
				"type": "occ",
				"energy": -0.23124,
				"method": "rhf"
			},
			{
				"type": "occ",
				"energy": -0.1999,
				"method": "rhf"
			},
			{
				"type": "unocc",
				"energy": -0.0275,
				"method": "rhf"
			},
			{
				"type": "unocc",
				"energy": 0.00925,
				"method": "rhf"
			},
			{
				"type": "unocc",
				"energy": 0.06495,
				"method": "rhf"
			},
			{
				"type": "unocc",
				"energy": 0.08326,
				"method": "rhf"
			},
			{
				"type": "unocc",
				"energy": 0.08905,
				"method": "rhf"
			}
		],
		"cosmo_sigma_profile": { 
			"-0.025": 0.0,
			"-0.024": 0.0,
			"-0.023": 0.0,
			"-0.022": 0.0,
			"-0.021": 0.0,
			"-0.02": 0.0,
			"-0.019": 0.0,
			"-0.018": 0.195988126658,
			"-0.017": 1.0882662375,
			"-0.016": 0.665884443197,
			"-0.015": 0.95756800473,
			"-0.014": 0.705211942575,
			"-0.013": 0.978886612245,
			"-0.012": 3.59932738466,
			"-0.011": 5.66402750624,
			"-0.01": 6.74213946521,
			"-0.009": 5.81972438263,
			"-0.008": 5.44805912063,
			"-0.007": 6.80463892341,
			"-0.006": 6.84844445973,
			"-0.005": 6.5459942648,
			"-0.004": 6.80400096094,
			"-0.003": 7.26733754572,
			"-0.002": 6.0046520216,
			"-0.001": 8.22259226643,
			"0.0": 8.94724410068,
			"0.001": 8.45165836612,
			"0.002": 9.31306750512,
			"0.003": 12.8645121627,
			"0.004": 14.1655200014,
			"0.005": 13.936520439,
			"0.006": 8.27907726949,
			"0.007": 4.46037052142,
			"0.008": 3.72255420162,
			"0.009": 3.38486539165,
			"0.01": 3.16498140927,
			"0.011": 3.02748107728,
			"0.012": 5.85772196814,
			"0.013": 3.94496600094,
			"0.014": 0.370441494495,
			"0.015": 0.089318622758,
			"0.016": 0.0,
			"0.017": 0.0,
			"0.018": 0.0,
			"0.019": 0.0,
			"0.02": 0.0,
			"0.021": 0.0,
			"0.022": 0.0,
			"0.023": 0.0,
			"0.024": 0.0,
			"0.025": 0.0
		}
	}
}
