{
	 "smiles": "OC(=O)C1=CC=CC=C1P(C1=CC=CC=C1)C1=CC=CC=C1", 
	 "Tm": 450.65, 
	 "num_atms": 37, 
	 "gaussian": { 
		 "optdone": 1, 
		 "sigma_profile": "yes", 
		 "theory": "DFT", 
		 "functional": "B3LYP", 
		 "basiset": "6-31G**", 
		 "properties": { 
			 "R2extent": 7386.25, 
			 "electric_dipole_moment_norm": 2.12269380505, 
			 "electric_quadrupole_moment_norm": 7.16656168884, 
			 "total_energy": -1224.87320945, 
			 "HOMO_LUMO_gap": 0.15754, 
			 "cosmo_polarized_energy": -14.01, 
			 "cosmo_cavitation_energy": 42.15, 
			 "cosmo_dispersion_energy": -29.14, 
			 "cosmo_repulsion_energy": 2.29, 
			 "cosmo_total_nonelectrostatic_energy": 15.3, 
			 "SMD_solvation_energy": 8.22 
		},
		"coords": [
			{
				"x": -2.9029780187,
				"y": -0.1508877849,
				"z": -4.4686603498,
				"element": "O" 
			},
			{
				"x": -2.0130258182,
				"y": 0.2126394048,
				"z": -3.5092607266,
				"element": "C" 
			},
			{
				"x": -1.6248806045,
				"y": 1.3625614189,
				"z": -3.4138771246,
				"element": "O" 
			},
			{
				"x": -1.5866944183,
				"y": -0.9105335623,
				"z": -2.6379426293,
				"element": "C" 
			},
			{
				"x": -2.2209454379,
				"y": -2.1553220771,
				"z": -2.7775001878,
				"element": "C" 
			},
			{
				"x": -1.8562613798,
				"y": -3.236073212,
				"z": -1.9817728649,
				"element": "C" 
			},
			{
				"x": -0.8424690178,
				"y": -3.0732955771,
				"z": -1.0387133994,
				"element": "C" 
			},
			{
				"x": -0.2033150553,
				"y": -1.8410624765,
				"z": -0.8965419385,
				"element": "C" 
			},
			{
				"x": -0.554230106,
				"y": -0.728779338,
				"z": -1.6787266623,
				"element": "C" 
			},
			{
				"x": 0.4108038117,
				"y": 0.8686678473,
				"z": -1.5638989746,
				"element": "P" 
			},
			{
				"x": -0.7286026461,
				"y": 1.9640853875,
				"z": -0.5994864607,
				"element": "C" 
			},
			{
				"x": -1.7766767761,
				"y": 1.5012551301,
				"z": 0.2102846994,
				"element": "C" 
			},
			{
				"x": -2.5837054669,
				"y": 2.3991727748,
				"z": 0.9124219779,
				"element": "C" 
			},
			{
				"x": -2.3517547487,
				"y": 3.7725554193,
				"z": 0.8197547339,
				"element": "C" 
			},
			{
				"x": -1.3121607691,
				"y": 4.2449233302,
				"z": 0.0163410377,
				"element": "C" 
			},
			{
				"x": -0.5124366743,
				"y": 3.3476134211,
				"z": -0.6918700019,
				"element": "C" 
			},
			{
				"x": 1.6866530041,
				"y": 0.4377674757,
				"z": -0.2785211043,
				"element": "C" 
			},
			{
				"x": 1.535954383,
				"y": 0.6106643039,
				"z": 1.1068624613,
				"element": "C" 
			},
			{
				"x": 2.5811393833,
				"y": 0.3066839297,
				"z": 1.9818124341,
				"element": "C" 
			},
			{
				"x": 3.793454305,
				"y": -0.1798227536,
				"z": 1.4889982105,
				"element": "C" 
			},
			{
				"x": 3.9602272351,
				"y": -0.3532418606,
				"z": 0.1135035417,
				"element": "C" 
			},
			{
				"x": 2.9194330805,
				"y": -0.0368054149,
				"z": -0.760095013,
				"element": "C" 
			},
			{
				"x": -3.1030291193,
				"y": 0.6645263518,
				"z": -4.9565150801,
				"element": "H" 
			},
			{
				"x": -3.004843762,
				"y": -2.2612899215,
				"z": -3.5179880329,
				"element": "H" 
			},
			{
				"x": -2.3569831492,
				"y": -4.1924690013,
				"z": -2.0975715884,
				"element": "H" 
			},
			{
				"x": -0.5453704752,
				"y": -3.9052015774,
				"z": -0.4059174881,
				"element": "H" 
			},
			{
				"x": 0.5831179216,
				"y": -1.7429801776,
				"z": -0.1577776923,
				"element": "H" 
			},
			{
				"x": -1.9669985881,
				"y": 0.43522694,
				"z": 0.291608594,
				"element": "H" 
			},
			{
				"x": -3.3930946239,
				"y": 2.0241283862,
				"z": 1.5331627888,
				"element": "H" 
			},
			{
				"x": -2.9799576961,
				"y": 4.4703435951,
				"z": 1.3663561971,
				"element": "H" 
			},
			{
				"x": -1.1296129168,
				"y": 5.3127271489,
				"z": -0.0671867904,
				"element": "H" 
			},
			{
				"x": 0.2815181821,
				"y": 3.7232496742,
				"z": -1.331853727,
				"element": "H" 
			},
			{
				"x": 0.5996997518,
				"y": 0.9892848146,
				"z": 1.5042667955,
				"element": "H" 
			},
			{
				"x": 2.4471760613,
				"y": 0.4506310031,
				"z": 3.0506354269,
				"element": "H" 
			},
			{
				"x": 4.6055078212,
				"y": -0.4146153265,
				"z": 2.1714980361,
				"element": "H" 
			},
			{
				"x": 4.9034166294,
				"y": -0.7225080093,
				"z": -0.2797496154,
				"element": "H" 
			},
			{
				"x": 3.0644256984,
				"y": -0.1523196866,
				"z": -1.8316794826,
				"element": "H" 
			}
		],
		 "valence_orbital": [ 
			{
				"type": "occ",
				"energy": -0.2537,
				"method": "rhf"
			},
			{
				"type": "occ",
				"energy": -0.2497,
				"method": "rhf"
			},
			{
				"type": "occ",
				"energy": -0.24539,
				"method": "rhf"
			},
			{
				"type": "occ",
				"energy": -0.24412,
				"method": "rhf"
			},
			{
				"type": "occ",
				"energy": -0.20946,
				"method": "rhf"
			},
			{
				"type": "unocc",
				"energy": -0.05192,
				"method": "rhf"
			},
			{
				"type": "unocc",
				"energy": -0.01916,
				"method": "rhf"
			},
			{
				"type": "unocc",
				"energy": -0.01409,
				"method": "rhf"
			},
			{
				"type": "unocc",
				"energy": -0.00186,
				"method": "rhf"
			},
			{
				"type": "unocc",
				"energy": 0.00157,
				"method": "rhf"
			}
		],
		"cosmo_sigma_profile": { 
			"-0.025": 0.0,
			"-0.024": 0.0,
			"-0.023": 0.0,
			"-0.022": 0.0,
			"-0.021": 0.0,
			"-0.02": 0.0,
			"-0.019": 0.0578172631356,
			"-0.018": 0.705258581275,
			"-0.017": 0.873319162126,
			"-0.016": 0.9613085059,
			"-0.015": 0.66499073311,
			"-0.014": 0.998453057154,
			"-0.013": 0.532693710137,
			"-0.012": 0.587624335655,
			"-0.011": 0.631518675879,
			"-0.01": 0.588467692602,
			"-0.009": 0.325181466469,
			"-0.008": 0.707878912685,
			"-0.007": 3.04541390675,
			"-0.006": 16.3011596693,
			"-0.005": 24.7925253468,
			"-0.004": 28.6598498922,
			"-0.003": 27.6096743053,
			"-0.002": 23.2711243659,
			"-0.001": 26.2483136122,
			"0.0": 26.5035793945,
			"0.001": 25.8987435669,
			"0.002": 26.5410116153,
			"0.003": 30.0725049294,
			"0.004": 22.5675088907,
			"0.005": 18.1202041136,
			"0.006": 8.75516441773,
			"0.007": 4.33989776201,
			"0.008": 3.07664721313,
			"0.009": 2.38185755203,
			"0.01": 3.75990978548,
			"0.011": 3.27622841657,
			"0.012": 3.09773745217,
			"0.013": 1.5857391545,
			"0.014": 0.518077153491,
			"0.015": 0.0,
			"0.016": 0.0,
			"0.017": 0.0,
			"0.018": 0.0,
			"0.019": 0.0,
			"0.02": 0.0,
			"0.021": 0.0,
			"0.022": 0.0,
			"0.023": 0.0,
			"0.024": 0.0,
			"0.025": 0.0
		}
	}
}
