{
	 "smiles": "CCOC(=O)C1=C(NC(=S)NCC=C)SC2=C1CCN(CC1=CC=CC=C1)C2", 
	 "Tm": 411.15, 
	 "num_atms": 53, 
	 "gaussian": { 
		 "optdone": 1, 
		 "sigma_profile": "yes", 
		 "theory": "DFT", 
		 "functional": "B3LYP", 
		 "basiset": "6-31G**", 
		 "properties": { 
			 "R2extent": 18748.6132, 
			 "electric_dipole_moment_norm": 4.46055907931, 
			 "electric_quadrupole_moment_norm": 19.7893788382, 
			 "total_energy": -1926.37608227, 
			 "HOMO_LUMO_gap": 0.15242, 
			 "cosmo_polarized_energy": -20.39, 
			 "cosmo_cavitation_energy": 57.99, 
			 "cosmo_dispersion_energy": -40.79, 
			 "cosmo_repulsion_energy": 3.03, 
			 "cosmo_total_nonelectrostatic_energy": 20.23, 
			 "SMD_solvation_energy": 6.28 
		},
		"coords": [
			{
				"x": 4.0989046095,
				"y": -2.845935681,
				"z": 1.3497402016,
				"element": "C" 
			},
			{
				"x": 4.1623449959,
				"y": -1.371742669,
				"z": 1.7202558328,
				"element": "C" 
			},
			{
				"x": 2.9634504447,
				"y": -0.6696889324,
				"z": 1.3123174466,
				"element": "O" 
			},
			{
				"x": 1.91024571,
				"y": -0.7141887886,
				"z": 2.1528014516,
				"element": "C" 
			},
			{
				"x": 1.9696136428,
				"y": -1.3222719431,
				"z": 3.2300833285,
				"element": "O" 
			},
			{
				"x": 0.7411265866,
				"y": 0.0182218205,
				"z": 1.6780582439,
				"element": "C" 
			},
			{
				"x": -0.4100889725,
				"y": 0.1073678187,
				"z": 2.4739551569,
				"element": "C" 
			},
			{
				"x": -0.5013908603,
				"y": -0.4996370539,
				"z": 3.7056375782,
				"element": "N" 
			},
			{
				"x": -1.5202868243,
				"y": -0.5211392142,
				"z": 4.6278210741,
				"element": "C" 
			},
			{
				"x": -3.0025377183,
				"y": 0.2326941061,
				"z": 4.4094954533,
				"element": "S" 
			},
			{
				"x": -1.1726618156,
				"y": -1.2098830313,
				"z": 5.7520990971,
				"element": "N" 
			},
			{
				"x": -2.0840237699,
				"y": -1.5320207295,
				"z": 6.8497836482,
				"element": "C" 
			},
			{
				"x": -2.7593435864,
				"y": -2.8721293074,
				"z": 6.684550118,
				"element": "C" 
			},
			{
				"x": -4.0781728676,
				"y": -3.0354278544,
				"z": 6.5937302297,
				"element": "C" 
			},
			{
				"x": -1.6560930231,
				"y": 1.0609010545,
				"z": 1.7195717568,
				"element": "S" 
			},
			{
				"x": -0.6235380948,
				"y": 1.3355850708,
				"z": 0.3242771571,
				"element": "C" 
			},
			{
				"x": 0.5909197447,
				"y": 0.7310453603,
				"z": 0.4256090963,
				"element": "C" 
			},
			{
				"x": 1.5868974254,
				"y": 0.8578956977,
				"z": -0.7008859642,
				"element": "C" 
			},
			{
				"x": 0.8964120746,
				"y": 1.3583694006,
				"z": -1.9776558563,
				"element": "C" 
			},
			{
				"x": 0.0491893255,
				"y": 2.5144150396,
				"z": -1.6860725277,
				"element": "N" 
			},
			{
				"x": -0.3166562701,
				"y": 3.3273634714,
				"z": -2.853259659,
				"element": "C" 
			},
			{
				"x": -1.2028506156,
				"y": 2.6713261426,
				"z": -3.9059725208,
				"element": "C" 
			},
			{
				"x": -0.6449174452,
				"y": 1.9228764032,
				"z": -4.9525187176,
				"element": "C" 
			},
			{
				"x": -1.4554905448,
				"y": 1.2947661544,
				"z": -5.8989912881,
				"element": "C" 
			},
			{
				"x": -2.8447879787,
				"y": 1.4077385247,
				"z": -5.8163152989,
				"element": "C" 
			},
			{
				"x": -3.4153311176,
				"y": 2.1572422151,
				"z": -4.7862579407,
				"element": "C" 
			},
			{
				"x": -2.5991666118,
				"y": 2.7836370588,
				"z": -3.8426747774,
				"element": "C" 
			},
			{
				"x": -1.0917714031,
				"y": 2.1569668167,
				"z": -0.844783118,
				"element": "C" 
			},
			{
				"x": 5.0487389551,
				"y": -3.3312279448,
				"z": 1.5981879056,
				"element": "H" 
			},
			{
				"x": 3.9199738219,
				"y": -2.97151733,
				"z": 0.2778226897,
				"element": "H" 
			},
			{
				"x": 3.3017666351,
				"y": -3.3476379725,
				"z": 1.9032273382,
				"element": "H" 
			},
			{
				"x": 4.9650367623,
				"y": -0.8591575266,
				"z": 1.1849429045,
				"element": "H" 
			},
			{
				"x": 4.3012577188,
				"y": -1.2395467344,
				"z": 2.7953683826,
				"element": "H" 
			},
			{
				"x": 0.3817598962,
				"y": -0.9902805613,
				"z": 3.9081936265,
				"element": "H" 
			},
			{
				"x": -0.273060675,
				"y": -1.6725444249,
				"z": 5.7611153339,
				"element": "H" 
			},
			{
				"x": -2.8256783522,
				"y": -0.7333681614,
				"z": 6.9063935984,
				"element": "H" 
			},
			{
				"x": -1.4904784584,
				"y": -1.5138304865,
				"z": 7.7725766864,
				"element": "H" 
			},
			{
				"x": -2.1002208225,
				"y": -3.7399019444,
				"z": 6.6404405222,
				"element": "H" 
			},
			{
				"x": -4.5240481005,
				"y": -4.0196991146,
				"z": 6.4836246828,
				"element": "H" 
			},
			{
				"x": -4.7575674837,
				"y": -2.1878686587,
				"z": 6.6196172668,
				"element": "H" 
			},
			{
				"x": 2.3861481822,
				"y": 1.5522232657,
				"z": -0.4129595585,
				"element": "H" 
			},
			{
				"x": 2.0695514721,
				"y": -0.1029949443,
				"z": -0.8997977361,
				"element": "H" 
			},
			{
				"x": 1.6575657348,
				"y": 1.666408205,
				"z": -2.7028770159,
				"element": "H" 
			},
			{
				"x": 0.3298299915,
				"y": 0.5286596551,
				"z": -2.4392791663,
				"element": "H" 
			},
			{
				"x": 0.6197783391,
				"y": 3.6539510335,
				"z": -3.3210535428,
				"element": "H" 
			},
			{
				"x": -0.8159835938,
				"y": 4.227947438,
				"z": -2.4745073645,
				"element": "H" 
			},
			{
				"x": 0.4363847659,
				"y": 1.8412689535,
				"z": -5.0334191132,
				"element": "H" 
			},
			{
				"x": -1.0028040251,
				"y": 0.7231793139,
				"z": -6.7045929447,
				"element": "H" 
			},
			{
				"x": -3.4773510173,
				"y": 0.9220429536,
				"z": -6.5538199734,
				"element": "H" 
			},
			{
				"x": -4.4949671086,
				"y": 2.2594517924,
				"z": -4.7201199814,
				"element": "H" 
			},
			{
				"x": -3.0512003915,
				"y": 3.378867854,
				"z": -3.0525697396,
				"element": "H" 
			},
			{
				"x": -1.5654183225,
				"y": 3.0850606917,
				"z": -0.4951537017,
				"element": "H" 
			},
			{
				"x": -1.8698089642,
				"y": 1.5987676971,
				"z": -1.4011603013,
				"element": "H" 
			}
		],
		 "valence_orbital": [ 
			{
				"type": "occ",
				"energy": -0.24498,
				"method": "rhf"
			},
			{
				"type": "occ",
				"energy": -0.222,
				"method": "rhf"
			},
			{
				"type": "occ",
				"energy": -0.2091,
				"method": "rhf"
			},
			{
				"type": "occ",
				"energy": -0.20694,
				"method": "rhf"
			},
			{
				"type": "occ",
				"energy": -0.1973,
				"method": "rhf"
			},
			{
				"type": "unocc",
				"energy": -0.04488,
				"method": "rhf"
			},
			{
				"type": "unocc",
				"energy": -0.00319,
				"method": "rhf"
			},
			{
				"type": "unocc",
				"energy": -0.0015,
				"method": "rhf"
			},
			{
				"type": "unocc",
				"energy": 0.0081,
				"method": "rhf"
			},
			{
				"type": "unocc",
				"energy": 0.01449,
				"method": "rhf"
			}
		],
		"cosmo_sigma_profile": { 
			"-0.025": 0.0,
			"-0.024": 0.0,
			"-0.023": 0.0,
			"-0.022": 0.0,
			"-0.021": 0.0,
			"-0.02": 0.0,
			"-0.019": 0.0,
			"-0.018": 0.0,
			"-0.017": 0.0,
			"-0.016": 0.437285624684,
			"-0.015": 2.03389236762,
			"-0.014": 2.34604939695,
			"-0.013": 1.48159003944,
			"-0.012": 1.5863793829,
			"-0.011": 0.950382728857,
			"-0.01": 1.23045044237,
			"-0.009": 1.26379270567,
			"-0.008": 1.1885664551,
			"-0.007": 2.62403708096,
			"-0.006": 8.7630007393,
			"-0.005": 33.3158987046,
			"-0.004": 42.3153123592,
			"-0.003": 44.4886334094,
			"-0.002": 44.1531203719,
			"-0.001": 43.7745628468,
			"0.0": 40.2386769041,
			"0.001": 31.1826521163,
			"0.002": 29.5874982943,
			"0.003": 26.4597712339,
			"0.004": 23.1746239503,
			"0.005": 20.4955573958,
			"0.006": 19.3708219623,
			"0.007": 12.7397146212,
			"0.008": 9.06307034224,
			"0.009": 8.19318122211,
			"0.01": 6.18027444722,
			"0.011": 2.01160161364,
			"0.012": 0.920399908801,
			"0.013": 0.508384812213,
			"0.014": 0.178825477776,
			"0.015": 0.422823752081,
			"0.016": 0.0,
			"0.017": 0.0,
			"0.018": 0.0,
			"0.019": 0.0,
			"0.02": 0.0,
			"0.021": 0.0,
			"0.022": 0.0,
			"0.023": 0.0,
			"0.024": 0.0,
			"0.025": 0.0
		}
	}
}
