{
	 "smiles": "COC1=CC=CC=C1C1=NC(CCl)=NO1", 
	 "Tm": 339.65, 
	 "num_atms": 24, 
	 "gaussian": { 
		 "optdone": 1, 
		 "sigma_profile": "yes", 
		 "theory": "DFT", 
		 "functional": "B3LYP", 
		 "basiset": "6-31G**", 
		 "properties": { 
			 "R2extent": 6022.8666, 
			 "electric_dipole_moment_norm": 2.90719561089, 
			 "electric_quadrupole_moment_norm": 14.1644284848, 
			 "total_energy": -1106.57735348, 
			 "HOMO_LUMO_gap": 0.1871, 
			 "cosmo_polarized_energy": -10.38, 
			 "cosmo_cavitation_energy": 30.76, 
			 "cosmo_dispersion_energy": -22.18, 
			 "cosmo_repulsion_energy": 1.75, 
			 "cosmo_total_nonelectrostatic_energy": 10.33, 
			 "SMD_solvation_energy": 4.36 
		},
		"coords": [
			{
				"x": -2.9860749828,
				"y": 0.586437374,
				"z": -2.2322868155,
				"element": "C" 
			},
			{
				"x": -2.1257718037,
				"y": 0.9805583059,
				"z": -1.1559183621,
				"element": "O" 
			},
			{
				"x": -0.8068625725,
				"y": 0.6485172167,
				"z": -1.2937343904,
				"element": "C" 
			},
			{
				"x": 0.0524191222,
				"y": 1.5572949687,
				"z": -1.9188838757,
				"element": "C" 
			},
			{
				"x": 1.4183219952,
				"y": 1.3002907521,
				"z": -2.009630066,
				"element": "C" 
			},
			{
				"x": 1.9469036536,
				"y": 0.1253531016,
				"z": -1.4677969663,
				"element": "C" 
			},
			{
				"x": 1.1040847254,
				"y": -0.7837604583,
				"z": -0.839853371,
				"element": "C" 
			},
			{
				"x": -0.2806665549,
				"y": -0.5454705904,
				"z": -0.7491307447,
				"element": "C" 
			},
			{
				"x": -1.127084639,
				"y": -1.529588936,
				"z": -0.0784855442,
				"element": "C" 
			},
			{
				"x": -2.4240197228,
				"y": -1.6930709497,
				"z": -0.109093077,
				"element": "N" 
			},
			{
				"x": -2.6041730649,
				"y": -2.7930355016,
				"z": 0.6898505444,
				"element": "C" 
			},
			{
				"x": -3.9356989897,
				"y": -3.3880894856,
				"z": 0.9908946904,
				"element": "C" 
			},
			{
				"x": -4.6391897334,
				"y": -4.231230152,
				"z": -0.4581037829,
				"element": "Cl" 
			},
			{
				"x": -1.5061103366,
				"y": -3.2981722668,
				"z": 1.1982376253,
				"element": "N" 
			},
			{
				"x": -0.5100970769,
				"y": -2.4579536979,
				"z": 0.6934286579,
				"element": "O" 
			},
			{
				"x": -2.6240841439,
				"y": 0.9847709445,
				"z": -3.1885484388,
				"element": "H" 
			},
			{
				"x": -3.9644604218,
				"y": 1.0144139664,
				"z": -2.0080948196,
				"element": "H" 
			},
			{
				"x": -3.072419691,
				"y": -0.5026588365,
				"z": -2.2829450557,
				"element": "H" 
			},
			{
				"x": -0.374862406,
				"y": 2.4745591129,
				"z": -2.3112030886,
				"element": "H" 
			},
			{
				"x": 2.0707663627,
				"y": 2.0188916152,
				"z": -2.496991895,
				"element": "H" 
			},
			{
				"x": 3.0107735908,
				"y": -0.0790627464,
				"z": -1.5319579074,
				"element": "H" 
			},
			{
				"x": 1.506906237,
				"y": -1.6965188259,
				"z": -0.4148646929,
				"element": "H" 
			},
			{
				"x": -3.8470768578,
				"y": -4.1287871763,
				"z": 1.7839995677,
				"element": "H" 
			},
			{
				"x": -4.6483226892,
				"y": -2.6121877347,
				"z": 1.2700118082,
				"element": "H" 
			}
		],
		 "valence_orbital": [ 
			{
				"type": "occ",
				"energy": -0.3029,
				"method": "rhf"
			},
			{
				"type": "occ",
				"energy": -0.30052,
				"method": "rhf"
			},
			{
				"type": "occ",
				"energy": -0.27672,
				"method": "rhf"
			},
			{
				"type": "occ",
				"energy": -0.26249,
				"method": "rhf"
			},
			{
				"type": "occ",
				"energy": -0.25104,
				"method": "rhf"
			},
			{
				"type": "unocc",
				"energy": -0.06394,
				"method": "rhf"
			},
			{
				"type": "unocc",
				"energy": -0.02197,
				"method": "rhf"
			},
			{
				"type": "unocc",
				"energy": -0.01559,
				"method": "rhf"
			},
			{
				"type": "unocc",
				"energy": 0.03181,
				"method": "rhf"
			},
			{
				"type": "unocc",
				"energy": 0.06137,
				"method": "rhf"
			}
		],
		"cosmo_sigma_profile": { 
			"-0.025": 0.0,
			"-0.024": 0.0,
			"-0.023": 0.0,
			"-0.022": 0.0,
			"-0.021": 0.0,
			"-0.02": 0.0,
			"-0.019": 0.0,
			"-0.018": 0.0,
			"-0.017": 0.0,
			"-0.016": 0.0,
			"-0.015": 0.0,
			"-0.014": 0.0,
			"-0.013": 0.0,
			"-0.012": 0.0,
			"-0.011": 0.0,
			"-0.01": 0.316833890261,
			"-0.009": 3.91313969706,
			"-0.008": 3.44094649509,
			"-0.007": 9.0531420358,
			"-0.006": 14.0757183039,
			"-0.005": 15.7391232664,
			"-0.004": 18.470520797,
			"-0.003": 21.3179483308,
			"-0.002": 20.6516356973,
			"-0.001": 14.3404791459,
			"0.0": 17.1009821542,
			"0.001": 16.176070991,
			"0.002": 17.353623505,
			"0.003": 17.2475953342,
			"0.004": 12.596352555,
			"0.005": 15.0193039246,
			"0.006": 13.5263475819,
			"0.007": 2.77467021211,
			"0.008": 3.66302237926,
			"0.009": 3.06340877266,
			"0.01": 2.65705971011,
			"0.011": 3.61251233563,
			"0.012": 2.50455654351,
			"0.013": 0.359120892137,
			"0.014": 0.0,
			"0.015": 0.0,
			"0.016": 0.0,
			"0.017": 0.0,
			"0.018": 0.0,
			"0.019": 0.0,
			"0.02": 0.0,
			"0.021": 0.0,
			"0.022": 0.0,
			"0.023": 0.0,
			"0.024": 0.0,
			"0.025": 0.0
		}
	}
}
