{
	 "smiles": "CC(C)(C)OC(=O)NCC1=CC(O)=CC=C1", 
	 "Tm": 353.15, 
	 "num_atms": 33, 
	 "gaussian": { 
		 "optdone": 1, 
		 "sigma_profile": "yes", 
		 "theory": "DFT", 
		 "functional": "B3LYP", 
		 "basiset": "6-31G**", 
		 "properties": { 
			 "R2extent": 5862.6147, 
			 "electric_dipole_moment_norm": 2.39955028703, 
			 "electric_quadrupole_moment_norm": 15.3297146836, 
			 "total_energy": -747.981704825, 
			 "HOMO_LUMO_gap": 0.21515, 
			 "cosmo_polarized_energy": -14.98, 
			 "cosmo_cavitation_energy": 35.96, 
			 "cosmo_dispersion_energy": -24.75, 
			 "cosmo_repulsion_energy": 1.95, 
			 "cosmo_total_nonelectrostatic_energy": 13.16, 
			 "SMD_solvation_energy": 6.95 
		},
		"coords": [
			{
				"x": -2.4559585714,
				"y": 0.6280525753,
				"z": -1.9342646404,
				"element": "C" 
			},
			{
				"x": -1.0008123106,
				"y": 0.2532168938,
				"z": -2.2271639203,
				"element": "C" 
			},
			{
				"x": -0.9245715857,
				"y": -1.0719219792,
				"z": -2.9930524053,
				"element": "C" 
			},
			{
				"x": -0.2836296375,
				"y": 1.3901591946,
				"z": -2.9628650623,
				"element": "C" 
			},
			{
				"x": -0.4352039973,
				"y": 0.0883967733,
				"z": -0.8781370521,
				"element": "O" 
			},
			{
				"x": 0.8589420181,
				"y": -0.2812258896,
				"z": -0.7090714262,
				"element": "C" 
			},
			{
				"x": 1.6813350102,
				"y": -0.4459987465,
				"z": -1.5965351762,
				"element": "O" 
			},
			{
				"x": 1.1521738642,
				"y": -0.4684180575,
				"z": 0.6156360159,
				"element": "N" 
			},
			{
				"x": 0.2917735653,
				"y": -0.2056049458,
				"z": 1.7624975437,
				"element": "C" 
			},
			{
				"x": 0.6246759923,
				"y": 1.0794642864,
				"z": 2.5040804574,
				"element": "C" 
			},
			{
				"x": 0.991405904,
				"y": 1.0362888441,
				"z": 3.8522808202,
				"element": "C" 
			},
			{
				"x": 1.2924755619,
				"y": 2.214344417,
				"z": 4.5465513519,
				"element": "C" 
			},
			{
				"x": 1.6553291484,
				"y": 2.2171460145,
				"z": 5.8644101754,
				"element": "O" 
			},
			{
				"x": 1.2322638686,
				"y": 3.4468766074,
				"z": 3.8905644634,
				"element": "C" 
			},
			{
				"x": 0.8676939254,
				"y": 3.4862010534,
				"z": 2.5454535911,
				"element": "C" 
			},
			{
				"x": 0.5634263499,
				"y": 2.3159786477,
				"z": 1.8496202686,
				"element": "C" 
			},
			{
				"x": -2.5074894647,
				"y": 1.5485294458,
				"z": -1.3452877115,
				"element": "H" 
			},
			{
				"x": -2.9987474834,
				"y": 0.7859680812,
				"z": -2.8709549909,
				"element": "H" 
			},
			{
				"x": -2.9558239828,
				"y": -0.1681783046,
				"z": -1.3747892601,
				"element": "H" 
			},
			{
				"x": -1.4486207903,
				"y": -0.9737063376,
				"z": -3.9493326288,
				"element": "H" 
			},
			{
				"x": -1.4092192235,
				"y": -1.8696251503,
				"z": -2.4210038291,
				"element": "H" 
			},
			{
				"x": 0.1112773411,
				"y": -1.3522346902,
				"z": -3.184903292,
				"element": "H" 
			},
			{
				"x": -0.7769288314,
				"y": 1.5750459294,
				"z": -3.9227812681,
				"element": "H" 
			},
			{
				"x": 0.7611510861,
				"y": 1.1378165004,
				"z": -3.1435731085,
				"element": "H" 
			},
			{
				"x": -0.3306821154,
				"y": 2.3130132399,
				"z": -2.3755762295,
				"element": "H" 
			},
			{
				"x": 2.1356752254,
				"y": -0.628279316,
				"z": 0.7787354712,
				"element": "H" 
			},
			{
				"x": 0.3583775012,
				"y": -1.0546109071,
				"z": 2.4535301912,
				"element": "H" 
			},
			{
				"x": -0.733258194,
				"y": -0.1736454101,
				"z": 1.389391485,
				"element": "H" 
			},
			{
				"x": 1.043122864,
				"y": 0.0780666433,
				"z": 4.3683149136,
				"element": "H" 
			},
			{
				"x": 1.6548989713,
				"y": 1.3096664173,
				"z": 6.1951925281,
				"element": "H" 
			},
			{
				"x": 1.4712380977,
				"y": 4.3495575057,
				"z": 4.4427692153,
				"element": "H" 
			},
			{
				"x": 0.818279344,
				"y": 4.4447009773,
				"z": 2.0364193746,
				"element": "H" 
			},
			{
				"x": 0.2767305488,
				"y": 2.3559596869,
				"z": 0.8034441345,
				"element": "H" 
			}
		],
		 "valence_orbital": [ 
			{
				"type": "occ",
				"energy": -0.28682,
				"method": "rhf"
			},
			{
				"type": "occ",
				"energy": -0.25972,
				"method": "rhf"
			},
			{
				"type": "occ",
				"energy": -0.25487,
				"method": "rhf"
			},
			{
				"type": "occ",
				"energy": -0.24629,
				"method": "rhf"
			},
			{
				"type": "occ",
				"energy": -0.22083,
				"method": "rhf"
			},
			{
				"type": "unocc",
				"energy": -0.00568,
				"method": "rhf"
			},
			{
				"type": "unocc",
				"energy": 0.00833,
				"method": "rhf"
			},
			{
				"type": "unocc",
				"energy": 0.05994,
				"method": "rhf"
			},
			{
				"type": "unocc",
				"energy": 0.0677,
				"method": "rhf"
			},
			{
				"type": "unocc",
				"energy": 0.07718,
				"method": "rhf"
			}
		],
		"cosmo_sigma_profile": { 
			"-0.025": 0.0,
			"-0.024": 0.0,
			"-0.023": 0.0,
			"-0.022": 0.0,
			"-0.021": 0.0,
			"-0.02": 0.0,
			"-0.019": 0.0,
			"-0.018": 0.238833249575,
			"-0.017": 0.894815674772,
			"-0.016": 1.39338561536,
			"-0.015": 1.32925992513,
			"-0.014": 0.890824957782,
			"-0.013": 1.8847091231,
			"-0.012": 2.04484624779,
			"-0.011": 1.66286469458,
			"-0.01": 2.1147265051,
			"-0.009": 2.38605886677,
			"-0.008": 1.92317813867,
			"-0.007": 2.14796106139,
			"-0.006": 6.36700874211,
			"-0.005": 10.6001559984,
			"-0.004": 20.502665929,
			"-0.003": 27.2790269376,
			"-0.002": 24.1152735326,
			"-0.001": 24.7184797196,
			"0.0": 30.2744807112,
			"0.001": 27.3685584142,
			"0.002": 15.6224893629,
			"0.003": 12.4095494089,
			"0.004": 16.2745153074,
			"0.005": 13.997900979,
			"0.006": 9.4631219932,
			"0.007": 3.35050769499,
			"0.008": 3.30249653515,
			"0.009": 2.1715215676,
			"0.01": 3.51471524714,
			"0.011": 3.3786284418,
			"0.012": 2.86880970493,
			"0.013": 2.34436835039,
			"0.014": 3.15169888254,
			"0.015": 0.126899119377,
			"0.016": 0.0,
			"0.017": 0.0,
			"0.018": 0.0,
			"0.019": 0.0,
			"0.02": 0.0,
			"0.021": 0.0,
			"0.022": 0.0,
			"0.023": 0.0,
			"0.024": 0.0,
			"0.025": 0.0
		}
	}
}
