{
	 "smiles": "CC1=C(OCCN2CCCC2)C=CC(N)=C1", 
	 "Tm": 386.15, 
	 "num_atms": 36, 
	 "gaussian": { 
		 "optdone": 1, 
		 "sigma_profile": "yes", 
		 "theory": "DFT", 
		 "functional": "B3LYP", 
		 "basiset": "6-31G**", 
		 "properties": { 
			 "R2extent": 5824.887, 
			 "electric_dipole_moment_norm": 0.990738986817, 
			 "electric_quadrupole_moment_norm": 12.7207274128, 
			 "total_energy": -692.156249901, 
			 "HOMO_LUMO_gap": 0.18955, 
			 "cosmo_polarized_energy": -10.63, 
			 "cosmo_cavitation_energy": 37.08, 
			 "cosmo_dispersion_energy": -26.44, 
			 "cosmo_repulsion_energy": 2.08, 
			 "cosmo_total_nonelectrostatic_energy": 12.73, 
			 "SMD_solvation_energy": 3.19 
		},
		"coords": [
			{
				"x": 3.1830263603,
				"y": 1.0144966828,
				"z": 0.4542464854,
				"element": "C" 
			},
			{
				"x": 2.7067674525,
				"y": 0.3221183106,
				"z": -0.7974929923,
				"element": "C" 
			},
			{
				"x": 1.3337115431,
				"y": 0.3139567695,
				"z": -1.1188929852,
				"element": "C" 
			},
			{
				"x": 0.5111087038,
				"y": 0.9608603472,
				"z": -0.2253331302,
				"element": "O" 
			},
			{
				"x": -0.8727219757,
				"y": 1.0715572012,
				"z": -0.5391457781,
				"element": "C" 
			},
			{
				"x": -1.5755225855,
				"y": 1.8758025156,
				"z": 0.5479393545,
				"element": "C" 
			},
			{
				"x": -1.8347155882,
				"y": 1.1285280136,
				"z": 1.7686044052,
				"element": "N" 
			},
			{
				"x": -0.663262126,
				"y": 0.8365272306,
				"z": 2.6037222147,
				"element": "C" 
			},
			{
				"x": -1.2762917796,
				"y": 0.3241586461,
				"z": 3.9206839102,
				"element": "C" 
			},
			{
				"x": -2.6893802743,
				"y": 0.9739012895,
				"z": 3.9696032351,
				"element": "C" 
			},
			{
				"x": -2.76867706,
				"y": 1.8024533009,
				"z": 2.6742820321,
				"element": "C" 
			},
			{
				"x": 0.8933337423,
				"y": -0.3248961941,
				"z": -2.2787040344,
				"element": "C" 
			},
			{
				"x": 1.8056793815,
				"y": -0.9603927836,
				"z": -3.1261218466,
				"element": "C" 
			},
			{
				"x": 3.1716024158,
				"y": -0.9666003531,
				"z": -2.8295372277,
				"element": "C" 
			},
			{
				"x": 4.1069616921,
				"y": -1.5462756293,
				"z": -3.7050630775,
				"element": "N" 
			},
			{
				"x": 3.5970055474,
				"y": -0.316652768,
				"z": -1.6575197225,
				"element": "C" 
			},
			{
				"x": 4.2726106641,
				"y": 0.9732923289,
				"z": 0.5344328217,
				"element": "H" 
			},
			{
				"x": 2.7552501442,
				"y": 0.5549766412,
				"z": 1.3525658069,
				"element": "H" 
			},
			{
				"x": 2.8736107864,
				"y": 2.0650654945,
				"z": 0.4672845895,
				"element": "H" 
			},
			{
				"x": -1.3345050841,
				"y": 0.0773788678,
				"z": -0.6137781327,
				"element": "H" 
			},
			{
				"x": -0.9899246547,
				"y": 1.5823155302,
				"z": -1.5064436749,
				"element": "H" 
			},
			{
				"x": -2.5452709875,
				"y": 2.1841373029,
				"z": 0.1379778142,
				"element": "H" 
			},
			{
				"x": -0.9952859541,
				"y": 2.8017044461,
				"z": 0.7332592276,
				"element": "H" 
			},
			{
				"x": -0.0659239396,
				"y": 1.7517813739,
				"z": 2.78681168,
				"element": "H" 
			},
			{
				"x": -0.0066740107,
				"y": 0.113705367,
				"z": 2.1162028303,
				"element": "H" 
			},
			{
				"x": -0.6583915792,
				"y": 0.5960220035,
				"z": 4.7811798594,
				"element": "H" 
			},
			{
				"x": -1.3566246434,
				"y": -0.7664881732,
				"z": 3.9087610587,
				"element": "H" 
			},
			{
				"x": -2.8358764295,
				"y": 1.5993561086,
				"z": 4.8546811854,
				"element": "H" 
			},
			{
				"x": -3.4660531927,
				"y": 0.2040913259,
				"z": 3.9809344667,
				"element": "H" 
			},
			{
				"x": -3.7738619584,
				"y": 1.8338020888,
				"z": 2.2387232057,
				"element": "H" 
			},
			{
				"x": -2.4604590857,
				"y": 2.849082109,
				"z": 2.8723925297,
				"element": "H" 
			},
			{
				"x": -0.1590538613,
				"y": -0.3434686139,
				"z": -2.5361007422,
				"element": "H" 
			},
			{
				"x": 1.4448601443,
				"y": -1.4501711984,
				"z": -4.0272994007,
				"element": "H" 
			},
			{
				"x": 4.9548934072,
				"y": -1.8591348699,
				"z": -3.2499903313,
				"element": "H" 
			},
			{
				"x": 3.7237675481,
				"y": -2.282320191,
				"z": -4.2841345843,
				"element": "H" 
			},
			{
				"x": 4.657787237,
				"y": -0.3041705213,
				"z": -1.4145310525,
				"element": "H" 
			}
		],
		 "valence_orbital": [ 
			{
				"type": "occ",
				"energy": -0.3095,
				"method": "rhf"
			},
			{
				"type": "occ",
				"energy": -0.26772,
				"method": "rhf"
			},
			{
				"type": "occ",
				"energy": -0.23276,
				"method": "rhf"
			},
			{
				"type": "occ",
				"energy": -0.2083,
				"method": "rhf"
			},
			{
				"type": "occ",
				"energy": -0.1784,
				"method": "rhf"
			},
			{
				"type": "unocc",
				"energy": 0.01115,
				"method": "rhf"
			},
			{
				"type": "unocc",
				"energy": 0.03565,
				"method": "rhf"
			},
			{
				"type": "unocc",
				"energy": 0.08446,
				"method": "rhf"
			},
			{
				"type": "unocc",
				"energy": 0.08882,
				"method": "rhf"
			},
			{
				"type": "unocc",
				"energy": 0.10463,
				"method": "rhf"
			}
		],
		"cosmo_sigma_profile": { 
			"-0.025": 0.0,
			"-0.024": 0.0,
			"-0.023": 0.0,
			"-0.022": 0.0,
			"-0.021": 0.0,
			"-0.02": 0.0,
			"-0.019": 0.0,
			"-0.018": 0.0,
			"-0.017": 0.0,
			"-0.016": 0.0,
			"-0.015": 0.0,
			"-0.014": 0.0,
			"-0.013": 0.0,
			"-0.012": 0.868360296493,
			"-0.011": 2.69438386758,
			"-0.01": 2.98425750382,
			"-0.009": 2.07273151479,
			"-0.008": 3.88619741769,
			"-0.007": 2.57194235591,
			"-0.006": 4.52774935581,
			"-0.005": 10.8593082037,
			"-0.004": 19.1833395864,
			"-0.003": 24.7731324124,
			"-0.002": 29.5141044742,
			"-0.001": 43.1675852765,
			"0.0": 36.947113786,
			"0.001": 24.4631003952,
			"0.002": 12.5687563952,
			"0.003": 10.5871292717,
			"0.004": 11.1634667197,
			"0.005": 9.98711283076,
			"0.006": 10.411771639,
			"0.007": 11.232115086,
			"0.008": 4.27566589951,
			"0.009": 1.51281206858,
			"0.01": 1.09073014832,
			"0.011": 2.18992898162,
			"0.012": 1.30110046291,
			"0.013": 0.946839380017,
			"0.014": 0.91026856906,
			"0.015": 0.997521989861,
			"0.016": 0.906165857255,
			"0.017": 0.0,
			"0.018": 0.0,
			"0.019": 0.0,
			"0.02": 0.0,
			"0.021": 0.0,
			"0.022": 0.0,
			"0.023": 0.0,
			"0.024": 0.0,
			"0.025": 0.0
		}
	}
}
