{
	 "smiles": "FC1=CC=CC2=C1C(=O)C2", 
	 "Tm": 314.15, 
	 "num_atms": 15, 
	 "gaussian": { 
		 "optdone": 1, 
		 "sigma_profile": "yes", 
		 "theory": "DFT", 
		 "functional": "B3LYP", 
		 "basiset": "6-31G**", 
		 "properties": { 
			 "R2extent": 1565.0906, 
			 "electric_dipole_moment_norm": 4.25587061129, 
			 "electric_quadrupole_moment_norm": 4.24091342402, 
			 "total_energy": -482.877294428, 
			 "HOMO_LUMO_gap": 0.19279, 
			 "cosmo_polarized_energy": -7.69, 
			 "cosmo_cavitation_energy": 20.26, 
			 "cosmo_dispersion_energy": -14.85, 
			 "cosmo_repulsion_energy": 1.2, 
			 "cosmo_total_nonelectrostatic_energy": 6.61, 
			 "SMD_solvation_energy": 4.48 
		},
		"coords": [
			{
				"x": 0.8449234585,
				"y": -1.822443216,
				"z": -0.9694285079,
				"element": "F" 
			},
			{
				"x": 0.0691621824,
				"y": -1.528572879,
				"z": 0.0820772955,
				"element": "C" 
			},
			{
				"x": 0.0289011134,
				"y": -2.38766025,
				"z": 1.1797588105,
				"element": "C" 
			},
			{
				"x": -0.7823096197,
				"y": -2.0841991755,
				"z": 2.2840130595,
				"element": "C" 
			},
			{
				"x": -1.5770249477,
				"y": -0.9278193701,
				"z": 2.3408708939,
				"element": "C" 
			},
			{
				"x": -1.5165070226,
				"y": -0.0931696437,
				"z": 1.2356911499,
				"element": "C" 
			},
			{
				"x": -0.7115482827,
				"y": -0.3790845509,
				"z": 0.1218607932,
				"element": "C" 
			},
			{
				"x": -1.1533721992,
				"y": 0.8726466428,
				"z": -0.5725215711,
				"element": "C" 
			},
			{
				"x": -0.9333187123,
				"y": 1.4186284289,
				"z": -1.6212849219,
				"element": "O" 
			},
			{
				"x": -2.0638809528,
				"y": 1.2138063521,
				"z": 0.6659507332,
				"element": "C" 
			},
			{
				"x": 0.6318522991,
				"y": -3.2894289227,
				"z": 1.1656894607,
				"element": "H" 
			},
			{
				"x": -0.7891136399,
				"y": -2.7760532142,
				"z": 3.1217029212,
				"element": "H" 
			},
			{
				"x": -2.1946356731,
				"y": -0.7191175062,
				"z": 3.2082476488,
				"element": "H" 
			},
			{
				"x": -1.7848000339,
				"y": 2.1323910677,
				"z": 1.1932551269,
				"element": "H" 
			},
			{
				"x": -3.1364279696,
				"y": 1.2402762368,
				"z": 0.4453171076,
				"element": "H" 
			}
		],
		 "valence_orbital": [ 
			{
				"type": "occ",
				"energy": -0.36617,
				"method": "rhf"
			},
			{
				"type": "occ",
				"energy": -0.3528,
				"method": "rhf"
			},
			{
				"type": "occ",
				"energy": -0.27081,
				"method": "rhf"
			},
			{
				"type": "occ",
				"energy": -0.26228,
				"method": "rhf"
			},
			{
				"type": "occ",
				"energy": -0.25521,
				"method": "rhf"
			},
			{
				"type": "unocc",
				"energy": -0.06242,
				"method": "rhf"
			},
			{
				"type": "unocc",
				"energy": -0.02042,
				"method": "rhf"
			},
			{
				"type": "unocc",
				"energy": 0.03911,
				"method": "rhf"
			},
			{
				"type": "unocc",
				"energy": 0.07636,
				"method": "rhf"
			},
			{
				"type": "unocc",
				"energy": 0.11734,
				"method": "rhf"
			}
		],
		"cosmo_sigma_profile": { 
			"-0.025": 0.0,
			"-0.024": 0.0,
			"-0.023": 0.0,
			"-0.022": 0.0,
			"-0.021": 0.0,
			"-0.02": 0.0,
			"-0.019": 0.0,
			"-0.018": 0.0,
			"-0.017": 0.0,
			"-0.016": 0.0,
			"-0.015": 0.0,
			"-0.014": 0.0,
			"-0.013": 0.0,
			"-0.012": 0.0,
			"-0.011": 0.0,
			"-0.01": 0.0,
			"-0.009": 0.0,
			"-0.008": 1.05472234913,
			"-0.007": 7.42718739031,
			"-0.006": 11.5869266186,
			"-0.005": 12.4790565677,
			"-0.004": 9.92862485631,
			"-0.003": 11.7788347378,
			"-0.002": 11.2131391372,
			"-0.001": 15.123822097,
			"0.0": 13.1478933873,
			"0.001": 12.8285152596,
			"0.002": 13.2885303356,
			"0.003": 16.6156613977,
			"0.004": 6.97168654725,
			"0.005": 1.36950182261,
			"0.006": 1.41929134962,
			"0.007": 1.93878859212,
			"0.008": 2.02198687779,
			"0.009": 2.24824149466,
			"0.01": 3.81602629331,
			"0.011": 5.14598358633,
			"0.012": 2.17325833917,
			"0.013": 0.0576393557622,
			"0.014": 0.0,
			"0.015": 0.0,
			"0.016": 0.0,
			"0.017": 0.0,
			"0.018": 0.0,
			"0.019": 0.0,
			"0.02": 0.0,
			"0.021": 0.0,
			"0.022": 0.0,
			"0.023": 0.0,
			"0.024": 0.0,
			"0.025": 0.0
		}
	}
}
