{
	 "smiles": "NC(CC1=CC(Br)=C(O)C(Br)=C1)C(O)=O", 
	 "Tm": 518.15, 
	 "num_atms": 24, 
	 "gaussian": { 
		 "optdone": 1, 
		 "sigma_profile": "yes", 
		 "theory": "DFT", 
		 "functional": "B3LYP", 
		 "basiset": "6-31G**", 
		 "properties": { 
			 "R2extent": 7088.2015, 
			 "electric_dipole_moment_norm": 2.55989903707, 
			 "electric_quadrupole_moment_norm": 10.5892322026, 
			 "total_energy": -5771.6213587, 
			 "HOMO_LUMO_gap": 0.20008, 
			 "cosmo_polarized_energy": -16.65, 
			 "cosmo_cavitation_energy": 33.38, 
			 "cosmo_dispersion_energy": -23.9, 
			 "cosmo_repulsion_energy": 1.91, 
			 "cosmo_total_nonelectrostatic_energy": 11.4, 
			 "SMD_solvation_energy": 3.45 
		},
		"coords": [
			{
				"x": 3.6064762759,
				"y": 0.5720912394,
				"z": 1.6399190588,
				"element": "N" 
			},
			{
				"x": 2.3031942483,
				"y": 0.4821949424,
				"z": 0.985513458,
				"element": "C" 
			},
			{
				"x": 1.3356734372,
				"y": -0.5603626151,
				"z": 1.6224824022,
				"element": "C" 
			},
			{
				"x": -0.0054517832,
				"y": -0.6799062665,
				"z": 0.9330529997,
				"element": "C" 
			},
			{
				"x": -1.0959556289,
				"y": 0.1001505324,
				"z": 1.3408388731,
				"element": "C" 
			},
			{
				"x": -2.3200739678,
				"y": 0.0198201205,
				"z": 0.6857704913,
				"element": "C" 
			},
			{
				"x": -3.7751046825,
				"y": 1.0951844857,
				"z": 1.2768654472,
				"element": "Br" 
			},
			{
				"x": -2.5106486456,
				"y": -0.843269777,
				"z": -0.4057411537,
				"element": "C" 
			},
			{
				"x": -3.71483108,
				"y": -0.8931264215,
				"z": -1.0108808797,
				"element": "O" 
			},
			{
				"x": -1.4075210866,
				"y": -1.6175125512,
				"z": -0.7988304061,
				"element": "C" 
			},
			{
				"x": -1.6355671827,
				"y": -2.8145985287,
				"z": -2.2804078688,
				"element": "Br" 
			},
			{
				"x": -0.1794650294,
				"y": -1.5454871583,
				"z": -0.1519582981,
				"element": "C" 
			},
			{
				"x": 1.6751634538,
				"y": 1.8682377526,
				"z": 1.0789511601,
				"element": "C" 
			},
			{
				"x": 1.3249997254,
				"y": 2.3744771381,
				"z": -0.1172762254,
				"element": "O" 
			},
			{
				"x": 1.4924860046,
				"y": 2.4490619424,
				"z": 2.128740178,
				"element": "O" 
			},
			{
				"x": 3.4770213472,
				"y": 0.9116494284,
				"z": 2.5907002916,
				"element": "H" 
			},
			{
				"x": 4.0363544218,
				"y": -0.3474666114,
				"z": 1.6959776612,
				"element": "H" 
			},
			{
				"x": 2.4521448581,
				"y": 0.2371880522,
				"z": -0.0705551071,
				"element": "H" 
			},
			{
				"x": 1.8489010849,
				"y": -1.5292781118,
				"z": 1.6084346655,
				"element": "H" 
			},
			{
				"x": 1.1956729258,
				"y": -0.2810735859,
				"z": 2.6724609456,
				"element": "H" 
			},
			{
				"x": -0.9919423455,
				"y": 0.7815500244,
				"z": 2.1783737723,
				"element": "H" 
			},
			{
				"x": -3.6687526953,
				"y": -1.5375041622,
				"z": -1.7362177901,
				"element": "H" 
			},
			{
				"x": 0.6382202796,
				"y": -2.1709807143,
				"z": -0.4941209658,
				"element": "H" 
			},
			{
				"x": 0.9184060648,
				"y": 3.2415608455,
				"z": 0.0564072903,
				"element": "H" 
			}
		],
		 "valence_orbital": [ 
			{
				"type": "occ",
				"energy": -0.28643,
				"method": "rhf"
			},
			{
				"type": "occ",
				"energy": -0.2848,
				"method": "rhf"
			},
			{
				"type": "occ",
				"energy": -0.25559,
				"method": "rhf"
			},
			{
				"type": "occ",
				"energy": -0.2496,
				"method": "rhf"
			},
			{
				"type": "occ",
				"energy": -0.23021,
				"method": "rhf"
			},
			{
				"type": "unocc",
				"energy": -0.03013,
				"method": "rhf"
			},
			{
				"type": "unocc",
				"energy": -0.02429,
				"method": "rhf"
			},
			{
				"type": "unocc",
				"energy": -0.01373,
				"method": "rhf"
			},
			{
				"type": "unocc",
				"energy": 0.00086,
				"method": "rhf"
			},
			{
				"type": "unocc",
				"energy": 0.02158,
				"method": "rhf"
			}
		],
		"cosmo_sigma_profile": { 
			"-0.025": 0.0,
			"-0.024": 0.0,
			"-0.023": 0.0,
			"-0.022": 0.0,
			"-0.021": 0.0,
			"-0.02": 0.0,
			"-0.019": 0.24728545708,
			"-0.018": 0.797089225637,
			"-0.017": 0.945568420603,
			"-0.016": 1.24316886779,
			"-0.015": 0.90351789903,
			"-0.014": 1.01391968261,
			"-0.013": 0.978384798626,
			"-0.012": 1.47671412827,
			"-0.011": 2.8276854915,
			"-0.01": 3.32452493364,
			"-0.009": 4.12348444372,
			"-0.008": 5.05297479326,
			"-0.007": 8.6741438617,
			"-0.006": 11.4886320883,
			"-0.005": 14.0344313446,
			"-0.004": 13.5527085795,
			"-0.003": 15.2832642699,
			"-0.002": 14.8806834513,
			"-0.001": 16.1180543299,
			"0.0": 19.0204192598,
			"0.001": 24.0631283429,
			"0.002": 23.7834491716,
			"0.003": 24.1365619837,
			"0.004": 17.8473109022,
			"0.005": 8.02614175376,
			"0.006": 6.03545583732,
			"0.007": 4.31332275835,
			"0.008": 5.47705101973,
			"0.009": 6.05046267196,
			"0.01": 4.45038063521,
			"0.011": 4.13857664731,
			"0.012": 3.23197065127,
			"0.013": 0.515915368751,
			"0.014": 0.669682498667,
			"0.015": 0.391360084694,
			"0.016": 0.750975585636,
			"0.017": 0.507055075519,
			"0.018": 0.433598320628,
			"0.019": 0.0,
			"0.02": 0.0,
			"0.021": 0.0,
			"0.022": 0.0,
			"0.023": 0.0,
			"0.024": 0.0,
			"0.025": 0.0
		}
	}
}
