{
	 "smiles": "CCOC(=O)C1=C(N)SC(C)=C1C", 
	 "Tm": 363.65, 
	 "num_atms": 26, 
	 "gaussian": { 
		 "optdone": 1, 
		 "sigma_profile": "yes", 
		 "theory": "DFT", 
		 "functional": "B3LYP", 
		 "basiset": "6-31G**", 
		 "properties": { 
			 "R2extent": 3379.8504, 
			 "electric_dipole_moment_norm": 2.73383469508, 
			 "electric_quadrupole_moment_norm": 9.96467874445, 
			 "total_energy": -954.200673714, 
			 "HOMO_LUMO_gap": 0.17482, 
			 "cosmo_polarized_energy": -10.61, 
			 "cosmo_cavitation_energy": 30.27, 
			 "cosmo_dispersion_energy": -22.59, 
			 "cosmo_repulsion_energy": 1.76, 
			 "cosmo_total_nonelectrostatic_energy": 9.45, 
			 "SMD_solvation_energy": 5.82 
		},
		"coords": [
			{
				"x": 3.4613838862,
				"y": -2.2492319976,
				"z": 1.1005967872,
				"element": "C" 
			},
			{
				"x": 2.8881710618,
				"y": -0.8558931645,
				"z": 1.2835135957,
				"element": "C" 
			},
			{
				"x": 1.7204479999,
				"y": -0.7486715561,
				"z": 0.4417282334,
				"element": "O" 
			},
			{
				"x": 1.0610274981,
				"y": 0.4581938979,
				"z": 0.4965569417,
				"element": "C" 
			},
			{
				"x": 1.4656993355,
				"y": 1.3582105296,
				"z": 1.2122450441,
				"element": "O" 
			},
			{
				"x": -0.1142601646,
				"y": 0.5076870188,
				"z": -0.3733884779,
				"element": "C" 
			},
			{
				"x": -0.5548351899,
				"y": -0.5424672809,
				"z": -1.1745562413,
				"element": "C" 
			},
			{
				"x": -0.0823750279,
				"y": -1.8232976932,
				"z": -1.2738647564,
				"element": "N" 
			},
			{
				"x": -1.9721135166,
				"y": -0.0860166624,
				"z": -2.0859343166,
				"element": "S" 
			},
			{
				"x": -1.971281291,
				"y": 1.5429359484,
				"z": -1.393709912,
				"element": "C" 
			},
			{
				"x": -3.0420591002,
				"y": 2.4921607654,
				"z": -1.8426920496,
				"element": "C" 
			},
			{
				"x": -0.9451781719,
				"y": 1.7020828975,
				"z": -0.5094118694,
				"element": "C" 
			},
			{
				"x": -0.6798245025,
				"y": 2.9761757301,
				"z": 0.2484132642,
				"element": "C" 
			},
			{
				"x": 2.7334881476,
				"y": -3.0145515055,
				"z": 1.3869333099,
				"element": "H" 
			},
			{
				"x": 3.7563699128,
				"y": -2.4211169774,
				"z": 0.0605761272,
				"element": "H" 
			},
			{
				"x": 4.349029708,
				"y": -2.3712267776,
				"z": 1.729097223,
				"element": "H" 
			},
			{
				"x": 3.6042929948,
				"y": -0.0782985168,
				"z": 1.0001055484,
				"element": "H" 
			},
			{
				"x": 2.5956648785,
				"y": -0.6673936676,
				"z": 2.3208996419,
				"element": "H" 
			},
			{
				"x": -0.280564149,
				"y": -2.3302112802,
				"z": -2.1230974349,
				"element": "H" 
			},
			{
				"x": 0.8287640091,
				"y": -1.9694557604,
				"z": -0.8610187422,
				"element": "H" 
			},
			{
				"x": -2.9318294147,
				"y": 3.4598977494,
				"z": -1.3493456377,
				"element": "H" 
			},
			{
				"x": -4.0458704216,
				"y": 2.1165502505,
				"z": -1.6092005258,
				"element": "H" 
			},
			{
				"x": -3.0033659805,
				"y": 2.6685799717,
				"z": -2.9246936969,
				"element": "H" 
			},
			{
				"x": 0.3172875954,
				"y": 3.3666710531,
				"z": 0.027012522,
				"element": "H" 
			},
			{
				"x": -0.7030726218,
				"y": 2.8037437047,
				"z": 1.3279088086,
				"element": "H" 
			},
			{
				"x": -1.4161974757,
				"y": 3.7444433232,
				"z": 0.0035266134,
				"element": "H" 
			}
		],
		 "valence_orbital": [ 
			{
				"type": "occ",
				"energy": -0.29883,
				"method": "rhf"
			},
			{
				"type": "occ",
				"energy": -0.29116,
				"method": "rhf"
			},
			{
				"type": "occ",
				"energy": -0.26021,
				"method": "rhf"
			},
			{
				"type": "occ",
				"energy": -0.24031,
				"method": "rhf"
			},
			{
				"type": "occ",
				"energy": -0.1901,
				"method": "rhf"
			},
			{
				"type": "unocc",
				"energy": -0.01528,
				"method": "rhf"
			},
			{
				"type": "unocc",
				"energy": 0.01558,
				"method": "rhf"
			},
			{
				"type": "unocc",
				"energy": 0.02816,
				"method": "rhf"
			},
			{
				"type": "unocc",
				"energy": 0.08112,
				"method": "rhf"
			},
			{
				"type": "unocc",
				"energy": 0.10112,
				"method": "rhf"
			}
		],
		"cosmo_sigma_profile": { 
			"-0.025": 0.0,
			"-0.024": 0.0,
			"-0.023": 0.0,
			"-0.022": 0.0,
			"-0.021": 0.0,
			"-0.02": 0.0,
			"-0.019": 0.0,
			"-0.018": 0.0,
			"-0.017": 0.0,
			"-0.016": 0.0,
			"-0.015": 0.186507412314,
			"-0.014": 1.2456499781,
			"-0.013": 1.37160515285,
			"-0.012": 1.08497437083,
			"-0.011": 1.48960591367,
			"-0.01": 1.49780850352,
			"-0.009": 2.35964638648,
			"-0.008": 1.71652277301,
			"-0.007": 1.42974241837,
			"-0.006": 2.98166014227,
			"-0.005": 7.84475235879,
			"-0.004": 19.7305154789,
			"-0.003": 25.5459345659,
			"-0.002": 25.7680912298,
			"-0.001": 23.1835353765,
			"0.0": 26.8568215418,
			"0.001": 18.3985983886,
			"0.002": 14.4236429121,
			"0.003": 15.5255843498,
			"0.004": 15.1377573289,
			"0.005": 11.187562806,
			"0.006": 4.60978470237,
			"0.007": 2.65216000579,
			"0.008": 2.54053042816,
			"0.009": 1.92331728236,
			"0.01": 2.11799402529,
			"0.011": 2.41228657412,
			"0.012": 2.44603519419,
			"0.013": 2.89572338941,
			"0.014": 0.143000993772,
			"0.015": 0.0,
			"0.016": 0.0,
			"0.017": 0.0,
			"0.018": 0.0,
			"0.019": 0.0,
			"0.02": 0.0,
			"0.021": 0.0,
			"0.022": 0.0,
			"0.023": 0.0,
			"0.024": 0.0,
			"0.025": 0.0
		}
	}
}
