{
	 "smiles": "CC(C)N1CSC2=NN=C(N2C1)C1=CN=CC=C1", 
	 "Tm": 562.15, 
	 "num_atms": 33, 
	 "gaussian": { 
		 "optdone": 1, 
		 "sigma_profile": "yes", 
		 "theory": "DFT", 
		 "functional": "B3LYP", 
		 "basiset": "6-31G**", 
		 "properties": { 
			 "R2extent": 6417.701, 
			 "electric_dipole_moment_norm": 8.95098159198, 
			 "electric_quadrupole_moment_norm": 21.6194277174, 
			 "total_energy": -1138.2160576, 
			 "HOMO_LUMO_gap": 0.1743, 
			 "cosmo_polarized_energy": -24.24, 
			 "cosmo_cavitation_energy": 36.86, 
			 "cosmo_dispersion_energy": -26.58, 
			 "cosmo_repulsion_energy": 1.99, 
			 "cosmo_total_nonelectrostatic_energy": 12.26, 
			 "SMD_solvation_energy": 0.02 
		},
		"coords": [
			{
				"x": -1.1295839088,
				"y": 2.2664435138,
				"z": -2.1333915419,
				"element": "C" 
			},
			{
				"x": -0.8170415815,
				"y": 1.7788803252,
				"z": -0.7139551913,
				"element": "C" 
			},
			{
				"x": -0.4235433685,
				"y": 2.9427839322,
				"z": 0.2151173515,
				"element": "C" 
			},
			{
				"x": 0.1593164541,
				"y": 0.6656844945,
				"z": -0.745207981,
				"element": "N" 
			},
			{
				"x": 1.5045458843,
				"y": 0.9871543513,
				"z": -1.1711976338,
				"element": "C" 
			},
			{
				"x": 2.3308440776,
				"y": -0.4741976379,
				"z": -1.9537263854,
				"element": "S" 
			},
			{
				"x": 1.8340417027,
				"y": -1.6541140278,
				"z": -0.7464275019,
				"element": "C" 
			},
			{
				"x": 2.3522925874,
				"y": -2.8529937296,
				"z": -0.6105024099,
				"element": "N" 
			},
			{
				"x": 1.6550790505,
				"y": -3.4810844638,
				"z": 0.397886498,
				"element": "N" 
			},
			{
				"x": 0.7371622271,
				"y": -2.648626483,
				"z": 0.843357522,
				"element": "C" 
			},
			{
				"x": 0.7917830139,
				"y": -1.462018734,
				"z": 0.1302570263,
				"element": "N" 
			},
			{
				"x": 0.1584367206,
				"y": -0.170293965,
				"z": 0.433121248,
				"element": "C" 
			},
			{
				"x": -0.1904675765,
				"y": -2.9538460725,
				"z": 1.9407243739,
				"element": "C" 
			},
			{
				"x": 0.2993288585,
				"y": -3.606978075,
				"z": 3.0867011012,
				"element": "C" 
			},
			{
				"x": -0.4602055087,
				"y": -3.9592720469,
				"z": 4.1259619364,
				"element": "N" 
			},
			{
				"x": -1.7665564896,
				"y": -3.6685218378,
				"z": 4.0659954585,
				"element": "C" 
			},
			{
				"x": -2.3638404669,
				"y": -3.0360835284,
				"z": 2.9749800996,
				"element": "C" 
			},
			{
				"x": -1.5644052426,
				"y": -2.6804184731,
				"z": 1.8914616825,
				"element": "C" 
			},
			{
				"x": -1.9774010443,
				"y": 2.9579357279,
				"z": -2.1101837204,
				"element": "H" 
			},
			{
				"x": -0.2884745583,
				"y": 2.8073487577,
				"z": -2.580329982,
				"element": "H" 
			},
			{
				"x": -1.3812309239,
				"y": 1.423976839,
				"z": -2.7823472495,
				"element": "H" 
			},
			{
				"x": -1.736866751,
				"y": 1.3283498714,
				"z": -0.3195196845,
				"element": "H" 
			},
			{
				"x": -0.2326492346,
				"y": 2.6021183234,
				"z": 1.2380390282,
				"element": "H" 
			},
			{
				"x": -1.2279243724,
				"y": 3.6839155418,
				"z": 0.2582775565,
				"element": "H" 
			},
			{
				"x": 0.4755798598,
				"y": 3.4547735659,
				"z": -0.1449490893,
				"element": "H" 
			},
			{
				"x": 1.4869709885,
				"y": 1.748026909,
				"z": -1.9514089215,
				"element": "H" 
			},
			{
				"x": 2.1485103533,
				"y": 1.3413315286,
				"z": -0.3516422348,
				"element": "H" 
			},
			{
				"x": -0.8711120781,
				"y": -0.3486587023,
				"z": 0.7441728118,
				"element": "H" 
			},
			{
				"x": 0.6986600683,
				"y": 0.2741399176,
				"z": 1.2898835634,
				"element": "H" 
			},
			{
				"x": 1.3572322726,
				"y": -3.8514710726,
				"z": 3.1429872399,
				"element": "H" 
			},
			{
				"x": -2.3638569185,
				"y": -3.9615751284,
				"z": 4.9274693838,
				"element": "H" 
			},
			{
				"x": -3.4321675804,
				"y": -2.8442237434,
				"z": 2.9679156797,
				"element": "H" 
			},
			{
				"x": -2.0077565144,
				"y": -2.2325858777,
				"z": 1.006679966,
				"element": "H" 
			}
		],
		 "valence_orbital": [ 
			{
				"type": "occ",
				"energy": -0.26948,
				"method": "rhf"
			},
			{
				"type": "occ",
				"energy": -0.26088,
				"method": "rhf"
			},
			{
				"type": "occ",
				"energy": -0.25097,
				"method": "rhf"
			},
			{
				"type": "occ",
				"energy": -0.24818,
				"method": "rhf"
			},
			{
				"type": "occ",
				"energy": -0.2186,
				"method": "rhf"
			},
			{
				"type": "unocc",
				"energy": -0.0443,
				"method": "rhf"
			},
			{
				"type": "unocc",
				"energy": -0.02856,
				"method": "rhf"
			},
			{
				"type": "unocc",
				"energy": 0.0035,
				"method": "rhf"
			},
			{
				"type": "unocc",
				"energy": 0.0244,
				"method": "rhf"
			},
			{
				"type": "unocc",
				"energy": 0.04306,
				"method": "rhf"
			}
		],
		"cosmo_sigma_profile": { 
			"-0.025": 0.0,
			"-0.024": 0.0,
			"-0.023": 0.0,
			"-0.022": 0.0,
			"-0.021": 0.0,
			"-0.02": 0.0,
			"-0.019": 0.0,
			"-0.018": 0.0,
			"-0.017": 0.0,
			"-0.016": 0.0,
			"-0.015": 0.0,
			"-0.014": 0.0,
			"-0.013": 0.0,
			"-0.012": 0.0214164172755,
			"-0.011": 0.495287131989,
			"-0.01": 1.1221334303,
			"-0.009": 3.58478964936,
			"-0.008": 7.70732285019,
			"-0.007": 13.7421760992,
			"-0.006": 21.6206009056,
			"-0.005": 20.1269726965,
			"-0.004": 21.4173219034,
			"-0.003": 23.8330091103,
			"-0.002": 18.6901881917,
			"-0.001": 20.7182648901,
			"0.0": 25.4789910683,
			"0.001": 25.8490391095,
			"0.002": 16.429605879,
			"0.003": 9.86172450297,
			"0.004": 8.13145619504,
			"0.005": 8.09601532669,
			"0.006": 6.83915344503,
			"0.007": 6.64155883714,
			"0.008": 5.43647931197,
			"0.009": 4.02049236389,
			"0.01": 2.67411561384,
			"0.011": 3.69046976075,
			"0.012": 3.83434886276,
			"0.013": 4.06394813332,
			"0.014": 3.92058124112,
			"0.015": 3.6127971087,
			"0.016": 2.45249935072,
			"0.017": 0.526775391296,
			"0.018": 0.0,
			"0.019": 0.0,
			"0.02": 0.0,
			"0.021": 0.0,
			"0.022": 0.0,
			"0.023": 0.0,
			"0.024": 0.0,
			"0.025": 0.0
		}
	}
}
