{
	 "smiles": "CCOP(=S)(OC1=CC=C(C=C1)[N+]([O-])=O)C1=CC=CC=C1", 
	 "Tm": 309.15, 
	 "num_atms": 35, 
	 "gaussian": { 
		 "optdone": 1, 
		 "sigma_profile": "yes", 
		 "theory": "DFT", 
		 "functional": "B3LYP", 
		 "basiset": "6-31G**", 
		 "properties": { 
			 "R2extent": 8970.5825, 
			 "electric_dipole_moment_norm": 6.31081626654, 
			 "electric_quadrupole_moment_norm": 29.2534735584, 
			 "total_energy": -1637.0723058, 
			 "HOMO_LUMO_gap": 0.15983, 
			 "cosmo_polarized_energy": -14.21, 
			 "cosmo_cavitation_energy": 43.71, 
			 "cosmo_dispersion_energy": -29.74, 
			 "cosmo_repulsion_energy": 2.26, 
			 "cosmo_total_nonelectrostatic_energy": 16.22, 
			 "SMD_solvation_energy": 9.66 
		},
		"coords": [
			{
				"x": 2.9916943645,
				"y": 0.7716541502,
				"z": -3.497398092,
				"element": "C" 
			},
			{
				"x": 1.7637846038,
				"y": 0.1515505324,
				"z": -2.8594732219,
				"element": "C" 
			},
			{
				"x": 2.1365256236,
				"y": -0.2912497453,
				"z": -1.5267029018,
				"element": "O" 
			},
			{
				"x": 1.0983503055,
				"y": -1.1153751406,
				"z": -0.6055274314,
				"element": "P" 
			},
			{
				"x": 0.1960529191,
				"y": -2.6512090098,
				"z": -1.3775429129,
				"element": "S" 
			},
			{
				"x": 0.0999317024,
				"y": 0.1585348862,
				"z": -0.2043525095,
				"element": "O" 
			},
			{
				"x": -1.0854302516,
				"y": 0.0157743261,
				"z": 0.4929225763,
				"element": "C" 
			},
			{
				"x": -1.0843189437,
				"y": 0.2149178152,
				"z": 1.877219307,
				"element": "C" 
			},
			{
				"x": -2.2819236535,
				"y": 0.1454326043,
				"z": 2.5808762858,
				"element": "C" 
			},
			{
				"x": -3.4580802519,
				"y": -0.1238440552,
				"z": 1.8818939143,
				"element": "C" 
			},
			{
				"x": -3.4693843815,
				"y": -0.3246451061,
				"z": 0.5019516921,
				"element": "C" 
			},
			{
				"x": -2.2702047355,
				"y": -0.2531901307,
				"z": -0.199114144,
				"element": "C" 
			},
			{
				"x": -4.7248619397,
				"y": -0.1941901902,
				"z": 2.6226004819,
				"element": "N" 
			},
			{
				"x": -4.6852167594,
				"y": -0.0163452215,
				"z": 3.8402746761,
				"element": "O" 
			},
			{
				"x": -5.7497372619,
				"y": -0.4259010003,
				"z": 1.9816026225,
				"element": "O" 
			},
			{
				"x": 2.09967614,
				"y": -1.3944491918,
				"z": 0.8757034705,
				"element": "C" 
			},
			{
				"x": 2.8247209608,
				"y": -0.3299079171,
				"z": 1.43791076,
				"element": "C" 
			},
			{
				"x": 3.5825080156,
				"y": -0.5392483125,
				"z": 2.5881521075,
				"element": "C" 
			},
			{
				"x": 3.619116403,
				"y": -1.8041191495,
				"z": 3.1828074015,
				"element": "C" 
			},
			{
				"x": 2.8992649891,
				"y": -2.8616561066,
				"z": 2.6254740463,
				"element": "C" 
			},
			{
				"x": 2.1390213797,
				"y": -2.6603196562,
				"z": 1.4725444344,
				"element": "C" 
			},
			{
				"x": 3.3455663994,
				"y": 1.6267899952,
				"z": -2.9147898982,
				"element": "H" 
			},
			{
				"x": 2.7467646186,
				"y": 1.1182363746,
				"z": -4.506376022,
				"element": "H" 
			},
			{
				"x": 3.8012195242,
				"y": 0.0402842525,
				"z": -3.5694088432,
				"element": "H" 
			},
			{
				"x": 0.9471815009,
				"y": 0.8756380865,
				"z": -2.7688305236,
				"element": "H" 
			},
			{
				"x": 1.4061012493,
				"y": -0.7129106571,
				"z": -3.4278378846,
				"element": "H" 
			},
			{
				"x": -0.1496559885,
				"y": 0.4268783971,
				"z": 2.3838482763,
				"element": "H" 
			},
			{
				"x": -2.3217525759,
				"y": 0.2962453433,
				"z": 3.6521649112,
				"element": "H" 
			},
			{
				"x": -4.4070449031,
				"y": -0.5315009267,
				"z": 0.0019382135,
				"element": "H" 
			},
			{
				"x": -2.2385347973,
				"y": -0.4074673847,
				"z": -1.2707754686,
				"element": "H" 
			},
			{
				"x": 2.8010388886,
				"y": 0.6497037574,
				"z": 0.9718447581,
				"element": "H" 
			},
			{
				"x": 4.1462932273,
				"y": 0.2824448787,
				"z": 3.0197645852,
				"element": "H" 
			},
			{
				"x": 4.2104638555,
				"y": -1.963299714,
				"z": 4.0798880103,
				"element": "H" 
			},
			{
				"x": 2.9286052346,
				"y": -3.8445163312,
				"z": 3.0858812238,
				"element": "H" 
			},
			{
				"x": 1.5786645383,
				"y": -3.4772404529,
				"z": 1.0292660989,
				"element": "H" 
			}
		],
		 "valence_orbital": [ 
			{
				"type": "occ",
				"energy": -0.28113,
				"method": "rhf"
			},
			{
				"type": "occ",
				"energy": -0.2734,
				"method": "rhf"
			},
			{
				"type": "occ",
				"energy": -0.27094,
				"method": "rhf"
			},
			{
				"type": "occ",
				"energy": -0.25021,
				"method": "rhf"
			},
			{
				"type": "occ",
				"energy": -0.2467,
				"method": "rhf"
			},
			{
				"type": "unocc",
				"energy": -0.08687,
				"method": "rhf"
			},
			{
				"type": "unocc",
				"energy": -0.04998,
				"method": "rhf"
			},
			{
				"type": "unocc",
				"energy": -0.02852,
				"method": "rhf"
			},
			{
				"type": "unocc",
				"energy": -0.0233,
				"method": "rhf"
			},
			{
				"type": "unocc",
				"energy": 0.00101,
				"method": "rhf"
			}
		],
		"cosmo_sigma_profile": { 
			"-0.025": 0.0,
			"-0.024": 0.0,
			"-0.023": 0.0,
			"-0.022": 0.0,
			"-0.021": 0.0,
			"-0.02": 0.0,
			"-0.019": 0.0,
			"-0.018": 0.0,
			"-0.017": 0.0,
			"-0.016": 0.0,
			"-0.015": 0.0,
			"-0.014": 0.0,
			"-0.013": 0.0,
			"-0.012": 0.0,
			"-0.011": 0.0,
			"-0.01": 0.0,
			"-0.009": 0.0927731342105,
			"-0.008": 2.54166206615,
			"-0.007": 10.4792689274,
			"-0.006": 18.8612270724,
			"-0.005": 24.8219766622,
			"-0.004": 29.7251509852,
			"-0.003": 26.8791588946,
			"-0.002": 28.5516333005,
			"-0.001": 29.4528074963,
			"0.0": 34.3017427144,
			"0.001": 26.6943345093,
			"0.002": 20.1472418143,
			"0.003": 22.132813376,
			"0.004": 14.9024012883,
			"0.005": 10.8209808266,
			"0.006": 11.9729469863,
			"0.007": 15.5662764645,
			"0.008": 13.6529825355,
			"0.009": 6.4497706303,
			"0.01": 2.8324454005,
			"0.011": 0.036400356892,
			"0.012": 0.0,
			"0.013": 0.0,
			"0.014": 0.0,
			"0.015": 0.0,
			"0.016": 0.0,
			"0.017": 0.0,
			"0.018": 0.0,
			"0.019": 0.0,
			"0.02": 0.0,
			"0.021": 0.0,
			"0.022": 0.0,
			"0.023": 0.0,
			"0.024": 0.0,
			"0.025": 0.0
		}
	}
}
