{
	 "smiles": "CC1=CC=C(SCCC(=O)NN)C=C1", 
	 "Tm": 380.15, 
	 "num_atms": 28, 
	 "gaussian": { 
		 "optdone": 1, 
		 "sigma_profile": "yes", 
		 "theory": "DFT", 
		 "functional": "B3LYP", 
		 "basiset": "6-31G**", 
		 "properties": { 
			 "R2extent": 3629.195, 
			 "electric_dipole_moment_norm": 4.05136802204, 
			 "electric_quadrupole_moment_norm": 15.7756096022, 
			 "total_energy": -972.396301863, 
			 "HOMO_LUMO_gap": 0.20724, 
			 "cosmo_polarized_energy": -18.51, 
			 "cosmo_cavitation_energy": 32.7, 
			 "cosmo_dispersion_energy": -22.76, 
			 "cosmo_repulsion_energy": 1.78, 
			 "cosmo_total_nonelectrostatic_energy": 11.72, 
			 "SMD_solvation_energy": 5.9 
		},
		"coords": [
			{
				"x": 1.8842158838,
				"y": 2.5666770705,
				"z": -2.4149260402,
				"element": "C" 
			},
			{
				"x": 1.4638468368,
				"y": 1.7690382558,
				"z": -1.2031372845,
				"element": "C" 
			},
			{
				"x": 1.3384716361,
				"y": 0.3748353673,
				"z": -1.2653270784,
				"element": "C" 
			},
			{
				"x": 0.9246228439,
				"y": -0.3678453465,
				"z": -0.1591915238,
				"element": "C" 
			},
			{
				"x": 0.6250072098,
				"y": 0.2801976884,
				"z": 1.0462344484,
				"element": "C" 
			},
			{
				"x": 0.1711512047,
				"y": -0.659915262,
				"z": 2.5098361557,
				"element": "S" 
			},
			{
				"x": -1.6723421912,
				"y": -0.564161667,
				"z": 2.504177259,
				"element": "C" 
			},
			{
				"x": -2.4115362502,
				"y": -1.7018235887,
				"z": 1.7736740311,
				"element": "C" 
			},
			{
				"x": -2.1788859661,
				"y": -1.7850440172,
				"z": 0.268407256,
				"element": "C" 
			},
			{
				"x": -1.4225243264,
				"y": -2.605477462,
				"z": -0.2361117581,
				"element": "O" 
			},
			{
				"x": -2.8641149247,
				"y": -0.8975543426,
				"z": -0.5262981484,
				"element": "N" 
			},
			{
				"x": -3.7983086441,
				"y": 0.0757945301,
				"z": -0.1501440786,
				"element": "N" 
			},
			{
				"x": 0.7610194778,
				"y": 1.6733447041,
				"z": 1.1252951249,
				"element": "C" 
			},
			{
				"x": 1.1688686786,
				"y": 2.4049471395,
				"z": 0.010870309,
				"element": "C" 
			},
			{
				"x": 2.4144582251,
				"y": 3.4802554237,
				"z": -2.1295565173,
				"element": "H" 
			},
			{
				"x": 2.5387315005,
				"y": 1.9843038661,
				"z": -3.0701749204,
				"element": "H" 
			},
			{
				"x": 1.013638266,
				"y": 2.8689800565,
				"z": -3.0108451348,
				"element": "H" 
			},
			{
				"x": 1.5684135438,
				"y": -0.141400281,
				"z": -2.1943464864,
				"element": "H" 
			},
			{
				"x": 0.8104952019,
				"y": -1.4435646512,
				"z": -0.2306239058,
				"element": "H" 
			},
			{
				"x": -1.9524634592,
				"y": -0.5924464326,
				"z": 3.5615908501,
				"element": "H" 
			},
			{
				"x": -1.9547267563,
				"y": 0.4221091532,
				"z": 2.125482606,
				"element": "H" 
			},
			{
				"x": -2.0875656216,
				"y": -2.6628279976,
				"z": 2.1777021182,
				"element": "H" 
			},
			{
				"x": -3.4844376514,
				"y": -1.5935637823,
				"z": 1.9826968488,
				"element": "H" 
			},
			{
				"x": -2.6938027729,
				"y": -0.9795249659,
				"z": -1.5200907066,
				"element": "H" 
			},
			{
				"x": -3.3682286569,
				"y": 0.7834510814,
				"z": 0.4384691255,
				"element": "H" 
			},
			{
				"x": -4.5815478634,
				"y": -0.3433362894,
				"z": 0.3438559714,
				"element": "H" 
			},
			{
				"x": 0.5606300365,
				"y": 2.1783892421,
				"z": 2.0655954139,
				"element": "H" 
			},
			{
				"x": 1.2727145392,
				"y": 3.4846625072,
				"z": 0.0889860654,
				"element": "H" 
			}
		],
		 "valence_orbital": [ 
			{
				"type": "occ",
				"energy": -0.2576,
				"method": "rhf"
			},
			{
				"type": "occ",
				"energy": -0.25061,
				"method": "rhf"
			},
			{
				"type": "occ",
				"energy": -0.24505,
				"method": "rhf"
			},
			{
				"type": "occ",
				"energy": -0.23877,
				"method": "rhf"
			},
			{
				"type": "occ",
				"energy": -0.22335,
				"method": "rhf"
			},
			{
				"type": "unocc",
				"energy": -0.01611,
				"method": "rhf"
			},
			{
				"type": "unocc",
				"energy": -0.00225,
				"method": "rhf"
			},
			{
				"type": "unocc",
				"energy": 0.01878,
				"method": "rhf"
			},
			{
				"type": "unocc",
				"energy": 0.04463,
				"method": "rhf"
			},
			{
				"type": "unocc",
				"energy": 0.0591,
				"method": "rhf"
			}
		],
		"cosmo_sigma_profile": { 
			"-0.025": 0.0,
			"-0.024": 0.0,
			"-0.023": 0.0,
			"-0.022": 0.0,
			"-0.021": 0.0,
			"-0.02": 0.0,
			"-0.019": 0.0,
			"-0.018": 0.0,
			"-0.017": 0.0,
			"-0.016": 0.0,
			"-0.015": 0.0,
			"-0.014": 0.0647887604908,
			"-0.013": 0.683208107086,
			"-0.012": 3.32680960965,
			"-0.011": 4.54366302504,
			"-0.01": 4.58346421906,
			"-0.009": 4.76089876611,
			"-0.008": 3.60562150851,
			"-0.007": 4.00250131261,
			"-0.006": 9.54069723556,
			"-0.005": 15.9194312265,
			"-0.004": 23.69649321,
			"-0.003": 21.9289186334,
			"-0.002": 19.3331272186,
			"-0.001": 17.1339764391,
			"0.0": 17.116801381,
			"0.001": 14.7882032348,
			"0.002": 12.2568494576,
			"0.003": 13.0401857367,
			"0.004": 14.5969656356,
			"0.005": 14.4510416152,
			"0.006": 7.34122201455,
			"0.007": 4.27973691681,
			"0.008": 5.2062918036,
			"0.009": 4.27889872885,
			"0.01": 4.2368944602,
			"0.011": 1.72460425,
			"0.012": 2.36483744482,
			"0.013": 3.9527688391,
			"0.014": 4.13161120574,
			"0.015": 1.86308386744,
			"0.016": 0.417701053601,
			"0.017": 0.00140846768322,
			"0.018": 0.0,
			"0.019": 0.0,
			"0.02": 0.0,
			"0.021": 0.0,
			"0.022": 0.0,
			"0.023": 0.0,
			"0.024": 0.0,
			"0.025": 0.0
		}
	}
}
