{
	 "smiles": "CC1=CC(C)=C(NS(=O)(=O)C2=C(Cl)C=CC(N)=C2)C=C1", 
	 "Tm": 331.15, 
	 "num_atms": 35, 
	 "gaussian": { 
		 "optdone": 1, 
		 "sigma_profile": "yes", 
		 "theory": "DFT", 
		 "functional": "B3LYP", 
		 "basiset": "6-31G**", 
		 "properties": { 
			 "R2extent": 6889.7394, 
			 "electric_dipole_moment_norm": 6.85244087096, 
			 "electric_quadrupole_moment_norm": 25.0832357045, 
			 "total_energy": -1660.80305127, 
			 "HOMO_LUMO_gap": 0.17426, 
			 "cosmo_polarized_energy": -19.29, 
			 "cosmo_cavitation_energy": 40.85, 
			 "cosmo_dispersion_energy": -28.82, 
			 "cosmo_repulsion_energy": 2.18, 
			 "cosmo_total_nonelectrostatic_energy": 14.21, 
			 "SMD_solvation_energy": 5.79 
		},
		"coords": [
			{
				"x": -4.3960565972,
				"y": 1.7350174823,
				"z": -0.6914408501,
				"element": "C" 
			},
			{
				"x": -2.9162693645,
				"y": 1.4312759538,
				"z": -0.6887143989,
				"element": "C" 
			},
			{
				"x": -2.2381363013,
				"y": 1.1331671595,
				"z": -1.8756244304,
				"element": "C" 
			},
			{
				"x": -0.8665073752,
				"y": 0.8665173665,
				"z": -1.9195666169,
				"element": "C" 
			},
			{
				"x": -0.1931172017,
				"y": 0.558725108,
				"z": -3.2366950478,
				"element": "C" 
			},
			{
				"x": -0.1399532285,
				"y": 0.9123877381,
				"z": -0.7101526338,
				"element": "C" 
			},
			{
				"x": 1.2656700397,
				"y": 0.6842616985,
				"z": -0.7469189358,
				"element": "N" 
			},
			{
				"x": 2.1757368241,
				"y": -0.1142314169,
				"z": 0.4237167779,
				"element": "S" 
			},
			{
				"x": 3.5244304748,
				"y": -0.1690722908,
				"z": -0.1313207759,
				"element": "O" 
			},
			{
				"x": 1.9110601566,
				"y": 0.5194916256,
				"z": 1.7159345524,
				"element": "O" 
			},
			{
				"x": 1.5093674422,
				"y": -1.7959779969,
				"z": 0.5426519515,
				"element": "C" 
			},
			{
				"x": 1.5508729235,
				"y": -2.726478681,
				"z": -0.5053659268,
				"element": "C" 
			},
			{
				"x": 2.2319912612,
				"y": -2.3636254627,
				"z": -2.0831329385,
				"element": "Cl" 
			},
			{
				"x": 1.0230592626,
				"y": -4.0013120057,
				"z": -0.3006515523,
				"element": "C" 
			},
			{
				"x": 0.4653413486,
				"y": -4.3535063476,
				"z": 0.9229159962,
				"element": "C" 
			},
			{
				"x": 0.4188272904,
				"y": -3.4320704469,
				"z": 1.9829105612,
				"element": "C" 
			},
			{
				"x": -0.084625521,
				"y": -3.79106196,
				"z": 3.2251362528,
				"element": "N" 
			},
			{
				"x": 0.9487085349,
				"y": -2.1488731829,
				"z": 1.7694459956,
				"element": "C" 
			},
			{
				"x": -0.7939070595,
				"y": 1.2320633615,
				"z": 0.4858980966,
				"element": "C" 
			},
			{
				"x": -2.1658568099,
				"y": 1.4721720236,
				"z": 0.4904016689,
				"element": "C" 
			},
			{
				"x": -4.9150586931,
				"y": 1.1954222627,
				"z": -1.4898139896,
				"element": "H" 
			},
			{
				"x": -4.8624516585,
				"y": 1.4602876741,
				"z": 0.2596846848,
				"element": "H" 
			},
			{
				"x": -4.5846938669,
				"y": 2.8048341807,
				"z": -0.8476732668,
				"element": "H" 
			},
			{
				"x": -2.7968148483,
				"y": 1.0991913956,
				"z": -2.8087979103,
				"element": "H" 
			},
			{
				"x": 0.3039037617,
				"y": -0.4186029605,
				"z": -3.2288890017,
				"element": "H" 
			},
			{
				"x": 0.5638680756,
				"y": 1.3107684726,
				"z": -3.497079931,
				"element": "H" 
			},
			{
				"x": -0.9244440657,
				"y": 0.5478425675,
				"z": -4.0483004035,
				"element": "H" 
			},
			{
				"x": 1.6664359572,
				"y": 0.5084429654,
				"z": -1.6605845976,
				"element": "H" 
			},
			{
				"x": 1.0532031761,
				"y": -4.7214792441,
				"z": -1.1110165215,
				"element": "H" 
			},
			{
				"x": 0.0667504987,
				"y": -5.3550733098,
				"z": 1.0593485547,
				"element": "H" 
			},
			{
				"x": -0.3616696058,
				"y": -3.0323932506,
				"z": 3.8310752174,
				"element": "H" 
			},
			{
				"x": -0.7331694638,
				"y": -4.5646987694,
				"z": 3.2395017094,
				"element": "H" 
			},
			{
				"x": 0.9422793902,
				"y": -1.4097825129,
				"z": 2.5627890076,
				"element": "H" 
			},
			{
				"x": -0.2232561471,
				"y": 1.2998158386,
				"z": 1.4033067331,
				"element": "H" 
			},
			{
				"x": -2.65491861,
				"y": 1.7112549642,
				"z": 1.4316219689,
				"element": "H" 
			}
		],
		 "valence_orbital": [ 
			{
				"type": "occ",
				"energy": -0.29973,
				"method": "rhf"
			},
			{
				"type": "occ",
				"energy": -0.27534,
				"method": "rhf"
			},
			{
				"type": "occ",
				"energy": -0.24458,
				"method": "rhf"
			},
			{
				"type": "occ",
				"energy": -0.22197,
				"method": "rhf"
			},
			{
				"type": "occ",
				"energy": -0.21565,
				"method": "rhf"
			},
			{
				"type": "unocc",
				"energy": -0.04139,
				"method": "rhf"
			},
			{
				"type": "unocc",
				"energy": -0.01561,
				"method": "rhf"
			},
			{
				"type": "unocc",
				"energy": -0.00284,
				"method": "rhf"
			},
			{
				"type": "unocc",
				"energy": 0.00102,
				"method": "rhf"
			},
			{
				"type": "unocc",
				"energy": 0.01623,
				"method": "rhf"
			}
		],
		"cosmo_sigma_profile": { 
			"-0.025": 0.0,
			"-0.024": 0.0,
			"-0.023": 0.0,
			"-0.022": 0.0,
			"-0.021": 0.0,
			"-0.02": 0.0,
			"-0.019": 0.0,
			"-0.018": 0.0,
			"-0.017": 0.0,
			"-0.016": 0.0,
			"-0.015": 0.0,
			"-0.014": 0.199219520416,
			"-0.013": 2.98940604633,
			"-0.012": 4.14836438435,
			"-0.011": 4.21870037268,
			"-0.01": 4.41625060703,
			"-0.009": 4.20310373618,
			"-0.008": 5.67317108475,
			"-0.007": 6.85021560179,
			"-0.006": 8.7570985334,
			"-0.005": 13.5167778362,
			"-0.004": 20.4606092913,
			"-0.003": 21.5539812978,
			"-0.002": 22.8471378011,
			"-0.001": 27.9861004779,
			"0.0": 30.0585617088,
			"0.001": 26.1874746284,
			"0.002": 27.4728875584,
			"0.003": 20.5921096092,
			"0.004": 18.2461915724,
			"0.005": 13.3712541608,
			"0.006": 11.1318045666,
			"0.007": 5.20234210232,
			"0.008": 4.09130625191,
			"0.009": 5.5757888569,
			"0.01": 9.13808643135,
			"0.011": 7.41952460891,
			"0.012": 0.621648291648,
			"0.013": 0.285337802143,
			"0.014": 0.0,
			"0.015": 0.0,
			"0.016": 0.0,
			"0.017": 0.0,
			"0.018": 0.0,
			"0.019": 0.0,
			"0.02": 0.0,
			"0.021": 0.0,
			"0.022": 0.0,
			"0.023": 0.0,
			"0.024": 0.0,
			"0.025": 0.0
		}
	}
}
