{
	 "smiles": "ClC1=NC=C(C=C1)C1=NC2=C(N1)C=CC=C2", 
	 "Tm": 472.15, 
	 "num_atms": 24, 
	 "gaussian": { 
		 "optdone": 1, 
		 "sigma_profile": "yes", 
		 "theory": "DFT", 
		 "functional": "B3LYP", 
		 "basiset": "6-31G**", 
		 "properties": { 
			 "R2extent": 7742.3671, 
			 "electric_dipole_moment_norm": 5.3748383585, 
			 "electric_quadrupole_moment_norm": 23.4897143784, 
			 "total_energy": -1086.56038295, 
			 "HOMO_LUMO_gap": 0.15911, 
			 "cosmo_polarized_energy": -16.94, 
			 "cosmo_cavitation_energy": 30.76, 
			 "cosmo_dispersion_energy": -23.31, 
			 "cosmo_repulsion_energy": 1.78, 
			 "cosmo_total_nonelectrostatic_energy": 9.22, 
			 "SMD_solvation_energy": 1.4 
		},
		"coords": [
			{
				"x": 4.2982488921,
				"y": 5.599358346,
				"z": 2.4023666713,
				"element": "Cl" 
			},
			{
				"x": 3.2017110405,
				"y": 4.3458428265,
				"z": 1.8356101032,
				"element": "C" 
			},
			{
				"x": 2.4805035483,
				"y": 4.6234182233,
				"z": 0.7625152353,
				"element": "N" 
			},
			{
				"x": 1.6428405835,
				"y": 3.6834670344,
				"z": 0.3183596985,
				"element": "C" 
			},
			{
				"x": 1.4890276469,
				"y": 2.4250261799,
				"z": 0.9268469237,
				"element": "C" 
			},
			{
				"x": 2.2708939715,
				"y": 2.1668681898,
				"z": 2.0631147069,
				"element": "C" 
			},
			{
				"x": 3.1463759081,
				"y": 3.1378255256,
				"z": 2.5345719101,
				"element": "C" 
			},
			{
				"x": 0.5406623524,
				"y": 1.4687794477,
				"z": 0.3553622414,
				"element": "C" 
			},
			{
				"x": -0.1973042622,
				"y": 1.7034753174,
				"z": -0.7104599587,
				"element": "N" 
			},
			{
				"x": -0.9410291217,
				"y": 0.5554552595,
				"z": -0.9060245641,
				"element": "C" 
			},
			{
				"x": -0.6324458815,
				"y": -0.4068262083,
				"z": 0.0880026973,
				"element": "C" 
			},
			{
				"x": 0.3194007976,
				"y": 0.2070242089,
				"z": 0.8811527537,
				"element": "N" 
			},
			{
				"x": -1.2387501954,
				"y": -1.6636670401,
				"z": 0.1321847183,
				"element": "C" 
			},
			{
				"x": -2.1770962955,
				"y": -1.9386480617,
				"z": -0.8592124138,
				"element": "C" 
			},
			{
				"x": -2.4974498485,
				"y": -0.99376482,
				"z": -1.8568037628,
				"element": "C" 
			},
			{
				"x": -1.8895550637,
				"y": 0.2556102078,
				"z": -1.8942912915,
				"element": "C" 
			},
			{
				"x": 1.0549727573,
				"y": 3.9205634387,
				"z": -0.5632337901,
				"element": "H" 
			},
			{
				"x": 2.2091944201,
				"y": 1.2183588536,
				"z": 2.589382877,
				"element": "H" 
			},
			{
				"x": 3.7643269531,
				"y": 2.9716911622,
				"z": 3.40856641,
				"element": "H" 
			},
			{
				"x": 0.7640239518,
				"y": -0.1966856922,
				"z": 1.6896486128,
				"element": "H" 
			},
			{
				"x": -0.9956096489,
				"y": -2.3942391165,
				"z": 0.8978849923,
				"element": "H" 
			},
			{
				"x": -2.6743384247,
				"y": -2.9039588977,
				"z": -0.8644933394,
				"element": "H" 
			},
			{
				"x": -3.2357696887,
				"y": -1.2532091157,
				"z": -2.6095385932,
				"element": "H" 
			},
			{
				"x": -2.1312343926,
				"y": 0.9868347308,
				"z": -2.6586128382,
				"element": "H" 
			}
		],
		 "valence_orbital": [ 
			{
				"type": "occ",
				"energy": -0.28646,
				"method": "rhf"
			},
			{
				"type": "occ",
				"energy": -0.27517,
				"method": "rhf"
			},
			{
				"type": "occ",
				"energy": -0.27394,
				"method": "rhf"
			},
			{
				"type": "occ",
				"energy": -0.2353,
				"method": "rhf"
			},
			{
				"type": "occ",
				"energy": -0.22189,
				"method": "rhf"
			},
			{
				"type": "unocc",
				"energy": -0.06278,
				"method": "rhf"
			},
			{
				"type": "unocc",
				"energy": -0.04109,
				"method": "rhf"
			},
			{
				"type": "unocc",
				"energy": -0.00072,
				"method": "rhf"
			},
			{
				"type": "unocc",
				"energy": 0.01651,
				"method": "rhf"
			},
			{
				"type": "unocc",
				"energy": 0.02695,
				"method": "rhf"
			}
		],
		"cosmo_sigma_profile": { 
			"-0.025": 0.0,
			"-0.024": 0.0,
			"-0.023": 0.0,
			"-0.022": 0.0,
			"-0.021": 0.0,
			"-0.02": 0.0,
			"-0.019": 0.0,
			"-0.018": 0.0918100449203,
			"-0.017": 1.73007859503,
			"-0.016": 1.85722492602,
			"-0.015": 1.1525817162,
			"-0.014": 0.768977290473,
			"-0.013": 2.20390638555,
			"-0.012": 1.600831405,
			"-0.011": 1.37799596267,
			"-0.01": 1.41034777833,
			"-0.009": 2.87974580792,
			"-0.008": 4.59475563887,
			"-0.007": 5.5006001468,
			"-0.006": 8.98800661371,
			"-0.005": 11.9767507948,
			"-0.004": 12.8195323634,
			"-0.003": 12.4057442291,
			"-0.002": 13.4193686919,
			"-0.001": 21.1102400967,
			"0.0": 27.0400060684,
			"0.001": 20.3638843312,
			"0.002": 14.6026116299,
			"0.003": 17.0923763118,
			"0.004": 21.8878827208,
			"0.005": 16.276629372,
			"0.006": 8.94767434716,
			"0.007": 3.57669194875,
			"0.008": 3.30520904226,
			"0.009": 1.77386986203,
			"0.01": 2.46027407178,
			"0.011": 1.66504912171,
			"0.012": 2.42084799041,
			"0.013": 1.65796606475,
			"0.014": 1.68540199372,
			"0.015": 0.379175534891,
			"0.016": 0.0,
			"0.017": 0.0,
			"0.018": 0.0,
			"0.019": 0.0,
			"0.02": 0.0,
			"0.021": 0.0,
			"0.022": 0.0,
			"0.023": 0.0,
			"0.024": 0.0,
			"0.025": 0.0
		}
	}
}
