{
	 "smiles": "CCC1(CC)NC(=O)NC1=O", 
	 "Tm": 454.15, 
	 "num_atms": 23, 
	 "gaussian": { 
		 "optdone": 1, 
		 "sigma_profile": "yes", 
		 "theory": "DFT", 
		 "functional": "B3LYP", 
		 "basiset": "6-31G**", 
		 "properties": { 
			 "R2extent": 1986.3991, 
			 "electric_dipole_moment_norm": 2.81617001973, 
			 "electric_quadrupole_moment_norm": 14.6865917653, 
			 "total_energy": -533.983188096, 
			 "HOMO_LUMO_gap": 0.25257, 
			 "cosmo_polarized_energy": -14.88, 
			 "cosmo_cavitation_energy": 25.58, 
			 "cosmo_dispersion_energy": -18.13, 
			 "cosmo_repulsion_energy": 1.48, 
			 "cosmo_total_nonelectrostatic_energy": 8.94, 
			 "SMD_solvation_energy": 5.83 
		},
		"coords": [
			{
				"x": 1.0105670852,
				"y": -1.1733819903,
				"z": 3.4455420923,
				"element": "C" 
			},
			{
				"x": 1.6465618852,
				"y": -1.2069211793,
				"z": 2.0520947113,
				"element": "C" 
			},
			{
				"x": 0.7181936115,
				"y": -0.766255972,
				"z": 0.8901783207,
				"element": "C" 
			},
			{
				"x": -0.5082733527,
				"y": -1.6933879168,
				"z": 0.7345053642,
				"element": "C" 
			},
			{
				"x": -1.4155674869,
				"y": -1.3658176729,
				"z": -0.4548354501,
				"element": "C" 
			},
			{
				"x": 0.3526490507,
				"y": 0.6483177942,
				"z": 0.9775623889,
				"element": "N" 
			},
			{
				"x": 0.9262675627,
				"y": 1.437517398,
				"z": 0.0153454259,
				"element": "C" 
			},
			{
				"x": 0.8612619284,
				"y": 2.6415529151,
				"z": -0.1213831762,
				"element": "O" 
			},
			{
				"x": 1.6299227762,
				"y": 0.544204228,
				"z": -0.8238020426,
				"element": "N" 
			},
			{
				"x": 1.5557667412,
				"y": -0.7672745038,
				"z": -0.4088725156,
				"element": "C" 
			},
			{
				"x": 2.0560665313,
				"y": -1.7368717611,
				"z": -0.9411659884,
				"element": "O" 
			},
			{
				"x": 0.1769710809,
				"y": -1.8752720649,
				"z": 3.5393484694,
				"element": "H" 
			},
			{
				"x": 0.6426519959,
				"y": -0.1730593446,
				"z": 3.7013882057,
				"element": "H" 
			},
			{
				"x": 1.7527627621,
				"y": -1.4442736636,
				"z": 4.2024178648,
				"element": "H" 
			},
			{
				"x": 2.0021953025,
				"y": -2.2165727257,
				"z": 1.8199360744,
				"element": "H" 
			},
			{
				"x": 2.5279701077,
				"y": -0.5543817653,
				"z": 2.0431188848,
				"element": "H" 
			},
			{
				"x": -1.0907841074,
				"y": -1.6543294537,
				"z": 1.6621566973,
				"element": "H" 
			},
			{
				"x": -0.127503395,
				"y": -2.7164740576,
				"z": 0.6412259965,
				"element": "H" 
			},
			{
				"x": -2.2818272594,
				"y": -2.0339721713,
				"z": -0.4668250151,
				"element": "H" 
			},
			{
				"x": -0.8892432642,
				"y": -1.4932926234,
				"z": -1.4060474399,
				"element": "H" 
			},
			{
				"x": -1.7853496134,
				"y": -0.3373620339,
				"z": -0.4036725964,
				"element": "H" 
			},
			{
				"x": -0.1183572335,
				"y": 1.0729602687,
				"z": 1.7606837412,
				"element": "H" 
			},
			{
				"x": 2.1306972912,
				"y": 0.8570482962,
				"z": -1.6430000131,
				"element": "H" 
			}
		],
		 "valence_orbital": [ 
			{
				"type": "occ",
				"energy": -0.34357,
				"method": "rhf"
			},
			{
				"type": "occ",
				"energy": -0.28794,
				"method": "rhf"
			},
			{
				"type": "occ",
				"energy": -0.2873,
				"method": "rhf"
			},
			{
				"type": "occ",
				"energy": -0.26445,
				"method": "rhf"
			},
			{
				"type": "occ",
				"energy": -0.26009,
				"method": "rhf"
			},
			{
				"type": "unocc",
				"energy": -0.00752,
				"method": "rhf"
			},
			{
				"type": "unocc",
				"energy": 0.05624,
				"method": "rhf"
			},
			{
				"type": "unocc",
				"energy": 0.06839,
				"method": "rhf"
			},
			{
				"type": "unocc",
				"energy": 0.0933,
				"method": "rhf"
			},
			{
				"type": "unocc",
				"energy": 0.09878,
				"method": "rhf"
			}
		],
		"cosmo_sigma_profile": { 
			"-0.025": 0.0,
			"-0.024": 0.0,
			"-0.023": 0.0,
			"-0.022": 0.0,
			"-0.021": 0.0,
			"-0.02": 0.0,
			"-0.019": 0.0,
			"-0.018": 0.0,
			"-0.017": 0.317846008928,
			"-0.016": 1.2716556875,
			"-0.015": 1.61776500302,
			"-0.014": 1.22590647736,
			"-0.013": 1.78606850062,
			"-0.012": 1.82571686862,
			"-0.011": 1.82365414026,
			"-0.01": 2.59465196961,
			"-0.009": 1.93226943805,
			"-0.008": 2.31781528996,
			"-0.007": 2.13410268109,
			"-0.006": 2.68941606245,
			"-0.005": 5.17902836266,
			"-0.004": 13.6302124019,
			"-0.003": 20.7111392377,
			"-0.002": 25.4235656098,
			"-0.001": 29.0636600492,
			"0.0": 22.0440208435,
			"0.001": 13.2761972325,
			"0.002": 3.39144704718,
			"0.003": 3.39815055838,
			"0.004": 3.49673784455,
			"0.005": 2.29492283468,
			"0.006": 1.91278282159,
			"0.007": 2.99650752677,
			"0.008": 2.4511451227,
			"0.009": 1.98591019095,
			"0.01": 3.16900384752,
			"0.011": 4.11079955578,
			"0.012": 9.21818985833,
			"0.013": 8.50693508497,
			"0.014": 1.58261168299,
			"0.015": 0.0,
			"0.016": 0.0,
			"0.017": 0.0,
			"0.018": 0.0,
			"0.019": 0.0,
			"0.02": 0.0,
			"0.021": 0.0,
			"0.022": 0.0,
			"0.023": 0.0,
			"0.024": 0.0,
			"0.025": 0.0
		}
	}
}
