{
	 "smiles": "O=CC1=CN(CC2=CC=CC=C2)C2=CC=CC=C12", 
	 "Tm": 382.15, 
	 "num_atms": 31, 
	 "gaussian": { 
		 "optdone": 1, 
		 "sigma_profile": "yes", 
		 "theory": "DFT", 
		 "functional": "B3LYP", 
		 "basiset": "6-31G**", 
		 "properties": { 
			 "R2extent": 6280.8148, 
			 "electric_dipole_moment_norm": 5.77896948426, 
			 "electric_quadrupole_moment_norm": 28.2178063047, 
			 "total_energy": -747.513849226, 
			 "HOMO_LUMO_gap": 0.17605, 
			 "cosmo_polarized_energy": -14.59, 
			 "cosmo_cavitation_energy": 35.24, 
			 "cosmo_dispersion_energy": -24.73, 
			 "cosmo_repulsion_energy": 1.89, 
			 "cosmo_total_nonelectrostatic_energy": 12.4, 
			 "SMD_solvation_energy": 6.75 
		},
		"coords": [
			{
				"x": -2.6855113729,
				"y": -0.5597576673,
				"z": 5.3797079963,
				"element": "O" 
			},
			{
				"x": -1.8182741381,
				"y": -0.9772475723,
				"z": 4.6249902231,
				"element": "C" 
			},
			{
				"x": -1.8946974988,
				"y": -0.9523756997,
				"z": 3.1760380909,
				"element": "C" 
			},
			{
				"x": -0.9183368572,
				"y": -1.4249538784,
				"z": 2.3173344452,
				"element": "C" 
			},
			{
				"x": -1.3071336571,
				"y": -1.2621884419,
				"z": 1.0158292214,
				"element": "N" 
			},
			{
				"x": -0.5051706019,
				"y": -1.6249725427,
				"z": -0.1476480971,
				"element": "C" 
			},
			{
				"x": 0.6198792478,
				"y": -0.6529854031,
				"z": -0.4674479653,
				"element": "C" 
			},
			{
				"x": 1.8565633227,
				"y": -1.1452780313,
				"z": -0.8986878102,
				"element": "C" 
			},
			{
				"x": 2.8907855328,
				"y": -0.271260047,
				"z": -1.2391383428,
				"element": "C" 
			},
			{
				"x": 2.6990286794,
				"y": 1.1073162955,
				"z": -1.1434725103,
				"element": "C" 
			},
			{
				"x": 1.4689019105,
				"y": 1.6057740544,
				"z": -0.7078003897,
				"element": "C" 
			},
			{
				"x": 0.4342380525,
				"y": 0.7322163425,
				"z": -0.3736664481,
				"element": "C" 
			},
			{
				"x": -2.566930033,
				"y": -0.6571975891,
				"z": 0.9987768479,
				"element": "C" 
			},
			{
				"x": -3.3735769792,
				"y": -0.2799083209,
				"z": -0.0804716212,
				"element": "C" 
			},
			{
				"x": -4.6022454857,
				"y": 0.3030346402,
				"z": 0.2154535312,
				"element": "C" 
			},
			{
				"x": -5.0157049254,
				"y": 0.507799778,
				"z": 1.5466879838,
				"element": "C" 
			},
			{
				"x": -4.209682027,
				"y": 0.1356960786,
				"z": 2.6165162679,
				"element": "C" 
			},
			{
				"x": -2.9662465362,
				"y": -0.453842793,
				"z": 2.3440308214,
				"element": "C" 
			},
			{
				"x": -0.8796213254,
				"y": -1.4186558697,
				"z": 5.0316800419,
				"element": "H" 
			},
			{
				"x": 0.0400040465,
				"y": -1.8702944863,
				"z": 2.5498999113,
				"element": "H" 
			},
			{
				"x": -1.1915257116,
				"y": -1.7115168763,
				"z": -0.9962051929,
				"element": "H" 
			},
			{
				"x": -0.0925886481,
				"y": -2.6259238599,
				"z": 0.0167217998,
				"element": "H" 
			},
			{
				"x": 2.0138919216,
				"y": -2.2193688196,
				"z": -0.9675333604,
				"element": "H" 
			},
			{
				"x": 3.8462349747,
				"y": -0.6684062905,
				"z": -1.5696342777,
				"element": "H" 
			},
			{
				"x": 3.5035028734,
				"y": 1.7896040908,
				"z": -1.4019562947,
				"element": "H" 
			},
			{
				"x": 1.3140215434,
				"y": 2.6778131778,
				"z": -0.6270201133,
				"element": "H" 
			},
			{
				"x": -0.5181090581,
				"y": 1.1271192572,
				"z": -0.0318816967,
				"element": "H" 
			},
			{
				"x": -3.0628194713,
				"y": -0.4268075716,
				"z": -1.1102980888,
				"element": "H" 
			},
			{
				"x": -5.2533854187,
				"y": 0.6076926412,
				"z": -0.598582138,
				"element": "H" 
			},
			{
				"x": -5.9815714832,
				"y": 0.9665653619,
				"z": 1.7365182873,
				"element": "H" 
			},
			{
				"x": -4.5137208764,
				"y": 0.2886100421,
				"z": 3.6455588776,
				"element": "H" 
			}
		],
		 "valence_orbital": [ 
			{
				"type": "occ",
				"energy": -0.262,
				"method": "rhf"
			},
			{
				"type": "occ",
				"energy": -0.259,
				"method": "rhf"
			},
			{
				"type": "occ",
				"energy": -0.23696,
				"method": "rhf"
			},
			{
				"type": "occ",
				"energy": -0.22965,
				"method": "rhf"
			},
			{
				"type": "occ",
				"energy": -0.21421,
				"method": "rhf"
			},
			{
				"type": "unocc",
				"energy": -0.03816,
				"method": "rhf"
			},
			{
				"type": "unocc",
				"energy": -0.01705,
				"method": "rhf"
			},
			{
				"type": "unocc",
				"energy": -0.01362,
				"method": "rhf"
			},
			{
				"type": "unocc",
				"energy": -0.00491,
				"method": "rhf"
			},
			{
				"type": "unocc",
				"energy": 0.02039,
				"method": "rhf"
			}
		],
		"cosmo_sigma_profile": { 
			"-0.025": 0.0,
			"-0.024": 0.0,
			"-0.023": 0.0,
			"-0.022": 0.0,
			"-0.021": 0.0,
			"-0.02": 0.0,
			"-0.019": 0.0,
			"-0.018": 0.0,
			"-0.017": 0.0,
			"-0.016": 0.0,
			"-0.015": 0.0,
			"-0.014": 0.0,
			"-0.013": 0.0,
			"-0.012": 0.0,
			"-0.011": 0.0,
			"-0.01": 0.636292746179,
			"-0.009": 2.98665287397,
			"-0.008": 5.74249140475,
			"-0.007": 10.3800446125,
			"-0.006": 14.6421510424,
			"-0.005": 22.2232572805,
			"-0.004": 24.7379702895,
			"-0.003": 23.0212010311,
			"-0.002": 18.4823529851,
			"-0.001": 16.4934928798,
			"0.0": 16.6116064864,
			"0.001": 17.3400747968,
			"0.002": 18.2395168971,
			"0.003": 18.0220743488,
			"0.004": 20.7611378829,
			"0.005": 20.0317555768,
			"0.006": 14.1872508616,
			"0.007": 2.24322889328,
			"0.008": 1.82799116119,
			"0.009": 1.92714367281,
			"0.01": 1.99368496857,
			"0.011": 2.55218605833,
			"0.012": 3.62799941338,
			"0.013": 2.81025616329,
			"0.014": 1.28874492278,
			"0.015": 0.0447825142434,
			"0.016": 0.0,
			"0.017": 0.0,
			"0.018": 0.0,
			"0.019": 0.0,
			"0.02": 0.0,
			"0.021": 0.0,
			"0.022": 0.0,
			"0.023": 0.0,
			"0.024": 0.0,
			"0.025": 0.0
		}
	}
}
