{
	 "smiles": "OC(=O)C1=C2C=C(Br)C=CC2=NC(C=CC2=CC(=CC=C2)C(F)(F)F)=C1", 
	 "Tm": 584.15, 
	 "num_atms": 37, 
	 "gaussian": { 
		 "optdone": 1, 
		 "sigma_profile": "yes", 
		 "theory": "DFT", 
		 "functional": "B3LYP", 
		 "basiset": "6-31G**", 
		 "properties": { 
			 "R2extent": 21589.1211, 
			 "electric_dipole_moment_norm": 2.74982722912, 
			 "electric_quadrupole_moment_norm": 9.27968279199, 
			 "total_energy": -3806.80014611, 
			 "HOMO_LUMO_gap": 0.1309, 
			 "cosmo_polarized_energy": -13.54, 
			 "cosmo_cavitation_energy": 47.05, 
			 "cosmo_dispersion_energy": -33.76, 
			 "cosmo_repulsion_energy": 2.45, 
			 "cosmo_total_nonelectrostatic_energy": 15.73, 
			 "SMD_solvation_energy": 7.43 
		},
		"coords": [
			{
				"x": 2.3149037564,
				"y": -4.5886695552,
				"z": 0.7905753978,
				"element": "O" 
			},
			{
				"x": 2.1900202213,
				"y": -3.2453273694,
				"z": 0.8759288536,
				"element": "C" 
			},
			{
				"x": 3.1011973848,
				"y": -2.5522465889,
				"z": 1.28268399,
				"element": "O" 
			},
			{
				"x": 0.8631019045,
				"y": -2.6954820237,
				"z": 0.4369220103,
				"element": "C" 
			},
			{
				"x": -0.2635373819,
				"y": -3.441188038,
				"z": -0.0575952994,
				"element": "C" 
			},
			{
				"x": -0.3246079719,
				"y": -4.8500401243,
				"z": -0.2230179663,
				"element": "C" 
			},
			{
				"x": -1.4720266354,
				"y": -5.4363601182,
				"z": -0.7093222647,
				"element": "C" 
			},
			{
				"x": -1.5322318792,
				"y": -7.3334170901,
				"z": -0.9242319848,
				"element": "Br" 
			},
			{
				"x": -2.6152217485,
				"y": -4.6844836031,
				"z": -1.0583279248,
				"element": "C" 
			},
			{
				"x": -2.5803765194,
				"y": -3.3199808512,
				"z": -0.9071896643,
				"element": "C" 
			},
			{
				"x": -1.4216381298,
				"y": -2.6629989223,
				"z": -0.409818049,
				"element": "C" 
			},
			{
				"x": -1.488620913,
				"y": -1.3116512503,
				"z": -0.2985737842,
				"element": "N" 
			},
			{
				"x": -0.4325562168,
				"y": -0.6480753111,
				"z": 0.1605513283,
				"element": "C" 
			},
			{
				"x": -0.5873709739,
				"y": 0.8056119777,
				"z": 0.2483119788,
				"element": "C" 
			},
			{
				"x": 0.3389280268,
				"y": 1.6866014438,
				"z": 0.6771142647,
				"element": "C" 
			},
			{
				"x": 0.190239906,
				"y": 3.1417126672,
				"z": 0.766222643,
				"element": "C" 
			},
			{
				"x": -0.9898252709,
				"y": 3.8190478895,
				"z": 0.4047953719,
				"element": "C" 
			},
			{
				"x": -1.0736337308,
				"y": 5.2030151915,
				"z": 0.5147345965,
				"element": "C" 
			},
			{
				"x": 0.0123557396,
				"y": 5.9511093487,
				"z": 0.9866646454,
				"element": "C" 
			},
			{
				"x": 1.1855587641,
				"y": 5.2935126508,
				"z": 1.3471387331,
				"element": "C" 
			},
			{
				"x": 1.2726997808,
				"y": 3.906709543,
				"z": 1.2372177714,
				"element": "C" 
			},
			{
				"x": -2.3221566421,
				"y": 5.9212428508,
				"z": 0.0743085361,
				"element": "C" 
			},
			{
				"x": -2.1881515824,
				"y": 6.42837222,
				"z": -1.1732520417,
				"element": "F" 
			},
			{
				"x": -2.6107802585,
				"y": 6.9617273509,
				"z": 0.8881119931,
				"element": "F" 
			},
			{
				"x": -3.3998633587,
				"y": 5.1074555256,
				"z": 0.0567736643,
				"element": "F" 
			},
			{
				"x": 0.7606508575,
				"y": -1.3252120829,
				"z": 0.5365107822,
				"element": "C" 
			},
			{
				"x": 3.2127766579,
				"y": -4.7901975541,
				"z": 1.104500593,
				"element": "H" 
			},
			{
				"x": 0.5260797963,
				"y": -5.4622002178,
				"z": 0.0314241627,
				"element": "H" 
			},
			{
				"x": -3.4983142876,
				"y": -5.1854436867,
				"z": -1.4375692847,
				"element": "H" 
			},
			{
				"x": -3.4324473037,
				"y": -2.6988489282,
				"z": -1.1613483966,
				"element": "H" 
			},
			{
				"x": -1.5668316983,
				"y": 1.1425051951,
				"z": -0.0798186313,
				"element": "H" 
			},
			{
				"x": 1.3109791063,
				"y": 1.3168482892,
				"z": 0.9976861611,
				"element": "H" 
			},
			{
				"x": -1.8505344863,
				"y": 3.2684431736,
				"z": 0.0440908974,
				"element": "H" 
			},
			{
				"x": -0.0697269567,
				"y": 7.0289396929,
				"z": 1.0760877692,
				"element": "H" 
			},
			{
				"x": 2.0333633243,
				"y": 5.861365765,
				"z": 1.7177643127,
				"element": "H" 
			},
			{
				"x": 2.1917999356,
				"y": 3.4015281613,
				"z": 1.5223299991,
				"element": "H" 
			},
			{
				"x": 1.6186987838,
				"y": -0.7809256208,
				"z": 0.9108148362,
				"element": "H" 
			}
		],
		 "valence_orbital": [ 
			{
				"type": "occ",
				"energy": -0.27454,
				"method": "rhf"
			},
			{
				"type": "occ",
				"energy": -0.27266,
				"method": "rhf"
			},
			{
				"type": "occ",
				"energy": -0.26706,
				"method": "rhf"
			},
			{
				"type": "occ",
				"energy": -0.25201,
				"method": "rhf"
			},
			{
				"type": "occ",
				"energy": -0.22425,
				"method": "rhf"
			},
			{
				"type": "unocc",
				"energy": -0.09335,
				"method": "rhf"
			},
			{
				"type": "unocc",
				"energy": -0.06679,
				"method": "rhf"
			},
			{
				"type": "unocc",
				"energy": -0.02998,
				"method": "rhf"
			},
			{
				"type": "unocc",
				"energy": -0.02351,
				"method": "rhf"
			},
			{
				"type": "unocc",
				"energy": -0.01639,
				"method": "rhf"
			}
		],
		"cosmo_sigma_profile": { 
			"-0.025": 0.0,
			"-0.024": 0.0,
			"-0.023": 0.0,
			"-0.022": 0.0,
			"-0.021": 0.0,
			"-0.02": 0.0,
			"-0.019": 0.415698870168,
			"-0.018": 1.02151021659,
			"-0.017": 0.677591037885,
			"-0.016": 1.17059166608,
			"-0.015": 0.648896716893,
			"-0.014": 0.829686866387,
			"-0.013": 0.138566126957,
			"-0.012": 1.01950699467,
			"-0.011": 0.84381280152,
			"-0.01": 0.320583342701,
			"-0.009": 2.61214523478,
			"-0.008": 6.43469357739,
			"-0.007": 13.0889401207,
			"-0.006": 13.4641033423,
			"-0.005": 15.1354197727,
			"-0.004": 17.4485867384,
			"-0.003": 17.8498718649,
			"-0.002": 22.6049863662,
			"-0.001": 31.3044179045,
			"0.0": 35.506385867,
			"0.001": 45.7322478202,
			"0.002": 54.198743288,
			"0.003": 54.2862614285,
			"0.004": 19.8496977672,
			"0.005": 5.95961986654,
			"0.006": 2.4879744092,
			"0.007": 1.57560678006,
			"0.008": 2.77028819703,
			"0.009": 2.82991281417,
			"0.01": 3.67281580442,
			"0.011": 5.42490128801,
			"0.012": 1.05341348217,
			"0.013": 0.675810570603,
			"0.014": 0.203176990316,
			"0.015": 0.0,
			"0.016": 0.0,
			"0.017": 0.0,
			"0.018": 0.0,
			"0.019": 0.0,
			"0.02": 0.0,
			"0.021": 0.0,
			"0.022": 0.0,
			"0.023": 0.0,
			"0.024": 0.0,
			"0.025": 0.0
		}
	}
}
