{
	 "smiles": "CC1=NC=C(CN)C=C1", 
	 "Tm": 333.15, 
	 "num_atms": 19, 
	 "gaussian": { 
		 "optdone": 1, 
		 "sigma_profile": "yes", 
		 "theory": "DFT", 
		 "functional": "B3LYP", 
		 "basiset": "6-31G**", 
		 "properties": { 
			 "R2extent": 1711.6167, 
			 "electric_dipole_moment_norm": 1.96249959236, 
			 "electric_quadrupole_moment_norm": 5.07928058489, 
			 "total_energy": -382.273119062, 
			 "HOMO_LUMO_gap": 0.21044, 
			 "cosmo_polarized_energy": -9.63, 
			 "cosmo_cavitation_energy": 22.48, 
			 "cosmo_dispersion_energy": -16.41, 
			 "cosmo_repulsion_energy": 1.37, 
			 "cosmo_total_nonelectrostatic_energy": 7.44, 
			 "SMD_solvation_energy": 1.16 
		},
		"coords": [
			{
				"x": -1.6190727418,
				"y": 0.989926611,
				"z": -1.2434510254,
				"element": "C" 
			},
			{
				"x": -0.758352476,
				"y": 0.118668017,
				"z": -0.3611322602,
				"element": "C" 
			},
			{
				"x": 0.4012330647,
				"y": -0.3173151528,
				"z": -0.8767057516,
				"element": "N" 
			},
			{
				"x": 1.1816204599,
				"y": -1.091859628,
				"z": -0.1127339374,
				"element": "C" 
			},
			{
				"x": 0.8822721554,
				"y": -1.4826759231,
				"z": 1.1962004372,
				"element": "C" 
			},
			{
				"x": 1.8517269539,
				"y": -2.3130767712,
				"z": 2.015893686,
				"element": "C" 
			},
			{
				"x": 2.759029169,
				"y": -1.5543956003,
				"z": 2.8926622658,
				"element": "N" 
			},
			{
				"x": -0.3355777345,
				"y": -1.0268724571,
				"z": 1.7181064029,
				"element": "C" 
			},
			{
				"x": -1.1602122813,
				"y": -0.2231802406,
				"z": 0.9400300556,
				"element": "C" 
			},
			{
				"x": -1.1290878243,
				"y": 1.1304840661,
				"z": -2.2080994422,
				"element": "H" 
			},
			{
				"x": -2.6032027548,
				"y": 0.537405704,
				"z": -1.4116173912,
				"element": "H" 
			},
			{
				"x": -1.7891718851,
				"y": 1.9727009174,
				"z": -0.788642611,
				"element": "H" 
			},
			{
				"x": 2.1093821535,
				"y": -1.4303636352,
				"z": -0.5762653381,
				"element": "H" 
			},
			{
				"x": 1.2939339251,
				"y": -3.0156141846,
				"z": 2.6461188886,
				"element": "H" 
			},
			{
				"x": 2.4702957843,
				"y": -2.9195349734,
				"z": 1.3446338865,
				"element": "H" 
			},
			{
				"x": 2.210871051,
				"y": -0.9873011726,
				"z": 3.5367786565,
				"element": "H" 
			},
			{
				"x": 3.2914162642,
				"y": -0.8924176284,
				"z": 2.3310895561,
				"element": "H" 
			},
			{
				"x": -0.6362740267,
				"y": -1.3068667671,
				"z": 2.7260676179,
				"element": "H" 
			},
			{
				"x": -2.1104292566,
				"y": 0.134888819,
				"z": 1.3267663042,
				"element": "H" 
			}
		],
		 "valence_orbital": [ 
			{
				"type": "occ",
				"energy": -0.35542,
				"method": "rhf"
			},
			{
				"type": "occ",
				"energy": -0.28305,
				"method": "rhf"
			},
			{
				"type": "occ",
				"energy": -0.25984,
				"method": "rhf"
			},
			{
				"type": "occ",
				"energy": -0.24809,
				"method": "rhf"
			},
			{
				"type": "occ",
				"energy": -0.23119,
				"method": "rhf"
			},
			{
				"type": "unocc",
				"energy": -0.02075,
				"method": "rhf"
			},
			{
				"type": "unocc",
				"energy": -0.01042,
				"method": "rhf"
			},
			{
				"type": "unocc",
				"energy": 0.08494,
				"method": "rhf"
			},
			{
				"type": "unocc",
				"energy": 0.10694,
				"method": "rhf"
			},
			{
				"type": "unocc",
				"energy": 0.12278,
				"method": "rhf"
			}
		],
		"cosmo_sigma_profile": { 
			"-0.025": 0.0,
			"-0.024": 0.0,
			"-0.023": 0.0,
			"-0.022": 0.0,
			"-0.021": 0.0,
			"-0.02": 0.0,
			"-0.019": 0.0,
			"-0.018": 0.0,
			"-0.017": 0.0,
			"-0.016": 0.0,
			"-0.015": 0.0,
			"-0.014": 0.0,
			"-0.013": 0.0,
			"-0.012": 0.0,
			"-0.011": 0.0,
			"-0.01": 0.39677751121,
			"-0.009": 2.46010211255,
			"-0.008": 3.06446461757,
			"-0.007": 4.21058743537,
			"-0.006": 9.81740945566,
			"-0.005": 12.8091976356,
			"-0.004": 18.4288088333,
			"-0.003": 16.9146384468,
			"-0.002": 14.088429221,
			"-0.001": 15.0481953995,
			"0.0": 13.3692421463,
			"0.001": 11.1300961991,
			"0.002": 8.84679871934,
			"0.003": 12.4920347504,
			"0.004": 8.00939990076,
			"0.005": 3.25907762489,
			"0.006": 1.88523724505,
			"0.007": 2.4264499342,
			"0.008": 2.56017783655,
			"0.009": 2.31198832617,
			"0.01": 1.64498099033,
			"0.011": 1.77875755815,
			"0.012": 1.56390025932,
			"0.013": 1.96316011736,
			"0.014": 1.02566725501,
			"0.015": 1.22138846777,
			"0.016": 1.62185586228,
			"0.017": 1.1509728849,
			"0.018": 0.542667329957,
			"0.019": 0.580909780975,
			"0.02": 0.322709990498,
			"0.021": 0.0,
			"0.022": 0.0,
			"0.023": 0.0,
			"0.024": 0.0,
			"0.025": 0.0
		}
	}
}
