{
	 "smiles": "COC1=CC=C(C=C1)C1CC2=CC=CC=C2C(=O)O1", 
	 "Tm": 381.15, 
	 "num_atms": 33, 
	 "gaussian": { 
		 "optdone": 1, 
		 "sigma_profile": "yes", 
		 "theory": "DFT", 
		 "functional": "B3LYP", 
		 "basiset": "6-31G**", 
		 "properties": { 
			 "R2extent": 5753.5156, 
			 "electric_dipole_moment_norm": 5.90968149819, 
			 "electric_quadrupole_moment_norm": 9.10656825539, 
			 "total_energy": -843.814665574, 
			 "HOMO_LUMO_gap": 0.17143, 
			 "cosmo_polarized_energy": -15.09, 
			 "cosmo_cavitation_energy": 36.1, 
			 "cosmo_dispersion_energy": -25.86, 
			 "cosmo_repulsion_energy": 1.98, 
			 "cosmo_total_nonelectrostatic_energy": 12.22, 
			 "SMD_solvation_energy": 7.25 
		},
		"coords": [
			{
				"x": 3.433733933,
				"y": 3.280770252,
				"z": -1.4313930726,
				"element": "C" 
			},
			{
				"x": 2.6020470583,
				"y": 2.9083452339,
				"z": -0.3447217624,
				"element": "O" 
			},
			{
				"x": 2.1242082282,
				"y": 1.6308022454,
				"z": -0.3048937247,
				"element": "C" 
			},
			{
				"x": 2.3942578132,
				"y": 0.647505524,
				"z": -1.2639373492,
				"element": "C" 
			},
			{
				"x": 1.8423817385,
				"y": -0.6272276234,
				"z": -1.1183998154,
				"element": "C" 
			},
			{
				"x": 1.0179808669,
				"y": -0.9526390859,
				"z": -0.0371280835,
				"element": "C" 
			},
			{
				"x": 0.7740735539,
				"y": 0.0393485365,
				"z": 0.9247439089,
				"element": "C" 
			},
			{
				"x": 1.3123201266,
				"y": 1.3137607108,
				"z": 0.7921976337,
				"element": "C" 
			},
			{
				"x": 0.4709121983,
				"y": -2.3690294298,
				"z": 0.1162484448,
				"element": "C" 
			},
			{
				"x": -0.2300946201,
				"y": -2.9278767622,
				"z": -1.1301026074,
				"element": "C" 
			},
			{
				"x": -1.5592586548,
				"y": -2.2496083797,
				"z": -1.3374974042,
				"element": "C" 
			},
			{
				"x": -2.1219067545,
				"y": -2.0370566251,
				"z": -2.5981264517,
				"element": "C" 
			},
			{
				"x": -3.3736402177,
				"y": -1.4317745878,
				"z": -2.7188910135,
				"element": "C" 
			},
			{
				"x": -4.0798837331,
				"y": -1.033629488,
				"z": -1.5793172591,
				"element": "C" 
			},
			{
				"x": -3.529018079,
				"y": -1.2419642389,
				"z": -0.318526122,
				"element": "C" 
			},
			{
				"x": -2.2704893414,
				"y": -1.8438834329,
				"z": -0.197118461,
				"element": "C" 
			},
			{
				"x": -1.7147197152,
				"y": -2.0715065811,
				"z": 1.1654990995,
				"element": "C" 
			},
			{
				"x": -2.3577272075,
				"y": -1.9464719854,
				"z": 2.1845666239,
				"element": "O" 
			},
			{
				"x": -0.410123427,
				"y": -2.4661000792,
				"z": 1.258960586,
				"element": "O" 
			},
			{
				"x": 4.3525172888,
				"y": 2.6807051413,
				"z": -1.4639415824,
				"element": "H" 
			},
			{
				"x": 2.911713721,
				"y": 3.1878459572,
				"z": -2.3927297201,
				"element": "H" 
			},
			{
				"x": 3.6957089374,
				"y": 4.3270018334,
				"z": -1.2663233459,
				"element": "H" 
			},
			{
				"x": 3.0257338838,
				"y": 0.8574778863,
				"z": -2.1190359501,
				"element": "H" 
			},
			{
				"x": 2.0777530967,
				"y": -1.3748718713,
				"z": -1.8715456695,
				"element": "H" 
			},
			{
				"x": 0.1632770018,
				"y": -0.1891399379,
				"z": 1.7907549891,
				"element": "H" 
			},
			{
				"x": 1.1187325251,
				"y": 2.0825573199,
				"z": 1.5330750383,
				"element": "H" 
			},
			{
				"x": 1.2964102888,
				"y": -3.0380871811,
				"z": 0.3834063566,
				"element": "H" 
			},
			{
				"x": 0.4093655968,
				"y": -2.8184741084,
				"z": -2.0102341199,
				"element": "H" 
			},
			{
				"x": -0.3819383272,
				"y": -4.0057546412,
				"z": -0.9823818143,
				"element": "H" 
			},
			{
				"x": -1.5778611219,
				"y": -2.3440448839,
				"z": -3.4876364765,
				"element": "H" 
			},
			{
				"x": -3.7987299983,
				"y": -1.2678629349,
				"z": -3.7051267133,
				"element": "H" 
			},
			{
				"x": -5.0540253887,
				"y": -0.5643337362,
				"z": -1.6777027755,
				"element": "H" 
			},
			{
				"x": -4.0518112707,
				"y": -0.9502830463,
				"z": 0.5860586133,
				"element": "H" 
			}
		],
		 "valence_orbital": [ 
			{
				"type": "occ",
				"energy": -0.26672,
				"method": "rhf"
			},
			{
				"type": "occ",
				"energy": -0.25907,
				"method": "rhf"
			},
			{
				"type": "occ",
				"energy": -0.25522,
				"method": "rhf"
			},
			{
				"type": "occ",
				"energy": -0.25305,
				"method": "rhf"
			},
			{
				"type": "occ",
				"energy": -0.21905,
				"method": "rhf"
			},
			{
				"type": "unocc",
				"energy": -0.04762,
				"method": "rhf"
			},
			{
				"type": "unocc",
				"energy": -0.01318,
				"method": "rhf"
			},
			{
				"type": "unocc",
				"energy": -0.00499,
				"method": "rhf"
			},
			{
				"type": "unocc",
				"energy": 0.00861,
				"method": "rhf"
			},
			{
				"type": "unocc",
				"energy": 0.05772,
				"method": "rhf"
			}
		],
		"cosmo_sigma_profile": { 
			"-0.025": 0.0,
			"-0.024": 0.0,
			"-0.023": 0.0,
			"-0.022": 0.0,
			"-0.021": 0.0,
			"-0.02": 0.0,
			"-0.019": 0.0,
			"-0.018": 0.0,
			"-0.017": 0.0,
			"-0.016": 0.0,
			"-0.015": 0.0,
			"-0.014": 0.0,
			"-0.013": 0.0,
			"-0.012": 0.0,
			"-0.011": 0.0,
			"-0.01": 0.0,
			"-0.009": 0.0,
			"-0.008": 0.942196018187,
			"-0.007": 7.32593470404,
			"-0.006": 24.391574509,
			"-0.005": 29.8696481574,
			"-0.004": 27.7814817022,
			"-0.003": 25.5579385626,
			"-0.002": 17.647175262,
			"-0.001": 14.4842262431,
			"0.0": 14.1223861256,
			"0.001": 16.7926572677,
			"0.002": 17.1044567128,
			"0.003": 22.7537814982,
			"0.004": 22.0254911044,
			"0.005": 13.5566043668,
			"0.006": 6.2192728943,
			"0.007": 3.10078736105,
			"0.008": 3.61259165844,
			"0.009": 3.30669129893,
			"0.01": 4.91575299404,
			"0.011": 4.81321091164,
			"0.012": 5.21773051187,
			"0.013": 2.14953381735,
			"0.014": 0.284435778332,
			"0.015": 0.0,
			"0.016": 0.0,
			"0.017": 0.0,
			"0.018": 0.0,
			"0.019": 0.0,
			"0.02": 0.0,
			"0.021": 0.0,
			"0.022": 0.0,
			"0.023": 0.0,
			"0.024": 0.0,
			"0.025": 0.0
		}
	}
}
