{
	 "smiles": "OC(=O)C1=C(Cl)C=C(Cl)N=C1", 
	 "Tm": 432.15, 
	 "num_atms": 14, 
	 "gaussian": { 
		 "optdone": 1, 
		 "sigma_profile": "yes", 
		 "theory": "DFT", 
		 "functional": "B3LYP", 
		 "basiset": "6-31G**", 
		 "properties": { 
			 "R2extent": 2642.2619, 
			 "electric_dipole_moment_norm": 3.98941213213, 
			 "electric_quadrupole_moment_norm": 9.95408199836, 
			 "total_energy": -1356.02562995, 
			 "HOMO_LUMO_gap": 0.2031, 
			 "cosmo_polarized_energy": -12.12, 
			 "cosmo_cavitation_energy": 22.68, 
			 "cosmo_dispersion_energy": -17.43, 
			 "cosmo_repulsion_energy": 1.39, 
			 "cosmo_total_nonelectrostatic_energy": 6.63, 
			 "SMD_solvation_energy": 3.2 
		},
		"coords": [
			{
				"x": 1.3403588846,
				"y": -1.3475789806,
				"z": -3.1062880957,
				"element": "O" 
			},
			{
				"x": 1.4263286311,
				"y": -1.5026252221,
				"z": -1.774844855,
				"element": "C" 
			},
			{
				"x": 2.0576941825,
				"y": -2.4237808923,
				"z": -1.3105963374,
				"element": "O" 
			},
			{
				"x": 0.7183663474,
				"y": -0.5220150625,
				"z": -0.8614844372,
				"element": "C" 
			},
			{
				"x": 0.0032942491,
				"y": 0.6483240376,
				"z": -1.1667386582,
				"element": "C" 
			},
			{
				"x": -0.2203357881,
				"y": 1.2452599312,
				"z": -2.8109646649,
				"element": "Cl" 
			},
			{
				"x": -0.5726893567,
				"y": 1.4151255106,
				"z": -0.1593685081,
				"element": "C" 
			},
			{
				"x": -0.409312643,
				"y": 0.9694097156,
				"z": 1.1529568408,
				"element": "C" 
			},
			{
				"x": -1.1223158917,
				"y": 1.9089769385,
				"z": 2.4454868837,
				"element": "Cl" 
			},
			{
				"x": 0.2531687232,
				"y": -0.1230749216,
				"z": 1.4957558209,
				"element": "N" 
			},
			{
				"x": 0.7962356326,
				"y": -0.8360173379,
				"z": 0.5089312314,
				"element": "C" 
			},
			{
				"x": 0.8099417635,
				"y": -0.5726910316,
				"z": -3.351824918,
				"element": "H" 
			},
			{
				"x": -1.1232107153,
				"y": 2.3190436913,
				"z": -0.3844801823,
				"element": "H" 
			},
			{
				"x": 1.3433759808,
				"y": -1.7311563762,
				"z": 0.78735988,
				"element": "H" 
			}
		],
		 "valence_orbital": [ 
			{
				"type": "occ",
				"energy": -0.33034,
				"method": "rhf"
			},
			{
				"type": "occ",
				"energy": -0.31527,
				"method": "rhf"
			},
			{
				"type": "occ",
				"energy": -0.30727,
				"method": "rhf"
			},
			{
				"type": "occ",
				"energy": -0.2906,
				"method": "rhf"
			},
			{
				"type": "occ",
				"energy": -0.28827,
				"method": "rhf"
			},
			{
				"type": "unocc",
				"energy": -0.08517,
				"method": "rhf"
			},
			{
				"type": "unocc",
				"energy": -0.0657,
				"method": "rhf"
			},
			{
				"type": "unocc",
				"energy": -0.02858,
				"method": "rhf"
			},
			{
				"type": "unocc",
				"energy": 0.02095,
				"method": "rhf"
			},
			{
				"type": "unocc",
				"energy": 0.02446,
				"method": "rhf"
			}
		],
		"cosmo_sigma_profile": { 
			"-0.025": 0.0,
			"-0.024": 0.0,
			"-0.023": 0.0,
			"-0.022": 0.0,
			"-0.021": 0.0,
			"-0.02": 0.0,
			"-0.019": 0.0,
			"-0.018": 0.0,
			"-0.017": 0.0,
			"-0.016": 0.0,
			"-0.015": 0.0,
			"-0.014": 0.0019349778649,
			"-0.013": 0.509246257222,
			"-0.012": 1.06818455535,
			"-0.011": 1.44263474588,
			"-0.01": 3.53414259335,
			"-0.009": 3.36770497792,
			"-0.008": 4.27121066544,
			"-0.007": 5.6136844027,
			"-0.006": 5.96367943491,
			"-0.005": 8.88692976236,
			"-0.004": 12.5150748281,
			"-0.003": 22.4803281922,
			"-0.002": 17.3521173245,
			"-0.001": 9.5634650617,
			"0.0": 11.6909087801,
			"0.001": 14.0830495522,
			"0.002": 11.2139667608,
			"0.003": 12.1318877207,
			"0.004": 6.50153584581,
			"0.005": 4.81576463381,
			"0.006": 3.12827892172,
			"0.007": 3.63280123568,
			"0.008": 3.8655195431,
			"0.009": 5.36027070869,
			"0.01": 6.01009832957,
			"0.011": 5.36719960706,
			"0.012": 2.9699754101,
			"0.013": 0.871099311938,
			"0.014": 0.0100282303115,
			"0.015": 0.0,
			"0.016": 0.0,
			"0.017": 0.0,
			"0.018": 0.0,
			"0.019": 0.0,
			"0.02": 0.0,
			"0.021": 0.0,
			"0.022": 0.0,
			"0.023": 0.0,
			"0.024": 0.0,
			"0.025": 0.0
		}
	}
}
