{
	 "smiles": "CS(=O)(=O)NC1=CC(C=O)=CC=C1", 
	 "Tm": 419.15, 
	 "num_atms": 22, 
	 "gaussian": { 
		 "optdone": 1, 
		 "sigma_profile": "yes", 
		 "theory": "DFT", 
		 "functional": "B3LYP", 
		 "basiset": "6-31G**", 
		 "properties": { 
			 "R2extent": 3254.1461, 
			 "electric_dipole_moment_norm": 4.85314951243, 
			 "electric_quadrupole_moment_norm": 23.7009187885, 
			 "total_energy": -988.810743093, 
			 "HOMO_LUMO_gap": 0.17593, 
			 "cosmo_polarized_energy": -19.87, 
			 "cosmo_cavitation_energy": 28.05, 
			 "cosmo_dispersion_energy": -20.49, 
			 "cosmo_repulsion_energy": 1.57, 
			 "cosmo_total_nonelectrostatic_energy": 9.13, 
			 "SMD_solvation_energy": 5.55 
		},
		"coords": [
			{
				"x": -0.5230143116,
				"y": 2.1606597737,
				"z": -2.0619845292,
				"element": "C" 
			},
			{
				"x": 0.5909609525,
				"y": 2.4697770777,
				"z": -0.6751569698,
				"element": "S" 
			},
			{
				"x": 0.3482270174,
				"y": 3.8190221312,
				"z": -0.1697419252,
				"element": "O" 
			},
			{
				"x": 1.9206044239,
				"y": 2.0182293487,
				"z": -1.0802307792,
				"element": "O" 
			},
			{
				"x": 0.0430436948,
				"y": 1.4578929932,
				"z": 0.5670524025,
				"element": "N" 
			},
			{
				"x": -0.0712390302,
				"y": 0.047912906,
				"z": 0.4768772699,
				"element": "C" 
			},
			{
				"x": 0.9388000746,
				"y": -0.7352079041,
				"z": -0.0980416666,
				"element": "C" 
			},
			{
				"x": 0.7941654857,
				"y": -2.1257119572,
				"z": -0.1445422103,
				"element": "C" 
			},
			{
				"x": 1.8676055949,
				"y": -2.9415128824,
				"z": -0.7661207053,
				"element": "C" 
			},
			{
				"x": 1.8390114904,
				"y": -4.1530574745,
				"z": -0.8609583048,
				"element": "O" 
			},
			{
				"x": -0.3353247396,
				"y": -2.7512849542,
				"z": 0.4017897347,
				"element": "C" 
			},
			{
				"x": -1.3251360388,
				"y": -1.9712713536,
				"z": 0.9897012585,
				"element": "C" 
			},
			{
				"x": -1.2038900337,
				"y": -0.5800592105,
				"z": 1.0165014674,
				"element": "C" 
			},
			{
				"x": -0.4974487693,
				"y": 1.0978065528,
				"z": -2.3068330236,
				"element": "H" 
			},
			{
				"x": -0.1518373777,
				"y": 2.7502159254,
				"z": -2.9019969508,
				"element": "H" 
			},
			{
				"x": -1.5291871979,
				"y": 2.4792274258,
				"z": -1.7871781338,
				"element": "H" 
			},
			{
				"x": -0.6574443039,
				"y": 1.93241235,
				"z": 1.1258805643,
				"element": "H" 
			},
			{
				"x": 1.8302361556,
				"y": -0.2606682845,
				"z": -0.4947073003,
				"element": "H" 
			},
			{
				"x": 2.7291995206,
				"y": -2.3558604922,
				"z": -1.1550291974,
				"element": "H" 
			},
			{
				"x": -0.4075631595,
				"y": -3.8326081844,
				"z": 0.3566782934,
				"element": "H" 
			},
			{
				"x": -2.2057221792,
				"y": -2.4367336793,
				"z": 1.4221205452,
				"element": "H" 
			},
			{
				"x": -1.989847269,
				"y": 0.0240198925,
				"z": 1.4634201604,
				"element": "H" 
			}
		],
		 "valence_orbital": [ 
			{
				"type": "occ",
				"energy": -0.31908,
				"method": "rhf"
			},
			{
				"type": "occ",
				"energy": -0.31476,
				"method": "rhf"
			},
			{
				"type": "occ",
				"energy": -0.27802,
				"method": "rhf"
			},
			{
				"type": "occ",
				"energy": -0.2614,
				"method": "rhf"
			},
			{
				"type": "occ",
				"energy": -0.24788,
				"method": "rhf"
			},
			{
				"type": "unocc",
				"energy": -0.07195,
				"method": "rhf"
			},
			{
				"type": "unocc",
				"energy": -0.02641,
				"method": "rhf"
			},
			{
				"type": "unocc",
				"energy": 0.02513,
				"method": "rhf"
			},
			{
				"type": "unocc",
				"energy": 0.04827,
				"method": "rhf"
			},
			{
				"type": "unocc",
				"energy": 0.06118,
				"method": "rhf"
			}
		],
		"cosmo_sigma_profile": { 
			"-0.025": 0.0,
			"-0.024": 0.0,
			"-0.023": 0.0,
			"-0.022": 0.0,
			"-0.021": 0.0,
			"-0.02": 0.0,
			"-0.019": 0.0,
			"-0.018": 0.0,
			"-0.017": 0.0,
			"-0.016": 0.441771141521,
			"-0.015": 1.63499946993,
			"-0.014": 1.33213532956,
			"-0.013": 1.15217178452,
			"-0.012": 1.61862080358,
			"-0.011": 1.5304882556,
			"-0.01": 1.75465220201,
			"-0.009": 5.16962275547,
			"-0.008": 7.67027867849,
			"-0.007": 12.338751679,
			"-0.006": 15.6860873904,
			"-0.005": 15.8145184108,
			"-0.004": 15.1556922716,
			"-0.003": 11.5692665009,
			"-0.002": 9.22866969685,
			"-0.001": 9.35835419463,
			"0.0": 9.69524689695,
			"0.001": 12.5970803231,
			"0.002": 14.8882858299,
			"0.003": 13.37371174,
			"0.004": 7.76141883198,
			"0.005": 4.88818670899,
			"0.006": 5.24193492658,
			"0.007": 4.51489844424,
			"0.008": 4.98501475168,
			"0.009": 5.78215739937,
			"0.01": 10.6600944744,
			"0.011": 13.9803044375,
			"0.012": 3.8042543642,
			"0.013": 0.585265173183,
			"0.014": 0.0,
			"0.015": 0.0,
			"0.016": 0.0,
			"0.017": 0.0,
			"0.018": 0.0,
			"0.019": 0.0,
			"0.02": 0.0,
			"0.021": 0.0,
			"0.022": 0.0,
			"0.023": 0.0,
			"0.024": 0.0,
			"0.025": 0.0
		}
	}
}
