{
	 "smiles": "COC1=CC(CC#N)=CC(OC)=C1OC", 
	 "Tm": 350.15, 
	 "num_atms": 28, 
	 "gaussian": { 
		 "optdone": 1, 
		 "sigma_profile": "yes", 
		 "theory": "DFT", 
		 "functional": "B3LYP", 
		 "basiset": "6-31G**", 
		 "properties": { 
			 "R2extent": 4124.6499, 
			 "electric_dipole_moment_norm": 5.36470546069, 
			 "electric_quadrupole_moment_norm": 22.8132629459, 
			 "total_energy": -707.358360497, 
			 "HOMO_LUMO_gap": 0.22119, 
			 "cosmo_polarized_energy": -13.6, 
			 "cosmo_cavitation_energy": 32.93, 
			 "cosmo_dispersion_energy": -22.16, 
			 "cosmo_repulsion_energy": 1.79, 
			 "cosmo_total_nonelectrostatic_energy": 12.56, 
			 "SMD_solvation_energy": 9.45 
		},
		"coords": [
			{
				"x": 2.5570939858,
				"y": 0.4668192735,
				"z": 0.5264555473,
				"element": "C" 
			},
			{
				"x": 1.4504820455,
				"y": 1.2545755469,
				"z": 0.0719444108,
				"element": "O" 
			},
			{
				"x": 0.4898876295,
				"y": 0.5918540478,
				"z": -0.6474109581,
				"element": "C" 
			},
			{
				"x": 0.2596400063,
				"y": 0.9885144167,
				"z": -1.9678581848,
				"element": "C" 
			},
			{
				"x": -0.7629829583,
				"y": 0.4029761138,
				"z": -2.7165229418,
				"element": "C" 
			},
			{
				"x": -1.0241132201,
				"y": 0.8595640064,
				"z": -4.1459468473,
				"element": "C" 
			},
			{
				"x": -2.076479492,
				"y": 1.8816475653,
				"z": -4.2359163171,
				"element": "C" 
			},
			{
				"x": -2.9093307717,
				"y": 2.6872235915,
				"z": -4.3031843367,
				"element": "N" 
			},
			{
				"x": -1.5432509118,
				"y": -0.6076171195,
				"z": -2.1482867824,
				"element": "C" 
			},
			{
				"x": -1.3189060303,
				"y": -1.0149037476,
				"z": -0.8323739257,
				"element": "C" 
			},
			{
				"x": -2.150927504,
				"y": -1.9606965112,
				"z": -0.2848576924,
				"element": "O" 
			},
			{
				"x": -1.5329921217,
				"y": -3.2083298249,
				"z": 0.0544552085,
				"element": "C" 
			},
			{
				"x": -0.3062819464,
				"y": -0.4100181608,
				"z": -0.0663687638,
				"element": "C" 
			},
			{
				"x": -0.091558283,
				"y": -0.7931120565,
				"z": 1.2392672184,
				"element": "O" 
			},
			{
				"x": -0.9864199541,
				"y": -0.1734759043,
				"z": 2.1759075184,
				"element": "C" 
			},
			{
				"x": 2.2312903024,
				"y": -0.3283027205,
				"z": 1.2019082857,
				"element": "H" 
			},
			{
				"x": 3.2184551935,
				"y": 1.1551012026,
				"z": 1.0563578035,
				"element": "H" 
			},
			{
				"x": 3.0977115711,
				"y": 0.0311120704,
				"z": -0.3236161904,
				"element": "H" 
			},
			{
				"x": 0.8838795719,
				"y": 1.7747568307,
				"z": -2.380704174,
				"element": "H" 
			},
			{
				"x": -1.3233440492,
				"y": 0.0108465829,
				"z": -4.7716698106,
				"element": "H" 
			},
			{
				"x": -0.1110279635,
				"y": 1.2727387332,
				"z": -4.5884324738,
				"element": "H" 
			},
			{
				"x": -2.3442974068,
				"y": -1.08508813,
				"z": -2.7039440887,
				"element": "H" 
			},
			{
				"x": -1.1186815338,
				"y": -3.6908293352,
				"z": -0.8398582671,
				"element": "H" 
			},
			{
				"x": -2.3255755869,
				"y": -3.8361406225,
				"z": 0.4661620341,
				"element": "H" 
			},
			{
				"x": -0.7429096303,
				"y": -3.0732155451,
				"z": 0.7982950017,
				"element": "H" 
			},
			{
				"x": -0.8668498392,
				"y": 0.9155697045,
				"z": 2.1621631369,
				"element": "H" 
			},
			{
				"x": -2.0255694741,
				"y": -0.4360584855,
				"z": 1.9521204968,
				"element": "H" 
			},
			{
				"x": -0.7139416287,
				"y": -0.5582115227,
				"z": 3.1607150923,
				"element": "H" 
			}
		],
		 "valence_orbital": [ 
			{
				"type": "occ",
				"energy": -0.30404,
				"method": "rhf"
			},
			{
				"type": "occ",
				"energy": -0.28867,
				"method": "rhf"
			},
			{
				"type": "occ",
				"energy": -0.26844,
				"method": "rhf"
			},
			{
				"type": "occ",
				"energy": -0.23997,
				"method": "rhf"
			},
			{
				"type": "occ",
				"energy": -0.23732,
				"method": "rhf"
			},
			{
				"type": "unocc",
				"energy": -0.01613,
				"method": "rhf"
			},
			{
				"type": "unocc",
				"energy": -0.00751,
				"method": "rhf"
			},
			{
				"type": "unocc",
				"energy": 0.04169,
				"method": "rhf"
			},
			{
				"type": "unocc",
				"energy": 0.04572,
				"method": "rhf"
			},
			{
				"type": "unocc",
				"energy": 0.07098,
				"method": "rhf"
			}
		],
		"cosmo_sigma_profile": { 
			"-0.025": 0.0,
			"-0.024": 0.0,
			"-0.023": 0.0,
			"-0.022": 0.0,
			"-0.021": 0.0,
			"-0.02": 0.0,
			"-0.019": 0.0,
			"-0.018": 0.0,
			"-0.017": 0.0,
			"-0.016": 0.0,
			"-0.015": 0.0,
			"-0.014": 0.0,
			"-0.013": 0.0,
			"-0.012": 0.0,
			"-0.011": 0.0,
			"-0.01": 0.0,
			"-0.009": 3.42263351427,
			"-0.008": 7.1366328246,
			"-0.007": 7.957077314,
			"-0.006": 10.6658623258,
			"-0.005": 16.9431177235,
			"-0.004": 21.7298925664,
			"-0.003": 30.1371492216,
			"-0.002": 25.4193998778,
			"-0.001": 17.3852202738,
			"0.0": 15.0224603474,
			"0.001": 15.072983406,
			"0.002": 17.1369418965,
			"0.003": 17.0963654639,
			"0.004": 9.92818637674,
			"0.005": 6.38561157804,
			"0.006": 7.15866412515,
			"0.007": 4.39555946578,
			"0.008": 5.89996080291,
			"0.009": 6.24189256372,
			"0.01": 5.72701441371,
			"0.011": 5.27362007497,
			"0.012": 3.56590489358,
			"0.013": 1.99168624121,
			"0.014": 0.295221350444,
			"0.015": 0.0,
			"0.016": 0.0,
			"0.017": 0.0,
			"0.018": 0.0,
			"0.019": 0.0,
			"0.02": 0.0,
			"0.021": 0.0,
			"0.022": 0.0,
			"0.023": 0.0,
			"0.024": 0.0,
			"0.025": 0.0
		}
	}
}
