{
	 "smiles": "CC(C)CN1C(=O)N(C)C(=O)C2=C1N=CC(=C2)C(O)=O", 
	 "Tm": 493.15, 
	 "num_atms": 35, 
	 "gaussian": { 
		 "optdone": 1, 
		 "sigma_profile": "yes", 
		 "theory": "DFT", 
		 "functional": "B3LYP", 
		 "basiset": "6-31G**", 
		 "properties": { 
			 "R2extent": 6554.0682, 
			 "electric_dipole_moment_norm": 3.02550775573, 
			 "electric_quadrupole_moment_norm": 24.6292529592, 
			 "total_energy": -969.645427805, 
			 "HOMO_LUMO_gap": 0.17586, 
			 "cosmo_polarized_energy": -19.34, 
			 "cosmo_cavitation_energy": 37.75, 
			 "cosmo_dispersion_energy": -26.72, 
			 "cosmo_repulsion_energy": 2.01, 
			 "cosmo_total_nonelectrostatic_energy": 13.03, 
			 "SMD_solvation_energy": 8.14 
		},
		"coords": [
			{
				"x": -1.5668015996,
				"y": -3.5106663554,
				"z": 0.659834928,
				"element": "C" 
			},
			{
				"x": -1.567530037,
				"y": -2.1291233537,
				"z": 1.3304154312,
				"element": "C" 
			},
			{
				"x": -2.6662059754,
				"y": -1.2324167446,
				"z": 0.74183163,
				"element": "C" 
			},
			{
				"x": -0.1760937282,
				"y": -1.4580365982,
				"z": 1.3625770996,
				"element": "C" 
			},
			{
				"x": 0.4179360466,
				"y": -1.1396711698,
				"z": 0.0389989306,
				"element": "N" 
			},
			{
				"x": 1.2523896037,
				"y": -2.1100610498,
				"z": -0.5326543156,
				"element": "C" 
			},
			{
				"x": 1.484010944,
				"y": -3.1723956895,
				"z": 0.0195215227,
				"element": "O" 
			},
			{
				"x": 1.8165865203,
				"y": -1.8202791377,
				"z": -1.7824285002,
				"element": "N" 
			},
			{
				"x": 2.6479112316,
				"y": -2.8805183091,
				"z": -2.3672221521,
				"element": "C" 
			},
			{
				"x": 1.6700426004,
				"y": -0.6183723796,
				"z": -2.4784375538,
				"element": "C" 
			},
			{
				"x": 2.1835497933,
				"y": -0.4249503726,
				"z": -3.5724479355,
				"element": "O" 
			},
			{
				"x": 0.8622979198,
				"y": 0.3897588641,
				"z": -1.7773935207,
				"element": "C" 
			},
			{
				"x": 0.2685288608,
				"y": 0.1139642102,
				"z": -0.5295431012,
				"element": "C" 
			},
			{
				"x": -0.4377412129,
				"y": 1.0350271737,
				"z": 0.1482225906,
				"element": "N" 
			},
			{
				"x": -0.5826371806,
				"y": 2.236338543,
				"z": -0.3987790407,
				"element": "C" 
			},
			{
				"x": -0.0625388586,
				"y": 2.6102510219,
				"z": -1.6531666571,
				"element": "C" 
			},
			{
				"x": 0.6856648834,
				"y": 1.6533032935,
				"z": -2.3354562391,
				"element": "C" 
			},
			{
				"x": -0.3150453717,
				"y": 4.0062858034,
				"z": -2.1254269838,
				"element": "C" 
			},
			{
				"x": -0.0426979876,
				"y": 4.2815526923,
				"z": -3.4259909338,
				"element": "O" 
			},
			{
				"x": -0.7428733023,
				"y": 4.8730383647,
				"z": -1.3992408134,
				"element": "O" 
			},
			{
				"x": -2.5430327132,
				"y": -3.9903440785,
				"z": 0.7875022873,
				"element": "H" 
			},
			{
				"x": -1.381657202,
				"y": -3.4306825742,
				"z": -0.4170437691,
				"element": "H" 
			},
			{
				"x": -0.7991018073,
				"y": -4.1665664026,
				"z": 1.0771138468,
				"element": "H" 
			},
			{
				"x": -1.7999704332,
				"y": -2.2792636802,
				"z": 2.3954899198,
				"element": "H" 
			},
			{
				"x": -3.6442075425,
				"y": -1.7124872057,
				"z": 0.8531068178,
				"element": "H" 
			},
			{
				"x": -2.5084402222,
				"y": -1.060234989,
				"z": -0.3288675624,
				"element": "H" 
			},
			{
				"x": -2.702526853,
				"y": -0.2566760291,
				"z": 1.2329531807,
				"element": "H" 
			},
			{
				"x": -0.2345021595,
				"y": -0.5159666826,
				"z": 1.9070094975,
				"element": "H" 
			},
			{
				"x": 0.5360699103,
				"y": -2.1192143953,
				"z": 1.8569395033,
				"element": "H" 
			},
			{
				"x": 3.5018139476,
				"y": -3.0847211266,
				"z": -1.7182896683,
				"element": "H" 
			},
			{
				"x": 2.9822569219,
				"y": -2.5291318026,
				"z": -3.3404163942,
				"element": "H" 
			},
			{
				"x": 2.0622747034,
				"y": -3.7960040864,
				"z": -2.4660182035,
				"element": "H" 
			},
			{
				"x": -1.1444436369,
				"y": 2.9720160093,
				"z": 0.1707375421,
				"element": "H" 
			},
			{
				"x": 1.1768445028,
				"y": 1.834871423,
				"z": -3.2882599925,
				"element": "H" 
			},
			{
				"x": 0.1699694337,
				"y": 3.4767768139,
				"z": -3.917971391,
				"element": "H" 
			}
		],
		 "valence_orbital": [ 
			{
				"type": "occ",
				"energy": -0.30209,
				"method": "rhf"
			},
			{
				"type": "occ",
				"energy": -0.2893,
				"method": "rhf"
			},
			{
				"type": "occ",
				"energy": -0.28373,
				"method": "rhf"
			},
			{
				"type": "occ",
				"energy": -0.27647,
				"method": "rhf"
			},
			{
				"type": "occ",
				"energy": -0.25592,
				"method": "rhf"
			},
			{
				"type": "unocc",
				"energy": -0.08006,
				"method": "rhf"
			},
			{
				"type": "unocc",
				"energy": -0.07001,
				"method": "rhf"
			},
			{
				"type": "unocc",
				"energy": -0.00361,
				"method": "rhf"
			},
			{
				"type": "unocc",
				"energy": 0.01083,
				"method": "rhf"
			},
			{
				"type": "unocc",
				"energy": 0.04635,
				"method": "rhf"
			}
		],
		"cosmo_sigma_profile": { 
			"-0.025": 0.0,
			"-0.024": 0.0,
			"-0.023": 0.0,
			"-0.022": 0.0,
			"-0.021": 0.0,
			"-0.02": 0.235908207987,
			"-0.019": 1.0348370136,
			"-0.018": 1.24944604066,
			"-0.017": 0.91423750112,
			"-0.016": 1.06885073327,
			"-0.015": 1.20556764833,
			"-0.014": 0.954027799053,
			"-0.013": 0.741593298704,
			"-0.012": 1.30896587198,
			"-0.011": 1.05316726115,
			"-0.01": 1.03331858395,
			"-0.009": 1.25280982161,
			"-0.008": 2.7206701789,
			"-0.007": 4.24255089555,
			"-0.006": 7.84218766754,
			"-0.005": 13.5982683879,
			"-0.004": 23.7306429362,
			"-0.003": 39.6280138204,
			"-0.002": 38.5908249393,
			"-0.001": 26.1125321076,
			"0.0": 18.3316622678,
			"0.001": 19.9743717043,
			"0.002": 14.9494624348,
			"0.003": 8.2711823333,
			"0.004": 6.88650692928,
			"0.005": 7.26352803235,
			"0.006": 5.82186775474,
			"0.007": 5.95874421128,
			"0.008": 7.05646569833,
			"0.009": 7.05041353391,
			"0.01": 8.2517206826,
			"0.011": 11.2666252118,
			"0.012": 8.52685435362,
			"0.013": 0.910894876007,
			"0.014": 0.0,
			"0.015": 0.0,
			"0.016": 0.0,
			"0.017": 0.0,
			"0.018": 0.0,
			"0.019": 0.0,
			"0.02": 0.0,
			"0.021": 0.0,
			"0.022": 0.0,
			"0.023": 0.0,
			"0.024": 0.0,
			"0.025": 0.0
		}
	}
}
