{
	 "smiles": "ClC1=NC=NC(=C1)N1CCCCC1", 
	 "Tm": 352.15, 
	 "num_atms": 25, 
	 "gaussian": { 
		 "optdone": 1, 
		 "sigma_profile": "yes", 
		 "theory": "DFT", 
		 "functional": "B3LYP", 
		 "basiset": "6-31G**", 
		 "properties": { 
			 "R2extent": 4113.0567, 
			 "electric_dipole_moment_norm": 5.17060089448, 
			 "electric_quadrupole_moment_norm": 14.6670028837, 
			 "total_energy": -974.651185748, 
			 "HOMO_LUMO_gap": 0.19727, 
			 "cosmo_polarized_energy": -8.67, 
			 "cosmo_cavitation_energy": 28.5, 
			 "cosmo_dispersion_energy": -21.68, 
			 "cosmo_repulsion_energy": 1.72, 
			 "cosmo_total_nonelectrostatic_energy": 8.55, 
			 "SMD_solvation_energy": 1.23 
		},
		"coords": [
			{
				"x": 2.2228964966,
				"y": -4.477065842,
				"z": 1.3427803921,
				"element": "Cl" 
			},
			{
				"x": 1.7508006395,
				"y": -3.2300760054,
				"z": 0.1904255708,
				"element": "C" 
			},
			{
				"x": 1.9646517675,
				"y": -3.4996039906,
				"z": -1.0916213636,
				"element": "N" 
			},
			{
				"x": 1.5752450848,
				"y": -2.5208303757,
				"z": -1.9179289034,
				"element": "C" 
			},
			{
				"x": 1.0278148274,
				"y": -1.3549177115,
				"z": -1.6020407999,
				"element": "N" 
			},
			{
				"x": 0.828272413,
				"y": -1.0918701174,
				"z": -0.287440374,
				"element": "C" 
			},
			{
				"x": 1.1891399839,
				"y": -2.0648944565,
				"z": 0.6804876405,
				"element": "C" 
			},
			{
				"x": 0.2910444287,
				"y": 0.1253861513,
				"z": 0.0294900319,
				"element": "N" 
			},
			{
				"x": -0.2248472405,
				"y": 1.0226079142,
				"z": -1.0133774382,
				"element": "C" 
			},
			{
				"x": 0.2592858697,
				"y": 2.4599380439,
				"z": -0.7934376984,
				"element": "C" 
			},
			{
				"x": -0.0919178664,
				"y": 2.9514664935,
				"z": 0.6170187815,
				"element": "C" 
			},
			{
				"x": 0.440274775,
				"y": 1.9704870142,
				"z": 1.6694420972,
				"element": "C" 
			},
			{
				"x": -0.0370034041,
				"y": 0.5364511963,
				"z": 1.3938430661,
				"element": "C" 
			},
			{
				"x": 1.7270753204,
				"y": -2.7070047872,
				"z": -2.9798929397,
				"element": "H" 
			},
			{
				"x": 1.0396354532,
				"y": -1.9409702626,
				"z": 1.74238434,
				"element": "H" 
			},
			{
				"x": 0.0944647946,
				"y": 0.6330506259,
				"z": -1.9775070117,
				"element": "H" 
			},
			{
				"x": -1.3264057408,
				"y": 0.9966080517,
				"z": -0.9843350877,
				"element": "H" 
			},
			{
				"x": -0.1916239698,
				"y": 3.1073112392,
				"z": -1.5544098762,
				"element": "H" 
			},
			{
				"x": 1.3460810289,
				"y": 2.4960273207,
				"z": -0.9405522843,
				"element": "H" 
			},
			{
				"x": -1.1841668444,
				"y": 3.0312797028,
				"z": 0.713100537,
				"element": "H" 
			},
			{
				"x": 0.3129109469,
				"y": 3.9545804701,
				"z": 0.790949333,
				"element": "H" 
			},
			{
				"x": 0.1180067627,
				"y": 2.2630882047,
				"z": 2.6754906475,
				"element": "H" 
			},
			{
				"x": 1.5374804851,
				"y": 1.9820886397,
				"z": 1.6639947313,
				"element": "H" 
			},
			{
				"x": -1.127759901,
				"y": 0.4742016182,
				"z": 1.5391966136,
				"element": "H" 
			},
			{
				"x": 0.4223438893,
				"y": -0.1424391375,
				"z": 2.1104399946,
				"element": "H" 
			}
		],
		 "valence_orbital": [ 
			{
				"type": "occ",
				"energy": -0.31139,
				"method": "rhf"
			},
			{
				"type": "occ",
				"energy": -0.29666,
				"method": "rhf"
			},
			{
				"type": "occ",
				"energy": -0.27456,
				"method": "rhf"
			},
			{
				"type": "occ",
				"energy": -0.25827,
				"method": "rhf"
			},
			{
				"type": "occ",
				"energy": -0.22456,
				"method": "rhf"
			},
			{
				"type": "unocc",
				"energy": -0.02729,
				"method": "rhf"
			},
			{
				"type": "unocc",
				"energy": -0.01246,
				"method": "rhf"
			},
			{
				"type": "unocc",
				"energy": 0.03577,
				"method": "rhf"
			},
			{
				"type": "unocc",
				"energy": 0.07596,
				"method": "rhf"
			},
			{
				"type": "unocc",
				"energy": 0.10011,
				"method": "rhf"
			}
		],
		"cosmo_sigma_profile": { 
			"-0.025": 0.0,
			"-0.024": 0.0,
			"-0.023": 0.0,
			"-0.022": 0.0,
			"-0.021": 0.0,
			"-0.02": 0.0,
			"-0.019": 0.0,
			"-0.018": 0.0,
			"-0.017": 0.0,
			"-0.016": 0.0,
			"-0.015": 0.0,
			"-0.014": 0.0,
			"-0.013": 0.0,
			"-0.012": 0.0,
			"-0.011": 0.0,
			"-0.01": 0.66636853507,
			"-0.009": 1.62191453342,
			"-0.008": 1.74321508286,
			"-0.007": 3.82829714976,
			"-0.006": 3.38783123527,
			"-0.005": 4.33991223735,
			"-0.004": 13.9936887659,
			"-0.003": 28.2541255527,
			"-0.002": 31.6902323416,
			"-0.001": 29.9188815384,
			"0.0": 29.8000662175,
			"0.001": 19.3111458554,
			"0.002": 9.36496397115,
			"0.003": 9.64527115596,
			"0.004": 11.9831168698,
			"0.005": 7.28164206749,
			"0.006": 3.91272599731,
			"0.007": 3.44204960328,
			"0.008": 3.08360108641,
			"0.009": 2.12961215581,
			"0.01": 3.32018242236,
			"0.011": 1.32269653106,
			"0.012": 0.752417065627,
			"0.013": 0.887805265768,
			"0.014": 0.973486289125,
			"0.015": 0.842872906526,
			"0.016": 0.0,
			"0.017": 0.0,
			"0.018": 0.0,
			"0.019": 0.0,
			"0.02": 0.0,
			"0.021": 0.0,
			"0.022": 0.0,
			"0.023": 0.0,
			"0.024": 0.0,
			"0.025": 0.0
		}
	}
}
