{
	 "smiles": "CC1=CC=C2C(C=CC3=C2C=CC=C3)=N1", 
	 "Tm": 349.15, 
	 "num_atms": 26, 
	 "gaussian": { 
		 "optdone": 1, 
		 "sigma_profile": "yes", 
		 "theory": "DFT", 
		 "functional": "B3LYP", 
		 "basiset": "6-31G**", 
		 "properties": { 
			 "R2extent": 3611.7676, 
			 "electric_dipole_moment_norm": 1.73138590153, 
			 "electric_quadrupole_moment_norm": 10.710265345, 
			 "total_energy": -594.902218194, 
			 "HOMO_LUMO_gap": 0.17212, 
			 "cosmo_polarized_energy": -7.89, 
			 "cosmo_cavitation_energy": 29.12, 
			 "cosmo_dispersion_energy": -21.9, 
			 "cosmo_repulsion_energy": 1.66, 
			 "cosmo_total_nonelectrostatic_energy": 8.88, 
			 "SMD_solvation_energy": 3.15 
		},
		"coords": [
			{
				"x": -2.3380457813,
				"y": 2.6977584627,
				"z": 3.0470952124,
				"element": "C" 
			},
			{
				"x": -1.4778425308,
				"y": 1.8395624088,
				"z": 2.152829044,
				"element": "C" 
			},
			{
				"x": -1.9169745096,
				"y": 1.483683826,
				"z": 0.8541086226,
				"element": "C" 
			},
			{
				"x": -1.1130473164,
				"y": 0.6986561897,
				"z": 0.0564052647,
				"element": "C" 
			},
			{
				"x": 0.1401962188,
				"y": 0.2537896989,
				"z": 0.5345161663,
				"element": "C" 
			},
			{
				"x": 0.4920946997,
				"y": 0.6640242504,
				"z": 1.8514565984,
				"element": "C" 
			},
			{
				"x": 1.7486832835,
				"y": 0.2541145856,
				"z": 2.4106702025,
				"element": "C" 
			},
			{
				"x": 2.6089371485,
				"y": -0.5223314435,
				"z": 1.6978880256,
				"element": "C" 
			},
			{
				"x": 2.2959797935,
				"y": -0.9596376272,
				"z": 0.3665790087,
				"element": "C" 
			},
			{
				"x": 1.0572872827,
				"y": -0.5757731925,
				"z": -0.2295539186,
				"element": "C" 
			},
			{
				"x": 0.7816053407,
				"y": -1.0243799745,
				"z": -1.542597593,
				"element": "C" 
			},
			{
				"x": 1.6814996178,
				"y": -1.8130711507,
				"z": -2.2362846016,
				"element": "C" 
			},
			{
				"x": 2.9024081894,
				"y": -2.1894935889,
				"z": -1.6443887972,
				"element": "C" 
			},
			{
				"x": 3.199421895,
				"y": -1.7667486088,
				"z": -0.3637024602,
				"element": "C" 
			},
			{
				"x": -0.3078988305,
				"y": 1.4387022436,
				"z": 2.6309011637,
				"element": "N" 
			},
			{
				"x": -1.8304264024,
				"y": 2.8604777582,
				"z": 3.9988891029,
				"element": "H" 
			},
			{
				"x": -2.5432716473,
				"y": 3.6702127702,
				"z": 2.5842710515,
				"element": "H" 
			},
			{
				"x": -3.307027197,
				"y": 2.2221790813,
				"z": 3.2391683581,
				"element": "H" 
			},
			{
				"x": -2.8818431,
				"y": 1.8304600146,
				"z": 0.4954794223,
				"element": "H" 
			},
			{
				"x": -1.4516863294,
				"y": 0.4274098939,
				"z": -0.9381086567,
				"element": "H" 
			},
			{
				"x": 1.9740517567,
				"y": 0.5906911701,
				"z": 3.417166127,
				"element": "H" 
			},
			{
				"x": 3.5590875094,
				"y": -0.8289692932,
				"z": 2.1279837106,
				"element": "H" 
			},
			{
				"x": -0.15123436,
				"y": -0.7496566421,
				"z": -2.0233468902,
				"element": "H" 
			},
			{
				"x": 1.443859472,
				"y": -2.1433197369,
				"z": -3.2433577619,
				"element": "H" 
			},
			{
				"x": 3.6052081466,
				"y": -2.8088864454,
				"z": -2.1937772285,
				"element": "H" 
			},
			{
				"x": 4.1385776501,
				"y": -2.0503546505,
				"z": 0.1046108266,
				"element": "H" 
			}
		],
		 "valence_orbital": [ 
			{
				"type": "occ",
				"energy": -0.29623,
				"method": "rhf"
			},
			{
				"type": "occ",
				"energy": -0.26878,
				"method": "rhf"
			},
			{
				"type": "occ",
				"energy": -0.24841,
				"method": "rhf"
			},
			{
				"type": "occ",
				"energy": -0.22957,
				"method": "rhf"
			},
			{
				"type": "occ",
				"energy": -0.2177,
				"method": "rhf"
			},
			{
				"type": "unocc",
				"energy": -0.04558,
				"method": "rhf"
			},
			{
				"type": "unocc",
				"energy": -0.03599,
				"method": "rhf"
			},
			{
				"type": "unocc",
				"energy": 0.00102,
				"method": "rhf"
			},
			{
				"type": "unocc",
				"energy": 0.02931,
				"method": "rhf"
			},
			{
				"type": "unocc",
				"energy": 0.07492,
				"method": "rhf"
			}
		],
		"cosmo_sigma_profile": { 
			"-0.025": 0.0,
			"-0.024": 0.0,
			"-0.023": 0.0,
			"-0.022": 0.0,
			"-0.021": 0.0,
			"-0.02": 0.0,
			"-0.019": 0.0,
			"-0.018": 0.0,
			"-0.017": 0.0,
			"-0.016": 0.0,
			"-0.015": 0.0,
			"-0.014": 0.0,
			"-0.013": 0.0,
			"-0.012": 0.0,
			"-0.011": 0.0,
			"-0.01": 0.0,
			"-0.009": 0.454056023206,
			"-0.008": 1.87458443984,
			"-0.007": 3.47792969904,
			"-0.006": 12.8970543981,
			"-0.005": 17.2181346312,
			"-0.004": 21.2262205428,
			"-0.003": 18.6853678208,
			"-0.002": 15.6382256713,
			"-0.001": 16.4240254003,
			"0.0": 15.8026981094,
			"0.001": 15.3797308336,
			"0.002": 25.7378510165,
			"0.003": 26.4352986174,
			"0.004": 19.6659316716,
			"0.005": 10.7974168867,
			"0.006": 2.34951739904,
			"0.007": 1.70514767342,
			"0.008": 1.65577094028,
			"0.009": 1.55697887472,
			"0.01": 0.493889720639,
			"0.011": 0.720798419736,
			"0.012": 0.959148468305,
			"0.013": 0.930967415952,
			"0.014": 0.898398564276,
			"0.015": 0.669677963281,
			"0.016": 0.195857675486,
			"0.017": 0.0,
			"0.018": 0.0,
			"0.019": 0.0,
			"0.02": 0.0,
			"0.021": 0.0,
			"0.022": 0.0,
			"0.023": 0.0,
			"0.024": 0.0,
			"0.025": 0.0
		}
	}
}
