{
	 "smiles": "COC1=CC=CC=C1C1=NN=C2SC(NN12)C1=CC=CC=C1O", 
	 "Tm": 478.15, 
	 "num_atms": 37, 
	 "gaussian": { 
		 "optdone": 1, 
		 "sigma_profile": "yes", 
		 "theory": "DFT", 
		 "functional": "B3LYP", 
		 "basiset": "6-31G**", 
		 "properties": { 
			 "R2extent": 9285.4993, 
			 "electric_dipole_moment_norm": 9.73353669074, 
			 "electric_quadrupole_moment_norm": 32.1258899119, 
			 "total_energy": -1385.69146862, 
			 "HOMO_LUMO_gap": 0.16833, 
			 "cosmo_polarized_energy": -26.44, 
			 "cosmo_cavitation_energy": 42.99, 
			 "cosmo_dispersion_energy": -30.09, 
			 "cosmo_repulsion_energy": 2.21, 
			 "cosmo_total_nonelectrostatic_energy": 15.11, 
			 "SMD_solvation_energy": 5.05 
		},
		"coords": [
			{
				"x": -1.1562347827,
				"y": -1.7497628519,
				"z": -1.6822828215,
				"element": "C" 
			},
			{
				"x": 0.2161315199,
				"y": -1.3928162189,
				"z": -1.6760993097,
				"element": "O" 
			},
			{
				"x": 1.1146311424,
				"y": -2.2314294657,
				"z": -1.0941062195,
				"element": "C" 
			},
			{
				"x": 0.8260944575,
				"y": -3.5466455188,
				"z": -0.7132365814,
				"element": "C" 
			},
			{
				"x": 1.8330106143,
				"y": -4.3570492957,
				"z": -0.1838341229,
				"element": "C" 
			},
			{
				"x": 3.1307262294,
				"y": -3.8709127404,
				"z": -0.0332218397,
				"element": "C" 
			},
			{
				"x": 3.4140489372,
				"y": -2.5549204744,
				"z": -0.3959461545,
				"element": "C" 
			},
			{
				"x": 2.4178116291,
				"y": -1.7147399704,
				"z": -0.9080221323,
				"element": "C" 
			},
			{
				"x": 2.7766165007,
				"y": -0.3423491949,
				"z": -1.2852862084,
				"element": "C" 
			},
			{
				"x": 3.9046936558,
				"y": 0.0091856242,
				"z": -1.8785654547,
				"element": "N" 
			},
			{
				"x": 3.914825008,
				"y": 1.3885520732,
				"z": -2.0660452209,
				"element": "N" 
			},
			{
				"x": 2.7955537443,
				"y": 1.830966752,
				"z": -1.5579000055,
				"element": "C" 
			},
			{
				"x": 1.9867250773,
				"y": 3.3858529656,
				"z": -1.3719042159,
				"element": "S" 
			},
			{
				"x": 0.4021582656,
				"y": 2.3625459615,
				"z": -0.9865124849,
				"element": "C" 
			},
			{
				"x": 0.8575222968,
				"y": 1.1186509377,
				"z": -0.3685002171,
				"element": "N" 
			},
			{
				"x": 2.0430153484,
				"y": 0.7998211785,
				"z": -1.0536301227,
				"element": "N" 
			},
			{
				"x": -0.6048387401,
				"y": 3.086137069,
				"z": -0.1382005365,
				"element": "C" 
			},
			{
				"x": -0.2344042545,
				"y": 3.8476319374,
				"z": 0.9767575499,
				"element": "C" 
			},
			{
				"x": -1.1874528633,
				"y": 4.4802040539,
				"z": 1.7741170843,
				"element": "C" 
			},
			{
				"x": -2.539678134,
				"y": 4.3557534092,
				"z": 1.4535673959,
				"element": "C" 
			},
			{
				"x": -2.9336006512,
				"y": 3.6019882819,
				"z": 0.3494176527,
				"element": "C" 
			},
			{
				"x": -1.9745029882,
				"y": 2.9642865486,
				"z": -0.4434647799,
				"element": "C" 
			},
			{
				"x": -2.3207083361,
				"y": 2.2058745905,
				"z": -1.5266975085,
				"element": "O" 
			},
			{
				"x": -1.3540801364,
				"y": -2.5911462821,
				"z": -2.3590788456,
				"element": "H" 
			},
			{
				"x": -1.6907096434,
				"y": -0.8656826952,
				"z": -2.0331864788,
				"element": "H" 
			},
			{
				"x": -1.5086337808,
				"y": -2.0069337292,
				"z": -0.6755843103,
				"element": "H" 
			},
			{
				"x": -0.1709398615,
				"y": -3.9487864795,
				"z": -0.8486698369,
				"element": "H" 
			},
			{
				"x": 1.5948286277,
				"y": -5.3774388337,
				"z": 0.1029876584,
				"element": "H" 
			},
			{
				"x": 3.9138763306,
				"y": -4.5053060038,
				"z": 0.369219731,
				"element": "H" 
			},
			{
				"x": 4.4141321559,
				"y": -2.1495010358,
				"z": -0.284871304,
				"element": "H" 
			},
			{
				"x": -0.0118549584,
				"y": 2.1130337319,
				"z": -1.9625088976,
				"element": "H" 
			},
			{
				"x": 1.1064320168,
				"y": 1.3005043518,
				"z": 0.6077720719,
				"element": "H" 
			},
			{
				"x": 0.822048465,
				"y": 3.9592572071,
				"z": 1.2028157674,
				"element": "H" 
			},
			{
				"x": -0.8764854067,
				"y": 5.0708799755,
				"z": 2.6293966323,
				"element": "H" 
			},
			{
				"x": -3.2942684401,
				"y": 4.8471915353,
				"z": 2.0604889172,
				"element": "H" 
			},
			{
				"x": -3.9881042397,
				"y": 3.5031503548,
				"z": 0.1005510369,
				"element": "H" 
			},
			{
				"x": -3.2753848055,
				"y": 2.2620522506,
				"z": -1.6623358882,
				"element": "H" 
			}
		],
		 "valence_orbital": [ 
			{
				"type": "occ",
				"energy": -0.25264,
				"method": "rhf"
			},
			{
				"type": "occ",
				"energy": -0.24549,
				"method": "rhf"
			},
			{
				"type": "occ",
				"energy": -0.24136,
				"method": "rhf"
			},
			{
				"type": "occ",
				"energy": -0.22796,
				"method": "rhf"
			},
			{
				"type": "occ",
				"energy": -0.20692,
				"method": "rhf"
			},
			{
				"type": "unocc",
				"energy": -0.03859,
				"method": "rhf"
			},
			{
				"type": "unocc",
				"energy": -0.02131,
				"method": "rhf"
			},
			{
				"type": "unocc",
				"energy": -0.01285,
				"method": "rhf"
			},
			{
				"type": "unocc",
				"energy": 0.00284,
				"method": "rhf"
			},
			{
				"type": "unocc",
				"energy": 0.00925,
				"method": "rhf"
			}
		],
		"cosmo_sigma_profile": { 
			"-0.025": 0.0,
			"-0.024": 0.0,
			"-0.023": 0.0,
			"-0.022": 0.0,
			"-0.021": 0.0,
			"-0.02": 0.0,
			"-0.019": 0.120214437353,
			"-0.018": 0.931876368876,
			"-0.017": 1.12962299963,
			"-0.016": 1.22864779222,
			"-0.015": 1.05196205933,
			"-0.014": 2.13538060654,
			"-0.013": 2.1788234089,
			"-0.012": 1.79923728805,
			"-0.011": 3.09323442898,
			"-0.01": 2.61477850335,
			"-0.009": 2.41648171377,
			"-0.008": 2.74307475728,
			"-0.007": 5.8501445916,
			"-0.006": 18.9569862937,
			"-0.005": 25.6120318064,
			"-0.004": 27.7091359512,
			"-0.003": 22.88621284,
			"-0.002": 19.0647180762,
			"-0.001": 19.06895286,
			"0.0": 20.0699034792,
			"0.001": 22.0279341178,
			"0.002": 27.8125436261,
			"0.003": 26.7286007593,
			"0.004": 28.2957010472,
			"0.005": 21.1904733832,
			"0.006": 7.60240956446,
			"0.007": 5.26906805979,
			"0.008": 4.01233052802,
			"0.009": 3.6320247132,
			"0.01": 2.42303296313,
			"0.011": 2.14936706249,
			"0.012": 1.87843554125,
			"0.013": 4.21032546027,
			"0.014": 3.42580070518,
			"0.015": 2.05011737257,
			"0.016": 2.45732585061,
			"0.017": 0.584422877866,
			"0.018": 0.0,
			"0.019": 0.0,
			"0.02": 0.0,
			"0.021": 0.0,
			"0.022": 0.0,
			"0.023": 0.0,
			"0.024": 0.0,
			"0.025": 0.0
		}
	}
}
