{
	 "smiles": "SC1=C(Cl)C=CC=C1Cl", 
	 "Tm": 320.65, 
	 "num_atms": 13, 
	 "gaussian": { 
		 "optdone": 1, 
		 "sigma_profile": "yes", 
		 "theory": "DFT", 
		 "functional": "B3LYP", 
		 "basiset": "6-31G**", 
		 "properties": { 
			 "R2extent": 2985.6813, 
			 "electric_dipole_moment_norm": 2.15841061432, 
			 "electric_quadrupole_moment_norm": 5.98225137386, 
			 "total_energy": -1549.61396248, 
			 "HOMO_LUMO_gap": 0.20511, 
			 "cosmo_polarized_energy": -4.86, 
			 "cosmo_cavitation_energy": 21.87, 
			 "cosmo_dispersion_energy": -17.3, 
			 "cosmo_repulsion_energy": 1.35, 
			 "cosmo_total_nonelectrostatic_energy": 5.92, 
			 "SMD_solvation_energy": 2.74 
		},
		"coords": [
			{
				"x": -2.7216514451,
				"y": 0.0396716878,
				"z": 2.7606048562,
				"element": "S" 
			},
			{
				"x": -1.6040628054,
				"y": -0.1392693346,
				"z": 1.3923362471,
				"element": "C" 
			},
			{
				"x": -0.9362481069,
				"y": 0.9190467226,
				"z": 0.7435290447,
				"element": "C" 
			},
			{
				"x": -1.1664963193,
				"y": 2.585592049,
				"z": 1.261642392,
				"element": "Cl" 
			},
			{
				"x": -0.0707521661,
				"y": 0.7019704316,
				"z": -0.327516683,
				"element": "C" 
			},
			{
				"x": 0.1545770052,
				"y": -0.5928634327,
				"z": -0.7857083473,
				"element": "C" 
			},
			{
				"x": -0.4858276266,
				"y": -1.666615806,
				"z": -0.1719976686,
				"element": "C" 
			},
			{
				"x": -1.3470164726,
				"y": -1.4334078639,
				"z": 0.8961411737,
				"element": "C" 
			},
			{
				"x": -2.134094808,
				"y": -2.8131674123,
				"z": 1.6417032628,
				"element": "Cl" 
			},
			{
				"x": -2.6193999196,
				"y": 1.3797050132,
				"z": 2.8317948087,
				"element": "H" 
			},
			{
				"x": 0.4180887341,
				"y": 1.5507181579,
				"z": -0.7917697697,
				"element": "H" 
			},
			{
				"x": 0.8277776636,
				"y": -0.7641324125,
				"z": -1.6191233801,
				"element": "H" 
			},
			{
				"x": -0.3258937334,
				"y": -2.6835478001,
				"z": -0.5113359366,
				"element": "H" 
			}
		],
		 "valence_orbital": [ 
			{
				"type": "occ",
				"energy": -0.33137,
				"method": "rhf"
			},
			{
				"type": "occ",
				"energy": -0.31677,
				"method": "rhf"
			},
			{
				"type": "occ",
				"energy": -0.31193,
				"method": "rhf"
			},
			{
				"type": "occ",
				"energy": -0.25749,
				"method": "rhf"
			},
			{
				"type": "occ",
				"energy": -0.23437,
				"method": "rhf"
			},
			{
				"type": "unocc",
				"energy": -0.02926,
				"method": "rhf"
			},
			{
				"type": "unocc",
				"energy": -0.02687,
				"method": "rhf"
			},
			{
				"type": "unocc",
				"energy": -0.01645,
				"method": "rhf"
			},
			{
				"type": "unocc",
				"energy": 0.03865,
				"method": "rhf"
			},
			{
				"type": "unocc",
				"energy": 0.04523,
				"method": "rhf"
			}
		],
		"cosmo_sigma_profile": { 
			"-0.025": 0.0,
			"-0.024": 0.0,
			"-0.023": 0.0,
			"-0.022": 0.0,
			"-0.021": 0.0,
			"-0.02": 0.0,
			"-0.019": 0.0,
			"-0.018": 0.0,
			"-0.017": 0.0,
			"-0.016": 0.0,
			"-0.015": 0.0,
			"-0.014": 0.0,
			"-0.013": 0.0,
			"-0.012": 0.0,
			"-0.011": 0.141608286005,
			"-0.01": 0.808412961164,
			"-0.009": 0.953319454409,
			"-0.008": 4.22779971235,
			"-0.007": 7.13520052296,
			"-0.006": 8.16500318378,
			"-0.005": 7.605461134,
			"-0.004": 5.91167943326,
			"-0.003": 8.96011469394,
			"-0.002": 10.3433909738,
			"-0.001": 12.7293356147,
			"0.0": 17.4887548959,
			"0.001": 24.6675136809,
			"0.002": 23.6552273355,
			"0.003": 22.1366612775,
			"0.004": 17.1201867918,
			"0.005": 5.00704795434,
			"0.006": 2.75324783379,
			"0.007": 2.49527155306,
			"0.008": 0.598966987793,
			"0.009": 0.0,
			"0.01": 0.0,
			"0.011": 0.0,
			"0.012": 0.0,
			"0.013": 0.0,
			"0.014": 0.0,
			"0.015": 0.0,
			"0.016": 0.0,
			"0.017": 0.0,
			"0.018": 0.0,
			"0.019": 0.0,
			"0.02": 0.0,
			"0.021": 0.0,
			"0.022": 0.0,
			"0.023": 0.0,
			"0.024": 0.0,
			"0.025": 0.0
		}
	}
}
