{
	 "smiles": "COC(=O)NS(=O)(=O)C1=CC=C(N)C=C1", 
	 "Tm": 503.15, 
	 "num_atms": 25, 
	 "gaussian": { 
		 "optdone": 1, 
		 "sigma_profile": "yes", 
		 "theory": "DFT", 
		 "functional": "B3LYP", 
		 "basiset": "6-31G**", 
		 "properties": { 
			 "R2extent": 4229.8921, 
			 "electric_dipole_moment_norm": 7.45442665133, 
			 "electric_quadrupole_moment_norm": 20.7180546975, 
			 "total_energy": -1119.41028695, 
			 "HOMO_LUMO_gap": 0.19868, 
			 "cosmo_polarized_energy": -21.59, 
			 "cosmo_cavitation_energy": 31.36, 
			 "cosmo_dispersion_energy": -22.61, 
			 "cosmo_repulsion_energy": 1.75, 
			 "cosmo_total_nonelectrostatic_energy": 10.5, 
			 "SMD_solvation_energy": 6.64 
		},
		"coords": [
			{
				"x": -1.8670471328,
				"y": 0.2344843291,
				"z": -2.1130623065,
				"element": "C" 
			},
			{
				"x": -1.535457558,
				"y": 0.0368145008,
				"z": -0.7290247412,
				"element": "O" 
			},
			{
				"x": -2.0019765162,
				"y": 0.9858177258,
				"z": 0.102254772,
				"element": "C" 
			},
			{
				"x": -2.6131941793,
				"y": 1.9781832372,
				"z": -0.2319702567,
				"element": "O" 
			},
			{
				"x": -1.6555453553,
				"y": 0.717413462,
				"z": 1.4196766434,
				"element": "N" 
			},
			{
				"x": -1.1757995261,
				"y": -0.7794396181,
				"z": 2.1246102223,
				"element": "S" 
			},
			{
				"x": -1.2270962039,
				"y": -0.4565040155,
				"z": 3.5521951653,
				"element": "O" 
			},
			{
				"x": -1.9691510785,
				"y": -1.8613883513,
				"z": 1.5491178726,
				"element": "O" 
			},
			{
				"x": 0.5134711606,
				"y": -0.9871894447,
				"z": 1.6292656002,
				"element": "C" 
			},
			{
				"x": 0.8273617743,
				"y": -1.8241685955,
				"z": 0.5544600632,
				"element": "C" 
			},
			{
				"x": 2.1532501784,
				"y": -1.9944272889,
				"z": 0.1822929922,
				"element": "C" 
			},
			{
				"x": 3.1860900246,
				"y": -1.3334193493,
				"z": 0.8781524642,
				"element": "C" 
			},
			{
				"x": 4.5084525429,
				"y": -1.5409752804,
				"z": 0.5378317993,
				"element": "N" 
			},
			{
				"x": 2.8483773658,
				"y": -0.4990894237,
				"z": 1.9645748878,
				"element": "C" 
			},
			{
				"x": 1.5240549772,
				"y": -0.3287901589,
				"z": 2.3386254268,
				"element": "C" 
			},
			{
				"x": -1.4285116324,
				"y": -0.6126685451,
				"z": -2.6396495368,
				"element": "H" 
			},
			{
				"x": -1.4470694271,
				"y": 1.1744674827,
				"z": -2.4784560985,
				"element": "H" 
			},
			{
				"x": -2.9507302415,
				"y": 0.2497454399,
				"z": -2.2492414516,
				"element": "H" 
			},
			{
				"x": -2.0411671138,
				"y": 1.3593823851,
				"z": 2.1026851355,
				"element": "H" 
			},
			{
				"x": 0.0320913811,
				"y": -2.3367563076,
				"z": 0.0262402921,
				"element": "H" 
			},
			{
				"x": 2.4020291438,
				"y": -2.6510403112,
				"z": -0.6470840699,
				"element": "H" 
			},
			{
				"x": 4.6981162377,
				"y": -1.905028492,
				"z": -0.3837318973,
				"element": "H" 
			},
			{
				"x": 5.1814527348,
				"y": -0.8605394763,
				"z": 0.857045374,
				"element": "H" 
			},
			{
				"x": 3.6362480523,
				"y": 0.0034013942,
				"z": 2.5190788727,
				"element": "H" 
			},
			{
				"x": 1.2694503914,
				"y": 0.2995147017,
				"z": 3.185312775,
				"element": "H" 
			}
		],
		 "valence_orbital": [ 
			{
				"type": "occ",
				"energy": -0.30749,
				"method": "rhf"
			},
			{
				"type": "occ",
				"energy": -0.2866,
				"method": "rhf"
			},
			{
				"type": "occ",
				"energy": -0.28087,
				"method": "rhf"
			},
			{
				"type": "occ",
				"energy": -0.27072,
				"method": "rhf"
			},
			{
				"type": "occ",
				"energy": -0.22688,
				"method": "rhf"
			},
			{
				"type": "unocc",
				"energy": -0.0282,
				"method": "rhf"
			},
			{
				"type": "unocc",
				"energy": -0.01889,
				"method": "rhf"
			},
			{
				"type": "unocc",
				"energy": 0.02658,
				"method": "rhf"
			},
			{
				"type": "unocc",
				"energy": 0.05183,
				"method": "rhf"
			},
			{
				"type": "unocc",
				"energy": 0.06863,
				"method": "rhf"
			}
		],
		"cosmo_sigma_profile": { 
			"-0.025": 0.0,
			"-0.024": 0.0,
			"-0.023": 0.0,
			"-0.022": 0.0,
			"-0.021": 0.0,
			"-0.02": 0.0,
			"-0.019": 0.0,
			"-0.018": 0.0,
			"-0.017": 0.0385796557608,
			"-0.016": 0.671561863806,
			"-0.015": 0.78530625339,
			"-0.014": 1.56386473269,
			"-0.013": 3.66464770728,
			"-0.012": 3.30088210551,
			"-0.011": 3.91907893523,
			"-0.01": 4.96519203107,
			"-0.009": 3.10563267149,
			"-0.008": 4.70244960433,
			"-0.007": 9.34430971318,
			"-0.006": 14.2927402502,
			"-0.005": 16.5553186563,
			"-0.004": 16.5374089427,
			"-0.003": 14.3237162081,
			"-0.002": 11.5301961438,
			"-0.001": 10.2837269577,
			"0.0": 12.3084381182,
			"0.001": 12.6964013451,
			"0.002": 14.542649859,
			"0.003": 17.6674519812,
			"0.004": 13.7764812635,
			"0.005": 6.6254458557,
			"0.006": 6.24730818985,
			"0.007": 4.93659774769,
			"0.008": 5.46108390108,
			"0.009": 6.81167018276,
			"0.01": 13.3201962423,
			"0.011": 11.0814358247,
			"0.012": 4.25887997601,
			"0.013": 0.0943894943809,
			"0.014": 0.0,
			"0.015": 0.0,
			"0.016": 0.0,
			"0.017": 0.0,
			"0.018": 0.0,
			"0.019": 0.0,
			"0.02": 0.0,
			"0.021": 0.0,
			"0.022": 0.0,
			"0.023": 0.0,
			"0.024": 0.0,
			"0.025": 0.0
		}
	}
}
