{
	 "smiles": "CC(SCC(=O)NC1=CC=C(Br)C=C1)C(O)=O", 
	 "Tm": 413.15, 
	 "num_atms": 29, 
	 "gaussian": { 
		 "optdone": 1, 
		 "sigma_profile": "yes", 
		 "theory": "DFT", 
		 "functional": "B3LYP", 
		 "basiset": "6-31G**", 
		 "properties": { 
			 "R2extent": 10682.577, 
			 "electric_dipole_moment_norm": 0.642079099489, 
			 "electric_quadrupole_moment_norm": 14.0992520578, 
			 "total_energy": -3676.44158944, 
			 "HOMO_LUMO_gap": 0.19454, 
			 "cosmo_polarized_energy": -19.2, 
			 "cosmo_cavitation_energy": 37.31, 
			 "cosmo_dispersion_energy": -27.1, 
			 "cosmo_repulsion_energy": 2.08, 
			 "cosmo_total_nonelectrostatic_energy": 12.29, 
			 "SMD_solvation_energy": 6.13 
		},
		"coords": [
			{
				"x": -0.11173936,
				"y": 2.9083526303,
				"z": 4.8350754389,
				"element": "C" 
			},
			{
				"x": 0.100242227,
				"y": 1.7700253542,
				"z": 3.8353735527,
				"element": "C" 
			},
			{
				"x": 0.5747546213,
				"y": 2.530292684,
				"z": 2.2083303234,
				"element": "S" 
			},
			{
				"x": 0.6745856121,
				"y": 1.0698493304,
				"z": 1.1097565632,
				"element": "C" 
			},
			{
				"x": -0.6053343567,
				"y": 0.819288167,
				"z": 0.3069566119,
				"element": "C" 
			},
			{
				"x": -1.7161596363,
				"y": 1.129781568,
				"z": 0.7049164773,
				"element": "O" 
			},
			{
				"x": -0.4701939963,
				"y": 0.2218946289,
				"z": -0.9352042004,
				"element": "N" 
			},
			{
				"x": 0.6638185595,
				"y": -0.2492266597,
				"z": -1.63639988,
				"element": "C" 
			},
			{
				"x": 1.6524110536,
				"y": -1.0323530499,
				"z": -1.0238510338,
				"element": "C" 
			},
			{
				"x": 2.7453386775,
				"y": -1.4931203628,
				"z": -1.7569561375,
				"element": "C" 
			},
			{
				"x": 2.8361625965,
				"y": -1.2009781616,
				"z": -3.1161612374,
				"element": "C" 
			},
			{
				"x": 4.3241853828,
				"y": -1.845184714,
				"z": -4.12406103,
				"element": "Br" 
			},
			{
				"x": 1.8468629723,
				"y": -0.450178172,
				"z": -3.7503464627,
				"element": "C" 
			},
			{
				"x": 0.7710039144,
				"y": 0.0287682003,
				"z": -3.0075850975,
				"element": "C" 
			},
			{
				"x": -1.095549933,
				"y": 0.8543123662,
				"z": 3.6484558047,
				"element": "C" 
			},
			{
				"x": -2.2762021726,
				"y": 1.4827111123,
				"z": 3.7773027322,
				"element": "O" 
			},
			{
				"x": -0.9901296721,
				"y": -0.3293850782,
				"z": 3.3948311816,
				"element": "O" 
			},
			{
				"x": -0.9371125385,
				"y": 3.552159927,
				"z": 4.5252954539,
				"element": "H" 
			},
			{
				"x": 0.7960462854,
				"y": 3.5118517185,
				"z": 4.922671813,
				"element": "H" 
			},
			{
				"x": -0.3466873203,
				"y": 2.5006543501,
				"z": 5.823006922,
				"element": "H" 
			},
			{
				"x": 0.9273179504,
				"y": 1.1279136469,
				"z": 4.1486969035,
				"element": "H" 
			},
			{
				"x": 0.8729253265,
				"y": 0.1894909933,
				"z": 1.7284277381,
				"element": "H" 
			},
			{
				"x": 1.5332866723,
				"y": 1.2203852707,
				"z": 0.4526325685,
				"element": "H" 
			},
			{
				"x": -1.3549545714,
				"y": 0.1955190715,
				"z": -1.4282193938,
				"element": "H" 
			},
			{
				"x": 1.5591758561,
				"y": -1.3068565118,
				"z": 0.0206346626,
				"element": "H" 
			},
			{
				"x": 3.5081574565,
				"y": -2.0946733745,
				"z": -1.2761073899,
				"element": "H" 
			},
			{
				"x": 1.9220314543,
				"y": -0.2307041771,
				"z": -4.8091813161,
				"element": "H" 
			},
			{
				"x": 0.0094797034,
				"y": 0.6337505206,
				"z": -3.4914125672,
				"element": "H" 
			},
			{
				"x": -2.9554227646,
				"y": 0.8478587217,
				"z": 3.4950209987,
				"element": "H" 
			}
		],
		 "valence_orbital": [ 
			{
				"type": "occ",
				"energy": -0.278,
				"method": "rhf"
			},
			{
				"type": "occ",
				"energy": -0.27191,
				"method": "rhf"
			},
			{
				"type": "occ",
				"energy": -0.266,
				"method": "rhf"
			},
			{
				"type": "occ",
				"energy": -0.23826,
				"method": "rhf"
			},
			{
				"type": "occ",
				"energy": -0.22776,
				"method": "rhf"
			},
			{
				"type": "unocc",
				"energy": -0.03322,
				"method": "rhf"
			},
			{
				"type": "unocc",
				"energy": -0.02865,
				"method": "rhf"
			},
			{
				"type": "unocc",
				"energy": -0.01148,
				"method": "rhf"
			},
			{
				"type": "unocc",
				"energy": -0.00092,
				"method": "rhf"
			},
			{
				"type": "unocc",
				"energy": 0.01539,
				"method": "rhf"
			}
		],
		"cosmo_sigma_profile": { 
			"-0.025": 0.0,
			"-0.024": 0.0,
			"-0.023": 0.0,
			"-0.022": 0.0,
			"-0.021": 0.0,
			"-0.02": 0.0,
			"-0.019": 0.0510217762974,
			"-0.018": 0.649178559187,
			"-0.017": 0.798380764889,
			"-0.016": 0.626690553805,
			"-0.015": 1.46912117193,
			"-0.014": 1.36862780627,
			"-0.013": 1.40382140853,
			"-0.012": 1.96082807257,
			"-0.011": 1.55758117807,
			"-0.01": 2.41525952189,
			"-0.009": 3.27207382589,
			"-0.008": 5.64811237997,
			"-0.007": 12.4591700074,
			"-0.006": 17.0328848717,
			"-0.005": 16.5325478007,
			"-0.004": 18.1078090614,
			"-0.003": 19.9114464077,
			"-0.002": 17.9477201602,
			"-0.001": 18.8931066057,
			"0.0": 19.5552407737,
			"0.001": 18.9951861756,
			"0.002": 22.5033732219,
			"0.003": 23.3896210805,
			"0.004": 18.3740489519,
			"0.005": 12.0772481385,
			"0.006": 4.48078693864,
			"0.007": 6.01036415581,
			"0.008": 7.15472961465,
			"0.009": 4.62511178151,
			"0.01": 4.69669509987,
			"0.011": 5.80036331176,
			"0.012": 5.89633018086,
			"0.013": 3.84929048336,
			"0.014": 1.43269173722,
			"0.015": 0.128332418147,
			"0.016": 0.0,
			"0.017": 0.0,
			"0.018": 0.0,
			"0.019": 0.0,
			"0.02": 0.0,
			"0.021": 0.0,
			"0.022": 0.0,
			"0.023": 0.0,
			"0.024": 0.0,
			"0.025": 0.0
		}
	}
}
