{
	 "smiles": "[O-][N+](=O)C1=CC=CC=C1C=C(Cl)C1=NC=CC=C1", 
	 "Tm": 333.95, 
	 "num_atms": 27, 
	 "gaussian": { 
		 "optdone": 1, 
		 "sigma_profile": "yes", 
		 "theory": "DFT", 
		 "functional": "B3LYP", 
		 "basiset": "6-31G**", 
		 "properties": { 
			 "R2extent": 6046.0517, 
			 "electric_dipole_moment_norm": 6.18691201247, 
			 "electric_quadrupole_moment_norm": 15.6752772336, 
			 "total_energy": -1220.82345215, 
			 "HOMO_LUMO_gap": 0.14743, 
			 "cosmo_polarized_energy": -12.37, 
			 "cosmo_cavitation_energy": 34.23, 
			 "cosmo_dispersion_energy": -23.84, 
			 "cosmo_repulsion_energy": 1.86, 
			 "cosmo_total_nonelectrostatic_energy": 12.25, 
			 "SMD_solvation_energy": 6.91 
		},
		"coords": [
			{
				"x": 3.0087843515,
				"y": -1.4564494784,
				"z": 2.2469363898,
				"element": "O" 
			},
			{
				"x": 1.7779772343,
				"y": -1.4718734439,
				"z": 2.2725181763,
				"element": "N" 
			},
			{
				"x": 1.1096635412,
				"y": -2.4085786172,
				"z": 2.7121488499,
				"element": "O" 
			},
			{
				"x": 1.0674478655,
				"y": -0.2927628517,
				"z": 1.7520548464,
				"element": "C" 
			},
			{
				"x": 1.8529513472,
				"y": 0.8151221395,
				"z": 1.4246354813,
				"element": "C" 
			},
			{
				"x": 1.2527109951,
				"y": 1.9598685512,
				"z": 0.9164992022,
				"element": "C" 
			},
			{
				"x": -0.1324625237,
				"y": 1.984028732,
				"z": 0.7310618232,
				"element": "C" 
			},
			{
				"x": -0.9023286545,
				"y": 0.8718735132,
				"z": 1.0543859061,
				"element": "C" 
			},
			{
				"x": -0.329005598,
				"y": -0.3042439709,
				"z": 1.5702243518,
				"element": "C" 
			},
			{
				"x": -1.2186966167,
				"y": -1.4138705837,
				"z": 1.9774598619,
				"element": "C" 
			},
			{
				"x": -2.118948523,
				"y": -2.0316140426,
				"z": 1.1936637267,
				"element": "C" 
			},
			{
				"x": -3.2233494569,
				"y": -3.1718459585,
				"z": 1.9806295479,
				"element": "Cl" 
			},
			{
				"x": -2.2683092232,
				"y": -1.9228505184,
				"z": -0.2794245127,
				"element": "C" 
			},
			{
				"x": -1.1532047837,
				"y": -1.594223301,
				"z": -0.9576800183,
				"element": "N" 
			},
			{
				"x": -1.2326260202,
				"y": -1.4773571617,
				"z": -2.2841690051,
				"element": "C" 
			},
			{
				"x": -2.4069793953,
				"y": -1.6835412398,
				"z": -3.0117709412,
				"element": "C" 
			},
			{
				"x": -3.5595857098,
				"y": -2.0273322142,
				"z": -2.3082685781,
				"element": "C" 
			},
			{
				"x": -3.4948984455,
				"y": -2.1529958958,
				"z": -0.9227803939,
				"element": "C" 
			},
			{
				"x": 2.9228860294,
				"y": 0.7505022934,
				"z": 1.5747118784,
				"element": "H" 
			},
			{
				"x": 1.8590524924,
				"y": 2.8253012781,
				"z": 0.6694748344,
				"element": "H" 
			},
			{
				"x": -0.6152276666,
				"y": 2.8744239339,
				"z": 0.3392374187,
				"element": "H" 
			},
			{
				"x": -1.9782696682,
				"y": 0.8997036866,
				"z": 0.9201428353,
				"element": "H" 
			},
			{
				"x": -1.1734193821,
				"y": -1.7087493171,
				"z": 3.0192732472,
				"element": "H" 
			},
			{
				"x": -0.3074117635,
				"y": -1.2143145015,
				"z": -2.7941117968,
				"element": "H" 
			},
			{
				"x": -2.4102819523,
				"y": -1.582903787,
				"z": -4.09228542,
				"element": "H" 
			},
			{
				"x": -4.4978849974,
				"y": -2.1976471384,
				"z": -2.8280442972,
				"element": "H" 
			},
			{
				"x": -4.3724834759,
				"y": -2.4225701059,
				"z": -0.3478234144,
				"element": "H" 
			}
		],
		 "valence_orbital": [ 
			{
				"type": "occ",
				"energy": -0.28541,
				"method": "rhf"
			},
			{
				"type": "occ",
				"energy": -0.27928,
				"method": "rhf"
			},
			{
				"type": "occ",
				"energy": -0.2766,
				"method": "rhf"
			},
			{
				"type": "occ",
				"energy": -0.25861,
				"method": "rhf"
			},
			{
				"type": "occ",
				"energy": -0.23548,
				"method": "rhf"
			},
			{
				"type": "unocc",
				"energy": -0.08805,
				"method": "rhf"
			},
			{
				"type": "unocc",
				"energy": -0.05696,
				"method": "rhf"
			},
			{
				"type": "unocc",
				"energy": -0.03108,
				"method": "rhf"
			},
			{
				"type": "unocc",
				"energy": -0.02113,
				"method": "rhf"
			},
			{
				"type": "unocc",
				"energy": 0.00324,
				"method": "rhf"
			}
		],
		"cosmo_sigma_profile": { 
			"-0.025": 0.0,
			"-0.024": 0.0,
			"-0.023": 0.0,
			"-0.022": 0.0,
			"-0.021": 0.0,
			"-0.02": 0.0,
			"-0.019": 0.0,
			"-0.018": 0.0,
			"-0.017": 0.0,
			"-0.016": 0.0,
			"-0.015": 0.0,
			"-0.014": 0.0,
			"-0.013": 0.0,
			"-0.012": 0.0,
			"-0.011": 0.0,
			"-0.01": 0.0,
			"-0.009": 0.0,
			"-0.008": 2.07857911575,
			"-0.007": 14.0336753379,
			"-0.006": 20.4843476391,
			"-0.005": 20.4279621662,
			"-0.004": 15.6363689749,
			"-0.003": 14.9840533265,
			"-0.002": 17.4079052373,
			"-0.001": 20.7579000115,
			"0.0": 21.739868176,
			"0.001": 27.5600668112,
			"0.002": 30.2071408348,
			"0.003": 16.2924604798,
			"0.004": 13.4280574593,
			"0.005": 9.04688793035,
			"0.006": 6.05010347924,
			"0.007": 8.37003475897,
			"0.008": 8.49421297104,
			"0.009": 5.66449663055,
			"0.01": 4.11593960157,
			"0.011": 1.05810145597,
			"0.012": 0.217991794136,
			"0.013": 0.0,
			"0.014": 0.0,
			"0.015": 0.0,
			"0.016": 0.0,
			"0.017": 0.0,
			"0.018": 0.0,
			"0.019": 0.0,
			"0.02": 0.0,
			"0.021": 0.0,
			"0.022": 0.0,
			"0.023": 0.0,
			"0.024": 0.0,
			"0.025": 0.0
		}
	}
}
