{
	 "smiles": "CCCCCC(O)C1=CC(O)=C(O)C=C1", 
	 "Tm": 382.15, 
	 "num_atms": 33, 
	 "gaussian": { 
		 "optdone": 1, 
		 "sigma_profile": "yes", 
		 "theory": "DFT", 
		 "functional": "B3LYP", 
		 "basiset": "6-31G**", 
		 "properties": { 
			 "R2extent": 5409.201, 
			 "electric_dipole_moment_norm": 1.31055733946, 
			 "electric_quadrupole_moment_norm": 17.0228153967, 
			 "total_energy": -693.8003715, 
			 "HOMO_LUMO_gap": 0.20983, 
			 "cosmo_polarized_energy": -14.21, 
			 "cosmo_cavitation_energy": 35.31, 
			 "cosmo_dispersion_energy": -25.12, 
			 "cosmo_repulsion_energy": 2.03, 
			 "cosmo_total_nonelectrostatic_energy": 12.22, 
			 "SMD_solvation_energy": 6.07 
		},
		"coords": [
			{
				"x": 1.5616632038,
				"y": 4.3547073873,
				"z": -1.5746083968,
				"element": "C" 
			},
			{
				"x": 1.3384136379,
				"y": 3.0346014878,
				"z": -0.8299652923,
				"element": "C" 
			},
			{
				"x": -0.1296869238,
				"y": 2.5898269312,
				"z": -0.8110379363,
				"element": "C" 
			},
			{
				"x": -0.3564313151,
				"y": 1.2690722325,
				"z": -0.0652360786,
				"element": "C" 
			},
			{
				"x": -1.8248285206,
				"y": 0.8303920725,
				"z": -0.0519718299,
				"element": "C" 
			},
			{
				"x": -2.1069873563,
				"y": -0.4580462697,
				"z": 0.752746426,
				"element": "C" 
			},
			{
				"x": -1.7043174542,
				"y": -0.3136091668,
				"z": 2.1144892255,
				"element": "O" 
			},
			{
				"x": -1.4114150836,
				"y": -1.6808529317,
				"z": 0.1788737164,
				"element": "C" 
			},
			{
				"x": -1.8782529459,
				"y": -2.2297041676,
				"z": -1.0248635127,
				"element": "C" 
			},
			{
				"x": -1.2558043767,
				"y": -3.3357773938,
				"z": -1.5923687811,
				"element": "C" 
			},
			{
				"x": -1.7219649849,
				"y": -3.8593630432,
				"z": -2.762636487,
				"element": "O" 
			},
			{
				"x": -0.148476155,
				"y": -3.913641943,
				"z": -0.9465893871,
				"element": "C" 
			},
			{
				"x": 0.3937427978,
				"y": -5.0078152946,
				"z": -1.5866469645,
				"element": "O" 
			},
			{
				"x": 0.3151266274,
				"y": -3.3813866615,
				"z": 0.2495762282,
				"element": "C" 
			},
			{
				"x": -0.3137491507,
				"y": -2.2654267729,
				"z": 0.8133971083,
				"element": "C" 
			},
			{
				"x": 2.6177288269,
				"y": 4.6441854005,
				"z": -1.5706133316,
				"element": "H" 
			},
			{
				"x": 0.9918616256,
				"y": 5.1706829576,
				"z": -1.1151098645,
				"element": "H" 
			},
			{
				"x": 1.2420117011,
				"y": 4.2787518546,
				"z": -2.6203098212,
				"element": "H" 
			},
			{
				"x": 1.9479178304,
				"y": 2.2458082196,
				"z": -1.2912935576,
				"element": "H" 
			},
			{
				"x": 1.6997754978,
				"y": 3.1303754504,
				"z": 0.2030687442,
				"element": "H" 
			},
			{
				"x": -0.7405217508,
				"y": 3.3811443405,
				"z": -0.3518582183,
				"element": "H" 
			},
			{
				"x": -0.4909854207,
				"y": 2.4929835362,
				"z": -1.845146659,
				"element": "H" 
			},
			{
				"x": 0.251874837,
				"y": 0.4797922705,
				"z": -0.523996591,
				"element": "H" 
			},
			{
				"x": -0.0026882341,
				"y": 1.3622591923,
				"z": 0.9691410756,
				"element": "H" 
			},
			{
				"x": -2.4458534113,
				"y": 1.6360183674,
				"z": 0.3708767786,
				"element": "H" 
			},
			{
				"x": -2.1835838597,
				"y": 0.6850346244,
				"z": -1.0790086673,
				"element": "H" 
			},
			{
				"x": -3.1941373403,
				"y": -0.6408996698,
				"z": 0.7078485422,
				"element": "H" 
			},
			{
				"x": -2.1013961133,
				"y": 0.5001474053,
				"z": 2.4493820286,
				"element": "H" 
			},
			{
				"x": -2.7399225653,
				"y": -1.8113489468,
				"z": -1.5376688191,
				"element": "H" 
			},
			{
				"x": -1.1656408186,
				"y": -4.6225203423,
				"z": -2.9787292124,
				"element": "H" 
			},
			{
				"x": 1.1299545639,
				"y": -5.3548611091,
				"z": -1.068624178,
				"element": "H" 
			},
			{
				"x": 1.168585653,
				"y": -3.8376614063,
				"z": 0.7476321372,
				"element": "H" 
			},
			{
				"x": 0.0396869783,
				"y": -1.8552686116,
				"z": 1.7510515754,
				"element": "H" 
			}
		],
		 "valence_orbital": [ 
			{
				"type": "occ",
				"energy": -0.31045,
				"method": "rhf"
			},
			{
				"type": "occ",
				"energy": -0.31017,
				"method": "rhf"
			},
			{
				"type": "occ",
				"energy": -0.26645,
				"method": "rhf"
			},
			{
				"type": "occ",
				"energy": -0.22895,
				"method": "rhf"
			},
			{
				"type": "occ",
				"energy": -0.20154,
				"method": "rhf"
			},
			{
				"type": "unocc",
				"energy": 0.00829,
				"method": "rhf"
			},
			{
				"type": "unocc",
				"energy": 0.02435,
				"method": "rhf"
			},
			{
				"type": "unocc",
				"energy": 0.05669,
				"method": "rhf"
			},
			{
				"type": "unocc",
				"energy": 0.07246,
				"method": "rhf"
			},
			{
				"type": "unocc",
				"energy": 0.09844,
				"method": "rhf"
			}
		],
		"cosmo_sigma_profile": { 
			"-0.025": 0.0,
			"-0.024": 0.0,
			"-0.023": 0.0,
			"-0.022": 0.0,
			"-0.021": 0.0,
			"-0.02": 0.0,
			"-0.019": 0.0,
			"-0.018": 0.694215937497,
			"-0.017": 1.05429387263,
			"-0.016": 1.00999288385,
			"-0.015": 1.9996305564,
			"-0.014": 2.20511225337,
			"-0.013": 2.51036249013,
			"-0.012": 2.55161727771,
			"-0.011": 3.02589713082,
			"-0.01": 1.79202310619,
			"-0.009": 2.42443680215,
			"-0.008": 2.23349972434,
			"-0.007": 2.75078828527,
			"-0.006": 5.04358612941,
			"-0.005": 6.94984612713,
			"-0.004": 9.82999211935,
			"-0.003": 15.0284067653,
			"-0.002": 23.9847431976,
			"-0.001": 34.0371375226,
			"0.0": 32.4233038821,
			"0.001": 28.8999667601,
			"0.002": 20.3456831739,
			"0.003": 13.0487726851,
			"0.004": 13.7327302384,
			"0.005": 12.9784706725,
			"0.006": 9.93809101613,
			"0.007": 5.86512079573,
			"0.008": 4.67316136605,
			"0.009": 2.98530337341,
			"0.01": 2.97866634011,
			"0.011": 3.62804084225,
			"0.012": 2.45527236679,
			"0.013": 0.819012640277,
			"0.014": 0.498956154322,
			"0.015": 0.0,
			"0.016": 0.0,
			"0.017": 0.0,
			"0.018": 0.0,
			"0.019": 0.0,
			"0.02": 0.0,
			"0.021": 0.0,
			"0.022": 0.0,
			"0.023": 0.0,
			"0.024": 0.0,
			"0.025": 0.0
		}
	}
}
