{
	 "smiles": "NC(=O)C1=NC=CC(Cl)=C1", 
	 "Tm": 431.15, 
	 "num_atms": 15, 
	 "gaussian": { 
		 "optdone": 1, 
		 "sigma_profile": "yes", 
		 "theory": "DFT", 
		 "functional": "B3LYP", 
		 "basiset": "6-31G**", 
		 "properties": { 
			 "R2extent": 2883.1878, 
			 "electric_dipole_moment_norm": 3.45734794749, 
			 "electric_quadrupole_moment_norm": 8.2105313336, 
			 "total_energy": -876.58986348, 
			 "HOMO_LUMO_gap": 0.19362, 
			 "cosmo_polarized_energy": -10.83, 
			 "cosmo_cavitation_energy": 21.7, 
			 "cosmo_dispersion_energy": -16.47, 
			 "cosmo_repulsion_energy": 1.35, 
			 "cosmo_total_nonelectrostatic_energy": 6.58, 
			 "SMD_solvation_energy": 3.48 
		},
		"coords": [
			{
				"x": -0.1559031178,
				"y": 1.3525127584,
				"z": -2.336172885,
				"element": "N" 
			},
			{
				"x": -0.9276012873,
				"y": 1.395661836,
				"z": -1.2228178793,
				"element": "C" 
			},
			{
				"x": -1.2690891551,
				"y": 2.4229041934,
				"z": -0.6476951402,
				"element": "O" 
			},
			{
				"x": -1.3537891772,
				"y": 0.031955242,
				"z": -0.7194961772,
				"element": "C" 
			},
			{
				"x": -0.941240276,
				"y": -1.0477637907,
				"z": -1.4004221109,
				"element": "N" 
			},
			{
				"x": -1.3232260663,
				"y": -2.2457110517,
				"z": -0.9474436442,
				"element": "C" 
			},
			{
				"x": -2.1199114337,
				"y": -2.4269708987,
				"z": 0.1844818115,
				"element": "C" 
			},
			{
				"x": -2.5344014688,
				"y": -1.2876123906,
				"z": 0.8730327164,
				"element": "C" 
			},
			{
				"x": -3.5343452213,
				"y": -1.4458477647,
				"z": 2.2994184637,
				"element": "Cl" 
			},
			{
				"x": -2.1520625642,
				"y": -0.027998405,
				"z": 0.424498396,
				"element": "C" 
			},
			{
				"x": 0.0762568441,
				"y": 0.4582968829,
				"z": -2.7425328429,
				"element": "H" 
			},
			{
				"x": 0.1716269221,
				"y": 2.2163932614,
				"z": -2.7371161562,
				"element": "H" 
			},
			{
				"x": -0.9797938924,
				"y": -3.1102349819,
				"z": -1.511495491,
				"element": "H" 
			},
			{
				"x": -2.4052396909,
				"y": -3.4187382439,
				"z": 0.5150490456,
				"element": "H" 
			},
			{
				"x": -2.4441804153,
				"y": 0.8899533531,
				"z": 0.9190118937,
				"element": "H" 
			}
		],
		 "valence_orbital": [ 
			{
				"type": "occ",
				"energy": -0.29309,
				"method": "rhf"
			},
			{
				"type": "occ",
				"energy": -0.28582,
				"method": "rhf"
			},
			{
				"type": "occ",
				"energy": -0.28223,
				"method": "rhf"
			},
			{
				"type": "occ",
				"energy": -0.26792,
				"method": "rhf"
			},
			{
				"type": "occ",
				"energy": -0.2539,
				"method": "rhf"
			},
			{
				"type": "unocc",
				"energy": -0.06028,
				"method": "rhf"
			},
			{
				"type": "unocc",
				"energy": -0.04002,
				"method": "rhf"
			},
			{
				"type": "unocc",
				"energy": 0.01619,
				"method": "rhf"
			},
			{
				"type": "unocc",
				"energy": 0.05402,
				"method": "rhf"
			},
			{
				"type": "unocc",
				"energy": 0.09466,
				"method": "rhf"
			}
		],
		"cosmo_sigma_profile": { 
			"-0.025": 0.0,
			"-0.024": 0.0,
			"-0.023": 0.0,
			"-0.022": 0.0,
			"-0.021": 0.0,
			"-0.02": 0.0,
			"-0.019": 0.0,
			"-0.018": 0.0,
			"-0.017": 0.0,
			"-0.016": 0.0,
			"-0.015": 0.229205857829,
			"-0.014": 1.22631593011,
			"-0.013": 1.16116922025,
			"-0.012": 1.92509187559,
			"-0.011": 1.54358388837,
			"-0.01": 1.78950258534,
			"-0.009": 3.01431279728,
			"-0.008": 5.82332751774,
			"-0.007": 6.44364771226,
			"-0.006": 5.94121953092,
			"-0.005": 5.34765090595,
			"-0.004": 5.39673902161,
			"-0.003": 7.67805118879,
			"-0.002": 11.6527957179,
			"-0.001": 21.2226331683,
			"0.0": 22.7975873434,
			"0.001": 12.1639994788,
			"0.002": 12.0161589979,
			"0.003": 14.0627922026,
			"0.004": 9.83750447807,
			"0.005": 2.84037841752,
			"0.006": 3.37754224238,
			"0.007": 2.69963448336,
			"0.008": 2.26363245189,
			"0.009": 1.29515607288,
			"0.01": 1.3290889021,
			"0.011": 1.05126784388,
			"0.012": 2.73507809453,
			"0.013": 4.80635360492,
			"0.014": 2.69752040154,
			"0.015": 0.249824098973,
			"0.016": 0.0,
			"0.017": 0.0,
			"0.018": 0.0,
			"0.019": 0.0,
			"0.02": 0.0,
			"0.021": 0.0,
			"0.022": 0.0,
			"0.023": 0.0,
			"0.024": 0.0,
			"0.025": 0.0
		}
	}
}
