{
	 "smiles": "CC(=O)OC1=CC=CC(=C1)[N+]([O-])=O", 
	 "Tm": 327.15, 
	 "num_atms": 20, 
	 "gaussian": { 
		 "optdone": 1, 
		 "sigma_profile": "yes", 
		 "theory": "DFT", 
		 "functional": "B3LYP", 
		 "basiset": "6-31G**", 
		 "properties": { 
			 "R2extent": 3357.883, 
			 "electric_dipole_moment_norm": 5.81596967324, 
			 "electric_quadrupole_moment_norm": 14.4122109581, 
			 "total_energy": -664.623622365, 
			 "HOMO_LUMO_gap": 0.17725, 
			 "cosmo_polarized_energy": -11.53, 
			 "cosmo_cavitation_energy": 25.99, 
			 "cosmo_dispersion_energy": -18.81, 
			 "cosmo_repulsion_energy": 1.51, 
			 "cosmo_total_nonelectrostatic_energy": 8.68, 
			 "SMD_solvation_energy": 8.15 
		},
		"coords": [
			{
				"x": -1.4798380185,
				"y": 1.5542623026,
				"z": 2.6667857319,
				"element": "C" 
			},
			{
				"x": -1.3960977907,
				"y": 0.3597161809,
				"z": 1.7527216167,
				"element": "C" 
			},
			{
				"x": -2.2446211594,
				"y": -0.4782251274,
				"z": 1.5879514446,
				"element": "O" 
			},
			{
				"x": -0.1738501981,
				"y": 0.3560623397,
				"z": 1.1133707664,
				"element": "O" 
			},
			{
				"x": 0.1562466139,
				"y": -0.6442365713,
				"z": 0.2079393238,
				"element": "C" 
			},
			{
				"x": 1.4607438059,
				"y": -1.1358019112,
				"z": 0.2899341711,
				"element": "C" 
			},
			{
				"x": 1.9036175723,
				"y": -2.0894325973,
				"z": -0.6269712824,
				"element": "C" 
			},
			{
				"x": 1.0503547115,
				"y": -2.5588501329,
				"z": -1.6235389425,
				"element": "C" 
			},
			{
				"x": -0.2425643924,
				"y": -2.0433316154,
				"z": -1.6772215824,
				"element": "C" 
			},
			{
				"x": -0.7180683789,
				"y": -1.0880714311,
				"z": -0.7821799867,
				"element": "C" 
			},
			{
				"x": -1.1530718598,
				"y": -2.5209828542,
				"z": -2.7353086572,
				"element": "N" 
			},
			{
				"x": -0.726997811,
				"y": -3.3806222891,
				"z": -3.505386362,
				"element": "O" 
			},
			{
				"x": -2.2786699776,
				"y": -2.0290001315,
				"z": -2.7852605478,
				"element": "O" 
			},
			{
				"x": -1.3668653846,
				"y": 2.4754228998,
				"z": 2.0874397946,
				"element": "H" 
			},
			{
				"x": -2.4420561391,
				"y": 1.5498169045,
				"z": 3.1771669056,
				"element": "H" 
			},
			{
				"x": -0.6663818664,
				"y": 1.5266020983,
				"z": 3.3975086991,
				"element": "H" 
			},
			{
				"x": 2.1130956219,
				"y": -0.7600001188,
				"z": 1.0709539329,
				"element": "H" 
			},
			{
				"x": 2.9181452517,
				"y": -2.4686616536,
				"z": -0.5614855222,
				"element": "H" 
			},
			{
				"x": 1.3605585379,
				"y": -3.3008050511,
				"z": -2.3476366358,
				"element": "H" 
			},
			{
				"x": -1.7319791385,
				"y": -0.7261612408,
				"z": -0.8646828678,
				"element": "H" 
			}
		],
		 "valence_orbital": [ 
			{
				"type": "occ",
				"energy": -0.30762,
				"method": "rhf"
			},
			{
				"type": "occ",
				"energy": -0.29721,
				"method": "rhf"
			},
			{
				"type": "occ",
				"energy": -0.29101,
				"method": "rhf"
			},
			{
				"type": "occ",
				"energy": -0.28306,
				"method": "rhf"
			},
			{
				"type": "occ",
				"energy": -0.26726,
				"method": "rhf"
			},
			{
				"type": "unocc",
				"energy": -0.09001,
				"method": "rhf"
			},
			{
				"type": "unocc",
				"energy": -0.03427,
				"method": "rhf"
			},
			{
				"type": "unocc",
				"energy": -0.00961,
				"method": "rhf"
			},
			{
				"type": "unocc",
				"energy": 0.00622,
				"method": "rhf"
			},
			{
				"type": "unocc",
				"energy": 0.07258,
				"method": "rhf"
			}
		],
		"cosmo_sigma_profile": { 
			"-0.025": 0.0,
			"-0.024": 0.0,
			"-0.023": 0.0,
			"-0.022": 0.0,
			"-0.021": 0.0,
			"-0.02": 0.0,
			"-0.019": 0.0,
			"-0.018": 0.0,
			"-0.017": 0.0,
			"-0.016": 0.0,
			"-0.015": 0.0,
			"-0.014": 0.0,
			"-0.013": 0.0,
			"-0.012": 0.0,
			"-0.011": 0.0,
			"-0.01": 0.0,
			"-0.009": 0.124083813307,
			"-0.008": 3.7983013027,
			"-0.007": 11.8316523291,
			"-0.006": 15.8174678368,
			"-0.005": 13.9598722342,
			"-0.004": 14.596362922,
			"-0.003": 16.0946544449,
			"-0.002": 16.6649153975,
			"-0.001": 14.9582820243,
			"0.0": 18.2399287566,
			"0.001": 15.6999415743,
			"0.002": 9.98988286712,
			"0.003": 4.92778385065,
			"0.004": 4.8169075199,
			"0.005": 6.45562270565,
			"0.006": 6.01285412593,
			"0.007": 10.803958104,
			"0.008": 8.56337212849,
			"0.009": 5.97720634345,
			"0.01": 5.3873502721,
			"0.011": 3.17067829046,
			"0.012": 0.661026623647,
			"0.013": 0.0,
			"0.014": 0.0,
			"0.015": 0.0,
			"0.016": 0.0,
			"0.017": 0.0,
			"0.018": 0.0,
			"0.019": 0.0,
			"0.02": 0.0,
			"0.021": 0.0,
			"0.022": 0.0,
			"0.023": 0.0,
			"0.024": 0.0,
			"0.025": 0.0
		}
	}
}
