{
	 "smiles": "CCCCOCCOCCOCCO", 
	 "Tm": 243.15, 
	 "num_atms": 36, 
	 "gaussian": { 
		 "optdone": 1, 
		 "sigma_profile": "yes", 
		 "theory": "DFT", 
		 "functional": "B3LYP", 
		 "basiset": "6-31G**", 
		 "properties": { 
			 "R2extent": 5920.2657, 
			 "electric_dipole_moment_norm": 1.30667093792, 
			 "electric_quadrupole_moment_norm": 13.663653537, 
			 "total_energy": -695.167733345, 
			 "HOMO_LUMO_gap": 0.28989, 
			 "cosmo_polarized_energy": -13.59, 
			 "cosmo_cavitation_energy": 37.73, 
			 "cosmo_dispersion_energy": -25.72, 
			 "cosmo_repulsion_energy": 2.13, 
			 "cosmo_total_nonelectrostatic_energy": 14.14, 
			 "SMD_solvation_energy": 6.15 
		},
		"coords": [
			{
				"x": -1.3685529277,
				"y": 4.2548324952,
				"z": -0.8293613781,
				"element": "C" 
			},
			{
				"x": -0.9393239633,
				"y": 2.9004796803,
				"z": -0.2559562052,
				"element": "C" 
			},
			{
				"x": -1.6845892201,
				"y": 1.7169884921,
				"z": -0.8863897307,
				"element": "C" 
			},
			{
				"x": -1.2381696925,
				"y": 0.3670384548,
				"z": -0.3199732439,
				"element": "C" 
			},
			{
				"x": -1.8954966731,
				"y": -0.7316366257,
				"z": -0.9445563304,
				"element": "O" 
			},
			{
				"x": -3.154966193,
				"y": -1.0791488612,
				"z": -0.3722851664,
				"element": "C" 
			},
			{
				"x": -3.0505540356,
				"y": -2.0810893667,
				"z": 0.7767156448,
				"element": "C" 
			},
			{
				"x": -2.7638523435,
				"y": -3.4058251776,
				"z": 0.3393408962,
				"element": "O" 
			},
			{
				"x": -1.3976669975,
				"y": -3.7103082816,
				"z": 0.0842984546,
				"element": "C" 
			},
			{
				"x": -0.6293809564,
				"y": -4.1085033875,
				"z": 1.3432965887,
				"element": "C" 
			},
			{
				"x": -0.3445474323,
				"y": -3.010504786,
				"z": 2.2105131112,
				"element": "O" 
			},
			{
				"x": 0.8616380136,
				"y": -2.317533488,
				"z": 1.9240196654,
				"element": "C" 
			},
			{
				"x": 2.0459058594,
				"y": -2.9111984671,
				"z": 2.6947002131,
				"element": "C" 
			},
			{
				"x": 3.2412326152,
				"y": -2.1772234034,
				"z": 2.4685930306,
				"element": "O" 
			},
			{
				"x": -0.8197024341,
				"y": 5.0785673862,
				"z": -0.3615858611,
				"element": "H" 
			},
			{
				"x": -2.4377171731,
				"y": 4.4325736435,
				"z": -0.6673078617,
				"element": "H" 
			},
			{
				"x": -1.1862505515,
				"y": 4.30309338,
				"z": -1.90878069,
				"element": "H" 
			},
			{
				"x": 0.1416596352,
				"y": 2.7688584506,
				"z": -0.4017182494,
				"element": "H" 
			},
			{
				"x": -1.1005544282,
				"y": 2.8966601475,
				"z": 0.8308028498,
				"element": "H" 
			},
			{
				"x": -2.7650122886,
				"y": 1.8411609739,
				"z": -0.7325222888,
				"element": "H" 
			},
			{
				"x": -1.5254168568,
				"y": 1.7047575178,
				"z": -1.9719574941,
				"element": "H" 
			},
			{
				"x": -0.1663863808,
				"y": 0.2248252459,
				"z": -0.5033254413,
				"element": "H" 
			},
			{
				"x": -1.3828204177,
				"y": 0.3432052537,
				"z": 0.771639591,
				"element": "H" 
			},
			{
				"x": -3.7483652855,
				"y": -1.5275329471,
				"z": -1.1764045368,
				"element": "H" 
			},
			{
				"x": -3.6875886064,
				"y": -0.1808786887,
				"z": -0.0227428173,
				"element": "H" 
			},
			{
				"x": -4.0306464062,
				"y": -2.1416970409,
				"z": 1.266309726,
				"element": "H" 
			},
			{
				"x": -2.3233036217,
				"y": -1.7479161395,
				"z": 1.52664943,
				"element": "H" 
			},
			{
				"x": -0.9006991662,
				"y": -2.8840422906,
				"z": -0.4378834224,
				"element": "H" 
			},
			{
				"x": -1.4094624536,
				"y": -4.5741960815,
				"z": -0.5925363858,
				"element": "H" 
			},
			{
				"x": -1.2401296203,
				"y": -4.8083413377,
				"z": 1.9231767612,
				"element": "H" 
			},
			{
				"x": 0.2976119328,
				"y": -4.6289392525,
				"z": 1.0545164701,
				"element": "H" 
			},
			{
				"x": 1.0777034327,
				"y": -2.3151071433,
				"z": 0.843071306,
				"element": "H" 
			},
			{
				"x": 0.7239539991,
				"y": -1.2749247109,
				"z": 2.2290570158,
				"element": "H" 
			},
			{
				"x": 1.8406049316,
				"y": -2.8498819588,
				"z": 3.7671688844,
				"element": "H" 
			},
			{
				"x": 2.1656044492,
				"y": -3.9776032763,
				"z": 2.4467138199,
				"element": "H" 
			},
			{
				"x": 3.5075412571,
				"y": -2.3160084091,
				"z": 1.5506036444,
				"element": "H" 
			}
		],
		 "valence_orbital": [ 
			{
				"type": "occ",
				"energy": -0.29958,
				"method": "rhf"
			},
			{
				"type": "occ",
				"energy": -0.2923,
				"method": "rhf"
			},
			{
				"type": "occ",
				"energy": -0.27196,
				"method": "rhf"
			},
			{
				"type": "occ",
				"energy": -0.24967,
				"method": "rhf"
			},
			{
				"type": "occ",
				"energy": -0.22349,
				"method": "rhf"
			},
			{
				"type": "unocc",
				"energy": 0.0664,
				"method": "rhf"
			},
			{
				"type": "unocc",
				"energy": 0.0748,
				"method": "rhf"
			},
			{
				"type": "unocc",
				"energy": 0.08747,
				"method": "rhf"
			},
			{
				"type": "unocc",
				"energy": 0.09949,
				"method": "rhf"
			},
			{
				"type": "unocc",
				"energy": 0.10681,
				"method": "rhf"
			}
		],
		"cosmo_sigma_profile": { 
			"-0.025": 0.0,
			"-0.024": 0.0,
			"-0.023": 0.0,
			"-0.022": 0.0,
			"-0.021": 0.0,
			"-0.02": 0.0,
			"-0.019": 0.0,
			"-0.018": 0.0,
			"-0.017": 0.0,
			"-0.016": 0.429772612398,
			"-0.015": 0.867028134046,
			"-0.014": 1.10268566426,
			"-0.013": 1.00687333247,
			"-0.012": 1.09541938796,
			"-0.011": 0.854074373434,
			"-0.01": 0.814801914552,
			"-0.009": 0.751216246992,
			"-0.008": 1.37693480832,
			"-0.007": 1.3835156301,
			"-0.006": 2.44309249108,
			"-0.005": 12.9450315069,
			"-0.004": 31.3838451445,
			"-0.003": 32.1166573152,
			"-0.002": 40.1312059713,
			"-0.001": 37.513752981,
			"0.0": 28.8193467836,
			"0.001": 24.1034875413,
			"0.002": 12.3952485437,
			"0.003": 6.44330967278,
			"0.004": 5.43084902522,
			"0.005": 6.76215379545,
			"0.006": 5.75808847967,
			"0.007": 4.8824005341,
			"0.008": 4.79916968759,
			"0.009": 4.10381624776,
			"0.01": 3.4699093394,
			"0.011": 3.61272878739,
			"0.012": 5.19727696182,
			"0.013": 4.34854336559,
			"0.014": 4.03921057599,
			"0.015": 0.526141751267,
			"0.016": 0.0,
			"0.017": 0.0,
			"0.018": 0.0,
			"0.019": 0.0,
			"0.02": 0.0,
			"0.021": 0.0,
			"0.022": 0.0,
			"0.023": 0.0,
			"0.024": 0.0,
			"0.025": 0.0
		}
	}
}
