{
	 "smiles": "CC=CCCl", 
	 "Tm": 208.15, 
	 "num_atms": 12, 
	 "gaussian": { 
		 "optdone": 1, 
		 "sigma_profile": "yes", 
		 "theory": "DFT", 
		 "functional": "B3LYP", 
		 "basiset": "6-31G**", 
		 "properties": { 
			 "R2extent": 1492.9814, 
			 "electric_dipole_moment_norm": 2.05995600438, 
			 "electric_quadrupole_moment_norm": 7.23699606467, 
			 "total_energy": -616.822737878, 
			 "HOMO_LUMO_gap": 0.2719, 
			 "cosmo_polarized_energy": -3.95, 
			 "cosmo_cavitation_energy": 16.9, 
			 "cosmo_dispersion_energy": -12.77, 
			 "cosmo_repulsion_energy": 1.15, 
			 "cosmo_total_nonelectrostatic_energy": 5.28, 
			 "SMD_solvation_energy": 3.09 
		},
		"coords": [
			{
				"x": 1.2277727672,
				"y": -0.2988458223,
				"z": -1.4235609285,
				"element": "C" 
			},
			{
				"x": 1.4775851709,
				"y": -0.0001216561,
				"z": 0.0260774436,
				"element": "C" 
			},
			{
				"x": 1.0251553348,
				"y": -0.7377398038,
				"z": 1.0395423503,
				"element": "C" 
			},
			{
				"x": 1.2281148047,
				"y": -0.5107789311,
				"z": 2.5092154694,
				"element": "C" 
			},
			{
				"x": 2.2128681655,
				"y": 0.9527522513,
				"z": 2.9324535544,
				"element": "Cl" 
			},
			{
				"x": 0.6246360249,
				"y": -1.2021909639,
				"z": -1.5559029731,
				"element": "H" 
			},
			{
				"x": 2.171722085,
				"y": -0.4368484263,
				"z": -1.9657480523,
				"element": "H" 
			},
			{
				"x": 0.7068210251,
				"y": 0.5335297526,
				"z": -1.9132701655,
				"element": "H" 
			},
			{
				"x": 2.0715641321,
				"y": 0.8844746692,
				"z": 0.2477381718,
				"element": "H" 
			},
			{
				"x": 0.4278047828,
				"y": -1.6282748921,
				"z": 0.8333347312,
				"element": "H" 
			},
			{
				"x": 0.2700931533,
				"y": -0.3848509201,
				"z": 3.0224448524,
				"element": "H" 
			},
			{
				"x": 1.7418625536,
				"y": -1.3599052575,
				"z": 2.9697755462,
				"element": "H" 
			}
		],
		 "valence_orbital": [ 
			{
				"type": "occ",
				"energy": -0.37862,
				"method": "rhf"
			},
			{
				"type": "occ",
				"energy": -0.35059,
				"method": "rhf"
			},
			{
				"type": "occ",
				"energy": -0.29623,
				"method": "rhf"
			},
			{
				"type": "occ",
				"energy": -0.29582,
				"method": "rhf"
			},
			{
				"type": "occ",
				"energy": -0.25124,
				"method": "rhf"
			},
			{
				"type": "unocc",
				"energy": 0.02066,
				"method": "rhf"
			},
			{
				"type": "unocc",
				"energy": 0.02791,
				"method": "rhf"
			},
			{
				"type": "unocc",
				"energy": 0.10119,
				"method": "rhf"
			},
			{
				"type": "unocc",
				"energy": 0.11819,
				"method": "rhf"
			},
			{
				"type": "unocc",
				"energy": 0.13813,
				"method": "rhf"
			}
		],
		"cosmo_sigma_profile": { 
			"-0.025": 0.0,
			"-0.024": 0.0,
			"-0.023": 0.0,
			"-0.022": 0.0,
			"-0.021": 0.0,
			"-0.02": 0.0,
			"-0.019": 0.0,
			"-0.018": 0.0,
			"-0.017": 0.0,
			"-0.016": 0.0,
			"-0.015": 0.0,
			"-0.014": 0.0,
			"-0.013": 0.0,
			"-0.012": 0.0,
			"-0.011": 0.0,
			"-0.01": 0.0,
			"-0.009": 0.0,
			"-0.008": 0.185933629245,
			"-0.007": 4.06051448195,
			"-0.006": 6.35704444591,
			"-0.005": 8.47912205963,
			"-0.004": 11.072238016,
			"-0.003": 11.2592197696,
			"-0.002": 10.9441045636,
			"-0.001": 11.9135418491,
			"0.0": 12.3609048456,
			"0.001": 10.9832759098,
			"0.002": 6.98051180378,
			"0.003": 8.30353905996,
			"0.004": 10.0459026381,
			"0.005": 7.52279029278,
			"0.006": 10.2155554849,
			"0.007": 4.60119046002,
			"0.008": 0.0,
			"0.009": 0.0,
			"0.01": 0.0,
			"0.011": 0.0,
			"0.012": 0.0,
			"0.013": 0.0,
			"0.014": 0.0,
			"0.015": 0.0,
			"0.016": 0.0,
			"0.017": 0.0,
			"0.018": 0.0,
			"0.019": 0.0,
			"0.02": 0.0,
			"0.021": 0.0,
			"0.022": 0.0,
			"0.023": 0.0,
			"0.024": 0.0,
			"0.025": 0.0
		}
	}
}
