{
	 "smiles": "CN1N=C(C=O)C=C1C1=CC=CO1", 
	 "Tm": 336.15, 
	 "num_atms": 21, 
	 "gaussian": { 
		 "optdone": 1, 
		 "sigma_profile": "yes", 
		 "theory": "DFT", 
		 "functional": "B3LYP", 
		 "basiset": "6-31G**", 
		 "properties": { 
			 "R2extent": 2821.8322, 
			 "electric_dipole_moment_norm": 5.49674051325, 
			 "electric_quadrupole_moment_norm": 7.49206292686, 
			 "total_energy": -607.674929064, 
			 "HOMO_LUMO_gap": 0.1745, 
			 "cosmo_polarized_energy": -10.86, 
			 "cosmo_cavitation_energy": 26.43, 
			 "cosmo_dispersion_energy": -19.06, 
			 "cosmo_repulsion_energy": 1.49, 
			 "cosmo_total_nonelectrostatic_energy": 8.86, 
			 "SMD_solvation_energy": 5.61 
		},
		"coords": [
			{
				"x": -1.7435243791,
				"y": 2.1536396011,
				"z": 1.0855845862,
				"element": "C" 
			},
			{
				"x": -1.0101502657,
				"y": 0.8974168171,
				"z": 1.18068019,
				"element": "N" 
			},
			{
				"x": -0.8650171677,
				"y": 0.3330096607,
				"z": 2.3871624288,
				"element": "N" 
			},
			{
				"x": -0.162070139,
				"y": -0.7893669494,
				"z": 2.1699495138,
				"element": "C" 
			},
			{
				"x": 0.1814084525,
				"y": -1.6650275431,
				"z": 3.2954597344,
				"element": "C" 
			},
			{
				"x": 0.8152399565,
				"y": -2.6987508454,
				"z": 3.182256112,
				"element": "O" 
			},
			{
				"x": 0.1485131598,
				"y": -0.9477898233,
				"z": 0.8044156384,
				"element": "C" 
			},
			{
				"x": -0.4111740793,
				"y": 0.1577154103,
				"z": 0.1804384277,
				"element": "C" 
			},
			{
				"x": -0.3954226197,
				"y": 0.5045860852,
				"z": -1.2241720891,
				"element": "C" 
			},
			{
				"x": 0.1533173139,
				"y": -0.1279284443,
				"z": -2.3103459368,
				"element": "C" 
			},
			{
				"x": -0.1481152352,
				"y": 0.6807048465,
				"z": -3.4489537121,
				"element": "C" 
			},
			{
				"x": -0.856564053,
				"y": 1.7464814617,
				"z": -2.9846796833,
				"element": "C" 
			},
			{
				"x": -1.0174157254,
				"y": 1.6569903956,
				"z": -1.6320055138,
				"element": "O" 
			},
			{
				"x": -2.0542455927,
				"y": 2.4061041179,
				"z": 2.098079305,
				"element": "H" 
			},
			{
				"x": -1.1064249615,
				"y": 2.9424561953,
				"z": 0.6802532962,
				"element": "H" 
			},
			{
				"x": -2.6178303233,
				"y": 2.0419786051,
				"z": 0.4409667402,
				"element": "H" 
			},
			{
				"x": -0.1885319066,
				"y": -1.3052001716,
				"z": 4.2781395308,
				"element": "H" 
			},
			{
				"x": 0.7016124799,
				"y": -1.756088733,
				"z": 0.352069365,
				"element": "H" 
			},
			{
				"x": 0.7044220014,
				"y": -1.0566618763,
				"z": -2.2967075344,
				"element": "H" 
			},
			{
				"x": 0.1278691853,
				"y": 0.4903931086,
				"z": -4.4759088773,
				"element": "H" 
			},
			{
				"x": -1.298296101,
				"y": 2.6122380812,
				"z": -3.4522815218,
				"element": "H" 
			}
		],
		 "valence_orbital": [ 
			{
				"type": "occ",
				"energy": -0.30251,
				"method": "rhf"
			},
			{
				"type": "occ",
				"energy": -0.28924,
				"method": "rhf"
			},
			{
				"type": "occ",
				"energy": -0.26028,
				"method": "rhf"
			},
			{
				"type": "occ",
				"energy": -0.24742,
				"method": "rhf"
			},
			{
				"type": "occ",
				"energy": -0.21739,
				"method": "rhf"
			},
			{
				"type": "unocc",
				"energy": -0.04289,
				"method": "rhf"
			},
			{
				"type": "unocc",
				"energy": -0.0351,
				"method": "rhf"
			},
			{
				"type": "unocc",
				"energy": 0.03631,
				"method": "rhf"
			},
			{
				"type": "unocc",
				"energy": 0.09011,
				"method": "rhf"
			},
			{
				"type": "unocc",
				"energy": 0.09015,
				"method": "rhf"
			}
		],
		"cosmo_sigma_profile": { 
			"-0.025": 0.0,
			"-0.024": 0.0,
			"-0.023": 0.0,
			"-0.022": 0.0,
			"-0.021": 0.0,
			"-0.02": 0.0,
			"-0.019": 0.0,
			"-0.018": 0.0,
			"-0.017": 0.0,
			"-0.016": 0.0,
			"-0.015": 0.0,
			"-0.014": 0.0,
			"-0.013": 0.0,
			"-0.012": 0.0,
			"-0.011": 0.0,
			"-0.01": 0.351450552115,
			"-0.009": 1.77875290296,
			"-0.008": 4.84091910021,
			"-0.007": 9.69238552779,
			"-0.006": 13.1498909841,
			"-0.005": 15.1953735956,
			"-0.004": 15.0254624306,
			"-0.003": 18.7184906545,
			"-0.002": 11.9525870512,
			"-0.001": 11.9238600009,
			"0.0": 12.7487871925,
			"0.001": 17.4842668734,
			"0.002": 21.132288416,
			"0.003": 17.1443966974,
			"0.004": 9.38052986146,
			"0.005": 6.32707119934,
			"0.006": 2.71915798737,
			"0.007": 2.5403995836,
			"0.008": 2.13066696451,
			"0.009": 3.52250961765,
			"0.01": 3.41193122869,
			"0.011": 4.87866963201,
			"0.012": 4.5654200404,
			"0.013": 1.84780833685,
			"0.014": 0.22527952283,
			"0.015": 0.0,
			"0.016": 0.0,
			"0.017": 0.0,
			"0.018": 0.0,
			"0.019": 0.0,
			"0.02": 0.0,
			"0.021": 0.0,
			"0.022": 0.0,
			"0.023": 0.0,
			"0.024": 0.0,
			"0.025": 0.0
		}
	}
}
