{
	 "smiles": "OCC1=C(OC2=CC=C(I)C=C2)C=CC=C1", 
	 "Tm": 339.15, 
	 "num_atms": 27, 
	 "gaussian": { 
		 "optdone": 1, 
		 "sigma_profile": "yes", 
		 "theory": "DFT", 
		 "functional": "B3LYP", 
		 "basiset": "6-31G**", 
		 "properties": { 
			 "R2extent": 4946.0341, 
			 "electric_dipole_moment_norm": 2.53559436227, 
			 "electric_quadrupole_moment_norm": 6.4634207932, 
			 "total_energy": -663.825446089, 
			 "HOMO_LUMO_gap": 0.18935, 
			 "cosmo_polarized_energy": -9.28, 
			 "cosmo_cavitation_energy": 34.01, 
			 "cosmo_dispersion_energy": -25.53, 
			 "cosmo_repulsion_energy": 1.96, 
			 "cosmo_total_nonelectrostatic_energy": 10.45, 
			 "SMD_solvation_energy": 4.76 
		},
		"coords": [
			{
				"x": -1.1633645328,
				"y": -0.7523715278,
				"z": -1.1010678963,
				"element": "O" 
			},
			{
				"x": 0.0329044451,
				"y": -0.4886257301,
				"z": -1.8301775662,
				"element": "C" 
			},
			{
				"x": 0.985997313,
				"y": 0.4388901268,
				"z": -1.1013199479,
				"element": "C" 
			},
			{
				"x": 1.9712804164,
				"y": -0.0518160668,
				"z": -0.2321598413,
				"element": "C" 
			},
			{
				"x": 2.152989977,
				"y": -1.4288442475,
				"z": -0.1023683043,
				"element": "O" 
			},
			{
				"x": 1.4466641026,
				"y": -2.1212046319,
				"z": 0.8505238444,
				"element": "C" 
			},
			{
				"x": 1.676387352,
				"y": -3.501850571,
				"z": 0.8974266079,
				"element": "C" 
			},
			{
				"x": 1.0050638078,
				"y": -4.2900706359,
				"z": 1.8264783633,
				"element": "C" 
			},
			{
				"x": 0.0975476303,
				"y": -3.6990906989,
				"z": 2.7122429762,
				"element": "C" 
			},
			{
				"x": -0.9270393862,
				"y": -4.9002668024,
				"z": 4.1264260282,
				"element": "I" 
			},
			{
				"x": -0.1343964004,
				"y": -2.3257493095,
				"z": 2.6698736832,
				"element": "C" 
			},
			{
				"x": 0.540518449,
				"y": -1.5296991034,
				"z": 1.7380449372,
				"element": "C" 
			},
			{
				"x": 2.8397043481,
				"y": 0.7966012813,
				"z": 0.4532547464,
				"element": "C" 
			},
			{
				"x": 2.7259128822,
				"y": 2.1764536771,
				"z": 0.2848139607,
				"element": "C" 
			},
			{
				"x": 1.7479347819,
				"y": 2.694032469,
				"z": -0.5670622209,
				"element": "C" 
			},
			{
				"x": 0.8924607324,
				"y": 1.8290201619,
				"z": -1.2490316255,
				"element": "C" 
			},
			{
				"x": -0.9307628466,
				"y": -1.2909739296,
				"z": -0.3322127351,
				"element": "H" 
			},
			{
				"x": -0.2911464359,
				"y": -0.009506554,
				"z": -2.7585494626,
				"element": "H" 
			},
			{
				"x": 0.55198319,
				"y": -1.417956625,
				"z": -2.0983900874,
				"element": "H" 
			},
			{
				"x": 2.3834857354,
				"y": -3.9398080445,
				"z": 0.2008422518,
				"element": "H" 
			},
			{
				"x": 1.1885366943,
				"y": -5.3582246715,
				"z": 1.8564686563,
				"element": "H" 
			},
			{
				"x": -0.8338095499,
				"y": -1.8621722388,
				"z": 3.3566155932,
				"element": "H" 
			},
			{
				"x": 0.3702478621,
				"y": -0.4592767082,
				"z": 1.7184076003,
				"element": "H" 
			},
			{
				"x": 3.5961608107,
				"y": 0.3651640059,
				"z": 1.1008881094,
				"element": "H" 
			},
			{
				"x": 3.4018278419,
				"y": 2.8418672725,
				"z": 0.8134788076,
				"element": "H" 
			},
			{
				"x": 1.656343226,
				"y": 3.7672666562,
				"z": -0.7041295329,
				"element": "H" 
			},
			{
				"x": 0.1341675535,
				"y": 2.231212446,
				"z": -1.9158169455,
				"element": "H" 
			}
		],
		 "valence_orbital": [ 
			{
				"type": "occ",
				"energy": -0.27094,
				"method": "rhf"
			},
			{
				"type": "occ",
				"energy": -0.26983,
				"method": "rhf"
			},
			{
				"type": "occ",
				"energy": -0.25954,
				"method": "rhf"
			},
			{
				"type": "occ",
				"energy": -0.25315,
				"method": "rhf"
			},
			{
				"type": "occ",
				"energy": -0.22934,
				"method": "rhf"
			},
			{
				"type": "unocc",
				"energy": -0.03999,
				"method": "rhf"
			},
			{
				"type": "unocc",
				"energy": -0.02904,
				"method": "rhf"
			},
			{
				"type": "unocc",
				"energy": -0.01686,
				"method": "rhf"
			},
			{
				"type": "unocc",
				"energy": -0.0144,
				"method": "rhf"
			},
			{
				"type": "unocc",
				"energy": -0.01063,
				"method": "rhf"
			}
		],
		"cosmo_sigma_profile": { 
			"-0.025": 0.0,
			"-0.024": 0.0,
			"-0.023": 0.0,
			"-0.022": 0.0,
			"-0.021": 0.0,
			"-0.02": 0.0,
			"-0.019": 0.0,
			"-0.018": 0.0,
			"-0.017": 0.0,
			"-0.016": 0.0,
			"-0.015": 0.0,
			"-0.014": 0.0,
			"-0.013": 0.0,
			"-0.012": 0.0,
			"-0.011": 0.0,
			"-0.01": 0.0,
			"-0.009": 0.138480476444,
			"-0.008": 1.54256192983,
			"-0.007": 8.62969027201,
			"-0.006": 19.37546952,
			"-0.005": 21.2212188476,
			"-0.004": 21.2296134558,
			"-0.003": 21.1542252267,
			"-0.002": 19.6050862686,
			"-0.001": 15.6675072355,
			"0.0": 18.4664683284,
			"0.001": 19.6470791653,
			"0.002": 25.9816346199,
			"0.003": 28.654831677,
			"0.004": 25.8332086216,
			"0.005": 12.7156375376,
			"0.006": 2.96448261342,
			"0.007": 1.77701413905,
			"0.008": 2.24132254637,
			"0.009": 1.82321872497,
			"0.01": 1.80195808409,
			"0.011": 0.569789334274,
			"0.012": 1.53073803381,
			"0.013": 1.83487318557,
			"0.014": 2.34250190529,
			"0.015": 0.420178327034,
			"0.016": 0.0,
			"0.017": 0.0,
			"0.018": 0.0,
			"0.019": 0.0,
			"0.02": 0.0,
			"0.021": 0.0,
			"0.022": 0.0,
			"0.023": 0.0,
			"0.024": 0.0,
			"0.025": 0.0
		}
	}
}
