{
	 "smiles": "COC(C)(C)C", 
	 "Tm": 164.15, 
	 "num_atms": 18, 
	 "gaussian": { 
		 "optdone": 1, 
		 "sigma_profile": "yes", 
		 "theory": "DFT", 
		 "functional": "B3LYP", 
		 "basiset": "6-31G**", 
		 "properties": { 
			 "R2extent": 813.8352, 
			 "electric_dipole_moment_norm": 1.17324036753, 
			 "electric_quadrupole_moment_norm": 3.34338701768, 
			 "total_energy": -272.98660987, 
			 "HOMO_LUMO_gap": 0.32516, 
			 "cosmo_polarized_energy": -3.6, 
			 "cosmo_cavitation_energy": 19.26, 
			 "cosmo_dispersion_energy": -14.04, 
			 "cosmo_repulsion_energy": 1.19, 
			 "cosmo_total_nonelectrostatic_energy": 6.41, 
			 "SMD_solvation_energy": 4.15 
		},
		"coords": [
			{
				"x": -0.9515759545,
				"y": 2.0373217974,
				"z": 0.8459877111,
				"element": "C" 
			},
			{
				"x": -1.2157041774,
				"y": 0.6508996807,
				"z": 0.9126653175,
				"element": "O" 
			},
			{
				"x": -0.9450075668,
				"y": -0.1444464347,
				"z": -0.257417833,
				"element": "C" 
			},
			{
				"x": 0.5491993061,
				"y": -0.1033597812,
				"z": -0.6205689752,
				"element": "C" 
			},
			{
				"x": -1.3428863957,
				"y": -1.559083417,
				"z": 0.178875726,
				"element": "C" 
			},
			{
				"x": -1.8119283209,
				"y": 0.3064411616,
				"z": -1.4453931794,
				"element": "C" 
			},
			{
				"x": -1.5517987773,
				"y": 2.5510718552,
				"z": 0.081535196,
				"element": "H" 
			},
			{
				"x": -1.2214405503,
				"y": 2.4468447881,
				"z": 1.8231245066,
				"element": "H" 
			},
			{
				"x": 0.1084004453,
				"y": 2.2626136681,
				"z": 0.6608864549,
				"element": "H" 
			},
			{
				"x": 1.1576725379,
				"y": -0.3673803064,
				"z": 0.250002708,
				"element": "H" 
			},
			{
				"x": 0.8598962668,
				"y": 0.8852778293,
				"z": -0.9721899274,
				"element": "H" 
			},
			{
				"x": 0.766785948,
				"y": -0.8174205494,
				"z": -1.4213498722,
				"element": "H" 
			},
			{
				"x": -2.397837916,
				"y": -1.5814753579,
				"z": 0.4670375421,
				"element": "H" 
			},
			{
				"x": -1.1850690773,
				"y": -2.2779500101,
				"z": -0.630943708,
				"element": "H" 
			},
			{
				"x": -0.7475904513,
				"y": -1.8679951645,
				"z": 1.0429675644,
				"element": "H" 
			},
			{
				"x": -2.867238746,
				"y": 0.3304742537,
				"z": -1.1562928617,
				"element": "H" 
			},
			{
				"x": -1.5299225276,
				"y": 1.3003195813,
				"z": -1.8062937112,
				"element": "H" 
			},
			{
				"x": -1.7009540429,
				"y": -0.388553594,
				"z": -2.2839326587,
				"element": "H" 
			}
		],
		 "valence_orbital": [ 
			{
				"type": "occ",
				"energy": -0.36174,
				"method": "rhf"
			},
			{
				"type": "occ",
				"energy": -0.33749,
				"method": "rhf"
			},
			{
				"type": "occ",
				"energy": -0.33746,
				"method": "rhf"
			},
			{
				"type": "occ",
				"energy": -0.29122,
				"method": "rhf"
			},
			{
				"type": "occ",
				"energy": -0.24447,
				"method": "rhf"
			},
			{
				"type": "unocc",
				"energy": 0.08069,
				"method": "rhf"
			},
			{
				"type": "unocc",
				"energy": 0.11164,
				"method": "rhf"
			},
			{
				"type": "unocc",
				"energy": 0.12944,
				"method": "rhf"
			},
			{
				"type": "unocc",
				"energy": 0.13778,
				"method": "rhf"
			},
			{
				"type": "unocc",
				"energy": 0.15734,
				"method": "rhf"
			}
		],
		"cosmo_sigma_profile": { 
			"-0.025": 0.0,
			"-0.024": 0.0,
			"-0.023": 0.0,
			"-0.022": 0.0,
			"-0.021": 0.0,
			"-0.02": 0.0,
			"-0.019": 0.0,
			"-0.018": 0.0,
			"-0.017": 0.0,
			"-0.016": 0.0,
			"-0.015": 0.0,
			"-0.014": 0.0,
			"-0.013": 0.0,
			"-0.012": 0.0,
			"-0.011": 0.0,
			"-0.01": 0.0,
			"-0.009": 0.0,
			"-0.008": 0.0,
			"-0.007": 0.0,
			"-0.006": 0.0,
			"-0.005": 0.451865737194,
			"-0.004": 5.28989459707,
			"-0.003": 26.04365944,
			"-0.002": 25.9765084065,
			"-0.001": 23.3770722829,
			"0.0": 19.1661216356,
			"0.001": 22.8765598284,
			"0.002": 7.28768754326,
			"0.003": 2.29425804262,
			"0.004": 1.81330432185,
			"0.005": 1.91706886423,
			"0.006": 1.48181062185,
			"0.007": 1.46275531258,
			"0.008": 1.57624967672,
			"0.009": 0.931748968509,
			"0.01": 1.34408179465,
			"0.011": 1.22567074059,
			"0.012": 1.21596041775,
			"0.013": 1.49107595915,
			"0.014": 1.04646316561,
			"0.015": 0.0191379888598,
			"0.016": 0.0,
			"0.017": 0.0,
			"0.018": 0.0,
			"0.019": 0.0,
			"0.02": 0.0,
			"0.021": 0.0,
			"0.022": 0.0,
			"0.023": 0.0,
			"0.024": 0.0,
			"0.025": 0.0
		}
	}
}
