{
	 "smiles": "CC1=NNC(C(O)=O)=C1Br", 
	 "Tm": 545.15, 
	 "num_atms": 15, 
	 "gaussian": { 
		 "optdone": 1, 
		 "sigma_profile": "yes", 
		 "theory": "DFT", 
		 "functional": "B3LYP", 
		 "basiset": "6-31G**", 
		 "properties": { 
			 "R2extent": 2092.7335, 
			 "electric_dipole_moment_norm": 3.63637928715, 
			 "electric_quadrupole_moment_norm": 11.4293828359, 
			 "total_energy": -3024.87952227, 
			 "HOMO_LUMO_gap": 0.19721, 
			 "cosmo_polarized_energy": -18.54, 
			 "cosmo_cavitation_energy": 22.44, 
			 "cosmo_dispersion_energy": -16.82, 
			 "cosmo_repulsion_energy": 1.38, 
			 "cosmo_total_nonelectrostatic_energy": 7.0, 
			 "SMD_solvation_energy": 3.18 
		},
		"coords": [
			{
				"x": -0.1006036386,
				"y": -2.7818087279,
				"z": 1.4298219681,
				"element": "C" 
			},
			{
				"x": 0.2750124027,
				"y": -1.3717527516,
				"z": 1.1097355196,
				"element": "C" 
			},
			{
				"x": 1.3825049845,
				"y": -0.8147380026,
				"z": 1.6045527486,
				"element": "N" 
			},
			{
				"x": 1.3802930638,
				"y": 0.4547715117,
				"z": 1.1540560139,
				"element": "N" 
			},
			{
				"x": 0.3225508277,
				"y": 0.7303763006,
				"z": 0.3252515854,
				"element": "C" 
			},
			{
				"x": 0.1176524025,
				"y": 2.0462948009,
				"z": -0.317726452,
				"element": "C" 
			},
			{
				"x": 0.6875973943,
				"y": 3.1007227655,
				"z": 0.3417477576,
				"element": "O" 
			},
			{
				"x": -0.4717234416,
				"y": 2.2093727529,
				"z": -1.354627906,
				"element": "O" 
			},
			{
				"x": -0.415179579,
				"y": -0.4425465976,
				"z": 0.2896513713,
				"element": "C" 
			},
			{
				"x": -2.0310916934,
				"y": -0.7520434908,
				"z": -0.6073538439,
				"element": "Br" 
			},
			{
				"x": 0.6672279541,
				"y": -3.2328065497,
				"z": 2.0609015619,
				"element": "H" 
			},
			{
				"x": -1.059889611,
				"y": -2.8247015093,
				"z": 1.9563469715,
				"element": "H" 
			},
			{
				"x": -0.2047687516,
				"y": -3.3767893775,
				"z": 0.5168320796,
				"element": "H" 
			},
			{
				"x": 2.2258221687,
				"y": 0.9985734569,
				"z": 1.2515946896,
				"element": "H" 
			},
			{
				"x": 0.8453955169,
				"y": 2.8700754184,
				"z": 1.269015935,
				"element": "H" 
			}
		],
		 "valence_orbital": [ 
			{
				"type": "occ",
				"energy": -0.32732,
				"method": "rhf"
			},
			{
				"type": "occ",
				"energy": -0.29409,
				"method": "rhf"
			},
			{
				"type": "occ",
				"energy": -0.28645,
				"method": "rhf"
			},
			{
				"type": "occ",
				"energy": -0.27597,
				"method": "rhf"
			},
			{
				"type": "occ",
				"energy": -0.25404,
				"method": "rhf"
			},
			{
				"type": "unocc",
				"energy": -0.05683,
				"method": "rhf"
			},
			{
				"type": "unocc",
				"energy": 0.00493,
				"method": "rhf"
			},
			{
				"type": "unocc",
				"energy": 0.0223,
				"method": "rhf"
			},
			{
				"type": "unocc",
				"energy": 0.03473,
				"method": "rhf"
			},
			{
				"type": "unocc",
				"energy": 0.07565,
				"method": "rhf"
			}
		],
		"cosmo_sigma_profile": { 
			"-0.025": 0.0,
			"-0.024": 0.0,
			"-0.023": 0.0,
			"-0.022": 0.0,
			"-0.021": 0.0,
			"-0.02": 0.831195208829,
			"-0.019": 1.79126017085,
			"-0.018": 3.16041663457,
			"-0.017": 2.00445352282,
			"-0.016": 1.87397565896,
			"-0.015": 1.77519903269,
			"-0.014": 1.39449988279,
			"-0.013": 1.96827617049,
			"-0.012": 1.77122794215,
			"-0.011": 1.42880378865,
			"-0.01": 0.689289592456,
			"-0.009": 1.59520831852,
			"-0.008": 1.40764309774,
			"-0.007": 1.84349828207,
			"-0.006": 2.17931838129,
			"-0.005": 8.06871771804,
			"-0.004": 9.16510337774,
			"-0.003": 10.622203481,
			"-0.002": 11.9070349897,
			"-0.001": 15.4201345695,
			"0.0": 13.2307563139,
			"0.001": 13.3027598625,
			"0.002": 10.3862977297,
			"0.003": 12.6687731124,
			"0.004": 9.19579174278,
			"0.005": 4.79471598261,
			"0.006": 4.49782668973,
			"0.007": 4.52008916817,
			"0.008": 4.05437672472,
			"0.009": 6.6224248461,
			"0.01": 7.16248501573,
			"0.011": 6.53487171639,
			"0.012": 2.56336179057,
			"0.013": 1.15042437175,
			"0.014": 0.77737573085,
			"0.015": 0.036796563272,
			"0.016": 0.0,
			"0.017": 0.0,
			"0.018": 0.0,
			"0.019": 0.0,
			"0.02": 0.0,
			"0.021": 0.0,
			"0.022": 0.0,
			"0.023": 0.0,
			"0.024": 0.0,
			"0.025": 0.0
		}
	}
}
