{
	 "smiles": "CC1(O)CCC2C3CCC4CC(O)(CCC4(C)C3CCC12C)C#C", 
	 "Tm": 463.15, 
	 "num_atms": 58, 
	 "gaussian": { 
		 "optdone": 1, 
		 "sigma_profile": "yes", 
		 "theory": "DFT", 
		 "functional": "B3LYP", 
		 "basiset": "6-31G**", 
		 "properties": { 
			 "R2extent": 9054.4173, 
			 "electric_dipole_moment_norm": 1.22052989312, 
			 "electric_quadrupole_moment_norm": 11.2485133556, 
			 "total_energy": -1009.2108342, 
			 "HOMO_LUMO_gap": 0.29389, 
			 "cosmo_polarized_energy": -11.96, 
			 "cosmo_cavitation_energy": 48.65, 
			 "cosmo_dispersion_energy": -33.5, 
			 "cosmo_repulsion_energy": 2.43, 
			 "cosmo_total_nonelectrostatic_energy": 17.58, 
			 "SMD_solvation_energy": 8.28 
		},
		"coords": [
			{
				"x": -3.724458392,
				"y": 0.7197843871,
				"z": 2.8343804928,
				"element": "C" 
			},
			{
				"x": -2.638204061,
				"y": -0.2680656769,
				"z": 2.4028433492,
				"element": "C" 
			},
			{
				"x": -2.7788830335,
				"y": -1.4700028892,
				"z": 3.1903939749,
				"element": "O" 
			},
			{
				"x": -2.6867505893,
				"y": -0.6527623158,
				"z": 0.9151738075,
				"element": "C" 
			},
			{
				"x": -1.3381065149,
				"y": -1.3580891821,
				"z": 0.6474884974,
				"element": "C" 
			},
			{
				"x": -0.3784882449,
				"y": -0.9220413191,
				"z": 1.8036378991,
				"element": "C" 
			},
			{
				"x": 1.0734807881,
				"y": -0.5158008674,
				"z": 1.4425365452,
				"element": "C" 
			},
			{
				"x": 1.8537194347,
				"y": -1.6850442663,
				"z": 0.7968389265,
				"element": "C" 
			},
			{
				"x": 1.7517404513,
				"y": -1.8085125228,
				"z": -0.7386374302,
				"element": "C" 
			},
			{
				"x": 1.5043516708,
				"y": -0.4744154108,
				"z": -1.483799485,
				"element": "C" 
			},
			{
				"x": 2.0812344985,
				"y": -0.5512903155,
				"z": -2.9090135145,
				"element": "C" 
			},
			{
				"x": 1.7897234345,
				"y": 0.7137946463,
				"z": -3.7489360459,
				"element": "C" 
			},
			{
				"x": 0.3727483774,
				"y": 0.8846567232,
				"z": -3.925684525,
				"element": "O" 
			},
			{
				"x": 2.2711946083,
				"y": 1.9658243755,
				"z": -2.988471781,
				"element": "C" 
			},
			{
				"x": 1.6633583757,
				"y": 2.0265363476,
				"z": -1.579530218,
				"element": "C" 
			},
			{
				"x": 1.9754945124,
				"y": 0.7834165088,
				"z": -0.7002577373,
				"element": "C" 
			},
			{
				"x": 3.4992499954,
				"y": 0.7720678364,
				"z": -0.4190039023,
				"element": "C" 
			},
			{
				"x": 1.2131735877,
				"y": 0.863519909,
				"z": 0.6799565975,
				"element": "C" 
			},
			{
				"x": -0.153851078,
				"y": 1.5814638349,
				"z": 0.6317899089,
				"element": "C" 
			},
			{
				"x": -0.8430123757,
				"y": 1.5826267585,
				"z": 2.0052453143,
				"element": "C" 
			},
			{
				"x": -1.1488856416,
				"y": 0.1750148979,
				"z": 2.6087176502,
				"element": "C" 
			},
			{
				"x": -0.7657372449,
				"y": 0.1762941195,
				"z": 4.0983615931,
				"element": "C" 
			},
			{
				"x": 2.4461095832,
				"y": 0.6114504313,
				"z": -5.0657807035,
				"element": "C" 
			},
			{
				"x": 2.970621728,
				"y": 0.4998999997,
				"z": -6.1487031608,
				"element": "C" 
			},
			{
				"x": -3.6195286329,
				"y": 0.974933495,
				"z": 3.8929941673,
				"element": "H" 
			},
			{
				"x": -3.7176505674,
				"y": 1.6430848049,
				"z": 2.2494186032,
				"element": "H" 
			},
			{
				"x": -4.7130348125,
				"y": 0.2631661455,
				"z": 2.6996091673,
				"element": "H" 
			},
			{
				"x": -3.6517490085,
				"y": -1.8365618866,
				"z": 2.9974451355,
				"element": "H" 
			},
			{
				"x": -3.5552474906,
				"y": -1.2859058058,
				"z": 0.6946339335,
				"element": "H" 
			},
			{
				"x": -2.7931004157,
				"y": 0.248075506,
				"z": 0.3001203735,
				"element": "H" 
			},
			{
				"x": -1.4634402699,
				"y": -2.4445882868,
				"z": 0.6612718199,
				"element": "H" 
			},
			{
				"x": -0.9557435744,
				"y": -1.1006009833,
				"z": -0.3413723808,
				"element": "H" 
			},
			{
				"x": -0.2821535749,
				"y": -1.7846748854,
				"z": 2.4712840048,
				"element": "H" 
			},
			{
				"x": 1.5502487881,
				"y": -0.3652692133,
				"z": 2.4194787804,
				"element": "H" 
			},
			{
				"x": 2.9089902389,
				"y": -1.5857280773,
				"z": 1.0694461725,
				"element": "H" 
			},
			{
				"x": 1.5284692865,
				"y": -2.6234440202,
				"z": 1.2620784383,
				"element": "H" 
			},
			{
				"x": 2.6793252275,
				"y": -2.2654811542,
				"z": -1.1066324952,
				"element": "H" 
			},
			{
				"x": 0.9528183772,
				"y": -2.5078037662,
				"z": -1.0116222504,
				"element": "H" 
			},
			{
				"x": 0.4215086212,
				"y": -0.3489036082,
				"z": -1.6061720703,
				"element": "H" 
			},
			{
				"x": 3.1657341243,
				"y": -0.7100067951,
				"z": -2.877730336,
				"element": "H" 
			},
			{
				"x": 1.6640178022,
				"y": -1.424447494,
				"z": -3.4291251156,
				"element": "H" 
			},
			{
				"x": 0.059436537,
				"y": 0.1515920282,
				"z": -4.4727592248,
				"element": "H" 
			},
			{
				"x": 3.3650535083,
				"y": 1.9534525362,
				"z": -2.9582586916,
				"element": "H" 
			},
			{
				"x": 1.9756288011,
				"y": 2.8490485998,
				"z": -3.5635551501,
				"element": "H" 
			},
			{
				"x": 2.0159244879,
				"y": 2.9351950976,
				"z": -1.0742053021,
				"element": "H" 
			},
			{
				"x": 0.5836628994,
				"y": 2.1308228727,
				"z": -1.7041254739,
				"element": "H" 
			},
			{
				"x": 3.8016244254,
				"y": 1.7307635435,
				"z": 0.0180827553,
				"element": "H" 
			},
			{
				"x": 4.0933806084,
				"y": 0.629042079,
				"z": -1.3258811905,
				"element": "H" 
			},
			{
				"x": 3.7938310512,
				"y": -0.0088597841,
				"z": 0.2836884358,
				"element": "H" 
			},
			{
				"x": 1.8429480721,
				"y": 1.5022434674,
				"z": 1.3155512337,
				"element": "H" 
			},
			{
				"x": -0.8070885777,
				"y": 1.1381356731,
				"z": -0.1273225491,
				"element": "H" 
			},
			{
				"x": -0.0112077386,
				"y": 2.6238672672,
				"z": 0.3310799087,
				"element": "H" 
			},
			{
				"x": -1.7508315203,
				"y": 2.1915543998,
				"z": 1.9515291755,
				"element": "H" 
			},
			{
				"x": -0.1806061915,
				"y": 2.1147752562,
				"z": 2.7005981051,
				"element": "H" 
			},
			{
				"x": 0.3084239079,
				"y": 0.356758559,
				"z": 4.2178578817,
				"element": "H" 
			},
			{
				"x": -1.2865538133,
				"y": 0.9762100957,
				"z": 4.6380451958,
				"element": "H" 
			},
			{
				"x": -1.0158664402,
				"y": -0.7730320825,
				"z": 4.5745272047,
				"element": "H" 
			},
			{
				"x": 3.4337519934,
				"y": 0.4142604067,
				"z": -7.104424315,
				"element": "H" 
			}
		],
		 "valence_orbital": [ 
			{
				"type": "occ",
				"energy": -0.27097,
				"method": "rhf"
			},
			{
				"type": "occ",
				"energy": -0.26548,
				"method": "rhf"
			},
			{
				"type": "occ",
				"energy": -0.26367,
				"method": "rhf"
			},
			{
				"type": "occ",
				"energy": -0.25731,
				"method": "rhf"
			},
			{
				"type": "occ",
				"energy": -0.25561,
				"method": "rhf"
			},
			{
				"type": "unocc",
				"energy": 0.03828,
				"method": "rhf"
			},
			{
				"type": "unocc",
				"energy": 0.05545,
				"method": "rhf"
			},
			{
				"type": "unocc",
				"energy": 0.06501,
				"method": "rhf"
			},
			{
				"type": "unocc",
				"energy": 0.07364,
				"method": "rhf"
			},
			{
				"type": "unocc",
				"energy": 0.08238,
				"method": "rhf"
			}
		],
		"cosmo_sigma_profile": { 
			"-0.025": 0.0,
			"-0.024": 0.0,
			"-0.023": 0.0,
			"-0.022": 0.0,
			"-0.021": 0.0,
			"-0.02": 0.0,
			"-0.019": 0.0,
			"-0.018": 0.0,
			"-0.017": 0.0,
			"-0.016": 0.0270077879629,
			"-0.015": 0.943976032912,
			"-0.014": 1.32204546239,
			"-0.013": 1.6823916847,
			"-0.012": 2.07040480067,
			"-0.011": 2.8004154558,
			"-0.01": 3.38073471363,
			"-0.009": 2.69877782783,
			"-0.008": 3.1181345612,
			"-0.007": 3.19370114105,
			"-0.006": 3.01822550875,
			"-0.005": 4.29682102429,
			"-0.004": 9.06272939715,
			"-0.003": 21.8939608832,
			"-0.002": 42.6537564077,
			"-0.001": 64.694609728,
			"0.0": 67.9663270695,
			"0.001": 50.2294772668,
			"0.002": 26.6507644588,
			"0.003": 10.0662490386,
			"0.004": 7.30778701466,
			"0.005": 7.21869311151,
			"0.006": 9.37928026514,
			"0.007": 9.37672060718,
			"0.008": 3.71279214314,
			"0.009": 3.0181205326,
			"0.01": 2.96458140153,
			"0.011": 2.90923456585,
			"0.012": 2.66473685111,
			"0.013": 2.36647318393,
			"0.014": 0.381833450382,
			"0.015": 0.0,
			"0.016": 0.0,
			"0.017": 0.0,
			"0.018": 0.0,
			"0.019": 0.0,
			"0.02": 0.0,
			"0.021": 0.0,
			"0.022": 0.0,
			"0.023": 0.0,
			"0.024": 0.0,
			"0.025": 0.0
		}
	}
}
