{
	 "smiles": "OC(=O)C1=C(C=C(F)C=C1)C1=CC(Cl)=C(Cl)C=C1", 
	 "Tm": 453.15, 
	 "num_atms": 25, 
	 "gaussian": { 
		 "optdone": 1, 
		 "sigma_profile": "yes", 
		 "theory": "DFT", 
		 "functional": "B3LYP", 
		 "basiset": "6-31G**", 
		 "properties": { 
			 "R2extent": 6846.82, 
			 "electric_dipole_moment_norm": 2.75342481648, 
			 "electric_quadrupole_moment_norm": 16.7946904913, 
			 "total_energy": -1670.27710714, 
			 "HOMO_LUMO_gap": 0.19212, 
			 "cosmo_polarized_energy": -13.62, 
			 "cosmo_cavitation_energy": 34.21, 
			 "cosmo_dispersion_energy": -24.42, 
			 "cosmo_repulsion_energy": 1.86, 
			 "cosmo_total_nonelectrostatic_energy": 11.64, 
			 "SMD_solvation_energy": 6.64 
		},
		"coords": [
			{
				"x": 0.683770546,
				"y": 0.9121177236,
				"z": 2.1102695434,
				"element": "O" 
			},
			{
				"x": -0.054356123,
				"y": -0.2049723301,
				"z": 2.3077570054,
				"element": "C" 
			},
			{
				"x": -0.3822868569,
				"y": -0.5128257409,
				"z": 3.4309933387,
				"element": "O" 
			},
			{
				"x": -0.3917440869,
				"y": -1.0629385413,
				"z": 1.1133078638,
				"element": "C" 
			},
			{
				"x": -0.4685458581,
				"y": -0.6336970807,
				"z": -0.2340410818,
				"element": "C" 
			},
			{
				"x": -0.7192786175,
				"y": -1.5852577509,
				"z": -1.2337620447,
				"element": "C" 
			},
			{
				"x": -0.9013570991,
				"y": -2.919484563,
				"z": -0.8954457641,
				"element": "C" 
			},
			{
				"x": -1.1419800736,
				"y": -3.8069328879,
				"z": -1.875863824,
				"element": "F" 
			},
			{
				"x": -0.8608571616,
				"y": -3.3573434093,
				"z": 0.4232779491,
				"element": "C" 
			},
			{
				"x": -0.6105958715,
				"y": -2.4171395331,
				"z": 1.4146713803,
				"element": "C" 
			},
			{
				"x": -0.3515070147,
				"y": 0.7923534107,
				"z": -0.6646889903,
				"element": "C" 
			},
			{
				"x": 0.5671130449,
				"y": 1.1510831384,
				"z": -1.6617762599,
				"element": "C" 
			},
			{
				"x": 0.6501457388,
				"y": 2.4660027903,
				"z": -2.125081976,
				"element": "C" 
			},
			{
				"x": 1.8215576834,
				"y": 2.8436855438,
				"z": -3.360959349,
				"element": "Cl" 
			},
			{
				"x": -0.197452068,
				"y": 3.4476224947,
				"z": -1.5936672331,
				"element": "C" 
			},
			{
				"x": -0.1352205945,
				"y": 5.1004597895,
				"z": -2.140220954,
				"element": "Cl" 
			},
			{
				"x": -1.1161501815,
				"y": 3.0970892778,
				"z": -0.5998700778,
				"element": "C" 
			},
			{
				"x": -1.1938652805,
				"y": 1.7878340498,
				"z": -0.1392691966,
				"element": "C" 
			},
			{
				"x": 0.8898241777,
				"y": 1.0332431498,
				"z": 1.1714433257,
				"element": "H" 
			},
			{
				"x": -0.8087462416,
				"y": -1.2862235092,
				"z": -2.2722164173,
				"element": "H" 
			},
			{
				"x": -1.0199088403,
				"y": -4.4049264101,
				"z": 0.6529277329,
				"element": "H" 
			},
			{
				"x": -0.5669819557,
				"y": -2.713264959,
				"z": 2.4566299322,
				"element": "H" 
			},
			{
				"x": 1.233444034,
				"y": 0.4055758067,
				"z": -2.0818737704,
				"element": "H" 
			},
			{
				"x": -1.7712593045,
				"y": 3.8611478669,
				"z": -0.1967628544,
				"element": "H" 
			},
			{
				"x": -1.9214619952,
				"y": 1.5324916732,
				"z": 0.6239217218,
				"element": "H" 
			}
		],
		 "valence_orbital": [ 
			{
				"type": "occ",
				"energy": -0.29366,
				"method": "rhf"
			},
			{
				"type": "occ",
				"energy": -0.2828,
				"method": "rhf"
			},
			{
				"type": "occ",
				"energy": -0.28036,
				"method": "rhf"
			},
			{
				"type": "occ",
				"energy": -0.26731,
				"method": "rhf"
			},
			{
				"type": "occ",
				"energy": -0.26025,
				"method": "rhf"
			},
			{
				"type": "unocc",
				"energy": -0.06813,
				"method": "rhf"
			},
			{
				"type": "unocc",
				"energy": -0.04866,
				"method": "rhf"
			},
			{
				"type": "unocc",
				"energy": -0.04269,
				"method": "rhf"
			},
			{
				"type": "unocc",
				"energy": -0.02426,
				"method": "rhf"
			},
			{
				"type": "unocc",
				"energy": -0.01094,
				"method": "rhf"
			}
		],
		"cosmo_sigma_profile": { 
			"-0.025": 0.0,
			"-0.024": 0.0,
			"-0.023": 0.0,
			"-0.022": 0.0,
			"-0.021": 0.0,
			"-0.02": 0.0,
			"-0.019": 0.0,
			"-0.018": 0.0,
			"-0.017": 0.0,
			"-0.016": 0.0,
			"-0.015": 0.0,
			"-0.014": 0.200841349601,
			"-0.013": 1.23129524034,
			"-0.012": 1.16581308035,
			"-0.011": 1.31834023785,
			"-0.01": 1.0962234037,
			"-0.009": 1.66983950864,
			"-0.008": 8.88101102556,
			"-0.007": 13.2642694282,
			"-0.006": 12.8910963067,
			"-0.005": 11.235275572,
			"-0.004": 11.9236848824,
			"-0.003": 13.2036689172,
			"-0.002": 16.0050794288,
			"-0.001": 26.9288293789,
			"0.0": 32.621646888,
			"0.001": 28.1249730203,
			"0.002": 21.1164860102,
			"0.003": 24.3008059074,
			"0.004": 21.8980295593,
			"0.005": 4.69383757148,
			"0.006": 2.5666873247,
			"0.007": 2.55829934694,
			"0.008": 2.75785217147,
			"0.009": 2.82981575661,
			"0.01": 4.83932809504,
			"0.011": 5.10914648935,
			"0.012": 4.41169308276,
			"0.013": 1.47428893439,
			"0.014": 0.0358409818767,
			"0.015": 0.0,
			"0.016": 0.0,
			"0.017": 0.0,
			"0.018": 0.0,
			"0.019": 0.0,
			"0.02": 0.0,
			"0.021": 0.0,
			"0.022": 0.0,
			"0.023": 0.0,
			"0.024": 0.0,
			"0.025": 0.0
		}
	}
}
