{
	 "smiles": "N#CC1=CC2=C(SC=C2)C=C1", 
	 "Tm": 343.15, 
	 "num_atms": 16, 
	 "gaussian": { 
		 "optdone": 1, 
		 "sigma_profile": "yes", 
		 "theory": "DFT", 
		 "functional": "B3LYP", 
		 "basiset": "6-31G**", 
		 "properties": { 
			 "R2extent": 2622.0555, 
			 "electric_dipole_moment_norm": 4.67811226672, 
			 "electric_quadrupole_moment_norm": 19.7713553855, 
			 "total_energy": -798.893121546, 
			 "HOMO_LUMO_gap": 0.18935, 
			 "cosmo_polarized_energy": -9.54, 
			 "cosmo_cavitation_energy": 23.08, 
			 "cosmo_dispersion_energy": -17.22, 
			 "cosmo_repulsion_energy": 1.31, 
			 "cosmo_total_nonelectrostatic_energy": 7.17, 
			 "SMD_solvation_energy": 5.09 
		},
		"coords": [
			{
				"x": 2.942638856,
				"y": 3.2152821495,
				"z": -3.1860033813,
				"element": "N" 
			},
			{
				"x": 2.0726653314,
				"y": 2.6402858349,
				"z": -2.669907669,
				"element": "C" 
			},
			{
				"x": 0.9982967571,
				"y": 1.9312272499,
				"z": -2.037554785,
				"element": "C" 
			},
			{
				"x": 1.1047128397,
				"y": 1.5675222125,
				"z": -0.6927804823,
				"element": "C" 
			},
			{
				"x": 0.0501170901,
				"y": 0.8742069074,
				"z": -0.0807323446,
				"element": "C" 
			},
			{
				"x": -1.1024985306,
				"y": 0.5592769562,
				"z": -0.8481393356,
				"element": "C" 
			},
			{
				"x": -2.2837361988,
				"y": -0.3031863898,
				"z": 0.1160969219,
				"element": "S" 
			},
			{
				"x": -1.2356625308,
				"y": -0.2333808673,
				"z": 1.5164225684,
				"element": "C" 
			},
			{
				"x": -0.060848279,
				"y": 0.4027718276,
				"z": 1.2763118697,
				"element": "C" 
			},
			{
				"x": -1.2101078596,
				"y": 0.9232571046,
				"z": -2.1957097003,
				"element": "C" 
			},
			{
				"x": -0.1598009357,
				"y": 1.607995261,
				"z": -2.7865302257,
				"element": "C" 
			},
			{
				"x": 1.9976259848,
				"y": 1.821581436,
				"z": -0.1310256145,
				"element": "H" 
			},
			{
				"x": -1.5673309984,
				"y": -0.6783117573,
				"z": 2.4449617822,
				"element": "H" 
			},
			{
				"x": 0.7105694021,
				"y": 0.5411104323,
				"z": 2.024984646,
				"element": "H" 
			},
			{
				"x": -2.0963940294,
				"y": 0.6766668663,
				"z": -2.7714018098,
				"element": "H" 
			},
			{
				"x": -0.214946899,
				"y": 1.9028947759,
				"z": -3.8285924399,
				"element": "H" 
			}
		],
		 "valence_orbital": [ 
			{
				"type": "occ",
				"energy": -0.329,
				"method": "rhf"
			},
			{
				"type": "occ",
				"energy": -0.32818,
				"method": "rhf"
			},
			{
				"type": "occ",
				"energy": -0.30358,
				"method": "rhf"
			},
			{
				"type": "occ",
				"energy": -0.25431,
				"method": "rhf"
			},
			{
				"type": "occ",
				"energy": -0.23901,
				"method": "rhf"
			},
			{
				"type": "unocc",
				"energy": -0.04966,
				"method": "rhf"
			},
			{
				"type": "unocc",
				"energy": -0.04638,
				"method": "rhf"
			},
			{
				"type": "unocc",
				"energy": 0.00433,
				"method": "rhf"
			},
			{
				"type": "unocc",
				"energy": 0.02136,
				"method": "rhf"
			},
			{
				"type": "unocc",
				"energy": 0.03832,
				"method": "rhf"
			}
		],
		"cosmo_sigma_profile": { 
			"-0.025": 0.0,
			"-0.024": 0.0,
			"-0.023": 0.0,
			"-0.022": 0.0,
			"-0.021": 0.0,
			"-0.02": 0.0,
			"-0.019": 0.0,
			"-0.018": 0.0,
			"-0.017": 0.0,
			"-0.016": 0.0,
			"-0.015": 0.0,
			"-0.014": 0.0,
			"-0.013": 0.0,
			"-0.012": 0.0,
			"-0.011": 0.0,
			"-0.01": 0.216077415029,
			"-0.009": 2.06359389857,
			"-0.008": 8.73693554801,
			"-0.007": 11.8783249122,
			"-0.006": 11.4711734956,
			"-0.005": 8.85081322364,
			"-0.004": 7.81634474782,
			"-0.003": 9.30063476614,
			"-0.002": 9.68747773099,
			"-0.001": 12.3691016466,
			"0.0": 13.7848568687,
			"0.001": 18.9056452661,
			"0.002": 27.3727673436,
			"0.003": 13.7395082777,
			"0.004": 8.38776490763,
			"0.005": 2.78009962304,
			"0.006": 2.16352077271,
			"0.007": 3.15221458604,
			"0.008": 3.2918126418,
			"0.009": 3.84564641587,
			"0.01": 2.83222942623,
			"0.011": 3.23047136134,
			"0.012": 2.13252226511,
			"0.013": 1.89518470453,
			"0.014": 0.164916263981,
			"0.015": 0.0,
			"0.016": 0.0,
			"0.017": 0.0,
			"0.018": 0.0,
			"0.019": 0.0,
			"0.02": 0.0,
			"0.021": 0.0,
			"0.022": 0.0,
			"0.023": 0.0,
			"0.024": 0.0,
			"0.025": 0.0
		}
	}
}
