{
	 "smiles": "COC1=CC=C(C=O)C=N1", 
	 "Tm": 323.15, 
	 "num_atms": 17, 
	 "gaussian": { 
		 "optdone": 1, 
		 "sigma_profile": "yes", 
		 "theory": "DFT", 
		 "functional": "B3LYP", 
		 "basiset": "6-31G**", 
		 "properties": { 
			 "R2extent": 1946.9658, 
			 "electric_dipole_moment_norm": 3.16287838843, 
			 "electric_quadrupole_moment_norm": 8.96196903197, 
			 "total_energy": -476.147056817, 
			 "HOMO_LUMO_gap": 0.18652, 
			 "cosmo_polarized_energy": -8.63, 
			 "cosmo_cavitation_energy": 21.88, 
			 "cosmo_dispersion_energy": -16.14, 
			 "cosmo_repulsion_energy": 1.31, 
			 "cosmo_total_nonelectrostatic_energy": 7.05, 
			 "SMD_solvation_energy": 4.94 
		},
		"coords": [
			{
				"x": -1.7591148326,
				"y": 0.654101028,
				"z": 2.2465668906,
				"element": "C" 
			},
			{
				"x": -0.3308566931,
				"y": 0.725850473,
				"z": 2.1447318029,
				"element": "O" 
			},
			{
				"x": 0.2497199912,
				"y": 0.0968928827,
				"z": 1.1095871269,
				"element": "C" 
			},
			{
				"x": 1.6593939664,
				"y": 0.1817398092,
				"z": 1.0301286084,
				"element": "C" 
			},
			{
				"x": 2.2824116999,
				"y": -0.45359196,
				"z": -0.0209544553,
				"element": "C" 
			},
			{
				"x": 1.5013846139,
				"y": -1.1547347796,
				"z": -0.964633959,
				"element": "C" 
			},
			{
				"x": 2.1179815946,
				"y": -1.8502727248,
				"z": -2.1055314204,
				"element": "C" 
			},
			{
				"x": 3.315121246,
				"y": -1.8813851378,
				"z": -2.3288194723,
				"element": "O" 
			},
			{
				"x": 0.1190441906,
				"y": -1.168204486,
				"z": -0.7814509083,
				"element": "C" 
			},
			{
				"x": -0.5089302973,
				"y": -0.5582320138,
				"z": 0.2320413172,
				"element": "N" 
			},
			{
				"x": -2.0110103634,
				"y": 1.2228235243,
				"z": 3.1420627068,
				"element": "H" 
			},
			{
				"x": -2.2366794896,
				"y": 1.0935900465,
				"z": 1.3669151978,
				"element": "H" 
			},
			{
				"x": -2.0928251876,
				"y": -0.3822480003,
				"z": 2.3446842514,
				"element": "H" 
			},
			{
				"x": 2.2030261093,
				"y": 0.7358135629,
				"z": 1.7866782113,
				"element": "H" 
			},
			{
				"x": 3.3604962695,
				"y": -0.4316850925,
				"z": -0.1466106555,
				"element": "H" 
			},
			{
				"x": 1.3978586828,
				"y": -2.366488838,
				"z": -2.7788419922,
				"element": "H" 
			},
			{
				"x": -0.5198215006,
				"y": -1.6983682939,
				"z": -1.4878532504,
				"element": "H" 
			}
		],
		 "valence_orbital": [ 
			{
				"type": "occ",
				"energy": -0.33684,
				"method": "rhf"
			},
			{
				"type": "occ",
				"energy": -0.2993,
				"method": "rhf"
			},
			{
				"type": "occ",
				"energy": -0.28395,
				"method": "rhf"
			},
			{
				"type": "occ",
				"energy": -0.25351,
				"method": "rhf"
			},
			{
				"type": "occ",
				"energy": -0.24723,
				"method": "rhf"
			},
			{
				"type": "unocc",
				"energy": -0.06071,
				"method": "rhf"
			},
			{
				"type": "unocc",
				"energy": -0.03329,
				"method": "rhf"
			},
			{
				"type": "unocc",
				"energy": 0.03869,
				"method": "rhf"
			},
			{
				"type": "unocc",
				"energy": 0.10655,
				"method": "rhf"
			},
			{
				"type": "unocc",
				"energy": 0.11253,
				"method": "rhf"
			}
		],
		"cosmo_sigma_profile": { 
			"-0.025": 0.0,
			"-0.024": 0.0,
			"-0.023": 0.0,
			"-0.022": 0.0,
			"-0.021": 0.0,
			"-0.02": 0.0,
			"-0.019": 0.0,
			"-0.018": 0.0,
			"-0.017": 0.0,
			"-0.016": 0.0,
			"-0.015": 0.0,
			"-0.014": 0.0,
			"-0.013": 0.0,
			"-0.012": 0.0,
			"-0.011": 0.0,
			"-0.01": 0.0,
			"-0.009": 0.21532360567,
			"-0.008": 3.58879165798,
			"-0.007": 7.96417378651,
			"-0.006": 11.232384165,
			"-0.005": 12.8618296607,
			"-0.004": 13.8977062478,
			"-0.003": 15.3987021069,
			"-0.002": 10.9256665369,
			"-0.001": 15.1992718155,
			"0.0": 17.2961255772,
			"0.001": 13.5276084839,
			"0.002": 9.09734987514,
			"0.003": 5.6839585199,
			"0.004": 5.10967780559,
			"0.005": 4.09845262943,
			"0.006": 4.20586836637,
			"0.007": 4.10862385479,
			"0.008": 3.85924187186,
			"0.009": 3.37815376592,
			"0.01": 3.40113789704,
			"0.011": 4.88115244848,
			"0.012": 4.02377861402,
			"0.013": 1.23566723092,
			"0.014": 0.0177650924895,
			"0.015": 0.0,
			"0.016": 0.0,
			"0.017": 0.0,
			"0.018": 0.0,
			"0.019": 0.0,
			"0.02": 0.0,
			"0.021": 0.0,
			"0.022": 0.0,
			"0.023": 0.0,
			"0.024": 0.0,
			"0.025": 0.0
		}
	}
}
