{
	 "smiles": "NC1=C(C=CN=C1)N1C=CN=C1", 
	 "Tm": 408.15, 
	 "num_atms": 20, 
	 "gaussian": { 
		 "optdone": 1, 
		 "sigma_profile": "yes", 
		 "theory": "DFT", 
		 "functional": "B3LYP", 
		 "basiset": "6-31G**", 
		 "properties": { 
			 "R2extent": 2279.1506, 
			 "electric_dipole_moment_norm": 2.25153786777, 
			 "electric_quadrupole_moment_norm": 15.5231152118, 
			 "total_energy": -528.660925044, 
			 "HOMO_LUMO_gap": 0.18922, 
			 "cosmo_polarized_energy": -15.03, 
			 "cosmo_cavitation_energy": 24.18, 
			 "cosmo_dispersion_energy": -17.84, 
			 "cosmo_repulsion_energy": 1.39, 
			 "cosmo_total_nonelectrostatic_energy": 7.74, 
			 "SMD_solvation_energy": 2.02 
		},
		"coords": [
			{
				"x": -0.576876278,
				"y": 1.2455395172,
				"z": -0.537856475,
				"element": "N" 
			},
			{
				"x": 0.0311247642,
				"y": 1.035082571,
				"z": 0.6931542602,
				"element": "C" 
			},
			{
				"x": 0.2376357953,
				"y": -0.254214899,
				"z": 1.22568138,
				"element": "C" 
			},
			{
				"x": 0.824897499,
				"y": -0.3799925389,
				"z": 2.4851650477,
				"element": "C" 
			},
			{
				"x": 1.1945613105,
				"y": 0.768186522,
				"z": 3.1814041583,
				"element": "C" 
			},
			{
				"x": 0.9988297333,
				"y": 2.0022550566,
				"z": 2.6991048836,
				"element": "N" 
			},
			{
				"x": 0.4351800583,
				"y": 2.1174016911,
				"z": 1.4989617187,
				"element": "C" 
			},
			{
				"x": -0.1137286766,
				"y": -1.4131792788,
				"z": 0.4802088731,
				"element": "N" 
			},
			{
				"x": -1.3358824441,
				"y": -1.7001796505,
				"z": -0.1196355948,
				"element": "C" 
			},
			{
				"x": -1.190326049,
				"y": -2.9489644597,
				"z": -0.6663455062,
				"element": "C" 
			},
			{
				"x": 0.0743481532,
				"y": -3.4445468625,
				"z": -0.4320959111,
				"element": "N" 
			},
			{
				"x": 0.6878925522,
				"y": -2.5114087047,
				"z": 0.2567806371,
				"element": "C" 
			},
			{
				"x": -0.4884224804,
				"y": 0.4914725614,
				"z": -1.2063428755,
				"element": "H" 
			},
			{
				"x": -0.4039491647,
				"y": 2.1533518176,
				"z": -0.9474072338,
				"element": "H" 
			},
			{
				"x": 0.9744122555,
				"y": -1.3656400214,
				"z": 2.9134227405,
				"element": "H" 
			},
			{
				"x": 1.6552091155,
				"y": 0.693915587,
				"z": 4.1633235509,
				"element": "H" 
			},
			{
				"x": 0.2901703667,
				"y": 3.1310780547,
				"z": 1.1237259105,
				"element": "H" 
			},
			{
				"x": -2.1643799112,
				"y": -1.01152205,
				"z": -0.0691913845,
				"element": "H" 
			},
			{
				"x": -1.9274594262,
				"y": -3.5210172852,
				"z": -1.2128190607,
				"element": "H" 
			},
			{
				"x": 1.7111628265,
				"y": -2.5410176277,
				"z": 0.6052608809,
				"element": "H" 
			}
		],
		 "valence_orbital": [ 
			{
				"type": "occ",
				"energy": -0.2732,
				"method": "rhf"
			},
			{
				"type": "occ",
				"energy": -0.26685,
				"method": "rhf"
			},
			{
				"type": "occ",
				"energy": -0.26132,
				"method": "rhf"
			},
			{
				"type": "occ",
				"energy": -0.23671,
				"method": "rhf"
			},
			{
				"type": "occ",
				"energy": -0.22505,
				"method": "rhf"
			},
			{
				"type": "unocc",
				"energy": -0.03583,
				"method": "rhf"
			},
			{
				"type": "unocc",
				"energy": -0.00862,
				"method": "rhf"
			},
			{
				"type": "unocc",
				"energy": 0.02367,
				"method": "rhf"
			},
			{
				"type": "unocc",
				"energy": 0.05666,
				"method": "rhf"
			},
			{
				"type": "unocc",
				"energy": 0.07667,
				"method": "rhf"
			}
		],
		"cosmo_sigma_profile": { 
			"-0.025": 0.0,
			"-0.024": 0.0,
			"-0.023": 0.0,
			"-0.022": 0.0,
			"-0.021": 0.0,
			"-0.02": 0.0,
			"-0.019": 0.0,
			"-0.018": 0.0,
			"-0.017": 0.0,
			"-0.016": 0.0,
			"-0.015": 0.0,
			"-0.014": 0.210419756136,
			"-0.013": 1.62593660318,
			"-0.012": 2.00490200448,
			"-0.011": 3.24130677522,
			"-0.01": 2.86568661986,
			"-0.009": 3.3698208521,
			"-0.008": 6.87826406584,
			"-0.007": 9.59939997638,
			"-0.006": 11.9717109061,
			"-0.005": 11.3361499546,
			"-0.004": 10.784143852,
			"-0.003": 11.4052183014,
			"-0.002": 11.2189882964,
			"-0.001": 8.61277887369,
			"0.0": 11.8271295732,
			"0.001": 12.5098893119,
			"0.002": 13.5376713341,
			"0.003": 11.8354136905,
			"0.004": 8.18178421061,
			"0.005": 7.49045800056,
			"0.006": 4.54707253298,
			"0.007": 3.30791902149,
			"0.008": 3.86951898424,
			"0.009": 5.33088650932,
			"0.01": 1.91158695699,
			"0.011": 1.8175620447,
			"0.012": 2.61050127847,
			"0.013": 2.30817275313,
			"0.014": 2.07062348065,
			"0.015": 2.35521841336,
			"0.016": 1.62444771461,
			"0.017": 1.53782697156,
			"0.018": 0.375492526348,
			"0.019": 0.0,
			"0.02": 0.0,
			"0.021": 0.0,
			"0.022": 0.0,
			"0.023": 0.0,
			"0.024": 0.0,
			"0.025": 0.0
		}
	}
}
