{
	 "smiles": "OS(=O)(=O)C1=CC=C(C=C1)C1=CC=C(C=C1)S(O)(=O)=O", 
	 "Tm": 345.65, 
	 "num_atms": 30, 
	 "gaussian": { 
		 "optdone": 1, 
		 "sigma_profile": "yes", 
		 "theory": "DFT", 
		 "functional": "B3LYP", 
		 "basiset": "6-31G**", 
		 "properties": { 
			 "R2extent": 12247.4095, 
			 "electric_dipole_moment_norm": 2.74588171085, 
			 "electric_quadrupole_moment_norm": 34.4391261136, 
			 "total_energy": -1710.88785324, 
			 "HOMO_LUMO_gap": 0.18494, 
			 "cosmo_polarized_energy": -25.23, 
			 "cosmo_cavitation_energy": 38.45, 
			 "cosmo_dispersion_energy": -29.22, 
			 "cosmo_repulsion_energy": 2.13, 
			 "cosmo_total_nonelectrostatic_energy": 11.35, 
			 "SMD_solvation_energy": 4.45 
		},
		"coords": [
			{
				"x": -0.605209895,
				"y": -1.8118776051,
				"z": 5.3826575405,
				"element": "O" 
			},
			{
				"x": -1.914624841,
				"y": -2.0208441475,
				"z": 4.4056196586,
				"element": "S" 
			},
			{
				"x": -1.9821640487,
				"y": -3.4304876547,
				"z": 4.0480327337,
				"element": "O" 
			},
			{
				"x": -3.0308316418,
				"y": -1.3386547428,
				"z": 5.0618052362,
				"element": "O" 
			},
			{
				"x": -1.4015680941,
				"y": -1.0926062624,
				"z": 2.9712502164,
				"element": "C" 
			},
			{
				"x": -0.6638380926,
				"y": -1.7310030881,
				"z": 1.9735278073,
				"element": "C" 
			},
			{
				"x": -0.2637974321,
				"y": -0.9996151803,
				"z": 0.8589858732,
				"element": "C" 
			},
			{
				"x": -0.5962931948,
				"y": 0.3600530521,
				"z": 0.7271933784,
				"element": "C" 
			},
			{
				"x": -1.3494513876,
				"y": 0.9714955962,
				"z": 1.7450583928,
				"element": "C" 
			},
			{
				"x": -1.7542792941,
				"y": 0.2534859168,
				"z": 2.8664834847,
				"element": "C" 
			},
			{
				"x": -0.1667593015,
				"y": 1.1324865079,
				"z": -0.4657219537,
				"element": "C" 
			},
			{
				"x": -0.1752728941,
				"y": 0.5442722561,
				"z": -1.7428649703,
				"element": "C" 
			},
			{
				"x": 0.2270410836,
				"y": 1.2624907485,
				"z": -2.8650594016,
				"element": "C" 
			},
			{
				"x": 0.6429295708,
				"y": 2.5852721448,
				"z": -2.7080855369,
				"element": "C" 
			},
			{
				"x": 0.6530297307,
				"y": 3.200843445,
				"z": -1.455799109,
				"element": "C" 
			},
			{
				"x": 0.2503738571,
				"y": 2.4694189946,
				"z": -0.3422293564,
				"element": "C" 
			},
			{
				"x": 1.161708196,
				"y": 3.5135031751,
				"z": -4.140412938,
				"element": "S" 
			},
			{
				"x": 2.7816325973,
				"y": 3.2163541487,
				"z": -4.1204639405,
				"element": "O" 
			},
			{
				"x": 0.966475113,
				"y": 4.9310445381,
				"z": -3.8721334745,
				"element": "O" 
			},
			{
				"x": 0.6421868565,
				"y": 2.8807038754,
				"z": -5.3534901782,
				"element": "O" 
			},
			{
				"x": -0.9513109571,
				"y": -1.5078286495,
				"z": 6.2391435683,
				"element": "H" 
			},
			{
				"x": -0.413943417,
				"y": -2.7815070769,
				"z": 2.0717102606,
				"element": "H" 
			},
			{
				"x": 0.3321120011,
				"y": -1.483803515,
				"z": 0.0920106341,
				"element": "H" 
			},
			{
				"x": -1.6478270822,
				"y": 2.0098867282,
				"z": 1.6425899569,
				"element": "H" 
			},
			{
				"x": -2.3558100783,
				"y": 0.7181646481,
				"z": 3.6398933539,
				"element": "H" 
			},
			{
				"x": -0.5301823059,
				"y": -0.4742676622,
				"z": -1.8628498016,
				"element": "H" 
			},
			{
				"x": 0.197426496,
				"y": 0.8171145662,
				"z": -3.8533335215,
				"element": "H" 
			},
			{
				"x": 0.9676120277,
				"y": 4.2342084358,
				"z": -1.3617756515,
				"element": "H" 
			},
			{
				"x": 0.2803816149,
				"y": 2.9345134652,
				"z": 0.6378727235,
				"element": "H" 
			},
			{
				"x": 3.0134548131,
				"y": 2.9150833419,
				"z": -5.0156149853,
				"element": "H" 
			}
		],
		 "valence_orbital": [ 
			{
				"type": "occ",
				"energy": -0.3131,
				"method": "rhf"
			},
			{
				"type": "occ",
				"energy": -0.30745,
				"method": "rhf"
			},
			{
				"type": "occ",
				"energy": -0.2884,
				"method": "rhf"
			},
			{
				"type": "occ",
				"energy": -0.28799,
				"method": "rhf"
			},
			{
				"type": "occ",
				"energy": -0.26598,
				"method": "rhf"
			},
			{
				"type": "unocc",
				"energy": -0.08104,
				"method": "rhf"
			},
			{
				"type": "unocc",
				"energy": -0.04061,
				"method": "rhf"
			},
			{
				"type": "unocc",
				"energy": -0.03716,
				"method": "rhf"
			},
			{
				"type": "unocc",
				"energy": -0.03265,
				"method": "rhf"
			},
			{
				"type": "unocc",
				"energy": 0.03098,
				"method": "rhf"
			}
		],
		"cosmo_sigma_profile": { 
			"-0.025": 0.0,
			"-0.024": 0.0,
			"-0.023": 0.0,
			"-0.022": 0.0,
			"-0.021": 0.0,
			"-0.02": 0.980709500586,
			"-0.019": 1.97444667685,
			"-0.018": 1.48639490783,
			"-0.017": 1.86337108602,
			"-0.016": 2.11966400262,
			"-0.015": 1.49712701674,
			"-0.014": 1.02868542453,
			"-0.013": 0.920271513941,
			"-0.012": 1.55419254534,
			"-0.011": 2.08633566316,
			"-0.01": 1.13268624636,
			"-0.009": 1.548631947,
			"-0.008": 9.36906794784,
			"-0.007": 18.957549239,
			"-0.006": 16.7568923141,
			"-0.005": 14.9596240376,
			"-0.004": 14.5237993252,
			"-0.003": 13.2373642248,
			"-0.002": 14.8829005572,
			"-0.001": 17.2625603395,
			"0.0": 22.5350991853,
			"0.001": 30.3259531894,
			"0.002": 24.3391843442,
			"0.003": 6.03337829355,
			"0.004": 9.07029156295,
			"0.005": 6.08671208057,
			"0.006": 7.32929717862,
			"0.007": 10.5020404104,
			"0.008": 12.0548591192,
			"0.009": 17.9958207689,
			"0.01": 19.4104036494,
			"0.011": 5.0109806053,
			"0.012": 0.0,
			"0.013": 0.0,
			"0.014": 0.0,
			"0.015": 0.0,
			"0.016": 0.0,
			"0.017": 0.0,
			"0.018": 0.0,
			"0.019": 0.0,
			"0.02": 0.0,
			"0.021": 0.0,
			"0.022": 0.0,
			"0.023": 0.0,
			"0.024": 0.0,
			"0.025": 0.0
		}
	}
}
