{
	 "smiles": "CCOC1=CC(=CC(OCC)=C1OCC)C(=O)N1CCCC(C1)C(O)=O", 
	 "Tm": 457.15, 
	 "num_atms": 53, 
	 "gaussian": { 
		 "optdone": 1, 
		 "sigma_profile": "yes", 
		 "theory": "DFT", 
		 "functional": "B3LYP", 
		 "basiset": "6-31G**", 
		 "properties": { 
			 "R2extent": 13874.0282, 
			 "electric_dipole_moment_norm": 4.62694500183, 
			 "electric_quadrupole_moment_norm": 33.4670279777, 
			 "total_energy": -1246.38619274, 
			 "HOMO_LUMO_gap": 0.18767, 
			 "cosmo_polarized_energy": -24.08, 
			 "cosmo_cavitation_energy": 53.89, 
			 "cosmo_dispersion_energy": -35.84, 
			 "cosmo_repulsion_energy": 2.8, 
			 "cosmo_total_nonelectrostatic_energy": 20.85, 
			 "SMD_solvation_energy": 10.26 
		},
		"coords": [
			{
				"x": 4.1587086527,
				"y": 0.5722374715,
				"z": 1.0930705808,
				"element": "C" 
			},
			{
				"x": 3.6237870594,
				"y": -0.8427838248,
				"z": 0.8997375245,
				"element": "C" 
			},
			{
				"x": 2.3619085464,
				"y": -1.0448436208,
				"z": 1.5439869502,
				"element": "O" 
			},
			{
				"x": 1.2185621481,
				"y": -0.6219757688,
				"z": 0.937294744,
				"element": "C" 
			},
			{
				"x": 1.1498210405,
				"y": -0.016837752,
				"z": -0.3190060829,
				"element": "C" 
			},
			{
				"x": -0.0865435616,
				"y": 0.3604276459,
				"z": -0.8629145882,
				"element": "C" 
			},
			{
				"x": -1.2641932325,
				"y": 0.1211618746,
				"z": -0.1500133521,
				"element": "C" 
			},
			{
				"x": -1.2042686545,
				"y": -0.4837585749,
				"z": 1.1075892123,
				"element": "C" 
			},
			{
				"x": -2.3816612217,
				"y": -0.7435286449,
				"z": 1.7726754174,
				"element": "O" 
			},
			{
				"x": -2.626136733,
				"y": 0.0818319062,
				"z": 2.9289544981,
				"element": "C" 
			},
			{
				"x": -3.95745833,
				"y": -0.3397269062,
				"z": 3.52324214,
				"element": "C" 
			},
			{
				"x": 0.0275395901,
				"y": -0.8647834892,
				"z": 1.6619531291,
				"element": "C" 
			},
			{
				"x": 0.1049895278,
				"y": -1.4221109743,
				"z": 2.9111463476,
				"element": "O" 
			},
			{
				"x": -0.3640958049,
				"y": -2.7838204562,
				"z": 3.0314699065,
				"element": "C" 
			},
			{
				"x": 0.6121700978,
				"y": -3.7899559784,
				"z": 2.4378455187,
				"element": "C" 
			},
			{
				"x": -0.0683384601,
				"y": 0.9210438002,
				"z": -2.2566693479,
				"element": "C" 
			},
			{
				"x": 0.7830924149,
				"y": 0.5448787555,
				"z": -3.0647502461,
				"element": "O" 
			},
			{
				"x": -1.0528165007,
				"y": 1.8196053451,
				"z": -2.6228401858,
				"element": "N" 
			},
			{
				"x": -1.6738381704,
				"y": 2.7923384722,
				"z": -1.7083804959,
				"element": "C" 
			},
			{
				"x": -1.4246576309,
				"y": 4.2398130119,
				"z": -2.2032362442,
				"element": "C" 
			},
			{
				"x": -0.0937736409,
				"y": 4.3240905951,
				"z": -2.9595626675,
				"element": "C" 
			},
			{
				"x": -0.1605764065,
				"y": 3.4627377668,
				"z": -4.2602421082,
				"element": "C" 
			},
			{
				"x": -1.072792427,
				"y": 2.2357463605,
				"z": -4.0232248337,
				"element": "C" 
			},
			{
				"x": -0.7017039796,
				"y": 4.318047902,
				"z": -5.4034624313,
				"element": "C" 
			},
			{
				"x": 0.2238693744,
				"y": 5.0392164583,
				"z": -6.0909591178,
				"element": "O" 
			},
			{
				"x": -1.872427746,
				"y": 4.4271790693,
				"z": -5.6811603212,
				"element": "O" 
			},
			{
				"x": 4.2333499878,
				"y": 0.8056699185,
				"z": 2.1589464388,
				"element": "H" 
			},
			{
				"x": 3.5112877447,
				"y": 1.3176944031,
				"z": 0.623763758,
				"element": "H" 
			},
			{
				"x": 5.1561564778,
				"y": 0.6584977309,
				"z": 0.6491293478,
				"element": "H" 
			},
			{
				"x": 3.5584655394,
				"y": -1.1096695115,
				"z": -0.1622295129,
				"element": "H" 
			},
			{
				"x": 4.2883764078,
				"y": -1.5667175118,
				"z": 1.3795367458,
				"element": "H" 
			},
			{
				"x": 2.0344241639,
				"y": 0.1477954902,
				"z": -0.9200071201,
				"element": "H" 
			},
			{
				"x": -2.2389731594,
				"y": 0.3646209424,
				"z": -0.5562714067,
				"element": "H" 
			},
			{
				"x": -1.8096651351,
				"y": -0.0414496832,
				"z": 3.6489032987,
				"element": "H" 
			},
			{
				"x": -2.652311578,
				"y": 1.1353326707,
				"z": 2.6159108065,
				"element": "H" 
			},
			{
				"x": -3.9261563242,
				"y": -1.3860738393,
				"z": 3.8407613648,
				"element": "H" 
			},
			{
				"x": -4.1927262466,
				"y": 0.2786050182,
				"z": 4.3952818878,
				"element": "H" 
			},
			{
				"x": -4.7618635964,
				"y": -0.227692017,
				"z": 2.7905075457,
				"element": "H" 
			},
			{
				"x": -0.470227703,
				"y": -2.9378071527,
				"z": 4.1093354363,
				"element": "H" 
			},
			{
				"x": -1.3553635957,
				"y": -2.8692531304,
				"z": 2.5735440085,
				"element": "H" 
			},
			{
				"x": 1.5987454868,
				"y": -3.6881746904,
				"z": 2.8969941838,
				"element": "H" 
			},
			{
				"x": 0.7192463294,
				"y": -3.6481884193,
				"z": 1.3584341872,
				"element": "H" 
			},
			{
				"x": 0.2457958813,
				"y": -4.8081314321,
				"z": 2.6101998668,
				"element": "H" 
			},
			{
				"x": -2.7523625928,
				"y": 2.6043703472,
				"z": -1.6224729387,
				"element": "H" 
			},
			{
				"x": -1.2377353517,
				"y": 2.6569544419,
				"z": -0.7180755976,
				"element": "H" 
			},
			{
				"x": -2.2332096533,
				"y": 4.5646170023,
				"z": -2.8666072183,
				"element": "H" 
			},
			{
				"x": -1.4282010064,
				"y": 4.9182668455,
				"z": -1.3438997278,
				"element": "H" 
			},
			{
				"x": 0.1558952108,
				"y": 5.3637330429,
				"z": -3.1977466422,
				"element": "H" 
			},
			{
				"x": 0.7164382731,
				"y": 3.9423168884,
				"z": -2.3280935382,
				"element": "H" 
			},
			{
				"x": 0.8492481964,
				"y": 3.1136598886,
				"z": -4.5057059024,
				"element": "H" 
			},
			{
				"x": -0.7550802224,
				"y": 1.395436596,
				"z": -4.6386484389,
				"element": "H" 
			},
			{
				"x": -2.0987167157,
				"y": 2.5031324452,
				"z": -4.2914206267,
				"element": "H" 
			},
			{
				"x": 1.11279723,
				"y": 4.8169232709,
				"z": -5.7797141523,
				"element": "H" 
			}
		],
		 "valence_orbital": [ 
			{
				"type": "occ",
				"energy": -0.26344,
				"method": "rhf"
			},
			{
				"type": "occ",
				"energy": -0.25452,
				"method": "rhf"
			},
			{
				"type": "occ",
				"energy": -0.23635,
				"method": "rhf"
			},
			{
				"type": "occ",
				"energy": -0.22897,
				"method": "rhf"
			},
			{
				"type": "occ",
				"energy": -0.21807,
				"method": "rhf"
			},
			{
				"type": "unocc",
				"energy": -0.0304,
				"method": "rhf"
			},
			{
				"type": "unocc",
				"energy": 0.00527,
				"method": "rhf"
			},
			{
				"type": "unocc",
				"energy": 0.00664,
				"method": "rhf"
			},
			{
				"type": "unocc",
				"energy": 0.05159,
				"method": "rhf"
			},
			{
				"type": "unocc",
				"energy": 0.05717,
				"method": "rhf"
			}
		],
		"cosmo_sigma_profile": { 
			"-0.025": 0.0,
			"-0.024": 0.0,
			"-0.023": 0.0,
			"-0.022": 0.0,
			"-0.021": 0.0,
			"-0.02": 0.0,
			"-0.019": 0.730594257645,
			"-0.018": 0.615185841634,
			"-0.017": 1.2984446278,
			"-0.016": 0.809109659267,
			"-0.015": 1.440053302,
			"-0.014": 1.20273836833,
			"-0.013": 0.5401047376,
			"-0.012": 0.986429234263,
			"-0.011": 1.6334804219,
			"-0.01": 1.03707576046,
			"-0.009": 1.17292759235,
			"-0.008": 1.02915748455,
			"-0.007": 2.98424762277,
			"-0.006": 6.17824419033,
			"-0.005": 20.1886667098,
			"-0.004": 44.8990445184,
			"-0.003": 55.3939899501,
			"-0.002": 52.8232107066,
			"-0.001": 44.3139195128,
			"0.0": 38.513265677,
			"0.001": 25.4404476154,
			"0.002": 18.5332804435,
			"0.003": 16.0491841916,
			"0.004": 12.0943320863,
			"0.005": 8.23457772653,
			"0.006": 7.6522442328,
			"0.007": 7.78844160141,
			"0.008": 6.08478148821,
			"0.009": 7.00049551323,
			"0.01": 8.26801555837,
			"0.011": 7.99153599127,
			"0.012": 8.41850679674,
			"0.013": 5.69205720908,
			"0.014": 3.98133640523,
			"0.015": 0.405420215914,
			"0.016": 0.0,
			"0.017": 0.0,
			"0.018": 0.0,
			"0.019": 0.0,
			"0.02": 0.0,
			"0.021": 0.0,
			"0.022": 0.0,
			"0.023": 0.0,
			"0.024": 0.0,
			"0.025": 0.0
		}
	}
}
