{
	 "smiles": "COC1=CC=C(C=C1)C(=O)NC(=O)CCl", 
	 "Tm": 434.15, 
	 "num_atms": 25, 
	 "gaussian": { 
		 "optdone": 1, 
		 "sigma_profile": "yes", 
		 "theory": "DFT", 
		 "functional": "B3LYP", 
		 "basiset": "6-31G**", 
		 "properties": { 
			 "R2extent": 5784.6142, 
			 "electric_dipole_moment_norm": 5.74530514246, 
			 "electric_quadrupole_moment_norm": 10.2519575058, 
			 "total_energy": -1127.71917574, 
			 "HOMO_LUMO_gap": 0.17921, 
			 "cosmo_polarized_energy": -15.02, 
			 "cosmo_cavitation_energy": 31.74, 
			 "cosmo_dispersion_energy": -23.12, 
			 "cosmo_repulsion_energy": 1.82, 
			 "cosmo_total_nonelectrostatic_energy": 10.44, 
			 "SMD_solvation_energy": 7.24 
		},
		"coords": [
			{
				"x": -2.6533564818,
				"y": -3.3608718649,
				"z": -2.9475872915,
				"element": "C" 
			},
			{
				"x": -2.3030434036,
				"y": -1.984224425,
				"z": -2.8671619509,
				"element": "O" 
			},
			{
				"x": -1.6857412078,
				"y": -1.5344655097,
				"z": -1.7463151744,
				"element": "C" 
			},
			{
				"x": -1.382998016,
				"y": -0.1621659764,
				"z": -1.7284800207,
				"element": "C" 
			},
			{
				"x": -0.7455313726,
				"y": 0.396051281,
				"z": -0.6318689773,
				"element": "C" 
			},
			{
				"x": -0.3936830405,
				"y": -0.3964372076,
				"z": 0.4768708047,
				"element": "C" 
			},
			{
				"x": -0.7188783746,
				"y": -1.758812737,
				"z": 0.4543975225,
				"element": "C" 
			},
			{
				"x": -1.3520787764,
				"y": -2.3343047011,
				"z": -0.6425955268,
				"element": "C" 
			},
			{
				"x": 0.2805115645,
				"y": 0.1234162237,
				"z": 1.6993379966,
				"element": "C" 
			},
			{
				"x": 0.2985560021,
				"y": -0.4971756537,
				"z": 2.7523279423,
				"element": "O" 
			},
			{
				"x": 0.920680939,
				"y": 1.3625526149,
				"z": 1.546141335,
				"element": "N" 
			},
			{
				"x": 1.5723837956,
				"y": 2.1594682827,
				"z": 2.4899283259,
				"element": "C" 
			},
			{
				"x": 2.2672506106,
				"y": 3.0842848638,
				"z": 2.112025971,
				"element": "O" 
			},
			{
				"x": 1.3639284708,
				"y": 1.8689105023,
				"z": 3.9669114752,
				"element": "C" 
			},
			{
				"x": -0.2897103142,
				"y": 2.4078265504,
				"z": 4.4815709217,
				"element": "Cl" 
			},
			{
				"x": -3.3572689927,
				"y": -3.6430965208,
				"z": -2.1553589716,
				"element": "H" 
			},
			{
				"x": -1.7672926488,
				"y": -4.0048556756,
				"z": -2.8919607466,
				"element": "H" 
			},
			{
				"x": -3.1325008744,
				"y": -3.4904115471,
				"z": -3.91858569,
				"element": "H" 
			},
			{
				"x": -1.6684621554,
				"y": 0.441868453,
				"z": -2.5828994063,
				"element": "H" 
			},
			{
				"x": -0.5604661469,
				"y": 1.4663825425,
				"z": -0.6343320391,
				"element": "H" 
			},
			{
				"x": -0.4631725611,
				"y": -2.3618919544,
				"z": 1.3189246759,
				"element": "H" 
			},
			{
				"x": -1.5814839779,
				"y": -3.3928468341,
				"z": -0.6307640703,
				"element": "H" 
			},
			{
				"x": 1.0752780318,
				"y": 1.7017754761,
				"z": 0.6051518775,
				"element": "H" 
			},
			{
				"x": 2.0869957832,
				"y": 2.4623006113,
				"z": 4.5224999983,
				"element": "H" 
			},
			{
				"x": 1.4289831473,
				"y": 0.8061232058,
				"z": 4.1873210192,
				"element": "H" 
			}
		],
		 "valence_orbital": [ 
			{
				"type": "occ",
				"energy": -0.29236,
				"method": "rhf"
			},
			{
				"type": "occ",
				"energy": -0.27858,
				"method": "rhf"
			},
			{
				"type": "occ",
				"energy": -0.27387,
				"method": "rhf"
			},
			{
				"type": "occ",
				"energy": -0.26882,
				"method": "rhf"
			},
			{
				"type": "occ",
				"energy": -0.24138,
				"method": "rhf"
			},
			{
				"type": "unocc",
				"energy": -0.06217,
				"method": "rhf"
			},
			{
				"type": "unocc",
				"energy": -0.02371,
				"method": "rhf"
			},
			{
				"type": "unocc",
				"energy": -0.0216,
				"method": "rhf"
			},
			{
				"type": "unocc",
				"energy": 0.04044,
				"method": "rhf"
			},
			{
				"type": "unocc",
				"energy": 0.06853,
				"method": "rhf"
			}
		],
		"cosmo_sigma_profile": { 
			"-0.025": 0.0,
			"-0.024": 0.0,
			"-0.023": 0.0,
			"-0.022": 0.0,
			"-0.021": 0.0,
			"-0.02": 0.0,
			"-0.019": 0.0,
			"-0.018": 0.0,
			"-0.017": 0.0,
			"-0.016": 0.233247553434,
			"-0.015": 0.811076740215,
			"-0.014": 1.14121545515,
			"-0.013": 0.800273784419,
			"-0.012": 1.34439043873,
			"-0.011": 1.28470066607,
			"-0.01": 1.45275241764,
			"-0.009": 1.98236041232,
			"-0.008": 3.84694345531,
			"-0.007": 9.27188665444,
			"-0.006": 19.0183949881,
			"-0.005": 19.95154347,
			"-0.004": 17.9512277919,
			"-0.003": 17.0918792502,
			"-0.002": 12.0144150488,
			"-0.001": 13.2338846124,
			"0.0": 14.5242646923,
			"0.001": 15.6118639357,
			"0.002": 16.9735245466,
			"0.003": 21.657616851,
			"0.004": 15.5489852702,
			"0.005": 12.0581076315,
			"0.006": 7.90621673375,
			"0.007": 4.60207940676,
			"0.008": 4.48650444095,
			"0.009": 4.7259585855,
			"0.01": 5.59106835726,
			"0.011": 7.37278047368,
			"0.012": 3.15477890072,
			"0.013": 0.115245821005,
			"0.014": 0.0,
			"0.015": 0.0,
			"0.016": 0.0,
			"0.017": 0.0,
			"0.018": 0.0,
			"0.019": 0.0,
			"0.02": 0.0,
			"0.021": 0.0,
			"0.022": 0.0,
			"0.023": 0.0,
			"0.024": 0.0,
			"0.025": 0.0
		}
	}
}
