{
	 "smiles": "CC1=C(C)C2=C(N1)C=CC(CN)=C2", 
	 "Tm": 423.15, 
	 "num_atms": 27, 
	 "gaussian": { 
		 "optdone": 1, 
		 "sigma_profile": "yes", 
		 "theory": "DFT", 
		 "functional": "B3LYP", 
		 "basiset": "6-31G**", 
		 "properties": { 
			 "R2extent": 3306.2105, 
			 "electric_dipole_moment_norm": 3.97734832897, 
			 "electric_quadrupole_moment_norm": 10.6014131464, 
			 "total_energy": -537.128327315, 
			 "HOMO_LUMO_gap": 0.18879, 
			 "cosmo_polarized_energy": -11.57, 
			 "cosmo_cavitation_energy": 29.69, 
			 "cosmo_dispersion_energy": -21.51, 
			 "cosmo_repulsion_energy": 1.72, 
			 "cosmo_total_nonelectrostatic_energy": 9.91, 
			 "SMD_solvation_energy": 3.24 
		},
		"coords": [
			{
				"x": -1.6270515155,
				"y": -1.6512503844,
				"z": -2.2598434982,
				"element": "C" 
			},
			{
				"x": -0.6519164815,
				"y": -0.8412402649,
				"z": -1.4675924029,
				"element": "C" 
			},
			{
				"x": -0.565888523,
				"y": -0.5992461404,
				"z": -0.1139172845,
				"element": "C" 
			},
			{
				"x": -1.4668759581,
				"y": -1.1071533268,
				"z": 0.9714043306,
				"element": "C" 
			},
			{
				"x": 0.5791511848,
				"y": 0.2567389638,
				"z": 0.0840006287,
				"element": "C" 
			},
			{
				"x": 1.1525741118,
				"y": 0.5014044199,
				"z": -1.1920211411,
				"element": "C" 
			},
			{
				"x": 0.3845966249,
				"y": -0.1764230766,
				"z": -2.1152604596,
				"element": "N" 
			},
			{
				"x": 2.2926857139,
				"y": 1.2935839606,
				"z": -1.3524989223,
				"element": "C" 
			},
			{
				"x": 2.8563652906,
				"y": 1.8487248646,
				"z": -0.208849537,
				"element": "C" 
			},
			{
				"x": 2.3106389967,
				"y": 1.6331547229,
				"z": 1.078688664,
				"element": "C" 
			},
			{
				"x": 2.9284848562,
				"y": 2.3176706196,
				"z": 2.2858281383,
				"element": "C" 
			},
			{
				"x": 2.5077575413,
				"y": 3.7125165905,
				"z": 2.5186086494,
				"element": "N" 
			},
			{
				"x": 1.1759647228,
				"y": 0.8336137282,
				"z": 1.2171238052,
				"element": "C" 
			},
			{
				"x": -2.1629822905,
				"y": -1.0363900179,
				"z": -2.9942820695,
				"element": "H" 
			},
			{
				"x": -2.3721747854,
				"y": -2.1082098417,
				"z": -1.6060859053,
				"element": "H" 
			},
			{
				"x": -1.1294612461,
				"y": -2.4596266686,
				"z": -2.8108294387,
				"element": "H" 
			},
			{
				"x": -2.2655175624,
				"y": -1.7417253926,
				"z": 0.5771487602,
				"element": "H" 
			},
			{
				"x": -1.9437766875,
				"y": -0.2837145539,
				"z": 1.5178230869,
				"element": "H" 
			},
			{
				"x": -0.9128330774,
				"y": -1.7002388714,
				"z": 1.7097753394,
				"element": "H" 
			},
			{
				"x": 0.5484850472,
				"y": -0.1983559747,
				"z": -3.1084708674,
				"element": "H" 
			},
			{
				"x": 2.7304832556,
				"y": 1.4650155799,
				"z": -2.3323469837,
				"element": "H" 
			},
			{
				"x": 3.7495139037,
				"y": 2.4625171092,
				"z": -0.3047062706,
				"element": "H" 
			},
			{
				"x": 2.6918618625,
				"y": 1.7474671988,
				"z": 3.1915831687,
				"element": "H" 
			},
			{
				"x": 4.0213562972,
				"y": 2.3188427856,
				"z": 2.1949137627,
				"element": "H" 
			},
			{
				"x": 2.733311119,
				"y": 4.2648546647,
				"z": 1.6926514574,
				"element": "H" 
			},
			{
				"x": 1.491153492,
				"y": 3.7375839641,
				"z": 2.5836361429,
				"element": "H" 
			},
			{
				"x": 0.7584941071,
				"y": 0.6555853414,
				"z": 2.2062188464,
				"element": "H" 
			}
		],
		 "valence_orbital": [ 
			{
				"type": "occ",
				"energy": -0.31505,
				"method": "rhf"
			},
			{
				"type": "occ",
				"energy": -0.26207,
				"method": "rhf"
			},
			{
				"type": "occ",
				"energy": -0.232,
				"method": "rhf"
			},
			{
				"type": "occ",
				"energy": -0.20303,
				"method": "rhf"
			},
			{
				"type": "occ",
				"energy": -0.19181,
				"method": "rhf"
			},
			{
				"type": "unocc",
				"energy": -0.00302,
				"method": "rhf"
			},
			{
				"type": "unocc",
				"energy": 0.02946,
				"method": "rhf"
			},
			{
				"type": "unocc",
				"energy": 0.07313,
				"method": "rhf"
			},
			{
				"type": "unocc",
				"energy": 0.08012,
				"method": "rhf"
			},
			{
				"type": "unocc",
				"energy": 0.09672,
				"method": "rhf"
			}
		],
		"cosmo_sigma_profile": { 
			"-0.025": 0.0,
			"-0.024": 0.0,
			"-0.023": 0.0,
			"-0.022": 0.0,
			"-0.021": 0.0,
			"-0.02": 0.0,
			"-0.019": 0.0,
			"-0.018": 0.0,
			"-0.017": 0.0,
			"-0.016": 0.0,
			"-0.015": 0.621011278763,
			"-0.014": 1.21115634328,
			"-0.013": 1.23247561018,
			"-0.012": 1.07458222044,
			"-0.011": 0.798219705248,
			"-0.01": 1.15893043821,
			"-0.009": 3.1603869038,
			"-0.008": 3.66019969507,
			"-0.007": 3.74379475082,
			"-0.006": 6.38972771113,
			"-0.005": 11.0044633534,
			"-0.004": 18.7856127359,
			"-0.003": 24.2519839538,
			"-0.002": 21.2786548629,
			"-0.001": 21.9813331924,
			"0.0": 21.0478738652,
			"0.001": 16.0630458527,
			"0.002": 10.4629903491,
			"0.003": 9.55903732236,
			"0.004": 7.48116666046,
			"0.005": 11.8203304259,
			"0.006": 13.0268718597,
			"0.007": 11.7455258585,
			"0.008": 3.62349118565,
			"0.009": 0.617537154534,
			"0.01": 0.707901737238,
			"0.011": 0.865306192858,
			"0.012": 0.497804502235,
			"0.013": 1.00673409609,
			"0.014": 1.01463291169,
			"0.015": 0.270016580477,
			"0.016": 0.439210464637,
			"0.017": 1.02715431158,
			"0.018": 0.312007332677,
			"0.019": 0.889088692544,
			"0.02": 0.505597302994,
			"0.021": 0.0560726195725,
			"0.022": 0.0,
			"0.023": 0.0,
			"0.024": 0.0,
			"0.025": 0.0
		}
	}
}
