{
	 "smiles": "CCOC(=O)CNC(=O)OCC(F)(F)F", 
	 "Tm": 312.15, 
	 "num_atms": 25, 
	 "gaussian": { 
		 "optdone": 1, 
		 "sigma_profile": "yes", 
		 "theory": "DFT", 
		 "functional": "B3LYP", 
		 "basiset": "6-31G**", 
		 "properties": { 
			 "R2extent": 3872.7741, 
			 "electric_dipole_moment_norm": 3.76662869022, 
			 "electric_quadrupole_moment_norm": 9.90858746391, 
			 "total_energy": -927.974922296, 
			 "HOMO_LUMO_gap": 0.27172, 
			 "cosmo_polarized_energy": -14.67, 
			 "cosmo_cavitation_energy": 32.08, 
			 "cosmo_dispersion_energy": -20.88, 
			 "cosmo_repulsion_energy": 1.63, 
			 "cosmo_total_nonelectrostatic_energy": 12.83, 
			 "SMD_solvation_energy": 7.39 
		},
		"coords": [
			{
				"x": 2.7961706267,
				"y": 0.1765098761,
				"z": -1.5838257493,
				"element": "C" 
			},
			{
				"x": 1.2911136827,
				"y": 0.3260704688,
				"z": -1.7378835589,
				"element": "C" 
			},
			{
				"x": 0.7542294296,
				"y": 1.3259320272,
				"z": -0.830423511,
				"element": "O" 
			},
			{
				"x": 0.4938729814,
				"y": 0.9141038537,
				"z": 0.4221124937,
				"element": "C" 
			},
			{
				"x": 0.7188492185,
				"y": -0.1925954652,
				"z": 0.8561531522,
				"element": "O" 
			},
			{
				"x": -0.1369977033,
				"y": 2.0518567405,
				"z": 1.2313842033,
				"element": "C" 
			},
			{
				"x": -0.7573330615,
				"y": 1.5936702492,
				"z": 2.4572937078,
				"element": "N" 
			},
			{
				"x": -1.7787518624,
				"y": 0.682474496,
				"z": 2.4656172304,
				"element": "C" 
			},
			{
				"x": -2.160437472,
				"y": 0.0598698725,
				"z": 3.4326181443,
				"element": "O" 
			},
			{
				"x": -2.3554379385,
				"y": 0.621462714,
				"z": 1.2192714032,
				"element": "O" 
			},
			{
				"x": -3.2990224053,
				"y": -0.4190150781,
				"z": 1.0151928233,
				"element": "C" 
			},
			{
				"x": -2.6488799618,
				"y": -1.54327462,
				"z": 0.2237748631,
				"element": "C" 
			},
			{
				"x": -1.6639381974,
				"y": -2.1378268145,
				"z": 0.9123359655,
				"element": "F" 
			},
			{
				"x": -3.5809735428,
				"y": -2.4746423747,
				"z": -0.0757094771,
				"element": "F" 
			},
			{
				"x": -2.1261461344,
				"y": -1.093900433,
				"z": -0.9382770044,
				"element": "F" 
			},
			{
				"x": 3.1757738322,
				"y": -0.5228227232,
				"z": -2.33614999,
				"element": "H" 
			},
			{
				"x": 3.0454781581,
				"y": -0.2159784925,
				"z": -0.5953676032,
				"element": "H" 
			},
			{
				"x": 3.3004734551,
				"y": 1.1372078115,
				"z": -1.7249729104,
				"element": "H" 
			},
			{
				"x": 1.0238444227,
				"y": 0.6981936729,
				"z": -2.7294357913,
				"element": "H" 
			},
			{
				"x": 0.7717967773,
				"y": -0.617146295,
				"z": -1.5527562413,
				"element": "H" 
			},
			{
				"x": 0.6410140379,
				"y": 2.7793190595,
				"z": 1.4831663309,
				"element": "H" 
			},
			{
				"x": -0.8643100608,
				"y": 2.5670363072,
				"z": 0.6008206284,
				"element": "H" 
			},
			{
				"x": -0.1830948422,
				"y": 1.5326950543,
				"z": 3.2853250552,
				"element": "H" 
			},
			{
				"x": -3.6571727712,
				"y": -0.8095579321,
				"z": 1.9697018025,
				"element": "H" 
			},
			{
				"x": -4.1271206684,
				"y": -0.0128419753,
				"z": 0.4308340329,
				"element": "H" 
			}
		],
		 "valence_orbital": [ 
			{
				"type": "occ",
				"energy": -0.31163,
				"method": "rhf"
			},
			{
				"type": "occ",
				"energy": -0.30561,
				"method": "rhf"
			},
			{
				"type": "occ",
				"energy": -0.28866,
				"method": "rhf"
			},
			{
				"type": "occ",
				"energy": -0.28569,
				"method": "rhf"
			},
			{
				"type": "occ",
				"energy": -0.26687,
				"method": "rhf"
			},
			{
				"type": "unocc",
				"energy": 0.00485,
				"method": "rhf"
			},
			{
				"type": "unocc",
				"energy": 0.03778,
				"method": "rhf"
			},
			{
				"type": "unocc",
				"energy": 0.07188,
				"method": "rhf"
			},
			{
				"type": "unocc",
				"energy": 0.10389,
				"method": "rhf"
			},
			{
				"type": "unocc",
				"energy": 0.10572,
				"method": "rhf"
			}
		],
		"cosmo_sigma_profile": { 
			"-0.025": 0.0,
			"-0.024": 0.0,
			"-0.023": 0.0,
			"-0.022": 0.0,
			"-0.021": 0.0,
			"-0.02": 0.0,
			"-0.019": 0.0,
			"-0.018": 0.0,
			"-0.017": 0.0,
			"-0.016": 0.0,
			"-0.015": 1.11137943492,
			"-0.014": 1.4241167328,
			"-0.013": 0.895116054414,
			"-0.012": 1.19242142898,
			"-0.011": 1.45085433002,
			"-0.01": 1.29671635529,
			"-0.009": 6.14083791705,
			"-0.008": 6.28197637191,
			"-0.007": 6.72256567332,
			"-0.006": 9.48540363703,
			"-0.005": 10.0831199844,
			"-0.004": 15.9727139339,
			"-0.003": 15.7630280265,
			"-0.002": 15.0358385431,
			"-0.001": 17.2353317208,
			"0.0": 20.672917242,
			"0.001": 27.0908364567,
			"0.002": 28.1976885996,
			"0.003": 22.1258687525,
			"0.004": 8.1899789248,
			"0.005": 6.78067851264,
			"0.006": 5.47942360658,
			"0.007": 4.03781035993,
			"0.008": 3.36394857438,
			"0.009": 3.9784643877,
			"0.01": 4.21737506372,
			"0.011": 4.22380417066,
			"0.012": 4.62236703302,
			"0.013": 0.858161068426,
			"0.014": 0.0,
			"0.015": 0.0,
			"0.016": 0.0,
			"0.017": 0.0,
			"0.018": 0.0,
			"0.019": 0.0,
			"0.02": 0.0,
			"0.021": 0.0,
			"0.022": 0.0,
			"0.023": 0.0,
			"0.024": 0.0,
			"0.025": 0.0
		}
	}
}
