{
	 "smiles": "CCOC(=O)OC1=C(OC)C=C(C=C1OC)C(=O)OC1CC2CN3CCC4=C(NC5=C4C=CC(OC)=C5)C3CC2C(C1OC)C(=O)OC", 
	 "Tm": 450.15, 
	 "num_atms": 90, 
	 "gaussian": { 
		 "optdone": 1, 
		 "sigma_profile": "yes", 
		 "theory": "DFT", 
		 "functional": "B3LYP", 
		 "basiset": "6-31G**", 
		 "properties": { 
			 "R2extent": 48469.9697, 
			 "electric_dipole_moment_norm": 6.2226331171, 
			 "electric_quadrupole_moment_norm": 52.0989848998, 
			 "total_energy": -2295.9816837, 
			 "HOMO_LUMO_gap": 0.13147, 
			 "cosmo_polarized_energy": -33.52, 
			 "cosmo_cavitation_energy": 89.53, 
			 "cosmo_dispersion_energy": -57.74, 
			 "cosmo_repulsion_energy": 4.29, 
			 "cosmo_total_nonelectrostatic_energy": 36.08, 
			 "SMD_solvation_energy": 17.51 
		},
		"coords": [
			{
				"x": -9.7435213149,
				"y": -3.3638770523,
				"z": -2.1395192961,
				"element": "C" 
			},
			{
				"x": -9.7906056948,
				"y": -2.8077199168,
				"z": -0.7255242413,
				"element": "C" 
			},
			{
				"x": -8.5894102024,
				"y": -3.1432006585,
				"z": 0.0132425075,
				"element": "O" 
			},
			{
				"x": -7.5483817844,
				"y": -2.3288232994,
				"z": -0.1847926567,
				"element": "C" 
			},
			{
				"x": -7.5071778625,
				"y": -1.3486342473,
				"z": -0.8858389303,
				"element": "O" 
			},
			{
				"x": -6.5267065211,
				"y": -2.8101985197,
				"z": 0.5777697705,
				"element": "O" 
			},
			{
				"x": -5.3206660611,
				"y": -2.1275321058,
				"z": 0.5078833512,
				"element": "C" 
			},
			{
				"x": -4.4806711644,
				"y": -2.3092810111,
				"z": -0.6060262336,
				"element": "C" 
			},
			{
				"x": -4.9642890799,
				"y": -3.1261279971,
				"z": -1.5773633693,
				"element": "O" 
			},
			{
				"x": -4.1966147277,
				"y": -3.2797747758,
				"z": -2.7634854447,
				"element": "C" 
			},
			{
				"x": -3.2466684237,
				"y": -1.6583232395,
				"z": -0.6412260412,
				"element": "C" 
			},
			{
				"x": -2.8652998655,
				"y": -0.8372945721,
				"z": 0.4315648692,
				"element": "C" 
			},
			{
				"x": -3.7007394516,
				"y": -0.6653664422,
				"z": 1.5363774542,
				"element": "C" 
			},
			{
				"x": -4.9371011395,
				"y": -1.3119299808,
				"z": 1.5763899426,
				"element": "C" 
			},
			{
				"x": -5.7804990458,
				"y": -1.0881267489,
				"z": 2.6320073974,
				"element": "O" 
			},
			{
				"x": -5.9707459314,
				"y": -2.1935596146,
				"z": 3.5230084214,
				"element": "C" 
			},
			{
				"x": -1.5593208936,
				"y": -0.1172095348,
				"z": 0.4343073277,
				"element": "C" 
			},
			{
				"x": -1.2225922975,
				"y": 0.6796899432,
				"z": 1.2898948017,
				"element": "O" 
			},
			{
				"x": -0.7871092363,
				"y": -0.4582360604,
				"z": -0.6256760671,
				"element": "O" 
			},
			{
				"x": 0.4812818618,
				"y": 0.2235888045,
				"z": -0.7674649382,
				"element": "C" 
			},
			{
				"x": 0.2982965997,
				"y": 1.456753375,
				"z": -1.6506281284,
				"element": "C" 
			},
			{
				"x": 1.6296318568,
				"y": 2.2070002645,
				"z": -1.9629188759,
				"element": "C" 
			},
			{
				"x": 1.7281305482,
				"y": 3.6447889495,
				"z": -1.389699811,
				"element": "C" 
			},
			{
				"x": 2.1126900872,
				"y": 3.7799755354,
				"z": 0.0069941854,
				"element": "N" 
			},
			{
				"x": 1.0613353513,
				"y": 3.6191727361,
				"z": 1.0204422578,
				"element": "C" 
			},
			{
				"x": 1.4955234832,
				"y": 4.2697855317,
				"z": 2.3449136167,
				"element": "C" 
			},
			{
				"x": 2.8836924699,
				"y": 3.8139384762,
				"z": 2.6837248707,
				"element": "C" 
			},
			{
				"x": 3.7133302358,
				"y": 3.2842305536,
				"z": 1.7326219617,
				"element": "C" 
			},
			{
				"x": 4.9300299085,
				"y": 2.9424370304,
				"z": 2.3122782946,
				"element": "N" 
			},
			{
				"x": 4.8947102058,
				"y": 3.2644592936,
				"z": 3.6548744948,
				"element": "C" 
			},
			{
				"x": 3.6147382516,
				"y": 3.8181819798,
				"z": 3.9253186215,
				"element": "C" 
			},
			{
				"x": 3.3306586119,
				"y": 4.2253237467,
				"z": 5.2413584701,
				"element": "C" 
			},
			{
				"x": 4.2940672426,
				"y": 4.0795147877,
				"z": 6.225309863,
				"element": "C" 
			},
			{
				"x": 5.5620527354,
				"y": 3.526008313,
				"z": 5.9286258674,
				"element": "C" 
			},
			{
				"x": 6.4161236325,
				"y": 3.4420475688,
				"z": 6.9979084566,
				"element": "O" 
			},
			{
				"x": 7.7019020454,
				"y": 2.8943140637,
				"z": 6.7811257138,
				"element": "C" 
			},
			{
				"x": 5.8823914303,
				"y": 3.1086669582,
				"z": 4.6373508716,
				"element": "C" 
			},
			{
				"x": 3.3743060493,
				"y": 3.0846113268,
				"z": 0.2873862635,
				"element": "C" 
			},
			{
				"x": 3.3373400124,
				"y": 1.584053589,
				"z": -0.1107536,
				"element": "C" 
			},
			{
				"x": 2.9013772232,
				"y": 1.3986617618,
				"z": -1.5797144403,
				"element": "C" 
			},
			{
				"x": 2.6960491254,
				"y": -0.0798245516,
				"z": -1.9984130032,
				"element": "C" 
			},
			{
				"x": 1.4982081692,
				"y": -0.7923565536,
				"z": -1.3290313368,
				"element": "C" 
			},
			{
				"x": 0.9247161071,
				"y": -1.6248187975,
				"z": -2.3354958152,
				"element": "O" 
			},
			{
				"x": 0.5726859083,
				"y": -2.927094784,
				"z": -1.8966117363,
				"element": "C" 
			},
			{
				"x": 3.9654157739,
				"y": -0.9075213356,
				"z": -1.8483935995,
				"element": "C" 
			},
			{
				"x": 4.1300612178,
				"y": -1.8378960351,
				"z": -1.0869826817,
				"element": "O" 
			},
			{
				"x": 4.928623513,
				"y": -0.4638023434,
				"z": -2.6876906458,
				"element": "O" 
			},
			{
				"x": 6.1762755657,
				"y": -1.1749139483,
				"z": -2.6273036693,
				"element": "C" 
			},
			{
				"x": -8.9377242177,
				"y": -2.8942300693,
				"z": -2.7088282966,
				"element": "H" 
			},
			{
				"x": -9.587224572,
				"y": -4.4464162633,
				"z": -2.1270322623,
				"element": "H" 
			},
			{
				"x": -10.6903409796,
				"y": -3.1576914494,
				"z": -2.6495898826,
				"element": "H" 
			},
			{
				"x": -9.9096932248,
				"y": -1.7216479402,
				"z": -0.7287698746,
				"element": "H" 
			},
			{
				"x": -10.595068488,
				"y": -3.2595386976,
				"z": -0.1410747241,
				"element": "H" 
			},
			{
				"x": -3.2198069199,
				"y": -3.7335671332,
				"z": -2.554735068,
				"element": "H" 
			},
			{
				"x": -4.7726604016,
				"y": -3.9455327442,
				"z": -3.4072485736,
				"element": "H" 
			},
			{
				"x": -4.0478883253,
				"y": -2.3194432198,
				"z": -3.2716121841,
				"element": "H" 
			},
			{
				"x": -2.5819036828,
				"y": -1.7624065109,
				"z": -1.4871088899,
				"element": "H" 
			},
			{
				"x": -3.4007612832,
				"y": -0.0213373933,
				"z": 2.3539731909,
				"element": "H" 
			},
			{
				"x": -5.0170718589,
				"y": -2.5023764575,
				"z": 3.9692044726,
				"element": "H" 
			},
			{
				"x": -6.6367781984,
				"y": -1.8347855636,
				"z": 4.3098558621,
				"element": "H" 
			},
			{
				"x": -6.4312922144,
				"y": -3.0458678851,
				"z": 3.0143197036,
				"element": "H" 
			},
			{
				"x": 0.7933300813,
				"y": 0.5263435382,
				"z": 0.2322976733,
				"element": "H" 
			},
			{
				"x": -0.1626355057,
				"y": 1.1196163126,
				"z": -2.5853159289,
				"element": "H" 
			},
			{
				"x": -0.4200048233,
				"y": 2.1263997738,
				"z": -1.167383744,
				"element": "H" 
			},
			{
				"x": 1.6669413307,
				"y": 2.3236715811,
				"z": -3.0539568878,
				"element": "H" 
			},
			{
				"x": 2.4856897635,
				"y": 4.1776352729,
				"z": -1.9852965108,
				"element": "H" 
			},
			{
				"x": 0.780267134,
				"y": 4.1728706691,
				"z": -1.5439690357,
				"element": "H" 
			},
			{
				"x": 0.7855986146,
				"y": 2.5700018131,
				"z": 1.2149274765,
				"element": "H" 
			},
			{
				"x": 0.1618001546,
				"y": 4.1137179506,
				"z": 0.6390669379,
				"element": "H" 
			},
			{
				"x": 1.4582202489,
				"y": 5.3636920714,
				"z": 2.2480920038,
				"element": "H" 
			},
			{
				"x": 0.7829307292,
				"y": 3.9941008359,
				"z": 3.1323202485,
				"element": "H" 
			},
			{
				"x": 5.721468243,
				"y": 2.5524831929,
				"z": 1.8277681766,
				"element": "H" 
			},
			{
				"x": 2.3631797801,
				"y": 4.6527062856,
				"z": 5.4898869962,
				"element": "H" 
			},
			{
				"x": 4.1049253529,
				"y": 4.3845248157,
				"z": 7.2490847525,
				"element": "H" 
			},
			{
				"x": 8.2799675284,
				"y": 3.4844991261,
				"z": 6.0566153023,
				"element": "H" 
			},
			{
				"x": 8.2105298356,
				"y": 2.9175762765,
				"z": 7.7466879648,
				"element": "H" 
			},
			{
				"x": 7.6483297183,
				"y": 1.8550985786,
				"z": 6.4283629134,
				"element": "H" 
			},
			{
				"x": 6.8480540101,
				"y": 2.6814059065,
				"z": 4.3937960614,
				"element": "H" 
			},
			{
				"x": 4.1431623451,
				"y": 3.570045235,
				"z": -0.3395718968,
				"element": "H" 
			},
			{
				"x": 2.6774118829,
				"y": 1.0593321824,
				"z": 0.5856733074,
				"element": "H" 
			},
			{
				"x": 4.3330128999,
				"y": 1.1422224327,
				"z": 0.0289063582,
				"element": "H" 
			},
			{
				"x": 3.7193547454,
				"y": 1.7884228686,
				"z": -2.198847775,
				"element": "H" 
			},
			{
				"x": 2.4685060526,
				"y": -0.064907201,
				"z": -3.0714117985,
				"element": "H" 
			},
			{
				"x": 1.8645671019,
				"y": -1.4165212816,
				"z": -0.5063734777,
				"element": "H" 
			},
			{
				"x": 1.4423537451,
				"y": -3.455972651,
				"z": -1.4818829919,
				"element": "H" 
			},
			{
				"x": 0.2195048479,
				"y": -3.4692775445,
				"z": -2.7785615192,
				"element": "H" 
			},
			{
				"x": -0.2259431987,
				"y": -2.9092842785,
				"z": -1.1447269369,
				"element": "H" 
			},
			{
				"x": 6.031371619,
				"y": -2.2267521999,
				"z": -2.885773313,
				"element": "H" 
			},
			{
				"x": 6.8279672016,
				"y": -0.6889170817,
				"z": -3.3532775083,
				"element": "H" 
			},
			{
				"x": 6.6068284026,
				"y": -1.116753617,
				"z": -1.6244154124,
				"element": "H" 
			}
		],
		 "valence_orbital": [ 
			{
				"type": "occ",
				"energy": -0.24298,
				"method": "rhf"
			},
			{
				"type": "occ",
				"energy": -0.22891,
				"method": "rhf"
			},
			{
				"type": "occ",
				"energy": -0.2045,
				"method": "rhf"
			},
			{
				"type": "occ",
				"energy": -0.1961,
				"method": "rhf"
			},
			{
				"type": "occ",
				"energy": -0.17706,
				"method": "rhf"
			},
			{
				"type": "unocc",
				"energy": -0.04559,
				"method": "rhf"
			},
			{
				"type": "unocc",
				"energy": 0.00334,
				"method": "rhf"
			},
			{
				"type": "unocc",
				"energy": 0.00388,
				"method": "rhf"
			},
			{
				"type": "unocc",
				"energy": 0.00797,
				"method": "rhf"
			},
			{
				"type": "unocc",
				"energy": 0.03992,
				"method": "rhf"
			}
		],
		"cosmo_sigma_profile": { 
			"-0.025": 0.0,
			"-0.024": 0.0,
			"-0.023": 0.0,
			"-0.022": 0.0,
			"-0.021": 0.0,
			"-0.02": 0.0,
			"-0.019": 0.000625046376559,
			"-0.018": 0.0179040541715,
			"-0.017": 0.0350695120413,
			"-0.016": 0.016802126196,
			"-0.015": 0.587681193676,
			"-0.014": 1.350256482,
			"-0.013": 0.994789435299,
			"-0.012": 1.50863982633,
			"-0.011": 1.64004369529,
			"-0.01": 1.40329171091,
			"-0.009": 1.82376267181,
			"-0.008": 1.69941087536,
			"-0.007": 5.43427192414,
			"-0.006": 23.753553332,
			"-0.005": 51.8287625403,
			"-0.004": 77.1631915311,
			"-0.003": 90.9424511146,
			"-0.002": 72.3520264252,
			"-0.001": 57.0240747563,
			"0.0": 49.0052841068,
			"0.001": 35.3420617067,
			"0.002": 37.5495461504,
			"0.003": 28.5879077675,
			"0.004": 23.7871550292,
			"0.005": 27.7734387066,
			"0.006": 30.788386389,
			"0.007": 25.423140679,
			"0.008": 12.0461770925,
			"0.009": 11.9145249073,
			"0.01": 11.6793897851,
			"0.011": 13.4412383375,
			"0.012": 5.50001249338,
			"0.013": 0.533647397864,
			"0.014": 0.770562396472,
			"0.015": 0.130950535581,
			"0.016": 0.0,
			"0.017": 0.0,
			"0.018": 0.0,
			"0.019": 0.0,
			"0.02": 0.0,
			"0.021": 0.0,
			"0.022": 0.0,
			"0.023": 0.0,
			"0.024": 0.0,
			"0.025": 0.0
		}
	}
}
