{
	 "smiles": "CCN(CC)CCN1C=NC2=C1C(=O)N(C)C(=O)N2C", 
	 "Tm": 348.15, 
	 "num_atms": 41, 
	 "gaussian": { 
		 "optdone": 1, 
		 "sigma_profile": "yes", 
		 "theory": "DFT", 
		 "functional": "B3LYP", 
		 "basiset": "6-31G**", 
		 "properties": { 
			 "R2extent": 7191.4548, 
			 "electric_dipole_moment_norm": 4.38632455935, 
			 "electric_quadrupole_moment_norm": 8.47842297187, 
			 "total_energy": -932.292463144, 
			 "HOMO_LUMO_gap": 0.18701, 
			 "cosmo_polarized_energy": -14.62, 
			 "cosmo_cavitation_energy": 42.51, 
			 "cosmo_dispersion_energy": -28.39, 
			 "cosmo_repulsion_energy": 2.17, 
			 "cosmo_total_nonelectrostatic_energy": 16.29, 
			 "SMD_solvation_energy": 6.49 
		},
		"coords": [
			{
				"x": 1.0330564558,
				"y": -0.769995618,
				"z": 2.9103563029,
				"element": "C" 
			},
			{
				"x": 2.3027217624,
				"y": -0.3624273557,
				"z": 2.1618552611,
				"element": "C" 
			},
			{
				"x": 2.0302585612,
				"y": 0.4704316461,
				"z": 0.9805068294,
				"element": "N" 
			},
			{
				"x": 3.1800399395,
				"y": 1.3013010725,
				"z": 0.5967496408,
				"element": "C" 
			},
			{
				"x": 3.3855245685,
				"y": 2.5146034873,
				"z": 1.5052016172,
				"element": "C" 
			},
			{
				"x": 1.5225151093,
				"y": -0.3069810373,
				"z": -0.1503351983,
				"element": "C" 
			},
			{
				"x": 0.5039467006,
				"y": 0.4755209603,
				"z": -0.9908907809,
				"element": "C" 
			},
			{
				"x": -0.7242999947,
				"y": 0.7577952155,
				"z": -0.2495495967,
				"element": "N" 
			},
			{
				"x": -0.9900699842,
				"y": 1.8306947027,
				"z": 0.5363444532,
				"element": "C" 
			},
			{
				"x": -2.1689666144,
				"y": 1.7668689181,
				"z": 1.1528472534,
				"element": "N" 
			},
			{
				"x": -2.6764030911,
				"y": 0.57377456,
				"z": 0.7456646038,
				"element": "C" 
			},
			{
				"x": -1.8187440998,
				"y": -0.086487072,
				"z": -0.1130782564,
				"element": "C" 
			},
			{
				"x": -2.1057996748,
				"y": -1.3657683051,
				"z": -0.686913351,
				"element": "C" 
			},
			{
				"x": -1.3786351684,
				"y": -2.0089727091,
				"z": -1.4439723004,
				"element": "O" 
			},
			{
				"x": -3.3730794073,
				"y": -1.8427060172,
				"z": -0.2661530626,
				"element": "N" 
			},
			{
				"x": -3.8170597613,
				"y": -3.1467082441,
				"z": -0.7692884889,
				"element": "C" 
			},
			{
				"x": -4.2788582502,
				"y": -1.1998518643,
				"z": 0.6005601452,
				"element": "C" 
			},
			{
				"x": -5.347960219,
				"y": -1.7211332072,
				"z": 0.8876519992,
				"element": "O" 
			},
			{
				"x": -3.8932466586,
				"y": 0.0422045681,
				"z": 1.1040831989,
				"element": "N" 
			},
			{
				"x": -4.779988917,
				"y": 0.7656978167,
				"z": 2.0132135014,
				"element": "C" 
			},
			{
				"x": 0.364982962,
				"y": -1.3780891948,
				"z": 2.2923642955,
				"element": "H" 
			},
			{
				"x": 0.4778824469,
				"y": 0.1161820353,
				"z": 3.2309092328,
				"element": "H" 
			},
			{
				"x": 1.2892059184,
				"y": -1.3619010667,
				"z": 3.7953569055,
				"element": "H" 
			},
			{
				"x": 2.9320898948,
				"y": 0.2188393704,
				"z": 2.8418115959,
				"element": "H" 
			},
			{
				"x": 2.8909436503,
				"y": -1.2596829505,
				"z": 1.8915430069,
				"element": "H" 
			},
			{
				"x": 4.1094241339,
				"y": 0.7017836823,
				"z": 0.5495584838,
				"element": "H" 
			},
			{
				"x": 3.005545162,
				"y": 1.6630226702,
				"z": -0.422999087,
				"element": "H" 
			},
			{
				"x": 3.6079890465,
				"y": 2.2283575212,
				"z": 2.5374598893,
				"element": "H" 
			},
			{
				"x": 4.2253059492,
				"y": 3.1180938012,
				"z": 1.1452432967,
				"element": "H" 
			},
			{
				"x": 2.4886313874,
				"y": 3.1413884358,
				"z": 1.5191530823,
				"element": "H" 
			},
			{
				"x": 2.3323252514,
				"y": -0.6482749013,
				"z": -0.8197594618,
				"element": "H" 
			},
			{
				"x": 1.0249356416,
				"y": -1.209736617,
				"z": 0.2120349786,
				"element": "H" 
			},
			{
				"x": 0.2291520849,
				"y": -0.1096834213,
				"z": -1.8700544114,
				"element": "H" 
			},
			{
				"x": 0.9178717066,
				"y": 1.4328918912,
				"z": -1.3199746478,
				"element": "H" 
			},
			{
				"x": -0.2886019436,
				"y": 2.6464928788,
				"z": 0.633995677,
				"element": "H" 
			},
			{
				"x": -4.751767428,
				"y": -3.0353731038,
				"z": -1.3228909059,
				"element": "H" 
			},
			{
				"x": -3.9929919441,
				"y": -3.8294599245,
				"z": 0.0646940418,
				"element": "H" 
			},
			{
				"x": -3.0309039268,
				"y": -3.5277113902,
				"z": -1.4173635599,
				"element": "H" 
			},
			{
				"x": -4.3041650592,
				"y": 0.8836805266,
				"z": 2.9906332375,
				"element": "H" 
			},
			{
				"x": -4.997096153,
				"y": 1.7575969508,
				"z": 1.6094130806,
				"element": "H" 
			},
			{
				"x": -5.6945100377,
				"y": 0.184321289,
				"z": 2.1082174981,
				"element": "H" 
			}
		],
		 "valence_orbital": [ 
			{
				"type": "occ",
				"energy": -0.27517,
				"method": "rhf"
			},
			{
				"type": "occ",
				"energy": -0.263,
				"method": "rhf"
			},
			{
				"type": "occ",
				"energy": -0.25591,
				"method": "rhf"
			},
			{
				"type": "occ",
				"energy": -0.22308,
				"method": "rhf"
			},
			{
				"type": "occ",
				"energy": -0.21444,
				"method": "rhf"
			},
			{
				"type": "unocc",
				"energy": -0.02743,
				"method": "rhf"
			},
			{
				"type": "unocc",
				"energy": 0.02704,
				"method": "rhf"
			},
			{
				"type": "unocc",
				"energy": 0.04056,
				"method": "rhf"
			},
			{
				"type": "unocc",
				"energy": 0.07163,
				"method": "rhf"
			},
			{
				"type": "unocc",
				"energy": 0.08851,
				"method": "rhf"
			}
		],
		"cosmo_sigma_profile": { 
			"-0.025": 0.0,
			"-0.024": 0.0,
			"-0.023": 0.0,
			"-0.022": 0.0,
			"-0.021": 0.0,
			"-0.02": 0.0,
			"-0.019": 0.0,
			"-0.018": 0.0,
			"-0.017": 0.0,
			"-0.016": 0.0,
			"-0.015": 0.0,
			"-0.014": 0.0,
			"-0.013": 0.0,
			"-0.012": 0.0,
			"-0.011": 0.0,
			"-0.01": 0.0,
			"-0.009": 1.12557847312,
			"-0.008": 2.57929008499,
			"-0.007": 3.78637389321,
			"-0.006": 7.81356886162,
			"-0.005": 16.0551328203,
			"-0.004": 28.8583370813,
			"-0.003": 40.3182210567,
			"-0.002": 49.3693230818,
			"-0.001": 47.2568347553,
			"0.0": 34.227045042,
			"0.001": 24.8138430367,
			"0.002": 13.1625654098,
			"0.003": 8.13447858554,
			"0.004": 6.7462588252,
			"0.005": 6.25153166095,
			"0.006": 5.9384406579,
			"0.007": 4.98084900702,
			"0.008": 4.25508040566,
			"0.009": 3.31584868762,
			"0.01": 4.37585601519,
			"0.011": 4.76930910498,
			"0.012": 6.92532299616,
			"0.013": 6.86172106691,
			"0.014": 1.07245391614,
			"0.015": 0.724364296988,
			"0.016": 0.178104481948,
			"0.017": 0.0,
			"0.018": 0.0,
			"0.019": 0.0,
			"0.02": 0.0,
			"0.021": 0.0,
			"0.022": 0.0,
			"0.023": 0.0,
			"0.024": 0.0,
			"0.025": 0.0
		}
	}
}
