{
	 "smiles": "NNC(=O)CC1=CN2C=CC=CC2=N1", 
	 "Tm": 402.15, 
	 "num_atms": 24, 
	 "gaussian": { 
		 "optdone": 1, 
		 "sigma_profile": "yes", 
		 "theory": "DFT", 
		 "functional": "B3LYP", 
		 "basiset": "6-31G**", 
		 "properties": { 
			 "R2extent": 3189.69, 
			 "electric_dipole_moment_norm": 4.96945958229, 
			 "electric_quadrupole_moment_norm": 10.6873418702, 
			 "total_energy": -643.192703492, 
			 "HOMO_LUMO_gap": 0.17573, 
			 "cosmo_polarized_energy": -16.65, 
			 "cosmo_cavitation_energy": 28.16, 
			 "cosmo_dispersion_energy": -20.68, 
			 "cosmo_repulsion_energy": 1.63, 
			 "cosmo_total_nonelectrostatic_energy": 9.11, 
			 "SMD_solvation_energy": 5.39 
		},
		"coords": [
			{
				"x": -2.8072699418,
				"y": -2.3592554564,
				"z": 0.3846482217,
				"element": "N" 
			},
			{
				"x": -3.3643685603,
				"y": -1.1750844443,
				"z": -0.1351441443,
				"element": "N" 
			},
			{
				"x": -2.9807758954,
				"y": 0.1138607265,
				"z": 0.119546068,
				"element": "C" 
			},
			{
				"x": -3.436961418,
				"y": 1.0566376136,
				"z": -0.5135900579,
				"element": "O" 
			},
			{
				"x": -1.9517615675,
				"y": 0.3168187978,
				"z": 1.2449505167,
				"element": "C" 
			},
			{
				"x": -0.5409600145,
				"y": 0.1200178593,
				"z": 0.7691998959,
				"element": "C" 
			},
			{
				"x": 0.4077827195,
				"y": 1.0956494081,
				"z": 0.5344920813,
				"element": "C" 
			},
			{
				"x": 1.5285517081,
				"y": 0.4277349464,
				"z": 0.0832316034,
				"element": "N" 
			},
			{
				"x": 2.7659003149,
				"y": 0.8857831709,
				"z": -0.2978626991,
				"element": "C" 
			},
			{
				"x": 3.7123401333,
				"y": -0.0091567245,
				"z": -0.7125538478,
				"element": "C" 
			},
			{
				"x": 3.4186956483,
				"y": -1.4015315921,
				"z": -0.7483427287,
				"element": "C" 
			},
			{
				"x": 2.180867347,
				"y": -1.8608470946,
				"z": -0.3660899853,
				"element": "C" 
			},
			{
				"x": 1.1987694815,
				"y": -0.939459448,
				"z": 0.0629690114,
				"element": "C" 
			},
			{
				"x": -0.0527841038,
				"y": -1.1264361063,
				"z": 0.4793236732,
				"element": "N" 
			},
			{
				"x": -1.7872284674,
				"y": -2.2862139894,
				"z": 0.3755406713,
				"element": "H" 
			},
			{
				"x": -3.1232573813,
				"y": -2.4918618929,
				"z": 1.3430889789,
				"element": "H" 
			},
			{
				"x": -3.970470274,
				"y": -1.2929128418,
				"z": -0.9368946437,
				"element": "H" 
			},
			{
				"x": -2.1517293309,
				"y": -0.3668312134,
				"z": 2.0770900559,
				"element": "H" 
			},
			{
				"x": -2.090362917,
				"y": 1.3415959781,
				"z": 1.5933413744,
				"element": "H" 
			},
			{
				"x": 0.3803532439,
				"y": 2.1688409343,
				"z": 0.6378244168,
				"element": "H" 
			},
			{
				"x": 2.9211187831,
				"y": 1.956656021,
				"z": -0.2475505937,
				"element": "H" 
			},
			{
				"x": 4.6865843599,
				"y": 0.3580666079,
				"z": -1.0136185664,
				"element": "H" 
			},
			{
				"x": 4.1800089792,
				"y": -2.0992855931,
				"z": -1.080824581,
				"element": "H" 
			},
			{
				"x": 1.9212571531,
				"y": -2.9129856671,
				"z": -0.381274721,
				"element": "H" 
			}
		],
		 "valence_orbital": [ 
			{
				"type": "occ",
				"energy": -0.26619,
				"method": "rhf"
			},
			{
				"type": "occ",
				"energy": -0.25602,
				"method": "rhf"
			},
			{
				"type": "occ",
				"energy": -0.23872,
				"method": "rhf"
			},
			{
				"type": "occ",
				"energy": -0.22716,
				"method": "rhf"
			},
			{
				"type": "occ",
				"energy": -0.21828,
				"method": "rhf"
			},
			{
				"type": "unocc",
				"energy": -0.04255,
				"method": "rhf"
			},
			{
				"type": "unocc",
				"energy": -0.00543,
				"method": "rhf"
			},
			{
				"type": "unocc",
				"energy": 0.03125,
				"method": "rhf"
			},
			{
				"type": "unocc",
				"energy": 0.06285,
				"method": "rhf"
			},
			{
				"type": "unocc",
				"energy": 0.08022,
				"method": "rhf"
			}
		],
		"cosmo_sigma_profile": { 
			"-0.025": 0.0,
			"-0.024": 0.0,
			"-0.023": 0.0,
			"-0.022": 0.0,
			"-0.021": 0.0,
			"-0.02": 0.0,
			"-0.019": 0.0,
			"-0.018": 0.0,
			"-0.017": 0.0,
			"-0.016": 0.0,
			"-0.015": 0.0,
			"-0.014": 0.0371863170357,
			"-0.013": 0.694947392227,
			"-0.012": 1.26426982377,
			"-0.011": 2.2057606742,
			"-0.01": 3.38455180311,
			"-0.009": 7.12754958883,
			"-0.008": 6.15975549482,
			"-0.007": 11.6046313338,
			"-0.006": 14.5596130588,
			"-0.005": 13.2324348211,
			"-0.004": 12.7128451225,
			"-0.003": 11.9883643575,
			"-0.002": 11.2924130208,
			"-0.001": 10.2459298994,
			"0.0": 15.0448924041,
			"0.001": 15.3153196651,
			"0.002": 19.8251380149,
			"0.003": 17.4910264652,
			"0.004": 10.4937776244,
			"0.005": 5.35612181388,
			"0.006": 3.73267939539,
			"0.007": 4.12838352866,
			"0.008": 2.4116599226,
			"0.009": 2.06689449906,
			"0.01": 3.29362878203,
			"0.011": 2.99393783268,
			"0.012": 2.10398697828,
			"0.013": 4.77380586584,
			"0.014": 6.16367381872,
			"0.015": 2.03426489971,
			"0.016": 0.568099602966,
			"0.017": 0.261340162527,
			"0.018": 0.0,
			"0.019": 0.0,
			"0.02": 0.0,
			"0.021": 0.0,
			"0.022": 0.0,
			"0.023": 0.0,
			"0.024": 0.0,
			"0.025": 0.0
		}
	}
}
