{
	 "smiles": "CCC(=O)OC1=CC=C(C=C1)C(CC)=C(CC)C1=CC=C(OC(=O)CC)C=C1", 
	 "Tm": 377.15, 
	 "num_atms": 56, 
	 "gaussian": { 
		 "optdone": 1, 
		 "sigma_profile": "yes", 
		 "theory": "DFT", 
		 "functional": "B3LYP", 
		 "basiset": "6-31G**", 
		 "properties": { 
			 "R2extent": 16029.4251, 
			 "electric_dipole_moment_norm": 0.267608015575, 
			 "electric_quadrupole_moment_norm": 18.4845789987, 
			 "total_energy": -1232.35378959, 
			 "HOMO_LUMO_gap": 0.17731, 
			 "cosmo_polarized_energy": -13.94, 
			 "cosmo_cavitation_energy": 58.73, 
			 "cosmo_dispersion_energy": -38.98, 
			 "cosmo_repulsion_energy": 3.07, 
			 "cosmo_total_nonelectrostatic_energy": 22.81, 
			 "SMD_solvation_energy": 11.89 
		},
		"coords": [
			{
				"x": -0.0011658329,
				"y": -6.2002115007,
				"z": 2.5784694712,
				"element": "C" 
			},
			{
				"x": -1.0360646868,
				"y": -5.0794547523,
				"z": 2.5130671407,
				"element": "C" 
			},
			{
				"x": -0.4110443876,
				"y": -3.699739818,
				"z": 2.5583556403,
				"element": "C" 
			},
			{
				"x": 0.7702470849,
				"y": -3.4606437406,
				"z": 2.629640043,
				"element": "O" 
			},
			{
				"x": -1.3958162561,
				"y": -2.7505054553,
				"z": 2.5033181177,
				"element": "O" 
			},
			{
				"x": -1.100585975,
				"y": -1.3855163099,
				"z": 2.5118028113,
				"element": "C" 
			},
			{
				"x": -0.166946493,
				"y": -0.8063742588,
				"z": 3.3705414058,
				"element": "C" 
			},
			{
				"x": -0.004924944,
				"y": 0.5784162524,
				"z": 3.3540303494,
				"element": "C" 
			},
			{
				"x": -0.7449670701,
				"y": 1.4051243359,
				"z": 2.4905207846,
				"element": "C" 
			},
			{
				"x": -1.6903430811,
				"y": 0.7873405619,
				"z": 1.6539962907,
				"element": "C" 
			},
			{
				"x": -1.8677514683,
				"y": -0.5932169693,
				"z": 1.6597310274,
				"element": "C" 
			},
			{
				"x": -0.5878845587,
				"y": 2.8922096108,
				"z": 2.5231598426,
				"element": "C" 
			},
			{
				"x": -0.673664503,
				"y": 3.5163680833,
				"z": 3.917197334,
				"element": "C" 
			},
			{
				"x": 0.6733180468,
				"y": 3.9740449936,
				"z": 4.5071137001,
				"element": "C" 
			},
			{
				"x": -0.4231361526,
				"y": 3.6356183831,
				"z": 1.3994493496,
				"element": "C" 
			},
			{
				"x": -0.3753424373,
				"y": 5.156057928,
				"z": 1.4066683931,
				"element": "C" 
			},
			{
				"x": 0.9931437556,
				"y": 5.7324761515,
				"z": 0.9990790544,
				"element": "C" 
			},
			{
				"x": -0.2251268813,
				"y": 3.0263047588,
				"z": 0.0466132006,
				"element": "C" 
			},
			{
				"x": 0.8161642556,
				"y": 2.1147004427,
				"z": -0.19496574,
				"element": "C" 
			},
			{
				"x": 1.0220082436,
				"y": 1.5737773821,
				"z": -1.4609505366,
				"element": "C" 
			},
			{
				"x": 0.1868437403,
				"y": 1.9430540277,
				"z": -2.5140597929,
				"element": "C" 
			},
			{
				"x": 0.5113769818,
				"y": 1.4092726975,
				"z": -3.7628417275,
				"element": "O" 
			},
			{
				"x": -0.4527361747,
				"y": 0.9660141634,
				"z": -4.6282766087,
				"element": "C" 
			},
			{
				"x": -1.6396598149,
				"y": 1.0026774951,
				"z": -4.4107295104,
				"element": "O" 
			},
			{
				"x": 0.203830574,
				"y": 0.4274648337,
				"z": -5.8831812359,
				"element": "C" 
			},
			{
				"x": -0.8071753729,
				"y": -0.0794816114,
				"z": -6.9089886349,
				"element": "C" 
			},
			{
				"x": -0.8464315241,
				"y": 2.8583281737,
				"z": -2.3147484815,
				"element": "C" 
			},
			{
				"x": -1.0363245341,
				"y": 3.3926342162,
				"z": -1.0406254328,
				"element": "C" 
			},
			{
				"x": 0.7007067067,
				"y": -6.1348956092,
				"z": 1.7430637624,
				"element": "H" 
			},
			{
				"x": -0.4931361414,
				"y": -7.1763302661,
				"z": 2.5413245242,
				"element": "H" 
			},
			{
				"x": 0.5824165375,
				"y": -6.1424267067,
				"z": 3.5010089107,
				"element": "H" 
			},
			{
				"x": -1.7545556398,
				"y": -5.1442563108,
				"z": 3.3394638483,
				"element": "H" 
			},
			{
				"x": -1.6390181876,
				"y": -5.1403628445,
				"z": 1.5987811424,
				"element": "H" 
			},
			{
				"x": 0.4302050604,
				"y": -1.4228267751,
				"z": 4.0292180633,
				"element": "H" 
			},
			{
				"x": 0.7269112225,
				"y": 1.0195889327,
				"z": 4.0237579853,
				"element": "H" 
			},
			{
				"x": -2.2962187553,
				"y": 1.3971727915,
				"z": 0.9929850414,
				"element": "H" 
			},
			{
				"x": -2.6028842755,
				"y": -1.0660321459,
				"z": 1.0167004861,
				"element": "H" 
			},
			{
				"x": -1.1274757414,
				"y": 2.7869462917,
				"z": 4.5951369405,
				"element": "H" 
			},
			{
				"x": -1.3602336833,
				"y": 4.3706513019,
				"z": 3.9010291473,
				"element": "H" 
			},
			{
				"x": 1.3881339235,
				"y": 3.1474086598,
				"z": 4.5703844589,
				"element": "H" 
			},
			{
				"x": 1.1330819741,
				"y": 4.7560031561,
				"z": 3.8962819113,
				"element": "H" 
			},
			{
				"x": 0.535500353,
				"y": 4.3735585851,
				"z": 5.5178109591,
				"element": "H" 
			},
			{
				"x": -0.6566054159,
				"y": 5.5492745544,
				"z": 2.3860000176,
				"element": "H" 
			},
			{
				"x": -1.1283458592,
				"y": 5.5337396823,
				"z": 0.7015009505,
				"element": "H" 
			},
			{
				"x": 1.2799296571,
				"y": 5.3988155135,
				"z": -0.0023674504,
				"element": "H" 
			},
			{
				"x": 1.7788931295,
				"y": 5.4146297688,
				"z": 1.6921040243,
				"element": "H" 
			},
			{
				"x": 0.9658704311,
				"y": 6.8270810701,
				"z": 0.9964923746,
				"element": "H" 
			},
			{
				"x": 1.4684154981,
				"y": 1.8247348469,
				"z": 0.6220121444,
				"element": "H" 
			},
			{
				"x": 1.8287502747,
				"y": 0.872335271,
				"z": -1.6468919762,
				"element": "H" 
			},
			{
				"x": 0.9006760357,
				"y": -0.3632621214,
				"z": -5.5792538751,
				"element": "H" 
			},
			{
				"x": 0.8328062145,
				"y": 1.2257835153,
				"z": -6.295991639,
				"element": "H" 
			},
			{
				"x": -1.4853205267,
				"y": 0.7195000867,
				"z": -7.2200156041,
				"element": "H" 
			},
			{
				"x": -0.2924427356,
				"y": -0.4604656449,
				"z": -7.7956030207,
				"element": "H" 
			},
			{
				"x": -1.4188537826,
				"y": -0.8837493031,
				"z": -6.4921356429,
				"element": "H" 
			},
			{
				"x": -1.4975602389,
				"y": 3.1380268912,
				"z": -3.1321973701,
				"element": "H" 
			},
			{
				"x": -1.8492865695,
				"y": 4.0975167335,
				"z": -0.8910863695,
				"element": "H" 
			}
		],
		 "valence_orbital": [ 
			{
				"type": "occ",
				"energy": -0.25949,
				"method": "rhf"
			},
			{
				"type": "occ",
				"energy": -0.25237,
				"method": "rhf"
			},
			{
				"type": "occ",
				"energy": -0.24644,
				"method": "rhf"
			},
			{
				"type": "occ",
				"energy": -0.23907,
				"method": "rhf"
			},
			{
				"type": "occ",
				"energy": -0.20497,
				"method": "rhf"
			},
			{
				"type": "unocc",
				"energy": -0.02766,
				"method": "rhf"
			},
			{
				"type": "unocc",
				"energy": -0.00709,
				"method": "rhf"
			},
			{
				"type": "unocc",
				"energy": -0.00358,
				"method": "rhf"
			},
			{
				"type": "unocc",
				"energy": 0.00368,
				"method": "rhf"
			},
			{
				"type": "unocc",
				"energy": 0.0111,
				"method": "rhf"
			}
		],
		"cosmo_sigma_profile": { 
			"-0.025": 0.0,
			"-0.024": 0.0,
			"-0.023": 0.0,
			"-0.022": 0.0,
			"-0.021": 0.0,
			"-0.02": 0.0,
			"-0.019": 0.0,
			"-0.018": 0.0,
			"-0.017": 0.0,
			"-0.016": 0.0,
			"-0.015": 0.0,
			"-0.014": 0.0,
			"-0.013": 0.0,
			"-0.012": 0.0,
			"-0.011": 0.0,
			"-0.01": 0.0,
			"-0.009": 0.0,
			"-0.008": 0.0,
			"-0.007": 0.992219861169,
			"-0.006": 16.3485801209,
			"-0.005": 26.3474755338,
			"-0.004": 38.0492474851,
			"-0.003": 49.3650098162,
			"-0.002": 51.7651841992,
			"-0.001": 50.7968939052,
			"0.0": 52.5372631168,
			"0.001": 45.938490729,
			"0.002": 30.6173388401,
			"0.003": 22.4775003698,
			"0.004": 23.9723212443,
			"0.005": 15.428942691,
			"0.006": 7.07545475598,
			"0.007": 6.02909662904,
			"0.008": 4.30860387365,
			"0.009": 4.45773203174,
			"0.01": 4.17487325485,
			"0.011": 7.99142851801,
			"0.012": 4.37740354557,
			"0.013": 0.138618206476,
			"0.014": 0.0,
			"0.015": 0.0,
			"0.016": 0.0,
			"0.017": 0.0,
			"0.018": 0.0,
			"0.019": 0.0,
			"0.02": 0.0,
			"0.021": 0.0,
			"0.022": 0.0,
			"0.023": 0.0,
			"0.024": 0.0,
			"0.025": 0.0
		}
	}
}
