{
	 "smiles": "FC(F)(F)C1=CC=C(C2=CC=C(O2)C=O)C(Cl)=C1", 
	 "Tm": 359.65, 
	 "num_atms": 24, 
	 "gaussian": { 
		 "optdone": 1, 
		 "sigma_profile": "yes", 
		 "theory": "DFT", 
		 "functional": "B3LYP", 
		 "basiset": "6-31G**", 
		 "properties": { 
			 "R2extent": 7813.0697, 
			 "electric_dipole_moment_norm": 1.18886632554, 
			 "electric_quadrupole_moment_norm": 21.6969546531, 
			 "total_energy": -1371.03081719, 
			 "HOMO_LUMO_gap": 0.15053, 
			 "cosmo_polarized_energy": -8.52, 
			 "cosmo_cavitation_energy": 33.09, 
			 "cosmo_dispersion_energy": -23.52, 
			 "cosmo_repulsion_energy": 1.73, 
			 "cosmo_total_nonelectrostatic_energy": 11.29, 
			 "SMD_solvation_energy": 8.06 
		},
		"coords": [
			{
				"x": 1.3469048756,
				"y": 4.7447782922,
				"z": 3.1364238583,
				"element": "F" 
			},
			{
				"x": 0.3396252295,
				"y": 3.9646933766,
				"z": 3.5892866967,
				"element": "C" 
			},
			{
				"x": 0.7242469115,
				"y": 3.4843902724,
				"z": 4.7913863478,
				"element": "F" 
			},
			{
				"x": -0.7265577619,
				"y": 4.7678910604,
				"z": 3.7887537068,
				"element": "F" 
			},
			{
				"x": 0.0315080713,
				"y": 2.8505188074,
				"z": 2.6243124621,
				"element": "C" 
			},
			{
				"x": 0.792504927,
				"y": 1.6787192339,
				"z": 2.6403340231,
				"element": "C" 
			},
			{
				"x": 0.5382261448,
				"y": 0.6811675294,
				"z": 1.7126687799,
				"element": "C" 
			},
			{
				"x": -0.4763631543,
				"y": 0.8020748554,
				"z": 0.7359413311,
				"element": "C" 
			},
			{
				"x": -0.6670658454,
				"y": -0.3038079073,
				"z": -0.2005441668,
				"element": "C" 
			},
			{
				"x": -1.3714249572,
				"y": -0.5031903018,
				"z": -1.3744330062,
				"element": "C" 
			},
			{
				"x": -1.0880360388,
				"y": -1.8207493545,
				"z": -1.8067928549,
				"element": "C" 
			},
			{
				"x": -0.2299986693,
				"y": -2.3616369594,
				"z": -0.8810907762,
				"element": "C" 
			},
			{
				"x": 0.0297759316,
				"y": -1.4409385956,
				"z": 0.0974639027,
				"element": "O" 
			},
			{
				"x": 0.4087377399,
				"y": -3.6654616196,
				"z": -0.7651060396,
				"element": "C" 
			},
			{
				"x": 0.2508351103,
				"y": -4.5624113175,
				"z": -1.575303587,
				"element": "O" 
			},
			{
				"x": -1.2310843415,
				"y": 1.9946327693,
				"z": 0.7526932533,
				"element": "C" 
			},
			{
				"x": -2.5506042705,
				"y": 2.288512175,
				"z": -0.3680082664,
				"element": "Cl" 
			},
			{
				"x": -0.9800974464,
				"y": 3.004004322,
				"z": 1.6802611097,
				"element": "C" 
			},
			{
				"x": 1.5757983968,
				"y": 1.548092772,
				"z": 3.3786152458,
				"element": "H" 
			},
			{
				"x": 1.1302933015,
				"y": -0.2253150206,
				"z": 1.7263714449,
				"element": "H" 
			},
			{
				"x": -2.0044485788,
				"y": 0.2132958251,
				"z": -1.8687800496,
				"element": "H" 
			},
			{
				"x": -1.4596635395,
				"y": -2.3247792715,
				"z": -2.6867053206,
				"element": "H" 
			},
			{
				"x": 1.0580953291,
				"y": -3.779657375,
				"z": 0.1279361194,
				"element": "H" 
			},
			{
				"x": -1.5861073654,
				"y": 3.9014764317,
				"z": 1.6672157857,
				"element": "H" 
			}
		],
		 "valence_orbital": [ 
			{
				"type": "occ",
				"energy": -0.31519,
				"method": "rhf"
			},
			{
				"type": "occ",
				"energy": -0.30506,
				"method": "rhf"
			},
			{
				"type": "occ",
				"energy": -0.276,
				"method": "rhf"
			},
			{
				"type": "occ",
				"energy": -0.26632,
				"method": "rhf"
			},
			{
				"type": "occ",
				"energy": -0.23958,
				"method": "rhf"
			},
			{
				"type": "unocc",
				"energy": -0.08905,
				"method": "rhf"
			},
			{
				"type": "unocc",
				"energy": -0.04257,
				"method": "rhf"
			},
			{
				"type": "unocc",
				"energy": -0.03799,
				"method": "rhf"
			},
			{
				"type": "unocc",
				"energy": 0.00823,
				"method": "rhf"
			},
			{
				"type": "unocc",
				"energy": 0.03309,
				"method": "rhf"
			}
		],
		"cosmo_sigma_profile": { 
			"-0.025": 0.0,
			"-0.024": 0.0,
			"-0.023": 0.0,
			"-0.022": 0.0,
			"-0.021": 0.0,
			"-0.02": 0.0,
			"-0.019": 0.0,
			"-0.018": 0.0,
			"-0.017": 0.0,
			"-0.016": 0.0,
			"-0.015": 0.0,
			"-0.014": 0.0,
			"-0.013": 0.0,
			"-0.012": 0.0,
			"-0.011": 0.0,
			"-0.01": 0.0,
			"-0.009": 0.94559895201,
			"-0.008": 4.25644246414,
			"-0.007": 10.1000983833,
			"-0.006": 11.2354937895,
			"-0.005": 11.5693922764,
			"-0.004": 11.821501404,
			"-0.003": 14.2343814861,
			"-0.002": 19.7190595382,
			"-0.001": 28.3591611252,
			"0.0": 35.4272285496,
			"0.001": 33.2167953788,
			"0.002": 35.3983855119,
			"0.003": 29.0585323698,
			"0.004": 5.28260134937,
			"0.005": 1.46344178657,
			"0.006": 1.38446815982,
			"0.007": 1.67355292875,
			"0.008": 1.82511878576,
			"0.009": 1.98418992272,
			"0.01": 2.78350611424,
			"0.011": 4.25235079782,
			"0.012": 3.24559589404,
			"0.013": 0.688346535938,
			"0.014": 0.0,
			"0.015": 0.0,
			"0.016": 0.0,
			"0.017": 0.0,
			"0.018": 0.0,
			"0.019": 0.0,
			"0.02": 0.0,
			"0.021": 0.0,
			"0.022": 0.0,
			"0.023": 0.0,
			"0.024": 0.0,
			"0.025": 0.0
		}
	}
}
