{
	 "smiles": "CC(C)C1=C(C)C=C2OC(=O)C=C(CCl)C2=C1", 
	 "Tm": 406.15, 
	 "num_atms": 32, 
	 "gaussian": { 
		 "optdone": 1, 
		 "sigma_profile": "yes", 
		 "theory": "DFT", 
		 "functional": "B3LYP", 
		 "basiset": "6-31G**", 
		 "properties": { 
			 "R2extent": 5005.3116, 
			 "electric_dipole_moment_norm": 5.03426153174, 
			 "electric_quadrupole_moment_norm": 17.7877807236, 
			 "total_energy": -1153.19729558, 
			 "HOMO_LUMO_gap": 0.15631, 
			 "cosmo_polarized_energy": -12.91, 
			 "cosmo_cavitation_energy": 36.38, 
			 "cosmo_dispersion_energy": -25.19, 
			 "cosmo_repulsion_energy": 1.96, 
			 "cosmo_total_nonelectrostatic_energy": 13.15, 
			 "SMD_solvation_energy": 7.03 
		},
		"coords": [
			{
				"x": 3.5801841412,
				"y": -1.7748220679,
				"z": -0.3665576538,
				"element": "C" 
			},
			{
				"x": 3.2432179533,
				"y": -0.4209581985,
				"z": 0.2868256001,
				"element": "C" 
			},
			{
				"x": 3.76399392,
				"y": 0.751728426,
				"z": -0.5683333248,
				"element": "C" 
			},
			{
				"x": 1.751411569,
				"y": -0.2725264879,
				"z": 0.5794446273,
				"element": "C" 
			},
			{
				"x": 1.2662380996,
				"y": 0.0287455801,
				"z": 1.8797239663,
				"element": "C" 
			},
			{
				"x": 2.1926982671,
				"y": 0.2020384802,
				"z": 3.0623570039,
				"element": "C" 
			},
			{
				"x": -0.1070269072,
				"y": 0.1740321026,
				"z": 2.0803435677,
				"element": "C" 
			},
			{
				"x": -1.0049077749,
				"y": 0.0299774031,
				"z": 1.0251512444,
				"element": "C" 
			},
			{
				"x": -2.3309916714,
				"y": 0.1872329698,
				"z": 1.3161885961,
				"element": "O" 
			},
			{
				"x": -3.3235736086,
				"y": 0.0626920811,
				"z": 0.351005768,
				"element": "C" 
			},
			{
				"x": -4.4738945579,
				"y": 0.2182442412,
				"z": 0.6884960114,
				"element": "O" 
			},
			{
				"x": -2.8662823565,
				"y": -0.254295034,
				"z": -0.9978030005,
				"element": "C" 
			},
			{
				"x": -1.5562628421,
				"y": -0.4152774182,
				"z": -1.3131633724,
				"element": "C" 
			},
			{
				"x": -1.1731865929,
				"y": -0.7799891393,
				"z": -2.7192322351,
				"element": "C" 
			},
			{
				"x": -0.3807672784,
				"y": 0.6061217369,
				"z": -3.6072743155,
				"element": "Cl" 
			},
			{
				"x": -0.5533077048,
				"y": -0.2672794932,
				"z": -0.2724123703,
				"element": "C" 
			},
			{
				"x": 0.8336604333,
				"y": -0.410137418,
				"z": -0.4593589869,
				"element": "C" 
			},
			{
				"x": 4.663098053,
				"y": -1.8781696246,
				"z": -0.4934701237,
				"element": "H" 
			},
			{
				"x": 3.2280102636,
				"y": -2.6114204276,
				"z": 0.2451320314,
				"element": "H" 
			},
			{
				"x": 3.124768652,
				"y": -1.8706130482,
				"z": -1.3581049814,
				"element": "H" 
			},
			{
				"x": 3.7790646524,
				"y": -0.3881805246,
				"z": 1.2402172484,
				"element": "H" 
			},
			{
				"x": 3.5703763815,
				"y": 1.7142578336,
				"z": -0.0843812306,
				"element": "H" 
			},
			{
				"x": 4.8438326304,
				"y": 0.662803909,
				"z": -0.7299790796,
				"element": "H" 
			},
			{
				"x": 3.27836096,
				"y": 0.7718710924,
				"z": -1.549952348,
				"element": "H" 
			},
			{
				"x": 1.6262521559,
				"y": 0.4453981347,
				"z": 3.9643797347,
				"element": "H" 
			},
			{
				"x": 2.916746142,
				"y": 1.0076620443,
				"z": 2.8973505772,
				"element": "H" 
			},
			{
				"x": 2.7664855375,
				"y": -0.7090428864,
				"z": 3.2666925845,
				"element": "H" 
			},
			{
				"x": -0.504796664,
				"y": 0.4028917017,
				"z": 3.0636665609,
				"element": "H" 
			},
			{
				"x": -3.6524280684,
				"y": -0.3541711788,
				"z": -1.7376725915,
				"element": "H" 
			},
			{
				"x": -0.4551850461,
				"y": -1.6008850652,
				"z": -2.7448245534,
				"element": "H" 
			},
			{
				"x": -2.0505134632,
				"y": -1.0506896468,
				"z": -3.3048162873,
				"element": "H" 
			},
			{
				"x": 1.2021247245,
				"y": -0.6168400776,
				"z": -1.4583386677,
				"element": "H" 
			}
		],
		 "valence_orbital": [ 
			{
				"type": "occ",
				"energy": -0.30913,
				"method": "rhf"
			},
			{
				"type": "occ",
				"energy": -0.30253,
				"method": "rhf"
			},
			{
				"type": "occ",
				"energy": -0.27383,
				"method": "rhf"
			},
			{
				"type": "occ",
				"energy": -0.25279,
				"method": "rhf"
			},
			{
				"type": "occ",
				"energy": -0.23239,
				"method": "rhf"
			},
			{
				"type": "unocc",
				"energy": -0.07608,
				"method": "rhf"
			},
			{
				"type": "unocc",
				"energy": -0.01443,
				"method": "rhf"
			},
			{
				"type": "unocc",
				"energy": -0.01146,
				"method": "rhf"
			},
			{
				"type": "unocc",
				"energy": 0.02864,
				"method": "rhf"
			},
			{
				"type": "unocc",
				"energy": 0.07058,
				"method": "rhf"
			}
		],
		"cosmo_sigma_profile": { 
			"-0.025": 0.0,
			"-0.024": 0.0,
			"-0.023": 0.0,
			"-0.022": 0.0,
			"-0.021": 0.0,
			"-0.02": 0.0,
			"-0.019": 0.0,
			"-0.018": 0.0,
			"-0.017": 0.0,
			"-0.016": 0.0,
			"-0.015": 0.0,
			"-0.014": 0.0,
			"-0.013": 0.0,
			"-0.012": 0.0,
			"-0.011": 0.0,
			"-0.01": 0.508307888629,
			"-0.009": 4.17592953769,
			"-0.008": 6.62209109656,
			"-0.007": 7.04642582318,
			"-0.006": 8.59582544774,
			"-0.005": 12.1152503296,
			"-0.004": 17.6961657577,
			"-0.003": 25.9740560693,
			"-0.002": 27.7856098642,
			"-0.001": 32.49669515,
			"0.0": 30.7317720281,
			"0.001": 30.3299765036,
			"0.002": 17.8617569164,
			"0.003": 16.7613479528,
			"0.004": 11.1607495718,
			"0.005": 9.02177981191,
			"0.006": 8.73666869903,
			"0.007": 2.31308431124,
			"0.008": 2.37221431257,
			"0.009": 2.50675315071,
			"0.01": 2.60017971996,
			"0.011": 3.94675358952,
			"0.012": 6.22231265522,
			"0.013": 2.33141806723,
			"0.014": 0.0413294014057,
			"0.015": 0.0,
			"0.016": 0.0,
			"0.017": 0.0,
			"0.018": 0.0,
			"0.019": 0.0,
			"0.02": 0.0,
			"0.021": 0.0,
			"0.022": 0.0,
			"0.023": 0.0,
			"0.024": 0.0,
			"0.025": 0.0
		}
	}
}
