{
	 "smiles": "CC12CCC3C(CCC4CC5(CCC34C)OCCO5)C1CCC2=O", 
	 "Tm": 426.15, 
	 "num_atms": 56, 
	 "gaussian": { 
		 "optdone": 1, 
		 "sigma_profile": "yes", 
		 "theory": "DFT", 
		 "functional": "B3LYP", 
		 "basiset": "6-31G**", 
		 "properties": { 
			 "R2extent": 11310.6488, 
			 "electric_dipole_moment_norm": 3.62528226349, 
			 "electric_quadrupole_moment_norm": 17.0673591879, 
			 "total_energy": -1045.20419203, 
			 "HOMO_LUMO_gap": 0.21884, 
			 "cosmo_polarized_energy": -11.56, 
			 "cosmo_cavitation_energy": 47.55, 
			 "cosmo_dispersion_energy": -33.74, 
			 "cosmo_repulsion_energy": 2.48, 
			 "cosmo_total_nonelectrostatic_energy": 16.3, 
			 "SMD_solvation_energy": 7.03 
		},
		"coords": [
			{
				"x": -3.3619947298,
				"y": -0.0525370578,
				"z": 2.0296914504,
				"element": "C" 
			},
			{
				"x": -1.877902515,
				"y": 0.31472821,
				"z": 2.138791333,
				"element": "C" 
			},
			{
				"x": -1.5655280202,
				"y": 1.6396611997,
				"z": 1.3849701733,
				"element": "C" 
			},
			{
				"x": -1.5065666174,
				"y": 1.458921284,
				"z": -0.1370035623,
				"element": "C" 
			},
			{
				"x": -0.4515803264,
				"y": 0.4142452294,
				"z": -0.5609871147,
				"element": "C" 
			},
			{
				"x": -0.7372559156,
				"y": -0.9320289765,
				"z": 0.1490095362,
				"element": "C" 
			},
			{
				"x": 0.3155809013,
				"y": -1.9883325997,
				"z": -0.2155382546,
				"element": "C" 
			},
			{
				"x": 0.411040748,
				"y": -2.1811668983,
				"z": -1.7285726943,
				"element": "C" 
			},
			{
				"x": 0.7294935355,
				"y": -0.8553545064,
				"z": -2.4477960629,
				"element": "C" 
			},
			{
				"x": 0.9233806889,
				"y": -1.0559768827,
				"z": -3.9744464274,
				"element": "C" 
			},
			{
				"x": -0.341488125,
				"y": -0.8972650456,
				"z": -4.844794049,
				"element": "C" 
			},
			{
				"x": -1.6257616751,
				"y": -0.9687796957,
				"z": -4.0201564461,
				"element": "C" 
			},
			{
				"x": -1.6628974255,
				"y": 0.0039485382,
				"z": -2.8209163927,
				"element": "C" 
			},
			{
				"x": -0.2888179039,
				"y": 0.2818084726,
				"z": -2.1201727727,
				"element": "C" 
			},
			{
				"x": 0.2966154845,
				"y": 1.6109889069,
				"z": -2.656979342,
				"element": "C" 
			},
			{
				"x": -0.259375224,
				"y": 0.3389744454,
				"z": -5.5676645356,
				"element": "O" 
			},
			{
				"x": -0.7783232904,
				"y": 0.1027295628,
				"z": -6.870587343,
				"element": "C" 
			},
			{
				"x": -0.3235680509,
				"y": -1.3299526573,
				"z": -7.1361751448,
				"element": "C" 
			},
			{
				"x": -0.3949562462,
				"y": -1.9301249727,
				"z": -5.8475431091,
				"element": "O" 
			},
			{
				"x": -0.8955801261,
				"y": -0.796570338,
				"z": 1.6817237905,
				"element": "C" 
			},
			{
				"x": 0.3997329101,
				"y": -0.5243561853,
				"z": 2.4949659479,
				"element": "C" 
			},
			{
				"x": -0.1062369838,
				"y": -0.0577529226,
				"z": 3.869497992,
				"element": "C" 
			},
			{
				"x": -1.4854306209,
				"y": 0.5531914886,
				"z": 3.607264698,
				"element": "C" 
			},
			{
				"x": -2.1643095902,
				"y": 1.1382603712,
				"z": 4.4249580465,
				"element": "O" 
			},
			{
				"x": -3.6950886413,
				"y": -0.1124955094,
				"z": 0.9893375682,
				"element": "H" 
			},
			{
				"x": -3.9672393587,
				"y": 0.6985668135,
				"z": 2.5455335555,
				"element": "H" 
			},
			{
				"x": -3.5612459071,
				"y": -1.0218151125,
				"z": 2.4997751496,
				"element": "H" 
			},
			{
				"x": -2.3202400095,
				"y": 2.384726383,
				"z": 1.6604918135,
				"element": "H" 
			},
			{
				"x": -0.6029353147,
				"y": 2.0448769863,
				"z": 1.7257583381,
				"element": "H" 
			},
			{
				"x": -2.4943315439,
				"y": 1.1610164446,
				"z": -0.508668,
				"element": "H" 
			},
			{
				"x": -1.2909886397,
				"y": 2.4313067773,
				"z": -0.590489169,
				"element": "H" 
			},
			{
				"x": 0.5240112089,
				"y": 0.7736830697,
				"z": -0.1955792133,
				"element": "H" 
			},
			{
				"x": -1.7056159067,
				"y": -1.2991166646,
				"z": -0.2262251429,
				"element": "H" 
			},
			{
				"x": 1.2968030549,
				"y": -1.6754273823,
				"z": 0.1671628633,
				"element": "H" 
			},
			{
				"x": 0.0781380678,
				"y": -2.9399742397,
				"z": 0.2781561665,
				"element": "H" 
			},
			{
				"x": 1.1958011885,
				"y": -2.9104165774,
				"z": -1.9667324796,
				"element": "H" 
			},
			{
				"x": -0.5262213013,
				"y": -2.6137533142,
				"z": -2.0986651294,
				"element": "H" 
			},
			{
				"x": 1.7008072317,
				"y": -0.5270677785,
				"z": -2.0485223326,
				"element": "H" 
			},
			{
				"x": 1.6707056094,
				"y": -0.3602795614,
				"z": -4.3651806165,
				"element": "H" 
			},
			{
				"x": 1.3055472149,
				"y": -2.0653896425,
				"z": -4.1555221041,
				"element": "H" 
			},
			{
				"x": -1.7253737385,
				"y": -2.0050216608,
				"z": -3.682877648,
				"element": "H" 
			},
			{
				"x": -2.4792448541,
				"y": -0.7845949679,
				"z": -4.6816320861,
				"element": "H" 
			},
			{
				"x": -2.0790199094,
				"y": 0.9602497779,
				"z": -3.1540194649,
				"element": "H" 
			},
			{
				"x": -2.3839099389,
				"y": -0.3975310599,
				"z": -2.1012406103,
				"element": "H" 
			},
			{
				"x": 0.4160716628,
				"y": 1.5895970317,
				"z": -3.7412110777,
				"element": "H" 
			},
			{
				"x": -0.3577861599,
				"y": 2.4570616918,
				"z": -2.4283096562,
				"element": "H" 
			},
			{
				"x": 1.2749951214,
				"y": 1.8154588635,
				"z": -2.2053117809,
				"element": "H" 
			},
			{
				"x": -0.3521218277,
				"y": 0.8441902851,
				"z": -7.5511202883,
				"element": "H" 
			},
			{
				"x": -1.8752116662,
				"y": 0.1864549517,
				"z": -6.8899529438,
				"element": "H" 
			},
			{
				"x": 0.7052673578,
				"y": -1.3546430684,
				"z": -7.5239155503,
				"element": "H" 
			},
			{
				"x": -0.9754443265,
				"y": -1.8792744533,
				"z": -7.8225448829,
				"element": "H" 
			},
			{
				"x": -1.296492589,
				"y": -1.7560197138,
				"z": 2.0440717727,
				"element": "H" 
			},
			{
				"x": 0.9986009514,
				"y": 0.2626942405,
				"z": 2.0237449136,
				"element": "H" 
			},
			{
				"x": 1.0358689372,
				"y": -1.4106041948,
				"z": 2.5626909238,
				"element": "H" 
			},
			{
				"x": -0.2569980613,
				"y": -0.9072674161,
				"z": 4.5491670978,
				"element": "H" 
			},
			{
				"x": 0.5441212057,
				"y": 0.6492500305,
				"z": 4.3926902976,
				"element": "H" 
			}
		],
		 "valence_orbital": [ 
			{
				"type": "occ",
				"energy": -0.27909,
				"method": "rhf"
			},
			{
				"type": "occ",
				"energy": -0.2745,
				"method": "rhf"
			},
			{
				"type": "occ",
				"energy": -0.26568,
				"method": "rhf"
			},
			{
				"type": "occ",
				"energy": -0.24575,
				"method": "rhf"
			},
			{
				"type": "occ",
				"energy": -0.22824,
				"method": "rhf"
			},
			{
				"type": "unocc",
				"energy": -0.0094,
				"method": "rhf"
			},
			{
				"type": "unocc",
				"energy": 0.06882,
				"method": "rhf"
			},
			{
				"type": "unocc",
				"energy": 0.07584,
				"method": "rhf"
			},
			{
				"type": "unocc",
				"energy": 0.08123,
				"method": "rhf"
			},
			{
				"type": "unocc",
				"energy": 0.09524,
				"method": "rhf"
			}
		],
		"cosmo_sigma_profile": { 
			"-0.025": 0.0,
			"-0.024": 0.0,
			"-0.023": 0.0,
			"-0.022": 0.0,
			"-0.021": 0.0,
			"-0.02": 0.0,
			"-0.019": 0.0,
			"-0.018": 0.0,
			"-0.017": 0.0,
			"-0.016": 0.0,
			"-0.015": 0.0,
			"-0.014": 0.0,
			"-0.013": 0.0,
			"-0.012": 0.0,
			"-0.011": 0.0,
			"-0.01": 0.0,
			"-0.009": 0.0,
			"-0.008": 0.0,
			"-0.007": 0.0,
			"-0.006": 3.139424213,
			"-0.005": 13.0318480357,
			"-0.004": 27.5132197736,
			"-0.003": 41.5145448986,
			"-0.002": 56.3939454085,
			"-0.001": 65.3738336528,
			"0.0": 50.8177065901,
			"0.001": 34.0998003026,
			"0.002": 17.1498177693,
			"0.003": 6.59781740145,
			"0.004": 5.25156018911,
			"0.005": 5.53695404283,
			"0.006": 5.23560946517,
			"0.007": 5.18053152968,
			"0.008": 4.40731930016,
			"0.009": 4.96898934096,
			"0.01": 3.92948590346,
			"0.011": 3.43807953739,
			"0.012": 5.88428540397,
			"0.013": 4.53116070514,
			"0.014": 0.542719359473,
			"0.015": 0.0,
			"0.016": 0.0,
			"0.017": 0.0,
			"0.018": 0.0,
			"0.019": 0.0,
			"0.02": 0.0,
			"0.021": 0.0,
			"0.022": 0.0,
			"0.023": 0.0,
			"0.024": 0.0,
			"0.025": 0.0
		}
	}
}
