{
	 "smiles": "NC1=NN(CC(=O)NCC2=CC=CC=C2)C=N1", 
	 "Tm": 455.15, 
	 "num_atms": 30, 
	 "gaussian": { 
		 "optdone": 1, 
		 "sigma_profile": "yes", 
		 "theory": "DFT", 
		 "functional": "B3LYP", 
		 "basiset": "6-31G**", 
		 "properties": { 
			 "R2extent": 5111.5191, 
			 "electric_dipole_moment_norm": 3.31324315739, 
			 "electric_quadrupole_moment_norm": 15.1436667072, 
			 "total_energy": -775.98613159, 
			 "HOMO_LUMO_gap": 0.20339, 
			 "cosmo_polarized_energy": -19.92, 
			 "cosmo_cavitation_energy": 34.98, 
			 "cosmo_dispersion_energy": -23.94, 
			 "cosmo_repulsion_energy": 1.87, 
			 "cosmo_total_nonelectrostatic_energy": 12.9, 
			 "SMD_solvation_energy": 4.02 
		},
		"coords": [
			{
				"x": 2.5483083183,
				"y": -2.4286090161,
				"z": -0.8811363371,
				"element": "N" 
			},
			{
				"x": 1.1739018051,
				"y": -2.4507752233,
				"z": -0.7690193359,
				"element": "C" 
			},
			{
				"x": 0.4829966228,
				"y": -1.4966930962,
				"z": -0.1471362067,
				"element": "N" 
			},
			{
				"x": -0.7986675708,
				"y": -1.9865844211,
				"z": -0.2163392223,
				"element": "N" 
			},
			{
				"x": -1.9171481113,
				"y": -1.2116830976,
				"z": 0.2874410668,
				"element": "C" 
			},
			{
				"x": -2.4241999503,
				"y": -0.1811328449,
				"z": -0.7423091046,
				"element": "C" 
			},
			{
				"x": -3.3112474475,
				"y": -0.4994743199,
				"z": -1.5251020671,
				"element": "O" 
			},
			{
				"x": -1.857986882,
				"y": 1.0575611421,
				"z": -0.7471815951,
				"element": "N" 
			},
			{
				"x": -0.7676381797,
				"y": 1.5962102687,
				"z": 0.0706233017,
				"element": "C" 
			},
			{
				"x": 0.1488527971,
				"y": 2.4782385253,
				"z": -0.7551595431,
				"element": "C" 
			},
			{
				"x": 0.2580291506,
				"y": 3.8468405565,
				"z": -0.4898994487,
				"element": "C" 
			},
			{
				"x": 1.1049022982,
				"y": 4.6548182313,
				"z": -1.2532959281,
				"element": "C" 
			},
			{
				"x": 1.8471819598,
				"y": 4.0986923422,
				"z": -2.2946925537,
				"element": "C" 
			},
			{
				"x": 1.7423430599,
				"y": 2.7314327329,
				"z": -2.5680755891,
				"element": "C" 
			},
			{
				"x": 0.8999212806,
				"y": 1.9264723478,
				"z": -1.803497768,
				"element": "C" 
			},
			{
				"x": -0.7969849902,
				"y": -3.1591585736,
				"z": -0.8786567529,
				"element": "C" 
			},
			{
				"x": 0.4306721474,
				"y": -3.4961715922,
				"z": -1.2394590666,
				"element": "N" 
			},
			{
				"x": 2.9613068072,
				"y": -1.5089906186,
				"z": -0.818473721,
				"element": "H" 
			},
			{
				"x": 2.8971768027,
				"y": -2.984654968,
				"z": -1.6487750054,
				"element": "H" 
			},
			{
				"x": -2.7512681618,
				"y": -1.8933225894,
				"z": 0.4590912742,
				"element": "H" 
			},
			{
				"x": -1.6208194582,
				"y": -0.7658826257,
				"z": 1.2393376827,
				"element": "H" 
			},
			{
				"x": -2.25044537,
				"y": 1.6700645041,
				"z": -1.4522127315,
				"element": "H" 
			},
			{
				"x": -0.1913835722,
				"y": 0.7580258239,
				"z": 0.4687477525,
				"element": "H" 
			},
			{
				"x": -1.169796053,
				"y": 2.1742449597,
				"z": 0.9139095172,
				"element": "H" 
			},
			{
				"x": -0.3213637127,
				"y": 4.2837524214,
				"z": 0.3200644588,
				"element": "H" 
			},
			{
				"x": 1.1802647141,
				"y": 5.7163369345,
				"z": -1.0353940086,
				"element": "H" 
			},
			{
				"x": 2.5041428708,
				"y": 4.7249579311,
				"z": -2.8914062172,
				"element": "H" 
			},
			{
				"x": 2.3200962762,
				"y": 2.293768643,
				"z": -3.377453926,
				"element": "H" 
			},
			{
				"x": 0.8196578211,
				"y": 0.862546971,
				"z": -2.0081986006,
				"element": "H" 
			},
			{
				"x": -1.6984052725,
				"y": -3.724931349,
				"z": -1.0702403246,
				"element": "H" 
			}
		],
		 "valence_orbital": [ 
			{
				"type": "occ",
				"energy": -0.26517,
				"method": "rhf"
			},
			{
				"type": "occ",
				"energy": -0.25786,
				"method": "rhf"
			},
			{
				"type": "occ",
				"energy": -0.25368,
				"method": "rhf"
			},
			{
				"type": "occ",
				"energy": -0.24432,
				"method": "rhf"
			},
			{
				"type": "occ",
				"energy": -0.21595,
				"method": "rhf"
			},
			{
				"type": "unocc",
				"energy": -0.01256,
				"method": "rhf"
			},
			{
				"type": "unocc",
				"energy": -0.0088,
				"method": "rhf"
			},
			{
				"type": "unocc",
				"energy": 0.00069,
				"method": "rhf"
			},
			{
				"type": "unocc",
				"energy": 0.02345,
				"method": "rhf"
			},
			{
				"type": "unocc",
				"energy": 0.06821,
				"method": "rhf"
			}
		],
		"cosmo_sigma_profile": { 
			"-0.025": 0.0,
			"-0.024": 0.0,
			"-0.023": 0.0,
			"-0.022": 0.0,
			"-0.021": 0.0,
			"-0.02": 0.0,
			"-0.019": 0.0,
			"-0.018": 0.0,
			"-0.017": 0.0,
			"-0.016": 0.0,
			"-0.015": 0.0,
			"-0.014": 0.0947918522347,
			"-0.013": 2.38779791686,
			"-0.012": 2.97770754176,
			"-0.011": 3.70010673789,
			"-0.01": 5.58364307218,
			"-0.009": 5.64958442938,
			"-0.008": 7.38986591095,
			"-0.007": 8.85439944909,
			"-0.006": 13.3966192115,
			"-0.005": 20.9421050325,
			"-0.004": 19.501695286,
			"-0.003": 19.8255775071,
			"-0.002": 13.2790985332,
			"-0.001": 15.8286609216,
			"0.0": 18.08693878,
			"0.001": 17.6800660564,
			"0.002": 12.8464330223,
			"0.003": 13.8859122458,
			"0.004": 13.129468842,
			"0.005": 12.9038665067,
			"0.006": 11.3009207537,
			"0.007": 4.93509318966,
			"0.008": 4.36897731263,
			"0.009": 3.39632384673,
			"0.01": 3.95290786747,
			"0.011": 3.52016621794,
			"0.012": 4.9580904848,
			"0.013": 6.38309483911,
			"0.014": 5.24568403561,
			"0.015": 1.08681928544,
			"0.016": 0.939711448269,
			"0.017": 0.261743835155,
			"0.018": 0.0,
			"0.019": 0.0,
			"0.02": 0.0,
			"0.021": 0.0,
			"0.022": 0.0,
			"0.023": 0.0,
			"0.024": 0.0,
			"0.025": 0.0
		}
	}
}
