{
	 "smiles": "CCOC(=O)C1=CC2=CC=CC(OC)=C2O1", 
	 "Tm": 360.65, 
	 "num_atms": 28, 
	 "gaussian": { 
		 "optdone": 1, 
		 "sigma_profile": "yes", 
		 "theory": "DFT", 
		 "functional": "B3LYP", 
		 "basiset": "6-31G**", 
		 "properties": { 
			 "R2extent": 5650.4588, 
			 "electric_dipole_moment_norm": 1.78411359224, 
			 "electric_quadrupole_moment_norm": 15.2656004615, 
			 "total_energy": -765.391442775, 
			 "HOMO_LUMO_gap": 0.15759, 
			 "cosmo_polarized_energy": -9.28, 
			 "cosmo_cavitation_energy": 32.84, 
			 "cosmo_dispersion_energy": -23.38, 
			 "cosmo_repulsion_energy": 1.84, 
			 "cosmo_total_nonelectrostatic_energy": 11.3, 
			 "SMD_solvation_energy": 7.82 
		},
		"coords": [
			{
				"x": 2.7289212959,
				"y": -3.449400689,
				"z": 0.5938831892,
				"element": "C" 
			},
			{
				"x": 3.5517831136,
				"y": -2.2556285968,
				"z": 0.1491978377,
				"element": "C" 
			},
			{
				"x": 2.6302558548,
				"y": -1.2471907156,
				"z": -0.3270629179,
				"element": "O" 
			},
			{
				"x": 3.1977723759,
				"y": -0.1068278771,
				"z": -0.7650788401,
				"element": "C" 
			},
			{
				"x": 4.3949028342,
				"y": 0.1093784011,
				"z": -0.7800965374,
				"element": "O" 
			},
			{
				"x": 2.2055933228,
				"y": 0.8721799471,
				"z": -1.2335180205,
				"element": "C" 
			},
			{
				"x": 2.4119978748,
				"y": 2.1203810507,
				"z": -1.7387301415,
				"element": "C" 
			},
			{
				"x": 1.1164916828,
				"y": 2.6596081941,
				"z": -2.0433763659,
				"element": "C" 
			},
			{
				"x": 0.6581410203,
				"y": 3.875220919,
				"z": -2.5766144618,
				"element": "C" 
			},
			{
				"x": -0.7137392512,
				"y": 4.0308269813,
				"z": -2.7268657996,
				"element": "C" 
			},
			{
				"x": -1.6147618369,
				"y": 3.017150439,
				"z": -2.3623060944,
				"element": "C" 
			},
			{
				"x": -1.1883845931,
				"y": 1.7962879821,
				"z": -1.8288653036,
				"element": "C" 
			},
			{
				"x": -2.1560848496,
				"y": 0.8951699589,
				"z": -1.5151911446,
				"element": "O" 
			},
			{
				"x": -1.8008892384,
				"y": -0.3740226427,
				"z": -0.9657941836,
				"element": "C" 
			},
			{
				"x": 0.2003167665,
				"y": 1.6472574519,
				"z": -1.6803109249,
				"element": "C" 
			},
			{
				"x": 0.86783271,
				"y": 0.5556902641,
				"z": -1.1856082921,
				"element": "O" 
			},
			{
				"x": 2.0414359875,
				"y": -3.1728786599,
				"z": 1.3983466188,
				"element": "H" 
			},
			{
				"x": 2.1431501035,
				"y": -3.8522842862,
				"z": -0.2372719827,
				"element": "H" 
			},
			{
				"x": 3.3913033071,
				"y": -4.238580032,
				"z": 0.9628850894,
				"element": "H" 
			},
			{
				"x": 4.2446976128,
				"y": -2.5098047098,
				"z": -0.6591698676,
				"element": "H" 
			},
			{
				"x": 4.1434252668,
				"y": -1.8339158072,
				"z": 0.9679184038,
				"element": "H" 
			},
			{
				"x": 3.3774957556,
				"y": 2.5855182009,
				"z": -1.8715596629,
				"element": "H" 
			},
			{
				"x": 1.3523314728,
				"y": 4.6594794726,
				"z": -2.8588633161,
				"element": "H" 
			},
			{
				"x": -1.1104900384,
				"y": 4.9553529831,
				"z": -3.1354405202,
				"element": "H" 
			},
			{
				"x": -2.6834481096,
				"y": 3.1570875656,
				"z": -2.48710473,
				"element": "H" 
			},
			{
				"x": -1.1745957151,
				"y": -0.9503281356,
				"z": -1.6534495335,
				"element": "H" 
			},
			{
				"x": -2.7465985568,
				"y": -0.8950248525,
				"z": -0.8081665331,
				"element": "H" 
			},
			{
				"x": -1.2767561685,
				"y": -0.2680028069,
				"z": -0.0111859648,
				"element": "H" 
			}
		],
		 "valence_orbital": [ 
			{
				"type": "occ",
				"energy": -0.30246,
				"method": "rhf"
			},
			{
				"type": "occ",
				"energy": -0.28121,
				"method": "rhf"
			},
			{
				"type": "occ",
				"energy": -0.27904,
				"method": "rhf"
			},
			{
				"type": "occ",
				"energy": -0.23912,
				"method": "rhf"
			},
			{
				"type": "occ",
				"energy": -0.2105,
				"method": "rhf"
			},
			{
				"type": "unocc",
				"energy": -0.05291,
				"method": "rhf"
			},
			{
				"type": "unocc",
				"energy": 0.0111,
				"method": "rhf"
			},
			{
				"type": "unocc",
				"energy": 0.02523,
				"method": "rhf"
			},
			{
				"type": "unocc",
				"energy": 0.08406,
				"method": "rhf"
			},
			{
				"type": "unocc",
				"energy": 0.09883,
				"method": "rhf"
			}
		],
		"cosmo_sigma_profile": { 
			"-0.025": 0.0,
			"-0.024": 0.0,
			"-0.023": 0.0,
			"-0.022": 0.0,
			"-0.021": 0.0,
			"-0.02": 0.0,
			"-0.019": 0.0,
			"-0.018": 0.0,
			"-0.017": 0.0,
			"-0.016": 0.0,
			"-0.015": 0.0,
			"-0.014": 0.0,
			"-0.013": 0.0,
			"-0.012": 0.0,
			"-0.011": 0.0,
			"-0.01": 0.0,
			"-0.009": 0.356954235552,
			"-0.008": 1.54339105853,
			"-0.007": 1.72222355882,
			"-0.006": 10.3907962458,
			"-0.005": 20.6931399899,
			"-0.004": 28.5005613043,
			"-0.003": 28.9352385905,
			"-0.002": 22.3851124455,
			"-0.001": 20.2044564053,
			"0.0": 22.3414054774,
			"0.001": 18.4258623526,
			"0.002": 18.0716210685,
			"0.003": 14.7894894377,
			"0.004": 13.0059373752,
			"0.005": 11.1585616296,
			"0.006": 5.28996904757,
			"0.007": 4.30955825509,
			"0.008": 4.60464117495,
			"0.009": 3.92940699582,
			"0.01": 3.46660183992,
			"0.011": 3.58166122213,
			"0.012": 3.94775373796,
			"0.013": 0.0249728643566,
			"0.014": 0.0,
			"0.015": 0.0,
			"0.016": 0.0,
			"0.017": 0.0,
			"0.018": 0.0,
			"0.019": 0.0,
			"0.02": 0.0,
			"0.021": 0.0,
			"0.022": 0.0,
			"0.023": 0.0,
			"0.024": 0.0,
			"0.025": 0.0
		}
	}
}
