{
	 "smiles": "OC(=O)CC(F)(F)F", 
	 "Tm": 282.85, 
	 "num_atms": 11, 
	 "gaussian": { 
		 "optdone": 1, 
		 "sigma_profile": "yes", 
		 "theory": "DFT", 
		 "functional": "B3LYP", 
		 "basiset": "6-31G**", 
		 "properties": { 
			 "R2extent": 1354.3548, 
			 "electric_dipole_moment_norm": 3.04174922865, 
			 "electric_quadrupole_moment_norm": 6.61398404141, 
			 "total_energy": -566.114372298, 
			 "HOMO_LUMO_gap": 0.2858, 
			 "cosmo_polarized_energy": -10.25, 
			 "cosmo_cavitation_energy": 17.12, 
			 "cosmo_dispersion_energy": -12.17, 
			 "cosmo_repulsion_energy": 0.99, 
			 "cosmo_total_nonelectrostatic_energy": 5.94, 
			 "SMD_solvation_energy": 5.51 
		},
		"coords": [
			{
				"x": -2.8845640833,
				"y": -0.7165810425,
				"z": 0.8325080293,
				"element": "O" 
			},
			{
				"x": -1.9456249802,
				"y": -0.2647154725,
				"z": -0.0305871424,
				"element": "C" 
			},
			{
				"x": -1.5921341,
				"y": -0.8739171343,
				"z": -1.0103632614,
				"element": "O" 
			},
			{
				"x": -1.4321803472,
				"y": 1.0868071678,
				"z": 0.4284496719,
				"element": "C" 
			},
			{
				"x": -0.3706146837,
				"y": 1.6820145823,
				"z": -0.4745141685,
				"element": "C" 
			},
			{
				"x": 0.01787385,
				"y": 2.8808852954,
				"z": 0.0214972061,
				"element": "F" 
			},
			{
				"x": 0.7218923499,
				"y": 0.9023607077,
				"z": -0.5501595264,
				"element": "F" 
			},
			{
				"x": -0.8278426763,
				"y": 1.889187875,
				"z": -1.7215789724,
				"element": "F" 
			},
			{
				"x": -3.1761499158,
				"y": -1.5795377832,
				"z": 0.4924133984,
				"element": "H" 
			},
			{
				"x": -1.0209267333,
				"y": 0.990574974,
				"z": 1.4374448518,
				"element": "H" 
			},
			{
				"x": -2.2707286801,
				"y": 1.7862208302,
				"z": 0.4925899135,
				"element": "H" 
			}
		],
		 "valence_orbital": [ 
			{
				"type": "occ",
				"energy": -0.40463,
				"method": "rhf"
			},
			{
				"type": "occ",
				"energy": -0.39885,
				"method": "rhf"
			},
			{
				"type": "occ",
				"energy": -0.38216,
				"method": "rhf"
			},
			{
				"type": "occ",
				"energy": -0.337,
				"method": "rhf"
			},
			{
				"type": "occ",
				"energy": -0.29521,
				"method": "rhf"
			},
			{
				"type": "unocc",
				"energy": -0.00941,
				"method": "rhf"
			},
			{
				"type": "unocc",
				"energy": 0.06506,
				"method": "rhf"
			},
			{
				"type": "unocc",
				"energy": 0.09397,
				"method": "rhf"
			},
			{
				"type": "unocc",
				"energy": 0.12023,
				"method": "rhf"
			},
			{
				"type": "unocc",
				"energy": 0.13729,
				"method": "rhf"
			}
		],
		"cosmo_sigma_profile": { 
			"-0.025": 0.0,
			"-0.024": 0.0,
			"-0.023": 0.0,
			"-0.022": 0.0,
			"-0.021": 0.0,
			"-0.02": 0.0,
			"-0.019": 0.469859099963,
			"-0.018": 0.880167207196,
			"-0.017": 1.02025048175,
			"-0.016": 1.16238920516,
			"-0.015": 0.660702347629,
			"-0.014": 0.444780830013,
			"-0.013": 0.323331360774,
			"-0.012": 0.738608281807,
			"-0.011": 0.958757460446,
			"-0.01": 3.45552787867,
			"-0.009": 5.52093517503,
			"-0.008": 4.22242721526,
			"-0.007": 4.99462262752,
			"-0.006": 4.71980359279,
			"-0.005": 4.53093867888,
			"-0.004": 4.78361602748,
			"-0.003": 3.72840868739,
			"-0.002": 3.37172129485,
			"-0.001": 4.03123989599,
			"0.0": 5.75753194918,
			"0.001": 6.64724306203,
			"0.002": 17.8640950126,
			"0.003": 26.0215813,
			"0.004": 4.44100866615,
			"0.005": 2.98069541872,
			"0.006": 3.8376990502,
			"0.007": 3.68134721568,
			"0.008": 3.53027719394,
			"0.009": 3.23650919379,
			"0.01": 3.96759603826,
			"0.011": 3.9331489078,
			"0.012": 0.125851885005,
			"0.013": 0.0,
			"0.014": 0.0,
			"0.015": 0.0,
			"0.016": 0.0,
			"0.017": 0.0,
			"0.018": 0.0,
			"0.019": 0.0,
			"0.02": 0.0,
			"0.021": 0.0,
			"0.022": 0.0,
			"0.023": 0.0,
			"0.024": 0.0,
			"0.025": 0.0
		}
	}
}
