{
	 "smiles": "OC(=O)CSCC(=O)N1CCCCC1", 
	 "Tm": 365.15, 
	 "num_atms": 29, 
	 "gaussian": { 
		 "optdone": 1, 
		 "sigma_profile": "yes", 
		 "theory": "DFT", 
		 "functional": "B3LYP", 
		 "basiset": "6-31G**", 
		 "properties": { 
			 "R2extent": 4875.5117, 
			 "electric_dipole_moment_norm": 7.6990365722, 
			 "electric_quadrupole_moment_norm": 26.8615187927, 
			 "total_energy": -1030.63121027, 
			 "HOMO_LUMO_gap": 0.22903, 
			 "cosmo_polarized_energy": -18.39, 
			 "cosmo_cavitation_energy": 32.15, 
			 "cosmo_dispersion_energy": -23.36, 
			 "cosmo_repulsion_energy": 1.82, 
			 "cosmo_total_nonelectrostatic_energy": 10.61, 
			 "SMD_solvation_energy": 5.75 
		},
		"coords": [
			{
				"x": -4.0618701814,
				"y": 2.1231772915,
				"z": -2.7577561861,
				"element": "O" 
			},
			{
				"x": -3.591989128,
				"y": 0.9578884662,
				"z": -3.241158236,
				"element": "C" 
			},
			{
				"x": -4.2267726805,
				"y": 0.2801979245,
				"z": -4.0099585807,
				"element": "O" 
			},
			{
				"x": -2.189861279,
				"y": 0.5237586735,
				"z": -2.7858083602,
				"element": "C" 
			},
			{
				"x": -1.4014423462,
				"y": 1.5501260694,
				"z": -1.4829072207,
				"element": "S" 
			},
			{
				"x": -2.1125932352,
				"y": 0.7669287673,
				"z": 0.032384237,
				"element": "C" 
			},
			{
				"x": -1.595282373,
				"y": -0.6575562219,
				"z": 0.2172630139,
				"element": "C" 
			},
			{
				"x": -2.1918342891,
				"y": -1.580856458,
				"z": -0.3403639628,
				"element": "O" 
			},
			{
				"x": -0.475893405,
				"y": -0.8411595849,
				"z": 0.9773972286,
				"element": "N" 
			},
			{
				"x": 0.0389530821,
				"y": -2.2016326398,
				"z": 1.1702490428,
				"element": "C" 
			},
			{
				"x": 1.476701238,
				"y": -2.3374396946,
				"z": 0.6374874698,
				"element": "C" 
			},
			{
				"x": 2.3208115701,
				"y": -1.0703767774,
				"z": 0.9356711755,
				"element": "C" 
			},
			{
				"x": 1.6748697122,
				"y": -0.2271181595,
				"z": 2.0419788448,
				"element": "C" 
			},
			{
				"x": 0.2812344807,
				"y": 0.2542549762,
				"z": 1.6076088188,
				"element": "C" 
			},
			{
				"x": -3.3739542812,
				"y": 2.5195166318,
				"z": -2.1873831376,
				"element": "H" 
			},
			{
				"x": -2.2446389226,
				"y": -0.5123058778,
				"z": -2.4421442178,
				"element": "H" 
			},
			{
				"x": -1.5273877841,
				"y": 0.5564962441,
				"z": -3.6551591102,
				"element": "H" 
			},
			{
				"x": -3.1972256667,
				"y": 0.7097613231,
				"z": -0.0732657961,
				"element": "H" 
			},
			{
				"x": -1.8723252922,
				"y": 1.4452329675,
				"z": 0.8525335671,
				"element": "H" 
			},
			{
				"x": -0.645907283,
				"y": -2.8766019517,
				"z": 0.6588653697,
				"element": "H" 
			},
			{
				"x": 0.0049275743,
				"y": -2.4398150435,
				"z": 2.2411525571,
				"element": "H" 
			},
			{
				"x": 1.4516034164,
				"y": -2.5231995924,
				"z": -0.4409316798,
				"element": "H" 
			},
			{
				"x": 1.9291119115,
				"y": -3.2224886393,
				"z": 1.0992637875,
				"element": "H" 
			},
			{
				"x": 2.3993772678,
				"y": -0.455202449,
				"z": 0.0311056581,
				"element": "H" 
			},
			{
				"x": 3.3438321106,
				"y": -1.3431235408,
				"z": 1.2135342588,
				"element": "H" 
			},
			{
				"x": 1.6048178232,
				"y": -0.8086253646,
				"z": 2.9688819186,
				"element": "H" 
			},
			{
				"x": 2.2842908594,
				"y": 0.6526176667,
				"z": 2.2740437249,
				"element": "H" 
			},
			{
				"x": -0.2642198012,
				"y": 0.6608084378,
				"z": 2.4716086522,
				"element": "H" 
			},
			{
				"x": 0.4069669021,
				"y": 1.0641365554,
				"z": 0.8808071628,
				"element": "H" 
			}
		],
		 "valence_orbital": [ 
			{
				"type": "occ",
				"energy": -0.30707,
				"method": "rhf"
			},
			{
				"type": "occ",
				"energy": -0.28798,
				"method": "rhf"
			},
			{
				"type": "occ",
				"energy": -0.26081,
				"method": "rhf"
			},
			{
				"type": "occ",
				"energy": -0.24782,
				"method": "rhf"
			},
			{
				"type": "occ",
				"energy": -0.24248,
				"method": "rhf"
			},
			{
				"type": "unocc",
				"energy": -0.01345,
				"method": "rhf"
			},
			{
				"type": "unocc",
				"energy": 0.01344,
				"method": "rhf"
			},
			{
				"type": "unocc",
				"energy": 0.02475,
				"method": "rhf"
			},
			{
				"type": "unocc",
				"energy": 0.05564,
				"method": "rhf"
			},
			{
				"type": "unocc",
				"energy": 0.06531,
				"method": "rhf"
			}
		],
		"cosmo_sigma_profile": { 
			"-0.025": 0.0,
			"-0.024": 0.0,
			"-0.023": 0.0,
			"-0.022": 0.0,
			"-0.021": 0.0,
			"-0.02": 0.0,
			"-0.019": 0.0,
			"-0.018": 0.0,
			"-0.017": 0.0,
			"-0.016": 0.0,
			"-0.015": 0.0,
			"-0.014": 0.0,
			"-0.013": 0.240129077687,
			"-0.012": 0.582982304106,
			"-0.011": 0.497089702471,
			"-0.01": 0.925698347491,
			"-0.009": 5.33413648244,
			"-0.008": 7.78998957396,
			"-0.007": 8.63275211266,
			"-0.006": 7.486234032,
			"-0.005": 11.9552815772,
			"-0.004": 22.1489343994,
			"-0.003": 29.9247491852,
			"-0.002": 28.8752312269,
			"-0.001": 25.8880919245,
			"0.0": 18.3979686375,
			"0.001": 12.6091994548,
			"0.002": 7.56575039305,
			"0.003": 5.76505054304,
			"0.004": 8.05515107928,
			"0.005": 5.38557181974,
			"0.006": 3.77121075651,
			"0.007": 4.48187223749,
			"0.008": 5.64024769866,
			"0.009": 4.23475343631,
			"0.01": 6.33218110877,
			"0.011": 5.69166658058,
			"0.012": 7.57565949387,
			"0.013": 5.03470460726,
			"0.014": 2.49507891395,
			"0.015": 0.0409443342886,
			"0.016": 0.0,
			"0.017": 0.0,
			"0.018": 0.0,
			"0.019": 0.0,
			"0.02": 0.0,
			"0.021": 0.0,
			"0.022": 0.0,
			"0.023": 0.0,
			"0.024": 0.0,
			"0.025": 0.0
		}
	}
}
