{
	 "smiles": "CCCCCC(C1=CC=CC=C1)C1=CC=CC=C1", 
	 "Tm": 261.15, 
	 "num_atms": 40, 
	 "gaussian": { 
		 "optdone": 1, 
		 "sigma_profile": "yes", 
		 "theory": "DFT", 
		 "functional": "B3LYP", 
		 "basiset": "6-31G**", 
		 "properties": { 
			 "R2extent": 5852.5366, 
			 "electric_dipole_moment_norm": 0.106441768118, 
			 "electric_quadrupole_moment_norm": 4.93192716795, 
			 "total_energy": -699.193664047, 
			 "HOMO_LUMO_gap": 0.22363, 
			 "cosmo_polarized_energy": -5.73, 
			 "cosmo_cavitation_energy": 41.0, 
			 "cosmo_dispersion_energy": -27.66, 
			 "cosmo_repulsion_energy": 2.19, 
			 "cosmo_total_nonelectrostatic_energy": 15.53, 
			 "SMD_solvation_energy": 6.31 
		},
		"coords": [
			{
				"x": 0.2055951833,
				"y": 4.4782831217,
				"z": -2.5075126396,
				"element": "C" 
			},
			{
				"x": 0.1619391588,
				"y": 2.988331144,
				"z": -2.8689501692,
				"element": "C" 
			},
			{
				"x": -0.197069317,
				"y": 2.0510708803,
				"z": -1.7030626355,
				"element": "C" 
			},
			{
				"x": 0.8481899553,
				"y": 2.0205173547,
				"z": -0.5759130275,
				"element": "C" 
			},
			{
				"x": 0.5214912035,
				"y": 1.0901579462,
				"z": 0.6120535529,
				"element": "C" 
			},
			{
				"x": 0.9753825314,
				"y": -0.383578946,
				"z": 0.4573345502,
				"element": "C" 
			},
			{
				"x": 0.2265762678,
				"y": -1.1447559875,
				"z": -0.6372520304,
				"element": "C" 
			},
			{
				"x": -1.1336164624,
				"y": -1.4604607524,
				"z": -0.5014900489,
				"element": "C" 
			},
			{
				"x": -1.8134524057,
				"y": -2.1448009239,
				"z": -1.5077169642,
				"element": "C" 
			},
			{
				"x": -1.1438989671,
				"y": -2.5353205295,
				"z": -2.6706545576,
				"element": "C" 
			},
			{
				"x": 0.2109797712,
				"y": -2.2377571479,
				"z": -2.8141068777,
				"element": "C" 
			},
			{
				"x": 0.8878341941,
				"y": -1.5502612066,
				"z": -1.8033467841,
				"element": "C" 
			},
			{
				"x": 0.9408771966,
				"y": -1.1648432306,
				"z": 1.7743393264,
				"element": "C" 
			},
			{
				"x": 0.0716779033,
				"y": -0.8505807742,
				"z": 2.8272797912,
				"element": "C" 
			},
			{
				"x": 0.0614027653,
				"y": -1.6090513736,
				"z": 4.0014166924,
				"element": "C" 
			},
			{
				"x": 0.9228174249,
				"y": -2.6954597761,
				"z": 4.1459589884,
				"element": "C" 
			},
			{
				"x": 1.7964825688,
				"y": -3.0193367819,
				"z": 3.1049003247,
				"element": "C" 
			},
			{
				"x": 1.8013636941,
				"y": -2.2617601216,
				"z": 1.9354138474,
				"element": "C" 
			},
			{
				"x": -0.7509372547,
				"y": 4.8092771438,
				"z": -2.0858114925,
				"element": "H" 
			},
			{
				"x": 0.9852752245,
				"y": 4.7009896352,
				"z": -1.7718078623,
				"element": "H" 
			},
			{
				"x": 0.4074963347,
				"y": 5.092251403,
				"z": -3.391631996,
				"element": "H" 
			},
			{
				"x": -0.5720068532,
				"y": 2.8405414443,
				"z": -3.6714630462,
				"element": "H" 
			},
			{
				"x": 1.1314204298,
				"y": 2.6860032696,
				"z": -3.2891043556,
				"element": "H" 
			},
			{
				"x": -1.1653638266,
				"y": 2.3575233797,
				"z": -1.2805937246,
				"element": "H" 
			},
			{
				"x": -0.343373937,
				"y": 1.0411670037,
				"z": -2.0975584138,
				"element": "H" 
			},
			{
				"x": 1.8285597269,
				"y": 1.7489321908,
				"z": -0.993937333,
				"element": "H" 
			},
			{
				"x": 0.9669467341,
				"y": 3.0362637542,
				"z": -0.1800078102,
				"element": "H" 
			},
			{
				"x": 1.0152387637,
				"y": 1.4819380638,
				"z": 1.509436163,
				"element": "H" 
			},
			{
				"x": -0.5564838299,
				"y": 1.1333814059,
				"z": 0.8142086064,
				"element": "H" 
			},
			{
				"x": 2.0286389183,
				"y": -0.3498915742,
				"z": 0.1482790983,
				"element": "H" 
			},
			{
				"x": -1.6615848353,
				"y": -1.1774718928,
				"z": 0.4050947821,
				"element": "H" 
			},
			{
				"x": -2.8672153444,
				"y": -2.3786499173,
				"z": -1.3827215946,
				"element": "H" 
			},
			{
				"x": -1.6735455225,
				"y": -3.0703829537,
				"z": -3.4536471993,
				"element": "H" 
			},
			{
				"x": 0.744541324,
				"y": -2.5404915261,
				"z": -3.7109682035,
				"element": "H" 
			},
			{
				"x": 1.9438535656,
				"y": -1.3204335198,
				"z": -1.9245138803,
				"element": "H" 
			},
			{
				"x": -0.6020909721,
				"y": -0.0038586799,
				"z": 2.7430639182,
				"element": "H" 
			},
			{
				"x": -0.6210094896,
				"y": -1.3443405835,
				"z": 4.8045922526,
				"element": "H" 
			},
			{
				"x": 0.9169613261,
				"y": -3.2826412515,
				"z": 5.059789528,
				"element": "H" 
			},
			{
				"x": 2.4761740868,
				"y": -3.8611331135,
				"z": 3.2053274751,
				"element": "H" 
			},
			{
				"x": 2.4811327645,
				"y": -2.5244665768,
				"z": 1.1281837492,
				"element": "H" 
			}
		],
		 "valence_orbital": [ 
			{
				"type": "occ",
				"energy": -0.30134,
				"method": "rhf"
			},
			{
				"type": "occ",
				"energy": -0.24733,
				"method": "rhf"
			},
			{
				"type": "occ",
				"energy": -0.2455,
				"method": "rhf"
			},
			{
				"type": "occ",
				"energy": -0.24373,
				"method": "rhf"
			},
			{
				"type": "occ",
				"energy": -0.22893,
				"method": "rhf"
			},
			{
				"type": "unocc",
				"energy": -0.0053,
				"method": "rhf"
			},
			{
				"type": "unocc",
				"energy": -0.00195,
				"method": "rhf"
			},
			{
				"type": "unocc",
				"energy": 0.00443,
				"method": "rhf"
			},
			{
				"type": "unocc",
				"energy": 0.01495,
				"method": "rhf"
			},
			{
				"type": "unocc",
				"energy": 0.08953,
				"method": "rhf"
			}
		],
		"cosmo_sigma_profile": { 
			"-0.025": 0.0,
			"-0.024": 0.0,
			"-0.023": 0.0,
			"-0.022": 0.0,
			"-0.021": 0.0,
			"-0.02": 0.0,
			"-0.019": 0.0,
			"-0.018": 0.0,
			"-0.017": 0.0,
			"-0.016": 0.0,
			"-0.015": 0.0,
			"-0.014": 0.0,
			"-0.013": 0.0,
			"-0.012": 0.0,
			"-0.011": 0.0,
			"-0.01": 0.0,
			"-0.009": 0.0,
			"-0.008": 0.0,
			"-0.007": 0.0,
			"-0.006": 2.38786851128,
			"-0.005": 18.1723181199,
			"-0.004": 26.8515255806,
			"-0.003": 28.9491187981,
			"-0.002": 34.9146079237,
			"-0.001": 39.7483816749,
			"0.0": 39.3774857077,
			"0.001": 36.0409985227,
			"0.002": 26.2569945019,
			"0.003": 16.6487603356,
			"0.004": 15.9052854372,
			"0.005": 17.3198303943,
			"0.006": 15.0875944576,
			"0.007": 4.32317940652,
			"0.008": 0.0,
			"0.009": 0.0,
			"0.01": 0.0,
			"0.011": 0.0,
			"0.012": 0.0,
			"0.013": 0.0,
			"0.014": 0.0,
			"0.015": 0.0,
			"0.016": 0.0,
			"0.017": 0.0,
			"0.018": 0.0,
			"0.019": 0.0,
			"0.02": 0.0,
			"0.021": 0.0,
			"0.022": 0.0,
			"0.023": 0.0,
			"0.024": 0.0,
			"0.025": 0.0
		}
	}
}
