{
	 "smiles": "CSC(SC)=NC1=NC=CC=C1", 
	 "Tm": 573.15, 
	 "num_atms": 22, 
	 "gaussian": { 
		 "optdone": 1, 
		 "sigma_profile": "yes", 
		 "theory": "DFT", 
		 "functional": "B3LYP", 
		 "basiset": "6-31G**", 
		 "properties": { 
			 "R2extent": 3135.142, 
			 "electric_dipole_moment_norm": 2.88266059397, 
			 "electric_quadrupole_moment_norm": 7.01166678187, 
			 "total_energy": -1216.74127648, 
			 "HOMO_LUMO_gap": 0.17751, 
			 "cosmo_polarized_energy": -9.34, 
			 "cosmo_cavitation_energy": 28.97, 
			 "cosmo_dispersion_energy": -21.48, 
			 "cosmo_repulsion_energy": 1.65, 
			 "cosmo_total_nonelectrostatic_energy": 9.14, 
			 "SMD_solvation_energy": 3.73 
		},
		"coords": [
			{
				"x": 0.7909770681,
				"y": -0.1106566096,
				"z": -2.0554995291,
				"element": "C" 
			},
			{
				"x": -0.6651338287,
				"y": 0.9915459233,
				"z": -2.0704342363,
				"element": "S" 
			},
			{
				"x": -0.7998693606,
				"y": 1.5547832755,
				"z": -0.3746059448,
				"element": "C" 
			},
			{
				"x": -1.5400934629,
				"y": 3.1781488235,
				"z": -0.4077151638,
				"element": "S" 
			},
			{
				"x": -2.0426188103,
				"y": 3.3619940059,
				"z": 1.3361299818,
				"element": "C" 
			},
			{
				"x": -0.4536983204,
				"y": 1.0380704088,
				"z": 0.7362402688,
				"element": "N" 
			},
			{
				"x": -0.1146858169,
				"y": -0.2802193612,
				"z": 1.030419268,
				"element": "C" 
			},
			{
				"x": -0.7399255583,
				"y": -1.2918976664,
				"z": 0.4045913314,
				"element": "N" 
			},
			{
				"x": -0.4592213294,
				"y": -2.5398267849,
				"z": 0.8023592938,
				"element": "C" 
			},
			{
				"x": 0.4542297638,
				"y": -2.8527029957,
				"z": 1.8070497779,
				"element": "C" 
			},
			{
				"x": 1.1072593667,
				"y": -1.7953821145,
				"z": 2.4482434982,
				"element": "C" 
			},
			{
				"x": 0.813122155,
				"y": -0.492942494,
				"z": 2.0700927277,
				"element": "C" 
			},
			{
				"x": 1.5906044807,
				"y": 0.3206577967,
				"z": -1.4509039136,
				"element": "H" 
			},
			{
				"x": 1.1221322948,
				"y": -0.1700258079,
				"z": -3.0945236163,
				"element": "H" 
			},
			{
				"x": 0.5223441924,
				"y": -1.0979915713,
				"z": -1.6833781471,
				"element": "H" 
			},
			{
				"x": -2.5025532997,
				"y": 4.3494890357,
				"z": 1.4146112273,
				"element": "H" 
			},
			{
				"x": -1.1701164114,
				"y": 3.2977526578,
				"z": 1.9859582728,
				"element": "H" 
			},
			{
				"x": -2.7642850359,
				"y": 2.591209566,
				"z": 1.6105120264,
				"element": "H" 
			},
			{
				"x": -0.9968569308,
				"y": -3.3319456476,
				"z": 0.2830479258,
				"element": "H" 
			},
			{
				"x": 0.6419795548,
				"y": -3.8858238268,
				"z": 2.0799619357,
				"element": "H" 
			},
			{
				"x": 1.8253975343,
				"y": -1.9863412737,
				"z": 3.2407717897,
				"element": "H" 
			},
			{
				"x": 1.2708117548,
				"y": 0.3634046605,
				"z": 2.5528712257,
				"element": "H" 
			}
		],
		 "valence_orbital": [ 
			{
				"type": "occ",
				"energy": -0.28325,
				"method": "rhf"
			},
			{
				"type": "occ",
				"energy": -0.26028,
				"method": "rhf"
			},
			{
				"type": "occ",
				"energy": -0.24939,
				"method": "rhf"
			},
			{
				"type": "occ",
				"energy": -0.23637,
				"method": "rhf"
			},
			{
				"type": "occ",
				"energy": -0.22015,
				"method": "rhf"
			},
			{
				"type": "unocc",
				"energy": -0.04264,
				"method": "rhf"
			},
			{
				"type": "unocc",
				"energy": -0.01954,
				"method": "rhf"
			},
			{
				"type": "unocc",
				"energy": 0.01894,
				"method": "rhf"
			},
			{
				"type": "unocc",
				"energy": 0.02297,
				"method": "rhf"
			},
			{
				"type": "unocc",
				"energy": 0.05425,
				"method": "rhf"
			}
		],
		"cosmo_sigma_profile": { 
			"-0.025": 0.0,
			"-0.024": 0.0,
			"-0.023": 0.0,
			"-0.022": 0.0,
			"-0.021": 0.0,
			"-0.02": 0.0,
			"-0.019": 0.0,
			"-0.018": 0.0,
			"-0.017": 0.0,
			"-0.016": 0.0,
			"-0.015": 0.0,
			"-0.014": 0.0,
			"-0.013": 0.0,
			"-0.012": 0.0,
			"-0.011": 0.0,
			"-0.01": 0.0,
			"-0.009": 0.0,
			"-0.008": 0.329330258544,
			"-0.007": 7.89183789512,
			"-0.006": 15.3945564926,
			"-0.005": 18.2628003551,
			"-0.004": 18.2476000176,
			"-0.003": 18.4520491597,
			"-0.002": 21.6444162031,
			"-0.001": 17.2145962224,
			"0.0": 14.3505085058,
			"0.001": 12.4703970227,
			"0.002": 17.0459418586,
			"0.003": 22.6474138047,
			"0.004": 15.838521003,
			"0.005": 9.80100051381,
			"0.006": 8.80378971501,
			"0.007": 7.23907863877,
			"0.008": 2.82280085296,
			"0.009": 1.06232481711,
			"0.01": 0.893595953375,
			"0.011": 1.0950482919,
			"0.012": 0.94574704268,
			"0.013": 1.14808831597,
			"0.014": 0.67307099699,
			"0.015": 0.694571973845,
			"0.016": 0.0588131637438,
			"0.017": 0.0,
			"0.018": 0.0,
			"0.019": 0.0,
			"0.02": 0.0,
			"0.021": 0.0,
			"0.022": 0.0,
			"0.023": 0.0,
			"0.024": 0.0,
			"0.025": 0.0
		}
	}
}
