{
	 "smiles": "OC(=O)C1CCN(CC1)C1=C(C=CC=C1)[N+]([O-])=O", 
	 "Tm": 432.15, 
	 "num_atms": 32, 
	 "gaussian": { 
		 "optdone": 1, 
		 "sigma_profile": "yes", 
		 "theory": "DFT", 
		 "functional": "B3LYP", 
		 "basiset": "6-31G**", 
		 "properties": { 
			 "R2extent": 5615.0033, 
			 "electric_dipole_moment_norm": 5.36350916285, 
			 "electric_quadrupole_moment_norm": 19.0076116693, 
			 "total_energy": -876.016899854, 
			 "HOMO_LUMO_gap": 0.13877, 
			 "cosmo_polarized_energy": -17.61, 
			 "cosmo_cavitation_energy": 34.54, 
			 "cosmo_dispersion_energy": -24.74, 
			 "cosmo_repulsion_energy": 1.89, 
			 "cosmo_total_nonelectrostatic_energy": 11.7, 
			 "SMD_solvation_energy": 8.04 
		},
		"coords": [
			{
				"x": 4.058494961,
				"y": 2.0764573526,
				"z": 1.9609853661,
				"element": "O" 
			},
			{
				"x": 2.8575377784,
				"y": 1.7416729358,
				"z": 2.4949176981,
				"element": "C" 
			},
			{
				"x": 2.3315947621,
				"y": 2.3969137342,
				"z": 3.3676137007,
				"element": "O" 
			},
			{
				"x": 2.2944050667,
				"y": 0.4881670738,
				"z": 1.842462644,
				"element": "C" 
			},
			{
				"x": 1.1193950254,
				"y": -0.0805675233,
				"z": 2.6621832888,
				"element": "C" 
			},
			{
				"x": 0.121015897,
				"y": -0.8350229103,
				"z": 1.782535175,
				"element": "C" 
			},
			{
				"x": -0.4821347486,
				"y": 0.0686534194,
				"z": 0.7972043834,
				"element": "N" 
			},
			{
				"x": 0.3614501563,
				"y": 1.1772513947,
				"z": 0.3271092254,
				"element": "C" 
			},
			{
				"x": 1.8406518215,
				"y": 0.7854072201,
				"z": 0.383733017,
				"element": "C" 
			},
			{
				"x": -1.6247076784,
				"y": -0.3169108519,
				"z": 0.1296747626,
				"element": "C" 
			},
			{
				"x": -2.4598842807,
				"y": 0.568153678,
				"z": -0.6118734611,
				"element": "C" 
			},
			{
				"x": -3.5122257919,
				"y": 0.0998025197,
				"z": -1.4091431785,
				"element": "C" 
			},
			{
				"x": -3.8371336276,
				"y": -1.2464836221,
				"z": -1.4357791558,
				"element": "C" 
			},
			{
				"x": -3.0899740639,
				"y": -2.1288081538,
				"z": -0.6464970496,
				"element": "C" 
			},
			{
				"x": -2.0149690468,
				"y": -1.6818366467,
				"z": 0.107060834,
				"element": "C" 
			},
			{
				"x": -2.388655799,
				"y": 2.023839233,
				"z": -0.4814870858,
				"element": "N" 
			},
			{
				"x": -2.7368969108,
				"y": 2.7075247706,
				"z": -1.4488744323,
				"element": "O" 
			},
			{
				"x": -2.0497141191,
				"y": 2.4941254682,
				"z": 0.6086279602,
				"element": "O" 
			},
			{
				"x": 4.3338944744,
				"y": 2.8961933847,
				"z": 2.4050553887,
				"element": "H" 
			},
			{
				"x": 3.1202737633,
				"y": -0.2304382495,
				"z": 1.7958116277,
				"element": "H" 
			},
			{
				"x": 1.4868055712,
				"y": -0.7530665393,
				"z": 3.4436629069,
				"element": "H" 
			},
			{
				"x": 0.6072675015,
				"y": 0.7426946486,
				"z": 3.1679373609,
				"element": "H" 
			},
			{
				"x": -0.6753308575,
				"y": -1.2449336964,
				"z": 2.4114754857,
				"element": "H" 
			},
			{
				"x": 0.6201988845,
				"y": -1.6910988073,
				"z": 1.2968330607,
				"element": "H" 
			},
			{
				"x": 0.0903345313,
				"y": 1.4027208111,
				"z": -0.7086412781,
				"element": "H" 
			},
			{
				"x": 0.1775844262,
				"y": 2.0875238953,
				"z": 0.909290026,
				"element": "H" 
			},
			{
				"x": 2.4479936438,
				"y": 1.5827735448,
				"z": -0.0540057126,
				"element": "H" 
			},
			{
				"x": 2.0019443691,
				"y": -0.1063921478,
				"z": -0.2312892304,
				"element": "H" 
			},
			{
				"x": -4.0835390107,
				"y": 0.8326473104,
				"z": -1.9657592013,
				"element": "H" 
			},
			{
				"x": -4.6669351902,
				"y": -1.6001353361,
				"z": -2.037808212,
				"element": "H" 
			},
			{
				"x": -3.3322735203,
				"y": -3.1878747497,
				"z": -0.6369671437,
				"element": "H" 
			},
			{
				"x": -1.4289679882,
				"y": -2.407353161,
				"z": 0.6561512292,
				"element": "H" 
			}
		],
		 "valence_orbital": [ 
			{
				"type": "occ",
				"energy": -0.28843,
				"method": "rhf"
			},
			{
				"type": "occ",
				"energy": -0.28226,
				"method": "rhf"
			},
			{
				"type": "occ",
				"energy": -0.28114,
				"method": "rhf"
			},
			{
				"type": "occ",
				"energy": -0.26042,
				"method": "rhf"
			},
			{
				"type": "occ",
				"energy": -0.20917,
				"method": "rhf"
			},
			{
				"type": "unocc",
				"energy": -0.0704,
				"method": "rhf"
			},
			{
				"type": "unocc",
				"energy": -0.00723,
				"method": "rhf"
			},
			{
				"type": "unocc",
				"energy": -0.00257,
				"method": "rhf"
			},
			{
				"type": "unocc",
				"energy": 0.00395,
				"method": "rhf"
			},
			{
				"type": "unocc",
				"energy": 0.06527,
				"method": "rhf"
			}
		],
		"cosmo_sigma_profile": { 
			"-0.025": 0.0,
			"-0.024": 0.0,
			"-0.023": 0.0,
			"-0.022": 0.0,
			"-0.021": 0.0,
			"-0.02": 0.0,
			"-0.019": 0.0,
			"-0.018": 0.63671192517,
			"-0.017": 0.903414094469,
			"-0.016": 0.948900583744,
			"-0.015": 0.513507828224,
			"-0.014": 1.11585029208,
			"-0.013": 0.642584239489,
			"-0.012": 0.476923004471,
			"-0.011": 0.722247611692,
			"-0.01": 1.04402659568,
			"-0.009": 0.510172308081,
			"-0.008": 0.275278230011,
			"-0.007": 3.64501503184,
			"-0.006": 15.1344576507,
			"-0.005": 29.104436878,
			"-0.004": 33.0502295406,
			"-0.003": 23.7051209959,
			"-0.002": 19.9508197462,
			"-0.001": 14.9629474349,
			"0.0": 11.9411283311,
			"0.001": 12.9248956995,
			"0.002": 14.8051823985,
			"0.003": 14.5205732216,
			"0.004": 13.278047344,
			"0.005": 6.63647768002,
			"0.006": 5.56604741585,
			"0.007": 6.93666170246,
			"0.008": 10.2837229302,
			"0.009": 10.4043758814,
			"0.01": 7.61965424764,
			"0.011": 6.45247272134,
			"0.012": 3.70844136439,
			"0.013": 0.0440743658097,
			"0.014": 0.0,
			"0.015": 0.0,
			"0.016": 0.0,
			"0.017": 0.0,
			"0.018": 0.0,
			"0.019": 0.0,
			"0.02": 0.0,
			"0.021": 0.0,
			"0.022": 0.0,
			"0.023": 0.0,
			"0.024": 0.0,
			"0.025": 0.0
		}
	}
}
