{
	 "smiles": "CC(=O)C1=CC(F)=C(Cl)C=C1", 
	 "Tm": 313.15, 
	 "num_atms": 17, 
	 "gaussian": { 
		 "optdone": 1, 
		 "sigma_profile": "yes", 
		 "theory": "DFT", 
		 "functional": "B3LYP", 
		 "basiset": "6-31G**", 
		 "properties": { 
			 "R2extent": 2527.3405, 
			 "electric_dipole_moment_norm": 3.39058579747, 
			 "electric_quadrupole_moment_norm": 9.47488453544, 
			 "total_energy": -943.717889772, 
			 "HOMO_LUMO_gap": 0.18942, 
			 "cosmo_polarized_energy": -8.02, 
			 "cosmo_cavitation_energy": 23.86, 
			 "cosmo_dispersion_energy": -17.47, 
			 "cosmo_repulsion_energy": 1.38, 
			 "cosmo_total_nonelectrostatic_energy": 7.77, 
			 "SMD_solvation_energy": 5.07 
		},
		"coords": [
			{
				"x": 1.6607591955,
				"y": -1.3412396828,
				"z": 3.4786484059,
				"element": "C" 
			},
			{
				"x": 2.1267036154,
				"y": -0.4406153692,
				"z": 2.3489065902,
				"element": "C" 
			},
			{
				"x": 3.2019096021,
				"y": 0.1344222323,
				"z": 2.4082242442,
				"element": "O" 
			},
			{
				"x": 1.2398792644,
				"y": -0.2660939214,
				"z": 1.1491495411,
				"element": "C" 
			},
			{
				"x": 1.695651308,
				"y": 0.5711566668,
				"z": 0.1210669527,
				"element": "C" 
			},
			{
				"x": 0.9166612727,
				"y": 0.7656710641,
				"z": -1.0061981635,
				"element": "C" 
			},
			{
				"x": 1.3568192905,
				"y": 1.567106966,
				"z": -1.9864662275,
				"element": "F" 
			},
			{
				"x": -0.3268605791,
				"y": 0.1364118664,
				"z": -1.1380523138,
				"element": "C" 
			},
			{
				"x": -1.2815698158,
				"y": 0.403182805,
				"z": -2.5700158887,
				"element": "Cl" 
			},
			{
				"x": -0.7857166309,
				"y": -0.6977022561,
				"z": -0.1185818768,
				"element": "C" 
			},
			{
				"x": -0.0054499585,
				"y": -0.8973671206,
				"z": 1.0190607918,
				"element": "C" 
			},
			{
				"x": 1.4952216935,
				"y": -2.3642618365,
				"z": 3.1230550898,
				"element": "H" 
			},
			{
				"x": 0.7149420933,
				"y": -0.9844824228,
				"z": 3.9012408412,
				"element": "H" 
			},
			{
				"x": 2.4245533378,
				"y": -1.347916095,
				"z": 4.2563985889,
				"element": "H" 
			},
			{
				"x": 2.6574365402,
				"y": 1.0627727312,
				"z": 0.2142469368,
				"element": "H" 
			},
			{
				"x": -1.749569374,
				"y": -1.1828112945,
				"z": -0.2254294277,
				"element": "H" 
			},
			{
				"x": -0.3781708551,
				"y": -1.549134333,
				"z": 1.8013459154,
				"element": "H" 
			}
		],
		 "valence_orbital": [ 
			{
				"type": "occ",
				"energy": -0.34184,
				"method": "rhf"
			},
			{
				"type": "occ",
				"energy": -0.32698,
				"method": "rhf"
			},
			{
				"type": "occ",
				"energy": -0.27331,
				"method": "rhf"
			},
			{
				"type": "occ",
				"energy": -0.26067,
				"method": "rhf"
			},
			{
				"type": "occ",
				"energy": -0.2603,
				"method": "rhf"
			},
			{
				"type": "unocc",
				"energy": -0.07088,
				"method": "rhf"
			},
			{
				"type": "unocc",
				"energy": -0.02425,
				"method": "rhf"
			},
			{
				"type": "unocc",
				"energy": 0.01471,
				"method": "rhf"
			},
			{
				"type": "unocc",
				"energy": 0.0253,
				"method": "rhf"
			},
			{
				"type": "unocc",
				"energy": 0.08947,
				"method": "rhf"
			}
		],
		"cosmo_sigma_profile": { 
			"-0.025": 0.0,
			"-0.024": 0.0,
			"-0.023": 0.0,
			"-0.022": 0.0,
			"-0.021": 0.0,
			"-0.02": 0.0,
			"-0.019": 0.0,
			"-0.018": 0.0,
			"-0.017": 0.0,
			"-0.016": 0.0,
			"-0.015": 0.0,
			"-0.014": 0.0,
			"-0.013": 0.0,
			"-0.012": 0.0,
			"-0.011": 0.0,
			"-0.01": 0.0,
			"-0.009": 0.154282023654,
			"-0.008": 2.8148228118,
			"-0.007": 8.90550414374,
			"-0.006": 11.5982993715,
			"-0.005": 9.81956214318,
			"-0.004": 9.88716762306,
			"-0.003": 10.4771046803,
			"-0.002": 15.1267212494,
			"-0.001": 20.95208529,
			"0.0": 21.0718857992,
			"0.001": 18.0335976911,
			"0.002": 14.4294293206,
			"0.003": 17.3950535257,
			"0.004": 13.7701332192,
			"0.005": 3.53543986775,
			"0.006": 1.5210940905,
			"0.007": 1.22750772961,
			"0.008": 1.58721193496,
			"0.009": 2.06501405089,
			"0.01": 2.50887839387,
			"0.011": 3.42057800532,
			"0.012": 2.65653972022,
			"0.013": 0.839277965321,
			"0.014": 0.0,
			"0.015": 0.0,
			"0.016": 0.0,
			"0.017": 0.0,
			"0.018": 0.0,
			"0.019": 0.0,
			"0.02": 0.0,
			"0.021": 0.0,
			"0.022": 0.0,
			"0.023": 0.0,
			"0.024": 0.0,
			"0.025": 0.0
		}
	}
}
