{
	 "smiles": "CC1(C)CC(=O)OC(=O)C1", 
	 "Tm": 397.15, 
	 "num_atms": 20, 
	 "gaussian": { 
		 "optdone": 1, 
		 "sigma_profile": "yes", 
		 "theory": "DFT", 
		 "functional": "B3LYP", 
		 "basiset": "6-31G**", 
		 "properties": { 
			 "R2extent": 1858.617, 
			 "electric_dipole_moment_norm": 5.41607702032, 
			 "electric_quadrupole_moment_norm": 13.3083150147, 
			 "total_energy": -498.467889795, 
			 "HOMO_LUMO_gap": 0.24335, 
			 "cosmo_polarized_energy": -13.67, 
			 "cosmo_cavitation_energy": 22.67, 
			 "cosmo_dispersion_energy": -16.44, 
			 "cosmo_repulsion_energy": 1.33, 
			 "cosmo_total_nonelectrostatic_energy": 7.56, 
			 "SMD_solvation_energy": 5.79 
		},
		"coords": [
			{
				"x": 0.0096809169,
				"y": 0.6326097621,
				"z": 2.7326928428,
				"element": "C" 
			},
			{
				"x": -0.3332794012,
				"y": 0.5642962659,
				"z": 1.230966733,
				"element": "C" 
			},
			{
				"x": -0.780594032,
				"y": 1.950021445,
				"z": 0.7399656036,
				"element": "C" 
			},
			{
				"x": -1.449423707,
				"y": -0.4658851803,
				"z": 0.9785262779,
				"element": "C" 
			},
			{
				"x": -1.0433837409,
				"y": -1.8981325959,
				"z": 1.2536349642,
				"element": "C" 
			},
			{
				"x": -1.7929266632,
				"y": -2.7667949095,
				"z": 1.6054947231,
				"element": "O" 
			},
			{
				"x": 0.2910332853,
				"y": -2.2349333829,
				"z": 1.0556146112,
				"element": "O" 
			},
			{
				"x": 1.2936737026,
				"y": -1.3418907936,
				"z": 0.6943622347,
				"element": "C" 
			},
			{
				"x": 2.4122536243,
				"y": -1.7659842682,
				"z": 0.5988719591,
				"element": "O" 
			},
			{
				"x": 0.8864944039,
				"y": 0.0901509771,
				"z": 0.4197248075,
				"element": "C" 
			},
			{
				"x": 0.3351219633,
				"y": -0.3354546482,
				"z": 3.1285622615,
				"element": "H" 
			},
			{
				"x": 0.8153738974,
				"y": 1.3517923178,
				"z": 2.9125960175,
				"element": "H" 
			},
			{
				"x": -0.8615682329,
				"y": 0.9521047265,
				"z": 3.3137105245,
				"element": "H" 
			},
			{
				"x": 0.0121963086,
				"y": 2.690838121,
				"z": 0.8886398831,
				"element": "H" 
			},
			{
				"x": -1.6638840659,
				"y": 2.2919494904,
				"z": 1.2897990891,
				"element": "H" 
			},
			{
				"x": -1.0323393734,
				"y": 1.9354275524,
				"z": -0.326285328,
				"element": "H" 
			},
			{
				"x": -1.7615398847,
				"y": -0.4224809029,
				"z": -0.0747300095,
				"element": "H" 
			},
			{
				"x": -2.3409084516,
				"y": -0.2688136369,
				"z": 1.5795036394,
				"element": "H" 
			},
			{
				"x": 1.7696404027,
				"y": 0.7095425204,
				"z": 0.5962763675,
				"element": "H" 
			},
			{
				"x": 0.6638790476,
				"y": 0.1550371399,
				"z": -0.6549272023,
				"element": "H" 
			}
		],
		 "valence_orbital": [ 
			{
				"type": "occ",
				"energy": -0.35703,
				"method": "rhf"
			},
			{
				"type": "occ",
				"energy": -0.35592,
				"method": "rhf"
			},
			{
				"type": "occ",
				"energy": -0.32286,
				"method": "rhf"
			},
			{
				"type": "occ",
				"energy": -0.29834,
				"method": "rhf"
			},
			{
				"type": "occ",
				"energy": -0.27676,
				"method": "rhf"
			},
			{
				"type": "unocc",
				"energy": -0.03341,
				"method": "rhf"
			},
			{
				"type": "unocc",
				"energy": 0.00437,
				"method": "rhf"
			},
			{
				"type": "unocc",
				"energy": 0.05404,
				"method": "rhf"
			},
			{
				"type": "unocc",
				"energy": 0.10815,
				"method": "rhf"
			},
			{
				"type": "unocc",
				"energy": 0.11042,
				"method": "rhf"
			}
		],
		"cosmo_sigma_profile": { 
			"-0.025": 0.0,
			"-0.024": 0.0,
			"-0.023": 0.0,
			"-0.022": 0.0,
			"-0.021": 0.0,
			"-0.02": 0.0,
			"-0.019": 0.0,
			"-0.018": 0.0,
			"-0.017": 0.0,
			"-0.016": 0.0,
			"-0.015": 0.0,
			"-0.014": 0.0,
			"-0.013": 0.0,
			"-0.012": 0.00925817057978,
			"-0.011": 0.632108450821,
			"-0.01": 1.19752595054,
			"-0.009": 2.35704953066,
			"-0.008": 4.76580983213,
			"-0.007": 5.74296132023,
			"-0.006": 10.8232506812,
			"-0.005": 13.0888623873,
			"-0.004": 22.1501157155,
			"-0.003": 17.6036578003,
			"-0.002": 13.1109598427,
			"-0.001": 12.5352663603,
			"0.0": 14.0300450468,
			"0.001": 7.08300545846,
			"0.002": 1.90492075758,
			"0.003": 3.02394107192,
			"0.004": 2.89409958486,
			"0.005": 2.91389139804,
			"0.006": 3.87755965767,
			"0.007": 3.33772331744,
			"0.008": 5.59971920541,
			"0.009": 7.7314489969,
			"0.01": 10.1763843559,
			"0.011": 9.05349133491,
			"0.012": 1.60486120193,
			"0.013": 0.0,
			"0.014": 0.0,
			"0.015": 0.0,
			"0.016": 0.0,
			"0.017": 0.0,
			"0.018": 0.0,
			"0.019": 0.0,
			"0.02": 0.0,
			"0.021": 0.0,
			"0.022": 0.0,
			"0.023": 0.0,
			"0.024": 0.0,
			"0.025": 0.0
		}
	}
}
