{
	 "smiles": "CC(C=CC=C(/C)C=CC1=C(C)CC(O)CC1(C)C)=CC=CC=C(/C)C=CC=C(/C)C=CC1=C(C)CC(O)CC1(C)C", 
	 "Tm": 489.15, 
	 "num_atms": 98, 
	 "gaussian": { 
		 "optdone": 1, 
		 "sigma_profile": "yes", 
		 "theory": "DFT", 
		 "functional": "B3LYP", 
		 "basiset": "6-31G**", 
		 "properties": { 
			 "R2extent": 58436.775, 
			 "electric_dipole_moment_norm": 0.530719709451, 
			 "electric_quadrupole_moment_norm": 31.7615026639, 
			 "total_energy": -1708.34542032, 
			 "HOMO_LUMO_gap": 0.08842, 
			 "cosmo_polarized_energy": -19.61, 
			 "cosmo_cavitation_energy": 94.99, 
			 "cosmo_dispersion_energy": -61.63, 
			 "cosmo_repulsion_energy": 4.67, 
			 "cosmo_total_nonelectrostatic_energy": 38.04, 
			 "SMD_solvation_energy": 15.51 
		},
		"coords": [
			{
				"x": -0.420965473,
				"y": -5.6833514282,
				"z": 6.9255183293,
				"element": "C" 
			},
			{
				"x": -0.2395589818,
				"y": -4.901656645,
				"z": 5.6372847854,
				"element": "C" 
			},
			{
				"x": -0.2752612784,
				"y": -3.4544090198,
				"z": 5.8329426781,
				"element": "C" 
			},
			{
				"x": 0.418086658,
				"y": -2.5026171096,
				"z": 5.1551168943,
				"element": "C" 
			},
			{
				"x": 0.3772679141,
				"y": -1.1083702967,
				"z": 5.5021027333,
				"element": "C" 
			},
			{
				"x": 1.043950671,
				"y": -0.0735062753,
				"z": 4.9068264315,
				"element": "C" 
			},
			{
				"x": 1.9716197356,
				"y": -0.2500887719,
				"z": 3.7296878985,
				"element": "C" 
			},
			{
				"x": 0.8485167575,
				"y": 1.2671990678,
				"z": 5.4392393108,
				"element": "C" 
			},
			{
				"x": 1.4443097514,
				"y": 2.399145369,
				"z": 4.9958308584,
				"element": "C" 
			},
			{
				"x": 1.2702505881,
				"y": 3.7567948692,
				"z": 5.5456012369,
				"element": "C" 
			},
			{
				"x": 0.0549449046,
				"y": 4.3005959528,
				"z": 5.8104613849,
				"element": "C" 
			},
			{
				"x": -1.265739086,
				"y": 3.6173593533,
				"z": 5.542746615,
				"element": "C" 
			},
			{
				"x": -0.0989495551,
				"y": 5.6862556291,
				"z": 6.4099427908,
				"element": "C" 
			},
			{
				"x": 1.1333242124,
				"y": 6.5737608558,
				"z": 6.2509534771,
				"element": "C" 
			},
			{
				"x": 1.0775557527,
				"y": 7.7220128816,
				"z": 7.0962638155,
				"element": "O" 
			},
			{
				"x": 2.3701107688,
				"y": 5.7825331396,
				"z": 6.6377331721,
				"element": "C" 
			},
			{
				"x": 2.5922868897,
				"y": 4.5364364445,
				"z": 5.7513792982,
				"element": "C" 
			},
			{
				"x": 3.6376919243,
				"y": 3.6464731779,
				"z": 6.4621296401,
				"element": "C" 
			},
			{
				"x": 3.1653363676,
				"y": 4.9641721341,
				"z": 4.3764441807,
				"element": "C" 
			},
			{
				"x": -0.0396249521,
				"y": -5.5991730576,
				"z": 4.4785941558,
				"element": "C" 
			},
			{
				"x": -0.0021717106,
				"y": -5.2284745036,
				"z": 3.0739492267,
				"element": "C" 
			},
			{
				"x": -0.5496783607,
				"y": -4.1361230934,
				"z": 2.4666495121,
				"element": "C" 
			},
			{
				"x": -0.5913759262,
				"y": -3.8006049269,
				"z": 1.0642596882,
				"element": "C" 
			},
			{
				"x": -0.4115054821,
				"y": -4.5756879267,
				"z": -0.0532970941,
				"element": "C" 
			},
			{
				"x": -0.2351711842,
				"y": -6.0760714689,
				"z": 0.0030755574,
				"element": "C" 
			},
			{
				"x": -0.4296253571,
				"y": -3.9908056407,
				"z": -1.3849759165,
				"element": "C" 
			},
			{
				"x": -0.2013955645,
				"y": -2.6908723516,
				"z": -1.7245868474,
				"element": "C" 
			},
			{
				"x": -0.2720030888,
				"y": -2.2121181427,
				"z": -3.0759565663,
				"element": "C" 
			},
			{
				"x": -0.0574809266,
				"y": -0.9411305444,
				"z": -3.5353320461,
				"element": "C" 
			},
			{
				"x": 0.3044913649,
				"y": 0.2166895799,
				"z": -2.637860042,
				"element": "C" 
			},
			{
				"x": -0.1879420319,
				"y": -0.6945981068,
				"z": -4.9628289661,
				"element": "C" 
			},
			{
				"x": 0.0052105007,
				"y": 0.488667829,
				"z": -5.5935022221,
				"element": "C" 
			},
			{
				"x": -0.1147241029,
				"y": 0.7221514822,
				"z": -7.0454327053,
				"element": "C" 
			},
			{
				"x": -1.1697001268,
				"y": 0.2770511755,
				"z": -7.7746006568,
				"element": "C" 
			},
			{
				"x": -2.4022663326,
				"y": -0.3733251769,
				"z": -7.1912197629,
				"element": "C" 
			},
			{
				"x": -1.2528561158,
				"y": 0.4327847253,
				"z": -9.2786222466,
				"element": "C" 
			},
			{
				"x": 0.0722267209,
				"y": 0.7850281017,
				"z": -9.9336605758,
				"element": "C" 
			},
			{
				"x": -0.2135508769,
				"y": 1.1695395295,
				"z": -11.2782165033,
				"element": "O" 
			},
			{
				"x": 0.7322659987,
				"y": 1.9062995166,
				"z": -9.1396851791,
				"element": "C" 
			},
			{
				"x": 1.0573520505,
				"y": 1.5084167849,
				"z": -7.6810116753,
				"element": "C" 
			},
			{
				"x": 1.3342473678,
				"y": 2.8176617908,
				"z": -6.9030639147,
				"element": "C" 
			},
			{
				"x": 2.3383043866,
				"y": 0.6397279344,
				"z": -7.6377607072,
				"element": "C" 
			},
			{
				"x": -1.3920467109,
				"y": -5.4522634759,
				"z": 7.3832925141,
				"element": "H" 
			},
			{
				"x": 0.3439203964,
				"y": -5.4196875036,
				"z": 7.6667322467,
				"element": "H" 
			},
			{
				"x": -0.3788449462,
				"y": -6.7624139743,
				"z": 6.7583268453,
				"element": "H" 
			},
			{
				"x": -0.8470645222,
				"y": -3.1245483699,
				"z": 6.7029176074,
				"element": "H" 
			},
			{
				"x": 1.039860921,
				"y": -2.8135785873,
				"z": 4.321292307,
				"element": "H" 
			},
			{
				"x": -0.2660883126,
				"y": -0.8576804307,
				"z": 6.3463643877,
				"element": "H" 
			},
			{
				"x": 1.6421742892,
				"y": 0.3599323819,
				"z": 2.8802939818,
				"element": "H" 
			},
			{
				"x": 2.9871022704,
				"y": 0.0793110429,
				"z": 3.9814546639,
				"element": "H" 
			},
			{
				"x": 2.0328226275,
				"y": -1.2848153876,
				"z": 3.3922856684,
				"element": "H" 
			},
			{
				"x": 0.1702623848,
				"y": 1.337994777,
				"z": 6.2876663562,
				"element": "H" 
			},
			{
				"x": 2.1784413206,
				"y": 2.3068741172,
				"z": 4.1968826354,
				"element": "H" 
			},
			{
				"x": -1.7503685486,
				"y": 3.3031658617,
				"z": 6.4777846831,
				"element": "H" 
			},
			{
				"x": -1.167083465,
				"y": 2.7371431881,
				"z": 4.9073660316,
				"element": "H" 
			},
			{
				"x": -1.9592436201,
				"y": 4.317923102,
				"z": 5.0606398953,
				"element": "H" 
			},
			{
				"x": -0.3152164512,
				"y": 5.6002470951,
				"z": 7.4862598037,
				"element": "H" 
			},
			{
				"x": -0.9782312062,
				"y": 6.1772671783,
				"z": 5.9680932096,
				"element": "H" 
			},
			{
				"x": 1.2129325604,
				"y": 6.8896096251,
				"z": 5.198315312,
				"element": "H" 
			},
			{
				"x": 0.2897713493,
				"y": 8.2274295932,
				"z": 6.8567043542,
				"element": "H" 
			},
			{
				"x": 2.2542768983,
				"y": 5.4753401253,
				"z": 7.6851900238,
				"element": "H" 
			},
			{
				"x": 3.2523962361,
				"y": 6.4315403508,
				"z": 6.5939306425,
				"element": "H" 
			},
			{
				"x": 3.2515816171,
				"y": 3.2726390578,
				"z": 7.4159570939,
				"element": "H" 
			},
			{
				"x": 3.92191641,
				"y": 2.7814694086,
				"z": 5.8562154688,
				"element": "H" 
			},
			{
				"x": 4.5457856703,
				"y": 4.224884898,
				"z": 6.667203915,
				"element": "H" 
			},
			{
				"x": 4.1151737678,
				"y": 5.4944822626,
				"z": 4.5102488091,
				"element": "H" 
			},
			{
				"x": 3.3627629024,
				"y": 4.1003151082,
				"z": 3.7338600193,
				"element": "H" 
			},
			{
				"x": 2.4799943032,
				"y": 5.6249481014,
				"z": 3.8377324962,
				"element": "H" 
			},
			{
				"x": 0.0922143307,
				"y": -6.6723662369,
				"z": 4.6210489374,
				"element": "H" 
			},
			{
				"x": 0.4785064523,
				"y": -5.974461745,
				"z": 2.4480642212,
				"element": "H" 
			},
			{
				"x": -1.0089904365,
				"y": -3.3913989749,
				"z": 3.1119922923,
				"element": "H" 
			},
			{
				"x": -0.8556720239,
				"y": -2.7611506242,
				"z": 0.8774882336,
				"element": "H" 
			},
			{
				"x": 0.8137307348,
				"y": -6.3569845975,
				"z": 0.1673657889,
				"element": "H" 
			},
			{
				"x": -0.5415440688,
				"y": -6.5374628377,
				"z": -0.9410285392,
				"element": "H" 
			},
			{
				"x": -0.8223717136,
				"y": -6.5219528671,
				"z": 0.8115119547,
				"element": "H" 
			},
			{
				"x": -0.6206885841,
				"y": -4.6890572952,
				"z": -2.2010010394,
				"element": "H" 
			},
			{
				"x": 0.0642429039,
				"y": -1.9867750291,
				"z": -0.94049598,
				"element": "H" 
			},
			{
				"x": -0.5307428176,
				"y": -2.9643619658,
				"z": -3.8219357202,
				"element": "H" 
			},
			{
				"x": 0.3679959217,
				"y": -0.068309866,
				"z": -1.5874295162,
				"element": "H" 
			},
			{
				"x": -0.4353501891,
				"y": 1.0215262675,
				"z": -2.722262532,
				"element": "H" 
			},
			{
				"x": 1.272737671,
				"y": 0.6443997621,
				"z": -2.9254412498,
				"element": "H" 
			},
			{
				"x": -0.4498567046,
				"y": -1.5629400059,
				"z": -5.5651245572,
				"element": "H" 
			},
			{
				"x": 0.3307536289,
				"y": 1.3362011938,
				"z": -4.9949357746,
				"element": "H" 
			},
			{
				"x": -3.2986213886,
				"y": 0.0441889622,
				"z": -7.6682194666,
				"element": "H" 
			},
			{
				"x": -2.4858427523,
				"y": -0.2344501824,
				"z": -6.1130532718,
				"element": "H" 
			},
			{
				"x": -2.4232689441,
				"y": -1.4525298608,
				"z": -7.3953804582,
				"element": "H" 
			},
			{
				"x": -1.9782825177,
				"y": 1.2208848538,
				"z": -9.5328274709,
				"element": "H" 
			},
			{
				"x": -1.6554376948,
				"y": -0.4882389172,
				"z": -9.7207823456,
				"element": "H" 
			},
			{
				"x": 0.7222361044,
				"y": -0.1048105419,
				"z": -9.9291489717,
				"element": "H" 
			},
			{
				"x": 0.6248530455,
				"y": 1.3853392287,
				"z": -11.7068846167,
				"element": "H" 
			},
			{
				"x": 1.6574413256,
				"y": 2.2336475672,
				"z": -9.6349409828,
				"element": "H" 
			},
			{
				"x": 0.0477986104,
				"y": 2.7645349555,
				"z": -9.1491118493,
				"element": "H" 
			},
			{
				"x": 0.4231552925,
				"y": 3.4155443318,
				"z": -6.7936086465,
				"element": "H" 
			},
			{
				"x": 1.7460682723,
				"y": 2.6324200245,
				"z": -5.9069363116,
				"element": "H" 
			},
			{
				"x": 2.0687745925,
				"y": 3.4216543454,
				"z": -7.447524348,
				"element": "H" 
			},
			{
				"x": 3.1979787504,
				"y": 1.1993331146,
				"z": -8.0252939579,
				"element": "H" 
			},
			{
				"x": 2.5666956282,
				"y": 0.3348402688,
				"z": -6.6119996967,
				"element": "H" 
			},
			{
				"x": 2.2296936569,
				"y": -0.2723657124,
				"z": -8.2327351405,
				"element": "H" 
			}
		],
		 "valence_orbital": [ 
			{
				"type": "occ",
				"energy": -0.24268,
				"method": "rhf"
			},
			{
				"type": "occ",
				"energy": -0.23,
				"method": "rhf"
			},
			{
				"type": "occ",
				"energy": -0.21225,
				"method": "rhf"
			},
			{
				"type": "occ",
				"energy": -0.1905,
				"method": "rhf"
			},
			{
				"type": "occ",
				"energy": -0.1672,
				"method": "rhf"
			},
			{
				"type": "unocc",
				"energy": -0.07878,
				"method": "rhf"
			},
			{
				"type": "unocc",
				"energy": -0.05121,
				"method": "rhf"
			},
			{
				"type": "unocc",
				"energy": -0.01831,
				"method": "rhf"
			},
			{
				"type": "unocc",
				"energy": 0.0104,
				"method": "rhf"
			},
			{
				"type": "unocc",
				"energy": 0.0285,
				"method": "rhf"
			}
		],
		"cosmo_sigma_profile": { 
			"-0.025": 0.0,
			"-0.024": 0.0,
			"-0.023": 0.0,
			"-0.022": 0.0,
			"-0.021": 0.0,
			"-0.02": 0.0,
			"-0.019": 0.0,
			"-0.018": 0.0,
			"-0.017": 0.0,
			"-0.016": 0.0,
			"-0.015": 1.19578792275,
			"-0.014": 2.19917937568,
			"-0.013": 1.90708542477,
			"-0.012": 1.29702510761,
			"-0.011": 2.17210675517,
			"-0.01": 1.97147241199,
			"-0.009": 1.90537041244,
			"-0.008": 1.71733280836,
			"-0.007": 1.38439623942,
			"-0.006": 4.0803548418,
			"-0.005": 18.5324742069,
			"-0.004": 50.7026759525,
			"-0.003": 81.0758365938,
			"-0.002": 100.489484876,
			"-0.001": 89.7307813665,
			"0.0": 93.3310303333,
			"0.001": 82.7645950749,
			"0.002": 48.9231526377,
			"0.003": 32.9187517957,
			"0.004": 40.309176642,
			"0.005": 35.5272244126,
			"0.006": 20.7732478187,
			"0.007": 3.23297736782,
			"0.008": 1.96387620656,
			"0.009": 2.57144450488,
			"0.01": 2.76618678674,
			"0.011": 2.20739897904,
			"0.012": 2.06636684489,
			"0.013": 3.92467739005,
			"0.014": 4.02466232633,
			"0.015": 1.93763007488,
			"0.016": 0.0,
			"0.017": 0.0,
			"0.018": 0.0,
			"0.019": 0.0,
			"0.02": 0.0,
			"0.021": 0.0,
			"0.022": 0.0,
			"0.023": 0.0,
			"0.024": 0.0,
			"0.025": 0.0
		}
	}
}
