{
	 "smiles": "COCCN1C=C(C(O)=O)C2=C1C=CC=C2", 
	 "Tm": 397.15, 
	 "num_atms": 29, 
	 "gaussian": { 
		 "optdone": 1, 
		 "sigma_profile": "yes", 
		 "theory": "DFT", 
		 "functional": "B3LYP", 
		 "basiset": "6-31G**", 
		 "properties": { 
			 "R2extent": 4253.992, 
			 "electric_dipole_moment_norm": 4.12147196642, 
			 "electric_quadrupole_moment_norm": 9.7799159071, 
			 "total_energy": -745.545851668, 
			 "HOMO_LUMO_gap": 0.18468, 
			 "cosmo_polarized_energy": -15.21, 
			 "cosmo_cavitation_energy": 33.07, 
			 "cosmo_dispersion_energy": -23.42, 
			 "cosmo_repulsion_energy": 1.84, 
			 "cosmo_total_nonelectrostatic_energy": 11.49, 
			 "SMD_solvation_energy": 7.16 
		},
		"coords": [
			{
				"x": -2.412379537,
				"y": -1.1856032359,
				"z": 2.7208709841,
				"element": "C" 
			},
			{
				"x": -1.057559937,
				"y": -0.9168467497,
				"z": 2.4179408228,
				"element": "O" 
			},
			{
				"x": -0.4973978312,
				"y": -1.8334600683,
				"z": 1.5038518086,
				"element": "C" 
			},
			{
				"x": 0.9055586367,
				"y": -1.3449137559,
				"z": 1.1530593313,
				"element": "C" 
			},
			{
				"x": 0.9067399618,
				"y": -0.1175617124,
				"z": 0.3723067423,
				"element": "N" 
			},
			{
				"x": 0.7673400161,
				"y": 1.142125211,
				"z": 0.8851829203,
				"element": "C" 
			},
			{
				"x": 0.7361373323,
				"y": 2.0731059259,
				"z": -0.1336335587,
				"element": "C" 
			},
			{
				"x": 0.6103382761,
				"y": 3.5033622665,
				"z": 0.1217707385,
				"element": "C" 
			},
			{
				"x": 0.598347342,
				"y": 4.2489250644,
				"z": -1.0199825223,
				"element": "O" 
			},
			{
				"x": 0.5219501959,
				"y": 4.022484384,
				"z": 1.2215657831,
				"element": "O" 
			},
			{
				"x": 0.8531987129,
				"y": 1.3403393933,
				"z": -1.3744185137,
				"element": "C" 
			},
			{
				"x": 0.951146364,
				"y": -0.0319996837,
				"z": -1.0196603748,
				"element": "C" 
			},
			{
				"x": 1.0743862721,
				"y": -1.0442426091,
				"z": -1.9770314172,
				"element": "C" 
			},
			{
				"x": 1.1050917945,
				"y": -0.6626259927,
				"z": -3.3144836031,
				"element": "C" 
			},
			{
				"x": 1.0135108693,
				"y": 0.6924869226,
				"z": -3.6863281812,
				"element": "C" 
			},
			{
				"x": 0.8888135618,
				"y": 1.6960188957,
				"z": -2.7325546731,
				"element": "C" 
			},
			{
				"x": -2.7435240652,
				"y": -0.4185677402,
				"z": 3.424094649,
				"element": "H" 
			},
			{
				"x": -2.536968575,
				"y": -2.1752285167,
				"z": 3.1874014555,
				"element": "H" 
			},
			{
				"x": -3.0454538108,
				"y": -1.1431623806,
				"z": 1.8216575431,
				"element": "H" 
			},
			{
				"x": -0.4305217525,
				"y": -2.8429057603,
				"z": 1.9457127027,
				"element": "H" 
			},
			{
				"x": -1.109804721,
				"y": -1.9074683544,
				"z": 0.5904739188,
				"element": "H" 
			},
			{
				"x": 1.4384929874,
				"y": -2.1150868241,
				"z": 0.5892059032,
				"element": "H" 
			},
			{
				"x": 1.4608367896,
				"y": -1.1689436695,
				"z": 2.0793259887,
				"element": "H" 
			},
			{
				"x": 0.6869414271,
				"y": 1.3052332421,
				"z": 1.9492123709,
				"element": "H" 
			},
			{
				"x": 0.512430651,
				"y": 5.1692163005,
				"z": -0.7217219925,
				"element": "H" 
			},
			{
				"x": 1.1412437001,
				"y": -2.0914422351,
				"z": -1.6980014727,
				"element": "H" 
			},
			{
				"x": 1.1995335676,
				"y": -1.4239103267,
				"z": -4.0832181478,
				"element": "H" 
			},
			{
				"x": 1.0403451428,
				"y": 0.9560682816,
				"z": -4.7396656986,
				"element": "H" 
			},
			{
				"x": 0.8178266285,
				"y": 2.7388037279,
				"z": -3.019333507,
				"element": "H" 
			}
		],
		 "valence_orbital": [ 
			{
				"type": "occ",
				"energy": -0.27517,
				"method": "rhf"
			},
			{
				"type": "occ",
				"energy": -0.26973,
				"method": "rhf"
			},
			{
				"type": "occ",
				"energy": -0.25901,
				"method": "rhf"
			},
			{
				"type": "occ",
				"energy": -0.22452,
				"method": "rhf"
			},
			{
				"type": "occ",
				"energy": -0.20716,
				"method": "rhf"
			},
			{
				"type": "unocc",
				"energy": -0.02248,
				"method": "rhf"
			},
			{
				"type": "unocc",
				"energy": 0.00739,
				"method": "rhf"
			},
			{
				"type": "unocc",
				"energy": 0.02449,
				"method": "rhf"
			},
			{
				"type": "unocc",
				"energy": 0.07682,
				"method": "rhf"
			},
			{
				"type": "unocc",
				"energy": 0.09199,
				"method": "rhf"
			}
		],
		"cosmo_sigma_profile": { 
			"-0.025": 0.0,
			"-0.024": 0.0,
			"-0.023": 0.0,
			"-0.022": 0.0,
			"-0.021": 0.0,
			"-0.02": 0.0,
			"-0.019": 0.0,
			"-0.018": 0.181069140076,
			"-0.017": 0.828954363898,
			"-0.016": 1.07682584523,
			"-0.015": 0.51068062126,
			"-0.014": 0.364952098338,
			"-0.013": 0.861013440963,
			"-0.012": 0.984309846333,
			"-0.011": 0.921529322836,
			"-0.01": 0.501994963272,
			"-0.009": 0.769836918722,
			"-0.008": 3.50875474418,
			"-0.007": 7.2229833891,
			"-0.006": 10.0661195752,
			"-0.005": 16.3033940514,
			"-0.004": 30.5755821894,
			"-0.003": 24.8844534901,
			"-0.002": 21.4448599604,
			"-0.001": 13.956789328,
			"0.0": 12.5150506372,
			"0.001": 11.6506304463,
			"0.002": 15.1078167719,
			"0.003": 16.8433638035,
			"0.004": 17.6659342141,
			"0.005": 15.2347477875,
			"0.006": 13.6241707322,
			"0.007": 6.37346219963,
			"0.008": 2.32583052721,
			"0.009": 2.36660361916,
			"0.01": 2.37453541249,
			"0.011": 2.21585293046,
			"0.012": 4.03283269435,
			"0.013": 4.78605032568,
			"0.014": 0.160094942479,
			"0.015": 0.0,
			"0.016": 0.0,
			"0.017": 0.0,
			"0.018": 0.0,
			"0.019": 0.0,
			"0.02": 0.0,
			"0.021": 0.0,
			"0.022": 0.0,
			"0.023": 0.0,
			"0.024": 0.0,
			"0.025": 0.0
		}
	}
}
