{
	 "smiles": "OC(=O)COC(=O)C1=C(C=CC(OC2=CC=C(C=C2Cl)C(F)F)=C1)[N+]([O-])=O", 
	 "Tm": 338.15, 
	 "num_atms": 37, 
	 "gaussian": { 
		 "optdone": 1, 
		 "sigma_profile": "yes", 
		 "theory": "DFT", 
		 "functional": "B3LYP", 
		 "basiset": "6-31G**", 
		 "properties": { 
			 "R2extent": 14238.7076, 
			 "electric_dipole_moment_norm": 10.0113518752, 
			 "electric_quadrupole_moment_norm": 29.227963395, 
			 "total_energy": -1856.81115099, 
			 "HOMO_LUMO_gap": 0.15096, 
			 "cosmo_polarized_energy": -21.37, 
			 "cosmo_cavitation_energy": 47.12, 
			 "cosmo_dispersion_energy": -32.09, 
			 "cosmo_repulsion_energy": 2.4, 
			 "cosmo_total_nonelectrostatic_energy": 17.43, 
			 "SMD_solvation_energy": 12.72 
		},
		"coords": [
			{
				"x": -4.7276509181,
				"y": 1.4834099074,
				"z": 4.0106333082,
				"element": "O" 
			},
			{
				"x": -4.2372162139,
				"y": 2.6602737282,
				"z": 3.6104209798,
				"element": "C" 
			},
			{
				"x": -4.7107750576,
				"y": 3.7134107971,
				"z": 3.9637186761,
				"element": "O" 
			},
			{
				"x": -3.0029154365,
				"y": 2.6606419616,
				"z": 2.7081596557,
				"element": "C" 
			},
			{
				"x": -2.8365179922,
				"y": 1.4053491518,
				"z": 2.0157521468,
				"element": "O" 
			},
			{
				"x": -1.6002107883,
				"y": 0.8588711535,
				"z": 2.0149850802,
				"element": "C" 
			},
			{
				"x": -0.6164439071,
				"y": 1.3670547094,
				"z": 2.5009126462,
				"element": "O" 
			},
			{
				"x": -1.547162646,
				"y": -0.4126296145,
				"z": 1.2106885755,
				"element": "C" 
			},
			{
				"x": -2.4709067898,
				"y": -1.4676148553,
				"z": 1.2717310552,
				"element": "C" 
			},
			{
				"x": -2.3837957812,
				"y": -2.5585117132,
				"z": 0.4033098466,
				"element": "C" 
			},
			{
				"x": -1.3529162385,
				"y": -2.6261269797,
				"z": -0.5196817466,
				"element": "C" 
			},
			{
				"x": -0.4035322267,
				"y": -1.5969210092,
				"z": -0.5682073952,
				"element": "C" 
			},
			{
				"x": 0.5909965259,
				"y": -1.7528433519,
				"z": -1.4914155505,
				"element": "O" 
			},
			{
				"x": 1.5855417102,
				"y": -0.798249844,
				"z": -1.620866157,
				"element": "C" 
			},
			{
				"x": 2.7466900262,
				"y": -0.9053337003,
				"z": -0.8561449142,
				"element": "C" 
			},
			{
				"x": 3.7895504497,
				"y": -0.0013209511,
				"z": -1.0406592866,
				"element": "C" 
			},
			{
				"x": 3.6726680406,
				"y": 1.0122269462,
				"z": -1.9959654639,
				"element": "C" 
			},
			{
				"x": 2.5122668672,
				"y": 1.1222411426,
				"z": -2.7644333503,
				"element": "C" 
			},
			{
				"x": 1.4677921844,
				"y": 0.2183494014,
				"z": -2.5771571483,
				"element": "C" 
			},
			{
				"x": 0.0154731267,
				"y": 0.3548587975,
				"z": -3.536049755,
				"element": "Cl" 
			},
			{
				"x": 4.8213251722,
				"y": 1.9623925731,
				"z": -2.2381165843,
				"element": "C" 
			},
			{
				"x": 4.3534867559,
				"y": 3.1688472493,
				"z": -2.6792213164,
				"element": "F" 
			},
			{
				"x": 5.5142005508,
				"y": 2.1675966992,
				"z": -1.0777596742,
				"element": "F" 
			},
			{
				"x": -0.5023057811,
				"y": -0.4960745083,
				"z": 0.2891328679,
				"element": "C" 
			},
			{
				"x": -3.5102743575,
				"y": -1.5070749261,
				"z": 2.2927667533,
				"element": "N" 
			},
			{
				"x": -3.2903191491,
				"y": -0.8975304011,
				"z": 3.3516039983,
				"element": "O" 
			},
			{
				"x": -4.5221384394,
				"y": -2.1604421233,
				"z": 2.0675673845,
				"element": "O" 
			},
			{
				"x": -4.225211681,
				"y": 0.7213004169,
				"z": 3.6627127375,
				"element": "H" 
			},
			{
				"x": -3.1261100286,
				"y": 3.451481537,
				"z": 1.9661867363,
				"element": "H" 
			},
			{
				"x": -2.1125231827,
				"y": 2.8707172931,
				"z": 3.3063358759,
				"element": "H" 
			},
			{
				"x": -3.1199264674,
				"y": -3.349210088,
				"z": 0.4813200094,
				"element": "H" 
			},
			{
				"x": -1.2564245336,
				"y": -3.4662334452,
				"z": -1.1979091465,
				"element": "H" 
			},
			{
				"x": 2.8177594854,
				"y": -1.7036172662,
				"z": -0.1248790757,
				"element": "H" 
			},
			{
				"x": 4.6882532823,
				"y": -0.076332811,
				"z": -0.4391756124,
				"element": "H" 
			},
			{
				"x": 2.4129473325,
				"y": 1.9124426363,
				"z": -3.498938464,
				"element": "H" 
			},
			{
				"x": 5.5336656846,
				"y": 1.5916976296,
				"z": -2.9863117692,
				"element": "H" 
			},
			{
				"x": 0.2202604217,
				"y": 0.3094038575,
				"z": 0.2469540766,
				"element": "H" 
			}
		],
		 "valence_orbital": [ 
			{
				"type": "occ",
				"energy": -0.29774,
				"method": "rhf"
			},
			{
				"type": "occ",
				"energy": -0.29318,
				"method": "rhf"
			},
			{
				"type": "occ",
				"energy": -0.27873,
				"method": "rhf"
			},
			{
				"type": "occ",
				"energy": -0.27758,
				"method": "rhf"
			},
			{
				"type": "occ",
				"energy": -0.26764,
				"method": "rhf"
			},
			{
				"type": "unocc",
				"energy": -0.11668,
				"method": "rhf"
			},
			{
				"type": "unocc",
				"energy": -0.06892,
				"method": "rhf"
			},
			{
				"type": "unocc",
				"energy": -0.05286,
				"method": "rhf"
			},
			{
				"type": "unocc",
				"energy": -0.04802,
				"method": "rhf"
			},
			{
				"type": "unocc",
				"energy": -0.03064,
				"method": "rhf"
			}
		],
		"cosmo_sigma_profile": { 
			"-0.025": 0.0,
			"-0.024": 0.0,
			"-0.023": 0.0,
			"-0.022": 0.0,
			"-0.021": 0.0,
			"-0.02": 0.0,
			"-0.019": 0.0,
			"-0.018": 0.0,
			"-0.017": 0.0,
			"-0.016": 0.0,
			"-0.015": 0.0,
			"-0.014": 0.0,
			"-0.013": 0.0,
			"-0.012": 0.131802750294,
			"-0.011": 0.340672814714,
			"-0.01": 1.33417019098,
			"-0.009": 10.1404021075,
			"-0.008": 15.9387745889,
			"-0.007": 19.445362076,
			"-0.006": 20.2196061444,
			"-0.005": 19.3875130677,
			"-0.004": 15.9241684602,
			"-0.003": 20.6452235496,
			"-0.002": 26.3304872393,
			"-0.001": 29.0151107073,
			"0.0": 33.1549814785,
			"0.001": 28.9144226428,
			"0.002": 20.49952003,
			"0.003": 22.4486861445,
			"0.004": 31.2878086252,
			"0.005": 11.8313061093,
			"0.006": 11.0694443708,
			"0.007": 9.86666363,
			"0.008": 6.75297569655,
			"0.009": 6.76562735451,
			"0.01": 8.63075913614,
			"0.011": 5.94441708936,
			"0.012": 4.60492191016,
			"0.013": 1.21240358791,
			"0.014": 0.000518122531278,
			"0.015": 0.0,
			"0.016": 0.0,
			"0.017": 0.0,
			"0.018": 0.0,
			"0.019": 0.0,
			"0.02": 0.0,
			"0.021": 0.0,
			"0.022": 0.0,
			"0.023": 0.0,
			"0.024": 0.0,
			"0.025": 0.0
		}
	}
}
