{
	 "smiles": "ClC1=CC=C(CNC2=CC3=C(NC(=O)N3)C=C2)C=C1", 
	 "Tm": 538.15, 
	 "num_atms": 31, 
	 "gaussian": { 
		 "optdone": 1, 
		 "sigma_profile": "yes", 
		 "theory": "DFT", 
		 "functional": "B3LYP", 
		 "basiset": "6-31G**", 
		 "properties": { 
			 "R2extent": 8248.593, 
			 "electric_dipole_moment_norm": 5.0404011011, 
			 "electric_quadrupole_moment_norm": 24.3876055733, 
			 "total_energy": -1240.42735451, 
			 "HOMO_LUMO_gap": 0.16738, 
			 "cosmo_polarized_energy": -19.43, 
			 "cosmo_cavitation_energy": 37.31, 
			 "cosmo_dispersion_energy": -27.13, 
			 "cosmo_repulsion_energy": 2.11, 
			 "cosmo_total_nonelectrostatic_energy": 12.29, 
			 "SMD_solvation_energy": 5.9 
		},
		"coords": [
			{
				"x": -5.1655067124,
				"y": 1.5303907309,
				"z": -0.5987222615,
				"element": "Cl" 
			},
			{
				"x": -3.4627935484,
				"y": 1.5768291711,
				"z": -0.1584874103,
				"element": "C" 
			},
			{
				"x": -3.0981261411,
				"y": 1.9641235771,
				"z": 1.1302879588,
				"element": "C" 
			},
			{
				"x": -1.7456299506,
				"y": 1.9914173926,
				"z": 1.4703932447,
				"element": "C" 
			},
			{
				"x": -0.7573517323,
				"y": 1.6451292465,
				"z": 0.5411641646,
				"element": "C" 
			},
			{
				"x": 0.7140231116,
				"y": 1.7448392788,
				"z": 0.9244610024,
				"element": "C" 
			},
			{
				"x": 1.5981936773,
				"y": 0.8837067378,
				"z": 0.1547788398,
				"element": "N" 
			},
			{
				"x": 1.8141095509,
				"y": -0.4543788335,
				"z": 0.5197052372,
				"element": "C" 
			},
			{
				"x": 0.8798599328,
				"y": -1.1591312376,
				"z": 1.3046325475,
				"element": "C" 
			},
			{
				"x": 1.1500490528,
				"y": -2.4910457632,
				"z": 1.5946265345,
				"element": "C" 
			},
			{
				"x": 2.3129430764,
				"y": -3.1369165019,
				"z": 1.1328613404,
				"element": "C" 
			},
			{
				"x": 2.2568443772,
				"y": -4.44835406,
				"z": 1.6085282908,
				"element": "N" 
			},
			{
				"x": 1.1004946868,
				"y": -4.667159971,
				"z": 2.3526921611,
				"element": "C" 
			},
			{
				"x": 0.7414526446,
				"y": -5.6932409137,
				"z": 2.9024549137,
				"element": "O" 
			},
			{
				"x": 0.4401167994,
				"y": -3.4340862682,
				"z": 2.327754676,
				"element": "N" 
			},
			{
				"x": 3.235335157,
				"y": -2.4470763396,
				"z": 0.3587771594,
				"element": "C" 
			},
			{
				"x": 2.9753713618,
				"y": -1.1071966937,
				"z": 0.0592785267,
				"element": "C" 
			},
			{
				"x": -1.1509717132,
				"y": 1.2578593987,
				"z": -0.7437697884,
				"element": "C" 
			},
			{
				"x": -2.4989164052,
				"y": 1.2194567938,
				"z": -1.1004214392,
				"element": "C" 
			},
			{
				"x": -3.8594507721,
				"y": 2.2326156613,
				"z": 1.8544176106,
				"element": "H" 
			},
			{
				"x": -1.4597107505,
				"y": 2.2877101968,
				"z": 2.4772527764,
				"element": "H" 
			},
			{
				"x": 0.8146385358,
				"y": 1.5642654035,
				"z": 2.0070143501,
				"element": "H" 
			},
			{
				"x": 1.0459460253,
				"y": 2.7763013683,
				"z": 0.7535281696,
				"element": "H" 
			},
			{
				"x": 2.4418736785,
				"y": 1.34501514,
				"z": -0.1527429971,
				"element": "H" 
			},
			{
				"x": -0.0320595634,
				"y": -0.6892791198,
				"z": 1.6523861057,
				"element": "H" 
			},
			{
				"x": 2.9285617499,
				"y": -5.1819614471,
				"z": 1.4542950558,
				"element": "H" 
			},
			{
				"x": -0.448691002,
				"y": -3.3063371076,
				"z": 2.7835036657,
				"element": "H" 
			},
			{
				"x": 4.1387723503,
				"y": -2.9260690163,
				"z": -0.005628827,
				"element": "H" 
			},
			{
				"x": 3.686847539,
				"y": -0.5524083239,
				"z": -0.546728161,
				"element": "H" 
			},
			{
				"x": -0.3892650335,
				"y": 0.9730293572,
				"z": -1.4624300785,
				"element": "H" 
			},
			{
				"x": -2.8003599827,
				"y": 0.9139521427,
				"z": -2.0964633686,
				"element": "H" 
			}
		],
		 "valence_orbital": [ 
			{
				"type": "occ",
				"energy": -0.26475,
				"method": "rhf"
			},
			{
				"type": "occ",
				"energy": -0.26196,
				"method": "rhf"
			},
			{
				"type": "occ",
				"energy": -0.24287,
				"method": "rhf"
			},
			{
				"type": "occ",
				"energy": -0.22901,
				"method": "rhf"
			},
			{
				"type": "occ",
				"energy": -0.18579,
				"method": "rhf"
			},
			{
				"type": "unocc",
				"energy": -0.01841,
				"method": "rhf"
			},
			{
				"type": "unocc",
				"energy": -0.01553,
				"method": "rhf"
			},
			{
				"type": "unocc",
				"energy": -0.00211,
				"method": "rhf"
			},
			{
				"type": "unocc",
				"energy": 0.02384,
				"method": "rhf"
			},
			{
				"type": "unocc",
				"energy": 0.03083,
				"method": "rhf"
			}
		],
		"cosmo_sigma_profile": { 
			"-0.025": 0.0,
			"-0.024": 0.0,
			"-0.023": 0.0,
			"-0.022": 0.0,
			"-0.021": 0.0,
			"-0.02": 0.0,
			"-0.019": 0.0,
			"-0.018": 0.0,
			"-0.017": 0.0,
			"-0.016": 0.949136672797,
			"-0.015": 2.99878692765,
			"-0.014": 2.2970777621,
			"-0.013": 1.94176238802,
			"-0.012": 3.90217474173,
			"-0.011": 3.24536999554,
			"-0.01": 3.20114896361,
			"-0.009": 4.26430767093,
			"-0.008": 3.7880287621,
			"-0.007": 7.73582425343,
			"-0.006": 14.5489237587,
			"-0.005": 16.2345921761,
			"-0.004": 18.3206758473,
			"-0.003": 16.5893815166,
			"-0.002": 14.1543497743,
			"-0.001": 15.4028585631,
			"0.0": 17.5281195578,
			"0.001": 21.6967481312,
			"0.002": 25.8424237276,
			"0.003": 23.8732515177,
			"0.004": 28.2088807679,
			"0.005": 20.3568467813,
			"0.006": 11.3228813762,
			"0.007": 2.76131920471,
			"0.008": 1.13289083144,
			"0.009": 1.69193854354,
			"0.01": 0.909742878901,
			"0.011": 1.38583763268,
			"0.012": 1.75575051236,
			"0.013": 2.84422206917,
			"0.014": 7.59613414642,
			"0.015": 1.78318979611,
			"0.016": 0.0,
			"0.017": 0.0,
			"0.018": 0.0,
			"0.019": 0.0,
			"0.02": 0.0,
			"0.021": 0.0,
			"0.022": 0.0,
			"0.023": 0.0,
			"0.024": 0.0,
			"0.025": 0.0
		}
	}
}
