{
	 "smiles": "CC(=O)OC(C(=O)C1=CC=CC=C1)C1=CC=CC=C1", 
	 "Tm": 355.15, 
	 "num_atms": 33, 
	 "gaussian": { 
		 "optdone": 1, 
		 "sigma_profile": "yes", 
		 "theory": "DFT", 
		 "functional": "B3LYP", 
		 "basiset": "6-31G**", 
		 "properties": { 
			 "R2extent": 5551.5707, 
			 "electric_dipole_moment_norm": 3.34879384406, 
			 "electric_quadrupole_moment_norm": 7.61109911379, 
			 "total_energy": -843.816032009, 
			 "HOMO_LUMO_gap": 0.18374, 
			 "cosmo_polarized_energy": -13.94, 
			 "cosmo_cavitation_energy": 37.04, 
			 "cosmo_dispersion_energy": -25.52, 
			 "cosmo_repulsion_energy": 1.99, 
			 "cosmo_total_nonelectrostatic_energy": 13.52, 
			 "SMD_solvation_energy": 7.6 
		},
		"coords": [
			{
				"x": 0.5876683888,
				"y": -5.0062040966,
				"z": -1.3413840859,
				"element": "C" 
			},
			{
				"x": 0.3400944663,
				"y": -3.5878866356,
				"z": -0.8866028121,
				"element": "C" 
			},
			{
				"x": -0.715702279,
				"y": -3.1536714396,
				"z": -0.4921080435,
				"element": "O" 
			},
			{
				"x": 1.4911689322,
				"y": -2.8660308916,
				"z": -0.983071182,
				"element": "O" 
			},
			{
				"x": 1.4542135592,
				"y": -1.4454175463,
				"z": -0.7513724822,
				"element": "C" 
			},
			{
				"x": 0.6447092627,
				"y": -0.7508030311,
				"z": -1.8735444337,
				"element": "C" 
			},
			{
				"x": 0.0959185686,
				"y": -1.4248631972,
				"z": -2.7267572908,
				"element": "O" 
			},
			{
				"x": 0.6348451289,
				"y": 0.7459533638,
				"z": -1.9530137751,
				"element": "C" 
			},
			{
				"x": -0.1729002459,
				"y": 1.328151852,
				"z": -2.9445236862,
				"element": "C" 
			},
			{
				"x": -0.2111399994,
				"y": 2.7093800675,
				"z": -3.1048737404,
				"element": "C" 
			},
			{
				"x": 0.5674238491,
				"y": 3.529618152,
				"z": -2.2828411598,
				"element": "C" 
			},
			{
				"x": 1.3796979223,
				"y": 2.9614095523,
				"z": -1.2999155448,
				"element": "C" 
			},
			{
				"x": 1.4117800417,
				"y": 1.5774930936,
				"z": -1.1304515433,
				"element": "C" 
			},
			{
				"x": 1.1277598029,
				"y": -1.0646843631,
				"z": 0.6862420763,
				"element": "C" 
			},
			{
				"x": 2.1729116097,
				"y": -1.0516265212,
				"z": 1.6202218485,
				"element": "C" 
			},
			{
				"x": 1.9369684433,
				"y": -0.7112972553,
				"z": 2.9528652201,
				"element": "C" 
			},
			{
				"x": 0.647771264,
				"y": -0.3713837119,
				"z": 3.3644306603,
				"element": "C" 
			},
			{
				"x": -0.3995623586,
				"y": -0.3809761034,
				"z": 2.4401996504,
				"element": "C" 
			},
			{
				"x": -0.1646264589,
				"y": -0.7291549488,
				"z": 1.1107588526,
				"element": "C" 
			},
			{
				"x": -0.2647265926,
				"y": -5.6274700161,
				"z": -1.0676753024,
				"element": "H" 
			},
			{
				"x": 1.5072223422,
				"y": -5.4015195632,
				"z": -0.9026538453,
				"element": "H" 
			},
			{
				"x": 0.7085684315,
				"y": -5.0132147113,
				"z": -2.4293530067,
				"element": "H" 
			},
			{
				"x": 2.4975599903,
				"y": -1.1588661707,
				"z": -0.9325536195,
				"element": "H" 
			},
			{
				"x": -0.7591181629,
				"y": 0.6711707045,
				"z": -3.5779123081,
				"element": "H" 
			},
			{
				"x": -0.8436674868,
				"y": 3.1487375741,
				"z": -3.8706624479,
				"element": "H" 
			},
			{
				"x": 0.540773041,
				"y": 4.6083735466,
				"z": -2.4083147895,
				"element": "H" 
			},
			{
				"x": 1.9864874315,
				"y": 3.5958144543,
				"z": -0.660695008,
				"element": "H" 
			},
			{
				"x": 2.0368684634,
				"y": 1.1562285818,
				"z": -0.3514284878,
				"element": "H" 
			},
			{
				"x": 3.1790526985,
				"y": -1.3139882238,
				"z": 1.3011528814,
				"element": "H" 
			},
			{
				"x": 2.7578413396,
				"y": -0.7083683198,
				"z": 3.6642195255,
				"element": "H" 
			},
			{
				"x": 0.459061532,
				"y": -0.1015301568,
				"z": 4.3996065194,
				"element": "H" 
			},
			{
				"x": -1.4060674621,
				"y": -0.1228526599,
				"z": 2.7563445823,
				"element": "H" 
			},
			{
				"x": -0.9867554639,
				"y": -0.7651213792,
				"z": 0.4059667783,
				"element": "H" 
			}
		],
		 "valence_orbital": [ 
			{
				"type": "occ",
				"energy": -0.26313,
				"method": "rhf"
			},
			{
				"type": "occ",
				"energy": -0.26068,
				"method": "rhf"
			},
			{
				"type": "occ",
				"energy": -0.25406,
				"method": "rhf"
			},
			{
				"type": "occ",
				"energy": -0.25105,
				"method": "rhf"
			},
			{
				"type": "occ",
				"energy": -0.24389,
				"method": "rhf"
			},
			{
				"type": "unocc",
				"energy": -0.06015,
				"method": "rhf"
			},
			{
				"type": "unocc",
				"energy": -0.01641,
				"method": "rhf"
			},
			{
				"type": "unocc",
				"energy": -0.01083,
				"method": "rhf"
			},
			{
				"type": "unocc",
				"energy": -0.00277,
				"method": "rhf"
			},
			{
				"type": "unocc",
				"energy": 0.02143,
				"method": "rhf"
			}
		],
		"cosmo_sigma_profile": { 
			"-0.025": 0.0,
			"-0.024": 0.0,
			"-0.023": 0.0,
			"-0.022": 0.0,
			"-0.021": 0.0,
			"-0.02": 0.0,
			"-0.019": 0.0,
			"-0.018": 0.0,
			"-0.017": 0.0,
			"-0.016": 0.0,
			"-0.015": 0.0,
			"-0.014": 0.0,
			"-0.013": 0.0,
			"-0.012": 0.0,
			"-0.011": 0.0,
			"-0.01": 0.0,
			"-0.009": 1.95924242997,
			"-0.008": 4.57942037457,
			"-0.007": 5.60948725361,
			"-0.006": 19.3501568984,
			"-0.005": 27.8978150318,
			"-0.004": 27.8537801262,
			"-0.003": 22.1819159402,
			"-0.002": 22.9167974803,
			"-0.001": 18.6358405025,
			"0.0": 14.5640073624,
			"0.001": 17.8361658274,
			"0.002": 19.900795944,
			"0.003": 23.1167632187,
			"0.004": 21.6810069302,
			"0.005": 11.919389522,
			"0.006": 5.96969388413,
			"0.007": 5.72519970512,
			"0.008": 4.44113024967,
			"0.009": 4.79626918479,
			"0.01": 5.29772199886,
			"0.011": 5.95428423676,
			"0.012": 2.51021431249,
			"0.013": 1.1759001979,
			"0.014": 0.0,
			"0.015": 0.0,
			"0.016": 0.0,
			"0.017": 0.0,
			"0.018": 0.0,
			"0.019": 0.0,
			"0.02": 0.0,
			"0.021": 0.0,
			"0.022": 0.0,
			"0.023": 0.0,
			"0.024": 0.0,
			"0.025": 0.0
		}
	}
}
