{
	 "smiles": "OC(=O)C1=C(F)C(F)=C(F)C(F)=C1F", 
	 "Tm": 375.15, 
	 "num_atms": 15, 
	 "gaussian": { 
		 "optdone": 1, 
		 "sigma_profile": "yes", 
		 "theory": "DFT", 
		 "functional": "B3LYP", 
		 "basiset": "6-31G**", 
		 "properties": { 
			 "R2extent": 4060.0127, 
			 "electric_dipole_moment_norm": 3.53797180741, 
			 "electric_quadrupole_moment_norm": 11.1860128334, 
			 "total_energy": -916.929470532, 
			 "HOMO_LUMO_gap": 0.20119, 
			 "cosmo_polarized_energy": -11.26, 
			 "cosmo_cavitation_energy": 23.06, 
			 "cosmo_dispersion_energy": -16.64, 
			 "cosmo_repulsion_energy": 1.19, 
			 "cosmo_total_nonelectrostatic_energy": 7.61, 
			 "SMD_solvation_energy": 7.52 
		},
		"coords": [
			{
				"x": 1.0010747146,
				"y": -1.459329889,
				"z": 0.3664973642,
				"element": "O" 
			},
			{
				"x": 0.0054447648,
				"y": -1.4167140603,
				"z": 1.2747284669,
				"element": "C" 
			},
			{
				"x": -0.1503491973,
				"y": -2.3232891873,
				"z": 2.0531183905,
				"element": "O" 
			},
			{
				"x": -0.8902875333,
				"y": -0.1939598688,
				"z": 1.2677172811,
				"element": "C" 
			},
			{
				"x": -0.7524602595,
				"y": 0.8879481041,
				"z": 0.3841134013,
				"element": "C" 
			},
			{
				"x": 0.2304352757,
				"y": 0.9011487145,
				"z": -0.5521993835,
				"element": "F" 
			},
			{
				"x": -1.5874528185,
				"y": 1.9969155089,
				"z": 0.3993052318,
				"element": "C" 
			},
			{
				"x": -1.4057111709,
				"y": 2.9954773441,
				"z": -0.4676486823,
				"element": "F" 
			},
			{
				"x": -2.6201355009,
				"y": 2.0563345228,
				"z": 1.3320555396,
				"element": "C" 
			},
			{
				"x": -3.4312778329,
				"y": 3.1099554282,
				"z": 1.363324115,
				"element": "F" 
			},
			{
				"x": -2.7960657647,
				"y": 1.0072603221,
				"z": 2.2287304417,
				"element": "C" 
			},
			{
				"x": -3.7843285074,
				"y": 1.061745698,
				"z": 3.1230366904,
				"element": "F" 
			},
			{
				"x": -1.945399,
				"y": -0.0982862331,
				"z": 2.1963228568,
				"element": "C" 
			},
			{
				"x": -2.1872427337,
				"y": -1.0510620607,
				"z": 3.0880517288,
				"element": "F" 
			},
			{
				"x": 1.0134555639,
				"y": -0.6697443434,
				"z": -0.1946534424,
				"element": "H" 
			}
		],
		 "valence_orbital": [ 
			{
				"type": "occ",
				"energy": -0.37739,
				"method": "rhf"
			},
			{
				"type": "occ",
				"energy": -0.32839,
				"method": "rhf"
			},
			{
				"type": "occ",
				"energy": -0.29361,
				"method": "rhf"
			},
			{
				"type": "occ",
				"energy": -0.2894,
				"method": "rhf"
			},
			{
				"type": "occ",
				"energy": -0.27988,
				"method": "rhf"
			},
			{
				"type": "unocc",
				"energy": -0.07869,
				"method": "rhf"
			},
			{
				"type": "unocc",
				"energy": -0.04078,
				"method": "rhf"
			},
			{
				"type": "unocc",
				"energy": -0.01245,
				"method": "rhf"
			},
			{
				"type": "unocc",
				"energy": 0.03164,
				"method": "rhf"
			},
			{
				"type": "unocc",
				"energy": 0.07164,
				"method": "rhf"
			}
		],
		"cosmo_sigma_profile": { 
			"-0.025": 0.0,
			"-0.024": 0.0,
			"-0.023": 0.0,
			"-0.022": 0.0,
			"-0.021": 0.0,
			"-0.02": 0.0,
			"-0.019": 0.0,
			"-0.018": 0.0,
			"-0.017": 0.0,
			"-0.016": 0.0,
			"-0.015": 0.0471079783265,
			"-0.014": 0.585101337332,
			"-0.013": 0.740441921517,
			"-0.012": 1.04080675678,
			"-0.011": 2.45065120621,
			"-0.01": 1.9335194562,
			"-0.009": 1.18991970059,
			"-0.008": 2.4098899429,
			"-0.007": 3.45889835437,
			"-0.006": 6.49995890314,
			"-0.005": 20.5780534957,
			"-0.004": 15.3341226675,
			"-0.003": 8.65622995005,
			"-0.002": 8.79443584712,
			"-0.001": 8.23702963119,
			"0.0": 9.59063739413,
			"0.001": 21.464735361,
			"0.002": 36.4032735533,
			"0.003": 6.54274337721,
			"0.004": 2.75959371325,
			"0.005": 2.49183368526,
			"0.006": 2.60791874442,
			"0.007": 2.89431944004,
			"0.008": 3.51146033443,
			"0.009": 3.9295763714,
			"0.01": 6.16249345666,
			"0.011": 5.62486079725,
			"0.012": 1.93565816653,
			"0.013": 0.188727474233,
			"0.014": 0.0,
			"0.015": 0.0,
			"0.016": 0.0,
			"0.017": 0.0,
			"0.018": 0.0,
			"0.019": 0.0,
			"0.02": 0.0,
			"0.021": 0.0,
			"0.022": 0.0,
			"0.023": 0.0,
			"0.024": 0.0,
			"0.025": 0.0
		}
	}
}
