{
	 "smiles": "OC1=CC=C(O)C(C=NCCN=CC2=CC(O)=CC=C2O)=C1", 
	 "Tm": 399.15, 
	 "num_atms": 38, 
	 "gaussian": { 
		 "optdone": 1, 
		 "sigma_profile": "yes", 
		 "theory": "DFT", 
		 "functional": "B3LYP", 
		 "basiset": "6-31G**", 
		 "properties": { 
			 "R2extent": 7173.8446, 
			 "electric_dipole_moment_norm": 1.72242151055, 
			 "electric_quadrupole_moment_norm": 9.47386901693, 
			 "total_energy": -1029.69229839, 
			 "HOMO_LUMO_gap": 0.1552, 
			 "cosmo_polarized_energy": -21.87, 
			 "cosmo_cavitation_energy": 41.92, 
			 "cosmo_dispersion_energy": -28.25, 
			 "cosmo_repulsion_energy": 2.1, 
			 "cosmo_total_nonelectrostatic_energy": 15.77, 
			 "SMD_solvation_energy": 3.11 
		},
		"coords": [
			{
				"x": -3.3591498641,
				"y": 0.8235577449,
				"z": -1.4280092245,
				"element": "O" 
			},
			{
				"x": -3.0129925912,
				"y": 0.2236110138,
				"z": -0.2318631227,
				"element": "C" 
			},
			{
				"x": -3.6688579538,
				"y": 0.6567171075,
				"z": 0.9248318259,
				"element": "C" 
			},
			{
				"x": -3.3199608833,
				"y": 0.1214980605,
				"z": 2.159239359,
				"element": "C" 
			},
			{
				"x": -2.3006190889,
				"y": -0.8326790131,
				"z": 2.2592503555,
				"element": "C" 
			},
			{
				"x": -2.0106949154,
				"y": -1.3108345822,
				"z": 3.5078157535,
				"element": "O" 
			},
			{
				"x": -1.6272320578,
				"y": -1.259551798,
				"z": 1.1023684246,
				"element": "C" 
			},
			{
				"x": -0.5050441247,
				"y": -2.2449965459,
				"z": 1.1483164887,
				"element": "C" 
			},
			{
				"x": 0.6154870395,
				"y": -2.1671840676,
				"z": 1.7581194832,
				"element": "N" 
			},
			{
				"x": 1.0040904571,
				"y": -0.9580410625,
				"z": 2.4766487908,
				"element": "C" 
			},
			{
				"x": 2.1158786312,
				"y": -0.2330008337,
				"z": 1.6941010763,
				"element": "C" 
			},
			{
				"x": 1.5687282146,
				"y": 0.3811838814,
				"z": 0.5015301345,
				"element": "N" 
			},
			{
				"x": 2.1026258213,
				"y": 0.1190636585,
				"z": -0.6270698262,
				"element": "C" 
			},
			{
				"x": 1.5730231695,
				"y": 0.6316664824,
				"z": -1.8989954544,
				"element": "C" 
			},
			{
				"x": 0.2962511098,
				"y": 1.2311457124,
				"z": -1.9269072826,
				"element": "C" 
			},
			{
				"x": -0.2798949166,
				"y": 1.6382520508,
				"z": -3.1234524863,
				"element": "C" 
			},
			{
				"x": -1.5346018847,
				"y": 2.1769120847,
				"z": -3.2137978293,
				"element": "O" 
			},
			{
				"x": 0.4394107,
				"y": 1.4836903416,
				"z": -4.3212680749,
				"element": "C" 
			},
			{
				"x": 1.7076409844,
				"y": 0.9232160472,
				"z": -4.306779956,
				"element": "C" 
			},
			{
				"x": 2.2860004782,
				"y": 0.491317509,
				"z": -3.1055369764,
				"element": "C" 
			},
			{
				"x": 3.5384534754,
				"y": -0.0567066663,
				"z": -3.2011682912,
				"element": "O" 
			},
			{
				"x": -2.0193071613,
				"y": -0.7461701664,
				"z": -0.1432331224,
				"element": "C" 
			},
			{
				"x": -3.0596491242,
				"y": 0.2740015433,
				"z": -2.1655093075,
				"element": "H" 
			},
			{
				"x": -4.4505731236,
				"y": 1.4042973885,
				"z": 0.8411700389,
				"element": "H" 
			},
			{
				"x": -3.8278745697,
				"y": 0.4333383849,
				"z": 3.0656975403,
				"element": "H" 
			},
			{
				"x": -1.3563922468,
				"y": -2.0195618865,
				"z": 3.4321284708,
				"element": "H" 
			},
			{
				"x": -0.6589155907,
				"y": -3.1539295189,
				"z": 0.5543873365,
				"element": "H" 
			},
			{
				"x": 1.4157922751,
				"y": -1.2651815339,
				"z": 3.4454581974,
				"element": "H" 
			},
			{
				"x": 0.1907292376,
				"y": -0.2456609724,
				"z": 2.6530069098,
				"element": "H" 
			},
			{
				"x": 2.5040966917,
				"y": 0.5634260081,
				"z": 2.3429180543,
				"element": "H" 
			},
			{
				"x": 2.938710631,
				"y": -0.9360778723,
				"z": 1.4821390642,
				"element": "H" 
			},
			{
				"x": 2.9782210213,
				"y": -0.5526002692,
				"z": -0.6850655354,
				"element": "H" 
			},
			{
				"x": -0.2259698033,
				"y": 1.3420318095,
				"z": -0.9818346599,
				"element": "H" 
			},
			{
				"x": -1.9815467823,
				"y": 2.1338593619,
				"z": -2.3529091291,
				"element": "H" 
			},
			{
				"x": -0.0156861263,
				"y": 1.8090651011,
				"z": -5.2510948782,
				"element": "H" 
			},
			{
				"x": 2.277648253,
				"y": 0.8069465985,
				"z": -5.2225340089,
				"element": "H" 
			},
			{
				"x": 3.9268502756,
				"y": -0.1536399197,
				"z": -2.3237197891,
				"element": "H" 
			},
			{
				"x": -1.4941756579,
				"y": -1.0717811817,
				"z": -1.0379783493,
				"element": "H" 
			}
		],
		 "valence_orbital": [ 
			{
				"type": "occ",
				"energy": -0.2557,
				"method": "rhf"
			},
			{
				"type": "occ",
				"energy": -0.25516,
				"method": "rhf"
			},
			{
				"type": "occ",
				"energy": -0.2454,
				"method": "rhf"
			},
			{
				"type": "occ",
				"energy": -0.21639,
				"method": "rhf"
			},
			{
				"type": "occ",
				"energy": -0.20488,
				"method": "rhf"
			},
			{
				"type": "unocc",
				"energy": -0.04968,
				"method": "rhf"
			},
			{
				"type": "unocc",
				"energy": -0.03887,
				"method": "rhf"
			},
			{
				"type": "unocc",
				"energy": -0.00275,
				"method": "rhf"
			},
			{
				"type": "unocc",
				"energy": 0.01572,
				"method": "rhf"
			},
			{
				"type": "unocc",
				"energy": 0.01757,
				"method": "rhf"
			}
		],
		"cosmo_sigma_profile": { 
			"-0.025": 0.0,
			"-0.024": 0.0,
			"-0.023": 0.0,
			"-0.022": 0.0,
			"-0.021": 0.0,
			"-0.02": 0.0,
			"-0.019": 0.0,
			"-0.018": 0.165212468266,
			"-0.017": 0.993080069648,
			"-0.016": 1.36804660656,
			"-0.015": 2.24917967433,
			"-0.014": 2.05295776394,
			"-0.013": 2.33942027107,
			"-0.012": 2.25141653402,
			"-0.011": 3.38424424976,
			"-0.01": 2.88462859964,
			"-0.009": 3.73028106435,
			"-0.008": 4.64166859391,
			"-0.007": 8.14203910339,
			"-0.006": 22.0466398839,
			"-0.005": 24.1353470212,
			"-0.004": 21.8113201569,
			"-0.003": 21.3946762793,
			"-0.002": 19.0017159449,
			"-0.001": 16.8921293624,
			"0.0": 14.4494563581,
			"0.001": 17.8906881876,
			"0.002": 19.8758164814,
			"0.003": 28.6500107856,
			"0.004": 28.216516334,
			"0.005": 13.8213156194,
			"0.006": 8.69604051237,
			"0.007": 7.48107335426,
			"0.008": 7.42437025349,
			"0.009": 6.8605224774,
			"0.01": 7.49534731036,
			"0.011": 7.13721532085,
			"0.012": 2.77215361264,
			"0.013": 1.39292598406,
			"0.014": 0.771663335891,
			"0.015": 0.749265316568,
			"0.016": 0.653122522521,
			"0.017": 0.083321924913,
			"0.018": 0.0,
			"0.019": 0.0,
			"0.02": 0.0,
			"0.021": 0.0,
			"0.022": 0.0,
			"0.023": 0.0,
			"0.024": 0.0,
			"0.025": 0.0
		}
	}
}
