{
	 "smiles": "OC(=O)CCC1=NNC(S)=NC1=O", 
	 "Tm": 436.15, 
	 "num_atms": 20, 
	 "gaussian": { 
		 "optdone": 1, 
		 "sigma_profile": "yes", 
		 "theory": "DFT", 
		 "functional": "B3LYP", 
		 "basiset": "6-31G**", 
		 "properties": { 
			 "R2extent": 3335.4777, 
			 "electric_dipole_moment_norm": 2.01165412783, 
			 "electric_quadrupole_moment_norm": 26.8265483656, 
			 "total_energy": -1020.94781598, 
			 "HOMO_LUMO_gap": 0.19153, 
			 "cosmo_polarized_energy": -26.61, 
			 "cosmo_cavitation_energy": 27.18, 
			 "cosmo_dispersion_energy": -20.22, 
			 "cosmo_repulsion_energy": 1.59, 
			 "cosmo_total_nonelectrostatic_energy": 8.55, 
			 "SMD_solvation_energy": 3.69 
		},
		"coords": [
			{
				"x": 1.506103418,
				"y": 3.3717187563,
				"z": -1.6674121271,
				"element": "O" 
			},
			{
				"x": 0.5361867909,
				"y": 2.5109709845,
				"z": -1.2550453008,
				"element": "C" 
			},
			{
				"x": -0.0702053477,
				"y": 1.8527930817,
				"z": -2.0630433312,
				"element": "O" 
			},
			{
				"x": 0.294730694,
				"y": 2.4858123204,
				"z": 0.2474254963,
				"element": "C" 
			},
			{
				"x": -0.6936761485,
				"y": 1.3948941198,
				"z": 0.6893383855,
				"element": "C" 
			},
			{
				"x": -0.1780035152,
				"y": -0.0087287776,
				"z": 0.5161126628,
				"element": "C" 
			},
			{
				"x": -0.8818649724,
				"y": -0.8289430453,
				"z": -0.2002113342,
				"element": "N" 
			},
			{
				"x": -0.3986371435,
				"y": -2.0925437993,
				"z": -0.3206483853,
				"element": "N" 
			},
			{
				"x": 0.7660314586,
				"y": -2.4980378419,
				"z": 0.2511275627,
				"element": "C" 
			},
			{
				"x": 1.2248955329,
				"y": -4.190812734,
				"z": -0.0877968014,
				"element": "S" 
			},
			{
				"x": 1.5050687561,
				"y": -1.7367035393,
				"z": 0.993482855,
				"element": "N" 
			},
			{
				"x": 1.0791146093,
				"y": -0.422998658,
				"z": 1.2084617275,
				"element": "C" 
			},
			{
				"x": 1.6969830315,
				"y": 0.3510876628,
				"z": 1.9284031049,
				"element": "O" 
			},
			{
				"x": 1.9206479391,
				"y": 3.7981090354,
				"z": -0.903620585,
				"element": "H" 
			},
			{
				"x": 1.2432758423,
				"y": 2.3542737315,
				"z": 0.7787996506,
				"element": "H" 
			},
			{
				"x": -0.0995722672,
				"y": 3.4689032481,
				"z": 0.537425582,
				"element": "H" 
			},
			{
				"x": -0.9025233419,
				"y": 1.5486564,
				"z": 1.754759462,
				"element": "H" 
			},
			{
				"x": -1.6292190257,
				"y": 1.4834724189,
				"z": 0.133315835,
				"element": "H" 
			},
			{
				"x": -0.9586313774,
				"y": -2.6991859407,
				"z": -0.9034049122,
				"element": "H" 
			},
			{
				"x": 2.3403950667,
				"y": -4.1057374233,
				"z": 0.659230453,
				"element": "H" 
			}
		],
		 "valence_orbital": [ 
			{
				"type": "occ",
				"energy": -0.29986,
				"method": "rhf"
			},
			{
				"type": "occ",
				"energy": -0.28036,
				"method": "rhf"
			},
			{
				"type": "occ",
				"energy": -0.27182,
				"method": "rhf"
			},
			{
				"type": "occ",
				"energy": -0.26265,
				"method": "rhf"
			},
			{
				"type": "occ",
				"energy": -0.25019,
				"method": "rhf"
			},
			{
				"type": "unocc",
				"energy": -0.05866,
				"method": "rhf"
			},
			{
				"type": "unocc",
				"energy": -0.03926,
				"method": "rhf"
			},
			{
				"type": "unocc",
				"energy": -0.0219,
				"method": "rhf"
			},
			{
				"type": "unocc",
				"energy": 0.01193,
				"method": "rhf"
			},
			{
				"type": "unocc",
				"energy": 0.04686,
				"method": "rhf"
			}
		],
		"cosmo_sigma_profile": { 
			"-0.025": 0.0,
			"-0.024": 0.0,
			"-0.023": 0.0,
			"-0.022": 0.0,
			"-0.021": 0.0,
			"-0.02": 0.0,
			"-0.019": 0.812964824224,
			"-0.018": 2.62966955971,
			"-0.017": 2.71779824841,
			"-0.016": 2.82946371355,
			"-0.015": 1.6053186668,
			"-0.014": 2.04457987518,
			"-0.013": 2.56561945853,
			"-0.012": 3.51284762938,
			"-0.011": 3.05046196811,
			"-0.01": 3.55480628292,
			"-0.009": 3.54936287308,
			"-0.008": 4.03746183801,
			"-0.007": 6.9818773215,
			"-0.006": 10.5446421541,
			"-0.005": 14.3659924993,
			"-0.004": 12.3980945169,
			"-0.003": 12.2993233715,
			"-0.002": 11.9408440397,
			"-0.001": 8.91939327721,
			"0.0": 10.3670184772,
			"0.001": 8.31881341522,
			"0.002": 8.21704764797,
			"0.003": 8.16670156998,
			"0.004": 6.6188056007,
			"0.005": 7.4632840313,
			"0.006": 5.94652818982,
			"0.007": 5.24448944578,
			"0.008": 5.44733623075,
			"0.009": 6.55656133725,
			"0.01": 7.52206894116,
			"0.011": 9.32141591706,
			"0.012": 9.52425457934,
			"0.013": 5.542916395,
			"0.014": 3.32430053635,
			"0.015": 1.0570358479,
			"0.016": 0.0,
			"0.017": 0.0,
			"0.018": 0.0,
			"0.019": 0.0,
			"0.02": 0.0,
			"0.021": 0.0,
			"0.022": 0.0,
			"0.023": 0.0,
			"0.024": 0.0,
			"0.0": 0.0
		}
	}
}
