{
	 "smiles": "CCCOC1=CC=C(O)C=C1", 
	 "Tm": 329.65, 
	 "num_atms": 23, 
	 "gaussian": { 
		 "optdone": 1, 
		 "sigma_profile": "yes", 
		 "theory": "DFT", 
		 "functional": "B3LYP", 
		 "basiset": "6-31G**", 
		 "properties": { 
			 "R2extent": 2339.3101, 
			 "electric_dipole_moment_norm": 2.48610060335, 
			 "electric_quadrupole_moment_norm": 6.14692212331, 
			 "total_energy": -500.628088722, 
			 "HOMO_LUMO_gap": 0.19465, 
			 "cosmo_polarized_energy": -9.79, 
			 "cosmo_cavitation_energy": 25.99, 
			 "cosmo_dispersion_energy": -19.07, 
			 "cosmo_repulsion_energy": 1.55, 
			 "cosmo_total_nonelectrostatic_energy": 8.48, 
			 "SMD_solvation_energy": 4.99 
		},
		"coords": [
			{
				"x": 3.4138034378,
				"y": -0.7113052453,
				"z": -0.5391840629,
				"element": "C" 
			},
			{
				"x": 2.2450735742,
				"y": -1.6586165601,
				"z": -0.2521686435,
				"element": "C" 
			},
			{
				"x": 1.1371028163,
				"y": -1.576777542,
				"z": -1.3054703953,
				"element": "C" 
			},
			{
				"x": 0.5680258689,
				"y": -0.2727395347,
				"z": -1.4218469868,
				"element": "O" 
			},
			{
				"x": -0.3803083321,
				"y": 0.1391981669,
				"z": -0.5200154582,
				"element": "C" 
			},
			{
				"x": -0.9161494482,
				"y": -0.6383314041,
				"z": 0.5104855388,
				"element": "C" 
			},
			{
				"x": -1.9013920868,
				"y": -0.1047516075,
				"z": 1.3503942342,
				"element": "C" 
			},
			{
				"x": -2.3566552122,
				"y": 1.2007072895,
				"z": 1.1741902495,
				"element": "C" 
			},
			{
				"x": -3.3166632717,
				"y": 1.7749384365,
				"z": 1.9678191859,
				"element": "O" 
			},
			{
				"x": -1.8171117698,
				"y": 1.9810954173,
				"z": 0.1432578328,
				"element": "C" 
			},
			{
				"x": -0.8410524442,
				"y": 1.4543526366,
				"z": -0.6910385652,
				"element": "C" 
			},
			{
				"x": 3.0704450839,
				"y": 0.3258896482,
				"z": -0.5844173218,
				"element": "H" 
			},
			{
				"x": 3.8878322948,
				"y": -0.947689026,
				"z": -1.4988398714,
				"element": "H" 
			},
			{
				"x": 4.1798895551,
				"y": -0.782706746,
				"z": 0.2390502345,
				"element": "H" 
			},
			{
				"x": 2.5978398045,
				"y": -2.6982548073,
				"z": -0.2221204509,
				"element": "H" 
			},
			{
				"x": 1.8268553115,
				"y": -1.4434630971,
				"z": 0.7378753943,
				"element": "H" 
			},
			{
				"x": 0.3523096234,
				"y": -2.3216089548,
				"z": -1.118258447,
				"element": "H" 
			},
			{
				"x": 1.5520399028,
				"y": -1.7819315424,
				"z": -2.2980870932,
				"element": "H" 
			},
			{
				"x": -0.5833371971,
				"y": -1.6552084495,
				"z": 0.6800773875,
				"element": "H" 
			},
			{
				"x": -2.3091119176,
				"y": -0.7207866073,
				"z": 2.1495771864,
				"element": "H" 
			},
			{
				"x": -3.6025122581,
				"y": 1.1314825389,
				"z": 2.6284989593,
				"element": "H" 
			},
			{
				"x": -2.175449413,
				"y": 2.9967014675,
				"z": 0.0107743649,
				"element": "H" 
			},
			{
				"x": -0.4180739225,
				"y": 2.0475055227,
				"z": -1.4953532716,
				"element": "H" 
			}
		],
		 "valence_orbital": [ 
			{
				"type": "occ",
				"energy": -0.33622,
				"method": "rhf"
			},
			{
				"type": "occ",
				"energy": -0.3126,
				"method": "rhf"
			},
			{
				"type": "occ",
				"energy": -0.28804,
				"method": "rhf"
			},
			{
				"type": "occ",
				"energy": -0.24835,
				"method": "rhf"
			},
			{
				"type": "occ",
				"energy": -0.19503,
				"method": "rhf"
			},
			{
				"type": "unocc",
				"energy": -0.00038,
				"method": "rhf"
			},
			{
				"type": "unocc",
				"energy": 0.0304,
				"method": "rhf"
			},
			{
				"type": "unocc",
				"energy": 0.07441,
				"method": "rhf"
			},
			{
				"type": "unocc",
				"energy": 0.08997,
				"method": "rhf"
			},
			{
				"type": "unocc",
				"energy": 0.10318,
				"method": "rhf"
			}
		],
		"cosmo_sigma_profile": { 
			"-0.025": 0.0,
			"-0.024": 0.0,
			"-0.023": 0.0,
			"-0.022": 0.0,
			"-0.021": 0.0,
			"-0.02": 0.0,
			"-0.019": 0.0,
			"-0.018": 0.0109003387073,
			"-0.017": 0.805256306272,
			"-0.016": 1.33010246144,
			"-0.015": 0.934400872089,
			"-0.014": 0.937160538841,
			"-0.013": 1.07685881653,
			"-0.012": 1.31219872959,
			"-0.011": 1.00782772236,
			"-0.01": 0.791824489216,
			"-0.009": 0.967870673464,
			"-0.008": 0.980293587879,
			"-0.007": 2.11447374332,
			"-0.006": 6.23533908863,
			"-0.005": 10.3434894928,
			"-0.004": 12.6266566854,
			"-0.003": 21.6293850766,
			"-0.002": 17.5454024695,
			"-0.001": 17.2241765617,
			"0.0": 17.1936035842,
			"0.001": 15.4190201336,
			"0.002": 11.5466528407,
			"0.003": 9.11589272757,
			"0.004": 13.3582544449,
			"0.005": 14.282324483,
			"0.006": 10.8825494262,
			"0.007": 2.76425231367,
			"0.008": 2.2070508171,
			"0.009": 2.20516714167,
			"0.01": 3.0742101219,
			"0.011": 2.81341545923,
			"0.012": 1.79732592607,
			"0.013": 0.068958045912,
			"0.014": 0.0,
			"0.015": 0.0,
			"0.016": 0.0,
			"0.017": 0.0,
			"0.018": 0.0,
			"0.019": 0.0,
			"0.02": 0.0,
			"0.021": 0.0,
			"0.022": 0.0,
			"0.023": 0.0,
			"0.024": 0.0,
			"0.025": 0.0
		}
	}
}
