{
	 "smiles": "COC1=CC=CC(OC)=C1C", 
	 "Tm": 312.65, 
	 "num_atms": 23, 
	 "gaussian": { 
		 "optdone": 1, 
		 "sigma_profile": "yes", 
		 "theory": "DFT", 
		 "functional": "B3LYP", 
		 "basiset": "6-31G**", 
		 "properties": { 
			 "R2extent": 2211.7169, 
			 "electric_dipole_moment_norm": 1.29348454185, 
			 "electric_quadrupole_moment_norm": 10.2127835221, 
			 "total_energy": -500.618901617, 
			 "HOMO_LUMO_gap": 0.22083, 
			 "cosmo_polarized_energy": -6.74, 
			 "cosmo_cavitation_energy": 25.58, 
			 "cosmo_dispersion_energy": -19.03, 
			 "cosmo_repulsion_energy": 1.54, 
			 "cosmo_total_nonelectrostatic_energy": 8.09, 
			 "SMD_solvation_energy": 6.02 
		},
		"coords": [
			{
				"x": -2.8112115198,
				"y": -1.6323708304,
				"z": 2.3062594226,
				"element": "C" 
			},
			{
				"x": -2.0753390844,
				"y": -0.72109867,
				"z": 1.509750048,
				"element": "O" 
			},
			{
				"x": -0.8608589505,
				"y": -1.1178785884,
				"z": 1.0148970635,
				"element": "C" 
			},
			{
				"x": -0.3224036361,
				"y": -2.3951921796,
				"z": 1.2241796204,
				"element": "C" 
			},
			{
				"x": 0.9180601211,
				"y": -2.7042531448,
				"z": 0.6709140721,
				"element": "C" 
			},
			{
				"x": 1.6257446738,
				"y": -1.7698800137,
				"z": -0.0817525898,
				"element": "C" 
			},
			{
				"x": 1.0721439742,
				"y": -0.4974177017,
				"z": -0.2807750813,
				"element": "C" 
			},
			{
				"x": 1.6857561282,
				"y": 0.4861339184,
				"z": -1.011125565,
				"element": "O" 
			},
			{
				"x": 2.9629674156,
				"y": 0.2211306409,
				"z": -1.5632517647,
				"element": "C" 
			},
			{
				"x": -0.1730955293,
				"y": -0.1445076713,
				"z": 0.2687654383,
				"element": "C" 
			},
			{
				"x": -0.7566999055,
				"y": 1.2293827913,
				"z": 0.056056779,
				"element": "C" 
			},
			{
				"x": -3.7219827951,
				"y": -1.1079321166,
				"z": 2.6010068684,
				"element": "H" 
			},
			{
				"x": -3.0834490657,
				"y": -2.536137622,
				"z": 1.7455498977,
				"element": "H" 
			},
			{
				"x": -2.2573223462,
				"y": -1.9258847366,
				"z": 3.207607469,
				"element": "H" 
			},
			{
				"x": -0.8557306922,
				"y": -3.1395055661,
				"z": 1.8019374094,
				"element": "H" 
			},
			{
				"x": 1.3403398843,
				"y": -3.6927733035,
				"z": 0.827505162,
				"element": "H" 
			},
			{
				"x": 2.5862642337,
				"y": -2.0347081477,
				"z": -0.505438613,
				"element": "H" 
			},
			{
				"x": 2.9314151902,
				"y": -0.6053074618,
				"z": -2.2852744284,
				"element": "H" 
			},
			{
				"x": 3.7026128246,
				"y": -0.0128203173,
				"z": -0.7863631433,
				"element": "H" 
			},
			{
				"x": 3.2635009938,
				"y": 1.1344662586,
				"z": -2.0798926643,
				"element": "H" 
			},
			{
				"x": -1.3752513983,
				"y": 1.2652795681,
				"z": -0.8498338235,
				"element": "H" 
			},
			{
				"x": -1.3943209287,
				"y": 1.5114719872,
				"z": 0.8958793461,
				"element": "H" 
			},
			{
				"x": 0.0357604125,
				"y": 1.9706029067,
				"z": -0.0624009233,
				"element": "H" 
			}
		],
		 "valence_orbital": [ 
			{
				"type": "occ",
				"energy": -0.32748,
				"method": "rhf"
			},
			{
				"type": "occ",
				"energy": -0.31215,
				"method": "rhf"
			},
			{
				"type": "occ",
				"energy": -0.29446,
				"method": "rhf"
			},
			{
				"type": "occ",
				"energy": -0.20957,
				"method": "rhf"
			},
			{
				"type": "occ",
				"energy": -0.20881,
				"method": "rhf"
			},
			{
				"type": "unocc",
				"energy": 0.01202,
				"method": "rhf"
			},
			{
				"type": "unocc",
				"energy": 0.03001,
				"method": "rhf"
			},
			{
				"type": "unocc",
				"energy": 0.0938,
				"method": "rhf"
			},
			{
				"type": "unocc",
				"energy": 0.10718,
				"method": "rhf"
			},
			{
				"type": "unocc",
				"energy": 0.10939,
				"method": "rhf"
			}
		],
		"cosmo_sigma_profile": { 
			"-0.025": 0.0,
			"-0.024": 0.0,
			"-0.023": 0.0,
			"-0.022": 0.0,
			"-0.021": 0.0,
			"-0.02": 0.0,
			"-0.019": 0.0,
			"-0.018": 0.0,
			"-0.017": 0.0,
			"-0.016": 0.0,
			"-0.015": 0.0,
			"-0.014": 0.0,
			"-0.013": 0.0,
			"-0.012": 0.0,
			"-0.011": 0.0,
			"-0.01": 0.0,
			"-0.009": 0.0,
			"-0.008": 0.0,
			"-0.007": 0.000794340543671,
			"-0.006": 5.48668100908,
			"-0.005": 21.5924795858,
			"-0.004": 21.8156510183,
			"-0.003": 26.012092178,
			"-0.002": 16.8728822572,
			"-0.001": 13.4983722538,
			"0.0": 12.0381015259,
			"0.001": 12.6664109763,
			"0.002": 11.177328632,
			"0.003": 10.2706510261,
			"0.004": 13.2064690076,
			"0.005": 12.5784502408,
			"0.006": 11.8292957073,
			"0.007": 6.44840020641,
			"0.008": 3.97987760715,
			"0.009": 1.75805297747,
			"0.01": 0.862833320112,
			"0.011": 0.0,
			"0.012": 0.0,
			"0.013": 0.0,
			"0.014": 0.0,
			"0.015": 0.0,
			"0.016": 0.0,
			"0.017": 0.0,
			"0.018": 0.0,
			"0.019": 0.0,
			"0.02": 0.0,
			"0.021": 0.0,
			"0.022": 0.0,
			"0.023": 0.0,
			"0.024": 0.0,
			"0.025": 0.0
		}
	}
}
