{
	 "smiles": "OC(=O)CCSCCC(O)=O", 
	 "Tm": 403.15, 
	 "num_atms": 21, 
	 "gaussian": { 
		 "optdone": 1, 
		 "sigma_profile": "yes", 
		 "theory": "DFT", 
		 "functional": "B3LYP", 
		 "basiset": "6-31G**", 
		 "properties": { 
			 "R2extent": 3235.9718, 
			 "electric_dipole_moment_norm": 4.45988176189, 
			 "electric_quadrupole_moment_norm": 15.7120456319, 
			 "total_energy": -933.771144696, 
			 "HOMO_LUMO_gap": 0.22938, 
			 "cosmo_polarized_energy": -24.09, 
			 "cosmo_cavitation_energy": 27.29, 
			 "cosmo_dispersion_energy": -19.62, 
			 "cosmo_repulsion_energy": 1.59, 
			 "cosmo_total_nonelectrostatic_energy": 9.26, 
			 "SMD_solvation_energy": 6.44 
		},
		"coords": [
			{
				"x": 3.2892199248,
				"y": 0.9653818017,
				"z": 2.1422597142,
				"element": "O" 
			},
			{
				"x": 3.053528788,
				"y": -0.2691381152,
				"z": 1.6395332205,
				"element": "C" 
			},
			{
				"x": 3.3993912537,
				"y": -1.2844381684,
				"z": 2.2007097469,
				"element": "O" 
			},
			{
				"x": 2.3565045975,
				"y": -0.2007904798,
				"z": 0.2950470426,
				"element": "C" 
			},
			{
				"x": 1.6584330284,
				"y": -1.5136645454,
				"z": -0.0615143778,
				"element": "C" 
			},
			{
				"x": 0.1982488203,
				"y": -1.9268988347,
				"z": 0.9811392766,
				"element": "S" 
			},
			{
				"x": -1.1918960954,
				"y": -1.2951368577,
				"z": -0.033866385,
				"element": "C" 
			},
			{
				"x": -1.4085194302,
				"y": 0.2180043095,
				"z": 0.0258343554,
				"element": "C" 
			},
			{
				"x": -2.656406185,
				"y": 0.6496067934,
				"z": -0.7388687038,
				"element": "C" 
			},
			{
				"x": -2.9285655072,
				"y": 1.9824038976,
				"z": -0.7044879533,
				"element": "O" 
			},
			{
				"x": -3.3773096893,
				"y": -0.0999663673,
				"z": -1.3474310673,
				"element": "O" 
			},
			{
				"x": 3.7646895676,
				"y": 0.8307974404,
				"z": 2.9797180443,
				"element": "H" 
			},
			{
				"x": 3.1338123111,
				"y": 0.0196829357,
				"z": -0.4513784051,
				"element": "H" 
			},
			{
				"x": 1.6737008832,
				"y": 0.6525653717,
				"z": 0.2911945521,
				"element": "H" 
			},
			{
				"x": 1.3435441566,
				"y": -1.5140438953,
				"z": -1.1088946453,
				"element": "H" 
			},
			{
				"x": 2.3589890458,
				"y": -2.3394579552,
				"z": 0.0797926304,
				"element": "H" 
			},
			{
				"x": -2.0784789792,
				"y": -1.8052126366,
				"z": 0.3510923781,
				"element": "H" 
			},
			{
				"x": -1.0699353941,
				"y": -1.6265679464,
				"z": -1.0685081978,
				"element": "H" 
			},
			{
				"x": -1.4961947408,
				"y": 0.5465988992,
				"z": 1.0694913551,
				"element": "H" 
			},
			{
				"x": -0.5486496419,
				"y": 0.7559553059,
				"z": -0.3943648451,
				"element": "H" 
			},
			{
				"x": -2.270806714,
				"y": 2.4472190468,
				"z": -0.167697736,
				"element": "H" 
			}
		],
		 "valence_orbital": [ 
			{
				"type": "occ",
				"energy": -0.32337,
				"method": "rhf"
			},
			{
				"type": "occ",
				"energy": -0.3113,
				"method": "rhf"
			},
			{
				"type": "occ",
				"energy": -0.28583,
				"method": "rhf"
			},
			{
				"type": "occ",
				"energy": -0.28066,
				"method": "rhf"
			},
			{
				"type": "occ",
				"energy": -0.23129,
				"method": "rhf"
			},
			{
				"type": "unocc",
				"energy": -0.00191,
				"method": "rhf"
			},
			{
				"type": "unocc",
				"energy": 0.00258,
				"method": "rhf"
			},
			{
				"type": "unocc",
				"energy": 0.0386,
				"method": "rhf"
			},
			{
				"type": "unocc",
				"energy": 0.04583,
				"method": "rhf"
			},
			{
				"type": "unocc",
				"energy": 0.06154,
				"method": "rhf"
			}
		],
		"cosmo_sigma_profile": { 
			"-0.025": 0.0,
			"-0.024": 0.0,
			"-0.023": 0.0,
			"-0.022": 0.0,
			"-0.021": 0.0,
			"-0.02": 0.026003399954,
			"-0.019": 0.806805278927,
			"-0.018": 1.65799526416,
			"-0.017": 2.48050637943,
			"-0.016": 1.86107548078,
			"-0.015": 1.70137368607,
			"-0.014": 1.9049255102,
			"-0.013": 1.1734381496,
			"-0.012": 1.88901995579,
			"-0.011": 2.55085840625,
			"-0.01": 2.01266379585,
			"-0.009": 2.3193416171,
			"-0.008": 4.31294191346,
			"-0.007": 11.7311531072,
			"-0.006": 16.2946651158,
			"-0.005": 15.6432985404,
			"-0.004": 13.2561274521,
			"-0.003": 11.7485851503,
			"-0.002": 9.42298766882,
			"-0.001": 7.17126146832,
			"0.0": 7.80571963357,
			"0.001": 6.8186579774,
			"0.002": 7.21786107403,
			"0.003": 6.57555428733,
			"0.004": 7.68249076517,
			"0.005": 7.15582322186,
			"0.006": 7.92879304267,
			"0.007": 10.0721914035,
			"0.008": 7.60099885995,
			"0.009": 8.50003886396,
			"0.01": 8.7342445417,
			"0.011": 9.70096357175,
			"0.012": 8.41335678826,
			"0.013": 1.64622461923,
			"0.014": 0.0478604261019,
			"0.015": 0.0,
			"0.016": 0.0,
			"0.017": 0.0,
			"0.018": 0.0,
			"0.019": 0.0,
			"0.02": 0.0,
			"0.021": 0.0,
			"0.022": 0.0,
			"0.023": 0.0,
			"0.024": 0.0,
			"0.025": 0.0
		}
	}
}
