{
	 "smiles": "O=CC1=CC=C(OC2=CC=CC=C2)C=C1", 
	 "Tm": 297.95, 
	 "num_atms": 25, 
	 "gaussian": { 
		 "optdone": 1, 
		 "sigma_profile": "yes", 
		 "theory": "DFT", 
		 "functional": "B3LYP", 
		 "basiset": "6-31G**", 
		 "properties": { 
			 "R2extent": 4485.7799, 
			 "electric_dipole_moment_norm": 4.7047558587, 
			 "electric_quadrupole_moment_norm": 14.6408313063, 
			 "total_energy": -651.841807127, 
			 "HOMO_LUMO_gap": 0.17943, 
			 "cosmo_polarized_energy": -9.71, 
			 "cosmo_cavitation_energy": 30.2, 
			 "cosmo_dispersion_energy": -21.65, 
			 "cosmo_repulsion_energy": 1.68, 
			 "cosmo_total_nonelectrostatic_energy": 10.23, 
			 "SMD_solvation_energy": 6.42 
		},
		"coords": [
			{
				"x": -3.8994557477,
				"y": 0.2516496475,
				"z": -4.1026376109,
				"element": "O" 
			},
			{
				"x": -2.6985846334,
				"y": 0.172582803,
				"z": -3.9145716975,
				"element": "C" 
			},
			{
				"x": -2.0409308848,
				"y": 0.3025235055,
				"z": -2.6017222356,
				"element": "C" 
			},
			{
				"x": -2.8012782925,
				"y": 0.5336058166,
				"z": -1.4412559053,
				"element": "C" 
			},
			{
				"x": -2.1812582536,
				"y": 0.6581048874,
				"z": -0.2096457418,
				"element": "C" 
			},
			{
				"x": -0.7829108931,
				"y": 0.5516328576,
				"z": -0.1206462535,
				"element": "C" 
			},
			{
				"x": -0.2634096839,
				"y": 0.6541777052,
				"z": 1.1427527048,
				"element": "O" 
			},
			{
				"x": 1.0995337162,
				"y": 0.8439750658,
				"z": 1.3362953146,
				"element": "C" 
			},
			{
				"x": 1.8047857725,
				"y": -0.1397670834,
				"z": 2.0274544438,
				"element": "C" 
			},
			{
				"x": 3.1556219104,
				"y": 0.064828101,
				"z": 2.3150820269,
				"element": "C" 
			},
			{
				"x": 3.7927310629,
				"y": 1.2389443688,
				"z": 1.909203151,
				"element": "C" 
			},
			{
				"x": 3.0725316263,
				"y": 2.2168787897,
				"z": 1.218224435,
				"element": "C" 
			},
			{
				"x": 1.7203996935,
				"y": 2.0275674119,
				"z": 0.9313133073,
				"element": "C" 
			},
			{
				"x": -0.0097518157,
				"y": 0.3159998043,
				"z": -1.2643986329,
				"element": "C" 
			},
			{
				"x": -0.6486863446,
				"y": 0.1949640329,
				"z": -2.495614424,
				"element": "C" 
			},
			{
				"x": -2.000708404,
				"y": -0.010643397,
				"z": -4.763137927,
				"element": "H" 
			},
			{
				"x": -3.8794314433,
				"y": 0.6141570456,
				"z": -1.5372972967,
				"element": "H" 
			},
			{
				"x": -2.7463259225,
				"y": 0.8375417872,
				"z": 0.6989521815,
				"element": "H" 
			},
			{
				"x": 1.2882552587,
				"y": -1.0427107165,
				"z": 2.3356867894,
				"element": "H" 
			},
			{
				"x": 3.7089857863,
				"y": -0.6971069112,
				"z": 2.8559989033,
				"element": "H" 
			},
			{
				"x": 4.8435752806,
				"y": 1.3940961267,
				"z": 2.1335606856,
				"element": "H" 
			},
			{
				"x": 3.5611165614,
				"y": 3.1357376079,
				"z": 0.9076180651,
				"element": "H" 
			},
			{
				"x": 1.1460394794,
				"y": 2.7846087385,
				"z": 0.4072961385,
				"element": "H" 
			},
			{
				"x": 1.067188166,
				"y": 0.2257230468,
				"z": -1.1872197465,
				"element": "H" 
			},
			{
				"x": -0.0570319951,
				"y": 0.0094289583,
				"z": -3.3893906751,
				"element": "H" 
			}
		],
		 "valence_orbital": [ 
			{
				"type": "occ",
				"energy": -0.26935,
				"method": "rhf"
			},
			{
				"type": "occ",
				"energy": -0.26491,
				"method": "rhf"
			},
			{
				"type": "occ",
				"energy": -0.25916,
				"method": "rhf"
			},
			{
				"type": "occ",
				"energy": -0.24876,
				"method": "rhf"
			},
			{
				"type": "occ",
				"energy": -0.23407,
				"method": "rhf"
			},
			{
				"type": "unocc",
				"energy": -0.05464,
				"method": "rhf"
			},
			{
				"type": "unocc",
				"energy": -0.02207,
				"method": "rhf"
			},
			{
				"type": "unocc",
				"energy": -0.01116,
				"method": "rhf"
			},
			{
				"type": "unocc",
				"energy": -0.00969,
				"method": "rhf"
			},
			{
				"type": "unocc",
				"energy": 0.04808,
				"method": "rhf"
			}
		],
		"cosmo_sigma_profile": { 
			"-0.025": 0.0,
			"-0.024": 0.0,
			"-0.023": 0.0,
			"-0.022": 0.0,
			"-0.021": 0.0,
			"-0.02": 0.0,
			"-0.019": 0.0,
			"-0.018": 0.0,
			"-0.017": 0.0,
			"-0.016": 0.0,
			"-0.015": 0.0,
			"-0.014": 0.0,
			"-0.013": 0.0,
			"-0.012": 0.0,
			"-0.011": 0.0,
			"-0.01": 0.0,
			"-0.009": 0.0,
			"-0.008": 0.866185249155,
			"-0.007": 8.48691457402,
			"-0.006": 17.6234413925,
			"-0.005": 20.5238557746,
			"-0.004": 20.033892344,
			"-0.003": 15.5495579991,
			"-0.002": 15.3672872022,
			"-0.001": 16.8246461433,
			"0.0": 17.2055506602,
			"0.001": 17.9899816981,
			"0.002": 22.4552820391,
			"0.003": 25.1338363252,
			"0.004": 13.4857502004,
			"0.005": 9.5410970961,
			"0.006": 2.85940883509,
			"0.007": 2.16846205586,
			"0.008": 3.03012840603,
			"0.009": 2.04668876276,
			"0.01": 2.39081292426,
			"0.011": 3.58632407293,
			"0.012": 4.06905848007,
			"0.013": 1.48636472056,
			"0.014": 0.122734210434,
			"0.015": 0.0,
			"0.016": 0.0,
			"0.017": 0.0,
			"0.018": 0.0,
			"0.019": 0.0,
			"0.02": 0.0,
			"0.021": 0.0,
			"0.022": 0.0,
			"0.023": 0.0,
			"0.024": 0.0,
			"0.025": 0.0
		}
	}
}
