{
	 "smiles": "CCOC1=C2OC3C(O)C=CC4[C@H]5CC(C=C1)=C2[C@@]34CCN5C", 
	 "Tm": 473.15, 
	 "num_atms": 46, 
	 "gaussian": { 
		 "optdone": 1, 
		 "sigma_profile": "yes", 
		 "theory": "DFT", 
		 "functional": "B3LYP", 
		 "basiset": "6-31G**", 
		 "properties": { 
			 "R2extent": 6627.0341, 
			 "electric_dipole_moment_norm": 2.94587122088, 
			 "electric_quadrupole_moment_norm": 8.30819923028, 
			 "total_energy": -1018.23227326, 
			 "HOMO_LUMO_gap": 0.19522, 
			 "cosmo_polarized_energy": -13.65, 
			 "cosmo_cavitation_energy": 42.46, 
			 "cosmo_dispersion_energy": -30.39, 
			 "cosmo_repulsion_energy": 2.3, 
			 "cosmo_total_nonelectrostatic_energy": 14.36, 
			 "SMD_solvation_energy": 4.89 
		},
		"coords": [
			{
				"x": -2.4949595926,
				"y": -4.2123444365,
				"z": -1.3598747364,
				"element": "C" 
			},
			{
				"x": -3.2824856686,
				"y": -2.9904082602,
				"z": -1.8163177731,
				"element": "C" 
			},
			{
				"x": -3.7652134128,
				"y": -2.2015543479,
				"z": -0.7150901052,
				"element": "O" 
			},
			{
				"x": -2.8976280015,
				"y": -1.4229385692,
				"z": -0.0084651602,
				"element": "C" 
			},
			{
				"x": -1.5787376413,
				"y": -1.087420999,
				"z": -0.3289224798,
				"element": "C" 
			},
			{
				"x": -0.8155780104,
				"y": -1.378562823,
				"z": -1.4727936483,
				"element": "O" 
			},
			{
				"x": 0.1776527247,
				"y": -0.3029700789,
				"z": -1.4692496588,
				"element": "C" 
			},
			{
				"x": 1.437750957,
				"y": -0.35788383,
				"z": -2.3195064544,
				"element": "C" 
			},
			{
				"x": 2.0766375106,
				"y": -1.6281081725,
				"z": -2.2113560249,
				"element": "O" 
			},
			{
				"x": 2.3320070104,
				"y": 0.7981873934,
				"z": -1.8186394952,
				"element": "C" 
			},
			{
				"x": 2.1681037091,
				"y": 1.5274160069,
				"z": -0.6973434999,
				"element": "C" 
			},
			{
				"x": 0.9593512253,
				"y": 1.3474148364,
				"z": 0.2036688211,
				"element": "C" 
			},
			{
				"x": 1.0074136684,
				"y": 1.5621248954,
				"z": 1.7353181428,
				"element": "C" 
			},
			{
				"x": -0.462900513,
				"y": 1.4181074687,
				"z": 2.3304862886,
				"element": "C" 
			},
			{
				"x": -1.3622398351,
				"y": 0.3727936343,
				"z": 1.6645104829,
				"element": "C" 
			},
			{
				"x": -2.697688592,
				"y": 0.0535407333,
				"z": 1.9793837738,
				"element": "C" 
			},
			{
				"x": -3.41182518,
				"y": -0.8397090013,
				"z": 1.1765412543,
				"element": "C" 
			},
			{
				"x": -0.8736530863,
				"y": -0.26580391,
				"z": 0.5464102601,
				"element": "C" 
			},
			{
				"x": 0.488953575,
				"y": -0.0801397407,
				"z": 0.0006859589,
				"element": "C" 
			},
			{
				"x": 1.4822209536,
				"y": -1.0803643831,
				"z": 0.6549414303,
				"element": "C" 
			},
			{
				"x": 1.6852588122,
				"y": -0.7539193413,
				"z": 2.1370714376,
				"element": "C" 
			},
			{
				"x": 2.0120553863,
				"y": 0.66310067,
				"z": 2.3174113511,
				"element": "N" 
			},
			{
				"x": 2.3649355965,
				"y": 0.9775320312,
				"z": 3.6917755342,
				"element": "C" 
			},
			{
				"x": -1.5597016545,
				"y": -3.9223055068,
				"z": -0.8746297388,
				"element": "H" 
			},
			{
				"x": -2.2418623275,
				"y": -4.8329785612,
				"z": -2.2262764724,
				"element": "H" 
			},
			{
				"x": -3.085909217,
				"y": -4.8144846044,
				"z": -0.6630907687,
				"element": "H" 
			},
			{
				"x": -4.1941515655,
				"y": -3.2941427828,
				"z": -2.3387756807,
				"element": "H" 
			},
			{
				"x": -2.6849784702,
				"y": -2.3715202173,
				"z": -2.490776165,
				"element": "H" 
			},
			{
				"x": -0.3607396045,
				"y": 0.5925259334,
				"z": -1.8190172516,
				"element": "H" 
			},
			{
				"x": 1.1857794385,
				"y": -0.1688730128,
				"z": -3.3757156575,
				"element": "H" 
			},
			{
				"x": 2.9452380959,
				"y": -1.558121509,
				"z": -2.628849947,
				"element": "H" 
			},
			{
				"x": 3.1887254571,
				"y": 1.0117075719,
				"z": -2.45839741,
				"element": "H" 
			},
			{
				"x": 2.893967277,
				"y": 2.3045353813,
				"z": -0.4628943908,
				"element": "H" 
			},
			{
				"x": 0.1743629248,
				"y": 2.0239644083,
				"z": -0.1719320861,
				"element": "H" 
			},
			{
				"x": 1.3390760165,
				"y": 2.5831686022,
				"z": 1.9611195956,
				"element": "H" 
			},
			{
				"x": -0.3786250339,
				"y": 1.228753653,
				"z": 3.407684982,
				"element": "H" 
			},
			{
				"x": -0.9530831786,
				"y": 2.3979545202,
				"z": 2.2475858009,
				"element": "H" 
			},
			{
				"x": -3.1935887417,
				"y": 0.4992700292,
				"z": 2.8382122419,
				"element": "H" 
			},
			{
				"x": -4.4393655797,
				"y": -1.0886854828,
				"z": 1.4237714119,
				"element": "H" 
			},
			{
				"x": 1.099155756,
				"y": -2.0990302229,
				"z": 0.5445712309,
				"element": "H" 
			},
			{
				"x": 2.4426970652,
				"y": -1.0422346046,
				"z": 0.1429491575,
				"element": "H" 
			},
			{
				"x": 0.7947294902,
				"y": -1.0477364051,
				"z": 2.7232560636,
				"element": "H" 
			},
			{
				"x": 2.522241049,
				"y": -1.3459677536,
				"z": 2.5262429331,
				"element": "H" 
			},
			{
				"x": 1.56244574,
				"y": 0.7789498321,
				"z": 4.4272577681,
				"element": "H" 
			},
			{
				"x": 2.640972927,
				"y": 2.0344157785,
				"z": 3.772693298,
				"element": "H" 
			},
			{
				"x": 3.2331825403,
				"y": 0.3790451772,
				"z": 3.9886653858,
				"element": "H" 
			}
		],
		 "valence_orbital": [ 
			{
				"type": "occ",
				"energy": -0.2674,
				"method": "rhf"
			},
			{
				"type": "occ",
				"energy": -0.2557,
				"method": "rhf"
			},
			{
				"type": "occ",
				"energy": -0.21566,
				"method": "rhf"
			},
			{
				"type": "occ",
				"energy": -0.20412,
				"method": "rhf"
			},
			{
				"type": "occ",
				"energy": -0.19491,
				"method": "rhf"
			},
			{
				"type": "unocc",
				"energy": 0.00031,
				"method": "rhf"
			},
			{
				"type": "unocc",
				"energy": 0.01269,
				"method": "rhf"
			},
			{
				"type": "unocc",
				"energy": 0.02112,
				"method": "rhf"
			},
			{
				"type": "unocc",
				"energy": 0.07048,
				"method": "rhf"
			},
			{
				"type": "unocc",
				"energy": 0.08491,
				"method": "rhf"
			}
		],
		"cosmo_sigma_profile": { 
			"-0.025": 0.0,
			"-0.024": 0.0,
			"-0.023": 0.0,
			"-0.022": 0.0,
			"-0.021": 0.0,
			"-0.02": 0.0,
			"-0.019": 0.0,
			"-0.018": 0.0,
			"-0.017": 0.0,
			"-0.016": 0.509650095931,
			"-0.015": 0.854420054171,
			"-0.014": 1.14761512998,
			"-0.013": 1.22601742071,
			"-0.012": 0.575058581716,
			"-0.011": 1.05239664741,
			"-0.01": 0.616984294219,
			"-0.009": 0.96050321134,
			"-0.008": 1.24663802121,
			"-0.007": 1.44211904062,
			"-0.006": 2.80786530705,
			"-0.005": 15.5536123332,
			"-0.004": 30.2399286927,
			"-0.003": 43.5792239975,
			"-0.002": 36.9861473679,
			"-0.001": 37.9262472001,
			"0.0": 35.8384565706,
			"0.001": 20.776040586,
			"0.002": 15.2687162947,
			"0.003": 14.0682718042,
			"0.004": 14.260113385,
			"0.005": 13.3843864135,
			"0.006": 11.3704255027,
			"0.007": 6.74830923968,
			"0.008": 4.13935875368,
			"0.009": 4.21783712431,
			"0.01": 3.57400825519,
			"0.011": 4.72296827788,
			"0.012": 2.34167048593,
			"0.013": 1.89139806344,
			"0.014": 1.38169283476,
			"0.015": 0.148176637629,
			"0.016": 0.0,
			"0.017": 0.0,
			"0.018": 0.0,
			"0.019": 0.0,
			"0.02": 0.0,
			"0.021": 0.0,
			"0.022": 0.0,
			"0.023": 0.0,
			"0.024": 0.0,
			"0.025": 0.0
		}
	}
}
