{
	 "smiles": "OC(=O)CC1=CC=C(NC(=O)C2=C(I)C=CC=C2)C=C1", 
	 "Tm": 500.15, 
	 "num_atms": 32, 
	 "gaussian": { 
		 "optdone": 1, 
		 "sigma_profile": "yes", 
		 "theory": "DFT", 
		 "functional": "B3LYP", 
		 "basiset": "6-31G**", 
		 "properties": { 
			 "R2extent": 7757.4875, 
			 "electric_dipole_moment_norm": 5.15237723968, 
			 "electric_quadrupole_moment_norm": 16.2204999846, 
			 "total_energy": -870.661342428, 
			 "HOMO_LUMO_gap": 0.18786, 
			 "cosmo_polarized_energy": -20.86, 
			 "cosmo_cavitation_energy": 40.61, 
			 "cosmo_dispersion_energy": -28.78, 
			 "cosmo_repulsion_energy": 2.23, 
			 "cosmo_total_nonelectrostatic_energy": 14.06, 
			 "SMD_solvation_energy": 7.56 
		},
		"coords": [
			{
				"x": -4.983377205,
				"y": 1.2980037366,
				"z": -3.7745881529,
				"element": "O" 
			},
			{
				"x": -3.8141531916,
				"y": 0.9957093614,
				"z": -3.1593966821,
				"element": "C" 
			},
			{
				"x": -3.4147909947,
				"y": 1.5948623836,
				"z": -2.1872405439,
				"element": "O" 
			},
			{
				"x": -3.0952874253,
				"y": -0.1312542113,
				"z": -3.8867425794,
				"element": "C" 
			},
			{
				"x": -2.1440934361,
				"y": -0.9274412004,
				"z": -3.0238925401,
				"element": "C" 
			},
			{
				"x": -2.3472822338,
				"y": -2.2962432321,
				"z": -2.8212447056,
				"element": "C" 
			},
			{
				"x": -1.4749342759,
				"y": -3.0444510711,
				"z": -2.0334035779,
				"element": "C" 
			},
			{
				"x": -0.3616162729,
				"y": -2.4373744746,
				"z": -1.438799699,
				"element": "C" 
			},
			{
				"x": 0.5205765513,
				"y": -3.247790403,
				"z": -0.6838752115,
				"element": "N" 
			},
			{
				"x": 1.323041999,
				"y": -2.9673771857,
				"z": 0.4045064595,
				"element": "C" 
			},
			{
				"x": 2.1665393775,
				"y": -3.7717848845,
				"z": 0.7725360015,
				"element": "O" 
			},
			{
				"x": 1.0489223501,
				"y": -1.705267808,
				"z": 1.1817898952,
				"element": "C" 
			},
			{
				"x": 2.0413410061,
				"y": -0.7622938865,
				"z": 1.4872353457,
				"element": "C" 
			},
			{
				"x": 3.9945833866,
				"y": -0.8764020538,
				"z": 0.660007939,
				"element": "I" 
			},
			{
				"x": 1.7582712768,
				"y": 0.3282397802,
				"z": 2.3133783258,
				"element": "C" 
			},
			{
				"x": 0.4832697526,
				"y": 0.4748008255,
				"z": 2.8609276206,
				"element": "C" 
			},
			{
				"x": -0.5138871295,
				"y": -0.4565779743,
				"z": 2.5723625151,
				"element": "C" 
			},
			{
				"x": -0.2299864727,
				"y": -1.5311865539,
				"z": 1.7341122687,
				"element": "C" 
			},
			{
				"x": -0.1351724044,
				"y": -1.0704954809,
				"z": -1.6561671894,
				"element": "C" 
			},
			{
				"x": -1.0263848345,
				"y": -0.329396925,
				"z": -2.426591809,
				"element": "C" 
			},
			{
				"x": -5.3592918956,
				"y": 2.0498162129,
				"z": -3.2857722722,
				"element": "H" 
			},
			{
				"x": -3.844914523,
				"y": -0.7775368854,
				"z": -4.350693828,
				"element": "H" 
			},
			{
				"x": -2.5566199122,
				"y": 0.3487155096,
				"z": -4.7166321416,
				"element": "H" 
			},
			{
				"x": -3.2034355144,
				"y": -2.7873766559,
				"z": -3.2767448505,
				"element": "H" 
			},
			{
				"x": -1.6585712411,
				"y": -4.1032257409,
				"z": -1.8716687555,
				"element": "H" 
			},
			{
				"x": 0.6751616996,
				"y": -4.189549703,
				"z": -1.024525517,
				"element": "H" 
			},
			{
				"x": 2.5302968646,
				"y": 1.0581604044,
				"z": 2.5289633858,
				"element": "H" 
			},
			{
				"x": 0.2747561228,
				"y": 1.3212705172,
				"z": 3.5084591417,
				"element": "H" 
			},
			{
				"x": -1.5083010794,
				"y": -0.3456239403,
				"z": 2.9931348034,
				"element": "H" 
			},
			{
				"x": -1.0024503238,
				"y": -2.2575409965,
				"z": 1.5012130988,
				"element": "H" 
			},
			{
				"x": 0.740200355,
				"y": -0.5909652328,
				"z": -1.234792534,
				"element": "H" 
			},
			{
				"x": -0.8449103759,
				"y": 0.7304777685,
				"z": -2.5705542112,
				"element": "H" 
			}
		],
		 "valence_orbital": [ 
			{
				"type": "occ",
				"energy": -0.26135,
				"method": "rhf"
			},
			{
				"type": "occ",
				"energy": -0.25717,
				"method": "rhf"
			},
			{
				"type": "occ",
				"energy": -0.25178,
				"method": "rhf"
			},
			{
				"type": "occ",
				"energy": -0.23854,
				"method": "rhf"
			},
			{
				"type": "occ",
				"energy": -0.2267,
				"method": "rhf"
			},
			{
				"type": "unocc",
				"energy": -0.03884,
				"method": "rhf"
			},
			{
				"type": "unocc",
				"energy": -0.03548,
				"method": "rhf"
			},
			{
				"type": "unocc",
				"energy": -0.0211,
				"method": "rhf"
			},
			{
				"type": "unocc",
				"energy": -0.01216,
				"method": "rhf"
			},
			{
				"type": "unocc",
				"energy": -0.01041,
				"method": "rhf"
			}
		],
		"cosmo_sigma_profile": { 
			"-0.025": 0.0,
			"-0.024": 0.0,
			"-0.023": 0.0,
			"-0.022": 0.0,
			"-0.021": 0.0,
			"-0.02": 0.0,
			"-0.019": 0.0,
			"-0.018": 0.562614180611,
			"-0.017": 1.03100613072,
			"-0.016": 1.03979583647,
			"-0.015": 0.896627514948,
			"-0.014": 1.4674760685,
			"-0.013": 2.17406836168,
			"-0.012": 1.84456151399,
			"-0.011": 1.42689488613,
			"-0.01": 1.99240296696,
			"-0.009": 1.89997684938,
			"-0.008": 2.27572731577,
			"-0.007": 14.1124857227,
			"-0.006": 21.1369899348,
			"-0.005": 23.7976614182,
			"-0.004": 22.9723231818,
			"-0.003": 20.9882987121,
			"-0.002": 19.8708047735,
			"-0.001": 17.1017621902,
			"0.0": 18.890662961,
			"0.001": 20.5516027809,
			"0.002": 23.8661506708,
			"0.003": 27.2316753915,
			"0.004": 22.1772443296,
			"0.005": 14.727736246,
			"0.006": 5.00493081716,
			"0.007": 5.49064229537,
			"0.008": 5.00753107155,
			"0.009": 5.26648832424,
			"0.01": 5.09333763525,
			"0.011": 5.90918015752,
			"0.012": 6.71780407546,
			"0.013": 5.05835408602,
			"0.014": 1.59489961786,
			"0.015": 0.00506311229717,
			"0.016": 0.0,
			"0.017": 0.0,
			"0.018": 0.0,
			"0.019": 0.0,
			"0.02": 0.0,
			"0.021": 0.0,
			"0.022": 0.0,
			"0.023": 0.0,
			"0.024": 0.0,
			"0.025": 0.0
		}
	}
}
