{
	 "smiles": "CC(C)N1N=CC2=C1C=CC(=C2)S(Cl)(=O)=O", 
	 "Tm": 362.15, 
	 "num_atms": 27, 
	 "gaussian": { 
		 "optdone": 1, 
		 "sigma_profile": "yes", 
		 "theory": "DFT", 
		 "functional": "B3LYP", 
		 "basiset": "6-31G**", 
		 "properties": { 
			 "R2extent": 7637.5825, 
			 "electric_dipole_moment_norm": 6.68296453604, 
			 "electric_quadrupole_moment_norm": 32.2789392214, 
			 "total_energy": -1505.95440235, 
			 "HOMO_LUMO_gap": 0.16233, 
			 "cosmo_polarized_energy": -12.16, 
			 "cosmo_cavitation_energy": 33.9, 
			 "cosmo_dispersion_energy": -24.71, 
			 "cosmo_repulsion_energy": 1.88, 
			 "cosmo_total_nonelectrostatic_energy": 11.06, 
			 "SMD_solvation_energy": 3.63 
		},
		"coords": [
			{
				"x": -2.2579572879,
				"y": 0.9197894943,
				"z": 2.5943387348,
				"element": "C" 
			},
			{
				"x": -2.1303303757,
				"y": 0.2899033811,
				"z": 1.2014655683,
				"element": "C" 
			},
			{
				"x": -2.3189867314,
				"y": -1.2323717917,
				"z": 1.2055104164,
				"element": "C" 
			},
			{
				"x": -0.8682921028,
				"y": 0.6759378127,
				"z": 0.5481048737,
				"element": "N" 
			},
			{
				"x": -0.9352403282,
				"y": 1.4227438849,
				"z": -0.5937480532,
				"element": "N" 
			},
			{
				"x": 0.3040725733,
				"y": 1.6426396912,
				"z": -0.9852492968,
				"element": "C" 
			},
			{
				"x": 1.2382572089,
				"y": 1.0331714069,
				"z": -0.0962907888,
				"element": "C" 
			},
			{
				"x": 0.426664528,
				"y": 0.4107381686,
				"z": 0.8957291562,
				"element": "C" 
			},
			{
				"x": 0.9952193703,
				"y": -0.3027208404,
				"z": 1.9720838219,
				"element": "C" 
			},
			{
				"x": 2.373054225,
				"y": -0.3822349828,
				"z": 2.0347791924,
				"element": "C" 
			},
			{
				"x": 3.1671919267,
				"y": 0.2398932399,
				"z": 1.0418362931,
				"element": "C" 
			},
			{
				"x": 2.6346826418,
				"y": 0.9450976868,
				"z": -0.0266670201,
				"element": "C" 
			},
			{
				"x": 4.9358362206,
				"y": 0.1174626062,
				"z": 1.1746786766,
				"element": "S" 
			},
			{
				"x": 5.3152302196,
				"y": -1.7672927937,
				"z": 0.2277745769,
				"element": "Cl" 
			},
			{
				"x": 5.5623134974,
				"y": 1.1234519602,
				"z": 0.3252073705,
				"element": "O" 
			},
			{
				"x": 5.309749365,
				"y": -0.0630378355,
				"z": 2.5725868061,
				"element": "O" 
			},
			{
				"x": -2.1338151142,
				"y": 2.0047640018,
				"z": 2.5414684807,
				"element": "H" 
			},
			{
				"x": -1.5166354922,
				"y": 0.5233661819,
				"z": 3.2945193911,
				"element": "H" 
			},
			{
				"x": -3.2496230799,
				"y": 0.707083013,
				"z": 3.0048090034,
				"element": "H" 
			},
			{
				"x": -2.8860543715,
				"y": 0.7329248896,
				"z": 0.5482197371,
				"element": "H" 
			},
			{
				"x": -3.3118906798,
				"y": -1.4788116017,
				"z": 1.5934919367,
				"element": "H" 
			},
			{
				"x": -2.2364046737,
				"y": -1.6355986736,
				"z": 0.1926184851,
				"element": "H" 
			},
			{
				"x": -1.5812520509,
				"y": -1.7366847296,
				"z": 1.836655984,
				"element": "H" 
			},
			{
				"x": 0.4973581171,
				"y": 2.2195010808,
				"z": -1.8794486996,
				"element": "H" 
			},
			{
				"x": 0.3874366047,
				"y": -0.7728875556,
				"z": 2.7352868284,
				"element": "H" 
			},
			{
				"x": 2.8578974157,
				"y": -0.9088620123,
				"z": 2.8487039802,
				"element": "H" 
			},
			{
				"x": 3.2802183743,
				"y": 1.409934317,
				"z": -0.7634654552,
				"element": "H" 
			}
		],
		 "valence_orbital": [ 
			{
				"type": "occ",
				"energy": -0.31378,
				"method": "rhf"
			},
			{
				"type": "occ",
				"energy": -0.31121,
				"method": "rhf"
			},
			{
				"type": "occ",
				"energy": -0.30722,
				"method": "rhf"
			},
			{
				"type": "occ",
				"energy": -0.27184,
				"method": "rhf"
			},
			{
				"type": "occ",
				"energy": -0.24647,
				"method": "rhf"
			},
			{
				"type": "unocc",
				"energy": -0.08414,
				"method": "rhf"
			},
			{
				"type": "unocc",
				"energy": -0.05672,
				"method": "rhf"
			},
			{
				"type": "unocc",
				"energy": -0.02463,
				"method": "rhf"
			},
			{
				"type": "unocc",
				"energy": 0.03113,
				"method": "rhf"
			},
			{
				"type": "unocc",
				"energy": 0.05354,
				"method": "rhf"
			}
		],
		"cosmo_sigma_profile": { 
			"-0.025": 0.0,
			"-0.024": 0.0,
			"-0.023": 0.0,
			"-0.022": 0.0,
			"-0.021": 0.0,
			"-0.02": 0.0,
			"-0.019": 0.0,
			"-0.018": 0.0,
			"-0.017": 0.0,
			"-0.016": 0.0,
			"-0.015": 0.0,
			"-0.014": 0.0,
			"-0.013": 0.0,
			"-0.012": 0.0,
			"-0.011": 0.00295170848076,
			"-0.01": 0.137022864007,
			"-0.009": 1.86086148494,
			"-0.008": 8.52512191364,
			"-0.007": 7.80305468853,
			"-0.006": 9.46976054934,
			"-0.005": 12.4418959909,
			"-0.004": 20.3936735402,
			"-0.003": 18.2509199708,
			"-0.002": 23.0674471581,
			"-0.001": 28.7857795257,
			"0.0": 33.2484975866,
			"0.001": 23.4663869603,
			"0.002": 15.6946516905,
			"0.003": 15.3297625323,
			"0.004": 14.6397242534,
			"0.005": 5.08327507375,
			"0.006": 6.09499206041,
			"0.007": 6.80856935699,
			"0.008": 10.1918327596,
			"0.009": 6.81320317635,
			"0.01": 1.42172673089,
			"0.011": 1.26826858895,
			"0.012": 0.95108289961,
			"0.013": 0.730561558104,
			"0.014": 0.590099906488,
			"0.015": 0.0105898900718,
			"0.016": 0.0,
			"0.017": 0.0,
			"0.018": 0.0,
			"0.019": 0.0,
			"0.02": 0.0,
			"0.021": 0.0,
			"0.022": 0.0,
			"0.023": 0.0,
			"0.024": 0.0,
			"0.025": 0.0
		}
	}
}
