{
	 "smiles": "BrC1=CC2=C(NC(=O)C22CCCC2)C=C1", 
	 "Tm": 475.15, 
	 "num_atms": 27, 
	 "gaussian": { 
		 "optdone": 1, 
		 "sigma_profile": "yes", 
		 "theory": "DFT", 
		 "functional": "B3LYP", 
		 "basiset": "6-31G**", 
		 "properties": { 
			 "R2extent": 5715.6919, 
			 "electric_dipole_moment_norm": 1.01517499477, 
			 "electric_quadrupole_moment_norm": 18.5411936024, 
			 "total_energy": -3165.91879121, 
			 "HOMO_LUMO_gap": 0.19401, 
			 "cosmo_polarized_energy": -11.22, 
			 "cosmo_cavitation_energy": 31.45, 
			 "cosmo_dispersion_energy": -23.23, 
			 "cosmo_repulsion_energy": 1.82, 
			 "cosmo_total_nonelectrostatic_energy": 10.04, 
			 "SMD_solvation_energy": 3.86 
		},
		"coords": [
			{
				"x": 4.4259663041,
				"y": 1.0329962499,
				"z": 1.6973132149,
				"element": "Br" 
			},
			{
				"x": 3.1319590643,
				"y": -0.2097793167,
				"z": 1.0299822371,
				"element": "C" 
			},
			{
				"x": 1.8473195757,
				"y": 0.2497877021,
				"z": 0.7128220238,
				"element": "C" 
			},
			{
				"x": 0.9206036987,
				"y": -0.6611592492,
				"z": 0.2281880834,
				"element": "C" 
			},
			{
				"x": 1.2841836788,
				"y": -2.0101511083,
				"z": 0.0687013591,
				"element": "C" 
			},
			{
				"x": 0.1875965369,
				"y": -2.7192170703,
				"z": -0.4323208303,
				"element": "N" 
			},
			{
				"x": -0.9119779645,
				"y": -1.9027847991,
				"z": -0.642825006,
				"element": "C" 
			},
			{
				"x": -1.9809806034,
				"y": -2.2643650685,
				"z": -1.098696271,
				"element": "O" 
			},
			{
				"x": -0.5230099939,
				"y": -0.4775483058,
				"z": -0.1872519757,
				"element": "C" 
			},
			{
				"x": -1.4733396789,
				"y": -0.0231627112,
				"z": 0.9730029656,
				"element": "C" 
			},
			{
				"x": -2.5784589627,
				"y": 0.7828730412,
				"z": 0.2784516048,
				"element": "C" 
			},
			{
				"x": -1.8022011338,
				"y": 1.5789365906,
				"z": -0.7792820326,
				"element": "C" 
			},
			{
				"x": -0.7893330195,
				"y": 0.5579323857,
				"z": -1.3404725255,
				"element": "C" 
			},
			{
				"x": 2.5568646403,
				"y": -2.4704054584,
				"z": 0.3841945841,
				"element": "C" 
			},
			{
				"x": 3.4899533696,
				"y": -1.5467642775,
				"z": 0.8722631686,
				"element": "C" 
			},
			{
				"x": 1.5941058257,
				"y": 1.2962673302,
				"z": 0.8458465982,
				"element": "H" 
			},
			{
				"x": 0.1748423853,
				"y": -3.7027118916,
				"z": -0.6593802674,
				"element": "H" 
			},
			{
				"x": -0.9067733382,
				"y": 0.622002936,
				"z": 1.6546156534,
				"element": "H" 
			},
			{
				"x": -1.8461244341,
				"y": -0.8691767194,
				"z": 1.5576236533,
				"element": "H" 
			},
			{
				"x": -3.1410882475,
				"y": 1.4138577101,
				"z": 0.9740146849,
				"element": "H" 
			},
			{
				"x": -3.2812421562,
				"y": 0.0976344808,
				"z": -0.20750013,
				"element": "H" 
			},
			{
				"x": -1.2754984111,
				"y": 2.4151379822,
				"z": -0.3018449109,
				"element": "H" 
			},
			{
				"x": -2.4407842181,
				"y": 2.0012293201,
				"z": -1.5611009074,
				"element": "H" 
			},
			{
				"x": -1.2281621529,
				"y": 0.0302828395,
				"z": -2.192531169,
				"element": "H" 
			},
			{
				"x": 0.1406453204,
				"y": 1.0213134229,
				"z": -1.6800479465,
				"element": "H" 
			},
			{
				"x": 2.8319593149,
				"y": -3.5130883035,
				"z": 0.2589760056,
				"element": "H" 
			},
			{
				"x": 4.4919746004,
				"y": -1.8717377118,
				"z": 1.1272581355,
				"element": "H" 
			}
		],
		 "valence_orbital": [ 
			{
				"type": "occ",
				"energy": -0.28707,
				"method": "rhf"
			},
			{
				"type": "occ",
				"energy": -0.28618,
				"method": "rhf"
			},
			{
				"type": "occ",
				"energy": -0.26269,
				"method": "rhf"
			},
			{
				"type": "occ",
				"energy": -0.25779,
				"method": "rhf"
			},
			{
				"type": "occ",
				"energy": -0.21873,
				"method": "rhf"
			},
			{
				"type": "unocc",
				"energy": -0.02472,
				"method": "rhf"
			},
			{
				"type": "unocc",
				"energy": -0.01583,
				"method": "rhf"
			},
			{
				"type": "unocc",
				"energy": 0.00657,
				"method": "rhf"
			},
			{
				"type": "unocc",
				"energy": 0.02922,
				"method": "rhf"
			},
			{
				"type": "unocc",
				"energy": 0.08013,
				"method": "rhf"
			}
		],
		"cosmo_sigma_profile": { 
			"-0.025": 0.0,
			"-0.024": 0.0,
			"-0.023": 0.0,
			"-0.022": 0.0,
			"-0.021": 0.0,
			"-0.02": 0.0,
			"-0.019": 0.0,
			"-0.018": 0.0,
			"-0.017": 0.0,
			"-0.016": 0.681410952358,
			"-0.015": 1.33821874628,
			"-0.014": 1.28423435723,
			"-0.013": 0.984324377011,
			"-0.012": 1.1928684553,
			"-0.011": 0.990136744768,
			"-0.01": 1.08540827676,
			"-0.009": 1.25228232742,
			"-0.008": 1.87784452105,
			"-0.007": 4.88861838532,
			"-0.006": 6.83794903321,
			"-0.005": 7.63967421538,
			"-0.004": 13.5851576686,
			"-0.003": 22.3106613586,
			"-0.002": 26.3009166164,
			"-0.001": 27.4837370374,
			"0.0": 27.7493534158,
			"0.001": 21.428085175,
			"0.002": 15.5769795385,
			"0.003": 19.0431501874,
			"0.004": 18.0024490398,
			"0.005": 11.1461965092,
			"0.006": 2.4403199867,
			"0.007": 1.98855193457,
			"0.008": 1.54452273276,
			"0.009": 0.730957639208,
			"0.01": 1.62533436959,
			"0.011": 2.32097615388,
			"0.012": 2.89424410117,
			"0.013": 4.82321884899,
			"0.014": 0.930022057133,
			"0.015": 0.0,
			"0.016": 0.0,
			"0.017": 0.0,
			"0.018": 0.0,
			"0.019": 0.0,
			"0.02": 0.0,
			"0.021": 0.0,
			"0.022": 0.0,
			"0.023": 0.0,
			"0.024": 0.0,
			"0.025": 0.0
		}
	}
}
