{
	 "smiles": "OC1=C(C2=CC=CC=C2C=C1)C1=C(O)C=CC2=C1C=CC=C2", 
	 "Tm": 489.15, 
	 "num_atms": 36, 
	 "gaussian": { 
		 "optdone": 1, 
		 "sigma_profile": "yes", 
		 "theory": "DFT", 
		 "functional": "B3LYP", 
		 "basiset": "6-31G**", 
		 "properties": { 
			 "R2extent": 6286.2424, 
			 "electric_dipole_moment_norm": 0.920873264896, 
			 "electric_quadrupole_moment_norm": 13.4967417246, 
			 "total_energy": -921.0397444, 
			 "HOMO_LUMO_gap": 0.16636, 
			 "cosmo_polarized_energy": -10.84, 
			 "cosmo_cavitation_energy": 39.2, 
			 "cosmo_dispersion_energy": -27.28, 
			 "cosmo_repulsion_energy": 2.04, 
			 "cosmo_total_nonelectrostatic_energy": 13.96, 
			 "SMD_solvation_energy": 6.58 
		},
		"coords": [
			{
				"x": -2.2214519856,
				"y": -1.7096648744,
				"z": -1.9807548908,
				"element": "O" 
			},
			{
				"x": -1.447178777,
				"y": -0.6390789074,
				"z": -2.2985022609,
				"element": "C" 
			},
			{
				"x": -0.9821162382,
				"y": 0.2580396782,
				"z": -1.3403399523,
				"element": "C" 
			},
			{
				"x": -0.1617709601,
				"y": 1.360060537,
				"z": -1.7586536075,
				"element": "C" 
			},
			{
				"x": 0.3585339104,
				"y": 2.3119641781,
				"z": -0.8391212358,
				"element": "C" 
			},
			{
				"x": 1.1394709813,
				"y": 3.3618707691,
				"z": -1.2721993437,
				"element": "C" 
			},
			{
				"x": 1.4429396951,
				"y": 3.5196030403,
				"z": -2.6448055946,
				"element": "C" 
			},
			{
				"x": 0.9563356903,
				"y": 2.6136462003,
				"z": -3.5607140022,
				"element": "C" 
			},
			{
				"x": 0.1502716867,
				"y": 1.5201620332,
				"z": -3.1495547871,
				"element": "C" 
			},
			{
				"x": -0.3579800904,
				"y": 0.5732383361,
				"z": -4.0812571255,
				"element": "C" 
			},
			{
				"x": -1.135458815,
				"y": -0.4800322457,
				"z": -3.6736374811,
				"element": "C" 
			},
			{
				"x": -1.3528224524,
				"y": 0.0427373066,
				"z": 0.0952592486,
				"element": "C" 
			},
			{
				"x": -2.4796452745,
				"y": 0.683510977,
				"z": 0.604020368,
				"element": "C" 
			},
			{
				"x": -3.2555862791,
				"y": 1.5044901651,
				"z": -0.1513108478,
				"element": "O" 
			},
			{
				"x": -2.8834290963,
				"y": 0.5095393409,
				"z": 1.953154403,
				"element": "C" 
			},
			{
				"x": -2.1558995742,
				"y": -0.301440423,
				"z": 2.7856322729,
				"element": "C" 
			},
			{
				"x": -0.9931626188,
				"y": -0.9793224185,
				"z": 2.3256640553,
				"element": "C" 
			},
			{
				"x": -0.5819613954,
				"y": -0.8032460093,
				"z": 0.9627545194,
				"element": "C" 
			},
			{
				"x": 0.5856576617,
				"y": -1.4834749255,
				"z": 0.5196838251,
				"element": "C" 
			},
			{
				"x": 1.3020302471,
				"y": -2.2923325735,
				"z": 1.3754175868,
				"element": "C" 
			},
			{
				"x": 0.8926006921,
				"y": -2.467080358,
				"z": 2.7181193106,
				"element": "C" 
			},
			{
				"x": -0.2325855942,
				"y": -1.8206066402,
				"z": 3.1790494843,
				"element": "C" 
			},
			{
				"x": -2.3454383318,
				"y": -1.7169340824,
				"z": -1.0178647703,
				"element": "H" 
			},
			{
				"x": 0.1347555828,
				"y": 2.1969931316,
				"z": 0.2163535811,
				"element": "H" 
			},
			{
				"x": 1.5275438095,
				"y": 4.0759216867,
				"z": -0.5512999147,
				"element": "H" 
			},
			{
				"x": 2.0588532416,
				"y": 4.352274918,
				"z": -2.9711166422,
				"element": "H" 
			},
			{
				"x": 1.183755553,
				"y": 2.7222604785,
				"z": -4.6183226245,
				"element": "H" 
			},
			{
				"x": -0.1196055175,
				"y": 0.6963472756,
				"z": -5.134536323,
				"element": "H" 
			},
			{
				"x": -1.5269979312,
				"y": -1.2088253307,
				"z": -4.3753990145,
				"element": "H" 
			},
			{
				"x": -2.8664729913,
				"y": 1.5543559071,
				"z": -1.0393902411,
				"element": "H" 
			},
			{
				"x": -3.7708526437,
				"y": 1.0323301107,
				"z": 2.2938623731,
				"element": "H" 
			},
			{
				"x": -2.465139368,
				"y": -0.4360053675,
				"z": 3.8188978717,
				"element": "H" 
			},
			{
				"x": 0.9100059298,
				"y": -1.3523671362,
				"z": -0.5074159064,
				"element": "H" 
			},
			{
				"x": 2.1920193425,
				"y": -2.800651057,
				"z": 1.0152846509,
				"element": "H" 
			},
			{
				"x": 1.4667273873,
				"y": -3.1081449951,
				"z": 3.3803765557,
				"element": "H" 
			},
			{
				"x": -0.5570454763,
				"y": -1.9448387257,
				"z": 4.2092664591,
				"element": "H" 
			}
		],
		 "valence_orbital": [ 
			{
				"type": "occ",
				"energy": -0.27965,
				"method": "rhf"
			},
			{
				"type": "occ",
				"energy": -0.23509,
				"method": "rhf"
			},
			{
				"type": "occ",
				"energy": -0.23443,
				"method": "rhf"
			},
			{
				"type": "occ",
				"energy": -0.21245,
				"method": "rhf"
			},
			{
				"type": "occ",
				"energy": -0.20893,
				"method": "rhf"
			},
			{
				"type": "unocc",
				"energy": -0.04257,
				"method": "rhf"
			},
			{
				"type": "unocc",
				"energy": -0.04009,
				"method": "rhf"
			},
			{
				"type": "unocc",
				"energy": -0.00818,
				"method": "rhf"
			},
			{
				"type": "unocc",
				"energy": -0.00292,
				"method": "rhf"
			},
			{
				"type": "unocc",
				"energy": 0.02488,
				"method": "rhf"
			}
		],
		"cosmo_sigma_profile": { 
			"-0.025": 0.0,
			"-0.024": 0.0,
			"-0.023": 0.0,
			"-0.022": 0.0,
			"-0.021": 0.0,
			"-0.02": 0.0,
			"-0.019": 0.0,
			"-0.018": 0.0,
			"-0.017": 0.0,
			"-0.016": 0.0,
			"-0.015": 0.0695265002663,
			"-0.014": 1.04646410526,
			"-0.013": 0.759134746756,
			"-0.012": 0.661277829842,
			"-0.011": 1.25678788933,
			"-0.01": 2.17294388278,
			"-0.009": 2.06026189472,
			"-0.008": 1.6190634573,
			"-0.007": 3.63297265802,
			"-0.006": 18.2103352758,
			"-0.005": 23.88399525,
			"-0.004": 24.7462374058,
			"-0.003": 24.6252435518,
			"-0.002": 19.779758922,
			"-0.001": 19.5341397308,
			"0.0": 17.9549503333,
			"0.001": 22.6068144717,
			"0.002": 25.3012885618,
			"0.003": 27.5841608899,
			"0.004": 30.6828663967,
			"0.005": 22.8852477283,
			"0.006": 7.96907866487,
			"0.007": 3.24882579867,
			"0.008": 3.06986136545,
			"0.009": 2.62363538938,
			"0.01": 3.27732357431,
			"0.011": 3.41446297859,
			"0.012": 0.0269422466968,
			"0.013": 0.0,
			"0.014": 0.0,
			"0.015": 0.0,
			"0.016": 0.0,
			"0.017": 0.0,
			"0.018": 0.0,
			"0.019": 0.0,
			"0.02": 0.0,
			"0.021": 0.0,
			"0.022": 0.0,
			"0.023": 0.0,
			"0.024": 0.0,
			"0.025": 0.0
		}
	}
}
