{
	 "smiles": "CO[C@H]1O[C@@H]2CO[C@H](O[C@H]2[C@H](O)[C@H]1O)C1=CC=CC=C1", 
	 "Tm": 438.15, 
	 "num_atms": 38, 
	 "gaussian": { 
		 "optdone": 1, 
		 "sigma_profile": "yes", 
		 "theory": "DFT", 
		 "functional": "B3LYP", 
		 "basiset": "6-31G**", 
		 "properties": { 
			 "R2extent": 6867.7895, 
			 "electric_dipole_moment_norm": 1.3818848939, 
			 "electric_quadrupole_moment_norm": 11.2095808374, 
			 "total_energy": -995.617755315, 
			 "HOMO_LUMO_gap": 0.23935, 
			 "cosmo_polarized_energy": -13.49, 
			 "cosmo_cavitation_energy": 39.03, 
			 "cosmo_dispersion_energy": -28.03, 
			 "cosmo_repulsion_energy": 2.16, 
			 "cosmo_total_nonelectrostatic_energy": 13.16, 
			 "SMD_solvation_energy": 6.55 
		},
		"coords": [
			{
				"x": 1.806323503,
				"y": 1.2829739582,
				"z": 4.2521186357,
				"element": "C" 
			},
			{
				"x": 1.9357634445,
				"y": 0.0851268779,
				"z": 3.4949270467,
				"element": "O" 
			},
			{
				"x": 0.754007292,
				"y": -0.3357353225,
				"z": 2.8595050895,
				"element": "C" 
			},
			{
				"x": 0.3074049141,
				"y": 0.6716477998,
				"z": 1.9546319414,
				"element": "O" 
			},
			{
				"x": 0.0437624309,
				"y": 0.2309570747,
				"z": 0.6182173621,
				"element": "C" 
			},
			{
				"x": -0.7686988035,
				"y": 1.2903094472,
				"z": -0.1453406247,
				"element": "C" 
			},
			{
				"x": -2.1233644326,
				"y": 0.857954873,
				"z": -0.3127224995,
				"element": "O" 
			},
			{
				"x": -2.2399293404,
				"y": -0.3459464445,
				"z": -1.0487266961,
				"element": "C" 
			},
			{
				"x": -1.3367629763,
				"y": -1.350185783,
				"z": -0.5793339228,
				"element": "O" 
			},
			{
				"x": -0.7997548999,
				"y": -1.0398781131,
				"z": 0.7036133033,
				"element": "C" 
			},
			{
				"x": 0.0361983369,
				"y": -2.2032291653,
				"z": 1.2245015532,
				"element": "C" 
			},
			{
				"x": -0.7558956333,
				"y": -3.1642855976,
				"z": 1.9096568656,
				"element": "O" 
			},
			{
				"x": 1.1139442557,
				"y": -1.6823779148,
				"z": 2.1975463027,
				"element": "C" 
			},
			{
				"x": 2.3165672917,
				"y": -1.5415628543,
				"z": 1.4566884323,
				"element": "O" 
			},
			{
				"x": -2.0355782689,
				"y": -0.1432224697,
				"z": -2.544660744,
				"element": "C" 
			},
			{
				"x": -2.7177000402,
				"y": 0.9060482681,
				"z": -3.1751652062,
				"element": "C" 
			},
			{
				"x": -2.5850424086,
				"y": 1.1095854598,
				"z": -4.5477187069,
				"element": "C" 
			},
			{
				"x": -1.7712945855,
				"y": 0.2630187961,
				"z": -5.3055180586,
				"element": "C" 
			},
			{
				"x": -1.0911800157,
				"y": -0.7833130967,
				"z": -4.681867341,
				"element": "C" 
			},
			{
				"x": -1.2213872422,
				"y": -0.986908157,
				"z": -3.3058425869,
				"element": "C" 
			},
			{
				"x": 1.5475682865,
				"y": 2.1317826048,
				"z": 3.6114911925,
				"element": "H" 
			},
			{
				"x": 1.0385677479,
				"y": 1.1736979918,
				"z": 5.0313087073,
				"element": "H" 
			},
			{
				"x": 2.7735900674,
				"y": 1.4606177619,
				"z": 4.726278047,
				"element": "H" 
			},
			{
				"x": -0.0377019849,
				"y": -0.4785266302,
				"z": 3.612993533,
				"element": "H" 
			},
			{
				"x": 0.9880127068,
				"y": 0.0215553964,
				"z": 0.1016275458,
				"element": "H" 
			},
			{
				"x": -0.3137984551,
				"y": 1.4968131966,
				"z": -1.1219144345,
				"element": "H" 
			},
			{
				"x": -0.8136141952,
				"y": 2.2158316404,
				"z": 0.4319306984,
				"element": "H" 
			},
			{
				"x": -3.2712669951,
				"y": -0.6725589608,
				"z": -0.8489712151,
				"element": "H" 
			},
			{
				"x": -1.6095637722,
				"y": -0.8517706241,
				"z": 1.4226455325,
				"element": "H" 
			},
			{
				"x": 0.5772845235,
				"y": -2.6563710928,
				"z": 0.3822107651,
				"element": "H" 
			},
			{
				"x": -1.4231274369,
				"y": -3.478960684,
				"z": 1.2851734925,
				"element": "H" 
			},
			{
				"x": 1.2239290458,
				"y": -2.4238398176,
				"z": 3.0017577179,
				"element": "H" 
			},
			{
				"x": 2.8888868217,
				"y": -0.9720735028,
				"z": 1.9943755184,
				"element": "H" 
			},
			{
				"x": -3.3415529437,
				"y": 1.5674501241,
				"z": -2.5808703435,
				"element": "H" 
			},
			{
				"x": -3.1146880832,
				"y": 1.9285103165,
				"z": -5.0263748042,
				"element": "H" 
			},
			{
				"x": -1.6685946996,
				"y": 0.419909061,
				"z": -6.3755722768,
				"element": "H" 
			},
			{
				"x": -0.4545806338,
				"y": -1.4427811293,
				"z": -5.2651636103,
				"element": "H" 
			},
			{
				"x": -0.6918328216,
				"y": -1.7950632883,
				"z": -2.8149362118,
				"element": "H" 
			}
		],
		 "valence_orbital": [ 
			{
				"type": "occ",
				"energy": -0.27212,
				"method": "rhf"
			},
			{
				"type": "occ",
				"energy": -0.25657,
				"method": "rhf"
			},
			{
				"type": "occ",
				"energy": -0.25168,
				"method": "rhf"
			},
			{
				"type": "occ",
				"energy": -0.24919,
				"method": "rhf"
			},
			{
				"type": "occ",
				"energy": -0.24733,
				"method": "rhf"
			},
			{
				"type": "unocc",
				"energy": -0.00798,
				"method": "rhf"
			},
			{
				"type": "unocc",
				"energy": -0.00047,
				"method": "rhf"
			},
			{
				"type": "unocc",
				"energy": 0.06872,
				"method": "rhf"
			},
			{
				"type": "unocc",
				"energy": 0.09063,
				"method": "rhf"
			},
			{
				"type": "unocc",
				"energy": 0.09855,
				"method": "rhf"
			}
		],
		"cosmo_sigma_profile": { 
			"-0.025": 0.0,
			"-0.024": 0.0,
			"-0.023": 0.0,
			"-0.022": 0.0,
			"-0.021": 0.0,
			"-0.02": 0.0,
			"-0.019": 0.0,
			"-0.018": 0.0,
			"-0.017": 0.0,
			"-0.016": 0.0428397261188,
			"-0.015": 0.914912504657,
			"-0.014": 0.587028229339,
			"-0.013": 0.859176071159,
			"-0.012": 1.36194896391,
			"-0.011": 1.00722661006,
			"-0.01": 0.796444294016,
			"-0.009": 0.98517147577,
			"-0.008": 1.62617992122,
			"-0.007": 2.31331779763,
			"-0.006": 10.7154179193,
			"-0.005": 28.1349795218,
			"-0.004": 33.1811731178,
			"-0.003": 32.215123896,
			"-0.002": 24.9638110733,
			"-0.001": 18.6565172464,
			"0.0": 17.9291225746,
			"0.001": 18.2785155867,
			"0.002": 17.3921933844,
			"0.003": 18.2944068796,
			"0.004": 17.403929533,
			"0.005": 16.6775530685,
			"0.006": 11.4712687109,
			"0.007": 7.29555993186,
			"0.008": 4.85696632225,
			"0.009": 3.6583713457,
			"0.01": 3.82930701861,
			"0.011": 3.70475326108,
			"0.012": 3.54255790149,
			"0.013": 2.69823790102,
			"0.014": 0.272622736822,
			"0.015": 0.0,
			"0.016": 0.0,
			"0.017": 0.0,
			"0.018": 0.0,
			"0.019": 0.0,
			"0.02": 0.0,
			"0.021": 0.0,
			"0.022": 0.0,
			"0.023": 0.0,
			"0.024": 0.0,
			"0.025": 0.0
		}
	}
}
