{
	 "smiles": "CSC1=NN=NN1C1=CC(N)=CC=C1", 
	 "Tm": 387.15, 
	 "num_atms": 23, 
	 "gaussian": { 
		 "optdone": 1, 
		 "sigma_profile": "yes", 
		 "theory": "DFT", 
		 "functional": "B3LYP", 
		 "basiset": "6-31G**", 
		 "properties": { 
			 "R2extent": 3606.5215, 
			 "electric_dipole_moment_norm": 5.5632752089, 
			 "electric_quadrupole_moment_norm": 17.5986525075, 
			 "total_energy": -982.164925936, 
			 "HOMO_LUMO_gap": 0.18336, 
			 "cosmo_polarized_energy": -16.42, 
			 "cosmo_cavitation_energy": 29.15, 
			 "cosmo_dispersion_energy": -21.88, 
			 "cosmo_repulsion_energy": 1.68, 
			 "cosmo_total_nonelectrostatic_energy": 8.95, 
			 "SMD_solvation_energy": 3.54 
		},
		"coords": [
			{
				"x": 3.279949747,
				"y": -2.6567432936,
				"z": 2.052573755,
				"element": "C" 
			},
			{
				"x": 2.5768648367,
				"y": -1.2122415178,
				"z": 1.1770288953,
				"element": "S" 
			},
			{
				"x": 0.8970375849,
				"y": -1.4097634222,
				"z": 1.6449732699,
				"element": "C" 
			},
			{
				"x": 0.4255869894,
				"y": -2.332616825,
				"z": 2.4683315428,
				"element": "N" 
			},
			{
				"x": -0.922191001,
				"y": -2.1465233589,
				"z": 2.5038616522,
				"element": "N" 
			},
			{
				"x": -1.2845082615,
				"y": -1.1666168818,
				"z": 1.7545062069,
				"element": "N" 
			},
			{
				"x": -0.144379486,
				"y": -0.6637616285,
				"z": 1.1859705536,
				"element": "N" 
			},
			{
				"x": -0.2035137919,
				"y": 0.4197839797,
				"z": 0.2594692935,
				"element": "C" 
			},
			{
				"x": -1.2579957626,
				"y": 0.4445415362,
				"z": -0.65237025,
				"element": "C" 
			},
			{
				"x": -1.3565040684,
				"y": 1.4976816713,
				"z": -1.5751662326,
				"element": "C" 
			},
			{
				"x": -2.4342766722,
				"y": 1.571135662,
				"z": -2.4480117947,
				"element": "N" 
			},
			{
				"x": -0.3663019088,
				"y": 2.4993874891,
				"z": -1.5681004102,
				"element": "C" 
			},
			{
				"x": 0.6754460478,
				"y": 2.452655636,
				"z": -0.6488307503,
				"element": "C" 
			},
			{
				"x": 0.7706758032,
				"y": 1.4202023507,
				"z": 0.2865227605,
				"element": "C" 
			},
			{
				"x": 3.1124363094,
				"y": -2.5687092442,
				"z": 3.1255262442,
				"element": "H" 
			},
			{
				"x": 4.3488517728,
				"y": -2.6360302345,
				"z": 1.8315441039,
				"element": "H" 
			},
			{
				"x": 2.8339688998,
				"y": -3.5799127214,
				"z": 1.6830685445,
				"element": "H" 
			},
			{
				"x": -1.9993064865,
				"y": -0.3465655637,
				"z": -0.6300414517,
				"element": "H" 
			},
			{
				"x": -2.9304602887,
				"y": 0.7084691961,
				"z": -2.6188494127,
				"element": "H" 
			},
			{
				"x": -2.2924099005,
				"y": 2.1160706807,
				"z": -3.2860612083,
				"element": "H" 
			},
			{
				"x": -0.4282685837,
				"y": 3.3171703117,
				"z": -2.2810691079,
				"element": "H" 
			},
			{
				"x": 1.4231523889,
				"y": 3.2399992216,
				"z": -0.6502239339,
				"element": "H" 
			},
			{
				"x": 1.5612458319,
				"y": 1.4087869564,
				"z": 1.0269477298,
				"element": "H" 
			}
		],
		 "valence_orbital": [ 
			{
				"type": "occ",
				"energy": -0.28965,
				"method": "rhf"
			},
			{
				"type": "occ",
				"energy": -0.28107,
				"method": "rhf"
			},
			{
				"type": "occ",
				"energy": -0.257,
				"method": "rhf"
			},
			{
				"type": "occ",
				"energy": -0.24022,
				"method": "rhf"
			},
			{
				"type": "occ",
				"energy": -0.21823,
				"method": "rhf"
			},
			{
				"type": "unocc",
				"energy": -0.03487,
				"method": "rhf"
			},
			{
				"type": "unocc",
				"energy": -0.00822,
				"method": "rhf"
			},
			{
				"type": "unocc",
				"energy": 0.0129,
				"method": "rhf"
			},
			{
				"type": "unocc",
				"energy": 0.02075,
				"method": "rhf"
			},
			{
				"type": "unocc",
				"energy": 0.03227,
				"method": "rhf"
			}
		],
		"cosmo_sigma_profile": { 
			"-0.025": 0.0,
			"-0.024": 0.0,
			"-0.023": 0.0,
			"-0.022": 0.0,
			"-0.021": 0.0,
			"-0.02": 0.0,
			"-0.019": 0.0,
			"-0.018": 0.0,
			"-0.017": 0.0,
			"-0.016": 0.0,
			"-0.015": 0.0,
			"-0.014": 0.00895236849216,
			"-0.013": 1.66707130338,
			"-0.012": 3.28435003767,
			"-0.011": 3.31529272817,
			"-0.01": 2.87316230081,
			"-0.009": 3.65533838719,
			"-0.008": 4.62581184603,
			"-0.007": 7.77694636691,
			"-0.006": 12.8784415787,
			"-0.005": 15.0696734938,
			"-0.004": 15.6862745372,
			"-0.003": 17.2327460047,
			"-0.002": 16.2643143359,
			"-0.001": 11.9779876353,
			"0.0": 11.5002155435,
			"0.001": 12.002685228,
			"0.002": 12.952170094,
			"0.003": 15.3892987172,
			"0.004": 18.2680122574,
			"0.005": 10.8367773295,
			"0.006": 5.18651222792,
			"0.007": 4.56782011021,
			"0.008": 5.87006111384,
			"0.009": 5.46498942343,
			"0.01": 5.59173214147,
			"0.011": 4.69102880697,
			"0.012": 3.20783889519,
			"0.013": 2.39369737198,
			"0.014": 0.774958558088,
			"0.015": 0.0,
			"0.016": 0.0,
			"0.017": 0.0,
			"0.018": 0.0,
			"0.019": 0.0,
			"0.02": 0.0,
			"0.021": 0.0,
			"0.022": 0.0,
			"0.023": 0.0,
			"0.024": 0.0,
			"0.025": 0.0
		}
	}
}
