{
	 "smiles": "O=C1N2C(=NC3=C2C=CC=C3)N=C2C=CC=CN12", 
	 "Tm": 612.15, 
	 "num_atms": 26, 
	 "gaussian": { 
		 "optdone": 1, 
		 "sigma_profile": "yes", 
		 "theory": "DFT", 
		 "functional": "B3LYP", 
		 "basiset": "6-31G**", 
		 "properties": { 
			 "R2extent": 4562.5356, 
			 "electric_dipole_moment_norm": 4.65651226349, 
			 "electric_quadrupole_moment_norm": 19.3651666711, 
			 "total_energy": -794.458227665, 
			 "HOMO_LUMO_gap": 0.12646, 
			 "cosmo_polarized_energy": -16.12, 
			 "cosmo_cavitation_energy": 30.46, 
			 "cosmo_dispersion_energy": -23.22, 
			 "cosmo_repulsion_energy": 1.7, 
			 "cosmo_total_nonelectrostatic_energy": 8.93, 
			 "SMD_solvation_energy": 2.38 
		},
		"coords": [
			{
				"x": 0.1998281183,
				"y": 0.2513112903,
				"z": 2.2823276061,
				"element": "O" 
			},
			{
				"x": 0.2597477685,
				"y": 0.1133674868,
				"z": 1.0755361546,
				"element": "C" 
			},
			{
				"x": -0.3818044811,
				"y": -0.8526827371,
				"z": 0.3492338636,
				"element": "N" 
			},
			{
				"x": -0.2976076971,
				"y": -0.9975801355,
				"z": -1.0755638019,
				"element": "C" 
			},
			{
				"x": -1.0103918256,
				"y": -2.0042168471,
				"z": -1.5095578057,
				"element": "N" 
			},
			{
				"x": -1.5933765617,
				"y": -2.5623522815,
				"z": -0.3814343996,
				"element": "C" 
			},
			{
				"x": -1.226385307,
				"y": -1.872830579,
				"z": 0.7999336711,
				"element": "C" 
			},
			{
				"x": -1.6763980078,
				"y": -2.232589066,
				"z": 2.0679051836,
				"element": "C" 
			},
			{
				"x": -2.5300523611,
				"y": -3.3338012842,
				"z": 2.1311274385,
				"element": "C" 
			},
			{
				"x": -2.9097272558,
				"y": -4.0360293177,
				"z": 0.9712217183,
				"element": "C" 
			},
			{
				"x": -2.4519414293,
				"y": -3.6649500034,
				"z": -0.2900940097,
				"element": "C" 
			},
			{
				"x": 0.4568949515,
				"y": -0.1433334,
				"z": -1.7987776045,
				"element": "N" 
			},
			{
				"x": 1.096682329,
				"y": 0.8047158862,
				"z": -1.1613202803,
				"element": "C" 
			},
			{
				"x": 1.9147930678,
				"y": 1.7437966939,
				"z": -1.8752996362,
				"element": "C" 
			},
			{
				"x": 2.589636092,
				"y": 2.7382757295,
				"z": -1.2346854976,
				"element": "C" 
			},
			{
				"x": 2.4962510051,
				"y": 2.8706790062,
				"z": 0.1870403898,
				"element": "C" 
			},
			{
				"x": 1.7307914561,
				"y": 1.9975230269,
				"z": 0.8858417578,
				"element": "C" 
			},
			{
				"x": 1.0381988783,
				"y": 0.9797050901,
				"z": 0.2439738212,
				"element": "N" 
			},
			{
				"x": -1.3741081483,
				"y": -1.6810651703,
				"z": 2.9492385222,
				"element": "H" 
			},
			{
				"x": -2.909126166,
				"y": -3.6552205975,
				"z": 3.0963690189,
				"element": "H" 
			},
			{
				"x": -3.5765546797,
				"y": -4.8881286797,
				"z": 1.0659871912,
				"element": "H" 
			},
			{
				"x": -2.7420835784,
				"y": -4.2032372229,
				"z": -1.1860224844,
				"element": "H" 
			},
			{
				"x": 1.955635182,
				"y": 1.6051508658,
				"z": -2.9487959622,
				"element": "H" 
			},
			{
				"x": 3.2007939113,
				"y": 3.4339447179,
				"z": -1.8008962383,
				"element": "H" 
			},
			{
				"x": 3.0257443905,
				"y": 3.6552100427,
				"z": 0.7136703588,
				"element": "H" 
			},
			{
				"x": 1.5939603486,
				"y": 2.0108374859,
				"z": 1.9584410247,
				"element": "H" 
			}
		],
		 "valence_orbital": [ 
			{
				"type": "occ",
				"energy": -0.29682,
				"method": "rhf"
			},
			{
				"type": "occ",
				"energy": -0.27269,
				"method": "rhf"
			},
			{
				"type": "occ",
				"energy": -0.26125,
				"method": "rhf"
			},
			{
				"type": "occ",
				"energy": -0.23849,
				"method": "rhf"
			},
			{
				"type": "occ",
				"energy": -0.20661,
				"method": "rhf"
			},
			{
				"type": "unocc",
				"energy": -0.08015,
				"method": "rhf"
			},
			{
				"type": "unocc",
				"energy": -0.04202,
				"method": "rhf"
			},
			{
				"type": "unocc",
				"energy": -0.01283,
				"method": "rhf"
			},
			{
				"type": "unocc",
				"energy": 0.00862,
				"method": "rhf"
			},
			{
				"type": "unocc",
				"energy": 0.03478,
				"method": "rhf"
			}
		],
		"cosmo_sigma_profile": { 
			"-0.025": 0.0,
			"-0.024": 0.0,
			"-0.023": 0.0,
			"-0.022": 0.0,
			"-0.021": 0.0,
			"-0.02": 0.0,
			"-0.019": 0.0,
			"-0.018": 0.0,
			"-0.017": 0.0,
			"-0.016": 0.0,
			"-0.015": 0.0,
			"-0.014": 0.0,
			"-0.013": 0.0,
			"-0.012": 0.0,
			"-0.011": 0.0,
			"-0.01": 0.316801201646,
			"-0.009": 3.5828834903,
			"-0.008": 10.1079127225,
			"-0.007": 11.7499981643,
			"-0.006": 15.1940068402,
			"-0.005": 16.5607665442,
			"-0.004": 19.2167815201,
			"-0.003": 16.9228475854,
			"-0.002": 15.9953902426,
			"-0.001": 15.0946081576,
			"0.0": 18.9137795792,
			"0.001": 19.4996140888,
			"0.002": 12.0783064496,
			"0.003": 12.2641599488,
			"0.004": 13.2631993364,
			"0.005": 12.1144035834,
			"0.006": 3.7254048949,
			"0.007": 4.09353242095,
			"0.008": 3.88271005185,
			"0.009": 4.29877331633,
			"0.01": 5.16956200547,
			"0.011": 2.19356933734,
			"0.012": 1.98647070315,
			"0.013": 3.25399417106,
			"0.014": 2.64908975793,
			"0.015": 1.62051092235,
			"0.016": 1.10695610776,
			"0.017": 0.628780921873,
			"0.018": 0.0,
			"0.019": 0.0,
			"0.02": 0.0,
			"0.021": 0.0,
			"0.022": 0.0,
			"0.023": 0.0,
			"0.024": 0.0,
			"0.025": 0.0
		}
	}
}
