{
	 "smiles": "NC1=CC=C(N)C(=C1)[N+]([O-])=O", 
	 "Tm": 412.15, 
	 "num_atms": 18, 
	 "gaussian": { 
		 "optdone": 1, 
		 "sigma_profile": "yes", 
		 "theory": "DFT", 
		 "functional": "B3LYP", 
		 "basiset": "6-31G**", 
		 "properties": { 
			 "R2extent": 1828.0923, 
			 "electric_dipole_moment_norm": 5.31253457683, 
			 "electric_quadrupole_moment_norm": 11.2076896027, 
			 "total_energy": -547.467093136, 
			 "HOMO_LUMO_gap": 0.11743, 
			 "cosmo_polarized_energy": -15.69, 
			 "cosmo_cavitation_energy": 22.34, 
			 "cosmo_dispersion_energy": -17.05, 
			 "cosmo_repulsion_energy": 1.37, 
			 "cosmo_total_nonelectrostatic_energy": 6.66, 
			 "SMD_solvation_energy": 5.76 
		},
		"coords": [
			{
				"x": 0.5216703198,
				"y": 1.7346472208,
				"z": 3.2296231116,
				"element": "N" 
			},
			{
				"x": 0.6984457367,
				"y": 1.0929517603,
				"z": 1.9948036921,
				"element": "C" 
			},
			{
				"x": 1.7656250001,
				"y": 0.1842673045,
				"z": 1.8071447779,
				"element": "C" 
			},
			{
				"x": 1.9215750664,
				"y": -0.5078349954,
				"z": 0.6242192223,
				"element": "C" 
			},
			{
				"x": 1.0273351801,
				"y": -0.3586181881,
				"z": -0.4652059683,
				"element": "C" 
			},
			{
				"x": 1.2064195624,
				"y": -1.1039752606,
				"z": -1.5959566271,
				"element": "N" 
			},
			{
				"x": -0.0352050234,
				"y": 0.5604284653,
				"z": -0.2646918814,
				"element": "C" 
			},
			{
				"x": -0.1878026172,
				"y": 1.2671983462,
				"z": 0.9424136885,
				"element": "C" 
			},
			{
				"x": -1.003248506,
				"y": 0.8406518059,
				"z": -1.3042073985,
				"element": "N" 
			},
			{
				"x": -1.9028678815,
				"y": 1.6512677349,
				"z": -1.0705326009,
				"element": "O" 
			},
			{
				"x": -0.895067764,
				"y": 0.2599222068,
				"z": -2.4024275196,
				"element": "O" 
			},
			{
				"x": 1.3817276645,
				"y": 1.9281170681,
				"z": 3.7259740171,
				"element": "H" 
			},
			{
				"x": -0.0625220918,
				"y": 2.5594133177,
				"z": 3.1873757454,
				"element": "H" 
			},
			{
				"x": 2.4753174046,
				"y": 0.0215900255,
				"z": 2.6146627005,
				"element": "H" 
			},
			{
				"x": 2.750580709,
				"y": -1.2019307176,
				"z": 0.514966047,
				"element": "H" 
			},
			{
				"x": 0.6398286803,
				"y": -0.8671257589,
				"z": -2.3975296592,
				"element": "H" 
			},
			{
				"x": 2.0912479213,
				"y": -1.5662358597,
				"z": -1.7267050021,
				"element": "H" 
			},
			{
				"x": -1.0240593614,
				"y": 1.9513655241,
				"z": 1.0164736547,
				"element": "H" 
			}
		],
		 "valence_orbital": [ 
			{
				"type": "occ",
				"energy": -0.29609,
				"method": "rhf"
			},
			{
				"type": "occ",
				"energy": -0.27786,
				"method": "rhf"
			},
			{
				"type": "occ",
				"energy": -0.27648,
				"method": "rhf"
			},
			{
				"type": "occ",
				"energy": -0.26968,
				"method": "rhf"
			},
			{
				"type": "occ",
				"energy": -0.19297,
				"method": "rhf"
			},
			{
				"type": "unocc",
				"energy": -0.07554,
				"method": "rhf"
			},
			{
				"type": "unocc",
				"energy": 0.00236,
				"method": "rhf"
			},
			{
				"type": "unocc",
				"energy": 0.02424,
				"method": "rhf"
			},
			{
				"type": "unocc",
				"energy": 0.07474,
				"method": "rhf"
			},
			{
				"type": "unocc",
				"energy": 0.0833,
				"method": "rhf"
			}
		],
		"cosmo_sigma_profile": { 
			"-0.025": 0.0,
			"-0.024": 0.0,
			"-0.023": 0.0,
			"-0.022": 0.0,
			"-0.021": 0.0,
			"-0.02": 0.0,
			"-0.019": 0.0,
			"-0.018": 0.0,
			"-0.017": 0.0,
			"-0.016": 0.0,
			"-0.015": 0.0125861450392,
			"-0.014": 0.889705952089,
			"-0.013": 2.01562647065,
			"-0.012": 4.15946232709,
			"-0.011": 4.35922384278,
			"-0.01": 5.30341800061,
			"-0.009": 6.16774821354,
			"-0.008": 5.82028323059,
			"-0.007": 7.03972963252,
			"-0.006": 6.56376879397,
			"-0.005": 6.68868713425,
			"-0.004": 7.00678699796,
			"-0.003": 7.21645829152,
			"-0.002": 6.20780471708,
			"-0.001": 8.67151274745,
			"0.0": 8.75087308231,
			"0.001": 10.0092954914,
			"0.002": 13.2802065865,
			"0.003": 13.7196399225,
			"0.004": 11.9097643688,
			"0.005": 4.86214930011,
			"0.006": 4.62435159732,
			"0.007": 5.43165838114,
			"0.008": 6.02913028363,
			"0.009": 7.67518329377,
			"0.01": 5.02599211381,
			"0.011": 4.62571660068,
			"0.012": 1.92998835113,
			"0.013": 0.536907674705,
			"0.014": 0.605397232383,
			"0.015": 0.475513252122,
			"0.016": 0.0430025324841,
			"0.017": 0.0,
			"0.018": 0.0,
			"0.019": 0.0,
			"0.02": 0.0,
			"0.021": 0.0,
			"0.022": 0.0,
			"0.023": 0.0,
			"0.024": 0.0,
			"0.025": 0.0
		}
	}
}
