{
	 "smiles": "BrC1=CC2=C(NC(=O)CO2)C=C1", 
	 "Tm": 466.15, 
	 "num_atms": 18, 
	 "gaussian": { 
		 "optdone": 1, 
		 "sigma_profile": "yes", 
		 "theory": "DFT", 
		 "functional": "B3LYP", 
		 "basiset": "6-31G**", 
		 "properties": { 
			 "R2extent": 4134.3016, 
			 "electric_dipole_moment_norm": 1.475858252, 
			 "electric_quadrupole_moment_norm": 15.0024812884, 
			 "total_energy": -3085.07375994, 
			 "HOMO_LUMO_gap": 0.19362, 
			 "cosmo_polarized_energy": -11.99, 
			 "cosmo_cavitation_energy": 24.71, 
			 "cosmo_dispersion_energy": -19.18, 
			 "cosmo_repulsion_energy": 1.52, 
			 "cosmo_total_nonelectrostatic_energy": 7.05, 
			 "SMD_solvation_energy": 3.91 
		},
		"coords": [
			{
				"x": 1.0588939222,
				"y": 3.6408786958,
				"z": -1.7685491607,
				"element": "Br" 
			},
			{
				"x": 0.69889919,
				"y": 2.1743280259,
				"z": -0.5989843593,
				"element": "C" 
			},
			{
				"x": 1.2559722768,
				"y": 0.9279087575,
				"z": -0.8825603414,
				"element": "C" 
			},
			{
				"x": 0.9887254086,
				"y": -0.1402926247,
				"z": -0.0310788823,
				"element": "C" 
			},
			{
				"x": 0.1743294228,
				"y": 0.0353746316,
				"z": 1.1007852437,
				"element": "C" 
			},
			{
				"x": -0.0939210895,
				"y": -1.0894876627,
				"z": 1.8973427389,
				"element": "N" 
			},
			{
				"x": 0.6063891065,
				"y": -2.2664946696,
				"z": 1.8068714404,
				"element": "C" 
			},
			{
				"x": 0.3906356826,
				"y": -3.2337695301,
				"z": 2.5157420223,
				"element": "O" 
			},
			{
				"x": 1.7321340143,
				"y": -2.2363442679,
				"z": 0.7758725422,
				"element": "C" 
			},
			{
				"x": 1.4833349363,
				"y": -1.3776605477,
				"z": -0.3405477631,
				"element": "O" 
			},
			{
				"x": -0.3599251984,
				"y": 1.2951571684,
				"z": 1.3728039969,
				"element": "C" 
			},
			{
				"x": -0.1044435362,
				"y": 2.3715473487,
				"z": 0.5221164903,
				"element": "C" 
			},
			{
				"x": 1.8821913207,
				"y": 0.7680485696,
				"z": -1.7516218193,
				"element": "H" 
			},
			{
				"x": -0.8073297782,
				"y": -1.0454677195,
				"z": 2.6138241083,
				"element": "H" 
			},
			{
				"x": 2.6605991533,
				"y": -1.9377993991,
				"z": 1.2864991117,
				"element": "H" 
			},
			{
				"x": 1.8615837675,
				"y": -3.2427139975,
				"z": 0.3783726365,
				"element": "H" 
			},
			{
				"x": -0.9870355474,
				"y": 1.4343354455,
				"z": 2.2491347831,
				"element": "H" 
			},
			{
				"x": -0.525433052,
				"y": 3.3473517758,
				"z": 0.7313772118,
				"element": "H" 
			}
		],
		 "valence_orbital": [ 
			{
				"type": "occ",
				"energy": -0.29194,
				"method": "rhf"
			},
			{
				"type": "occ",
				"energy": -0.29109,
				"method": "rhf"
			},
			{
				"type": "occ",
				"energy": -0.2723,
				"method": "rhf"
			},
			{
				"type": "occ",
				"energy": -0.25351,
				"method": "rhf"
			},
			{
				"type": "occ",
				"energy": -0.22345,
				"method": "rhf"
			},
			{
				"type": "unocc",
				"energy": -0.02983,
				"method": "rhf"
			},
			{
				"type": "unocc",
				"energy": -0.01925,
				"method": "rhf"
			},
			{
				"type": "unocc",
				"energy": 0.0013,
				"method": "rhf"
			},
			{
				"type": "unocc",
				"energy": 0.01881,
				"method": "rhf"
			},
			{
				"type": "unocc",
				"energy": 0.06988,
				"method": "rhf"
			}
		],
		"cosmo_sigma_profile": { 
			"-0.025": 0.0,
			"-0.024": 0.0,
			"-0.023": 0.0,
			"-0.022": 0.0,
			"-0.021": 0.0,
			"-0.02": 0.0,
			"-0.019": 0.0,
			"-0.018": 0.0,
			"-0.017": 0.0,
			"-0.016": 0.446785193639,
			"-0.015": 1.58642761673,
			"-0.014": 1.05791821865,
			"-0.013": 1.43699271715,
			"-0.012": 1.17350668664,
			"-0.011": 1.2682534204,
			"-0.01": 1.49348616188,
			"-0.009": 1.22159039101,
			"-0.008": 6.83067136908,
			"-0.007": 10.1249032077,
			"-0.006": 9.83318454872,
			"-0.005": 10.2378148542,
			"-0.004": 10.1523807328,
			"-0.003": 9.5001395172,
			"-0.002": 9.30225312537,
			"-0.001": 11.4587082205,
			"0.0": 13.6955637369,
			"0.001": 14.8321681572,
			"0.002": 19.7658055771,
			"0.003": 19.151466637,
			"0.004": 14.6441253678,
			"0.005": 9.13011642591,
			"0.006": 3.18749983494,
			"0.007": 1.35891845396,
			"0.008": 1.7945170774,
			"0.009": 3.0531724511,
			"0.01": 2.23034941667,
			"0.011": 2.09501666364,
			"0.012": 4.93238396455,
			"0.013": 4.10141014912,
			"0.014": 0.317075633088,
			"0.015": 0.0,
			"0.016": 0.0,
			"0.017": 0.0,
			"0.018": 0.0,
			"0.019": 0.0,
			"0.02": 0.0,
			"0.021": 0.0,
			"0.022": 0.0,
			"0.023": 0.0,
			"0.024": 0.0,
			"0.025": 0.0
		}
	}
}
