{
	 "smiles": "FC1=CC=C(C=C1)N=NC1=CC=CC=C1", 
	 "Tm": 353.15, 
	 "num_atms": 24, 
	 "gaussian": { 
		 "optdone": 1, 
		 "sigma_profile": "yes", 
		 "theory": "DFT", 
		 "functional": "B3LYP", 
		 "basiset": "6-31G**", 
		 "properties": { 
			 "R2extent": 5150.3663, 
			 "electric_dipole_moment_norm": 1.27653130005, 
			 "electric_quadrupole_moment_norm": 8.52680649657, 
			 "total_energy": -671.996443984, 
			 "HOMO_LUMO_gap": 0.1443, 
			 "cosmo_polarized_energy": -5.99, 
			 "cosmo_cavitation_energy": 29.86, 
			 "cosmo_dispersion_energy": -21.79, 
			 "cosmo_repulsion_energy": 1.67, 
			 "cosmo_total_nonelectrostatic_energy": 9.74, 
			 "SMD_solvation_energy": 4.39 
		},
		"coords": [
			{
				"x": 4.4280598863,
				"y": -1.4171227454,
				"z": -3.6500217093,
				"element": "F" 
			},
			{
				"x": 3.4295935247,
				"y": -1.2204403758,
				"z": -2.7675133005,
				"element": "C" 
			},
			{
				"x": 3.7243961383,
				"y": -0.6591027412,
				"z": -1.5299280434,
				"element": "C" 
			},
			{
				"x": 2.6817224977,
				"y": -0.4618112051,
				"z": -0.628234791,
				"element": "C" 
			},
			{
				"x": 1.3684060329,
				"y": -0.8213707047,
				"z": -0.9630122584,
				"element": "C" 
			},
			{
				"x": 1.1002428562,
				"y": -1.3874705901,
				"z": -2.223091953,
				"element": "C" 
			},
			{
				"x": 2.1325715914,
				"y": -1.5882744461,
				"z": -3.1292018574,
				"element": "C" 
			},
			{
				"x": 0.3946659881,
				"y": -0.57301852,
				"z": 0.0339389478,
				"element": "N" 
			},
			{
				"x": -0.781321766,
				"y": -0.9017526912,
				"z": -0.280632696,
				"element": "N" 
			},
			{
				"x": -1.7573509237,
				"y": -0.6532254543,
				"z": 0.7171410982,
				"element": "C" 
			},
			{
				"x": -1.4903426243,
				"y": -0.087031644,
				"z": 1.9761744777,
				"element": "C" 
			},
			{
				"x": -2.531810699,
				"y": 0.1094037651,
				"z": 2.8753224213,
				"element": "C" 
			},
			{
				"x": -3.8417706998,
				"y": -0.2527123158,
				"z": 2.5344428918,
				"element": "C" 
			},
			{
				"x": -4.1082510446,
				"y": -0.8148945943,
				"z": 1.2847622306,
				"element": "C" 
			},
			{
				"x": -3.0683591181,
				"y": -1.0146872857,
				"z": 0.3782482729,
				"element": "C" 
			},
			{
				"x": 4.7472049436,
				"y": -0.3885950115,
				"z": -1.2923521052,
				"element": "H" 
			},
			{
				"x": 2.8617087615,
				"y": -0.0271853884,
				"z": 0.3495701009,
				"element": "H" 
			},
			{
				"x": 0.0796155595,
				"y": -1.6594906117,
				"z": -2.4656254047,
				"element": "H" 
			},
			{
				"x": 1.9571176013,
				"y": -2.0223980654,
				"z": -4.10779236,
				"element": "H" 
			},
			{
				"x": -0.470250294,
				"y": 0.1861712899,
				"z": 2.2202417429,
				"element": "H" 
			},
			{
				"x": -2.328257345,
				"y": 0.5466444349,
				"z": 3.8488295281,
				"element": "H" 
			},
			{
				"x": -4.6493651728,
				"y": -0.0955076708,
				"z": 3.243644592,
				"element": "H" 
			},
			{
				"x": -5.1224760373,
				"y": -1.0965235497,
				"z": 1.0176146553,
				"element": "H" 
			},
			{
				"x": -3.2435496572,
				"y": -1.449503879,
				"z": -0.6007244807,
				"element": "H" 
			}
		],
		 "valence_orbital": [ 
			{
				"type": "occ",
				"energy": -0.27237,
				"method": "rhf"
			},
			{
				"type": "occ",
				"energy": -0.26756,
				"method": "rhf"
			},
			{
				"type": "occ",
				"energy": -0.25706,
				"method": "rhf"
			},
			{
				"type": "occ",
				"energy": -0.22809,
				"method": "rhf"
			},
			{
				"type": "occ",
				"energy": -0.22648,
				"method": "rhf"
			},
			{
				"type": "unocc",
				"energy": -0.08218,
				"method": "rhf"
			},
			{
				"type": "unocc",
				"energy": -0.01565,
				"method": "rhf"
			},
			{
				"type": "unocc",
				"energy": -0.00576,
				"method": "rhf"
			},
			{
				"type": "unocc",
				"energy": 0.0085,
				"method": "rhf"
			},
			{
				"type": "unocc",
				"energy": 0.04525,
				"method": "rhf"
			}
		],
		"cosmo_sigma_profile": { 
			"-0.025": 0.0,
			"-0.024": 0.0,
			"-0.023": 0.0,
			"-0.022": 0.0,
			"-0.021": 0.0,
			"-0.02": 0.0,
			"-0.019": 0.0,
			"-0.018": 0.0,
			"-0.017": 0.0,
			"-0.016": 0.0,
			"-0.015": 0.0,
			"-0.014": 0.0,
			"-0.013": 0.0,
			"-0.012": 0.0,
			"-0.011": 0.0,
			"-0.01": 0.0,
			"-0.009": 0.0,
			"-0.008": 1.82930819666,
			"-0.007": 5.59130614268,
			"-0.006": 13.5989567441,
			"-0.005": 17.6891052557,
			"-0.004": 16.5016551988,
			"-0.003": 12.4880781968,
			"-0.002": 11.9870670331,
			"-0.001": 13.4149935858,
			"0.0": 18.6504448713,
			"0.001": 26.1400308069,
			"0.002": 35.3734349456,
			"0.003": 27.4918162893,
			"0.004": 26.032490734,
			"0.005": 6.48115281013,
			"0.006": 3.18739213203,
			"0.007": 3.13468976286,
			"0.008": 1.4216906221,
			"0.009": 0.0,
			"0.01": 0.0,
			"0.011": 0.0,
			"0.012": 0.0,
			"0.013": 0.0,
			"0.014": 0.0,
			"0.015": 0.0,
			"0.016": 0.0,
			"0.017": 0.0,
			"0.018": 0.0,
			"0.019": 0.0,
			"0.02": 0.0,
			"0.021": 0.0,
			"0.022": 0.0,
			"0.023": 0.0,
			"0.024": 0.0,
			"0.025": 0.0
		}
	}
}
