{
	 "smiles": "CON(C)C(=O)NC1=CC=C(Cl)C=C1", 
	 "Tm": 354.65, 
	 "num_atms": 25, 
	 "gaussian": { 
		 "optdone": 1, 
		 "sigma_profile": "yes", 
		 "theory": "DFT", 
		 "functional": "B3LYP", 
		 "basiset": "6-31G**", 
		 "properties": { 
			 "R2extent": 4746.0791, 
			 "electric_dipole_moment_norm": 1.59942339923, 
			 "electric_quadrupole_moment_norm": 18.3774617292, 
			 "total_energy": -1069.67910053, 
			 "HOMO_LUMO_gap": 0.20705, 
			 "cosmo_polarized_energy": -11.95, 
			 "cosmo_cavitation_energy": 30.51, 
			 "cosmo_dispersion_energy": -21.67, 
			 "cosmo_repulsion_energy": 1.72, 
			 "cosmo_total_nonelectrostatic_energy": 10.56, 
			 "SMD_solvation_energy": 6.69 
		},
		"coords": [
			{
				"x": -0.6284899578,
				"y": -3.0645513132,
				"z": 0.5276706111,
				"element": "C" 
			},
			{
				"x": 0.0425684238,
				"y": -2.7229173533,
				"z": -0.6823686628,
				"element": "O" 
			},
			{
				"x": -0.6598740723,
				"y": -1.6904267273,
				"z": -1.3766711774,
				"element": "N" 
			},
			{
				"x": -1.6720179449,
				"y": -2.2649193782,
				"z": -2.2643868442,
				"element": "C" 
			},
			{
				"x": 0.2260917827,
				"y": -0.795126175,
				"z": -2.0065408529,
				"element": "C" 
			},
			{
				"x": -0.0258359212,
				"y": -0.3171055891,
				"z": -3.1043836291,
				"element": "O" 
			},
			{
				"x": 1.3922303663,
				"y": -0.4724719022,
				"z": -1.336031876,
				"element": "N" 
			},
			{
				"x": 1.6682624869,
				"y": -0.4334620766,
				"z": 0.0541320781,
				"element": "C" 
			},
			{
				"x": 2.961010583,
				"y": -0.7446425962,
				"z": 0.4924815989,
				"element": "C" 
			},
			{
				"x": 3.3013111823,
				"y": -0.6363703231,
				"z": 1.8395799285,
				"element": "C" 
			},
			{
				"x": 2.3343471873,
				"y": -0.2275130259,
				"z": 2.7570361937,
				"element": "C" 
			},
			{
				"x": 2.7511680447,
				"y": -0.1011891322,
				"z": 4.4603182205,
				"element": "Cl" 
			},
			{
				"x": 1.0411769983,
				"y": 0.0869056765,
				"z": 2.3397682435,
				"element": "C" 
			},
			{
				"x": 0.7156559889,
				"y": -0.0030060815,
				"z": 0.9873352259,
				"element": "C" 
			},
			{
				"x": -0.7247420501,
				"y": -2.2028245244,
				"z": 1.1938780192,
				"element": "H" 
			},
			{
				"x": -1.619232667,
				"y": -3.4962248172,
				"z": 0.3370697938,
				"element": "H" 
			},
			{
				"x": 0.0038531994,
				"y": -3.8231260029,
				"z": 0.9948952774,
				"element": "H" 
			},
			{
				"x": -1.2256362111,
				"y": -2.9322877017,
				"z": -3.0103463516,
				"element": "H" 
			},
			{
				"x": -2.1815414553,
				"y": -1.4491508119,
				"z": -2.7747101877,
				"element": "H" 
			},
			{
				"x": -2.3934199744,
				"y": -2.81788482,
				"z": -1.6596016209,
				"element": "H" 
			},
			{
				"x": 1.9850980697,
				"y": 0.0969466994,
				"z": -1.9258613062,
				"element": "H" 
			},
			{
				"x": 3.6997884878,
				"y": -1.081746582,
				"z": -0.2281921386,
				"element": "H" 
			},
			{
				"x": 4.3036181868,
				"y": -0.877449773,
				"z": 2.1757762813,
				"element": "H" 
			},
			{
				"x": 0.3033253212,
				"y": 0.4198436653,
				"z": 3.0615243624,
				"element": "H" 
			},
			{
				"x": -0.2803160553,
				"y": 0.2643006658,
				"z": 0.6510288132,
				"element": "H" 
			}
		],
		 "valence_orbital": [ 
			{
				"type": "occ",
				"energy": -0.28931,
				"method": "rhf"
			},
			{
				"type": "occ",
				"energy": -0.27177,
				"method": "rhf"
			},
			{
				"type": "occ",
				"energy": -0.26334,
				"method": "rhf"
			},
			{
				"type": "occ",
				"energy": -0.24555,
				"method": "rhf"
			},
			{
				"type": "occ",
				"energy": -0.2304,
				"method": "rhf"
			},
			{
				"type": "unocc",
				"energy": -0.02335,
				"method": "rhf"
			},
			{
				"type": "unocc",
				"energy": -0.02166,
				"method": "rhf"
			},
			{
				"type": "unocc",
				"energy": 0.02319,
				"method": "rhf"
			},
			{
				"type": "unocc",
				"energy": 0.02936,
				"method": "rhf"
			},
			{
				"type": "unocc",
				"energy": 0.09239,
				"method": "rhf"
			}
		],
		"cosmo_sigma_profile": { 
			"-0.025": 0.0,
			"-0.024": 0.0,
			"-0.023": 0.0,
			"-0.022": 0.0,
			"-0.021": 0.0,
			"-0.02": 0.0,
			"-0.019": 0.0,
			"-0.018": 0.0,
			"-0.017": 0.0,
			"-0.016": 0.0,
			"-0.015": 0.117828360416,
			"-0.014": 0.982052057313,
			"-0.013": 1.12417387839,
			"-0.012": 0.946238990477,
			"-0.011": 0.869431724595,
			"-0.01": 1.31162805511,
			"-0.009": 0.655501846207,
			"-0.008": 1.41340182892,
			"-0.007": 7.75415391791,
			"-0.006": 13.4797749543,
			"-0.005": 16.6016362018,
			"-0.004": 18.0411465015,
			"-0.003": 20.9665177508,
			"-0.002": 20.8471954738,
			"-0.001": 16.7216322455,
			"0.0": 15.3122835077,
			"0.001": 16.6142863879,
			"0.002": 18.0029414276,
			"0.003": 19.2875013473,
			"0.004": 15.8927714564,
			"0.005": 11.0790668635,
			"0.006": 3.94916733668,
			"0.007": 3.09018667379,
			"0.008": 2.17471769254,
			"0.009": 2.83027279658,
			"0.01": 3.15714019534,
			"0.011": 2.03486473682,
			"0.012": 2.41808527554,
			"0.013": 5.78305528829,
			"0.014": 1.09091771588,
			"0.015": 0.0,
			"0.016": 0.0,
			"0.017": 0.0,
			"0.018": 0.0,
			"0.019": 0.0,
			"0.02": 0.0,
			"0.021": 0.0,
			"0.022": 0.0,
			"0.023": 0.0,
			"0.024": 0.0,
			"0.025": 0.0
		}
	}
}
