{
	 "smiles": "CCOC1=C(OCC)C=C2CNCCC2=C1", 
	 "Tm": 382.15, 
	 "num_atms": 35, 
	 "gaussian": { 
		 "optdone": 1, 
		 "sigma_profile": "yes", 
		 "theory": "DFT", 
		 "functional": "B3LYP", 
		 "basiset": "6-31G**", 
		 "properties": { 
			 "R2extent": 4951.444, 
			 "electric_dipole_moment_norm": 0.923907571135, 
			 "electric_quadrupole_moment_norm": 10.2451986833, 
			 "total_energy": -712.018305901, 
			 "HOMO_LUMO_gap": 0.21753, 
			 "cosmo_polarized_energy": -8.76, 
			 "cosmo_cavitation_energy": 36.27, 
			 "cosmo_dispersion_energy": -25.8, 
			 "cosmo_repulsion_energy": 2.06, 
			 "cosmo_total_nonelectrostatic_energy": 12.53, 
			 "SMD_solvation_energy": 3.77 
		},
		"coords": [
			{
				"x": 0.6111478136,
				"y": 1.1082619669,
				"z": 3.9012742049,
				"element": "C" 
			},
			{
				"x": 0.8292763255,
				"y": 0.9298561693,
				"z": 2.4096320325,
				"element": "C" 
			},
			{
				"x": -0.1047961151,
				"y": -0.0627329715,
				"z": 1.9446897535,
				"element": "O" 
			},
			{
				"x": -0.0381980578,
				"y": -0.3340156771,
				"z": 0.5943618691,
				"element": "C" 
			},
			{
				"x": 1.0342190945,
				"y": -1.0622187205,
				"z": 0.0442102944,
				"element": "C" 
			},
			{
				"x": 2.0942538357,
				"y": -1.4803649966,
				"z": 0.8205138882,
				"element": "O" 
			},
			{
				"x": 1.7952522645,
				"y": -2.5608910236,
				"z": 1.7240796085,
				"element": "C" 
			},
			{
				"x": 3.0663120304,
				"y": -2.8936589791,
				"z": 2.484425199,
				"element": "C" 
			},
			{
				"x": 1.0445500746,
				"y": -1.3281088757,
				"z": -1.3220871078,
				"element": "C" 
			},
			{
				"x": 0.0101628197,
				"y": -0.8949467561,
				"z": -2.1603827766,
				"element": "C" 
			},
			{
				"x": 0.0454165643,
				"y": -1.240652903,
				"z": -3.6377239625,
				"element": "C" 
			},
			{
				"x": -0.8836370694,
				"y": -0.4113381071,
				"z": -4.4023171125,
				"element": "N" 
			},
			{
				"x": -2.2300807136,
				"y": -0.4494346421,
				"z": -3.8330881141,
				"element": "C" 
			},
			{
				"x": -2.2073351558,
				"y": 0.2906359486,
				"z": -2.4936763212,
				"element": "C" 
			},
			{
				"x": -1.0723110614,
				"y": -0.1912773468,
				"z": -1.6104354047,
				"element": "C" 
			},
			{
				"x": -1.0738825157,
				"y": 0.0839283053,
				"z": -0.2366184166,
				"element": "C" 
			},
			{
				"x": 0.7987383672,
				"y": 0.1723524044,
				"z": 4.4360181628,
				"element": "H" 
			},
			{
				"x": -0.4170388972,
				"y": 1.4198570869,
				"z": 4.1072111419,
				"element": "H" 
			},
			{
				"x": 1.290749998,
				"y": 1.8717341751,
				"z": 4.2931411858,
				"element": "H" 
			},
			{
				"x": 1.8528107398,
				"y": 0.6037843048,
				"z": 2.1920898756,
				"element": "H" 
			},
			{
				"x": 0.6487819793,
				"y": 1.8714140411,
				"z": 1.8719051039,
				"element": "H" 
			},
			{
				"x": 0.9900871788,
				"y": -2.2609236554,
				"z": 2.4044094371,
				"element": "H" 
			},
			{
				"x": 1.4477343448,
				"y": -3.4275289546,
				"z": 1.1438271592,
				"element": "H" 
			},
			{
				"x": 2.887584785,
				"y": -3.7267356251,
				"z": 3.1717133391,
				"element": "H" 
			},
			{
				"x": 3.8665133735,
				"y": -3.1778544185,
				"z": 1.7947936292,
				"element": "H" 
			},
			{
				"x": 3.4067300122,
				"y": -2.0326078443,
				"z": 3.0672859177,
				"element": "H" 
			},
			{
				"x": 1.8887785603,
				"y": -1.8821977801,
				"z": -1.7247397891,
				"element": "H" 
			},
			{
				"x": -0.1681126283,
				"y": -2.3242991277,
				"z": -3.7429254269,
				"element": "H" 
			},
			{
				"x": 1.0585306826,
				"y": -1.084125465,
				"z": -4.0274917119,
				"element": "H" 
			},
			{
				"x": -0.9004318547,
				"y": -0.726456161,
				"z": -5.3676833304,
				"element": "H" 
			},
			{
				"x": -2.9208115166,
				"y": 0.0437434313,
				"z": -4.5248591743,
				"element": "H" 
			},
			{
				"x": -2.6013674555,
				"y": -1.4814490791,
				"z": -3.6777124867,
				"element": "H" 
			},
			{
				"x": -2.0852031959,
				"y": 1.3640246763,
				"z": -2.6894078647,
				"element": "H" 
			},
			{
				"x": -3.1663450961,
				"y": 0.1673334246,
				"z": -1.9760650183,
				"element": "H" 
			},
			{
				"x": -1.8961795111,
				"y": 0.6334931756,
				"z": 0.214232216,
				"element": "H" 
			}
		],
		 "valence_orbital": [ 
			{
				"type": "occ",
				"energy": -0.28168,
				"method": "rhf"
			},
			{
				"type": "occ",
				"energy": -0.25288,
				"method": "rhf"
			},
			{
				"type": "occ",
				"energy": -0.235,
				"method": "rhf"
			},
			{
				"type": "occ",
				"energy": -0.21779,
				"method": "rhf"
			},
			{
				"type": "occ",
				"energy": -0.2129,
				"method": "rhf"
			},
			{
				"type": "unocc",
				"energy": 0.00463,
				"method": "rhf"
			},
			{
				"type": "unocc",
				"energy": 0.01343,
				"method": "rhf"
			},
			{
				"type": "unocc",
				"energy": 0.0856,
				"method": "rhf"
			},
			{
				"type": "unocc",
				"energy": 0.09061,
				"method": "rhf"
			},
			{
				"type": "unocc",
				"energy": 0.10566,
				"method": "rhf"
			}
		],
		"cosmo_sigma_profile": { 
			"-0.025": 0.0,
			"-0.024": 0.0,
			"-0.023": 0.0,
			"-0.022": 0.0,
			"-0.021": 0.0,
			"-0.02": 0.0,
			"-0.019": 0.0,
			"-0.018": 0.0,
			"-0.017": 0.0,
			"-0.016": 0.0,
			"-0.015": 0.0,
			"-0.014": 0.0,
			"-0.013": 0.0,
			"-0.012": 0.0,
			"-0.011": 0.178797632006,
			"-0.01": 1.1264340835,
			"-0.009": 1.43371551432,
			"-0.008": 1.28109007369,
			"-0.007": 1.00776261395,
			"-0.006": 2.01559159426,
			"-0.005": 6.21586189985,
			"-0.004": 21.8803105514,
			"-0.003": 37.1927477767,
			"-0.002": 43.3012449588,
			"-0.001": 44.337054749,
			"0.0": 33.0910554495,
			"0.001": 19.6085449538,
			"0.002": 10.8127334138,
			"0.003": 9.57752508101,
			"0.004": 12.0106402581,
			"0.005": 11.6118845584,
			"0.006": 6.74783963224,
			"0.007": 3.28824881028,
			"0.008": 2.77883641712,
			"0.009": 3.29729002595,
			"0.01": 2.53681367966,
			"0.011": 2.34528566067,
			"0.012": 2.34482091265,
			"0.013": 0.370504789867,
			"0.014": 0.711772829736,
			"0.015": 0.839471294577,
			"0.016": 0.261535979226,
			"0.017": 0.521841724995,
			"0.018": 0.295980698898,
			"0.019": 0.0,
			"0.02": 0.0,
			"0.021": 0.0,
			"0.022": 0.0,
			"0.023": 0.0,
			"0.024": 0.0,
			"0.025": 0.0
		}
	}
}
