{
	 "smiles": "OC1=C2C=C(F)C(F)=CC2=NC=C1", 
	 "Tm": 572.15, 
	 "num_atms": 18, 
	 "gaussian": { 
		 "optdone": 1, 
		 "sigma_profile": "yes", 
		 "theory": "DFT", 
		 "functional": "B3LYP", 
		 "basiset": "6-31G**", 
		 "properties": { 
			 "R2extent": 3255.6077, 
			 "electric_dipole_moment_norm": 2.34669015637, 
			 "electric_quadrupole_moment_norm": 4.23569558632, 
			 "total_energy": -675.607666343, 
			 "HOMO_LUMO_gap": 0.17729, 
			 "cosmo_polarized_energy": -10.93, 
			 "cosmo_cavitation_energy": 23.52, 
			 "cosmo_dispersion_energy": -17.56, 
			 "cosmo_repulsion_energy": 1.31, 
			 "cosmo_total_nonelectrostatic_energy": 7.26, 
			 "SMD_solvation_energy": 3.76 
		},
		"coords": [
			{
				"x": -2.6954727048,
				"y": 2.4927078691,
				"z": -1.7666522952,
				"element": "O" 
			},
			{
				"x": -2.6013417992,
				"y": 1.1408498098,
				"z": -1.8090580572,
				"element": "C" 
			},
			{
				"x": -1.9237183034,
				"y": 0.3778799967,
				"z": -0.8107774403,
				"element": "C" 
			},
			{
				"x": -1.2828655317,
				"y": 0.9498702655,
				"z": 0.3207371633,
				"element": "C" 
			},
			{
				"x": -0.6550009013,
				"y": 0.1423369581,
				"z": 1.2314620307,
				"element": "C" 
			},
			{
				"x": -0.0431657167,
				"y": 0.6615785132,
				"z": 2.3076548124,
				"element": "F" 
			},
			{
				"x": -0.6340607789,
				"y": -1.2623281783,
				"z": 1.062438128,
				"element": "C" 
			},
			{
				"x": -0.0016485101,
				"y": -1.9948470485,
				"z": 1.9913904842,
				"element": "F" 
			},
			{
				"x": -1.2408177568,
				"y": -1.8470357907,
				"z": -0.0154302275,
				"element": "C" 
			},
			{
				"x": -1.9043181959,
				"y": -1.0458261496,
				"z": -0.9854866574,
				"element": "C" 
			},
			{
				"x": -2.4902105383,
				"y": -1.6816843601,
				"z": -2.037103816,
				"element": "N" 
			},
			{
				"x": -3.1023570492,
				"y": -0.9237895028,
				"z": -2.9295758346,
				"element": "C" 
			},
			{
				"x": -3.1904094562,
				"y": 0.4808636837,
				"z": -2.8696011332,
				"element": "C" 
			},
			{
				"x": -2.2508569909,
				"y": 2.8399811095,
				"z": -0.9835895516,
				"element": "H" 
			},
			{
				"x": -1.2613406852,
				"y": 2.0192691162,
				"z": 0.5099644217,
				"element": "H" 
			},
			{
				"x": -1.2253330462,
				"y": -2.9225009282,
				"z": -0.1459254765,
				"element": "H" 
			},
			{
				"x": -3.5667160293,
				"y": -1.4450674074,
				"z": -3.765600686,
				"element": "H" 
			},
			{
				"x": -3.7086660061,
				"y": 1.0458420439,
				"z": -3.6358458647,
				"element": "H" 
			}
		],
		 "valence_orbital": [ 
			{
				"type": "occ",
				"energy": -0.34058,
				"method": "rhf"
			},
			{
				"type": "occ",
				"energy": -0.29085,
				"method": "rhf"
			},
			{
				"type": "occ",
				"energy": -0.26324,
				"method": "rhf"
			},
			{
				"type": "occ",
				"energy": -0.2549,
				"method": "rhf"
			},
			{
				"type": "occ",
				"energy": -0.23431,
				"method": "rhf"
			},
			{
				"type": "unocc",
				"energy": -0.05702,
				"method": "rhf"
			},
			{
				"type": "unocc",
				"energy": -0.02333,
				"method": "rhf"
			},
			{
				"type": "unocc",
				"energy": 0.01366,
				"method": "rhf"
			},
			{
				"type": "unocc",
				"energy": 0.03573,
				"method": "rhf"
			},
			{
				"type": "unocc",
				"energy": 0.07957,
				"method": "rhf"
			}
		],
		"cosmo_sigma_profile": { 
			"-0.025": 0.0,
			"-0.024": 0.0,
			"-0.023": 0.0,
			"-0.022": 0.0,
			"-0.021": 0.0,
			"-0.02": 0.126860063558,
			"-0.019": 0.933333568101,
			"-0.018": 1.02993131682,
			"-0.017": 0.903482918538,
			"-0.016": 1.40264622255,
			"-0.015": 0.833415830566,
			"-0.014": 0.402221304041,
			"-0.013": 1.17485172117,
			"-0.012": 1.56918889782,
			"-0.011": 1.35862237665,
			"-0.01": 0.751719504347,
			"-0.009": 1.05170232628,
			"-0.008": 2.26368325706,
			"-0.007": 5.37329619922,
			"-0.006": 7.01049748075,
			"-0.005": 7.50405855128,
			"-0.004": 5.6616465871,
			"-0.003": 7.28865424939,
			"-0.002": 9.78226360599,
			"-0.001": 15.4913300061,
			"0.0": 21.7188997341,
			"0.001": 20.36750564,
			"0.002": 17.3781262023,
			"0.003": 23.6238249985,
			"0.004": 13.6226440034,
			"0.005": 2.98337794303,
			"0.006": 2.67251875741,
			"0.007": 3.07968725598,
			"0.008": 2.29307011064,
			"0.009": 2.97790800012,
			"0.01": 3.08161976326,
			"0.011": 0.82417115017,
			"0.012": 0.561696830821,
			"0.013": 0.525257265916,
			"0.014": 1.2851238183,
			"0.015": 0.69745740989,
			"0.016": 0.666186617258,
			"0.017": 0.0553622586387,
			"0.018": 0.0,
			"0.019": 0.0,
			"0.02": 0.0,
			"0.021": 0.0,
			"0.022": 0.0,
			"0.023": 0.0,
			"0.024": 0.0,
			"0.025": 0.0
		}
	}
}
