{
	 "smiles": "CC(C)(C)OC(=O)N1CCN(CC1)C1=NC=CC(=C1)C(O)=O", 
	 "Tm": 448.15, 
	 "num_atms": 43, 
	 "gaussian": { 
		 "optdone": 1, 
		 "sigma_profile": "yes", 
		 "theory": "DFT", 
		 "functional": "B3LYP", 
		 "basiset": "6-31G**", 
		 "properties": { 
			 "R2extent": 11794.6553, 
			 "electric_dipole_moment_norm": 1.92320286501, 
			 "electric_quadrupole_moment_norm": 15.7365209808, 
			 "total_energy": -1049.45673529, 
			 "HOMO_LUMO_gap": 0.14915, 
			 "cosmo_polarized_energy": -15.6, 
			 "cosmo_cavitation_energy": 44.74, 
			 "cosmo_dispersion_energy": -31.74, 
			 "cosmo_repulsion_energy": 2.43, 
			 "cosmo_total_nonelectrostatic_energy": 15.43, 
			 "SMD_solvation_energy": 7.51 
		},
		"coords": [
			{
				"x": -4.8273468779,
				"y": -0.3045880895,
				"z": 2.2873813212,
				"element": "C" 
			},
			{
				"x": -3.4287252623,
				"y": -0.4603925386,
				"z": 2.8939743295,
				"element": "C" 
			},
			{
				"x": -3.2577857079,
				"y": -1.8511216265,
				"z": 3.5113724059,
				"element": "C" 
			},
			{
				"x": -3.1152819154,
				"y": 0.6318472781,
				"z": 3.9220728431,
				"element": "C" 
			},
			{
				"x": -2.4133990005,
				"y": -0.458980468,
				"z": 1.8283443731,
				"element": "O" 
			},
			{
				"x": -2.2405217183,
				"y": 0.6265185457,
				"z": 1.0348026335,
				"element": "C" 
			},
			{
				"x": -2.8833629314,
				"y": 1.6648178393,
				"z": 1.102214854,
				"element": "O" 
			},
			{
				"x": -1.223468819,
				"y": 0.4224233007,
				"z": 0.1348359464,
				"element": "N" 
			},
			{
				"x": -0.5152079354,
				"y": -0.8344029436,
				"z": -0.061129617,
				"element": "C" 
			},
			{
				"x": 0.9938411644,
				"y": -0.5910403867,
				"z": -0.1908094512,
				"element": "C" 
			},
			{
				"x": 1.2718732028,
				"y": 0.4188174288,
				"z": -1.2067377437,
				"element": "N" 
			},
			{
				"x": 0.5492847783,
				"y": 1.6789530902,
				"z": -0.9981118706,
				"element": "C" 
			},
			{
				"x": -0.9527090546,
				"y": 1.4299408644,
				"z": -0.8849077114,
				"element": "C" 
			},
			{
				"x": 2.4645144191,
				"y": 0.4291782617,
				"z": -1.9163540546,
				"element": "C" 
			},
			{
				"x": 2.696010597,
				"y": 1.5111357628,
				"z": -2.6859236714,
				"element": "N" 
			},
			{
				"x": 3.8005450988,
				"y": 1.5509252494,
				"z": -3.4344649994,
				"element": "C" 
			},
			{
				"x": 4.7572895343,
				"y": 0.5421075465,
				"z": -3.4772203006,
				"element": "C" 
			},
			{
				"x": 4.5307649951,
				"y": -0.5747615915,
				"z": -2.6621851995,
				"element": "C" 
			},
			{
				"x": 3.3890846411,
				"y": -0.6404960648,
				"z": -1.8712884513,
				"element": "C" 
			},
			{
				"x": 5.4834753275,
				"y": -1.7222535329,
				"z": -2.5894138158,
				"element": "C" 
			},
			{
				"x": 6.5598371329,
				"y": -1.5644988177,
				"z": -3.3951093045,
				"element": "O" 
			},
			{
				"x": 5.3334232639,
				"y": -2.7047461889,
				"z": -1.8911835944,
				"element": "O" 
			},
			{
				"x": -5.0004200349,
				"y": -1.0757587219,
				"z": 1.5298924624,
				"element": "H" 
			},
			{
				"x": -4.9459627785,
				"y": 0.6765474195,
				"z": 1.8277128779,
				"element": "H" 
			},
			{
				"x": -5.582545999,
				"y": -0.4235591352,
				"z": 3.0711853735,
				"element": "H" 
			},
			{
				"x": -2.2456210101,
				"y": -1.9772686152,
				"z": 3.9070835119,
				"element": "H" 
			},
			{
				"x": -3.9688518853,
				"y": -1.987973264,
				"z": 4.3314334633,
				"element": "H" 
			},
			{
				"x": -3.4369091785,
				"y": -2.6304547809,
				"z": 2.7647721165,
				"element": "H" 
			},
			{
				"x": -2.0956139727,
				"y": 0.5136988035,
				"z": 4.302627684,
				"element": "H" 
			},
			{
				"x": -3.2162792597,
				"y": 1.623398966,
				"z": 3.480801343,
				"element": "H" 
			},
			{
				"x": -3.804767497,
				"y": 0.547746609,
				"z": 4.7684667145,
				"element": "H" 
			},
			{
				"x": -0.7113446731,
				"y": -1.4953137807,
				"z": 0.7809843155,
				"element": "H" 
			},
			{
				"x": -0.8757287906,
				"y": -1.3239660267,
				"z": -0.9788776472,
				"element": "H" 
			},
			{
				"x": 1.4014206243,
				"y": -0.284925581,
				"z": 0.7871595568,
				"element": "H" 
			},
			{
				"x": 1.4584698231,
				"y": -1.5380183297,
				"z": -0.4669154569,
				"element": "H" 
			},
			{
				"x": 0.9071981201,
				"y": 2.1675605116,
				"z": -0.0770104933,
				"element": "H" 
			},
			{
				"x": 0.7658656623,
				"y": 2.3377187738,
				"z": -1.8370857064,
				"element": "H" 
			},
			{
				"x": -1.3417782159,
				"y": 1.0879732244,
				"z": -1.8557602368,
				"element": "H" 
			},
			{
				"x": -1.4750590883,
				"y": 2.3445110687,
				"z": -0.6045563854,
				"element": "H" 
			},
			{
				"x": 3.9277439609,
				"y": 2.4501798063,
				"z": -4.0352528173,
				"element": "H" 
			},
			{
				"x": 5.6386858478,
				"y": 0.6209944819,
				"z": -4.100112756,
				"element": "H" 
			},
			{
				"x": 3.2594595464,
				"y": -1.5100874253,
				"z": -1.2420624043,
				"element": "H" 
			},
			{
				"x": 7.1051038662,
				"y": -2.358686923,
				"z": -3.2699444372,
				"element": "H" 
			}
		],
		 "valence_orbital": [ 
			{
				"type": "occ",
				"energy": -0.28493,
				"method": "rhf"
			},
			{
				"type": "occ",
				"energy": -0.26126,
				"method": "rhf"
			},
			{
				"type": "occ",
				"energy": -0.26001,
				"method": "rhf"
			},
			{
				"type": "occ",
				"energy": -0.24067,
				"method": "rhf"
			},
			{
				"type": "occ",
				"energy": -0.20877,
				"method": "rhf"
			},
			{
				"type": "unocc",
				"energy": -0.05962,
				"method": "rhf"
			},
			{
				"type": "unocc",
				"energy": -0.00215,
				"method": "rhf"
			},
			{
				"type": "unocc",
				"energy": 0.05047,
				"method": "rhf"
			},
			{
				"type": "unocc",
				"energy": 0.05253,
				"method": "rhf"
			},
			{
				"type": "unocc",
				"energy": 0.07281,
				"method": "rhf"
			}
		],
		"cosmo_sigma_profile": { 
			"-0.025": 0.0,
			"-0.024": 0.0,
			"-0.023": 0.0,
			"-0.022": 0.0,
			"-0.021": 0.0,
			"-0.02": 0.0,
			"-0.019": 0.0668013129538,
			"-0.018": 1.0787687461,
			"-0.017": 0.901213190855,
			"-0.016": 0.975070362108,
			"-0.015": 0.83336668113,
			"-0.014": 0.62856041185,
			"-0.013": 0.142113667598,
			"-0.012": 0.698763142963,
			"-0.011": 1.33668980972,
			"-0.01": 0.522083303407,
			"-0.009": 1.09085434188,
			"-0.008": 2.09651765857,
			"-0.007": 3.20494582504,
			"-0.006": 7.36704029183,
			"-0.005": 12.3655637552,
			"-0.004": 35.6908543109,
			"-0.003": 42.1609708109,
			"-0.002": 31.4310276632,
			"-0.001": 31.9625659821,
			"0.0": 34.8736840511,
			"0.001": 37.4593106773,
			"0.002": 24.903014005,
			"0.003": 16.2072080649,
			"0.004": 10.1745335108,
			"0.005": 10.6405909595,
			"0.006": 6.67134541104,
			"0.007": 7.29221059845,
			"0.008": 4.38905502407,
			"0.009": 3.99719668491,
			"0.01": 5.99592654398,
			"0.011": 6.85309989452,
			"0.012": 3.69168322816,
			"0.013": 3.04166347066,
			"0.014": 0.960234002366,
			"0.015": 0.0,
			"0.016": 0.0,
			"0.017": 0.0,
			"0.018": 0.0,
			"0.019": 0.0,
			"0.02": 0.0,
			"0.021": 0.0,
			"0.022": 0.0,
			"0.023": 0.0,
			"0.024": 0.0,
			"0.025": 0.0
		}
	}
}
