{
	 "smiles": "OC(=O)C1=C(C=CS1)C1=CC=C(F)C=C1", 
	 "Tm": 473.15, 
	 "num_atms": 22, 
	 "gaussian": { 
		 "optdone": 1, 
		 "sigma_profile": "yes", 
		 "theory": "DFT", 
		 "functional": "B3LYP", 
		 "basiset": "6-31G**", 
		 "properties": { 
			 "R2extent": 4456.5499, 
			 "electric_dipole_moment_norm": 4.92895259766, 
			 "electric_quadrupole_moment_norm": 10.4961028944, 
			 "total_energy": -1071.85205962, 
			 "HOMO_LUMO_gap": 0.16821, 
			 "cosmo_polarized_energy": -13.15, 
			 "cosmo_cavitation_energy": 28.76, 
			 "cosmo_dispersion_energy": -21.48, 
			 "cosmo_repulsion_energy": 1.59, 
			 "cosmo_total_nonelectrostatic_energy": 8.88, 
			 "SMD_solvation_energy": 6.36 
		},
		"coords": [
			{
				"x": 0.1084414876,
				"y": 4.0854122875,
				"z": 0.8420910699,
				"element": "O" 
			},
			{
				"x": -0.163506943,
				"y": 3.1539681182,
				"z": -0.1153395145,
				"element": "C" 
			},
			{
				"x": 0.1591183413,
				"y": 3.3696943818,
				"z": -1.2609055834,
				"element": "O" 
			},
			{
				"x": -0.8770535794,
				"y": 1.9400107205,
				"z": 0.3530337951,
				"element": "C" 
			},
			{
				"x": -0.813325809,
				"y": 0.6333209886,
				"z": -0.1167193669,
				"element": "C" 
			},
			{
				"x": -1.6154573076,
				"y": -0.2455673321,
				"z": 0.6891525038,
				"element": "C" 
			},
			{
				"x": -2.2662062146,
				"y": 0.3729969832,
				"z": 1.7166002728,
				"element": "C" 
			},
			{
				"x": -1.933053403,
				"y": 2.0645360355,
				"z": 1.7521257676,
				"element": "S" 
			},
			{
				"x": -0.0151908213,
				"y": 0.0958626282,
				"z": -1.2448997295,
				"element": "C" 
			},
			{
				"x": 0.038936413,
				"y": 0.717799523,
				"z": -2.5043166434,
				"element": "C" 
			},
			{
				"x": 0.7573640203,
				"y": 0.1456616611,
				"z": -3.5519001295,
				"element": "C" 
			},
			{
				"x": 1.4265114023,
				"y": -1.0531799583,
				"z": -3.336815436,
				"element": "C" 
			},
			{
				"x": 2.1239738313,
				"y": -1.6074369486,
				"z": -4.3487044633,
				"element": "F" 
			},
			{
				"x": 1.3970078361,
				"y": -1.6992156631,
				"z": -2.1058655386,
				"element": "C" 
			},
			{
				"x": 0.6697367506,
				"y": -1.1212832545,
				"z": -1.0687808426,
				"element": "C" 
			},
			{
				"x": -0.0147408838,
				"y": 3.7135360609,
				"z": 1.7279189302,
				"element": "H" 
			},
			{
				"x": -1.7174946264,
				"y": -1.3024860944,
				"z": 0.4734727433,
				"element": "H" 
			},
			{
				"x": -2.9558691943,
				"y": -0.0596840251,
				"z": 2.4282711425,
				"element": "H" 
			},
			{
				"x": -0.4727206708,
				"y": 1.6580391092,
				"z": -2.65645223,
				"element": "H" 
			},
			{
				"x": 0.8025399682,
				"y": 0.6172921048,
				"z": -4.5274339002,
				"element": "H" 
			},
			{
				"x": 1.9374196035,
				"y": -2.630055073,
				"z": -1.9730520985,
				"element": "H" 
			},
			{
				"x": 0.651769799,
				"y": -1.6119222535,
				"z": -0.1002807489,
				"element": "H" 
			}
		],
		 "valence_orbital": [ 
			{
				"type": "occ",
				"energy": -0.28535,
				"method": "rhf"
			},
			{
				"type": "occ",
				"energy": -0.28265,
				"method": "rhf"
			},
			{
				"type": "occ",
				"energy": -0.26322,
				"method": "rhf"
			},
			{
				"type": "occ",
				"energy": -0.26176,
				"method": "rhf"
			},
			{
				"type": "occ",
				"energy": -0.23385,
				"method": "rhf"
			},
			{
				"type": "unocc",
				"energy": -0.06564,
				"method": "rhf"
			},
			{
				"type": "unocc",
				"energy": -0.01429,
				"method": "rhf"
			},
			{
				"type": "unocc",
				"energy": -0.00853,
				"method": "rhf"
			},
			{
				"type": "unocc",
				"energy": -0.00138,
				"method": "rhf"
			},
			{
				"type": "unocc",
				"energy": 0.02256,
				"method": "rhf"
			}
		],
		"cosmo_sigma_profile": { 
			"-0.025": 0.0,
			"-0.024": 0.0,
			"-0.023": 0.0,
			"-0.022": 0.0,
			"-0.021": 0.0,
			"-0.02": 0.0,
			"-0.019": 0.0,
			"-0.018": 0.262252494753,
			"-0.017": 0.605715742722,
			"-0.016": 0.809083272608,
			"-0.015": 0.438003156055,
			"-0.014": 0.697502313925,
			"-0.013": 1.2111604853,
			"-0.012": 1.34875707927,
			"-0.011": 1.01273591326,
			"-0.01": 1.68199815214,
			"-0.009": 3.04376905249,
			"-0.008": 3.12666416096,
			"-0.007": 9.90090832928,
			"-0.006": 11.6194753594,
			"-0.005": 10.9277048116,
			"-0.004": 12.664237616,
			"-0.003": 12.1747875608,
			"-0.002": 11.0052713122,
			"-0.001": 12.9198683002,
			"0.0": 18.9257092145,
			"0.001": 26.5512524833,
			"0.002": 23.2524524793,
			"0.003": 21.5899071752,
			"0.004": 17.3222572099,
			"0.005": 5.8514241241,
			"0.006": 3.28703699983,
			"0.007": 2.83892979377,
			"0.008": 3.55928388574,
			"0.009": 2.73283859132,
			"0.01": 5.23455342485,
			"0.011": 3.81226964648,
			"0.012": 2.79103160059,
			"0.013": 0.929870091001,
			"0.014": 0.0,
			"0.015": 0.0,
			"0.016": 0.0,
			"0.017": 0.0,
			"0.018": 0.0,
			"0.019": 0.0,
			"0.02": 0.0,
			"0.021": 0.0,
			"0.022": 0.0,
			"0.023": 0.0,
			"0.024": 0.0,
			"0.025": 0.0
		}
	}
}
