{
	 "smiles": "CN1C(=NC2=C1C=CN=C2)C1CC1", 
	 "Tm": 374.15, 
	 "num_atms": 24, 
	 "gaussian": { 
		 "optdone": 1, 
		 "sigma_profile": "yes", 
		 "theory": "DFT", 
		 "functional": "B3LYP", 
		 "basiset": "6-31G**", 
		 "properties": { 
			 "R2extent": 2735.4423, 
			 "electric_dipole_moment_norm": 5.85519903248, 
			 "electric_quadrupole_moment_norm": 9.05994746342, 
			 "total_energy": -551.926761351, 
			 "HOMO_LUMO_gap": 0.20068, 
			 "cosmo_polarized_energy": -13.79, 
			 "cosmo_cavitation_energy": 27.21, 
			 "cosmo_dispersion_energy": -20.06, 
			 "cosmo_repulsion_energy": 1.57, 
			 "cosmo_total_nonelectrostatic_energy": 8.71, 
			 "SMD_solvation_energy": 1.29 
		},
		"coords": [
			{
				"x": -1.1468894623,
				"y": 0.7103008167,
				"z": -2.9966829922,
				"element": "C" 
			},
			{
				"x": -0.5886514782,
				"y": 0.5925840043,
				"z": -1.6607110413,
				"element": "N" 
			},
			{
				"x": -0.9204409077,
				"y": 1.3279016566,
				"z": -0.5254438337,
				"element": "C" 
			},
			{
				"x": -0.2411847341,
				"y": 0.9648691044,
				"z": 0.539292521,
				"element": "N" 
			},
			{
				"x": 0.5781583008,
				"y": -0.0650183442,
				"z": 0.1108512468,
				"element": "C" 
			},
			{
				"x": 0.3709224443,
				"y": -0.3205916593,
				"z": -1.2626510207,
				"element": "C" 
			},
			{
				"x": 1.0819910071,
				"y": -1.326082329,
				"z": -1.917634212,
				"element": "C" 
			},
			{
				"x": 1.9903302807,
				"y": -2.0284804412,
				"z": -1.1265600016,
				"element": "C" 
			},
			{
				"x": 2.2122328167,
				"y": -1.8050834125,
				"z": 0.1851604817,
				"element": "N" 
			},
			{
				"x": 1.519490302,
				"y": -0.8413384441,
				"z": 0.7955742779,
				"element": "C" 
			},
			{
				"x": -1.9221856809,
				"y": 2.4116264953,
				"z": -0.5426456938,
				"element": "C" 
			},
			{
				"x": -2.637726536,
				"y": 2.7534091738,
				"z": 0.7523176281,
				"element": "C" 
			},
			{
				"x": -1.6144678521,
				"y": 3.7003502522,
				"z": 0.2104301503,
				"element": "C" 
			},
			{
				"x": -2.083810367,
				"y": 0.1510304326,
				"z": -3.0981690922,
				"element": "H" 
			},
			{
				"x": -1.3291628945,
				"y": 1.7587976706,
				"z": -3.240508609,
				"element": "H" 
			},
			{
				"x": -0.4264002592,
				"y": 0.3186155516,
				"z": -3.7174083807,
				"element": "H" 
			},
			{
				"x": 0.9506828971,
				"y": -1.5659389017,
				"z": -2.9680854398,
				"element": "H" 
			},
			{
				"x": 2.5796312227,
				"y": -2.8269368286,
				"z": -1.5732326817,
				"element": "H" 
			},
			{
				"x": 1.7109709116,
				"y": -0.6764267538,
				"z": 1.8541357234,
				"element": "H" 
			},
			{
				"x": -2.4988550399,
				"y": 2.5085105526,
				"z": -1.4563803578,
				"element": "H" 
			},
			{
				"x": -3.6875143934,
				"y": 3.0214706683,
				"z": 0.6838115086,
				"element": "H" 
			},
			{
				"x": -2.3608637363,
				"y": 2.1557106826,
				"z": 1.6139762299,
				"element": "H" 
			},
			{
				"x": -1.9450210143,
				"y": 4.6319683502,
				"z": -0.2389394879,
				"element": "H" 
			},
			{
				"x": -0.6524358272,
				"y": 3.7393517024,
				"z": 0.7102030768,
				"element": "H" 
			}
		],
		 "valence_orbital": [ 
			{
				"type": "occ",
				"energy": -0.29596,
				"method": "rhf"
			},
			{
				"type": "occ",
				"energy": -0.27467,
				"method": "rhf"
			},
			{
				"type": "occ",
				"energy": -0.24198,
				"method": "rhf"
			},
			{
				"type": "occ",
				"energy": -0.23934,
				"method": "rhf"
			},
			{
				"type": "occ",
				"energy": -0.21922,
				"method": "rhf"
			},
			{
				"type": "unocc",
				"energy": -0.01854,
				"method": "rhf"
			},
			{
				"type": "unocc",
				"energy": 0.01074,
				"method": "rhf"
			},
			{
				"type": "unocc",
				"energy": 0.04319,
				"method": "rhf"
			},
			{
				"type": "unocc",
				"energy": 0.07147,
				"method": "rhf"
			},
			{
				"type": "unocc",
				"energy": 0.09634,
				"method": "rhf"
			}
		],
		"cosmo_sigma_profile": { 
			"-0.025": 0.0,
			"-0.024": 0.0,
			"-0.023": 0.0,
			"-0.022": 0.0,
			"-0.021": 0.0,
			"-0.02": 0.0,
			"-0.019": 0.0,
			"-0.018": 0.0,
			"-0.017": 0.0,
			"-0.016": 0.0,
			"-0.015": 0.0,
			"-0.014": 0.0,
			"-0.013": 0.0,
			"-0.012": 0.0,
			"-0.011": 0.0,
			"-0.01": 0.0,
			"-0.009": 0.0,
			"-0.008": 2.60141786302,
			"-0.007": 8.3170955073,
			"-0.006": 13.9366652413,
			"-0.005": 21.8238189722,
			"-0.004": 20.1274381605,
			"-0.003": 18.8289535007,
			"-0.002": 12.0694121184,
			"-0.001": 14.1390645422,
			"0.0": 13.9623028716,
			"0.001": 14.8896315735,
			"0.002": 16.4351991099,
			"0.003": 16.4539141197,
			"0.004": 10.6217545273,
			"0.005": 5.2477697988,
			"0.006": 5.47585276778,
			"0.007": 2.21436014712,
			"0.008": 3.17738411787,
			"0.009": 2.84574625488,
			"0.01": 2.57962192118,
			"0.011": 2.30184657377,
			"0.012": 1.75949186895,
			"0.013": 1.50103024103,
			"0.014": 1.65933173926,
			"0.015": 1.81183111039,
			"0.016": 1.37137895058,
			"0.017": 0.683029456562,
			"0.018": 0.293929291196,
			"0.019": 0.0,
			"0.02": 0.0,
			"0.021": 0.0,
			"0.022": 0.0,
			"0.023": 0.0,
			"0.024": 0.0,
			"0.025": 0.0
		}
	}
}
