{
	 "smiles": "[O-][N+](=O)C1=CC=C(NC(=O)NC2=CC=C(C=C2)[N+]([O-])=O)C=C1", 
	 "Tm": 585.15, 
	 "num_atms": 32, 
	 "gaussian": { 
		 "optdone": 1, 
		 "sigma_profile": "yes", 
		 "theory": "DFT", 
		 "functional": "B3LYP", 
		 "basiset": "6-31G**", 
		 "properties": { 
			 "R2extent": 14454.6198, 
			 "electric_dipole_moment_norm": 5.96127351746, 
			 "electric_quadrupole_moment_norm": 66.6782297704, 
			 "total_energy": -1096.36665771, 
			 "HOMO_LUMO_gap": 0.15513, 
			 "cosmo_polarized_energy": -30.02, 
			 "cosmo_cavitation_energy": 39.28, 
			 "cosmo_dispersion_energy": -28.99, 
			 "cosmo_repulsion_energy": 2.15, 
			 "cosmo_total_nonelectrostatic_energy": 12.44, 
			 "SMD_solvation_energy": 11.61 
		},
		"coords": [
			{
				"x": -3.1055268392,
				"y": -2.0933354943,
				"z": 5.7120391991,
				"element": "O" 
			},
			{
				"x": -3.4853171913,
				"y": -1.0861794452,
				"z": 5.1140290048,
				"element": "N" 
			},
			{
				"x": -4.3063925164,
				"y": -0.2784819929,
				"z": 5.5523476507,
				"element": "O" 
			},
			{
				"x": -2.9218317439,
				"y": -0.8287602398,
				"z": 3.7872549649,
				"element": "C" 
			},
			{
				"x": -1.9900953864,
				"y": -1.7164333787,
				"z": 3.2528066831,
				"element": "C" 
			},
			{
				"x": -1.4488138016,
				"y": -1.4815585898,
				"z": 1.9940544159,
				"element": "C" 
			},
			{
				"x": -1.8490497215,
				"y": -0.3443030684,
				"z": 1.2686709054,
				"element": "C" 
			},
			{
				"x": -1.360519586,
				"y": -0.0222078291,
				"z": -0.0067922923,
				"element": "N" 
			},
			{
				"x": -0.4317719929,
				"y": -0.7232420069,
				"z": -0.7696675421,
				"element": "C" 
			},
			{
				"x": 0.1036474367,
				"y": -1.7594706219,
				"z": -0.4114787298,
				"element": "O" 
			},
			{
				"x": -0.1867750471,
				"y": -0.101140376,
				"z": -1.9899073666,
				"element": "N" 
			},
			{
				"x": 0.6823539625,
				"y": -0.5153549253,
				"z": -3.0108324104,
				"element": "C" 
			},
			{
				"x": 0.7466961591,
				"y": 0.2999285783,
				"z": -4.1578578092,
				"element": "C" 
			},
			{
				"x": 1.577281055,
				"y": -0.0295002573,
				"z": -5.2172932575,
				"element": "C" 
			},
			{
				"x": 2.3519645693,
				"y": -1.185681578,
				"z": -5.1302155186,
				"element": "C" 
			},
			{
				"x": 2.30362766,
				"y": -2.0061958566,
				"z": -4.0049795098,
				"element": "C" 
			},
			{
				"x": 1.4714285574,
				"y": -1.6781967675,
				"z": -2.940803704,
				"element": "C" 
			},
			{
				"x": 3.2321368591,
				"y": -1.540977341,
				"z": -6.2451888631,
				"element": "N" 
			},
			{
				"x": 3.904164917,
				"y": -2.5673737235,
				"z": -6.1398129758,
				"element": "O" 
			},
			{
				"x": 3.2471469351,
				"y": -0.7905270397,
				"z": -7.2225664489,
				"element": "O" 
			},
			{
				"x": -2.7923212666,
				"y": 0.5400162956,
				"z": 1.8278955691,
				"element": "C" 
			},
			{
				"x": -3.3303398354,
				"y": 0.3033375568,
				"z": 3.0830114127,
				"element": "C" 
			},
			{
				"x": -1.6968720033,
				"y": -2.5851002189,
				"z": 3.8291395977,
				"element": "H" 
			},
			{
				"x": -0.7260528255,
				"y": -2.1611712186,
				"z": 1.568120097,
				"element": "H" 
			},
			{
				"x": -1.7447123489,
				"y": 0.8266467982,
				"z": -0.396177454,
				"element": "H" 
			},
			{
				"x": -0.6837865207,
				"y": 0.7548786111,
				"z": -2.1898989628,
				"element": "H" 
			},
			{
				"x": 0.1387662637,
				"y": 1.1995454163,
				"z": -4.2165797284,
				"element": "H" 
			},
			{
				"x": 1.6365982109,
				"y": 0.5877837722,
				"z": -6.1047099309,
				"element": "H" 
			},
			{
				"x": 2.9197577142,
				"y": -2.8961947291,
				"z": -3.9731232021,
				"element": "H" 
			},
			{
				"x": 1.4242588461,
				"y": -2.3050070634,
				"z": -2.0629902916,
				"element": "H" 
			},
			{
				"x": -3.1046877053,
				"y": 1.420226592,
				"z": 1.2711155242,
				"element": "H" 
			},
			{
				"x": -4.055962814,
				"y": 0.9744301415,
				"z": 3.5247909733,
				"element": "H" 
			}
		],
		 "valence_orbital": [ 
			{
				"type": "occ",
				"energy": -0.29033,
				"method": "rhf"
			},
			{
				"type": "occ",
				"energy": -0.28697,
				"method": "rhf"
			},
			{
				"type": "occ",
				"energy": -0.28667,
				"method": "rhf"
			},
			{
				"type": "occ",
				"energy": -0.26791,
				"method": "rhf"
			},
			{
				"type": "occ",
				"energy": -0.24905,
				"method": "rhf"
			},
			{
				"type": "unocc",
				"energy": -0.09392,
				"method": "rhf"
			},
			{
				"type": "unocc",
				"energy": -0.08579,
				"method": "rhf"
			},
			{
				"type": "unocc",
				"energy": -0.03527,
				"method": "rhf"
			},
			{
				"type": "unocc",
				"energy": -0.03522,
				"method": "rhf"
			},
			{
				"type": "unocc",
				"energy": -0.02075,
				"method": "rhf"
			}
		],
		"cosmo_sigma_profile": { 
			"-0.025": 0.0,
			"-0.024": 0.0,
			"-0.023": 0.0,
			"-0.022": 0.114870498951,
			"-0.021": 0.882468490384,
			"-0.02": 0.990366279433,
			"-0.019": 1.39179481898,
			"-0.018": 1.37545257716,
			"-0.017": 2.09473013472,
			"-0.016": 1.80012821123,
			"-0.015": 2.17094959776,
			"-0.014": 2.04759141917,
			"-0.013": 1.54224595912,
			"-0.012": 2.47684824498,
			"-0.011": 1.63611988462,
			"-0.01": 1.3076904848,
			"-0.009": 3.10913326918,
			"-0.008": 5.08979629263,
			"-0.007": 9.39910549413,
			"-0.006": 12.1063033106,
			"-0.005": 12.9827272377,
			"-0.004": 13.3128789835,
			"-0.003": 16.1398557999,
			"-0.002": 17.9638609816,
			"-0.001": 26.3951338904,
			"0.0": 27.2766096118,
			"0.001": 34.7032680268,
			"0.002": 27.4590130623,
			"0.003": 10.2960080964,
			"0.004": 6.18135222467,
			"0.005": 7.295461138,
			"0.006": 8.97584581723,
			"0.007": 11.2982009099,
			"0.008": 21.5343271774,
			"0.009": 12.0795232071,
			"0.01": 10.1284248981,
			"0.011": 3.05097628051,
			"0.012": 0.0,
			"0.013": 0.0,
			"0.014": 0.0,
			"0.015": 0.0,
			"0.016": 0.0,
			"0.017": 0.0,
			"0.018": 0.0,
			"0.019": 0.0,
			"0.02": 0.0,
			"0.021": 0.0,
			"0.022": 0.0,
			"0.023": 0.0,
			"0.024": 0.0,
			"0.025": 0.0
		}
	}
}
