{
	 "smiles": "NC1=C(C=CC=C1)N1CCOC1=O", 
	 "Tm": 362.15, 
	 "num_atms": 23, 
	 "gaussian": { 
		 "optdone": 1, 
		 "sigma_profile": "yes", 
		 "theory": "DFT", 
		 "functional": "B3LYP", 
		 "basiset": "6-31G**", 
		 "properties": { 
			 "R2extent": 3288.9594, 
			 "electric_dipole_moment_norm": 3.49335441374, 
			 "electric_quadrupole_moment_norm": 18.2690862213, 
			 "total_energy": -608.950798764, 
			 "HOMO_LUMO_gap": 0.19501, 
			 "cosmo_polarized_energy": -14.52, 
			 "cosmo_cavitation_energy": 25.95, 
			 "cosmo_dispersion_energy": -19.6, 
			 "cosmo_repulsion_energy": 1.55, 
			 "cosmo_total_nonelectrostatic_energy": 7.9, 
			 "SMD_solvation_energy": 5.0 
		},
		"coords": [
			{
				"x": -2.6204081246,
				"y": 0.4547846797,
				"z": 0.0529039806,
				"element": "N" 
			},
			{
				"x": -1.7419682613,
				"y": 1.3210427272,
				"z": -0.5931921525,
				"element": "C" 
			},
			{
				"x": -0.5162494747,
				"y": 1.7140946201,
				"z": 0.0018463869,
				"element": "C" 
			},
			{
				"x": 0.3740119736,
				"y": 2.5280268206,
				"z": -0.7074246879,
				"element": "C" 
			},
			{
				"x": 0.093958243,
				"y": 2.9559084342,
				"z": -2.0031023124,
				"element": "C" 
			},
			{
				"x": -1.1073524007,
				"y": 2.5699321024,
				"z": -2.5988375827,
				"element": "C" 
			},
			{
				"x": -2.0090688202,
				"y": 1.77734861,
				"z": -1.8973086723,
				"element": "C" 
			},
			{
				"x": -0.1256910835,
				"y": 1.222077478,
				"z": 1.2839439886,
				"element": "N" 
			},
			{
				"x": 1.2575684755,
				"y": 0.883711969,
				"z": 1.6101249924,
				"element": "C" 
			},
			{
				"x": 1.0705429942,
				"y": 0.2366408522,
				"z": 2.9881719252,
				"element": "C" 
			},
			{
				"x": -0.1602989573,
				"y": 0.7929837585,
				"z": 3.480066822,
				"element": "O" 
			},
			{
				"x": -0.8894447139,
				"y": 1.2740408511,
				"z": 2.4293262013,
				"element": "C" 
			},
			{
				"x": -2.0345192844,
				"y": 1.6605510748,
				"z": 2.5516807883,
				"element": "O" 
			},
			{
				"x": -2.7675863505,
				"y": 0.6864067065,
				"z": 1.0327142139,
				"element": "H" 
			},
			{
				"x": -3.4996604136,
				"y": 0.3504595749,
				"z": -0.4371640888,
				"element": "H" 
			},
			{
				"x": 1.3041671174,
				"y": 2.8291786871,
				"z": -0.2358557264,
				"element": "H" 
			},
			{
				"x": 0.8027192662,
				"y": 3.583621248,
				"z": -2.5333494082,
				"element": "H" 
			},
			{
				"x": -1.3488609755,
				"y": 2.8922180121,
				"z": -3.6075544275,
				"element": "H" 
			},
			{
				"x": -2.9476670984,
				"y": 1.4837715644,
				"z": -2.3617145061,
				"element": "H" 
			},
			{
				"x": 1.6839567048,
				"y": 0.2012182664,
				"z": 0.8703127997,
				"element": "H" 
			},
			{
				"x": 1.8918165693,
				"y": 1.7783618019,
				"z": 1.6677477152,
				"element": "H" 
			},
			{
				"x": 1.8668898494,
				"y": 0.4748270678,
				"z": 3.6953122372,
				"element": "H" 
			},
			{
				"x": 0.9600447651,
				"y": -0.851306907,
				"z": 2.9163515135,
				"element": "H" 
			}
		],
		 "valence_orbital": [ 
			{
				"type": "occ",
				"energy": -0.29945,
				"method": "rhf"
			},
			{
				"type": "occ",
				"energy": -0.28655,
				"method": "rhf"
			},
			{
				"type": "occ",
				"energy": -0.2812,
				"method": "rhf"
			},
			{
				"type": "occ",
				"energy": -0.23302,
				"method": "rhf"
			},
			{
				"type": "occ",
				"energy": -0.19945,
				"method": "rhf"
			},
			{
				"type": "unocc",
				"energy": -0.00444,
				"method": "rhf"
			},
			{
				"type": "unocc",
				"energy": 0.01468,
				"method": "rhf"
			},
			{
				"type": "unocc",
				"energy": 0.04465,
				"method": "rhf"
			},
			{
				"type": "unocc",
				"energy": 0.07881,
				"method": "rhf"
			},
			{
				"type": "unocc",
				"energy": 0.08424,
				"method": "rhf"
			}
		],
		"cosmo_sigma_profile": { 
			"-0.025": 0.0,
			"-0.024": 0.0,
			"-0.023": 0.0,
			"-0.022": 0.0,
			"-0.021": 0.0,
			"-0.02": 0.0,
			"-0.019": 0.0,
			"-0.018": 0.0,
			"-0.017": 0.0,
			"-0.016": 0.0,
			"-0.015": 0.0,
			"-0.014": 0.0,
			"-0.013": 0.00199738536996,
			"-0.012": 0.82689909701,
			"-0.011": 1.50329429526,
			"-0.01": 1.7477258982,
			"-0.009": 1.43238765624,
			"-0.008": 2.69744135463,
			"-0.007": 13.6165486594,
			"-0.006": 21.0255504915,
			"-0.005": 18.7563894584,
			"-0.004": 16.56552471,
			"-0.003": 12.3957822521,
			"-0.002": 10.0913387835,
			"-0.001": 9.04570869002,
			"0.0": 7.77964661281,
			"0.001": 8.28418389063,
			"0.002": 7.69225385154,
			"0.003": 8.96013574697,
			"0.004": 10.7481661524,
			"0.005": 11.3915477381,
			"0.006": 11.6893553569,
			"0.007": 4.93941497905,
			"0.008": 4.09043396053,
			"0.009": 3.88594425389,
			"0.01": 5.27999109941,
			"0.011": 3.85074484692,
			"0.012": 4.18465712996,
			"0.013": 2.51009343342,
			"0.014": 1.13130170989,
			"0.015": 0.38509831609,
			"0.016": 0.0100285877884,
			"0.017": 0.0,
			"0.018": 0.0,
			"0.019": 0.0,
			"0.02": 0.0,
			"0.021": 0.0,
			"0.022": 0.0,
			"0.023": 0.0,
			"0.024": 0.0,
			"0.025": 0.0
		}
	}
}
