{
	 "smiles": "OC(=O)C1=CSC(COC2=CC=C(Cl)C=C2)=N1", 
	 "Tm": 491.15, 
	 "num_atms": 25, 
	 "gaussian": { 
		 "optdone": 1, 
		 "sigma_profile": "yes", 
		 "theory": "DFT", 
		 "functional": "B3LYP", 
		 "basiset": "6-31G**", 
		 "properties": { 
			 "R2extent": 6833.3509, 
			 "electric_dipole_moment_norm": 2.26523849958, 
			 "electric_quadrupole_moment_norm": 13.6857942963, 
			 "total_energy": -1562.78652594, 
			 "HOMO_LUMO_gap": 0.16748, 
			 "cosmo_polarized_energy": -14.35, 
			 "cosmo_cavitation_energy": 34.52, 
			 "cosmo_dispersion_energy": -25.12, 
			 "cosmo_repulsion_energy": 1.94, 
			 "cosmo_total_nonelectrostatic_energy": 11.33, 
			 "SMD_solvation_energy": 5.59 
		},
		"coords": [
			{
				"x": 0.8679014969,
				"y": -3.8303355751,
				"z": -1.7058852182,
				"element": "O" 
			},
			{
				"x": 1.949285217,
				"y": -3.4965814843,
				"z": -0.9728117898,
				"element": "C" 
			},
			{
				"x": 3.0729678293,
				"y": -3.8848018195,
				"z": -1.2258930508,
				"element": "O" 
			},
			{
				"x": 1.6263577999,
				"y": -2.6098044383,
				"z": 0.1704192229,
				"element": "C" 
			},
			{
				"x": 2.59722678,
				"y": -2.1528276721,
				"z": 1.0248797154,
				"element": "C" 
			},
			{
				"x": 1.9009475078,
				"y": -1.1421799859,
				"z": 2.2306888449,
				"element": "S" 
			},
			{
				"x": 0.3217456962,
				"y": -1.4130500168,
				"z": 1.4873564847,
				"element": "C" 
			},
			{
				"x": -0.9359465918,
				"y": -0.8213005574,
				"z": 2.0700991894,
				"element": "C" 
			},
			{
				"x": -0.7867834737,
				"y": 0.5326498282,
				"z": 2.4736350863,
				"element": "O" 
			},
			{
				"x": -0.7900064473,
				"y": 1.5174808843,
				"z": 1.5138782152,
				"element": "C" 
			},
			{
				"x": -0.7428859215,
				"y": 2.8279221076,
				"z": 2.0070468924,
				"element": "C" 
			},
			{
				"x": -0.7516281468,
				"y": 3.9078597057,
				"z": 1.1320867229,
				"element": "C" 
			},
			{
				"x": -0.8084726549,
				"y": 3.6756514446,
				"z": -0.244157329,
				"element": "C" 
			},
			{
				"x": -0.8209403843,
				"y": 5.0397259302,
				"z": -1.3550401711,
				"element": "Cl" 
			},
			{
				"x": -0.8519629308,
				"y": 2.3782256844,
				"z": -0.7435583247,
				"element": "C" 
			},
			{
				"x": -0.8406984791,
				"y": 1.290355444,
				"z": 0.134770496,
				"element": "C" 
			},
			{
				"x": 0.3443227338,
				"y": -2.1802169028,
				"z": 0.4404681859,
				"element": "N" 
			},
			{
				"x": 1.2001783894,
				"y": -4.4052578646,
				"z": -2.4156359975,
				"element": "H" 
			},
			{
				"x": 3.656507652,
				"y": -2.358659391,
				"z": 0.9744552544,
				"element": "H" 
			},
			{
				"x": -1.2125438827,
				"y": -1.3539739258,
				"z": 2.9853191892,
				"element": "H" 
			},
			{
				"x": -1.7434174436,
				"y": -0.9513756455,
				"z": 1.3408915774,
				"element": "H" 
			},
			{
				"x": -0.7040117769,
				"y": 2.9802803019,
				"z": 3.0804348967,
				"element": "H" 
			},
			{
				"x": -0.7174898689,
				"y": 4.9228298128,
				"z": 1.5121546127,
				"element": "H" 
			},
			{
				"x": -0.8896940056,
				"y": 2.2084611123,
				"z": -1.8138792437,
				"element": "H" 
			},
			{
				"x": -0.8558590943,
				"y": 0.2873230232,
				"z": -0.2741234616,
				"element": "H" 
			}
		],
		 "valence_orbital": [ 
			{
				"type": "occ",
				"energy": -0.29804,
				"method": "rhf"
			},
			{
				"type": "occ",
				"energy": -0.28437,
				"method": "rhf"
			},
			{
				"type": "occ",
				"energy": -0.26962,
				"method": "rhf"
			},
			{
				"type": "occ",
				"energy": -0.26427,
				"method": "rhf"
			},
			{
				"type": "occ",
				"energy": -0.22865,
				"method": "rhf"
			},
			{
				"type": "unocc",
				"energy": -0.06117,
				"method": "rhf"
			},
			{
				"type": "unocc",
				"energy": -0.02761,
				"method": "rhf"
			},
			{
				"type": "unocc",
				"energy": -0.01618,
				"method": "rhf"
			},
			{
				"type": "unocc",
				"energy": -0.00515,
				"method": "rhf"
			},
			{
				"type": "unocc",
				"energy": 0.00452,
				"method": "rhf"
			}
		],
		"cosmo_sigma_profile": { 
			"-0.025": 0.0,
			"-0.024": 0.0,
			"-0.023": 0.0,
			"-0.022": 0.0,
			"-0.021": 0.0,
			"-0.02": 0.0,
			"-0.019": 0.244311306452,
			"-0.018": 0.995916309927,
			"-0.017": 0.679748202297,
			"-0.016": 0.890651246914,
			"-0.015": 0.762155150772,
			"-0.014": 0.798725961017,
			"-0.013": 0.534381858246,
			"-0.012": 0.978490163712,
			"-0.011": 1.1339438584,
			"-0.01": 1.73224284759,
			"-0.009": 2.71726076185,
			"-0.008": 7.08803606994,
			"-0.007": 12.6366041363,
			"-0.006": 13.2055543955,
			"-0.005": 14.1600708958,
			"-0.004": 10.8757901908,
			"-0.003": 13.2138822347,
			"-0.002": 18.2316971691,
			"-0.001": 22.9801298158,
			"0.0": 26.1314288462,
			"0.001": 23.437616305,
			"0.002": 22.1318554393,
			"0.003": 23.0792466991,
			"0.004": 18.2239424649,
			"0.005": 13.0484097971,
			"0.006": 3.08902010457,
			"0.007": 4.65065972833,
			"0.008": 4.84129972051,
			"0.009": 2.88039134918,
			"0.01": 4.07037637217,
			"0.011": 5.76731830417,
			"0.012": 4.37340828332,
			"0.013": 0.996347225614,
			"0.014": 1.1546509455,
			"0.015": 0.12723222184,
			"0.016": 0.0,
			"0.017": 0.0,
			"0.018": 0.0,
			"0.019": 0.0,
			"0.02": 0.0,
			"0.021": 0.0,
			"0.022": 0.0,
			"0.023": 0.0,
			"0.024": 0.0,
			"0.025": 0.0
		}
	}
}
