{
	 "smiles": "NC1=CC(F)=C(O)C=C1", 
	 "Tm": 444.15, 
	 "num_atms": 15, 
	 "gaussian": { 
		 "optdone": 1, 
		 "sigma_profile": "yes", 
		 "theory": "DFT", 
		 "functional": "B3LYP", 
		 "basiset": "6-31G**", 
		 "properties": { 
			 "R2extent": 1399.6435, 
			 "electric_dipole_moment_norm": 2.33507304168, 
			 "electric_quadrupole_moment_norm": 6.13354633389, 
			 "total_energy": -462.057557183, 
			 "HOMO_LUMO_gap": 0.191, 
			 "cosmo_polarized_energy": -10.3, 
			 "cosmo_cavitation_energy": 19.45, 
			 "cosmo_dispersion_energy": -14.68, 
			 "cosmo_repulsion_energy": 1.19, 
			 "cosmo_total_nonelectrostatic_energy": 5.95, 
			 "SMD_solvation_energy": 4.1 
		},
		"coords": [
			{
				"x": 1.3740361612,
				"y": -1.2891126462,
				"z": 0.9170723365,
				"element": "N" 
			},
			{
				"x": 0.2170955662,
				"y": -0.6263220347,
				"z": 0.4815953304,
				"element": "C" 
			},
			{
				"x": 0.3123784217,
				"y": 0.5783651572,
				"z": -0.2353849621,
				"element": "C" 
			},
			{
				"x": -0.8443523209,
				"y": 1.1752247181,
				"z": -0.705613827,
				"element": "C" 
			},
			{
				"x": -0.7729253139,
				"y": 2.346229989,
				"z": -1.4001178739,
				"element": "F" 
			},
			{
				"x": -2.1171039805,
				"y": 0.6402110571,
				"z": -0.5056787813,
				"element": "C" 
			},
			{
				"x": -3.2393395123,
				"y": 1.259615756,
				"z": -0.9823445813,
				"element": "O" 
			},
			{
				"x": -2.2056755168,
				"y": -0.5554999508,
				"z": 0.2058787947,
				"element": "C" 
			},
			{
				"x": -1.0570490189,
				"y": -1.1792292839,
				"z": 0.6925218194,
				"element": "C" 
			},
			{
				"x": 2.1660092148,
				"y": -0.6826368323,
				"z": 1.0840784998,
				"element": "H" 
			},
			{
				"x": 1.2242801092,
				"y": -1.9105753107,
				"z": 1.7008409056,
				"element": "H" 
			},
			{
				"x": 1.2699622992,
				"y": 1.0486738869,
				"z": -0.4350703776,
				"element": "H" 
			},
			{
				"x": -2.9539544709,
				"y": 2.0621075292,
				"z": -1.4418169557,
				"element": "H" 
			},
			{
				"x": -3.1863591022,
				"y": -0.9880626116,
				"z": 0.3747798648,
				"element": "H" 
			},
			{
				"x": -1.1495025357,
				"y": -2.1129894233,
				"z": 1.2405598077,
				"element": "H" 
			}
		],
		 "valence_orbital": [ 
			{
				"type": "occ",
				"energy": -0.36074,
				"method": "rhf"
			},
			{
				"type": "occ",
				"energy": -0.3449,
				"method": "rhf"
			},
			{
				"type": "occ",
				"energy": -0.2824,
				"method": "rhf"
			},
			{
				"type": "occ",
				"energy": -0.24616,
				"method": "rhf"
			},
			{
				"type": "occ",
				"energy": -0.19005,
				"method": "rhf"
			},
			{
				"type": "unocc",
				"energy": 0.00095,
				"method": "rhf"
			},
			{
				"type": "unocc",
				"energy": 0.02743,
				"method": "rhf"
			},
			{
				"type": "unocc",
				"energy": 0.07155,
				"method": "rhf"
			},
			{
				"type": "unocc",
				"energy": 0.08507,
				"method": "rhf"
			},
			{
				"type": "unocc",
				"energy": 0.11268,
				"method": "rhf"
			}
		],
		"cosmo_sigma_profile": { 
			"-0.025": 0.0,
			"-0.024": 0.0,
			"-0.023": 0.0,
			"-0.022": 0.0,
			"-0.021": 0.0,
			"-0.02": 0.0,
			"-0.019": 0.0,
			"-0.018": 0.0,
			"-0.017": 0.0,
			"-0.016": 0.252862633107,
			"-0.015": 0.641492737609,
			"-0.014": 0.669391639575,
			"-0.013": 1.01388678728,
			"-0.012": 3.05257213675,
			"-0.011": 3.1080059487,
			"-0.01": 4.06155118724,
			"-0.009": 4.42362759263,
			"-0.008": 4.34560292579,
			"-0.007": 5.46931568073,
			"-0.006": 6.9259968497,
			"-0.005": 6.60719099679,
			"-0.004": 6.36611319439,
			"-0.003": 6.85385957485,
			"-0.002": 5.69734251895,
			"-0.001": 6.60318732894,
			"0.0": 5.73869575129,
			"0.001": 8.14686972845,
			"0.002": 10.8069835409,
			"0.003": 12.6030273427,
			"0.004": 16.3191936499,
			"0.005": 12.7455408884,
			"0.006": 6.6442744759,
			"0.007": 2.23034915151,
			"0.008": 1.96486985736,
			"0.009": 1.95229787138,
			"0.01": 2.85217560599,
			"0.011": 2.72316216015,
			"0.012": 2.04652180931,
			"0.013": 0.425359180073,
			"0.014": 0.805058332925,
			"0.015": 0.536921878065,
			"0.016": 0.0757711686604,
			"0.017": 0.0,
			"0.018": 0.0,
			"0.019": 0.0,
			"0.02": 0.0,
			"0.021": 0.0,
			"0.022": 0.0,
			"0.023": 0.0,
			"0.024": 0.0,
			"0.025": 0.0
		}
	}
}
