{
	 "smiles": "CCOC(=O)C1=C(SCC(O)=O)N=CC=C1", 
	 "Tm": 383.15, 
	 "num_atms": 27, 
	 "gaussian": { 
		 "optdone": 1, 
		 "sigma_profile": "yes", 
		 "theory": "DFT", 
		 "functional": "B3LYP", 
		 "basiset": "6-31G**", 
		 "properties": { 
			 "R2extent": 5567.3646, 
			 "electric_dipole_moment_norm": 4.09114772772, 
			 "electric_quadrupole_moment_norm": 28.8786840952, 
			 "total_energy": -1141.54652312, 
			 "HOMO_LUMO_gap": 0.17462, 
			 "cosmo_polarized_energy": -16.71, 
			 "cosmo_cavitation_energy": 33.35, 
			 "cosmo_dispersion_energy": -23.81, 
			 "cosmo_repulsion_energy": 1.85, 
			 "cosmo_total_nonelectrostatic_energy": 11.39, 
			 "SMD_solvation_energy": 7.46 
		},
		"coords": [
			{
				"x": -2.3848377536,
				"y": 2.0675474432,
				"z": -0.4925430478,
				"element": "C" 
			},
			{
				"x": -2.8288944989,
				"y": 0.741824719,
				"z": -1.0782882911,
				"element": "C" 
			},
			{
				"x": -1.6648941881,
				"y": -0.121455371,
				"z": -1.1482242912,
				"element": "O" 
			},
			{
				"x": -1.8702127578,
				"y": -1.3501799978,
				"z": -1.6532685217,
				"element": "C" 
			},
			{
				"x": -2.9576061753,
				"y": -1.7485779748,
				"z": -2.024957041,
				"element": "O" 
			},
			{
				"x": -0.630587279,
				"y": -2.1826708886,
				"z": -1.7031516363,
				"element": "C" 
			},
			{
				"x": 0.6870096049,
				"y": -1.7845957657,
				"z": -1.3645200863,
				"element": "C" 
			},
			{
				"x": 1.0899332458,
				"y": -0.1217018425,
				"z": -0.8053248601,
				"element": "S" 
			},
			{
				"x": 2.9091041779,
				"y": -0.2585869711,
				"z": -0.6717094382,
				"element": "C" 
			},
			{
				"x": 3.4728673604,
				"y": -1.0845420731,
				"z": 0.4914255667,
				"element": "C" 
			},
			{
				"x": 2.6518669769,
				"y": -1.3120796733,
				"z": 1.5355159914,
				"element": "O" 
			},
			{
				"x": 4.6196399923,
				"y": -1.4547001853,
				"z": 0.4934807048,
				"element": "O" 
			},
			{
				"x": 1.722418785,
				"y": -2.6214388841,
				"z": -1.4418094631,
				"element": "N" 
			},
			{
				"x": 1.5252920179,
				"y": -3.8777441754,
				"z": -1.8531698222,
				"element": "C" 
			},
			{
				"x": 0.2748958839,
				"y": -4.3712064371,
				"z": -2.217059737,
				"element": "C" 
			},
			{
				"x": -0.8067256163,
				"y": -3.5027759432,
				"z": -2.1370691586,
				"element": "C" 
			},
			{
				"x": -1.9711026241,
				"y": 1.9346052179,
				"z": 0.510914494,
				"element": "H" 
			},
			{
				"x": -1.6244284057,
				"y": 2.5391876789,
				"z": -1.1209371702,
				"element": "H" 
			},
			{
				"x": -3.2432408682,
				"y": 2.7429458704,
				"z": -0.424127806,
				"element": "H" 
			},
			{
				"x": -3.5872836523,
				"y": 0.2487487705,
				"z": -0.4628976904,
				"element": "H" 
			},
			{
				"x": -3.2396157103,
				"y": 0.8498587972,
				"z": -2.0865015861,
				"element": "H" 
			},
			{
				"x": 3.3373327583,
				"y": -0.6465087962,
				"z": -1.5943024497,
				"element": "H" 
			},
			{
				"x": 3.2414354442,
				"y": 0.7778322332,
				"z": -0.5421728567,
				"element": "H" 
			},
			{
				"x": 1.7687821732,
				"y": -0.957019924,
				"z": 1.3283211989,
				"element": "H" 
			},
			{
				"x": 2.4113979138,
				"y": -4.5078503875,
				"z": -1.8873449062,
				"element": "H" 
			},
			{
				"x": 0.1554243307,
				"y": -5.3971492715,
				"z": -2.5472668883,
				"element": "H" 
			},
			{
				"x": -1.8114711355,
				"y": -3.8127661679,
				"z": -2.4039112076,
				"element": "H" 
			}
		],
		 "valence_orbital": [ 
			{
				"type": "occ",
				"energy": -0.30332,
				"method": "rhf"
			},
			{
				"type": "occ",
				"energy": -0.29706,
				"method": "rhf"
			},
			{
				"type": "occ",
				"energy": -0.27657,
				"method": "rhf"
			},
			{
				"type": "occ",
				"energy": -0.26941,
				"method": "rhf"
			},
			{
				"type": "occ",
				"energy": -0.2436,
				"method": "rhf"
			},
			{
				"type": "unocc",
				"energy": -0.06898,
				"method": "rhf"
			},
			{
				"type": "unocc",
				"energy": -0.04065,
				"method": "rhf"
			},
			{
				"type": "unocc",
				"energy": 0.01399,
				"method": "rhf"
			},
			{
				"type": "unocc",
				"energy": 0.02735,
				"method": "rhf"
			},
			{
				"type": "unocc",
				"energy": 0.03514,
				"method": "rhf"
			}
		],
		"cosmo_sigma_profile": { 
			"-0.025": 0.0,
			"-0.024": 0.0,
			"-0.023": 0.0,
			"-0.022": 0.0,
			"-0.021": 0.0,
			"-0.02": 0.0,
			"-0.019": 0.0,
			"-0.018": 0.0,
			"-0.017": 0.0,
			"-0.016": 0.0,
			"-0.015": 0.0,
			"-0.014": 0.367951433898,
			"-0.013": 0.433019394421,
			"-0.012": 0.839889247203,
			"-0.011": 1.16661105915,
			"-0.01": 2.59540725897,
			"-0.009": 4.80234997874,
			"-0.008": 5.35925972002,
			"-0.007": 9.99770230809,
			"-0.006": 12.7385644575,
			"-0.005": 16.5001507672,
			"-0.004": 22.6284674593,
			"-0.003": 21.2168723599,
			"-0.002": 20.4491326963,
			"-0.001": 23.2543787657,
			"0.0": 22.6308918217,
			"0.001": 16.9847032597,
			"0.002": 10.5665101388,
			"0.003": 8.65685040623,
			"0.004": 9.33420901511,
			"0.005": 8.04636806093,
			"0.006": 7.43034267543,
			"0.007": 5.81904212222,
			"0.008": 4.50584646542,
			"0.009": 5.73785092125,
			"0.01": 7.27788495467,
			"0.011": 8.36835671691,
			"0.012": 7.54065758637,
			"0.013": 1.95216409367,
			"0.014": 0.0106321431594,
			"0.015": 0.0,
			"0.016": 0.0,
			"0.017": 0.0,
			"0.018": 0.0,
			"0.019": 0.0,
			"0.02": 0.0,
			"0.021": 0.0,
			"0.022": 0.0,
			"0.023": 0.0,
			"0.024": 0.0,
			"0.025": 0.0
		}
	}
}
