{
	 "smiles": "OC(=O)COC1=CC2=C(C=CC=C2)C=C1", 
	 "Tm": 429.15, 
	 "num_atms": 25, 
	 "gaussian": { 
		 "optdone": 1, 
		 "sigma_profile": "yes", 
		 "theory": "DFT", 
		 "functional": "B3LYP", 
		 "basiset": "6-31G**", 
		 "properties": { 
			 "R2extent": 4045.1073, 
			 "electric_dipole_moment_norm": 3.92406865129, 
			 "electric_quadrupole_moment_norm": 17.7441334764, 
			 "total_energy": -688.971097551, 
			 "HOMO_LUMO_gap": 0.17559, 
			 "cosmo_polarized_energy": -18.59, 
			 "cosmo_cavitation_energy": 29.6, 
			 "cosmo_dispersion_energy": -21.63, 
			 "cosmo_repulsion_energy": 1.68, 
			 "cosmo_total_nonelectrostatic_energy": 9.65, 
			 "SMD_solvation_energy": 6.07 
		},
		"coords": [
			{
				"x": -0.7661787712,
				"y": 0.9329428493,
				"z": -4.4765271667,
				"element": "O" 
			},
			{
				"x": -0.0059390199,
				"y": 0.5101317831,
				"z": -3.4304371269,
				"element": "C" 
			},
			{
				"x": 1.0693499503,
				"y": 1.0003942342,
				"z": -3.2143755593,
				"element": "O" 
			},
			{
				"x": -0.6426977166,
				"y": -0.6224381665,
				"z": -2.6120142305,
				"element": "C" 
			},
			{
				"x": 0.1562980251,
				"y": -1.0471309272,
				"z": -1.5376086179,
				"element": "O" 
			},
			{
				"x": 0.0478772886,
				"y": -0.3181902471,
				"z": -0.3585947347,
				"element": "C" 
			},
			{
				"x": -1.0001167169,
				"y": -0.5526300667,
				"z": 0.5029642492,
				"element": "C" 
			},
			{
				"x": -1.0841353277,
				"y": 0.1473967417,
				"z": 1.7361704905,
				"element": "C" 
			},
			{
				"x": -0.0573041167,
				"y": 1.0908677882,
				"z": 2.0702223152,
				"element": "C" 
			},
			{
				"x": -0.1408193275,
				"y": 1.7874187785,
				"z": 3.305764392,
				"element": "C" 
			},
			{
				"x": -1.1862025565,
				"y": 1.5642929416,
				"z": 4.1735537735,
				"element": "C" 
			},
			{
				"x": -2.1988615071,
				"y": 0.6296903192,
				"z": 3.8444015231,
				"element": "C" 
			},
			{
				"x": -2.1481991195,
				"y": -0.0620064324,
				"z": 2.6550006986,
				"element": "C" 
			},
			{
				"x": 1.0102495798,
				"y": 1.2942809146,
				"z": 1.1534122347,
				"element": "C" 
			},
			{
				"x": 1.0681042651,
				"y": 0.6105208897,
				"z": -0.0387657348,
				"element": "C" 
			},
			{
				"x": -1.6066692376,
				"y": 0.4524076979,
				"z": -4.5102653284,
				"element": "H" 
			},
			{
				"x": -1.640792361,
				"y": -0.3004938583,
				"z": -2.2758497707,
				"element": "H" 
			},
			{
				"x": -0.7774858939,
				"y": -1.4867299788,
				"z": -3.2751355593,
				"element": "H" 
			},
			{
				"x": -1.7565634643,
				"y": -1.2898774496,
				"z": 0.2477097763,
				"element": "H" 
			},
			{
				"x": 0.6389400526,
				"y": 2.5026273966,
				"z": 3.5550632931,
				"element": "H" 
			},
			{
				"x": -1.2381084629,
				"y": 2.1034937983,
				"z": 5.1149220842,
				"element": "H" 
			},
			{
				"x": -3.0182955615,
				"y": 0.4602648932,
				"z": 4.5370435836,
				"element": "H" 
			},
			{
				"x": -2.9242965333,
				"y": -0.780186061,
				"z": 2.402594602,
				"element": "H" 
			},
			{
				"x": 1.7879947264,
				"y": 2.0100666186,
				"z": 1.4065711586,
				"element": "H" 
			},
			{
				"x": 1.8625518062,
				"y": 0.768285543,
				"z": -0.7581203457,
				"element": "H" 
			}
		],
		 "valence_orbital": [ 
			{
				"type": "occ",
				"energy": -0.30033,
				"method": "rhf"
			},
			{
				"type": "occ",
				"energy": -0.28524,
				"method": "rhf"
			},
			{
				"type": "occ",
				"energy": -0.27343,
				"method": "rhf"
			},
			{
				"type": "occ",
				"energy": -0.23909,
				"method": "rhf"
			},
			{
				"type": "occ",
				"energy": -0.21541,
				"method": "rhf"
			},
			{
				"type": "unocc",
				"energy": -0.03982,
				"method": "rhf"
			},
			{
				"type": "unocc",
				"energy": -0.00832,
				"method": "rhf"
			},
			{
				"type": "unocc",
				"energy": 0.0017,
				"method": "rhf"
			},
			{
				"type": "unocc",
				"energy": 0.02967,
				"method": "rhf"
			},
			{
				"type": "unocc",
				"energy": 0.04217,
				"method": "rhf"
			}
		],
		"cosmo_sigma_profile": { 
			"-0.025": 0.0,
			"-0.024": 0.0,
			"-0.023": 0.0,
			"-0.022": 0.0,
			"-0.021": 0.0,
			"-0.02": 0.5190112894,
			"-0.019": 1.16330508894,
			"-0.018": 1.53938827381,
			"-0.017": 0.90975542093,
			"-0.016": 1.37427601431,
			"-0.015": 1.42277093716,
			"-0.014": 1.04323977234,
			"-0.013": 0.796044795746,
			"-0.012": 1.344916617,
			"-0.011": 2.07157898107,
			"-0.01": 1.97367699516,
			"-0.009": 2.45459124801,
			"-0.008": 2.91138830801,
			"-0.007": 5.05071133295,
			"-0.006": 15.3184275386,
			"-0.005": 17.307659586,
			"-0.004": 15.8128970946,
			"-0.003": 13.0734041911,
			"-0.002": 10.571314109,
			"-0.001": 10.0217294824,
			"0.0": 10.4520471552,
			"0.001": 10.7723287046,
			"0.002": 12.3971428913,
			"0.003": 19.7052842028,
			"0.004": 26.3211552796,
			"0.005": 14.3915287047,
			"0.006": 5.69476316568,
			"0.007": 4.15133390099,
			"0.008": 3.89852218544,
			"0.009": 5.54405072558,
			"0.01": 8.85982444858,
			"0.011": 4.77260153132,
			"0.012": 2.5228590987,
			"0.013": 0.410021029001,
			"0.014": 0.0,
			"0.015": 0.0,
			"0.016": 0.0,
			"0.017": 0.0,
			"0.018": 0.0,
			"0.019": 0.0,
			"0.02": 0.0,
			"0.021": 0.0,
			"0.022": 0.0,
			"0.023": 0.0,
			"0.024": 0.0,
			"0.025": 0.0
		}
	}
}
