{
	 "smiles": "CC(C)C(=O)NC(C)C(O)=O", 
	 "Tm": 428.15, 
	 "num_atms": 24, 
	 "gaussian": { 
		 "optdone": 1, 
		 "sigma_profile": "yes", 
		 "theory": "DFT", 
		 "functional": "B3LYP", 
		 "basiset": "6-31G**", 
		 "properties": { 
			 "R2extent": 2182.9548, 
			 "electric_dipole_moment_norm": 5.91464149463, 
			 "electric_quadrupole_moment_norm": 15.4117565427, 
			 "total_energy": -555.024548813, 
			 "HOMO_LUMO_gap": 0.23688, 
			 "cosmo_polarized_energy": -22.63, 
			 "cosmo_cavitation_energy": 26.89, 
			 "cosmo_dispersion_energy": -18.27, 
			 "cosmo_repulsion_energy": 1.49, 
			 "cosmo_total_nonelectrostatic_energy": 10.11, 
			 "SMD_solvation_energy": 6.26 
		},
		"coords": [
			{
				"x": -0.714636965,
				"y": -1.7581735075,
				"z": -0.441920069,
				"element": "C" 
			},
			{
				"x": -1.478042398,
				"y": -0.9991508189,
				"z": -1.5451312673,
				"element": "C" 
			},
			{
				"x": -2.8426533707,
				"y": -0.4630996961,
				"z": -1.0741200854,
				"element": "C" 
			},
			{
				"x": -0.6217566602,
				"y": 0.0460680708,
				"z": -2.2798313601,
				"element": "C" 
			},
			{
				"x": -0.3188852889,
				"y": -0.1242875926,
				"z": -3.4527007447,
				"element": "O" 
			},
			{
				"x": -0.2348909426,
				"y": 1.2187023764,
				"z": -1.6510856976,
				"element": "N" 
			},
			{
				"x": -0.1624732337,
				"y": 1.5260313792,
				"z": -0.2393544799,
				"element": "C" 
			},
			{
				"x": -0.3730667131,
				"y": 3.0362919169,
				"z": -0.0128740427,
				"element": "C" 
			},
			{
				"x": 1.1962945043,
				"y": 1.1072118538,
				"z": 0.361953743,
				"element": "C" 
			},
			{
				"x": 1.2209061483,
				"y": 0.9767880059,
				"z": 1.7163734015,
				"element": "O" 
			},
			{
				"x": 2.1946748903,
				"y": 0.9431132118,
				"z": -0.2881969285,
				"element": "O" 
			},
			{
				"x": 0.252070103,
				"y": -2.116728293,
				"z": -0.8074819727,
				"element": "H" 
			},
			{
				"x": -0.5293224567,
				"y": -1.1558523512,
				"z": 0.4528786853,
				"element": "H" 
			},
			{
				"x": -1.2975720787,
				"y": -2.6295356486,
				"z": -0.1257080244,
				"element": "H" 
			},
			{
				"x": -1.6740799049,
				"y": -1.7181415503,
				"z": -2.345992899,
				"element": "H" 
			},
			{
				"x": -3.3657129685,
				"y": 0.0491946936,
				"z": -1.8871992215,
				"element": "H" 
			},
			{
				"x": -3.4720656881,
				"y": -1.2958498306,
				"z": -0.74292574,
				"element": "H" 
			},
			{
				"x": -2.7667111902,
				"y": 0.2359061955,
				"z": -0.2347223001,
				"element": "H" 
			},
			{
				"x": 0.4277918873,
				"y": 1.7263791286,
				"z": -2.2277192561,
				"element": "H" 
			},
			{
				"x": -0.9569350829,
				"y": 0.9831490574,
				"z": 0.2773444163,
				"element": "H" 
			},
			{
				"x": 0.3979859678,
				"y": 3.6087306926,
				"z": -0.5380636173,
				"element": "H" 
			},
			{
				"x": -1.350703635,
				"y": 3.3363276221,
				"z": -0.3970448808,
				"element": "H" 
			},
			{
				"x": -0.3153017708,
				"y": 3.2957322939,
				"z": 1.0487842391,
				"element": "H" 
			},
			{
				"x": 0.3397868472,
				"y": 1.1198927902,
				"z": 2.0904381021,
				"element": "H" 
			}
		],
		 "valence_orbital": [ 
			{
				"type": "occ",
				"energy": -0.34002,
				"method": "rhf"
			},
			{
				"type": "occ",
				"energy": -0.32926,
				"method": "rhf"
			},
			{
				"type": "occ",
				"energy": -0.28754,
				"method": "rhf"
			},
			{
				"type": "occ",
				"energy": -0.25783,
				"method": "rhf"
			},
			{
				"type": "occ",
				"energy": -0.24267,
				"method": "rhf"
			},
			{
				"type": "unocc",
				"energy": -0.00579,
				"method": "rhf"
			},
			{
				"type": "unocc",
				"energy": 0.01956,
				"method": "rhf"
			},
			{
				"type": "unocc",
				"energy": 0.02851,
				"method": "rhf"
			},
			{
				"type": "unocc",
				"energy": 0.07501,
				"method": "rhf"
			},
			{
				"type": "unocc",
				"energy": 0.09195,
				"method": "rhf"
			}
		],
		"cosmo_sigma_profile": { 
			"-0.025": 0.0,
			"-0.024": 0.0,
			"-0.023": 0.0,
			"-0.022": 0.0,
			"-0.021": 0.0,
			"-0.02": 0.168422444477,
			"-0.019": 0.737512736135,
			"-0.018": 1.29730217358,
			"-0.017": 1.31361905347,
			"-0.016": 1.42893759834,
			"-0.015": 1.08674245005,
			"-0.014": 0.809557480267,
			"-0.013": 1.49302043249,
			"-0.012": 1.98581721392,
			"-0.011": 2.16320296187,
			"-0.01": 2.38711032231,
			"-0.009": 2.62387779227,
			"-0.008": 3.96946230906,
			"-0.007": 3.4146434853,
			"-0.006": 4.43281328273,
			"-0.005": 8.04573316814,
			"-0.004": 15.4076179576,
			"-0.003": 22.6309488658,
			"-0.002": 22.6437797772,
			"-0.001": 22.1933278773,
			"0.0": 19.4743184346,
			"0.001": 7.27373336527,
			"0.002": 3.70446354372,
			"0.003": 3.87402440481,
			"0.004": 4.39092802658,
			"0.005": 4.45654965987,
			"0.006": 3.5940827266,
			"0.007": 4.43583365706,
			"0.008": 3.85005216306,
			"0.009": 4.46568909513,
			"0.01": 6.85078690376,
			"0.011": 7.06910777826,
			"0.012": 5.06596720854,
			"0.013": 5.24827042719,
			"0.014": 4.57476937084,
			"0.015": 0.90177134554,
			"0.016": 0.0,
			"0.017": 0.0,
			"0.018": 0.0,
			"0.019": 0.0,
			"0.02": 0.0,
			"0.021": 0.0,
			"0.022": 0.0,
			"0.023": 0.0,
			"0.024": 0.0,
			"0.025": 0.0
		}
	}
}
