{
	 "smiles": "COC1=C(CNC(N)=O)C=CC=C1", 
	 "Tm": 398.15, 
	 "num_atms": 25, 
	 "gaussian": { 
		 "optdone": 1, 
		 "sigma_profile": "yes", 
		 "theory": "DFT", 
		 "functional": "B3LYP", 
		 "basiset": "6-31G**", 
		 "properties": { 
			 "R2extent": 3336.8951, 
			 "electric_dipole_moment_norm": 4.42982631939, 
			 "electric_quadrupole_moment_norm": 14.0987740694, 
			 "total_energy": -610.157869528, 
			 "HOMO_LUMO_gap": 0.21887, 
			 "cosmo_polarized_energy": -16.41, 
			 "cosmo_cavitation_energy": 28.81, 
			 "cosmo_dispersion_energy": -20.52, 
			 "cosmo_repulsion_energy": 1.66, 
			 "cosmo_total_nonelectrostatic_energy": 9.94, 
			 "SMD_solvation_energy": 5.44 
		},
		"coords": [
			{
				"x": 0.7086050437,
				"y": 2.1462205834,
				"z": 0.3360867991,
				"element": "C" 
			},
			{
				"x": 0.4582410784,
				"y": 0.7711993677,
				"z": 0.5827325045,
				"element": "O" 
			},
			{
				"x": 1.5137652581,
				"y": -0.1077446794,
				"z": 0.5071536708,
				"element": "C" 
			},
			{
				"x": 1.2022174228,
				"y": -1.4458424981,
				"z": 0.823270228,
				"element": "C" 
			},
			{
				"x": -0.2087383018,
				"y": -1.8163436994,
				"z": 1.2353254296,
				"element": "C" 
			},
			{
				"x": -1.1914041433,
				"y": -1.7140361801,
				"z": 0.1563864207,
				"element": "N" 
			},
			{
				"x": -1.3226809532,
				"y": -2.7711650059,
				"z": -0.7250331053,
				"element": "C" 
			},
			{
				"x": -2.0764407507,
				"y": -2.4681097279,
				"z": -1.8574065718,
				"element": "N" 
			},
			{
				"x": -0.8281144363,
				"y": -3.8762453322,
				"z": -0.5415008483,
				"element": "O" 
			},
			{
				"x": 2.2135052606,
				"y": -2.4013277209,
				"z": 0.7359066939,
				"element": "C" 
			},
			{
				"x": 3.5157805179,
				"y": -2.0503122613,
				"z": 0.3659226802,
				"element": "C" 
			},
			{
				"x": 3.8081420507,
				"y": -0.7216852313,
				"z": 0.0730411164,
				"element": "C" 
			},
			{
				"x": 2.8107504755,
				"y": 0.2574749546,
				"z": 0.1393544536,
				"element": "C" 
			},
			{
				"x": 1.0602071197,
				"y": 2.3165706102,
				"z": -0.689544756,
				"element": "H" 
			},
			{
				"x": 1.4456363248,
				"y": 2.553754187,
				"z": 1.039272903,
				"element": "H" 
			},
			{
				"x": -0.244382604,
				"y": 2.6586512749,
				"z": 0.4786298333,
				"element": "H" 
			},
			{
				"x": -0.2302113438,
				"y": -2.8489250561,
				"z": 1.5852236862,
				"element": "H" 
			},
			{
				"x": -0.5442384289,
				"y": -1.1671169028,
				"z": 2.0502589875,
				"element": "H" 
			},
			{
				"x": -1.292567034,
				"y": -0.7832137741,
				"z": -0.2267118585,
				"element": "H" 
			},
			{
				"x": -2.8184467158,
				"y": -1.7897041275,
				"z": -1.7492535195,
				"element": "H" 
			},
			{
				"x": -2.3518547813,
				"y": -3.2984672172,
				"z": -2.3629916433,
				"element": "H" 
			},
			{
				"x": 1.9674879808,
				"y": -3.4366876667,
				"z": 0.9532960247,
				"element": "H" 
			},
			{
				"x": 4.2888512693,
				"y": -2.8099674937,
				"z": 0.304956268,
				"element": "H" 
			},
			{
				"x": 4.8149006839,
				"y": -0.4326290236,
				"z": -0.2151567424,
				"element": "H" 
			},
			{
				"x": 3.0541890071,
				"y": 1.2861526204,
				"z": -0.0990186546,
				"element": "H" 
			}
		],
		 "valence_orbital": [ 
			{
				"type": "occ",
				"energy": -0.26438,
				"method": "rhf"
			},
			{
				"type": "occ",
				"energy": -0.25343,
				"method": "rhf"
			},
			{
				"type": "occ",
				"energy": -0.24063,
				"method": "rhf"
			},
			{
				"type": "occ",
				"energy": -0.23764,
				"method": "rhf"
			},
			{
				"type": "occ",
				"energy": -0.2182,
				"method": "rhf"
			},
			{
				"type": "unocc",
				"energy": 0.00067,
				"method": "rhf"
			},
			{
				"type": "unocc",
				"energy": 0.01385,
				"method": "rhf"
			},
			{
				"type": "unocc",
				"energy": 0.06238,
				"method": "rhf"
			},
			{
				"type": "unocc",
				"energy": 0.08037,
				"method": "rhf"
			},
			{
				"type": "unocc",
				"energy": 0.09151,
				"method": "rhf"
			}
		],
		"cosmo_sigma_profile": { 
			"-0.025": 0.0,
			"-0.024": 0.0,
			"-0.023": 0.0,
			"-0.022": 0.0,
			"-0.021": 0.0,
			"-0.02": 0.0,
			"-0.019": 0.0,
			"-0.018": 0.0,
			"-0.017": 0.0,
			"-0.016": 0.0,
			"-0.015": 0.0,
			"-0.014": 0.286185460834,
			"-0.013": 2.82752430518,
			"-0.012": 3.31135403873,
			"-0.011": 3.04696435184,
			"-0.01": 2.07345956807,
			"-0.009": 3.05830816658,
			"-0.008": 2.68715608182,
			"-0.007": 2.36636287273,
			"-0.006": 8.2934615421,
			"-0.005": 18.7070945522,
			"-0.004": 21.3248652867,
			"-0.003": 22.1389919531,
			"-0.002": 14.391440911,
			"-0.001": 13.6835907698,
			"0.0": 11.6796660717,
			"0.001": 10.960309901,
			"0.002": 12.5729982925,
			"0.003": 11.3531601626,
			"0.004": 11.7082881494,
			"0.005": 12.6169578188,
			"0.006": 12.6841056777,
			"0.007": 3.82781185897,
			"0.008": 3.60821965021,
			"0.009": 2.57050386792,
			"0.01": 1.75017954958,
			"0.011": 2.31749949818,
			"0.012": 2.53688522342,
			"0.013": 2.18434808847,
			"0.014": 4.16153665299,
			"0.015": 2.6260067736,
			"0.016": 0.0677204144174,
			"0.017": 0.0,
			"0.018": 0.0,
			"0.019": 0.0,
			"0.02": 0.0,
			"0.021": 0.0,
			"0.022": 0.0,
			"0.023": 0.0,
			"0.024": 0.0,
			"0.025": 0.0
		}
	}
}
