{
	 "smiles": "CSC1=NC(N)=C(S1)C(=O)C1=CC=CC=C1", 
	 "Tm": 399.15, 
	 "num_atms": 26, 
	 "gaussian": { 
		 "optdone": 1, 
		 "sigma_profile": "yes", 
		 "theory": "DFT", 
		 "functional": "B3LYP", 
		 "basiset": "6-31G**", 
		 "properties": { 
			 "R2extent": 5798.9601, 
			 "electric_dipole_moment_norm": 2.27814884062, 
			 "electric_quadrupole_moment_norm": 14.5051402448, 
			 "total_energy": -1406.30780585, 
			 "HOMO_LUMO_gap": 0.14412, 
			 "cosmo_polarized_energy": -11.13, 
			 "cosmo_cavitation_energy": 33.33, 
			 "cosmo_dispersion_energy": -25.57, 
			 "cosmo_repulsion_energy": 1.91, 
			 "cosmo_total_nonelectrostatic_energy": 9.67, 
			 "SMD_solvation_energy": 4.53 
		},
		"coords": [
			{
				"x": 0.9875272633,
				"y": 3.7111008758,
				"z": 2.7077607757,
				"element": "C" 
			},
			{
				"x": 2.0334659851,
				"y": 2.9692998417,
				"z": 1.4075318518,
				"element": "S" 
			},
			{
				"x": 0.925406194,
				"y": 1.7616586206,
				"z": 0.7734101076,
				"element": "C" 
			},
			{
				"x": -0.2870270568,
				"y": 1.5727545095,
				"z": 1.2203571601,
				"element": "N" 
			},
			{
				"x": -0.9064546769,
				"y": 0.559012294,
				"z": 0.5267023986,
				"element": "C" 
			},
			{
				"x": -2.1744090282,
				"y": 0.2301810793,
				"z": 0.844667606,
				"element": "N" 
			},
			{
				"x": -0.1471853968,
				"y": -0.0715129542,
				"z": -0.4741881652,
				"element": "C" 
			},
			{
				"x": 1.4398892568,
				"y": 0.7174073407,
				"z": -0.5357791881,
				"element": "S" 
			},
			{
				"x": -0.6806102194,
				"y": -1.078900841,
				"z": -1.3618577937,
				"element": "C" 
			},
			{
				"x": -1.8813369408,
				"y": -1.40786663,
				"z": -1.2755983166,
				"element": "O" 
			},
			{
				"x": 0.1638253709,
				"y": -1.7268826194,
				"z": -2.4193238178,
				"element": "C" 
			},
			{
				"x": -0.47355678,
				"y": -2.1176826913,
				"z": -3.607487538,
				"element": "C" 
			},
			{
				"x": 0.2452288174,
				"y": -2.7418901852,
				"z": -4.6229842119,
				"element": "C" 
			},
			{
				"x": 1.607422061,
				"y": -3.0086657313,
				"z": -4.4554525969,
				"element": "C" 
			},
			{
				"x": 2.2432243077,
				"y": -2.6515688946,
				"z": -3.2659433459,
				"element": "C" 
			},
			{
				"x": 1.5272121015,
				"y": -2.0109145883,
				"z": -2.2531974961,
				"element": "C" 
			},
			{
				"x": 0.7085023921,
				"y": 2.9583555135,
				"z": 3.4450329701,
				"element": "H" 
			},
			{
				"x": 1.6005636821,
				"y": 4.4863810218,
				"z": 3.1713790248,
				"element": "H" 
			},
			{
				"x": 0.0913638441,
				"y": 4.1500417793,
				"z": 2.2692818134,
				"element": "H" 
			},
			{
				"x": -2.6813232106,
				"y": 0.8253818756,
				"z": 1.4788697348,
				"element": "H" 
			},
			{
				"x": -2.6309943045,
				"y": -0.4247492732,
				"z": 0.2169310493,
				"element": "H" 
			},
			{
				"x": -1.535599967,
				"y": -1.9226999441,
				"z": -3.7110360322,
				"element": "H" 
			},
			{
				"x": -0.2554353998,
				"y": -3.026313064,
				"z": -5.5440915975,
				"element": "H" 
			},
			{
				"x": 2.1675378273,
				"y": -3.5007458606,
				"z": -5.2455439494,
				"element": "H" 
			},
			{
				"x": 3.2956075755,
				"y": -2.877565618,
				"z": -3.120641282,
				"element": "H" 
			},
			{
				"x": 2.0265563022,
				"y": -1.7707158565,
				"z": -1.3201991607,
				"element": "H" 
			}
		],
		 "valence_orbital": [ 
			{
				"type": "occ",
				"energy": -0.25683,
				"method": "rhf"
			},
			{
				"type": "occ",
				"energy": -0.25614,
				"method": "rhf"
			},
			{
				"type": "occ",
				"energy": -0.25327,
				"method": "rhf"
			},
			{
				"type": "occ",
				"energy": -0.24237,
				"method": "rhf"
			},
			{
				"type": "occ",
				"energy": -0.20222,
				"method": "rhf"
			},
			{
				"type": "unocc",
				"energy": -0.0581,
				"method": "rhf"
			},
			{
				"type": "unocc",
				"energy": -0.01855,
				"method": "rhf"
			},
			{
				"type": "unocc",
				"energy": -0.01057,
				"method": "rhf"
			},
			{
				"type": "unocc",
				"energy": 0.00375,
				"method": "rhf"
			},
			{
				"type": "unocc",
				"energy": 0.0334,
				"method": "rhf"
			}
		],
		"cosmo_sigma_profile": { 
			"-0.025": 0.0,
			"-0.024": 0.0,
			"-0.023": 0.0,
			"-0.022": 0.0,
			"-0.021": 0.0,
			"-0.02": 0.0,
			"-0.019": 0.0,
			"-0.018": 0.0,
			"-0.017": 0.0,
			"-0.016": 0.0,
			"-0.015": 0.0396234351474,
			"-0.014": 1.00871435202,
			"-0.013": 1.018061179,
			"-0.012": 1.19486450985,
			"-0.011": 0.957349892399,
			"-0.01": 0.929301442461,
			"-0.009": 1.98240477185,
			"-0.008": 2.869197021,
			"-0.007": 5.94229270334,
			"-0.006": 12.7179173827,
			"-0.005": 16.0646271307,
			"-0.004": 20.1517796773,
			"-0.003": 17.8493855426,
			"-0.002": 18.4875301312,
			"-0.001": 16.7074690599,
			"0.0": 23.778135094,
			"0.001": 25.9795738832,
			"0.002": 24.3290752254,
			"0.003": 23.1223723572,
			"0.004": 20.7463519757,
			"0.005": 11.8555595121,
			"0.006": 6.64969535774,
			"0.007": 4.34257383301,
			"0.008": 2.24894023997,
			"0.009": 2.29740289569,
			"0.01": 2.2568728334,
			"0.011": 1.63513333193,
			"0.012": 1.96282456721,
			"0.013": 1.40485577481,
			"0.014": 0.615422093991,
			"0.015": 0.0,
			"0.016": 0.0,
			"0.017": 0.0,
			"0.018": 0.0,
			"0.019": 0.0,
			"0.02": 0.0,
			"0.021": 0.0,
			"0.022": 0.0,
			"0.023": 0.0,
			"0.024": 0.0,
			"0.025": 0.0
		}
	}
}
