{
	 "smiles": "COC(=O)C1=C2C=CC=CC2=NC(Cl)=C1", 
	 "Tm": 361.15, 
	 "num_atms": 23, 
	 "gaussian": { 
		 "optdone": 1, 
		 "sigma_profile": "yes", 
		 "theory": "DFT", 
		 "functional": "B3LYP", 
		 "basiset": "6-31G**", 
		 "properties": { 
			 "R2extent": 4070.1454, 
			 "electric_dipole_moment_norm": 2.63908988858, 
			 "electric_quadrupole_moment_norm": 14.5041508049, 
			 "total_energy": -1089.39861116, 
			 "HOMO_LUMO_gap": 0.15591, 
			 "cosmo_polarized_energy": -8.12, 
			 "cosmo_cavitation_energy": 29.45, 
			 "cosmo_dispersion_energy": -22.06, 
			 "cosmo_repulsion_energy": 1.71, 
			 "cosmo_total_nonelectrostatic_energy": 9.1, 
			 "SMD_solvation_energy": 4.69 
		},
		"coords": [
			{
				"x": -3.5265324474,
				"y": -1.2327003947,
				"z": 0.2283278963,
				"element": "C" 
			},
			{
				"x": -2.1129043173,
				"y": -1.1087380551,
				"z": 0.4575622519,
				"element": "O" 
			},
			{
				"x": -1.4201869384,
				"y": -0.4923674869,
				"z": -0.5238124509,
				"element": "C" 
			},
			{
				"x": -1.9543125038,
				"y": -0.071878582,
				"z": -1.5315008021,
				"element": "O" 
			},
			{
				"x": 0.0447278983,
				"y": -0.4058928107,
				"z": -0.2014917078,
				"element": "C" 
			},
			{
				"x": 0.9937269523,
				"y": 0.2011136835,
				"z": -1.0942406026,
				"element": "C" 
			},
			{
				"x": 0.6850207164,
				"y": 0.7790421073,
				"z": -2.3558384574,
				"element": "C" 
			},
			{
				"x": 1.6794691772,
				"y": 1.3352704846,
				"z": -3.1324127651,
				"element": "C" 
			},
			{
				"x": 3.0254792347,
				"y": 1.3468116875,
				"z": -2.6992464569,
				"element": "C" 
			},
			{
				"x": 3.3611478778,
				"y": 0.7965886394,
				"z": -1.483969161,
				"element": "C" 
			},
			{
				"x": 2.3633121584,
				"y": 0.216064085,
				"z": -0.6601735466,
				"element": "C" 
			},
			{
				"x": 2.7719350713,
				"y": -0.3109739701,
				"z": 0.5330729533,
				"element": "N" 
			},
			{
				"x": 1.8700603461,
				"y": -0.846100392,
				"z": 1.2979670128,
				"element": "C" 
			},
			{
				"x": 2.4058235107,
				"y": -1.5244650182,
				"z": 2.8368665305,
				"element": "Cl" 
			},
			{
				"x": 0.4910404154,
				"y": -0.9290994021,
				"z": 0.9963023073,
				"element": "C" 
			},
			{
				"x": -3.9197261695,
				"y": -1.7455433136,
				"z": 1.105488244,
				"element": "H" 
			},
			{
				"x": -3.9848837376,
				"y": -0.2468672596,
				"z": 0.1196703003,
				"element": "H" 
			},
			{
				"x": -3.7182551723,
				"y": -1.8137109019,
				"z": -0.6768857229,
				"element": "H" 
			},
			{
				"x": -0.3413595354,
				"y": 0.7744714149,
				"z": -2.6938594417,
				"element": "H" 
			},
			{
				"x": 1.4229518555,
				"y": 1.7718007005,
				"z": -4.0932479714,
				"element": "H" 
			},
			{
				"x": 3.791718087,
				"y": 1.7906312844,
				"z": -3.3279771616,
				"element": "H" 
			},
			{
				"x": 4.3811813836,
				"y": 0.7851788721,
				"z": -1.11546637,
				"element": "H" 
			},
			{
				"x": -0.1929338634,
				"y": -1.3930353721,
				"z": 1.6924651216,
				"element": "H" 
			}
		],
		 "valence_orbital": [ 
			{
				"type": "occ",
				"energy": -0.31604,
				"method": "rhf"
			},
			{
				"type": "occ",
				"energy": -0.29575,
				"method": "rhf"
			},
			{
				"type": "occ",
				"energy": -0.27421,
				"method": "rhf"
			},
			{
				"type": "occ",
				"energy": -0.25769,
				"method": "rhf"
			},
			{
				"type": "occ",
				"energy": -0.2429,
				"method": "rhf"
			},
			{
				"type": "unocc",
				"energy": -0.08699,
				"method": "rhf"
			},
			{
				"type": "unocc",
				"energy": -0.02973,
				"method": "rhf"
			},
			{
				"type": "unocc",
				"energy": -0.01121,
				"method": "rhf"
			},
			{
				"type": "unocc",
				"energy": 0.03155,
				"method": "rhf"
			},
			{
				"type": "unocc",
				"energy": 0.03983,
				"method": "rhf"
			}
		],
		"cosmo_sigma_profile": { 
			"-0.025": 0.0,
			"-0.024": 0.0,
			"-0.023": 0.0,
			"-0.022": 0.0,
			"-0.021": 0.0,
			"-0.02": 0.0,
			"-0.019": 0.0,
			"-0.018": 0.0,
			"-0.017": 0.0,
			"-0.016": 0.0,
			"-0.015": 0.0,
			"-0.014": 0.0,
			"-0.013": 0.0,
			"-0.012": 0.0,
			"-0.011": 0.0,
			"-0.01": 0.0,
			"-0.009": 0.0,
			"-0.008": 0.118258401567,
			"-0.007": 5.24741100566,
			"-0.006": 13.8060990779,
			"-0.005": 15.5712995606,
			"-0.004": 20.7292693924,
			"-0.003": 18.2042753691,
			"-0.002": 22.2565899767,
			"-0.001": 20.1622872448,
			"0.0": 17.399727408,
			"0.001": 20.2191094102,
			"0.002": 21.7210029947,
			"0.003": 21.8425381724,
			"0.004": 15.4175645002,
			"0.005": 6.51451179495,
			"0.006": 3.81605760391,
			"0.007": 3.12708595201,
			"0.008": 2.78839246796,
			"0.009": 3.14969414451,
			"0.01": 3.60229074042,
			"0.011": 2.33454491985,
			"0.012": 1.06118594984,
			"0.013": 0.57963696949,
			"0.014": 0.0107334229111,
			"0.015": 0.0,
			"0.016": 0.0,
			"0.017": 0.0,
			"0.018": 0.0,
			"0.019": 0.0,
			"0.02": 0.0,
			"0.021": 0.0,
			"0.022": 0.0,
			"0.023": 0.0,
			"0.024": 0.0,
			"0.025": 0.0
		}
	}
}
