{
	 "smiles": "CC1(C)OC2(C)CCC1C(=O)OC2(C)C", 
	 "Tm": 351.15, 
	 "num_atms": 35, 
	 "gaussian": { 
		 "optdone": 1, 
		 "sigma_profile": "yes", 
		 "theory": "DFT", 
		 "functional": "B3LYP", 
		 "basiset": "6-31G**", 
		 "properties": { 
			 "R2extent": 2922.4172, 
			 "electric_dipole_moment_norm": 4.15592013638, 
			 "electric_quadrupole_moment_norm": 15.2161134936, 
			 "total_energy": -695.016855761, 
			 "HOMO_LUMO_gap": 0.2675, 
			 "cosmo_polarized_energy": -11.85, 
			 "cosmo_cavitation_energy": 32.4, 
			 "cosmo_dispersion_energy": -22.81, 
			 "cosmo_repulsion_energy": 1.72, 
			 "cosmo_total_nonelectrostatic_energy": 11.31, 
			 "SMD_solvation_energy": 6.19 
		},
		"coords": [
			{
				"x": 1.6731207301,
				"y": 1.4584750533,
				"z": -2.4011926555,
				"element": "C" 
			},
			{
				"x": 1.708929015,
				"y": 0.6747105379,
				"z": -1.077396779,
				"element": "C" 
			},
			{
				"x": 2.8857659724,
				"y": 1.1729185964,
				"z": -0.2282897489,
				"element": "C" 
			},
			{
				"x": 0.5157127875,
				"y": 0.990650132,
				"z": -0.3245843686,
				"element": "O" 
			},
			{
				"x": -0.55194558,
				"y": 0.0300683421,
				"z": -0.2536265404,
				"element": "C" 
			},
			{
				"x": -1.7984094548,
				"y": 0.8891770132,
				"z": 0.0168338484,
				"element": "C" 
			},
			{
				"x": -0.727656659,
				"y": -0.6866338232,
				"z": -1.6074084108,
				"element": "C" 
			},
			{
				"x": 0.5586889635,
				"y": -1.3840659332,
				"z": -2.0881788818,
				"element": "C" 
			},
			{
				"x": 1.7936296952,
				"y": -0.8494697958,
				"z": -1.3301494862,
				"element": "C" 
			},
			{
				"x": 1.987229756,
				"y": -1.6269033565,
				"z": -0.0354675456,
				"element": "C" 
			},
			{
				"x": 3.0129954131,
				"y": -2.2171850766,
				"z": 0.2188503494,
				"element": "O" 
			},
			{
				"x": 0.9533764385,
				"y": -1.7326938685,
				"z": 0.8320513555,
				"element": "O" 
			},
			{
				"x": -0.2852537351,
				"y": -0.9493086333,
				"z": 0.948236315,
				"element": "C" 
			},
			{
				"x": -0.113469901,
				"y": -0.181207394,
				"z": 2.2672964786,
				"element": "C" 
			},
			{
				"x": -1.3670350495,
				"y": -2.0275714918,
				"z": 1.1012421128,
				"element": "C" 
			},
			{
				"x": 2.6039273673,
				"y": 1.3224797876,
				"z": -2.9617046123,
				"element": "H" 
			},
			{
				"x": 0.8415010336,
				"y": 1.1545985977,
				"z": -3.0411055751,
				"element": "H" 
			},
			{
				"x": 1.5556087117,
				"y": 2.5240109751,
				"z": -2.1845128944,
				"element": "H" 
			},
			{
				"x": 2.7631577597,
				"y": 2.2412227998,
				"z": -0.0278656099,
				"element": "H" 
			},
			{
				"x": 3.8356084581,
				"y": 1.023427373,
				"z": -0.7507817564,
				"element": "H" 
			},
			{
				"x": 2.9386477477,
				"y": 0.6501602902,
				"z": 0.7296666181,
				"element": "H" 
			},
			{
				"x": -1.9472112991,
				"y": 1.5620008757,
				"z": -0.8314005146,
				"element": "H" 
			},
			{
				"x": -2.699057823,
				"y": 0.2813597221,
				"z": 0.1349372072,
				"element": "H" 
			},
			{
				"x": -1.6673193235,
				"y": 1.5058702397,
				"z": 0.9073905633,
				"element": "H" 
			},
			{
				"x": -1.5633590598,
				"y": -1.3892987647,
				"z": -1.5530911985,
				"element": "H" 
			},
			{
				"x": -1.0257738565,
				"y": 0.0821311049,
				"z": -2.3270782395,
				"element": "H" 
			},
			{
				"x": 0.4966836694,
				"y": -2.4680706631,
				"z": -1.9478785646,
				"element": "H" 
			},
			{
				"x": 0.692722731,
				"y": -1.2244389446,
				"z": -3.1621567877,
				"element": "H" 
			},
			{
				"x": 2.7015252967,
				"y": -1.0492512004,
				"z": -1.9043430044,
				"element": "H" 
			},
			{
				"x": -1.0675557382,
				"y": 0.2123719789,
				"z": 2.6277365367,
				"element": "H" 
			},
			{
				"x": 0.583131311,
				"y": 0.6493477144,
				"z": 2.1396148701,
				"element": "H" 
			},
			{
				"x": 0.2820112992,
				"y": -0.8638926306,
				"z": 3.0227926646,
				"element": "H" 
			},
			{
				"x": -2.3504911335,
				"y": -1.587706945,
				"z": 1.2844336947,
				"element": "H" 
			},
			{
				"x": -1.1147893437,
				"y": -2.6635491965,
				"z": 1.9536599684,
				"element": "H" 
			},
			{
				"x": -1.4266461998,
				"y": -2.6679334159,
				"z": 0.2179705915,
				"element": "H" 
			}
		],
		 "valence_orbital": [ 
			{
				"type": "occ",
				"energy": -0.31603,
				"method": "rhf"
			},
			{
				"type": "occ",
				"energy": -0.28857,
				"method": "rhf"
			},
			{
				"type": "occ",
				"energy": -0.28028,
				"method": "rhf"
			},
			{
				"type": "occ",
				"energy": -0.25887,
				"method": "rhf"
			},
			{
				"type": "occ",
				"energy": -0.24799,
				"method": "rhf"
			},
			{
				"type": "unocc",
				"energy": 0.01951,
				"method": "rhf"
			},
			{
				"type": "unocc",
				"energy": 0.05801,
				"method": "rhf"
			},
			{
				"type": "unocc",
				"energy": 0.08672,
				"method": "rhf"
			},
			{
				"type": "unocc",
				"energy": 0.08999,
				"method": "rhf"
			},
			{
				"type": "unocc",
				"energy": 0.09869,
				"method": "rhf"
			}
		],
		"cosmo_sigma_profile": { 
			"-0.025": 0.0,
			"-0.024": 0.0,
			"-0.023": 0.0,
			"-0.022": 0.0,
			"-0.021": 0.0,
			"-0.02": 0.0,
			"-0.019": 0.0,
			"-0.018": 0.0,
			"-0.017": 0.0,
			"-0.016": 0.0,
			"-0.015": 0.0,
			"-0.014": 0.0,
			"-0.013": 0.0,
			"-0.012": 0.0,
			"-0.011": 0.0,
			"-0.01": 0.0,
			"-0.009": 0.0,
			"-0.008": 0.0,
			"-0.007": 0.0,
			"-0.006": 0.664659288097,
			"-0.005": 12.7067607632,
			"-0.004": 35.0488979228,
			"-0.003": 34.4195316225,
			"-0.002": 32.6368246369,
			"-0.001": 32.4213349351,
			"0.0": 33.2344723823,
			"0.001": 19.2374198002,
			"0.002": 5.12186650512,
			"0.003": 4.18456812371,
			"0.004": 4.43743033099,
			"0.005": 4.09787542945,
			"0.006": 3.52108986676,
			"0.007": 2.57430025641,
			"0.008": 3.12647894934,
			"0.009": 1.99811821406,
			"0.01": 3.13945539041,
			"0.011": 3.97079419249,
			"0.012": 5.93347247927,
			"0.013": 5.29791307227,
			"0.014": 1.96329092049,
			"0.015": 0.0943572739961,
			"0.016": 0.0,
			"0.017": 0.0,
			"0.018": 0.0,
			"0.019": 0.0,
			"0.02": 0.0,
			"0.021": 0.0,
			"0.022": 0.0,
			"0.023": 0.0,
			"0.024": 0.0,
			"0.025": 0.0
		}
	}
}
