{
	 "smiles": "C1CCC=CCC1", 
	 "Tm": 217.15, 
	 "num_atms": 19, 
	 "gaussian": { 
		 "optdone": 1, 
		 "sigma_profile": "yes", 
		 "theory": "DFT", 
		 "functional": "B3LYP", 
		 "basiset": "6-31G**", 
		 "properties": { 
			 "R2extent": 1054.5732, 
			 "electric_dipole_moment_norm": 0.298191968369, 
			 "electric_quadrupole_moment_norm": 1.71184543695, 
			 "total_energy": -273.962199715, 
			 "HOMO_LUMO_gap": 0.25878, 
			 "cosmo_polarized_energy": -1.28, 
			 "cosmo_cavitation_energy": 19.45, 
			 "cosmo_dispersion_energy": -15.06, 
			 "cosmo_repulsion_energy": 1.28, 
			 "cosmo_total_nonelectrostatic_energy": 5.66, 
			 "SMD_solvation_energy": 2.62 
		},
		"coords": [
			{
				"x": 0.9986751218,
				"y": -0.348824103,
				"z": -0.8660236328,
				"element": "C" 
			},
			{
				"x": -0.0677456381,
				"y": 0.7056299889,
				"z": -0.4850263412,
				"element": "C" 
			},
			{
				"x": -0.2043987982,
				"y": 0.9843964782,
				"z": 1.0274611014,
				"element": "C" 
			},
			{
				"x": 1.0953684254,
				"y": 1.2256188282,
				"z": 1.7673623764,
				"element": "C" 
			},
			{
				"x": 2.1224356933,
				"y": 0.3746435861,
				"z": 1.8735611495,
				"element": "C" 
			},
			{
				"x": 2.2825124082,
				"y": -0.9960614831,
				"z": 1.2599226285,
				"element": "C" 
			},
			{
				"x": 1.2450339879,
				"y": -1.4272281792,
				"z": 0.2046323357,
				"element": "C" 
			},
			{
				"x": 0.6987304532,
				"y": -0.82119783,
				"z": -1.8090149715,
				"element": "H" 
			},
			{
				"x": 1.95231688,
				"y": 0.152405957,
				"z": -1.0729250202,
				"element": "H" 
			},
			{
				"x": -1.0508397766,
				"y": 0.3811420706,
				"z": -0.8500571724,
				"element": "H" 
			},
			{
				"x": 0.156316815,
				"y": 1.6422911619,
				"z": -1.0096058166,
				"element": "H" 
			},
			{
				"x": -0.7336410308,
				"y": 0.1452903948,
				"z": 1.4970651186,
				"element": "H" 
			},
			{
				"x": -0.8617604063,
				"y": 1.8506729685,
				"z": 1.1611138597,
				"element": "H" 
			},
			{
				"x": 1.1857984,
				"y": 2.1813814516,
				"z": 2.2819497395,
				"element": "H" 
			},
			{
				"x": 2.9776875955,
				"y": 0.696769009,
				"z": 2.4689663511,
				"element": "H" 
			},
			{
				"x": 3.2777805616,
				"y": -1.0268068757,
				"z": 0.7904327581,
				"element": "H" 
			},
			{
				"x": 2.3302587305,
				"y": -1.7462995727,
				"z": 2.0642835334,
				"element": "H" 
			},
			{
				"x": 1.6174034201,
				"y": -2.3413806423,
				"z": -0.2731490186,
				"element": "H" 
			},
			{
				"x": 0.3004671574,
				"y": -1.7084432088,
				"z": 0.6854510214,
				"element": "H" 
			}
		],
		 "valence_orbital": [ 
			{
				"type": "occ",
				"energy": -0.32485,
				"method": "rhf"
			},
			{
				"type": "occ",
				"energy": -0.3198,
				"method": "rhf"
			},
			{
				"type": "occ",
				"energy": -0.30764,
				"method": "rhf"
			},
			{
				"type": "occ",
				"energy": -0.30223,
				"method": "rhf"
			},
			{
				"type": "occ",
				"energy": -0.23058,
				"method": "rhf"
			},
			{
				"type": "unocc",
				"energy": 0.0282,
				"method": "rhf"
			},
			{
				"type": "unocc",
				"energy": 0.08624,
				"method": "rhf"
			},
			{
				"type": "unocc",
				"energy": 0.1165,
				"method": "rhf"
			},
			{
				"type": "unocc",
				"energy": 0.12689,
				"method": "rhf"
			},
			{
				"type": "unocc",
				"energy": 0.13164,
				"method": "rhf"
			}
		],
		"cosmo_sigma_profile": { 
			"-0.025": 0.0,
			"-0.024": 0.0,
			"-0.023": 0.0,
			"-0.022": 0.0,
			"-0.021": 0.0,
			"-0.02": 0.0,
			"-0.019": 0.0,
			"-0.018": 0.0,
			"-0.017": 0.0,
			"-0.016": 0.0,
			"-0.015": 0.0,
			"-0.014": 0.0,
			"-0.013": 0.0,
			"-0.012": 0.0,
			"-0.011": 0.0,
			"-0.01": 0.0,
			"-0.009": 0.0,
			"-0.008": 0.0,
			"-0.007": 0.0,
			"-0.006": 0.0,
			"-0.005": 0.0,
			"-0.004": 1.40535866296,
			"-0.003": 11.0386961459,
			"-0.002": 25.0156492801,
			"-0.001": 31.1915345104,
			"0.0": 32.9790042364,
			"0.001": 23.467846526,
			"0.002": 8.94122715005,
			"0.003": 3.90720041618,
			"0.004": 3.58299437528,
			"0.005": 2.86893178258,
			"0.006": 2.28337317133,
			"0.007": 2.42803794606,
			"0.008": 0.996549847642,
			"0.009": 0.0,
			"0.01": 0.0,
			"0.011": 0.0,
			"0.012": 0.0,
			"0.013": 0.0,
			"0.014": 0.0,
			"0.015": 0.0,
			"0.016": 0.0,
			"0.017": 0.0,
			"0.018": 0.0,
			"0.019": 0.0,
			"0.02": 0.0,
			"0.021": 0.0,
			"0.022": 0.0,
			"0.023": 0.0,
			"0.024": 0.0,
			"0.025": 0.0
		}
	}
}
