{
	 "smiles": "O=C1CNCCCNCC(=O)NCCCN1", 
	 "Tm": 414.15, 
	 "num_atms": 36, 
	 "gaussian": { 
		 "optdone": 1, 
		 "sigma_profile": "yes", 
		 "theory": "DFT", 
		 "functional": "B3LYP", 
		 "basiset": "6-31G**", 
		 "properties": { 
			 "R2extent": 4785.6334, 
			 "electric_dipole_moment_norm": 4.7981885384, 
			 "electric_quadrupole_moment_norm": 32.380181241, 
			 "total_energy": -762.567343976, 
			 "HOMO_LUMO_gap": 0.23147, 
			 "cosmo_polarized_energy": -25.97, 
			 "cosmo_cavitation_energy": 35.24, 
			 "cosmo_dispersion_energy": -24.93, 
			 "cosmo_repulsion_energy": 1.94, 
			 "cosmo_total_nonelectrostatic_energy": 12.24, 
			 "SMD_solvation_energy": 3.15 
		},
		"coords": [
			{
				"x": 3.8345596195,
				"y": 2.6201337472,
				"z": -1.6487637445,
				"element": "O" 
			},
			{
				"x": 2.6217897696,
				"y": 2.541787159,
				"z": -1.5151089217,
				"element": "C" 
			},
			{
				"x": 1.9654704013,
				"y": 2.8799363433,
				"z": -0.1606589132,
				"element": "C" 
			},
			{
				"x": 2.2848939057,
				"y": 1.8764412896,
				"z": 0.8521992447,
				"element": "N" 
			},
			{
				"x": 1.3909663421,
				"y": 0.7263581901,
				"z": 0.9496173584,
				"element": "C" 
			},
			{
				"x": 0.0184219053,
				"y": 0.9877389536,
				"z": 1.6010586766,
				"element": "C" 
			},
			{
				"x": -0.8904590241,
				"y": -0.2441246245,
				"z": 1.7602882736,
				"element": "C" 
			},
			{
				"x": -1.4561944457,
				"y": -0.7444493318,
				"z": 0.494468097,
				"element": "N" 
			},
			{
				"x": -0.7265815045,
				"y": -1.8644140225,
				"z": -0.106344003,
				"element": "C" 
			},
			{
				"x": -1.3120004751,
				"y": -2.3700484998,
				"z": -1.4337968078,
				"element": "C" 
			},
			{
				"x": -1.5391009121,
				"y": -3.5654278787,
				"z": -1.5861516149,
				"element": "O" 
			},
			{
				"x": -1.5407086875,
				"y": -1.4770909459,
				"z": -2.4483467336,
				"element": "N" 
			},
			{
				"x": -1.2770810124,
				"y": -0.0429387037,
				"z": -2.4908208543,
				"element": "C" 
			},
			{
				"x": 0.181084265,
				"y": 0.3296203187,
				"z": -2.8086545061,
				"element": "C" 
			},
			{
				"x": 0.4189594047,
				"y": 1.8411779839,
				"z": -2.6398308029,
				"element": "C" 
			},
			{
				"x": 1.8245891705,
				"y": 2.2125841633,
				"z": -2.5892142942,
				"element": "N" 
			},
			{
				"x": 2.4449187453,
				"y": 3.8169668468,
				"z": 0.135158206,
				"element": "H" 
			},
			{
				"x": 0.8892261868,
				"y": 3.0908197485,
				"z": -0.2577264517,
				"element": "H" 
			},
			{
				"x": 2.4019910737,
				"y": 2.3163749707,
				"z": 1.7582888559,
				"element": "H" 
			},
			{
				"x": 1.9092076147,
				"y": -0.0574356119,
				"z": 1.519096897,
				"element": "H" 
			},
			{
				"x": 1.2613683422,
				"y": 0.3296107493,
				"z": -0.0618776969,
				"element": "H" 
			},
			{
				"x": -0.5331313945,
				"y": 1.7511566672,
				"z": 1.0389547637,
				"element": "H" 
			},
			{
				"x": 0.1953398421,
				"y": 1.4015290168,
				"z": 2.6045433952,
				"element": "H" 
			},
			{
				"x": -1.7307270872,
				"y": 0.0444089253,
				"z": 2.4013126914,
				"element": "H" 
			},
			{
				"x": -0.3476514454,
				"y": -1.0381387419,
				"z": 2.3025556926,
				"element": "H" 
			},
			{
				"x": -2.4122946494,
				"y": -1.0451066087,
				"z": 0.6590292185,
				"element": "H" 
			},
			{
				"x": 0.3072155815,
				"y": -1.5519809104,
				"z": -0.2914651786,
				"element": "H" 
			},
			{
				"x": -0.6788171832,
				"y": -2.7535836589,
				"z": 0.5392780959,
				"element": "H" 
			},
			{
				"x": -1.8595010278,
				"y": -1.9342599264,
				"z": -3.2928789842,
				"element": "H" 
			},
			{
				"x": -1.9495158331,
				"y": 0.3911209024,
				"z": -3.2395565907,
				"element": "H" 
			},
			{
				"x": -1.5492836532,
				"y": 0.3725604499,
				"z": -1.517740847,
				"element": "H" 
			},
			{
				"x": 0.8482031137,
				"y": -0.2074631154,
				"z": -2.1267419791,
				"element": "H" 
			},
			{
				"x": 0.4517042444,
				"y": 0.0077732505,
				"z": -3.8224325866,
				"element": "H" 
			},
			{
				"x": -0.0688247193,
				"y": 2.3909886661,
				"z": -3.4559277931,
				"element": "H" 
			},
			{
				"x": -0.0588299092,
				"y": 2.1775227959,
				"z": -1.7173917897,
				"element": "H" 
			},
			{
				"x": 2.3787934355,
				"y": 2.0251514424,
				"z": -3.4170183725,
				"element": "H" 
			}
		],
		 "valence_orbital": [ 
			{
				"type": "occ",
				"energy": -0.24801,
				"method": "rhf"
			},
			{
				"type": "occ",
				"energy": -0.24547,
				"method": "rhf"
			},
			{
				"type": "occ",
				"energy": -0.23977,
				"method": "rhf"
			},
			{
				"type": "occ",
				"energy": -0.23935,
				"method": "rhf"
			},
			{
				"type": "occ",
				"energy": -0.21584,
				"method": "rhf"
			},
			{
				"type": "unocc",
				"energy": 0.01563,
				"method": "rhf"
			},
			{
				"type": "unocc",
				"energy": 0.02172,
				"method": "rhf"
			},
			{
				"type": "unocc",
				"energy": 0.06491,
				"method": "rhf"
			},
			{
				"type": "unocc",
				"energy": 0.073,
				"method": "rhf"
			},
			{
				"type": "unocc",
				"energy": 0.07581,
				"method": "rhf"
			}
		],
		"cosmo_sigma_profile": { 
			"-0.025": 0.0,
			"-0.024": 0.0,
			"-0.023": 0.0,
			"-0.022": 0.0,
			"-0.021": 0.0,
			"-0.02": 0.0,
			"-0.019": 0.0,
			"-0.018": 0.0,
			"-0.017": 0.0,
			"-0.016": 0.0,
			"-0.015": 0.0,
			"-0.014": 0.0,
			"-0.013": 1.22547413385,
			"-0.012": 2.24056608904,
			"-0.011": 2.48815280392,
			"-0.01": 4.93082134058,
			"-0.009": 4.23327034007,
			"-0.008": 5.99842491511,
			"-0.007": 6.26777779201,
			"-0.006": 11.1987697327,
			"-0.005": 19.6811609475,
			"-0.004": 24.4520654429,
			"-0.003": 33.9353026538,
			"-0.002": 32.7690013808,
			"-0.001": 21.8370444157,
			"0.0": 16.1746659823,
			"0.001": 9.26538542255,
			"0.002": 7.96568925982,
			"0.003": 6.85793260625,
			"0.004": 6.20839500477,
			"0.005": 4.58070797405,
			"0.006": 2.80429173039,
			"0.007": 2.83274924379,
			"0.008": 4.20440905731,
			"0.009": 3.37761517485,
			"0.01": 2.73003786554,
			"0.011": 2.27369731949,
			"0.012": 3.84677518584,
			"0.013": 5.1279280828,
			"0.014": 11.6021646332,
			"0.015": 7.86314549143,
			"0.016": 2.49654972726,
			"0.017": 0.947891069475,
			"0.018": 0.461481783835,
			"0.019": 0.0,
			"0.02": 0.0,
			"0.021": 0.0,
			"0.022": 0.0,
			"0.023": 0.0,
			"0.024": 0.0,
			"0.025": 0.0
		}
	}
}
