{
	 "smiles": "ClC1=NC(Cl)=NC=C1", 
	 "Tm": 333.15, 
	 "num_atms": 10, 
	 "gaussian": { 
		 "optdone": 1, 
		 "sigma_profile": "yes", 
		 "theory": "DFT", 
		 "functional": "B3LYP", 
		 "basiset": "6-31G**", 
		 "properties": { 
			 "R2extent": 1984.8647, 
			 "electric_dipole_moment_norm": 3.26122566377, 
			 "electric_quadrupole_moment_norm": 7.7622197914, 
			 "total_energy": -1183.50636032, 
			 "HOMO_LUMO_gap": 0.21831, 
			 "cosmo_polarized_energy": -7.36, 
			 "cosmo_cavitation_energy": 18.61, 
			 "cosmo_dispersion_energy": -14.45, 
			 "cosmo_repulsion_energy": 1.21, 
			 "cosmo_total_nonelectrostatic_energy": 5.37, 
			 "SMD_solvation_energy": -0.04 
		},
		"coords": [
			{
				"x": -1.3750889533,
				"y": 0.6148394285,
				"z": 0.4782064575,
				"element": "Cl" 
			},
			{
				"x": -0.2283625471,
				"y": -0.6986567014,
				"z": 0.3594747883,
				"element": "C" 
			},
			{
				"x": 0.1811243831,
				"y": -1.0301089477,
				"z": -0.8543928846,
				"element": "N" 
			},
			{
				"x": 1.053620656,
				"y": -2.0344121554,
				"z": -0.9079022547,
				"element": "C" 
			},
			{
				"x": 1.6007684944,
				"y": -2.4781893782,
				"z": -2.5059421022,
				"element": "Cl" 
			},
			{
				"x": 1.5559634781,
				"y": -2.7340174714,
				"z": 0.1004992243,
				"element": "N" 
			},
			{
				"x": 1.1204052714,
				"y": -2.3726360859,
				"z": 1.3159282606,
				"element": "C" 
			},
			{
				"x": 0.2088335729,
				"y": -1.341294567,
				"z": 1.5188843464,
				"element": "C" 
			},
			{
				"x": 1.5205377572,
				"y": -2.9346922564,
				"z": 2.1567317777,
				"element": "H" 
			},
			{
				"x": -0.1379021127,
				"y": -1.0557318651,
				"z": 2.5033123866,
				"element": "H" 
			}
		],
		 "valence_orbital": [ 
			{
				"type": "occ",
				"energy": -0.33838,
				"method": "rhf"
			},
			{
				"type": "occ",
				"energy": -0.3283,
				"method": "rhf"
			},
			{
				"type": "occ",
				"energy": -0.32104,
				"method": "rhf"
			},
			{
				"type": "occ",
				"energy": -0.2887,
				"method": "rhf"
			},
			{
				"type": "occ",
				"energy": -0.28663,
				"method": "rhf"
			},
			{
				"type": "unocc",
				"energy": -0.06832,
				"method": "rhf"
			},
			{
				"type": "unocc",
				"energy": -0.05641,
				"method": "rhf"
			},
			{
				"type": "unocc",
				"energy": 0.00555,
				"method": "rhf"
			},
			{
				"type": "unocc",
				"energy": 0.03771,
				"method": "rhf"
			},
			{
				"type": "unocc",
				"energy": 0.09806,
				"method": "rhf"
			}
		],
		"cosmo_sigma_profile": { 
			"-0.025": 0.0,
			"-0.024": 0.0,
			"-0.023": 0.0,
			"-0.022": 0.0,
			"-0.021": 0.0,
			"-0.02": 0.0,
			"-0.019": 0.0,
			"-0.018": 0.0,
			"-0.017": 0.0,
			"-0.016": 0.0,
			"-0.015": 0.0,
			"-0.014": 0.0,
			"-0.013": 0.0,
			"-0.012": 0.0,
			"-0.011": 0.0,
			"-0.01": 2.15793583579,
			"-0.009": 5.6010896857,
			"-0.008": 4.38713590995,
			"-0.007": 3.06346428534,
			"-0.006": 4.61782392328,
			"-0.005": 5.00489127538,
			"-0.004": 9.35624479521,
			"-0.003": 14.3028774043,
			"-0.002": 13.355049868,
			"-0.001": 11.0843213723,
			"0.0": 7.95208969243,
			"0.001": 11.1686410508,
			"0.002": 13.5793954382,
			"0.003": 18.9352922314,
			"0.004": 10.2191789198,
			"0.005": 5.0789315118,
			"0.006": 3.2445583856,
			"0.007": 2.68397744713,
			"0.008": 2.38641721316,
			"0.009": 2.46157937824,
			"0.01": 1.66099788902,
			"0.011": 1.74320017804,
			"0.012": 1.04441259889,
			"0.013": 0.552590840972,
			"0.014": 0.058905948261,
			"0.015": 0.0,
			"0.016": 0.0,
			"0.017": 0.0,
			"0.018": 0.0,
			"0.019": 0.0,
			"0.02": 0.0,
			"0.021": 0.0,
			"0.022": 0.0,
			"0.023": 0.0,
			"0.024": 0.0,
			"0.025": 0.0
		}
	}
}
