{
	 "smiles": "COC1=CC(=NC=C1)C1=CC(OC)=CC=N1", 
	 "Tm": 445.15, 
	 "num_atms": 28, 
	 "gaussian": { 
		 "optdone": 1, 
		 "sigma_profile": "yes", 
		 "theory": "DFT", 
		 "functional": "B3LYP", 
		 "basiset": "6-31G**", 
		 "properties": { 
			 "R2extent": 5425.2993, 
			 "electric_dipole_moment_norm": 2.62474737832, 
			 "electric_quadrupole_moment_norm": 18.2509007175, 
			 "total_energy": -724.442719628, 
			 "HOMO_LUMO_gap": 0.1884, 
			 "cosmo_polarized_energy": -11.54, 
			 "cosmo_cavitation_energy": 32.3, 
			 "cosmo_dispersion_energy": -23.93, 
			 "cosmo_repulsion_energy": 1.85, 
			 "cosmo_total_nonelectrostatic_energy": 10.22, 
			 "SMD_solvation_energy": 5.18 
		},
		"coords": [
			{
				"x": -0.8198398691,
				"y": -0.6210213532,
				"z": 5.4182292126,
				"element": "C" 
			},
			{
				"x": 0.5912256014,
				"y": -0.7039805411,
				"z": 5.2520545065,
				"element": "O" 
			},
			{
				"x": 1.1072978996,
				"y": -0.4526418529,
				"z": 4.0228041484,
				"element": "C" 
			},
			{
				"x": 0.3554265404,
				"y": -0.1154770308,
				"z": 2.8954737916,
				"element": "C" 
			},
			{
				"x": 1.0305835279,
				"y": 0.116763147,
				"z": 1.6890621729,
				"element": "C" 
			},
			{
				"x": 2.364256263,
				"y": 0.0319381883,
				"z": 1.5602051213,
				"element": "N" 
			},
			{
				"x": 3.0645642798,
				"y": -0.2927550279,
				"z": 2.6538809755,
				"element": "C" 
			},
			{
				"x": 2.5012837784,
				"y": -0.5440059084,
				"z": 3.8987610841,
				"element": "C" 
			},
			{
				"x": 0.2541970866,
				"y": 0.478824291,
				"z": 0.4671967276,
				"element": "C" 
			},
			{
				"x": 0.9131517455,
				"y": 0.712909772,
				"z": -0.7383800472,
				"element": "C" 
			},
			{
				"x": 0.1585771474,
				"y": 1.0506825022,
				"z": -1.8675353807,
				"element": "C" 
			},
			{
				"x": 0.8530565876,
				"y": 1.2671876485,
				"z": -3.0129774478,
				"element": "O" 
			},
			{
				"x": 0.1283947024,
				"y": 1.6126891439,
				"z": -4.18622284,
				"element": "C" 
			},
			{
				"x": -1.2331092302,
				"y": 1.1407844502,
				"z": -1.7428305752,
				"element": "C" 
			},
			{
				"x": -1.7872550698,
				"y": 0.8852736508,
				"z": -0.4857447756,
				"element": "C" 
			},
			{
				"x": -1.0872273414,
				"y": 0.5627767135,
				"z": 0.5997669793,
				"element": "N" 
			},
			{
				"x": -1.1915181815,
				"y": 0.3866310577,
				"z": 5.1971912183,
				"element": "H" 
			},
			{
				"x": -1.0113630213,
				"y": -0.8565668096,
				"z": 6.4658930413,
				"element": "H" 
			},
			{
				"x": -1.3423584164,
				"y": -1.3439975213,
				"z": 4.7805411998,
				"element": "H" 
			},
			{
				"x": -0.7218263951,
				"y": -0.0243354083,
				"z": 2.9056447164,
				"element": "H" 
			},
			{
				"x": 4.144294897,
				"y": -0.3564235717,
				"z": 2.5286175582,
				"element": "H" 
			},
			{
				"x": 3.107172329,
				"y": -0.8042165851,
				"z": 4.7593502912,
				"element": "H" 
			},
			{
				"x": 1.9911381958,
				"y": 0.6335380346,
				"z": -0.7954604482,
				"element": "H" 
			},
			{
				"x": 0.8738092974,
				"y": 1.7381477349,
				"z": -4.9724487918,
				"element": "H" 
			},
			{
				"x": -0.572558736,
				"y": 0.8196855763,
				"z": -4.4749636832,
				"element": "H" 
			},
			{
				"x": -0.423304535,
				"y": 2.5521003879,
				"z": -4.057006082,
				"element": "H" 
			},
			{
				"x": -1.8766329902,
				"y": 1.397146972,
				"z": -2.574952089,
				"element": "H" 
			},
			{
				"x": -2.8674360933,
				"y": 0.9480423395,
				"z": -0.3591505842,
				"element": "H" 
			}
		],
		 "valence_orbital": [ 
			{
				"type": "occ",
				"energy": -0.25902,
				"method": "rhf"
			},
			{
				"type": "occ",
				"energy": -0.24485,
				"method": "rhf"
			},
			{
				"type": "occ",
				"energy": -0.24469,
				"method": "rhf"
			},
			{
				"type": "occ",
				"energy": -0.23994,
				"method": "rhf"
			},
			{
				"type": "occ",
				"energy": -0.22857,
				"method": "rhf"
			},
			{
				"type": "unocc",
				"energy": -0.04017,
				"method": "rhf"
			},
			{
				"type": "unocc",
				"energy": -0.00996,
				"method": "rhf"
			},
			{
				"type": "unocc",
				"energy": 0.00669,
				"method": "rhf"
			},
			{
				"type": "unocc",
				"energy": 0.04084,
				"method": "rhf"
			},
			{
				"type": "unocc",
				"energy": 0.09353,
				"method": "rhf"
			}
		],
		"cosmo_sigma_profile": { 
			"-0.025": 0.0,
			"-0.024": 0.0,
			"-0.023": 0.0,
			"-0.022": 0.0,
			"-0.021": 0.0,
			"-0.02": 0.0,
			"-0.019": 0.0,
			"-0.018": 0.0,
			"-0.017": 0.0,
			"-0.016": 0.0,
			"-0.015": 0.0,
			"-0.014": 0.0,
			"-0.013": 0.0,
			"-0.012": 0.0,
			"-0.011": 0.0,
			"-0.01": 0.0,
			"-0.009": 0.0,
			"-0.008": 0.411854459283,
			"-0.007": 6.09106819153,
			"-0.006": 21.5631577996,
			"-0.005": 26.3805719482,
			"-0.004": 24.7513394539,
			"-0.003": 20.3969072818,
			"-0.002": 11.2296391534,
			"-0.001": 13.0288299662,
			"0.0": 11.6813597853,
			"0.001": 15.221144844,
			"0.002": 33.7969712948,
			"0.003": 23.6654731673,
			"0.004": 9.61910248283,
			"0.005": 8.59955636674,
			"0.006": 6.89756971055,
			"0.007": 5.26020032949,
			"0.008": 5.45711098104,
			"0.009": 7.24053968257,
			"0.01": 3.01192306579,
			"0.011": 1.71723080148,
			"0.012": 2.27803232902,
			"0.013": 0.162886099196,
			"0.014": 0.0,
			"0.015": 0.0,
			"0.016": 0.0,
			"0.017": 0.0,
			"0.018": 0.0,
			"0.019": 0.0,
			"0.02": 0.0,
			"0.021": 0.0,
			"0.022": 0.0,
			"0.023": 0.0,
			"0.024": 0.0,
			"0.025": 0.0
		}
	}
}
