{
	 "smiles": "COC1C(O)CC2CN3CCC4=C(NC5=C4C=CC(OC)=C5)C3CC2C1C(O)=O", 
	 "Tm": 515.15, 
	 "num_atms": 57, 
	 "gaussian": { 
		 "optdone": 1, 
		 "sigma_profile": "yes", 
		 "theory": "DFT", 
		 "functional": "B3LYP", 
		 "basiset": "6-31G**", 
		 "properties": { 
			 "R2extent": 11381.2878, 
			 "electric_dipole_moment_norm": 2.41596729696, 
			 "electric_quadrupole_moment_norm": 28.3006950528, 
			 "total_energy": -1340.82849158, 
			 "HOMO_LUMO_gap": 0.17295, 
			 "cosmo_polarized_energy": -21.38, 
			 "cosmo_cavitation_energy": 52.26, 
			 "cosmo_dispersion_energy": -35.85, 
			 "cosmo_repulsion_energy": 2.66, 
			 "cosmo_total_nonelectrostatic_energy": 19.07, 
			 "SMD_solvation_energy": 6.27 
		},
		"coords": [
			{
				"x": -1.5462425291,
				"y": 1.7272076404,
				"z": -2.4016075698,
				"element": "C" 
			},
			{
				"x": -0.2061904219,
				"y": 2.1483846315,
				"z": -2.5861688206,
				"element": "O" 
			},
			{
				"x": 0.6457977474,
				"y": 1.9118237962,
				"z": -1.4764813889,
				"element": "C" 
			},
			{
				"x": 1.8845586841,
				"y": 2.7941184486,
				"z": -1.6220789876,
				"element": "C" 
			},
			{
				"x": 2.7395483112,
				"y": 2.3838176635,
				"z": -2.6790295916,
				"element": "O" 
			},
			{
				"x": 2.6835967887,
				"y": 2.7593765474,
				"z": -0.3105199693,
				"element": "C" 
			},
			{
				"x": 2.8335443186,
				"y": 1.3423744012,
				"z": 0.3119597259,
				"element": "C" 
			},
			{
				"x": 2.0659481076,
				"y": 1.1947126325,
				"z": 1.6350346083,
				"element": "C" 
			},
			{
				"x": 2.3286642887,
				"y": -0.1030908034,
				"z": 2.2645998942,
				"element": "N" 
			},
			{
				"x": 1.7326726962,
				"y": -0.2181366223,
				"z": 3.6013571209,
				"element": "C" 
			},
			{
				"x": 0.1824528384,
				"y": -0.1985913363,
				"z": 3.6229946148,
				"element": "C" 
			},
			{
				"x": -0.3466114121,
				"y": -1.0181736266,
				"z": 2.4808885037,
				"element": "C" 
			},
			{
				"x": 0.4607288617,
				"y": -1.4642111443,
				"z": 1.463789275,
				"element": "C" 
			},
			{
				"x": -0.2914298,
				"y": -2.2326221689,
				"z": 0.5772564218,
				"element": "N" 
			},
			{
				"x": -1.6105093628,
				"y": -2.2293436665,
				"z": 0.993573307,
				"element": "C" 
			},
			{
				"x": -1.6799545953,
				"y": -1.4879225508,
				"z": 2.2021078974,
				"element": "C" 
			},
			{
				"x": -2.9286766043,
				"y": -1.362802152,
				"z": 2.8378794211,
				"element": "C" 
			},
			{
				"x": -4.0466718161,
				"y": -1.9482074675,
				"z": 2.2676540894,
				"element": "C" 
			},
			{
				"x": -3.9531805153,
				"y": -2.6718673103,
				"z": 1.055078046,
				"element": "C" 
			},
			{
				"x": -5.1385890314,
				"y": -3.1925611488,
				"z": 0.6052228659,
				"element": "O" 
			},
			{
				"x": -5.1239729808,
				"y": -3.9429217022,
				"z": -0.5939115531,
				"element": "C" 
			},
			{
				"x": -2.7322309385,
				"y": -2.8238658437,
				"z": 0.3988167547,
				"element": "C" 
			},
			{
				"x": 1.9606216081,
				"y": -1.2587140081,
				"z": 1.4231711515,
				"element": "C" 
			},
			{
				"x": 2.6201712738,
				"y": -1.1473207628,
				"z": 0.0334081258,
				"element": "C" 
			},
			{
				"x": 2.4475485761,
				"y": 0.2120692478,
				"z": -0.6679944803,
				"element": "C" 
			},
			{
				"x": 1.0176184508,
				"y": 0.4055053174,
				"z": -1.2904660424,
				"element": "C" 
			},
			{
				"x": 0.9864824984,
				"y": -0.3487970047,
				"z": -2.6047014992,
				"element": "C" 
			},
			{
				"x": 0.3591686676,
				"y": -1.5566078152,
				"z": -2.4926611724,
				"element": "O" 
			},
			{
				"x": 1.4804962656,
				"y": -0.0039789933,
				"z": -3.6575232207,
				"element": "O" 
			},
			{
				"x": -2.1050851171,
				"y": 2.0523465019,
				"z": -3.2820613687,
				"element": "H" 
			},
			{
				"x": -1.6394067082,
				"y": 0.6352005397,
				"z": -2.311805293,
				"element": "H" 
			},
			{
				"x": -1.9919322802,
				"y": 2.1852536359,
				"z": -1.505636927,
				"element": "H" 
			},
			{
				"x": 0.1285059365,
				"y": 2.2317634102,
				"z": -0.5574504883,
				"element": "H" 
			},
			{
				"x": 1.5296440612,
				"y": 3.8206220218,
				"z": -1.8041908727,
				"element": "H" 
			},
			{
				"x": 2.2216518271,
				"y": 1.8890974536,
				"z": -3.3347477941,
				"element": "H" 
			},
			{
				"x": 2.201224965,
				"y": 3.4314915734,
				"z": 0.4109098689,
				"element": "H" 
			},
			{
				"x": 3.6677395987,
				"y": 3.1852522985,
				"z": -0.5259144312,
				"element": "H" 
			},
			{
				"x": 3.8895222661,
				"y": 1.1778919918,
				"z": 0.5572556052,
				"element": "H" 
			},
			{
				"x": 0.9887649763,
				"y": 1.3777856914,
				"z": 1.4632691954,
				"element": "H" 
			},
			{
				"x": 2.4054335869,
				"y": 1.9697291406,
				"z": 2.3334278323,
				"element": "H" 
			},
			{
				"x": 2.0836294409,
				"y": -1.1644861336,
				"z": 4.0312436483,
				"element": "H" 
			},
			{
				"x": 2.1324991518,
				"y": 0.5874772677,
				"z": 4.2277376165,
				"element": "H" 
			},
			{
				"x": -0.1897701614,
				"y": 0.834589327,
				"z": 3.563198051,
				"element": "H" 
			},
			{
				"x": -0.1682893796,
				"y": -0.5858031807,
				"z": 4.5888201854,
				"element": "H" 
			},
			{
				"x": 0.0038176976,
				"y": -2.4850787056,
				"z": -0.3546270141,
				"element": "H" 
			},
			{
				"x": -3.0223027506,
				"y": -0.809756373,
				"z": 3.7684781608,
				"element": "H" 
			},
			{
				"x": -5.0236638044,
				"y": -1.8691649337,
				"z": 2.7326492137,
				"element": "H" 
			},
			{
				"x": -6.1528653055,
				"y": -4.2644345034,
				"z": -0.7653232644,
				"element": "H" 
			},
			{
				"x": -4.479297609,
				"y": -4.8287810603,
				"z": -0.5125262412,
				"element": "H" 
			},
			{
				"x": -4.789514102,
				"y": -3.3391326836,
				"z": -1.4488787436,
				"element": "H" 
			},
			{
				"x": -2.6412042032,
				"y": -3.3795224656,
				"z": -0.5269463954,
				"element": "H" 
			},
			{
				"x": 2.4218784488,
				"y": -2.1379741867,
				"z": 1.9002593231,
				"element": "H" 
			},
			{
				"x": 2.2762450409,
				"y": -1.9681829134,
				"z": -0.6070984378,
				"element": "H" 
			},
			{
				"x": 3.6936746845,
				"y": -1.3074694068,
				"z": 0.1825918726,
				"element": "H" 
			},
			{
				"x": 3.1532025175,
				"y": 0.2655642427,
				"z": -1.5011621738,
				"element": "H" 
			},
			{
				"x": 0.2756427966,
				"y": -0.0506554882,
				"z": -0.6350318753,
				"element": "H" 
			},
			{
				"x": 0.4291944495,
				"y": -1.9756772606,
				"z": -3.3682867802,
				"element": "H" 
			}
		],
		 "valence_orbital": [ 
			{
				"type": "occ",
				"energy": -0.25466,
				"method": "rhf"
			},
			{
				"type": "occ",
				"energy": -0.24872,
				"method": "rhf"
			},
			{
				"type": "occ",
				"energy": -0.21245,
				"method": "rhf"
			},
			{
				"type": "occ",
				"energy": -0.20926,
				"method": "rhf"
			},
			{
				"type": "occ",
				"energy": -0.1833,
				"method": "rhf"
			},
			{
				"type": "unocc",
				"energy": -0.01035,
				"method": "rhf"
			},
			{
				"type": "unocc",
				"energy": -0.00011,
				"method": "rhf"
			},
			{
				"type": "unocc",
				"energy": 0.0321,
				"method": "rhf"
			},
			{
				"type": "unocc",
				"energy": 0.05208,
				"method": "rhf"
			},
			{
				"type": "unocc",
				"energy": 0.06384,
				"method": "rhf"
			}
		],
		"cosmo_sigma_profile": { 
			"-0.025": 0.0,
			"-0.024": 0.0,
			"-0.023": 0.0,
			"-0.022": 0.0,
			"-0.021": 0.00344329380128,
			"-0.02": 0.0136424632613,
			"-0.019": 0.0973472983246,
			"-0.018": 1.0379711027,
			"-0.017": 0.850351369029,
			"-0.016": 0.77874525047,
			"-0.015": 0.872987707927,
			"-0.014": 0.710878491395,
			"-0.013": 0.375305085655,
			"-0.012": 0.901452014323,
			"-0.011": 0.69629201395,
			"-0.01": 0.921451535169,
			"-0.009": 2.02893979546,
			"-0.008": 2.83178356576,
			"-0.007": 3.20816916313,
			"-0.006": 5.69375126896,
			"-0.005": 23.7207597752,
			"-0.004": 37.2401009763,
			"-0.003": 60.0522341239,
			"-0.002": 55.8201393128,
			"-0.001": 38.7162143899,
			"0.0": 27.4839255702,
			"0.001": 16.3679758858,
			"0.002": 12.4732461694,
			"0.003": 14.2342890839,
			"0.004": 14.6474666075,
			"0.005": 16.8962269675,
			"0.006": 21.1745566396,
			"0.007": 14.7740876116,
			"0.008": 5.66365495111,
			"0.009": 5.70224957036,
			"0.01": 8.59289364452,
			"0.011": 5.46184915749,
			"0.012": 2.42561334803,
			"0.013": 1.36331596119,
			"0.014": 2.04131180542,
			"0.015": 1.37872336307,
			"0.016": 0.241114106754,
			"0.017": 0.0,
			"0.018": 0.0,
			"0.019": 0.0,
			"0.02": 0.0,
			"0.021": 0.0,
			"0.022": 0.0,
			"0.023": 0.0,
			"0.024": 0.0,
			"0.025": 0.0
		}
	}
}
