{
	 "smiles": "NC1=NN=C(SC2=C(C=C(C=C2)[N+]([O-])=O)C#N)S1", 
	 "Tm": 519.15, 
	 "num_atms": 23, 
	 "gaussian": { 
		 "optdone": 1, 
		 "sigma_profile": "yes", 
		 "theory": "DFT", 
		 "functional": "B3LYP", 
		 "basiset": "6-31G**", 
		 "properties": { 
			 "R2extent": 6574.1047, 
			 "electric_dipole_moment_norm": 4.23229297072, 
			 "electric_quadrupole_moment_norm": 19.6592801188, 
			 "total_energy": -1566.38407298, 
			 "HOMO_LUMO_gap": 0.12722, 
			 "cosmo_polarized_energy": -21.56, 
			 "cosmo_cavitation_energy": 34.09, 
			 "cosmo_dispersion_energy": -24.46, 
			 "cosmo_repulsion_energy": 1.81, 
			 "cosmo_total_nonelectrostatic_energy": 11.43, 
			 "SMD_solvation_energy": 6.54 
		},
		"coords": [
			{
				"x": -0.967081317,
				"y": -4.4461753088,
				"z": 3.1238160495,
				"element": "N" 
			},
			{
				"x": -0.4017365689,
				"y": -3.3718657829,
				"z": 2.4909989035,
				"element": "C" 
			},
			{
				"x": -0.2275521777,
				"y": -2.2086126166,
				"z": 3.0696540409,
				"element": "N" 
			},
			{
				"x": 0.4599269753,
				"y": -1.3274453799,
				"z": 2.2872193558,
				"element": "N" 
			},
			{
				"x": 0.7666011264,
				"y": -1.8020323931,
				"z": 1.1194464531,
				"element": "C" 
			},
			{
				"x": 1.6388621957,
				"y": -0.907563348,
				"z": -0.1390890873,
				"element": "S" 
			},
			{
				"x": 0.8731093767,
				"y": 0.7053070406,
				"z": -0.0583271212,
				"element": "C" 
			},
			{
				"x": -0.5243336382,
				"y": 0.9198651014,
				"z": -0.1460074251,
				"element": "C" 
			},
			{
				"x": -1.0319161776,
				"y": 2.2247391421,
				"z": -0.1347865793,
				"element": "C" 
			},
			{
				"x": -0.1468700229,
				"y": 3.2939108363,
				"z": -0.0663515564,
				"element": "C" 
			},
			{
				"x": 1.2311291796,
				"y": 3.1079469264,
				"z": -0.0027741906,
				"element": "C" 
			},
			{
				"x": 1.731640902,
				"y": 1.809245937,
				"z": 0.0094325989,
				"element": "C" 
			},
			{
				"x": -0.6877912195,
				"y": 4.6635060683,
				"z": -0.0648682915,
				"element": "N" 
			},
			{
				"x": 0.1198396726,
				"y": 5.588960484,
				"z": -0.0126340029,
				"element": "O" 
			},
			{
				"x": -1.9092854785,
				"y": 4.7905949363,
				"z": -0.1179685159,
				"element": "O" 
			},
			{
				"x": -1.4516160254,
				"y": -0.1657995473,
				"z": -0.2716281784,
				"element": "C" 
			},
			{
				"x": -2.2290568891,
				"y": -1.022037109,
				"z": -0.3922677287,
				"element": "N" 
			},
			{
				"x": 0.2556998071,
				"y": -3.4728480605,
				"z": 0.8604602473,
				"element": "S" 
			},
			{
				"x": -1.5125148718,
				"y": -5.0822389061,
				"z": 2.5599185194,
				"element": "H" 
			},
			{
				"x": -1.3990355322,
				"y": -4.1999105922,
				"z": 4.0058228368,
				"element": "H" 
			},
			{
				"x": -2.0970836798,
				"y": 2.4086105369,
				"z": -0.1936690747,
				"element": "H" 
			},
			{
				"x": 1.8845209133,
				"y": 3.9695062076,
				"z": 0.0547702953,
				"element": "H" 
			},
			{
				"x": 2.8001434496,
				"y": 1.6436358275,
				"z": 0.0912324516,
				"element": "H" 
			}
		],
		 "valence_orbital": [ 
			{
				"type": "occ",
				"energy": -0.30334,
				"method": "rhf"
			},
			{
				"type": "occ",
				"energy": -0.2945,
				"method": "rhf"
			},
			{
				"type": "occ",
				"energy": -0.28391,
				"method": "rhf"
			},
			{
				"type": "occ",
				"energy": -0.27121,
				"method": "rhf"
			},
			{
				"type": "occ",
				"energy": -0.23742,
				"method": "rhf"
			},
			{
				"type": "unocc",
				"energy": -0.1102,
				"method": "rhf"
			},
			{
				"type": "unocc",
				"energy": -0.07653,
				"method": "rhf"
			},
			{
				"type": "unocc",
				"energy": -0.04762,
				"method": "rhf"
			},
			{
				"type": "unocc",
				"energy": -0.03457,
				"method": "rhf"
			},
			{
				"type": "unocc",
				"energy": -0.01654,
				"method": "rhf"
			}
		],
		"cosmo_sigma_profile": { 
			"-0.025": 0.0,
			"-0.024": 0.0,
			"-0.023": 0.0,
			"-0.022": 0.0,
			"-0.021": 0.0,
			"-0.02": 0.0,
			"-0.019": 0.0,
			"-0.018": 0.0,
			"-0.017": 0.0,
			"-0.016": 0.216947595725,
			"-0.015": 2.23158096564,
			"-0.014": 3.28867505746,
			"-0.013": 2.83472372058,
			"-0.012": 3.35922931197,
			"-0.011": 2.09133422375,
			"-0.01": 3.36949203212,
			"-0.009": 6.71181780312,
			"-0.008": 7.82085764593,
			"-0.007": 8.92916567268,
			"-0.006": 10.1683645255,
			"-0.005": 11.7435783113,
			"-0.004": 15.8113698789,
			"-0.003": 24.061157926,
			"-0.002": 18.549549094,
			"-0.001": 18.8784735119,
			"0.0": 15.7557956808,
			"0.001": 14.5916835775,
			"0.002": 14.8823335266,
			"0.003": 12.8548160067,
			"0.004": 10.3511358466,
			"0.005": 8.94734975859,
			"0.006": 11.5917434313,
			"0.007": 13.7758811469,
			"0.008": 9.36595702855,
			"0.009": 8.82429773453,
			"0.01": 6.1810839785,
			"0.011": 5.3396366031,
			"0.012": 4.19632830647,
			"0.013": 2.17783202041,
			"0.014": 1.21084703345,
			"0.015": 0.131004783383,
			"0.016": 0.0,
			"0.017": 0.0,
			"0.018": 0.0,
			"0.019": 0.0,
			"0.02": 0.0,
			"0.021": 0.0,
			"0.022": 0.0,
			"0.023": 0.0,
			"0.024": 0.0,
			"0.025": 0.0
		}
	}
}
