{
	 "smiles": "CC1CCC(C)(C(=O)NNC2=CC=CC=C2)C1(C)C", 
	 "Tm": 365.15, 
	 "num_atms": 43, 
	 "gaussian": { 
		 "optdone": 1, 
		 "sigma_profile": "yes", 
		 "theory": "DFT", 
		 "functional": "B3LYP", 
		 "basiset": "6-31G**", 
		 "properties": { 
			 "R2extent": 7710.6986, 
			 "electric_dipole_moment_norm": 3.0467013851, 
			 "electric_quadrupole_moment_norm": 4.28840458329, 
			 "total_energy": -808.885565211, 
			 "HOMO_LUMO_gap": 0.21055, 
			 "cosmo_polarized_energy": -12.62, 
			 "cosmo_cavitation_energy": 41.31, 
			 "cosmo_dispersion_energy": -28.5, 
			 "cosmo_repulsion_energy": 2.14, 
			 "cosmo_total_nonelectrostatic_energy": 14.95, 
			 "SMD_solvation_energy": 7.09 
		},
		"coords": [
			{
				"x": 3.2194843876,
				"y": -0.0536443233,
				"z": -2.6584054144,
				"element": "C" 
			},
			{
				"x": 2.9590632386,
				"y": -0.9660941543,
				"z": -1.4484973308,
				"element": "C" 
			},
			{
				"x": 3.073619549,
				"y": -0.1928298851,
				"z": -0.1222941906,
				"element": "C" 
			},
			{
				"x": 1.6981801489,
				"y": 0.4656082805,
				"z": 0.0338696722,
				"element": "C" 
			},
			{
				"x": 0.6736820775,
				"y": -0.6214184485,
				"z": -0.4175473195,
				"element": "C" 
			},
			{
				"x": 0.10357376,
				"y": -1.3078219597,
				"z": 0.8453523645,
				"element": "C" 
			},
			{
				"x": -0.5613965851,
				"y": -0.0817861267,
				"z": -1.1653677338,
				"element": "C" 
			},
			{
				"x": -1.6194288125,
				"y": -0.7013957893,
				"z": -1.2072402376,
				"element": "O" 
			},
			{
				"x": -0.4532004983,
				"y": 1.1337948456,
				"z": -1.8125748389,
				"element": "N" 
			},
			{
				"x": -1.4915429711,
				"y": 1.5138944549,
				"z": -2.6758674869,
				"element": "N" 
			},
			{
				"x": -2.3299782575,
				"y": 2.5688388533,
				"z": -2.2319000692,
				"element": "C" 
			},
			{
				"x": -3.5792621262,
				"y": 2.7238897031,
				"z": -2.8525915704,
				"element": "C" 
			},
			{
				"x": -4.4081976273,
				"y": 3.7864790661,
				"z": -2.5043553681,
				"element": "C" 
			},
			{
				"x": -4.0079028248,
				"y": 4.7134225937,
				"z": -1.5379391554,
				"element": "C" 
			},
			{
				"x": -2.765347689,
				"y": 4.557596951,
				"z": -0.9236372864,
				"element": "C" 
			},
			{
				"x": -1.9262297386,
				"y": 3.4950731081,
				"z": -1.2630225365,
				"element": "C" 
			},
			{
				"x": 1.5308354213,
				"y": -1.6250775206,
				"z": -1.3713901146,
				"element": "C" 
			},
			{
				"x": 1.6945645676,
				"y": -3.0264516702,
				"z": -0.7403312405,
				"element": "C" 
			},
			{
				"x": 0.8900152695,
				"y": -1.8436765396,
				"z": -2.7558438424,
				"element": "C" 
			},
			{
				"x": 2.5264018808,
				"y": 0.7936457752,
				"z": -2.714116482,
				"element": "H" 
			},
			{
				"x": 4.2300284091,
				"y": 0.3644558194,
				"z": -2.5976083771,
				"element": "H" 
			},
			{
				"x": 3.1442767775,
				"y": -0.5961121147,
				"z": -3.6046058836,
				"element": "H" 
			},
			{
				"x": 3.7093517727,
				"y": -1.7654420116,
				"z": -1.4903129478,
				"element": "H" 
			},
			{
				"x": 3.2558415356,
				"y": -0.8863092001,
				"z": 0.7068897262,
				"element": "H" 
			},
			{
				"x": 3.8951734517,
				"y": 0.5315746328,
				"z": -0.1200772919,
				"element": "H" 
			},
			{
				"x": 1.4956393738,
				"y": 0.7981366299,
				"z": 1.0565563234,
				"element": "H" 
			},
			{
				"x": 1.6587811119,
				"y": 1.3669171313,
				"z": -0.584467001,
				"element": "H" 
			},
			{
				"x": -0.5840240649,
				"y": -2.1143660804,
				"z": 0.5919156478,
				"element": "H" 
			},
			{
				"x": 0.9045418533,
				"y": -1.7003918273,
				"z": 1.4765111442,
				"element": "H" 
			},
			{
				"x": -0.4574379865,
				"y": -0.5764388105,
				"z": 1.435491764,
				"element": "H" 
			},
			{
				"x": 0.459259137,
				"y": 1.4500330399,
				"z": -2.1088993478,
				"element": "H" 
			},
			{
				"x": -2.0301459562,
				"y": 0.6778018693,
				"z": -2.8951945315,
				"element": "H" 
			},
			{
				"x": -3.893369957,
				"y": 2.0093175301,
				"z": -3.6095000853,
				"element": "H" 
			},
			{
				"x": -5.3746162686,
				"y": 3.888423478,
				"z": -2.9903061632,
				"element": "H" 
			},
			{
				"x": -4.6559217645,
				"y": 5.5416461366,
				"z": -1.2684258519,
				"element": "H" 
			},
			{
				"x": -2.4409646074,
				"y": 5.2664895603,
				"z": -0.1665383309,
				"element": "H" 
			},
			{
				"x": -0.9673767225,
				"y": 3.3734098749,
				"z": -0.771830136,
				"element": "H" 
			},
			{
				"x": 2.2283443854,
				"y": -3.0019193033,
				"z": 0.2138806822,
				"element": "H" 
			},
			{
				"x": 0.7317403613,
				"y": -3.5173455962,
				"z": -0.5761360816,
				"element": "H" 
			},
			{
				"x": 2.2730014155,
				"y": -3.6603744002,
				"z": -1.4208931533,
				"element": "H" 
			},
			{
				"x": 1.5282765659,
				"y": -2.4903553115,
				"z": -3.3676449775,
				"element": "H" 
			},
			{
				"x": 0.7398797312,
				"y": -0.9141650529,
				"z": -3.3116375353,
				"element": "H" 
			},
			{
				"x": -0.0840117244,
				"y": -2.3299332081,
				"z": -2.6562674109,
				"element": "H" 
			}
		],
		 "valence_orbital": [ 
			{
				"type": "occ",
				"energy": -0.30283,
				"method": "rhf"
			},
			{
				"type": "occ",
				"energy": -0.26368,
				"method": "rhf"
			},
			{
				"type": "occ",
				"energy": -0.25461,
				"method": "rhf"
			},
			{
				"type": "occ",
				"energy": -0.24242,
				"method": "rhf"
			},
			{
				"type": "occ",
				"energy": -0.2042,
				"method": "rhf"
			},
			{
				"type": "unocc",
				"energy": 0.00635,
				"method": "rhf"
			},
			{
				"type": "unocc",
				"energy": 0.01111,
				"method": "rhf"
			},
			{
				"type": "unocc",
				"energy": 0.02148,
				"method": "rhf"
			},
			{
				"type": "unocc",
				"energy": 0.04904,
				"method": "rhf"
			},
			{
				"type": "unocc",
				"energy": 0.07404,
				"method": "rhf"
			}
		],
		"cosmo_sigma_profile": { 
			"-0.025": 0.0,
			"-0.024": 0.0,
			"-0.023": 0.0,
			"-0.022": 0.0,
			"-0.021": 0.0,
			"-0.02": 0.0022707972154,
			"-0.019": 0.0441494769019,
			"-0.018": 0.0842391320342,
			"-0.017": 0.0971621203958,
			"-0.016": 0.0762148070559,
			"-0.015": 0.0805844224908,
			"-0.014": 0.181184912353,
			"-0.013": 0.810146228995,
			"-0.012": 1.67442468595,
			"-0.011": 1.02312463412,
			"-0.01": 2.53369997834,
			"-0.009": 2.32265196008,
			"-0.008": 2.12413351114,
			"-0.007": 3.27225886896,
			"-0.006": 4.83205017631,
			"-0.005": 11.0460069293,
			"-0.004": 15.8298154145,
			"-0.003": 31.6190285668,
			"-0.002": 41.9302734063,
			"-0.001": 40.1527175499,
			"0.0": 36.3652128967,
			"0.001": 37.6154956734,
			"0.002": 20.1464342218,
			"0.003": 11.1758227207,
			"0.004": 10.0846909748,
			"0.005": 12.0527554562,
			"0.006": 12.0165808656,
			"0.007": 7.41065670577,
			"0.008": 2.22425183533,
			"0.009": 1.70754404538,
			"0.01": 1.63431130447,
			"0.011": 2.55790689911,
			"0.012": 2.32551378523,
			"0.013": 3.54580845754,
			"0.014": 1.16686686078,
			"0.015": 0.0,
			"0.016": 0.0,
			"0.017": 0.0,
			"0.018": 0.0,
			"0.019": 0.0,
			"0.02": 0.0,
			"0.021": 0.0,
			"0.022": 0.0,
			"0.023": 0.0,
			"0.024": 0.0,
			"0.025": 0.0
		}
	}
}
