{
	 "smiles": "OCC(NC(=O)C1=CC(Br)=CC=C1)C(O)=O", 
	 "Tm": 414.15, 
	 "num_atms": 26, 
	 "gaussian": { 
		 "optdone": 1, 
		 "sigma_profile": "yes", 
		 "theory": "DFT", 
		 "functional": "B3LYP", 
		 "basiset": "6-31G**", 
		 "properties": { 
			 "R2extent": 8213.7455, 
			 "electric_dipole_moment_norm": 4.53007322899, 
			 "electric_quadrupole_moment_norm": 14.2547561123, 
			 "total_energy": -3314.16158423, 
			 "HOMO_LUMO_gap": 0.19855, 
			 "cosmo_polarized_energy": -20.03, 
			 "cosmo_cavitation_energy": 33.65, 
			 "cosmo_dispersion_energy": -24.15, 
			 "cosmo_repulsion_energy": 1.9, 
			 "cosmo_total_nonelectrostatic_energy": 11.41, 
			 "SMD_solvation_energy": 6.17 
		},
		"coords": [
			{
				"x": 0.6290762287,
				"y": -2.2849263884,
				"z": -3.1160356496,
				"element": "O" 
			},
			{
				"x": -0.1361777945,
				"y": -2.5385701855,
				"z": -1.9536492016,
				"element": "C" 
			},
			{
				"x": -0.8710614519,
				"y": -1.2704243929,
				"z": -1.4681277648,
				"element": "C" 
			},
			{
				"x": 0.0741335755,
				"y": -0.2006962083,
				"z": -1.1598285262,
				"element": "N" 
			},
			{
				"x": 0.6086374698,
				"y": -0.1157778851,
				"z": 0.1047873196,
				"element": "C" 
			},
			{
				"x": 0.4202030097,
				"y": -0.9887609403,
				"z": 0.9463945977,
				"element": "O" 
			},
			{
				"x": 1.4450767887,
				"y": 1.0999293212,
				"z": 0.3953861639,
				"element": "C" 
			},
			{
				"x": 1.6922397569,
				"y": 1.3831062341,
				"z": 1.745030414,
				"element": "C" 
			},
			{
				"x": 2.4540857909,
				"y": 2.4959074251,
				"z": 2.0816562128,
				"element": "C" 
			},
			{
				"x": 2.7778684435,
				"y": 2.8906935125,
				"z": 3.9223463169,
				"element": "Br" 
			},
			{
				"x": 2.9906306421,
				"y": 3.3313868171,
				"z": 1.1008979409,
				"element": "C" 
			},
			{
				"x": 2.7567163859,
				"y": 3.034020177,
				"z": -0.2420005265,
				"element": "C" 
			},
			{
				"x": 1.9886653364,
				"y": 1.9256207894,
				"z": -0.5980952351,
				"element": "C" 
			},
			{
				"x": -1.8949974032,
				"y": -0.8535156212,
				"z": -2.5131840291,
				"element": "C" 
			},
			{
				"x": -1.7096590511,
				"y": 0.4061997659,
				"z": -2.9822524239,
				"element": "O" 
			},
			{
				"x": -2.7871999574,
				"y": -1.5711833629,
				"z": -2.896669971,
				"element": "O" 
			},
			{
				"x": 1.3191775586,
				"y": -1.6560729599,
				"z": -2.864506058,
				"element": "H" 
			},
			{
				"x": -0.8777453672,
				"y": -3.2962955293,
				"z": -2.216568518,
				"element": "H" 
			},
			{
				"x": 0.4764632086,
				"y": -2.9120062666,
				"z": -1.1229773593,
				"element": "H" 
			},
			{
				"x": -1.4221246767,
				"y": -1.5304296136,
				"z": -0.5556689415,
				"element": "H" 
			},
			{
				"x": -0.0037383676,
				"y": 0.6412439679,
				"z": -1.7117569471,
				"element": "H" 
			},
			{
				"x": 1.2840388606,
				"y": 0.7234937244,
				"z": 2.5010804306,
				"element": "H" 
			},
			{
				"x": 3.5850003147,
				"y": 4.1927078531,
				"z": 1.3835717763,
				"element": "H" 
			},
			{
				"x": 3.1835497784,
				"y": 3.6688355316,
				"z": -1.0124943067,
				"element": "H" 
			},
			{
				"x": 1.8472162558,
				"y": 1.6949558742,
				"z": -1.6494952485,
				"element": "H" 
			},
			{
				"x": -2.4025753353,
				"y": 0.5566583604,
				"z": -3.6471404661,
				"element": "H" 
			}
		],
		 "valence_orbital": [ 
			{
				"type": "occ",
				"energy": -0.29007,
				"method": "rhf"
			},
			{
				"type": "occ",
				"energy": -0.27839,
				"method": "rhf"
			},
			{
				"type": "occ",
				"energy": -0.26906,
				"method": "rhf"
			},
			{
				"type": "occ",
				"energy": -0.26572,
				"method": "rhf"
			},
			{
				"type": "occ",
				"energy": -0.2552,
				"method": "rhf"
			},
			{
				"type": "unocc",
				"energy": -0.05665,
				"method": "rhf"
			},
			{
				"type": "unocc",
				"energy": -0.02881,
				"method": "rhf"
			},
			{
				"type": "unocc",
				"energy": -0.00821,
				"method": "rhf"
			},
			{
				"type": "unocc",
				"energy": -0.00041,
				"method": "rhf"
			},
			{
				"type": "unocc",
				"energy": 0.04033,
				"method": "rhf"
			}
		],
		"cosmo_sigma_profile": { 
			"-0.025": 0.0,
			"-0.024": 0.0,
			"-0.023": 0.0,
			"-0.022": 0.0,
			"-0.021": 0.0,
			"-0.02": 0.0277666713561,
			"-0.019": 0.687885737514,
			"-0.018": 1.27551701479,
			"-0.017": 0.683179153662,
			"-0.016": 0.427091695248,
			"-0.015": 1.31335519073,
			"-0.014": 1.17777252401,
			"-0.013": 1.13424003909,
			"-0.012": 2.53421257641,
			"-0.011": 2.3368031939,
			"-0.01": 3.29152184783,
			"-0.009": 2.81492923459,
			"-0.008": 5.38665127554,
			"-0.007": 11.489244261,
			"-0.006": 12.7352826639,
			"-0.005": 14.3788511082,
			"-0.004": 15.8016639277,
			"-0.003": 17.2436058555,
			"-0.002": 14.8052165983,
			"-0.001": 14.2056367544,
			"0.0": 15.6861601417,
			"0.001": 19.8702339903,
			"0.002": 25.7526846574,
			"0.003": 18.7017432652,
			"0.004": 18.3490530614,
			"0.005": 9.0953013699,
			"0.006": 3.19181523463,
			"0.007": 3.52094530029,
			"0.008": 4.18999310421,
			"0.009": 3.98150092083,
			"0.01": 5.09630946241,
			"0.011": 8.39162519943,
			"0.012": 4.96337209536,
			"0.013": 5.51783566382,
			"0.014": 0.969165615609,
			"0.015": 0.0,
			"0.016": 0.0,
			"0.017": 0.0,
			"0.018": 0.0,
			"0.019": 0.0,
			"0.02": 0.0,
			"0.021": 0.0,
			"0.022": 0.0,
			"0.023": 0.0,
			"0.024": 0.0,
			"0.025": 0.0
		}
	}
}
