{
	 "smiles": "BrC1=CC2=C(NC=CC2=O)C=C1", 
	 "Tm": 560.15, 
	 "num_atms": 18, 
	 "gaussian": { 
		 "optdone": 1, 
		 "sigma_profile": "yes", 
		 "theory": "DFT", 
		 "functional": "B3LYP", 
		 "basiset": "6-31G**", 
		 "properties": { 
			 "R2extent": 5118.1998, 
			 "electric_dipole_moment_norm": 6.78731904142, 
			 "electric_quadrupole_moment_norm": 9.40461152255, 
			 "total_energy": -3047.96142294, 
			 "HOMO_LUMO_gap": 0.1671, 
			 "cosmo_polarized_energy": -18.92, 
			 "cosmo_cavitation_energy": 24.7, 
			 "cosmo_dispersion_energy": -19.01, 
			 "cosmo_repulsion_energy": 1.49, 
			 "cosmo_total_nonelectrostatic_energy": 7.19, 
			 "SMD_solvation_energy": 3.66 
		},
		"coords": [
			{
				"x": -2.854223031,
				"y": 1.24243868,
				"z": 4.0630664193,
				"element": "Br" 
			},
			{
				"x": -1.3148184303,
				"y": 0.9600824324,
				"z": 2.9664813157,
				"element": "C" 
			},
			{
				"x": -1.4200571255,
				"y": 1.0333539642,
				"z": 1.5896723569,
				"element": "C" 
			},
			{
				"x": -0.2871417289,
				"y": 0.8252199334,
				"z": 0.7872520169,
				"element": "C" 
			},
			{
				"x": 0.9504204862,
				"y": 0.5423411231,
				"z": 1.4028165276,
				"element": "C" 
			},
			{
				"x": 2.0641220231,
				"y": 0.3379272936,
				"z": 0.6047655753,
				"element": "N" 
			},
			{
				"x": 1.9934294137,
				"y": 0.403455022,
				"z": -0.7611366484,
				"element": "C" 
			},
			{
				"x": 0.8344844288,
				"y": 0.6712754953,
				"z": -1.4162918307,
				"element": "C" 
			},
			{
				"x": -0.4111611363,
				"y": 0.9062888767,
				"z": -0.695281948,
				"element": "C" 
			},
			{
				"x": -1.4850860973,
				"y": 1.1524439261,
				"z": -1.2474753977,
				"element": "O" 
			},
			{
				"x": 1.0421437635,
				"y": 0.4710534003,
				"z": 2.805135078,
				"element": "C" 
			},
			{
				"x": -0.0849529271,
				"y": 0.6789291293,
				"z": 3.5829455673,
				"element": "C" 
			},
			{
				"x": -2.3576683802,
				"y": 1.24883473,
				"z": 1.0902329261,
				"element": "H" 
			},
			{
				"x": 2.9476750741,
				"y": 0.1359686171,
				"z": 1.0470872175,
				"element": "H" 
			},
			{
				"x": 2.9294857797,
				"y": 0.2259592926,
				"z": -1.2802562629,
				"element": "H" 
			},
			{
				"x": 0.8145559862,
				"y": 0.7155475875,
				"z": -2.4983823865,
				"element": "H" 
			},
			{
				"x": 1.9963272191,
				"y": 0.253080041,
				"z": 3.2781973376,
				"element": "H" 
			},
			{
				"x": -0.0204353177,
				"y": 0.6253004553,
				"z": 4.663672136,
				"element": "H" 
			}
		],
		 "valence_orbital": [ 
			{
				"type": "occ",
				"energy": -0.28762,
				"method": "rhf"
			},
			{
				"type": "occ",
				"energy": -0.26924,
				"method": "rhf"
			},
			{
				"type": "occ",
				"energy": -0.26148,
				"method": "rhf"
			},
			{
				"type": "occ",
				"energy": -0.23357,
				"method": "rhf"
			},
			{
				"type": "occ",
				"energy": -0.21908,
				"method": "rhf"
			},
			{
				"type": "unocc",
				"energy": -0.05198,
				"method": "rhf"
			},
			{
				"type": "unocc",
				"energy": -0.02624,
				"method": "rhf"
			},
			{
				"type": "unocc",
				"energy": 0.00502,
				"method": "rhf"
			},
			{
				"type": "unocc",
				"energy": 0.00615,
				"method": "rhf"
			},
			{
				"type": "unocc",
				"energy": 0.04705,
				"method": "rhf"
			}
		],
		"cosmo_sigma_profile": { 
			"-0.025": 0.0,
			"-0.024": 0.0,
			"-0.023": 0.0,
			"-0.022": 0.0,
			"-0.021": 0.0,
			"-0.02": 0.0,
			"-0.019": 0.0,
			"-0.018": 0.0,
			"-0.017": 1.09628133743,
			"-0.016": 2.15309790613,
			"-0.015": 1.83700827573,
			"-0.014": 1.80999451717,
			"-0.013": 1.60849904948,
			"-0.012": 1.30326511274,
			"-0.011": 1.45964614554,
			"-0.01": 2.46615630248,
			"-0.009": 3.93033189054,
			"-0.008": 4.65093552911,
			"-0.007": 5.52573621057,
			"-0.006": 7.32703618715,
			"-0.005": 8.46665884821,
			"-0.004": 7.2262072596,
			"-0.003": 8.25062007361,
			"-0.002": 8.55190428536,
			"-0.001": 12.8542970862,
			"0.0": 16.8510830169,
			"0.001": 19.7702145524,
			"0.002": 26.9870317586,
			"0.003": 15.8488407381,
			"0.004": 12.5772544949,
			"0.005": 8.12433134475,
			"0.006": 1.7225864625,
			"0.007": 1.66838332894,
			"0.008": 1.31971722497,
			"0.009": 1.33510859515,
			"0.01": 1.11125721543,
			"0.011": 1.9306390389,
			"0.012": 1.68524796613,
			"0.013": 2.48863463941,
			"0.014": 4.91251565671,
			"0.015": 2.86503885522,
			"0.016": 0.527271618997,
			"0.017": 0.0,
			"0.018": 0.0,
			"0.019": 0.0,
			"0.02": 0.0,
			"0.021": 0.0,
			"0.022": 0.0,
			"0.023": 0.0,
			"0.024": 0.0,
			"0.025": 0.0
		}
	}
}
