{
	 "smiles": "CC1=CC(NC(=S)NN)=C(F)C=C1", 
	 "Tm": 407.15, 
	 "num_atms": 23, 
	 "gaussian": { 
		 "optdone": 1, 
		 "sigma_profile": "yes", 
		 "theory": "DFT", 
		 "functional": "B3LYP", 
		 "basiset": "6-31G**", 
		 "properties": { 
			 "R2extent": 4162.4324, 
			 "electric_dipole_moment_norm": 6.69746678902, 
			 "electric_quadrupole_moment_norm": 23.7299574376, 
			 "total_energy": -973.13215481, 
			 "HOMO_LUMO_gap": 0.16558, 
			 "cosmo_polarized_energy": -17.49, 
			 "cosmo_cavitation_energy": 28.66, 
			 "cosmo_dispersion_energy": -21.04, 
			 "cosmo_repulsion_energy": 1.62, 
			 "cosmo_total_nonelectrostatic_energy": 9.24, 
			 "SMD_solvation_energy": 4.72 
		},
		"coords": [
			{
				"x": -2.0590675724,
				"y": -3.2692375021,
				"z": -1.203857015,
				"element": "C" 
			},
			{
				"x": -1.555217472,
				"y": -2.2586145652,
				"z": -0.2001570514,
				"element": "C" 
			},
			{
				"x": -0.2213099122,
				"y": -2.2690710539,
				"z": 0.2176723034,
				"element": "C" 
			},
			{
				"x": 0.2695952806,
				"y": -1.3653482906,
				"z": 1.1720165739,
				"element": "C" 
			},
			{
				"x": 1.6110037318,
				"y": -1.5020619456,
				"z": 1.6100438922,
				"element": "N" 
			},
			{
				"x": 2.5300584624,
				"y": -0.5889002723,
				"z": 2.0814510169,
				"element": "C" 
			},
			{
				"x": 3.7543809424,
				"y": -1.0891311905,
				"z": 3.1223499708,
				"element": "S" 
			},
			{
				"x": 2.4739070563,
				"y": 0.695459195,
				"z": 1.6443221595,
				"element": "N" 
			},
			{
				"x": 1.8098284541,
				"y": 1.1832185327,
				"z": 0.5074042705,
				"element": "N" 
			},
			{
				"x": -0.631778338,
				"y": -0.4404136193,
				"z": 1.7104421706,
				"element": "C" 
			},
			{
				"x": -0.1997494538,
				"y": 0.4393548862,
				"z": 2.6420057654,
				"element": "F" 
			},
			{
				"x": -1.9553266416,
				"y": -0.3848954173,
				"z": 1.2949166244,
				"element": "C" 
			},
			{
				"x": -2.4155655937,
				"y": -1.2949414446,
				"z": 0.3455149844,
				"element": "C" 
			},
			{
				"x": -2.795848091,
				"y": -2.8258354008,
				"z": -1.8805337652,
				"element": "H" 
			},
			{
				"x": -1.243960042,
				"y": -3.6741536669,
				"z": -1.8100144625,
				"element": "H" 
			},
			{
				"x": -2.546119049,
				"y": -4.1144747024,
				"z": -0.7024015787,
				"element": "H" 
			},
			{
				"x": 0.4726413416,
				"y": -2.99183245,
				"z": -0.2039131208,
				"element": "H" 
			},
			{
				"x": 1.8731124953,
				"y": -2.4400990994,
				"z": 1.8851023875,
				"element": "H" 
			},
			{
				"x": 3.2319913199,
				"y": 1.2769210695,
				"z": 1.9736982944,
				"element": "H" 
			},
			{
				"x": 1.8748952138,
				"y": 0.5099450805,
				"z": -0.252314234,
				"element": "H" 
			},
			{
				"x": 0.8309536307,
				"y": 1.3429339164,
				"z": 0.7261994904,
				"element": "H" 
			},
			{
				"x": -2.609022187,
				"y": 0.3603000878,
				"z": 1.7357390478,
				"element": "H" 
			},
			{
				"x": -3.4534035762,
				"y": -1.2548221472,
				"z": 0.0276122754,
				"element": "H" 
			}
		],
		 "valence_orbital": [ 
			{
				"type": "occ",
				"energy": -0.28069,
				"method": "rhf"
			},
			{
				"type": "occ",
				"energy": -0.26237,
				"method": "rhf"
			},
			{
				"type": "occ",
				"energy": -0.24801,
				"method": "rhf"
			},
			{
				"type": "occ",
				"energy": -0.21297,
				"method": "rhf"
			},
			{
				"type": "occ",
				"energy": -0.20268,
				"method": "rhf"
			},
			{
				"type": "unocc",
				"energy": -0.0371,
				"method": "rhf"
			},
			{
				"type": "unocc",
				"energy": -0.01843,
				"method": "rhf"
			},
			{
				"type": "unocc",
				"energy": 0.00406,
				"method": "rhf"
			},
			{
				"type": "unocc",
				"energy": 0.06351,
				"method": "rhf"
			},
			{
				"type": "unocc",
				"energy": 0.0712,
				"method": "rhf"
			}
		],
		"cosmo_sigma_profile": { 
			"-0.025": 0.0,
			"-0.024": 0.0,
			"-0.023": 0.0,
			"-0.022": 0.0,
			"-0.021": 0.0,
			"-0.02": 0.0,
			"-0.019": 0.0,
			"-0.018": 0.0,
			"-0.017": 0.0,
			"-0.016": 0.0,
			"-0.015": 0.260792817513,
			"-0.014": 1.11374231616,
			"-0.013": 2.19410788175,
			"-0.012": 2.54421559517,
			"-0.011": 2.40667614073,
			"-0.01": 3.91061563666,
			"-0.009": 4.44405261768,
			"-0.008": 5.5780509563,
			"-0.007": 7.15367032563,
			"-0.006": 10.0152910387,
			"-0.005": 12.4865974529,
			"-0.004": 14.4780508163,
			"-0.003": 13.4621009024,
			"-0.002": 15.778488093,
			"-0.001": 17.0345824156,
			"0.0": 18.9517401197,
			"0.001": 13.5958446629,
			"0.002": 10.2687357439,
			"0.003": 14.4832684206,
			"0.004": 16.3454097478,
			"0.005": 5.05062064592,
			"0.006": 3.99423929405,
			"0.007": 3.20331348303,
			"0.008": 4.31311796567,
			"0.009": 4.46789318117,
			"0.01": 6.37271073062,
			"0.011": 9.47370665835,
			"0.012": 4.43397032457,
			"0.013": 1.04781830517,
			"0.014": 0.918402044605,
			"0.015": 0.373495104377,
			"0.016": 0.0,
			"0.017": 0.0,
			"0.018": 0.0,
			"0.019": 0.0,
			"0.02": 0.0,
			"0.021": 0.0,
			"0.022": 0.0,
			"0.023": 0.0,
			"0.024": 0.0,
			"0.025": 0.0
		}
	}
}
