{
	 "smiles": "NNC(=O)CC1=C(Cl)C=CC=C1", 
	 "Tm": 428.15, 
	 "num_atms": 21, 
	 "gaussian": { 
		 "optdone": 1, 
		 "sigma_profile": "yes", 
		 "theory": "DFT", 
		 "functional": "B3LYP", 
		 "basiset": "6-31G**", 
		 "properties": { 
			 "R2extent": 2932.5202, 
			 "electric_dipole_moment_norm": 2.59619413373, 
			 "electric_quadrupole_moment_norm": 19.3284352954, 
			 "total_energy": -955.174302948, 
			 "HOMO_LUMO_gap": 0.22588, 
			 "cosmo_polarized_energy": -15.08, 
			 "cosmo_cavitation_energy": 26.98, 
			 "cosmo_dispersion_energy": -19.44, 
			 "cosmo_repulsion_energy": 1.58, 
			 "cosmo_total_nonelectrostatic_energy": 9.13, 
			 "SMD_solvation_energy": 5.65 
		},
		"coords": [
			{
				"x": -3.2543671699,
				"y": 1.4216161299,
				"z": -2.0844547298,
				"element": "N" 
			},
			{
				"x": -2.0524561889,
				"y": 2.0213951728,
				"z": -1.6982883881,
				"element": "N" 
			},
			{
				"x": -1.2992832039,
				"y": 1.6281992588,
				"z": -0.6183256611,
				"element": "C" 
			},
			{
				"x": -0.2452745845,
				"y": 2.1976917712,
				"z": -0.3718445123,
				"element": "O" 
			},
			{
				"x": -1.8522019884,
				"y": 0.4926376337,
				"z": 0.2482560433,
				"element": "C" 
			},
			{
				"x": -0.818362524,
				"y": -0.5865611343,
				"z": 0.4829567066,
				"element": "C" 
			},
			{
				"x": -0.8534028708,
				"y": -1.8368984941,
				"z": -0.150504237,
				"element": "C" 
			},
			{
				"x": -2.1389800161,
				"y": -2.2322964286,
				"z": -1.2993970556,
				"element": "Cl" 
			},
			{
				"x": 0.1123959044,
				"y": -2.8164042011,
				"z": 0.087398862,
				"element": "C" 
			},
			{
				"x": 1.155215988,
				"y": -2.5510047381,
				"z": 0.9720002746,
				"element": "C" 
			},
			{
				"x": 1.2257374146,
				"y": -1.3106829393,
				"z": 1.6083092413,
				"element": "C" 
			},
			{
				"x": 0.2500717899,
				"y": -0.3484559851,
				"z": 1.3623338583,
				"element": "C" 
			},
			{
				"x": -3.1544638431,
				"y": 0.966724861,
				"z": -2.9883438139,
				"element": "H" 
			},
			{
				"x": -3.9932113449,
				"y": 2.1172426438,
				"z": -2.1378106508,
				"element": "H" 
			},
			{
				"x": -1.6319693126,
				"y": 2.7612231394,
				"z": -2.2533351336,
				"element": "H" 
			},
			{
				"x": -2.7659632855,
				"y": 0.0932945578,
				"z": -0.1863119558,
				"element": "H" 
			},
			{
				"x": -2.1072819463,
				"y": 0.9540462213,
				"z": 1.2095852215,
				"element": "H" 
			},
			{
				"x": 0.0407865014,
				"y": -3.7718041295,
				"z": -0.420436068,
				"element": "H" 
			},
			{
				"x": 1.9070671612,
				"y": -3.3118756118,
				"z": 1.1592804952,
				"element": "H" 
			},
			{
				"x": 2.0384435484,
				"y": -1.0927136658,
				"z": 2.294571843,
				"element": "H" 
			},
			{
				"x": 0.310399971,
				"y": 0.623325938,
				"z": 1.8406596602,
				"element": "H" 
			}
		],
		 "valence_orbital": [ 
			{
				"type": "occ",
				"energy": -0.28597,
				"method": "rhf"
			},
			{
				"type": "occ",
				"energy": -0.25945,
				"method": "rhf"
			},
			{
				"type": "occ",
				"energy": -0.25362,
				"method": "rhf"
			},
			{
				"type": "occ",
				"energy": -0.24518,
				"method": "rhf"
			},
			{
				"type": "occ",
				"energy": -0.23413,
				"method": "rhf"
			},
			{
				"type": "unocc",
				"energy": -0.00825,
				"method": "rhf"
			},
			{
				"type": "unocc",
				"energy": -0.00306,
				"method": "rhf"
			},
			{
				"type": "unocc",
				"energy": 0.02717,
				"method": "rhf"
			},
			{
				"type": "unocc",
				"energy": 0.04079,
				"method": "rhf"
			},
			{
				"type": "unocc",
				"energy": 0.06421,
				"method": "rhf"
			}
		],
		"cosmo_sigma_profile": { 
			"-0.025": 0.0,
			"-0.024": 0.0,
			"-0.023": 0.0,
			"-0.022": 0.0,
			"-0.021": 0.0,
			"-0.02": 0.0,
			"-0.019": 0.0,
			"-0.018": 0.0,
			"-0.017": 0.0,
			"-0.016": 0.0,
			"-0.015": 0.0,
			"-0.014": 0.209364783362,
			"-0.013": 1.50490470167,
			"-0.012": 3.72635991773,
			"-0.011": 4.74355157439,
			"-0.01": 4.75302526175,
			"-0.009": 4.48791685018,
			"-0.008": 3.70366005182,
			"-0.007": 4.75724296301,
			"-0.006": 10.5821604823,
			"-0.005": 11.8176153674,
			"-0.004": 12.542531015,
			"-0.003": 8.43462729047,
			"-0.002": 11.9260067028,
			"-0.001": 13.3439480869,
			"0.0": 13.0768637359,
			"0.001": 14.1206274505,
			"0.002": 18.1230234708,
			"0.003": 16.0748222898,
			"0.004": 18.525352163,
			"0.005": 13.3642013436,
			"0.006": 3.47249639352,
			"0.007": 2.77618715995,
			"0.008": 2.70813222322,
			"0.009": 2.36676192892,
			"0.01": 2.44394054583,
			"0.011": 2.12051920684,
			"0.012": 1.8392570659,
			"0.013": 3.83037609226,
			"0.014": 4.55136636473,
			"0.015": 0.272683214573,
			"0.016": 0.0,
			"0.017": 0.0,
			"0.018": 0.0,
			"0.019": 0.0,
			"0.02": 0.0,
			"0.021": 0.0,
			"0.022": 0.0,
			"0.023": 0.0,
			"0.024": 0.0,
			"0.025": 0.0
		}
	}
}
