{
	 "smiles": "CC1=C(C=NN1C1=CC=C(Br)C=C1)C(O)=O", 
	 "Tm": 485.15, 
	 "num_atms": 25, 
	 "gaussian": { 
		 "optdone": 1, 
		 "sigma_profile": "yes", 
		 "theory": "DFT", 
		 "functional": "B3LYP", 
		 "basiset": "6-31G**", 
		 "properties": { 
			 "R2extent": 7983.7807, 
			 "electric_dipole_moment_norm": 4.95257038516, 
			 "electric_quadrupole_moment_norm": 34.1834056756, 
			 "total_energy": -3255.93984005, 
			 "HOMO_LUMO_gap": 0.19433, 
			 "cosmo_polarized_energy": -19.02, 
			 "cosmo_cavitation_energy": 32.17, 
			 "cosmo_dispersion_energy": -23.69, 
			 "cosmo_repulsion_energy": 1.83, 
			 "cosmo_total_nonelectrostatic_energy": 10.31, 
			 "SMD_solvation_energy": 4.74 
		},
		"coords": [
			{
				"x": 1.9372826239,
				"y": -1.0472065636,
				"z": 1.8484753303,
				"element": "C" 
			},
			{
				"x": 0.8909424714,
				"y": -1.4782199436,
				"z": 0.8644725967,
				"element": "C" 
			},
			{
				"x": 0.6015658033,
				"y": -2.7414670054,
				"z": 0.3454602283,
				"element": "C" 
			},
			{
				"x": -0.5799191115,
				"y": -2.5618282696,
				"z": -0.4177973756,
				"element": "C" 
			},
			{
				"x": -0.9911870035,
				"y": -1.3079251487,
				"z": -0.4078338193,
				"element": "N" 
			},
			{
				"x": -0.0828645964,
				"y": -0.647407753,
				"z": 0.3752496666,
				"element": "N" 
			},
			{
				"x": -0.2913185544,
				"y": 0.7387247835,
				"z": 0.6218807153,
				"element": "C" 
			},
			{
				"x": 0.775013868,
				"y": 1.6427125639,
				"z": 0.6115638221,
				"element": "C" 
			},
			{
				"x": 0.5446437045,
				"y": 2.9964379672,
				"z": 0.8561276382,
				"element": "C" 
			},
			{
				"x": -0.756120768,
				"y": 3.4385061706,
				"z": 1.087590824,
				"element": "C" 
			},
			{
				"x": -1.0744447303,
				"y": 5.2903453744,
				"z": 1.4170877906,
				"element": "Br" 
			},
			{
				"x": -1.8298999556,
				"y": 2.5471208588,
				"z": 1.073819275,
				"element": "C" 
			},
			{
				"x": -1.5956784764,
				"y": 1.194616703,
				"z": 0.8438521085,
				"element": "C" 
			},
			{
				"x": 1.2560493542,
				"y": -4.0501200378,
				"z": 0.5409813711,
				"element": "C" 
			},
			{
				"x": 2.5497201501,
				"y": -4.040753115,
				"z": 0.984902267,
				"element": "O" 
			},
			{
				"x": 0.7034847657,
				"y": -5.1041024434,
				"z": 0.3299636729,
				"element": "O" 
			},
			{
				"x": 2.2122804902,
				"y": -1.8891723869,
				"z": 2.4887147685,
				"element": "H" 
			},
			{
				"x": 2.8495316156,
				"y": -0.677242798,
				"z": 1.3628881291,
				"element": "H" 
			},
			{
				"x": 1.5687581181,
				"y": -0.2447958346,
				"z": 2.4920487773,
				"element": "H" 
			},
			{
				"x": -1.1181489415,
				"y": -3.3178663122,
				"z": -0.9721358984,
				"element": "H" 
			},
			{
				"x": 1.779666434,
				"y": 1.3037034141,
				"z": 0.3865251383,
				"element": "H" 
			},
			{
				"x": 1.3681768789,
				"y": 3.7008617732,
				"z": 0.8484968925,
				"element": "H" 
			},
			{
				"x": -2.8379923236,
				"y": 2.9052007814,
				"z": 1.2474410882,
				"element": "H" 
			},
			{
				"x": -2.4139995088,
				"y": 0.4848283885,
				"z": 0.8240996204,
				"element": "H" 
			},
			{
				"x": 2.9205576921,
				"y": -3.1513511667,
				"z": 0.9130253723,
				"element": "H" 
			}
		],
		 "valence_orbital": [ 
			{
				"type": "occ",
				"energy": -0.28861,
				"method": "rhf"
			},
			{
				"type": "occ",
				"energy": -0.28409,
				"method": "rhf"
			},
			{
				"type": "occ",
				"energy": -0.27366,
				"method": "rhf"
			},
			{
				"type": "occ",
				"energy": -0.2647,
				"method": "rhf"
			},
			{
				"type": "occ",
				"energy": -0.24586,
				"method": "rhf"
			},
			{
				"type": "unocc",
				"energy": -0.05153,
				"method": "rhf"
			},
			{
				"type": "unocc",
				"energy": -0.03502,
				"method": "rhf"
			},
			{
				"type": "unocc",
				"energy": -0.01722,
				"method": "rhf"
			},
			{
				"type": "unocc",
				"energy": -0.00672,
				"method": "rhf"
			},
			{
				"type": "unocc",
				"energy": 0.01037,
				"method": "rhf"
			}
		],
		"cosmo_sigma_profile": { 
			"-0.025": 0.0,
			"-0.024": 0.0,
			"-0.023": 0.0,
			"-0.022": 0.0,
			"-0.021": 0.0,
			"-0.02": 0.0,
			"-0.019": 0.0,
			"-0.018": 0.0149506912508,
			"-0.017": 0.830877511508,
			"-0.016": 0.777286897087,
			"-0.015": 1.06708645323,
			"-0.014": 1.00881137483,
			"-0.013": 1.13395767445,
			"-0.012": 0.712544650713,
			"-0.011": 1.45690261996,
			"-0.01": 1.08147459093,
			"-0.009": 2.02805506894,
			"-0.008": 8.18071637592,
			"-0.007": 12.4128614857,
			"-0.006": 15.3601362493,
			"-0.005": 13.8180150126,
			"-0.004": 14.5420865134,
			"-0.003": 16.4979351791,
			"-0.002": 16.867308094,
			"-0.001": 14.8250489856,
			"0.0": 15.2698507481,
			"0.001": 21.5696558886,
			"0.002": 25.8532508791,
			"0.003": 15.4750366293,
			"0.004": 15.6206778811,
			"0.005": 6.67279680382,
			"0.006": 4.63265977665,
			"0.007": 3.73137230521,
			"0.008": 3.75166644938,
			"0.009": 4.65982387157,
			"0.01": 5.15064632633,
			"0.011": 6.06221113103,
			"0.012": 6.75393373256,
			"0.013": 3.21144132917,
			"0.014": 0.614185011376,
			"0.015": 0.0,
			"0.016": 0.0,
			"0.017": 0.0,
			"0.018": 0.0,
			"0.019": 0.0,
			"0.02": 0.0,
			"0.021": 0.0,
			"0.022": 0.0,
			"0.023": 0.0,
			"0.024": 0.0,
			"0.025": 0.0
		}
	}
}
