{
	 "smiles": "CC(C)N1C(C=C[C@H](O)C[C@H](O)CC(O)=O)=C(C2=C1C=CC=C2)C1=CC=C(F)C=C1", 
	 "Tm": 468.65, 
	 "num_atms": 56, 
	 "gaussian": { 
		 "optdone": 1, 
		 "sigma_profile": "yes", 
		 "theory": "DFT", 
		 "functional": "B3LYP", 
		 "basiset": "6-31G**", 
		 "properties": { 
			 "R2extent": 14353.2019, 
			 "electric_dipole_moment_norm": 4.61421047309, 
			 "electric_quadrupole_moment_norm": 30.9782715034, 
			 "total_energy": -1385.71432969, 
			 "HOMO_LUMO_gap": 0.15688, 
			 "cosmo_polarized_energy": -22.15, 
			 "cosmo_cavitation_energy": 58.11, 
			 "cosmo_dispersion_energy": -36.46, 
			 "cosmo_repulsion_energy": 2.73, 
			 "cosmo_total_nonelectrostatic_energy": 24.38, 
			 "SMD_solvation_energy": 10.45 
		},
		"coords": [
			{
				"x": 4.8495425205,
				"y": 1.2260541951,
				"z": 0.0647467857,
				"element": "C" 
			},
			{
				"x": 4.0524282469,
				"y": 0.6166603157,
				"z": 1.2289657993,
				"element": "C" 
			},
			{
				"x": 4.2667960371,
				"y": -0.8957308691,
				"z": 1.3880336738,
				"element": "C" 
			},
			{
				"x": 2.627744693,
				"y": 0.9887134531,
				"z": 1.1944204127,
				"element": "N" 
			},
			{
				"x": 1.6303094433,
				"y": 0.5310297261,
				"z": 0.3214515821,
				"element": "C" 
			},
			{
				"x": 1.9219442417,
				"y": -0.3984878208,
				"z": -0.7706206575,
				"element": "C" 
			},
			{
				"x": 1.1108877471,
				"y": -1.3853748712,
				"z": -1.1831482499,
				"element": "C" 
			},
			{
				"x": 1.4156698741,
				"y": -2.2943186332,
				"z": -2.353549381,
				"element": "C" 
			},
			{
				"x": 2.7764802651,
				"y": -2.1934930049,
				"z": -2.7724827042,
				"element": "O" 
			},
			{
				"x": 0.5566399298,
				"y": -1.9898304455,
				"z": -3.6030384768,
				"element": "C" 
			},
			{
				"x": -0.6964557481,
				"y": -2.8525408458,
				"z": -3.7794769631,
				"element": "C" 
			},
			{
				"x": -1.2345277554,
				"y": -2.5033104903,
				"z": -5.0423223157,
				"element": "O" 
			},
			{
				"x": -1.7441364628,
				"y": -2.6584237236,
				"z": -2.666489998,
				"element": "C" 
			},
			{
				"x": -2.9925018232,
				"y": -3.4780474475,
				"z": -2.897198741,
				"element": "C" 
			},
			{
				"x": -3.7149669034,
				"y": -3.6425058354,
				"z": -1.7714185088,
				"element": "O" 
			},
			{
				"x": -3.3497184705,
				"y": -3.9459759454,
				"z": -3.9645900069,
				"element": "O" 
			},
			{
				"x": 0.41080302,
				"y": 1.0891691564,
				"z": 0.6903699433,
				"element": "C" 
			},
			{
				"x": 0.6548654196,
				"y": 1.9113736386,
				"z": 1.8433309429,
				"element": "C" 
			},
			{
				"x": 2.0431729969,
				"y": 1.8287125128,
				"z": 2.1305047551,
				"element": "C" 
			},
			{
				"x": 2.6089116549,
				"y": 2.536091798,
				"z": 3.2019283838,
				"element": "C" 
			},
			{
				"x": 1.7689404041,
				"y": 3.3278080042,
				"z": 3.9761866955,
				"element": "C" 
			},
			{
				"x": 0.391286569,
				"y": 3.4296921752,
				"z": 3.6943272557,
				"element": "C" 
			},
			{
				"x": -0.169362122,
				"y": 2.7329390233,
				"z": 2.6338309084,
				"element": "C" 
			},
			{
				"x": -0.8961314058,
				"y": 0.9658535626,
				"z": 0.0095664841,
				"element": "C" 
			},
			{
				"x": -1.0520750952,
				"y": 1.3039174667,
				"z": -1.3469451799,
				"element": "C" 
			},
			{
				"x": -2.2951102387,
				"y": 1.2311874465,
				"z": -1.9745238173,
				"element": "C" 
			},
			{
				"x": -3.3986965722,
				"y": 0.8246684342,
				"z": -1.2300822792,
				"element": "C" 
			},
			{
				"x": -4.6074265872,
				"y": 0.7587700202,
				"z": -1.8300559034,
				"element": "F" 
			},
			{
				"x": -3.2905914294,
				"y": 0.4888615842,
				"z": 0.1135517653,
				"element": "C" 
			},
			{
				"x": -2.0376944771,
				"y": 0.5610803394,
				"z": 0.7239483471,
				"element": "C" 
			},
			{
				"x": 4.6711049512,
				"y": 2.3030198569,
				"z": 0.0010138929,
				"element": "H" 
			},
			{
				"x": 4.5902734807,
				"y": 0.7813379392,
				"z": -0.8995262744,
				"element": "H" 
			},
			{
				"x": 5.9205672594,
				"y": 1.0646413453,
				"z": 0.2254806395,
				"element": "H" 
			},
			{
				"x": 4.4303908683,
				"y": 1.0798943931,
				"z": 2.1432771897,
				"element": "H" 
			},
			{
				"x": 3.7144580766,
				"y": -1.2731147763,
				"z": 2.2532440343,
				"element": "H" 
			},
			{
				"x": 3.9373636689,
				"y": -1.4528564038,
				"z": 0.5083429393,
				"element": "H" 
			},
			{
				"x": 5.3308580868,
				"y": -1.1019276764,
				"z": 1.5420490742,
				"element": "H" 
			},
			{
				"x": 2.861041911,
				"y": -0.271662488,
				"z": -1.3019783351,
				"element": "H" 
			},
			{
				"x": 0.1663406808,
				"y": -1.5547602846,
				"z": -0.6724183931,
				"element": "H" 
			},
			{
				"x": 1.2073825358,
				"y": -3.3337959216,
				"z": -2.039834674,
				"element": "H" 
			},
			{
				"x": 3.3306172139,
				"y": -2.4413735571,
				"z": -2.020027225,
				"element": "H" 
			},
			{
				"x": 0.2733330982,
				"y": -0.9327143164,
				"z": -3.6302859422,
				"element": "H" 
			},
			{
				"x": 1.1904262919,
				"y": -2.1762003943,
				"z": -4.4747019534,
				"element": "H" 
			},
			{
				"x": -0.3888003559,
				"y": -3.91382187,
				"z": -3.771265118,
				"element": "H" 
			},
			{
				"x": -2.0322730794,
				"y": -3.0466958948,
				"z": -5.1519824759,
				"element": "H" 
			},
			{
				"x": -1.3506868249,
				"y": -2.9137484536,
				"z": -1.6779231097,
				"element": "H" 
			},
			{
				"x": -2.0459030274,
				"y": -1.60373123,
				"z": -2.6235947262,
				"element": "H" 
			},
			{
				"x": -4.5096492738,
				"y": -4.1433367173,
				"z": -2.0244103237,
				"element": "H" 
			},
			{
				"x": 3.6689748387,
				"y": 2.4865544549,
				"z": 3.4292359551,
				"element": "H" 
			},
			{
				"x": 2.1861923183,
				"y": 3.8837387438,
				"z": 4.8107668336,
				"element": "H" 
			},
			{
				"x": -0.2342956388,
				"y": 4.0651070703,
				"z": 4.3143223848,
				"element": "H" 
			},
			{
				"x": -1.2285958037,
				"y": 2.8184919313,
				"z": 2.4107805487,
				"element": "H" 
			},
			{
				"x": -0.1876474692,
				"y": 1.6378160804,
				"z": -1.9116112446,
				"element": "H" 
			},
			{
				"x": -2.4215931661,
				"y": 1.5000727812,
				"z": -3.0180266671,
				"element": "H" 
			},
			{
				"x": -4.1728667539,
				"y": 0.1749908263,
				"z": 0.6610545653,
				"element": "H" 
			},
			{
				"x": -1.9393418594,
				"y": 0.2926316417,
				"z": 1.7713978531,
				"element": "H" 
			}
		],
		 "valence_orbital": [ 
			{
				"type": "occ",
				"energy": -0.2588,
				"method": "rhf"
			},
			{
				"type": "occ",
				"energy": -0.25781,
				"method": "rhf"
			},
			{
				"type": "occ",
				"energy": -0.24099,
				"method": "rhf"
			},
			{
				"type": "occ",
				"energy": -0.21331,
				"method": "rhf"
			},
			{
				"type": "occ",
				"energy": -0.19068,
				"method": "rhf"
			},
			{
				"type": "unocc",
				"energy": -0.0338,
				"method": "rhf"
			},
			{
				"type": "unocc",
				"energy": -0.01143,
				"method": "rhf"
			},
			{
				"type": "unocc",
				"energy": -0.00359,
				"method": "rhf"
			},
			{
				"type": "unocc",
				"energy": -0.00056,
				"method": "rhf"
			},
			{
				"type": "unocc",
				"energy": 0.01801,
				"method": "rhf"
			}
		],
		"cosmo_sigma_profile": { 
			"-0.025": 0.0,
			"-0.024": 0.0,
			"-0.023": 0.0,
			"-0.022": 0.0,
			"-0.021": 0.0,
			"-0.02": 0.0,
			"-0.019": 0.13978918669,
			"-0.018": 0.758423656713,
			"-0.017": 1.16876441797,
			"-0.016": 0.729066183184,
			"-0.015": 0.810229035147,
			"-0.014": 1.03149719163,
			"-0.013": 2.01496594726,
			"-0.012": 1.43348348804,
			"-0.011": 2.38238053941,
			"-0.01": 1.53462052175,
			"-0.009": 1.75871293793,
			"-0.008": 4.35798823196,
			"-0.007": 11.124082083,
			"-0.006": 16.5619618578,
			"-0.005": 23.3834766197,
			"-0.004": 36.7080114603,
			"-0.003": 37.3432106134,
			"-0.002": 42.5784941621,
			"-0.001": 36.6609152782,
			"0.0": 42.8563842932,
			"0.001": 35.0323279724,
			"0.002": 24.2925330519,
			"0.003": 25.1663210088,
			"0.004": 30.8652060532,
			"0.005": 23.3653944261,
			"0.006": 12.518157804,
			"0.007": 13.1052405018,
			"0.008": 5.86407513305,
			"0.009": 5.09390970649,
			"0.01": 3.58896585543,
			"0.011": 4.79722524874,
			"0.012": 3.31584431443,
			"0.013": 3.33761250512,
			"0.014": 2.66918498482,
			"0.015": 0.530255905253,
			"0.016": 0.0,
			"0.017": 0.0,
			"0.018": 0.0,
			"0.019": 0.0,
			"0.02": 0.0,
			"0.021": 0.0,
			"0.022": 0.0,
			"0.023": 0.0,
			"0.024": 0.0,
			"0.025": 0.0
		}
	}
}
