{
	 "smiles": "C1C=CCC=C1", 
	 "Tm": 224.05, 
	 "num_atms": 14, 
	 "gaussian": { 
		 "optdone": 1, 
		 "sigma_profile": "yes", 
		 "theory": "DFT", 
		 "functional": "B3LYP", 
		 "basiset": "6-31G**", 
		 "properties": { 
			 "R2extent": 1140.8464, 
			 "electric_dipole_moment_norm": 0.0, 
			 "electric_quadrupole_moment_norm": 3.22530183239, 
			 "total_energy": -233.425762683, 
			 "HOMO_LUMO_gap": 0.25027, 
			 "cosmo_polarized_energy": -2.15, 
			 "cosmo_cavitation_energy": 16.32, 
			 "cosmo_dispersion_energy": -12.66, 
			 "cosmo_repulsion_energy": 1.11, 
			 "cosmo_total_nonelectrostatic_energy": 4.76, 
			 "SMD_solvation_energy": 2.65 
		},
		"coords": [
			{
				"x": -2.6166670464,
				"y": -0.3140042505,
				"z": -1.8976460137,
				"element": "C" 
			},
			{
				"x": -2.9500109465,
				"y": -0.0965029735,
				"z": -0.4443122819,
				"element": "C" 
			},
			{
				"x": -2.1356388773,
				"y": -0.4323875802,
				"z": 0.5582412601,
				"element": "C" 
			},
			{
				"x": -0.784945218,
				"y": -1.0694658286,
				"z": 0.3573651666,
				"element": "C" 
			},
			{
				"x": -0.4516035581,
				"y": -1.2869705452,
				"z": -1.0959745582,
				"element": "C" 
			},
			{
				"x": -1.2659763328,
				"y": -0.951086255,
				"z": -2.0985264518,
				"element": "C" 
			},
			{
				"x": -2.6623416254,
				"y": 0.6447703716,
				"z": -2.4394830898,
				"element": "H" 
			},
			{
				"x": -3.3962009735,
				"y": -0.9324627989,
				"z": -2.3717317603,
				"element": "H" 
			},
			{
				"x": -3.9133912214,
				"y": 0.361101533,
				"z": -0.225831635,
				"element": "H" 
			},
			{
				"x": -2.4413528093,
				"y": -0.2460395587,
				"z": 1.586371846,
				"element": "H" 
			},
			{
				"x": -0.0054125881,
				"y": -0.4509990625,
				"z": 0.8314385929,
				"element": "H" 
			},
			{
				"x": -0.7392687242,
				"y": -2.0282415549,
				"z": 0.8991957369,
				"element": "H" 
			},
			{
				"x": 0.5117778548,
				"y": -1.7445763021,
				"z": -1.3144484209,
				"element": "H" 
			},
			{
				"x": -0.9602679339,
				"y": -1.1374351946,
				"z": -3.126658391,
				"element": "H" 
			}
		],
		 "valence_orbital": [ 
			{
				"type": "occ",
				"energy": -0.37797,
				"method": "rhf"
			},
			{
				"type": "occ",
				"energy": -0.34211,
				"method": "rhf"
			},
			{
				"type": "occ",
				"energy": -0.30709,
				"method": "rhf"
			},
			{
				"type": "occ",
				"energy": -0.25345,
				"method": "rhf"
			},
			{
				"type": "occ",
				"energy": -0.22608,
				"method": "rhf"
			},
			{
				"type": "unocc",
				"energy": 0.02419,
				"method": "rhf"
			},
			{
				"type": "unocc",
				"energy": 0.04177,
				"method": "rhf"
			},
			{
				"type": "unocc",
				"energy": 0.09857,
				"method": "rhf"
			},
			{
				"type": "unocc",
				"energy": 0.13593,
				"method": "rhf"
			},
			{
				"type": "unocc",
				"energy": 0.14521,
				"method": "rhf"
			}
		],
		"cosmo_sigma_profile": { 
			"-0.025": 0.0,
			"-0.024": 0.0,
			"-0.023": 0.0,
			"-0.022": 0.0,
			"-0.021": 0.0,
			"-0.02": 0.0,
			"-0.019": 0.0,
			"-0.018": 0.0,
			"-0.017": 0.0,
			"-0.016": 0.0,
			"-0.015": 0.0,
			"-0.014": 0.0,
			"-0.013": 0.0,
			"-0.012": 0.0,
			"-0.011": 0.0,
			"-0.01": 0.0,
			"-0.009": 0.0,
			"-0.008": 0.0,
			"-0.007": 0.0,
			"-0.006": 0.0,
			"-0.005": 1.29207052355,
			"-0.004": 11.376373922,
			"-0.003": 17.006359585,
			"-0.002": 21.8103661498,
			"-0.001": 22.2596891746,
			"0.0": 11.3491409467,
			"0.001": 7.68210497479,
			"0.002": 5.86610450522,
			"0.003": 5.89655316941,
			"0.004": 5.76401440652,
			"0.005": 6.59437222266,
			"0.006": 6.32510982808,
			"0.007": 4.40197286633,
			"0.008": 0.850342993357,
			"0.009": 0.0,
			"0.01": 0.0,
			"0.011": 0.0,
			"0.012": 0.0,
			"0.013": 0.0,
			"0.014": 0.0,
			"0.015": 0.0,
			"0.016": 0.0,
			"0.017": 0.0,
			"0.018": 0.0,
			"0.019": 0.0,
			"0.02": 0.0,
			"0.021": 0.0,
			"0.022": 0.0,
			"0.023": 0.0,
			"0.024": 0.0,
			"0.025": 0.0
		}
	}
}
