{
	 "smiles": "NC1=C(C=C(NC(=O)C2=CC=CO2)C=C1)C(F)(F)F", 
	 "Tm": 394.15, 
	 "num_atms": 28, 
	 "gaussian": { 
		 "optdone": 1, 
		 "sigma_profile": "yes", 
		 "theory": "DFT", 
		 "functional": "B3LYP", 
		 "basiset": "6-31G**", 
		 "properties": { 
			 "R2extent": 6319.8992, 
			 "electric_dipole_moment_norm": 5.2875446608, 
			 "electric_quadrupole_moment_norm": 18.2312143858, 
			 "total_energy": -1022.1630822, 
			 "HOMO_LUMO_gap": 0.18058, 
			 "cosmo_polarized_energy": -17.71, 
			 "cosmo_cavitation_energy": 34.52, 
			 "cosmo_dispersion_energy": -23.65, 
			 "cosmo_repulsion_energy": 1.78, 
			 "cosmo_total_nonelectrostatic_energy": 12.64, 
			 "SMD_solvation_energy": 8.5 
		},
		"coords": [
			{
				"x": -2.3564147238,
				"y": 1.6496492642,
				"z": 2.0024449776,
				"element": "N" 
			},
			{
				"x": -1.2479459294,
				"y": 1.0234729623,
				"z": 1.4600502453,
				"element": "C" 
			},
			{
				"x": -0.7849996764,
				"y": -0.2310461537,
				"z": 1.9286616982,
				"element": "C" 
			},
			{
				"x": 0.3138683654,
				"y": -0.8503722513,
				"z": 1.3328868518,
				"element": "C" 
			},
			{
				"x": 0.9641277582,
				"y": -0.2726601389,
				"z": 0.2402279962,
				"element": "C" 
			},
			{
				"x": 2.0993797447,
				"y": -0.8843850403,
				"z": -0.362343777,
				"element": "N" 
			},
			{
				"x": 2.2688857988,
				"y": -2.1817347697,
				"z": -0.8176544884,
				"element": "C" 
			},
			{
				"x": 3.3919641704,
				"y": -2.6375003504,
				"z": -0.9912739222,
				"element": "O" 
			},
			{
				"x": 1.056983087,
				"y": -2.962893055,
				"z": -1.1522632693,
				"element": "C" 
			},
			{
				"x": -0.2560365692,
				"y": -2.6748951625,
				"z": -1.4332388207,
				"element": "C" 
			},
			{
				"x": -0.8725315363,
				"y": -3.9051749998,
				"z": -1.807869294,
				"element": "C" 
			},
			{
				"x": 0.1072011842,
				"y": -4.8525572887,
				"z": -1.7258059193,
				"element": "C" 
			},
			{
				"x": 1.2788711487,
				"y": -4.3010089146,
				"z": -1.3376899799,
				"element": "O" 
			},
			{
				"x": 0.5050962842,
				"y": 0.9635187267,
				"z": -0.2324245436,
				"element": "C" 
			},
			{
				"x": -0.5689532952,
				"y": 1.6032718796,
				"z": 0.3718252552,
				"element": "C" 
			},
			{
				"x": -1.4900587051,
				"y": -0.9160468772,
				"z": 3.0637003535,
				"element": "C" 
			},
			{
				"x": -1.6170235858,
				"y": -0.0933381946,
				"z": 4.149706629,
				"element": "F" 
			},
			{
				"x": -0.8463310942,
				"y": -2.0193145077,
				"z": 3.4861593907,
				"element": "F" 
			},
			{
				"x": -2.749609158,
				"y": -1.2843054555,
				"z": 2.7338345052,
				"element": "F" 
			},
			{
				"x": -2.5926489136,
				"y": 1.4173492858,
				"z": 2.9555393714,
				"element": "H" 
			},
			{
				"x": -2.4535618794,
				"y": 2.6314485249,
				"z": 1.7900482047,
				"element": "H" 
			},
			{
				"x": 0.6636065191,
				"y": -1.7972071333,
				"z": 1.7259315287,
				"element": "H" 
			},
			{
				"x": 2.992566073,
				"y": -0.4164770953,
				"z": -0.2613257929,
				"element": "H" 
			},
			{
				"x": -0.7231231201,
				"y": -1.7034782478,
				"z": -1.3847654239,
				"element": "H" 
			},
			{
				"x": -1.9018219521,
				"y": -4.0620278577,
				"z": -2.0960917985,
				"element": "H" 
			},
			{
				"x": 0.1239168845,
				"y": -5.9176396946,
				"z": -1.8999266039,
				"element": "H" 
			},
			{
				"x": 1.0019327963,
				"y": 1.4235707684,
				"z": -1.0815900641,
				"element": "H" 
			},
			{
				"x": -0.905539676,
				"y": 2.5650817767,
				"z": -0.0058533099,
				"element": "H" 
			}
		],
		 "valence_orbital": [ 
			{
				"type": "occ",
				"energy": -0.27534,
				"method": "rhf"
			},
			{
				"type": "occ",
				"energy": -0.26963,
				"method": "rhf"
			},
			{
				"type": "occ",
				"energy": -0.25229,
				"method": "rhf"
			},
			{
				"type": "occ",
				"energy": -0.23522,
				"method": "rhf"
			},
			{
				"type": "occ",
				"energy": -0.21544,
				"method": "rhf"
			},
			{
				"type": "unocc",
				"energy": -0.03486,
				"method": "rhf"
			},
			{
				"type": "unocc",
				"energy": -0.03015,
				"method": "rhf"
			},
			{
				"type": "unocc",
				"energy": -0.00719,
				"method": "rhf"
			},
			{
				"type": "unocc",
				"energy": 0.04702,
				"method": "rhf"
			},
			{
				"type": "unocc",
				"energy": 0.0735,
				"method": "rhf"
			}
		],
		"cosmo_sigma_profile": { 
			"-0.025": 0.0,
			"-0.024": 0.0,
			"-0.023": 0.0,
			"-0.022": 0.0,
			"-0.021": 0.0,
			"-0.02": 0.0,
			"-0.019": 0.0,
			"-0.018": 0.0,
			"-0.017": 0.0,
			"-0.016": 0.0,
			"-0.015": 0.00956642362881,
			"-0.014": 1.20801977893,
			"-0.013": 2.25383408919,
			"-0.012": 2.82097110563,
			"-0.011": 3.37167907683,
			"-0.01": 3.73401887053,
			"-0.009": 5.60883172068,
			"-0.008": 5.61822194568,
			"-0.007": 9.93399181768,
			"-0.006": 12.5292857763,
			"-0.005": 13.5139646942,
			"-0.004": 11.1823602764,
			"-0.003": 13.0994150456,
			"-0.002": 14.0889257057,
			"-0.001": 17.3896832471,
			"0.0": 18.5117324881,
			"0.001": 25.3731720915,
			"0.002": 34.5686698066,
			"0.003": 35.9072866217,
			"0.004": 12.1180362942,
			"0.005": 4.22888456396,
			"0.006": 2.75504066557,
			"0.007": 2.75083243757,
			"0.008": 3.36405353394,
			"0.009": 2.09490293207,
			"0.01": 2.2613325969,
			"0.011": 2.68861982271,
			"0.012": 3.20607005154,
			"0.013": 6.06969613874,
			"0.014": 3.846688473,
			"0.015": 0.765430032,
			"0.016": 0.0,
			"0.017": 0.0,
			"0.018": 0.0,
			"0.019": 0.0,
			"0.02": 0.0,
			"0.021": 0.0,
			"0.022": 0.0,
			"0.023": 0.0,
			"0.024": 0.0,
			"0.025": 0.0
		}
	}
}
