{
	 "smiles": "CC1=CC2=C(C=C1S(N)(=O)=O)S(=O)(=O)CCC2", 
	 "Tm": 509.15, 
	 "num_atms": 30, 
	 "gaussian": { 
		 "optdone": 1, 
		 "sigma_profile": "yes", 
		 "theory": "DFT", 
		 "functional": "B3LYP", 
		 "basiset": "6-31G**", 
		 "properties": { 
			 "R2extent": 7347.1956, 
			 "electric_dipole_moment_norm": 4.39626039265, 
			 "electric_quadrupole_moment_norm": 18.1968004424, 
			 "total_energy": -1540.79943418, 
			 "HOMO_LUMO_gap": 0.21419, 
			 "cosmo_polarized_energy": -25.82, 
			 "cosmo_cavitation_energy": 34.68, 
			 "cosmo_dispersion_energy": -26.33, 
			 "cosmo_repulsion_energy": 1.94, 
			 "cosmo_total_nonelectrostatic_energy": 10.29, 
			 "SMD_solvation_energy": 4.35 
		},
		"coords": [
			{
				"x": -2.4324482574,
				"y": 0.7176330804,
				"z": -1.2008016333,
				"element": "C" 
			},
			{
				"x": -1.5572293834,
				"y": -0.2085179361,
				"z": -0.3933659172,
				"element": "C" 
			},
			{
				"x": -0.5098024885,
				"y": 0.305864277,
				"z": 0.371755873,
				"element": "C" 
			},
			{
				"x": 0.3417116334,
				"y": -0.4892175118,
				"z": 1.1539265292,
				"element": "C" 
			},
			{
				"x": 0.1079516832,
				"y": -1.8701602448,
				"z": 1.1491698821,
				"element": "C" 
			},
			{
				"x": -0.9192460008,
				"y": -2.4326130938,
				"z": 0.3866279137,
				"element": "C" 
			},
			{
				"x": -1.7413443936,
				"y": -1.6096769271,
				"z": -0.3714482033,
				"element": "C" 
			},
			{
				"x": -3.0660347486,
				"y": -2.3183221468,
				"z": -1.3645627424,
				"element": "S" 
			},
			{
				"x": -2.9475006919,
				"y": -3.9686393807,
				"z": -1.0454034776,
				"element": "N" 
			},
			{
				"x": -2.7309832004,
				"y": -2.1168464859,
				"z": -2.7786823234,
				"element": "O" 
			},
			{
				"x": -4.3433800915,
				"y": -1.849649853,
				"z": -0.8163063768,
				"element": "O" 
			},
			{
				"x": 1.0503865137,
				"y": -3.0162668289,
				"z": 2.1687012679,
				"element": "S" 
			},
			{
				"x": 1.3760232104,
				"y": -4.1982180843,
				"z": 1.3553547765,
				"element": "O" 
			},
			{
				"x": 0.3515743247,
				"y": -3.1843654551,
				"z": 3.4548605385,
				"element": "O" 
			},
			{
				"x": 2.550305253,
				"y": -2.0574021113,
				"z": 2.4906116871,
				"element": "C" 
			},
			{
				"x": 2.1643006585,
				"y": -0.6619116466,
				"z": 2.985249955,
				"element": "C" 
			},
			{
				"x": 1.4945086629,
				"y": 0.1746339589,
				"z": 1.8867133783,
				"element": "C" 
			},
			{
				"x": -2.1090151682,
				"y": 1.7541020333,
				"z": -1.0832867938,
				"element": "H" 
			},
			{
				"x": -3.4772871794,
				"y": 0.6365188622,
				"z": -0.8865875903,
				"element": "H" 
			},
			{
				"x": -2.3986988382,
				"y": 0.4569536845,
				"z": -2.2629615318,
				"element": "H" 
			},
			{
				"x": -0.3452594862,
				"y": 1.3807072037,
				"z": 0.3593699905,
				"element": "H" 
			},
			{
				"x": -1.0655940984,
				"y": -3.5060207916,
				"z": 0.3767157337,
				"element": "H" 
			},
			{
				"x": -3.7974637043,
				"y": -4.2952483628,
				"z": -0.5947625948,
				"element": "H" 
			},
			{
				"x": -2.7463017973,
				"y": -4.472058017,
				"z": -1.9045880357,
				"element": "H" 
			},
			{
				"x": 3.1320890424,
				"y": -2.0380193342,
				"z": 1.5641226871,
				"element": "H" 
			},
			{
				"x": 3.09314815,
				"y": -2.636463297,
				"z": 3.2427277523,
				"element": "H" 
			},
			{
				"x": 1.4995863667,
				"y": -0.7669041532,
				"z": 3.8491195861,
				"element": "H" 
			},
			{
				"x": 3.0640072499,
				"y": -0.1449962952,
				"z": 3.3351321204,
				"element": "H" 
			},
			{
				"x": 1.1457077172,
				"y": 1.1228746264,
				"z": 2.3100727891,
				"element": "H" 
			},
			{
				"x": 2.2514890622,
				"y": 0.4439302309,
				"z": 1.1355247599,
				"element": "H" 
			}
		],
		 "valence_orbital": [ 
			{
				"type": "occ",
				"energy": -0.30031,
				"method": "rhf"
			},
			{
				"type": "occ",
				"energy": -0.29899,
				"method": "rhf"
			},
			{
				"type": "occ",
				"energy": -0.28599,
				"method": "rhf"
			},
			{
				"type": "occ",
				"energy": -0.27404,
				"method": "rhf"
			},
			{
				"type": "occ",
				"energy": -0.26462,
				"method": "rhf"
			},
			{
				"type": "unocc",
				"energy": -0.05043,
				"method": "rhf"
			},
			{
				"type": "unocc",
				"energy": -0.03855,
				"method": "rhf"
			},
			{
				"type": "unocc",
				"energy": 0.04353,
				"method": "rhf"
			},
			{
				"type": "unocc",
				"energy": 0.05193,
				"method": "rhf"
			},
			{
				"type": "unocc",
				"energy": 0.06007,
				"method": "rhf"
			}
		],
		"cosmo_sigma_profile": { 
			"-0.025": 0.0,
			"-0.024": 0.0,
			"-0.023": 0.0,
			"-0.022": 0.0,
			"-0.021": 0.0,
			"-0.02": 0.0,
			"-0.019": 0.0,
			"-0.018": 0.0,
			"-0.017": 0.0,
			"-0.016": 0.0813229288877,
			"-0.015": 2.26715295376,
			"-0.014": 2.32069381859,
			"-0.013": 2.45501377686,
			"-0.012": 2.81689898715,
			"-0.011": 1.98437973486,
			"-0.01": 1.29392303982,
			"-0.009": 4.12909425688,
			"-0.008": 7.65850162198,
			"-0.007": 10.5816040193,
			"-0.006": 16.3526459868,
			"-0.005": 21.473173514,
			"-0.004": 22.477172153,
			"-0.003": 19.3548143417,
			"-0.002": 18.615282088,
			"-0.001": 16.3601618077,
			"0.0": 13.6207771137,
			"0.001": 18.3385524478,
			"0.002": 8.81473595034,
			"0.003": 7.89650699122,
			"0.004": 5.06476300792,
			"0.005": 4.45334327196,
			"0.006": 4.9388552984,
			"0.007": 6.33983856921,
			"0.008": 4.97315998647,
			"0.009": 5.85374392149,
			"0.01": 13.7708995445,
			"0.011": 19.5708850329,
			"0.012": 9.55048562677,
			"0.013": 0.760146967141,
			"0.014": 0.0,
			"0.015": 0.0,
			"0.016": 0.0,
			"0.017": 0.0,
			"0.018": 0.0,
			"0.019": 0.0,
			"0.02": 0.0,
			"0.021": 0.0,
			"0.022": 0.0,
			"0.023": 0.0,
			"0.024": 0.0,
			"0.025": 0.0
		}
	}
}
