{
	 "smiles": "NC1=C(C=CC=C1)C(=O)NCC=C", 
	 "Tm": 366.15, 
	 "num_atms": 25, 
	 "gaussian": { 
		 "optdone": 1, 
		 "sigma_profile": "yes", 
		 "theory": "DFT", 
		 "functional": "B3LYP", 
		 "basiset": "6-31G**", 
		 "properties": { 
			 "R2extent": 2803.0133, 
			 "electric_dipole_moment_norm": 4.36887291301, 
			 "electric_quadrupole_moment_norm": 12.486961564, 
			 "total_energy": -573.011219096, 
			 "HOMO_LUMO_gap": 0.17848, 
			 "cosmo_polarized_energy": -14.98, 
			 "cosmo_cavitation_energy": 28.77, 
			 "cosmo_dispersion_energy": -19.79, 
			 "cosmo_repulsion_energy": 1.6, 
			 "cosmo_total_nonelectrostatic_energy": 10.58, 
			 "SMD_solvation_energy": 5.72 
		},
		"coords": [
			{
				"x": 0.489728686,
				"y": 2.0397941314,
				"z": 0.0050827724,
				"element": "N" 
			},
			{
				"x": -0.1992885252,
				"y": 1.6508169663,
				"z": -1.1294463974,
				"element": "C" 
			},
			{
				"x": -1.1268083927,
				"y": 0.5767756262,
				"z": -1.1151088738,
				"element": "C" 
			},
			{
				"x": -1.8977682237,
				"y": 0.3156508576,
				"z": -2.2575288237,
				"element": "C" 
			},
			{
				"x": -1.7289928323,
				"y": 1.0382103248,
				"z": -3.4325217447,
				"element": "C" 
			},
			{
				"x": -0.7858430926,
				"y": 2.0718016649,
				"z": -3.4571761516,
				"element": "C" 
			},
			{
				"x": -0.0411113219,
				"y": 2.3796116976,
				"z": -2.326000283,
				"element": "C" 
			},
			{
				"x": -1.4085642507,
				"y": -0.2560290173,
				"z": 0.0962853971,
				"element": "C" 
			},
			{
				"x": -2.5467799856,
				"y": -0.5394255468,
				"z": 0.4440435477,
				"element": "O" 
			},
			{
				"x": -0.3126673307,
				"y": -0.6742617777,
				"z": 0.8640714455,
				"element": "N" 
			},
			{
				"x": 0.9171281756,
				"y": -1.2125571386,
				"z": 0.2470204431,
				"element": "C" 
			},
			{
				"x": 0.7291524986,
				"y": -2.5666867936,
				"z": -0.3900576124,
				"element": "C" 
			},
			{
				"x": 0.9287648365,
				"y": -2.8204756454,
				"z": -1.6829294994,
				"element": "C" 
			},
			{
				"x": 0.4944403817,
				"y": 1.4081389701,
				"z": 0.7928576802,
				"element": "H" 
			},
			{
				"x": 1.3080573573,
				"y": 2.6148152466,
				"z": -0.1153661775,
				"element": "H" 
			},
			{
				"x": -2.6299470986,
				"y": -0.4834031066,
				"z": -2.1980560634,
				"element": "H" 
			},
			{
				"x": -2.3220643788,
				"y": 0.808023892,
				"z": -4.3114882514,
				"element": "H" 
			},
			{
				"x": -0.6362816354,
				"y": 2.651750126,
				"z": -4.3639646811,
				"element": "H" 
			},
			{
				"x": 0.6644437101,
				"y": 3.2068454812,
				"z": -2.3463290744,
				"element": "H" 
			},
			{
				"x": -0.656135,
				"y": -1.2362179097,
				"z": 1.6381716492,
				"element": "H" 
			},
			{
				"x": 1.6720049881,
				"y": -1.2693195484,
				"z": 1.0414261511,
				"element": "H" 
			},
			{
				"x": 1.2816195958,
				"y": -0.4968477568,
				"z": -0.4922864477,
				"element": "H" 
			},
			{
				"x": 0.3990382935,
				"y": -3.3662044039,
				"z": 0.2740348577,
				"element": "H" 
			},
			{
				"x": 0.7794394029,
				"y": -3.8118909959,
				"z": -2.1001572032,
				"element": "H" 
			},
			{
				"x": 1.2474341422,
				"y": -2.0431153439,
				"z": -2.3731766595,
				"element": "H" 
			}
		],
		 "valence_orbital": [ 
			{
				"type": "occ",
				"energy": -0.28145,
				"method": "rhf"
			},
			{
				"type": "occ",
				"energy": -0.2605,
				"method": "rhf"
			},
			{
				"type": "occ",
				"energy": -0.25299,
				"method": "rhf"
			},
			{
				"type": "occ",
				"energy": -0.23726,
				"method": "rhf"
			},
			{
				"type": "occ",
				"energy": -0.20201,
				"method": "rhf"
			},
			{
				"type": "unocc",
				"energy": -0.02353,
				"method": "rhf"
			},
			{
				"type": "unocc",
				"energy": 0.00534,
				"method": "rhf"
			},
			{
				"type": "unocc",
				"energy": 0.01371,
				"method": "rhf"
			},
			{
				"type": "unocc",
				"energy": 0.04825,
				"method": "rhf"
			},
			{
				"type": "unocc",
				"energy": 0.08435,
				"method": "rhf"
			}
		],
		"cosmo_sigma_profile": { 
			"-0.025": 0.0,
			"-0.024": 0.0,
			"-0.023": 0.0,
			"-0.022": 0.0,
			"-0.021": 0.0,
			"-0.02": 0.0,
			"-0.019": 0.0,
			"-0.018": 0.0,
			"-0.017": 0.0,
			"-0.016": 0.0,
			"-0.015": 0.0,
			"-0.014": 0.0,
			"-0.013": 1.33534085761,
			"-0.012": 2.56898339745,
			"-0.011": 2.55936870629,
			"-0.01": 2.32602453798,
			"-0.009": 3.55281048832,
			"-0.008": 3.71903171768,
			"-0.007": 4.0863830256,
			"-0.006": 9.13927384481,
			"-0.005": 18.2106268187,
			"-0.004": 17.1678411325,
			"-0.003": 20.1552618681,
			"-0.002": 16.8022099747,
			"-0.001": 15.149648726,
			"0.0": 12.2473796133,
			"0.001": 11.7902741564,
			"0.002": 13.3661266324,
			"0.003": 13.1744389425,
			"0.004": 13.3073255884,
			"0.005": 13.2383957798,
			"0.006": 11.0702484182,
			"0.007": 3.72120448085,
			"0.008": 1.54729626139,
			"0.009": 2.11147922022,
			"0.01": 2.57979449048,
			"0.011": 2.52317685984,
			"0.012": 2.75015993646,
			"0.013": 5.23760650634,
			"0.014": 2.51652634456,
			"0.015": 0.140081545012,
			"0.016": 0.0,
			"0.017": 0.0,
			"0.018": 0.0,
			"0.019": 0.0,
			"0.02": 0.0,
			"0.021": 0.0,
			"0.022": 0.0,
			"0.023": 0.0,
			"0.024": 0.0,
			"0.025": 0.0
		}
	}
}
