{
	 "smiles": "CC(C)C1=C(N=NN1C1=C(F)C=C(F)C=C1)C(O)=O", 
	 "Tm": 432.15, 
	 "num_atms": 30, 
	 "gaussian": { 
		 "optdone": 1, 
		 "sigma_profile": "yes", 
		 "theory": "DFT", 
		 "functional": "B3LYP", 
		 "basiset": "6-31G**", 
		 "properties": { 
			 "R2extent": 6309.7073, 
			 "electric_dipole_moment_norm": 3.41776129945, 
			 "electric_quadrupole_moment_norm": 12.9160830703, 
			 "total_energy": -978.25936496, 
			 "HOMO_LUMO_gap": 0.21446, 
			 "cosmo_polarized_energy": -15.33, 
			 "cosmo_cavitation_energy": 34.94, 
			 "cosmo_dispersion_energy": -24.28, 
			 "cosmo_repulsion_energy": 1.82, 
			 "cosmo_total_nonelectrostatic_energy": 12.48, 
			 "SMD_solvation_energy": 6.83 
		},
		"coords": [
			{
				"x": 1.7428430157,
				"y": -0.301155899,
				"z": -0.786571281,
				"element": "C" 
			},
			{
				"x": 0.2801281259,
				"y": -0.2306642735,
				"z": -1.2678124927,
				"element": "C" 
			},
			{
				"x": 0.1867138231,
				"y": -0.1711875213,
				"z": -2.806219997,
				"element": "C" 
			},
			{
				"x": -0.5485102244,
				"y": -1.3638196357,
				"z": -0.7144538315,
				"element": "C" 
			},
			{
				"x": -0.5275002202,
				"y": -2.7502308389,
				"z": -0.8778194501,
				"element": "C" 
			},
			{
				"x": -1.5706308992,
				"y": -3.3031066557,
				"z": -0.1816258267,
				"element": "N" 
			},
			{
				"x": -2.2383959792,
				"y": -2.3746627815,
				"z": 0.4072681905,
				"element": "N" 
			},
			{
				"x": -1.6275020219,
				"y": -1.1748521096,
				"z": 0.0972100258,
				"element": "N" 
			},
			{
				"x": -2.1901855632,
				"y": 0.0197813208,
				"z": 0.6235334088,
				"element": "C" 
			},
			{
				"x": -1.4533841676,
				"y": 0.8540522103,
				"z": 1.4698654418,
				"element": "C" 
			},
			{
				"x": -0.1755460322,
				"y": 0.5440313951,
				"z": 1.7482009048,
				"element": "F" 
			},
			{
				"x": -2.0027234588,
				"y": 1.9994727169,
				"z": 2.0289855023,
				"element": "C" 
			},
			{
				"x": -3.3341286776,
				"y": 2.2837723619,
				"z": 1.7436429585,
				"element": "C" 
			},
			{
				"x": -3.882874943,
				"y": 3.3853832447,
				"z": 2.2809138413,
				"element": "F" 
			},
			{
				"x": -4.1113231917,
				"y": 1.4688952338,
				"z": 0.9255318139,
				"element": "C" 
			},
			{
				"x": -3.52774372,
				"y": 0.3351200852,
				"z": 0.3665781508,
				"element": "C" 
			},
			{
				"x": 0.4109499928,
				"y": -3.5754300084,
				"z": -1.6522113105,
				"element": "C" 
			},
			{
				"x": 0.1246172837,
				"y": -4.8909306462,
				"z": -1.5848670639,
				"element": "O" 
			},
			{
				"x": 1.3552875753,
				"y": -3.148066451,
				"z": -2.2966884733,
				"element": "O" 
			},
			{
				"x": 2.2259930557,
				"y": -1.2040052982,
				"z": -1.1644198839,
				"element": "H" 
			},
			{
				"x": 2.2924003635,
				"y": 0.568994542,
				"z": -1.1601945603,
				"element": "H" 
			},
			{
				"x": 1.7967970994,
				"y": -0.2950189675,
				"z": 0.3049454951,
				"element": "H" 
			},
			{
				"x": -0.1556109974,
				"y": 0.6954022939,
				"z": -0.8777251166,
				"element": "H" 
			},
			{
				"x": -0.8522911143,
				"y": -0.0813502221,
				"z": -3.1391635858,
				"element": "H" 
			},
			{
				"x": 0.7356756631,
				"y": 0.7027887851,
				"z": -3.1714687232,
				"element": "H" 
			},
			{
				"x": 0.6243937397,
				"y": -1.0658347136,
				"z": -3.2527629344,
				"element": "H" 
			},
			{
				"x": -1.414922477,
				"y": 2.6375252959,
				"z": 2.677186317,
				"element": "H" 
			},
			{
				"x": -5.1467118046,
				"y": 1.7264243334,
				"z": 0.7366423461,
				"element": "H" 
			},
			{
				"x": -4.1035057175,
				"y": -0.328755447,
				"z": -0.2680531203,
				"element": "H" 
			},
			{
				"x": 0.8019914719,
				"y": -5.3310723498,
				"z": -2.1248467453,
				"element": "H" 
			}
		],
		 "valence_orbital": [ 
			{
				"type": "occ",
				"energy": -0.28523,
				"method": "rhf"
			},
			{
				"type": "occ",
				"energy": -0.28294,
				"method": "rhf"
			},
			{
				"type": "occ",
				"energy": -0.27481,
				"method": "rhf"
			},
			{
				"type": "occ",
				"energy": -0.26748,
				"method": "rhf"
			},
			{
				"type": "occ",
				"energy": -0.26069,
				"method": "rhf"
			},
			{
				"type": "unocc",
				"energy": -0.04623,
				"method": "rhf"
			},
			{
				"type": "unocc",
				"energy": -0.03433,
				"method": "rhf"
			},
			{
				"type": "unocc",
				"energy": -0.02837,
				"method": "rhf"
			},
			{
				"type": "unocc",
				"energy": -0.00569,
				"method": "rhf"
			},
			{
				"type": "unocc",
				"energy": 0.05533,
				"method": "rhf"
			}
		],
		"cosmo_sigma_profile": { 
			"-0.025": 0.0,
			"-0.024": 0.0,
			"-0.023": 0.0,
			"-0.022": 0.0,
			"-0.021": 0.0,
			"-0.02": 0.0,
			"-0.019": 0.229545667876,
			"-0.018": 0.739051870555,
			"-0.017": 0.958057151344,
			"-0.016": 0.919011303772,
			"-0.015": 0.80884085646,
			"-0.014": 0.799645105442,
			"-0.013": 0.0753673062958,
			"-0.012": 0.633328918088,
			"-0.011": 1.2149094019,
			"-0.01": 0.946345446074,
			"-0.009": 3.0754820025,
			"-0.008": 6.33320594906,
			"-0.007": 6.43317533537,
			"-0.006": 7.45958772565,
			"-0.005": 9.30831113199,
			"-0.004": 15.4716143077,
			"-0.003": 21.1821184856,
			"-0.002": 26.5531865065,
			"-0.001": 35.3122871805,
			"0.0": 32.4298674872,
			"0.001": 25.1479307336,
			"0.002": 14.2991389335,
			"0.003": 16.6516765311,
			"0.004": 9.55148051727,
			"0.005": 3.53795016341,
			"0.006": 4.87362056068,
			"0.007": 5.11651250298,
			"0.008": 4.85173829627,
			"0.009": 6.2003974439,
			"0.01": 5.31868686807,
			"0.011": 5.03132332781,
			"0.012": 3.96140009589,
			"0.013": 2.00703325021,
			"0.014": 1.42094543599,
			"0.015": 0.565752457465,
			"0.016": 0.0,
			"0.017": 0.0,
			"0.018": 0.0,
			"0.019": 0.0,
			"0.02": 0.0,
			"0.021": 0.0,
			"0.022": 0.0,
			"0.023": 0.0,
			"0.024": 0.0,
			"0.025": 0.0
		}
	}
}
