{
	 "smiles": "OC(=O)C1=C(C=CC(Cl)=C1)C(F)(F)F", 
	 "Tm": 359.15, 
	 "num_atms": 18, 
	 "gaussian": { 
		 "optdone": 1, 
		 "sigma_profile": "yes", 
		 "theory": "DFT", 
		 "functional": "B3LYP", 
		 "basiset": "6-31G**", 
		 "properties": { 
			 "R2extent": 3677.9494, 
			 "electric_dipole_moment_norm": 1.32800161897, 
			 "electric_quadrupole_moment_norm": 12.8330189355, 
			 "total_energy": -1217.43784095, 
			 "HOMO_LUMO_gap": 0.20262, 
			 "cosmo_polarized_energy": -9.29, 
			 "cosmo_cavitation_energy": 26.1, 
			 "cosmo_dispersion_energy": -18.92, 
			 "cosmo_repulsion_energy": 1.44, 
			 "cosmo_total_nonelectrostatic_energy": 8.62, 
			 "SMD_solvation_energy": 6.48 
		},
		"coords": [
			{
				"x": -0.7989027235,
				"y": 2.1325971807,
				"z": -0.4175081617,
				"element": "O" 
			},
			{
				"x": 0.4314344984,
				"y": 1.6633114,
				"z": -0.6930320021,
				"element": "C" 
			},
			{
				"x": 1.4076696224,
				"y": 2.3785267376,
				"z": -0.7773140693,
				"element": "O" 
			},
			{
				"x": 0.4948699154,
				"y": 0.1669562113,
				"z": -0.8095884359,
				"element": "C" 
			},
			{
				"x": -0.5178780259,
				"y": -0.6755865675,
				"z": -1.3147452568,
				"element": "C" 
			},
			{
				"x": -0.3002268325,
				"y": -2.0558990935,
				"z": -1.3400047271,
				"element": "C" 
			},
			{
				"x": 0.888896945,
				"y": -2.6139407157,
				"z": -0.8760868072,
				"element": "C" 
			},
			{
				"x": 1.8894912861,
				"y": -1.7695231191,
				"z": -0.401967778,
				"element": "C" 
			},
			{
				"x": 3.4014695881,
				"y": -2.4461634866,
				"z": 0.1646611836,
				"element": "Cl" 
			},
			{
				"x": 1.7038625422,
				"y": -0.3908917188,
				"z": -0.3779376382,
				"element": "C" 
			},
			{
				"x": -1.8271844163,
				"y": -0.1618315725,
				"z": -1.8826455735,
				"element": "C" 
			},
			{
				"x": -2.6960239806,
				"y": 0.207864108,
				"z": -0.9235145454,
				"element": "F" 
			},
			{
				"x": -2.4437147874,
				"y": -1.1205925663,
				"z": -2.6142313997,
				"element": "F" 
			},
			{
				"x": -1.6371944775,
				"y": 0.890988534,
				"z": -2.7044844511,
				"element": "F" 
			},
			{
				"x": -0.7197898357,
				"y": 3.1005168675,
				"z": -0.3738331193,
				"element": "H" 
			},
			{
				"x": -1.0689686261,
				"y": -2.704023944,
				"z": -1.7422015757,
				"element": "H" 
			},
			{
				"x": 1.0404275042,
				"y": -3.6871689303,
				"z": -0.8961324955,
				"element": "H" 
			},
			{
				"x": 2.4867618035,
				"y": 0.2697606751,
				"z": -0.025933147,
				"element": "H" 
			}
		],
		 "valence_orbital": [ 
			{
				"type": "occ",
				"energy": -0.33277,
				"method": "rhf"
			},
			{
				"type": "occ",
				"energy": -0.32983,
				"method": "rhf"
			},
			{
				"type": "occ",
				"energy": -0.30075,
				"method": "rhf"
			},
			{
				"type": "occ",
				"energy": -0.2831,
				"method": "rhf"
			},
			{
				"type": "occ",
				"energy": -0.2732,
				"method": "rhf"
			},
			{
				"type": "unocc",
				"energy": -0.07058,
				"method": "rhf"
			},
			{
				"type": "unocc",
				"energy": -0.04251,
				"method": "rhf"
			},
			{
				"type": "unocc",
				"energy": 0.01123,
				"method": "rhf"
			},
			{
				"type": "unocc",
				"energy": 0.02784,
				"method": "rhf"
			},
			{
				"type": "unocc",
				"energy": 0.07101,
				"method": "rhf"
			}
		],
		"cosmo_sigma_profile": { 
			"-0.025": 0.0,
			"-0.024": 0.0,
			"-0.023": 0.0,
			"-0.022": 0.0,
			"-0.021": 0.0,
			"-0.02": 0.0233135812161,
			"-0.019": 0.815753479853,
			"-0.018": 0.680765458058,
			"-0.017": 0.838606707715,
			"-0.016": 0.970443123574,
			"-0.015": 0.766618617588,
			"-0.014": 0.590581860994,
			"-0.013": 0.614538740673,
			"-0.012": 0.752294805331,
			"-0.011": 0.801479764019,
			"-0.01": 0.488274953632,
			"-0.009": 1.7183425183,
			"-0.008": 4.83194896718,
			"-0.007": 6.22015216671,
			"-0.006": 5.0480862768,
			"-0.005": 6.45440685142,
			"-0.004": 7.40005439598,
			"-0.003": 10.4136261268,
			"-0.002": 14.270317101,
			"-0.001": 18.3660416515,
			"0.0": 26.6423640283,
			"0.001": 18.3845474123,
			"0.002": 24.424903513,
			"0.003": 26.0368252619,
			"0.004": 12.2914656466,
			"0.005": 4.66542096406,
			"0.006": 2.83651092838,
			"0.007": 2.89141341921,
			"0.008": 2.38237157109,
			"0.009": 1.3793144355,
			"0.01": 3.09296729625,
			"0.011": 4.61943761032,
			"0.012": 0.640702960794,
			"0.013": 0.0,
			"0.014": 0.0,
			"0.015": 0.0,
			"0.016": 0.0,
			"0.017": 0.0,
			"0.018": 0.0,
			"0.019": 0.0,
			"0.02": 0.0,
			"0.021": 0.0,
			"0.022": 0.0,
			"0.023": 0.0,
			"0.024": 0.0,
			"0.025": 0.0
		}
	}
}
