{
	 "smiles": "O=CC1=C2C=CNC2=CC=C1", 
	 "Tm": 414.15, 
	 "num_atms": 18, 
	 "gaussian": { 
		 "optdone": 1, 
		 "sigma_profile": "yes", 
		 "theory": "DFT", 
		 "functional": "B3LYP", 
		 "basiset": "6-31G**", 
		 "properties": { 
			 "R2extent": 1862.2191, 
			 "electric_dipole_moment_norm": 4.71071360305, 
			 "electric_quadrupole_moment_norm": 12.0304843078, 
			 "total_energy": -477.147600648, 
			 "HOMO_LUMO_gap": 0.15703, 
			 "cosmo_polarized_energy": -12.99, 
			 "cosmo_cavitation_energy": 22.22, 
			 "cosmo_dispersion_energy": -16.63, 
			 "cosmo_repulsion_energy": 1.31, 
			 "cosmo_total_nonelectrostatic_energy": 6.89, 
			 "SMD_solvation_energy": 4.78 
		},
		"coords": [
			{
				"x": 3.1119494915,
				"y": 2.0071339462,
				"z": -0.3460651721,
				"element": "O" 
			},
			{
				"x": 2.1712509295,
				"y": 2.2989761842,
				"z": -1.0656148998,
				"element": "C" 
			},
			{
				"x": 0.9480490153,
				"y": 1.500096233,
				"z": -1.2379598046,
				"element": "C" 
			},
			{
				"x": 0.7468681194,
				"y": 0.2728286955,
				"z": -0.5589902806,
				"element": "C" 
			},
			{
				"x": 1.5165229825,
				"y": -0.496254398,
				"z": 0.3702132522,
				"element": "C" 
			},
			{
				"x": 0.7751832003,
				"y": -1.6109519104,
				"z": 0.672688206,
				"element": "C" 
			},
			{
				"x": -0.4200493495,
				"y": -1.5808249784,
				"z": -0.0189585282,
				"element": "N" 
			},
			{
				"x": -0.4681470963,
				"y": -0.4348130484,
				"z": -0.7856167116,
				"element": "C" 
			},
			{
				"x": -1.4623771539,
				"y": 0.03453125,
				"z": -1.6477336032,
				"element": "C" 
			},
			{
				"x": -1.2402984978,
				"y": 1.2437310525,
				"z": -2.303315745,
				"element": "C" 
			},
			{
				"x": -0.0520347217,
				"y": 1.9623186832,
				"z": -2.0987806148,
				"element": "C" 
			},
			{
				"x": 2.186932236,
				"y": 3.239913899,
				"z": -1.661936216,
				"element": "H" 
			},
			{
				"x": 2.4911065311,
				"y": -0.2394180345,
				"z": 0.7525752473,
				"element": "H" 
			},
			{
				"x": 1.0028831549,
				"y": -2.4357101348,
				"z": 1.3329992831,
				"element": "H" 
			},
			{
				"x": -1.1395839753,
				"y": -2.2833670565,
				"z": 0.0296772993,
				"element": "H" 
			},
			{
				"x": -2.3814414608,
				"y": -0.5237665525,
				"z": -1.8042978624,
				"element": "H" 
			},
			{
				"x": -1.9949104212,
				"y": 1.6333361824,
				"z": -2.979212722,
				"element": "H" 
			},
			{
				"x": 0.1001970161,
				"y": 2.9040399875,
				"z": -2.6209711276,
				"element": "H" 
			}
		],
		 "valence_orbital": [ 
			{
				"type": "occ",
				"energy": -0.3356,
				"method": "rhf"
			},
			{
				"type": "occ",
				"energy": -0.28089,
				"method": "rhf"
			},
			{
				"type": "occ",
				"energy": -0.24133,
				"method": "rhf"
			},
			{
				"type": "occ",
				"energy": -0.23307,
				"method": "rhf"
			},
			{
				"type": "occ",
				"energy": -0.2137,
				"method": "rhf"
			},
			{
				"type": "unocc",
				"energy": -0.05667,
				"method": "rhf"
			},
			{
				"type": "unocc",
				"energy": 0.01131,
				"method": "rhf"
			},
			{
				"type": "unocc",
				"energy": 0.04361,
				"method": "rhf"
			},
			{
				"type": "unocc",
				"energy": 0.07167,
				"method": "rhf"
			},
			{
				"type": "unocc",
				"energy": 0.07187,
				"method": "rhf"
			}
		],
		"cosmo_sigma_profile": { 
			"-0.025": 0.0,
			"-0.024": 0.0,
			"-0.023": 0.0,
			"-0.022": 0.0,
			"-0.021": 0.0,
			"-0.02": 0.0,
			"-0.019": 0.0,
			"-0.018": 0.0,
			"-0.017": 0.0,
			"-0.016": 0.964953640806,
			"-0.015": 1.82966019701,
			"-0.014": 1.61486717327,
			"-0.013": 1.06661104497,
			"-0.012": 1.37246139892,
			"-0.011": 1.23594831581,
			"-0.01": 1.17750393987,
			"-0.009": 2.24621408546,
			"-0.008": 3.77476670059,
			"-0.007": 5.74732246856,
			"-0.006": 9.79721484297,
			"-0.005": 10.9972039402,
			"-0.004": 11.2833565701,
			"-0.003": 10.2152681067,
			"-0.002": 9.68166695736,
			"-0.001": 7.57796091519,
			"0.0": 8.16452042957,
			"0.001": 9.44125692859,
			"0.002": 9.83288472126,
			"0.003": 13.5650613239,
			"0.004": 19.5488894368,
			"0.005": 14.1138992804,
			"0.006": 6.73950940917,
			"0.007": 2.68479842507,
			"0.008": 1.65460526834,
			"0.009": 1.90378881869,
			"0.01": 2.42902486186,
			"0.011": 2.8418170775,
			"0.012": 3.07497238983,
			"0.013": 1.61776945444,
			"0.014": 0.440169804738,
			"0.015": 0.0,
			"0.016": 0.0,
			"0.017": 0.0,
			"0.018": 0.0,
			"0.019": 0.0,
			"0.02": 0.0,
			"0.021": 0.0,
			"0.022": 0.0,
			"0.023": 0.0,
			"0.024": 0.0,
			"0.025": 0.0
		}
	}
}
