{
	 "smiles": "NC(=S)C1=C(N)C=CC=C1", 
	 "Tm": 394.15, 
	 "num_atms": 18, 
	 "gaussian": { 
		 "optdone": 1, 
		 "sigma_profile": "yes", 
		 "theory": "DFT", 
		 "functional": "B3LYP", 
		 "basiset": "6-31G**", 
		 "properties": { 
			 "R2extent": 1969.6769, 
			 "electric_dipole_moment_norm": 3.17209561804, 
			 "electric_quadrupole_moment_norm": 16.9248832522, 
			 "total_energy": -779.272439586, 
			 "HOMO_LUMO_gap": 0.14898, 
			 "cosmo_polarized_energy": -14.81, 
			 "cosmo_cavitation_energy": 22.87, 
			 "cosmo_dispersion_energy": -17.84, 
			 "cosmo_repulsion_energy": 1.4, 
			 "cosmo_total_nonelectrostatic_energy": 6.43, 
			 "SMD_solvation_energy": 2.95 
		},
		"coords": [
			{
				"x": -1.0474910366,
				"y": -0.8930908931,
				"z": 3.1191241424,
				"element": "N" 
			},
			{
				"x": -0.0506418914,
				"y": -0.951342052,
				"z": 2.2058882469,
				"element": "C" 
			},
			{
				"x": 1.3338787515,
				"y": -1.8402096721,
				"z": 2.5727342196,
				"element": "S" 
			},
			{
				"x": -0.3260224357,
				"y": -0.2500747799,
				"z": 0.9321076326,
				"element": "C" 
			},
			{
				"x": 0.6888218821,
				"y": 0.3642273623,
				"z": 0.1339573579,
				"element": "C" 
			},
			{
				"x": 2.0117130617,
				"y": 0.3729309278,
				"z": 0.4898482459,
				"element": "N" 
			},
			{
				"x": 0.2912623733,
				"y": 1.0481088529,
				"z": -1.0390517049,
				"element": "C" 
			},
			{
				"x": -1.0316101486,
				"y": 1.1037543771,
				"z": -1.4409697134,
				"element": "C" 
			},
			{
				"x": -2.0285005021,
				"y": 0.4723000831,
				"z": -0.6854069501,
				"element": "C" 
			},
			{
				"x": -1.6641714546,
				"y": -0.1824352231,
				"z": 0.4802507167,
				"element": "C" 
			},
			{
				"x": -0.9073423736,
				"y": -1.3574646641,
				"z": 4.0044554884,
				"element": "H" 
			},
			{
				"x": -1.8000207136,
				"y": -0.2270555706,
				"z": 3.0312754412,
				"element": "H" 
			},
			{
				"x": 2.3137911569,
				"y": -0.3601841102,
				"z": 1.1246711367,
				"element": "H" 
			},
			{
				"x": 2.6695760936,
				"y": 0.645236444,
				"z": -0.2245684156,
				"element": "H" 
			},
			{
				"x": 1.0605811761,
				"y": 1.5332600051,
				"z": -1.6346974663,
				"element": "H" 
			},
			{
				"x": -1.2892583732,
				"y": 1.6285903794,
				"z": -2.3567350428,
				"element": "H" 
			},
			{
				"x": -3.0637263286,
				"y": 0.4825690401,
				"z": -1.0096836896,
				"element": "H" 
			},
			{
				"x": -2.4273392371,
				"y": -0.7093205067,
				"z": 1.0451003547,
				"element": "H" 
			}
		],
		 "valence_orbital": [ 
			{
				"type": "occ",
				"energy": -0.31513,
				"method": "rhf"
			},
			{
				"type": "occ",
				"energy": -0.26042,
				"method": "rhf"
			},
			{
				"type": "occ",
				"energy": -0.2308,
				"method": "rhf"
			},
			{
				"type": "occ",
				"energy": -0.21155,
				"method": "rhf"
			},
			{
				"type": "occ",
				"energy": -0.20432,
				"method": "rhf"
			},
			{
				"type": "unocc",
				"energy": -0.05534,
				"method": "rhf"
			},
			{
				"type": "unocc",
				"energy": 0.00507,
				"method": "rhf"
			},
			{
				"type": "unocc",
				"energy": 0.02604,
				"method": "rhf"
			},
			{
				"type": "unocc",
				"energy": 0.07758,
				"method": "rhf"
			},
			{
				"type": "unocc",
				"energy": 0.08649,
				"method": "rhf"
			}
		],
		"cosmo_sigma_profile": { 
			"-0.025": 0.0,
			"-0.024": 0.0,
			"-0.023": 0.0,
			"-0.022": 0.0,
			"-0.021": 0.0,
			"-0.02": 0.0,
			"-0.019": 0.0,
			"-0.018": 0.0,
			"-0.017": 0.0,
			"-0.016": 0.0130212920655,
			"-0.015": 1.24272035686,
			"-0.014": 2.29328954202,
			"-0.013": 3.30990101317,
			"-0.012": 4.18922163855,
			"-0.011": 3.22579237383,
			"-0.01": 3.07073667855,
			"-0.009": 3.85227969946,
			"-0.008": 3.78741693486,
			"-0.007": 4.3737329859,
			"-0.006": 7.9847520646,
			"-0.005": 9.87098225355,
			"-0.004": 10.0045273244,
			"-0.003": 8.80706405556,
			"-0.002": 8.60245197854,
			"-0.001": 5.95685251926,
			"0.0": 8.70872787683,
			"0.001": 8.44114582066,
			"0.002": 9.50695136464,
			"0.003": 12.7126637395,
			"0.004": 15.6722824153,
			"0.005": 15.1814395835,
			"0.006": 8.17307086746,
			"0.007": 4.76372607387,
			"0.008": 4.81684505049,
			"0.009": 5.94998685858,
			"0.01": 5.27734816871,
			"0.011": 3.92715494687,
			"0.012": 1.14370357142,
			"0.013": 0.0,
			"0.014": 0.0,
			"0.015": 0.0,
			"0.016": 0.0,
			"0.017": 0.0,
			"0.018": 0.0,
			"0.019": 0.0,
			"0.02": 0.0,
			"0.021": 0.0,
			"0.022": 0.0,
			"0.023": 0.0,
			"0.024": 0.0,
			"0.025": 0.0
		}
	}
}
