{
	 "smiles": "OCC(CO)(CCl)CCl", 
	 "Tm": 356.15, 
	 "num_atms": 19, 
	 "gaussian": { 
		 "optdone": 1, 
		 "sigma_profile": "yes", 
		 "theory": "DFT", 
		 "functional": "B3LYP", 
		 "basiset": "6-31G**", 
		 "properties": { 
			 "R2extent": 2636.794, 
			 "electric_dipole_moment_norm": 4.33692584788, 
			 "electric_quadrupole_moment_norm": 13.4854726895, 
			 "total_energy": -1267.38071326, 
			 "HOMO_LUMO_gap": 0.27982, 
			 "cosmo_polarized_energy": -13.34, 
			 "cosmo_cavitation_energy": 23.77, 
			 "cosmo_dispersion_energy": -17.73, 
			 "cosmo_repulsion_energy": 1.46, 
			 "cosmo_total_nonelectrostatic_energy": 7.5, 
			 "SMD_solvation_energy": 3.51 
		},
		"coords": [
			{
				"x": 1.7285514845,
				"y": -0.9552052086,
				"z": 0.2209756586,
				"element": "O" 
			},
			{
				"x": 0.842037576,
				"y": -0.3012795334,
				"z": 1.1348521312,
				"element": "C" 
			},
			{
				"x": -0.486048339,
				"y": -1.0871411921,
				"z": 1.204763681,
				"element": "C" 
			},
			{
				"x": -0.1994056827,
				"y": -2.5625454138,
				"z": 1.6244156133,
				"element": "C" 
			},
			{
				"x": 0.4412100811,
				"y": -3.3202822135,
				"z": 0.6244811592,
				"element": "O" 
			},
			{
				"x": -1.1497210517,
				"y": -1.0320483114,
				"z": -0.179944767,
				"element": "C" 
			},
			{
				"x": -2.7699461668,
				"y": -1.8554159985,
				"z": -0.2401820772,
				"element": "Cl" 
			},
			{
				"x": -1.3698050104,
				"y": -0.4877876371,
				"z": 2.3068581373,
				"element": "C" 
			},
			{
				"x": -1.7315371115,
				"y": 1.2874606171,
				"z": 2.1013518387,
				"element": "Cl" 
			},
			{
				"x": 2.5517869199,
				"y": -0.4542950346,
				"z": 0.1761133996,
				"element": "H" 
			},
			{
				"x": 1.2809518844,
				"y": -0.2678346391,
				"z": 2.1438333101,
				"element": "H" 
			},
			{
				"x": 0.6528701278,
				"y": 0.7308239566,
				"z": 0.81602519,
				"element": "H" 
			},
			{
				"x": 0.3837336631,
				"y": -2.5423908324,
				"z": 2.561530532,
				"element": "H" 
			},
			{
				"x": -1.1459663574,
				"y": -3.0679287355,
				"z": 1.8382346988,
				"element": "H" 
			},
			{
				"x": 1.2344034864,
				"y": -2.8225476567,
				"z": 0.3697545258,
				"element": "H" 
			},
			{
				"x": -0.5252573095,
				"y": -1.5429809423,
				"z": -0.9087209914,
				"element": "H" 
			},
			{
				"x": -1.3262930874,
				"y": -0.001134204,
				"z": -0.4877180315,
				"element": "H" 
			},
			{
				"x": -2.3388815037,
				"y": -0.9844106998,
				"z": 2.3300997792,
				"element": "H" 
			},
			{
				"x": -0.890983603,
				"y": -0.580956321,
				"z": 3.2834762122,
				"element": "H" 
			}
		],
		 "valence_orbital": [ 
			{
				"type": "occ",
				"energy": -0.30517,
				"method": "rhf"
			},
			{
				"type": "occ",
				"energy": -0.30125,
				"method": "rhf"
			},
			{
				"type": "occ",
				"energy": -0.29178,
				"method": "rhf"
			},
			{
				"type": "occ",
				"energy": -0.28845,
				"method": "rhf"
			},
			{
				"type": "occ",
				"energy": -0.2665,
				"method": "rhf"
			},
			{
				"type": "unocc",
				"energy": 0.01332,
				"method": "rhf"
			},
			{
				"type": "unocc",
				"energy": 0.02229,
				"method": "rhf"
			},
			{
				"type": "unocc",
				"energy": 0.0511,
				"method": "rhf"
			},
			{
				"type": "unocc",
				"energy": 0.07944,
				"method": "rhf"
			},
			{
				"type": "unocc",
				"energy": 0.11449,
				"method": "rhf"
			}
		],
		"cosmo_sigma_profile": { 
			"-0.025": 0.0,
			"-0.024": 0.0,
			"-0.023": 0.0,
			"-0.022": 0.0,
			"-0.021": 0.0,
			"-0.02": 0.0,
			"-0.019": 0.0,
			"-0.018": 0.0207794245605,
			"-0.017": 0.812451766896,
			"-0.016": 1.21547468822,
			"-0.015": 1.23715030574,
			"-0.014": 0.707672642809,
			"-0.013": 0.851259407845,
			"-0.012": 0.843322038562,
			"-0.011": 0.903485507077,
			"-0.01": 0.7201103715,
			"-0.009": 1.16772401032,
			"-0.008": 3.06231872026,
			"-0.007": 6.49962961479,
			"-0.006": 11.1325987404,
			"-0.005": 14.9699797583,
			"-0.004": 13.4853975639,
			"-0.003": 11.4949780615,
			"-0.002": 9.71587401192,
			"-0.001": 9.70327045947,
			"0.0": 10.6114111254,
			"0.001": 9.95122469716,
			"0.002": 11.1475721092,
			"0.003": 11.7952604749,
			"0.004": 12.7009007514,
			"0.005": 10.6753239545,
			"0.006": 15.4465461016,
			"0.007": 7.24136772019,
			"0.008": 1.56397258457,
			"0.009": 1.41771955969,
			"0.01": 1.57586711605,
			"0.011": 0.855947492334,
			"0.012": 1.5779949521,
			"0.013": 1.38624944469,
			"0.014": 1.98510138072,
			"0.015": 0.696021122408,
			"0.016": 0.0,
			"0.017": 0.0,
			"0.018": 0.0,
			"0.019": 0.0,
			"0.02": 0.0,
			"0.021": 0.0,
			"0.022": 0.0,
			"0.023": 0.0,
			"0.024": 0.0,
			"0.025": 0.0
		}
	}
}
