{
	 "smiles": "FC1=CC=CC(F)=C1C(=O)C1=CC2=C(NC(=O)CC2)C=C1", 
	 "Tm": 522.15, 
	 "num_atms": 32, 
	 "gaussian": { 
		 "optdone": 1, 
		 "sigma_profile": "yes", 
		 "theory": "DFT", 
		 "functional": "B3LYP", 
		 "basiset": "6-31G**", 
		 "properties": { 
			 "R2extent": 7566.086, 
			 "electric_dipole_moment_norm": 3.2652737481, 
			 "electric_quadrupole_moment_norm": 22.0334254028, 
			 "total_energy": -1021.227678, 
			 "HOMO_LUMO_gap": 0.16323, 
			 "cosmo_polarized_energy": -17.73, 
			 "cosmo_cavitation_energy": 37.49, 
			 "cosmo_dispersion_energy": -26.43, 
			 "cosmo_repulsion_energy": 1.98, 
			 "cosmo_total_nonelectrostatic_energy": 13.03, 
			 "SMD_solvation_energy": 7.82 
		},
		"coords": [
			{
				"x": -0.796024825,
				"y": -3.1480804097,
				"z": 2.8844443763,
				"element": "F" 
			},
			{
				"x": -0.3787251163,
				"y": -3.4672112207,
				"z": 1.6479718945,
				"element": "C" 
			},
			{
				"x": 0.5790425639,
				"y": -4.4641483286,
				"z": 1.5059270681,
				"element": "C" 
			},
			{
				"x": 1.0230639329,
				"y": -4.7896796996,
				"z": 0.2236390578,
				"element": "C" 
			},
			{
				"x": 0.5221203468,
				"y": -4.1218841724,
				"z": -0.8940945033,
				"element": "C" 
			},
			{
				"x": -0.4255390868,
				"y": -3.1240356604,
				"z": -0.6995973353,
				"element": "C" 
			},
			{
				"x": -0.9182616343,
				"y": -2.4831268429,
				"z": -1.7804158373,
				"element": "F" 
			},
			{
				"x": -0.9043904394,
				"y": -2.7591272461,
				"z": 0.5611846911,
				"element": "C" 
			},
			{
				"x": -2.0205989031,
				"y": -1.7547895977,
				"z": 0.7573980459,
				"element": "C" 
			},
			{
				"x": -3.051078267,
				"y": -2.1215829784,
				"z": 1.3034519883,
				"element": "O" 
			},
			{
				"x": -1.8322888307,
				"y": -0.3544229195,
				"z": 0.2991581519,
				"element": "C" 
			},
			{
				"x": -0.6050872597,
				"y": 0.140184026,
				"z": -0.1707593224,
				"element": "C" 
			},
			{
				"x": -0.4585936122,
				"y": 1.4643189262,
				"z": -0.5694827644,
				"element": "C" 
			},
			{
				"x": -1.5729649548,
				"y": 2.3227122482,
				"z": -0.4821731066,
				"element": "C" 
			},
			{
				"x": -1.4338596639,
				"y": 3.6568454496,
				"z": -0.8762863222,
				"element": "N" 
			},
			{
				"x": -0.2338807086,
				"y": 4.3342388201,
				"z": -1.0392773097,
				"element": "C" 
			},
			{
				"x": -0.2139041035,
				"y": 5.5130252437,
				"z": -1.3473434952,
				"element": "O" 
			},
			{
				"x": 1.0044395078,
				"y": 3.4991850706,
				"z": -0.7533811887,
				"element": "C" 
			},
			{
				"x": 0.8235789303,
				"y": 2.0244142103,
				"z": -1.1413934146,
				"element": "C" 
			},
			{
				"x": -2.8073245532,
				"y": 1.8428712104,
				"z": -0.0173334191,
				"element": "C" 
			},
			{
				"x": -2.9315197002,
				"y": 0.5176891727,
				"z": 0.3690876003,
				"element": "C" 
			},
			{
				"x": 0.9560473876,
				"y": -4.9661327456,
				"z": 2.3895084284,
				"element": "H" 
			},
			{
				"x": 1.7647675131,
				"y": -5.5713940685,
				"z": 0.0945513925,
				"element": "H" 
			},
			{
				"x": 0.842882026,
				"y": -4.3623437023,
				"z": -1.9011501335,
				"element": "H" 
			},
			{
				"x": 0.2574184427,
				"y": -0.5172897189,
				"z": -0.2224555981,
				"element": "H" 
			},
			{
				"x": -2.2604939352,
				"y": 4.2358864431,
				"z": -0.9572883889,
				"element": "H" 
			},
			{
				"x": 1.8431464783,
				"y": 3.9652017114,
				"z": -1.2741009865,
				"element": "H" 
			},
			{
				"x": 1.2024151973,
				"y": 3.5821668926,
				"z": 0.3241908443,
				"element": "H" 
			},
			{
				"x": 0.7943711615,
				"y": 1.9436065551,
				"z": -2.2377232728,
				"element": "H" 
			},
			{
				"x": 1.6834261387,
				"y": 1.4342508485,
				"z": -0.8098246325,
				"element": "H" 
			},
			{
				"x": -3.6572027242,
				"y": 2.5173094165,
				"z": 0.0461641841,
				"element": "H" 
			},
			{
				"x": -3.8739813088,
				"y": 0.1300430664,
				"z": 0.7402033074,
				"element": "H" 
			}
		],
		 "valence_orbital": [ 
			{
				"type": "occ",
				"energy": -0.26544,
				"method": "rhf"
			},
			{
				"type": "occ",
				"energy": -0.26336,
				"method": "rhf"
			},
			{
				"type": "occ",
				"energy": -0.25719,
				"method": "rhf"
			},
			{
				"type": "occ",
				"energy": -0.25313,
				"method": "rhf"
			},
			{
				"type": "occ",
				"energy": -0.23085,
				"method": "rhf"
			},
			{
				"type": "unocc",
				"energy": -0.06762,
				"method": "rhf"
			},
			{
				"type": "unocc",
				"energy": -0.0253,
				"method": "rhf"
			},
			{
				"type": "unocc",
				"energy": -0.01951,
				"method": "rhf"
			},
			{
				"type": "unocc",
				"energy": -0.01018,
				"method": "rhf"
			},
			{
				"type": "unocc",
				"energy": 0.00768,
				"method": "rhf"
			}
		],
		"cosmo_sigma_profile": { 
			"-0.025": 0.0,
			"-0.024": 0.0,
			"-0.023": 0.0,
			"-0.022": 0.0,
			"-0.021": 0.0,
			"-0.02": 0.0,
			"-0.019": 0.0,
			"-0.018": 0.0,
			"-0.017": 0.0,
			"-0.016": 0.0696072135878,
			"-0.015": 0.888186387553,
			"-0.014": 1.42500580263,
			"-0.013": 1.48295950352,
			"-0.012": 0.857632797183,
			"-0.011": 1.21947872015,
			"-0.01": 1.3488012395,
			"-0.009": 0.943788214749,
			"-0.008": 4.289414148,
			"-0.007": 9.81716457585,
			"-0.006": 17.4792039752,
			"-0.005": 23.5245191304,
			"-0.004": 19.6897466845,
			"-0.003": 21.5113889355,
			"-0.002": 18.854810552,
			"-0.001": 21.2534915038,
			"0.0": 22.2777283427,
			"0.001": 22.8459048882,
			"0.002": 22.1247341072,
			"0.003": 28.7228124095,
			"0.004": 18.8848231137,
			"0.005": 3.32088717037,
			"0.006": 4.55754920013,
			"0.007": 3.4488699972,
			"0.008": 2.7631012807,
			"0.009": 3.38115230227,
			"0.01": 4.34115440195,
			"0.011": 5.73877196724,
			"0.012": 6.93640388103,
			"0.013": 5.14841775302,
			"0.014": 1.36217698273,
			"0.015": 0.0,
			"0.016": 0.0,
			"0.017": 0.0,
			"0.018": 0.0,
			"0.019": 0.0,
			"0.02": 0.0,
			"0.021": 0.0,
			"0.022": 0.0,
			"0.023": 0.0,
			"0.024": 0.0,
			"0.025": 0.0
		}
	}
}
