{
	 "smiles": "CC(C)(C)OC(=O)NCCC1=NC(N)=NO1", 
	 "Tm": 390.15, 
	 "num_atms": 32, 
	 "gaussian": { 
		 "optdone": 1, 
		 "sigma_profile": "yes", 
		 "theory": "DFT", 
		 "functional": "B3LYP", 
		 "basiset": "6-31G**", 
		 "properties": { 
			 "R2extent": 5005.9482, 
			 "electric_dipole_moment_norm": 2.32161525882, 
			 "electric_quadrupole_moment_norm": 16.539224227, 
			 "total_energy": -797.285341301, 
			 "HOMO_LUMO_gap": 0.22795, 
			 "cosmo_polarized_energy": -18.04, 
			 "cosmo_cavitation_energy": 35.8, 
			 "cosmo_dispersion_energy": -24.4, 
			 "cosmo_repulsion_energy": 1.95, 
			 "cosmo_total_nonelectrostatic_energy": 13.35, 
			 "SMD_solvation_energy": 4.34 
		},
		"coords": [
			{
				"x": -2.8661330516,
				"y": 0.356660575,
				"z": 1.8862651298,
				"element": "C" 
			},
			{
				"x": -1.8771877589,
				"y": -0.554427028,
				"z": 2.6210559301,
				"element": "C" 
			},
			{
				"x": -1.2678287872,
				"y": 0.1650316124,
				"z": 3.8271334732,
				"element": "C" 
			},
			{
				"x": -2.5145887273,
				"y": -1.8817855122,
				"z": 3.0452764588,
				"element": "C" 
			},
			{
				"x": -0.7014668219,
				"y": -0.8093725625,
				"z": 1.7718184803,
				"element": "O" 
			},
			{
				"x": -0.8288460072,
				"y": -1.4620287436,
				"z": 0.5892799525,
				"element": "C" 
			},
			{
				"x": -1.8688346444,
				"y": -1.859022456,
				"z": 0.0904089547,
				"element": "O" 
			},
			{
				"x": 0.3987258122,
				"y": -1.6398122466,
				"z": 0.005798211,
				"element": "N" 
			},
			{
				"x": 1.6611558125,
				"y": -1.1016515489,
				"z": 0.4826184043,
				"element": "C" 
			},
			{
				"x": 1.8717110343,
				"y": 0.3894636646,
				"z": 0.1561345964,
				"element": "C" 
			},
			{
				"x": 1.8335188339,
				"y": 0.689326344,
				"z": -1.3073969468,
				"element": "C" 
			},
			{
				"x": 1.3738743151,
				"y": 1.7532190795,
				"z": -1.898145859,
				"element": "N" 
			},
			{
				"x": 1.6233763311,
				"y": 1.4745240096,
				"z": -3.2275443986,
				"element": "C" 
			},
			{
				"x": 1.3344289195,
				"y": 2.3873739421,
				"z": -4.2077306375,
				"element": "N" 
			},
			{
				"x": 2.1870176729,
				"y": 0.307729671,
				"z": -3.46546441,
				"element": "N" 
			},
			{
				"x": 2.3378760615,
				"y": -0.2210674213,
				"z": -2.1533262395,
				"element": "O" 
			},
			{
				"x": -3.2827609012,
				"y": -0.145563986,
				"z": 1.0131845595,
				"element": "H" 
			},
			{
				"x": -2.3680589324,
				"y": 1.2765073815,
				"z": 1.5631958401,
				"element": "H" 
			},
			{
				"x": -3.6826205498,
				"y": 0.6323995251,
				"z": 2.5616420512,
				"element": "H" 
			},
			{
				"x": -0.5278599368,
				"y": -0.4697448851,
				"z": 4.3235077205,
				"element": "H" 
			},
			{
				"x": -0.7764527501,
				"y": 1.0923853933,
				"z": 3.5178661968,
				"element": "H" 
			},
			{
				"x": -2.0502369286,
				"y": 0.4140399332,
				"z": 4.5500768149,
				"element": "H" 
			},
			{
				"x": -1.7708505929,
				"y": -2.52309077,
				"z": 3.5290130144,
				"element": "H" 
			},
			{
				"x": -3.3169234076,
				"y": -1.6900156253,
				"z": 3.7651354368,
				"element": "H" 
			},
			{
				"x": -2.929743048,
				"y": -2.4073014334,
				"z": 2.1851538537,
				"element": "H" 
			},
			{
				"x": 0.3545023247,
				"y": -2.0293042603,
				"z": -0.9240114537,
				"element": "H" 
			},
			{
				"x": 1.7148446185,
				"y": -1.2322205991,
				"z": 1.565113009,
				"element": "H" 
			},
			{
				"x": 2.4625055635,
				"y": -1.6951244074,
				"z": 0.0346422514,
				"element": "H" 
			},
			{
				"x": 2.8428680516,
				"y": 0.708732153,
				"z": 0.5580278993,
				"element": "H" 
			},
			{
				"x": 1.1053243146,
				"y": 0.9963494395,
				"z": 0.6432406088,
				"element": "H" 
			},
			{
				"x": 0.6003073624,
				"y": 3.0372704656,
				"z": -3.9677729474,
				"element": "H" 
			},
			{
				"x": 1.2851558175,
				"y": 2.0169202963,
				"z": -5.1457959551,
				"element": "H" 
			}
		],
		 "valence_orbital": [ 
			{
				"type": "occ",
				"energy": -0.29243,
				"method": "rhf"
			},
			{
				"type": "occ",
				"energy": -0.28945,
				"method": "rhf"
			},
			{
				"type": "occ",
				"energy": -0.26159,
				"method": "rhf"
			},
			{
				"type": "occ",
				"energy": -0.25393,
				"method": "rhf"
			},
			{
				"type": "occ",
				"energy": -0.24009,
				"method": "rhf"
			},
			{
				"type": "unocc",
				"energy": -0.01214,
				"method": "rhf"
			},
			{
				"type": "unocc",
				"energy": 0.05177,
				"method": "rhf"
			},
			{
				"type": "unocc",
				"energy": 0.05828,
				"method": "rhf"
			},
			{
				"type": "unocc",
				"energy": 0.06818,
				"method": "rhf"
			},
			{
				"type": "unocc",
				"energy": 0.07982,
				"method": "rhf"
			}
		],
		"cosmo_sigma_profile": { 
			"-0.025": 0.0,
			"-0.024": 0.0,
			"-0.023": 0.0,
			"-0.022": 0.0,
			"-0.021": 0.0,
			"-0.02": 0.0,
			"-0.019": 0.0,
			"-0.018": 0.0,
			"-0.017": 0.0,
			"-0.016": 0.0,
			"-0.015": 0.164582679555,
			"-0.014": 2.18986027513,
			"-0.013": 2.85987971343,
			"-0.012": 3.13772391834,
			"-0.011": 3.83926150468,
			"-0.01": 2.69151406553,
			"-0.009": 2.34962635522,
			"-0.008": 2.58544519446,
			"-0.007": 6.79778352424,
			"-0.006": 9.76493888423,
			"-0.005": 11.7429319758,
			"-0.004": 20.842547918,
			"-0.003": 25.7914423756,
			"-0.002": 22.9610293761,
			"-0.001": 23.9341414604,
			"0.0": 30.0564781129,
			"0.001": 24.7476627167,
			"0.002": 10.8562665959,
			"0.003": 9.01982722225,
			"0.004": 7.82314272374,
			"0.005": 8.96060826963,
			"0.006": 6.37467246648,
			"0.007": 6.43319542179,
			"0.008": 5.68326680378,
			"0.009": 3.8181538874,
			"0.01": 4.6244062339,
			"0.011": 5.0512453264,
			"0.012": 4.22104207334,
			"0.013": 5.60875159661,
			"0.014": 4.64148669076,
			"0.015": 0.625005951715,
			"0.016": 0.0,
			"0.017": 0.0,
			"0.018": 0.0,
			"0.019": 0.0,
			"0.02": 0.0,
			"0.021": 0.0,
			"0.022": 0.0,
			"0.023": 0.0,
			"0.024": 0.0,
			"0.025": 0.0
		}
	}
}
