{
	 "smiles": "CCOC1=CC=CC(=C1)C(N)=O", 
	 "Tm": 412.15, 
	 "num_atms": 23, 
	 "gaussian": { 
		 "optdone": 1, 
		 "sigma_profile": "yes", 
		 "theory": "DFT", 
		 "functional": "B3LYP", 
		 "basiset": "6-31G**", 
		 "properties": { 
			 "R2extent": 2590.7827, 
			 "electric_dipole_moment_norm": 4.15931697999, 
			 "electric_quadrupole_moment_norm": 19.23637817, 
			 "total_energy": -554.799567565, 
			 "HOMO_LUMO_gap": 0.18801, 
			 "cosmo_polarized_energy": -14.55, 
			 "cosmo_cavitation_energy": 26.68, 
			 "cosmo_dispersion_energy": -19.45, 
			 "cosmo_repulsion_energy": 1.58, 
			 "cosmo_total_nonelectrostatic_energy": 8.82, 
			 "SMD_solvation_energy": 5.79 
		},
		"coords": [
			{
				"x": 2.0245837886,
				"y": -0.9071398558,
				"z": -2.4932911298,
				"element": "C" 
			},
			{
				"x": 2.2513117615,
				"y": -0.7580940001,
				"z": -0.9921663547,
				"element": "C" 
			},
			{
				"x": 1.8196032681,
				"y": 0.5099797525,
				"z": -0.493151046,
				"element": "O" 
			},
			{
				"x": 0.4975921713,
				"y": 0.7309184327,
				"z": -0.232258064,
				"element": "C" 
			},
			{
				"x": 0.1815004994,
				"y": 2.0294384322,
				"z": 0.197981926,
				"element": "C" 
			},
			{
				"x": -1.1353889407,
				"y": 2.3679280423,
				"z": 0.4895609406,
				"element": "C" 
			},
			{
				"x": -2.1564381168,
				"y": 1.424431536,
				"z": 0.3639482277,
				"element": "C" 
			},
			{
				"x": -1.8454726526,
				"y": 0.1260685938,
				"z": -0.0455686958,
				"element": "C" 
			},
			{
				"x": -0.519387814,
				"y": -0.22262956,
				"z": -0.3535487291,
				"element": "C" 
			},
			{
				"x": -2.9780870305,
				"y": -0.8553649938,
				"z": -0.157927135,
				"element": "C" 
			},
			{
				"x": -2.6296858401,
				"y": -2.1894634995,
				"z": -0.1421175874,
				"element": "N" 
			},
			{
				"x": -4.1429050802,
				"y": -0.4977760197,
				"z": -0.2770812752,
				"element": "O" 
			},
			{
				"x": 2.5295844535,
				"y": -0.1009122396,
				"z": -3.0326911153,
				"element": "H" 
			},
			{
				"x": 0.962396136,
				"y": -0.8750412249,
				"z": -2.7501441149,
				"element": "H" 
			},
			{
				"x": 2.4318693702,
				"y": -1.8625986806,
				"z": -2.840688948,
				"element": "H" 
			},
			{
				"x": 1.7766398249,
				"y": -1.5718798414,
				"z": -0.4283878907,
				"element": "H" 
			},
			{
				"x": 3.3209367483,
				"y": -0.7879944282,
				"z": -0.7662034405,
				"element": "H" 
			},
			{
				"x": 0.9865876922,
				"y": 2.7514896411,
				"z": 0.287378756,
				"element": "H" 
			},
			{
				"x": -1.3670378438,
				"y": 3.3776176982,
				"z": 0.8160864876,
				"element": "H" 
			},
			{
				"x": -3.1909336815,
				"y": 1.670658695,
				"z": 0.573607348,
				"element": "H" 
			},
			{
				"x": -0.302830949,
				"y": -1.2152695574,
				"z": -0.7283279638,
				"element": "H" 
			},
			{
				"x": -3.4099960609,
				"y": -2.8286450001,
				"z": -0.0834028941,
				"element": "H" 
			},
			{
				"x": -1.7788417041,
				"y": -2.4766219229,
				"z": 0.3169926984,
				"element": "H" 
			}
		],
		 "valence_orbital": [ 
			{
				"type": "occ",
				"energy": -0.31904,
				"method": "rhf"
			},
			{
				"type": "occ",
				"energy": -0.27184,
				"method": "rhf"
			},
			{
				"type": "occ",
				"energy": -0.25745,
				"method": "rhf"
			},
			{
				"type": "occ",
				"energy": -0.24756,
				"method": "rhf"
			},
			{
				"type": "occ",
				"energy": -0.2224,
				"method": "rhf"
			},
			{
				"type": "unocc",
				"energy": -0.03439,
				"method": "rhf"
			},
			{
				"type": "unocc",
				"energy": 0.00491,
				"method": "rhf"
			},
			{
				"type": "unocc",
				"energy": 0.06057,
				"method": "rhf"
			},
			{
				"type": "unocc",
				"energy": 0.07299,
				"method": "rhf"
			},
			{
				"type": "unocc",
				"energy": 0.10003,
				"method": "rhf"
			}
		],
		"cosmo_sigma_profile": { 
			"-0.025": 0.0,
			"-0.024": 0.0,
			"-0.023": 0.0,
			"-0.022": 0.0,
			"-0.021": 0.0,
			"-0.02": 0.0,
			"-0.019": 0.0,
			"-0.018": 0.0,
			"-0.017": 0.0,
			"-0.016": 0.0,
			"-0.015": 0.0,
			"-0.014": 0.800481890715,
			"-0.013": 2.57822698626,
			"-0.012": 2.2846202708,
			"-0.011": 2.54388430699,
			"-0.01": 2.88593470777,
			"-0.009": 2.73426449509,
			"-0.008": 2.82161304597,
			"-0.007": 2.29859985307,
			"-0.006": 8.68229223574,
			"-0.005": 12.1956622759,
			"-0.004": 18.4194419604,
			"-0.003": 17.2269067764,
			"-0.002": 15.4421789543,
			"-0.001": 14.5347477153,
			"0.0": 15.2612766667,
			"0.001": 13.3109790881,
			"0.002": 11.6223098805,
			"0.003": 12.0512874628,
			"0.004": 14.9863518122,
			"0.005": 8.95344918799,
			"0.006": 4.45777254076,
			"0.007": 3.07956534685,
			"0.008": 3.5315861774,
			"0.009": 2.72296131219,
			"0.01": 2.97328837879,
			"0.011": 2.10097905414,
			"0.012": 2.06018298802,
			"0.013": 4.40736290706,
			"0.014": 4.04526986624,
			"0.015": 0.247292282472,
			"0.016": 0.0,
			"0.017": 0.0,
			"0.018": 0.0,
			"0.019": 0.0,
			"0.02": 0.0,
			"0.021": 0.0,
			"0.022": 0.0,
			"0.023": 0.0,
			"0.024": 0.0,
			"0.025": 0.0
		}
	}
}
