{
	 "smiles": "C1CN2C[C@@H](N=C2S1)C1=CC=CC=C1", 
	 "Tm": 537.65, 
	 "num_atms": 26, 
	 "gaussian": { 
		 "optdone": 1, 
		 "sigma_profile": "yes", 
		 "theory": "DFT", 
		 "functional": "B3LYP", 
		 "basiset": "6-31G**", 
		 "properties": { 
			 "R2extent": 3965.6118, 
			 "electric_dipole_moment_norm": 4.10635506137, 
			 "electric_quadrupole_moment_norm": 13.4591237185, 
			 "total_energy": -934.080202653, 
			 "HOMO_LUMO_gap": 0.22324, 
			 "cosmo_polarized_energy": -11.76, 
			 "cosmo_cavitation_energy": 30.03, 
			 "cosmo_dispersion_energy": -22.67, 
			 "cosmo_repulsion_energy": 1.73, 
			 "cosmo_total_nonelectrostatic_energy": 9.09, 
			 "SMD_solvation_energy": -0.29 
		},
		"coords": [
			{
				"x": -3.3383111044,
				"y": 3.1253003764,
				"z": 0.2666297287,
				"element": "C" 
			},
			{
				"x": -2.2399768882,
				"y": 2.6398433395,
				"z": 1.2259320664,
				"element": "C" 
			},
			{
				"x": -1.9374745456,
				"y": 1.2849707883,
				"z": 0.7911064479,
				"element": "N" 
			},
			{
				"x": -0.7509890978,
				"y": 0.5404549679,
				"z": 1.2243777422,
				"element": "C" 
			},
			{
				"x": -0.5620080624,
				"y": -0.4380010926,
				"z": 0.0152513921,
				"element": "C" 
			},
			{
				"x": -1.2040555595,
				"y": 0.2501097504,
				"z": -1.1294958264,
				"element": "N" 
			},
			{
				"x": -1.9215109801,
				"y": 1.1654578932,
				"z": -0.604147532,
				"element": "C" 
			},
			{
				"x": -2.9105394589,
				"y": 2.4077112678,
				"z": -1.3869805615,
				"element": "S" 
			},
			{
				"x": 0.8854076045,
				"y": -0.8126818031,
				"z": -0.22956872,
				"element": "C" 
			},
			{
				"x": 1.488081376,
				"y": -1.8114057647,
				"z": 0.5465749314,
				"element": "C" 
			},
			{
				"x": 2.8342662224,
				"y": -2.1341539366,
				"z": 0.3725107179,
				"element": "C" 
			},
			{
				"x": 3.593958185,
				"y": -1.4657590505,
				"z": -0.5898923418,
				"element": "C" 
			},
			{
				"x": 2.9974784231,
				"y": -0.4770859039,
				"z": -1.3747435137,
				"element": "C" 
			},
			{
				"x": 1.6522887817,
				"y": -0.1506431601,
				"z": -1.1948467676,
				"element": "C" 
			},
			{
				"x": -4.3204463169,
				"y": 2.7549216315,
				"z": 0.5686614415,
				"element": "H" 
			},
			{
				"x": -3.3692941895,
				"y": 4.2129542452,
				"z": 0.1887062159,
				"element": "H" 
			},
			{
				"x": -1.352581194,
				"y": 3.2926508085,
				"z": 1.1615762279,
				"element": "H" 
			},
			{
				"x": -2.5979866074,
				"y": 2.6495163889,
				"z": 2.2606440299,
				"element": "H" 
			},
			{
				"x": -0.9121424438,
				"y": 0.0247125272,
				"z": 2.1746542897,
				"element": "H" 
			},
			{
				"x": 0.1185329966,
				"y": 1.2101062187,
				"z": 1.3251339818,
				"element": "H" 
			},
			{
				"x": -1.1305583353,
				"y": -1.3579655858,
				"z": 0.2182506734,
				"element": "H" 
			},
			{
				"x": 0.897482994,
				"y": -2.3451927712,
				"z": 1.2883600204,
				"element": "H" 
			},
			{
				"x": 3.2868975208,
				"y": -2.9119714604,
				"z": 0.981380829,
				"element": "H" 
			},
			{
				"x": 4.6406962494,
				"y": -1.71952651,
				"z": -0.7318701497,
				"element": "H" 
			},
			{
				"x": 3.5797646146,
				"y": 0.0393965181,
				"z": -2.1330378325,
				"element": "H" 
			},
			{
				"x": 1.1764198158,
				"y": 0.6044803173,
				"z": -1.811767491,
				"element": "H" 
			}
		],
		 "valence_orbital": [ 
			{
				"type": "occ",
				"energy": -0.26604,
				"method": "rhf"
			},
			{
				"type": "occ",
				"energy": -0.24648,
				"method": "rhf"
			},
			{
				"type": "occ",
				"energy": -0.24297,
				"method": "rhf"
			},
			{
				"type": "occ",
				"energy": -0.23687,
				"method": "rhf"
			},
			{
				"type": "occ",
				"energy": -0.21996,
				"method": "rhf"
			},
			{
				"type": "unocc",
				"energy": 0.00328,
				"method": "rhf"
			},
			{
				"type": "unocc",
				"energy": 0.00551,
				"method": "rhf"
			},
			{
				"type": "unocc",
				"energy": 0.0125,
				"method": "rhf"
			},
			{
				"type": "unocc",
				"energy": 0.02527,
				"method": "rhf"
			},
			{
				"type": "unocc",
				"energy": 0.0735,
				"method": "rhf"
			}
		],
		"cosmo_sigma_profile": { 
			"-0.025": 0.0,
			"-0.024": 0.0,
			"-0.023": 0.0,
			"-0.022": 0.0,
			"-0.021": 0.0,
			"-0.02": 0.0,
			"-0.019": 0.0,
			"-0.018": 0.0,
			"-0.017": 0.0,
			"-0.016": 0.0,
			"-0.015": 0.0,
			"-0.014": 0.0,
			"-0.013": 0.0,
			"-0.012": 0.0,
			"-0.011": 0.0,
			"-0.01": 0.0,
			"-0.009": 0.0,
			"-0.008": 0.381488161256,
			"-0.007": 3.00738535504,
			"-0.006": 10.700339456,
			"-0.005": 28.8419581984,
			"-0.004": 30.818989303,
			"-0.003": 26.6326369942,
			"-0.002": 14.9976237419,
			"-0.001": 12.6135218566,
			"0.0": 11.9033423875,
			"0.001": 11.3704968421,
			"0.002": 13.2841373512,
			"0.003": 15.0641600727,
			"0.004": 13.9666958392,
			"0.005": 14.6323978898,
			"0.006": 13.6821475426,
			"0.007": 6.74018469333,
			"0.008": 2.43039566247,
			"0.009": 2.04494588905,
			"0.01": 1.74435101156,
			"0.011": 0.600601797359,
			"0.012": 0.494304895075,
			"0.013": 1.26249508373,
			"0.014": 0.943298601994,
			"0.015": 0.673821172864,
			"0.016": 0.833694192389,
			"0.017": 0.772736980888,
			"0.018": 0.114653032819,
			"0.019": 0.0,
			"0.02": 0.0,
			"0.021": 0.0,
			"0.022": 0.0,
			"0.023": 0.0,
			"0.024": 0.0,
			"0.025": 0.0
		}
	}
}
