{
	 "smiles": "FC(F)(F)C1=CC=CC(=C1)C(=O)NC1=NN=C(O1)C1=CC=C(Cl)C=C1", 
	 "Tm": 489.15, 
	 "num_atms": 34, 
	 "gaussian": { 
		 "optdone": 1, 
		 "sigma_profile": "yes", 
		 "theory": "DFT", 
		 "functional": "B3LYP", 
		 "basiset": "6-31G**", 
		 "properties": { 
			 "R2extent": 11837.92, 
			 "electric_dipole_moment_norm": 3.22739040403, 
			 "electric_quadrupole_moment_norm": 14.6691786011, 
			 "total_energy": -1689.53304065, 
			 "HOMO_LUMO_gap": 0.16173, 
			 "cosmo_polarized_energy": -16.87, 
			 "cosmo_cavitation_energy": 44.47, 
			 "cosmo_dispersion_energy": -29.26, 
			 "cosmo_repulsion_energy": 2.16, 
			 "cosmo_total_nonelectrostatic_energy": 17.36, 
			 "SMD_solvation_energy": 7.21 
		},
		"coords": [
			{
				"x": -0.7985950352,
				"y": 3.0435967409,
				"z": 0.7898219968,
				"element": "F" 
			},
			{
				"x": 0.0253848548,
				"y": 3.4260573884,
				"z": 1.7885137621,
				"element": "C" 
			},
			{
				"x": -0.7356848209,
				"y": 3.6672011876,
				"z": 2.8787321517,
				"element": "F" 
			},
			{
				"x": 0.5736509819,
				"y": 4.6060499765,
				"z": 1.4228028463,
				"element": "F" 
			},
			{
				"x": 1.0823051483,
				"y": 2.3901830782,
				"z": 2.0724240405,
				"element": "C" 
			},
			{
				"x": 1.7141971732,
				"y": 2.3750135937,
				"z": 3.3197572881,
				"element": "C" 
			},
			{
				"x": 2.7437233804,
				"y": 1.4664612068,
				"z": 3.5639141939,
				"element": "C" 
			},
			{
				"x": 3.1407245106,
				"y": 0.5774764885,
				"z": 2.5676849297,
				"element": "C" 
			},
			{
				"x": 2.4869248049,
				"y": 0.5690302936,
				"z": 1.3282081044,
				"element": "C" 
			},
			{
				"x": 1.4614807273,
				"y": 1.4885535405,
				"z": 1.0784819327,
				"element": "C" 
			},
			{
				"x": 3.0152729701,
				"y": -0.3586400723,
				"z": 0.2817451967,
				"element": "C" 
			},
			{
				"x": 4.1988513808,
				"y": -0.6443353123,
				"z": 0.2130223732,
				"element": "O" 
			},
			{
				"x": 2.1453712038,
				"y": -0.8691758501,
				"z": -0.691951313,
				"element": "N" 
			},
			{
				"x": 0.795367011,
				"y": -1.1328914737,
				"z": -0.665461494,
				"element": "C" 
			},
			{
				"x": 0.0756140265,
				"y": -1.5034682304,
				"z": -1.6824344409,
				"element": "N" 
			},
			{
				"x": -1.2001827071,
				"y": -1.7333121956,
				"z": -1.1716652279,
				"element": "N" 
			},
			{
				"x": -1.1589570863,
				"y": -1.4750047841,
				"z": 0.0990444429,
				"element": "C" 
			},
			{
				"x": 0.1071643229,
				"y": -1.0912523207,
				"z": 0.4999571926,
				"element": "O" 
			},
			{
				"x": -2.2276149663,
				"y": -1.5323134766,
				"z": 1.0849406492,
				"element": "C" 
			},
			{
				"x": -3.5074351313,
				"y": -1.948358531,
				"z": 0.6808851964,
				"element": "C" 
			},
			{
				"x": -4.5469372997,
				"y": -2.0147216123,
				"z": 1.6009623275,
				"element": "C" 
			},
			{
				"x": -4.306231123,
				"y": -1.6628277631,
				"z": 2.9315347353,
				"element": "C" 
			},
			{
				"x": -5.6156626383,
				"y": -1.7461758117,
				"z": 4.0946672233,
				"element": "Cl" 
			},
			{
				"x": -3.0426815668,
				"y": -1.2460843322,
				"z": 3.3507171509,
				"element": "C" 
			},
			{
				"x": -2.0044928146,
				"y": -1.1820852513,
				"z": 2.4250129311,
				"element": "C" 
			},
			{
				"x": 1.3996977317,
				"y": 3.0712118986,
				"z": 4.0900682148,
				"element": "H" 
			},
			{
				"x": 3.2400686646,
				"y": 1.4571304408,
				"z": 4.5290498413,
				"element": "H" 
			},
			{
				"x": 3.9569675702,
				"y": -0.117843355,
				"z": 2.7311926185,
				"element": "H" 
			},
			{
				"x": 0.9665772202,
				"y": 1.5210067391,
				"z": 0.1149215846,
				"element": "H" 
			},
			{
				"x": 2.6323565098,
				"y": -1.3154112344,
				"z": -1.4612273818,
				"element": "H" 
			},
			{
				"x": -3.6736867507,
				"y": -2.2167956008,
				"z": -0.356732489,
				"element": "H" 
			},
			{
				"x": -5.5361572147,
				"y": -2.335258399,
				"z": 1.2944100384,
				"element": "H" 
			},
			{
				"x": -2.8758072159,
				"y": -0.9751608375,
				"z": 4.387032451,
				"element": "H" 
			},
			{
				"x": -1.0201738224,
				"y": -0.8563561292,
				"z": 2.7432669327,
				"element": "H" 
			}
		],
		 "valence_orbital": [ 
			{
				"type": "occ",
				"energy": -0.28848,
				"method": "rhf"
			},
			{
				"type": "occ",
				"energy": -0.28507,
				"method": "rhf"
			},
			{
				"type": "occ",
				"energy": -0.28044,
				"method": "rhf"
			},
			{
				"type": "occ",
				"energy": -0.27962,
				"method": "rhf"
			},
			{
				"type": "occ",
				"energy": -0.23791,
				"method": "rhf"
			},
			{
				"type": "unocc",
				"energy": -0.07618,
				"method": "rhf"
			},
			{
				"type": "unocc",
				"energy": -0.05984,
				"method": "rhf"
			},
			{
				"type": "unocc",
				"energy": -0.04348,
				"method": "rhf"
			},
			{
				"type": "unocc",
				"energy": -0.0292,
				"method": "rhf"
			},
			{
				"type": "unocc",
				"energy": -0.00533,
				"method": "rhf"
			}
		],
		"cosmo_sigma_profile": { 
			"-0.025": 0.0,
			"-0.024": 0.0,
			"-0.023": 0.0,
			"-0.022": 0.0,
			"-0.021": 0.0,
			"-0.02": 0.0,
			"-0.019": 0.0,
			"-0.018": 0.0,
			"-0.017": 0.482662131671,
			"-0.016": 1.33654340206,
			"-0.015": 0.33828115123,
			"-0.014": 0.924982943621,
			"-0.013": 0.810951145223,
			"-0.012": 0.889368451028,
			"-0.011": 0.836314588704,
			"-0.01": 0.500980258273,
			"-0.009": 1.92863465262,
			"-0.008": 7.61105718024,
			"-0.007": 14.9300291399,
			"-0.006": 18.5288399431,
			"-0.005": 19.521077384,
			"-0.004": 16.6027252466,
			"-0.003": 20.8754180352,
			"-0.002": 23.3842349863,
			"-0.001": 24.5270485766,
			"0.0": 32.6962589047,
			"0.001": 40.2929734844,
			"0.002": 46.0023719035,
			"0.003": 35.0171224811,
			"0.004": 12.5748309984,
			"0.005": 5.68288455676,
			"0.006": 2.8553196722,
			"0.007": 3.10843912916,
			"0.008": 3.31398475019,
			"0.009": 4.04323604267,
			"0.01": 5.01886276404,
			"0.011": 8.09633473174,
			"0.012": 4.96608697648,
			"0.013": 2.3167835944,
			"0.014": 1.37929560108,
			"0.015": 0.232698033065,
			"0.016": 0.0,
			"0.017": 0.0,
			"0.018": 0.0,
			"0.019": 0.0,
			"0.02": 0.0,
			"0.021": 0.0,
			"0.022": 0.0,
			"0.023": 0.0,
			"0.024": 0.0,
			"0.025": 0.0
		}
	}
}
