{
	 "smiles": "CC(C)NP(F)(=O)NC(C)C", 
	 "Tm": 338.15, 
	 "num_atms": 27, 
	 "gaussian": { 
		 "optdone": 1, 
		 "sigma_profile": "yes", 
		 "theory": "DFT", 
		 "functional": "B3LYP", 
		 "basiset": "6-31G**", 
		 "properties": { 
			 "R2extent": 2924.6757, 
			 "electric_dipole_moment_norm": 3.70080608787, 
			 "electric_quadrupole_moment_norm": 15.9326818791, 
			 "total_energy": -864.306062131, 
			 "HOMO_LUMO_gap": 0.30521, 
			 "cosmo_polarized_energy": -12.66, 
			 "cosmo_cavitation_energy": 30.25, 
			 "cosmo_dispersion_energy": -20.92, 
			 "cosmo_repulsion_energy": 1.65, 
			 "cosmo_total_nonelectrostatic_energy": 10.98, 
			 "SMD_solvation_energy": 6.19 
		},
		"coords": [
			{
				"x": -0.5653748897,
				"y": 2.9161334328,
				"z": 1.5352655396,
				"element": "C" 
			},
			{
				"x": 0.7005447043,
				"y": 2.0703012131,
				"z": 1.3644138605,
				"element": "C" 
			},
			{
				"x": 1.8598254242,
				"y": 2.595085537,
				"z": 2.2238112961,
				"element": "C" 
			},
			{
				"x": 1.0516066601,
				"y": 2.0045064339,
				"z": -0.0659223624,
				"element": "N" 
			},
			{
				"x": 1.8244549982,
				"y": 0.7482226947,
				"z": -0.818316085,
				"element": "P" 
			},
			{
				"x": 3.1340722327,
				"y": 0.4330468594,
				"z": 0.0643957537,
				"element": "F" 
			},
			{
				"x": 2.1380136733,
				"y": 1.0565783368,
				"z": -2.2329208123,
				"element": "O" 
			},
			{
				"x": 0.9831149111,
				"y": -0.6395317454,
				"z": -0.4008836509,
				"element": "N" 
			},
			{
				"x": -0.1054832482,
				"y": -1.1938563572,
				"z": -1.2473256767,
				"element": "C" 
			},
			{
				"x": -1.1361231463,
				"y": -0.1181446311,
				"z": -1.5990626417,
				"element": "C" 
			},
			{
				"x": 0.4393691801,
				"y": -1.895942651,
				"z": -2.4991112919,
				"element": "C" 
			},
			{
				"x": -1.3903945835,
				"y": 2.5104958618,
				"z": 0.943417042,
				"element": "H" 
			},
			{
				"x": -0.8708769584,
				"y": 2.9472727125,
				"z": 2.5858749454,
				"element": "H" 
			},
			{
				"x": -0.3902600906,
				"y": 3.9493126556,
				"z": 1.2107651272,
				"element": "H" 
			},
			{
				"x": 0.4752490843,
				"y": 1.0396432329,
				"z": 1.6590989303,
				"element": "H" 
			},
			{
				"x": 1.5887911913,
				"y": 2.5941948686,
				"z": 3.2851423879,
				"element": "H" 
			},
			{
				"x": 2.751441471,
				"y": 1.9771343892,
				"z": 2.0931037701,
				"element": "H" 
			},
			{
				"x": 2.11406586,
				"y": 3.6246728992,
				"z": 1.9446453873,
				"element": "H" 
			},
			{
				"x": 1.2325991954,
				"y": 2.8981944441,
				"z": -0.5100737831,
				"element": "H" 
			},
			{
				"x": 1.6155908577,
				"y": -1.362482997,
				"z": -0.0741313347,
				"element": "H" 
			},
			{
				"x": -0.6034104518,
				"y": -1.9397213168,
				"z": -0.6142600533,
				"element": "H" 
			},
			{
				"x": -0.7027361772,
				"y": 0.6463850276,
				"z": -2.2508023567,
				"element": "H" 
			},
			{
				"x": -1.9748304686,
				"y": -0.5765740056,
				"z": -2.1314301562,
				"element": "H" 
			},
			{
				"x": -1.5216492503,
				"y": 0.3695655158,
				"z": -0.7000149647,
				"element": "H" 
			},
			{
				"x": -0.3748129195,
				"y": -2.3522730851,
				"z": -3.0726327758,
				"element": "H" 
			},
			{
				"x": 1.1428326791,
				"y": -2.6911502791,
				"z": -2.2274593888,
				"element": "H" 
			},
			{
				"x": 0.9639800612,
				"y": -1.1787690467,
				"z": -3.1363867058,
				"element": "H" 
			}
		],
		 "valence_orbital": [ 
			{
				"type": "occ",
				"energy": -0.34336,
				"method": "rhf"
			},
			{
				"type": "occ",
				"energy": -0.30319,
				"method": "rhf"
			},
			{
				"type": "occ",
				"energy": -0.29239,
				"method": "rhf"
			},
			{
				"type": "occ",
				"energy": -0.26364,
				"method": "rhf"
			},
			{
				"type": "occ",
				"energy": -0.24957,
				"method": "rhf"
			},
			{
				"type": "unocc",
				"energy": 0.05564,
				"method": "rhf"
			},
			{
				"type": "unocc",
				"energy": 0.07489,
				"method": "rhf"
			},
			{
				"type": "unocc",
				"energy": 0.09501,
				"method": "rhf"
			},
			{
				"type": "unocc",
				"energy": 0.10263,
				"method": "rhf"
			},
			{
				"type": "unocc",
				"energy": 0.10772,
				"method": "rhf"
			}
		],
		"cosmo_sigma_profile": { 
			"-0.025": 0.0,
			"-0.024": 0.0,
			"-0.023": 0.0,
			"-0.022": 0.0,
			"-0.021": 0.0,
			"-0.02": 0.0,
			"-0.019": 0.0,
			"-0.018": 0.0,
			"-0.017": 0.0,
			"-0.016": 0.0,
			"-0.015": 0.0,
			"-0.014": 0.0529398674808,
			"-0.013": 1.30392047097,
			"-0.012": 2.3638803898,
			"-0.011": 1.34580649153,
			"-0.01": 1.85807298498,
			"-0.009": 2.93633104646,
			"-0.008": 2.83070259272,
			"-0.007": 2.65608757038,
			"-0.006": 2.46296505145,
			"-0.005": 4.96619260896,
			"-0.004": 12.8302279026,
			"-0.003": 26.4114391139,
			"-0.002": 26.2580152567,
			"-0.001": 27.6781589378,
			"0.0": 31.4684731305,
			"0.001": 28.4715929801,
			"0.002": 9.64959516547,
			"0.003": 6.92109989247,
			"0.004": 8.25328372066,
			"0.005": 8.53278590739,
			"0.006": 3.97353301635,
			"0.007": 2.46998853589,
			"0.008": 1.66639226992,
			"0.009": 0.838402302933,
			"0.01": 1.03879206447,
			"0.011": 1.33120531458,
			"0.012": 1.33651269823,
			"0.013": 1.36515774729,
			"0.014": 3.65001136497,
			"0.015": 4.95545270623,
			"0.016": 0.368678025655,
			"0.017": 0.0,
			"0.018": 0.0,
			"0.019": 0.0,
			"0.02": 0.0,
			"0.021": 0.0,
			"0.022": 0.0,
			"0.023": 0.0,
			"0.024": 0.0,
			"0.025": 0.0
		}
	}
}
