{
	 "smiles": "COC(=O)C1=C(Cl)N=C(Cl)S1", 
	 "Tm": 328.15, 
	 "num_atms": 14, 
	 "gaussian": { 
		 "optdone": 1, 
		 "sigma_profile": "yes", 
		 "theory": "DFT", 
		 "functional": "B3LYP", 
		 "basiset": "6-31G**", 
		 "properties": { 
			 "R2extent": 4021.8425, 
			 "electric_dipole_moment_norm": 1.68384170574, 
			 "electric_quadrupole_moment_norm": 13.4920265194, 
			 "total_energy": -1716.09096979, 
			 "HOMO_LUMO_gap": 0.18034, 
			 "cosmo_polarized_energy": -6.99, 
			 "cosmo_cavitation_energy": 24.8, 
			 "cosmo_dispersion_energy": -19.05, 
			 "cosmo_repulsion_energy": 1.51, 
			 "cosmo_total_nonelectrostatic_energy": 7.26, 
			 "SMD_solvation_energy": 3.62 
		},
		"coords": [
			{
				"x": 1.1361509512,
				"y": 2.4358926306,
				"z": 1.1867514892,
				"element": "C" 
			},
			{
				"x": 1.27839972,
				"y": 1.4650331061,
				"z": 0.1327638369,
				"element": "O" 
			},
			{
				"x": 0.5467542551,
				"y": 0.3514922788,
				"z": 0.2811158177,
				"element": "C" 
			},
			{
				"x": -0.1969195119,
				"y": 0.1331460731,
				"z": 1.2205094985,
				"element": "O" 
			},
			{
				"x": 0.7237896159,
				"y": -0.6126115559,
				"z": -0.8197263678,
				"element": "C" 
			},
			{
				"x": 1.473278228,
				"y": -0.6368500675,
				"z": -1.9773177196,
				"element": "C" 
			},
			{
				"x": 2.5408248693,
				"y": 0.6081276302,
				"z": -2.5213632397,
				"element": "Cl" 
			},
			{
				"x": 1.3594100597,
				"y": -1.747797989,
				"z": -2.763841466,
				"element": "N" 
			},
			{
				"x": 0.5259345238,
				"y": -2.5814210067,
				"z": -2.2196732803,
				"element": "C" 
			},
			{
				"x": 0.1291097881,
				"y": -4.102294982,
				"z": -2.9310483397,
				"element": "Cl" 
			},
			{
				"x": -0.1933476434,
				"y": -2.0994034033,
				"z": -0.7124840015,
				"element": "S" 
			},
			{
				"x": 1.7896976919,
				"y": 3.2614853774,
				"z": 0.9082312277,
				"element": "H" 
			},
			{
				"x": 1.4404473633,
				"y": 2.0070834623,
				"z": 2.1443171262,
				"element": "H" 
			},
			{
				"x": 0.098870089,
				"y": 2.7707184458,
				"z": 1.2598654182,
				"element": "H" 
			}
		],
		 "valence_orbital": [ 
			{
				"type": "occ",
				"energy": -0.32513,
				"method": "rhf"
			},
			{
				"type": "occ",
				"energy": -0.31886,
				"method": "rhf"
			},
			{
				"type": "occ",
				"energy": -0.30937,
				"method": "rhf"
			},
			{
				"type": "occ",
				"energy": -0.29112,
				"method": "rhf"
			},
			{
				"type": "occ",
				"energy": -0.26256,
				"method": "rhf"
			},
			{
				"type": "unocc",
				"energy": -0.08222,
				"method": "rhf"
			},
			{
				"type": "unocc",
				"energy": -0.02727,
				"method": "rhf"
			},
			{
				"type": "unocc",
				"energy": -0.01135,
				"method": "rhf"
			},
			{
				"type": "unocc",
				"energy": 0.00887,
				"method": "rhf"
			},
			{
				"type": "unocc",
				"energy": 0.03629,
				"method": "rhf"
			}
		],
		"cosmo_sigma_profile": { 
			"-0.025": 0.0,
			"-0.024": 0.0,
			"-0.023": 0.0,
			"-0.022": 0.0,
			"-0.021": 0.0,
			"-0.02": 0.0,
			"-0.019": 0.0,
			"-0.018": 0.0,
			"-0.017": 0.0,
			"-0.016": 0.0,
			"-0.015": 0.0,
			"-0.014": 0.0,
			"-0.013": 0.0,
			"-0.012": 0.0,
			"-0.011": 0.0,
			"-0.01": 0.0,
			"-0.009": 0.0,
			"-0.008": 0.057187444731,
			"-0.007": 2.45255641249,
			"-0.006": 7.25464045707,
			"-0.005": 14.2826057639,
			"-0.004": 23.5835401684,
			"-0.003": 20.8019853345,
			"-0.002": 19.578234232,
			"-0.001": 18.5468245395,
			"0.0": 17.2273511521,
			"0.001": 16.2062858224,
			"0.002": 17.5187013148,
			"0.003": 13.5663050929,
			"0.004": 6.77126106942,
			"0.005": 5.46060846697,
			"0.006": 4.76701433655,
			"0.007": 4.26301399209,
			"0.008": 2.17658565034,
			"0.009": 3.14898098273,
			"0.01": 3.69771066163,
			"0.011": 4.78204490322,
			"0.012": 0.639305684209,
			"0.013": 0.0,
			"0.014": 0.0,
			"0.015": 0.0,
			"0.016": 0.0,
			"0.017": 0.0,
			"0.018": 0.0,
			"0.019": 0.0,
			"0.02": 0.0,
			"0.021": 0.0,
			"0.022": 0.0,
			"0.023": 0.0,
			"0.024": 0.0,
			"0.025": 0.0
		}
	}
}
