{
	 "smiles": "CC(CN(C)C)CN1C2=C(SC3=C1C=CC=C3)C=CC=C2", 
	 "Tm": 341.15, 
	 "num_atms": 43, 
	 "gaussian": { 
		 "optdone": 1, 
		 "sigma_profile": "yes", 
		 "theory": "DFT", 
		 "functional": "B3LYP", 
		 "basiset": "6-31G**", 
		 "properties": { 
			 "R2extent": 8459.7326, 
			 "electric_dipole_moment_norm": 2.74394028725, 
			 "electric_quadrupole_moment_norm": 9.49564596434, 
			 "total_energy": -1206.860197, 
			 "HOMO_LUMO_gap": 0.17457, 
			 "cosmo_polarized_energy": -8.1, 
			 "cosmo_cavitation_energy": 44.33, 
			 "cosmo_dispersion_energy": -30.4, 
			 "cosmo_repulsion_energy": 2.26, 
			 "cosmo_total_nonelectrostatic_energy": 16.2, 
			 "SMD_solvation_energy": 6.14 
		},
		"coords": [
			{
				"x": -1.6913112532,
				"y": -0.740979837,
				"z": -0.4651384877,
				"element": "C" 
			},
			{
				"x": -0.6445223159,
				"y": 0.3213063986,
				"z": -0.1068316789,
				"element": "C" 
			},
			{
				"x": -1.113678573,
				"y": 1.7261986543,
				"z": -0.5269650199,
				"element": "C" 
			},
			{
				"x": -0.278557791,
				"y": 2.8051488963,
				"z": 0.0130822797,
				"element": "N" 
			},
			{
				"x": -0.5943581233,
				"y": 3.0990604427,
				"z": 1.4078619992,
				"element": "C" 
			},
			{
				"x": -0.360182316,
				"y": 4.0165317436,
				"z": -0.7957782308,
				"element": "C" 
			},
			{
				"x": 0.7159948691,
				"y": 0.0152440992,
				"z": -0.7680466968,
				"element": "C" 
			},
			{
				"x": 1.3926046343,
				"y": -1.1419114846,
				"z": -0.1737712133,
				"element": "N" 
			},
			{
				"x": 2.0239329216,
				"y": -2.0920333545,
				"z": -1.0145292115,
				"element": "C" 
			},
			{
				"x": 2.2603843147,
				"y": -3.3938473713,
				"z": -0.5282192903,
				"element": "C" 
			},
			{
				"x": 1.7001670458,
				"y": -3.8096369951,
				"z": 1.1122295217,
				"element": "S" 
			},
			{
				"x": 2.0546949177,
				"y": -2.2483580307,
				"z": 1.8970555472,
				"element": "C" 
			},
			{
				"x": 1.8237781726,
				"y": -1.061202861,
				"z": 1.1740638518,
				"element": "C" 
			},
			{
				"x": 2.0365464545,
				"y": 0.1659218155,
				"z": 1.8234765419,
				"element": "C" 
			},
			{
				"x": 2.4441395264,
				"y": 0.2009054801,
				"z": 3.1583879293,
				"element": "C" 
			},
			{
				"x": 2.6792363207,
				"y": -0.9796297668,
				"z": 3.8616518709,
				"element": "C" 
			},
			{
				"x": 2.4983516788,
				"y": -2.2054478951,
				"z": 3.2190692721,
				"element": "C" 
			},
			{
				"x": 2.875485481,
				"y": -4.3563283974,
				"z": -1.3290778883,
				"element": "C" 
			},
			{
				"x": 3.2384437103,
				"y": -4.0540692584,
				"z": -2.6424602505,
				"element": "C" 
			},
			{
				"x": 3.020650108,
				"y": -2.7668940214,
				"z": -3.1305914993,
				"element": "C" 
			},
			{
				"x": 2.4407827859,
				"y": -1.789025234,
				"z": -2.3207035358,
				"element": "C" 
			},
			{
				"x": -2.6274015592,
				"y": -0.5736964465,
				"z": 0.0780424436,
				"element": "H" 
			},
			{
				"x": -1.3284502096,
				"y": -1.7416610336,
				"z": -0.2147105761,
				"element": "H" 
			},
			{
				"x": -1.9207042961,
				"y": -0.724314469,
				"z": -1.5382273592,
				"element": "H" 
			},
			{
				"x": -0.512016208,
				"y": 0.3101912943,
				"z": 0.9803949162,
				"element": "H" 
			},
			{
				"x": -1.0791111704,
				"y": 1.7894252749,
				"z": -1.622637266,
				"element": "H" 
			},
			{
				"x": -2.1760380611,
				"y": 1.8596715428,
				"z": -0.2456836176,
				"element": "H" 
			},
			{
				"x": 0.0941121171,
				"y": 3.8603705712,
				"z": 1.7884380245,
				"element": "H" 
			},
			{
				"x": -1.6274046308,
				"y": 3.4740390499,
				"z": 1.5435026717,
				"element": "H" 
			},
			{
				"x": -0.4753615444,
				"y": 2.2056850317,
				"z": 2.026016762,
				"element": "H" 
			},
			{
				"x": 0.3206918364,
				"y": 4.7739770248,
				"z": -0.3938895286,
				"element": "H" 
			},
			{
				"x": -1.3752310067,
				"y": 4.4575031651,
				"z": -0.8244499799,
				"element": "H" 
			},
			{
				"x": -0.0554557151,
				"y": 3.8006098469,
				"z": -1.8245136817,
				"element": "H" 
			},
			{
				"x": 1.3451349238,
				"y": 0.9145247526,
				"z": -0.751376872,
				"element": "H" 
			},
			{
				"x": 0.528089543,
				"y": -0.226247671,
				"z": -1.8167182787,
				"element": "H" 
			},
			{
				"x": 1.873261896,
				"y": 1.0963396756,
				"z": 1.2916090843,
				"element": "H" 
			},
			{
				"x": 2.5899127326,
				"y": 1.1625676401,
				"z": 3.6419568106,
				"element": "H" 
			},
			{
				"x": 3.0043476836,
				"y": -0.9514623801,
				"z": 4.8970058194,
				"element": "H" 
			},
			{
				"x": 2.6864686739,
				"y": -3.1371136316,
				"z": 3.7443148274,
				"element": "H" 
			},
			{
				"x": 3.0557044984,
				"y": -5.3464062263,
				"z": -0.920948216,
				"element": "H" 
			},
			{
				"x": 3.6969903036,
				"y": -4.8131146839,
				"z": -3.2684793341,
				"element": "H" 
			},
			{
				"x": 3.3193361871,
				"y": -2.5080173732,
				"z": -4.1422594257,
				"element": "H" 
			},
			{
				"x": 2.322641437,
				"y": -0.7835239777,
				"z": -2.7081530346,
				"element": "H" 
			}
		],
		 "valence_orbital": [ 
			{
				"type": "occ",
				"energy": -0.25085,
				"method": "rhf"
			},
			{
				"type": "occ",
				"energy": -0.24577,
				"method": "rhf"
			},
			{
				"type": "occ",
				"energy": -0.22161,
				"method": "rhf"
			},
			{
				"type": "occ",
				"energy": -0.21622,
				"method": "rhf"
			},
			{
				"type": "occ",
				"energy": -0.18282,
				"method": "rhf"
			},
			{
				"type": "unocc",
				"energy": -0.00825,
				"method": "rhf"
			},
			{
				"type": "unocc",
				"energy": -0.00424,
				"method": "rhf"
			},
			{
				"type": "unocc",
				"energy": 0.00218,
				"method": "rhf"
			},
			{
				"type": "unocc",
				"energy": 0.01501,
				"method": "rhf"
			},
			{
				"type": "unocc",
				"energy": 0.04357,
				"method": "rhf"
			}
		],
		"cosmo_sigma_profile": { 
			"-0.025": 0.0,
			"-0.024": 0.0,
			"-0.023": 0.0,
			"-0.022": 0.0,
			"-0.021": 0.0,
			"-0.02": 0.0,
			"-0.019": 0.0,
			"-0.018": 0.0,
			"-0.017": 0.0,
			"-0.016": 0.0,
			"-0.015": 0.0,
			"-0.014": 0.0,
			"-0.013": 0.0,
			"-0.012": 0.0,
			"-0.011": 0.0,
			"-0.01": 0.0,
			"-0.009": 0.0,
			"-0.008": 0.0,
			"-0.007": 0.826375903989,
			"-0.006": 10.1315772782,
			"-0.005": 15.8762833869,
			"-0.004": 26.9908758895,
			"-0.003": 35.4279883587,
			"-0.002": 34.2789183062,
			"-0.001": 48.4313729189,
			"0.0": 40.5422158315,
			"0.001": 30.8838763682,
			"0.002": 20.7664595816,
			"0.003": 21.3817406897,
			"0.004": 23.9702894486,
			"0.005": 23.1321068247,
			"0.006": 12.1523240579,
			"0.007": 3.31576366171,
			"0.008": 2.00679598772,
			"0.009": 0.735865560403,
			"0.01": 0.409863717532,
			"0.011": 0.337323038737,
			"0.012": 0.0467734893712,
			"0.013": 0.0,
			"0.014": 0.0,
			"0.015": 0.0,
			"0.016": 0.0,
			"0.017": 0.0,
			"0.018": 0.0,
			"0.019": 0.0,
			"0.02": 0.0,
			"0.021": 0.0,
			"0.022": 0.0,
			"0.023": 0.0,
			"0.024": 0.0,
			"0.025": 0.0
		}
	}
}
