{
	 "smiles": "NC(=O)N1CCC2=C1C=CC(=C2)S(F)(=O)=O", 
	 "Tm": 492.15, 
	 "num_atms": 25, 
	 "gaussian": { 
		 "optdone": 1, 
		 "sigma_profile": "yes", 
		 "theory": "DFT", 
		 "functional": "B3LYP", 
		 "basiset": "6-31G**", 
		 "properties": { 
			 "R2extent": 5502.4117, 
			 "electric_dipole_moment_norm": 4.70004818805, 
			 "electric_quadrupole_moment_norm": 36.1228725253, 
			 "total_energy": -1181.54985276, 
			 "HOMO_LUMO_gap": 0.18167, 
			 "cosmo_polarized_energy": -18.45, 
			 "cosmo_cavitation_energy": 30.76, 
			 "cosmo_dispersion_energy": -23.34, 
			 "cosmo_repulsion_energy": 1.74, 
			 "cosmo_total_nonelectrostatic_energy": 9.17, 
			 "SMD_solvation_energy": 4.96 
		},
		"coords": [
			{
				"x": 2.1433606354,
				"y": 3.4208596234,
				"z": 0.6355732332,
				"element": "N" 
			},
			{
				"x": 0.9783493581,
				"y": 3.4980091524,
				"z": -0.1090144003,
				"element": "C" 
			},
			{
				"x": 0.3422297126,
				"y": 4.5315190322,
				"z": -0.2487819772,
				"element": "O" 
			},
			{
				"x": 0.5517567973,
				"y": 2.3103247755,
				"z": -0.7035773961,
				"element": "N" 
			},
			{
				"x": -0.576026993,
				"y": 2.3723061168,
				"z": -1.6615230434,
				"element": "C" 
			},
			{
				"x": -0.5525051662,
				"y": 0.9897990814,
				"z": -2.3494114344,
				"element": "C" 
			},
			{
				"x": 0.2437207988,
				"y": 0.1421531962,
				"z": -1.3817835167,
				"element": "C" 
			},
			{
				"x": 0.8882328724,
				"y": 0.9790103334,
				"z": -0.4432588493,
				"element": "C" 
			},
			{
				"x": 1.6760487771,
				"y": 0.4363807484,
				"z": 0.5806549393,
				"element": "C" 
			},
			{
				"x": 1.840592181,
				"y": -0.9483454652,
				"z": 0.630665501,
				"element": "C" 
			},
			{
				"x": 1.220570881,
				"y": -1.7624443938,
				"z": -0.3182037121,
				"element": "C" 
			},
			{
				"x": 0.4068341949,
				"y": -1.228180562,
				"z": -1.3311824365,
				"element": "C" 
			},
			{
				"x": 1.4517938561,
				"y": -3.5106852439,
				"z": -0.2367201136,
				"element": "S" 
			},
			{
				"x": 2.7476292599,
				"y": -3.6715871979,
				"z": -1.2072548172,
				"element": "F" 
			},
			{
				"x": 1.9089787361,
				"y": -3.9013031967,
				"z": 1.0848167004,
				"element": "O" 
			},
			{
				"x": 0.3700948336,
				"y": -4.1935633159,
				"z": -0.9239103434,
				"element": "O" 
			},
			{
				"x": 2.8634710271,
				"y": 2.7829291817,
				"z": 0.3244429493,
				"element": "H" 
			},
			{
				"x": 2.4797844692,
				"y": 4.3370040302,
				"z": 0.8996048512,
				"element": "H" 
			},
			{
				"x": -0.4337468146,
				"y": 3.2109475368,
				"z": -2.3431799226,
				"element": "H" 
			},
			{
				"x": -1.509709821,
				"y": 2.5409181695,
				"z": -1.1136644386,
				"element": "H" 
			},
			{
				"x": -1.5593775653,
				"y": 0.6031201011,
				"z": -2.5268325579,
				"element": "H" 
			},
			{
				"x": -0.0456891623,
				"y": 1.0398465952,
				"z": -3.3212663377,
				"element": "H" 
			},
			{
				"x": 2.1130007039,
				"y": 1.0606269536,
				"z": 1.3489730025,
				"element": "H" 
			},
			{
				"x": 2.4296035626,
				"y": -1.3995462601,
				"z": 1.4213667816,
				"element": "H" 
			},
			{
				"x": -0.0862971349,
				"y": -1.8865989924,
				"z": -2.0384326615,
				"element": "H" 
			}
		],
		 "valence_orbital": [ 
			{
				"type": "occ",
				"energy": -0.32059,
				"method": "rhf"
			},
			{
				"type": "occ",
				"energy": -0.29817,
				"method": "rhf"
			},
			{
				"type": "occ",
				"energy": -0.28422,
				"method": "rhf"
			},
			{
				"type": "occ",
				"energy": -0.27856,
				"method": "rhf"
			},
			{
				"type": "occ",
				"energy": -0.23853,
				"method": "rhf"
			},
			{
				"type": "unocc",
				"energy": -0.05686,
				"method": "rhf"
			},
			{
				"type": "unocc",
				"energy": -0.03957,
				"method": "rhf"
			},
			{
				"type": "unocc",
				"energy": 0.02386,
				"method": "rhf"
			},
			{
				"type": "unocc",
				"energy": 0.03561,
				"method": "rhf"
			},
			{
				"type": "unocc",
				"energy": 0.06258,
				"method": "rhf"
			}
		],
		"cosmo_sigma_profile": { 
			"-0.025": 0.0,
			"-0.024": 0.0,
			"-0.023": 0.0,
			"-0.022": 0.0,
			"-0.021": 0.0,
			"-0.02": 0.0,
			"-0.019": 0.0,
			"-0.018": 0.0,
			"-0.017": 0.0,
			"-0.016": 0.0,
			"-0.015": 0.0,
			"-0.014": 1.2021444653,
			"-0.013": 2.73523885446,
			"-0.012": 2.1605207579,
			"-0.011": 2.82743455971,
			"-0.01": 2.85908709208,
			"-0.009": 2.35585156382,
			"-0.008": 4.0348391848,
			"-0.007": 6.50952918342,
			"-0.006": 11.2646619807,
			"-0.005": 21.0673711881,
			"-0.004": 18.3651342313,
			"-0.003": 17.1332851968,
			"-0.002": 15.8898280984,
			"-0.001": 15.2355917375,
			"0.0": 15.1153886631,
			"0.001": 18.0993496286,
			"0.002": 15.3796929625,
			"0.003": 14.5993585366,
			"0.004": 6.35732824279,
			"0.005": 5.50685643522,
			"0.006": 5.84456530446,
			"0.007": 5.18476634898,
			"0.008": 9.09597824253,
			"0.009": 11.6562982791,
			"0.01": 3.28143319094,
			"0.011": 1.86172733225,
			"0.012": 2.20803733827,
			"0.013": 5.53027608193,
			"0.014": 2.39315690302,
			"0.015": 0.0020293282706,
			"0.016": 0.0,
			"0.017": 0.0,
			"0.018": 0.0,
			"0.019": 0.0,
			"0.02": 0.0,
			"0.021": 0.0,
			"0.022": 0.0,
			"0.023": 0.0,
			"0.024": 0.0,
			"0.025": 0.0
		}
	}
}
