{
	 "smiles": "NC1=NN=C(O1)C1CCCCC1", 
	 "Tm": 496.15, 
	 "num_atms": 25, 
	 "gaussian": { 
		 "optdone": 1, 
		 "sigma_profile": "yes", 
		 "theory": "DFT", 
		 "functional": "B3LYP", 
		 "basiset": "6-31G**", 
		 "properties": { 
			 "R2extent": 2812.1756, 
			 "electric_dipole_moment_norm": 4.07951276257, 
			 "electric_quadrupole_moment_norm": 20.3592157668, 
			 "total_energy": -552.145049294, 
			 "HOMO_LUMO_gap": 0.24162, 
			 "cosmo_polarized_energy": -14.95, 
			 "cosmo_cavitation_energy": 26.69, 
			 "cosmo_dispersion_energy": -19.7, 
			 "cosmo_repulsion_energy": 1.6, 
			 "cosmo_total_nonelectrostatic_energy": 8.59, 
			 "SMD_solvation_energy": 1.97 
		},
		"coords": [
			{
				"x": -1.1626013118,
				"y": -3.4450283185,
				"z": 1.5473288356,
				"element": "N" 
			},
			{
				"x": -1.0836346978,
				"y": -2.1131083771,
				"z": 1.8637414452,
				"element": "C" 
			},
			{
				"x": -1.8873888277,
				"y": -1.4041873887,
				"z": 2.5948828967,
				"element": "N" 
			},
			{
				"x": -1.2900169488,
				"y": -0.1338453177,
				"z": 2.6771783394,
				"element": "N" 
			},
			{
				"x": -0.2008606352,
				"y": -0.1738925771,
				"z": 1.9860177536,
				"element": "C" 
			},
			{
				"x": 0.0061662701,
				"y": -1.4264232257,
				"z": 1.4288783069,
				"element": "O" 
			},
			{
				"x": 0.7821380217,
				"y": 0.9229541815,
				"z": 1.7350390371,
				"element": "C" 
			},
			{
				"x": 0.7267130664,
				"y": 1.4462623499,
				"z": 0.2768357896,
				"element": "C" 
			},
			{
				"x": 1.3175612521,
				"y": 0.4703140151,
				"z": -0.760133548,
				"element": "C" 
			},
			{
				"x": 2.6028906082,
				"y": -0.2361696731,
				"z": -0.2510974229,
				"element": "C" 
			},
			{
				"x": 3.2191731514,
				"y": 0.5015865475,
				"z": 0.9449601314,
				"element": "C" 
			},
			{
				"x": 2.2459987896,
				"y": 0.5308639839,
				"z": 2.1384154606,
				"element": "C" 
			},
			{
				"x": -2.0760333606,
				"y": -3.8353127968,
				"z": 1.735623016,
				"element": "H" 
			},
			{
				"x": -0.7932106772,
				"y": -3.6941513556,
				"z": 0.6397419677,
				"element": "H" 
			},
			{
				"x": 0.4312822739,
				"y": 1.7285380397,
				"z": 2.3867727466,
				"element": "H" 
			},
			{
				"x": 1.2911117961,
				"y": 2.3859243091,
				"z": 0.2535705884,
				"element": "H" 
			},
			{
				"x": -0.3056253607,
				"y": 1.7035938493,
				"z": 0.0172091855,
				"element": "H" 
			},
			{
				"x": 1.5314637953,
				"y": 1.0334042132,
				"z": -1.6759456119,
				"element": "H" 
			},
			{
				"x": 0.5686963173,
				"y": -0.2808536892,
				"z": -1.032421856,
				"element": "H" 
			},
			{
				"x": 2.3599528311,
				"y": -1.2579672263,
				"z": 0.0636411677,
				"element": "H" 
			},
			{
				"x": 3.3338231143,
				"y": -0.3269563291,
				"z": -1.0620491726,
				"element": "H" 
			},
			{
				"x": 4.1530567286,
				"y": 0.0176540355,
				"z": 1.2529559628,
				"element": "H" 
			},
			{
				"x": 3.4889892616,
				"y": 1.5243603306,
				"z": 0.6511611312,
				"element": "H" 
			},
			{
				"x": 2.6094646902,
				"y": 1.2312758132,
				"z": 2.8975642248,
				"element": "H" 
			},
			{
				"x": 2.2397898517,
				"y": -0.4568353934,
				"z": 2.6118296246,
				"element": "H" 
			}
		],
		 "valence_orbital": [ 
			{
				"type": "occ",
				"energy": -0.30762,
				"method": "rhf"
			},
			{
				"type": "occ",
				"energy": -0.30486,
				"method": "rhf"
			},
			{
				"type": "occ",
				"energy": -0.29791,
				"method": "rhf"
			},
			{
				"type": "occ",
				"energy": -0.26382,
				"method": "rhf"
			},
			{
				"type": "occ",
				"energy": -0.22706,
				"method": "rhf"
			},
			{
				"type": "unocc",
				"energy": 0.01456,
				"method": "rhf"
			},
			{
				"type": "unocc",
				"energy": 0.05362,
				"method": "rhf"
			},
			{
				"type": "unocc",
				"energy": 0.06865,
				"method": "rhf"
			},
			{
				"type": "unocc",
				"energy": 0.07656,
				"method": "rhf"
			},
			{
				"type": "unocc",
				"energy": 0.10267,
				"method": "rhf"
			}
		],
		"cosmo_sigma_profile": { 
			"-0.025": 0.0,
			"-0.024": 0.0,
			"-0.023": 0.0,
			"-0.022": 0.0,
			"-0.021": 0.0,
			"-0.02": 0.0,
			"-0.019": 0.0,
			"-0.018": 0.0,
			"-0.017": 0.0,
			"-0.016": 0.0,
			"-0.015": 1.16282243667,
			"-0.014": 2.61946590986,
			"-0.013": 3.28661333207,
			"-0.012": 1.93510313509,
			"-0.011": 2.19157020294,
			"-0.01": 2.373340233,
			"-0.009": 2.12676619333,
			"-0.008": 1.99348832029,
			"-0.007": 1.226443796,
			"-0.006": 1.15495307593,
			"-0.005": 3.27672131476,
			"-0.004": 6.15643878872,
			"-0.003": 22.9599417312,
			"-0.002": 29.6835523275,
			"-0.001": 29.5639877618,
			"0.0": 28.472702684,
			"0.001": 18.7154901692,
			"0.002": 7.00842453278,
			"0.003": 5.9113372906,
			"0.004": 3.08852772244,
			"0.005": 2.74998066842,
			"0.006": 2.22898927932,
			"0.007": 2.33508842624,
			"0.008": 2.84925631551,
			"0.009": 2.70397623736,
			"0.01": 2.33191118472,
			"0.011": 2.62410790556,
			"0.012": 3.12616825173,
			"0.013": 4.19601818725,
			"0.014": 2.64094153397,
			"0.015": 2.77205156772,
			"0.016": 2.12216892932,
			"0.017": 0.418127611775,
			"0.018": 0.0,
			"0.019": 0.0,
			"0.02": 0.0,
			"0.021": 0.0,
			"0.022": 0.0,
			"0.023": 0.0,
			"0.024": 0.0,
			"0.025": 0.0
		}
	}
}
