{
	 "smiles": "CCN(CC)CCCC(C)NC1=CC=NC2=C1C=CC(Cl)=C2", 
	 "Tm": 360.15, 
	 "num_atms": 48, 
	 "gaussian": { 
		 "optdone": 1, 
		 "sigma_profile": "yes", 
		 "theory": "DFT", 
		 "functional": "B3LYP", 
		 "basiset": "6-31G**", 
		 "properties": { 
			 "R2extent": 12908.9472, 
			 "electric_dipole_moment_norm": 5.3827444134, 
			 "electric_quadrupole_moment_norm": 24.3188905205, 
			 "total_energy": -1326.04923532, 
			 "HOMO_LUMO_gap": 0.16402, 
			 "cosmo_polarized_energy": -11.5, 
			 "cosmo_cavitation_energy": 50.26, 
			 "cosmo_dispersion_energy": -33.53, 
			 "cosmo_repulsion_energy": 2.6, 
			 "cosmo_total_nonelectrostatic_energy": 19.33, 
			 "SMD_solvation_energy": 5.19 
		},
		"coords": [
			{
				"x": 2.1415494276,
				"y": -5.3046319007,
				"z": -0.0405436966,
				"element": "C" 
			},
			{
				"x": 1.2853081951,
				"y": -4.8285841591,
				"z": -1.2153537429,
				"element": "C" 
			},
			{
				"x": 0.9340618176,
				"y": -3.4039186471,
				"z": -1.1361058422,
				"element": "N" 
			},
			{
				"x": -0.2970847136,
				"y": -3.100478754,
				"z": -1.8789954938,
				"element": "C" 
			},
			{
				"x": -1.5678562465,
				"y": -3.5056216974,
				"z": -1.1298208936,
				"element": "C" 
			},
			{
				"x": 2.0466175403,
				"y": -2.5385153193,
				"z": -1.5514901943,
				"element": "C" 
			},
			{
				"x": 1.9998862993,
				"y": -1.1405374363,
				"z": -0.9166000378,
				"element": "C" 
			},
			{
				"x": 2.1464672514,
				"y": -1.1685540939,
				"z": 0.608338057,
				"element": "C" 
			},
			{
				"x": 1.9636835661,
				"y": 0.1923517778,
				"z": 1.2958961907,
				"element": "C" 
			},
			{
				"x": 2.2991786326,
				"y": 0.1192541843,
				"z": 2.7931449739,
				"element": "C" 
			},
			{
				"x": 0.5740138179,
				"y": 0.667074214,
				"z": 1.0666938937,
				"element": "N" 
			},
			{
				"x": 0.2104989192,
				"y": 1.9867311697,
				"z": 1.3609295637,
				"element": "C" 
			},
			{
				"x": -0.7602262209,
				"y": 2.2717079207,
				"z": 2.3114410535,
				"element": "C" 
			},
			{
				"x": -1.1054283646,
				"y": 3.6097124794,
				"z": 2.5898348397,
				"element": "C" 
			},
			{
				"x": -0.5556347113,
				"y": 4.6629341881,
				"z": 2.0169977165,
				"element": "N" 
			},
			{
				"x": 0.3708959303,
				"y": 4.4161366688,
				"z": 1.0449730446,
				"element": "C" 
			},
			{
				"x": 0.7722174728,
				"y": 3.0995894389,
				"z": 0.6457380142,
				"element": "C" 
			},
			{
				"x": 1.6487427775,
				"y": 2.9663786095,
				"z": -0.4627408333,
				"element": "C" 
			},
			{
				"x": 2.167052712,
				"y": 4.069553373,
				"z": -1.1039314729,
				"element": "C" 
			},
			{
				"x": 1.8151415516,
				"y": 5.3612640499,
				"z": -0.6511687426,
				"element": "C" 
			},
			{
				"x": 2.5066653561,
				"y": 6.755605491,
				"z": -1.4699635667,
				"element": "Cl" 
			},
			{
				"x": 0.9334969632,
				"y": 5.5429354453,
				"z": 0.38655681,
				"element": "C" 
			},
			{
				"x": 1.6188552483,
				"y": -5.1331576224,
				"z": 0.9051719692,
				"element": "H" 
			},
			{
				"x": 3.1038453357,
				"y": -4.7852966112,
				"z": 0.0090954392,
				"element": "H" 
			},
			{
				"x": 2.3521703057,
				"y": -6.3754886238,
				"z": -0.1329191148,
				"element": "H" 
			},
			{
				"x": 0.355388646,
				"y": -5.4051036172,
				"z": -1.2157238495,
				"element": "H" 
			},
			{
				"x": 1.7899407465,
				"y": -5.0636355534,
				"z": -2.1725001454,
				"element": "H" 
			},
			{
				"x": -0.3300415356,
				"y": -2.0200790849,
				"z": -2.049340407,
				"element": "H" 
			},
			{
				"x": -0.2834997498,
				"y": -3.5673479441,
				"z": -2.8830183358,
				"element": "H" 
			},
			{
				"x": -1.6191594119,
				"y": -4.5841706275,
				"z": -0.9504433231,
				"element": "H" 
			},
			{
				"x": -1.6141357028,
				"y": -3.0029423771,
				"z": -0.1590790857,
				"element": "H" 
			},
			{
				"x": -2.4551858709,
				"y": -3.2275000548,
				"z": -1.70834727,
				"element": "H" 
			},
			{
				"x": 2.983253371,
				"y": -3.0211388353,
				"z": -1.2524058154,
				"element": "H" 
			},
			{
				"x": 2.0900253364,
				"y": -2.4440251836,
				"z": -2.6533242917,
				"element": "H" 
			},
			{
				"x": 1.063355659,
				"y": -0.6343961695,
				"z": -1.1759238309,
				"element": "H" 
			},
			{
				"x": 2.8073245539,
				"y": -0.5402131115,
				"z": -1.3587680773,
				"element": "H" 
			},
			{
				"x": 1.4199396293,
				"y": -1.8829682132,
				"z": 1.0176446392,
				"element": "H" 
			},
			{
				"x": 3.1379945777,
				"y": -1.5565783797,
				"z": 0.876703033,
				"element": "H" 
			},
			{
				"x": 2.6345111205,
				"y": 0.9204810799,
				"z": 0.8310255521,
				"element": "H" 
			},
			{
				"x": 2.1428490578,
				"y": 1.086524917,
				"z": 3.27990224,
				"element": "H" 
			},
			{
				"x": 3.3436110584,
				"y": -0.1730233197,
				"z": 2.944719704,
				"element": "H" 
			},
			{
				"x": 1.6686620092,
				"y": -0.6227912679,
				"z": 3.2984053959,
				"element": "H" 
			},
			{
				"x": -0.0705713425,
				"y": 0.0195425611,
				"z": 1.5123990482,
				"element": "H" 
			},
			{
				"x": -1.2308426371,
				"y": 1.4683997629,
				"z": 2.8719703977,
				"element": "H" 
			},
			{
				"x": -1.857715654,
				"y": 3.8123994248,
				"z": 3.3520114485,
				"element": "H" 
			},
			{
				"x": 1.8841691163,
				"y": 1.9775604126,
				"z": -0.837811823,
				"element": "H" 
			},
			{
				"x": 2.8261882516,
				"y": 3.9601132066,
				"z": -1.9577295456,
				"element": "H" 
			},
			{
				"x": 0.6305199073,
				"y": 6.528948229,
				"z": 0.7176564074,
				"element": "H" 
			}
		],
		 "valence_orbital": [ 
			{
				"type": "occ",
				"energy": -0.25704,
				"method": "rhf"
			},
			{
				"type": "occ",
				"energy": -0.25258,
				"method": "rhf"
			},
			{
				"type": "occ",
				"energy": -0.24263,
				"method": "rhf"
			},
			{
				"type": "occ",
				"energy": -0.2159,
				"method": "rhf"
			},
			{
				"type": "occ",
				"energy": -0.21354,
				"method": "rhf"
			},
			{
				"type": "unocc",
				"energy": -0.04952,
				"method": "rhf"
			},
			{
				"type": "unocc",
				"energy": -0.01825,
				"method": "rhf"
			},
			{
				"type": "unocc",
				"energy": 0.02058,
				"method": "rhf"
			},
			{
				"type": "unocc",
				"energy": 0.03413,
				"method": "rhf"
			},
			{
				"type": "unocc",
				"energy": 0.06818,
				"method": "rhf"
			}
		],
		"cosmo_sigma_profile": { 
			"-0.025": 0.0,
			"-0.024": 0.0,
			"-0.023": 0.0,
			"-0.022": 0.0,
			"-0.021": 0.0,
			"-0.02": 0.0,
			"-0.019": 0.0,
			"-0.018": 0.0,
			"-0.017": 0.0,
			"-0.016": 0.0,
			"-0.015": 0.0,
			"-0.014": 0.0,
			"-0.013": 0.0,
			"-0.012": 0.559152606792,
			"-0.011": 1.41421908246,
			"-0.01": 1.65140229051,
			"-0.009": 1.47087001703,
			"-0.008": 1.99258846717,
			"-0.007": 5.1692440295,
			"-0.006": 7.58098884124,
			"-0.005": 11.6045208933,
			"-0.004": 17.6241423997,
			"-0.003": 32.6389826365,
			"-0.002": 42.127106004,
			"-0.001": 55.6030900457,
			"0.0": 55.4298560139,
			"0.001": 47.1318460014,
			"0.002": 41.6330394432,
			"0.003": 25.5225910374,
			"0.004": 15.2562127594,
			"0.005": 10.6270422857,
			"0.006": 4.0595520115,
			"0.007": 3.30352509376,
			"0.008": 2.88369054552,
			"0.009": 2.18412636245,
			"0.01": 2.30388737424,
			"0.011": 2.35882856747,
			"0.012": 0.500986216229,
			"0.013": 0.253863024653,
			"0.014": 1.03035016185,
			"0.015": 0.934161820871,
			"0.016": 0.738496688361,
			"0.017": 0.372851690296,
			"0.018": 0.0,
			"0.019": 0.0,
			"0.02": 0.0,
			"0.021": 0.0,
			"0.022": 0.0,
			"0.023": 0.0,
			"0.024": 0.0,
			"0.025": 0.0
		}
	}
}
