{
	 "smiles": "NC(CC1=CNC2=C1C=C(Br)C=C2)C(O)=O", 
	 "Tm": 537.15, 
	 "num_atms": 27, 
	 "gaussian": { 
		 "optdone": 1, 
		 "sigma_profile": "yes", 
		 "theory": "DFT", 
		 "functional": "B3LYP", 
		 "basiset": "6-31G**", 
		 "properties": { 
			 "R2extent": 7759.6377, 
			 "electric_dipole_moment_norm": 5.15775032936, 
			 "electric_quadrupole_moment_norm": 19.3923494121, 
			 "total_energy": -3257.16992324, 
			 "HOMO_LUMO_gap": 0.18718, 
			 "cosmo_polarized_energy": -20.5, 
			 "cosmo_cavitation_energy": 34.04, 
			 "cosmo_dispersion_energy": -23.99, 
			 "cosmo_repulsion_energy": 1.91, 
			 "cosmo_total_nonelectrostatic_energy": 11.95, 
			 "SMD_solvation_energy": 4.15 
		},
		"coords": [
			{
				"x": 1.3155862159,
				"y": -2.3267921312,
				"z": -1.4674046776,
				"element": "N" 
			},
			{
				"x": 0.9332303663,
				"y": -0.9910715594,
				"z": -1.0021942856,
				"element": "C" 
			},
			{
				"x": -0.097832101,
				"y": -0.9816493698,
				"z": 0.1638896946,
				"element": "C" 
			},
			{
				"x": -0.4595949707,
				"y": 0.3842701945,
				"z": 0.6690821857,
				"element": "C" 
			},
			{
				"x": -1.5704632262,
				"y": 1.1185691937,
				"z": 0.331033259,
				"element": "C" 
			},
			{
				"x": -1.5433591104,
				"y": 2.3451484705,
				"z": 0.9666825648,
				"element": "N" 
			},
			{
				"x": -0.4016763674,
				"y": 2.431883425,
				"z": 1.7345199584,
				"element": "C" 
			},
			{
				"x": 0.3078601447,
				"y": 1.2103221763,
				"z": 1.5696500134,
				"element": "C" 
			},
			{
				"x": 1.5190305133,
				"y": 1.0247848475,
				"z": 2.2588768618,
				"element": "C" 
			},
			{
				"x": 1.9714894906,
				"y": 2.050934011,
				"z": 3.0733209525,
				"element": "C" 
			},
			{
				"x": 3.6193684833,
				"y": 1.8270030059,
				"z": 4.028846308,
				"element": "Br" 
			},
			{
				"x": 1.2670025695,
				"y": 3.2594591493,
				"z": 3.2300021467,
				"element": "C" 
			},
			{
				"x": 0.0670299219,
				"y": 3.4596469469,
				"z": 2.5584281132,
				"element": "C" 
			},
			{
				"x": 0.4044072718,
				"y": -0.2117002652,
				"z": -2.2007321973,
				"element": "C" 
			},
			{
				"x": -0.6989617116,
				"y": -0.8113381538,
				"z": -2.7276347599,
				"element": "O" 
			},
			{
				"x": 0.8674940197,
				"y": 0.8059553008,
				"z": -2.6571140006,
				"element": "O" 
			},
			{
				"x": 0.4832512189,
				"y": -2.8474017213,
				"z": -1.7345860111,
				"element": "H" 
			},
			{
				"x": 1.7620367973,
				"y": -2.8394930594,
				"z": -0.7111692123,
				"element": "H" 
			},
			{
				"x": 1.838869283,
				"y": -0.4638210969,
				"z": -0.6904588599,
				"element": "H" 
			},
			{
				"x": 0.3303928693,
				"y": -1.5828537114,
				"z": 0.9768877035,
				"element": "H" 
			},
			{
				"x": -0.9973267868,
				"y": -1.5075724629,
				"z": -0.1754906252,
				"element": "H" 
			},
			{
				"x": -2.3913595594,
				"y": 0.8551144071,
				"z": -0.3213073879,
				"element": "H" 
			},
			{
				"x": -2.2420788756,
				"y": 3.063873143,
				"z": 0.8742149781,
				"element": "H" 
			},
			{
				"x": 2.0896732533,
				"y": 0.1077583244,
				"z": 2.162890293,
				"element": "H" 
			},
			{
				"x": 1.6661639773,
				"y": 4.0309872175,
				"z": 3.8776717529,
				"element": "H" 
			},
			{
				"x": -0.4820957392,
				"y": 4.3893053888,
				"z": 2.6760491442,
				"element": "H" 
			},
			{
				"x": -0.9462379477,
				"y": -0.280521671,
				"z": -3.5032539123,
				"element": "H" 
			}
		],
		 "valence_orbital": [ 
			{
				"type": "occ",
				"energy": -0.2773,
				"method": "rhf"
			},
			{
				"type": "occ",
				"energy": -0.27668,
				"method": "rhf"
			},
			{
				"type": "occ",
				"energy": -0.24532,
				"method": "rhf"
			},
			{
				"type": "occ",
				"energy": -0.22069,
				"method": "rhf"
			},
			{
				"type": "occ",
				"energy": -0.20788,
				"method": "rhf"
			},
			{
				"type": "unocc",
				"energy": -0.0207,
				"method": "rhf"
			},
			{
				"type": "unocc",
				"energy": 0.00854,
				"method": "rhf"
			},
			{
				"type": "unocc",
				"energy": 0.01545,
				"method": "rhf"
			},
			{
				"type": "unocc",
				"energy": 0.01602,
				"method": "rhf"
			},
			{
				"type": "unocc",
				"energy": 0.05342,
				"method": "rhf"
			}
		],
		"cosmo_sigma_profile": { 
			"-0.025": 0.0,
			"-0.024": 0.0,
			"-0.023": 0.0,
			"-0.022": 0.0,
			"-0.021": 0.0,
			"-0.02": 0.0,
			"-0.019": 0.0,
			"-0.018": 0.629795674871,
			"-0.017": 1.00925257836,
			"-0.016": 1.33612961884,
			"-0.015": 2.46642643796,
			"-0.014": 2.65869839413,
			"-0.013": 1.98116102601,
			"-0.012": 1.62995928583,
			"-0.011": 2.36172528156,
			"-0.01": 4.28776077214,
			"-0.009": 4.79268296284,
			"-0.008": 6.20736399923,
			"-0.007": 8.59820514166,
			"-0.006": 12.1986659053,
			"-0.005": 15.7060550301,
			"-0.004": 14.0889160801,
			"-0.003": 13.7607647745,
			"-0.002": 14.5946986207,
			"-0.001": 13.0224837598,
			"0.0": 12.0994556298,
			"0.001": 12.9422891767,
			"0.002": 14.9219281298,
			"0.003": 19.1776864963,
			"0.004": 29.5135164982,
			"0.005": 30.3431148729,
			"0.006": 6.78610120411,
			"0.007": 3.73671766898,
			"0.008": 3.51014680272,
			"0.009": 1.80195710466,
			"0.01": 3.22362164447,
			"0.011": 5.02427040377,
			"0.012": 4.71867142533,
			"0.013": 1.12319172967,
			"0.014": 0.363480047656,
			"0.015": 0.756261999363,
			"0.016": 0.645493747086,
			"0.017": 0.500687111472,
			"0.018": 0.344156255876,
			"0.019": 0.00485338606822,
			"0.02": 0.0,
			"0.021": 0.0,
			"0.022": 0.0,
			"0.023": 0.0,
			"0.024": 0.0,
			"0.025": 0.0
		}
	}
}
