{
	 "smiles": "CC(=O)C(C(C)=O)=C1SCCCS1", 
	 "Tm": 364.15, 
	 "num_atms": 25, 
	 "gaussian": { 
		 "optdone": 1, 
		 "sigma_profile": "yes", 
		 "theory": "DFT", 
		 "functional": "B3LYP", 
		 "basiset": "6-31G**", 
		 "properties": { 
			 "R2extent": 4034.7547, 
			 "electric_dipole_moment_norm": 5.76715628105, 
			 "electric_quadrupole_moment_norm": 16.2582308644, 
			 "total_energy": -1296.98142845, 
			 "HOMO_LUMO_gap": 0.16701, 
			 "cosmo_polarized_energy": -14.28, 
			 "cosmo_cavitation_energy": 30.54, 
			 "cosmo_dispersion_energy": -22.41, 
			 "cosmo_repulsion_energy": 1.71, 
			 "cosmo_total_nonelectrostatic_energy": 9.85, 
			 "SMD_solvation_energy": 5.88 
		},
		"coords": [
			{
				"x": 0.2399162773,
				"y": -1.9852367836,
				"z": -2.1143345662,
				"element": "C" 
			},
			{
				"x": 1.3955258276,
				"y": -1.1257922321,
				"z": -1.6605779008,
				"element": "C" 
			},
			{
				"x": 2.4719409242,
				"y": -1.5711358012,
				"z": -1.3240688533,
				"element": "O" 
			},
			{
				"x": 1.1941388132,
				"y": 0.3983218308,
				"z": -1.6990352486,
				"element": "C" 
			},
			{
				"x": 1.5711260441,
				"y": 0.9539324233,
				"z": -3.0432703443,
				"element": "C" 
			},
			{
				"x": 2.1352617894,
				"y": 2.3506628572,
				"z": -3.2215634314,
				"element": "C" 
			},
			{
				"x": 1.4788810218,
				"y": 0.2081313816,
				"z": -4.0111138563,
				"element": "O" 
			},
			{
				"x": 0.7154281274,
				"y": 1.0529314795,
				"z": -0.6126212418,
				"element": "C" 
			},
			{
				"x": 0.3109234003,
				"y": 2.7912371253,
				"z": -0.6323438143,
				"element": "S" 
			},
			{
				"x": 0.7801655572,
				"y": 3.3441792832,
				"z": 1.060942889,
				"element": "C" 
			},
			{
				"x": 0.1647933737,
				"y": 2.5312406312,
				"z": 2.1966445742,
				"element": "C" 
			},
			{
				"x": 0.6672099952,
				"y": 1.0898938922,
				"z": 2.2267778501,
				"element": "C" 
			},
			{
				"x": 0.1548254119,
				"y": 0.0750182778,
				"z": 0.7822672372,
				"element": "S" 
			},
			{
				"x": 0.0523868064,
				"y": -1.7642040634,
				"z": -3.1703514879,
				"element": "H" 
			},
			{
				"x": -0.6720539612,
				"y": -1.7432570521,
				"z": -1.5578443982,
				"element": "H" 
			},
			{
				"x": 0.4905591408,
				"y": -3.0401286846,
				"z": -1.9884131498,
				"element": "H" 
			},
			{
				"x": 2.7605340801,
				"y": 2.3337194427,
				"z": -4.1168554266,
				"element": "H" 
			},
			{
				"x": 2.7096842438,
				"y": 2.6840649124,
				"z": -2.3553719683,
				"element": "H" 
			},
			{
				"x": 1.3283384361,
				"y": 3.0731053504,
				"z": -3.3787018637,
				"element": "H" 
			},
			{
				"x": 0.4336634349,
				"y": 4.3810662234,
				"z": 1.0902682984,
				"element": "H" 
			},
			{
				"x": 1.87229697,
				"y": 3.3557025123,
				"z": 1.1352156117,
				"element": "H" 
			},
			{
				"x": 0.4415083799,
				"y": 3.0102807307,
				"z": 3.1456672939,
				"element": "H" 
			},
			{
				"x": -0.9276646983,
				"y": 2.5489642165,
				"z": 2.1259306652,
				"element": "H" 
			},
			{
				"x": 0.2489091306,
				"y": 0.5479409914,
				"z": 3.0795264277,
				"element": "H" 
			},
			{
				"x": 1.7579014736,
				"y": 1.0535610551,
				"z": 2.3119267042,
				"element": "H" 
			}
		],
		 "valence_orbital": [ 
			{
				"type": "occ",
				"energy": -0.30764,
				"method": "rhf"
			},
			{
				"type": "occ",
				"energy": -0.25894,
				"method": "rhf"
			},
			{
				"type": "occ",
				"energy": -0.24413,
				"method": "rhf"
			},
			{
				"type": "occ",
				"energy": -0.24196,
				"method": "rhf"
			},
			{
				"type": "occ",
				"energy": -0.23354,
				"method": "rhf"
			},
			{
				"type": "unocc",
				"energy": -0.06653,
				"method": "rhf"
			},
			{
				"type": "unocc",
				"energy": -0.021,
				"method": "rhf"
			},
			{
				"type": "unocc",
				"energy": 0.00476,
				"method": "rhf"
			},
			{
				"type": "unocc",
				"energy": 0.03432,
				"method": "rhf"
			},
			{
				"type": "unocc",
				"energy": 0.04599,
				"method": "rhf"
			}
		],
		"cosmo_sigma_profile": { 
			"-0.025": 0.0,
			"-0.024": 0.0,
			"-0.023": 0.0,
			"-0.022": 0.0,
			"-0.021": 0.0,
			"-0.02": 0.0,
			"-0.019": 0.0,
			"-0.018": 0.0,
			"-0.017": 0.0,
			"-0.016": 0.0,
			"-0.015": 0.0,
			"-0.014": 0.0,
			"-0.013": 0.0,
			"-0.012": 0.0,
			"-0.011": 0.0,
			"-0.01": 0.0,
			"-0.009": 0.0,
			"-0.008": 0.758104340846,
			"-0.007": 6.37837901904,
			"-0.006": 14.5422782798,
			"-0.005": 23.2034642579,
			"-0.004": 26.9783520161,
			"-0.003": 26.9833720777,
			"-0.002": 24.3695189242,
			"-0.001": 20.3660034247,
			"0.0": 12.0725554377,
			"0.001": 10.0809528825,
			"0.002": 9.78976989057,
			"0.003": 9.64849013861,
			"0.004": 8.98194978156,
			"0.005": 7.36072540411,
			"0.006": 7.27501153702,
			"0.007": 7.1132805701,
			"0.008": 5.57302109733,
			"0.009": 4.23627756661,
			"0.01": 4.62614912825,
			"0.011": 7.67297683678,
			"0.012": 4.95356194488,
			"0.013": 1.05020447966,
			"0.014": 0.0,
			"0.015": 0.0,
			"0.016": 0.0,
			"0.017": 0.0,
			"0.018": 0.0,
			"0.019": 0.0,
			"0.02": 0.0,
			"0.021": 0.0,
			"0.022": 0.0,
			"0.023": 0.0,
			"0.024": 0.0,
			"0.025": 0.0
		}
	}
}
