{
	 "smiles": "COC(=O)COC1=CC2=C(C=C1)C=C(Br)C=C2", 
	 "Tm": 383.15, 
	 "num_atms": 28, 
	 "gaussian": { 
		 "optdone": 1, 
		 "sigma_profile": "yes", 
		 "theory": "DFT", 
		 "functional": "B3LYP", 
		 "basiset": "6-31G**", 
		 "properties": { 
			 "R2extent": 9834.9881, 
			 "electric_dipole_moment_norm": 2.20401134752, 
			 "electric_quadrupole_moment_norm": 10.0136252826, 
			 "total_energy": -3299.0894939, 
			 "HOMO_LUMO_gap": 0.16155, 
			 "cosmo_polarized_energy": -11.49, 
			 "cosmo_cavitation_energy": 35.12, 
			 "cosmo_dispersion_energy": -25.55, 
			 "cosmo_repulsion_energy": 1.99, 
			 "cosmo_total_nonelectrostatic_energy": 11.56, 
			 "SMD_solvation_energy": 6.31 
		},
		"coords": [
			{
				"x": 3.9793235534,
				"y": 0.9107223402,
				"z": -0.4566835948,
				"element": "C" 
			},
			{
				"x": 2.6374177122,
				"y": 1.2237634822,
				"z": -0.8743530639,
				"element": "O" 
			},
			{
				"x": 2.2110964633,
				"y": 2.4535358928,
				"z": -0.5567757596,
				"element": "C" 
			},
			{
				"x": 2.8711742426,
				"y": 3.2911078469,
				"z": 0.0192301481,
				"element": "O" 
			},
			{
				"x": 0.7890802187,
				"y": 2.7254823543,
				"z": -1.0492191237,
				"element": "C" 
			},
			{
				"x": -0.0042312487,
				"y": 1.5850173872,
				"z": -1.29673824,
				"element": "O" 
			},
			{
				"x": -0.4802193709,
				"y": 0.8598908227,
				"z": -0.2346217444,
				"element": "C" 
			},
			{
				"x": -1.2822285964,
				"y": -0.2206627275,
				"z": -0.5500874302,
				"element": "C" 
			},
			{
				"x": -1.8348614854,
				"y": -1.032693597,
				"z": 0.4665464584,
				"element": "C" 
			},
			{
				"x": -1.5574577761,
				"y": -0.7258598802,
				"z": 1.8393611425,
				"element": "C" 
			},
			{
				"x": -0.7300937522,
				"y": 0.388542278,
				"z": 2.1267201753,
				"element": "C" 
			},
			{
				"x": -0.1991917953,
				"y": 1.1685337275,
				"z": 1.1221766797,
				"element": "C" 
			},
			{
				"x": -2.111818777,
				"y": -1.5396403106,
				"z": 2.8644200054,
				"element": "C" 
			},
			{
				"x": -2.9061232504,
				"y": -2.6090700273,
				"z": 2.5324965412,
				"element": "C" 
			},
			{
				"x": -3.6542763143,
				"y": -3.7066402605,
				"z": 3.9094099696,
				"element": "Br" 
			},
			{
				"x": -3.1918934863,
				"y": -2.9278531664,
				"z": 1.182500373,
				"element": "C" 
			},
			{
				"x": -2.6646572964,
				"y": -2.1525084238,
				"z": 0.1770936418,
				"element": "C" 
			},
			{
				"x": 4.6941642066,
				"y": 1.5891425396,
				"z": -0.9283844974,
				"element": "H" 
			},
			{
				"x": 4.0710068972,
				"y": 0.9971647578,
				"z": 0.6285371768,
				"element": "H" 
			},
			{
				"x": 4.1528216638,
				"y": -0.1158866939,
				"z": -0.7767921051,
				"element": "H" 
			},
			{
				"x": 0.3211166805,
				"y": 3.4203512134,
				"z": -0.3429730333,
				"element": "H" 
			},
			{
				"x": 0.8714075662,
				"y": 3.2391224736,
				"z": -2.0126122818,
				"element": "H" 
			},
			{
				"x": -1.4826470898,
				"y": -0.4371531965,
				"z": -1.594624722,
				"element": "H" 
			},
			{
				"x": -0.5113645786,
				"y": 0.6278799595,
				"z": 3.16381234,
				"element": "H" 
			},
			{
				"x": 0.4328604249,
				"y": 2.009415572,
				"z": 1.3836710677,
				"element": "H" 
			},
			{
				"x": -1.9023542393,
				"y": -1.3081758434,
				"z": 3.9034074677,
				"element": "H" 
			},
			{
				"x": -3.823064248,
				"y": -3.7794375852,
				"z": 0.955607951,
				"element": "H" 
			},
			{
				"x": -2.8807863245,
				"y": -2.3926909352,
				"z": -0.8603255419,
				"element": "H" 
			}
		],
		 "valence_orbital": [ 
			{
				"type": "occ",
				"energy": -0.28652,
				"method": "rhf"
			},
			{
				"type": "occ",
				"energy": -0.28462,
				"method": "rhf"
			},
			{
				"type": "occ",
				"energy": -0.26827,
				"method": "rhf"
			},
			{
				"type": "occ",
				"energy": -0.24221,
				"method": "rhf"
			},
			{
				"type": "occ",
				"energy": -0.21032,
				"method": "rhf"
			},
			{
				"type": "unocc",
				"energy": -0.04877,
				"method": "rhf"
			},
			{
				"type": "unocc",
				"energy": -0.01316,
				"method": "rhf"
			},
			{
				"type": "unocc",
				"energy": -0.00344,
				"method": "rhf"
			},
			{
				"type": "unocc",
				"energy": 0.00974,
				"method": "rhf"
			},
			{
				"type": "unocc",
				"energy": 0.02361,
				"method": "rhf"
			}
		],
		"cosmo_sigma_profile": { 
			"-0.025": 0.0,
			"-0.024": 0.0,
			"-0.023": 0.0,
			"-0.022": 0.0,
			"-0.021": 0.0,
			"-0.02": 0.0,
			"-0.019": 0.0,
			"-0.018": 0.0,
			"-0.017": 0.0,
			"-0.016": 0.0,
			"-0.015": 0.0,
			"-0.014": 0.0,
			"-0.013": 0.0,
			"-0.012": 0.0,
			"-0.011": 0.0,
			"-0.01": 0.161402123548,
			"-0.009": 2.67883474946,
			"-0.008": 4.23870857818,
			"-0.007": 14.6757335391,
			"-0.006": 20.7617420531,
			"-0.005": 21.0900797111,
			"-0.004": 22.0404582035,
			"-0.003": 18.9139627417,
			"-0.002": 11.6737136995,
			"-0.001": 13.7518356313,
			"0.0": 14.8501737508,
			"0.001": 15.3690102667,
			"0.002": 21.5857677606,
			"0.003": 38.6821453307,
			"0.004": 26.031928976,
			"0.005": 12.246399796,
			"0.006": 3.04011984179,
			"0.007": 3.32676798859,
			"0.008": 4.1373595075,
			"0.009": 3.92999456702,
			"0.01": 3.45255775453,
			"0.011": 4.21465419163,
			"0.012": 3.24119199933,
			"0.013": 0.133934782352,
			"0.014": 0.0,
			"0.015": 0.0,
			"0.016": 0.0,
			"0.017": 0.0,
			"0.018": 0.0,
			"0.019": 0.0,
			"0.02": 0.0,
			"0.021": 0.0,
			"0.022": 0.0,
			"0.023": 0.0,
			"0.024": 0.0,
			"0.025": 0.0
		}
	}
}
