{
	 "smiles": "OC(=O)CN1CCCOC1=O", 
	 "Tm": 446.15, 
	 "num_atms": 20, 
	 "gaussian": { 
		 "optdone": 1, 
		 "sigma_profile": "yes", 
		 "theory": "DFT", 
		 "functional": "B3LYP", 
		 "basiset": "6-31G**", 
		 "properties": { 
			 "R2extent": 1796.6618, 
			 "electric_dipole_moment_norm": 6.79462449956, 
			 "electric_quadrupole_moment_norm": 14.8385045665, 
			 "total_energy": -589.733967109, 
			 "HOMO_LUMO_gap": 0.25829, 
			 "cosmo_polarized_energy": -18.15, 
			 "cosmo_cavitation_energy": 22.96, 
			 "cosmo_dispersion_energy": -17.37, 
			 "cosmo_repulsion_energy": 1.4, 
			 "cosmo_total_nonelectrostatic_energy": 6.99, 
			 "SMD_solvation_energy": 5.57 
		},
		"coords": [
			{
				"x": 0.7229812019,
				"y": -0.715789958,
				"z": -2.4599385472,
				"element": "O" 
			},
			{
				"x": 1.2488549554,
				"y": 0.4671305613,
				"z": -2.1157848829,
				"element": "C" 
			},
			{
				"x": 2.3526251475,
				"y": 0.8159014678,
				"z": -2.4644344989,
				"element": "O" 
			},
			{
				"x": 0.3402548201,
				"y": 1.3633245267,
				"z": -1.2517782926,
				"element": "C" 
			},
			{
				"x": 0.0238456047,
				"y": 0.8000681988,
				"z": 0.0673405538,
				"element": "N" 
			},
			{
				"x": 0.782808221,
				"y": 1.2728254358,
				"z": 1.2312158845,
				"element": "C" 
			},
			{
				"x": -0.0064555101,
				"y": 0.9976656146,
				"z": 2.5054832082,
				"element": "C" 
			},
			{
				"x": -0.4738373899,
				"y": -0.4457830259,
				"z": 2.4838230059,
				"element": "C" 
			},
			{
				"x": -1.2586876245,
				"y": -0.7191560503,
				"z": 1.306720439,
				"element": "O" 
			},
			{
				"x": -0.9149524328,
				"y": -0.192534688,
				"z": 0.1129402795,
				"element": "C" 
			},
			{
				"x": -1.4786430868,
				"y": -0.6091061982,
				"z": -0.8983316486,
				"element": "O" 
			},
			{
				"x": -0.182398996,
				"y": -0.8021335909,
				"z": -2.075584545,
				"element": "H" 
			},
			{
				"x": 0.8621355473,
				"y": 2.3086003525,
				"z": -1.1049937197,
				"element": "H" 
			},
			{
				"x": -0.5974718801,
				"y": 1.5474479407,
				"z": -1.7859888658,
				"element": "H" 
			},
			{
				"x": 0.9595844504,
				"y": 2.3459445565,
				"z": 1.1093860754,
				"element": "H" 
			},
			{
				"x": 1.7659951894,
				"y": 0.7832334148,
				"z": 1.2691323735,
				"element": "H" 
			},
			{
				"x": -0.8735101625,
				"y": 1.6643623704,
				"z": 2.5646314098,
				"element": "H" 
			},
			{
				"x": 0.6197365853,
				"y": 1.1791590008,
				"z": 3.3845135877,
				"element": "H" 
			},
			{
				"x": 0.3782867596,
				"y": -1.1371816133,
				"z": 2.4999952279,
				"element": "H" 
			},
			{
				"x": -1.1280514,
				"y": -0.6857783161,
				"z": 3.3241529555,
				"element": "H" 
			}
		],
		 "valence_orbital": [ 
			{
				"type": "occ",
				"energy": -0.31806,
				"method": "rhf"
			},
			{
				"type": "occ",
				"energy": -0.30247,
				"method": "rhf"
			},
			{
				"type": "occ",
				"energy": -0.29692,
				"method": "rhf"
			},
			{
				"type": "occ",
				"energy": -0.28534,
				"method": "rhf"
			},
			{
				"type": "occ",
				"energy": -0.25133,
				"method": "rhf"
			},
			{
				"type": "unocc",
				"energy": 0.00696,
				"method": "rhf"
			},
			{
				"type": "unocc",
				"energy": 0.01767,
				"method": "rhf"
			},
			{
				"type": "unocc",
				"energy": 0.06195,
				"method": "rhf"
			},
			{
				"type": "unocc",
				"energy": 0.09345,
				"method": "rhf"
			},
			{
				"type": "unocc",
				"energy": 0.10275,
				"method": "rhf"
			}
		],
		"cosmo_sigma_profile": { 
			"-0.025": 0.0,
			"-0.024": 0.0,
			"-0.023": 0.0,
			"-0.022": 0.0,
			"-0.021": 0.0,
			"-0.02": 0.0,
			"-0.019": 0.0,
			"-0.018": 0.0,
			"-0.017": 0.0,
			"-0.016": 0.0,
			"-0.015": 0.0,
			"-0.014": 0.0,
			"-0.013": 0.0,
			"-0.012": 0.0,
			"-0.011": 0.0,
			"-0.01": 0.0,
			"-0.009": 0.943745161531,
			"-0.008": 5.15662248077,
			"-0.007": 10.9826505073,
			"-0.006": 22.4863117789,
			"-0.005": 26.50028308,
			"-0.004": 19.9745212542,
			"-0.003": 12.6903627005,
			"-0.002": 8.53139983814,
			"-0.001": 3.91015256459,
			"0.0": 4.54385981055,
			"0.001": 4.00274490836,
			"0.002": 2.88496935326,
			"0.003": 4.26339149985,
			"0.004": 3.43535580638,
			"0.005": 3.04108296991,
			"0.006": 3.4602771257,
			"0.007": 3.99517193427,
			"0.008": 5.6469025816,
			"0.009": 4.46529277464,
			"0.01": 7.18053656628,
			"0.011": 8.51442242124,
			"0.012": 9.11715100202,
			"0.013": 4.38803917729,
			"0.014": 0.829742469634,
			"0.015": 0.0,
			"0.016": 0.0,
			"0.017": 0.0,
			"0.018": 0.0,
			"0.019": 0.0,
			"0.02": 0.0,
			"0.021": 0.0,
			"0.022": 0.0,
			"0.023": 0.0,
			"0.024": 0.0,
			"0.025": 0.0
		}
	}
}
