{
	 "smiles": "CC(O)C1=NC2=C(S1)C=CC(Cl)=C2", 
	 "Tm": 383.15, 
	 "num_atms": 21, 
	 "gaussian": { 
		 "optdone": 1, 
		 "sigma_profile": "yes", 
		 "theory": "DFT", 
		 "functional": "B3LYP", 
		 "basiset": "6-31G**", 
		 "properties": { 
			 "R2extent": 4901.4827, 
			 "electric_dipole_moment_norm": 1.86307683148, 
			 "electric_quadrupole_moment_norm": 10.4836866507, 
			 "total_energy": -1336.14037115, 
			 "HOMO_LUMO_gap": 0.19281, 
			 "cosmo_polarized_energy": -9.63, 
			 "cosmo_cavitation_energy": 28.55, 
			 "cosmo_dispersion_energy": -21.58, 
			 "cosmo_repulsion_energy": 1.67, 
			 "cosmo_total_nonelectrostatic_energy": 8.64, 
			 "SMD_solvation_energy": 2.39 
		},
		"coords": [
			{
				"x": 2.7015369808,
				"y": -1.4286843308,
				"z": -1.2814104896,
				"element": "C" 
			},
			{
				"x": 2.0521546993,
				"y": -0.4126392013,
				"z": -0.3419025954,
				"element": "C" 
			},
			{
				"x": 2.4678545578,
				"y": -0.7361385316,
				"z": 0.9789194647,
				"element": "O" 
			},
			{
				"x": 0.5427630118,
				"y": -0.43959412,
				"z": -0.4582527008,
				"element": "C" 
			},
			{
				"x": -0.1317281442,
				"y": 0.1382525262,
				"z": -1.3964307879,
				"element": "N" 
			},
			{
				"x": -1.4898248923,
				"y": -0.1044616316,
				"z": -1.2537545434,
				"element": "C" 
			},
			{
				"x": -1.8468966869,
				"y": -0.9029202856,
				"z": -0.1395601499,
				"element": "C" 
			},
			{
				"x": -0.4018085184,
				"y": -1.3552633967,
				"z": 0.741792832,
				"element": "S" 
			},
			{
				"x": -3.1830457566,
				"y": -1.2145859043,
				"z": 0.124008342,
				"element": "C" 
			},
			{
				"x": -4.1639673173,
				"y": -0.7277800198,
				"z": -0.734471913,
				"element": "C" 
			},
			{
				"x": -3.802701778,
				"y": 0.0621643725,
				"z": -1.8385292791,
				"element": "C" 
			},
			{
				"x": -5.0722005695,
				"y": 0.6585003911,
				"z": -2.9002981958,
				"element": "Cl" 
			},
			{
				"x": -2.4820360532,
				"y": 0.3849502772,
				"z": -2.1155339921,
				"element": "C" 
			},
			{
				"x": 2.3916909942,
				"y": -2.4424177972,
				"z": -1.0120353906,
				"element": "H" 
			},
			{
				"x": 3.7893483393,
				"y": -1.3616376845,
				"z": -1.1960292664,
				"element": "H" 
			},
			{
				"x": 2.4063874141,
				"y": -1.2288820886,
				"z": -2.3141457527,
				"element": "H" 
			},
			{
				"x": 2.376187686,
				"y": 0.5987388515,
				"z": -0.6281689208,
				"element": "H" 
			},
			{
				"x": 2.1944384695,
				"y": -0.0217374035,
				"z": 1.5700132895,
				"element": "H" 
			},
			{
				"x": -3.4612826555,
				"y": -1.8250039007,
				"z": 0.9768621051,
				"element": "H" 
			},
			{
				"x": -5.2091937845,
				"y": -0.9541813408,
				"z": -0.5575687742,
				"element": "H" 
			},
			{
				"x": -2.2104759964,
				"y": 0.9951212185,
				"z": -2.9685032815,
				"element": "H" 
			}
		],
		 "valence_orbital": [ 
			{
				"type": "occ",
				"energy": -0.30531,
				"method": "rhf"
			},
			{
				"type": "occ",
				"energy": -0.2988,
				"method": "rhf"
			},
			{
				"type": "occ",
				"energy": -0.28166,
				"method": "rhf"
			},
			{
				"type": "occ",
				"energy": -0.24719,
				"method": "rhf"
			},
			{
				"type": "occ",
				"energy": -0.23786,
				"method": "rhf"
			},
			{
				"type": "unocc",
				"energy": -0.04505,
				"method": "rhf"
			},
			{
				"type": "unocc",
				"energy": -0.01785,
				"method": "rhf"
			},
			{
				"type": "unocc",
				"energy": 0.0074,
				"method": "rhf"
			},
			{
				"type": "unocc",
				"energy": 0.02067,
				"method": "rhf"
			},
			{
				"type": "unocc",
				"energy": 0.03364,
				"method": "rhf"
			}
		],
		"cosmo_sigma_profile": { 
			"-0.025": 0.0,
			"-0.024": 0.0,
			"-0.023": 0.0,
			"-0.022": 0.0,
			"-0.021": 0.0,
			"-0.02": 0.0,
			"-0.019": 0.0,
			"-0.018": 0.0,
			"-0.017": 0.230695605732,
			"-0.016": 1.12121382198,
			"-0.015": 1.27043578039,
			"-0.014": 0.467197877973,
			"-0.013": 1.12805857328,
			"-0.012": 1.14516953538,
			"-0.011": 1.08981765565,
			"-0.01": 0.861872054247,
			"-0.009": 0.579478970011,
			"-0.008": 4.0434820235,
			"-0.007": 7.94583341326,
			"-0.006": 8.47134573291,
			"-0.005": 9.33391491174,
			"-0.004": 11.5823810474,
			"-0.003": 13.2889377951,
			"-0.002": 15.0371752466,
			"-0.001": 19.7037124396,
			"0.0": 19.9007783798,
			"0.001": 21.4601231126,
			"0.002": 31.0722501662,
			"0.003": 20.6577444459,
			"0.004": 14.500643508,
			"0.005": 9.03510817055,
			"0.006": 3.15881938253,
			"0.007": 2.64463071595,
			"0.008": 1.8128425939,
			"0.009": 1.80465142029,
			"0.01": 2.07287763864,
			"0.011": 1.66462991925,
			"0.012": 2.59574984705,
			"0.013": 1.9197986082,
			"0.014": 0.508843386122,
			"0.015": 0.043254685202,
			"0.016": 0.0,
			"0.017": 0.0,
			"0.018": 0.0,
			"0.019": 0.0,
			"0.02": 0.0,
			"0.021": 0.0,
			"0.022": 0.0,
			"0.023": 0.0,
			"0.024": 0.0,
			"0.025": 0.0
		}
	}
}
