{
	 "smiles": "CNC1=CC=CC=C1[N+]([O-])=O", 
	 "Tm": 309.65, 
	 "num_atms": 19, 
	 "gaussian": { 
		 "optdone": 1, 
		 "sigma_profile": "yes", 
		 "theory": "DFT", 
		 "functional": "B3LYP", 
		 "basiset": "6-31G**", 
		 "properties": { 
			 "R2extent": 1765.7954, 
			 "electric_dipole_moment_norm": 4.72783257847, 
			 "electric_quadrupole_moment_norm": 8.20307392079, 
			 "total_energy": -531.422448496, 
			 "HOMO_LUMO_gap": 0.13613, 
			 "cosmo_polarized_energy": -9.31, 
			 "cosmo_cavitation_energy": 22.83, 
			 "cosmo_dispersion_energy": -17.3, 
			 "cosmo_repulsion_energy": 1.38, 
			 "cosmo_total_nonelectrostatic_energy": 6.92, 
			 "SMD_solvation_energy": 5.46 
		},
		"coords": [
			{
				"x": 2.4841578173,
				"y": -2.0196461644,
				"z": 1.5311669872,
				"element": "C" 
			},
			{
				"x": 1.259623228,
				"y": -1.2753164182,
				"z": 1.3350586475,
				"element": "N" 
			},
			{
				"x": 0.8295461983,
				"y": -0.8079548277,
				"z": 0.1364572907,
				"element": "C" 
			},
			{
				"x": 1.5871097726,
				"y": -1.0307716137,
				"z": -1.0453753104,
				"element": "C" 
			},
			{
				"x": 1.166688738,
				"y": -0.5630820014,
				"z": -2.2768740046,
				"element": "C" 
			},
			{
				"x": -0.032650022,
				"y": 0.1554745023,
				"z": -2.4130338608,
				"element": "C" 
			},
			{
				"x": -0.7966655799,
				"y": 0.3920805792,
				"z": -1.2862465453,
				"element": "C" 
			},
			{
				"x": -0.388252533,
				"y": -0.0737906447,
				"z": -0.026294267,
				"element": "C" 
			},
			{
				"x": -1.2602356756,
				"y": 0.2276119639,
				"z": 1.0887154505,
				"element": "N" 
			},
			{
				"x": -2.2939520751,
				"y": 0.8640934521,
				"z": 0.8786285094,
				"element": "O" 
			},
			{
				"x": -0.9416700248,
				"y": -0.1649223644,
				"z": 2.2309805678,
				"element": "O" 
			},
			{
				"x": 3.3707339579,
				"y": -1.4402126131,
				"z": 1.2416082115,
				"element": "H" 
			},
			{
				"x": 2.4908995905,
				"y": -2.9606367298,
				"z": 0.9653690326,
				"element": "H" 
			},
			{
				"x": 2.5708619061,
				"y": -2.2624503479,
				"z": 2.5914960938,
				"element": "H" 
			},
			{
				"x": 0.6515872015,
				"y": -1.0664389633,
				"z": 2.1170860428,
				"element": "H" 
			},
			{
				"x": 2.5167823109,
				"y": -1.581867727,
				"z": -0.972753078,
				"element": "H" 
			},
			{
				"x": 1.7815481838,
				"y": -0.7594298427,
				"z": -3.1509366495,
				"element": "H" 
			},
			{
				"x": -0.3559295288,
				"y": 0.5190830327,
				"z": -3.38202849,
				"element": "H" 
			},
			{
				"x": -1.7285834655,
				"y": 0.9403767282,
				"z": -1.3366246282,
				"element": "H" 
			}
		],
		 "valence_orbital": [ 
			{
				"type": "occ",
				"energy": -0.29993,
				"method": "rhf"
			},
			{
				"type": "occ",
				"energy": -0.29859,
				"method": "rhf"
			},
			{
				"type": "occ",
				"energy": -0.28081,
				"method": "rhf"
			},
			{
				"type": "occ",
				"energy": -0.27201,
				"method": "rhf"
			},
			{
				"type": "occ",
				"energy": -0.21571,
				"method": "rhf"
			},
			{
				"type": "unocc",
				"energy": -0.07958,
				"method": "rhf"
			},
			{
				"type": "unocc",
				"energy": -0.00116,
				"method": "rhf"
			},
			{
				"type": "unocc",
				"energy": 0.01146,
				"method": "rhf"
			},
			{
				"type": "unocc",
				"energy": 0.08057,
				"method": "rhf"
			},
			{
				"type": "unocc",
				"energy": 0.09771,
				"method": "rhf"
			}
		],
		"cosmo_sigma_profile": { 
			"-0.025": 0.0,
			"-0.024": 0.0,
			"-0.023": 0.0,
			"-0.022": 0.0,
			"-0.021": 0.0,
			"-0.02": 0.0,
			"-0.019": 0.0,
			"-0.018": 0.0,
			"-0.017": 0.0,
			"-0.016": 0.0,
			"-0.015": 0.0,
			"-0.014": 0.0,
			"-0.013": 0.0,
			"-0.012": 0.0,
			"-0.011": 0.182717644657,
			"-0.01": 0.686988767888,
			"-0.009": 0.864835427633,
			"-0.008": 0.990635477332,
			"-0.007": 3.74893252043,
			"-0.006": 11.55144773,
			"-0.005": 16.2133688234,
			"-0.004": 17.354000735,
			"-0.003": 14.1644455326,
			"-0.002": 15.4163861683,
			"-0.001": 11.8208209903,
			"0.0": 12.4016613398,
			"0.001": 13.6796687757,
			"0.002": 13.0069954113,
			"0.003": 10.998083465,
			"0.004": 10.2537826984,
			"0.005": 3.79475589859,
			"0.006": 1.96593450287,
			"0.007": 3.6315838208,
			"0.008": 5.78698587845,
			"0.009": 5.43754727771,
			"0.01": 4.42341761976,
			"0.011": 3.43266918989,
			"0.012": 0.563943847138,
			"0.013": 0.0,
			"0.014": 0.0,
			"0.015": 0.0,
			"0.016": 0.0,
			"0.017": 0.0,
			"0.018": 0.0,
			"0.019": 0.0,
			"0.02": 0.0,
			"0.021": 0.0,
			"0.022": 0.0,
			"0.023": 0.0,
			"0.024": 0.0,
			"0.025": 0.0
		}
	}
}
