{
	 "smiles": "COC(=O)C(=O)NC1=CC=C(C)C=C1", 
	 "Tm": 421.15, 
	 "num_atms": 25, 
	 "gaussian": { 
		 "optdone": 1, 
		 "sigma_profile": "yes", 
		 "theory": "DFT", 
		 "functional": "B3LYP", 
		 "basiset": "6-31G**", 
		 "properties": { 
			 "R2extent": 4452.1438, 
			 "electric_dipole_moment_norm": 4.80185477706, 
			 "electric_quadrupole_moment_norm": 16.4444186054, 
			 "total_energy": -668.127542067, 
			 "HOMO_LUMO_gap": 0.20839, 
			 "cosmo_polarized_energy": -13.8, 
			 "cosmo_cavitation_energy": 30.13, 
			 "cosmo_dispersion_energy": -20.94, 
			 "cosmo_repulsion_energy": 1.69, 
			 "cosmo_total_nonelectrostatic_energy": 10.88, 
			 "SMD_solvation_energy": 7.5 
		},
		"coords": [
			{
				"x": 0.0426239539,
				"y": -1.0653794184,
				"z": 2.2991614508,
				"element": "C" 
			},
			{
				"x": 1.3653697728,
				"y": -0.8128288712,
				"z": 1.7829695415,
				"element": "O" 
			},
			{
				"x": 1.7896916762,
				"y": 0.4543960818,
				"z": 1.888764154,
				"element": "C" 
			},
			{
				"x": 1.1543976713,
				"y": 1.3685971292,
				"z": 2.3633643768,
				"element": "O" 
			},
			{
				"x": 3.2483686896,
				"y": 0.5701347361,
				"z": 1.4279888772,
				"element": "C" 
			},
			{
				"x": 4.1359183406,
				"y": 0.5262204708,
				"z": 2.2642719586,
				"element": "O" 
			},
			{
				"x": 3.4882543855,
				"y": 0.7170097068,
				"z": 0.0890325989,
				"element": "N" 
			},
			{
				"x": 2.5640493067,
				"y": 0.8031402511,
				"z": -0.9864429261,
				"element": "C" 
			},
			{
				"x": 1.4290913947,
				"y": 1.619443172,
				"z": -0.9181183558,
				"element": "C" 
			},
			{
				"x": 0.5555728348,
				"y": 1.6818316241,
				"z": -2.0040515381,
				"element": "C" 
			},
			{
				"x": 0.8002295838,
				"y": 0.9733229295,
				"z": -3.1862929739,
				"element": "C" 
			},
			{
				"x": -0.1582498122,
				"y": 1.0392953464,
				"z": -4.3516560912,
				"element": "C" 
			},
			{
				"x": 1.9596074482,
				"y": 0.1868741739,
				"z": -3.2481282401,
				"element": "C" 
			},
			{
				"x": 2.8265362042,
				"y": 0.0907794915,
				"z": -2.1635166312,
				"element": "C" 
			},
			{
				"x": -0.0060271751,
				"y": -0.8107310185,
				"z": 3.3601422274,
				"element": "H" 
			},
			{
				"x": -0.6963392166,
				"y": -0.4736574753,
				"z": 1.753884368,
				"element": "H" 
			},
			{
				"x": -0.129879569,
				"y": -2.1302961317,
				"z": 2.149150301,
				"element": "H" 
			},
			{
				"x": 4.4763082547,
				"y": 0.6960646185,
				"z": -0.1362908381,
				"element": "H" 
			},
			{
				"x": 1.2389311391,
				"y": 2.2127538406,
				"z": -0.0309526214,
				"element": "H" 
			},
			{
				"x": -0.3229418849,
				"y": 2.3182988437,
				"z": -1.9347935569,
				"element": "H" 
			},
			{
				"x": 0.3705671802,
				"y": 0.9958885804,
				"z": -5.3088663485,
				"element": "H" 
			},
			{
				"x": -0.8642487312,
				"y": 0.1994372453,
				"z": -4.3335033748,
				"element": "H" 
			},
			{
				"x": -0.7478433444,
				"y": 1.9604465688,
				"z": -4.3325901429,
				"element": "H" 
			},
			{
				"x": 2.183419884,
				"y": -0.3674118651,
				"z": -4.1561453966,
				"element": "H" 
			},
			{
				"x": 3.708792013,
				"y": -0.5408300305,
				"z": -2.2223808187,
				"element": "H" 
			}
		],
		 "valence_orbital": [ 
			{
				"type": "occ",
				"energy": -0.30459,
				"method": "rhf"
			},
			{
				"type": "occ",
				"energy": -0.29585,
				"method": "rhf"
			},
			{
				"type": "occ",
				"energy": -0.26224,
				"method": "rhf"
			},
			{
				"type": "occ",
				"energy": -0.25471,
				"method": "rhf"
			},
			{
				"type": "occ",
				"energy": -0.23102,
				"method": "rhf"
			},
			{
				"type": "unocc",
				"energy": -0.02263,
				"method": "rhf"
			},
			{
				"type": "unocc",
				"energy": -0.01655,
				"method": "rhf"
			},
			{
				"type": "unocc",
				"energy": 0.00357,
				"method": "rhf"
			},
			{
				"type": "unocc",
				"energy": 0.02091,
				"method": "rhf"
			},
			{
				"type": "unocc",
				"energy": 0.08909,
				"method": "rhf"
			}
		],
		"cosmo_sigma_profile": { 
			"-0.025": 0.0,
			"-0.024": 0.0,
			"-0.023": 0.0,
			"-0.022": 0.0,
			"-0.021": 0.0,
			"-0.02": 0.0,
			"-0.019": 0.0,
			"-0.018": 0.0,
			"-0.017": 0.0,
			"-0.016": 0.228010489632,
			"-0.015": 0.854989569834,
			"-0.014": 1.35299796951,
			"-0.013": 1.22151400162,
			"-0.012": 0.334631433292,
			"-0.011": 1.40087639171,
			"-0.01": 1.45495628564,
			"-0.009": 0.814158909249,
			"-0.008": 1.38026859932,
			"-0.007": 5.65987602534,
			"-0.006": 11.1097937933,
			"-0.005": 17.1389229282,
			"-0.004": 26.3618137946,
			"-0.003": 18.8048603347,
			"-0.002": 16.1404138862,
			"-0.001": 18.1301185904,
			"0.0": 19.3561798014,
			"0.001": 14.771348786,
			"0.002": 12.3437177706,
			"0.003": 12.4859678152,
			"0.004": 13.0361077183,
			"0.005": 11.3761858506,
			"0.006": 3.8837651107,
			"0.007": 4.43813913278,
			"0.008": 2.93479834094,
			"0.009": 3.42505242338,
			"0.01": 5.35574533909,
			"0.011": 6.6098655451,
			"0.012": 5.65122523702,
			"0.013": 1.2536636084,
			"0.014": 0.0,
			"0.015": 0.0,
			"0.016": 0.0,
			"0.017": 0.0,
			"0.018": 0.0,
			"0.019": 0.0,
			"0.02": 0.0,
			"0.021": 0.0,
			"0.022": 0.0,
			"0.023": 0.0,
			"0.024": 0.0,
			"0.025": 0.0
		}
	}
}
