{
	 "smiles": "CC1(C)[C@@H]2CC[C@@]1(C)[C@H](O)C2", 
	 "Tm": 487.15, 
	 "num_atms": 29, 
	 "gaussian": { 
		 "optdone": 1, 
		 "sigma_profile": "yes", 
		 "theory": "DFT", 
		 "functional": "B3LYP", 
		 "basiset": "6-31G**", 
		 "properties": { 
			 "R2extent": 1714.1307, 
			 "electric_dipole_moment_norm": 1.40724947326, 
			 "electric_quadrupole_moment_norm": 6.01991365054, 
			 "total_energy": -467.136203011, 
			 "HOMO_LUMO_gap": 0.33207, 
			 "cosmo_polarized_energy": -5.14, 
			 "cosmo_cavitation_energy": 26.47, 
			 "cosmo_dispersion_energy": -19.62, 
			 "cosmo_repulsion_energy": 1.53, 
			 "cosmo_total_nonelectrostatic_energy": 8.38, 
			 "SMD_solvation_energy": 4.23 
		},
		"coords": [
			{
				"x": -2.1286710971,
				"y": -0.9029546554,
				"z": 0.3329472944,
				"element": "C" 
			},
			{
				"x": -0.8762073766,
				"y": -0.5809572385,
				"z": -0.5055439727,
				"element": "C" 
			},
			{
				"x": -0.9370326435,
				"y": -1.4869756549,
				"z": -1.7505648011,
				"element": "C" 
			},
			{
				"x": 0.4575822694,
				"y": -0.688754075,
				"z": 0.297789158,
				"element": "C" 
			},
			{
				"x": 0.293598976,
				"y": 0.3967718206,
				"z": 1.3882473578,
				"element": "C" 
			},
			{
				"x": -0.4784957104,
				"y": 1.5230666097,
				"z": 0.6333790826,
				"element": "C" 
			},
			{
				"x": -0.6730551157,
				"y": 0.9555410634,
				"z": -0.8034681893,
				"element": "C" 
			},
			{
				"x": -1.7387468852,
				"y": 1.6755988792,
				"z": -1.6186053828,
				"element": "C" 
			},
			{
				"x": 0.7504358661,
				"y": 1.0049042291,
				"z": -1.4321306478,
				"element": "C" 
			},
			{
				"x": 0.6813469496,
				"y": 0.846174328,
				"z": -2.8500669026,
				"element": "O" 
			},
			{
				"x": 1.5037810027,
				"y": -0.1556005915,
				"z": -0.7075418355,
				"element": "C" 
			},
			{
				"x": -3.0384289552,
				"y": -0.7100791743,
				"z": -0.2461319395,
				"element": "H" 
			},
			{
				"x": -2.1366810283,
				"y": -1.9664315195,
				"z": 0.5987568936,
				"element": "H" 
			},
			{
				"x": -2.2049024725,
				"y": -0.3341794667,
				"z": 1.2614719024,
				"element": "H" 
			},
			{
				"x": -1.8922069239,
				"y": -1.351616132,
				"z": -2.2704353785,
				"element": "H" 
			},
			{
				"x": -0.1498748037,
				"y": -1.2835328595,
				"z": -2.474420496,
				"element": "H" 
			},
			{
				"x": -0.8796318461,
				"y": -2.5404034584,
				"z": -1.4503623365,
				"element": "H" 
			},
			{
				"x": 0.6903400727,
				"y": -1.6839742939,
				"z": 0.6903585844,
				"element": "H" 
			},
			{
				"x": -0.2718303332,
				"y": 0.025844864,
				"z": 2.2479612504,
				"element": "H" 
			},
			{
				"x": 1.2632882517,
				"y": 0.7337785243,
				"z": 1.7691934499,
				"element": "H" 
			},
			{
				"x": -1.4472537265,
				"y": 1.7298177224,
				"z": 1.0979835697,
				"element": "H" 
			},
			{
				"x": 0.0679690172,
				"y": 2.4723333651,
				"z": 0.6159644511,
				"element": "H" 
			},
			{
				"x": -1.8121264454,
				"y": 1.2654434832,
				"z": -2.6285813252,
				"element": "H" 
			},
			{
				"x": -2.7198845223,
				"y": 1.5987189705,
				"z": -1.137155387,
				"element": "H" 
			},
			{
				"x": -1.5018207384,
				"y": 2.7417273284,
				"z": -1.7147824501,
				"element": "H" 
			},
			{
				"x": 1.211611,
				"y": 1.9796764548,
				"z": -1.2118913382,
				"element": "H" 
			},
			{
				"x": 1.584045809,
				"y": 0.8829693288,
				"z": -3.1912220658,
				"element": "H" 
			},
			{
				"x": 2.4189445694,
				"y": 0.1805789483,
				"z": -0.207914681,
				"element": "H" 
			},
			{
				"x": 1.78920684,
				"y": -0.9173868003,
				"z": -1.4394338646,
				"element": "H" 
			}
		],
		 "valence_orbital": [ 
			{
				"type": "occ",
				"energy": -0.30382,
				"method": "rhf"
			},
			{
				"type": "occ",
				"energy": -0.29701,
				"method": "rhf"
			},
			{
				"type": "occ",
				"energy": -0.28991,
				"method": "rhf"
			},
			{
				"type": "occ",
				"energy": -0.27279,
				"method": "rhf"
			},
			{
				"type": "occ",
				"energy": -0.25659,
				"method": "rhf"
			},
			{
				"type": "unocc",
				"energy": 0.07548,
				"method": "rhf"
			},
			{
				"type": "unocc",
				"energy": 0.08346,
				"method": "rhf"
			},
			{
				"type": "unocc",
				"energy": 0.10122,
				"method": "rhf"
			},
			{
				"type": "unocc",
				"energy": 0.11338,
				"method": "rhf"
			},
			{
				"type": "unocc",
				"energy": 0.1301,
				"method": "rhf"
			}
		],
		"cosmo_sigma_profile": { 
			"-0.025": 0.0,
			"-0.024": 0.0,
			"-0.023": 0.0,
			"-0.022": 0.0,
			"-0.021": 0.0,
			"-0.02": 0.0,
			"-0.019": 0.0,
			"-0.018": 0.0,
			"-0.017": 0.0,
			"-0.016": 0.0306951651093,
			"-0.015": 0.640954694257,
			"-0.014": 1.03197865794,
			"-0.013": 0.865713007816,
			"-0.012": 0.819646520122,
			"-0.011": 0.93671397832,
			"-0.01": 0.583518214759,
			"-0.009": 0.947622678369,
			"-0.008": 1.05564953245,
			"-0.007": 0.713615561484,
			"-0.006": 0.938080365805,
			"-0.005": 0.812142235763,
			"-0.004": 1.58897465124,
			"-0.003": 9.42754602385,
			"-0.002": 31.7363620012,
			"-0.001": 35.7896070504,
			"0.0": 34.6062879334,
			"0.001": 32.8047895415,
			"0.002": 26.5608274456,
			"0.003": 5.25619317167,
			"0.004": 1.49310922822,
			"0.005": 1.66657305482,
			"0.006": 1.72424278041,
			"0.007": 1.08758514735,
			"0.008": 1.7136261549,
			"0.009": 1.48776955938,
			"0.01": 1.62517487283,
			"0.011": 1.10220003312,
			"0.012": 1.8090454329,
			"0.013": 1.15947357853,
			"0.014": 0.205424404472,
			"0.015": 0.0,
			"0.016": 0.0,
			"0.017": 0.0,
			"0.018": 0.0,
			"0.019": 0.0,
			"0.02": 0.0,
			"0.021": 0.0,
			"0.022": 0.0,
			"0.023": 0.0,
			"0.024": 0.0,
			"0.025": 0.0
		}
	}
}
