{
	 "smiles": "CC12CCC3C(CCC4=CC(=O)C=CC34C)C1CCC(=O)O2", 
	 "Tm": 491.15, 
	 "num_atms": 46, 
	 "gaussian": { 
		 "optdone": 1, 
		 "sigma_profile": "yes", 
		 "theory": "DFT", 
		 "functional": "B3LYP", 
		 "basiset": "6-31G**", 
		 "properties": { 
			 "R2extent": 7791.3145, 
			 "electric_dipole_moment_norm": 5.71398232496, 
			 "electric_quadrupole_moment_norm": 32.8651835886, 
			 "total_energy": -964.155998548, 
			 "HOMO_LUMO_gap": 0.17778, 
			 "cosmo_polarized_energy": -21.77, 
			 "cosmo_cavitation_energy": 42.2, 
			 "cosmo_dispersion_energy": -29.6, 
			 "cosmo_repulsion_energy": 2.2, 
			 "cosmo_total_nonelectrostatic_energy": 14.8, 
			 "SMD_solvation_energy": 7.68 
		},
		"coords": [
			{
				"x": -0.2177515867,
				"y": 3.9021058254,
				"z": 0.1875426857,
				"element": "C" 
			},
			{
				"x": -1.1187403838,
				"y": 2.8006268166,
				"z": -0.3874861563,
				"element": "C" 
			},
			{
				"x": -0.519637934,
				"y": 2.1988030049,
				"z": -1.6637813265,
				"element": "C" 
			},
			{
				"x": 0.7443351549,
				"y": 1.3530609592,
				"z": -1.4173921338,
				"element": "C" 
			},
			{
				"x": 0.7431780124,
				"y": 0.5789303113,
				"z": -0.0692096832,
				"element": "C" 
			},
			{
				"x": -0.6970025216,
				"y": 0.3279461499,
				"z": 0.43678581,
				"element": "C" 
			},
			{
				"x": -1.4259005715,
				"y": -0.7052858181,
				"z": -0.4475072371,
				"element": "C" 
			},
			{
				"x": -0.6146480847,
				"y": -2.0173313626,
				"z": -0.5345192185,
				"element": "C" 
			},
			{
				"x": 0.8064991926,
				"y": -1.7672440922,
				"z": -0.9751078173,
				"element": "C" 
			},
			{
				"x": 1.3384847215,
				"y": -2.3781052084,
				"z": -2.0510973363,
				"element": "C" 
			},
			{
				"x": 2.7064444198,
				"y": -2.1141919029,
				"z": -2.5389738834,
				"element": "C" 
			},
			{
				"x": 3.1814078387,
				"y": -2.7081612334,
				"z": -3.503839822,
				"element": "O" 
			},
			{
				"x": 3.4649372111,
				"y": -1.0775136539,
				"z": -1.8054448884,
				"element": "C" 
			},
			{
				"x": 2.9434664067,
				"y": -0.4511043122,
				"z": -0.7417896401,
				"element": "C" 
			},
			{
				"x": 1.5853859094,
				"y": -0.7499292331,
				"z": -0.1571005723,
				"element": "C" 
			},
			{
				"x": 1.8552179519,
				"y": -1.3145040335,
				"z": 1.2707577013,
				"element": "C" 
			},
			{
				"x": -1.4168831606,
				"y": 1.6911525346,
				"z": 0.6855472868,
				"element": "C" 
			},
			{
				"x": -2.9220142787,
				"y": 1.5476033477,
				"z": 0.943523861,
				"element": "C" 
			},
			{
				"x": -3.5360319514,
				"y": 2.9308064741,
				"z": 1.1649169999,
				"element": "C" 
			},
			{
				"x": -3.395912943,
				"y": 3.7645811628,
				"z": -0.0936825208,
				"element": "C" 
			},
			{
				"x": -4.2007891015,
				"y": 4.5863706021,
				"z": -0.4610825562,
				"element": "O" 
			},
			{
				"x": -2.3212890173,
				"y": 3.4809059509,
				"z": -0.8767390967,
				"element": "O" 
			},
			{
				"x": 0.7530776564,
				"y": 3.5005409014,
				"z": 0.4937147272,
				"element": "H" 
			},
			{
				"x": -0.6787249836,
				"y": 4.3637786874,
				"z": 1.0670934387,
				"element": "H" 
			},
			{
				"x": -0.05258987,
				"y": 4.6818087341,
				"z": -0.5610332465,
				"element": "H" 
			},
			{
				"x": -1.300836974,
				"y": 1.595719091,
				"z": -2.1352832715,
				"element": "H" 
			},
			{
				"x": -0.3025113497,
				"y": 3.0091963876,
				"z": -2.3668158357,
				"element": "H" 
			},
			{
				"x": 1.6327418296,
				"y": 1.9917399385,
				"z": -1.4546145206,
				"element": "H" 
			},
			{
				"x": 0.8524644314,
				"y": 0.6498249587,
				"z": -2.2492120042,
				"element": "H" 
			},
			{
				"x": 1.242911891,
				"y": 1.2042003839,
				"z": 0.6841113719,
				"element": "H" 
			},
			{
				"x": -0.6293839132,
				"y": -0.131067186,
				"z": 1.4321742973,
				"element": "H" 
			},
			{
				"x": -2.4142081003,
				"y": -0.9310911229,
				"z": -0.0346174729,
				"element": "H" 
			},
			{
				"x": -1.5897881388,
				"y": -0.3233407721,
				"z": -1.4599392012,
				"element": "H" 
			},
			{
				"x": -0.6169566712,
				"y": -2.4965456633,
				"z": 0.4547595053,
				"element": "H" 
			},
			{
				"x": -1.0990510435,
				"y": -2.7181248676,
				"z": -1.2214701063,
				"element": "H" 
			},
			{
				"x": 0.7682701582,
				"y": -3.1048222033,
				"z": -2.6250303646,
				"element": "H" 
			},
			{
				"x": 4.4616121966,
				"y": -0.8563694424,
				"z": -2.1765602206,
				"element": "H" 
			},
			{
				"x": 3.5256693362,
				"y": 0.3040862116,
				"z": -0.2133862698,
				"element": "H" 
			},
			{
				"x": 2.4544223007,
				"y": -2.2268626873,
				"z": 1.2081189569,
				"element": "H" 
			},
			{
				"x": 2.4110077919,
				"y": -0.5822757124,
				"z": 1.8659481003,
				"element": "H" 
			},
			{
				"x": 0.9337600537,
				"y": -1.5512322492,
				"z": 1.8069527443,
				"element": "H" 
			},
			{
				"x": -0.9878585964,
				"y": 2.066128285,
				"z": 1.6250215805,
				"element": "H" 
			},
			{
				"x": -3.0906317305,
				"y": 0.9019747153,
				"z": 1.8130335772,
				"element": "H" 
			},
			{
				"x": -3.4217423607,
				"y": 1.071480871,
				"z": 0.0926096059,
				"element": "H" 
			},
			{
				"x": -3.0356309379,
				"y": 3.4464019311,
				"z": 1.99601712,
				"element": "H" 
			},
			{
				"x": -4.6002782604,
				"y": 2.8924285206,
				"z": 1.4080870325,
				"element": "H" 
			}
		],
		 "valence_orbital": [ 
			{
				"type": "occ",
				"energy": -0.28567,
				"method": "rhf"
			},
			{
				"type": "occ",
				"energy": -0.27443,
				"method": "rhf"
			},
			{
				"type": "occ",
				"energy": -0.26251,
				"method": "rhf"
			},
			{
				"type": "occ",
				"energy": -0.25892,
				"method": "rhf"
			},
			{
				"type": "occ",
				"energy": -0.23777,
				"method": "rhf"
			},
			{
				"type": "unocc",
				"energy": -0.05999,
				"method": "rhf"
			},
			{
				"type": "unocc",
				"energy": -0.00696,
				"method": "rhf"
			},
			{
				"type": "unocc",
				"energy": 0.01197,
				"method": "rhf"
			},
			{
				"type": "unocc",
				"energy": 0.04901,
				"method": "rhf"
			},
			{
				"type": "unocc",
				"energy": 0.07233,
				"method": "rhf"
			}
		],
		"cosmo_sigma_profile": { 
			"-0.025": 0.0,
			"-0.024": 0.0,
			"-0.023": 0.0,
			"-0.022": 0.0,
			"-0.021": 0.0,
			"-0.02": 0.0,
			"-0.019": 0.0,
			"-0.018": 0.0,
			"-0.017": 0.0,
			"-0.016": 0.0,
			"-0.015": 0.0,
			"-0.014": 0.0,
			"-0.013": 0.0,
			"-0.012": 0.0,
			"-0.011": 0.0,
			"-0.01": 0.0,
			"-0.009": 0.0,
			"-0.008": 0.0213769833379,
			"-0.007": 1.59525127652,
			"-0.006": 11.7928296698,
			"-0.005": 21.83097659,
			"-0.004": 41.7217203633,
			"-0.003": 52.8825579681,
			"-0.002": 40.4701184517,
			"-0.001": 35.9713950265,
			"0.0": 28.9121752957,
			"0.001": 15.2803184845,
			"0.002": 12.1148925943,
			"0.003": 7.46938255923,
			"0.004": 5.1062473174,
			"0.005": 3.97703776069,
			"0.006": 2.92860573621,
			"0.007": 3.55481418362,
			"0.008": 3.39665026814,
			"0.009": 3.67212513628,
			"0.01": 4.2833909518,
			"0.011": 5.65797981455,
			"0.012": 8.2112201894,
			"0.013": 9.94427562891,
			"0.014": 5.39109249302,
			"0.015": 1.42843783798,
			"0.016": 0.0,
			"0.017": 0.0,
			"0.018": 0.0,
			"0.019": 0.0,
			"0.02": 0.0,
			"0.021": 0.0,
			"0.022": 0.0,
			"0.023": 0.0,
			"0.024": 0.0,
			"0.025": 0.0
		}
	}
}
