{
	 "smiles": "CN(C)S(=O)(=O)C1=CC=C(C=C1)C(C)=NO", 
	 "Tm": 382.15, 
	 "num_atms": 30, 
	 "gaussian": { 
		 "optdone": 1, 
		 "sigma_profile": "yes", 
		 "theory": "DFT", 
		 "functional": "B3LYP", 
		 "basiset": "6-31G**", 
		 "properties": { 
			 "R2extent": 6033.014, 
			 "electric_dipole_moment_norm": 4.7078505605, 
			 "electric_quadrupole_moment_norm": 21.5212853327, 
			 "total_energy": -1122.73653718, 
			 "HOMO_LUMO_gap": 0.17724, 
			 "cosmo_polarized_energy": -16.31, 
			 "cosmo_cavitation_energy": 34.72, 
			 "cosmo_dispersion_energy": -25.2, 
			 "cosmo_repulsion_energy": 1.92, 
			 "cosmo_total_nonelectrostatic_energy": 11.45, 
			 "SMD_solvation_energy": 5.2 
		},
		"coords": [
			{
				"x": 2.4484764968,
				"y": 3.7322419338,
				"z": -0.1711170615,
				"element": "C" 
			},
			{
				"x": 1.6241595962,
				"y": 2.5549544079,
				"z": 0.1399834689,
				"element": "N" 
			},
			{
				"x": 2.1857048715,
				"y": 1.703960714,
				"z": 1.1953204421,
				"element": "C" 
			},
			{
				"x": -0.0326855903,
				"y": 2.9001996846,
				"z": 0.3494303556,
				"element": "S" 
			},
			{
				"x": -0.366812518,
				"y": 3.9081915981,
				"z": -0.6621762767,
				"element": "O" 
			},
			{
				"x": -0.3538055154,
				"y": 3.134353002,
				"z": 1.7658179136,
				"element": "O" 
			},
			{
				"x": -0.77351127,
				"y": 1.3362535973,
				"z": -0.1201768807,
				"element": "C" 
			},
			{
				"x": -1.4870459634,
				"y": 0.6065935469,
				"z": 0.8261270586,
				"element": "C" 
			},
			{
				"x": -2.1033619001,
				"y": -0.5866295153,
				"z": 0.4446564199,
				"element": "C" 
			},
			{
				"x": -2.0150665516,
				"y": -1.0558763835,
				"z": -0.8747688125,
				"element": "C" 
			},
			{
				"x": -1.2911582188,
				"y": -0.2916352636,
				"z": -1.8141413557,
				"element": "C" 
			},
			{
				"x": -0.6772898589,
				"y": 0.8957768367,
				"z": -1.4458352686,
				"element": "C" 
			},
			{
				"x": -2.6723050292,
				"y": -2.3288719185,
				"z": -1.2730385393,
				"element": "C" 
			},
			{
				"x": -3.4876704616,
				"y": -3.1036773895,
				"z": -0.2704773503,
				"element": "C" 
			},
			{
				"x": -2.4890283433,
				"y": -2.6919400607,
				"z": -2.4959975227,
				"element": "N" 
			},
			{
				"x": -3.126328102,
				"y": -3.8921498327,
				"z": -2.8153839709,
				"element": "O" 
			},
			{
				"x": 2.6272225265,
				"y": 4.3699939465,
				"z": 0.7065809819,
				"element": "H" 
			},
			{
				"x": 3.4113359072,
				"y": 3.3726885164,
				"z": -0.5457128493,
				"element": "H" 
			},
			{
				"x": 1.9613946053,
				"y": 4.3202553579,
				"z": -0.9480041145,
				"element": "H" 
			},
			{
				"x": 1.5624359727,
				"y": 0.8171007103,
				"z": 1.3308203319,
				"element": "H" 
			},
			{
				"x": 2.2761515291,
				"y": 2.2248237399,
				"z": 2.157812837,
				"element": "H" 
			},
			{
				"x": 3.1761742855,
				"y": 1.3739422492,
				"z": 0.8695467178,
				"element": "H" 
			},
			{
				"x": -1.5607667966,
				"y": 0.9763314922,
				"z": 1.8428444453,
				"element": "H" 
			},
			{
				"x": -2.6559243975,
				"y": -1.147618446,
				"z": 1.1897004384,
				"element": "H" 
			},
			{
				"x": -1.2252170269,
				"y": -0.6463339062,
				"z": -2.8356923813,
				"element": "H" 
			},
			{
				"x": -0.1288522167,
				"y": 1.483505555,
				"z": -2.1738228706,
				"element": "H" 
			},
			{
				"x": -4.2899332658,
				"y": -2.4799244013,
				"z": 0.137574819,
				"element": "H" 
			},
			{
				"x": -3.9284419049,
				"y": -3.9846348888,
				"z": -0.732348593,
				"element": "H" 
			},
			{
				"x": -2.8624385971,
				"y": -3.4249266135,
				"z": 0.56988189,
				"element": "H" 
			},
			{
				"x": -2.8933122628,
				"y": -4.0035482692,
				"z": -3.7466042727,
				"element": "H" 
			}
		],
		 "valence_orbital": [ 
			{
				"type": "occ",
				"energy": -0.29455,
				"method": "rhf"
			},
			{
				"type": "occ",
				"energy": -0.28352,
				"method": "rhf"
			},
			{
				"type": "occ",
				"energy": -0.27002,
				"method": "rhf"
			},
			{
				"type": "occ",
				"energy": -0.25235,
				"method": "rhf"
			},
			{
				"type": "occ",
				"energy": -0.23757,
				"method": "rhf"
			},
			{
				"type": "unocc",
				"energy": -0.06033,
				"method": "rhf"
			},
			{
				"type": "unocc",
				"energy": -0.01837,
				"method": "rhf"
			},
			{
				"type": "unocc",
				"energy": 0.01998,
				"method": "rhf"
			},
			{
				"type": "unocc",
				"energy": 0.06569,
				"method": "rhf"
			},
			{
				"type": "unocc",
				"energy": 0.06698,
				"method": "rhf"
			}
		],
		"cosmo_sigma_profile": { 
			"-0.025": 0.0,
			"-0.024": 0.0,
			"-0.023": 0.0,
			"-0.022": 0.0,
			"-0.021": 0.0,
			"-0.02": 0.0,
			"-0.019": 0.0,
			"-0.018": 0.410705372217,
			"-0.017": 0.845327824025,
			"-0.016": 1.27535421202,
			"-0.015": 0.70188064921,
			"-0.014": 0.510469326055,
			"-0.013": 0.818423686061,
			"-0.012": 0.426366127664,
			"-0.011": 0.575994302512,
			"-0.01": 0.628459924303,
			"-0.009": 1.21172308153,
			"-0.008": 0.931712965324,
			"-0.007": 5.79784821577,
			"-0.006": 16.3416673454,
			"-0.005": 19.0092238575,
			"-0.004": 24.352039482,
			"-0.003": 24.9569361309,
			"-0.002": 27.0120099604,
			"-0.001": 18.9623749421,
			"0.0": 15.7810243276,
			"0.001": 15.1430052204,
			"0.002": 22.7066886006,
			"0.003": 13.9105029501,
			"0.004": 8.55577545072,
			"0.005": 7.69434098866,
			"0.006": 6.91530348027,
			"0.007": 7.97570228251,
			"0.008": 6.61974645339,
			"0.009": 5.51547399584,
			"0.01": 6.83976042958,
			"0.011": 8.24085823689,
			"0.012": 4.28978196659,
			"0.013": 0.0149182077615,
			"0.014": 0.0,
			"0.015": 0.0,
			"0.016": 0.0,
			"0.017": 0.0,
			"0.018": 0.0,
			"0.019": 0.0,
			"0.02": 0.0,
			"0.021": 0.0,
			"0.022": 0.0,
			"0.023": 0.0,
			"0.024": 0.0,
			"0.025": 0.0
		}
	}
}
