{
	 "smiles": "NC1=NC(Cl)=CC(=C1)C(O)=O", 
	 "Tm": 563.15, 
	 "num_atms": 16, 
	 "gaussian": { 
		 "optdone": 1, 
		 "sigma_profile": "yes", 
		 "theory": "DFT", 
		 "functional": "B3LYP", 
		 "basiset": "6-31G**", 
		 "properties": { 
			 "R2extent": 2881.6095, 
			 "electric_dipole_moment_norm": 2.24459951216, 
			 "electric_quadrupole_moment_norm": 15.514509338, 
			 "total_energy": -951.81962238, 
			 "HOMO_LUMO_gap": 0.16078, 
			 "cosmo_polarized_energy": -14.01, 
			 "cosmo_cavitation_energy": 23.24, 
			 "cosmo_dispersion_energy": -17.51, 
			 "cosmo_repulsion_energy": 1.43, 
			 "cosmo_total_nonelectrostatic_energy": 7.16, 
			 "SMD_solvation_energy": 3.71 
		},
		"coords": [
			{
				"x": -0.7644870839,
				"y": -1.0614166303,
				"z": -1.3925077169,
				"element": "N" 
			},
			{
				"x": -0.5798032565,
				"y": -0.1689022321,
				"z": -0.3651424679,
				"element": "C" 
			},
			{
				"x": -0.3847011703,
				"y": 1.1140463127,
				"z": -0.7226886699,
				"element": "N" 
			},
			{
				"x": -0.1549079287,
				"y": 1.9942899795,
				"z": 0.234106333,
				"element": "C" 
			},
			{
				"x": 0.0964876507,
				"y": 3.6597678241,
				"z": -0.2895368478,
				"element": "Cl" 
			},
			{
				"x": -0.1036419184,
				"y": 1.7151127994,
				"z": 1.5970744312,
				"element": "C" 
			},
			{
				"x": -0.316998028,
				"y": 0.3775577719,
				"z": 1.9577804221,
				"element": "C" 
			},
			{
				"x": -0.5560669571,
				"y": -0.5820887411,
				"z": 0.9807098241,
				"element": "C" 
			},
			{
				"x": -0.2979561481,
				"y": -0.0710940652,
				"z": 3.3834951168,
				"element": "C" 
			},
			{
				"x": -0.0465846909,
				"y": 0.9378685502,
				"z": 4.2474494594,
				"element": "O" 
			},
			{
				"x": -0.4859706587,
				"y": -1.2136992687,
				"z": 3.7467936837,
				"element": "O" 
			},
			{
				"x": -0.9724974924,
				"y": -0.6515767189,
				"z": -2.2911876309,
				"element": "H" 
			},
			{
				"x": -1.211301197,
				"y": -1.9414306563,
				"z": -1.1885122928,
				"element": "H" 
			},
			{
				"x": 0.0853559579,
				"y": 2.4847448408,
				"z": 2.3314386664,
				"element": "H" 
			},
			{
				"x": -0.7135195569,
				"y": -1.6155133822,
				"z": 1.2673018667,
				"element": "H" 
			},
			{
				"x": -0.0559075217,
				"y": 0.5423336162,
				"z": 5.134825823,
				"element": "H" 
			}
		],
		 "valence_orbital": [ 
			{
				"type": "occ",
				"energy": -0.31403,
				"method": "rhf"
			},
			{
				"type": "occ",
				"energy": -0.29156,
				"method": "rhf"
			},
			{
				"type": "occ",
				"energy": -0.28514,
				"method": "rhf"
			},
			{
				"type": "occ",
				"energy": -0.28392,
				"method": "rhf"
			},
			{
				"type": "occ",
				"energy": -0.22868,
				"method": "rhf"
			},
			{
				"type": "unocc",
				"energy": -0.0679,
				"method": "rhf"
			},
			{
				"type": "unocc",
				"energy": -0.01224,
				"method": "rhf"
			},
			{
				"type": "unocc",
				"energy": 0.03559,
				"method": "rhf"
			},
			{
				"type": "unocc",
				"energy": 0.04535,
				"method": "rhf"
			},
			{
				"type": "unocc",
				"energy": 0.06853,
				"method": "rhf"
			}
		],
		"cosmo_sigma_profile": { 
			"-0.025": 0.0,
			"-0.024": 0.0,
			"-0.023": 0.0,
			"-0.022": 0.0,
			"-0.021": 0.0,
			"-0.02": 0.0,
			"-0.019": 0.501852347196,
			"-0.018": 1.02636528955,
			"-0.017": 0.748399878266,
			"-0.016": 0.704994473959,
			"-0.015": 0.795002084115,
			"-0.014": 2.30578937846,
			"-0.013": 3.14607806895,
			"-0.012": 4.08295003297,
			"-0.011": 3.42672317998,
			"-0.01": 2.81578924017,
			"-0.009": 3.33084036827,
			"-0.008": 3.4450260309,
			"-0.007": 3.46746456934,
			"-0.006": 3.75271393699,
			"-0.005": 4.559717529,
			"-0.004": 4.61736323154,
			"-0.003": 8.34720330623,
			"-0.002": 8.26733015623,
			"-0.001": 12.789566271,
			"0.0": 20.388358081,
			"0.001": 19.4257991335,
			"0.002": 10.918689002,
			"0.003": 9.46070400832,
			"0.004": 14.825235338,
			"0.005": 10.1548579797,
			"0.006": 6.73756941186,
			"0.007": 4.21752890021,
			"0.008": 3.81117346213,
			"0.009": 3.69877233306,
			"0.01": 4.26917023355,
			"0.011": 6.16611869563,
			"0.012": 1.50364458008,
			"0.013": 0.489126810378,
			"0.014": 0.00901351644304,
			"0.015": 0.0,
			"0.016": 0.0,
			"0.017": 0.0,
			"0.018": 0.0,
			"0.019": 0.0,
			"0.02": 0.0,
			"0.021": 0.0,
			"0.022": 0.0,
			"0.023": 0.0,
			"0.024": 0.0,
			"0.025": 0.0
		}
	}
}
