{
	 "smiles": "CCCC1COC(OC1)C1=CC=C(C=C1)C#N", 
	 "Tm": 330.65, 
	 "num_atms": 34, 
	 "gaussian": { 
		 "optdone": 1, 
		 "sigma_profile": "yes", 
		 "theory": "DFT", 
		 "functional": "B3LYP", 
		 "basiset": "6-31G**", 
		 "properties": { 
			 "R2extent": 6945.81, 
			 "electric_dipole_moment_norm": 6.06989341422, 
			 "electric_quadrupole_moment_norm": 36.0013135808, 
			 "total_energy": -748.909780191, 
			 "HOMO_LUMO_gap": 0.20971, 
			 "cosmo_polarized_energy": -10.62, 
			 "cosmo_cavitation_energy": 37.04, 
			 "cosmo_dispersion_energy": -25.98, 
			 "cosmo_repulsion_energy": 2.04, 
			 "cosmo_total_nonelectrostatic_energy": 13.1, 
			 "SMD_solvation_energy": 7.19 
		},
		"coords": [
			{
				"x": -0.0649850416,
				"y": 3.8506436159,
				"z": -2.5983464107,
				"element": "C" 
			},
			{
				"x": -0.0471888733,
				"y": 3.6102249287,
				"z": -1.0853136551,
				"element": "C" 
			},
			{
				"x": 0.3362222824,
				"y": 2.1719162693,
				"z": -0.7131090396,
				"element": "C" 
			},
			{
				"x": 0.3470459152,
				"y": 1.8842897277,
				"z": 0.7974440295,
				"element": "C" 
			},
			{
				"x": -1.064624344,
				"y": 1.7771380786,
				"z": 1.4196074988,
				"element": "C" 
			},
			{
				"x": -1.4926099755,
				"y": 0.4109561724,
				"z": 1.4066437728,
				"element": "O" 
			},
			{
				"x": -0.7445587183,
				"y": -0.3732789873,
				"z": 2.3097715331,
				"element": "C" 
			},
			{
				"x": 0.6174167556,
				"y": 0.0224129617,
				"z": 2.3503851882,
				"element": "O" 
			},
			{
				"x": 1.0549662726,
				"y": 0.5445227945,
				"z": 1.0912211446,
				"element": "C" 
			},
			{
				"x": -0.9151961969,
				"y": -1.8374257586,
				"z": 1.9260332487,
				"element": "C" 
			},
			{
				"x": -2.0723137743,
				"y": -2.2802700524,
				"z": 1.2738107035,
				"element": "C" 
			},
			{
				"x": -2.239510289,
				"y": -3.6285297929,
				"z": 0.9731102189,
				"element": "C" 
			},
			{
				"x": -1.2433602849,
				"y": -4.5543094453,
				"z": 1.3267843488,
				"element": "C" 
			},
			{
				"x": -0.0816663633,
				"y": -4.1126400559,
				"z": 1.9820418119,
				"element": "C" 
			},
			{
				"x": 0.0745332979,
				"y": -2.76223083,
				"z": 2.2783440653,
				"element": "C" 
			},
			{
				"x": -1.4108192273,
				"y": -5.9448376966,
				"z": 1.017754948,
				"element": "C" 
			},
			{
				"x": -1.5463584085,
				"y": -7.0728053709,
				"z": 0.7668843109,
				"element": "N" 
			},
			{
				"x": 0.9170148672,
				"y": 3.6518501125,
				"z": -3.0423882493,
				"element": "H" 
			},
			{
				"x": -0.7899754731,
				"y": 3.1960491327,
				"z": -3.095022787,
				"element": "H" 
			},
			{
				"x": -0.3337069193,
				"y": 4.8850531612,
				"z": -2.8351827115,
				"element": "H" 
			},
			{
				"x": -1.0342241075,
				"y": 3.8539200896,
				"z": -0.6700225804,
				"element": "H" 
			},
			{
				"x": 0.6597821481,
				"y": 4.3042995038,
				"z": -0.6108774193,
				"element": "H" 
			},
			{
				"x": 1.3331239224,
				"y": 1.9571036222,
				"z": -1.1244546526,
				"element": "H" 
			},
			{
				"x": -0.3504892745,
				"y": 1.4647868882,
				"z": -1.1998674425,
				"element": "H" 
			},
			{
				"x": 0.8869285528,
				"y": 2.6911827424,
				"z": 1.310773256,
				"element": "H" 
			},
			{
				"x": -1.8129258037,
				"y": 2.3288936296,
				"z": 0.8456999443,
				"element": "H" 
			},
			{
				"x": -1.0717890312,
				"y": 2.1606759384,
				"z": 2.4492447791,
				"element": "H" 
			},
			{
				"x": -1.1068412441,
				"y": -0.2121390536,
				"z": 3.3398678361,
				"element": "H" 
			},
			{
				"x": 2.1371963022,
				"y": 0.6674341518,
				"z": 1.1742382821,
				"element": "H" 
			},
			{
				"x": 0.8532617197,
				"y": -0.1778840423,
				"z": 0.2879966143,
				"element": "H" 
			},
			{
				"x": -2.8337318141,
				"y": -1.5611371815,
				"z": 0.9946973551,
				"element": "H" 
			},
			{
				"x": -3.1334586239,
				"y": -3.9723697209,
				"z": 0.46340619,
				"element": "H" 
			},
			{
				"x": 0.6875864337,
				"y": -4.8289211175,
				"z": 2.250885665,
				"element": "H" 
			},
			{
				"x": 0.9720553187,
				"y": -2.4109744154,
				"z": 2.7757382032,
				"element": "H" 
			}
		],
		 "valence_orbital": [ 
			{
				"type": "occ",
				"energy": -0.30413,
				"method": "rhf"
			},
			{
				"type": "occ",
				"energy": -0.29043,
				"method": "rhf"
			},
			{
				"type": "occ",
				"energy": -0.27056,
				"method": "rhf"
			},
			{
				"type": "occ",
				"energy": -0.2619,
				"method": "rhf"
			},
			{
				"type": "occ",
				"energy": -0.25945,
				"method": "rhf"
			},
			{
				"type": "unocc",
				"energy": -0.04974,
				"method": "rhf"
			},
			{
				"type": "unocc",
				"energy": -0.02009,
				"method": "rhf"
			},
			{
				"type": "unocc",
				"energy": 0.0409,
				"method": "rhf"
			},
			{
				"type": "unocc",
				"energy": 0.07056,
				"method": "rhf"
			},
			{
				"type": "unocc",
				"energy": 0.07916,
				"method": "rhf"
			}
		],
		"cosmo_sigma_profile": { 
			"-0.025": 0.0,
			"-0.024": 0.0,
			"-0.023": 0.0,
			"-0.022": 0.0,
			"-0.021": 0.0,
			"-0.02": 0.0,
			"-0.019": 0.0,
			"-0.018": 0.0,
			"-0.017": 0.0,
			"-0.016": 0.0,
			"-0.015": 0.0,
			"-0.014": 0.0,
			"-0.013": 0.0,
			"-0.012": 0.0,
			"-0.011": 0.0,
			"-0.01": 0.0,
			"-0.009": 0.0,
			"-0.008": 2.48226680008,
			"-0.007": 4.86361100792,
			"-0.006": 9.87952734018,
			"-0.005": 15.4685205163,
			"-0.004": 19.6412996561,
			"-0.003": 28.9574345357,
			"-0.002": 38.2209619871,
			"-0.001": 35.3327033248,
			"0.0": 29.3707440666,
			"0.001": 28.5138748658,
			"0.002": 22.2617364414,
			"0.003": 11.4671310943,
			"0.004": 5.43168955268,
			"0.005": 4.98672214844,
			"0.006": 6.54029354226,
			"0.007": 4.31220857848,
			"0.008": 5.80651269062,
			"0.009": 5.1190387317,
			"0.01": 4.17695210598,
			"0.011": 3.97973043928,
			"0.012": 3.32367945917,
			"0.013": 1.8565816314,
			"0.014": 0.0628557117655,
			"0.015": 0.0,
			"0.016": 0.0,
			"0.017": 0.0,
			"0.018": 0.0,
			"0.019": 0.0,
			"0.02": 0.0,
			"0.021": 0.0,
			"0.022": 0.0,
			"0.023": 0.0,
			"0.024": 0.0,
			"0.025": 0.0
		}
	}
}
