{
	 "smiles": "COC(=O)C1=CC(OCC2=NOC=N2)=CC=C1", 
	 "Tm": 376.15, 
	 "num_atms": 27, 
	 "gaussian": { 
		 "optdone": 1, 
		 "sigma_profile": "yes", 
		 "theory": "DFT", 
		 "functional": "B3LYP", 
		 "basiset": "6-31G**", 
		 "properties": { 
			 "R2extent": 6904.5295, 
			 "electric_dipole_moment_norm": 2.23154070991, 
			 "electric_quadrupole_moment_norm": 31.5849285196, 
			 "total_energy": -835.540039122, 
			 "HOMO_LUMO_gap": 0.18531, 
			 "cosmo_polarized_energy": -13.8, 
			 "cosmo_cavitation_energy": 32.89, 
			 "cosmo_dispersion_energy": -24.02, 
			 "cosmo_repulsion_energy": 1.85, 
			 "cosmo_total_nonelectrostatic_energy": 10.73, 
			 "SMD_solvation_energy": 6.94 
		},
		"coords": [
			{
				"x": 4.0520098612,
				"y": 1.3576780158,
				"z": -2.8760768075,
				"element": "C" 
			},
			{
				"x": 2.7381229558,
				"y": 0.9753626793,
				"z": -2.4436074509,
				"element": "O" 
			},
			{
				"x": 1.74804017,
				"y": 1.2087928061,
				"z": -3.3358788533,
				"element": "C" 
			},
			{
				"x": 1.9453881449,
				"y": 1.7049617757,
				"z": -4.4282720303,
				"element": "O" 
			},
			{
				"x": 0.4088526136,
				"y": 0.7926748976,
				"z": -2.8281615021,
				"element": "C" 
			},
			{
				"x": 0.2435235269,
				"y": 0.2183630621,
				"z": -1.5655125576,
				"element": "C" 
			},
			{
				"x": -1.0327607429,
				"y": -0.1572351113,
				"z": -1.1341181852,
				"element": "C" 
			},
			{
				"x": -1.0830654181,
				"y": -0.7046875687,
				"z": 0.126652894,
				"element": "O" 
			},
			{
				"x": -2.1729042888,
				"y": -1.5431438356,
				"z": 0.4956393373,
				"element": "C" 
			},
			{
				"x": -3.2476694088,
				"y": -0.8066762448,
				"z": 1.2449350827,
				"element": "C" 
			},
			{
				"x": -3.3665756254,
				"y": -0.9212500914,
				"z": 2.544383871,
				"element": "N" 
			},
			{
				"x": -4.4593608668,
				"y": -0.0943317957,
				"z": 2.8448696502,
				"element": "O" 
			},
			{
				"x": -4.8679560292,
				"y": 0.4204577751,
				"z": 1.6794328694,
				"element": "C" 
			},
			{
				"x": -4.1780193354,
				"y": 0.027734965,
				"z": 0.6547657458,
				"element": "N" 
			},
			{
				"x": -2.1447084452,
				"y": 0.0482043131,
				"z": -1.95799478,
				"element": "C" 
			},
			{
				"x": -1.9623289708,
				"y": 0.6140294607,
				"z": -3.224504026,
				"element": "C" 
			},
			{
				"x": -0.6983470204,
				"y": 0.9860143749,
				"z": -3.6674677219,
				"element": "C" 
			},
			{
				"x": 4.7185550774,
				"y": 1.1043267297,
				"z": -2.0516617887,
				"element": "H" 
			},
			{
				"x": 4.0918605079,
				"y": 2.4294201924,
				"z": -3.0867952585,
				"element": "H" 
			},
			{
				"x": 4.3343847267,
				"y": 0.8121407637,
				"z": -3.7801288905,
				"element": "H" 
			},
			{
				"x": 1.0914480704,
				"y": 0.054194757,
				"z": -0.9122425548,
				"element": "H" 
			},
			{
				"x": -1.7577156753,
				"y": -2.3029508423,
				"z": 1.1618452675,
				"element": "H" 
			},
			{
				"x": -2.6045216034,
				"y": -2.0370553114,
				"z": -0.3820445945,
				"element": "H" 
			},
			{
				"x": -5.7144281189,
				"y": 1.0930259383,
				"z": 1.7036325798,
				"element": "H" 
			},
			{
				"x": -3.1434419252,
				"y": -0.1831984815,
				"z": -1.6073329116,
				"element": "H" 
			},
			{
				"x": -2.8283715036,
				"y": 0.773703314,
				"z": -3.8600755538,
				"element": "H" 
			},
			{
				"x": -0.5438106767,
				"y": 1.4296434624,
				"z": -4.6442818302,
				"element": "H" 
			}
		],
		 "valence_orbital": [ 
			{
				"type": "occ",
				"energy": -0.31112,
				"method": "rhf"
			},
			{
				"type": "occ",
				"energy": -0.2985,
				"method": "rhf"
			},
			{
				"type": "occ",
				"energy": -0.27038,
				"method": "rhf"
			},
			{
				"type": "occ",
				"energy": -0.25809,
				"method": "rhf"
			},
			{
				"type": "occ",
				"energy": -0.23008,
				"method": "rhf"
			},
			{
				"type": "unocc",
				"energy": -0.04477,
				"method": "rhf"
			},
			{
				"type": "unocc",
				"energy": -0.04201,
				"method": "rhf"
			},
			{
				"type": "unocc",
				"energy": 0.00043,
				"method": "rhf"
			},
			{
				"type": "unocc",
				"energy": 0.01086,
				"method": "rhf"
			},
			{
				"type": "unocc",
				"energy": 0.06389,
				"method": "rhf"
			}
		],
		"cosmo_sigma_profile": { 
			"-0.025": 0.0,
			"-0.024": 0.0,
			"-0.023": 0.0,
			"-0.022": 0.0,
			"-0.021": 0.0,
			"-0.02": 0.0,
			"-0.019": 0.0,
			"-0.018": 0.0,
			"-0.017": 0.0,
			"-0.016": 0.0,
			"-0.015": 0.0,
			"-0.014": 0.0,
			"-0.013": 1.74399299401,
			"-0.012": 2.45173426998,
			"-0.011": 1.57859309619,
			"-0.01": 1.66358451849,
			"-0.009": 1.07372008692,
			"-0.008": 5.12213422241,
			"-0.007": 7.96745490897,
			"-0.006": 14.8721352689,
			"-0.005": 20.1066680092,
			"-0.004": 20.7729059724,
			"-0.003": 19.5210808828,
			"-0.002": 14.4338424202,
			"-0.001": 14.6874855739,
			"0.0": 14.3651124227,
			"0.001": 16.4206119846,
			"0.002": 21.5080384223,
			"0.003": 20.3861970554,
			"0.004": 16.7188460466,
			"0.005": 12.0492242801,
			"0.006": 8.66861366139,
			"0.007": 4.90972834363,
			"0.008": 4.45462506997,
			"0.009": 5.60413076961,
			"0.01": 4.04213535246,
			"0.011": 3.82282312933,
			"0.012": 5.1428590329,
			"0.013": 0.247214530509,
			"0.014": 0.0,
			"0.015": 0.0,
			"0.016": 0.0,
			"0.017": 0.0,
			"0.018": 0.0,
			"0.019": 0.0,
			"0.02": 0.0,
			"0.021": 0.0,
			"0.022": 0.0,
			"0.023": 0.0,
			"0.024": 0.0,
			"0.025": 0.0
		}
	}
}
