{
	 "smiles": "ClCC(=O)N1CCC(CC1)NC(=O)C1=CC=CC=C1", 
	 "Tm": 429.15, 
	 "num_atms": 36, 
	 "gaussian": { 
		 "optdone": 1, 
		 "sigma_profile": "yes", 
		 "theory": "DFT", 
		 "functional": "B3LYP", 
		 "basiset": "6-31G**", 
		 "properties": { 
			 "R2extent": 9891.2186, 
			 "electric_dipole_moment_norm": 4.88735004783, 
			 "electric_quadrupole_moment_norm": 28.9493716231, 
			 "total_energy": -1263.90787604, 
			 "HOMO_LUMO_gap": 0.20153, 
			 "cosmo_polarized_energy": -23.69, 
			 "cosmo_cavitation_energy": 40.1, 
			 "cosmo_dispersion_energy": -28.91, 
			 "cosmo_repulsion_energy": 2.24, 
			 "cosmo_total_nonelectrostatic_energy": 13.42, 
			 "SMD_solvation_energy": 5.92 
		},
		"coords": [
			{
				"x": 2.0039131696,
				"y": -5.9806934314,
				"z": 2.6249591132,
				"element": "Cl" 
			},
			{
				"x": 0.838634528,
				"y": -4.676779718,
				"z": 2.2446555405,
				"element": "C" 
			},
			{
				"x": 0.6259624084,
				"y": -4.503076349,
				"z": 0.7299059258,
				"element": "C" 
			},
			{
				"x": 1.1188621894,
				"y": -5.2592069531,
				"z": -0.0927696811,
				"element": "O" 
			},
			{
				"x": -0.1698383535,
				"y": -3.4377073413,
				"z": 0.386295893,
				"element": "N" 
			},
			{
				"x": -0.7326943633,
				"y": -2.4782294411,
				"z": 1.3514455573,
				"element": "C" 
			},
			{
				"x": -1.8407624366,
				"y": -1.6586390355,
				"z": 0.6908886136,
				"element": "C" 
			},
			{
				"x": -1.3324245415,
				"y": -0.8531085783,
				"z": -0.5264659802,
				"element": "C" 
			},
			{
				"x": -0.2619298331,
				"y": -1.6531504969,
				"z": -1.3064272005,
				"element": "C" 
			},
			{
				"x": -0.3657650387,
				"y": -3.1565772558,
				"z": -1.0435150701,
				"element": "C" 
			},
			{
				"x": -0.7720552285,
				"y": 0.4388734782,
				"z": -0.121992348,
				"element": "N" 
			},
			{
				"x": -1.5951528856,
				"y": 1.4806594209,
				"z": 0.2271122736,
				"element": "C" 
			},
			{
				"x": -2.8132417113,
				"y": 1.3380953184,
				"z": 0.3125523544,
				"element": "O" 
			},
			{
				"x": -0.9280808974,
				"y": 2.7992485792,
				"z": 0.5006616957,
				"element": "C" 
			},
			{
				"x": 0.4292127904,
				"y": 2.9251097771,
				"z": 0.83038202,
				"element": "C" 
			},
			{
				"x": 0.9806915064,
				"y": 4.1829844269,
				"z": 1.0747412019,
				"element": "C" 
			},
			{
				"x": 0.1813529087,
				"y": 5.3247528981,
				"z": 0.9921850308,
				"element": "C" 
			},
			{
				"x": -1.1748979286,
				"y": 5.204459793,
				"z": 0.6775167714,
				"element": "C" 
			},
			{
				"x": -1.7279107874,
				"y": 3.9483349242,
				"z": 0.4403138221,
				"element": "C" 
			},
			{
				"x": -0.1048948049,
				"y": -4.932344358,
				"z": 2.7335658305,
				"element": "H" 
			},
			{
				"x": 1.2172948721,
				"y": -3.7579981274,
				"z": 2.6972512004,
				"element": "H" 
			},
			{
				"x": -1.1441760398,
				"y": -3.0131210782,
				"z": 2.2130439813,
				"element": "H" 
			},
			{
				"x": 0.0472986041,
				"y": -1.8008471386,
				"z": 1.7321568779,
				"element": "H" 
			},
			{
				"x": -2.2899421892,
				"y": -0.975107338,
				"z": 1.4138305472,
				"element": "H" 
			},
			{
				"x": -2.6370014837,
				"y": -2.3353137042,
				"z": 0.3612140932,
				"element": "H" 
			},
			{
				"x": -2.1978872637,
				"y": -0.6513937814,
				"z": -1.1676486852,
				"element": "H" 
			},
			{
				"x": -0.3375024466,
				"y": -1.4568299429,
				"z": -2.3806469514,
				"element": "H" 
			},
			{
				"x": 0.7405139193,
				"y": -1.3312342423,
				"z": -0.9933369384,
				"element": "H" 
			},
			{
				"x": 0.4016504949,
				"y": -3.7100214078,
				"z": -1.5849494265,
				"element": "H" 
			},
			{
				"x": -1.3388680058,
				"y": -3.5407011371,
				"z": -1.3790812033,
				"element": "H" 
			},
			{
				"x": 0.1654602769,
				"y": 0.6588322445,
				"z": -0.423404621,
				"element": "H" 
			},
			{
				"x": 1.0547748745,
				"y": 2.0429253102,
				"z": 0.9351163191,
				"element": "H" 
			},
			{
				"x": 2.030737293,
				"y": 4.270255037,
				"z": 1.3380126547,
				"element": "H" 
			},
			{
				"x": 0.6121366771,
				"y": 6.3038679558,
				"z": 1.1807910338,
				"element": "H" 
			},
			{
				"x": -1.8005665688,
				"y": 6.090387741,
				"z": 0.6204186651,
				"element": "H" 
			},
			{
				"x": -2.7805037048,
				"y": 3.8284939516,
				"z": 0.2072210893,
				"element": "H" 
			}
		],
		 "valence_orbital": [ 
			{
				"type": "occ",
				"energy": -0.26576,
				"method": "rhf"
			},
			{
				"type": "occ",
				"energy": -0.26144,
				"method": "rhf"
			},
			{
				"type": "occ",
				"energy": -0.25695,
				"method": "rhf"
			},
			{
				"type": "occ",
				"energy": -0.25549,
				"method": "rhf"
			},
			{
				"type": "occ",
				"energy": -0.24511,
				"method": "rhf"
			},
			{
				"type": "unocc",
				"energy": -0.04358,
				"method": "rhf"
			},
			{
				"type": "unocc",
				"energy": -0.01582,
				"method": "rhf"
			},
			{
				"type": "unocc",
				"energy": 0.01739,
				"method": "rhf"
			},
			{
				"type": "unocc",
				"energy": 0.02939,
				"method": "rhf"
			},
			{
				"type": "unocc",
				"energy": 0.04813,
				"method": "rhf"
			}
		],
		"cosmo_sigma_profile": { 
			"-0.025": 0.0,
			"-0.024": 0.0,
			"-0.023": 0.0,
			"-0.022": 0.0,
			"-0.021": 0.0,
			"-0.02": 0.0,
			"-0.019": 0.0,
			"-0.018": 0.0,
			"-0.017": 0.0,
			"-0.016": 0.0,
			"-0.015": 0.0,
			"-0.014": 0.239165028326,
			"-0.013": 0.705014167077,
			"-0.012": 1.22517566729,
			"-0.011": 1.67295073749,
			"-0.01": 1.9670657137,
			"-0.009": 5.20839137276,
			"-0.008": 7.71266950003,
			"-0.007": 8.70061791192,
			"-0.006": 14.2831263048,
			"-0.005": 24.1274944007,
			"-0.004": 34.6209878934,
			"-0.003": 31.9739163513,
			"-0.002": 21.8195305716,
			"-0.001": 18.3144784034,
			"0.0": 17.3404508431,
			"0.001": 16.5019331245,
			"0.002": 14.1664350533,
			"0.003": 14.9794550738,
			"0.004": 18.2722235576,
			"0.005": 15.0221193364,
			"0.006": 10.616870745,
			"0.007": 4.97700536299,
			"0.008": 4.24078900256,
			"0.009": 2.99137889616,
			"0.01": 2.96852356319,
			"0.011": 4.12594403823,
			"0.012": 4.21773341814,
			"0.013": 6.90367391357,
			"0.014": 7.44218664742,
			"0.015": 1.37024249806,
			"0.016": 0.0499036531764,
			"0.017": 0.0,
			"0.018": 0.0,
			"0.019": 0.0,
			"0.02": 0.0,
			"0.021": 0.0,
			"0.022": 0.0,
			"0.023": 0.0,
			"0.024": 0.0,
			"0.025": 0.0
		}
	}
}
