{
	 "smiles": "BrC1=CC(C#N)=C(C=C1)N=C=O", 
	 "Tm": 371.15, 
	 "num_atms": 15, 
	 "gaussian": { 
		 "optdone": 1, 
		 "sigma_profile": "yes", 
		 "theory": "DFT", 
		 "functional": "B3LYP", 
		 "basiset": "6-31G**", 
		 "properties": { 
			 "R2extent": 4451.9956, 
			 "electric_dipole_moment_norm": 4.3215961704, 
			 "electric_quadrupole_moment_norm": 12.0315385986, 
			 "total_energy": -3062.76653465, 
			 "HOMO_LUMO_gap": 0.18225, 
			 "cosmo_polarized_energy": -10.53, 
			 "cosmo_cavitation_energy": 25.14, 
			 "cosmo_dispersion_energy": -17.77, 
			 "cosmo_repulsion_energy": 1.43, 
			 "cosmo_total_nonelectrostatic_energy": 8.8, 
			 "SMD_solvation_energy": 6.99 
		},
		"coords": [
			{
				"x": -3.1530730749,
				"y": 1.8869008744,
				"z": -0.0567617561,
				"element": "Br" 
			},
			{
				"x": -1.4108539932,
				"y": 1.4164854279,
				"z": 0.5494532319,
				"element": "C" 
			},
			{
				"x": -1.2591780519,
				"y": 0.3878527619,
				"z": 1.4712341819,
				"element": "C" 
			},
			{
				"x": 0.0249806934,
				"y": 0.0396683025,
				"z": 1.919177899,
				"element": "C" 
			},
			{
				"x": 0.1766909605,
				"y": -1.0211042267,
				"z": 2.8691177772,
				"element": "C" 
			},
			{
				"x": 0.2719111734,
				"y": -1.88594508,
				"z": 3.6405567006,
				"element": "N" 
			},
			{
				"x": 1.1559370952,
				"y": 0.7329594209,
				"z": 1.4338877013,
				"element": "C" 
			},
			{
				"x": 0.9744437198,
				"y": 1.7666856008,
				"z": 0.5044273812,
				"element": "C" 
			},
			{
				"x": -0.2992153562,
				"y": 2.1086429991,
				"z": 0.0630819608,
				"element": "C" 
			},
			{
				"x": 2.4074673223,
				"y": 0.3606312768,
				"z": 1.8995981329,
				"element": "N" 
			},
			{
				"x": 3.5729982155,
				"y": 0.6634101606,
				"z": 1.7610188389,
				"element": "C" 
			},
			{
				"x": 4.7307113494,
				"y": 0.8578502705,
				"z": 1.7169267552,
				"element": "O" 
			},
			{
				"x": -2.1205927073,
				"y": -0.1491799901,
				"z": 1.8487521521,
				"element": "H" 
			},
			{
				"x": 1.8402686465,
				"y": 2.3024132772,
				"z": 0.1286016967,
				"element": "H" 
			},
			{
				"x": -0.4288959926,
				"y": 2.9094289241,
				"z": -0.6557726535,
				"element": "H" 
			}
		],
		 "valence_orbital": [ 
			{
				"type": "occ",
				"energy": -0.33228,
				"method": "rhf"
			},
			{
				"type": "occ",
				"energy": -0.31533,
				"method": "rhf"
			},
			{
				"type": "occ",
				"energy": -0.30926,
				"method": "rhf"
			},
			{
				"type": "occ",
				"energy": -0.29043,
				"method": "rhf"
			},
			{
				"type": "occ",
				"energy": -0.25606,
				"method": "rhf"
			},
			{
				"type": "unocc",
				"energy": -0.07381,
				"method": "rhf"
			},
			{
				"type": "unocc",
				"energy": -0.05589,
				"method": "rhf"
			},
			{
				"type": "unocc",
				"energy": -0.02312,
				"method": "rhf"
			},
			{
				"type": "unocc",
				"energy": -0.00579,
				"method": "rhf"
			},
			{
				"type": "unocc",
				"energy": 0.0267,
				"method": "rhf"
			}
		],
		"cosmo_sigma_profile": { 
			"-0.025": 0.0,
			"-0.024": 0.0,
			"-0.023": 0.0,
			"-0.022": 0.0,
			"-0.021": 0.0,
			"-0.02": 0.0,
			"-0.019": 0.0,
			"-0.018": 0.0,
			"-0.017": 0.0,
			"-0.016": 0.0,
			"-0.015": 0.0,
			"-0.014": 0.0,
			"-0.013": 0.0,
			"-0.012": 0.0,
			"-0.011": 0.0,
			"-0.01": 2.04175959493,
			"-0.009": 5.61019172849,
			"-0.008": 7.94628292773,
			"-0.007": 6.70954137356,
			"-0.006": 6.01367337977,
			"-0.005": 8.74398353777,
			"-0.004": 11.4305076309,
			"-0.003": 14.6396101529,
			"-0.002": 18.0948946269,
			"-0.001": 20.4873979624,
			"0.0": 21.0417578695,
			"0.001": 12.7574711426,
			"0.002": 10.1215228919,
			"0.003": 13.8230623481,
			"0.004": 12.8942967575,
			"0.005": 6.23151568981,
			"0.006": 9.19422838612,
			"0.007": 6.51375755228,
			"0.008": 3.3641492849,
			"0.009": 3.32197941317,
			"0.01": 2.84014664187,
			"0.011": 2.67373166015,
			"0.012": 2.07646616314,
			"0.013": 0.515390833668,
			"0.014": 0.0,
			"0.015": 0.0,
			"0.016": 0.0,
			"0.017": 0.0,
			"0.018": 0.0,
			"0.019": 0.0,
			"0.02": 0.0,
			"0.021": 0.0,
			"0.022": 0.0,
			"0.023": 0.0,
			"0.024": 0.0,
			"0.025": 0.0
		}
	}
}
