{
	 "smiles": "[O-][N+](=O)C1=CC=C(NN=CC2=CC=CC3=C(Br)C=CC(=C23)[N+]([O-])=O)C(=C1)[N+]([O-])=O", 
	 "Tm": 517.15, 
	 "num_atms": 39, 
	 "gaussian": { 
		 "optdone": 1, 
		 "sigma_profile": "yes", 
		 "theory": "DFT", 
		 "functional": "B3LYP", 
		 "basiset": "6-31G**", 
		 "properties": { 
			 "R2extent": 22013.2182, 
			 "electric_dipole_moment_norm": 9.42845755943, 
			 "electric_quadrupole_moment_norm": 17.0219813315, 
			 "total_energy": -3950.0040579, 
			 "HOMO_LUMO_gap": 0.12139, 
			 "cosmo_polarized_energy": -20.62, 
			 "cosmo_cavitation_energy": 49.19, 
			 "cosmo_dispersion_energy": -35.02, 
			 "cosmo_repulsion_energy": 2.56, 
			 "cosmo_total_nonelectrostatic_energy": 16.73, 
			 "SMD_solvation_energy": 13.01 
		},
		"coords": [
			{
				"x": 5.404731532,
				"y": 4.1717213732,
				"z": 3.0695245528,
				"element": "O" 
			},
			{
				"x": 5.4576839635,
				"y": 3.9822404148,
				"z": 1.8527212591,
				"element": "N" 
			},
			{
				"x": 6.3152451997,
				"y": 4.450598878,
				"z": 1.1039131381,
				"element": "O" 
			},
			{
				"x": 4.4233461533,
				"y": 3.1369670919,
				"z": 1.2605529043,
				"element": "C" 
			},
			{
				"x": 3.4248455187,
				"y": 2.5853584141,
				"z": 2.0795561397,
				"element": "C" 
			},
			{
				"x": 2.4494410827,
				"y": 1.7879070161,
				"z": 1.5248128462,
				"element": "C" 
			},
			{
				"x": 2.4276537454,
				"y": 1.5055013232,
				"z": 0.1330976576,
				"element": "C" 
			},
			{
				"x": 1.4546313648,
				"y": 0.7098231861,
				"z": -0.3937974965,
				"element": "N" 
			},
			{
				"x": 0.4994447352,
				"y": 0.1622051954,
				"z": 0.3983439371,
				"element": "N" 
			},
			{
				"x": -0.4092551458,
				"y": -0.5305566194,
				"z": -0.1940306034,
				"element": "C" 
			},
			{
				"x": -1.4294975259,
				"y": -1.2480784992,
				"z": 0.5834474305,
				"element": "C" 
			},
			{
				"x": -1.1096330067,
				"y": -1.635821764,
				"z": 1.8780745681,
				"element": "C" 
			},
			{
				"x": -1.9536824459,
				"y": -2.4663201847,
				"z": 2.6319894749,
				"element": "C" 
			},
			{
				"x": -3.1012658795,
				"y": -2.9737322734,
				"z": 2.0691658349,
				"element": "C" 
			},
			{
				"x": -3.4902690544,
				"y": -2.607072097,
				"z": 0.7556184505,
				"element": "C" 
			},
			{
				"x": -4.6590462514,
				"y": -3.1486121687,
				"z": 0.1364325143,
				"element": "C" 
			},
			{
				"x": -5.7535000102,
				"y": -4.4086218206,
				"z": 1.0614579797,
				"element": "Br" 
			},
			{
				"x": -5.0430372075,
				"y": -2.8003946025,
				"z": -1.1369870297,
				"element": "C" 
			},
			{
				"x": -4.3078576486,
				"y": -1.8261087466,
				"z": -1.8317619434,
				"element": "C" 
			},
			{
				"x": -3.1989259677,
				"y": -1.2494405685,
				"z": -1.2538945386,
				"element": "C" 
			},
			{
				"x": -2.6848846515,
				"y": -1.663524442,
				"z": 0.0148223708,
				"element": "C" 
			},
			{
				"x": -2.6740043337,
				"y": -0.0806175306,
				"z": -1.9792250688,
				"element": "N" 
			},
			{
				"x": -2.6110594214,
				"y": -0.1519944174,
				"z": -3.206146789,
				"element": "O" 
			},
			{
				"x": -2.3792504704,
				"y": 0.9126797483,
				"z": -1.3138292262,
				"element": "O" 
			},
			{
				"x": 3.4587056389,
				"y": 2.0863190239,
				"z": -0.6676489253,
				"element": "C" 
			},
			{
				"x": 4.4444036518,
				"y": 2.8945846885,
				"z": -0.0992574356,
				"element": "C" 
			},
			{
				"x": 3.5487362354,
				"y": 1.8720568481,
				"z": -2.1046222617,
				"element": "N" 
			},
			{
				"x": 4.4718506878,
				"y": 2.3972481757,
				"z": -2.7186956974,
				"element": "O" 
			},
			{
				"x": 2.6860007054,
				"y": 1.1612144464,
				"z": -2.6556789847,
				"element": "O" 
			},
			{
				"x": 3.4365382835,
				"y": 2.8001054283,
				"z": 3.1409910976,
				"element": "H" 
			},
			{
				"x": 1.667410737,
				"y": 1.3593543301,
				"z": 2.1362665817,
				"element": "H" 
			},
			{
				"x": 1.4704987981,
				"y": 0.5779555111,
				"z": -1.406517482,
				"element": "H" 
			},
			{
				"x": -0.3938503477,
				"y": -0.6584135922,
				"z": -1.2793258856,
				"element": "H" 
			},
			{
				"x": -0.1567081951,
				"y": -1.3161157261,
				"z": 2.284330678,
				"element": "H" 
			},
			{
				"x": -1.6700844134,
				"y": -2.7492523614,
				"z": 3.6406606231,
				"element": "H" 
			},
			{
				"x": -3.7211001755,
				"y": -3.6702601133,
				"z": 2.6195058852,
				"element": "H" 
			},
			{
				"x": -5.9251534916,
				"y": -3.2393764917,
				"z": -1.5864119496,
				"element": "H" 
			},
			{
				"x": -4.6300740049,
				"y": -1.4840091208,
				"z": -2.8078672158,
				"element": "H" 
			},
			{
				"x": 5.2145716154,
				"y": 3.3219820468,
				"z": -0.7263873907,
				"element": "H" 
			}
		],
		 "valence_orbital": [ 
			{
				"type": "occ",
				"energy": -0.29576,
				"method": "rhf"
			},
			{
				"type": "occ",
				"energy": -0.29268,
				"method": "rhf"
			},
			{
				"type": "occ",
				"energy": -0.28881,
				"method": "rhf"
			},
			{
				"type": "occ",
				"energy": -0.26281,
				"method": "rhf"
			},
			{
				"type": "occ",
				"energy": -0.23223,
				"method": "rhf"
			},
			{
				"type": "unocc",
				"energy": -0.11084,
				"method": "rhf"
			},
			{
				"type": "unocc",
				"energy": -0.10607,
				"method": "rhf"
			},
			{
				"type": "unocc",
				"energy": -0.096,
				"method": "rhf"
			},
			{
				"type": "unocc",
				"energy": -0.07731,
				"method": "rhf"
			},
			{
				"type": "unocc",
				"energy": -0.05479,
				"method": "rhf"
			}
		],
		"cosmo_sigma_profile": { 
			"-0.025": 0.0,
			"-0.024": 0.0,
			"-0.023": 0.0,
			"-0.022": 0.0,
			"-0.021": 0.0,
			"-0.02": 0.0,
			"-0.019": 0.0,
			"-0.018": 0.0,
			"-0.017": 0.0,
			"-0.016": 0.0,
			"-0.015": 0.0681207969383,
			"-0.014": 0.925941573205,
			"-0.013": 0.774364892558,
			"-0.012": 1.12285100293,
			"-0.011": 1.18407033054,
			"-0.01": 1.60913292206,
			"-0.009": 5.42163407021,
			"-0.008": 9.05751503126,
			"-0.007": 16.3224270509,
			"-0.006": 18.0675236907,
			"-0.005": 21.6580009062,
			"-0.004": 20.7196981844,
			"-0.003": 26.5308663031,
			"-0.002": 33.9148478365,
			"-0.001": 37.4086925133,
			"0.0": 41.5131684489,
			"0.001": 29.3880008757,
			"0.002": 23.1294375694,
			"0.003": 18.4836474155,
			"0.004": 9.84862676078,
			"0.005": 11.144854868,
			"0.006": 13.4411080391,
			"0.007": 22.7403402201,
			"0.008": 18.9644786479,
			"0.009": 12.0440351088,
			"0.01": 5.38276891041,
			"0.011": 0.28003773057,
			"0.012": 0.0,
			"0.013": 0.0,
			"0.014": 0.0,
			"0.015": 0.0,
			"0.016": 0.0,
			"0.017": 0.0,
			"0.018": 0.0,
			"0.019": 0.0,
			"0.02": 0.0,
			"0.021": 0.0,
			"0.022": 0.0,
			"0.023": 0.0,
			"0.024": 0.0,
			"0.025": 0.0
		}
	}
}
