{
	 "smiles": "FC1=CC(F)=C(Br)C(Br)=C1", 
	 "Tm": 310.15, 
	 "num_atms": 12, 
	 "gaussian": { 
		 "optdone": 1, 
		 "sigma_profile": "yes", 
		 "theory": "DFT", 
		 "functional": "B3LYP", 
		 "basiset": "6-31G**", 
		 "properties": { 
			 "R2extent": 3282.7304, 
			 "electric_dipole_moment_norm": 1.07750212065, 
			 "electric_quadrupole_moment_norm": 2.56653906847, 
			 "total_energy": -5572.30705916, 
			 "HOMO_LUMO_gap": 0.21398, 
			 "cosmo_polarized_energy": -3.55, 
			 "cosmo_cavitation_energy": 22.16, 
			 "cosmo_dispersion_energy": -17.0, 
			 "cosmo_repulsion_energy": 1.32, 
			 "cosmo_total_nonelectrostatic_energy": 6.48, 
			 "SMD_solvation_energy": 2.74 
		},
		"coords": [
			{
				"x": 3.0406554463,
				"y": 0.4660652216,
				"z": 1.1199140269,
				"element": "F" 
			},
			{
				"x": 1.9277586732,
				"y": -0.0110582384,
				"z": 0.5389496416,
				"element": "C" 
			},
			{
				"x": 1.4972553625,
				"y": -1.2906938622,
				"z": 0.8653157053,
				"element": "C" 
			},
			{
				"x": 0.3439833443,
				"y": -1.7569750253,
				"z": 0.2491685772,
				"element": "C" 
			},
			{
				"x": -0.0842685951,
				"y": -2.9881426065,
				"z": 0.5528637609,
				"element": "F" 
			},
			{
				"x": -0.3796546876,
				"y": -0.98949916,
				"z": -0.670874231,
				"element": "C" 
			},
			{
				"x": -1.9358923455,
				"y": -1.7350145407,
				"z": -1.4431761319,
				"element": "Br" 
			},
			{
				"x": 0.0921011803,
				"y": 0.2957162499,
				"z": -0.9696947786,
				"element": "C" 
			},
			{
				"x": -0.8146984937,
				"y": 1.4169175835,
				"z": -2.2028392457,
				"element": "Br" 
			},
			{
				"x": 1.2485878841,
				"y": 0.7932423012,
				"z": -0.3669029769,
				"element": "C" 
			},
			{
				"x": 2.0349849487,
				"y": -1.9088883307,
				"z": 1.5731610056,
				"element": "H" 
			},
			{
				"x": 1.6154872826,
				"y": 1.7853304077,
				"z": -0.5954853533,
				"element": "H" 
			}
		],
		 "valence_orbital": [ 
			{
				"type": "occ",
				"energy": -0.32506,
				"method": "rhf"
			},
			{
				"type": "occ",
				"energy": -0.31628,
				"method": "rhf"
			},
			{
				"type": "occ",
				"energy": -0.28714,
				"method": "rhf"
			},
			{
				"type": "occ",
				"energy": -0.26563,
				"method": "rhf"
			},
			{
				"type": "occ",
				"energy": -0.25301,
				"method": "rhf"
			},
			{
				"type": "unocc",
				"energy": -0.03903,
				"method": "rhf"
			},
			{
				"type": "unocc",
				"energy": -0.03537,
				"method": "rhf"
			},
			{
				"type": "unocc",
				"energy": -0.02587,
				"method": "rhf"
			},
			{
				"type": "unocc",
				"energy": 0.02573,
				"method": "rhf"
			},
			{
				"type": "unocc",
				"energy": 0.09402,
				"method": "rhf"
			}
		],
		"cosmo_sigma_profile": { 
			"-0.025": 0.0,
			"-0.024": 0.0,
			"-0.023": 0.0,
			"-0.022": 0.0,
			"-0.021": 0.0,
			"-0.02": 0.0,
			"-0.019": 0.0,
			"-0.018": 0.0,
			"-0.017": 0.0,
			"-0.016": 0.0,
			"-0.015": 0.0,
			"-0.014": 0.0,
			"-0.013": 0.0,
			"-0.012": 0.0,
			"-0.011": 0.0,
			"-0.01": 0.697386680062,
			"-0.009": 2.73877596696,
			"-0.008": 3.20967564208,
			"-0.007": 2.77869278172,
			"-0.006": 4.04622713061,
			"-0.005": 6.47244924615,
			"-0.004": 5.54770472516,
			"-0.003": 7.13190407487,
			"-0.002": 17.0263977395,
			"-0.001": 26.1454239128,
			"0.0": 24.2438465625,
			"0.001": 14.5051796822,
			"0.002": 15.1725769384,
			"0.003": 35.087272606,
			"0.004": 18.400688869,
			"0.005": 2.56532680396,
			"0.006": 0.0,
			"0.007": 0.0,
			"0.008": 0.0,
			"0.009": 0.0,
			"0.01": 0.0,
			"0.011": 0.0,
			"0.012": 0.0,
			"0.013": 0.0,
			"0.014": 0.0,
			"0.015": 0.0,
			"0.016": 0.0,
			"0.017": 0.0,
			"0.018": 0.0,
			"0.019": 0.0,
			"0.02": 0.0,
			"0.021": 0.0,
			"0.022": 0.0,
			"0.023": 0.0,
			"0.024": 0.0,
			"0.025": 0.0
		}
	}
}
