{
	 "smiles": "O1C2C=CC1C1=CC=CC=C21", 
	 "Tm": 328.65, 
	 "num_atms": 19, 
	 "gaussian": { 
		 "optdone": 1, 
		 "sigma_profile": "yes", 
		 "theory": "DFT", 
		 "functional": "B3LYP", 
		 "basiset": "6-31G**", 
		 "properties": { 
			 "R2extent": 1714.827, 
			 "electric_dipole_moment_norm": 1.67007052845, 
			 "electric_quadrupole_moment_norm": 8.9125506035, 
			 "total_energy": -461.034314887, 
			 "HOMO_LUMO_gap": 0.19988, 
			 "cosmo_polarized_energy": -7.33, 
			 "cosmo_cavitation_energy": 21.98, 
			 "cosmo_dispersion_energy": -16.76, 
			 "cosmo_repulsion_energy": 1.34, 
			 "cosmo_total_nonelectrostatic_energy": 6.57, 
			 "SMD_solvation_energy": 3.33 
		},
		"coords": [
			{
				"x": -2.1479021287,
				"y": -1.3480502006,
				"z": -0.1710486389,
				"element": "O" 
			},
			{
				"x": -0.9063988265,
				"y": -1.537276707,
				"z": 0.5450903666,
				"element": "C" 
			},
			{
				"x": -0.8762471308,
				"y": -0.2528786461,
				"z": 1.3997317023,
				"element": "C" 
			},
			{
				"x": -1.4511705025,
				"y": 0.6849161466,
				"z": 0.6447008305,
				"element": "C" 
			},
			{
				"x": -1.8313036827,
				"y": -0.0285274474,
				"z": -0.6696557828,
				"element": "C" 
			},
			{
				"x": -0.5142203282,
				"y": -0.3379527075,
				"z": -1.4026187785,
				"element": "C" 
			},
			{
				"x": 0.0952817592,
				"y": 0.1321297036,
				"z": -2.5486014972,
				"element": "C" 
			},
			{
				"x": 1.3449372978,
				"y": -0.4161560971,
				"z": -2.9029538646,
				"element": "C" 
			},
			{
				"x": 1.9447204225,
				"y": -1.3946996568,
				"z": -2.1151974341,
				"element": "C" 
			},
			{
				"x": 1.3183699804,
				"y": -1.8632902754,
				"z": -0.9421953384,
				"element": "C" 
			},
			{
				"x": 0.0916019606,
				"y": -1.3262752359,
				"z": -0.6069354055,
				"element": "C" 
			},
			{
				"x": -0.8882502524,
				"y": -2.4958839063,
				"z": 1.0629046112,
				"element": "H" 
			},
			{
				"x": -0.3986399264,
				"y": -0.1532459594,
				"z": 2.3661261124,
				"element": "H" 
			},
			{
				"x": -1.5618817334,
				"y": 1.7442402529,
				"z": 0.8384222839,
				"element": "H" 
			},
			{
				"x": -2.653111499,
				"y": 0.3830382757,
				"z": -1.2550058164,
				"element": "H" 
			},
			{
				"x": -0.3674869494,
				"y": 0.8939192727,
				"z": -3.1705560484,
				"element": "H" 
			},
			{
				"x": 1.8426358291,
				"y": -0.0728472716,
				"z": -3.8054713697,
				"element": "H" 
			},
			{
				"x": 2.9056866989,
				"y": -1.8072158588,
				"z": -2.4092684863,
				"element": "H" 
			},
			{
				"x": 1.7921790115,
				"y": -2.6294436814,
				"z": -0.3340674461,
				"element": "H" 
			}
		],
		 "valence_orbital": [ 
			{
				"type": "occ",
				"energy": -0.33671,
				"method": "rhf"
			},
			{
				"type": "occ",
				"energy": -0.26403,
				"method": "rhf"
			},
			{
				"type": "occ",
				"energy": -0.26071,
				"method": "rhf"
			},
			{
				"type": "occ",
				"energy": -0.24956,
				"method": "rhf"
			},
			{
				"type": "occ",
				"energy": -0.21988,
				"method": "rhf"
			},
			{
				"type": "unocc",
				"energy": -0.02,
				"method": "rhf"
			},
			{
				"type": "unocc",
				"energy": 0.00352,
				"method": "rhf"
			},
			{
				"type": "unocc",
				"energy": 0.02828,
				"method": "rhf"
			},
			{
				"type": "unocc",
				"energy": 0.09813,
				"method": "rhf"
			},
			{
				"type": "unocc",
				"energy": 0.10787,
				"method": "rhf"
			}
		],
		"cosmo_sigma_profile": { 
			"-0.025": 0.0,
			"-0.024": 0.0,
			"-0.023": 0.0,
			"-0.022": 0.0,
			"-0.021": 0.0,
			"-0.02": 0.0,
			"-0.019": 0.0,
			"-0.018": 0.0,
			"-0.017": 0.0,
			"-0.016": 0.0,
			"-0.015": 0.0,
			"-0.014": 0.0,
			"-0.013": 0.0,
			"-0.012": 0.0,
			"-0.011": 0.0,
			"-0.01": 0.0,
			"-0.009": 0.0,
			"-0.008": 0.170404471927,
			"-0.007": 5.94099284973,
			"-0.006": 12.6761525367,
			"-0.005": 17.8241317313,
			"-0.004": 18.8953492698,
			"-0.003": 15.3024850344,
			"-0.002": 11.0480910138,
			"-0.001": 10.8528277147,
			"0.0": 8.98883311821,
			"0.001": 8.83878279331,
			"0.002": 8.79650933773,
			"0.003": 9.51470946836,
			"0.004": 10.3326547997,
			"0.005": 11.5058648658,
			"0.006": 11.1551054565,
			"0.007": 3.11709647523,
			"0.008": 1.82460268255,
			"0.009": 1.54621285145,
			"0.01": 1.68685603194,
			"0.011": 1.51378554754,
			"0.012": 2.03361161848,
			"0.013": 2.46514941518,
			"0.014": 0.155841541687,
			"0.015": 0.0,
			"0.016": 0.0,
			"0.017": 0.0,
			"0.018": 0.0,
			"0.019": 0.0,
			"0.02": 0.0,
			"0.021": 0.0,
			"0.022": 0.0,
			"0.023": 0.0,
			"0.024": 0.0,
			"0.025": 0.0
		}
	}
}
