{
	 "smiles": "CC1=NC2=C(NC(=O)CN2)C(C)=C1", 
	 "Tm": 483.15, 
	 "num_atms": 24, 
	 "gaussian": { 
		 "optdone": 1, 
		 "sigma_profile": "yes", 
		 "theory": "DFT", 
		 "functional": "B3LYP", 
		 "basiset": "6-31G**", 
		 "properties": { 
			 "R2extent": 2954.476, 
			 "electric_dipole_moment_norm": 2.39789888653, 
			 "electric_quadrupole_moment_norm": 10.9804459946, 
			 "total_energy": -589.102371648, 
			 "HOMO_LUMO_gap": 0.17949, 
			 "cosmo_polarized_energy": -13.78, 
			 "cosmo_cavitation_energy": 27.12, 
			 "cosmo_dispersion_energy": -20.36, 
			 "cosmo_repulsion_energy": 1.62, 
			 "cosmo_total_nonelectrostatic_energy": 8.38, 
			 "SMD_solvation_energy": 2.75 
		},
		"coords": [
			{
				"x": 2.4643279605,
				"y": 0.5069173642,
				"z": 4.2957581741,
				"element": "C" 
			},
			{
				"x": 1.6154219379,
				"y": 0.3768106864,
				"z": 3.0563691485,
				"element": "C" 
			},
			{
				"x": 1.8483979007,
				"y": 1.2764258157,
				"z": 2.0805558723,
				"element": "N" 
			},
			{
				"x": 1.1131944828,
				"y": 1.208899332,
				"z": 0.9739030748,
				"element": "C" 
			},
			{
				"x": 0.1068110834,
				"y": 0.2387592608,
				"z": 0.7663893901,
				"element": "C" 
			},
			{
				"x": -0.6286038543,
				"y": 0.2981093328,
				"z": -0.4327075649,
				"element": "N" 
			},
			{
				"x": -0.2898472348,
				"y": 1.0539045697,
				"z": -1.5289350197,
				"element": "C" 
			},
			{
				"x": -0.9571852949,
				"y": 1.0663990469,
				"z": -2.5502140695,
				"element": "O" 
			},
			{
				"x": 1.0212928991,
				"y": 1.8262048935,
				"z": -1.3934503692,
				"element": "C" 
			},
			{
				"x": 1.3035921793,
				"y": 2.1667429415,
				"z": -0.0069773482,
				"element": "N" 
			},
			{
				"x": -0.1297793309,
				"y": -0.707107474,
				"z": 1.7614362367,
				"element": "C" 
			},
			{
				"x": -1.1901730331,
				"y": -1.7665183217,
				"z": 1.5956941602,
				"element": "C" 
			},
			{
				"x": 0.6496578646,
				"y": -0.6199178858,
				"z": 2.9268215358,
				"element": "C" 
			},
			{
				"x": 2.3169286005,
				"y": 1.4880620147,
				"z": 4.7599665527,
				"element": "H" 
			},
			{
				"x": 2.2251544003,
				"y": -0.2649163806,
				"z": 5.0318331856,
				"element": "H" 
			},
			{
				"x": 3.5273912362,
				"y": 0.4304607275,
				"z": 4.0435979383,
				"element": "H" 
			},
			{
				"x": -1.4687144767,
				"y": -0.2550803175,
				"z": -0.5375067957,
				"element": "H" 
			},
			{
				"x": 1.8106904467,
				"y": 1.2104351252,
				"z": -1.8618552914,
				"element": "H" 
			},
			{
				"x": 0.9193759306,
				"y": 2.7352119161,
				"z": -1.9896448207,
				"element": "H" 
			},
			{
				"x": 2.11639843,
				"y": 2.7456480347,
				"z": 0.161877905,
				"element": "H" 
			},
			{
				"x": -1.0376136204,
				"y": -2.3507664055,
				"z": 0.6800070353,
				"element": "H" 
			},
			{
				"x": -1.1823895771,
				"y": -2.4609268373,
				"z": 2.4386785636,
				"element": "H" 
			},
			{
				"x": -2.1960782858,
				"y": -1.3299970777,
				"z": 1.5409264036,
				"element": "H" 
			},
			{
				"x": 0.4950493554,
				"y": -1.3356603616,
				"z": 3.7281761026,
				"element": "H" 
			}
		],
		 "valence_orbital": [ 
			{
				"type": "occ",
				"energy": -0.29948,
				"method": "rhf"
			},
			{
				"type": "occ",
				"energy": -0.26228,
				"method": "rhf"
			},
			{
				"type": "occ",
				"energy": -0.25942,
				"method": "rhf"
			},
			{
				"type": "occ",
				"energy": -0.24471,
				"method": "rhf"
			},
			{
				"type": "occ",
				"energy": -0.19894,
				"method": "rhf"
			},
			{
				"type": "unocc",
				"energy": -0.01945,
				"method": "rhf"
			},
			{
				"type": "unocc",
				"energy": 0.00061,
				"method": "rhf"
			},
			{
				"type": "unocc",
				"energy": 0.03496,
				"method": "rhf"
			},
			{
				"type": "unocc",
				"energy": 0.07074,
				"method": "rhf"
			},
			{
				"type": "unocc",
				"energy": 0.0967,
				"method": "rhf"
			}
		],
		"cosmo_sigma_profile": { 
			"-0.025": 0.0,
			"-0.024": 0.0,
			"-0.023": 0.0,
			"-0.022": 0.0,
			"-0.021": 0.0,
			"-0.02": 0.0,
			"-0.019": 0.0,
			"-0.018": 0.0,
			"-0.017": 0.0,
			"-0.016": 0.0,
			"-0.015": 0.0325363436114,
			"-0.014": 0.5596303793,
			"-0.013": 1.4326228258,
			"-0.012": 2.20367693514,
			"-0.011": 2.37521561298,
			"-0.01": 2.22582268304,
			"-0.009": 2.32052874338,
			"-0.008": 2.62519041271,
			"-0.007": 4.0074080706,
			"-0.006": 9.92567619299,
			"-0.005": 16.6767171259,
			"-0.004": 17.3738923027,
			"-0.003": 15.7309355488,
			"-0.002": 16.3515939796,
			"-0.001": 16.6822425388,
			"0.0": 19.7774527052,
			"0.001": 14.1935671144,
			"0.002": 10.9194765024,
			"0.003": 9.73331675177,
			"0.004": 9.5940803357,
			"0.005": 6.63164670097,
			"0.006": 4.30267069001,
			"0.007": 2.90494541342,
			"0.008": 2.80839250643,
			"0.009": 3.11326261128,
			"0.01": 2.77852348013,
			"0.011": 2.68472901772,
			"0.012": 4.3432643028,
			"0.013": 6.60900710859,
			"0.014": 2.47533886677,
			"0.015": 0.519716882858,
			"0.016": 0.36209752309,
			"0.017": 0.0,
			"0.018": 0.0,
			"0.019": 0.0,
			"0.02": 0.0,
			"0.021": 0.0,
			"0.022": 0.0,
			"0.023": 0.0,
			"0.024": 0.0,
			"0.025": 0.0
		}
	}
}
