{
	 "smiles": "OC(=O)C1=C2C=NN(CC3=CC=NC=C3)C2=NC(=C1)C1CC1", 
	 "Tm": 512.15, 
	 "num_atms": 36, 
	 "gaussian": { 
		 "optdone": 1, 
		 "sigma_profile": "yes", 
		 "theory": "DFT", 
		 "functional": "B3LYP", 
		 "basiset": "6-31G**", 
		 "properties": { 
			 "R2extent": 7722.1081, 
			 "electric_dipole_moment_norm": 4.23449584957, 
			 "electric_quadrupole_moment_norm": 27.0617810835, 
			 "total_energy": -987.55933732, 
			 "HOMO_LUMO_gap": 0.16538, 
			 "cosmo_polarized_energy": -18.75, 
			 "cosmo_cavitation_energy": 41.1, 
			 "cosmo_dispersion_energy": -28.16, 
			 "cosmo_repulsion_energy": 2.12, 
			 "cosmo_total_nonelectrostatic_energy": 15.07, 
			 "SMD_solvation_energy": 4.42 
		},
		"coords": [
			{
				"x": -4.2391091954,
				"y": -2.428322755,
				"z": 1.5989854704,
				"element": "O" 
			},
			{
				"x": -4.3336994273,
				"y": -1.8122823411,
				"z": 0.3918103541,
				"element": "C" 
			},
			{
				"x": -5.2546734668,
				"y": -2.0494816734,
				"z": -0.3506787869,
				"element": "O" 
			},
			{
				"x": -3.2383213049,
				"y": -0.8373543635,
				"z": 0.0692077875,
				"element": "C" 
			},
			{
				"x": -1.9418401893,
				"y": -0.8960042366,
				"z": 0.6272771618,
				"element": "C" 
			},
			{
				"x": -1.1683014814,
				"y": -1.71616363,
				"z": 1.502413288,
				"element": "C" 
			},
			{
				"x": 0.0594027492,
				"y": -1.238297995,
				"z": 1.6447352689,
				"element": "N" 
			},
			{
				"x": 0.1333919469,
				"y": -0.1120464106,
				"z": 0.888168784,
				"element": "N" 
			},
			{
				"x": 1.3870027605,
				"y": 0.6151457121,
				"z": 0.747450588,
				"element": "C" 
			},
			{
				"x": 2.2704686769,
				"y": 0.0948041107,
				"z": -0.3730147946,
				"element": "C" 
			},
			{
				"x": 2.6703746048,
				"y": -1.245002578,
				"z": -0.4214270244,
				"element": "C" 
			},
			{
				"x": 3.4992497456,
				"y": -1.6603829667,
				"z": -1.4625731829,
				"element": "C" 
			},
			{
				"x": 3.9483977255,
				"y": -0.8495919044,
				"z": -2.4309376067,
				"element": "N" 
			},
			{
				"x": 3.5611452116,
				"y": 0.4292396915,
				"z": -2.3758805109,
				"element": "C" 
			},
			{
				"x": 2.7294216645,
				"y": 0.9460083337,
				"z": -1.3799133968,
				"element": "C" 
			},
			{
				"x": -1.043614051,
				"y": 0.1304203093,
				"z": 0.2354598072,
				"element": "C" 
			},
			{
				"x": -1.2822621433,
				"y": 1.1399052138,
				"z": -0.6032673527,
				"element": "N" 
			},
			{
				"x": -2.5070551135,
				"y": 1.1591407486,
				"z": -1.1428585584,
				"element": "C" 
			},
			{
				"x": -3.4946400636,
				"y": 0.1856382317,
				"z": -0.8312636415,
				"element": "C" 
			},
			{
				"x": -2.823011398,
				"y": 2.2495365482,
				"z": -2.0986257362,
				"element": "C" 
			},
			{
				"x": -2.2085104059,
				"y": 3.6270554233,
				"z": -1.9038798487,
				"element": "C" 
			},
			{
				"x": -1.738907265,
				"y": 2.766610302,
				"z": -3.0322997875,
				"element": "C" 
			},
			{
				"x": -3.5449508396,
				"y": -2.0125805394,
				"z": 2.1309893051,
				"element": "H" 
			},
			{
				"x": -1.4380351998,
				"y": -2.6368490232,
				"z": 2.0034892133,
				"element": "H" 
			},
			{
				"x": 1.1339794667,
				"y": 1.6631799445,
				"z": 0.5727567275,
				"element": "H" 
			},
			{
				"x": 1.9007207507,
				"y": 0.5363158236,
				"z": 1.7096539258,
				"element": "H" 
			},
			{
				"x": 2.3357139395,
				"y": -1.9491095607,
				"z": 0.3340733875,
				"element": "H" 
			},
			{
				"x": 3.8218708925,
				"y": -2.698468971,
				"z": -1.5205796055,
				"element": "H" 
			},
			{
				"x": 3.9293541761,
				"y": 1.077595329,
				"z": -3.1693496325,
				"element": "H" 
			},
			{
				"x": 2.4446916419,
				"y": 1.9943747465,
				"z": -1.3956051344,
				"element": "H" 
			},
			{
				"x": -4.474621253,
				"y": 0.2402846966,
				"z": -1.29167297,
				"element": "H" 
			},
			{
				"x": -3.8327774642,
				"y": 2.2184025327,
				"z": -2.4961046635,
				"element": "H" 
			},
			{
				"x": -1.5502503985,
				"y": 3.7372365916,
				"z": -1.0483070652,
				"element": "H" 
			},
			{
				"x": -2.8351397414,
				"y": 4.4861399341,
				"z": -2.1225533024,
				"element": "H" 
			},
			{
				"x": -2.0347352238,
				"y": 3.0193705871,
				"z": -4.045702419,
				"element": "H" 
			},
			{
				"x": -0.7658303273,
				"y": 2.2962341379,
				"z": -2.9350760483,
				"element": "H" 
			}
		],
		 "valence_orbital": [ 
			{
				"type": "occ",
				"energy": -0.28006,
				"method": "rhf"
			},
			{
				"type": "occ",
				"energy": -0.26776,
				"method": "rhf"
			},
			{
				"type": "occ",
				"energy": -0.26017,
				"method": "rhf"
			},
			{
				"type": "occ",
				"energy": -0.25419,
				"method": "rhf"
			},
			{
				"type": "occ",
				"energy": -0.24845,
				"method": "rhf"
			},
			{
				"type": "unocc",
				"energy": -0.08307,
				"method": "rhf"
			},
			{
				"type": "unocc",
				"energy": -0.03446,
				"method": "rhf"
			},
			{
				"type": "unocc",
				"energy": -0.01778,
				"method": "rhf"
			},
			{
				"type": "unocc",
				"energy": -0.01541,
				"method": "rhf"
			},
			{
				"type": "unocc",
				"energy": 0.0152,
				"method": "rhf"
			}
		],
		"cosmo_sigma_profile": { 
			"-0.025": 0.0,
			"-0.024": 0.0,
			"-0.023": 0.0,
			"-0.022": 0.0,
			"-0.021": 0.0,
			"-0.02": 0.0,
			"-0.019": 0.0,
			"-0.018": 0.0495474975771,
			"-0.017": 0.941831888803,
			"-0.016": 0.689211105325,
			"-0.015": 0.994844043135,
			"-0.014": 1.02781917922,
			"-0.013": 1.36076292662,
			"-0.012": 1.33019115994,
			"-0.011": 0.959820873445,
			"-0.01": 1.19853763318,
			"-0.009": 1.89428906271,
			"-0.008": 4.58520464104,
			"-0.007": 11.5068111729,
			"-0.006": 17.4908535213,
			"-0.005": 21.8647768327,
			"-0.004": 22.7357000704,
			"-0.003": 20.836988371,
			"-0.002": 19.4979316722,
			"-0.001": 27.1858244076,
			"0.0": 28.7406002931,
			"0.001": 26.6083808855,
			"0.002": 31.8053681776,
			"0.003": 18.7745573717,
			"0.004": 11.472210916,
			"0.005": 9.59182322017,
			"0.006": 6.10558033947,
			"0.007": 5.19481027113,
			"0.008": 5.67750822833,
			"0.009": 6.68341934717,
			"0.01": 6.55813855814,
			"0.011": 7.40674037556,
			"0.012": 3.79862915861,
			"0.013": 2.29353549363,
			"0.014": 0.340942183027,
			"0.015": 1.14400733174,
			"0.016": 0.892029297227,
			"0.017": 0.294469090891,
			"0.018": 0.0,
			"0.019": 0.0,
			"0.02": 0.0,
			"0.021": 0.0,
			"0.022": 0.0,
			"0.023": 0.0,
			"0.024": 0.0,
			"0.025": 0.0
		}
	}
}
