{
	 "smiles": "CC1=C2C(=O)NC(=NC2=CC=C1)C(F)(F)F", 
	 "Tm": 392.15, 
	 "num_atms": 23, 
	 "gaussian": { 
		 "optdone": 1, 
		 "sigma_profile": "yes", 
		 "theory": "DFT", 
		 "functional": "B3LYP", 
		 "basiset": "6-31G**", 
		 "properties": { 
			 "R2extent": 4125.5862, 
			 "electric_dipole_moment_norm": 1.60356067238, 
			 "electric_quadrupole_moment_norm": 10.7332261497, 
			 "total_energy": -869.564274954, 
			 "HOMO_LUMO_gap": 0.18222, 
			 "cosmo_polarized_energy": -9.84, 
			 "cosmo_cavitation_energy": 28.76, 
			 "cosmo_dispersion_energy": -20.93, 
			 "cosmo_repulsion_energy": 1.54, 
			 "cosmo_total_nonelectrostatic_energy": 9.37, 
			 "SMD_solvation_energy": 5.1 
		},
		"coords": [
			{
				"x": 0.6806540224,
				"y": -2.1538781354,
				"z": 1.8943392365,
				"element": "C" 
			},
			{
				"x": 1.1478634991,
				"y": -1.4719626285,
				"z": 0.6310078282,
				"element": "C" 
			},
			{
				"x": 0.5314706548,
				"y": -0.3026942129,
				"z": 0.1113558851,
				"element": "C" 
			},
			{
				"x": -0.6176251406,
				"y": 0.3242243685,
				"z": 0.783332771,
				"element": "C" 
			},
			{
				"x": -1.1737129117,
				"y": -0.0369431428,
				"z": 1.8111647638,
				"element": "O" 
			},
			{
				"x": -1.0893286387,
				"y": 1.4719595049,
				"z": 0.1182804528,
				"element": "N" 
			},
			{
				"x": -0.5394533254,
				"y": 1.9577242977,
				"z": -1.0335334648,
				"element": "C" 
			},
			{
				"x": 0.4621176684,
				"y": 1.4374053878,
				"z": -1.6467712738,
				"element": "N" 
			},
			{
				"x": 1.0216124261,
				"y": 0.2922746725,
				"z": -1.0865674575,
				"element": "C" 
			},
			{
				"x": 2.1167184771,
				"y": -0.2767911088,
				"z": -1.7571614145,
				"element": "C" 
			},
			{
				"x": 2.7138368958,
				"y": -1.4164014343,
				"z": -1.2465758545,
				"element": "C" 
			},
			{
				"x": 2.2324357483,
				"y": -2.0023145574,
				"z": -0.0683389955,
				"element": "C" 
			},
			{
				"x": -1.1752886694,
				"y": 3.2128476463,
				"z": -1.620999569,
				"element": "C" 
			},
			{
				"x": -1.6438178045,
				"y": 2.9845635567,
				"z": -2.85463905,
				"element": "F" 
			},
			{
				"x": -0.2912982441,
				"y": 4.2168106248,
				"z": -1.6857013869,
				"element": "F" 
			},
			{
				"x": -2.2141750871,
				"y": 3.6219960384,
				"z": -0.8502162072,
				"element": "F" 
			},
			{
				"x": 0.7238194414,
				"y": -1.4797258311,
				"z": 2.7537722867,
				"element": "H" 
			},
			{
				"x": -0.3634574503,
				"y": -2.4684563451,
				"z": 1.8179990159,
				"element": "H" 
			},
			{
				"x": 1.3019623913,
				"y": -3.0299770503,
				"z": 2.0981669732,
				"element": "H" 
			},
			{
				"x": -1.8809595155,
				"y": 1.9386185172,
				"z": 0.5445280796,
				"element": "H" 
			},
			{
				"x": 2.464057854,
				"y": 0.2016599603,
				"z": -2.6661157564,
				"element": "H" 
			},
			{
				"x": 3.5610842659,
				"y": -1.8618805522,
				"z": -1.7599364905,
				"element": "H" 
			},
			{
				"x": 2.7142834426,
				"y": -2.8964595766,
				"z": 0.3168096279,
				"element": "H" 
			}
		],
		 "valence_orbital": [ 
			{
				"type": "occ",
				"energy": -0.30724,
				"method": "rhf"
			},
			{
				"type": "occ",
				"energy": -0.29538,
				"method": "rhf"
			},
			{
				"type": "occ",
				"energy": -0.27214,
				"method": "rhf"
			},
			{
				"type": "occ",
				"energy": -0.26582,
				"method": "rhf"
			},
			{
				"type": "occ",
				"energy": -0.23984,
				"method": "rhf"
			},
			{
				"type": "unocc",
				"energy": -0.05762,
				"method": "rhf"
			},
			{
				"type": "unocc",
				"energy": -0.05051,
				"method": "rhf"
			},
			{
				"type": "unocc",
				"energy": 0.01206,
				"method": "rhf"
			},
			{
				"type": "unocc",
				"energy": 0.06039,
				"method": "rhf"
			},
			{
				"type": "unocc",
				"energy": 0.08379,
				"method": "rhf"
			}
		],
		"cosmo_sigma_profile": { 
			"-0.025": 0.0,
			"-0.024": 0.0,
			"-0.023": 0.0,
			"-0.022": 0.0,
			"-0.021": 0.0,
			"-0.02": 0.0,
			"-0.019": 0.0,
			"-0.018": 0.0,
			"-0.017": 0.0,
			"-0.016": 0.233234673488,
			"-0.015": 0.779037638025,
			"-0.014": 0.654133417534,
			"-0.013": 0.315114731935,
			"-0.012": 1.1157996549,
			"-0.011": 1.55934243092,
			"-0.01": 1.29608000394,
			"-0.009": 1.96228255494,
			"-0.008": 1.97703482235,
			"-0.007": 4.54164554723,
			"-0.006": 10.2653753924,
			"-0.005": 12.6583539602,
			"-0.004": 13.2481121106,
			"-0.003": 13.3731764924,
			"-0.002": 15.7335710504,
			"-0.001": 17.9164276802,
			"0.0": 20.0864820978,
			"0.001": 27.7468165464,
			"0.002": 38.2465657161,
			"0.003": 15.6241080772,
			"0.004": 5.76187565971,
			"0.005": 3.50472437422,
			"0.006": 3.40440762851,
			"0.007": 2.60244911731,
			"0.008": 2.54331840395,
			"0.009": 2.56398015976,
			"0.01": 2.29329229802,
			"0.011": 2.94248923952,
			"0.012": 4.22514426576,
			"0.013": 1.83650577515,
			"0.014": 0.0,
			"0.015": 0.0,
			"0.016": 0.0,
			"0.017": 0.0,
			"0.018": 0.0,
			"0.019": 0.0,
			"0.02": 0.0,
			"0.021": 0.0,
			"0.022": 0.0,
			"0.023": 0.0,
			"0.024": 0.0,
			"0.025": 0.0
		}
	}
}
