{
	 "smiles": "CC1=NC(O)=NC(=C1)C(F)(F)F", 
	 "Tm": 459.15, 
	 "num_atms": 17, 
	 "gaussian": { 
		 "optdone": 1, 
		 "sigma_profile": "yes", 
		 "theory": "DFT", 
		 "functional": "B3LYP", 
		 "basiset": "6-31G**", 
		 "properties": { 
			 "R2extent": 3242.3308, 
			 "electric_dipole_moment_norm": 1.55335363005, 
			 "electric_quadrupole_moment_norm": 12.4515810028, 
			 "total_energy": -715.912588972, 
			 "HOMO_LUMO_gap": 0.20959, 
			 "cosmo_polarized_energy": -9.66, 
			 "cosmo_cavitation_energy": 23.44, 
			 "cosmo_dispersion_energy": -16.89, 
			 "cosmo_repulsion_energy": 1.31, 
			 "cosmo_total_nonelectrostatic_energy": 7.86, 
			 "SMD_solvation_energy": 3.25 
		},
		"coords": [
			{
				"x": 1.2155437292,
				"y": -0.2137184435,
				"z": 2.799783157,
				"element": "C" 
			},
			{
				"x": 0.0915115105,
				"y": -0.3872756316,
				"z": 1.8147748453,
				"element": "C" 
			},
			{
				"x": -0.5213280817,
				"y": 0.7218796933,
				"z": 1.3825352125,
				"element": "N" 
			},
			{
				"x": -1.5155746052,
				"y": 0.5489227151,
				"z": 0.5096405807,
				"element": "C" 
			},
			{
				"x": -2.1173768827,
				"y": 1.6704834941,
				"z": 0.0879887866,
				"element": "O" 
			},
			{
				"x": -1.9739316308,
				"y": -0.6068794169,
				"z": 0.0137019514,
				"element": "N" 
			},
			{
				"x": -1.3496325362,
				"y": -1.6986480081,
				"z": 0.4573043483,
				"element": "C" 
			},
			{
				"x": -0.3006026783,
				"y": -1.6583284389,
				"z": 1.3657859083,
				"element": "C" 
			},
			{
				"x": -1.8300081624,
				"y": -3.039695572,
				"z": -0.0736714257,
				"element": "C" 
			},
			{
				"x": -0.8189908129,
				"y": -3.6857013365,
				"z": -0.6959925035,
				"element": "F" 
			},
			{
				"x": -2.842636093,
				"y": -2.919615653,
				"z": -0.9369657997,
				"element": "F" 
			},
			{
				"x": -2.2358896215,
				"y": -3.8283034932,
				"z": 0.9462061377,
				"element": "F" 
			},
			{
				"x": 1.3585232406,
				"y": 0.8455361355,
				"z": 3.0153771204,
				"element": "H" 
			},
			{
				"x": 0.998647877,
				"y": -0.7439665402,
				"z": 3.7335600624,
				"element": "H" 
			},
			{
				"x": 2.1481713244,
				"y": -0.6279966925,
				"z": 2.4013825124,
				"element": "H" 
			},
			{
				"x": -2.809065739,
				"y": 1.3937085556,
				"z": -0.5329241077,
				"element": "H" 
			},
			{
				"x": 0.1887391619,
				"y": -2.5618013672,
				"z": 1.7093132134,
				"element": "H" 
			}
		],
		 "valence_orbital": [ 
			{
				"type": "occ",
				"energy": -0.36716,
				"method": "rhf"
			},
			{
				"type": "occ",
				"energy": -0.33333,
				"method": "rhf"
			},
			{
				"type": "occ",
				"energy": -0.32484,
				"method": "rhf"
			},
			{
				"type": "occ",
				"energy": -0.27139,
				"method": "rhf"
			},
			{
				"type": "occ",
				"energy": -0.26719,
				"method": "rhf"
			},
			{
				"type": "unocc",
				"energy": -0.0576,
				"method": "rhf"
			},
			{
				"type": "unocc",
				"energy": -0.0279,
				"method": "rhf"
			},
			{
				"type": "unocc",
				"energy": 0.07906,
				"method": "rhf"
			},
			{
				"type": "unocc",
				"energy": 0.10442,
				"method": "rhf"
			},
			{
				"type": "unocc",
				"energy": 0.10539,
				"method": "rhf"
			}
		],
		"cosmo_sigma_profile": { 
			"-0.025": 0.0,
			"-0.024": 0.0,
			"-0.023": 0.0,
			"-0.022": 0.0,
			"-0.021": 0.0,
			"-0.02": 0.0,
			"-0.019": 0.0,
			"-0.018": 0.687510228305,
			"-0.017": 0.802486074504,
			"-0.016": 0.706325676023,
			"-0.015": 0.662970512479,
			"-0.014": 1.03691768922,
			"-0.013": 0.459776619246,
			"-0.012": 0.59651227384,
			"-0.011": 0.895161470118,
			"-0.01": 0.766088231523,
			"-0.009": 0.900053240755,
			"-0.008": 2.58282220302,
			"-0.007": 2.7582186565,
			"-0.006": 7.79837255462,
			"-0.005": 9.17107292726,
			"-0.004": 10.2325471335,
			"-0.003": 14.4225913777,
			"-0.002": 16.5294093528,
			"-0.001": 16.3829482439,
			"0.0": 13.9484670128,
			"0.001": 10.3443869219,
			"0.002": 27.8196445185,
			"0.003": 17.1845995557,
			"0.004": 4.10261369054,
			"0.005": 3.40838302693,
			"0.006": 3.58778579303,
			"0.007": 2.71960466184,
			"0.008": 3.66137822303,
			"0.009": 2.92389560852,
			"0.01": 4.35504199185,
			"0.011": 2.84812670025,
			"0.012": 1.27702079422,
			"0.013": 1.0329387737,
			"0.014": 0.804659114852,
			"0.015": 0.224863054117,
			"0.016": 0.0,
			"0.017": 0.0,
			"0.018": 0.0,
			"0.019": 0.0,
			"0.02": 0.0,
			"0.021": 0.0,
			"0.022": 0.0,
			"0.023": 0.0,
			"0.024": 0.0,
			"0.025": 0.0
		}
	}
}
