{
	 "smiles": "CC(C)N1N=CC2=C1N=C(C=C2C(O)=O)C(C)C", 
	 "Tm": 418.15, 
	 "num_atms": 35, 
	 "gaussian": { 
		 "optdone": 1, 
		 "sigma_profile": "yes", 
		 "theory": "DFT", 
		 "functional": "B3LYP", 
		 "basiset": "6-31G**", 
		 "properties": { 
			 "R2extent": 4973.9875, 
			 "electric_dipole_moment_norm": 4.2432454678, 
			 "electric_quadrupole_moment_norm": 11.2791227589, 
			 "total_energy": -820.352327228, 
			 "HOMO_LUMO_gap": 0.16866, 
			 "cosmo_polarized_energy": -13.7, 
			 "cosmo_cavitation_energy": 37.71, 
			 "cosmo_dispersion_energy": -25.85, 
			 "cosmo_repulsion_energy": 2.03, 
			 "cosmo_total_nonelectrostatic_energy": 13.89, 
			 "SMD_solvation_energy": 5.96 
		},
		"coords": [
			{
				"x": 2.5826429469,
				"y": 2.3588638702,
				"z": -1.8455737312,
				"element": "C" 
			},
			{
				"x": 1.1736648165,
				"y": 2.9326317436,
				"z": -1.6538783951,
				"element": "C" 
			},
			{
				"x": 0.2908548473,
				"y": 2.7659335774,
				"z": -2.8967755261,
				"element": "C" 
			},
			{
				"x": 0.525349655,
				"y": 2.349228322,
				"z": -0.466155483,
				"element": "N" 
			},
			{
				"x": 0.1500761139,
				"y": 3.1550771437,
				"z": 0.5580747339,
				"element": "N" 
			},
			{
				"x": -0.4224547992,
				"y": 2.3868641384,
				"z": 1.4739519572,
				"element": "C" 
			},
			{
				"x": -0.4337615001,
				"y": 1.0228686645,
				"z": 1.0603004092,
				"element": "C" 
			},
			{
				"x": 0.1852546968,
				"y": 1.0467911824,
				"z": -0.2175655075,
				"element": "C" 
			},
			{
				"x": 0.3868484246,
				"y": 0.0017015625,
				"z": -1.0319322118,
				"element": "N" 
			},
			{
				"x": -0.062434033,
				"y": -1.1746106009,
				"z": -0.5860080138,
				"element": "C" 
			},
			{
				"x": -0.6985643516,
				"y": -1.3202873647,
				"z": 0.6757588528,
				"element": "C" 
			},
			{
				"x": -0.8750476053,
				"y": -0.2370321573,
				"z": 1.5228647159,
				"element": "C" 
			},
			{
				"x": -1.5153987113,
				"y": -0.4597015273,
				"z": 2.8620565156,
				"element": "C" 
			},
			{
				"x": -1.2086227421,
				"y": 0.4504215248,
				"z": 3.8228203401,
				"element": "O" 
			},
			{
				"x": -2.2536344341,
				"y": -1.3837755303,
				"z": 3.1030655194,
				"element": "O" 
			},
			{
				"x": 0.1436342351,
				"y": -2.3740939533,
				"z": -1.4964826839,
				"element": "C" 
			},
			{
				"x": -1.1978688412,
				"y": -2.9924480668,
				"z": -1.9333423012,
				"element": "C" 
			},
			{
				"x": 1.061405,
				"y": -3.4289591415,
				"z": -0.8500299377,
				"element": "C" 
			},
			{
				"x": 2.5395462831,
				"y": 1.2886690126,
				"z": -2.0624402344,
				"element": "H" 
			},
			{
				"x": 3.0743658099,
				"y": 2.8630431787,
				"z": -2.6832699451,
				"element": "H" 
			},
			{
				"x": 3.1908163804,
				"y": 2.5123196035,
				"z": -0.9493125407,
				"element": "H" 
			},
			{
				"x": 1.2456694871,
				"y": 3.9938682763,
				"z": -1.4013705209,
				"element": "H" 
			},
			{
				"x": -0.6990859023,
				"y": 3.2009207732,
				"z": -2.7314884894,
				"element": "H" 
			},
			{
				"x": 0.7520386691,
				"y": 3.2771418502,
				"z": -3.7475320917,
				"element": "H" 
			},
			{
				"x": 0.1730974239,
				"y": 1.7093918532,
				"z": -3.1501847731,
				"element": "H" 
			},
			{
				"x": -0.8339500718,
				"y": 2.8437004971,
				"z": 2.3647666797,
				"element": "H" 
			},
			{
				"x": -1.0488946693,
				"y": -2.2922546605,
				"z": 1.0038062593,
				"element": "H" 
			},
			{
				"x": -0.4925438443,
				"y": 1.026589919,
				"z": 3.5175739259,
				"element": "H" 
			},
			{
				"x": 0.6468476435,
				"y": -1.9797719964,
				"z": -2.3858444146,
				"element": "H" 
			},
			{
				"x": -1.8378389556,
				"y": -2.2506935386,
				"z": -2.4210608197,
				"element": "H" 
			},
			{
				"x": -1.7488828411,
				"y": -3.403347158,
				"z": -1.0803785011,
				"element": "H" 
			},
			{
				"x": -1.0256961813,
				"y": -3.8100594984,
				"z": -2.6411379049,
				"element": "H" 
			},
			{
				"x": 1.2504791968,
				"y": -4.2481375107,
				"z": -1.551652143,
				"element": "H" 
			},
			{
				"x": 2.0260082596,
				"y": -2.9970144519,
				"z": -0.5656776078,
				"element": "H" 
			},
			{
				"x": 0.6073795942,
				"y": -3.8613395365,
				"z": 0.0483538686,
				"element": "H" 
			}
		],
		 "valence_orbital": [ 
			{
				"type": "occ",
				"energy": -0.30739,
				"method": "rhf"
			},
			{
				"type": "occ",
				"energy": -0.28525,
				"method": "rhf"
			},
			{
				"type": "occ",
				"energy": -0.27358,
				"method": "rhf"
			},
			{
				"type": "occ",
				"energy": -0.25682,
				"method": "rhf"
			},
			{
				"type": "occ",
				"energy": -0.24532,
				"method": "rhf"
			},
			{
				"type": "unocc",
				"energy": -0.07666,
				"method": "rhf"
			},
			{
				"type": "unocc",
				"energy": -0.01255,
				"method": "rhf"
			},
			{
				"type": "unocc",
				"energy": 0.0213,
				"method": "rhf"
			},
			{
				"type": "unocc",
				"energy": 0.04282,
				"method": "rhf"
			},
			{
				"type": "unocc",
				"energy": 0.0812,
				"method": "rhf"
			}
		],
		"cosmo_sigma_profile": { 
			"-0.025": 0.0,
			"-0.024": 0.0,
			"-0.023": 0.0,
			"-0.022": 0.0,
			"-0.021": 0.0,
			"-0.02": 0.0,
			"-0.019": 0.0,
			"-0.018": 0.0,
			"-0.017": 0.459980604576,
			"-0.016": 1.08337205316,
			"-0.015": 0.86053712925,
			"-0.014": 1.63045721742,
			"-0.013": 0.722847042072,
			"-0.012": 1.0511901573,
			"-0.011": 1.26576008684,
			"-0.01": 1.0043818367,
			"-0.009": 1.68346586524,
			"-0.008": 1.83123357423,
			"-0.007": 3.63870863251,
			"-0.006": 5.36782161362,
			"-0.005": 7.95542505878,
			"-0.004": 18.9684391258,
			"-0.003": 28.7334446911,
			"-0.002": 33.3896166673,
			"-0.001": 38.5300551481,
			"0.0": 47.9519985452,
			"0.001": 29.9564032397,
			"0.002": 10.8604746935,
			"0.003": 7.00096932496,
			"0.004": 6.18660507441,
			"0.005": 6.41285768283,
			"0.006": 5.75872543551,
			"0.007": 5.53945838203,
			"0.008": 5.50857086544,
			"0.009": 5.136421276,
			"0.01": 6.53876509184,
			"0.011": 6.59146307082,
			"0.012": 3.67862545874,
			"0.013": 1.17303587256,
			"0.014": 0.684376724508,
			"0.015": 0.033948339747,
			"0.016": 0.0,
			"0.017": 0.0,
			"0.018": 0.0,
			"0.019": 0.0,
			"0.02": 0.0,
			"0.021": 0.0,
			"0.022": 0.0,
			"0.023": 0.0,
			"0.024": 0.0,
			"0.025": 0.0
		}
	}
}
