{
	 "smiles": "OC(=O)C1=C(O)C=CC(C=O)=C1", 
	 "Tm": 523.15, 
	 "num_atms": 18, 
	 "gaussian": { 
		 "optdone": 1, 
		 "sigma_profile": "yes", 
		 "theory": "DFT", 
		 "functional": "B3LYP", 
		 "basiset": "6-31G**", 
		 "properties": { 
			 "R2extent": 3143.9058, 
			 "electric_dipole_moment_norm": 5.79978952032, 
			 "electric_quadrupole_moment_norm": 30.1951410338, 
			 "total_energy": -609.364333007, 
			 "HOMO_LUMO_gap": 0.18903, 
			 "cosmo_polarized_energy": -20.85, 
			 "cosmo_cavitation_energy": 23.32, 
			 "cosmo_dispersion_energy": -17.37, 
			 "cosmo_repulsion_energy": 1.37, 
			 "cosmo_total_nonelectrostatic_energy": 7.32, 
			 "SMD_solvation_energy": 6.63 
		},
		"coords": [
			{
				"x": -1.4395425245,
				"y": 2.9456734929,
				"z": 2.4825338414,
				"element": "O" 
			},
			{
				"x": -0.7615072439,
				"y": 2.7642110986,
				"z": 1.3344031867,
				"element": "C" 
			},
			{
				"x": -0.9668950546,
				"y": 3.4785354094,
				"z": 0.3782102747,
				"element": "O" 
			},
			{
				"x": 0.2555433316,
				"y": 1.6494343426,
				"z": 1.2740134463,
				"element": "C" 
			},
			{
				"x": 0.5720172967,
				"y": 0.7627308606,
				"z": 2.3218589178,
				"element": "C" 
			},
			{
				"x": -0.0892571126,
				"y": 0.904496315,
				"z": 3.512824052,
				"element": "O" 
			},
			{
				"x": 1.537409388,
				"y": -0.2406494003,
				"z": 2.156773515,
				"element": "C" 
			},
			{
				"x": 2.1984315281,
				"y": -0.3723529112,
				"z": 0.9466146728,
				"element": "C" 
			},
			{
				"x": 1.9023427781,
				"y": 0.4983970696,
				"z": -0.1152004166,
				"element": "C" 
			},
			{
				"x": 2.6067398158,
				"y": 0.3601468978,
				"z": -1.4088889381,
				"element": "C" 
			},
			{
				"x": 3.456226741,
				"y": -0.4801229077,
				"z": -1.6380654637,
				"element": "O" 
			},
			{
				"x": 0.9396162576,
				"y": 1.4918743376,
				"z": 0.0635121203,
				"element": "C" 
			},
			{
				"x": -1.1639082637,
				"y": 2.2963021265,
				"z": 3.1524820057,
				"element": "H" 
			},
			{
				"x": 0.2080607423,
				"y": 0.2453641485,
				"z": 4.1535078221,
				"element": "H" 
			},
			{
				"x": 1.7603385719,
				"y": -0.9105516785,
				"z": 2.9844631864,
				"element": "H" 
			},
			{
				"x": 2.9492697497,
				"y": -1.1414945796,
				"z": 0.7961701953,
				"element": "H" 
			},
			{
				"x": 2.3016479763,
				"y": 1.0960259656,
				"z": -2.184181105,
				"element": "H" 
			},
			{
				"x": 0.6887660221,
				"y": 2.1802794126,
				"z": -0.738531313,
				"element": "H" 
			}
		],
		 "valence_orbital": [ 
			{
				"type": "occ",
				"energy": -0.31393,
				"method": "rhf"
			},
			{
				"type": "occ",
				"energy": -0.28567,
				"method": "rhf"
			},
			{
				"type": "occ",
				"energy": -0.27657,
				"method": "rhf"
			},
			{
				"type": "occ",
				"energy": -0.26496,
				"method": "rhf"
			},
			{
				"type": "occ",
				"energy": -0.26329,
				"method": "rhf"
			},
			{
				"type": "unocc",
				"energy": -0.07426,
				"method": "rhf"
			},
			{
				"type": "unocc",
				"energy": -0.05556,
				"method": "rhf"
			},
			{
				"type": "unocc",
				"energy": 0.00826,
				"method": "rhf"
			},
			{
				"type": "unocc",
				"energy": 0.02483,
				"method": "rhf"
			},
			{
				"type": "unocc",
				"energy": 0.06709,
				"method": "rhf"
			}
		],
		"cosmo_sigma_profile": { 
			"-0.025": 0.0,
			"-0.024": 0.0,
			"-0.023": 0.0,
			"-0.022": 0.0,
			"-0.021": 0.0123167006496,
			"-0.02": 0.97913374741,
			"-0.019": 1.46083118668,
			"-0.018": 1.14770765083,
			"-0.017": 1.31270121272,
			"-0.016": 1.14923120069,
			"-0.015": 0.819785499445,
			"-0.014": 0.904311903065,
			"-0.013": 0.893556257262,
			"-0.012": 1.122915412,
			"-0.011": 1.16976821928,
			"-0.01": 1.57901183181,
			"-0.009": 2.37600701722,
			"-0.008": 4.86439939042,
			"-0.007": 7.65197126996,
			"-0.006": 10.5891077416,
			"-0.005": 9.03340043897,
			"-0.004": 9.90174891144,
			"-0.003": 9.5607026623,
			"-0.002": 10.903281965,
			"-0.001": 11.7056054371,
			"0.0": 18.7971700959,
			"0.001": 16.2240924117,
			"0.002": 8.89476831761,
			"0.003": 3.50614058616,
			"0.004": 3.44908885738,
			"0.005": 4.02006102236,
			"0.006": 2.95496215199,
			"0.007": 3.82099182455,
			"0.008": 4.70352957959,
			"0.009": 4.52537934463,
			"0.01": 6.8776756671,
			"0.011": 9.59810644223,
			"0.012": 7.74354363541,
			"0.013": 2.92930546272,
			"0.014": 0.194971587785,
			"0.015": 0.0,
			"0.016": 0.0,
			"0.017": 0.0,
			"0.018": 0.0,
			"0.019": 0.0,
			"0.02": 0.0,
			"0.021": 0.0,
			"0.022": 0.0,
			"0.023": 0.0,
			"0.024": 0.0,
			"0.025": 0.0
		}
	}
}
