{
	 "smiles": "CC12C3CC(CC13)C2(C)C", 
	 "Tm": 340.65, 
	 "num_atms": 26, 
	 "gaussian": { 
		 "optdone": 1, 
		 "sigma_profile": "yes", 
		 "theory": "DFT", 
		 "functional": "B3LYP", 
		 "basiset": "6-31G**", 
		 "properties": { 
			 "R2extent": 1549.9586, 
			 "electric_dipole_moment_norm": 0.0913825475679, 
			 "electric_quadrupole_moment_norm": 1.05737188822, 
			 "total_energy": -390.69036217, 
			 "HOMO_LUMO_gap": 0.333, 
			 "cosmo_polarized_energy": -1.17, 
			 "cosmo_cavitation_energy": 24.69, 
			 "cosmo_dispersion_energy": -18.31, 
			 "cosmo_repulsion_energy": 1.45, 
			 "cosmo_total_nonelectrostatic_energy": 7.83, 
			 "SMD_solvation_energy": 3.53 
		},
		"coords": [
			{
				"x": -2.6556018462,
				"y": 0.5174363501,
				"z": -2.0803290663,
				"element": "C" 
			},
			{
				"x": -1.650300825,
				"y": 0.0707196881,
				"z": -1.0480950532,
				"element": "C" 
			},
			{
				"x": -2.0062137728,
				"y": -0.0868106223,
				"z": 0.4223040256,
				"element": "C" 
			},
			{
				"x": -0.7548944074,
				"y": 0.2041361723,
				"z": 1.246641481,
				"element": "C" 
			},
			{
				"x": 0.270386206,
				"y": -0.2786178818,
				"z": 0.1896361223,
				"element": "C" 
			},
			{
				"x": -0.2546251,
				"y": -1.7132386993,
				"z": -0.0706741035,
				"element": "C" 
			},
			{
				"x": -1.6858256841,
				"y": -1.3148250661,
				"z": -0.4213657302,
				"element": "C" 
			},
			{
				"x": -0.1645877091,
				"y": 0.4957446783,
				"z": -1.1026011666,
				"element": "C" 
			},
			{
				"x": 0.0277042053,
				"y": 2.0196844742,
				"z": -0.9972100966,
				"element": "C" 
			},
			{
				"x": 0.5512588497,
				"y": 0.0117066477,
				"z": -2.3768926951,
				"element": "C" 
			},
			{
				"x": -3.6484727675,
				"y": 0.1092833125,
				"z": -1.8629197064,
				"element": "H" 
			},
			{
				"x": -2.7499370099,
				"y": 1.6095991241,
				"z": -2.1070000093,
				"element": "H" 
			},
			{
				"x": -2.3778593989,
				"y": 0.182526685,
				"z": -3.0868674266,
				"element": "H" 
			},
			{
				"x": -3.0099525901,
				"y": 0.1065881241,
				"z": 0.7863504841,
				"element": "H" 
			},
			{
				"x": -0.6433680001,
				"y": 1.2548187908,
				"z": 1.5274339944,
				"element": "H" 
			},
			{
				"x": -0.7063668906,
				"y": -0.3953662137,
				"z": 2.1635614023,
				"element": "H" 
			},
			{
				"x": 1.3253649758,
				"y": -0.1891191955,
				"z": 0.4600141137,
				"element": "H" 
			},
			{
				"x": 0.2685157396,
				"y": -2.2394149477,
				"z": -0.8736250151,
				"element": "H" 
			},
			{
				"x": -0.1999006404,
				"y": -2.3360017769,
				"z": 0.8302574281,
				"element": "H" 
			},
			{
				"x": -2.4505955619,
				"y": -2.0374149611,
				"z": -0.6867176723,
				"element": "H" 
			},
			{
				"x": 1.0865289424,
				"y": 2.2697537561,
				"z": -0.8608710871,
				"element": "H" 
			},
			{
				"x": -0.5329545172,
				"y": 2.4625320506,
				"z": -0.1709110899,
				"element": "H" 
			},
			{
				"x": -0.3060749734,
				"y": 2.5134505209,
				"z": -1.9166033927,
				"element": "H" 
			},
			{
				"x": 1.6330531727,
				"y": 0.1734631403,
				"z": -2.3008598951,
				"element": "H" 
			},
			{
				"x": 0.2004910324,
				"y": 0.5718233017,
				"z": -3.2508056128,
				"element": "H" 
			},
			{
				"x": 0.3818285706,
				"y": -1.0475574523,
				"z": -2.5829502328,
				"element": "H" 
			}
		],
		 "valence_orbital": [ 
			{
				"type": "occ",
				"energy": -0.32482,
				"method": "rhf"
			},
			{
				"type": "occ",
				"energy": -0.30142,
				"method": "rhf"
			},
			{
				"type": "occ",
				"energy": -0.29175,
				"method": "rhf"
			},
			{
				"type": "occ",
				"energy": -0.2518,
				"method": "rhf"
			},
			{
				"type": "occ",
				"energy": -0.24915,
				"method": "rhf"
			},
			{
				"type": "unocc",
				"energy": 0.08385,
				"method": "rhf"
			},
			{
				"type": "unocc",
				"energy": 0.11309,
				"method": "rhf"
			},
			{
				"type": "unocc",
				"energy": 0.12787,
				"method": "rhf"
			},
			{
				"type": "unocc",
				"energy": 0.13307,
				"method": "rhf"
			},
			{
				"type": "unocc",
				"energy": 0.1345,
				"method": "rhf"
			}
		],
		"cosmo_sigma_profile": { 
			"-0.025": 0.0,
			"-0.024": 0.0,
			"-0.023": 0.0,
			"-0.022": 0.0,
			"-0.021": 0.0,
			"-0.02": 0.0,
			"-0.019": 0.0,
			"-0.018": 0.0,
			"-0.017": 0.0,
			"-0.016": 0.0,
			"-0.015": 0.0,
			"-0.014": 0.0,
			"-0.013": 0.0,
			"-0.012": 0.0,
			"-0.011": 0.0,
			"-0.01": 0.0,
			"-0.009": 0.0,
			"-0.008": 0.0,
			"-0.007": 0.0,
			"-0.006": 0.0,
			"-0.005": 0.0133760970648,
			"-0.004": 2.18843403463,
			"-0.003": 12.9692574939,
			"-0.002": 28.3285689589,
			"-0.001": 35.1105452842,
			"0.0": 32.498747685,
			"0.001": 38.4253635826,
			"0.002": 28.657675837,
			"0.003": 6.0128342291,
			"0.004": 4.27356008254,
			"0.005": 1.29653513895,
			"0.006": 0.488685649109,
			"0.007": 0.0,
			"0.008": 0.0,
			"0.009": 0.0,
			"0.01": 0.0,
			"0.011": 0.0,
			"0.012": 0.0,
			"0.013": 0.0,
			"0.014": 0.0,
			"0.015": 0.0,
			"0.016": 0.0,
			"0.017": 0.0,
			"0.018": 0.0,
			"0.019": 0.0,
			"0.02": 0.0,
			"0.021": 0.0,
			"0.022": 0.0,
			"0.023": 0.0,
			"0.024": 0.0,
			"0.025": 0.0
		}
	}
}
