{
	 "smiles": "OC(=O)C1=NN(C2=NC3=C(N2)C=CC=C3)C(=O)CC1", 
	 "Tm": 602.15, 
	 "num_atms": 29, 
	 "gaussian": { 
		 "optdone": 1, 
		 "sigma_profile": "yes", 
		 "theory": "DFT", 
		 "functional": "B3LYP", 
		 "basiset": "6-31G**", 
		 "properties": { 
			 "R2extent": 6384.3406, 
			 "electric_dipole_moment_norm": 4.2500736523, 
			 "electric_quadrupole_moment_norm": 22.3630553235, 
			 "total_energy": -907.987041577, 
			 "HOMO_LUMO_gap": 0.13501, 
			 "cosmo_polarized_energy": -19.36, 
			 "cosmo_cavitation_energy": 33.88, 
			 "cosmo_dispersion_energy": -25.34, 
			 "cosmo_repulsion_energy": 1.93, 
			 "cosmo_total_nonelectrostatic_energy": 10.47, 
			 "SMD_solvation_energy": 4.89 
		},
		"coords": [
			{
				"x": 1.9123594975,
				"y": -4.5055986649,
				"z": -0.1239277328,
				"element": "O" 
			},
			{
				"x": 0.6239348587,
				"y": -4.8650659373,
				"z": -0.1738372065,
				"element": "C" 
			},
			{
				"x": 0.2547547171,
				"y": -6.0140776529,
				"z": -0.2684026548,
				"element": "O" 
			},
			{
				"x": -0.3611072457,
				"y": -3.7243570648,
				"z": -0.1113684309,
				"element": "C" 
			},
			{
				"x": 0.166695,
				"y": -2.5642642954,
				"z": 0.0287556793,
				"element": "N" 
			},
			{
				"x": -0.6408874459,
				"y": -1.4471399664,
				"z": 0.0625310832,
				"element": "N" 
			},
			{
				"x": 0.0813408444,
				"y": -0.2327509304,
				"z": -0.0562543116,
				"element": "C" 
			},
			{
				"x": 1.3680806686,
				"y": -0.1758113443,
				"z": -0.2793109128,
				"element": "N" 
			},
			{
				"x": 1.638173385,
				"y": 1.1863994268,
				"z": -0.3252302307,
				"element": "C" 
			},
			{
				"x": 0.4529204733,
				"y": 1.935700117,
				"z": -0.1256080867,
				"element": "C" 
			},
			{
				"x": -0.5402962356,
				"y": 0.9845260952,
				"z": 0.0484727192,
				"element": "N" 
			},
			{
				"x": 0.4347014163,
				"y": 3.33080904,
				"z": -0.1283878684,
				"element": "C" 
			},
			{
				"x": 1.6547506549,
				"y": 3.9699901978,
				"z": -0.3383963013,
				"element": "C" 
			},
			{
				"x": 2.8444247351,
				"y": 3.2411012525,
				"z": -0.537702278,
				"element": "C" 
			},
			{
				"x": 2.8536377755,
				"y": 1.8496061466,
				"z": -0.533953011,
				"element": "C" 
			},
			{
				"x": -2.0216125836,
				"y": -1.5053247928,
				"z": 0.3051779945,
				"element": "C" 
			},
			{
				"x": -2.7122613333,
				"y": -0.4978913473,
				"z": 0.36437897,
				"element": "O" 
			},
			{
				"x": -2.5728287628,
				"y": -2.8958008547,
				"z": 0.5546837017,
				"element": "C" 
			},
			{
				"x": -1.8308524257,
				"y": -3.9773422059,
				"z": -0.2337471091,
				"element": "C" 
			},
			{
				"x": 1.9519245686,
				"y": -3.5301316684,
				"z": -0.0596393535,
				"element": "H" 
			},
			{
				"x": -1.5352535245,
				"y": 1.0886143561,
				"z": 0.1973030944,
				"element": "H" 
			},
			{
				"x": -0.4807336628,
				"y": 3.8935640257,
				"z": 0.0255939961,
				"element": "H" 
			},
			{
				"x": 1.6890599445,
				"y": 5.0552717478,
				"z": -0.3483475124,
				"element": "H" 
			},
			{
				"x": 3.7728951105,
				"y": 3.7810530749,
				"z": -0.6976648713,
				"element": "H" 
			},
			{
				"x": 3.7668781528,
				"y": 1.2840704663,
				"z": -0.687230669,
				"element": "H" 
			},
			{
				"x": -3.639729907,
				"y": -2.8643235589,
				"z": 0.3278448461,
				"element": "H" 
			},
			{
				"x": -2.4776964592,
				"y": -3.0828132521,
				"z": 1.6332541069,
				"element": "H" 
			},
			{
				"x": -2.1038908492,
				"y": -3.9432930502,
				"z": -1.2980593014,
				"element": "H" 
			},
			{
				"x": -2.0647813674,
				"y": -4.9849193599,
				"z": 0.1153716508,
				"element": "H" 
			}
		],
		 "valence_orbital": [ 
			{
				"type": "occ",
				"energy": -0.29198,
				"method": "rhf"
			},
			{
				"type": "occ",
				"energy": -0.28695,
				"method": "rhf"
			},
			{
				"type": "occ",
				"energy": -0.27787,
				"method": "rhf"
			},
			{
				"type": "occ",
				"energy": -0.23133,
				"method": "rhf"
			},
			{
				"type": "occ",
				"energy": -0.22128,
				"method": "rhf"
			},
			{
				"type": "unocc",
				"energy": -0.08627,
				"method": "rhf"
			},
			{
				"type": "unocc",
				"energy": -0.04032,
				"method": "rhf"
			},
			{
				"type": "unocc",
				"energy": 0.00322,
				"method": "rhf"
			},
			{
				"type": "unocc",
				"energy": 0.01985,
				"method": "rhf"
			},
			{
				"type": "unocc",
				"energy": 0.04995,
				"method": "rhf"
			}
		],
		"cosmo_sigma_profile": { 
			"-0.025": 0.0,
			"-0.024": 0.0,
			"-0.023": 0.0,
			"-0.022": 0.0,
			"-0.021": 0.0,
			"-0.02": 0.0,
			"-0.019": 0.0,
			"-0.018": 0.0,
			"-0.017": 0.0,
			"-0.016": 0.0,
			"-0.015": 0.0,
			"-0.014": 0.240224307442,
			"-0.013": 0.937336076743,
			"-0.012": 1.16895635371,
			"-0.011": 1.92877602509,
			"-0.01": 1.59020150938,
			"-0.009": 5.27048613902,
			"-0.008": 9.78222646021,
			"-0.007": 14.7723548684,
			"-0.006": 20.3657003627,
			"-0.005": 19.6244198937,
			"-0.004": 21.6233759835,
			"-0.003": 16.8151778368,
			"-0.002": 12.7273776069,
			"-0.001": 13.5580302299,
			"0.0": 12.1562152698,
			"0.001": 11.4517265067,
			"0.002": 11.0505725762,
			"0.003": 12.2935379891,
			"0.004": 16.1836690098,
			"0.005": 13.2096376523,
			"0.006": 12.0586863608,
			"0.007": 5.82463291344,
			"0.008": 7.19132745643,
			"0.009": 7.52176045164,
			"0.01": 8.11058946705,
			"0.011": 8.11613636509,
			"0.012": 3.44002677878,
			"0.013": 1.53715170281,
			"0.014": 1.14819799561,
			"0.015": 0.291922866941,
			"0.016": 0.0,
			"0.017": 0.0,
			"0.018": 0.0,
			"0.019": 0.0,
			"0.02": 0.0,
			"0.021": 0.0,
			"0.022": 0.0,
			"0.023": 0.0,
			"0.024": 0.0,
			"0.025": 0.0
		}
	}
}
