{
	 "smiles": "OC(=O)C1CCN(CC1)C(=O)OCC1=CC=CC=C1", 
	 "Tm": 352.65, 
	 "num_atms": 36, 
	 "gaussian": { 
		 "optdone": 1, 
		 "sigma_profile": "yes", 
		 "theory": "DFT", 
		 "functional": "B3LYP", 
		 "basiset": "6-31G**", 
		 "properties": { 
			 "R2extent": 6077.5178, 
			 "electric_dipole_moment_norm": 4.13303097133, 
			 "electric_quadrupole_moment_norm": 26.4377985925, 
			 "total_energy": -899.414144279, 
			 "HOMO_LUMO_gap": 0.23579, 
			 "cosmo_polarized_energy": -18.1, 
			 "cosmo_cavitation_energy": 38.13, 
			 "cosmo_dispersion_energy": -26.56, 
			 "cosmo_repulsion_energy": 2.06, 
			 "cosmo_total_nonelectrostatic_energy": 13.62, 
			 "SMD_solvation_energy": 8.05 
		},
		"coords": [
			{
				"x": -1.6356697924,
				"y": -1.3368321231,
				"z": 0.7401931698,
				"element": "O" 
			},
			{
				"x": -2.6004126383,
				"y": -0.8690128142,
				"z": 1.5666073276,
				"element": "C" 
			},
			{
				"x": -3.6380506575,
				"y": -1.4724898306,
				"z": 1.7041027407,
				"element": "O" 
			},
			{
				"x": -2.3119688085,
				"y": 0.4556136318,
				"z": 2.2874730982,
				"element": "C" 
			},
			{
				"x": -2.5051245466,
				"y": 1.6592539059,
				"z": 1.3353280694,
				"element": "C" 
			},
			{
				"x": -1.4713162305,
				"y": 1.6909522184,
				"z": 0.1950058101,
				"element": "C" 
			},
			{
				"x": -0.1670677568,
				"y": 1.1787244304,
				"z": 0.6786194368,
				"element": "N" 
			},
			{
				"x": 0.0918460794,
				"y": 1.3613348234,
				"z": 2.1157164387,
				"element": "C" 
			},
			{
				"x": -0.8977707499,
				"y": 0.5175336482,
				"z": 2.9385816997,
				"element": "C" 
			},
			{
				"x": 0.9315433364,
				"y": 1.1546321749,
				"z": -0.1691175639,
				"element": "C" 
			},
			{
				"x": 2.0838531876,
				"y": 1.0094299281,
				"z": 0.2014293674,
				"element": "O" 
			},
			{
				"x": 0.5419641575,
				"y": 1.2852894287,
				"z": -1.456546487,
				"element": "O" 
			},
			{
				"x": 1.5912301762,
				"y": 1.1601027133,
				"z": -2.4607396487,
				"element": "C" 
			},
			{
				"x": 1.7628884255,
				"y": -0.2660762199,
				"z": -2.9183732974,
				"element": "C" 
			},
			{
				"x": 2.6384095627,
				"y": -1.1303288881,
				"z": -2.2455943794,
				"element": "C" 
			},
			{
				"x": 2.7832698145,
				"y": -2.4525309686,
				"z": -2.6659411883,
				"element": "C" 
			},
			{
				"x": 2.0568449993,
				"y": -2.9245264181,
				"z": -3.7615209351,
				"element": "C" 
			},
			{
				"x": 1.1834018524,
				"y": -2.0701003896,
				"z": -4.4370390693,
				"element": "C" 
			},
			{
				"x": 1.0385948321,
				"y": -0.7480065342,
				"z": -4.015899568,
				"element": "C" 
			},
			{
				"x": -0.8977260821,
				"y": -0.6970269092,
				"z": 0.6887205092,
				"element": "H" 
			},
			{
				"x": -3.078851131,
				"y": 0.5075718622,
				"z": 3.0629326247,
				"element": "H" 
			},
			{
				"x": -2.4321949538,
				"y": 2.5749421928,
				"z": 1.9328202639,
				"element": "H" 
			},
			{
				"x": -3.5107193465,
				"y": 1.6466112805,
				"z": 0.9043302525,
				"element": "H" 
			},
			{
				"x": -1.3641770531,
				"y": 2.7121959634,
				"z": -0.1923030827,
				"element": "H" 
			},
			{
				"x": -1.7934697681,
				"y": 1.061980571,
				"z": -0.6370502313,
				"element": "H" 
			},
			{
				"x": 0.0005338767,
				"y": 2.4266183886,
				"z": 2.3708160885,
				"element": "H" 
			},
			{
				"x": 1.1242265212,
				"y": 1.069161608,
				"z": 2.3031392963,
				"element": "H" 
			},
			{
				"x": -0.5016471646,
				"y": -0.4948697865,
				"z": 3.0696631743,
				"element": "H" 
			},
			{
				"x": -0.9775019932,
				"y": 0.9511563883,
				"z": 3.9405514436,
				"element": "H" 
			},
			{
				"x": 1.2484549106,
				"y": 1.7974747317,
				"z": -3.2782283389,
				"element": "H" 
			},
			{
				"x": 2.5151181112,
				"y": 1.5614257121,
				"z": -2.0414088192,
				"element": "H" 
			},
			{
				"x": 3.1920389707,
				"y": -0.7602295236,
				"z": -1.3882522153,
				"element": "H" 
			},
			{
				"x": 3.4646641014,
				"y": -3.1145491383,
				"z": -2.1392789731,
				"element": "H" 
			},
			{
				"x": 2.1720111889,
				"y": -3.9539773228,
				"z": -4.0885381089,
				"element": "H" 
			},
			{
				"x": 0.6174641969,
				"y": -2.4320341349,
				"z": -5.2905521422,
				"element": "H" 
			},
			{
				"x": 0.3593103719,
				"y": -0.0829145999,
				"z": -4.5438467625,
				"element": "H" 
			}
		],
		 "valence_orbital": [ 
			{
				"type": "occ",
				"energy": -0.28831,
				"method": "rhf"
			},
			{
				"type": "occ",
				"energy": -0.26827,
				"method": "rhf"
			},
			{
				"type": "occ",
				"energy": -0.25352,
				"method": "rhf"
			},
			{
				"type": "occ",
				"energy": -0.25316,
				"method": "rhf"
			},
			{
				"type": "occ",
				"energy": -0.2504,
				"method": "rhf"
			},
			{
				"type": "unocc",
				"energy": -0.01461,
				"method": "rhf"
			},
			{
				"type": "unocc",
				"energy": -0.00456,
				"method": "rhf"
			},
			{
				"type": "unocc",
				"energy": 0.01602,
				"method": "rhf"
			},
			{
				"type": "unocc",
				"energy": 0.02595,
				"method": "rhf"
			},
			{
				"type": "unocc",
				"energy": 0.06677,
				"method": "rhf"
			}
		],
		"cosmo_sigma_profile": { 
			"-0.025": 0.0,
			"-0.024": 0.0,
			"-0.023": 0.0,
			"-0.022": 0.0,
			"-0.021": 0.0,
			"-0.02": 0.0,
			"-0.019": 0.0,
			"-0.018": 0.0,
			"-0.017": 0.0,
			"-0.016": 0.0,
			"-0.015": 0.0,
			"-0.014": 0.0,
			"-0.013": 0.0,
			"-0.012": 0.0,
			"-0.011": 0.0,
			"-0.01": 0.816343907698,
			"-0.009": 1.52910127003,
			"-0.008": 1.71781054353,
			"-0.007": 3.67515971045,
			"-0.006": 14.7252575622,
			"-0.005": 39.9544425957,
			"-0.004": 39.8913825172,
			"-0.003": 32.9366399015,
			"-0.002": 22.3556222351,
			"-0.001": 17.0534103939,
			"0.0": 12.6747474614,
			"0.001": 10.4355300384,
			"0.002": 12.0534441725,
			"0.003": 13.5907007709,
			"0.004": 14.5236361307,
			"0.005": 16.0125221152,
			"0.006": 8.11141317704,
			"0.007": 3.31566620632,
			"0.008": 3.93726218515,
			"0.009": 3.88359368594,
			"0.01": 5.88454029522,
			"0.011": 6.80598893874,
			"0.012": 9.03014468998,
			"0.013": 4.89495896211,
			"0.014": 0.833099487283,
			"0.015": 0.0,
			"0.016": 0.0,
			"0.017": 0.0,
			"0.018": 0.0,
			"0.019": 0.0,
			"0.02": 0.0,
			"0.021": 0.0,
			"0.022": 0.0,
			"0.023": 0.0,
			"0.024": 0.0,
			"0.025": 0.0
		}
	}
}
