{
	 "smiles": "NC(=O)C1=CN=C(C=C1)C(O)=O", 
	 "Tm": 523.15, 
	 "num_atms": 18, 
	 "gaussian": { 
		 "optdone": 1, 
		 "sigma_profile": "yes", 
		 "theory": "DFT", 
		 "functional": "B3LYP", 
		 "basiset": "6-31G**", 
		 "properties": { 
			 "R2extent": 2655.9114, 
			 "electric_dipole_moment_norm": 5.58704438948, 
			 "electric_quadrupole_moment_norm": 20.8850197182, 
			 "total_energy": -605.564416865, 
			 "HOMO_LUMO_gap": 0.18508, 
			 "cosmo_polarized_energy": -19.27, 
			 "cosmo_cavitation_energy": 23.56, 
			 "cosmo_dispersion_energy": -17.62, 
			 "cosmo_repulsion_energy": 1.41, 
			 "cosmo_total_nonelectrostatic_energy": 7.35, 
			 "SMD_solvation_energy": 5.43 
		},
		"coords": [
			{
				"x": -1.0558244801,
				"y": -1.4262775074,
				"z": 2.4711666785,
				"element": "N" 
			},
			{
				"x": -1.1513507237,
				"y": -0.1030172051,
				"z": 2.1277188848,
				"element": "C" 
			},
			{
				"x": -1.5889755693,
				"y": 0.7449769203,
				"z": 2.8931169468,
				"element": "O" 
			},
			{
				"x": -0.6581024183,
				"y": 0.2686582799,
				"z": 0.7549292367,
				"element": "C" 
			},
			{
				"x": 0.2068413921,
				"y": -0.5274993083,
				"z": -0.0071854595,
				"element": "C" 
			},
			{
				"x": 0.6418730749,
				"y": -0.1749723324,
				"z": -1.2196436982,
				"element": "N" 
			},
			{
				"x": 0.230128326,
				"y": 0.9989212894,
				"z": -1.7219027878,
				"element": "C" 
			},
			{
				"x": -0.6123456687,
				"y": 1.8763019672,
				"z": -1.0374694105,
				"element": "C" 
			},
			{
				"x": -1.0556312336,
				"y": 1.5030292728,
				"z": 0.2256970794,
				"element": "C" 
			},
			{
				"x": 0.7444752772,
				"y": 1.33828389,
				"z": -3.1010887248,
				"element": "C" 
			},
			{
				"x": 1.55321264,
				"y": 0.4027463307,
				"z": -3.6196745796,
				"element": "O" 
			},
			{
				"x": 0.4494524978,
				"y": 2.3595432667,
				"z": -3.6786011154,
				"element": "O" 
			},
			{
				"x": -0.9905202496,
				"y": -2.1460630578,
				"z": 1.7687464959,
				"element": "H" 
			},
			{
				"x": -1.4734120714,
				"y": -1.6813294172,
				"z": 3.3547923178,
				"element": "H" 
			},
			{
				"x": 0.5892889105,
				"y": -1.4701414562,
				"z": 0.3779499093,
				"element": "H" 
			},
			{
				"x": -0.8919612709,
				"y": 2.8138576027,
				"z": -1.503607222,
				"element": "H" 
			},
			{
				"x": -1.7010638973,
				"y": 2.1392074924,
				"z": 0.8221329389,
				"element": "H" 
			},
			{
				"x": 1.6209154643,
				"y": -0.3063260276,
				"z": -2.9464774902,
				"element": "H" 
			}
		],
		 "valence_orbital": [ 
			{
				"type": "occ",
				"energy": -0.31434,
				"method": "rhf"
			},
			{
				"type": "occ",
				"energy": -0.29389,
				"method": "rhf"
			},
			{
				"type": "occ",
				"energy": -0.29182,
				"method": "rhf"
			},
			{
				"type": "occ",
				"energy": -0.27722,
				"method": "rhf"
			},
			{
				"type": "occ",
				"energy": -0.27118,
				"method": "rhf"
			},
			{
				"type": "unocc",
				"energy": -0.0861,
				"method": "rhf"
			},
			{
				"type": "unocc",
				"energy": -0.05509,
				"method": "rhf"
			},
			{
				"type": "unocc",
				"energy": 0.00284,
				"method": "rhf"
			},
			{
				"type": "unocc",
				"energy": 0.05442,
				"method": "rhf"
			},
			{
				"type": "unocc",
				"energy": 0.07107,
				"method": "rhf"
			}
		],
		"cosmo_sigma_profile": { 
			"-0.025": 0.0,
			"-0.024": 0.0,
			"-0.023": 0.0,
			"-0.022": 0.0,
			"-0.021": 0.0,
			"-0.02": 0.0,
			"-0.019": 0.0,
			"-0.018": 0.0,
			"-0.017": 0.0,
			"-0.016": 0.0926236334175,
			"-0.015": 1.21607739455,
			"-0.014": 3.20727401537,
			"-0.013": 2.57647877178,
			"-0.012": 3.62523998041,
			"-0.011": 3.02010437368,
			"-0.01": 3.75429788388,
			"-0.009": 2.81224982886,
			"-0.008": 4.81495462031,
			"-0.007": 6.88317379732,
			"-0.006": 7.04541812077,
			"-0.005": 9.91205373931,
			"-0.004": 8.32963722665,
			"-0.003": 11.2471338075,
			"-0.002": 15.6558923327,
			"-0.001": 16.4161476488,
			"0.0": 13.3451417835,
			"0.001": 7.55954898405,
			"0.002": 6.11535883875,
			"0.003": 4.7173029523,
			"0.004": 7.00825695172,
			"0.005": 4.86098115984,
			"0.006": 4.13630307894,
			"0.007": 5.03542657058,
			"0.008": 4.10214583308,
			"0.009": 5.17730636332,
			"0.01": 6.55062224343,
			"0.011": 7.14152611141,
			"0.012": 6.43331861128,
			"0.013": 5.42914881585,
			"0.014": 0.834414070588,
			"0.015": 0.0,
			"0.016": 0.0,
			"0.017": 0.0,
			"0.018": 0.0,
			"0.019": 0.0,
			"0.02": 0.0,
			"0.021": 0.0,
			"0.022": 0.0,
			"0.023": 0.0,
			"0.024": 0.0,
			"0.025": 0.0
		}
	}
}
