{
	 "smiles": "CC(C(O)=O)C1=CC=C(O)C=C1", 
	 "Tm": 405.15, 
	 "num_atms": 22, 
	 "gaussian": { 
		 "optdone": 1, 
		 "sigma_profile": "no", 
		 "theory": "DFT", 
		 "functional": "B3LYP", 
		 "basiset": "6-31G**", 
		 "properties": { 
			 "R2extent": 2830.0543, 
			 "electric_dipole_moment_norm": 4.38171481158, 
			 "electric_quadrupole_moment_norm": 27.4910320326, 
			 "total_energy": -574.667049111, 
			 "HOMO_LUMO_gap": 0.21053, 
			 "cosmo_polarized_energy": -12.99, 
			 "cosmo_cavitation_energy": 25.98, 
			 "cosmo_dispersion_energy": -18.59, 
			 "cosmo_repulsion_energy": 1.5, 
			 "cosmo_total_nonelectrostatic_energy": 8.89, 
			 "SMD_solvation_energy": 5.99 
		},
		"coords": [
			{
				"x": -2.5956901552,
				"y": 2.0237399418,
				"z": 0.0859651179,
				"element": "C" 
			},
			{
				"x": -2.4069525358,
				"y": 0.5011020967,
				"z": 0.1526968688,
				"element": "C" 
			},
			{
				"x": -3.5136476229,
				"y": -0.2159514423,
				"z": -0.6464082991,
				"element": "C" 
			},
			{
				"x": -3.2855515142,
				"y": -1.5252070772,
				"z": -0.9151908506,
				"element": "O" 
			},
			{
				"x": -4.5478336171,
				"y": 0.3058193231,
				"z": -0.9835829598,
				"element": "O" 
			},
			{
				"x": -1.0094302896,
				"y": 0.0439926854,
				"z": -0.2429350092,
				"element": "C" 
			},
			{
				"x": -0.5297385108,
				"y": 0.2290592027,
				"z": -1.5494212668,
				"element": "C" 
			},
			{
				"x": 0.7540699189,
				"y": -0.1702018092,
				"z": -1.9118049113,
				"element": "C" 
			},
			{
				"x": 1.5950954028,
				"y": -0.7684629292,
				"z": -0.9647968666,
				"element": "C" 
			},
			{
				"x": 2.8616983576,
				"y": -1.1804065917,
				"z": -1.2566043598,
				"element": "O" 
			},
			{
				"x": 1.1358087014,
				"y": -0.9653564104,
				"z": 0.3412627161,
				"element": "C" 
			},
			{
				"x": -0.1514007133,
				"y": -0.5615463996,
				"z": 0.6880993549,
				"element": "C" 
			},
			{
				"x": -1.8845607561,
				"y": 2.5225011589,
				"z": 0.7499993774,
				"element": "H" 
			},
			{
				"x": -2.4341297904,
				"y": 2.3948936574,
				"z": -0.9301430845,
				"element": "H" 
			},
			{
				"x": -3.6127313276,
				"y": 2.2918913884,
				"z": 0.3781587398,
				"element": "H" 
			},
			{
				"x": -2.5715521437,
				"y": 0.1825259462,
				"z": 1.1927349752,
				"element": "H" 
			},
			{
				"x": -2.3794068097,
				"y": -1.7503019891,
				"z": -0.6496610892,
				"element": "H" 
			},
			{
				"x": -1.1687661661,
				"y": 0.6888294776,
				"z": -2.2990062939,
				"element": "H" 
			},
			{
				"x": 1.1030840433,
				"y": -0.0188168819,
				"z": -2.9311355458,
				"element": "H" 
			},
			{
				"x": 3.0567013847,
				"y": -0.9866700432,
				"z": -2.182768604,
				"element": "H" 
			},
			{
				"x": 1.7955963428,
				"y": -1.4301933486,
				"z": 1.0661765131,
				"element": "H" 
			},
			{
				"x": -0.4939621991,
				"y": -0.713639956,
				"z": 1.7089654776,
				"element": "H" 
			}
		],
		 "valence_orbital": [ 
			{
				"type": "occ",
				"energy": -0.34237,
				"method": "rhf"
			},
			{
				"type": "occ",
				"energy": -0.30869,
				"method": "rhf"
			},
			{
				"type": "occ",
				"energy": -0.26989,
				"method": "rhf"
			},
			{
				"type": "occ",
				"energy": -0.26779,
				"method": "rhf"
			},
			{
				"type": "occ",
				"energy": -0.23242,
				"method": "rhf"
			},
			{
				"type": "unocc",
				"energy": -0.02189,
				"method": "rhf"
			},
			{
				"type": "unocc",
				"energy": -0.00837,
				"method": "rhf"
			},
			{
				"type": "unocc",
				"energy": 0.01378,
				"method": "rhf"
			},
			{
				"type": "unocc",
				"energy": 0.0584,
				"method": "rhf"
			},
			{
				"type": "unocc",
				"energy": 0.08271,
				"method": "rhf"
			}
		],
		"cosmo_sigma_profile": { 
			"0.0": 0.0,
			"0.0": 0.0,
			"0.0": 0.0,
			"0.0": 0.0,
			"0.0": 0.0,
			"0.0": 0.0,
			"0.0": 0.0,
			"0.0": 0.0,
			"0.0": 0.0,
			"0.0": 0.0,
			"0.0": 0.0,
			"0.0": 0.0,
			"0.0": 0.0,
			"0.0": 0.0,
			"0.0": 0.0,
			"0.0": 0.0,
			"0.0": 0.0,
			"0.0": 0.0,
			"0.0": 0.0,
			"0.0": 0.0,
			"0.0": 0.0,
			"0.0": 0.0,
			"0.0": 0.0,
			"0.0": 0.0,
			"0.0": 0.0,
			"0.0": 0.0,
			"0.0": 0.0,
			"0.0": 0.0,
			"0.0": 0.0,
			"0.0": 0.0,
			"0.0": 0.0,
			"0.0": 0.0,
			"0.0": 0.0,
			"0.0": 0.0,
			"0.0": 0.0,
			"0.0": 0.0,
			"0.0": 0.0,
			"0.0": 0.0,
			"0.0": 0.0,
			"0.0": 0.0,
			"0.0": 0.0,
			"0.0": 0.0,
			"0.0": 0.0,
			"0.0": 0.0,
			"0.0": 0.0,
			"0.0": 0.0,
			"0.0": 0.0,
			"0.0": 0.0,
			"0.0": 0.0,
			"0.0": 0.0,
			"0.0": 0.0
		}
	}
}
