{
	 "smiles": "NNC1=CC=C(C=C1)C(F)(F)F", 
	 "Tm": 335.15, 
	 "num_atms": 19, 
	 "gaussian": { 
		 "optdone": 1, 
		 "sigma_profile": "yes", 
		 "theory": "DFT", 
		 "functional": "B3LYP", 
		 "basiset": "6-31G**", 
		 "properties": { 
			 "R2extent": 3676.22, 
			 "electric_dipole_moment_norm": 3.22038343524, 
			 "electric_quadrupole_moment_norm": 16.3339383438, 
			 "total_energy": -679.961905612, 
			 "HOMO_LUMO_gap": 0.20236, 
			 "cosmo_polarized_energy": -9.79, 
			 "cosmo_cavitation_energy": 24.51, 
			 "cosmo_dispersion_energy": -17.67, 
			 "cosmo_repulsion_energy": 1.35, 
			 "cosmo_total_nonelectrostatic_energy": 8.19, 
			 "SMD_solvation_energy": 5.74 
		},
		"coords": [
			{
				"x": -1.0011533272,
				"y": 2.4579771152,
				"z": 0.3076982108,
				"element": "N" 
			},
			{
				"x": -0.8465012523,
				"y": 1.3928666195,
				"z": -0.5965376271,
				"element": "N" 
			},
			{
				"x": -0.6393541449,
				"y": 0.0839934788,
				"z": -0.1804508277,
				"element": "C" 
			},
			{
				"x": -0.8583480189,
				"y": -0.9731228319,
				"z": -1.0886527432,
				"element": "C" 
			},
			{
				"x": -0.6219960515,
				"y": -2.2861250903,
				"z": -0.7133604481,
				"element": "C" 
			},
			{
				"x": -0.1611421278,
				"y": -2.5860369622,
				"z": 0.5756493654,
				"element": "C" 
			},
			{
				"x": 0.0582196464,
				"y": -1.5447333793,
				"z": 1.4786464454,
				"element": "C" 
			},
			{
				"x": -0.1750934409,
				"y": -0.2223056531,
				"z": 1.1113619684,
				"element": "C" 
			},
			{
				"x": 0.0306485075,
				"y": -4.0119302789,
				"z": 0.9934251561,
				"element": "C" 
			},
			{
				"x": -1.1170873309,
				"y": -4.5701592777,
				"z": 1.4548774726,
				"element": "F" 
			},
			{
				"x": 0.4451040378,
				"y": -4.7883784439,
				"z": -0.0355630692,
				"element": "F" 
			},
			{
				"x": 0.9427886923,
				"y": -4.1323247571,
				"z": 1.9859291915,
				"element": "F" 
			},
			{
				"x": -1.5609933667,
				"y": 2.1712337054,
				"z": 1.1121695481,
				"element": "H" 
			},
			{
				"x": -0.0856876172,
				"y": 2.7425787944,
				"z": 0.6471525841,
				"element": "H" 
			},
			{
				"x": -1.4274185609,
				"y": 1.5077483776,
				"z": -1.4152653797,
				"element": "H" 
			},
			{
				"x": -1.2108941577,
				"y": -0.7506691231,
				"z": -2.0926057275,
				"element": "H" 
			},
			{
				"x": -0.7903073287,
				"y": -3.0882807002,
				"z": -1.4244233447,
				"element": "H" 
			},
			{
				"x": 0.4230269951,
				"y": -1.7671715378,
				"z": 2.4758906318,
				"element": "H" 
			},
			{
				"x": 0.0146888464,
				"y": 0.5740399446,
				"z": 1.8222585931,
				"element": "H" 
			}
		],
		 "valence_orbital": [ 
			{
				"type": "occ",
				"energy": -0.3551,
				"method": "rhf"
			},
			{
				"type": "occ",
				"energy": -0.31504,
				"method": "rhf"
			},
			{
				"type": "occ",
				"energy": -0.27925,
				"method": "rhf"
			},
			{
				"type": "occ",
				"energy": -0.26362,
				"method": "rhf"
			},
			{
				"type": "occ",
				"energy": -0.21625,
				"method": "rhf"
			},
			{
				"type": "unocc",
				"energy": -0.01389,
				"method": "rhf"
			},
			{
				"type": "unocc",
				"energy": -0.00867,
				"method": "rhf"
			},
			{
				"type": "unocc",
				"energy": 0.06723,
				"method": "rhf"
			},
			{
				"type": "unocc",
				"energy": 0.08769,
				"method": "rhf"
			},
			{
				"type": "unocc",
				"energy": 0.10331,
				"method": "rhf"
			}
		],
		"cosmo_sigma_profile": { 
			"-0.025": 0.0,
			"-0.024": 0.0,
			"-0.023": 0.0,
			"-0.022": 0.0,
			"-0.021": 0.0,
			"-0.02": 0.0,
			"-0.019": 0.0,
			"-0.018": 0.0,
			"-0.017": 0.0,
			"-0.016": 0.0,
			"-0.015": 0.0,
			"-0.014": 0.0467930212153,
			"-0.013": 0.871813718355,
			"-0.012": 1.44418185089,
			"-0.011": 3.39180239963,
			"-0.01": 3.96802781315,
			"-0.009": 5.32699996462,
			"-0.008": 5.08999201163,
			"-0.007": 5.32931207814,
			"-0.006": 8.29003416708,
			"-0.005": 9.51808725342,
			"-0.004": 9.24012074424,
			"-0.003": 7.60223162566,
			"-0.002": 7.45989043797,
			"-0.001": 7.44313560523,
			"0.0": 9.0579836852,
			"0.001": 12.8328699039,
			"0.002": 16.6467388639,
			"0.003": 36.680910889,
			"0.004": 24.3370383164,
			"0.005": 9.49352568012,
			"0.006": 1.83469887269,
			"0.007": 1.91460534785,
			"0.008": 1.02837429736,
			"0.009": 0.969965372935,
			"0.01": 1.44323601558,
			"0.011": 0.670267546573,
			"0.012": 0.461042159152,
			"0.013": 0.582903638337,
			"0.014": 0.59821249517,
			"0.015": 0.569249371462,
			"0.016": 0.665922610567,
			"0.017": 0.156765149676,
			"0.018": 0.0,
			"0.019": 0.0,
			"0.02": 0.0,
			"0.021": 0.0,
			"0.022": 0.0,
			"0.023": 0.0,
			"0.024": 0.0,
			"0.025": 0.0
		}
	}
}
