{
	 "smiles": "CC(C)(C)OC(=O)NC1=CC=CS1", 
	 "Tm": 425.15, 
	 "num_atms": 26, 
	 "gaussian": { 
		 "optdone": 1, 
		 "sigma_profile": "yes", 
		 "theory": "DFT", 
		 "functional": "B3LYP", 
		 "basiset": "6-31G**", 
		 "properties": { 
			 "R2extent": 3387.5157, 
			 "electric_dipole_moment_norm": 1.22277430869, 
			 "electric_quadrupole_moment_norm": 10.0850438948, 
			 "total_energy": -954.195904534, 
			 "HOMO_LUMO_gap": 0.19461, 
			 "cosmo_polarized_energy": -9.65, 
			 "cosmo_cavitation_energy": 30.27, 
			 "cosmo_dispersion_energy": -21.9, 
			 "cosmo_repulsion_energy": 1.68, 
			 "cosmo_total_nonelectrostatic_energy": 10.05, 
			 "SMD_solvation_energy": 6.51 
		},
		"coords": [
			{
				"x": 1.8322588906,
				"y": 0.3834149374,
				"z": -2.7897156151,
				"element": "C" 
			},
			{
				"x": 1.5611893746,
				"y": -0.3993837408,
				"z": -1.5017027768,
				"element": "C" 
			},
			{
				"x": 2.7915727253,
				"y": -0.4003499277,
				"z": -0.5925471081,
				"element": "C" 
			},
			{
				"x": 1.0800738811,
				"y": -1.8275137137,
				"z": -1.774127045,
				"element": "C" 
			},
			{
				"x": 0.5562094017,
				"y": 0.3170958144,
				"z": -0.6857830372,
				"element": "O" 
			},
			{
				"x": -0.6872452676,
				"y": 0.5276471099,
				"z": -1.1497391552,
				"element": "C" 
			},
			{
				"x": -1.1401354294,
				"y": 0.1866152392,
				"z": -2.2294252263,
				"element": "O" 
			},
			{
				"x": -1.4569039897,
				"y": 1.2116166134,
				"z": -0.2305214999,
				"element": "N" 
			},
			{
				"x": -1.1764739081,
				"y": 1.7014873345,
				"z": 1.0467165435,
				"element": "C" 
			},
			{
				"x": -2.0815958302,
				"y": 2.3709210603,
				"z": 1.8346824368,
				"element": "C" 
			},
			{
				"x": -1.5356721066,
				"y": 2.7620280078,
				"z": 3.0941479796,
				"element": "C" 
			},
			{
				"x": -0.2330886533,
				"y": 2.3893731355,
				"z": 3.2493128419,
				"element": "C" 
			},
			{
				"x": 0.370583448,
				"y": 1.5427111166,
				"z": 1.8503300864,
				"element": "S" 
			},
			{
				"x": 2.6545688204,
				"y": -0.0895226938,
				"z": -3.336197329,
				"element": "H" 
			},
			{
				"x": 0.9499363962,
				"y": 0.4037984833,
				"z": -3.4297369623,
				"element": "H" 
			},
			{
				"x": 2.1270496836,
				"y": 1.4110193561,
				"z": -2.5553266379,
				"element": "H" 
			},
			{
				"x": 3.1038056381,
				"y": 0.62190902,
				"z": -0.3616231472,
				"element": "H" 
			},
			{
				"x": 2.5786402726,
				"y": -0.9174016341,
				"z": 0.3472078484,
				"element": "H" 
			},
			{
				"x": 3.6201675014,
				"y": -0.9124026186,
				"z": -1.090716984,
				"element": "H" 
			},
			{
				"x": 0.1897338088,
				"y": -1.8284095411,
				"z": -2.4033001999,
				"element": "H" 
			},
			{
				"x": 0.8528656531,
				"y": -2.3382874341,
				"z": -0.8332270299,
				"element": "H" 
			},
			{
				"x": 1.8721616582,
				"y": -2.387318038,
				"z": -2.2817916228,
				"element": "H" 
			},
			{
				"x": -2.3944484759,
				"y": 1.3752433316,
				"z": -0.5701955632,
				"element": "H" 
			},
			{
				"x": -3.1001449427,
				"y": 2.5748287806,
				"z": 1.522418881,
				"element": "H" 
			},
			{
				"x": -2.099807979,
				"y": 3.299547792,
				"z": 3.8478844023,
				"element": "H" 
			},
			{
				"x": 0.4227994287,
				"y": 2.5523322092,
				"z": 4.0927759198,
				"element": "H" 
			}
		],
		 "valence_orbital": [ 
			{
				"type": "occ",
				"energy": -0.31166,
				"method": "rhf"
			},
			{
				"type": "occ",
				"energy": -0.29538,
				"method": "rhf"
			},
			{
				"type": "occ",
				"energy": -0.27299,
				"method": "rhf"
			},
			{
				"type": "occ",
				"energy": -0.24841,
				"method": "rhf"
			},
			{
				"type": "occ",
				"energy": -0.20246,
				"method": "rhf"
			},
			{
				"type": "unocc",
				"energy": -0.00785,
				"method": "rhf"
			},
			{
				"type": "unocc",
				"energy": 0.03665,
				"method": "rhf"
			},
			{
				"type": "unocc",
				"energy": 0.0524,
				"method": "rhf"
			},
			{
				"type": "unocc",
				"energy": 0.0693,
				"method": "rhf"
			},
			{
				"type": "unocc",
				"energy": 0.08516,
				"method": "rhf"
			}
		],
		"cosmo_sigma_profile": { 
			"-0.025": 0.0,
			"-0.024": 0.0,
			"-0.023": 0.0,
			"-0.022": 0.0,
			"-0.021": 0.0,
			"-0.02": 0.0,
			"-0.019": 0.0,
			"-0.018": 0.0,
			"-0.017": 0.0,
			"-0.016": 0.248185282851,
			"-0.015": 0.890039379581,
			"-0.014": 1.40934940545,
			"-0.013": 0.845556412155,
			"-0.012": 0.441954502904,
			"-0.011": 1.25834235255,
			"-0.01": 1.3206830738,
			"-0.009": 1.22936950153,
			"-0.008": 2.12485006564,
			"-0.007": 4.41765610176,
			"-0.006": 6.03982929754,
			"-0.005": 7.7040410397,
			"-0.004": 17.7387744486,
			"-0.003": 20.6381183626,
			"-0.002": 20.2090504998,
			"-0.001": 23.2148487893,
			"0.0": 33.2482917915,
			"0.001": 20.7298071937,
			"0.002": 12.9842050444,
			"0.003": 12.7831497977,
			"0.004": 14.3130912505,
			"0.005": 14.3101744684,
			"0.006": 8.35784268237,
			"0.007": 2.69775466674,
			"0.008": 0.964171936511,
			"0.009": 1.51279659488,
			"0.01": 1.38261717082,
			"0.011": 1.53677188497,
			"0.012": 2.62768446662,
			"0.013": 3.14364989515,
			"0.014": 0.21048405498,
			"0.015": 0.0,
			"0.016": 0.0,
			"0.017": 0.0,
			"0.018": 0.0,
			"0.019": 0.0,
			"0.02": 0.0,
			"0.021": 0.0,
			"0.022": 0.0,
			"0.023": 0.0,
			"0.024": 0.0,
			"0.025": 0.0
		}
	}
}
