{
	 "smiles": "CNC(=O)OC1=CC=CC(=C1)N=CN(C)C", 
	 "Tm": 469.15, 
	 "num_atms": 31, 
	 "gaussian": { 
		 "optdone": 1, 
		 "sigma_profile": "yes", 
		 "theory": "DFT", 
		 "functional": "B3LYP", 
		 "basiset": "6-31G**", 
		 "properties": { 
			 "R2extent": 6204.8345, 
			 "electric_dipole_moment_norm": 6.70786524164, 
			 "electric_quadrupole_moment_norm": 28.991574286, 
			 "total_energy": -742.918508539, 
			 "HOMO_LUMO_gap": 0.18957, 
			 "cosmo_polarized_energy": -17.97, 
			 "cosmo_cavitation_energy": 35.47, 
			 "cosmo_dispersion_energy": -25.1, 
			 "cosmo_repulsion_energy": 2.02, 
			 "cosmo_total_nonelectrostatic_energy": 12.39, 
			 "SMD_solvation_energy": 6.47 
		},
		"coords": [
			{
				"x": 0.6557859015,
				"y": -4.79998531,
				"z": 2.574024054,
				"element": "C" 
			},
			{
				"x": 0.2229101926,
				"y": -3.4195810761,
				"z": 2.6903440593,
				"element": "N" 
			},
			{
				"x": -0.8263691026,
				"y": -3.0757772667,
				"z": 3.4917369658,
				"element": "C" 
			},
			{
				"x": -1.5300300614,
				"y": -3.8510540094,
				"z": 4.1010715966,
				"element": "O" 
			},
			{
				"x": -1.0910299324,
				"y": -1.7216316727,
				"z": 3.5772689573,
				"element": "O" 
			},
			{
				"x": -0.3422700411,
				"y": -0.7820846573,
				"z": 2.872754667,
				"element": "C" 
			},
			{
				"x": 0.8524561639,
				"y": -0.3004892855,
				"z": 3.4096529986,
				"element": "C" 
			},
			{
				"x": 1.5342530123,
				"y": 0.7058980065,
				"z": 2.7170926319,
				"element": "C" 
			},
			{
				"x": 1.0356995971,
				"y": 1.2138023799,
				"z": 1.522100582,
				"element": "C" 
			},
			{
				"x": -0.1636460362,
				"y": 0.7183771922,
				"z": 0.9723631469,
				"element": "C" 
			},
			{
				"x": -0.8570966311,
				"y": -0.2852326314,
				"z": 1.6760802769,
				"element": "C" 
			},
			{
				"x": -0.623870196,
				"y": 1.2850084054,
				"z": -0.2194394339,
				"element": "N" 
			},
			{
				"x": -1.236165087,
				"y": 0.5447715138,
				"z": -1.0770993057,
				"element": "C" 
			},
			{
				"x": -1.8351258181,
				"y": 1.0325806633,
				"z": -2.1961820837,
				"element": "N" 
			},
			{
				"x": -2.3273444207,
				"y": 0.144569649,
				"z": -3.2311488704,
				"element": "C" 
			},
			{
				"x": -1.8102768052,
				"y": 2.4549436036,
				"z": -2.495625941,
				"element": "C" 
			},
			{
				"x": -0.1296561067,
				"y": -5.4311587204,
				"z": 2.9899766729,
				"element": "H" 
			},
			{
				"x": 1.5848763552,
				"y": -4.9858528691,
				"z": 3.1271851821,
				"element": "H" 
			},
			{
				"x": 0.8133935832,
				"y": -5.0661776063,
				"z": 1.5237131934,
				"element": "H" 
			},
			{
				"x": 0.7991643552,
				"y": -2.6880501573,
				"z": 2.302780347,
				"element": "H" 
			},
			{
				"x": 1.2110774324,
				"y": -0.6851425453,
				"z": 4.3584667171,
				"element": "H" 
			},
			{
				"x": 2.4597633476,
				"y": 1.1022831274,
				"z": 3.1249290615,
				"element": "H" 
			},
			{
				"x": 1.5575196931,
				"y": 2.0000772944,
				"z": 0.9867052377,
				"element": "H" 
			},
			{
				"x": -1.8173636324,
				"y": -0.652345183,
				"z": 1.3294038806,
				"element": "H" 
			},
			{
				"x": -1.3231886583,
				"y": -0.5451268456,
				"z": -0.978074861,
				"element": "H" 
			},
			{
				"x": -3.3494920426,
				"y": 0.4190849387,
				"z": -3.5183913017,
				"element": "H" 
			},
			{
				"x": -1.6990014038,
				"y": 0.1844481253,
				"z": -4.1322955758,
				"element": "H" 
			},
			{
				"x": -2.3382160119,
				"y": -0.8848053319,
				"z": -2.8652051326,
				"element": "H" 
			},
			{
				"x": -1.509910762,
				"y": 2.9935558943,
				"z": -1.5977147197,
				"element": "H" 
			},
			{
				"x": -1.0965837735,
				"y": 2.6786359375,
				"z": -3.3003345937,
				"element": "H" 
			},
			{
				"x": -2.805263111,
				"y": 2.7861584367,
				"z": -2.8141384095,
				"element": "H" 
			}
		],
		 "valence_orbital": [ 
			{
				"type": "occ",
				"energy": -0.26687,
				"method": "rhf"
			},
			{
				"type": "occ",
				"energy": -0.2531,
				"method": "rhf"
			},
			{
				"type": "occ",
				"energy": -0.24712,
				"method": "rhf"
			},
			{
				"type": "occ",
				"energy": -0.24128,
				"method": "rhf"
			},
			{
				"type": "occ",
				"energy": -0.20681,
				"method": "rhf"
			},
			{
				"type": "unocc",
				"energy": -0.01724,
				"method": "rhf"
			},
			{
				"type": "unocc",
				"energy": -0.00224,
				"method": "rhf"
			},
			{
				"type": "unocc",
				"energy": 0.04094,
				"method": "rhf"
			},
			{
				"type": "unocc",
				"energy": 0.06471,
				"method": "rhf"
			},
			{
				"type": "unocc",
				"energy": 0.07823,
				"method": "rhf"
			}
		],
		"cosmo_sigma_profile": { 
			"-0.025": 0.0,
			"-0.024": 0.0,
			"-0.023": 0.0,
			"-0.022": 0.0,
			"-0.021": 0.0,
			"-0.02": 0.0,
			"-0.019": 0.0,
			"-0.018": 0.0,
			"-0.017": 0.0,
			"-0.016": 0.0,
			"-0.015": 0.0,
			"-0.014": 0.0,
			"-0.013": 0.126228074755,
			"-0.012": 0.846672511354,
			"-0.011": 0.706089208918,
			"-0.01": 0.51772261321,
			"-0.009": 0.895388292217,
			"-0.008": 3.62604898608,
			"-0.007": 5.21351141639,
			"-0.006": 12.1441080302,
			"-0.005": 23.1045541113,
			"-0.004": 30.891691902,
			"-0.003": 31.889077029,
			"-0.002": 34.3446670696,
			"-0.001": 20.1809023308,
			"0.0": 13.038198383,
			"0.001": 12.5801160506,
			"0.002": 12.012988336,
			"0.003": 14.2890110792,
			"0.004": 12.3346973373,
			"0.005": 12.008129798,
			"0.006": 5.16997943921,
			"0.007": 4.66401668001,
			"0.008": 3.8031987322,
			"0.009": 4.24919552334,
			"0.01": 3.96913714659,
			"0.011": 4.07146906841,
			"0.012": 4.74951172438,
			"0.013": 6.8603628155,
			"0.014": 2.68489412784,
			"0.015": 0.309239612679,
			"0.016": 0.0,
			"0.017": 0.0,
			"0.018": 0.0,
			"0.019": 0.0,
			"0.02": 0.0,
			"0.021": 0.0,
			"0.022": 0.0,
			"0.023": 0.0,
			"0.024": 0.0,
			"0.025": 0.0
		}
	}
}
