{
	 "smiles": "CC(N)C1=CC=C(C=C1)C1=CC=NC=C1", 
	 "Tm": 361.15, 
	 "num_atms": 29, 
	 "gaussian": { 
		 "optdone": 1, 
		 "sigma_profile": "yes", 
		 "theory": "DFT", 
		 "functional": "B3LYP", 
		 "basiset": "6-31G**", 
		 "properties": { 
			 "R2extent": 4718.5172, 
			 "electric_dipole_moment_norm": 4.19211494594, 
			 "electric_quadrupole_moment_norm": 8.19185150378, 
			 "total_energy": -613.326964008, 
			 "HOMO_LUMO_gap": 0.18961, 
			 "cosmo_polarized_energy": -10.71, 
			 "cosmo_cavitation_energy": 31.97, 
			 "cosmo_dispersion_energy": -23.35, 
			 "cosmo_repulsion_energy": 1.81, 
			 "cosmo_total_nonelectrostatic_energy": 10.43, 
			 "SMD_solvation_energy": 3.11 
		},
		"coords": [
			{
				"x": 1.2268159424,
				"y": -1.5934185155,
				"z": 3.6070179598,
				"element": "C" 
			},
			{
				"x": 0.9311061256,
				"y": -2.2551501241,
				"z": 2.2505881294,
				"element": "C" 
			},
			{
				"x": 2.0322247267,
				"y": -3.1002617127,
				"z": 1.7574812265,
				"element": "N" 
			},
			{
				"x": 0.5252919039,
				"y": -1.2721745997,
				"z": 1.1515800507,
				"element": "C" 
			},
			{
				"x": 0.5286718045,
				"y": -1.6967400057,
				"z": -0.1868151591,
				"element": "C" 
			},
			{
				"x": 0.1370732234,
				"y": -0.8442354584,
				"z": -1.213694745,
				"element": "C" 
			},
			{
				"x": -0.2770387799,
				"y": 0.4720303554,
				"z": -0.9462872144,
				"element": "C" 
			},
			{
				"x": -0.280296039,
				"y": 0.8958181454,
				"z": 0.3904424058,
				"element": "C" 
			},
			{
				"x": 0.1152359945,
				"y": 0.04018634,
				"z": 1.4184904441,
				"element": "C" 
			},
			{
				"x": -0.6935508196,
				"y": 1.3822460702,
				"z": -2.04008342,
				"element": "C" 
			},
			{
				"x": -1.7249391751,
				"y": 2.3192857573,
				"z": -1.8698001464,
				"element": "C" 
			},
			{
				"x": -2.0765985136,
				"y": 3.1529333576,
				"z": -2.929608629,
				"element": "C" 
			},
			{
				"x": -1.4896009648,
				"y": 3.1246684333,
				"z": -4.1332740228,
				"element": "N" 
			},
			{
				"x": -0.5068211592,
				"y": 2.2291471086,
				"z": -4.2955253052,
				"element": "C" 
			},
			{
				"x": -0.077281013,
				"y": 1.352536425,
				"z": -3.3010390885,
				"element": "C" 
			},
			{
				"x": 0.3511100924,
				"y": -1.0868685332,
				"z": 4.0260237993,
				"element": "H" 
			},
			{
				"x": 1.5361760928,
				"y": -2.3567298469,
				"z": 4.3287077902,
				"element": "H" 
			},
			{
				"x": 2.0370631187,
				"y": -0.8599974529,
				"z": 3.521655319,
				"element": "H" 
			},
			{
				"x": 0.0799758226,
				"y": -2.9371276367,
				"z": 2.3994431835,
				"element": "H" 
			},
			{
				"x": 2.2578720176,
				"y": -3.8053122783,
				"z": 2.4556600208,
				"element": "H" 
			},
			{
				"x": 2.8687700181,
				"y": -2.5308710279,
				"z": 1.6387375354,
				"element": "H" 
			},
			{
				"x": 0.8503337624,
				"y": -2.708534087,
				"z": -0.4086080483,
				"element": "H" 
			},
			{
				"x": 0.1277668287,
				"y": -1.2112386412,
				"z": -2.236016893,
				"element": "H" 
			},
			{
				"x": -0.5660733848,
				"y": 1.9160257085,
				"z": 0.6294757904,
				"element": "H" 
			},
			{
				"x": 0.1080050573,
				"y": 0.4162309446,
				"z": 2.4358753398,
				"element": "H" 
			},
			{
				"x": -2.2653817409,
				"y": 2.3820667606,
				"z": -0.9305728302,
				"element": "H" 
			},
			{
				"x": -2.8791173122,
				"y": 3.8785620068,
				"z": -2.8055610436,
				"element": "H" 
			},
			{
				"x": -0.0295546137,
				"y": 2.2145814274,
				"z": -5.2742684013,
				"element": "H" 
			},
			{
				"x": 0.744460984,
				"y": 0.6716410796,
				"z": -3.4990240479,
				"element": "H" 
			}
		],
		 "valence_orbital": [ 
			{
				"type": "occ",
				"energy": -0.25761,
				"method": "rhf"
			},
			{
				"type": "occ",
				"energy": -0.25369,
				"method": "rhf"
			},
			{
				"type": "occ",
				"energy": -0.24803,
				"method": "rhf"
			},
			{
				"type": "occ",
				"energy": -0.24516,
				"method": "rhf"
			},
			{
				"type": "occ",
				"energy": -0.23017,
				"method": "rhf"
			},
			{
				"type": "unocc",
				"energy": -0.04056,
				"method": "rhf"
			},
			{
				"type": "unocc",
				"energy": -0.00844,
				"method": "rhf"
			},
			{
				"type": "unocc",
				"energy": -0.00243,
				"method": "rhf"
			},
			{
				"type": "unocc",
				"energy": 0.02011,
				"method": "rhf"
			},
			{
				"type": "unocc",
				"energy": 0.07922,
				"method": "rhf"
			}
		],
		"cosmo_sigma_profile": { 
			"-0.025": 0.0,
			"-0.024": 0.0,
			"-0.023": 0.0,
			"-0.022": 0.0,
			"-0.021": 0.0,
			"-0.02": 0.0,
			"-0.019": 0.0,
			"-0.018": 0.0,
			"-0.017": 0.0,
			"-0.016": 0.0,
			"-0.015": 0.0,
			"-0.014": 0.0,
			"-0.013": 0.0,
			"-0.012": 0.0,
			"-0.011": 0.0,
			"-0.01": 0.541683324478,
			"-0.009": 2.65149818448,
			"-0.008": 2.4420293764,
			"-0.007": 3.95305547658,
			"-0.006": 16.2591549559,
			"-0.005": 17.7703975286,
			"-0.004": 21.0247306247,
			"-0.003": 21.7673284092,
			"-0.002": 20.9271455578,
			"-0.001": 19.3683457736,
			"0.0": 16.280425118,
			"0.001": 19.985519235,
			"0.002": 22.6071501054,
			"0.003": 20.5463531016,
			"0.004": 11.2903550081,
			"0.005": 12.7287595477,
			"0.006": 5.11841797335,
			"0.007": 2.40902146509,
			"0.008": 2.09899535285,
			"0.009": 2.08648217502,
			"0.01": 2.22649360682,
			"0.011": 1.1659519551,
			"0.012": 1.77456976126,
			"0.013": 1.60708811271,
			"0.014": 1.42628867258,
			"0.015": 1.52173656459,
			"0.016": 1.23725333904,
			"0.017": 0.757818970944,
			"0.018": 0.0141297549401,
			"0.019": 0.0,
			"0.02": 0.0,
			"0.021": 0.0,
			"0.022": 0.0,
			"0.023": 0.0,
			"0.024": 0.0,
			"0.025": 0.0
		}
	}
}
