{
	 "smiles": "CC(C)(C)OC1=NC(OC(C)(C)C)=C(Br)C=N1", 
	 "Tm": 333.15, 
	 "num_atms": 36, 
	 "gaussian": { 
		 "optdone": 1, 
		 "sigma_profile": "yes", 
		 "theory": "DFT", 
		 "functional": "B3LYP", 
		 "basiset": "6-31G**", 
		 "properties": { 
			 "R2extent": 8463.7408, 
			 "electric_dipole_moment_norm": 3.85662319782, 
			 "electric_quadrupole_moment_norm": 10.4246998259, 
			 "total_energy": -3300.10533262, 
			 "HOMO_LUMO_gap": 0.19928, 
			 "cosmo_polarized_energy": -9.05, 
			 "cosmo_cavitation_energy": 38.96, 
			 "cosmo_dispersion_energy": -26.54, 
			 "cosmo_repulsion_energy": 2.06, 
			 "cosmo_total_nonelectrostatic_energy": 14.48, 
			 "SMD_solvation_energy": 5.13 
		},
		"coords": [
			{
				"x": -0.1011742788,
				"y": 3.0276814811,
				"z": 0.1502826159,
				"element": "C" 
			},
			{
				"x": -0.5118142877,
				"y": 2.5108992698,
				"z": 1.5331911442,
				"element": "C" 
			},
			{
				"x": 0.3794202239,
				"y": 1.3668571242,
				"z": 2.0280595435,
				"element": "C" 
			},
			{
				"x": -0.5122569755,
				"y": 3.6618621759,
				"z": 2.5459889331,
				"element": "C" 
			},
			{
				"x": -1.9163287142,
				"y": 2.0957482357,
				"z": 1.5461686154,
				"element": "O" 
			},
			{
				"x": -2.4369121827,
				"y": 1.0456363763,
				"z": 0.8963059702,
				"element": "C" 
			},
			{
				"x": -1.7525730751,
				"y": 0.4226557284,
				"z": -0.0773837357,
				"element": "N" 
			},
			{
				"x": -2.3488967312,
				"y": -0.6111253854,
				"z": -0.6784396011,
				"element": "C" 
			},
			{
				"x": -1.7660772809,
				"y": -1.3133460532,
				"z": -1.650885921,
				"element": "O" 
			},
			{
				"x": -0.5554209467,
				"y": -0.9287462559,
				"z": -2.3944621533,
				"element": "C" 
			},
			{
				"x": -0.4509618439,
				"y": -2.053455193,
				"z": -3.4295584229,
				"element": "C" 
			},
			{
				"x": 0.6716495656,
				"y": -0.9334988125,
				"z": -1.478500803,
				"element": "C" 
			},
			{
				"x": -0.7791335849,
				"y": 0.4193032942,
				"z": -3.0856176872,
				"element": "C" 
			},
			{
				"x": -3.6432296928,
				"y": -1.019280106,
				"z": -0.2921532956,
				"element": "C" 
			},
			{
				"x": -4.5283860094,
				"y": -2.4824471519,
				"z": -1.1142709343,
				"element": "Br" 
			},
			{
				"x": -4.2545999474,
				"y": -0.288435544,
				"z": 0.7140369607,
				"element": "C" 
			},
			{
				"x": -3.6696551837,
				"y": 0.7460901287,
				"z": 1.3216167075,
				"element": "N" 
			},
			{
				"x": -0.8180022406,
				"y": 3.7766850392,
				"z": -0.1999106676,
				"element": "H" 
			},
			{
				"x": -0.0506904268,
				"y": 2.222018558,
				"z": -0.5806305126,
				"element": "H" 
			},
			{
				"x": 0.8829570539,
				"y": 3.5033776186,
				"z": 0.2146819204,
				"element": "H" 
			},
			{
				"x": 0.3486329218,
				"y": 0.5123390247,
				"z": 1.3510483596,
				"element": "H" 
			},
			{
				"x": 0.0571005255,
				"y": 1.0385856442,
				"z": 3.020854553,
				"element": "H" 
			},
			{
				"x": 1.4156884026,
				"y": 1.7116557164,
				"z": 2.1025214216,
				"element": "H" 
			},
			{
				"x": -0.8566410315,
				"y": 3.3117987093,
				"z": 3.5227385383,
				"element": "H" 
			},
			{
				"x": -1.1787805875,
				"y": 4.4630247809,
				"z": 2.2146555104,
				"element": "H" 
			},
			{
				"x": 0.4970626532,
				"y": 4.0697866636,
				"z": 2.6548137778,
				"element": "H" 
			},
			{
				"x": -1.3531554213,
				"y": -2.0927663548,
				"z": -4.0456397246,
				"element": "H" 
			},
			{
				"x": -0.330554291,
				"y": -3.0210815485,
				"z": -2.9346220067,
				"element": "H" 
			},
			{
				"x": 0.4117404999,
				"y": -1.8848317779,
				"z": -4.080728971,
				"element": "H" 
			},
			{
				"x": 0.6401790769,
				"y": -0.1156867499,
				"z": -0.7603121581,
				"element": "H" 
			},
			{
				"x": 0.7327190905,
				"y": -1.8802383769,
				"z": -0.9332712811,
				"element": "H" 
			},
			{
				"x": 1.5777949842,
				"y": -0.8324392622,
				"z": -2.0848286436,
				"element": "H" 
			},
			{
				"x": -1.6607373338,
				"y": 0.3727348923,
				"z": -3.7319563302,
				"element": "H" 
			},
			{
				"x": 0.0879279155,
				"y": 0.6600093503,
				"z": -3.7088972131,
				"element": "H" 
			},
			{
				"x": -0.9177140098,
				"y": 1.2231859949,
				"z": -2.3619491302,
				"element": "H" 
			},
			{
				"x": -5.2580768364,
				"y": -0.5494572347,
				"z": 1.0425546214,
				"element": "H" 
			}
		],
		 "valence_orbital": [ 
			{
				"type": "occ",
				"energy": -0.29668,
				"method": "rhf"
			},
			{
				"type": "occ",
				"energy": -0.2894,
				"method": "rhf"
			},
			{
				"type": "occ",
				"energy": -0.28364,
				"method": "rhf"
			},
			{
				"type": "occ",
				"energy": -0.25211,
				"method": "rhf"
			},
			{
				"type": "occ",
				"energy": -0.22629,
				"method": "rhf"
			},
			{
				"type": "unocc",
				"energy": -0.02701,
				"method": "rhf"
			},
			{
				"type": "unocc",
				"energy": -0.00586,
				"method": "rhf"
			},
			{
				"type": "unocc",
				"energy": 0.01222,
				"method": "rhf"
			},
			{
				"type": "unocc",
				"energy": 0.07341,
				"method": "rhf"
			},
			{
				"type": "unocc",
				"energy": 0.08417,
				"method": "rhf"
			}
		],
		"cosmo_sigma_profile": { 
			"-0.025": 0.0,
			"-0.024": 0.0,
			"-0.023": 0.0,
			"-0.022": 0.0,
			"-0.021": 0.0,
			"-0.02": 0.0,
			"-0.019": 0.0,
			"-0.018": 0.0,
			"-0.017": 0.0,
			"-0.016": 0.0,
			"-0.015": 0.0,
			"-0.014": 0.0,
			"-0.013": 0.0,
			"-0.012": 0.0,
			"-0.011": 0.0,
			"-0.01": 0.0,
			"-0.009": 0.116024380193,
			"-0.008": 1.4333294773,
			"-0.007": 1.53954374717,
			"-0.006": 1.44822502703,
			"-0.005": 5.6269149431,
			"-0.004": 26.1558620772,
			"-0.003": 35.8394694096,
			"-0.002": 40.7048068702,
			"-0.001": 46.8650309995,
			"0.0": 54.3288962358,
			"0.001": 29.621449495,
			"0.002": 11.9392436531,
			"0.003": 10.4821453027,
			"0.004": 11.7967743819,
			"0.005": 7.55259421915,
			"0.006": 4.50925961876,
			"0.007": 4.30636241673,
			"0.008": 2.86046257595,
			"0.009": 2.03565466396,
			"0.01": 1.36596717463,
			"0.011": 1.8459832472,
			"0.012": 1.56276665378,
			"0.013": 1.39109357584,
			"0.014": 1.75890073135,
			"0.015": 1.13780380423,
			"0.016": 0.987719370219,
			"0.017": 0.0268618574187,
			"0.018": 0.0,
			"0.019": 0.0,
			"0.02": 0.0,
			"0.021": 0.0,
			"0.022": 0.0,
			"0.023": 0.0,
			"0.024": 0.0,
			"0.025": 0.0
		}
	}
}
