{
	 "smiles": "OC(=O)C1=C(SCC2=CSC=C2)C=CC=C1", 
	 "Tm": 487.15, 
	 "num_atms": 26, 
	 "gaussian": { 
		 "optdone": 1, 
		 "sigma_profile": "yes", 
		 "theory": "DFT", 
		 "functional": "B3LYP", 
		 "basiset": "6-31G**", 
		 "properties": { 
			 "R2extent": 6633.1912, 
			 "electric_dipole_moment_norm": 2.31203326317, 
			 "electric_quadrupole_moment_norm": 12.419745026, 
			 "total_energy": -1410.11854932, 
			 "HOMO_LUMO_gap": 0.16827, 
			 "cosmo_polarized_energy": -13.22, 
			 "cosmo_cavitation_energy": 32.96, 
			 "cosmo_dispersion_energy": -25.12, 
			 "cosmo_repulsion_energy": 1.86, 
			 "cosmo_total_nonelectrostatic_energy": 9.7, 
			 "SMD_solvation_energy": 6.63 
		},
		"coords": [
			{
				"x": 2.6692700287,
				"y": 2.9414077305,
				"z": -1.3401044134,
				"element": "O" 
			},
			{
				"x": 1.7795984305,
				"y": 3.3044250302,
				"z": -0.3891056684,
				"element": "C" 
			},
			{
				"x": 1.6550511644,
				"y": 4.4658142321,
				"z": -0.0481338481,
				"element": "O" 
			},
			{
				"x": 0.9762357646,
				"y": 2.1759400637,
				"z": 0.1623099871,
				"element": "C" 
			},
			{
				"x": 1.1875178164,
				"y": 0.7890790551,
				"z": -0.0757276937,
				"element": "C" 
			},
			{
				"x": 2.5540422545,
				"y": 0.2173814855,
				"z": -1.0828291874,
				"element": "S" 
			},
			{
				"x": 2.5936672092,
				"y": -1.6019378219,
				"z": -0.8013692,
				"element": "C" 
			},
			{
				"x": 1.814357556,
				"y": -2.4525679676,
				"z": -1.7758960834,
				"element": "C" 
			},
			{
				"x": 2.2843758358,
				"y": -3.6554826444,
				"z": -2.2397690744,
				"element": "C" 
			},
			{
				"x": 1.1628038466,
				"y": -4.4307121588,
				"z": -3.3084257362,
				"element": "S" 
			},
			{
				"x": 0.0412080326,
				"y": -3.1184665696,
				"z": -3.1466029626,
				"element": "C" 
			},
			{
				"x": 0.518396962,
				"y": -2.1479135667,
				"z": -2.3122054278,
				"element": "C" 
			},
			{
				"x": 0.2925670456,
				"y": -0.1171080588,
				"z": 0.5227314075,
				"element": "C" 
			},
			{
				"x": -0.7516657689,
				"y": 0.3133799487,
				"z": 1.3373372193,
				"element": "C" 
			},
			{
				"x": -0.9442006684,
				"y": 1.6721299263,
				"z": 1.5846160295,
				"element": "C" 
			},
			{
				"x": -0.0808955035,
				"y": 2.5834313125,
				"z": 0.9935177885,
				"element": "C" 
			},
			{
				"x": 3.126499903,
				"y": 3.7565323671,
				"z": -1.6064083994,
				"element": "H" 
			},
			{
				"x": 3.6579461915,
				"y": -1.8417378034,
				"z": -0.8794941804,
				"element": "H" 
			},
			{
				"x": 2.3145353252,
				"y": -1.7974129391,
				"z": 0.2386580787,
				"element": "H" 
			},
			{
				"x": 3.22891772,
				"y": -4.1305494808,
				"z": -2.0109798673,
				"element": "H" 
			},
			{
				"x": -0.8956735629,
				"y": -3.1353715198,
				"z": -3.685669309,
				"element": "H" 
			},
			{
				"x": -0.0203515748,
				"y": -1.2333198685,
				"z": -2.0962837328,
				"element": "H" 
			},
			{
				"x": 0.3925457245,
				"y": -1.1797096168,
				"z": 0.3448641521,
				"element": "H" 
			},
			{
				"x": -1.4176179728,
				"y": -0.4253061382,
				"z": 1.7746810245,
				"element": "H" 
			},
			{
				"x": -1.7544318611,
				"y": 2.0137116611,
				"z": 2.2204688184,
				"element": "H" 
			},
			{
				"x": -0.1942998986,
				"y": 3.6495633417,
				"z": 1.1557202787,
				"element": "H" 
			}
		],
		 "valence_orbital": [ 
			{
				"type": "occ",
				"energy": -0.27783,
				"method": "rhf"
			},
			{
				"type": "occ",
				"energy": -0.26355,
				"method": "rhf"
			},
			{
				"type": "occ",
				"energy": -0.25159,
				"method": "rhf"
			},
			{
				"type": "occ",
				"energy": -0.23687,
				"method": "rhf"
			},
			{
				"type": "occ",
				"energy": -0.21837,
				"method": "rhf"
			},
			{
				"type": "unocc",
				"energy": -0.0501,
				"method": "rhf"
			},
			{
				"type": "unocc",
				"energy": -0.01628,
				"method": "rhf"
			},
			{
				"type": "unocc",
				"energy": -0.0123,
				"method": "rhf"
			},
			{
				"type": "unocc",
				"energy": 0.02347,
				"method": "rhf"
			},
			{
				"type": "unocc",
				"energy": 0.04128,
				"method": "rhf"
			}
		],
		"cosmo_sigma_profile": { 
			"-0.025": 0.0,
			"-0.024": 0.0,
			"-0.023": 0.0,
			"-0.022": 0.0,
			"-0.021": 0.0,
			"-0.02": 0.0,
			"-0.019": 0.159812390751,
			"-0.018": 0.931903602411,
			"-0.017": 0.943701334568,
			"-0.016": 0.861634474184,
			"-0.015": 0.944697354912,
			"-0.014": 0.209644641174,
			"-0.013": 0.385201318633,
			"-0.012": 0.793839247083,
			"-0.011": 1.36674750918,
			"-0.01": 0.490906984204,
			"-0.009": 0.528903876355,
			"-0.008": 5.04220502532,
			"-0.007": 12.4306706446,
			"-0.006": 15.6601546752,
			"-0.005": 16.1620051656,
			"-0.004": 16.4629618915,
			"-0.003": 14.2807894083,
			"-0.002": 17.0904582191,
			"-0.001": 15.3117531035,
			"0.0": 17.1278371027,
			"0.001": 15.7052819387,
			"0.002": 21.9030035292,
			"0.003": 23.5693695265,
			"0.004": 23.7762773969,
			"0.005": 15.3435544988,
			"0.006": 6.09142730669,
			"0.007": 5.28710850544,
			"0.008": 6.32902897012,
			"0.009": 3.55127998131,
			"0.01": 2.06059933275,
			"0.011": 3.66681866821,
			"0.012": 3.75565291822,
			"0.013": 0.100794034,
			"0.014": 0.0,
			"0.015": 0.0,
			"0.016": 0.0,
			"0.017": 0.0,
			"0.018": 0.0,
			"0.019": 0.0,
			"0.02": 0.0,
			"0.021": 0.0,
			"0.022": 0.0,
			"0.023": 0.0,
			"0.024": 0.0,
			"0.025": 0.0
		}
	}
}
