{
	 "smiles": "COC1=CC(CC2=NC=CC3=C2C=C(O)C(OC)=C3)=CC=C1O", 
	 "Tm": 482.15, 
	 "num_atms": 40, 
	 "gaussian": { 
		 "optdone": 1, 
		 "sigma_profile": "yes", 
		 "theory": "DFT", 
		 "functional": "B3LYP", 
		 "basiset": "6-31G**", 
		 "properties": { 
			 "R2extent": 8612.0094, 
			 "electric_dipole_moment_norm": 2.16220467579, 
			 "electric_quadrupole_moment_norm": 14.7851711329, 
			 "total_energy": -1051.78447868, 
			 "HOMO_LUMO_gap": 0.15699, 
			 "cosmo_polarized_energy": -17.67, 
			 "cosmo_cavitation_energy": 43.64, 
			 "cosmo_dispersion_energy": -30.36, 
			 "cosmo_repulsion_energy": 2.33, 
			 "cosmo_total_nonelectrostatic_energy": 15.6, 
			 "SMD_solvation_energy": 7.95 
		},
		"coords": [
			{
				"x": 3.6233820452,
				"y": -2.6239945538,
				"z": -0.5307988573,
				"element": "C" 
			},
			{
				"x": 3.7171966719,
				"y": -1.4606338227,
				"z": -1.3399196916,
				"element": "O" 
			},
			{
				"x": 2.5652747366,
				"y": -0.9738361288,
				"z": -1.9110367724,
				"element": "C" 
			},
			{
				"x": 1.2924718361,
				"y": -1.5122936717,
				"z": -1.7665657969,
				"element": "C" 
			},
			{
				"x": 0.1926672626,
				"y": -0.9133113612,
				"z": -2.4075220553,
				"element": "C" 
			},
			{
				"x": -1.1924917995,
				"y": -1.5292684755,
				"z": -2.269349037,
				"element": "C" 
			},
			{
				"x": -1.6078982238,
				"y": -1.8450790161,
				"z": -0.84261311,
				"element": "C" 
			},
			{
				"x": -1.5926629787,
				"y": -3.1262371483,
				"z": -0.5073160877,
				"element": "N" 
			},
			{
				"x": -1.9694364763,
				"y": -3.4823899881,
				"z": 0.7496186795,
				"element": "C" 
			},
			{
				"x": -2.3826236272,
				"y": -2.5856981592,
				"z": 1.7045214953,
				"element": "C" 
			},
			{
				"x": -2.4035224864,
				"y": -1.2045068916,
				"z": 1.3866412463,
				"element": "C" 
			},
			{
				"x": -1.9909556536,
				"y": -0.8128045249,
				"z": 0.0762878318,
				"element": "C" 
			},
			{
				"x": -1.9891517568,
				"y": 0.5681426596,
				"z": -0.25299953,
				"element": "C" 
			},
			{
				"x": -2.3811673343,
				"y": 1.5202125073,
				"z": 0.6626273409,
				"element": "C" 
			},
			{
				"x": -2.4185489907,
				"y": 2.8561735032,
				"z": 0.3824243743,
				"element": "O" 
			},
			{
				"x": -2.790408809,
				"y": 1.1288723023,
				"z": 1.9782122318,
				"element": "C" 
			},
			{
				"x": -3.2433846556,
				"y": 2.0467974838,
				"z": 2.8852414495,
				"element": "O" 
			},
			{
				"x": -2.2949358256,
				"y": 3.0161007439,
				"z": 3.3470425562,
				"element": "C" 
			},
			{
				"x": -2.7958983679,
				"y": -0.2051571164,
				"z": 2.3142824674,
				"element": "C" 
			},
			{
				"x": 0.4073296594,
				"y": 0.2225627965,
				"z": -3.1891111727,
				"element": "C" 
			},
			{
				"x": 1.6883144725,
				"y": 0.7679207123,
				"z": -3.3376411456,
				"element": "C" 
			},
			{
				"x": 2.7719447104,
				"y": 0.1777899167,
				"z": -2.7006731447,
				"element": "C" 
			},
			{
				"x": 4.022991714,
				"y": 0.7010708921,
				"z": -2.8339434098,
				"element": "O" 
			},
			{
				"x": 2.9706542294,
				"y": -2.4562421316,
				"z": 0.3346327775,
				"element": "H" 
			},
			{
				"x": 4.636003418,
				"y": -2.8373516943,
				"z": -0.1852217722,
				"element": "H" 
			},
			{
				"x": 3.2462272933,
				"y": -3.4794625854,
				"z": -1.1044382242,
				"element": "H" 
			},
			{
				"x": 1.1305609068,
				"y": -2.3984470002,
				"z": -1.1629798041,
				"element": "H" 
			},
			{
				"x": -1.231822661,
				"y": -2.4794513812,
				"z": -2.8118598412,
				"element": "H" 
			},
			{
				"x": -1.9273488905,
				"y": -0.863403112,
				"z": -2.7368657413,
				"element": "H" 
			},
			{
				"x": -1.9345522019,
				"y": -4.5481742156,
				"z": 0.9646884825,
				"element": "H" 
			},
			{
				"x": -2.6874769337,
				"y": -2.9224012344,
				"z": 2.6912525126,
				"element": "H" 
			},
			{
				"x": -1.657874901,
				"y": 0.8865019337,
				"z": -1.2368250289,
				"element": "H" 
			},
			{
				"x": -2.1140113463,
				"y": 2.9932514732,
				"z": -0.5245455817,
				"element": "H" 
			},
			{
				"x": -1.9417504103,
				"y": 3.6550332935,
				"z": 2.5337711009,
				"element": "H" 
			},
			{
				"x": -2.8227195269,
				"y": 3.6211625902,
				"z": 4.0864678753,
				"element": "H" 
			},
			{
				"x": -1.4403742253,
				"y": 2.5228448802,
				"z": 3.8275095408,
				"element": "H" 
			},
			{
				"x": -3.1154190195,
				"y": -0.4816444264,
				"z": 3.3142482979,
				"element": "H" 
			},
			{
				"x": -0.43022531,
				"y": 0.6880804219,
				"z": -3.7031432079,
				"element": "H" 
			},
			{
				"x": 1.8602004562,
				"y": 1.6499414354,
				"z": -3.9460951745,
				"element": "H" 
			},
			{
				"x": 4.6195429994,
				"y": 0.1370290934,
				"z": -2.3181060734,
				"element": "H" 
			}
		],
		 "valence_orbital": [ 
			{
				"type": "occ",
				"energy": -0.24781,
				"method": "rhf"
			},
			{
				"type": "occ",
				"energy": -0.23563,
				"method": "rhf"
			},
			{
				"type": "occ",
				"energy": -0.23412,
				"method": "rhf"
			},
			{
				"type": "occ",
				"energy": -0.21429,
				"method": "rhf"
			},
			{
				"type": "occ",
				"energy": -0.20188,
				"method": "rhf"
			},
			{
				"type": "unocc",
				"energy": -0.04489,
				"method": "rhf"
			},
			{
				"type": "unocc",
				"energy": -0.01218,
				"method": "rhf"
			},
			{
				"type": "unocc",
				"energy": 0.00648,
				"method": "rhf"
			},
			{
				"type": "unocc",
				"energy": 0.01606,
				"method": "rhf"
			},
			{
				"type": "unocc",
				"energy": 0.03125,
				"method": "rhf"
			}
		],
		"cosmo_sigma_profile": { 
			"-0.025": 0.0,
			"-0.024": 0.0,
			"-0.023": 0.0,
			"-0.022": 0.0,
			"-0.021": 0.0,
			"-0.02": 0.0,
			"-0.019": 0.0310328357477,
			"-0.018": 0.921398455445,
			"-0.017": 0.938333867576,
			"-0.016": 1.1741213598,
			"-0.015": 1.17582330808,
			"-0.014": 1.24558825253,
			"-0.013": 1.71502014435,
			"-0.012": 1.12334744011,
			"-0.011": 0.909472611923,
			"-0.01": 1.83369099085,
			"-0.009": 2.30301639765,
			"-0.008": 1.099759102,
			"-0.007": 4.22977157497,
			"-0.006": 16.8431688012,
			"-0.005": 26.3529965256,
			"-0.004": 29.2327445234,
			"-0.003": 30.5043267969,
			"-0.002": 22.6595243755,
			"-0.001": 19.0879062141,
			"0.0": 19.0865170447,
			"0.001": 20.890945235,
			"0.002": 29.6200779885,
			"0.003": 33.9540281057,
			"0.004": 23.1138642979,
			"0.005": 17.6265302701,
			"0.006": 9.24675743657,
			"0.007": 5.67737936023,
			"0.008": 4.95293733156,
			"0.009": 4.85019531113,
			"0.01": 4.92245774646,
			"0.011": 4.5487516536,
			"0.012": 2.71118482816,
			"0.013": 0.662009222014,
			"0.014": 0.763608753518,
			"0.015": 0.581471885532,
			"0.016": 0.548023507858,
			"0.017": 0.198317612807,
			"0.018": 0.0,
			"0.019": 0.0,
			"0.02": 0.0,
			"0.021": 0.0,
			"0.022": 0.0,
			"0.023": 0.0,
			"0.024": 0.0,
			"0.025": 0.0
		}
	}
}
