{
	 "smiles": "CN1N=C(CCl)C2=C1C=CC=C2", 
	 "Tm": 335.65, 
	 "num_atms": 21, 
	 "gaussian": { 
		 "optdone": 1, 
		 "sigma_profile": "yes", 
		 "theory": "DFT", 
		 "functional": "B3LYP", 
		 "basiset": "6-31G**", 
		 "properties": { 
			 "R2extent": 2598.1016, 
			 "electric_dipole_moment_norm": 3.69251820036, 
			 "electric_quadrupole_moment_norm": 12.1629950941, 
			 "total_energy": -918.072752278, 
			 "HOMO_LUMO_gap": 0.18366, 
			 "cosmo_polarized_energy": -9.05, 
			 "cosmo_cavitation_energy": 26.69, 
			 "cosmo_dispersion_energy": -19.45, 
			 "cosmo_repulsion_energy": 1.56, 
			 "cosmo_total_nonelectrostatic_energy": 8.79, 
			 "SMD_solvation_energy": 3.04 
		},
		"coords": [
			{
				"x": -0.041286087,
				"y": 2.991421585,
				"z": 0.1951921461,
				"element": "C" 
			},
			{
				"x": -0.101717101,
				"y": 1.5569233064,
				"z": 0.3828342391,
				"element": "N" 
			},
			{
				"x": -0.3661019853,
				"y": 1.0394444477,
				"z": 1.6076853009,
				"element": "N" 
			},
			{
				"x": -0.3380474052,
				"y": -0.2809742607,
				"z": 1.4818210399,
				"element": "C" 
			},
			{
				"x": -0.5736451077,
				"y": -1.1382302113,
				"z": 2.6691364338,
				"element": "C" 
			},
			{
				"x": -2.1969699017,
				"y": -2.0052909933,
				"z": 2.6123996675,
				"element": "Cl" 
			},
			{
				"x": -0.0504019174,
				"y": -0.6594195702,
				"z": 0.1303381109,
				"element": "C" 
			},
			{
				"x": 0.0999339335,
				"y": 0.5729957567,
				"z": -0.5515570039,
				"element": "C" 
			},
			{
				"x": 0.400367683,
				"y": 0.6392032281,
				"z": -1.9219338157,
				"element": "C" 
			},
			{
				"x": 0.5430983097,
				"y": -0.5673545083,
				"z": -2.5906718876,
				"element": "C" 
			},
			{
				"x": 0.3917837932,
				"y": -1.8080890796,
				"z": -1.9273599034,
				"element": "C" 
			},
			{
				"x": 0.0944230539,
				"y": -1.8676697186,
				"z": -0.5747526765,
				"element": "C" 
			},
			{
				"x": -0.2922354316,
				"y": 3.4550232479,
				"z": 1.1485298737,
				"element": "H" 
			},
			{
				"x": 0.9629448084,
				"y": 3.3074407735,
				"z": -0.1083140695,
				"element": "H" 
			},
			{
				"x": -0.7611345214,
				"y": 3.3143054456,
				"z": -0.5643383399,
				"element": "H" 
			},
			{
				"x": -0.5826264946,
				"y": -0.5342545894,
				"z": 3.5749892729,
				"element": "H" 
			},
			{
				"x": 0.164246765,
				"y": -1.936246563,
				"z": 2.7576556339,
				"element": "H" 
			},
			{
				"x": 0.5153731447,
				"y": 1.5875762126,
				"z": -2.4369381666,
				"element": "H" 
			},
			{
				"x": 0.7749266295,
				"y": -0.5614145262,
				"z": -3.6517515834,
				"element": "H" 
			},
			{
				"x": 0.5077855801,
				"y": -2.7267183284,
				"z": -2.4942657165,
				"element": "H" 
			},
			{
				"x": -0.0326177482,
				"y": -2.8222716546,
				"z": -0.0734985557,
				"element": "H" 
			}
		],
		 "valence_orbital": [ 
			{
				"type": "occ",
				"energy": -0.29414,
				"method": "rhf"
			},
			{
				"type": "occ",
				"energy": -0.2881,
				"method": "rhf"
			},
			{
				"type": "occ",
				"energy": -0.28133,
				"method": "rhf"
			},
			{
				"type": "occ",
				"energy": -0.24536,
				"method": "rhf"
			},
			{
				"type": "occ",
				"energy": -0.21978,
				"method": "rhf"
			},
			{
				"type": "unocc",
				"energy": -0.03612,
				"method": "rhf"
			},
			{
				"type": "unocc",
				"energy": 0.00617,
				"method": "rhf"
			},
			{
				"type": "unocc",
				"energy": 0.01565,
				"method": "rhf"
			},
			{
				"type": "unocc",
				"energy": 0.07263,
				"method": "rhf"
			},
			{
				"type": "unocc",
				"energy": 0.08839,
				"method": "rhf"
			}
		],
		"cosmo_sigma_profile": { 
			"-0.025": 0.0,
			"-0.024": 0.0,
			"-0.023": 0.0,
			"-0.022": 0.0,
			"-0.021": 0.0,
			"-0.02": 0.0,
			"-0.019": 0.0,
			"-0.018": 0.0,
			"-0.017": 0.0,
			"-0.016": 0.0,
			"-0.015": 0.0,
			"-0.014": 0.0,
			"-0.013": 0.0,
			"-0.012": 0.0,
			"-0.011": 0.0,
			"-0.01": 0.0,
			"-0.009": 0.0,
			"-0.008": 1.55300117328,
			"-0.007": 5.95093150352,
			"-0.006": 17.7109580701,
			"-0.005": 21.502223538,
			"-0.004": 19.4340935043,
			"-0.003": 18.221511357,
			"-0.002": 10.057746019,
			"-0.001": 10.0088158043,
			"0.0": 9.97108409523,
			"0.001": 12.4886230168,
			"0.002": 13.4102135621,
			"0.003": 15.1474900358,
			"0.004": 17.4092328673,
			"0.005": 17.5027769439,
			"0.006": 11.411676914,
			"0.007": 7.08374889087,
			"0.008": 1.24893540393,
			"0.009": 1.4676083208,
			"0.01": 1.07255318983,
			"0.011": 0.700446475961,
			"0.012": 0.724070467413,
			"0.013": 0.80712900892,
			"0.014": 0.473492839518,
			"0.015": 0.0279284691728,
			"0.016": 0.0,
			"0.017": 0.0,
			"0.018": 0.0,
			"0.019": 0.0,
			"0.02": 0.0,
			"0.021": 0.0,
			"0.022": 0.0,
			"0.023": 0.0,
			"0.024": 0.0,
			"0.025": 0.0
		}
	}
}
