{
	 "smiles": "CC1=C(C=CC(N)=C1)C(O)=O", 
	 "Tm": 428.15, 
	 "num_atms": 20, 
	 "gaussian": { 
		 "optdone": 1, 
		 "sigma_profile": "yes", 
		 "theory": "DFT", 
		 "functional": "B3LYP", 
		 "basiset": "6-31G**", 
		 "properties": { 
			 "R2extent": 3295.6272, 
			 "electric_dipole_moment_norm": 3.67748438746, 
			 "electric_quadrupole_moment_norm": 8.93540111467, 
			 "total_energy": -515.505693799, 
			 "HOMO_LUMO_gap": 0.18327, 
			 "cosmo_polarized_energy": -13.49, 
			 "cosmo_cavitation_energy": 23.76, 
			 "cosmo_dispersion_energy": -17.81, 
			 "cosmo_repulsion_energy": 1.43, 
			 "cosmo_total_nonelectrostatic_energy": 7.38, 
			 "SMD_solvation_energy": 5.19 
		},
		"coords": [
			{
				"x": 3.0112982886,
				"y": 1.5544164833,
				"z": -0.1011567514,
				"element": "C" 
			},
			{
				"x": 1.727932434,
				"y": 1.4194246074,
				"z": 0.6830482501,
				"element": "C" 
			},
			{
				"x": 0.7182053589,
				"y": 2.4177190074,
				"z": 0.6997394456,
				"element": "C" 
			},
			{
				"x": -0.4445823936,
				"y": 2.1985082852,
				"z": 1.4617912286,
				"element": "C" 
			},
			{
				"x": -0.6320302664,
				"y": 1.038644612,
				"z": 2.1933564511,
				"element": "C" 
			},
			{
				"x": 0.3599577854,
				"y": 0.0410768643,
				"z": 2.1854874209,
				"element": "C" 
			},
			{
				"x": 0.2192256983,
				"y": -1.1062135584,
				"z": 2.9474310053,
				"element": "N" 
			},
			{
				"x": 1.5232026998,
				"y": 0.2574079923,
				"z": 1.4250711974,
				"element": "C" 
			},
			{
				"x": 0.8634488796,
				"y": 3.6722572871,
				"z": -0.0635446295,
				"element": "C" 
			},
			{
				"x": -0.2064699945,
				"y": 4.509352703,
				"z": 0.0751396189,
				"element": "O" 
			},
			{
				"x": 1.8090182475,
				"y": 3.9941594006,
				"z": -0.764111928,
				"element": "O" 
			},
			{
				"x": 3.5773833522,
				"y": 2.4365311776,
				"z": 0.2093065823,
				"element": "H" 
			},
			{
				"x": 2.8155737069,
				"y": 1.6900364049,
				"z": -1.1680588861,
				"element": "H" 
			},
			{
				"x": 3.6347131121,
				"y": 0.6662866305,
				"z": 0.0359809861,
				"element": "H" 
			},
			{
				"x": -1.212453381,
				"y": 2.962958777,
				"z": 1.4698037256,
				"element": "H" 
			},
			{
				"x": -1.5386904407,
				"y": 0.8977053375,
				"z": 2.775829985,
				"element": "H" 
			},
			{
				"x": 0.788023067,
				"y": -1.8979390434,
				"z": 2.6855400831,
				"element": "H" 
			},
			{
				"x": -0.7197701784,
				"y": -1.3573903117,
				"z": 3.2195739432,
				"element": "H" 
			},
			{
				"x": 2.2938575193,
				"y": -0.5101706143,
				"z": 1.4193646632,
				"element": "H" 
			},
			{
				"x": 0.0135565049,
				"y": 5.2834279579,
				"z": -0.4674923915,
				"element": "H" 
			}
		],
		 "valence_orbital": [ 
			{
				"type": "occ",
				"energy": -0.30967,
				"method": "rhf"
			},
			{
				"type": "occ",
				"energy": -0.30106,
				"method": "rhf"
			},
			{
				"type": "occ",
				"energy": -0.25835,
				"method": "rhf"
			},
			{
				"type": "occ",
				"energy": -0.24553,
				"method": "rhf"
			},
			{
				"type": "occ",
				"energy": -0.21103,
				"method": "rhf"
			},
			{
				"type": "unocc",
				"energy": -0.02776,
				"method": "rhf"
			},
			{
				"type": "unocc",
				"energy": 0.00218,
				"method": "rhf"
			},
			{
				"type": "unocc",
				"energy": 0.06671,
				"method": "rhf"
			},
			{
				"type": "unocc",
				"energy": 0.08026,
				"method": "rhf"
			},
			{
				"type": "unocc",
				"energy": 0.09162,
				"method": "rhf"
			}
		],
		"cosmo_sigma_profile": { 
			"-0.025": 0.0,
			"-0.024": 0.0,
			"-0.023": 0.0,
			"-0.022": 0.0,
			"-0.021": 0.0,
			"-0.02": 0.0,
			"-0.019": 0.0,
			"-0.018": 0.0833668797853,
			"-0.017": 0.656673309453,
			"-0.016": 0.749044253618,
			"-0.015": 1.10673362387,
			"-0.014": 0.617847591237,
			"-0.013": 2.85944194013,
			"-0.012": 3.73964623575,
			"-0.011": 3.43618150563,
			"-0.01": 3.33848287433,
			"-0.009": 3.69949226031,
			"-0.008": 3.42061065015,
			"-0.007": 3.40563235669,
			"-0.006": 5.32223240741,
			"-0.005": 8.21888565358,
			"-0.004": 8.17829237984,
			"-0.003": 9.28570403995,
			"-0.002": 8.82170593651,
			"-0.001": 12.2363275383,
			"0.0": 14.6699685363,
			"0.001": 15.4805412138,
			"0.002": 11.3713074745,
			"0.003": 12.0883629559,
			"0.004": 13.6665385058,
			"0.005": 14.3649017896,
			"0.006": 4.78678602872,
			"0.007": 3.85607813973,
			"0.008": 4.4480111598,
			"0.009": 2.92152420101,
			"0.01": 1.7359955929,
			"0.011": 3.05516117513,
			"0.012": 3.34936473864,
			"0.013": 2.92936726916,
			"0.014": 0.0400240623644,
			"0.015": 0.0,
			"0.016": 0.0,
			"0.017": 0.0,
			"0.018": 0.0,
			"0.019": 0.0,
			"0.02": 0.0,
			"0.021": 0.0,
			"0.022": 0.0,
			"0.023": 0.0,
			"0.024": 0.0,
			"0.025": 0.0
		}
	}
}
