{
	 "smiles": "COC1=CC=C(C=C1F)S(Cl)(=O)=O", 
	 "Tm": 352.15, 
	 "num_atms": 19, 
	 "gaussian": { 
		 "optdone": 1, 
		 "sigma_profile": "yes", 
		 "theory": "DFT", 
		 "functional": "B3LYP", 
		 "basiset": "6-31G**", 
		 "properties": { 
			 "R2extent": 4152.2627, 
			 "electric_dipole_moment_norm": 6.63507895808, 
			 "electric_quadrupole_moment_norm": 18.3528061854, 
			 "total_energy": -1454.15904494, 
			 "HOMO_LUMO_gap": 0.1698, 
			 "cosmo_polarized_energy": -11.37, 
			 "cosmo_cavitation_energy": 27.65, 
			 "cosmo_dispersion_energy": -20.61, 
			 "cosmo_repulsion_energy": 1.57, 
			 "cosmo_total_nonelectrostatic_energy": 8.61, 
			 "SMD_solvation_energy": 4.83 
		},
		"coords": [
			{
				"x": 0.3284846025,
				"y": -1.6956437296,
				"z": -4.3399473326,
				"element": "C" 
			},
			{
				"x": 0.0830844948,
				"y": -0.538816843,
				"z": -3.5442627563,
				"element": "O" 
			},
			{
				"x": 0.6100369233,
				"y": -0.4895810862,
				"z": -2.3046915085,
				"element": "C" 
			},
			{
				"x": 1.3954131322,
				"y": -1.4839129022,
				"z": -1.7074161632,
				"element": "C" 
			},
			{
				"x": 1.8843732794,
				"y": -1.3153793113,
				"z": -0.4111498747,
				"element": "C" 
			},
			{
				"x": 1.5867909699,
				"y": -0.1437533539,
				"z": 0.278147041,
				"element": "C" 
			},
			{
				"x": 0.8049550796,
				"y": 0.8716564615,
				"z": -0.2879151191,
				"element": "C" 
			},
			{
				"x": 0.3308823731,
				"y": 0.6836105276,
				"z": -1.5689893384,
				"element": "C" 
			},
			{
				"x": -0.4144362326,
				"y": 1.6325940141,
				"z": -2.152901824,
				"element": "F" 
			},
			{
				"x": 2.2162012993,
				"y": 0.0783968114,
				"z": 1.9247949951,
				"element": "S" 
			},
			{
				"x": 0.6144008897,
				"y": -0.698466843,
				"z": 3.1115702493,
				"element": "Cl" 
			},
			{
				"x": 3.3431783173,
				"y": -0.8216071888,
				"z": 2.1375498675,
				"element": "O" 
			},
			{
				"x": 2.2830610316,
				"y": 1.5020058395,
				"z": 2.2307905967,
				"element": "O" 
			},
			{
				"x": 1.4002757019,
				"y": -1.8297393965,
				"z": -4.5275189906,
				"element": "H" 
			},
			{
				"x": -0.1855850488,
				"y": -1.5182354455,
				"z": -5.2845011608,
				"element": "H" 
			},
			{
				"x": -0.0777567961,
				"y": -2.597447131,
				"z": -3.8671420757,
				"element": "H" 
			},
			{
				"x": 1.6324677151,
				"y": -2.3912763795,
				"z": -2.2488031968,
				"element": "H" 
			},
			{
				"x": 2.4972799436,
				"y": -2.0799649324,
				"z": 0.0516558214,
				"element": "H" 
			},
			{
				"x": 0.5824923241,
				"y": 1.7873608888,
				"z": 0.2468307699,
				"element": "H" 
			}
		],
		 "valence_orbital": [ 
			{
				"type": "occ",
				"energy": -0.33461,
				"method": "rhf"
			},
			{
				"type": "occ",
				"energy": -0.32587,
				"method": "rhf"
			},
			{
				"type": "occ",
				"energy": -0.31077,
				"method": "rhf"
			},
			{
				"type": "occ",
				"energy": -0.28716,
				"method": "rhf"
			},
			{
				"type": "occ",
				"energy": -0.25781,
				"method": "rhf"
			},
			{
				"type": "unocc",
				"energy": -0.08801,
				"method": "rhf"
			},
			{
				"type": "unocc",
				"energy": -0.03855,
				"method": "rhf"
			},
			{
				"type": "unocc",
				"energy": -0.0347,
				"method": "rhf"
			},
			{
				"type": "unocc",
				"energy": 0.04666,
				"method": "rhf"
			},
			{
				"type": "unocc",
				"energy": 0.07135,
				"method": "rhf"
			}
		],
		"cosmo_sigma_profile": { 
			"-0.025": 0.0,
			"-0.024": 0.0,
			"-0.023": 0.0,
			"-0.022": 0.0,
			"-0.021": 0.0,
			"-0.02": 0.0,
			"-0.019": 0.0,
			"-0.018": 0.0,
			"-0.017": 0.0,
			"-0.016": 0.0,
			"-0.015": 0.0,
			"-0.014": 0.0,
			"-0.013": 0.0,
			"-0.012": 0.0,
			"-0.011": 0.0,
			"-0.01": 0.24816430965,
			"-0.009": 2.63625643675,
			"-0.008": 6.14980728208,
			"-0.007": 11.2510655507,
			"-0.006": 13.0557926253,
			"-0.005": 12.3632306063,
			"-0.004": 12.7586269941,
			"-0.003": 11.0732853351,
			"-0.002": 14.5882158522,
			"-0.001": 21.6484252188,
			"0.0": 18.3987721227,
			"0.001": 14.7828259117,
			"0.002": 11.7137761954,
			"0.003": 21.0424688218,
			"0.004": 18.1929751692,
			"0.005": 4.69952563446,
			"0.006": 4.7093397017,
			"0.007": 8.14938047727,
			"0.008": 11.1104999806,
			"0.009": 6.05062134751,
			"0.01": 0.0895759386725,
			"0.011": 0.0,
			"0.012": 0.0,
			"0.013": 0.0,
			"0.014": 0.0,
			"0.015": 0.0,
			"0.016": 0.0,
			"0.017": 0.0,
			"0.018": 0.0,
			"0.019": 0.0,
			"0.02": 0.0,
			"0.021": 0.0,
			"0.022": 0.0,
			"0.023": 0.0,
			"0.024": 0.0,
			"0.025": 0.0
		}
	}
}
