{
	 "smiles": "OC(=O)C1CCN(CC1)C(=O)C1=COC=C1", 
	 "Tm": 377.15, 
	 "num_atms": 29, 
	 "gaussian": { 
		 "optdone": 1, 
		 "sigma_profile": "yes", 
		 "theory": "DFT", 
		 "functional": "B3LYP", 
		 "basiset": "6-31G**", 
		 "properties": { 
			 "R2extent": 4993.2072, 
			 "electric_dipole_moment_norm": 2.60582905426, 
			 "electric_quadrupole_moment_norm": 14.0124116343, 
			 "total_energy": -782.648548114, 
			 "HOMO_LUMO_gap": 0.21911, 
			 "cosmo_polarized_energy": -17.22, 
			 "cosmo_cavitation_energy": 32.06, 
			 "cosmo_dispersion_energy": -23.2, 
			 "cosmo_repulsion_energy": 1.79, 
			 "cosmo_total_nonelectrostatic_energy": 10.65, 
			 "SMD_solvation_energy": 7.21 
		},
		"coords": [
			{
				"x": -3.2166653658,
				"y": 1.397008467,
				"z": 2.2287898895,
				"element": "O" 
			},
			{
				"x": -2.4670870801,
				"y": 0.2778989514,
				"z": 2.080606249,
				"element": "C" 
			},
			{
				"x": -2.1384265141,
				"y": -0.412021371,
				"z": 3.0221010792,
				"element": "O" 
			},
			{
				"x": -2.093020683,
				"y": 0.0500045319,
				"z": 0.6271577121,
				"element": "C" 
			},
			{
				"x": -1.1507095333,
				"y": 1.1929096771,
				"z": 0.1474518393,
				"element": "C" 
			},
			{
				"x": -0.2913641676,
				"y": 0.742915799,
				"z": -1.0326613928,
				"element": "C" 
			},
			{
				"x": 0.5772610154,
				"y": -0.3742719504,
				"z": -0.6334239484,
				"element": "N" 
			},
			{
				"x": 0.0893887265,
				"y": -1.2611856089,
				"z": 0.429527449,
				"element": "C" 
			},
			{
				"x": -1.4408729068,
				"y": -1.3326558094,
				"z": 0.4118274329,
				"element": "C" 
			},
			{
				"x": 1.6956588077,
				"y": -0.5834568146,
				"z": -1.4042925387,
				"element": "C" 
			},
			{
				"x": 1.9010683793,
				"y": 0.0900653658,
				"z": -2.4164797306,
				"element": "O" 
			},
			{
				"x": 2.6925242256,
				"y": -1.6184896475,
				"z": -1.0107207313,
				"element": "C" 
			},
			{
				"x": 3.0296047526,
				"y": -2.1702453504,
				"z": 0.197717219,
				"element": "C" 
			},
			{
				"x": 4.1005045275,
				"y": -2.9933927611,
				"z": 0.0676080713,
				"element": "O" 
			},
			{
				"x": 4.4613621895,
				"y": -2.9731161389,
				"z": -1.2536119692,
				"element": "C" 
			},
			{
				"x": 3.6460175709,
				"y": -2.1465949424,
				"z": -1.9529811169,
				"element": "C" 
			},
			{
				"x": -3.3862389639,
				"y": 1.4874321327,
				"z": 3.181782817,
				"element": "H" 
			},
			{
				"x": -3.022759339,
				"y": 0.1106389349,
				"z": 0.049483455,
				"element": "H" 
			},
			{
				"x": -0.4872611087,
				"y": 1.5007140631,
				"z": 0.9645734588,
				"element": "H" 
			},
			{
				"x": -1.7364549453,
				"y": 2.0729295087,
				"z": -0.1299586497,
				"element": "H" 
			},
			{
				"x": -0.924379835,
				"y": 0.4549603992,
				"z": -1.8849545837,
				"element": "H" 
			},
			{
				"x": 0.3493337529,
				"y": 1.5529063417,
				"z": -1.3861830825,
				"element": "H" 
			},
			{
				"x": 0.5027119451,
				"y": -2.2586088353,
				"z": 0.2719467924,
				"element": "H" 
			},
			{
				"x": 0.4227652466,
				"y": -0.9181293046,
				"z": 1.4199318976,
				"element": "H" 
			},
			{
				"x": -1.7707452265,
				"y": -2.0252853033,
				"z": 1.1901403933,
				"element": "H" 
			},
			{
				"x": -1.7613080904,
				"y": -1.7391578839,
				"z": -0.5530326145,
				"element": "H" 
			},
			{
				"x": 2.6540352353,
				"y": -2.0574721761,
				"z": 1.2019703952,
				"element": "H" 
			},
			{
				"x": 5.3041769024,
				"y": -3.5927987661,
				"z": -1.516542111,
				"element": "H" 
			},
			{
				"x": 3.6844804822,
				"y": -1.9037015089,
				"z": -3.0036736811,
				"element": "H" 
			}
		],
		 "valence_orbital": [ 
			{
				"type": "occ",
				"energy": -0.28309,
				"method": "rhf"
			},
			{
				"type": "occ",
				"energy": -0.27766,
				"method": "rhf"
			},
			{
				"type": "occ",
				"energy": -0.24599,
				"method": "rhf"
			},
			{
				"type": "occ",
				"energy": -0.23514,
				"method": "rhf"
			},
			{
				"type": "occ",
				"energy": -0.23295,
				"method": "rhf"
			},
			{
				"type": "unocc",
				"energy": -0.01384,
				"method": "rhf"
			},
			{
				"type": "unocc",
				"energy": 0.00027,
				"method": "rhf"
			},
			{
				"type": "unocc",
				"energy": 0.02771,
				"method": "rhf"
			},
			{
				"type": "unocc",
				"energy": 0.06751,
				"method": "rhf"
			},
			{
				"type": "unocc",
				"energy": 0.0767,
				"method": "rhf"
			}
		],
		"cosmo_sigma_profile": { 
			"-0.025": 0.0,
			"-0.024": 0.0,
			"-0.023": 0.0,
			"-0.022": 0.0,
			"-0.021": 0.0,
			"-0.02": 0.0,
			"-0.019": 0.0,
			"-0.018": 0.52137858012,
			"-0.017": 1.04857316436,
			"-0.016": 0.849741990195,
			"-0.015": 0.567561320249,
			"-0.014": 1.02597638349,
			"-0.013": 0.953515541552,
			"-0.012": 0.500161822855,
			"-0.011": 0.326335124484,
			"-0.01": 1.69255040488,
			"-0.009": 3.65938218607,
			"-0.008": 3.54460803074,
			"-0.007": 6.2405228163,
			"-0.006": 7.97050805522,
			"-0.005": 20.6224275118,
			"-0.004": 27.8633620001,
			"-0.003": 23.9185108045,
			"-0.002": 20.0818842768,
			"-0.001": 17.0365243251,
			"0.0": 11.8734785045,
			"0.001": 14.0956487158,
			"0.002": 14.4005116947,
			"0.003": 11.4693121334,
			"0.004": 9.76163324592,
			"0.005": 8.35541518419,
			"0.006": 5.53154910493,
			"0.007": 5.54205906947,
			"0.008": 6.21437053919,
			"0.009": 3.67799469607,
			"0.01": 3.96439814416,
			"0.011": 5.23088562979,
			"0.012": 5.2509117031,
			"0.013": 2.57198420491,
			"0.014": 5.03732530325,
			"0.015": 1.44529791386,
			"0.016": 0.0,
			"0.017": 0.0,
			"0.018": 0.0,
			"0.019": 0.0,
			"0.02": 0.0,
			"0.021": 0.0,
			"0.022": 0.0,
			"0.023": 0.0,
			"0.024": 0.0,
			"0.025": 0.0
		}
	}
}
