{
	 "smiles": "CCCCCCCCCCCCOC(=O)C1=CC(O)=C(O)C(O)=C1", 
	 "Tm": 369.95, 
	 "num_atms": 54, 
	 "gaussian": { 
		 "optdone": 1, 
		 "sigma_profile": "yes", 
		 "theory": "DFT", 
		 "functional": "B3LYP", 
		 "basiset": "6-31G**", 
		 "properties": { 
			 "R2extent": 10373.842, 
			 "electric_dipole_moment_norm": 1.54136420745, 
			 "electric_quadrupole_moment_norm": 14.8473323324, 
			 "total_energy": -1118.2634131, 
			 "HOMO_LUMO_gap": 0.18084, 
			 "cosmo_polarized_energy": -14.98, 
			 "cosmo_cavitation_energy": 54.77, 
			 "cosmo_dispersion_energy": -34.15, 
			 "cosmo_repulsion_energy": 2.67, 
			 "cosmo_total_nonelectrostatic_energy": 23.28, 
			 "SMD_solvation_energy": 9.11 
		},
		"coords": [
			{
				"x": 3.9877128272,
				"y": -0.7471769273,
				"z": 0.1008255823,
				"element": "C" 
			},
			{
				"x": 4.0775042573,
				"y": -0.5716508904,
				"z": 1.6223924862,
				"element": "C" 
			},
			{
				"x": 3.1148238243,
				"y": 0.4844734939,
				"z": 2.1932929018,
				"element": "C" 
			},
			{
				"x": 1.6407515221,
				"y": 0.0526708719,
				"z": 2.1937254672,
				"element": "C" 
			},
			{
				"x": 0.6656809432,
				"y": 1.1065028372,
				"z": 2.7504887853,
				"element": "C" 
			},
			{
				"x": 0.545596082,
				"y": 2.4048545156,
				"z": 1.9307248583,
				"element": "C" 
			},
			{
				"x": 0.0942895972,
				"y": 2.1857042307,
				"z": 0.4812312775,
				"element": "C" 
			},
			{
				"x": -0.1749856568,
				"y": 3.484706266,
				"z": -0.2927280034,
				"element": "C" 
			},
			{
				"x": -0.4752175481,
				"y": 3.249393183,
				"z": -1.7839481338,
				"element": "C" 
			},
			{
				"x": 0.7806057691,
				"y": 2.9530151841,
				"z": -2.6244018256,
				"element": "C" 
			},
			{
				"x": 0.4848656647,
				"y": 2.449021808,
				"z": -4.0524642837,
				"element": "C" 
			},
			{
				"x": 0.413441224,
				"y": 0.9305102273,
				"z": -4.1969462581,
				"element": "C" 
			},
			{
				"x": -0.6873310675,
				"y": 0.3644239621,
				"z": -3.4459661839,
				"element": "O" 
			},
			{
				"x": -0.3990753965,
				"y": -0.391577927,
				"z": -2.3614102219,
				"element": "C" 
			},
			{
				"x": 0.7327914836,
				"y": -0.5944971667,
				"z": -1.9541693589,
				"element": "O" 
			},
			{
				"x": -1.6221932564,
				"y": -0.9437610102,
				"z": -1.7206368804,
				"element": "C" 
			},
			{
				"x": -2.9052045257,
				"y": -0.6950555912,
				"z": -2.2254249655,
				"element": "C" 
			},
			{
				"x": -4.0155881526,
				"y": -1.2405671255,
				"z": -1.5833823777,
				"element": "C" 
			},
			{
				"x": -5.2674986708,
				"y": -1.0053310378,
				"z": -2.0635390989,
				"element": "O" 
			},
			{
				"x": -3.8402235955,
				"y": -2.0319624088,
				"z": -0.4412920225,
				"element": "C" 
			},
			{
				"x": -4.9594533908,
				"y": -2.5440057095,
				"z": 0.1542639865,
				"element": "O" 
			},
			{
				"x": -2.5552957499,
				"y": -2.2770353725,
				"z": 0.0556402674,
				"element": "C" 
			},
			{
				"x": -2.5184444143,
				"y": -3.0686960107,
				"z": 1.1792486225,
				"element": "O" 
			},
			{
				"x": -1.443309914,
				"y": -1.7388178106,
				"z": -0.5775341587,
				"element": "C" 
			},
			{
				"x": 4.2436509524,
				"y": 0.1868952673,
				"z": -0.4131625564,
				"element": "H" 
			},
			{
				"x": 4.6852215917,
				"y": -1.5163509056,
				"z": -0.2482444811,
				"element": "H" 
			},
			{
				"x": 2.9854128303,
				"y": -1.0338409126,
				"z": -0.2318116305,
				"element": "H" 
			},
			{
				"x": 5.1060861332,
				"y": -0.293190015,
				"z": 1.8860435897,
				"element": "H" 
			},
			{
				"x": 3.8903691357,
				"y": -1.5348481437,
				"z": 2.1181112225,
				"element": "H" 
			},
			{
				"x": 3.2341028068,
				"y": 1.4153278614,
				"z": 1.6224447461,
				"element": "H" 
			},
			{
				"x": 3.4090421756,
				"y": 0.7222391904,
				"z": 3.2251228739,
				"element": "H" 
			},
			{
				"x": 1.549726216,
				"y": -0.8594165775,
				"z": 2.8012157331,
				"element": "H" 
			},
			{
				"x": 1.3348970907,
				"y": -0.2284817115,
				"z": 1.1789633156,
				"element": "H" 
			},
			{
				"x": -0.3320643286,
				"y": 0.6521884432,
				"z": 2.827034517,
				"element": "H" 
			},
			{
				"x": 0.9621978994,
				"y": 1.3603365953,
				"z": 3.7777454558,
				"element": "H" 
			},
			{
				"x": 1.5033900541,
				"y": 2.9424564312,
				"z": 1.9349009285,
				"element": "H" 
			},
			{
				"x": -0.1697742718,
				"y": 3.0680433697,
				"z": 2.4366027455,
				"element": "H" 
			},
			{
				"x": 0.8472837507,
				"y": 1.5929193675,
				"z": -0.0501043444,
				"element": "H" 
			},
			{
				"x": -0.8210861789,
				"y": 1.5764503287,
				"z": 0.4750865995,
				"element": "H" 
			},
			{
				"x": -1.0205524817,
				"y": 4.0078756279,
				"z": 0.1732680293,
				"element": "H" 
			},
			{
				"x": 0.6877427732,
				"y": 4.1604275628,
				"z": -0.1966509621,
				"element": "H" 
			},
			{
				"x": -0.9712759438,
				"y": 4.133760581,
				"z": -2.2058561966,
				"element": "H" 
			},
			{
				"x": -1.1945592415,
				"y": 2.4273552495,
				"z": -1.8812650157,
				"element": "H" 
			},
			{
				"x": 1.4130126426,
				"y": 2.2164044791,
				"z": -2.1148601582,
				"element": "H" 
			},
			{
				"x": 1.37616834,
				"y": 3.8730017469,
				"z": -2.6831306991,
				"element": "H" 
			},
			{
				"x": 1.2809441083,
				"y": 2.7740371567,
				"z": -4.7354758828,
				"element": "H" 
			},
			{
				"x": -0.4429688201,
				"y": 2.8979877691,
				"z": -4.4296327234,
				"element": "H" 
			},
			{
				"x": 0.2246381012,
				"y": 0.6521480252,
				"z": -5.2384668966,
				"element": "H" 
			},
			{
				"x": 1.3394820491,
				"y": 0.4600357027,
				"z": -3.8598258498,
				"element": "H" 
			},
			{
				"x": -3.0489118763,
				"y": -0.0854966031,
				"z": -3.1079262012,
				"element": "H" 
			},
			{
				"x": -5.8967852874,
				"y": -1.4643982602,
				"z": -1.4872488679,
				"element": "H" 
			},
			{
				"x": -4.6784350868,
				"y": -3.0600896791,
				"z": 0.9244814037,
				"element": "H" 
			},
			{
				"x": -1.6050249345,
				"y": -3.17478796,
				"z": 1.4726468363,
				"element": "H" 
			},
			{
				"x": -0.4378720554,
				"y": -1.9206315789,
				"z": -0.2116959928,
				"element": "H" 
			}
		],
		 "valence_orbital": [ 
			{
				"type": "occ",
				"energy": -0.2939,
				"method": "rhf"
			},
			{
				"type": "occ",
				"energy": -0.28564,
				"method": "rhf"
			},
			{
				"type": "occ",
				"energy": -0.2726,
				"method": "rhf"
			},
			{
				"type": "occ",
				"energy": -0.22804,
				"method": "rhf"
			},
			{
				"type": "occ",
				"energy": -0.2182,
				"method": "rhf"
			},
			{
				"type": "unocc",
				"energy": -0.03736,
				"method": "rhf"
			},
			{
				"type": "unocc",
				"energy": 0.01067,
				"method": "rhf"
			},
			{
				"type": "unocc",
				"energy": 0.04078,
				"method": "rhf"
			},
			{
				"type": "unocc",
				"energy": 0.07003,
				"method": "rhf"
			},
			{
				"type": "unocc",
				"energy": 0.07504,
				"method": "rhf"
			}
		],
		"cosmo_sigma_profile": { 
			"-0.025": 0.0,
			"-0.024": 0.0,
			"-0.023": 0.0,
			"-0.022": 0.0,
			"-0.021": 0.0,
			"-0.02": 0.0,
			"-0.019": 0.0894005311762,
			"-0.018": 0.966516220321,
			"-0.017": 1.04213214124,
			"-0.016": 1.13423687701,
			"-0.015": 2.74763292223,
			"-0.014": 2.19440171648,
			"-0.013": 1.76558534429,
			"-0.012": 2.00233924705,
			"-0.011": 2.01882441431,
			"-0.01": 2.40695250477,
			"-0.009": 2.41578140067,
			"-0.008": 1.47857880498,
			"-0.007": 2.96185477443,
			"-0.006": 4.19410256009,
			"-0.005": 6.78392655008,
			"-0.004": 11.1888123749,
			"-0.003": 15.7396455759,
			"-0.002": 37.3925804647,
			"-0.001": 61.5751981349,
			"0.0": 74.4090525268,
			"0.001": 69.2135407221,
			"0.002": 42.8400913215,
			"0.003": 23.9602405435,
			"0.004": 15.4786165246,
			"0.005": 11.405892494,
			"0.006": 8.72506584151,
			"0.007": 6.05622366093,
			"0.008": 3.1122098534,
			"0.009": 3.39458557586,
			"0.01": 3.2583554278,
			"0.011": 2.86394890425,
			"0.012": 0.332118891343,
			"0.013": 0.0,
			"0.014": 0.0,
			"0.015": 0.0,
			"0.016": 0.0,
			"0.017": 0.0,
			"0.018": 0.0,
			"0.019": 0.0,
			"0.02": 0.0,
			"0.021": 0.0,
			"0.022": 0.0,
			"0.023": 0.0,
			"0.024": 0.0,
			"0.025": 0.0
		}
	}
}
