{
	 "smiles": "NC1=C(C(=O)NCC2=CC=CC=C2)C2=C(CCCC2)S1", 
	 "Tm": 386.15, 
	 "num_atms": 38, 
	 "gaussian": { 
		 "optdone": 1, 
		 "sigma_profile": "yes", 
		 "theory": "DFT", 
		 "functional": "B3LYP", 
		 "basiset": "6-31G**", 
		 "properties": { 
			 "R2extent": 7430.9708, 
			 "electric_dipole_moment_norm": 2.33981415288, 
			 "electric_quadrupole_moment_norm": 20.9788936217, 
			 "total_energy": -1203.48534025, 
			 "HOMO_LUMO_gap": 0.17246, 
			 "cosmo_polarized_energy": -15.13, 
			 "cosmo_cavitation_energy": 41.01, 
			 "cosmo_dispersion_energy": -28.82, 
			 "cosmo_repulsion_energy": 2.18, 
			 "cosmo_total_nonelectrostatic_energy": 14.37, 
			 "SMD_solvation_energy": 5.41 
		},
		"coords": [
			{
				"x": -2.4525834732,
				"y": 1.3364657178,
				"z": 2.9348509907,
				"element": "N" 
			},
			{
				"x": -1.1281489116,
				"y": 0.9864947529,
				"z": 2.7291798291,
				"element": "C" 
			},
			{
				"x": -0.2410847495,
				"y": 1.4625053914,
				"z": 1.7780495818,
				"element": "C" 
			},
			{
				"x": -0.5101200545,
				"y": 2.6118473356,
				"z": 0.885667923,
				"element": "C" 
			},
			{
				"x": 0.3466669532,
				"y": 3.4459144879,
				"z": 0.6094049557,
				"element": "O" 
			},
			{
				"x": -1.8263818685,
				"y": 2.7768881316,
				"z": 0.4240762983,
				"element": "N" 
			},
			{
				"x": -2.5984296803,
				"y": 1.6689117573,
				"z": -0.1831236602,
				"element": "C" 
			},
			{
				"x": -2.1822399766,
				"y": 1.3468863296,
				"z": -1.6061210506,
				"element": "C" 
			},
			{
				"x": -1.1086963288,
				"y": 0.4814140548,
				"z": -1.8587093428,
				"element": "C" 
			},
			{
				"x": -0.7055206228,
				"y": 0.2123835061,
				"z": -3.1665436464,
				"element": "C" 
			},
			{
				"x": -1.372265933,
				"y": 0.8042017225,
				"z": -4.2420629612,
				"element": "C" 
			},
			{
				"x": -2.4454470167,
				"y": 1.6634275876,
				"z": -4.0024032678,
				"element": "C" 
			},
			{
				"x": -2.8466538285,
				"y": 1.9300258255,
				"z": -2.6919978215,
				"element": "C" 
			},
			{
				"x": 1.0646012494,
				"y": 0.8371125109,
				"z": 1.8813794261,
				"element": "C" 
			},
			{
				"x": 1.1384293703,
				"y": -0.1008286893,
				"z": 2.8666310754,
				"element": "C" 
			},
			{
				"x": 2.3403047667,
				"y": -0.9322013344,
				"z": 3.2192765427,
				"element": "C" 
			},
			{
				"x": 3.6010834253,
				"y": -0.3189093871,
				"z": 2.5812992148,
				"element": "C" 
			},
			{
				"x": 3.3454530092,
				"y": 0.0794334626,
				"z": 1.120580281,
				"element": "C" 
			},
			{
				"x": 2.2555825432,
				"y": 1.1588811437,
				"z": 1.0084460787,
				"element": "C" 
			},
			{
				"x": -0.3943919513,
				"y": -0.2524854433,
				"z": 3.7249708047,
				"element": "S" 
			},
			{
				"x": -2.7684215197,
				"y": 1.2900373116,
				"z": 3.8948387189,
				"element": "H" 
			},
			{
				"x": -2.7016212834,
				"y": 2.2076886983,
				"z": 2.4763962072,
				"element": "H" 
			},
			{
				"x": -1.8535973547,
				"y": 3.6204992523,
				"z": -0.1432220677,
				"element": "H" 
			},
			{
				"x": -2.4933237928,
				"y": 0.7918416542,
				"z": 0.4562438696,
				"element": "H" 
			},
			{
				"x": -3.6553301,
				"y": 1.9555926958,
				"z": -0.1624754604,
				"element": "H" 
			},
			{
				"x": -0.590580281,
				"y": 0.0150022856,
				"z": -1.0245269747,
				"element": "H" 
			},
			{
				"x": 0.1260035716,
				"y": -0.4629821541,
				"z": -3.3471371767,
				"element": "H" 
			},
			{
				"x": -1.0594204183,
				"y": 0.5930020741,
				"z": -5.2605673559,
				"element": "H" 
			},
			{
				"x": -2.9729200889,
				"y": 2.1223535822,
				"z": -4.8338855769,
				"element": "H" 
			},
			{
				"x": -3.6890154395,
				"y": 2.5944213725,
				"z": -2.5106504623,
				"element": "H" 
			},
			{
				"x": 2.4632702376,
				"y": -0.9992364832,
				"z": 4.3076673306,
				"element": "H" 
			},
			{
				"x": 2.2088602109,
				"y": -1.9649618091,
				"z": 2.8631167775,
				"element": "H" 
			},
			{
				"x": 4.430481105,
				"y": -1.0320040898,
				"z": 2.6484055811,
				"element": "H" 
			},
			{
				"x": 3.8973849298,
				"y": 0.5707758708,
				"z": 3.151761802,
				"element": "H" 
			},
			{
				"x": 4.2707700935,
				"y": 0.4407306064,
				"z": 0.6579707124,
				"element": "H" 
			},
			{
				"x": 3.03863899,
				"y": -0.8118887455,
				"z": 0.5561932446,
				"element": "H" 
			},
			{
				"x": 2.6523226316,
				"y": 2.1402559842,
				"z": 1.2958792095,
				"element": "H" 
			},
			{
				"x": 1.937741586,
				"y": 1.27600303,
				"z": -0.0334596304,
				"element": "H" 
			}
		],
		 "valence_orbital": [ 
			{
				"type": "occ",
				"energy": -0.25231,
				"method": "rhf"
			},
			{
				"type": "occ",
				"energy": -0.24488,
				"method": "rhf"
			},
			{
				"type": "occ",
				"energy": -0.24195,
				"method": "rhf"
			},
			{
				"type": "occ",
				"energy": -0.23424,
				"method": "rhf"
			},
			{
				"type": "occ",
				"energy": -0.19177,
				"method": "rhf"
			},
			{
				"type": "unocc",
				"energy": -0.01931,
				"method": "rhf"
			},
			{
				"type": "unocc",
				"energy": -0.00477,
				"method": "rhf"
			},
			{
				"type": "unocc",
				"energy": -0.00228,
				"method": "rhf"
			},
			{
				"type": "unocc",
				"energy": 0.01751,
				"method": "rhf"
			},
			{
				"type": "unocc",
				"energy": 0.02473,
				"method": "rhf"
			}
		],
		"cosmo_sigma_profile": { 
			"-0.025": 0.0,
			"-0.024": 0.0,
			"-0.023": 0.0,
			"-0.022": 0.0,
			"-0.021": 0.0,
			"-0.02": 0.0,
			"-0.019": 0.0,
			"-0.018": 0.0,
			"-0.017": 0.0,
			"-0.016": 0.0,
			"-0.015": 0.00680140322357,
			"-0.014": 0.791621031124,
			"-0.013": 1.35974003215,
			"-0.012": 1.93913980976,
			"-0.011": 2.54410144512,
			"-0.01": 2.90555537392,
			"-0.009": 3.26225393988,
			"-0.008": 3.17218277593,
			"-0.007": 2.56535580853,
			"-0.006": 9.37054730656,
			"-0.005": 15.0578475767,
			"-0.004": 20.1492868932,
			"-0.003": 28.1099160111,
			"-0.002": 37.8007383711,
			"-0.001": 37.1513155359,
			"0.0": 29.6746062586,
			"0.001": 22.0346912108,
			"0.002": 17.3324386261,
			"0.003": 18.9827583374,
			"0.004": 19.1427892337,
			"0.005": 18.7362155803,
			"0.006": 11.8967403352,
			"0.007": 2.87706053317,
			"0.008": 1.86035189522,
			"0.009": 2.54026930839,
			"0.01": 2.14557163915,
			"0.011": 2.26622817491,
			"0.012": 2.24333763618,
			"0.013": 3.97144626525,
			"0.014": 3.27276941964,
			"0.015": 0.197727306812,
			"0.016": 0.0,
			"0.017": 0.0,
			"0.018": 0.0,
			"0.019": 0.0,
			"0.02": 0.0,
			"0.021": 0.0,
			"0.022": 0.0,
			"0.023": 0.0,
			"0.024": 0.0,
			"0.025": 0.0
		}
	}
}
