{
	 "smiles": "OC(=O)CC1=NNC(=O)C2=CC=CC=C12", 
	 "Tm": 495.15, 
	 "num_atms": 23, 
	 "gaussian": { 
		 "optdone": 1, 
		 "sigma_profile": "yes", 
		 "theory": "DFT", 
		 "functional": "B3LYP", 
		 "basiset": "6-31G**", 
		 "properties": { 
			 "R2extent": 4051.2014, 
			 "electric_dipole_moment_norm": 4.82710236995, 
			 "electric_quadrupole_moment_norm": 24.2497559093, 
			 "total_energy": -721.06498827, 
			 "HOMO_LUMO_gap": 0.17772, 
			 "cosmo_polarized_energy": -23.57, 
			 "cosmo_cavitation_energy": 27.95, 
			 "cosmo_dispersion_energy": -20.49, 
			 "cosmo_repulsion_energy": 1.6, 
			 "cosmo_total_nonelectrostatic_energy": 9.07, 
			 "SMD_solvation_energy": 5.57 
		},
		"coords": [
			{
				"x": 4.9693790178,
				"y": -0.6730451438,
				"z": 1.0152023274,
				"element": "O" 
			},
			{
				"x": 3.6641233026,
				"y": -0.2993306877,
				"z": 0.9373818358,
				"element": "C" 
			},
			{
				"x": 2.7914934643,
				"y": -1.0699193761,
				"z": 1.2407907713,
				"element": "O" 
			},
			{
				"x": 3.4424763517,
				"y": 1.1272592824,
				"z": 0.4272952405,
				"element": "C" 
			},
			{
				"x": 2.0080483201,
				"y": 1.5900234267,
				"z": 0.4785578545,
				"element": "C" 
			},
			{
				"x": 1.7640254786,
				"y": 2.5004370997,
				"z": 1.3755554063,
				"element": "N" 
			},
			{
				"x": 0.5030758873,
				"y": 2.9754729807,
				"z": 1.4688361318,
				"element": "N" 
			},
			{
				"x": -0.6096146573,
				"y": 2.6351440728,
				"z": 0.7072461949,
				"element": "C" 
			},
			{
				"x": -1.6951823381,
				"y": 3.1679630021,
				"z": 0.9064491996,
				"element": "O" 
			},
			{
				"x": -0.3190430341,
				"y": 1.6146202455,
				"z": -0.3121854565,
				"element": "C" 
			},
			{
				"x": -1.3461709273,
				"y": 1.181647875,
				"z": -1.1618282141,
				"element": "C" 
			},
			{
				"x": -1.0835118677,
				"y": 0.2212787954,
				"z": -2.1272690293,
				"element": "C" 
			},
			{
				"x": 0.2087567761,
				"y": -0.3161928515,
				"z": -2.2468199064,
				"element": "C" 
			},
			{
				"x": 1.2310101483,
				"y": 0.1043531817,
				"z": -1.4086173654,
				"element": "C" 
			},
			{
				"x": 0.9868488703,
				"y": 1.0833867925,
				"z": -0.4246135697,
				"element": "C" 
			},
			{
				"x": 5.5495902623,
				"y": 0.05952208,
				"z": 0.7632568088,
				"element": "H" 
			},
			{
				"x": 3.8386533729,
				"y": 1.1866835176,
				"z": -0.5963234521,
				"element": "H" 
			},
			{
				"x": 4.0320379514,
				"y": 1.8181495062,
				"z": 1.0396186998,
				"element": "H" 
			},
			{
				"x": 0.3623115317,
				"y": 3.6770405824,
				"z": 2.1848702466,
				"element": "H" 
			},
			{
				"x": -2.3316183329,
				"y": 1.6172152886,
				"z": -1.036397059,
				"element": "H" 
			},
			{
				"x": -1.8746248555,
				"y": -0.1190412771,
				"z": -2.7884581104,
				"element": "H" 
			},
			{
				"x": 0.4103212976,
				"y": -1.0737709845,
				"z": -2.998325456,
				"element": "H" 
			},
			{
				"x": 2.2157139799,
				"y": -0.3384974087,
				"z": -1.5043230984,
				"element": "H" 
			}
		],
		 "valence_orbital": [ 
			{
				"type": "occ",
				"energy": -0.29098,
				"method": "rhf"
			},
			{
				"type": "occ",
				"energy": -0.28458,
				"method": "rhf"
			},
			{
				"type": "occ",
				"energy": -0.26873,
				"method": "rhf"
			},
			{
				"type": "occ",
				"energy": -0.25542,
				"method": "rhf"
			},
			{
				"type": "occ",
				"energy": -0.23481,
				"method": "rhf"
			},
			{
				"type": "unocc",
				"energy": -0.05709,
				"method": "rhf"
			},
			{
				"type": "unocc",
				"energy": -0.04679,
				"method": "rhf"
			},
			{
				"type": "unocc",
				"energy": -0.00031,
				"method": "rhf"
			},
			{
				"type": "unocc",
				"energy": 0.021,
				"method": "rhf"
			},
			{
				"type": "unocc",
				"energy": 0.04693,
				"method": "rhf"
			}
		],
		"cosmo_sigma_profile": { 
			"-0.025": 0.0,
			"-0.024": 0.0,
			"-0.023": 0.0,
			"-0.022": 0.0,
			"-0.021": 0.0,
			"-0.02": 0.0851937714636,
			"-0.019": 1.13289058706,
			"-0.018": 1.27382921916,
			"-0.017": 1.09722882491,
			"-0.016": 2.10337327052,
			"-0.015": 1.92157498066,
			"-0.014": 1.91043470434,
			"-0.013": 2.47456182633,
			"-0.012": 2.18077478071,
			"-0.011": 2.31509242666,
			"-0.01": 3.281855624,
			"-0.009": 4.29385423863,
			"-0.008": 5.2339312282,
			"-0.007": 8.61201413181,
			"-0.006": 11.8344676233,
			"-0.005": 12.1690733757,
			"-0.004": 9.47238926891,
			"-0.003": 10.7550589779,
			"-0.002": 11.6006712595,
			"-0.001": 11.5217005441,
			"0.0": 12.1091407322,
			"0.001": 14.7316480456,
			"0.002": 15.3195625299,
			"0.003": 13.3418747045,
			"0.004": 6.51419188193,
			"0.005": 5.59026833877,
			"0.006": 3.59167698207,
			"0.007": 6.03034487833,
			"0.008": 5.50358941715,
			"0.009": 5.72907733095,
			"0.01": 7.43063420681,
			"0.011": 7.75052994055,
			"0.012": 6.22793284197,
			"0.013": 6.78186636449,
			"0.014": 1.72591088782,
			"0.015": 0.0,
			"0.016": 0.0,
			"0.017": 0.0,
			"0.018": 0.0,
			"0.019": 0.0,
			"0.02": 0.0,
			"0.021": 0.0,
			"0.022": 0.0,
			"0.023": 0.0,
			"0.024": 0.0,
			"0.025": 0.0
		}
	}
}
