{
	 "smiles": "CN=C=O", 
	 "Tm": 228.15, 
	 "num_atms": 7, 
	 "gaussian": { 
		 "optdone": 1, 
		 "sigma_profile": "yes", 
		 "theory": "DFT", 
		 "functional": "B3LYP", 
		 "basiset": "6-31G**", 
		 "properties": { 
			 "R2extent": 667.7449, 
			 "electric_dipole_moment_norm": 2.92292210125, 
			 "electric_quadrupole_moment_norm": 7.06053234395, 
			 "total_energy": -207.987885593, 
			 "HOMO_LUMO_gap": 0.3018, 
			 "cosmo_polarized_energy": -4.56, 
			 "cosmo_cavitation_energy": 11.76, 
			 "cosmo_dispersion_energy": -8.44, 
			 "cosmo_repulsion_energy": 0.8, 
			 "cosmo_total_nonelectrostatic_energy": 4.12, 
			 "SMD_solvation_energy": 4.08 
		},
		"coords": [
			{
				"x": 0.314954023,
				"y": -1.1694221956,
				"z": -0.9332966535,
				"element": "C" 
			},
			{
				"x": 0.5752076185,
				"y": -1.0210454453,
				"z": 0.4751688851,
				"element": "N" 
			},
			{
				"x": 1.017698989,
				"y": -1.6523463437,
				"z": 1.401852941,
				"element": "C" 
			},
			{
				"x": 1.4262525097,
				"y": -2.155039619,
				"z": 2.3904413284,
				"element": "O" 
			},
			{
				"x": -0.1127754493,
				"y": -0.2404646196,
				"z": -1.3161468992,
				"element": "H" 
			},
			{
				"x": 1.2367396088,
				"y": -1.377222796,
				"z": -1.4874371458,
				"element": "H" 
			},
			{
				"x": -0.3983772998,
				"y": -1.9791589808,
				"z": -1.121482456,
				"element": "H" 
			}
		],
		 "valence_orbital": [ 
			{
				"type": "occ",
				"energy": -0.47276,
				"method": "rhf"
			},
			{
				"type": "occ",
				"energy": -0.42206,
				"method": "rhf"
			},
			{
				"type": "occ",
				"energy": -0.41703,
				"method": "rhf"
			},
			{
				"type": "occ",
				"energy": -0.29192,
				"method": "rhf"
			},
			{
				"type": "occ",
				"energy": -0.27738,
				"method": "rhf"
			},
			{
				"type": "unocc",
				"energy": 0.02442,
				"method": "rhf"
			},
			{
				"type": "unocc",
				"energy": 0.05944,
				"method": "rhf"
			},
			{
				"type": "unocc",
				"energy": 0.10486,
				"method": "rhf"
			},
			{
				"type": "unocc",
				"energy": 0.12657,
				"method": "rhf"
			},
			{
				"type": "unocc",
				"energy": 0.15192,
				"method": "rhf"
			}
		],
		"cosmo_sigma_profile": { 
			"-0.025": 0.0,
			"-0.024": 0.0,
			"-0.023": 0.0,
			"-0.022": 0.0,
			"-0.021": 0.0,
			"-0.02": 0.0,
			"-0.019": 0.0,
			"-0.018": 0.0,
			"-0.017": 0.0,
			"-0.016": 0.0,
			"-0.015": 0.0,
			"-0.014": 0.0,
			"-0.013": 0.0,
			"-0.012": 0.0,
			"-0.011": 0.0,
			"-0.01": 0.0,
			"-0.009": 0.0,
			"-0.008": 0.0,
			"-0.007": 0.946908078752,
			"-0.006": 7.25151561359,
			"-0.005": 11.1438409253,
			"-0.004": 10.2979687994,
			"-0.003": 10.6163543585,
			"-0.002": 5.41861536659,
			"-0.001": 7.59003727835,
			"0.0": 4.60401560265,
			"0.001": 3.98810332443,
			"0.002": 3.79615054836,
			"0.003": 3.48897615545,
			"0.004": 3.08185710933,
			"0.005": 3.56021191462,
			"0.006": 3.44426087786,
			"0.007": 4.11720574607,
			"0.008": 6.92951241401,
			"0.009": 4.43188870978,
			"0.01": 0.0,
			"0.011": 0.0,
			"0.012": 0.0,
			"0.013": 0.0,
			"0.014": 0.0,
			"0.015": 0.0,
			"0.016": 0.0,
			"0.017": 0.0,
			"0.018": 0.0,
			"0.019": 0.0,
			"0.02": 0.0,
			"0.021": 0.0,
			"0.022": 0.0,
			"0.023": 0.0,
			"0.024": 0.0,
			"0.025": 0.0
		}
	}
}
