{
	 "smiles": "OC(=O)C1CCN(CC1)C(=O)C1=CC=CC=C1", 
	 "Tm": 418.15, 
	 "num_atms": 32, 
	 "gaussian": { 
		 "optdone": 1, 
		 "sigma_profile": "yes", 
		 "theory": "DFT", 
		 "functional": "B3LYP", 
		 "basiset": "6-31G**", 
		 "properties": { 
			 "R2extent": 5722.9862, 
			 "electric_dipole_moment_norm": 3.56640080473, 
			 "electric_quadrupole_moment_norm": 24.2265757952, 
			 "total_energy": -784.871498483, 
			 "HOMO_LUMO_gap": 0.20759, 
			 "cosmo_polarized_energy": -21.62, 
			 "cosmo_cavitation_energy": 34.52, 
			 "cosmo_dispersion_energy": -24.54, 
			 "cosmo_repulsion_energy": 1.9, 
			 "cosmo_total_nonelectrostatic_energy": 11.89, 
			 "SMD_solvation_energy": 6.53 
		},
		"coords": [
			{
				"x": 0.5667488279,
				"y": -2.8272052422,
				"z": 3.6563646759,
				"element": "O" 
			},
			{
				"x": 1.8411168945,
				"y": -2.3690519169,
				"z": 3.5064500224,
				"element": "C" 
			},
			{
				"x": 2.757169342,
				"y": -2.9703560849,
				"z": 4.008628238,
				"element": "O" 
			},
			{
				"x": 2.0116904848,
				"y": -1.1058291159,
				"z": 2.6653304841,
				"element": "C" 
			},
			{
				"x": 1.1649460518,
				"y": 0.0863273072,
				"z": 3.1591962955,
				"element": "C" 
			},
			{
				"x": 1.3770457848,
				"y": 1.3182525052,
				"z": 2.2718273543,
				"element": "C" 
			},
			{
				"x": 1.0906151441,
				"y": 0.9911405096,
				"z": 0.8733227578,
				"element": "N" 
			},
			{
				"x": 1.9153764521,
				"y": -0.0983094964,
				"z": 0.3449571925,
				"element": "C" 
			},
			{
				"x": 1.7245204237,
				"y": -1.3758123782,
				"z": 1.1706925796,
				"element": "C" 
			},
			{
				"x": 0.4787985088,
				"y": 1.9623286044,
				"z": 0.0987866455,
				"element": "C" 
			},
			{
				"x": 0.215785004,
				"y": 3.0743534756,
				"z": 0.5491254799,
				"element": "O" 
			},
			{
				"x": 0.0790731443,
				"y": 1.6116483001,
				"z": -1.3092507962,
				"element": "C" 
			},
			{
				"x": 0.2428955746,
				"y": 2.5933828821,
				"z": -2.2959547573,
				"element": "C" 
			},
			{
				"x": -0.1771220229,
				"y": 2.3554535188,
				"z": -3.6030306411,
				"element": "C" 
			},
			{
				"x": -0.7932082746,
				"y": 1.1452027646,
				"z": -3.9320450281,
				"element": "C" 
			},
			{
				"x": -0.989394757,
				"y": 0.1747718046,
				"z": -2.9477859769,
				"element": "C" 
			},
			{
				"x": -0.5516744939,
				"y": 0.4045208337,
				"z": -1.642821376,
				"element": "C" 
			},
			{
				"x": -0.0602407231,
				"y": -2.2356117897,
				"z": 3.2166381677,
				"element": "H" 
			},
			{
				"x": 3.0707753887,
				"y": -0.845883231,
				"z": 2.7682920266,
				"element": "H" 
			},
			{
				"x": 0.0948561528,
				"y": -0.1642021287,
				"z": 3.1441452951,
				"element": "H" 
			},
			{
				"x": 1.422044806,
				"y": 0.3314745343,
				"z": 4.1954132751,
				"element": "H" 
			},
			{
				"x": 2.4154054458,
				"y": 1.6728137413,
				"z": 2.3686886055,
				"element": "H" 
			},
			{
				"x": 0.7246785673,
				"y": 2.141218903,
				"z": 2.5621032516,
				"element": "H" 
			},
			{
				"x": 1.6705415576,
				"y": -0.2732737253,
				"z": -0.7013226402,
				"element": "H" 
			},
			{
				"x": 2.9758055975,
				"y": 0.1998822882,
				"z": 0.3868005281,
				"element": "H" 
			},
			{
				"x": 2.3923752692,
				"y": -2.1589339691,
				"z": 0.7959428106,
				"element": "H" 
			},
			{
				"x": 0.6954864617,
				"y": -1.7369089758,
				"z": 1.0411231324,
				"element": "H" 
			},
			{
				"x": 0.6930262427,
				"y": 3.5411584952,
				"z": -2.0195241383,
				"element": "H" 
			},
			{
				"x": -0.0336434092,
				"y": 3.1173613907,
				"z": -4.3636149399,
				"element": "H" 
			},
			{
				"x": -1.1283409928,
				"y": 0.9634418374,
				"z": -4.9491050655,
				"element": "H" 
			},
			{
				"x": -1.4882048934,
				"y": -0.7582320552,
				"z": -3.1936197889,
				"element": "H" 
			},
			{
				"x": -0.7248475599,
				"y": -0.3441235869,
				"z": -0.8751536699,
				"element": "H" 
			}
		],
		 "valence_orbital": [ 
			{
				"type": "occ",
				"energy": -0.27446,
				"method": "rhf"
			},
			{
				"type": "occ",
				"energy": -0.26977,
				"method": "rhf"
			},
			{
				"type": "occ",
				"energy": -0.26364,
				"method": "rhf"
			},
			{
				"type": "occ",
				"energy": -0.25368,
				"method": "rhf"
			},
			{
				"type": "occ",
				"energy": -0.24468,
				"method": "rhf"
			},
			{
				"type": "unocc",
				"energy": -0.03709,
				"method": "rhf"
			},
			{
				"type": "unocc",
				"energy": -0.0147,
				"method": "rhf"
			},
			{
				"type": "unocc",
				"energy": 0.00486,
				"method": "rhf"
			},
			{
				"type": "unocc",
				"energy": 0.03406,
				"method": "rhf"
			},
			{
				"type": "unocc",
				"energy": 0.03885,
				"method": "rhf"
			}
		],
		"cosmo_sigma_profile": { 
			"-0.025": 0.0,
			"-0.024": 0.0,
			"-0.023": 0.0,
			"-0.022": 0.0,
			"-0.021": 0.0,
			"-0.02": 0.0,
			"-0.019": 0.0,
			"-0.018": 0.396798217804,
			"-0.017": 0.738456300347,
			"-0.016": 0.823656882014,
			"-0.015": 1.33491013789,
			"-0.014": 1.09198816435,
			"-0.013": 0.840846465306,
			"-0.012": 0.840880966436,
			"-0.011": 2.06809017581,
			"-0.01": 0.847901093081,
			"-0.009": 0.533288840227,
			"-0.008": 1.56638341853,
			"-0.007": 1.91713928496,
			"-0.006": 12.4269704572,
			"-0.005": 31.1283581171,
			"-0.004": 36.2075969909,
			"-0.003": 28.8068993342,
			"-0.002": 22.4836031251,
			"-0.001": 13.9956309983,
			"0.0": 10.0139753082,
			"0.001": 11.0708239853,
			"0.002": 10.0221625812,
			"0.003": 11.4951879986,
			"0.004": 12.7477963632,
			"0.005": 11.2872173908,
			"0.006": 3.3870614348,
			"0.007": 3.38605607855,
			"0.008": 3.87677281184,
			"0.009": 5.97461651661,
			"0.01": 6.07423682559,
			"0.011": 6.95541541039,
			"0.012": 7.77363578185,
			"0.013": 6.55975738545,
			"0.014": 3.35957421044,
			"0.015": 0.327704291875,
			"0.016": 0.0,
			"0.017": 0.0,
			"0.018": 0.0,
			"0.019": 0.0,
			"0.02": 0.0,
			"0.021": 0.0,
			"0.022": 0.0,
			"0.023": 0.0,
			"0.024": 0.0,
			"0.025": 0.0
		}
	}
}
