{
	 "smiles": "NC1=CC(=NO1)C1=CC(F)=CC(F)=C1", 
	 "Tm": 388.15, 
	 "num_atms": 20, 
	 "gaussian": { 
		 "optdone": 1, 
		 "sigma_profile": "yes", 
		 "theory": "DFT", 
		 "functional": "B3LYP", 
		 "basiset": "6-31G**", 
		 "properties": { 
			 "R2extent": 3546.6685, 
			 "electric_dipole_moment_norm": 4.52139134891, 
			 "electric_quadrupole_moment_norm": 18.2246988485, 
			 "total_energy": -730.920540135, 
			 "HOMO_LUMO_gap": 0.18171, 
			 "cosmo_polarized_energy": -13.45, 
			 "cosmo_cavitation_energy": 26.43, 
			 "cosmo_dispersion_energy": -19.38, 
			 "cosmo_repulsion_energy": 1.46, 
			 "cosmo_total_nonelectrostatic_energy": 8.51, 
			 "SMD_solvation_energy": 5.69 
		},
		"coords": [
			{
				"x": -0.2262191286,
				"y": 1.8684483597,
				"z": 4.4265560701,
				"element": "N" 
			},
			{
				"x": 0.0771897179,
				"y": 1.2552199869,
				"z": 3.2376777571,
				"element": "C" 
			},
			{
				"x": -0.673493561,
				"y": 0.6206375243,
				"z": 2.2833284309,
				"element": "C" 
			},
			{
				"x": 0.3012819705,
				"y": 0.1557191993,
				"z": 1.3528896544,
				"element": "C" 
			},
			{
				"x": 1.5298529237,
				"y": 0.4813020872,
				"z": 1.7121025214,
				"element": "N" 
			},
			{
				"x": 1.383109625,
				"y": 1.1894726875,
				"z": 2.9229694493,
				"element": "O" 
			},
			{
				"x": 0.0852731444,
				"y": -0.6032618194,
				"z": 0.1065490113,
				"element": "C" 
			},
			{
				"x": -1.2066149835,
				"y": -0.9978518624,
				"z": -0.2687058219,
				"element": "C" 
			},
			{
				"x": -1.3773602806,
				"y": -1.7115934597,
				"z": -1.4485954717,
				"element": "C" 
			},
			{
				"x": -2.6221720743,
				"y": -2.0877820193,
				"z": -1.8031690522,
				"element": "F" 
			},
			{
				"x": -0.3175053366,
				"y": -2.05414729,
				"z": -2.2782441908,
				"element": "C" 
			},
			{
				"x": 0.95212572,
				"y": -1.6478398055,
				"z": -1.8762803329,
				"element": "C" 
			},
			{
				"x": 2.0003238473,
				"y": -1.9649173196,
				"z": -2.6604616381,
				"element": "F" 
			},
			{
				"x": 1.1790441867,
				"y": -0.9335240532,
				"z": -0.709830876,
				"element": "C" 
			},
			{
				"x": 0.4861040635,
				"y": 2.4968972707,
				"z": 4.7730071655,
				"element": "H" 
			},
			{
				"x": -1.1630261807,
				"y": 2.237285202,
				"z": 4.4989152605,
				"element": "H" 
			},
			{
				"x": -1.7447080337,
				"y": 0.5047342202,
				"z": 2.2582634156,
				"element": "H" 
			},
			{
				"x": -2.0757346807,
				"y": -0.7662247595,
				"z": 0.3346854382,
				"element": "H" 
			},
			{
				"x": -0.4708892799,
				"y": -2.6110067903,
				"z": -3.1942229285,
				"element": "H" 
			},
			{
				"x": 2.1839183407,
				"y": -0.637367359,
				"z": -0.4359338621,
				"element": "H" 
			}
		],
		 "valence_orbital": [ 
			{
				"type": "occ",
				"energy": -0.30898,
				"method": "rhf"
			},
			{
				"type": "occ",
				"energy": -0.30346,
				"method": "rhf"
			},
			{
				"type": "occ",
				"energy": -0.24958,
				"method": "rhf"
			},
			{
				"type": "occ",
				"energy": -0.24813,
				"method": "rhf"
			},
			{
				"type": "occ",
				"energy": -0.2246,
				"method": "rhf"
			},
			{
				"type": "unocc",
				"energy": -0.04289,
				"method": "rhf"
			},
			{
				"type": "unocc",
				"energy": -0.0023,
				"method": "rhf"
			},
			{
				"type": "unocc",
				"energy": 0.02584,
				"method": "rhf"
			},
			{
				"type": "unocc",
				"energy": 0.05555,
				"method": "rhf"
			},
			{
				"type": "unocc",
				"energy": 0.08139,
				"method": "rhf"
			}
		],
		"cosmo_sigma_profile": { 
			"-0.025": 0.0,
			"-0.024": 0.0,
			"-0.023": 0.0,
			"-0.022": 0.0,
			"-0.021": 0.0,
			"-0.02": 0.0,
			"-0.019": 0.0,
			"-0.018": 0.0,
			"-0.017": 0.0,
			"-0.016": 0.0,
			"-0.015": 0.948773778336,
			"-0.014": 3.033176637,
			"-0.013": 3.27571387408,
			"-0.012": 1.94718265337,
			"-0.011": 2.73080636986,
			"-0.01": 2.53455385193,
			"-0.009": 5.14676975029,
			"-0.008": 6.48864613092,
			"-0.007": 5.76091670352,
			"-0.006": 6.92575462182,
			"-0.005": 5.47069754431,
			"-0.004": 6.19750728653,
			"-0.003": 5.81896161005,
			"-0.002": 7.30066458096,
			"-0.001": 9.8082449719,
			"0.0": 21.2730431588,
			"0.001": 25.9342384633,
			"0.002": 22.6247199116,
			"0.003": 17.8568129157,
			"0.004": 24.8891802159,
			"0.005": 3.93277810733,
			"0.006": 2.89134900696,
			"0.007": 3.85336359596,
			"0.008": 5.264614658,
			"0.009": 2.9754941274,
			"0.01": 2.97591271292,
			"0.011": 1.80302309685,
			"0.012": 1.6350055159,
			"0.013": 1.33746585405,
			"0.014": 0.292196257526,
			"0.015": 0.0,
			"0.016": 0.0,
			"0.017": 0.0,
			"0.018": 0.0,
			"0.019": 0.0,
			"0.02": 0.0,
			"0.021": 0.0,
			"0.022": 0.0,
			"0.023": 0.0,
			"0.024": 0.0,
			"0.025": 0.0
		}
	}
}
