{
	 "smiles": "CN1C=C(C=O)C(=N1)C1=CC=CC=C1", 
	 "Tm": 333.15, 
	 "num_atms": 24, 
	 "gaussian": { 
		 "optdone": 1, 
		 "sigma_profile": "yes", 
		 "theory": "DFT", 
		 "functional": "B3LYP", 
		 "basiset": "6-31G**", 
		 "properties": { 
			 "R2extent": 3142.9252, 
			 "electric_dipole_moment_norm": 3.13364725041, 
			 "electric_quadrupole_moment_norm": 20.3881561256, 
			 "total_energy": -609.900929225, 
			 "HOMO_LUMO_gap": 0.18757, 
			 "cosmo_polarized_energy": -12.64, 
			 "cosmo_cavitation_energy": 28.74, 
			 "cosmo_dispersion_energy": -20.75, 
			 "cosmo_repulsion_energy": 1.63, 
			 "cosmo_total_nonelectrostatic_energy": 9.62, 
			 "SMD_solvation_energy": 5.4 
		},
		"coords": [
			{
				"x": 2.7256955572,
				"y": 2.086036444,
				"z": 2.3340922286,
				"element": "C" 
			},
			{
				"x": 1.7474738304,
				"y": 1.6029728253,
				"z": 1.376042234,
				"element": "N" 
			},
			{
				"x": 1.3338182944,
				"y": 2.1901922028,
				"z": 0.2385833345,
				"element": "C" 
			},
			{
				"x": 0.3731737391,
				"y": 1.3548418823,
				"z": -0.324885724,
				"element": "C" 
			},
			{
				"x": -0.2489453066,
				"y": 1.579535715,
				"z": -1.6272692297,
				"element": "C" 
			},
			{
				"x": -0.0814821574,
				"y": 2.5904497541,
				"z": -2.2929298637,
				"element": "O" 
			},
			{
				"x": 0.2737323748,
				"y": 0.2590692436,
				"z": 0.5934843678,
				"element": "C" 
			},
			{
				"x": 1.1156030911,
				"y": 0.4264413263,
				"z": 1.6174877813,
				"element": "N" 
			},
			{
				"x": -0.5807934388,
				"y": -0.941482165,
				"z": 0.5377270053,
				"element": "C" 
			},
			{
				"x": -1.8837082614,
				"y": -0.8915530191,
				"z": 0.0160935888,
				"element": "C" 
			},
			{
				"x": -2.6764384405,
				"y": -2.0386657017,
				"z": -0.023409824,
				"element": "C" 
			},
			{
				"x": -2.1844556606,
				"y": -3.2495735893,
				"z": 0.4656775706,
				"element": "C" 
			},
			{
				"x": -0.8951579099,
				"y": -3.3058168136,
				"z": 1.00147247,
				"element": "C" 
			},
			{
				"x": -0.0994196592,
				"y": -2.1633252859,
				"z": 1.0375758675,
				"element": "C" 
			},
			{
				"x": 3.5102847315,
				"y": 1.3377413542,
				"z": 2.4676657476,
				"element": "H" 
			},
			{
				"x": 2.2453846919,
				"y": 2.2733465368,
				"z": 3.2978838944,
				"element": "H" 
			},
			{
				"x": 3.1628609375,
				"y": 3.0117449354,
				"z": 1.9575850539,
				"element": "H" 
			},
			{
				"x": 1.7344789954,
				"y": 3.1269770453,
				"z": -0.1193540638,
				"element": "H" 
			},
			{
				"x": -0.8850236243,
				"y": 0.7531535057,
				"z": -2.0036391884,
				"element": "H" 
			},
			{
				"x": -2.290054571,
				"y": 0.0532189135,
				"z": -0.330619807,
				"element": "H" 
			},
			{
				"x": -3.6832399648,
				"y": -1.9819908539,
				"z": -0.4270643731,
				"element": "H" 
			},
			{
				"x": -2.8025411989,
				"y": -4.1421903176,
				"z": 0.4347041902,
				"element": "H" 
			},
			{
				"x": -0.5071023382,
				"y": -4.244053833,
				"z": 1.3877918489,
				"element": "H" 
			},
			{
				"x": 0.9037562882,
				"y": -2.2012701054,
				"z": 1.4488048903,
				"element": "H" 
			}
		],
		 "valence_orbital": [ 
			{
				"type": "occ",
				"energy": -0.2881,
				"method": "rhf"
			},
			{
				"type": "occ",
				"energy": -0.25566,
				"method": "rhf"
			},
			{
				"type": "occ",
				"energy": -0.25389,
				"method": "rhf"
			},
			{
				"type": "occ",
				"energy": -0.24308,
				"method": "rhf"
			},
			{
				"type": "occ",
				"energy": -0.23146,
				"method": "rhf"
			},
			{
				"type": "unocc",
				"energy": -0.04389,
				"method": "rhf"
			},
			{
				"type": "unocc",
				"energy": -0.02155,
				"method": "rhf"
			},
			{
				"type": "unocc",
				"energy": -0.00398,
				"method": "rhf"
			},
			{
				"type": "unocc",
				"energy": 0.03064,
				"method": "rhf"
			},
			{
				"type": "unocc",
				"energy": 0.08697,
				"method": "rhf"
			}
		],
		"cosmo_sigma_profile": { 
			"-0.025": 0.0,
			"-0.024": 0.0,
			"-0.023": 0.0,
			"-0.022": 0.0,
			"-0.021": 0.0,
			"-0.02": 0.0,
			"-0.019": 0.0,
			"-0.018": 0.0,
			"-0.017": 0.0,
			"-0.016": 0.0,
			"-0.015": 0.0,
			"-0.014": 0.0,
			"-0.013": 0.0,
			"-0.012": 0.0,
			"-0.011": 0.0889795073016,
			"-0.01": 2.45821368547,
			"-0.009": 2.63847993179,
			"-0.008": 2.97622468979,
			"-0.007": 7.01817437536,
			"-0.006": 14.7482061907,
			"-0.005": 20.0596384939,
			"-0.004": 23.4186807968,
			"-0.003": 19.6892381694,
			"-0.002": 11.8244873727,
			"-0.001": 11.8129229455,
			"0.0": 13.4909661061,
			"0.001": 15.8772558013,
			"0.002": 15.0476079309,
			"0.003": 12.1715488618,
			"0.004": 12.7786717632,
			"0.005": 14.8742380921,
			"0.006": 4.08568130649,
			"0.007": 2.81729002187,
			"0.008": 3.86380662498,
			"0.009": 2.4966134041,
			"0.01": 2.50344352754,
			"0.011": 4.14174195169,
			"0.012": 5.7623368085,
			"0.013": 2.81465702276,
			"0.014": 1.09619047878,
			"0.015": 0.0720017031881,
			"0.016": 0.0,
			"0.017": 0.0,
			"0.018": 0.0,
			"0.019": 0.0,
			"0.02": 0.0,
			"0.021": 0.0,
			"0.022": 0.0,
			"0.023": 0.0,
			"0.024": 0.0,
			"0.025": 0.0
		}
	}
}
