{
	 "smiles": "CC1C(=O)CCC1=O", 
	 "Tm": 487.15, 
	 "num_atms": 16, 
	 "gaussian": { 
		 "optdone": 1, 
		 "sigma_profile": "yes", 
		 "theory": "DFT", 
		 "functional": "B3LYP", 
		 "basiset": "6-31G**", 
		 "properties": { 
			 "R2extent": 1519.6905, 
			 "electric_dipole_moment_norm": 2.09868106438, 
			 "electric_quadrupole_moment_norm": 16.1429247099, 
			 "total_energy": -383.903318276, 
			 "HOMO_LUMO_gap": 0.19832, 
			 "cosmo_polarized_energy": -11.43, 
			 "cosmo_cavitation_energy": 19.39, 
			 "cosmo_dispersion_energy": -14.26, 
			 "cosmo_repulsion_energy": 1.22, 
			 "cosmo_total_nonelectrostatic_energy": 6.35, 
			 "SMD_solvation_energy": 4.56 
		},
		"coords": [
			{
				"x": 0.1818933827,
				"y": -1.2371734945,
				"z": 0.0581297708,
				"element": "C" 
			},
			{
				"x": 0.752919926,
				"y": 0.1349645374,
				"z": 0.3982797206,
				"element": "C" 
			},
			{
				"x": 1.7373561081,
				"y": 0.7263705321,
				"z": -0.6107306589,
				"element": "C" 
			},
			{
				"x": 1.7454246896,
				"y": 0.5011201066,
				"z": -1.7999925906,
				"element": "O" 
			},
			{
				"x": 2.7353611305,
				"y": 1.6347037558,
				"z": 0.1232655607,
				"element": "C" 
			},
			{
				"x": 2.5727486474,
				"y": 1.3318728675,
				"z": 1.6264037666,
				"element": "C" 
			},
			{
				"x": 1.4883302961,
				"y": 0.2491913808,
				"z": 1.7335510568,
				"element": "C" 
			},
			{
				"x": 1.2674162056,
				"y": -0.4203260959,
				"z": 2.7174654709,
				"element": "O" 
			},
			{
				"x": -0.5175279563,
				"y": -1.5592278645,
				"z": 0.8327815323,
				"element": "H" 
			},
			{
				"x": -0.3308543792,
				"y": -1.2057181202,
				"z": -0.9057703712,
				"element": "H" 
			},
			{
				"x": 0.9802959604,
				"y": -1.9817790155,
				"z": -0.0074869448,
				"element": "H" 
			},
			{
				"x": -0.0662073904,
				"y": 0.875114965,
				"z": 0.4618628958,
				"element": "H" 
			},
			{
				"x": 3.7403409026,
				"y": 1.4364749507,
				"z": -0.2601540611,
				"element": "H" 
			},
			{
				"x": 2.5059007605,
				"y": 2.676813759,
				"z": -0.1270672277,
				"element": "H" 
			},
			{
				"x": 2.24765848,
				"y": 2.2062671519,
				"z": 2.201913234,
				"element": "H" 
			},
			{
				"x": 3.4858432364,
				"y": 0.966130584,
				"z": 2.1045488458,
				"element": "H" 
			}
		],
		 "valence_orbital": [ 
			{
				"type": "occ",
				"energy": -0.37066,
				"method": "rhf"
			},
			{
				"type": "occ",
				"energy": -0.35176,
				"method": "rhf"
			},
			{
				"type": "occ",
				"energy": -0.35153,
				"method": "rhf"
			},
			{
				"type": "occ",
				"energy": -0.26921,
				"method": "rhf"
			},
			{
				"type": "occ",
				"energy": -0.24141,
				"method": "rhf"
			},
			{
				"type": "unocc",
				"energy": -0.04309,
				"method": "rhf"
			},
			{
				"type": "unocc",
				"energy": -0.0117,
				"method": "rhf"
			},
			{
				"type": "unocc",
				"energy": 0.08099,
				"method": "rhf"
			},
			{
				"type": "unocc",
				"energy": 0.11108,
				"method": "rhf"
			},
			{
				"type": "unocc",
				"energy": 0.12228,
				"method": "rhf"
			}
		],
		"cosmo_sigma_profile": { 
			"-0.025": 0.0,
			"-0.024": 0.0,
			"-0.023": 0.0,
			"-0.022": 0.0,
			"-0.021": 0.0,
			"-0.02": 0.0,
			"-0.019": 0.0,
			"-0.018": 0.0,
			"-0.017": 0.0,
			"-0.016": 0.0,
			"-0.015": 0.0,
			"-0.014": 0.0,
			"-0.013": 0.0,
			"-0.012": 0.0,
			"-0.011": 5.3403014779e-05,
			"-0.01": 1.08608537307,
			"-0.009": 3.75315125349,
			"-0.008": 4.18089795224,
			"-0.007": 7.78144837782,
			"-0.006": 13.6421810734,
			"-0.005": 12.1625272106,
			"-0.004": 13.4321728519,
			"-0.003": 12.1392376834,
			"-0.002": 13.0100066763,
			"-0.001": 8.87104275563,
			"0.0": 7.79433066774,
			"0.001": 5.72951540087,
			"0.002": 3.90964896391,
			"0.003": 2.14541624315,
			"0.004": 3.43402808275,
			"0.005": 3.68662902537,
			"0.006": 3.21926893551,
			"0.007": 3.09349686379,
			"0.008": 3.06338176013,
			"0.009": 4.11599851461,
			"0.01": 5.69662451104,
			"0.011": 7.85865049726,
			"0.012": 7.44648688222,
			"0.013": 1.0742149798,
			"0.014": 0.0,
			"0.015": 0.0,
			"0.016": 0.0,
			"0.017": 0.0,
			"0.018": 0.0,
			"0.019": 0.0,
			"0.02": 0.0,
			"0.021": 0.0,
			"0.022": 0.0,
			"0.023": 0.0,
			"0.024": 0.0,
			"0.025": 0.0
		}
	}
}
