{
	 "smiles": "CC1=NN(C(=O)C1)C1=C(C)C=CC(C)=C1", 
	 "Tm": 438.15, 
	 "num_atms": 29, 
	 "gaussian": { 
		 "optdone": 1, 
		 "sigma_profile": "yes", 
		 "theory": "DFT", 
		 "functional": "B3LYP", 
		 "basiset": "6-31G**", 
		 "properties": { 
			 "R2extent": 3523.8292, 
			 "electric_dipole_moment_norm": 2.78797240661, 
			 "electric_quadrupole_moment_norm": 17.4496669699, 
			 "total_energy": -650.441128528, 
			 "HOMO_LUMO_gap": 0.18984, 
			 "cosmo_polarized_energy": -12.23, 
			 "cosmo_cavitation_energy": 32.16, 
			 "cosmo_dispersion_energy": -23.0, 
			 "cosmo_repulsion_energy": 1.82, 
			 "cosmo_total_nonelectrostatic_energy": 10.99, 
			 "SMD_solvation_energy": 5.63 
		},
		"coords": [
			{
				"x": 0.1173800936,
				"y": 3.0446694279,
				"z": -2.8305691773,
				"element": "C" 
			},
			{
				"x": 0.2047626083,
				"y": 2.3450961144,
				"z": -1.5143051806,
				"element": "C" 
			},
			{
				"x": -0.0506298732,
				"y": 1.087112161,
				"z": -1.3982004267,
				"element": "N" 
			},
			{
				"x": 0.0917317237,
				"y": 0.7281372636,
				"z": -0.0482175763,
				"element": "N" 
			},
			{
				"x": 0.5468859802,
				"y": 1.7789390326,
				"z": 0.7438600373,
				"element": "C" 
			},
			{
				"x": 0.855001416,
				"y": 1.7310004389,
				"z": 1.9196724467,
				"element": "O" 
			},
			{
				"x": 0.5776724329,
				"y": 2.9790153225,
				"z": -0.2040236253,
				"element": "C" 
			},
			{
				"x": 0.0271562167,
				"y": -0.6522621382,
				"z": 0.3043062374,
				"element": "C" 
			},
			{
				"x": -0.731367343,
				"y": -1.0794826001,
				"z": 1.4085075194,
				"element": "C" 
			},
			{
				"x": -1.5480834915,
				"y": -0.1342764724,
				"z": 2.2519193373,
				"element": "C" 
			},
			{
				"x": -0.7187236963,
				"y": -2.4532417188,
				"z": 1.6880939136,
				"element": "C" 
			},
			{
				"x": -0.01728275,
				"y": -3.362775377,
				"z": 0.9021447657,
				"element": "C" 
			},
			{
				"x": 0.7088844055,
				"y": -2.9327091481,
				"z": -0.2164036817,
				"element": "C" 
			},
			{
				"x": 1.4397031011,
				"y": -3.9167015423,
				"z": -1.0996544604,
				"element": "C" 
			},
			{
				"x": 0.7247228706,
				"y": -1.5655874902,
				"z": -0.4947442881,
				"element": "C" 
			},
			{
				"x": -0.6240960395,
				"y": 3.8522978899,
				"z": -2.7991932523,
				"element": "H" 
			},
			{
				"x": -0.1667147563,
				"y": 2.3363721037,
				"z": -3.6115435864,
				"element": "H" 
			},
			{
				"x": 1.0775561336,
				"y": 3.5024814707,
				"z": -3.0977303982,
				"element": "H" 
			},
			{
				"x": 1.5679066932,
				"y": 3.4474000415,
				"z": -0.2074714987,
				"element": "H" 
			},
			{
				"x": -0.1375024415,
				"y": 3.743842335,
				"z": 0.1221674446,
				"element": "H" 
			},
			{
				"x": -2.1238447411,
				"y": 0.5563607388,
				"z": 1.6255722269,
				"element": "H" 
			},
			{
				"x": -0.9069090768,
				"y": 0.4766415658,
				"z": 2.8940733264,
				"element": "H" 
			},
			{
				"x": -2.2509648757,
				"y": -0.6896624371,
				"z": 2.8786158074,
				"element": "H" 
			},
			{
				"x": -1.2896638768,
				"y": -2.81372393,
				"z": 2.5399851775,
				"element": "H" 
			},
			{
				"x": -0.0411992049,
				"y": -4.4201785064,
				"z": 1.1543257487,
				"element": "H" 
			},
			{
				"x": 0.7526147506,
				"y": -4.4098134428,
				"z": -1.7987199298,
				"element": "H" 
			},
			{
				"x": 2.2128556553,
				"y": -3.4229805433,
				"z": -1.6953068869,
				"element": "H" 
			},
			{
				"x": 1.9192762017,
				"y": -4.7040635368,
				"z": -0.5091049128,
				"element": "H" 
			},
			{
				"x": 1.2794718837,
				"y": -1.1876070228,
				"z": -1.3477551073,
				"element": "H" 
			}
		],
		 "valence_orbital": [ 
			{
				"type": "occ",
				"energy": -0.30936,
				"method": "rhf"
			},
			{
				"type": "occ",
				"energy": -0.2617,
				"method": "rhf"
			},
			{
				"type": "occ",
				"energy": -0.25185,
				"method": "rhf"
			},
			{
				"type": "occ",
				"energy": -0.23143,
				"method": "rhf"
			},
			{
				"type": "occ",
				"energy": -0.21541,
				"method": "rhf"
			},
			{
				"type": "unocc",
				"energy": -0.02557,
				"method": "rhf"
			},
			{
				"type": "unocc",
				"energy": -0.00484,
				"method": "rhf"
			},
			{
				"type": "unocc",
				"energy": 0.00849,
				"method": "rhf"
			},
			{
				"type": "unocc",
				"energy": 0.04574,
				"method": "rhf"
			},
			{
				"type": "unocc",
				"energy": 0.09005,
				"method": "rhf"
			}
		],
		"cosmo_sigma_profile": { 
			"-0.025": 0.0,
			"-0.024": 0.0,
			"-0.023": 0.0,
			"-0.022": 0.0,
			"-0.021": 0.0,
			"-0.02": 0.0,
			"-0.019": 0.0,
			"-0.018": 0.0,
			"-0.017": 0.0,
			"-0.016": 0.0,
			"-0.015": 0.0,
			"-0.014": 0.0,
			"-0.013": 0.0,
			"-0.012": 0.0,
			"-0.011": 0.0,
			"-0.01": 0.0,
			"-0.009": 0.440751332404,
			"-0.008": 4.76343186321,
			"-0.007": 5.67872590121,
			"-0.006": 9.21258366774,
			"-0.005": 18.7585219936,
			"-0.004": 24.9550473889,
			"-0.003": 25.3346787978,
			"-0.002": 24.5325745656,
			"-0.001": 22.9814630724,
			"0.0": 25.4151570906,
			"0.001": 15.9208171255,
			"0.002": 10.5287578233,
			"0.003": 10.3366590546,
			"0.004": 9.65882203477,
			"0.005": 13.1670742022,
			"0.006": 8.00353137871,
			"0.007": 3.82822274678,
			"0.008": 2.52785533826,
			"0.009": 2.92580625951,
			"0.01": 3.41114454082,
			"0.011": 2.73706908768,
			"0.012": 4.20485155273,
			"0.013": 4.29672352277,
			"0.014": 0.951576711033,
			"0.015": 0.0,
			"0.016": 0.0,
			"0.017": 0.0,
			"0.018": 0.0,
			"0.019": 0.0,
			"0.02": 0.0,
			"0.021": 0.0,
			"0.022": 0.0,
			"0.023": 0.0,
			"0.024": 0.0,
			"0.025": 0.0
		}
	}
}
