{
	 "smiles": "CC1=CC=C(C=C1)N1C=C(C=O)C(=N1)C(C)(C)C", 
	 "Tm": 353.15, 
	 "num_atms": 36, 
	 "gaussian": { 
		 "optdone": 1, 
		 "sigma_profile": "yes", 
		 "theory": "DFT", 
		 "functional": "B3LYP", 
		 "basiset": "6-31G**", 
		 "properties": { 
			 "R2extent": 6725.4456, 
			 "electric_dipole_moment_norm": 5.0292067108, 
			 "electric_quadrupole_moment_norm": 14.8510748103, 
			 "total_energy": -767.169698255, 
			 "HOMO_LUMO_gap": 0.17828, 
			 "cosmo_polarized_energy": -11.2, 
			 "cosmo_cavitation_energy": 38.17, 
			 "cosmo_dispersion_energy": -26.83, 
			 "cosmo_repulsion_energy": 2.05, 
			 "cosmo_total_nonelectrostatic_energy": 13.38, 
			 "SMD_solvation_energy": 7.28 
		},
		"coords": [
			{
				"x": -2.7014492536,
				"y": -2.4658859837,
				"z": 3.8354430138,
				"element": "C" 
			},
			{
				"x": -1.7073125384,
				"y": -1.859423765,
				"z": 2.8741182836,
				"element": "C" 
			},
			{
				"x": -1.5479551519,
				"y": -0.46902674,
				"z": 2.7822669771,
				"element": "C" 
			},
			{
				"x": -0.650895137,
				"y": 0.105717675,
				"z": 1.8873552169,
				"element": "C" 
			},
			{
				"x": 0.1113530214,
				"y": -0.7172493808,
				"z": 1.0518830819,
				"element": "C" 
			},
			{
				"x": -0.0390016833,
				"y": -2.1051816416,
				"z": 1.1140352868,
				"element": "C" 
			},
			{
				"x": -0.9346973683,
				"y": -2.6615451952,
				"z": 2.0258227843,
				"element": "C" 
			},
			{
				"x": 1.0382382042,
				"y": -0.1295208968,
				"z": 0.1480766579,
				"element": "N" 
			},
			{
				"x": 2.1184899665,
				"y": -0.6915424032,
				"z": -0.4333186996,
				"element": "C" 
			},
			{
				"x": 2.7160659122,
				"y": 0.2773504046,
				"z": -1.2313032023,
				"element": "C" 
			},
			{
				"x": 3.9194452216,
				"y": -0.0024432553,
				"z": -2.0036863012,
				"element": "C" 
			},
			{
				"x": 4.5267668131,
				"y": 0.766174029,
				"z": -2.7338030861,
				"element": "O" 
			},
			{
				"x": 1.8910099007,
				"y": 1.4493117637,
				"z": -1.0541084824,
				"element": "C" 
			},
			{
				"x": 0.8944339615,
				"y": 1.1801397359,
				"z": -0.2224374716,
				"element": "N" 
			},
			{
				"x": 2.019453284,
				"y": 2.8378381016,
				"z": -1.663108195,
				"element": "C" 
			},
			{
				"x": 0.8807653418,
				"y": 3.7459757388,
				"z": -1.1610292926,
				"element": "C" 
			},
			{
				"x": 3.3778408713,
				"y": 3.4540821551,
				"z": -1.2540885237,
				"element": "C" 
			},
			{
				"x": 1.941476266,
				"y": 2.7307682735,
				"z": -3.204034139,
				"element": "C" 
			},
			{
				"x": -2.7066520809,
				"y": -1.935048052,
				"z": 4.7927430126,
				"element": "H" 
			},
			{
				"x": -2.4768567729,
				"y": -3.5177606401,
				"z": 4.0334612392,
				"element": "H" 
			},
			{
				"x": -3.7214289662,
				"y": -2.4179128011,
				"z": 3.4341499968,
				"element": "H" 
			},
			{
				"x": -2.1329846621,
				"y": 0.1794855419,
				"z": 3.4294663867,
				"element": "H" 
			},
			{
				"x": -0.5292291253,
				"y": 1.1797463839,
				"z": 1.8219890297,
				"element": "H" 
			},
			{
				"x": 0.520510366,
				"y": -2.7531335837,
				"z": 0.4474377527,
				"element": "H" 
			},
			{
				"x": -1.0412857958,
				"y": -3.7423179103,
				"z": 2.0664892382,
				"element": "H" 
			},
			{
				"x": 2.4163107693,
				"y": -1.7112467279,
				"z": -0.2391107004,
				"element": "H" 
			},
			{
				"x": 4.2835860474,
				"y": -1.0474651348,
				"z": -1.8789457444,
				"element": "H" 
			},
			{
				"x": 0.985538755,
				"y": 4.7389517577,
				"z": -1.6105473548,
				"element": "H" 
			},
			{
				"x": 0.9053948773,
				"y": 3.8570560637,
				"z": -0.0733183227,
				"element": "H" 
			},
			{
				"x": -0.1007447479,
				"y": 3.3468244815,
				"z": -1.4310793222,
				"element": "H" 
			},
			{
				"x": 3.4565179003,
				"y": 3.5407937978,
				"z": -0.1649554476,
				"element": "H" 
			},
			{
				"x": 3.4684821402,
				"y": 4.4598253585,
				"z": -1.6792767175,
				"element": "H" 
			},
			{
				"x": 4.2105835395,
				"y": 2.8524260256,
				"z": -1.6235685607,
				"element": "H" 
			},
			{
				"x": 2.7554961969,
				"y": 2.1188137971,
				"z": -3.5976961194,
				"element": "H" 
			},
			{
				"x": 2.020721794,
				"y": 3.7297788588,
				"z": -3.6469993484,
				"element": "H" 
			},
			{
				"x": 0.9857121331,
				"y": 2.2978441679,
				"z": -3.5185229267,
				"element": "H" 
			}
		],
		 "valence_orbital": [ 
			{
				"type": "occ",
				"energy": -0.28462,
				"method": "rhf"
			},
			{
				"type": "occ",
				"energy": -0.26757,
				"method": "rhf"
			},
			{
				"type": "occ",
				"energy": -0.26254,
				"method": "rhf"
			},
			{
				"type": "occ",
				"energy": -0.24874,
				"method": "rhf"
			},
			{
				"type": "occ",
				"energy": -0.22868,
				"method": "rhf"
			},
			{
				"type": "unocc",
				"energy": -0.0504,
				"method": "rhf"
			},
			{
				"type": "unocc",
				"energy": -0.01919,
				"method": "rhf"
			},
			{
				"type": "unocc",
				"energy": -0.01535,
				"method": "rhf"
			},
			{
				"type": "unocc",
				"energy": 0.02873,
				"method": "rhf"
			},
			{
				"type": "unocc",
				"energy": 0.07931,
				"method": "rhf"
			}
		],
		"cosmo_sigma_profile": { 
			"-0.025": 0.0,
			"-0.024": 0.0,
			"-0.023": 0.0,
			"-0.022": 0.0,
			"-0.021": 0.0,
			"-0.02": 0.0,
			"-0.019": 0.0,
			"-0.018": 0.0,
			"-0.017": 0.0,
			"-0.016": 0.0,
			"-0.015": 0.0,
			"-0.014": 0.0,
			"-0.013": 0.0,
			"-0.012": 0.0,
			"-0.011": 1.34186420586,
			"-0.01": 2.68643577967,
			"-0.009": 2.76635300503,
			"-0.008": 3.27363539286,
			"-0.007": 3.97298350006,
			"-0.006": 8.01889071986,
			"-0.005": 12.2936848409,
			"-0.004": 17.6868892875,
			"-0.003": 22.4955846064,
			"-0.002": 30.832219055,
			"-0.001": 30.745180143,
			"0.0": 34.5516976275,
			"0.001": 42.174876684,
			"0.002": 26.6495695845,
			"0.003": 13.3458277146,
			"0.004": 14.7979679965,
			"0.005": 10.4550954799,
			"0.006": 3.5641424914,
			"0.007": 4.07823353898,
			"0.008": 3.16893074271,
			"0.009": 2.64666163536,
			"0.01": 2.85431008901,
			"0.011": 2.63162717876,
			"0.012": 2.543589723,
			"0.013": 1.82872365638,
			"0.014": 0.257058740141,
			"0.015": 0.0,
			"0.016": 0.0,
			"0.017": 0.0,
			"0.018": 0.0,
			"0.019": 0.0,
			"0.02": 0.0,
			"0.021": 0.0,
			"0.022": 0.0,
			"0.023": 0.0,
			"0.024": 0.0,
			"0.025": 0.0
		}
	}
}
