{
	 "smiles": "CN1C=C(C(O)=O)C(=O)C2=C1C=CC(Cl)=C2", 
	 "Tm": 576.15, 
	 "num_atms": 24, 
	 "gaussian": { 
		 "optdone": 1, 
		 "sigma_profile": "yes", 
		 "theory": "DFT", 
		 "functional": "B3LYP", 
		 "basiset": "6-31G**", 
		 "properties": { 
			 "R2extent": 4953.6403, 
			 "electric_dipole_moment_norm": 8.61605211103, 
			 "electric_quadrupole_moment_norm": 32.8860550541, 
			 "total_energy": -1164.64384093, 
			 "HOMO_LUMO_gap": 0.1653, 
			 "cosmo_polarized_energy": -20.62, 
			 "cosmo_cavitation_energy": 30.01, 
			 "cosmo_dispersion_energy": -22.6, 
			 "cosmo_repulsion_energy": 1.71, 
			 "cosmo_total_nonelectrostatic_energy": 9.12, 
			 "SMD_solvation_energy": 6.47 
		},
		"coords": [
			{
				"x": -2.3455769807,
				"y": -2.7832363013,
				"z": 0.1895050488,
				"element": "C" 
			},
			{
				"x": -1.2059386217,
				"y": -1.9329981044,
				"z": 0.5405331511,
				"element": "N" 
			},
			{
				"x": -1.0329248744,
				"y": -1.5377080563,
				"z": 1.8255164137,
				"element": "C" 
			},
			{
				"x": -0.0034387897,
				"y": -0.7447032195,
				"z": 2.2573549186,
				"element": "C" 
			},
			{
				"x": 0.0321207125,
				"y": -0.4046971235,
				"z": 3.7191479465,
				"element": "C" 
			},
			{
				"x": 1.0500251848,
				"y": 0.3696692737,
				"z": 4.0996179313,
				"element": "O" 
			},
			{
				"x": -0.8123741085,
				"y": -0.8109770556,
				"z": 4.4947101195,
				"element": "O" 
			},
			{
				"x": 0.9914443616,
				"y": -0.27080572,
				"z": 1.3210692343,
				"element": "C" 
			},
			{
				"x": 1.9538193155,
				"y": 0.4547004295,
				"z": 1.6510460823,
				"element": "O" 
			},
			{
				"x": 0.7962298429,
				"y": -0.7052240352,
				"z": -0.0748539737,
				"element": "C" 
			},
			{
				"x": -0.2961933841,
				"y": -1.5268675241,
				"z": -0.4411125083,
				"element": "C" 
			},
			{
				"x": -0.443325073,
				"y": -1.9176784055,
				"z": -1.7866913392,
				"element": "C" 
			},
			{
				"x": 0.4729192089,
				"y": -1.5008075126,
				"z": -2.7393152047,
				"element": "C" 
			},
			{
				"x": 1.552718091,
				"y": -0.6862869945,
				"z": -2.3663795181,
				"element": "C" 
			},
			{
				"x": 2.6976908078,
				"y": -0.1724701235,
				"z": -3.5897107371,
				"element": "Cl" 
			},
			{
				"x": 1.7160894949,
				"y": -0.291047699,
				"z": -1.0513767689,
				"element": "C" 
			},
			{
				"x": -2.9234168209,
				"y": -2.9808003902,
				"z": 1.0913826704,
				"element": "H" 
			},
			{
				"x": -2.9903958805,
				"y": -2.283806588,
				"z": -0.5394743154,
				"element": "H" 
			},
			{
				"x": -2.0038042184,
				"y": -3.735926357,
				"z": -0.225467451,
				"element": "H" 
			},
			{
				"x": -1.7645756227,
				"y": -1.8782746778,
				"z": 2.5506279535,
				"element": "H" 
			},
			{
				"x": 1.6053985823,
				"y": 0.5740847561,
				"z": 3.2987782438,
				"element": "H" 
			},
			{
				"x": -1.2693490588,
				"y": -2.5458615138,
				"z": -2.0958112711,
				"element": "H" 
			},
			{
				"x": 0.3572788605,
				"y": -1.8030374376,
				"z": -3.7741461917,
				"element": "H" 
			},
			{
				"x": 2.5412789707,
				"y": 0.3376603802,
				"z": -0.7375504346,
				"element": "H" 
			}
		],
		 "valence_orbital": [ 
			{
				"type": "occ",
				"energy": -0.28942,
				"method": "rhf"
			},
			{
				"type": "occ",
				"energy": -0.27818,
				"method": "rhf"
			},
			{
				"type": "occ",
				"energy": -0.27215,
				"method": "rhf"
			},
			{
				"type": "occ",
				"energy": -0.2591,
				"method": "rhf"
			},
			{
				"type": "occ",
				"energy": -0.24184,
				"method": "rhf"
			},
			{
				"type": "unocc",
				"energy": -0.07654,
				"method": "rhf"
			},
			{
				"type": "unocc",
				"energy": -0.058,
				"method": "rhf"
			},
			{
				"type": "unocc",
				"energy": -0.01684,
				"method": "rhf"
			},
			{
				"type": "unocc",
				"energy": 0.01436,
				"method": "rhf"
			},
			{
				"type": "unocc",
				"energy": 0.0225,
				"method": "rhf"
			}
		],
		"cosmo_sigma_profile": { 
			"-0.025": 0.0,
			"-0.024": 0.0,
			"-0.023": 0.0,
			"-0.022": 0.0,
			"-0.021": 0.0,
			"-0.02": 0.0,
			"-0.019": 0.0,
			"-0.018": 0.0,
			"-0.017": 0.0,
			"-0.016": 0.0,
			"-0.015": 0.0,
			"-0.014": 0.0,
			"-0.013": 0.0,
			"-0.012": 0.579857700987,
			"-0.011": 1.40645906426,
			"-0.01": 1.51330816913,
			"-0.009": 4.70660201094,
			"-0.008": 10.1781435839,
			"-0.007": 13.1677549636,
			"-0.006": 11.6000478163,
			"-0.005": 13.2882196269,
			"-0.004": 17.1100348207,
			"-0.003": 15.5588389797,
			"-0.002": 15.1327061981,
			"-0.001": 17.8003403006,
			"0.0": 21.2603688842,
			"0.001": 21.7337545468,
			"0.002": 11.1238076603,
			"0.003": 10.3815908644,
			"0.004": 12.8909496535,
			"0.005": 5.18853427059,
			"0.006": 3.55561081614,
			"0.007": 3.62188132124,
			"0.008": 3.17499033266,
			"0.009": 3.91044942218,
			"0.01": 5.75190251468,
			"0.011": 6.25450663379,
			"0.012": 7.47955281766,
			"0.013": 3.75477279751,
			"0.014": 1.63812023839,
			"0.015": 0.0577370347388,
			"0.016": 0.0,
			"0.017": 0.0,
			"0.018": 0.0,
			"0.019": 0.0,
			"0.02": 0.0,
			"0.021": 0.0,
			"0.022": 0.0,
			"0.023": 0.0,
			"0.024": 0.0,
			"0.025": 0.0
		}
	}
}
