{
	 "smiles": "CCOC(O)=C1NC2=C(C=CC=C2)C1=O", 
	 "Tm": 366.15, 
	 "num_atms": 26, 
	 "gaussian": { 
		 "optdone": 1, 
		 "sigma_profile": "yes", 
		 "theory": "DFT", 
		 "functional": "B3LYP", 
		 "basiset": "6-31G**", 
		 "properties": { 
			 "R2extent": 4000.1996, 
			 "electric_dipole_moment_norm": 3.48893976732, 
			 "electric_quadrupole_moment_norm": 9.9761473676, 
			 "total_energy": -706.250662949, 
			 "HOMO_LUMO_gap": 0.15208, 
			 "cosmo_polarized_energy": -10.49, 
			 "cosmo_cavitation_energy": 30.15, 
			 "cosmo_dispersion_energy": -22.46, 
			 "cosmo_repulsion_energy": 1.76, 
			 "cosmo_total_nonelectrostatic_energy": 9.45, 
			 "SMD_solvation_energy": 6.05 
		},
		"coords": [
			{
				"x": 0.9957671864,
				"y": 3.3470977704,
				"z": -3.1951302166,
				"element": "C" 
			},
			{
				"x": 0.5385351114,
				"y": 3.7645144159,
				"z": -1.8057664652,
				"element": "C" 
			},
			{
				"x": 0.5689296356,
				"y": 2.6478882337,
				"z": -0.8824735588,
				"element": "O" 
			},
			{
				"x": -0.5221018732,
				"y": 1.8491302596,
				"z": -0.8603239233,
				"element": "C" 
			},
			{
				"x": -1.5203926051,
				"y": 2.0271644752,
				"z": -1.5653478751,
				"element": "O" 
			},
			{
				"x": -0.4251341414,
				"y": 0.759533405,
				"z": 0.0704492223,
				"element": "C" 
			},
			{
				"x": 0.6450744173,
				"y": 0.4588226471,
				"z": 0.9177726569,
				"element": "N" 
			},
			{
				"x": 0.3333831584,
				"y": -0.6626815251,
				"z": 1.6416167521,
				"element": "C" 
			},
			{
				"x": -0.9688632208,
				"y": -1.1042973204,
				"z": 1.2575727313,
				"element": "C" 
			},
			{
				"x": -1.5287604841,
				"y": -2.2468612373,
				"z": 1.8570646438,
				"element": "C" 
			},
			{
				"x": -0.7922120416,
				"y": -2.921903855,
				"z": 2.816634162,
				"element": "C" 
			},
			{
				"x": 0.4970050233,
				"y": -2.4739870572,
				"z": 3.1884251457,
				"element": "C" 
			},
			{
				"x": 1.074680205,
				"y": -1.35069606,
				"z": 2.6143947436,
				"element": "C" 
			},
			{
				"x": -1.4259029056,
				"y": -0.1862503683,
				"z": 0.2618515298,
				"element": "C" 
			},
			{
				"x": -2.6074035531,
				"y": -0.2298450984,
				"z": -0.3729292446,
				"element": "O" 
			},
			{
				"x": 0.2977022548,
				"y": 2.6264679812,
				"z": -3.6277696788,
				"element": "H" 
			},
			{
				"x": 1.0356824308,
				"y": 4.2233201904,
				"z": -3.8508550925,
				"element": "H" 
			},
			{
				"x": 1.993069341,
				"y": 2.8986988159,
				"z": -3.1602476563,
				"element": "H" 
			},
			{
				"x": -0.4743144722,
				"y": 4.1726657822,
				"z": -1.8292267839,
				"element": "H" 
			},
			{
				"x": 1.2157019035,
				"y": 4.4989610616,
				"z": -1.3631683701,
				"element": "H" 
			},
			{
				"x": -2.6093229889,
				"y": 0.5372576913,
				"z": -0.985717032,
				"element": "H" 
			},
			{
				"x": 1.492814776,
				"y": 0.9981759445,
				"z": 0.9703316536,
				"element": "H" 
			},
			{
				"x": -2.518664971,
				"y": -2.5838905584,
				"z": 1.5662762478,
				"element": "H" 
			},
			{
				"x": -1.2043177008,
				"y": -3.8061953314,
				"z": 3.2927708211,
				"element": "H" 
			},
			{
				"x": 1.0500328031,
				"y": -3.0245201429,
				"z": 3.9440964396,
				"element": "H" 
			},
			{
				"x": 2.0653127111,
				"y": -1.0153701194,
				"z": 2.9071991476,
				"element": "H" 
			}
		],
		 "valence_orbital": [ 
			{
				"type": "occ",
				"energy": -0.30369,
				"method": "rhf"
			},
			{
				"type": "occ",
				"energy": -0.28383,
				"method": "rhf"
			},
			{
				"type": "occ",
				"energy": -0.2646,
				"method": "rhf"
			},
			{
				"type": "occ",
				"energy": -0.22837,
				"method": "rhf"
			},
			{
				"type": "occ",
				"energy": -0.19619,
				"method": "rhf"
			},
			{
				"type": "unocc",
				"energy": -0.04411,
				"method": "rhf"
			},
			{
				"type": "unocc",
				"energy": 0.01579,
				"method": "rhf"
			},
			{
				"type": "unocc",
				"energy": 0.03416,
				"method": "rhf"
			},
			{
				"type": "unocc",
				"energy": 0.08418,
				"method": "rhf"
			},
			{
				"type": "unocc",
				"energy": 0.09962,
				"method": "rhf"
			}
		],
		"cosmo_sigma_profile": { 
			"-0.025": 0.0,
			"-0.024": 0.0,
			"-0.023": 0.0,
			"-0.022": 0.0,
			"-0.021": 0.0,
			"-0.02": 0.0,
			"-0.019": 0.0,
			"-0.018": 0.0,
			"-0.017": 0.0,
			"-0.016": 0.215193120553,
			"-0.015": 0.97903113026,
			"-0.014": 0.937505227174,
			"-0.013": 0.598132339928,
			"-0.012": 1.13165037394,
			"-0.011": 0.915101680584,
			"-0.01": 1.04216302262,
			"-0.009": 1.63742482913,
			"-0.008": 2.24950759211,
			"-0.007": 2.48309305267,
			"-0.006": 7.75043965192,
			"-0.005": 14.2154931602,
			"-0.004": 20.0274434058,
			"-0.003": 20.9869966952,
			"-0.002": 18.3105578836,
			"-0.001": 20.3661960797,
			"0.0": 20.9781962433,
			"0.001": 14.4071307928,
			"0.002": 16.6650562541,
			"0.003": 21.4985571446,
			"0.004": 14.2156386282,
			"0.005": 13.3305355192,
			"0.006": 9.32323741021,
			"0.007": 2.84521961796,
			"0.008": 2.62241859462,
			"0.009": 2.74117273069,
			"0.01": 3.71468795849,
			"0.011": 3.04395992311,
			"0.012": 0.933720118369,
			"0.013": 0.0123431310299,
			"0.014": 0.0,
			"0.015": 0.0,
			"0.016": 0.0,
			"0.017": 0.0,
			"0.018": 0.0,
			"0.019": 0.0,
			"0.02": 0.0,
			"0.021": 0.0,
			"0.022": 0.0,
			"0.023": 0.0,
			"0.024": 0.0,
			"0.025": 0.0
		}
	}
}
