{
	 "smiles": "CCC(C)S", 
	 "Tm": 108.15, 
	 "num_atms": 15, 
	 "gaussian": { 
		 "optdone": 1, 
		 "sigma_profile": "yes", 
		 "theory": "DFT", 
		 "functional": "B3LYP", 
		 "basiset": "6-31G**", 
		 "properties": { 
			 "R2extent": 1225.0349, 
			 "electric_dipole_moment_norm": 1.85262706987, 
			 "electric_quadrupole_moment_norm": 3.9689845074, 
			 "total_energy": -556.650387347, 
			 "HOMO_LUMO_gap": 0.26432, 
			 "cosmo_polarized_energy": -4.03, 
			 "cosmo_cavitation_energy": 18.35, 
			 "cosmo_dispersion_energy": -13.94, 
			 "cosmo_repulsion_energy": 1.17, 
			 "cosmo_total_nonelectrostatic_energy": 5.58, 
			 "SMD_solvation_energy": 2.67 
		},
		"coords": [
			{
				"x": -0.6649215544,
				"y": 2.2550032305,
				"z": 1.2543324654,
				"element": "C" 
			},
			{
				"x": -1.435798761,
				"y": 1.6770727922,
				"z": 0.0637156186,
				"element": "C" 
			},
			{
				"x": -0.6819804145,
				"y": 1.6462078022,
				"z": -1.2806438103,
				"element": "C" 
			},
			{
				"x": -0.2870966843,
				"y": 3.0313623594,
				"z": -1.80144733,
				"element": "C" 
			},
			{
				"x": 0.7600281881,
				"y": 0.4745307925,
				"z": -1.2844634004,
				"element": "S" 
			},
			{
				"x": -1.2876293414,
				"y": 2.2387026608,
				"z": 2.1542287143,
				"element": "H" 
			},
			{
				"x": -0.3628232296,
				"y": 3.2936965625,
				"z": 1.0850278131,
				"element": "H" 
			},
			{
				"x": 0.234663493,
				"y": 1.6694234408,
				"z": 1.4691575679,
				"element": "H" 
			},
			{
				"x": -1.7582973944,
				"y": 0.6577613646,
				"z": 0.3021331395,
				"element": "H" 
			},
			{
				"x": -2.3508144841,
				"y": 2.2663454761,
				"z": -0.092308499,
				"element": "H" 
			},
			{
				"x": -1.3440817881,
				"y": 1.1764309703,
				"z": -2.0173351391,
				"element": "H" 
			},
			{
				"x": -1.1684547819,
				"y": 3.6824268074,
				"z": -1.8502952037,
				"element": "H" 
			},
			{
				"x": 0.1483433594,
				"y": 2.9641007314,
				"z": -2.80132852,
				"element": "H" 
			},
			{
				"x": 0.4472056615,
				"y": 3.5139813504,
				"z": -1.1485905885,
				"element": "H" 
			},
			{
				"x": 1.5891577318,
				"y": 1.2198536588,
				"z": -0.5257828276,
				"element": "H" 
			}
		],
		 "valence_orbital": [ 
			{
				"type": "occ",
				"energy": -0.35068,
				"method": "rhf"
			},
			{
				"type": "occ",
				"energy": -0.33624,
				"method": "rhf"
			},
			{
				"type": "occ",
				"energy": -0.33311,
				"method": "rhf"
			},
			{
				"type": "occ",
				"energy": -0.31002,
				"method": "rhf"
			},
			{
				"type": "occ",
				"energy": -0.2331,
				"method": "rhf"
			},
			{
				"type": "unocc",
				"energy": 0.03122,
				"method": "rhf"
			},
			{
				"type": "unocc",
				"energy": 0.06824,
				"method": "rhf"
			},
			{
				"type": "unocc",
				"energy": 0.08845,
				"method": "rhf"
			},
			{
				"type": "unocc",
				"energy": 0.11773,
				"method": "rhf"
			},
			{
				"type": "unocc",
				"energy": 0.13871,
				"method": "rhf"
			}
		],
		"cosmo_sigma_profile": { 
			"-0.025": 0.0,
			"-0.024": 0.0,
			"-0.023": 0.0,
			"-0.022": 0.0,
			"-0.021": 0.0,
			"-0.02": 0.0,
			"-0.019": 0.0,
			"-0.018": 0.0,
			"-0.017": 0.0,
			"-0.016": 0.0,
			"-0.015": 0.0,
			"-0.014": 0.0,
			"-0.013": 0.0,
			"-0.012": 0.0,
			"-0.011": 0.0,
			"-0.01": 0.0,
			"-0.009": 0.0177051988381,
			"-0.008": 1.24439622706,
			"-0.007": 1.48738937299,
			"-0.006": 2.70865333063,
			"-0.005": 4.7532344121,
			"-0.004": 6.90820529637,
			"-0.003": 19.2986695157,
			"-0.002": 19.324620958,
			"-0.001": 19.0565669517,
			"0.0": 19.9120824605,
			"0.001": 16.7778014089,
			"0.002": 6.66366473733,
			"0.003": 2.89135972701,
			"0.004": 2.94010127781,
			"0.005": 4.19711740217,
			"0.006": 4.07144563193,
			"0.007": 2.71785660309,
			"0.008": 2.83290712917,
			"0.009": 2.34965664923,
			"0.01": 2.25883301599,
			"0.011": 1.62662330685,
			"0.012": 0.301931412654,
			"0.013": 0.0,
			"0.014": 0.0,
			"0.015": 0.0,
			"0.016": 0.0,
			"0.017": 0.0,
			"0.018": 0.0,
			"0.019": 0.0,
			"0.02": 0.0,
			"0.021": 0.0,
			"0.022": 0.0,
			"0.023": 0.0,
			"0.024": 0.0,
			"0.025": 0.0
		}
	}
}
