{
	 "smiles": "CC(=O)NC1=C(O)C=CC(=C1)C1=CSC(N)=N1", 
	 "Tm": 493.15, 
	 "num_atms": 28, 
	 "gaussian": { 
		 "optdone": 1, 
		 "sigma_profile": "yes", 
		 "theory": "DFT", 
		 "functional": "B3LYP", 
		 "basiset": "6-31G**", 
		 "properties": { 
			 "R2extent": 6615.916, 
			 "electric_dipole_moment_norm": 3.81921939014, 
			 "electric_quadrupole_moment_norm": 18.9232592499, 
			 "total_energy": -1138.70710146, 
			 "HOMO_LUMO_gap": 0.16909, 
			 "cosmo_polarized_energy": -19.65, 
			 "cosmo_cavitation_energy": 34.59, 
			 "cosmo_dispersion_energy": -25.3, 
			 "cosmo_repulsion_energy": 1.93, 
			 "cosmo_total_nonelectrostatic_energy": 11.22, 
			 "SMD_solvation_energy": 5.97 
		},
		"coords": [
			{
				"x": -1.4242449633,
				"y": 2.7664387367,
				"z": 0.1552132358,
				"element": "C" 
			},
			{
				"x": -1.3199652759,
				"y": 2.5660942339,
				"z": -1.3444421151,
				"element": "C" 
			},
			{
				"x": -1.9594973126,
				"y": 3.211820169,
				"z": -2.1567700028,
				"element": "O" 
			},
			{
				"x": -0.4004728651,
				"y": 1.6065310833,
				"z": -1.7746755582,
				"element": "N" 
			},
			{
				"x": 0.1610982273,
				"y": 0.568681337,
				"z": -0.9579589837,
				"element": "C" 
			},
			{
				"x": 1.4064468167,
				"y": 0.8135650034,
				"z": -0.3530113513,
				"element": "C" 
			},
			{
				"x": 2.0473348011,
				"y": 1.9986033643,
				"z": -0.5198242646,
				"element": "O" 
			},
			{
				"x": 1.9908518867,
				"y": -0.1772240281,
				"z": 0.4435347412,
				"element": "C" 
			},
			{
				"x": 1.3465387474,
				"y": -1.3949099931,
				"z": 0.6179941102,
				"element": "C" 
			},
			{
				"x": 0.1070436761,
				"y": -1.6660147433,
				"z": 0.0089156567,
				"element": "C" 
			},
			{
				"x": -0.4725477619,
				"y": -0.6601660317,
				"z": -0.7779398198,
				"element": "C" 
			},
			{
				"x": -0.5899455065,
				"y": -2.9542712548,
				"z": 0.1762213786,
				"element": "C" 
			},
			{
				"x": -0.1441491758,
				"y": -4.0366585914,
				"z": 0.8856334459,
				"element": "C" 
			},
			{
				"x": -1.3038579547,
				"y": -5.3389466155,
				"z": 0.8126294903,
				"element": "S" 
			},
			{
				"x": -2.3129960301,
				"y": -4.3045861239,
				"z": -0.2086125022,
				"element": "C" 
			},
			{
				"x": -3.551982247,
				"y": -4.7227606579,
				"z": -0.6368469338,
				"element": "N" 
			},
			{
				"x": -1.8216274046,
				"y": -3.1256201952,
				"z": -0.4443282114,
				"element": "N" 
			},
			{
				"x": -2.083254069,
				"y": 3.6140462819,
				"z": 0.3402823809,
				"element": "H" 
			},
			{
				"x": -1.8325636413,
				"y": 1.8724758004,
				"z": 0.6367799227,
				"element": "H" 
			},
			{
				"x": -0.4417817425,
				"y": 2.9545475214,
				"z": 0.5991707691,
				"element": "H" 
			},
			{
				"x": -0.4875640977,
				"y": 1.42320014,
				"z": -2.7690253649,
				"element": "H" 
			},
			{
				"x": 1.5291283745,
				"y": 2.5023413639,
				"z": -1.1709741342,
				"element": "H" 
			},
			{
				"x": 2.9497839015,
				"y": 0.024138671,
				"z": 0.9089834423,
				"element": "H" 
			},
			{
				"x": 1.8205932398,
				"y": -2.1475391176,
				"z": 1.240375264,
				"element": "H" 
			},
			{
				"x": -1.4305052153,
				"y": -0.8474675225,
				"z": -1.2504163194,
				"element": "H" 
			},
			{
				"x": 0.7766025889,
				"y": -4.1648456108,
				"z": 1.4338192823,
				"element": "H" 
			},
			{
				"x": -3.6672780415,
				"y": -5.7105109555,
				"z": -0.8125404752,
				"element": "H" 
			},
			{
				"x": -3.9430889551,
				"y": -4.1284622647,
				"z": -1.3560870833,
				"element": "H" 
			}
		],
		 "valence_orbital": [ 
			{
				"type": "occ",
				"energy": -0.2747,
				"method": "rhf"
			},
			{
				"type": "occ",
				"energy": -0.2659,
				"method": "rhf"
			},
			{
				"type": "occ",
				"energy": -0.24765,
				"method": "rhf"
			},
			{
				"type": "occ",
				"energy": -0.23911,
				"method": "rhf"
			},
			{
				"type": "occ",
				"energy": -0.19917,
				"method": "rhf"
			},
			{
				"type": "unocc",
				"energy": -0.03008,
				"method": "rhf"
			},
			{
				"type": "unocc",
				"energy": -0.01397,
				"method": "rhf"
			},
			{
				"type": "unocc",
				"energy": 0.0052,
				"method": "rhf"
			},
			{
				"type": "unocc",
				"energy": 0.01423,
				"method": "rhf"
			},
			{
				"type": "unocc",
				"energy": 0.01931,
				"method": "rhf"
			}
		],
		"cosmo_sigma_profile": { 
			"-0.025": 0.0,
			"-0.024": 0.0,
			"-0.023": 0.0,
			"-0.022": 0.0,
			"-0.021": 0.0,
			"-0.02": 0.0,
			"-0.019": 0.0,
			"-0.018": 0.0,
			"-0.017": 0.0,
			"-0.016": 0.0,
			"-0.015": 0.505560661113,
			"-0.014": 3.28506558069,
			"-0.013": 4.02448185749,
			"-0.012": 4.28256738681,
			"-0.011": 4.66643738757,
			"-0.01": 4.60530961169,
			"-0.009": 6.14828350284,
			"-0.008": 6.25214570343,
			"-0.007": 7.14711948165,
			"-0.006": 9.86961702535,
			"-0.005": 13.8785123057,
			"-0.004": 16.8323824128,
			"-0.003": 15.0429286281,
			"-0.002": 16.6747870879,
			"-0.001": 16.872025549,
			"0.0": 11.1617521563,
			"0.001": 14.8239457189,
			"0.002": 17.7908873463,
			"0.003": 22.8142390869,
			"0.004": 27.1537759714,
			"0.005": 11.7201759452,
			"0.006": 5.49373434837,
			"0.007": 4.71155543446,
			"0.008": 5.21377074141,
			"0.009": 5.39340566017,
			"0.01": 5.14273417943,
			"0.011": 4.37524632544,
			"0.012": 3.78599718644,
			"0.013": 5.78878804129,
			"0.014": 2.22377845274,
			"0.015": 0.173947431215,
			"0.016": 0.0,
			"0.017": 0.0,
			"0.018": 0.0,
			"0.019": 0.0,
			"0.02": 0.0,
			"0.021": 0.0,
			"0.022": 0.0,
			"0.023": 0.0,
			"0.024": 0.0,
			"0.025": 0.0
		}
	}
}
