{
	 "smiles": "CCOC(=O)C1=C(Cl)N=C2C=CC=CC2=C1C", 
	 "Tm": 383.15, 
	 "num_atms": 29, 
	 "gaussian": { 
		 "optdone": 1, 
		 "sigma_profile": "yes", 
		 "theory": "DFT", 
		 "functional": "B3LYP", 
		 "basiset": "6-31G**", 
		 "properties": { 
			 "R2extent": 5585.4613, 
			 "electric_dipole_moment_norm": 3.63611750223, 
			 "electric_quadrupole_moment_norm": 19.972780556, 
			 "total_energy": -1168.03194543, 
			 "HOMO_LUMO_gap": 0.17505, 
			 "cosmo_polarized_energy": -11.0, 
			 "cosmo_cavitation_energy": 34.57, 
			 "cosmo_dispersion_energy": -24.63, 
			 "cosmo_repulsion_energy": 1.91, 
			 "cosmo_total_nonelectrostatic_energy": 11.85, 
			 "SMD_solvation_energy": 4.91 
		},
		"coords": [
			{
				"x": -2.8130375565,
				"y": 3.8011167801,
				"z": -1.072645464,
				"element": "C" 
			},
			{
				"x": -1.3236351384,
				"y": 4.1085821932,
				"z": -1.0775873685,
				"element": "C" 
			},
			{
				"x": -0.5494122292,
				"y": 2.9695409361,
				"z": -0.6200332014,
				"element": "O" 
			},
			{
				"x": -0.1910203291,
				"y": 2.06862481,
				"z": -1.5501402749,
				"element": "C" 
			},
			{
				"x": -0.541161459,
				"y": 2.0997429835,
				"z": -2.7122481167,
				"element": "O" 
			},
			{
				"x": 0.6741656555,
				"y": 0.9909784523,
				"z": -0.955444557,
				"element": "C" 
			},
			{
				"x": 1.964025526,
				"y": 1.2904407615,
				"z": -0.4158379335,
				"element": "C" 
			},
			{
				"x": 2.5738205113,
				"y": 2.9446238319,
				"z": -0.5395289066,
				"element": "Cl" 
			},
			{
				"x": 2.7702279541,
				"y": 0.4326388231,
				"z": 0.1253610972,
				"element": "N" 
			},
			{
				"x": 2.365045478,
				"y": -0.870255169,
				"z": 0.1968528012,
				"element": "C" 
			},
			{
				"x": 3.2364275504,
				"y": -1.8044143013,
				"z": 0.8106647152,
				"element": "C" 
			},
			{
				"x": 2.8809601466,
				"y": -3.1322914167,
				"z": 0.8973047701,
				"element": "C" 
			},
			{
				"x": 1.6443547343,
				"y": -3.5741348293,
				"z": 0.3721113405,
				"element": "C" 
			},
			{
				"x": 0.7806073525,
				"y": -2.683615587,
				"z": -0.2296757299,
				"element": "C" 
			},
			{
				"x": 1.1133052285,
				"y": -1.3068057558,
				"z": -0.3329625307,
				"element": "C" 
			},
			{
				"x": 0.2535084719,
				"y": -0.3311837749,
				"z": -0.9368298967,
				"element": "C" 
			},
			{
				"x": -1.0778930288,
				"y": -0.7611749806,
				"z": -1.5017458295,
				"element": "C" 
			},
			{
				"x": -3.3770742986,
				"y": 4.7019586317,
				"z": -1.3362891251,
				"element": "H" 
			},
			{
				"x": -3.0491721879,
				"y": 3.0243635148,
				"z": -1.8040391067,
				"element": "H" 
			},
			{
				"x": -3.1396963712,
				"y": 3.4697947858,
				"z": -0.0825930865,
				"element": "H" 
			},
			{
				"x": -1.074071932,
				"y": 4.9022605415,
				"z": -0.3701085016,
				"element": "H" 
			},
			{
				"x": -0.97925931,
				"y": 4.3881961708,
				"z": -2.0757290535,
				"element": "H" 
			},
			{
				"x": 4.1783871774,
				"y": -1.4330318934,
				"z": 1.1998761354,
				"element": "H" 
			},
			{
				"x": 3.5508234314,
				"y": -3.845641463,
				"z": 1.3682317715,
				"element": "H" 
			},
			{
				"x": 1.3744199255,
				"y": -4.6235256149,
				"z": 0.443625158,
				"element": "H" 
			},
			{
				"x": -0.1638765279,
				"y": -3.0391299172,
				"z": -0.6263526931,
				"element": "H" 
			},
			{
				"x": -0.9359836455,
				"y": -1.5390332064,
				"z": -2.2594251214,
				"element": "H" 
			},
			{
				"x": -1.711628063,
				"y": -1.186088264,
				"z": -0.7152702291,
				"element": "H" 
			},
			{
				"x": -1.6085570663,
				"y": 0.0619629571,
				"z": -1.9755410629,
				"element": "H" 
			}
		],
		 "valence_orbital": [ 
			{
				"type": "occ",
				"energy": -0.29916,
				"method": "rhf"
			},
			{
				"type": "occ",
				"energy": -0.2889,
				"method": "rhf"
			},
			{
				"type": "occ",
				"energy": -0.26937,
				"method": "rhf"
			},
			{
				"type": "occ",
				"energy": -0.25368,
				"method": "rhf"
			},
			{
				"type": "occ",
				"energy": -0.24074,
				"method": "rhf"
			},
			{
				"type": "unocc",
				"energy": -0.06569,
				"method": "rhf"
			},
			{
				"type": "unocc",
				"energy": -0.03579,
				"method": "rhf"
			},
			{
				"type": "unocc",
				"energy": 0.00509,
				"method": "rhf"
			},
			{
				"type": "unocc",
				"energy": 0.01218,
				"method": "rhf"
			},
			{
				"type": "unocc",
				"energy": 0.03571,
				"method": "rhf"
			}
		],
		"cosmo_sigma_profile": { 
			"-0.025": 0.0,
			"-0.024": 0.0,
			"-0.023": 0.0,
			"-0.022": 0.0,
			"-0.021": 0.0,
			"-0.02": 0.0,
			"-0.019": 0.0,
			"-0.018": 0.0,
			"-0.017": 0.0,
			"-0.016": 0.0,
			"-0.015": 0.0,
			"-0.014": 0.0,
			"-0.013": 0.0,
			"-0.012": 0.0,
			"-0.011": 0.0,
			"-0.01": 0.0,
			"-0.009": 0.0,
			"-0.008": 0.0,
			"-0.007": 3.5808568299,
			"-0.006": 16.0690657479,
			"-0.005": 20.5026799689,
			"-0.004": 23.8520705672,
			"-0.003": 24.0639822965,
			"-0.002": 26.3252445919,
			"-0.001": 26.6123550372,
			"0.0": 24.9361908046,
			"0.001": 19.6573766994,
			"0.002": 20.6728217198,
			"0.003": 21.0843343743,
			"0.004": 14.1398837338,
			"0.005": 8.60994787603,
			"0.006": 5.36782912692,
			"0.007": 5.03886036759,
			"0.008": 3.10705890868,
			"0.009": 3.27327570531,
			"0.01": 2.97585398129,
			"0.011": 4.62132405534,
			"0.012": 2.57954619912,
			"0.013": 0.908873376861,
			"0.014": 0.107110845523,
			"0.015": 0.0,
			"0.016": 0.0,
			"0.017": 0.0,
			"0.018": 0.0,
			"0.019": 0.0,
			"0.02": 0.0,
			"0.021": 0.0,
			"0.022": 0.0,
			"0.023": 0.0,
			"0.024": 0.0,
			"0.025": 0.0
		}
	}
}
