{
	 "smiles": "C1SC2=NN=C(N2CN1C1=CC=CC=C1)C1=CC=CC=C1", 
	 "Tm": 478.15, 
	 "num_atms": 35, 
	 "gaussian": { 
		 "optdone": 1, 
		 "sigma_profile": "yes", 
		 "theory": "DFT", 
		 "functional": "B3LYP", 
		 "basiset": "6-31G**", 
		 "properties": { 
			 "R2extent": 7661.4628, 
			 "electric_dipole_moment_norm": 6.66939538639, 
			 "electric_quadrupole_moment_norm": 36.1562777484, 
			 "total_energy": -1235.29571358, 
			 "HOMO_LUMO_gap": 0.1821, 
			 "cosmo_polarized_energy": -21.85, 
			 "cosmo_cavitation_energy": 39.46, 
			 "cosmo_dispersion_energy": -28.17, 
			 "cosmo_repulsion_energy": 2.07, 
			 "cosmo_total_nonelectrostatic_energy": 13.36, 
			 "SMD_solvation_energy": 2.4 
		},
		"coords": [
			{
				"x": 0.6378134016,
				"y": -1.2293757454,
				"z": -2.2165312893,
				"element": "C" 
			},
			{
				"x": 1.079695093,
				"y": -2.9921096251,
				"z": -1.6878589299,
				"element": "S" 
			},
			{
				"x": -0.0422457636,
				"y": -3.1165565244,
				"z": -0.3315663745,
				"element": "C" 
			},
			{
				"x": -0.2618196095,
				"y": -4.2175263949,
				"z": 0.346513391,
				"element": "N" 
			},
			{
				"x": -1.1351207227,
				"y": -3.8934487779,
				"z": 1.3663301663,
				"element": "N" 
			},
			{
				"x": -1.4138578322,
				"y": -2.610647497,
				"z": 1.2795848576,
				"element": "C" 
			},
			{
				"x": -0.7280811225,
				"y": -2.0529420885,
				"z": 0.2099380482,
				"element": "N" 
			},
			{
				"x": -0.9282977103,
				"y": -0.7596456933,
				"z": -0.4732876778,
				"element": "C" 
			},
			{
				"x": 0.2713504558,
				"y": -0.3363577202,
				"z": -1.1575664196,
				"element": "N" 
			},
			{
				"x": 1.2783851813,
				"y": 0.3366217525,
				"z": -0.3986214024,
				"element": "C" 
			},
			{
				"x": 2.6199830963,
				"y": -0.068124738,
				"z": -0.4041886962,
				"element": "C" 
			},
			{
				"x": 3.5749644838,
				"y": 0.6588840082,
				"z": 0.3104041986,
				"element": "C" 
			},
			{
				"x": 3.210918014,
				"y": 1.7823346062,
				"z": 1.0500380763,
				"element": "C" 
			},
			{
				"x": 1.8736493818,
				"y": 2.1864030659,
				"z": 1.0593226656,
				"element": "C" 
			},
			{
				"x": 0.9171551181,
				"y": 1.4798797972,
				"z": 0.334802142,
				"element": "C" 
			},
			{
				"x": -2.3089694801,
				"y": -1.8863750835,
				"z": 2.1948001242,
				"element": "C" 
			},
			{
				"x": -1.9865895566,
				"y": -0.6173703175,
				"z": 2.7048763427,
				"element": "C" 
			},
			{
				"x": -2.8509647985,
				"y": 0.0262086819,
				"z": 3.5905011047,
				"element": "C" 
			},
			{
				"x": -4.0370849063,
				"y": -0.592730852,
				"z": 3.9890477858,
				"element": "C" 
			},
			{
				"x": -4.3515902232,
				"y": -1.8650496714,
				"z": 3.5049506107,
				"element": "C" 
			},
			{
				"x": -3.4962824442,
				"y": -2.5086364178,
				"z": 2.6132811332,
				"element": "C" 
			},
			{
				"x": -0.1959448261,
				"y": -1.3103441845,
				"z": -2.9173616211,
				"element": "H" 
			},
			{
				"x": 1.5153651763,
				"y": -0.8589663724,
				"z": -2.7462695394,
				"element": "H" 
			},
			{
				"x": -1.2390051972,
				"y": -0.0258233311,
				"z": 0.2640851217,
				"element": "H" 
			},
			{
				"x": -1.7335037319,
				"y": -0.8725592186,
				"z": -1.2083836038,
				"element": "H" 
			},
			{
				"x": 2.9193125876,
				"y": -0.9650030957,
				"z": -0.9335330765,
				"element": "H" 
			},
			{
				"x": 4.6089638993,
				"y": 0.3267204567,
				"z": 0.2969281063,
				"element": "H" 
			},
			{
				"x": 3.9565827095,
				"y": 2.3382224399,
				"z": 1.6096891404,
				"element": "H" 
			},
			{
				"x": 1.5738688502,
				"y": 3.0690570096,
				"z": 1.6169053758,
				"element": "H" 
			},
			{
				"x": -0.1082351764,
				"y": 1.8365336735,
				"z": 0.3098789069,
				"element": "H" 
			},
			{
				"x": -1.0402834686,
				"y": -0.151374562,
				"z": 2.4447110442,
				"element": "H" 
			},
			{
				"x": -2.5882587767,
				"y": 1.0045210396,
				"z": 3.9825469806,
				"element": "H" 
			},
			{
				"x": -4.7075921685,
				"y": -0.0909916766,
				"z": 4.6805957871,
				"element": "H" 
			},
			{
				"x": -5.2675105923,
				"y": -2.35617645,
				"z": 3.8203916441,
				"element": "H" 
			},
			{
				"x": -3.7290693413,
				"y": -3.4977504932,
				"z": 2.2336458767,
				"element": "H" 
			}
		],
		 "valence_orbital": [ 
			{
				"type": "occ",
				"energy": -0.2616,
				"method": "rhf"
			},
			{
				"type": "occ",
				"energy": -0.25983,
				"method": "rhf"
			},
			{
				"type": "occ",
				"energy": -0.24841,
				"method": "rhf"
			},
			{
				"type": "occ",
				"energy": -0.22957,
				"method": "rhf"
			},
			{
				"type": "occ",
				"energy": -0.21411,
				"method": "rhf"
			},
			{
				"type": "unocc",
				"energy": -0.03201,
				"method": "rhf"
			},
			{
				"type": "unocc",
				"energy": -0.01756,
				"method": "rhf"
			},
			{
				"type": "unocc",
				"energy": -0.01237,
				"method": "rhf"
			},
			{
				"type": "unocc",
				"energy": -0.01172,
				"method": "rhf"
			},
			{
				"type": "unocc",
				"energy": 0.00993,
				"method": "rhf"
			}
		],
		"cosmo_sigma_profile": { 
			"-0.025": 0.0,
			"-0.024": 0.0,
			"-0.023": 0.0,
			"-0.022": 0.0,
			"-0.021": 0.0,
			"-0.02": 0.0,
			"-0.019": 0.0,
			"-0.018": 0.0,
			"-0.017": 0.0,
			"-0.016": 0.0,
			"-0.015": 0.0,
			"-0.014": 0.0,
			"-0.013": 0.0,
			"-0.012": 0.0,
			"-0.011": 0.225263453014,
			"-0.01": 1.78587415597,
			"-0.009": 6.55536038635,
			"-0.008": 8.89570337606,
			"-0.007": 10.1675787032,
			"-0.006": 20.6809450012,
			"-0.005": 28.2739526702,
			"-0.004": 26.9680949313,
			"-0.003": 21.2367017074,
			"-0.002": 15.5916400251,
			"-0.001": 18.0253490427,
			"0.0": 16.5322773363,
			"0.001": 16.9554306844,
			"0.002": 20.5964354945,
			"0.003": 22.7185984978,
			"0.004": 27.8149245808,
			"0.005": 19.3924097075,
			"0.006": 9.80933349233,
			"0.007": 3.80115111178,
			"0.008": 1.76606291897,
			"0.009": 2.08102674784,
			"0.01": 2.54820554723,
			"0.011": 1.77428302386,
			"0.012": 2.63382077197,
			"0.013": 3.61543338215,
			"0.014": 2.80446221773,
			"0.015": 2.95903387156,
			"0.016": 2.02091681597,
			"0.017": 0.773748219811,
			"0.018": 0.0,
			"0.019": 0.0,
			"0.02": 0.0,
			"0.021": 0.0,
			"0.022": 0.0,
			"0.023": 0.0,
			"0.024": 0.0,
			"0.025": 0.0
		}
	}
}
