{
	 "smiles": "OC(C#CC1=CC=CC=C1)(C1=CC=CC=C1)C1=CC=CC=C1", 
	 "Tm": 354.15, 
	 "num_atms": 38, 
	 "gaussian": { 
		 "optdone": 1, 
		 "sigma_profile": "yes", 
		 "theory": "DFT", 
		 "functional": "B3LYP", 
		 "basiset": "6-31G**", 
		 "properties": { 
			 "R2extent": 8716.5892, 
			 "electric_dipole_moment_norm": 1.64423498017, 
			 "electric_quadrupole_moment_norm": 7.44361614607, 
			 "total_energy": -885.033083876, 
			 "HOMO_LUMO_gap": 0.19173, 
			 "cosmo_polarized_energy": -10.83, 
			 "cosmo_cavitation_energy": 43.19, 
			 "cosmo_dispersion_energy": -29.41, 
			 "cosmo_repulsion_energy": 2.29, 
			 "cosmo_total_nonelectrostatic_energy": 16.07, 
			 "SMD_solvation_energy": 7.49 
		},
		"coords": [
			{
				"x": 2.2204977021,
				"y": -1.748797877,
				"z": 0.5854967034,
				"element": "O" 
			},
			{
				"x": 1.0475946425,
				"y": -0.9599490473,
				"z": 0.3293524079,
				"element": "C" 
			},
			{
				"x": -0.0103194049,
				"y": -1.8285762153,
				"z": -0.2257404271,
				"element": "C" 
			},
			{
				"x": -0.8507682612,
				"y": -2.5851539325,
				"z": -0.6663139494,
				"element": "C" 
			},
			{
				"x": -1.8512883252,
				"y": -3.4747592806,
				"z": -1.166976894,
				"element": "C" 
			},
			{
				"x": -2.675535784,
				"y": -4.1920181035,
				"z": -0.2779058297,
				"element": "C" 
			},
			{
				"x": -3.6496912854,
				"y": -5.0587433437,
				"z": -0.7669189061,
				"element": "C" 
			},
			{
				"x": -3.818552969,
				"y": -5.2245982596,
				"z": -2.1438717103,
				"element": "C" 
			},
			{
				"x": -3.0059200814,
				"y": -4.517715423,
				"z": -3.033614091,
				"element": "C" 
			},
			{
				"x": -2.0289009956,
				"y": -3.6492480328,
				"z": -2.5532277186,
				"element": "C" 
			},
			{
				"x": 0.5809660027,
				"y": -0.4158312739,
				"z": 1.6953140909,
				"element": "C" 
			},
			{
				"x": -0.4013463286,
				"y": 0.5802911475,
				"z": 1.7542287694,
				"element": "C" 
			},
			{
				"x": -0.8499213,
				"y": 1.0576870545,
				"z": 2.9844154624,
				"element": "C" 
			},
			{
				"x": -0.3199740526,
				"y": 0.5465945659,
				"z": 4.1716684509,
				"element": "C" 
			},
			{
				"x": 0.6575689732,
				"y": -0.4464959945,
				"z": 4.1161828735,
				"element": "C" 
			},
			{
				"x": 1.1052129782,
				"y": -0.9307483728,
				"z": 2.8844817842,
				"element": "C" 
			},
			{
				"x": 1.4084175207,
				"y": 0.1928677774,
				"z": -0.6285019432,
				"element": "C" 
			},
			{
				"x": 0.5952047854,
				"y": 0.5680231631,
				"z": -1.7015886437,
				"element": "C" 
			},
			{
				"x": 0.963537831,
				"y": 1.632144306,
				"z": -2.530056629,
				"element": "C" 
			},
			{
				"x": 2.1495748403,
				"y": 2.3263295499,
				"z": -2.2958207121,
				"element": "C" 
			},
			{
				"x": 2.9685970374,
				"y": 1.9522143798,
				"z": -1.226325604,
				"element": "C" 
			},
			{
				"x": 2.6005660427,
				"y": 0.8943055646,
				"z": -0.3981219692,
				"element": "C" 
			},
			{
				"x": 2.4826982706,
				"y": -2.1399203182,
				"z": -0.2589697438,
				"element": "H" 
			},
			{
				"x": -2.540698517,
				"y": -4.0589663817,
				"z": 0.7905876936,
				"element": "H" 
			},
			{
				"x": -4.2793399977,
				"y": -5.6063464097,
				"z": -0.0716349368,
				"element": "H" 
			},
			{
				"x": -4.5794121413,
				"y": -5.9013787034,
				"z": -2.521603528,
				"element": "H" 
			},
			{
				"x": -3.133428479,
				"y": -4.643809088,
				"z": -4.1048952785,
				"element": "H" 
			},
			{
				"x": -1.3945736399,
				"y": -3.0994915487,
				"z": -3.2413412333,
				"element": "H" 
			},
			{
				"x": -0.8109858159,
				"y": 0.988202203,
				"z": 0.8351384507,
				"element": "H" 
			},
			{
				"x": -1.6107998382,
				"y": 1.8325249582,
				"z": 3.0152339609,
				"element": "H" 
			},
			{
				"x": -0.6664509062,
				"y": 0.9212843245,
				"z": 5.1306905649,
				"element": "H" 
			},
			{
				"x": 1.0761884694,
				"y": -0.8505747509,
				"z": 5.0338797436,
				"element": "H" 
			},
			{
				"x": 1.8617276542,
				"y": -1.704341166,
				"z": 2.8398166194,
				"element": "H" 
			},
			{
				"x": -0.3227456694,
				"y": 0.0217404315,
				"z": -1.8934569284,
				"element": "H" 
			},
			{
				"x": 0.3224512918,
				"y": 1.9120666237,
				"z": -3.3613520987,
				"element": "H" 
			},
			{
				"x": 2.4370576952,
				"y": 3.1514184406,
				"z": -2.9412838217,
				"element": "H" 
			},
			{
				"x": 3.8956988837,
				"y": 2.4864026913,
				"z": -1.0378535363,
				"element": "H" 
			},
			{
				"x": 3.2354931715,
				"y": 0.5966663414,
				"z": 0.4298885574,
				"element": "H" 
			}
		],
		 "valence_orbital": [ 
			{
				"type": "occ",
				"energy": -0.24966,
				"method": "rhf"
			},
			{
				"type": "occ",
				"energy": -0.24829,
				"method": "rhf"
			},
			{
				"type": "occ",
				"energy": -0.24238,
				"method": "rhf"
			},
			{
				"type": "occ",
				"energy": -0.23695,
				"method": "rhf"
			},
			{
				"type": "occ",
				"energy": -0.22566,
				"method": "rhf"
			},
			{
				"type": "unocc",
				"energy": -0.03393,
				"method": "rhf"
			},
			{
				"type": "unocc",
				"energy": -0.00742,
				"method": "rhf"
			},
			{
				"type": "unocc",
				"energy": -0.00586,
				"method": "rhf"
			},
			{
				"type": "unocc",
				"energy": -0.00501,
				"method": "rhf"
			},
			{
				"type": "unocc",
				"energy": 0.00402,
				"method": "rhf"
			}
		],
		"cosmo_sigma_profile": { 
			"-0.025": 0.0,
			"-0.024": 0.0,
			"-0.023": 0.0,
			"-0.022": 0.0,
			"-0.021": 0.0,
			"-0.02": 0.0,
			"-0.019": 0.0,
			"-0.018": 0.0,
			"-0.017": 0.0,
			"-0.016": 0.91206909259,
			"-0.015": 0.68628227041,
			"-0.014": 0.546307231291,
			"-0.013": 0.605345893083,
			"-0.012": 0.866672251076,
			"-0.011": 0.921589325738,
			"-0.01": 0.870133845279,
			"-0.009": 0.365828302766,
			"-0.008": 0.753882324345,
			"-0.007": 1.27784650665,
			"-0.006": 17.407104622,
			"-0.005": 26.0758282416,
			"-0.004": 33.4946935886,
			"-0.003": 28.5405899715,
			"-0.002": 23.0157660971,
			"-0.001": 19.6098663548,
			"0.0": 22.3993458945,
			"0.001": 22.9775461996,
			"0.002": 25.0731878956,
			"0.003": 32.5171943308,
			"0.004": 36.0530773231,
			"0.005": 32.1224080648,
			"0.006": 13.2462943098,
			"0.007": 1.99177730648,
			"0.008": 1.67013333056,
			"0.009": 1.85770468941,
			"0.01": 0.862572649179,
			"0.011": 0.205529696036,
			"0.012": 0.0,
			"0.013": 0.0,
			"0.014": 0.0,
			"0.015": 0.0,
			"0.016": 0.0,
			"0.017": 0.0,
			"0.018": 0.0,
			"0.019": 0.0,
			"0.02": 0.0,
			"0.021": 0.0,
			"0.022": 0.0,
			"0.023": 0.0,
			"0.024": 0.0,
			"0.025": 0.0
		}
	}
}
