{
	 "smiles": "CC1=NC=NC2=C1N=CN2", 
	 "Tm": 511.15, 
	 "num_atms": 16, 
	 "gaussian": { 
		 "optdone": 1, 
		 "sigma_profile": "yes", 
		 "theory": "DFT", 
		 "functional": "B3LYP", 
		 "basiset": "6-31G**", 
		 "properties": { 
			 "R2extent": 1372.9372, 
			 "electric_dipole_moment_norm": 3.14960906939, 
			 "electric_quadrupole_moment_norm": 14.2272186628, 
			 "total_energy": -451.27090571, 
			 "HOMO_LUMO_gap": 0.20602, 
			 "cosmo_polarized_energy": -13.51, 
			 "cosmo_cavitation_energy": 20.3, 
			 "cosmo_dispersion_energy": -15.55, 
			 "cosmo_repulsion_energy": 1.25, 
			 "cosmo_total_nonelectrostatic_energy": 6.0, 
			 "SMD_solvation_energy": -0.94 
		},
		"coords": [
			{
				"x": 0.5286080033,
				"y": 2.0201659698,
				"z": -0.2545892056,
				"element": "C" 
			},
			{
				"x": -0.4735184081,
				"y": 0.9071353979,
				"z": -0.3458859146,
				"element": "C" 
			},
			{
				"x": -1.7454761325,
				"y": 1.203004637,
				"z": -0.6583062719,
				"element": "N" 
			},
			{
				"x": -2.6492190047,
				"y": 0.2087372266,
				"z": -0.7308858178,
				"element": "C" 
			},
			{
				"x": -2.4587555766,
				"y": -1.1003960862,
				"z": -0.5280440685,
				"element": "N" 
			},
			{
				"x": -1.1913742728,
				"y": -1.368932328,
				"z": -0.2222680485,
				"element": "C" 
			},
			{
				"x": -0.1419238765,
				"y": -0.4350263664,
				"z": -0.1104509698,
				"element": "C" 
			},
			{
				"x": 1.0471233132,
				"y": -1.0688378747,
				"z": 0.2221995491,
				"element": "N" 
			},
			{
				"x": 0.7226472595,
				"y": -2.3342959149,
				"z": 0.3049320536,
				"element": "C" 
			},
			{
				"x": -0.6109211095,
				"y": -2.5874700619,
				"z": 0.0503406989,
				"element": "N" 
			},
			{
				"x": 0.0908514667,
				"y": 2.943912411,
				"z": -0.6353616956,
				"element": "H" 
			},
			{
				"x": 0.8339932684,
				"y": 2.174604048,
				"z": 0.7868713614,
				"element": "H" 
			},
			{
				"x": 1.435148869,
				"y": 1.7754719108,
				"z": -0.8165338342,
				"element": "H" 
			},
			{
				"x": -3.6628538577,
				"y": 0.5090801955,
				"z": -0.9867214987,
				"element": "H" 
			},
			{
				"x": 1.4079718903,
				"y": -3.136062547,
				"z": 0.5483481214,
				"element": "H" 
			},
			{
				"x": -1.080701832,
				"y": -3.4804906174,
				"z": 0.0571555408,
				"element": "H" 
			}
		],
		 "valence_orbital": [ 
			{
				"type": "occ",
				"energy": -0.32109,
				"method": "rhf"
			},
			{
				"type": "occ",
				"energy": -0.28418,
				"method": "rhf"
			},
			{
				"type": "occ",
				"energy": -0.27621,
				"method": "rhf"
			},
			{
				"type": "occ",
				"energy": -0.24782,
				"method": "rhf"
			},
			{
				"type": "occ",
				"energy": -0.24721,
				"method": "rhf"
			},
			{
				"type": "unocc",
				"energy": -0.04119,
				"method": "rhf"
			},
			{
				"type": "unocc",
				"energy": -0.0019,
				"method": "rhf"
			},
			{
				"type": "unocc",
				"energy": 0.03351,
				"method": "rhf"
			},
			{
				"type": "unocc",
				"energy": 0.07129,
				"method": "rhf"
			},
			{
				"type": "unocc",
				"energy": 0.12293,
				"method": "rhf"
			}
		],
		"cosmo_sigma_profile": { 
			"-0.025": 0.0,
			"-0.024": 0.0,
			"-0.023": 0.0,
			"-0.022": 0.0,
			"-0.021": 0.0,
			"-0.02": 0.0,
			"-0.019": 0.0,
			"-0.018": 0.252285198198,
			"-0.017": 1.55453642871,
			"-0.016": 1.99865068304,
			"-0.015": 0.706405041901,
			"-0.014": 1.04108455633,
			"-0.013": 1.68625638368,
			"-0.012": 1.15259602422,
			"-0.011": 1.52188753687,
			"-0.01": 3.42781423423,
			"-0.009": 2.61030189549,
			"-0.008": 2.6212532529,
			"-0.007": 3.35202091016,
			"-0.006": 4.2794822606,
			"-0.005": 6.45772271803,
			"-0.004": 8.45112696909,
			"-0.003": 9.55547703204,
			"-0.002": 12.0779538193,
			"-0.001": 21.2522360035,
			"0.0": 15.7590659487,
			"0.001": 10.1477514435,
			"0.002": 6.05739913845,
			"0.003": 5.79115528812,
			"0.004": 5.80523886171,
			"0.005": 4.24955346481,
			"0.006": 3.32084600927,
			"0.007": 4.06243473501,
			"0.008": 3.23650589279,
			"0.009": 3.23051058785,
			"0.01": 3.78249406217,
			"0.011": 2.57672177418,
			"0.012": 2.41886576534,
			"0.013": 2.83809281714,
			"0.014": 2.20582446746,
			"0.015": 2.6353353648,
			"0.016": 1.03073412234,
			"0.017": 0.0229069630243,
			"0.018": 0.0,
			"0.019": 0.0,
			"0.02": 0.0,
			"0.021": 0.0,
			"0.022": 0.0,
			"0.023": 0.0,
			"0.024": 0.0,
			"0.025": 0.0
		}
	}
}
