{
	 "smiles": "CCCC1COC(CN2C=NC=N2)(O1)C1=CC=C(Cl)C=C1Cl", 
	 "Tm": 298.15, 
	 "num_atms": 39, 
	 "gaussian": { 
		 "optdone": 1, 
		 "sigma_profile": "yes", 
		 "theory": "DFT", 
		 "functional": "B3LYP", 
		 "basiset": "6-31G**", 
		 "properties": { 
			 "R2extent": 9523.9452, 
			 "electric_dipole_moment_norm": 4.47875939742, 
			 "electric_quadrupole_moment_norm": 14.7246933601, 
			 "total_energy": -1816.90274942, 
			 "HOMO_LUMO_gap": 0.21979, 
			 "cosmo_polarized_energy": -15.21, 
			 "cosmo_cavitation_energy": 45.55, 
			 "cosmo_dispersion_energy": -30.3, 
			 "cosmo_repulsion_energy": 2.36, 
			 "cosmo_total_nonelectrostatic_energy": 17.6, 
			 "SMD_solvation_energy": 4.61 
		},
		"coords": [
			{
				"x": -4.1469244401,
				"y": 2.6848776977,
				"z": -0.9706783747,
				"element": "C" 
			},
			{
				"x": -2.8516369126,
				"y": 1.8704825834,
				"z": -1.0359950143,
				"element": "C" 
			},
			{
				"x": -2.8214672968,
				"y": 0.7212797551,
				"z": -0.019619066,
				"element": "C" 
			},
			{
				"x": -1.5413338707,
				"y": -0.09812981,
				"z": -0.0651538288,
				"element": "C" 
			},
			{
				"x": -1.4303598355,
				"y": -1.2339120714,
				"z": 0.95022641,
				"element": "C" 
			},
			{
				"x": -0.0218400744,
				"y": -1.3585201842,
				"z": 1.1544238723,
				"element": "O" 
			},
			{
				"x": 0.5983264068,
				"y": -0.1321164576,
				"z": 0.7881546818,
				"element": "C" 
			},
			{
				"x": 1.181344545,
				"y": 0.5519454598,
				"z": 2.0504222312,
				"element": "C" 
			},
			{
				"x": 2.2329414785,
				"y": -0.2046821099,
				"z": 2.6999198873,
				"element": "N" 
			},
			{
				"x": 3.5752800874,
				"y": -0.1424236201,
				"z": 2.5196381618,
				"element": "C" 
			},
			{
				"x": 4.1894617069,
				"y": -1.0190351744,
				"z": 3.2937792755,
				"element": "N" 
			},
			{
				"x": 3.147979079,
				"y": -1.6104630783,
				"z": 3.9464495786,
				"element": "C" 
			},
			{
				"x": 1.9447198923,
				"y": -1.1581901927,
				"z": 3.6274631576,
				"element": "N" 
			},
			{
				"x": -0.427303318,
				"y": 0.7258915014,
				"z": 0.3210028649,
				"element": "O" 
			},
			{
				"x": 1.6522202231,
				"y": -0.4163928796,
				"z": -0.2961164975,
				"element": "C" 
			},
			{
				"x": 2.0260150555,
				"y": -1.7426986674,
				"z": -0.554785009,
				"element": "C" 
			},
			{
				"x": 2.9714114868,
				"y": -2.076169549,
				"z": -1.5211297361,
				"element": "C" 
			},
			{
				"x": 3.5659123581,
				"y": -1.0555890369,
				"z": -2.2582445791,
				"element": "C" 
			},
			{
				"x": 4.7532518837,
				"y": -1.4415833227,
				"z": -3.4892400099,
				"element": "Cl" 
			},
			{
				"x": 3.2329596494,
				"y": 0.277334579,
				"z": -2.0317889691,
				"element": "C" 
			},
			{
				"x": 2.2867742572,
				"y": 0.5836418639,
				"z": -1.0523447173,
				"element": "C" 
			},
			{
				"x": 1.9472381898,
				"y": 2.2981978729,
				"z": -0.8231859385,
				"element": "Cl" 
			},
			{
				"x": -5.0233720499,
				"y": 2.0585154804,
				"z": -1.1735329364,
				"element": "H" 
			},
			{
				"x": -4.1419015488,
				"y": 3.4966022177,
				"z": -1.7048284446,
				"element": "H" 
			},
			{
				"x": -4.2838940432,
				"y": 3.1339955433,
				"z": 0.0195388927,
				"element": "H" 
			},
			{
				"x": -2.724226542,
				"y": 1.4608766528,
				"z": -2.0470327004,
				"element": "H" 
			},
			{
				"x": -1.9895058796,
				"y": 2.5225595815,
				"z": -0.8577562952,
				"element": "H" 
			},
			{
				"x": -3.6664560505,
				"y": 0.0425989186,
				"z": -0.201666683,
				"element": "H" 
			},
			{
				"x": -2.9442857748,
				"y": 1.1163749377,
				"z": 0.997092999,
				"element": "H" 
			},
			{
				"x": -1.3696533711,
				"y": -0.485271443,
				"z": -1.0817732979,
				"element": "H" 
			},
			{
				"x": -1.9343204519,
				"y": -0.9778148207,
				"z": 1.8925583466,
				"element": "H" 
			},
			{
				"x": -1.8138309056,
				"y": -2.190855059,
				"z": 0.5861027643,
				"element": "H" 
			},
			{
				"x": 0.3658058125,
				"y": 0.6747497697,
				"z": 2.7639999643,
				"element": "H" 
			},
			{
				"x": 1.5683373881,
				"y": 1.5358981685,
				"z": 1.7812280033,
				"element": "H" 
			},
			{
				"x": 4.0439871826,
				"y": 0.5476828801,
				"z": 1.831699868,
				"element": "H" 
			},
			{
				"x": 3.2804062163,
				"y": -2.3907590416,
				"z": 4.6834438322,
				"element": "H" 
			},
			{
				"x": 1.5509276467,
				"y": -2.52381456,
				"z": 0.0255826421,
				"element": "H" 
			},
			{
				"x": 3.2421110659,
				"y": -3.1106506232,
				"z": -1.6981773731,
				"element": "H" 
			},
			{
				"x": 3.6983007539,
				"y": 1.0693662384,
				"z": -2.6051779625,
				"element": "H" 
			}
		],
		 "valence_orbital": [ 
			{
				"type": "occ",
				"energy": -0.27435,
				"method": "rhf"
			},
			{
				"type": "occ",
				"energy": -0.26905,
				"method": "rhf"
			},
			{
				"type": "occ",
				"energy": -0.26856,
				"method": "rhf"
			},
			{
				"type": "occ",
				"energy": -0.25749,
				"method": "rhf"
			},
			{
				"type": "occ",
				"energy": -0.25469,
				"method": "rhf"
			},
			{
				"type": "unocc",
				"energy": -0.0349,
				"method": "rhf"
			},
			{
				"type": "unocc",
				"energy": -0.02961,
				"method": "rhf"
			},
			{
				"type": "unocc",
				"energy": 0.00167,
				"method": "rhf"
			},
			{
				"type": "unocc",
				"energy": 0.00927,
				"method": "rhf"
			},
			{
				"type": "unocc",
				"energy": 0.04285,
				"method": "rhf"
			}
		],
		"cosmo_sigma_profile": { 
			"-0.025": 0.0,
			"-0.024": 0.0,
			"-0.023": 0.0,
			"-0.022": 0.0,
			"-0.021": 0.0,
			"-0.02": 0.0,
			"-0.019": 0.0,
			"-0.018": 0.0,
			"-0.017": 0.0,
			"-0.016": 0.0,
			"-0.015": 0.0,
			"-0.014": 0.0,
			"-0.013": 0.0,
			"-0.012": 0.0,
			"-0.011": 0.0,
			"-0.01": 0.702722558392,
			"-0.009": 3.1771647751,
			"-0.008": 7.25138827784,
			"-0.007": 10.0234973492,
			"-0.006": 14.8395079112,
			"-0.005": 20.4059996584,
			"-0.004": 23.8500740589,
			"-0.003": 27.6913129978,
			"-0.002": 31.5285304268,
			"-0.001": 32.8544846789,
			"0.0": 39.1097229417,
			"0.001": 42.003049948,
			"0.002": 27.5798270877,
			"0.003": 19.0089956784,
			"0.004": 21.3966845754,
			"0.005": 8.14357761357,
			"0.006": 5.01158455859,
			"0.007": 5.8419064464,
			"0.008": 4.6995332315,
			"0.009": 3.72476934373,
			"0.01": 2.24879811921,
			"0.011": 2.20403137919,
			"0.012": 3.06247356165,
			"0.013": 3.13033404967,
			"0.014": 2.63838112893,
			"0.015": 1.54621503392,
			"0.016": 1.26032488366,
			"0.017": 0.268958118286,
			"0.018": 0.0,
			"0.019": 0.0,
			"0.02": 0.0,
			"0.021": 0.0,
			"0.022": 0.0,
			"0.023": 0.0,
			"0.024": 0.0,
			"0.025": 0.0
		}
	}
}
