{
	 "smiles": "FC(F)(F)C1=CC2=C(C=C1)C(=O)N1CCCC1=N2", 
	 "Tm": 430.15, 
	 "num_atms": 27, 
	 "gaussian": { 
		 "optdone": 1, 
		 "sigma_profile": "yes", 
		 "theory": "DFT", 
		 "functional": "B3LYP", 
		 "basiset": "6-31G**", 
		 "properties": { 
			 "R2extent": 5914.9796, 
			 "electric_dipole_moment_norm": 4.57674300568, 
			 "electric_quadrupole_moment_norm": 18.523415079, 
			 "total_energy": -946.997175706, 
			 "HOMO_LUMO_gap": 0.1812, 
			 "cosmo_polarized_energy": -11.37, 
			 "cosmo_cavitation_energy": 32.09, 
			 "cosmo_dispersion_energy": -23.46, 
			 "cosmo_repulsion_energy": 1.72, 
			 "cosmo_total_nonelectrostatic_energy": 10.34, 
			 "SMD_solvation_energy": 4.69 
		},
		"coords": [
			{
				"x": -2.645700969,
				"y": 2.6289909963,
				"z": -2.508962768,
				"element": "F" 
			},
			{
				"x": -2.128754476,
				"y": 1.4202504372,
				"z": -2.8089742793,
				"element": "C" 
			},
			{
				"x": -3.143711183,
				"y": 0.5264028127,
				"z": -2.7698720609,
				"element": "F" 
			},
			{
				"x": -1.7025020169,
				"y": 1.466829434,
				"z": -4.0918675787,
				"element": "F" 
			},
			{
				"x": -1.0143806191,
				"y": 1.0207387882,
				"z": -1.8766901404,
				"element": "C" 
			},
			{
				"x": -0.7408305073,
				"y": 1.767815797,
				"z": -0.7430594741,
				"element": "C" 
			},
			{
				"x": 0.2890267759,
				"y": 1.3702634308,
				"z": 0.1336547649,
				"element": "C" 
			},
			{
				"x": 1.0272604076,
				"y": 0.200550339,
				"z": -0.1703759195,
				"element": "C" 
			},
			{
				"x": 0.7364197138,
				"y": -0.5452460131,
				"z": -1.3248039695,
				"element": "C" 
			},
			{
				"x": -0.276612852,
				"y": -0.1424353611,
				"z": -2.1758773311,
				"element": "C" 
			},
			{
				"x": 2.1088788225,
				"y": -0.2347687482,
				"z": 0.7270143987,
				"element": "C" 
			},
			{
				"x": 2.8285351628,
				"y": -1.2146601985,
				"z": 0.5779173098,
				"element": "O" 
			},
			{
				"x": 2.2511787507,
				"y": 0.6106861483,
				"z": 1.831156185,
				"element": "N" 
			},
			{
				"x": 3.2607550767,
				"y": 0.400804721,
				"z": 2.876977493,
				"element": "C" 
			},
			{
				"x": 2.7644054149,
				"y": 1.3140978365,
				"z": 4.0164507708,
				"element": "C" 
			},
			{
				"x": 1.9574999699,
				"y": 2.4169277562,
				"z": 3.2977326286,
				"element": "C" 
			},
			{
				"x": 1.4835986013,
				"y": 1.7389468354,
				"z": 2.0345573082,
				"element": "C" 
			},
			{
				"x": 0.5334542599,
				"y": 2.1469903068,
				"z": 1.260013693,
				"element": "N" 
			},
			{
				"x": -1.302101472,
				"y": 2.6640985942,
				"z": -0.5086179153,
				"element": "H" 
			},
			{
				"x": 1.3263620462,
				"y": -1.43364459,
				"z": -1.5237891007,
				"element": "H" 
			},
			{
				"x": -0.5039592876,
				"y": -0.7099962976,
				"z": -3.0719521475,
				"element": "H" 
			},
			{
				"x": 4.2461449459,
				"y": 0.696512883,
				"z": 2.498237749,
				"element": "H" 
			},
			{
				"x": 3.3074677375,
				"y": -0.6584535921,
				"z": 3.1354607177,
				"element": "H" 
			},
			{
				"x": 3.5880943738,
				"y": 1.7075808615,
				"z": 4.6153539005,
				"element": "H" 
			},
			{
				"x": 2.107313144,
				"y": 0.746559489,
				"z": 4.6827776184,
				"element": "H" 
			},
			{
				"x": 1.1183395295,
				"y": 2.8096235226,
				"z": 3.8750929186,
				"element": "H" 
			},
			{
				"x": 2.5928186501,
				"y": 3.2689338109,
				"z": 3.0238452287,
				"element": "H" 
			}
		],
		 "valence_orbital": [ 
			{
				"type": "occ",
				"energy": -0.2938,
				"method": "rhf"
			},
			{
				"type": "occ",
				"energy": -0.2813,
				"method": "rhf"
			},
			{
				"type": "occ",
				"energy": -0.27271,
				"method": "rhf"
			},
			{
				"type": "occ",
				"energy": -0.26875,
				"method": "rhf"
			},
			{
				"type": "occ",
				"energy": -0.23608,
				"method": "rhf"
			},
			{
				"type": "unocc",
				"energy": -0.05488,
				"method": "rhf"
			},
			{
				"type": "unocc",
				"energy": -0.04253,
				"method": "rhf"
			},
			{
				"type": "unocc",
				"energy": 0.01716,
				"method": "rhf"
			},
			{
				"type": "unocc",
				"energy": 0.05349,
				"method": "rhf"
			},
			{
				"type": "unocc",
				"energy": 0.07335,
				"method": "rhf"
			}
		],
		"cosmo_sigma_profile": { 
			"-0.025": 0.0,
			"-0.024": 0.0,
			"-0.023": 0.0,
			"-0.022": 0.0,
			"-0.021": 0.0,
			"-0.02": 0.0,
			"-0.019": 0.0,
			"-0.018": 0.0,
			"-0.017": 0.0,
			"-0.016": 0.0,
			"-0.015": 0.0,
			"-0.014": 0.0,
			"-0.013": 0.0,
			"-0.012": 0.0,
			"-0.011": 0.0,
			"-0.01": 0.0,
			"-0.009": 0.0,
			"-0.008": 0.825792557807,
			"-0.007": 3.8880598468,
			"-0.006": 16.6868995949,
			"-0.005": 24.3287562912,
			"-0.004": 25.7020125875,
			"-0.003": 19.9502029602,
			"-0.002": 17.9589715273,
			"-0.001": 14.5176666792,
			"0.0": 15.6007365264,
			"0.001": 25.5186013056,
			"0.002": 30.4780248902,
			"0.003": 28.1536598157,
			"0.004": 3.72129393451,
			"0.005": 2.9202961837,
			"0.006": 2.70428090739,
			"0.007": 3.05402506708,
			"0.008": 2.84074097695,
			"0.009": 1.61111717128,
			"0.01": 3.09140993746,
			"0.011": 2.44803554786,
			"0.012": 4.92636372293,
			"0.013": 4.66762318645,
			"0.014": 0.762319737725,
			"0.015": 0.385319612213,
			"0.016": 0.0316051015987,
			"0.017": 0.0,
			"0.018": 0.0,
			"0.019": 0.0,
			"0.02": 0.0,
			"0.021": 0.0,
			"0.022": 0.0,
			"0.023": 0.0,
			"0.024": 0.0,
			"0.025": 0.0
		}
	}
}
