{
	 "smiles": "[O-][N+](=O)C1=CC=C(C=C1)C1NN2C(S1)=NN=C2C1=CC=CC=C1", 
	 "Tm": 498.15, 
	 "num_atms": 34, 
	 "gaussian": { 
		 "optdone": 1, 
		 "sigma_profile": "yes", 
		 "theory": "DFT", 
		 "functional": "B3LYP", 
		 "basiset": "6-31G**", 
		 "properties": { 
			 "R2extent": 11693.8581, 
			 "electric_dipole_moment_norm": 4.95149505806, 
			 "electric_quadrupole_moment_norm": 35.9810276489, 
			 "total_energy": -1400.43917078, 
			 "HOMO_LUMO_gap": 0.12165, 
			 "cosmo_polarized_energy": -26.11, 
			 "cosmo_cavitation_energy": 41.5, 
			 "cosmo_dispersion_energy": -30.21, 
			 "cosmo_repulsion_energy": 2.21, 
			 "cosmo_total_nonelectrostatic_energy": 13.5, 
			 "SMD_solvation_energy": 6.01 
		},
		"coords": [
			{
				"x": 4.1439756116,
				"y": -3.4788806118,
				"z": -3.7807346492,
				"element": "O" 
			},
			{
				"x": 4.4550242888,
				"y": -2.720017939,
				"z": -2.864786887,
				"element": "N" 
			},
			{
				"x": 5.6024406787,
				"y": -2.5293065093,
				"z": -2.4655553235,
				"element": "O" 
			},
			{
				"x": 3.368974068,
				"y": -1.9828437757,
				"z": -2.1928155178,
				"element": "C" 
			},
			{
				"x": 2.0566782376,
				"y": -2.1746783349,
				"z": -2.6227086039,
				"element": "C" 
			},
			{
				"x": 1.0353704296,
				"y": -1.478283155,
				"z": -1.9850126494,
				"element": "C" 
			},
			{
				"x": 1.3274716986,
				"y": -0.607544844,
				"z": -0.9247437441,
				"element": "C" 
			},
			{
				"x": 2.655529308,
				"y": -0.4365375411,
				"z": -0.512642433,
				"element": "C" 
			},
			{
				"x": 3.6888585328,
				"y": -1.1215941664,
				"z": -1.1470700433,
				"element": "C" 
			},
			{
				"x": 0.234690819,
				"y": 0.1672173446,
				"z": -0.2357798063,
				"element": "C" 
			},
			{
				"x": -0.9963402265,
				"y": -0.6538041026,
				"z": -0.0584958438,
				"element": "N" 
			},
			{
				"x": -2.0478713822,
				"y": 0.283468781,
				"z": 0.1257419562,
				"element": "N" 
			},
			{
				"x": -1.8862322662,
				"y": 1.510319111,
				"z": -0.4387539975,
				"element": "C" 
			},
			{
				"x": -0.3155836601,
				"y": 1.6645194474,
				"z": -1.2269570383,
				"element": "S" 
			},
			{
				"x": -2.9685831302,
				"y": 2.2373370292,
				"z": -0.3127992299,
				"element": "N" 
			},
			{
				"x": -3.8843372044,
				"y": 1.4424733041,
				"z": 0.3498613474,
				"element": "N" 
			},
			{
				"x": -3.3403534868,
				"y": 0.2579909511,
				"z": 0.5969811547,
				"element": "C" 
			},
			{
				"x": -3.9824246566,
				"y": -0.8536781132,
				"z": 1.3004364768,
				"element": "C" 
			},
			{
				"x": -5.0647963492,
				"y": -0.5780603023,
				"z": 2.1536532271,
				"element": "C" 
			},
			{
				"x": -5.7021800327,
				"y": -1.6130664485,
				"z": 2.8310067156,
				"element": "C" 
			},
			{
				"x": -5.2701149791,
				"y": -2.9334613018,
				"z": 2.672557315,
				"element": "C" 
			},
			{
				"x": -4.2030768024,
				"y": -3.2149216363,
				"z": 1.8187746675,
				"element": "C" 
			},
			{
				"x": -3.5630725267,
				"y": -2.1837843356,
				"z": 1.1304603174,
				"element": "C" 
			},
			{
				"x": 1.8584799959,
				"y": -2.8556472544,
				"z": -3.4407936873,
				"element": "H" 
			},
			{
				"x": 0.0052257528,
				"y": -1.6090669198,
				"z": -2.2959875375,
				"element": "H" 
			},
			{
				"x": 2.8851712529,
				"y": 0.2356667982,
				"z": 0.3093669814,
				"element": "H" 
			},
			{
				"x": 4.722376178,
				"y": -1.0060712874,
				"z": -0.8462530947,
				"element": "H" 
			},
			{
				"x": 0.5934580723,
				"y": 0.5555683279,
				"z": 0.7261179856,
				"element": "H" 
			},
			{
				"x": -0.9054739391,
				"y": -1.1815882517,
				"z": 0.8107955645,
				"element": "H" 
			},
			{
				"x": -5.3885751142,
				"y": 0.450610177,
				"z": 2.2684634896,
				"element": "H" 
			},
			{
				"x": -6.5364882415,
				"y": -1.3894782272,
				"z": 3.4893098797,
				"element": "H" 
			},
			{
				"x": -5.7670687699,
				"y": -3.7377662017,
				"z": 3.2068140204,
				"element": "H" 
			},
			{
				"x": -3.8740649707,
				"y": -4.240163613,
				"z": 1.6766284566,
				"element": "H" 
			},
			{
				"x": -2.7669871858,
				"y": -2.4203263989,
				"z": 0.4307205307,
				"element": "H" 
			}
		],
		 "valence_orbital": [ 
			{
				"type": "occ",
				"energy": -0.28352,
				"method": "rhf"
			},
			{
				"type": "occ",
				"energy": -0.26732,
				"method": "rhf"
			},
			{
				"type": "occ",
				"energy": -0.26062,
				"method": "rhf"
			},
			{
				"type": "occ",
				"energy": -0.25742,
				"method": "rhf"
			},
			{
				"type": "occ",
				"energy": -0.22753,
				"method": "rhf"
			},
			{
				"type": "unocc",
				"energy": -0.10588,
				"method": "rhf"
			},
			{
				"type": "unocc",
				"energy": -0.04776,
				"method": "rhf"
			},
			{
				"type": "unocc",
				"energy": -0.0436,
				"method": "rhf"
			},
			{
				"type": "unocc",
				"energy": -0.03636,
				"method": "rhf"
			},
			{
				"type": "unocc",
				"energy": -0.0196,
				"method": "rhf"
			}
		],
		"cosmo_sigma_profile": { 
			"-0.025": 0.0,
			"-0.024": 0.0,
			"-0.023": 0.0,
			"-0.022": 0.0,
			"-0.021": 0.0,
			"-0.02": 0.0,
			"-0.019": 0.0,
			"-0.018": 0.0,
			"-0.017": 0.0532454010249,
			"-0.016": 1.16324907186,
			"-0.015": 1.5847095503,
			"-0.014": 1.47528415234,
			"-0.013": 1.50364899749,
			"-0.012": 1.49991261731,
			"-0.011": 1.87650416249,
			"-0.01": 3.37871598312,
			"-0.009": 5.98042751215,
			"-0.008": 6.42031065987,
			"-0.007": 11.4514461804,
			"-0.006": 18.5817619912,
			"-0.005": 17.9318715732,
			"-0.004": 20.1090722496,
			"-0.003": 19.7502017698,
			"-0.002": 22.1714726116,
			"-0.001": 23.6816633447,
			"0.0": 29.4704481028,
			"0.001": 28.978688669,
			"0.002": 18.2049784995,
			"0.003": 17.4713971911,
			"0.004": 18.4088449695,
			"0.005": 13.7333263966,
			"0.006": 7.4218887633,
			"0.007": 9.87820821234,
			"0.008": 8.938103329,
			"0.009": 5.51781215824,
			"0.01": 4.01608266901,
			"0.011": 3.04677613194,
			"0.012": 2.12300104325,
			"0.013": 3.93316681879,
			"0.014": 3.26169241167,
			"0.015": 2.23991129256,
			"0.016": 1.50675228873,
			"0.017": 0.0460914122306,
			"0.018": 0.0,
			"0.019": 0.0,
			"0.02": 0.0,
			"0.021": 0.0,
			"0.022": 0.0,
			"0.023": 0.0,
			"0.024": 0.0,
			"0.025": 0.0
		}
	}
}
