{
	 "smiles": "CNC1=NC(C)=CS1", 
	 "Tm": 343.15, 
	 "num_atms": 16, 
	 "gaussian": { 
		 "optdone": 1, 
		 "sigma_profile": "yes", 
		 "theory": "DFT", 
		 "functional": "B3LYP", 
		 "basiset": "6-31G**", 
		 "properties": { 
			 "R2extent": 2248.2597, 
			 "electric_dipole_moment_norm": 1.63184213084, 
			 "electric_quadrupole_moment_norm": 7.65197015088, 
			 "total_energy": -703.040522306, 
			 "HOMO_LUMO_gap": 0.20554, 
			 "cosmo_polarized_energy": -7.86, 
			 "cosmo_cavitation_energy": 20.93, 
			 "cosmo_dispersion_energy": -16.34, 
			 "cosmo_repulsion_energy": 1.32, 
			 "cosmo_total_nonelectrostatic_energy": 5.91, 
			 "SMD_solvation_energy": 1.59 
		},
		"coords": [
			{
				"x": -1.6318380437,
				"y": 1.5366342633,
				"z": -1.0555184766,
				"element": "C" 
			},
			{
				"x": -1.2713349087,
				"y": 0.1320656959,
				"z": -1.086244743,
				"element": "N" 
			},
			{
				"x": -0.0856739439,
				"y": -0.3129698927,
				"z": -1.6051858358,
				"element": "C" 
			},
			{
				"x": 0.4010357672,
				"y": -1.5021164961,
				"z": -1.3796647638,
				"element": "N" 
			},
			{
				"x": 1.5823278514,
				"y": -1.6943939316,
				"z": -2.0755917224,
				"element": "C" 
			},
			{
				"x": 2.2878230961,
				"y": -3.0117480017,
				"z": -1.9428927009,
				"element": "C" 
			},
			{
				"x": 2.005056258,
				"y": -0.6414708121,
				"z": -2.8306201757,
				"element": "C" 
			},
			{
				"x": 0.8844294555,
				"y": 0.6975981967,
				"z": -2.6924221718,
				"element": "S" 
			},
			{
				"x": -0.9319186068,
				"y": 2.1527958237,
				"z": -0.4716714359,
				"element": "H" 
			},
			{
				"x": -1.6730196165,
				"y": 1.937856951,
				"z": -2.0741461624,
				"element": "H" 
			},
			{
				"x": -2.629347641,
				"y": 1.6337830535,
				"z": -0.6224288585,
				"element": "H" 
			},
			{
				"x": -1.6112698171,
				"y": -0.4561020102,
				"z": -0.3376741045,
				"element": "H" 
			},
			{
				"x": 1.6406684899,
				"y": -3.8313592894,
				"z": -2.2741384932,
				"element": "H" 
			},
			{
				"x": 3.2053864089,
				"y": -3.03255211,
				"z": -2.5361011658,
				"element": "H" 
			},
			{
				"x": 2.5455337615,
				"y": -3.2082259056,
				"z": -0.896292461,
				"element": "H" 
			},
			{
				"x": 2.8890414892,
				"y": -0.5586955347,
				"z": -3.4455067286,
				"element": "H" 
			}
		],
		 "valence_orbital": [ 
			{
				"type": "occ",
				"energy": -0.34097,
				"method": "rhf"
			},
			{
				"type": "occ",
				"energy": -0.29555,
				"method": "rhf"
			},
			{
				"type": "occ",
				"energy": -0.26267,
				"method": "rhf"
			},
			{
				"type": "occ",
				"energy": -0.25799,
				"method": "rhf"
			},
			{
				"type": "occ",
				"energy": -0.19497,
				"method": "rhf"
			},
			{
				"type": "unocc",
				"energy": 0.01057,
				"method": "rhf"
			},
			{
				"type": "unocc",
				"energy": 0.0259,
				"method": "rhf"
			},
			{
				"type": "unocc",
				"energy": 0.06842,
				"method": "rhf"
			},
			{
				"type": "unocc",
				"energy": 0.07314,
				"method": "rhf"
			},
			{
				"type": "unocc",
				"energy": 0.11436,
				"method": "rhf"
			}
		],
		"cosmo_sigma_profile": { 
			"-0.025": 0.0,
			"-0.024": 0.0,
			"-0.023": 0.0,
			"-0.022": 0.0,
			"-0.021": 0.0,
			"-0.02": 0.0,
			"-0.019": 0.0,
			"-0.018": 0.0,
			"-0.017": 0.0,
			"-0.016": 0.0,
			"-0.015": 0.0,
			"-0.014": 0.501313029923,
			"-0.013": 1.28980766532,
			"-0.012": 0.935370875281,
			"-0.011": 0.672751613728,
			"-0.01": 1.38284883191,
			"-0.009": 1.29777487632,
			"-0.008": 1.24810224257,
			"-0.007": 3.35906281274,
			"-0.006": 5.76857632306,
			"-0.005": 7.22535583916,
			"-0.004": 15.4214292355,
			"-0.003": 16.1530691298,
			"-0.002": 17.2931855033,
			"-0.001": 12.6841267027,
			"0.0": 12.8966110515,
			"0.001": 9.25823524076,
			"0.002": 10.186038473,
			"0.003": 9.67585021736,
			"0.004": 10.4794237213,
			"0.005": 10.7399788623,
			"0.006": 5.97359253354,
			"0.007": 2.76896967257,
			"0.008": 2.43841666614,
			"0.009": 1.16442767138,
			"0.01": 1.50455196293,
			"0.011": 0.575618467807,
			"0.012": 1.58623165991,
			"0.013": 0.874235209708,
			"0.014": 0.793508988227,
			"0.015": 0.807629310054,
			"0.016": 0.704576825946,
			"0.017": 0.0605416523546,
			"0.018": 0.0,
			"0.019": 0.0,
			"0.02": 0.0,
			"0.021": 0.0,
			"0.022": 0.0,
			"0.023": 0.0,
			"0.024": 0.0,
			"0.025": 0.0
		}
	}
}
