{
	 "smiles": "OC(=O)C1=CC=C(OC2=C(Cl)C=C(Cl)C=C2)C=C1", 
	 "Tm": 442.15, 
	 "num_atms": 26, 
	 "gaussian": { 
		 "optdone": 1, 
		 "sigma_profile": "yes", 
		 "theory": "DFT", 
		 "functional": "B3LYP", 
		 "basiset": "6-31G**", 
		 "properties": { 
			 "R2extent": 8204.7055, 
			 "electric_dipole_moment_norm": 4.19853485159, 
			 "electric_quadrupole_moment_norm": 31.1168777261, 
			 "total_energy": -1646.2568065, 
			 "HOMO_LUMO_gap": 0.1933, 
			 "cosmo_polarized_energy": -16.85, 
			 "cosmo_cavitation_energy": 35.57, 
			 "cosmo_dispersion_energy": -25.6, 
			 "cosmo_repulsion_energy": 1.99, 
			 "cosmo_total_nonelectrostatic_energy": 11.96, 
			 "SMD_solvation_energy": 6.84 
		},
		"coords": [
			{
				"x": 1.1395355122,
				"y": -3.7990453147,
				"z": -3.9878173648,
				"element": "O" 
			},
			{
				"x": 1.0482468306,
				"y": -3.8055267349,
				"z": -2.6294503543,
				"element": "C" 
			},
			{
				"x": 1.1911351177,
				"y": -4.8419059227,
				"z": -2.0233268234,
				"element": "O" 
			},
			{
				"x": 0.7674887564,
				"y": -2.495791325,
				"z": -1.962724902,
				"element": "C" 
			},
			{
				"x": 0.3114446694,
				"y": -2.5257811656,
				"z": -0.6379051768,
				"element": "C" 
			},
			{
				"x": 0.0299701372,
				"y": -1.3523177875,
				"z": 0.0531405013,
				"element": "C" 
			},
			{
				"x": 0.2192410175,
				"y": -0.1222074041,
				"z": -0.5867807912,
				"element": "C" 
			},
			{
				"x": 0.0072072348,
				"y": 1.0956712559,
				"z": 0.0179484547,
				"element": "O" 
			},
			{
				"x": -0.7681249321,
				"y": 1.196385149,
				"z": 1.1502229206,
				"element": "C" 
			},
			{
				"x": -0.2110475518,
				"y": 1.7519893595,
				"z": 2.3096107105,
				"element": "C" 
			},
			{
				"x": 1.4757820257,
				"y": 2.1974489989,
				"z": 2.3427324082,
				"element": "Cl" 
			},
			{
				"x": -0.9973376158,
				"y": 1.9585399008,
				"z": 3.4439846541,
				"element": "C" 
			},
			{
				"x": -2.3422824403,
				"y": 1.5962834071,
				"z": 3.4116343983,
				"element": "C" 
			},
			{
				"x": -3.3295478262,
				"y": 1.8489124511,
				"z": 4.838202988,
				"element": "Cl" 
			},
			{
				"x": -2.9143347914,
				"y": 1.0409089073,
				"z": 2.2663388004,
				"element": "C" 
			},
			{
				"x": -2.12172266,
				"y": 0.8497960328,
				"z": 1.1378759295,
				"element": "C" 
			},
			{
				"x": 0.6999465315,
				"y": -0.0682180427,
				"z": -1.899038049,
				"element": "C" 
			},
			{
				"x": 0.9722832981,
				"y": -1.250368285,
				"z": -2.5773598903,
				"element": "C" 
			},
			{
				"x": 0.8389086461,
				"y": -2.9507728923,
				"z": -4.3409675548,
				"element": "H" 
			},
			{
				"x": 0.1870577922,
				"y": -3.4911394451,
				"z": -0.1593195764,
				"element": "H" 
			},
			{
				"x": -0.3220551946,
				"y": -1.3900187542,
				"z": 1.0775099662,
				"element": "H" 
			},
			{
				"x": -0.5597065271,
				"y": 2.3907720738,
				"z": 4.3353642232,
				"element": "H" 
			},
			{
				"x": -3.9641776973,
				"y": 0.7720772126,
				"z": 2.2553608235,
				"element": "H" 
			},
			{
				"x": -2.5482360004,
				"y": 0.4331753781,
				"z": 0.2314773303,
				"element": "H" 
			},
			{
				"x": 0.8627862398,
				"y": 0.9002389427,
				"z": -2.3590329056,
				"element": "H" 
			},
			{
				"x": 1.381439428,
				"y": -1.1832059961,
				"z": -3.5825807201,
				"element": "H" 
			}
		],
		 "valence_orbital": [ 
			{
				"type": "occ",
				"energy": -0.28194,
				"method": "rhf"
			},
			{
				"type": "occ",
				"energy": -0.27828,
				"method": "rhf"
			},
			{
				"type": "occ",
				"energy": -0.27438,
				"method": "rhf"
			},
			{
				"type": "occ",
				"energy": -0.2643,
				"method": "rhf"
			},
			{
				"type": "occ",
				"energy": -0.24543,
				"method": "rhf"
			},
			{
				"type": "unocc",
				"energy": -0.05213,
				"method": "rhf"
			},
			{
				"type": "unocc",
				"energy": -0.04305,
				"method": "rhf"
			},
			{
				"type": "unocc",
				"energy": -0.03277,
				"method": "rhf"
			},
			{
				"type": "unocc",
				"energy": -0.02778,
				"method": "rhf"
			},
			{
				"type": "unocc",
				"energy": -0.00451,
				"method": "rhf"
			}
		],
		"cosmo_sigma_profile": { 
			"-0.025": 0.0,
			"-0.024": 0.0,
			"-0.023": 0.0,
			"-0.022": 0.0,
			"-0.021": 0.0,
			"-0.02": 0.0,
			"-0.019": 0.21536491531,
			"-0.018": 0.887941009718,
			"-0.017": 1.02343980268,
			"-0.016": 0.834207424378,
			"-0.015": 1.46727030637,
			"-0.014": 0.816038006412,
			"-0.013": 0.289932505249,
			"-0.012": 1.73987123505,
			"-0.011": 1.65386543661,
			"-0.01": 0.768301968073,
			"-0.009": 2.51391901507,
			"-0.008": 7.42545260813,
			"-0.007": 10.7902746864,
			"-0.006": 13.5371144088,
			"-0.005": 12.16133195,
			"-0.004": 12.2701487196,
			"-0.003": 14.1585175087,
			"-0.002": 16.9153837374,
			"-0.001": 19.8163916069,
			"0.0": 28.3208480574,
			"0.001": 32.8131188148,
			"0.002": 28.8139840745,
			"0.003": 23.0533927962,
			"0.004": 20.729594704,
			"0.005": 6.7196198441,
			"0.006": 4.72007900793,
			"0.007": 3.67084825781,
			"0.008": 2.95930228036,
			"0.009": 3.08033077772,
			"0.01": 4.47514894063,
			"0.011": 5.18927691748,
			"0.012": 5.31778285392,
			"0.013": 1.93469011698,
			"0.014": 0.16401271242,
			"0.015": 0.0,
			"0.016": 0.0,
			"0.017": 0.0,
			"0.018": 0.0,
			"0.019": 0.0,
			"0.02": 0.0,
			"0.021": 0.0,
			"0.022": 0.0,
			"0.023": 0.0,
			"0.024": 0.0,
			"0.025": 0.0
		}
	}
}
