{
	 "smiles": "OCC1OC(=O)C(O)C1O", 
	 "Tm": 357.15, 
	 "num_atms": 18, 
	 "gaussian": { 
		 "optdone": 1, 
		 "sigma_profile": "yes", 
		 "theory": "DFT", 
		 "functional": "B3LYP", 
		 "basiset": "6-31G**", 
		 "properties": { 
			 "R2extent": 1464.3174, 
			 "electric_dipole_moment_norm": 2.84647887046, 
			 "electric_quadrupole_moment_norm": 15.546054667, 
			 "total_energy": -571.440638907, 
			 "HOMO_LUMO_gap": 0.246, 
			 "cosmo_polarized_energy": -17.44, 
			 "cosmo_cavitation_energy": 20.91, 
			 "cosmo_dispersion_energy": -16.05, 
			 "cosmo_repulsion_energy": 1.34, 
			 "cosmo_total_nonelectrostatic_energy": 6.2, 
			 "SMD_solvation_energy": 4.68 
		},
		"coords": [
			{
				"x": 1.6613509938,
				"y": -2.4544374302,
				"z": 0.5110945409,
				"element": "O" 
			},
			{
				"x": 0.8628299055,
				"y": -1.5940440428,
				"z": 1.3313493531,
				"element": "C" 
			},
			{
				"x": 0.770099233,
				"y": -0.2410302283,
				"z": 0.6182703536,
				"element": "C" 
			},
			{
				"x": -0.0459031291,
				"y": 0.6278957972,
				"z": 1.4366917961,
				"element": "O" 
			},
			{
				"x": -1.3268791605,
				"y": 0.6813311576,
				"z": 0.9595934183,
				"element": "C" 
			},
			{
				"x": -2.2099549523,
				"y": 1.2575586515,
				"z": 1.5397656426,
				"element": "O" 
			},
			{
				"x": -1.4310589248,
				"y": -0.1408952229,
				"z": -0.3341664973,
				"element": "C" 
			},
			{
				"x": -1.9587974784,
				"y": -1.4266986857,
				"z": -0.0295253453,
				"element": "O" 
			},
			{
				"x": 0.0430092229,
				"y": -0.2581541354,
				"z": -0.7526118641,
				"element": "C" 
			},
			{
				"x": 0.3646096444,
				"y": -1.3039920949,
				"z": -1.6206092238,
				"element": "O" 
			},
			{
				"x": 1.6538943421,
				"y": -3.3388895494,
				"z": 0.8975304572,
				"element": "H" 
			},
			{
				"x": 1.3228889379,
				"y": -1.443958877,
				"z": 2.3172462007,
				"element": "H" 
			},
			{
				"x": -0.1470083701,
				"y": -1.9969459227,
				"z": 1.4666865685,
				"element": "H" 
			},
			{
				"x": 1.7639853365,
				"y": 0.2076403174,
				"z": 0.5459480406,
				"element": "H" 
			},
			{
				"x": -2.048029725,
				"y": 0.3814727092,
				"z": -1.0742147956,
				"element": "H" 
			},
			{
				"x": -2.8494341467,
				"y": -1.2954214703,
				"z": 0.3251603976,
				"element": "H" 
			},
			{
				"x": 0.2915099761,
				"y": 0.6885769328,
				"z": -1.2539750335,
				"element": "H" 
			},
			{
				"x": 0.7243882946,
				"y": -2.0347079064,
				"z": -1.0906340095,
				"element": "H" 
			}
		],
		 "valence_orbital": [ 
			{
				"type": "occ",
				"energy": -0.31794,
				"method": "rhf"
			},
			{
				"type": "occ",
				"energy": -0.30496,
				"method": "rhf"
			},
			{
				"type": "occ",
				"energy": -0.29526,
				"method": "rhf"
			},
			{
				"type": "occ",
				"energy": -0.2782,
				"method": "rhf"
			},
			{
				"type": "occ",
				"energy": -0.25775,
				"method": "rhf"
			},
			{
				"type": "unocc",
				"energy": -0.01175,
				"method": "rhf"
			},
			{
				"type": "unocc",
				"energy": 0.03904,
				"method": "rhf"
			},
			{
				"type": "unocc",
				"energy": 0.06882,
				"method": "rhf"
			},
			{
				"type": "unocc",
				"energy": 0.0963,
				"method": "rhf"
			},
			{
				"type": "unocc",
				"energy": 0.11046,
				"method": "rhf"
			}
		],
		"cosmo_sigma_profile": { 
			"-0.025": 0.0,
			"-0.024": 0.0,
			"-0.023": 0.0,
			"-0.022": 0.0,
			"-0.021": 0.0,
			"-0.02": 0.0,
			"-0.019": 0.0,
			"-0.018": 0.199417825818,
			"-0.017": 1.69441142316,
			"-0.016": 2.3729229581,
			"-0.015": 1.31196210533,
			"-0.014": 2.19518224642,
			"-0.013": 1.30074576923,
			"-0.012": 1.27107933983,
			"-0.011": 1.65283291224,
			"-0.01": 1.90506124777,
			"-0.009": 3.04067821817,
			"-0.008": 4.66402172492,
			"-0.007": 10.9094026633,
			"-0.006": 11.6344171989,
			"-0.005": 10.4194882053,
			"-0.004": 10.8184980467,
			"-0.003": 9.13905878504,
			"-0.002": 5.99857111415,
			"-0.001": 4.85929324264,
			"0.0": 5.57662447305,
			"0.001": 4.5111868514,
			"0.002": 5.0176725665,
			"0.003": 5.03871322328,
			"0.004": 3.97124091512,
			"0.005": 5.01024730654,
			"0.006": 5.601288651,
			"0.007": 5.46258125912,
			"0.008": 5.191518745,
			"0.009": 6.68502383208,
			"0.01": 7.00394925563,
			"0.011": 8.47838178777,
			"0.012": 5.3269486998,
			"0.013": 3.75815085861,
			"0.014": 1.42098723214,
			"0.015": 0.0,
			"0.016": 0.0,
			"0.017": 0.0,
			"0.018": 0.0,
			"0.019": 0.0,
			"0.02": 0.0,
			"0.021": 0.0,
			"0.022": 0.0,
			"0.023": 0.0,
			"0.024": 0.0,
			"0.025": 0.0
		}
	}
}
