{
	 "smiles": "NCC1=CC=CC2=C1OCCO2", 
	 "Tm": 513.15, 
	 "num_atms": 23, 
	 "gaussian": { 
		 "optdone": 1, 
		 "sigma_profile": "yes", 
		 "theory": "DFT", 
		 "functional": "B3LYP", 
		 "basiset": "6-31G**", 
		 "properties": { 
			 "R2extent": 2493.5259, 
			 "electric_dipole_moment_norm": 2.61756989974, 
			 "electric_quadrupole_moment_norm": 6.32310926048, 
			 "total_energy": -554.761786539, 
			 "HOMO_LUMO_gap": 0.21487, 
			 "cosmo_polarized_energy": -9.94, 
			 "cosmo_cavitation_energy": 25.35, 
			 "cosmo_dispersion_energy": -19.44, 
			 "cosmo_repulsion_energy": 1.57, 
			 "cosmo_total_nonelectrostatic_energy": 7.48, 
			 "SMD_solvation_energy": 3.68 
		},
		"coords": [
			{
				"x": -1.9327224077,
				"y": 1.8052102611,
				"z": 0.2320381549,
				"element": "N" 
			},
			{
				"x": -1.1519834345,
				"y": 0.7280325742,
				"z": 0.8490623384,
				"element": "C" 
			},
			{
				"x": -0.3057932843,
				"y": -0.0142471496,
				"z": -0.1681747736,
				"element": "C" 
			},
			{
				"x": -0.0353260492,
				"y": 0.5089897984,
				"z": -1.4354203044,
				"element": "C" 
			},
			{
				"x": 0.7376755385,
				"y": -0.2049049383,
				"z": -2.3548079522,
				"element": "C" 
			},
			{
				"x": 1.2711815154,
				"y": -1.4446117258,
				"z": -2.0128716068,
				"element": "C" 
			},
			{
				"x": 1.0236230656,
				"y": -1.9759053935,
				"z": -0.746467409,
				"element": "C" 
			},
			{
				"x": 0.2293152258,
				"y": -1.2676271768,
				"z": 0.1687635075,
				"element": "C" 
			},
			{
				"x": -0.0429929796,
				"y": -1.7703903991,
				"z": 1.4255580638,
				"element": "O" 
			},
			{
				"x": 0.2177763353,
				"y": -3.1660115345,
				"z": 1.5595050257,
				"element": "C" 
			},
			{
				"x": 1.5712341764,
				"y": -3.501635531,
				"z": 0.9549001697,
				"element": "C" 
			},
			{
				"x": 1.5722104022,
				"y": -3.2011182914,
				"z": -0.4379666707,
				"element": "O" 
			},
			{
				"x": -2.6652971618,
				"y": 1.4056423545,
				"z": -0.3505101548,
				"element": "H" 
			},
			{
				"x": -2.4006574365,
				"y": 2.3425265372,
				"z": 0.9566679196,
				"element": "H" 
			},
			{
				"x": -1.7557598207,
				"y": -0.0092150123,
				"z": 1.4016809618,
				"element": "H" 
			},
			{
				"x": -0.4903089894,
				"y": 1.1857242125,
				"z": 1.597463317,
				"element": "H" 
			},
			{
				"x": -0.4451466446,
				"y": 1.4812134768,
				"z": -1.6848243233,
				"element": "H" 
			},
			{
				"x": 0.9339400665,
				"y": 0.2117304367,
				"z": -3.33822996,
				"element": "H" 
			},
			{
				"x": 1.8858722449,
				"y": -2.0162319334,
				"z": -2.7007820012,
				"element": "H" 
			},
			{
				"x": 0.1927749844,
				"y": -3.3860410211,
				"z": 2.6301360398,
				"element": "H" 
			},
			{
				"x": -0.5683977348,
				"y": -3.7458849371,
				"z": 1.0561457359,
				"element": "H" 
			},
			{
				"x": 1.7937235229,
				"y": -4.5683382442,
				"z": 1.044290395,
				"element": "H" 
			},
			{
				"x": 2.3581588654,
				"y": -2.9286063635,
				"z": 1.4652435271,
				"element": "H" 
			}
		],
		 "valence_orbital": [ 
			{
				"type": "occ",
				"energy": -0.30612,
				"method": "rhf"
			},
			{
				"type": "occ",
				"energy": -0.29652,
				"method": "rhf"
			},
			{
				"type": "occ",
				"energy": -0.23476,
				"method": "rhf"
			},
			{
				"type": "occ",
				"energy": -0.21885,
				"method": "rhf"
			},
			{
				"type": "occ",
				"energy": -0.20353,
				"method": "rhf"
			},
			{
				"type": "unocc",
				"energy": 0.01134,
				"method": "rhf"
			},
			{
				"type": "unocc",
				"energy": 0.02404,
				"method": "rhf"
			},
			{
				"type": "unocc",
				"energy": 0.08729,
				"method": "rhf"
			},
			{
				"type": "unocc",
				"energy": 0.09049,
				"method": "rhf"
			},
			{
				"type": "unocc",
				"energy": 0.10623,
				"method": "rhf"
			}
		],
		"cosmo_sigma_profile": { 
			"-0.025": 0.0,
			"-0.024": 0.0,
			"-0.023": 0.0,
			"-0.022": 0.0,
			"-0.021": 0.0,
			"-0.02": 0.0,
			"-0.019": 0.0,
			"-0.018": 0.0,
			"-0.017": 0.0,
			"-0.016": 0.0,
			"-0.015": 0.0,
			"-0.014": 0.0,
			"-0.013": 0.0,
			"-0.012": 0.0,
			"-0.011": 0.0,
			"-0.01": 1.5041507266,
			"-0.009": 2.48405231493,
			"-0.008": 2.93457739069,
			"-0.007": 7.09234191281,
			"-0.006": 12.9899138745,
			"-0.005": 18.1256302718,
			"-0.004": 16.5483906947,
			"-0.003": 15.7541737273,
			"-0.002": 14.4678816907,
			"-0.001": 11.4886429894,
			"0.0": 9.96539095838,
			"0.001": 9.6400255287,
			"0.002": 9.41344146426,
			"0.003": 11.193644624,
			"0.004": 13.773795894,
			"0.005": 10.8418466801,
			"0.006": 10.0233383954,
			"0.007": 7.17248533504,
			"0.008": 2.96594707406,
			"0.009": 3.23963701571,
			"0.01": 2.95144708583,
			"0.011": 1.61736870144,
			"0.012": 0.862538816585,
			"0.013": 0.568572739915,
			"0.014": 0.286881288135,
			"0.015": 0.724439663666,
			"0.016": 0.427991844446,
			"0.017": 0.465312479679,
			"0.018": 0.192814723188,
			"0.019": 0.0,
			"0.02": 0.0,
			"0.021": 0.0,
			"0.022": 0.0,
			"0.023": 0.0,
			"0.024": 0.0,
			"0.025": 0.0
		}
	}
}
