{
	 "smiles": "CC(CN1CC(C)OC(C)C1)C(=O)NN", 
	 "Tm": 344.15, 
	 "num_atms": 36, 
	 "gaussian": { 
		 "optdone": 1, 
		 "sigma_profile": "yes", 
		 "theory": "DFT", 
		 "functional": "B3LYP", 
		 "basiset": "6-31G**", 
		 "properties": { 
			 "R2extent": 4131.173, 
			 "electric_dipole_moment_norm": 2.41008688225, 
			 "electric_quadrupole_moment_norm": 7.38340395956, 
			 "total_energy": -708.404563151, 
			 "HOMO_LUMO_gap": 0.23863, 
			 "cosmo_polarized_energy": -14.59, 
			 "cosmo_cavitation_energy": 36.11, 
			 "cosmo_dispersion_energy": -24.62, 
			 "cosmo_repulsion_energy": 1.96, 
			 "cosmo_total_nonelectrostatic_energy": 13.45, 
			 "SMD_solvation_energy": 5.51 
		},
		"coords": [
			{
				"x": 1.1457765897,
				"y": -0.8314864285,
				"z": -2.590406048,
				"element": "C" 
			},
			{
				"x": 1.4599751497,
				"y": -1.7076177196,
				"z": -1.3709057147,
				"element": "C" 
			},
			{
				"x": 1.8456289443,
				"y": -0.8674859294,
				"z": -0.1276024351,
				"element": "C" 
			},
			{
				"x": 0.9134628494,
				"y": 0.2165011726,
				"z": 0.1888902761,
				"element": "N" 
			},
			{
				"x": -0.3011008779,
				"y": -0.2369950358,
				"z": 0.872920776,
				"element": "C" 
			},
			{
				"x": -1.2510868638,
				"y": 0.9396416657,
				"z": 1.1156542946,
				"element": "C" 
			},
			{
				"x": -2.489149623,
				"y": 0.5411356172,
				"z": 1.9061256373,
				"element": "C" 
			},
			{
				"x": -0.5921223795,
				"y": 1.9669532835,
				"z": 1.8538914817,
				"element": "O" 
			},
			{
				"x": 0.5856647468,
				"y": 2.437122314,
				"z": 1.2005307471,
				"element": "C" 
			},
			{
				"x": 1.1755495262,
				"y": 3.5365166188,
				"z": 2.0718769451,
				"element": "C" 
			},
			{
				"x": 1.5564630807,
				"y": 1.2768148966,
				"z": 0.9690503565,
				"element": "C" 
			},
			{
				"x": 0.4231348794,
				"y": -2.7810710424,
				"z": -1.014904123,
				"element": "C" 
			},
			{
				"x": 0.5847552055,
				"y": -3.5435577179,
				"z": -0.0660093974,
				"element": "O" 
			},
			{
				"x": -0.6800250126,
				"y": -2.8793426898,
				"z": -1.8205363123,
				"element": "N" 
			},
			{
				"x": -1.7368538554,
				"y": -3.7580157667,
				"z": -1.4913436402,
				"element": "N" 
			},
			{
				"x": 0.952768245,
				"y": -1.4335128471,
				"z": -3.4841789295,
				"element": "H" 
			},
			{
				"x": 0.2940231799,
				"y": -0.1717612952,
				"z": -2.4018919848,
				"element": "H" 
			},
			{
				"x": 1.9998584907,
				"y": -0.1836996545,
				"z": -2.8108995735,
				"element": "H" 
			},
			{
				"x": 2.3550981726,
				"y": -2.303738644,
				"z": -1.5960355784,
				"element": "H" 
			},
			{
				"x": 1.9941573001,
				"y": -1.5557020847,
				"z": 0.7210674704,
				"element": "H" 
			},
			{
				"x": 2.8144687155,
				"y": -0.4031599366,
				"z": -0.3430971198,
				"element": "H" 
			},
			{
				"x": -0.81376079,
				"y": -0.9773349331,
				"z": 0.2523695075,
				"element": "H" 
			},
			{
				"x": -0.0675678884,
				"y": -0.7201168436,
				"z": 1.8412744735,
				"element": "H" 
			},
			{
				"x": -1.5477515151,
				"y": 1.3431511315,
				"z": 0.1315476469,
				"element": "H" 
			},
			{
				"x": -3.1246841518,
				"y": 1.4146926273,
				"z": 2.0739689744,
				"element": "H" 
			},
			{
				"x": -3.0698851925,
				"y": -0.2130942741,
				"z": 1.3657157219,
				"element": "H" 
			},
			{
				"x": -2.2062835521,
				"y": 0.1319974918,
				"z": 2.8809740438,
				"element": "H" 
			},
			{
				"x": 0.307999098,
				"y": 2.8466771843,
				"z": 0.213697556,
				"element": "H" 
			},
			{
				"x": 2.0594311594,
				"y": 3.9762845623,
				"z": 1.598965459,
				"element": "H" 
			},
			{
				"x": 0.4367060617,
				"y": 4.3266577926,
				"z": 2.2298798016,
				"element": "H" 
			},
			{
				"x": 1.4634200248,
				"y": 3.1383241533,
				"z": 3.0498714173,
				"element": "H" 
			},
			{
				"x": 2.4310435747,
				"y": 1.6397126549,
				"z": 0.416442936,
				"element": "H" 
			},
			{
				"x": 1.9093817358,
				"y": 0.911028493,
				"z": 1.9536585274,
				"element": "H" 
			},
			{
				"x": -0.939621168,
				"y": -2.1238227371,
				"z": -2.4358309366,
				"element": "H" 
			},
			{
				"x": -1.7209632781,
				"y": -3.8480784266,
				"z": -0.4739243189,
				"element": "H" 
			},
			{
				"x": -1.4799105818,
				"y": -4.6826176527,
				"z": -1.8379079379,
				"element": "H" 
			}
		],
		 "valence_orbital": [ 
			{
				"type": "occ",
				"energy": -0.28953,
				"method": "rhf"
			},
			{
				"type": "occ",
				"energy": -0.25264,
				"method": "rhf"
			},
			{
				"type": "occ",
				"energy": -0.25088,
				"method": "rhf"
			},
			{
				"type": "occ",
				"energy": -0.24792,
				"method": "rhf"
			},
			{
				"type": "occ",
				"energy": -0.21544,
				"method": "rhf"
			},
			{
				"type": "unocc",
				"energy": 0.02319,
				"method": "rhf"
			},
			{
				"type": "unocc",
				"energy": 0.06892,
				"method": "rhf"
			},
			{
				"type": "unocc",
				"energy": 0.08266,
				"method": "rhf"
			},
			{
				"type": "unocc",
				"energy": 0.09896,
				"method": "rhf"
			},
			{
				"type": "unocc",
				"energy": 0.10103,
				"method": "rhf"
			}
		],
		"cosmo_sigma_profile": { 
			"-0.025": 0.0,
			"-0.024": 0.0,
			"-0.023": 0.0,
			"-0.022": 0.0,
			"-0.021": 0.0,
			"-0.02": 0.0,
			"-0.019": 0.0,
			"-0.018": 0.0,
			"-0.017": 0.0,
			"-0.016": 0.0,
			"-0.015": 0.0,
			"-0.014": 0.0912889446908,
			"-0.013": 0.518317524885,
			"-0.012": 1.17173772913,
			"-0.011": 2.15009964266,
			"-0.01": 2.68758303726,
			"-0.009": 3.17749964591,
			"-0.008": 3.50008721737,
			"-0.007": 3.63445967984,
			"-0.006": 3.16812034857,
			"-0.005": 8.32113378242,
			"-0.004": 25.5474103908,
			"-0.003": 31.6959315402,
			"-0.002": 36.864601691,
			"-0.001": 37.0598435896,
			"0.0": 31.7174245278,
			"0.001": 20.6411703593,
			"0.002": 8.21260554452,
			"0.003": 7.05966135939,
			"0.004": 5.20517653486,
			"0.005": 5.29985102812,
			"0.006": 4.23784044927,
			"0.007": 4.20303345257,
			"0.008": 5.4130715323,
			"0.009": 3.32943485781,
			"0.01": 2.92275454602,
			"0.011": 4.10555748235,
			"0.012": 3.59750110987,
			"0.013": 4.58826762961,
			"0.014": 5.28859279584,
			"0.015": 1.5450334878,
			"0.016": 0.629673826915,
			"0.017": 0.362255486346,
			"0.018": 0.0,
			"0.019": 0.0,
			"0.02": 0.0,
			"0.021": 0.0,
			"0.022": 0.0,
			"0.023": 0.0,
			"0.024": 0.0,
			"0.025": 0.0
		}
	}
}
