{
	 "smiles": "NCC1=CN=C(C=C1)N1CCN(CC1)C1=NC=CC=C1", 
	 "Tm": 381.15, 
	 "num_atms": 39, 
	 "gaussian": { 
		 "optdone": 1, 
		 "sigma_profile": "yes", 
		 "theory": "DFT", 
		 "functional": "B3LYP", 
		 "basiset": "6-31G**", 
		 "properties": { 
			 "R2extent": 8956.2443, 
			 "electric_dipole_moment_norm": 1.3748278474, 
			 "electric_quadrupole_moment_norm": 16.5504758161, 
			 "total_energy": -856.796454016, 
			 "HOMO_LUMO_gap": 0.17511, 
			 "cosmo_polarized_energy": -14.1, 
			 "cosmo_cavitation_energy": 40.56, 
			 "cosmo_dispersion_energy": -29.61, 
			 "cosmo_repulsion_energy": 2.26, 
			 "cosmo_total_nonelectrostatic_energy": 13.22, 
			 "SMD_solvation_energy": 1.49 
		},
		"coords": [
			{
				"x": 1.3274615161,
				"y": 2.3046210296,
				"z": -6.364599933,
				"element": "N" 
			},
			{
				"x": 1.0628451933,
				"y": 3.2936178487,
				"z": -5.3040265826,
				"element": "C" 
			},
			{
				"x": 0.6890856747,
				"y": 2.7341262309,
				"z": -3.9463497988,
				"element": "C" 
			},
			{
				"x": 1.6346587797,
				"y": 2.5591756962,
				"z": -2.9342411655,
				"element": "C" 
			},
			{
				"x": 1.3862996851,
				"y": 2.0297232616,
				"z": -1.734365322,
				"element": "N" 
			},
			{
				"x": 0.1336248574,
				"y": 1.6330840377,
				"z": -1.4440239486,
				"element": "C" 
			},
			{
				"x": -0.9033975053,
				"y": 1.7498553372,
				"z": -2.4019890503,
				"element": "C" 
			},
			{
				"x": -0.6103540738,
				"y": 2.3052825977,
				"z": -3.6378740561,
				"element": "C" 
			},
			{
				"x": -0.078675653,
				"y": 1.1428269329,
				"z": -0.1590811434,
				"element": "N" 
			},
			{
				"x": 1.0774847007,
				"y": 0.6719914991,
				"z": 0.6091374293,
				"element": "C" 
			},
			{
				"x": 0.8012794598,
				"y": 0.7609164623,
				"z": 2.1133722044,
				"element": "C" 
			},
			{
				"x": -0.4262494716,
				"y": 0.058372102,
				"z": 2.4673755463,
				"element": "N" 
			},
			{
				"x": -1.5676966821,
				"y": 0.5812219319,
				"z": 1.7256570792,
				"element": "C" 
			},
			{
				"x": -1.3440257472,
				"y": 0.5101481147,
				"z": 0.2084753091,
				"element": "C" 
			},
			{
				"x": -0.4565975013,
				"y": -1.2183712685,
				"z": 3.0102363051,
				"element": "C" 
			},
			{
				"x": -1.62784396,
				"y": -1.8777228813,
				"z": 2.9268959165,
				"element": "N" 
			},
			{
				"x": -1.7254143244,
				"y": -3.0923326268,
				"z": 3.4768159964,
				"element": "C" 
			},
			{
				"x": -0.6839858924,
				"y": -3.7422737288,
				"z": 4.1293324947,
				"element": "C" 
			},
			{
				"x": 0.5338742104,
				"y": -3.0591381376,
				"z": 4.215304883,
				"element": "C" 
			},
			{
				"x": 0.6626289404,
				"y": -1.7947419984,
				"z": 3.6623616514,
				"element": "C" 
			},
			{
				"x": 0.5019724041,
				"y": 1.7217965314,
				"z": -6.492253106,
				"element": "H" 
			},
			{
				"x": 2.059192636,
				"y": 1.6698912645,
				"z": -6.0495966221,
				"element": "H" 
			},
			{
				"x": 0.2651985074,
				"y": 3.9538009029,
				"z": -5.6652305948,
				"element": "H" 
			},
			{
				"x": 1.9589128003,
				"y": 3.9173478541,
				"z": -5.2051163583,
				"element": "H" 
			},
			{
				"x": 2.6672450736,
				"y": 2.8699138668,
				"z": -3.102550182,
				"element": "H" 
			},
			{
				"x": -1.9104895924,
				"y": 1.4118522848,
				"z": -2.195283638,
				"element": "H" 
			},
			{
				"x": -1.40427217,
				"y": 2.4042309288,
				"z": -4.3762026077,
				"element": "H" 
			},
			{
				"x": 1.3108134937,
				"y": -0.3743744552,
				"z": 0.3474001369,
				"element": "H" 
			},
			{
				"x": 1.9361082164,
				"y": 1.2842232696,
				"z": 0.3365278205,
				"element": "H" 
			},
			{
				"x": 0.6900947536,
				"y": 1.8152922945,
				"z": 2.3992735685,
				"element": "H" 
			},
			{
				"x": 1.65366136,
				"y": 0.3634931351,
				"z": 2.6631361126,
				"element": "H" 
			},
			{
				"x": -2.453809179,
				"y": 0.0106902651,
				"z": 1.9975665662,
				"element": "H" 
			},
			{
				"x": -1.7096155654,
				"y": 1.6313163511,
				"z": 2.0143198493,
				"element": "H" 
			},
			{
				"x": -2.17036861,
				"y": 1.0354559775,
				"z": -0.2740881066,
				"element": "H" 
			},
			{
				"x": -1.3743171891,
				"y": -0.542778798,
				"z": -0.1182103982,
				"element": "H" 
			},
			{
				"x": -2.6990855071,
				"y": -3.571731015,
				"z": 3.3805548134,
				"element": "H" 
			},
			{
				"x": -0.8175875021,
				"y": -4.7325353952,
				"z": 4.5502534346,
				"element": "H" 
			},
			{
				"x": 1.3847347724,
				"y": -3.5100681765,
				"z": 4.7190770259,
				"element": "H" 
			},
			{
				"x": 1.6037090913,
				"y": -1.2665995274,
				"z": 3.7499084706,
				"element": "H" 
			}
		],
		 "valence_orbital": [ 
			{
				"type": "occ",
				"energy": -0.25249,
				"method": "rhf"
			},
			{
				"type": "occ",
				"energy": -0.24989,
				"method": "rhf"
			},
			{
				"type": "occ",
				"energy": -0.23635,
				"method": "rhf"
			},
			{
				"type": "occ",
				"energy": -0.20429,
				"method": "rhf"
			},
			{
				"type": "occ",
				"energy": -0.19157,
				"method": "rhf"
			},
			{
				"type": "unocc",
				"energy": -0.01646,
				"method": "rhf"
			},
			{
				"type": "unocc",
				"energy": -0.01264,
				"method": "rhf"
			},
			{
				"type": "unocc",
				"energy": 0.00679,
				"method": "rhf"
			},
			{
				"type": "unocc",
				"energy": 0.01282,
				"method": "rhf"
			},
			{
				"type": "unocc",
				"energy": 0.08756,
				"method": "rhf"
			}
		],
		"cosmo_sigma_profile": { 
			"-0.025": 0.0,
			"-0.024": 0.0,
			"-0.023": 0.0,
			"-0.022": 0.0,
			"-0.021": 0.0,
			"-0.02": 0.0,
			"-0.019": 0.0,
			"-0.018": 0.0,
			"-0.017": 0.0,
			"-0.016": 0.0,
			"-0.015": 0.0,
			"-0.014": 0.0,
			"-0.013": 0.0,
			"-0.012": 0.0,
			"-0.011": 0.0,
			"-0.01": 0.197445459165,
			"-0.009": 2.12934032842,
			"-0.008": 5.19070933688,
			"-0.007": 7.53862590341,
			"-0.006": 14.7810725525,
			"-0.005": 22.3251172451,
			"-0.004": 33.6719174518,
			"-0.003": 36.2851814039,
			"-0.002": 30.0002080913,
			"-0.001": 20.4393848108,
			"0.0": 17.9169823756,
			"0.001": 14.8198956731,
			"0.002": 16.2431051553,
			"0.003": 20.0708865427,
			"0.004": 25.391932779,
			"0.005": 17.6747922604,
			"0.006": 7.2741884721,
			"0.007": 5.82465993768,
			"0.008": 4.17614278002,
			"0.009": 4.07883777915,
			"0.01": 3.78810482347,
			"0.011": 2.60422217381,
			"0.012": 2.97934051836,
			"0.013": 0.394449860121,
			"0.014": 0.86124416857,
			"0.015": 0.66212130776,
			"0.016": 1.1027642143,
			"0.017": 0.319828799865,
			"0.018": 0.704473659681,
			"0.019": 0.638718588192,
			"0.02": 0.444105479414,
			"0.021": 0.0,
			"0.022": 0.0,
			"0.023": 0.0,
			"0.024": 0.0,
			"0.025": 0.0
		}
	}
}
