{
	 "smiles": "COC1=C(C=C(Br)C=C1)C1NC(=O)NC1=O", 
	 "Tm": 483.15, 
	 "num_atms": 25, 
	 "gaussian": { 
		 "optdone": 1, 
		 "sigma_profile": "yes", 
		 "theory": "DFT", 
		 "functional": "B3LYP", 
		 "basiset": "6-31G**", 
		 "properties": { 
			 "R2extent": 5734.3525, 
			 "electric_dipole_moment_norm": 4.45531770472, 
			 "electric_quadrupole_moment_norm": 6.47208453514, 
			 "total_energy": -3293.09167177, 
			 "HOMO_LUMO_gap": 0.19944, 
			 "cosmo_polarized_energy": -19.16, 
			 "cosmo_cavitation_energy": 32.36, 
			 "cosmo_dispersion_energy": -23.44, 
			 "cosmo_repulsion_energy": 1.87, 
			 "cosmo_total_nonelectrostatic_energy": 10.79, 
			 "SMD_solvation_energy": 6.54 
		},
		"coords": [
			{
				"x": -3.1289522565,
				"y": -0.4428664113,
				"z": 1.1648006369,
				"element": "C" 
			},
			{
				"x": -2.0730333687,
				"y": 0.1006891275,
				"z": 0.3849917107,
				"element": "O" 
			},
			{
				"x": -0.8799063122,
				"y": -0.55551041,
				"z": 0.3499194443,
				"element": "C" 
			},
			{
				"x": 0.1448878861,
				"y": 0.0709117424,
				"z": -0.3895710004,
				"element": "C" 
			},
			{
				"x": 1.3897142861,
				"y": -0.5459268527,
				"z": -0.4921021775,
				"element": "C" 
			},
			{
				"x": 1.6190709144,
				"y": -1.7713179269,
				"z": 0.1324046956,
				"element": "C" 
			},
			{
				"x": 3.3328988121,
				"y": -2.6032444442,
				"z": -0.026122968,
				"element": "Br" 
			},
			{
				"x": 0.6152661376,
				"y": -2.3920993396,
				"z": 0.8663215413,
				"element": "C" 
			},
			{
				"x": -0.637268029,
				"y": -1.7838152984,
				"z": 0.9736328312,
				"element": "C" 
			},
			{
				"x": -0.1220912452,
				"y": 1.4181137427,
				"z": -1.0335734724,
				"element": "C" 
			},
			{
				"x": 0.7189361479,
				"y": 1.7273941714,
				"z": -2.1801701844,
				"element": "N" 
			},
			{
				"x": 1.3106475696,
				"y": 2.9684559302,
				"z": -2.1042683002,
				"element": "C" 
			},
			{
				"x": 1.9627167569,
				"y": 3.5442240451,
				"z": -2.9483003648,
				"element": "O" 
			},
			{
				"x": 1.0084227875,
				"y": 3.4480699004,
				"z": -0.8140360759,
				"element": "N" 
			},
			{
				"x": 0.1960181842,
				"y": 2.6044098994,
				"z": -0.0831645997,
				"element": "C" 
			},
			{
				"x": -0.1894423323,
				"y": 2.7597217837,
				"z": 1.052511101,
				"element": "O" 
			},
			{
				"x": -3.9604090352,
				"y": 0.2564263373,
				"z": 1.0705782005,
				"element": "H" 
			},
			{
				"x": -2.8428437475,
				"y": -0.5248083568,
				"z": 2.2200790724,
				"element": "H" 
			},
			{
				"x": -3.4396246893,
				"y": -1.4277656232,
				"z": 0.7936990181,
				"element": "H" 
			},
			{
				"x": 2.1740090491,
				"y": -0.0682299109,
				"z": -1.0677916529,
				"element": "H" 
			},
			{
				"x": 0.7996489845,
				"y": -3.343904162,
				"z": 1.3511833129,
				"element": "H" 
			},
			{
				"x": -1.4137667095,
				"y": -2.2775647944,
				"z": 1.5449113911,
				"element": "H" 
			},
			{
				"x": -1.1896497884,
				"y": 1.488324929,
				"z": -1.2777226488,
				"element": "H" 
			},
			{
				"x": 0.6080936344,
				"y": 1.2920198454,
				"z": -3.0833116324,
				"element": "H" 
			},
			{
				"x": 1.3912563633,
				"y": 4.3124920758,
				"z": -0.4586978788,
				"element": "H" 
			}
		],
		 "valence_orbital": [ 
			{
				"type": "occ",
				"energy": -0.28803,
				"method": "rhf"
			},
			{
				"type": "occ",
				"energy": -0.27899,
				"method": "rhf"
			},
			{
				"type": "occ",
				"energy": -0.26821,
				"method": "rhf"
			},
			{
				"type": "occ",
				"energy": -0.25983,
				"method": "rhf"
			},
			{
				"type": "occ",
				"energy": -0.22631,
				"method": "rhf"
			},
			{
				"type": "unocc",
				"energy": -0.02687,
				"method": "rhf"
			},
			{
				"type": "unocc",
				"energy": -0.01422,
				"method": "rhf"
			},
			{
				"type": "unocc",
				"energy": -0.00444,
				"method": "rhf"
			},
			{
				"type": "unocc",
				"energy": 0.00748,
				"method": "rhf"
			},
			{
				"type": "unocc",
				"energy": 0.05628,
				"method": "rhf"
			}
		],
		"cosmo_sigma_profile": { 
			"-0.025": 0.0,
			"-0.024": 0.0,
			"-0.023": 0.0,
			"-0.022": 0.0,
			"-0.021": 0.0,
			"-0.02": 0.0,
			"-0.019": 0.0,
			"-0.018": 0.0,
			"-0.017": 0.50753920818,
			"-0.016": 1.56555666037,
			"-0.015": 2.1535191892,
			"-0.014": 2.679760871,
			"-0.013": 2.24278439588,
			"-0.012": 1.73368014904,
			"-0.011": 1.5199212562,
			"-0.01": 1.61908360526,
			"-0.009": 1.76858576743,
			"-0.008": 4.82992850695,
			"-0.007": 9.21421078211,
			"-0.006": 16.1473557879,
			"-0.005": 18.7096044961,
			"-0.004": 16.6550426895,
			"-0.003": 17.3982428874,
			"-0.002": 16.1761504679,
			"-0.001": 12.4104854164,
			"0.0": 11.5065512957,
			"0.001": 13.7948252922,
			"0.002": 17.2048330929,
			"0.003": 22.2815020946,
			"0.004": 16.984228185,
			"0.005": 12.4176892172,
			"0.006": 3.41476368417,
			"0.007": 2.7875414506,
			"0.008": 2.7330692904,
			"0.009": 4.00073115969,
			"0.01": 4.43806912399,
			"0.011": 7.55979644982,
			"0.012": 9.86374806598,
			"0.013": 4.96818827742,
			"0.014": 0.379210930497,
			"0.015": 0.0,
			"0.016": 0.0,
			"0.017": 0.0,
			"0.018": 0.0,
			"0.019": 0.0,
			"0.02": 0.0,
			"0.021": 0.0,
			"0.022": 0.0,
			"0.023": 0.0,
			"0.024": 0.0,
			"0.025": 0.0
		}
	}
}
