{
	 "smiles": "OC(=O)C=CC1=CN(CC2=CC=CC=C2)N=C1", 
	 "Tm": 392.15, 
	 "num_atms": 29, 
	 "gaussian": { 
		 "optdone": 1, 
		 "sigma_profile": "yes", 
		 "theory": "DFT", 
		 "functional": "B3LYP", 
		 "basiset": "6-31G**", 
		 "properties": { 
			 "R2extent": 6457.0167, 
			 "electric_dipole_moment_norm": 6.8552634034, 
			 "electric_quadrupole_moment_norm": 29.1266159996, 
			 "total_energy": -762.539643669, 
			 "HOMO_LUMO_gap": 0.17574, 
			 "cosmo_polarized_energy": -21.7, 
			 "cosmo_cavitation_energy": 35.01, 
			 "cosmo_dispersion_energy": -24.61, 
			 "cosmo_repulsion_energy": 1.91, 
			 "cosmo_total_nonelectrostatic_energy": 12.31, 
			 "SMD_solvation_energy": 6.67 
		},
		"coords": [
			{
				"x": 3.7168944973,
				"y": 4.3924669413,
				"z": 2.1067559729,
				"element": "O" 
			},
			{
				"x": 2.3966044588,
				"y": 4.1495001721,
				"z": 2.3561265712,
				"element": "C" 
			},
			{
				"x": 1.85248678,
				"y": 4.7074660578,
				"z": 3.2833661225,
				"element": "O" 
			},
			{
				"x": 1.7338666829,
				"y": 3.1947624195,
				"z": 1.4376986193,
				"element": "C" 
			},
			{
				"x": 0.4319216019,
				"y": 2.8919718179,
				"z": 1.6124452167,
				"element": "C" 
			},
			{
				"x": -0.3794396689,
				"y": 1.9904026827,
				"z": 0.8272917899,
				"element": "C" 
			},
			{
				"x": -0.0519680844,
				"y": 1.2217397928,
				"z": -0.2908752768,
				"element": "C" 
			},
			{
				"x": -1.1712249619,
				"y": 0.5625296862,
				"z": -0.6623439568,
				"element": "N" 
			},
			{
				"x": -1.3202606245,
				"y": -0.4234770922,
				"z": -1.7314371,
				"element": "C" 
			},
			{
				"x": -0.8572697582,
				"y": -1.8157045569,
				"z": -1.3423359408,
				"element": "C" 
			},
			{
				"x": -1.3868744116,
				"y": -2.4484930514,
				"z": -0.2092669265,
				"element": "C" 
			},
			{
				"x": -0.9722837549,
				"y": -3.7338390516,
				"z": 0.1349018562,
				"element": "C" 
			},
			{
				"x": -0.0296860878,
				"y": -4.4037861804,
				"z": -0.6506149846,
				"element": "C" 
			},
			{
				"x": 0.4986484155,
				"y": -3.780519821,
				"z": -1.7807919628,
				"element": "C" 
			},
			{
				"x": 0.0876172573,
				"y": -2.4896170011,
				"z": -2.1220652544,
				"element": "C" 
			},
			{
				"x": -2.2281344524,
				"y": 0.8329691627,
				"z": 0.1471538462,
				"element": "N" 
			},
			{
				"x": -1.753849037,
				"y": 1.6927221514,
				"z": 1.0403983397,
				"element": "C" 
			},
			{
				"x": 4.0123777483,
				"y": 3.8785554046,
				"z": 1.342827461,
				"element": "H" 
			},
			{
				"x": 2.3131687506,
				"y": 2.748665955,
				"z": 0.6307355293,
				"element": "H" 
			},
			{
				"x": -0.0634742731,
				"y": 3.3865603328,
				"z": 2.4466266223,
				"element": "H" 
			},
			{
				"x": 0.8763924721,
				"y": 1.1029312726,
				"z": -0.8303370492,
				"element": "H" 
			},
			{
				"x": -0.7648797255,
				"y": -0.0670731615,
				"z": -2.6038808582,
				"element": "H" 
			},
			{
				"x": -2.3836555356,
				"y": -0.4174986013,
				"z": -1.9842133721,
				"element": "H" 
			},
			{
				"x": -2.1174552789,
				"y": -1.9243524262,
				"z": 0.4004063575,
				"element": "H" 
			},
			{
				"x": -1.3866330347,
				"y": -4.2155971802,
				"z": 1.0158328316,
				"element": "H" 
			},
			{
				"x": 0.2902706834,
				"y": -5.4061335931,
				"z": -0.3812033083,
				"element": "H" 
			},
			{
				"x": 1.2328073085,
				"y": -4.2938739391,
				"z": -2.3950300907,
				"element": "H" 
			},
			{
				"x": 0.5033454181,
				"y": -2.0058132564,
				"z": -3.0030733731,
				"element": "H" 
			},
			{
				"x": -2.4038133851,
				"y": 2.0871350631,
				"z": 1.8108023182,
				"element": "H" 
			}
		],
		 "valence_orbital": [ 
			{
				"type": "occ",
				"energy": -0.27128,
				"method": "rhf"
			},
			{
				"type": "occ",
				"energy": -0.26276,
				"method": "rhf"
			},
			{
				"type": "occ",
				"energy": -0.2625,
				"method": "rhf"
			},
			{
				"type": "occ",
				"energy": -0.25678,
				"method": "rhf"
			},
			{
				"type": "occ",
				"energy": -0.23292,
				"method": "rhf"
			},
			{
				"type": "unocc",
				"energy": -0.05718,
				"method": "rhf"
			},
			{
				"type": "unocc",
				"energy": -0.01963,
				"method": "rhf"
			},
			{
				"type": "unocc",
				"energy": -0.01321,
				"method": "rhf"
			},
			{
				"type": "unocc",
				"energy": 0.0076,
				"method": "rhf"
			},
			{
				"type": "unocc",
				"energy": 0.06147,
				"method": "rhf"
			}
		],
		"cosmo_sigma_profile": { 
			"-0.025": 0.0,
			"-0.024": 0.0,
			"-0.023": 0.0,
			"-0.022": 0.0,
			"-0.021": 0.0,
			"-0.02": 0.0,
			"-0.019": 0.340641991089,
			"-0.018": 1.38566799855,
			"-0.017": 0.960118691708,
			"-0.016": 1.27909224236,
			"-0.015": 0.850428745581,
			"-0.014": 1.36660074064,
			"-0.013": 0.588079299908,
			"-0.012": 0.884415227938,
			"-0.011": 1.44365417196,
			"-0.01": 2.1134083496,
			"-0.009": 5.17895307808,
			"-0.008": 7.06595211515,
			"-0.007": 11.3592776546,
			"-0.006": 14.1297597298,
			"-0.005": 18.7205392791,
			"-0.004": 18.1080118627,
			"-0.003": 16.7165377672,
			"-0.002": 15.5514327562,
			"-0.001": 14.127163163,
			"0.0": 14.0390366017,
			"0.001": 17.165971842,
			"0.002": 22.2104078983,
			"0.003": 22.9790644063,
			"0.004": 15.4985329166,
			"0.005": 12.6872354086,
			"0.006": 8.29345237291,
			"0.007": 3.52854414961,
			"0.008": 3.40960312256,
			"0.009": 3.64070231424,
			"0.01": 5.16909500414,
			"0.011": 5.17982945937,
			"0.012": 6.72128586083,
			"0.013": 5.32171854609,
			"0.014": 1.85092040989,
			"0.015": 0.376962478588,
			"0.016": 0.0,
			"0.017": 0.0,
			"0.018": 0.0,
			"0.019": 0.0,
			"0.02": 0.0,
			"0.021": 0.0,
			"0.022": 0.0,
			"0.023": 0.0,
			"0.024": 0.0,
			"0.025": 0.0
		}
	}
}
