{
	 "smiles": "CC(C)C(Cl)=O", 
	 "Tm": 183.15, 
	 "num_atms": 13, 
	 "gaussian": { 
		 "optdone": 1, 
		 "sigma_profile": "yes", 
		 "theory": "DFT", 
		 "functional": "B3LYP", 
		 "basiset": "6-31G**", 
		 "properties": { 
			 "R2extent": 1158.7091, 
			 "electric_dipole_moment_norm": 3.12501312157, 
			 "electric_quadrupole_moment_norm": 5.17206704326, 
			 "total_energy": -692.077062204, 
			 "HOMO_LUMO_gap": 0.25476, 
			 "cosmo_polarized_energy": -4.96, 
			 "cosmo_cavitation_energy": 18.1, 
			 "cosmo_dispersion_energy": -13.21, 
			 "cosmo_repulsion_energy": 1.15, 
			 "cosmo_total_nonelectrostatic_energy": 6.05, 
			 "SMD_solvation_energy": 3.98 
		},
		"coords": [
			{
				"x": 1.1040888748,
				"y": -1.2925403667,
				"z": 1.0793348546,
				"element": "C" 
			},
			{
				"x": 0.5395731609,
				"y": -0.3336013833,
				"z": 0.0102796902,
				"element": "C" 
			},
			{
				"x": -0.6197700347,
				"y": 0.5145553719,
				"z": 0.5474252737,
				"element": "C" 
			},
			{
				"x": 0.0820709049,
				"y": -1.1225942157,
				"z": -1.2046244623,
				"element": "C" 
			},
			{
				"x": 1.4937045887,
				"y": -1.8060577345,
				"z": -2.1733910396,
				"element": "Cl" 
			},
			{
				"x": -1.0302512737,
				"y": -1.3358297405,
				"z": -1.5622714051,
				"element": "O" 
			},
			{
				"x": 1.4556436223,
				"y": -0.7101004802,
				"z": 1.9357593076,
				"element": "H" 
			},
			{
				"x": 0.3290532235,
				"y": -1.9807137845,
				"z": 1.4314492354,
				"element": "H" 
			},
			{
				"x": 1.9413531344,
				"y": -1.878143572,
				"z": 0.6938567456,
				"element": "H" 
			},
			{
				"x": 1.3547157499,
				"y": 0.3147452442,
				"z": -0.3313717947,
				"element": "H" 
			},
			{
				"x": -0.277359046,
				"y": 1.1088326381,
				"z": 1.3996342567,
				"element": "H" 
			},
			{
				"x": -1.0042553189,
				"y": 1.1965671498,
				"z": -0.2155290045,
				"element": "H" 
			},
			{
				"x": -1.4467675862,
				"y": -0.1195191267,
				"z": 0.8782483423,
				"element": "H" 
			}
		],
		 "valence_orbital": [ 
			{
				"type": "occ",
				"energy": -0.36561,
				"method": "rhf"
			},
			{
				"type": "occ",
				"energy": -0.36274,
				"method": "rhf"
			},
			{
				"type": "occ",
				"energy": -0.3182,
				"method": "rhf"
			},
			{
				"type": "occ",
				"energy": -0.31415,
				"method": "rhf"
			},
			{
				"type": "occ",
				"energy": -0.29334,
				"method": "rhf"
			},
			{
				"type": "unocc",
				"energy": -0.03858,
				"method": "rhf"
			},
			{
				"type": "unocc",
				"energy": 0.01727,
				"method": "rhf"
			},
			{
				"type": "unocc",
				"energy": 0.08091,
				"method": "rhf"
			},
			{
				"type": "unocc",
				"energy": 0.12659,
				"method": "rhf"
			},
			{
				"type": "unocc",
				"energy": 0.13583,
				"method": "rhf"
			}
		],
		"cosmo_sigma_profile": { 
			"-0.025": 0.0,
			"-0.024": 0.0,
			"-0.023": 0.0,
			"-0.022": 0.0,
			"-0.021": 0.0,
			"-0.02": 0.0,
			"-0.019": 0.0,
			"-0.018": 0.0,
			"-0.017": 0.0,
			"-0.016": 0.0,
			"-0.015": 0.0,
			"-0.014": 0.0,
			"-0.013": 0.0,
			"-0.012": 0.0,
			"-0.011": 0.0,
			"-0.01": 0.0,
			"-0.009": 0.0,
			"-0.008": 0.0,
			"-0.007": 1.28878796289,
			"-0.006": 3.86352116125,
			"-0.005": 9.72795317779,
			"-0.004": 17.946139935,
			"-0.003": 11.9240069087,
			"-0.002": 15.2908805782,
			"-0.001": 16.0861344877,
			"0.0": 14.24546177,
			"0.001": 7.2643501756,
			"0.002": 6.21162559215,
			"0.003": 6.64195134448,
			"0.004": 9.07229953317,
			"0.005": 10.2146048057,
			"0.006": 4.17096443774,
			"0.007": 3.39305519041,
			"0.008": 4.71432154503,
			"0.009": 2.28628579426,
			"0.01": 0.015703675775,
			"0.011": 0.0,
			"0.012": 0.0,
			"0.013": 0.0,
			"0.014": 0.0,
			"0.015": 0.0,
			"0.016": 0.0,
			"0.017": 0.0,
			"0.018": 0.0,
			"0.019": 0.0,
			"0.02": 0.0,
			"0.021": 0.0,
			"0.022": 0.0,
			"0.023": 0.0,
			"0.024": 0.0,
			"0.025": 0.0
		}
	}
}
