{
	 "smiles": "CC(C)OC1=CC=C(C=C1)C(O)=O", 
	 "Tm": 438.15, 
	 "num_atms": 25, 
	 "gaussian": { 
		 "optdone": 1, 
		 "sigma_profile": "yes", 
		 "theory": "DFT", 
		 "functional": "B3LYP", 
		 "basiset": "6-31G**", 
		 "properties": { 
			 "R2extent": 3595.2573, 
			 "electric_dipole_moment_norm": 2.84125355961, 
			 "electric_quadrupole_moment_norm": 10.5392334968, 
			 "total_energy": -613.993268971, 
			 "HOMO_LUMO_gap": 0.19237, 
			 "cosmo_polarized_energy": -10.67, 
			 "cosmo_cavitation_energy": 28.77, 
			 "cosmo_dispersion_energy": -20.95, 
			 "cosmo_repulsion_energy": 1.67, 
			 "cosmo_total_nonelectrostatic_energy": 9.49, 
			 "SMD_solvation_energy": 6.55 
		},
		"coords": [
			{
				"x": -1.3137054012,
				"y": -3.8780898862,
				"z": 0.0496262606,
				"element": "C" 
			},
			{
				"x": -0.8681240892,
				"y": -2.5123984356,
				"z": 0.5592188531,
				"element": "C" 
			},
			{
				"x": 0.0041299438,
				"y": -2.60491653,
				"z": 1.8109164537,
				"element": "C" 
			},
			{
				"x": -0.1276573755,
				"y": -1.9169738557,
				"z": -0.5272315189,
				"element": "O" 
			},
			{
				"x": 0.0396650463,
				"y": -0.572223271,
				"z": -0.606885841,
				"element": "C" 
			},
			{
				"x": -0.4952215301,
				"y": 0.368202134,
				"z": 0.2895463799,
				"element": "C" 
			},
			{
				"x": -0.2633585378,
				"y": 1.7244976285,
				"z": 0.0811994291,
				"element": "C" 
			},
			{
				"x": 0.4976397155,
				"y": 2.1707769486,
				"z": -1.0052207035,
				"element": "C" 
			},
			{
				"x": 1.032397574,
				"y": 1.2240425398,
				"z": -1.8964187264,
				"element": "C" 
			},
			{
				"x": 0.8071474274,
				"y": -0.128752386,
				"z": -1.6997076796,
				"element": "C" 
			},
			{
				"x": 0.7062466303,
				"y": 3.6260437309,
				"z": -1.1646414821,
				"element": "C" 
			},
			{
				"x": 1.4579461612,
				"y": 3.9425411699,
				"z": -2.2532362684,
				"element": "O" 
			},
			{
				"x": 0.2676932126,
				"y": 4.484157203,
				"z": -0.4208786037,
				"element": "O" 
			},
			{
				"x": -0.4439949733,
				"y": -4.4944736694,
				"z": -0.1980087944,
				"element": "H" 
			},
			{
				"x": -1.8991892616,
				"y": -4.3961915836,
				"z": 0.8151013853,
				"element": "H" 
			},
			{
				"x": -1.9284853135,
				"y": -3.7729875261,
				"z": -0.8481582666,
				"element": "H" 
			},
			{
				"x": -1.7565478407,
				"y": -1.8994920861,
				"z": 0.7593116949,
				"element": "H" 
			},
			{
				"x": -0.5595059512,
				"y": -3.0550675706,
				"z": 2.634434365,
				"element": "H" 
			},
			{
				"x": 0.3521307489,
				"y": -1.6204739363,
				"z": 2.1343474496,
				"element": "H" 
			},
			{
				"x": 0.8810682028,
				"y": -3.2284706571,
				"z": 1.6109562887,
				"element": "H" 
			},
			{
				"x": -1.0843668647,
				"y": 0.0572003816,
				"z": 1.143286422,
				"element": "H" 
			},
			{
				"x": -0.6703003081,
				"y": 2.4622677172,
				"z": 0.7647803698,
				"element": "H" 
			},
			{
				"x": 1.6235024641,
				"y": 1.5581712256,
				"z": -2.7416059345,
				"element": "H" 
			},
			{
				"x": 1.2100424924,
				"y": -0.872600882,
				"z": -2.3789077888,
				"element": "H" 
			},
			{
				"x": 1.5225478276,
				"y": 4.9113115967,
				"z": -2.2489237438,
				"element": "H" 
			}
		],
		 "valence_orbital": [ 
			{
				"type": "occ",
				"energy": -0.32311,
				"method": "rhf"
			},
			{
				"type": "occ",
				"energy": -0.30709,
				"method": "rhf"
			},
			{
				"type": "occ",
				"energy": -0.26784,
				"method": "rhf"
			},
			{
				"type": "occ",
				"energy": -0.25881,
				"method": "rhf"
			},
			{
				"type": "occ",
				"energy": -0.22671,
				"method": "rhf"
			},
			{
				"type": "unocc",
				"energy": -0.03434,
				"method": "rhf"
			},
			{
				"type": "unocc",
				"energy": -0.00718,
				"method": "rhf"
			},
			{
				"type": "unocc",
				"energy": 0.06935,
				"method": "rhf"
			},
			{
				"type": "unocc",
				"energy": 0.08161,
				"method": "rhf"
			},
			{
				"type": "unocc",
				"energy": 0.08713,
				"method": "rhf"
			}
		],
		"cosmo_sigma_profile": { 
			"-0.025": 0.0,
			"-0.024": 0.0,
			"-0.023": 0.0,
			"-0.022": 0.0,
			"-0.021": 0.0,
			"-0.02": 0.0,
			"-0.019": 0.0,
			"-0.018": 0.500016890915,
			"-0.017": 0.784666261876,
			"-0.016": 0.909546537629,
			"-0.015": 0.50174788458,
			"-0.014": 1.05134809189,
			"-0.013": 1.13545765997,
			"-0.012": 0.267978531026,
			"-0.011": 0.583367052117,
			"-0.01": 0.83329885396,
			"-0.009": 0.523186207912,
			"-0.008": 0.623006242571,
			"-0.007": 3.43540160911,
			"-0.006": 7.43820368624,
			"-0.005": 11.1715681731,
			"-0.004": 19.7758729882,
			"-0.003": 20.110837531,
			"-0.002": 18.7348166488,
			"-0.001": 19.751604574,
			"0.0": 23.5986790917,
			"0.001": 18.1324440822,
			"0.002": 15.6622807941,
			"0.003": 16.8144500328,
			"0.004": 13.3056713608,
			"0.005": 5.10666043414,
			"0.006": 4.55824745531,
			"0.007": 4.23511006655,
			"0.008": 4.07521986081,
			"0.009": 2.52665014988,
			"0.01": 2.11363512311,
			"0.011": 2.78930604174,
			"0.012": 5.17815990858,
			"0.013": 1.23394921032,
			"0.014": 0.0,
			"0.015": 0.0,
			"0.016": 0.0,
			"0.017": 0.0,
			"0.018": 0.0,
			"0.019": 0.0,
			"0.02": 0.0,
			"0.021": 0.0,
			"0.022": 0.0,
			"0.023": 0.0,
			"0.024": 0.0,
			"0.025": 0.0
		}
	}
}
