{
	 "smiles": "COC1=CC(Br)=C2C(=O)C(=O)NC2=C1", 
	 "Tm": 453.15, 
	 "num_atms": 20, 
	 "gaussian": { 
		 "optdone": 1, 
		 "sigma_profile": "yes", 
		 "theory": "DFT", 
		 "functional": "B3LYP", 
		 "basiset": "6-31G**", 
		 "properties": { 
			 "R2extent": 4212.8431, 
			 "electric_dipole_moment_norm": 7.60472419552, 
			 "electric_quadrupole_moment_norm": 12.0215189169, 
			 "total_energy": -3198.38809183, 
			 "HOMO_LUMO_gap": 0.14922, 
			 "cosmo_polarized_energy": -18.76, 
			 "cosmo_cavitation_energy": 27.71, 
			 "cosmo_dispersion_energy": -20.77, 
			 "cosmo_repulsion_energy": 1.63, 
			 "cosmo_total_nonelectrostatic_energy": 8.57, 
			 "SMD_solvation_energy": 5.78 
		},
		"coords": [
			{
				"x": 3.8639828186,
				"y": 0.6949143365,
				"z": -1.2435453494,
				"element": "C" 
			},
			{
				"x": 2.5858963112,
				"y": 0.5070890009,
				"z": -1.8463114388,
				"element": "O" 
			},
			{
				"x": 1.4774163347,
				"y": 0.5864895914,
				"z": -1.0770827722,
				"element": "C" 
			},
			{
				"x": 1.5022612465,
				"y": 0.8467449137,
				"z": 0.3039867677,
				"element": "C" 
			},
			{
				"x": 0.2983138091,
				"y": 0.9081987718,
				"z": 1.007032857,
				"element": "C" 
			},
			{
				"x": 0.3554226937,
				"y": 1.2607628029,
				"z": 2.8709221985,
				"element": "Br" 
			},
			{
				"x": -0.9177372026,
				"y": 0.7156939058,
				"z": 0.3588164397,
				"element": "C" 
			},
			{
				"x": -2.3163675571,
				"y": 0.7175397988,
				"z": 0.8053815909,
				"element": "C" 
			},
			{
				"x": -2.8091133714,
				"y": 0.89408967,
				"z": 1.8981477271,
				"element": "O" 
			},
			{
				"x": -3.1524736401,
				"y": 0.4270563153,
				"z": -0.489398455,
				"element": "C" 
			},
			{
				"x": -4.3533522957,
				"y": 0.3374879929,
				"z": -0.5942903365,
				"element": "O" 
			},
			{
				"x": -2.2126057043,
				"y": 0.2917039141,
				"z": -1.5023960576,
				"element": "N" 
			},
			{
				"x": -0.9057667787,
				"y": 0.4550447538,
				"z": -1.0364018312,
				"element": "C" 
			},
			{
				"x": 0.2626897231,
				"y": 0.3864514293,
				"z": -1.7662396037,
				"element": "C" 
			},
			{
				"x": 3.9545515818,
				"y": 1.6948997097,
				"z": -0.8040554977,
				"element": "H" 
			},
			{
				"x": 4.0574663962,
				"y": -0.0619666366,
				"z": -0.4747675757,
				"element": "H" 
			},
			{
				"x": 4.5894069756,
				"y": 0.5862635483,
				"z": -2.0499389087,
				"element": "H" 
			},
			{
				"x": 2.4330314646,
				"y": 0.9999305644,
				"z": 0.8312976581,
				"element": "H" 
			},
			{
				"x": -2.4638601109,
				"y": 0.0976605935,
				"z": -2.4607124848,
				"element": "H" 
			},
			{
				"x": 0.2839373057,
				"y": 0.1881450235,
				"z": -2.8316449276,
				"element": "H" 
			}
		],
		 "valence_orbital": [ 
			{
				"type": "occ",
				"energy": -0.29208,
				"method": "rhf"
			},
			{
				"type": "occ",
				"energy": -0.29045,
				"method": "rhf"
			},
			{
				"type": "occ",
				"energy": -0.25303,
				"method": "rhf"
			},
			{
				"type": "occ",
				"energy": -0.24402,
				"method": "rhf"
			},
			{
				"type": "occ",
				"energy": -0.24225,
				"method": "rhf"
			},
			{
				"type": "unocc",
				"energy": -0.09303,
				"method": "rhf"
			},
			{
				"type": "unocc",
				"energy": -0.02952,
				"method": "rhf"
			},
			{
				"type": "unocc",
				"energy": -0.00158,
				"method": "rhf"
			},
			{
				"type": "unocc",
				"energy": 0.01095,
				"method": "rhf"
			},
			{
				"type": "unocc",
				"energy": 0.07337,
				"method": "rhf"
			}
		],
		"cosmo_sigma_profile": { 
			"-0.025": 0.0,
			"-0.024": 0.0,
			"-0.023": 0.0,
			"-0.022": 0.0,
			"-0.021": 0.0,
			"-0.02": 0.0,
			"-0.019": 0.0,
			"-0.018": 0.0,
			"-0.017": 0.787619573699,
			"-0.016": 1.50958611651,
			"-0.015": 1.11372644582,
			"-0.014": 1.21124732275,
			"-0.013": 1.85662011797,
			"-0.012": 0.904790949264,
			"-0.011": 0.945025800614,
			"-0.01": 1.0379494871,
			"-0.009": 1.76724018863,
			"-0.008": 4.83725153383,
			"-0.007": 9.2976035014,
			"-0.006": 13.2801297551,
			"-0.005": 13.7289909931,
			"-0.004": 15.213262504,
			"-0.003": 12.537291784,
			"-0.002": 11.1638363096,
			"-0.001": 15.6696572235,
			"0.0": 20.399354981,
			"0.001": 19.6732732228,
			"0.002": 12.1035807316,
			"0.003": 11.6649168977,
			"0.004": 9.61909906118,
			"0.005": 3.5943179904,
			"0.006": 4.34527133931,
			"0.007": 4.16324317123,
			"0.008": 6.1557645316,
			"0.009": 4.84239606897,
			"0.01": 7.68521480539,
			"0.011": 10.1423301725,
			"0.012": 4.42490910871,
			"0.013": 0.378564089914,
			"0.014": 0.0,
			"0.015": 0.0,
			"0.016": 0.0,
			"0.017": 0.0,
			"0.018": 0.0,
			"0.019": 0.0,
			"0.02": 0.0,
			"0.021": 0.0,
			"0.022": 0.0,
			"0.023": 0.0,
			"0.024": 0.0,
			"0.025": 0.0
		}
	}
}
