{
	 "smiles": "CC1=NN(C(C)=C1)C1=NC=C(C=C1)C(O)=O", 
	 "Tm": 515.15, 
	 "num_atms": 27, 
	 "gaussian": { 
		 "optdone": 1, 
		 "sigma_profile": "yes", 
		 "theory": "DFT", 
		 "functional": "B3LYP", 
		 "basiset": "6-31G**", 
		 "properties": { 
			 "R2extent": 4818.7199, 
			 "electric_dipole_moment_norm": 6.81719041908, 
			 "electric_quadrupole_moment_norm": 13.2838452806, 
			 "total_energy": -740.491313055, 
			 "HOMO_LUMO_gap": 0.17114, 
			 "cosmo_polarized_energy": -24.15, 
			 "cosmo_cavitation_energy": 31.89, 
			 "cosmo_dispersion_energy": -23.19, 
			 "cosmo_repulsion_energy": 1.81, 
			 "cosmo_total_nonelectrostatic_energy": 10.51, 
			 "SMD_solvation_energy": 4.63 
		},
		"coords": [
			{
				"x": -3.5550754946,
				"y": 2.7498571364,
				"z": 2.2311262372,
				"element": "C" 
			},
			{
				"x": -2.2625366014,
				"y": 1.9935269361,
				"z": 2.2145008466,
				"element": "C" 
			},
			{
				"x": -1.9260663558,
				"y": 1.2643687482,
				"z": 1.1614451783,
				"element": "N" 
			},
			{
				"x": -0.719518503,
				"y": 0.703790072,
				"z": 1.4836190837,
				"element": "N" 
			},
			{
				"x": -0.2843605009,
				"y": 1.0934533307,
				"z": 2.7393649205,
				"element": "C" 
			},
			{
				"x": 1.0259054108,
				"y": 0.7133220842,
				"z": 3.3571365237,
				"element": "C" 
			},
			{
				"x": -1.2647015768,
				"y": 1.9260337477,
				"z": 3.2269499203,
				"element": "C" 
			},
			{
				"x": -0.0778701522,
				"y": -0.1201609702,
				"z": 0.5339044865,
				"element": "C" 
			},
			{
				"x": -0.2023682673,
				"y": 0.2432492784,
				"z": -0.7471697335,
				"element": "N" 
			},
			{
				"x": 0.3810878321,
				"y": -0.5185922839,
				"z": -1.668662793,
				"element": "C" 
			},
			{
				"x": 1.1514374012,
				"y": -1.6556483025,
				"z": -1.377494385,
				"element": "C" 
			},
			{
				"x": 1.2526065774,
				"y": -2.0308189351,
				"z": -0.0324470424,
				"element": "C" 
			},
			{
				"x": 0.6214530401,
				"y": -1.2668614566,
				"z": 0.9410612172,
				"element": "C" 
			},
			{
				"x": 1.7621641819,
				"y": -2.4085175537,
				"z": -2.5154376044,
				"element": "C" 
			},
			{
				"x": 2.7928501042,
				"y": -3.2454893849,
				"z": -2.2144130324,
				"element": "O" 
			},
			{
				"x": 1.3823891457,
				"y": -2.3032157874,
				"z": -3.6571888944,
				"element": "O" 
			},
			{
				"x": -4.2023629352,
				"y": 2.4161227911,
				"z": 3.049887604,
				"element": "H" 
			},
			{
				"x": -4.0832856723,
				"y": 2.6001032367,
				"z": 1.2873830785,
				"element": "H" 
			},
			{
				"x": -3.3841092186,
				"y": 3.8235758625,
				"z": 2.3673414402,
				"element": "H" 
			},
			{
				"x": 1.8420667081,
				"y": 0.7198361824,
				"z": 2.6282288225,
				"element": "H" 
			},
			{
				"x": 1.2704720117,
				"y": 1.4322249053,
				"z": 4.1425071814,
				"element": "H" 
			},
			{
				"x": 1.0033582604,
				"y": -0.279677629,
				"z": 3.8218443631,
				"element": "H" 
			},
			{
				"x": -1.2545843961,
				"y": 2.4335951267,
				"z": 4.181238711,
				"element": "H" 
			},
			{
				"x": 0.2562540884,
				"y": -0.2198751721,
				"z": -2.7062447615,
				"element": "H" 
			},
			{
				"x": 1.7687951418,
				"y": -2.9409665356,
				"z": 0.2640763049,
				"element": "H" 
			},
			{
				"x": 0.6342280286,
				"y": -1.5725250542,
				"z": 1.9790961568,
				"element": "H" 
			},
			{
				"x": 3.0977717417,
				"y": -3.0974103732,
				"z": -1.3089538296,
				"element": "H" 
			}
		],
		 "valence_orbital": [ 
			{
				"type": "occ",
				"energy": -0.29087,
				"method": "rhf"
			},
			{
				"type": "occ",
				"energy": -0.28201,
				"method": "rhf"
			},
			{
				"type": "occ",
				"energy": -0.26981,
				"method": "rhf"
			},
			{
				"type": "occ",
				"energy": -0.24347,
				"method": "rhf"
			},
			{
				"type": "occ",
				"energy": -0.2399,
				"method": "rhf"
			},
			{
				"type": "unocc",
				"energy": -0.06876,
				"method": "rhf"
			},
			{
				"type": "unocc",
				"energy": -0.04553,
				"method": "rhf"
			},
			{
				"type": "unocc",
				"energy": 0.00842,
				"method": "rhf"
			},
			{
				"type": "unocc",
				"energy": 0.04363,
				"method": "rhf"
			},
			{
				"type": "unocc",
				"energy": 0.0509,
				"method": "rhf"
			}
		],
		"cosmo_sigma_profile": { 
			"-0.025": 0.0,
			"-0.024": 0.0,
			"-0.023": 0.0,
			"-0.022": 0.0,
			"-0.021": 0.0,
			"-0.02": 0.161279251892,
			"-0.019": 0.775500346036,
			"-0.018": 1.13550746379,
			"-0.017": 1.31398742593,
			"-0.016": 0.807044852169,
			"-0.015": 0.671350745534,
			"-0.014": 1.3897806,
			"-0.013": 1.38178798483,
			"-0.012": 0.851546621086,
			"-0.011": 1.46102593175,
			"-0.01": 1.50231587803,
			"-0.009": 3.15961680954,
			"-0.008": 5.8440692188,
			"-0.007": 6.48848086479,
			"-0.006": 9.19847577813,
			"-0.005": 15.7981703105,
			"-0.004": 18.9840397081,
			"-0.003": 19.135720451,
			"-0.002": 24.2643687868,
			"-0.001": 27.2948046291,
			"0.0": 21.5582098712,
			"0.001": 9.76570066395,
			"0.002": 8.17454408494,
			"0.003": 9.37341138571,
			"0.004": 9.19015275215,
			"0.005": 7.32275774571,
			"0.006": 4.84620016642,
			"0.007": 4.93389442719,
			"0.008": 5.32788730726,
			"0.009": 4.78423542023,
			"0.01": 6.37947880125,
			"0.011": 7.27379579477,
			"0.012": 4.89330185831,
			"0.013": 2.46667138749,
			"0.014": 1.67031606062,
			"0.015": 1.56267537798,
			"0.016": 0.815138049764,
			"0.017": 1.57035685891,
			"0.018": 1.17839019775,
			"0.019": 0.217289591629,
			"0.02": 0.0,
			"0.021": 0.0,
			"0.022": 0.0,
			"0.023": 0.0,
			"0.024": 0.0,
			"0.025": 0.0
		}
	}
}
