{
	 "smiles": "CC1=CC=C(C=C1)S(=O)(=O)OC(C(F)(F)F)C(F)(F)F", 
	 "Tm": 312.65, 
	 "num_atms": 28, 
	 "gaussian": { 
		 "optdone": 1, 
		 "sigma_profile": "yes", 
		 "theory": "DFT", 
		 "functional": "B3LYP", 
		 "basiset": "6-31G**", 
		 "properties": { 
			 "R2extent": 7143.6919, 
			 "electric_dipole_moment_norm": 5.48988770559, 
			 "electric_quadrupole_moment_norm": 10.1443182989, 
			 "total_energy": -1608.72247856, 
			 "HOMO_LUMO_gap": 0.21986, 
			 "cosmo_polarized_energy": -10.31, 
			 "cosmo_cavitation_energy": 36.53, 
			 "cosmo_dispersion_energy": -25.0, 
			 "cosmo_repulsion_energy": 1.77, 
			 "cosmo_total_nonelectrostatic_energy": 13.3, 
			 "SMD_solvation_energy": 7.53 
		},
		"coords": [
			{
				"x": 1.0161914918,
				"y": 1.1910491303,
				"z": -4.4677344887,
				"element": "C" 
			},
			{
				"x": 0.9747251596,
				"y": 0.6753113347,
				"z": -3.0503075843,
				"element": "C" 
			},
			{
				"x": 0.2470454052,
				"y": -0.4833038042,
				"z": -2.7338309914,
				"element": "C" 
			},
			{
				"x": 0.1776650483,
				"y": -0.9573102894,
				"z": -1.4279913948,
				"element": "C" 
			},
			{
				"x": 0.8524723718,
				"y": -0.2577423892,
				"z": -0.424102778,
				"element": "C" 
			},
			{
				"x": 1.589139796,
				"y": 0.893356257,
				"z": -0.7038335914,
				"element": "C" 
			},
			{
				"x": 1.6442114291,
				"y": 1.3492358694,
				"z": -2.0195327704,
				"element": "C" 
			},
			{
				"x": 0.7854339224,
				"y": -0.8519175291,
				"z": 1.2490516701,
				"element": "S" 
			},
			{
				"x": 0.6134984157,
				"y": -2.304265233,
				"z": 1.2630422256,
				"element": "O" 
			},
			{
				"x": 1.8111761856,
				"y": -0.1925822763,
				"z": 2.0409445015,
				"element": "O" 
			},
			{
				"x": -0.6851948071,
				"y": -0.182858761,
				"z": 1.7314739957,
				"element": "O" 
			},
			{
				"x": -1.6695040551,
				"y": -1.045636395,
				"z": 2.2778143747,
				"element": "C" 
			},
			{
				"x": -2.9378859376,
				"y": -0.8952757753,
				"z": 1.4308547358,
				"element": "C" 
			},
			{
				"x": -3.3923535271,
				"y": 0.3639307294,
				"z": 1.4110397985,
				"element": "F" 
			},
			{
				"x": -2.66854092,
				"y": -1.2624908414,
				"z": 0.1604180349,
				"element": "F" 
			},
			{
				"x": -3.9138614821,
				"y": -1.6936373468,
				"z": 1.8963393753,
				"element": "F" 
			},
			{
				"x": -1.8555358321,
				"y": -0.6853550129,
				"z": 3.7571554128,
				"element": "C" 
			},
			{
				"x": -0.6851741107,
				"y": -0.8341516387,
				"z": 4.3981491289,
				"element": "F" 
			},
			{
				"x": -2.7575241013,
				"y": -1.5060918577,
				"z": 4.3270528363,
				"element": "F" 
			},
			{
				"x": -2.2714922944,
				"y": 0.5780025804,
				"z": 3.9216234648,
				"element": "F" 
			},
			{
				"x": 1.0566072463,
				"y": 0.3706286424,
				"z": -5.1903837418,
				"element": "H" 
			},
			{
				"x": 1.8818580471,
				"y": 1.8374751901,
				"z": -4.6343728872,
				"element": "H" 
			},
			{
				"x": 0.1178181695,
				"y": 1.7786123666,
				"z": -4.6934584318,
				"element": "H" 
			},
			{
				"x": -0.2684640914,
				"y": -1.0235870346,
				"z": -3.5230073368,
				"element": "H" 
			},
			{
				"x": -0.3797928531,
				"y": -1.8556611618,
				"z": -1.1900343055,
				"element": "H" 
			},
			{
				"x": 2.1151070354,
				"y": 1.4077135711,
				"z": 0.0924596096,
				"element": "H" 
			},
			{
				"x": 2.2207235437,
				"y": 2.2409835802,
				"z": -2.2486842736,
				"element": "H" 
			},
			{
				"x": -1.3551492554,
				"y": -2.0923319053,
				"z": 2.2254554111,
				"element": "H" 
			}
		],
		 "valence_orbital": [ 
			{
				"type": "occ",
				"energy": -0.33845,
				"method": "rhf"
			},
			{
				"type": "occ",
				"energy": -0.33512,
				"method": "rhf"
			},
			{
				"type": "occ",
				"energy": -0.32084,
				"method": "rhf"
			},
			{
				"type": "occ",
				"energy": -0.28176,
				"method": "rhf"
			},
			{
				"type": "occ",
				"energy": -0.27589,
				"method": "rhf"
			},
			{
				"type": "unocc",
				"energy": -0.05603,
				"method": "rhf"
			},
			{
				"type": "unocc",
				"energy": -0.03189,
				"method": "rhf"
			},
			{
				"type": "unocc",
				"energy": 0.01455,
				"method": "rhf"
			},
			{
				"type": "unocc",
				"energy": 0.05401,
				"method": "rhf"
			},
			{
				"type": "unocc",
				"energy": 0.06867,
				"method": "rhf"
			}
		],
		"cosmo_sigma_profile": { 
			"-0.025": 0.0,
			"-0.024": 0.0,
			"-0.023": 0.0,
			"-0.022": 0.0,
			"-0.021": 0.0,
			"-0.02": 0.0,
			"-0.019": 0.0,
			"-0.018": 0.0,
			"-0.017": 0.0,
			"-0.016": 0.0,
			"-0.015": 0.0,
			"-0.014": 0.0,
			"-0.013": 0.0414241276641,
			"-0.012": 1.18534174152,
			"-0.011": 1.24692344909,
			"-0.01": 1.02733593149,
			"-0.009": 0.993414663755,
			"-0.008": 1.4910513538,
			"-0.007": 8.04175140946,
			"-0.006": 11.5929862526,
			"-0.005": 15.8335999455,
			"-0.004": 15.3949358477,
			"-0.003": 16.7146851062,
			"-0.002": 19.4896293779,
			"-0.001": 20.8783148223,
			"0.0": 25.4669530702,
			"0.001": 43.7570731696,
			"0.002": 64.9594431862,
			"0.003": 11.1481655118,
			"0.004": 5.32142870801,
			"0.005": 4.58548257688,
			"0.006": 3.60652282856,
			"0.007": 3.48003729929,
			"0.008": 6.60120444043,
			"0.009": 8.38461742547,
			"0.01": 1.34995849369,
			"0.011": 0.0,
			"0.012": 0.0,
			"0.013": 0.0,
			"0.014": 0.0,
			"0.015": 0.0,
			"0.016": 0.0,
			"0.017": 0.0,
			"0.018": 0.0,
			"0.019": 0.0,
			"0.02": 0.0,
			"0.021": 0.0,
			"0.022": 0.0,
			"0.023": 0.0,
			"0.024": 0.0,
			"0.025": 0.0
		}
	}
}
