{
	 "smiles": "[O-][N+](=O)C1=CC=C(C=C1)N=C=NC1=CC=C(C=C1)[N+]([O-])=O", 
	 "Tm": 440.15, 
	 "num_atms": 29, 
	 "gaussian": { 
		 "optdone": 1, 
		 "sigma_profile": "yes", 
		 "theory": "DFT", 
		 "functional": "B3LYP", 
		 "basiset": "6-31G**", 
		 "properties": { 
			 "R2extent": 12963.6323, 
			 "electric_dipole_moment_norm": 2.50580671641, 
			 "electric_quadrupole_moment_norm": 50.2561935309, 
			 "total_energy": -1019.8826348, 
			 "HOMO_LUMO_gap": 0.1598, 
			 "cosmo_polarized_energy": -15.87, 
			 "cosmo_cavitation_energy": 38.08, 
			 "cosmo_dispersion_energy": -27.28, 
			 "cosmo_repulsion_energy": 2.07, 
			 "cosmo_total_nonelectrostatic_energy": 12.87, 
			 "SMD_solvation_energy": 11.43 
		},
		"coords": [
			{
				"x": 0.6553584459,
				"y": -7.060082395,
				"z": -2.392609055,
				"element": "O" 
			},
			{
				"x": 0.5860115885,
				"y": -5.8831899937,
				"z": -2.7460031734,
				"element": "N" 
			},
			{
				"x": 0.2115648159,
				"y": -5.5032735993,
				"z": -3.8554313361,
				"element": "O" 
			},
			{
				"x": 0.9784855493,
				"y": -4.8562742828,
				"z": -1.7722702947,
				"element": "C" 
			},
			{
				"x": 0.9116779907,
				"y": -3.512639964,
				"z": -2.1423744695,
				"element": "C" 
			},
			{
				"x": 1.2818610635,
				"y": -2.5421035657,
				"z": -1.2214020627,
				"element": "C" 
			},
			{
				"x": 1.7155567884,
				"y": -2.9188568564,
				"z": 0.0626921157,
				"element": "C" 
			},
			{
				"x": 1.777866259,
				"y": -4.2764746693,
				"z": 0.4121901679,
				"element": "C" 
			},
			{
				"x": 1.4075393416,
				"y": -5.251297066,
				"z": -0.5059191078,
				"element": "C" 
			},
			{
				"x": 2.1064559189,
				"y": -1.9831714187,
				"z": 1.0254328786,
				"element": "N" 
			},
			{
				"x": 2.0890601806,
				"y": -0.7604315607,
				"z": 1.0596468838,
				"element": "C" 
			},
			{
				"x": 2.2610298641,
				"y": 0.4465486602,
				"z": 1.1603802406,
				"element": "N" 
			},
			{
				"x": 1.4988748056,
				"y": 1.4786512246,
				"z": 1.716273491,
				"element": "C" 
			},
			{
				"x": 0.3118932501,
				"y": 1.2373434163,
				"z": 2.4316724749,
				"element": "C" 
			},
			{
				"x": -0.4032567915,
				"y": 2.2987216742,
				"z": 2.9694587051,
				"element": "C" 
			},
			{
				"x": 0.0748719075,
				"y": 3.5969227917,
				"z": 2.7881970775,
				"element": "C" 
			},
			{
				"x": 1.2499587925,
				"y": 3.8578759598,
				"z": 2.0847385715,
				"element": "C" 
			},
			{
				"x": 1.9628860592,
				"y": 2.7923983447,
				"z": 1.5491855258,
				"element": "C" 
			},
			{
				"x": -0.6820014105,
				"y": 4.7200394092,
				"z": 3.3561000934,
				"element": "N" 
			},
			{
				"x": -1.7151419633,
				"y": 4.4577640915,
				"z": 3.9718949916,
				"element": "O" 
			},
			{
				"x": -0.2368803146,
				"y": 5.8540404998,
				"z": 3.1809397483,
				"element": "O" 
			},
			{
				"x": 0.5739259231,
				"y": -3.2517984896,
				"z": -3.1375467983,
				"element": "H" 
			},
			{
				"x": 1.2408978431,
				"y": -1.4909260437,
				"z": -1.4893715894,
				"element": "H" 
			},
			{
				"x": 2.1185902067,
				"y": -4.5471818955,
				"z": 1.4052101921,
				"element": "H" 
			},
			{
				"x": 1.445275489,
				"y": -6.3054405168,
				"z": -0.262037239,
				"element": "H" 
			},
			{
				"x": -0.0400468157,
				"y": 0.2189200002,
				"z": 2.5636155855,
				"element": "H" 
			},
			{
				"x": -1.3198363108,
				"y": 2.1427276758,
				"z": 3.5244632164,
				"element": "H" 
			},
			{
				"x": 1.5848818213,
				"y": 4.8809690463,
				"z": 1.9697419697,
				"element": "H" 
			},
			{
				"x": 2.8819397019,
				"y": 2.9578195229,
				"z": 0.9983311965,
				"element": "H" 
			}
		],
		 "valence_orbital": [ 
			{
				"type": "occ",
				"energy": -0.29705,
				"method": "rhf"
			},
			{
				"type": "occ",
				"energy": -0.29301,
				"method": "rhf"
			},
			{
				"type": "occ",
				"energy": -0.29295,
				"method": "rhf"
			},
			{
				"type": "occ",
				"energy": -0.26984,
				"method": "rhf"
			},
			{
				"type": "occ",
				"energy": -0.26182,
				"method": "rhf"
			},
			{
				"type": "unocc",
				"energy": -0.10202,
				"method": "rhf"
			},
			{
				"type": "unocc",
				"energy": -0.09924,
				"method": "rhf"
			},
			{
				"type": "unocc",
				"energy": -0.04463,
				"method": "rhf"
			},
			{
				"type": "unocc",
				"energy": -0.04244,
				"method": "rhf"
			},
			{
				"type": "unocc",
				"energy": -0.03402,
				"method": "rhf"
			}
		],
		"cosmo_sigma_profile": { 
			"-0.025": 0.0,
			"-0.024": 0.0,
			"-0.023": 0.0,
			"-0.022": 0.0,
			"-0.021": 0.0,
			"-0.02": 0.0,
			"-0.019": 0.0,
			"-0.018": 0.0,
			"-0.017": 0.0,
			"-0.016": 0.0,
			"-0.015": 0.0,
			"-0.014": 0.0,
			"-0.013": 0.0,
			"-0.012": 0.0,
			"-0.011": 0.0,
			"-0.01": 0.0,
			"-0.009": 1.06550743804,
			"-0.008": 10.9606861724,
			"-0.007": 18.0786350023,
			"-0.006": 17.7358309013,
			"-0.005": 15.6439576271,
			"-0.004": 17.2505261818,
			"-0.003": 17.165127934,
			"-0.002": 21.33480885,
			"-0.001": 26.7343058186,
			"0.0": 37.1741884769,
			"0.001": 32.0405578443,
			"0.002": 12.6717399809,
			"0.003": 8.34397673967,
			"0.004": 7.60230647513,
			"0.005": 7.75311290933,
			"0.006": 10.1741568484,
			"0.007": 16.3442687994,
			"0.008": 15.5223783349,
			"0.009": 9.29381831466,
			"0.01": 5.56637297619,
			"0.011": 0.410444868673,
			"0.012": 0.0,
			"0.013": 0.0,
			"0.014": 0.0,
			"0.015": 0.0,
			"0.016": 0.0,
			"0.017": 0.0,
			"0.018": 0.0,
			"0.019": 0.0,
			"0.02": 0.0,
			"0.021": 0.0,
			"0.022": 0.0,
			"0.023": 0.0,
			"0.024": 0.0,
			"0.025": 0.0
		}
	}
}
