{
	 "smiles": "CN(C)C1=CC=C(C=C1)C(O)=O", 
	 "Tm": 516.15, 
	 "num_atms": 23, 
	 "gaussian": { 
		 "optdone": 1, 
		 "sigma_profile": "yes", 
		 "theory": "DFT", 
		 "functional": "B3LYP", 
		 "basiset": "6-31G**", 
		 "properties": { 
			 "R2extent": 3260.1716, 
			 "electric_dipole_moment_norm": 7.47993805723, 
			 "electric_quadrupole_moment_norm": 26.3882865609, 
			 "total_energy": -554.790965543, 
			 "HOMO_LUMO_gap": 0.17645, 
			 "cosmo_polarized_energy": -16.61, 
			 "cosmo_cavitation_energy": 26.23, 
			 "cosmo_dispersion_energy": -19.49, 
			 "cosmo_repulsion_energy": 1.53, 
			 "cosmo_total_nonelectrostatic_energy": 8.27, 
			 "SMD_solvation_energy": 5.45 
		},
		"coords": [
			{
				"x": 1.167197328,
				"y": -0.5941824246,
				"z": 1.9971427514,
				"element": "C" 
			},
			{
				"x": 0.2949104999,
				"y": 0.4037718313,
				"z": 1.4003882243,
				"element": "N" 
			},
			{
				"x": 0.1825419139,
				"y": 1.7134228781,
				"z": 2.0226699934,
				"element": "C" 
			},
			{
				"x": -0.2608569344,
				"y": 0.1802555526,
				"z": 0.1582244699,
				"element": "C" 
			},
			{
				"x": -1.0397734278,
				"y": 1.1724258561,
				"z": -0.4907488983,
				"element": "C" 
			},
			{
				"x": -1.6076258392,
				"y": 0.9336336398,
				"z": -1.7308006166,
				"element": "C" 
			},
			{
				"x": -1.4477163553,
				"y": -0.2962524084,
				"z": -2.387766094,
				"element": "C" 
			},
			{
				"x": -0.6579787568,
				"y": -1.2718423938,
				"z": -1.7610878304,
				"element": "C" 
			},
			{
				"x": -0.0731823476,
				"y": -1.0482311013,
				"z": -0.5221784895,
				"element": "C" 
			},
			{
				"x": -2.0883845605,
				"y": -0.4688861347,
				"z": -3.7198672822,
				"element": "C" 
			},
			{
				"x": -2.2019217225,
				"y": -1.7462060841,
				"z": -4.1897517741,
				"element": "O" 
			},
			{
				"x": -2.5064523363,
				"y": 0.4490809813,
				"z": -4.3900895484,
				"element": "O" 
			},
			{
				"x": 2.0720729141,
				"y": -0.7732640507,
				"z": 1.3982625179,
				"element": "H" 
			},
			{
				"x": 0.6493648497,
				"y": -1.5529604064,
				"z": 2.1233996002,
				"element": "H" 
			},
			{
				"x": 1.4779602116,
				"y": -0.2537795621,
				"z": 2.985388963,
				"element": "H" 
			},
			{
				"x": 0.6663867776,
				"y": 1.6879572049,
				"z": 2.9995612944,
				"element": "H" 
			},
			{
				"x": -0.8663586022,
				"y": 1.9941749841,
				"z": 2.177841151,
				"element": "H" 
			},
			{
				"x": 0.6607403885,
				"y": 2.5030540542,
				"z": 1.4256169261,
				"element": "H" 
			},
			{
				"x": -1.1969657603,
				"y": 2.1359640538,
				"z": -0.0225036624,
				"element": "H" 
			},
			{
				"x": -2.194410439,
				"y": 1.7029150646,
				"z": -2.221804789,
				"element": "H" 
			},
			{
				"x": -0.4482362543,
				"y": -2.219097161,
				"z": -2.2540612197,
				"element": "H" 
			},
			{
				"x": 0.5421163533,
				"y": -1.8264626759,
				"z": -0.088910518,
				"element": "H" 
			},
			{
				"x": -1.9918279006,
				"y": -2.3750916979,
				"z": -3.4863251692,
				"element": "H" 
			}
		],
		 "valence_orbital": [ 
			{
				"type": "occ",
				"energy": -0.30561,
				"method": "rhf"
			},
			{
				"type": "occ",
				"energy": -0.29144,
				"method": "rhf"
			},
			{
				"type": "occ",
				"energy": -0.26062,
				"method": "rhf"
			},
			{
				"type": "occ",
				"energy": -0.25613,
				"method": "rhf"
			},
			{
				"type": "occ",
				"energy": -0.2052,
				"method": "rhf"
			},
			{
				"type": "unocc",
				"energy": -0.02875,
				"method": "rhf"
			},
			{
				"type": "unocc",
				"energy": -0.00943,
				"method": "rhf"
			},
			{
				"type": "unocc",
				"energy": 0.06445,
				"method": "rhf"
			},
			{
				"type": "unocc",
				"energy": 0.07193,
				"method": "rhf"
			},
			{
				"type": "unocc",
				"energy": 0.07961,
				"method": "rhf"
			}
		],
		"cosmo_sigma_profile": { 
			"-0.025": 0.0,
			"-0.024": 0.0,
			"-0.023": 0.0,
			"-0.022": 0.0,
			"-0.021": 0.0,
			"-0.02": 0.0,
			"-0.019": 0.0,
			"-0.018": 0.405824407889,
			"-0.017": 0.657478967551,
			"-0.016": 1.12976050946,
			"-0.015": 0.981527076451,
			"-0.014": 0.770190690426,
			"-0.013": 1.3073616136,
			"-0.012": 0.54570983449,
			"-0.011": 1.29876486009,
			"-0.01": 1.17819327334,
			"-0.009": 0.869098237934,
			"-0.008": 1.48472821279,
			"-0.007": 3.9323823595,
			"-0.006": 8.62032880556,
			"-0.005": 16.1105200479,
			"-0.004": 21.3896742213,
			"-0.003": 18.300138229,
			"-0.002": 21.4224375496,
			"-0.001": 14.5956869017,
			"0.0": 9.11329669221,
			"0.001": 10.0748010701,
			"0.002": 8.8309693327,
			"0.003": 9.05210265042,
			"0.004": 13.2217294671,
			"0.005": 11.8529998594,
			"0.006": 2.90429769493,
			"0.007": 2.42330496802,
			"0.008": 2.80210236076,
			"0.009": 2.74785806153,
			"0.01": 3.70850254144,
			"0.011": 4.39987013391,
			"0.012": 5.87447480849,
			"0.013": 4.62169861355,
			"0.014": 1.37588462505,
			"0.015": 0.0250081676975,
			"0.016": 0.0,
			"0.017": 0.0,
			"0.018": 0.0,
			"0.019": 0.0,
			"0.02": 0.0,
			"0.021": 0.0,
			"0.022": 0.0,
			"0.023": 0.0,
			"0.024": 0.0,
			"0.025": 0.0
		}
	}
}
