{
	 "smiles": "CC1=NN2C=CC=NC2=C1C(O)=O", 
	 "Tm": 450.15, 
	 "num_atms": 20, 
	 "gaussian": { 
		 "optdone": 1, 
		 "sigma_profile": "yes", 
		 "theory": "DFT", 
		 "functional": "B3LYP", 
		 "basiset": "6-31G**", 
		 "properties": { 
			 "R2extent": 2727.2281, 
			 "electric_dipole_moment_norm": 7.1782268486, 
			 "electric_quadrupole_moment_norm": 15.3593765804, 
			 "total_energy": -623.769616379, 
			 "HOMO_LUMO_gap": 0.16402, 
			 "cosmo_polarized_energy": -16.39, 
			 "cosmo_cavitation_energy": 24.6, 
			 "cosmo_dispersion_energy": -18.55, 
			 "cosmo_repulsion_energy": 1.44, 
			 "cosmo_total_nonelectrostatic_energy": 7.5, 
			 "SMD_solvation_energy": 3.93 
		},
		"coords": [
			{
				"x": 3.1171772541,
				"y": -2.3786870868,
				"z": 1.0223117473,
				"element": "C" 
			},
			{
				"x": 1.9219055218,
				"y": -1.5858874546,
				"z": 0.6092991424,
				"element": "C" 
			},
			{
				"x": 1.9947853816,
				"y": -0.7604816095,
				"z": -0.4465596829,
				"element": "N" 
			},
			{
				"x": 0.7568597779,
				"y": -0.2108665913,
				"z": -0.5384679394,
				"element": "N" 
			},
			{
				"x": 0.3384571988,
				"y": 0.6926013758,
				"z": -1.457482608,
				"element": "C" 
			},
			{
				"x": -0.9619303117,
				"y": 1.1299893292,
				"z": -1.3809064884,
				"element": "C" 
			},
			{
				"x": -1.7965797991,
				"y": 0.6188075736,
				"z": -0.3519655196,
				"element": "C" 
			},
			{
				"x": -1.3881716339,
				"y": -0.2628681455,
				"z": 0.5449136308,
				"element": "N" 
			},
			{
				"x": -0.1091143249,
				"y": -0.6802277913,
				"z": 0.4536570767,
				"element": "C" 
			},
			{
				"x": 0.6363919168,
				"y": -1.5807350894,
				"z": 1.2136313578,
				"element": "C" 
			},
			{
				"x": 0.1724813351,
				"y": -2.3475809369,
				"z": 2.382876202,
				"element": "C" 
			},
			{
				"x": -1.1164921486,
				"y": -2.1443236701,
				"z": 2.7431969812,
				"element": "O" 
			},
			{
				"x": 0.8807378284,
				"y": -3.1173870049,
				"z": 2.9985221857,
				"element": "O" 
			},
			{
				"x": 2.8921942422,
				"y": -3.4487914309,
				"z": 1.0011984061,
				"element": "H" 
			},
			{
				"x": 3.9565097303,
				"y": -2.1641480362,
				"z": 0.3583208169,
				"element": "H" 
			},
			{
				"x": 3.3925343839,
				"y": -2.1455345281,
				"z": 2.0547823094,
				"element": "H" 
			},
			{
				"x": 1.0702588026,
				"y": 1.0055918261,
				"z": -2.1922945318,
				"element": "H" 
			},
			{
				"x": -1.3383958983,
				"y": 1.851496022,
				"z": -2.0947127808,
				"element": "H" 
			},
			{
				"x": -2.8286430369,
				"y": 0.9515905535,
				"z": -0.2734136667,
				"element": "H" 
			},
			{
				"x": -1.5469662199,
				"y": -1.4982573049,
				"z": 2.1481933613,
				"element": "H" 
			}
		],
		 "valence_orbital": [ 
			{
				"type": "occ",
				"energy": -0.29946,
				"method": "rhf"
			},
			{
				"type": "occ",
				"energy": -0.2968,
				"method": "rhf"
			},
			{
				"type": "occ",
				"energy": -0.2758,
				"method": "rhf"
			},
			{
				"type": "occ",
				"energy": -0.25947,
				"method": "rhf"
			},
			{
				"type": "occ",
				"energy": -0.24536,
				"method": "rhf"
			},
			{
				"type": "unocc",
				"energy": -0.08134,
				"method": "rhf"
			},
			{
				"type": "unocc",
				"energy": -0.03887,
				"method": "rhf"
			},
			{
				"type": "unocc",
				"energy": 0.00101,
				"method": "rhf"
			},
			{
				"type": "unocc",
				"energy": 0.0688,
				"method": "rhf"
			},
			{
				"type": "unocc",
				"energy": 0.07924,
				"method": "rhf"
			}
		],
		"cosmo_sigma_profile": { 
			"-0.025": 0.0,
			"-0.024": 0.0,
			"-0.023": 0.0,
			"-0.022": 0.0,
			"-0.021": 0.0,
			"-0.02": 0.0,
			"-0.019": 0.0,
			"-0.018": 0.0,
			"-0.017": 0.0,
			"-0.016": 0.0,
			"-0.015": 0.0,
			"-0.014": 0.0,
			"-0.013": 0.0,
			"-0.012": 0.0350088341257,
			"-0.011": 1.82004361195,
			"-0.01": 2.16832428823,
			"-0.009": 5.43845301857,
			"-0.008": 8.47669186507,
			"-0.007": 5.70219045707,
			"-0.006": 6.23613965664,
			"-0.005": 11.4185897308,
			"-0.004": 14.7413933356,
			"-0.003": 16.4944684914,
			"-0.002": 17.8867797507,
			"-0.001": 23.0811845932,
			"0.0": 16.631390791,
			"0.001": 9.0233476462,
			"0.002": 5.60208753465,
			"0.003": 6.28471568361,
			"0.004": 5.3795407155,
			"0.005": 4.12246120171,
			"0.006": 4.40759343066,
			"0.007": 2.60019866557,
			"0.008": 3.58976547337,
			"0.009": 4.15189962522,
			"0.01": 4.50948663355,
			"0.011": 5.57609107299,
			"0.012": 6.19482298133,
			"0.013": 4.26793604409,
			"0.014": 2.05024113186,
			"0.015": 0.139865479309,
			"0.016": 0.0,
			"0.017": 0.0,
			"0.018": 0.0,
			"0.019": 0.0,
			"0.02": 0.0,
			"0.021": 0.0,
			"0.022": 0.0,
			"0.023": 0.0,
			"0.024": 0.0,
			"0.025": 0.0
		}
	}
}
