{
	 "smiles": "OCC1=CC=C(N=C1)N1CCOCC1", 
	 "Tm": 348.15, 
	 "num_atms": 28, 
	 "gaussian": { 
		 "optdone": 1, 
		 "sigma_profile": "yes", 
		 "theory": "DFT", 
		 "functional": "B3LYP", 
		 "basiset": "6-31G**", 
		 "properties": { 
			 "R2extent": 4319.5565, 
			 "electric_dipole_moment_norm": 1.27264105701, 
			 "electric_quadrupole_moment_norm": 12.9037138154, 
			 "total_energy": -649.419812868, 
			 "HOMO_LUMO_gap": 0.18218, 
			 "cosmo_polarized_energy": -11.81, 
			 "cosmo_cavitation_energy": 30.01, 
			 "cosmo_dispersion_energy": -22.51, 
			 "cosmo_repulsion_energy": 1.79, 
			 "cosmo_total_nonelectrostatic_energy": 9.28, 
			 "SMD_solvation_energy": 3.32 
		},
		"coords": [
			{
				"x": 2.1593446169,
				"y": 2.8422245491,
				"z": -3.1766345064,
				"element": "O" 
			},
			{
				"x": 0.961158614,
				"y": 3.3737771987,
				"z": -2.615700815,
				"element": "C" 
			},
			{
				"x": 0.3627011558,
				"y": 2.4914120764,
				"z": -1.5472284485,
				"element": "C" 
			},
			{
				"x": 1.1507775238,
				"y": 1.932753962,
				"z": -0.5279174027,
				"element": "C" 
			},
			{
				"x": 0.5758893087,
				"y": 1.1376563692,
				"z": 0.4481868,
				"element": "C" 
			},
			{
				"x": -0.822996006,
				"y": 0.9027150342,
				"z": 0.3963329981,
				"element": "C" 
			},
			{
				"x": -1.5852345622,
				"y": 1.4246317631,
				"z": -0.5827610721,
				"element": "N" 
			},
			{
				"x": -0.9962541244,
				"y": 2.1813717355,
				"z": -1.5126699471,
				"element": "C" 
			},
			{
				"x": -1.4552348344,
				"y": 0.1249267306,
				"z": 1.3410765615,
				"element": "N" 
			},
			{
				"x": -0.7208989902,
				"y": -0.4619359019,
				"z": 2.4570852174,
				"element": "C" 
			},
			{
				"x": -1.6903021126,
				"y": -1.2254695182,
				"z": 3.3605333962,
				"element": "C" 
			},
			{
				"x": -2.4474981264,
				"y": -2.1720302266,
				"z": 2.6307181577,
				"element": "O" 
			},
			{
				"x": -3.1671075833,
				"y": -1.6204223361,
				"z": 1.5192960254,
				"element": "C" 
			},
			{
				"x": -2.8896169614,
				"y": -0.1340294269,
				"z": 1.2898794607,
				"element": "C" 
			},
			{
				"x": 1.9548447822,
				"y": 1.9522179079,
				"z": -3.4937699047,
				"element": "H" 
			},
			{
				"x": 0.2048344152,
				"y": 3.5768652634,
				"z": -3.3909291775,
				"element": "H" 
			},
			{
				"x": 1.2566101636,
				"y": 4.3447166466,
				"z": -2.2003032283,
				"element": "H" 
			},
			{
				"x": 2.221404769,
				"y": 2.119023886,
				"z": -0.5184529377,
				"element": "H" 
			},
			{
				"x": 1.1896653071,
				"y": 0.7040206839,
				"z": 1.2278697415,
				"element": "H" 
			},
			{
				"x": -1.659075838,
				"y": 2.5707474977,
				"z": -2.2869338157,
				"element": "H" 
			},
			{
				"x": -0.2071635987,
				"y": 0.3128353667,
				"z": 3.0474824781,
				"element": "H" 
			},
			{
				"x": 0.0466273519,
				"y": -1.157466095,
				"z": 2.0871302907,
				"element": "H" 
			},
			{
				"x": -1.1251645581,
				"y": -1.7908901128,
				"z": 4.1066722533,
				"element": "H" 
			},
			{
				"x": -2.3386360657,
				"y": -0.5204591175,
				"z": 3.9043308897,
				"element": "H" 
			},
			{
				"x": -4.2440295669,
				"y": -1.7694626226,
				"z": 1.681699102,
				"element": "H" 
			},
			{
				"x": -2.8764921322,
				"y": -2.1921492947,
				"z": 0.6290288941,
				"element": "H" 
			},
			{
				"x": -3.2532472541,
				"y": 0.1702486145,
				"z": 0.3085198621,
				"element": "H" 
			},
			{
				"x": -3.4218056938,
				"y": 0.4764693668,
				"z": 2.0341591272,
				"element": "H" 
			}
		],
		 "valence_orbital": [ 
			{
				"type": "occ",
				"energy": -0.27534,
				"method": "rhf"
			},
			{
				"type": "occ",
				"energy": -0.26809,
				"method": "rhf"
			},
			{
				"type": "occ",
				"energy": -0.25294,
				"method": "rhf"
			},
			{
				"type": "occ",
				"energy": -0.25016,
				"method": "rhf"
			},
			{
				"type": "occ",
				"energy": -0.19806,
				"method": "rhf"
			},
			{
				"type": "unocc",
				"energy": -0.01588,
				"method": "rhf"
			},
			{
				"type": "unocc",
				"energy": 0.00752,
				"method": "rhf"
			},
			{
				"type": "unocc",
				"energy": 0.08367,
				"method": "rhf"
			},
			{
				"type": "unocc",
				"energy": 0.09245,
				"method": "rhf"
			},
			{
				"type": "unocc",
				"energy": 0.1082,
				"method": "rhf"
			}
		],
		"cosmo_sigma_profile": { 
			"-0.025": 0.0,
			"-0.024": 0.0,
			"-0.023": 0.0,
			"-0.022": 0.0,
			"-0.021": 0.0,
			"-0.02": 0.0,
			"-0.019": 0.0,
			"-0.018": 0.0,
			"-0.017": 0.0,
			"-0.016": 0.0379055924891,
			"-0.015": 0.710560686276,
			"-0.014": 0.788217218266,
			"-0.013": 0.987830902549,
			"-0.012": 0.771890455572,
			"-0.011": 0.949995004638,
			"-0.01": 0.525353527269,
			"-0.009": 0.725505261594,
			"-0.008": 0.537900940997,
			"-0.007": 0.991356342409,
			"-0.006": 4.83601272346,
			"-0.005": 20.4239441002,
			"-0.004": 39.3148642264,
			"-0.003": 26.7133779807,
			"-0.002": 20.8104884791,
			"-0.001": 14.1622655454,
			"0.0": 11.6414546576,
			"0.001": 11.132947988,
			"0.002": 10.869612894,
			"0.003": 14.2449410702,
			"0.004": 12.7529385,
			"0.005": 7.16955166922,
			"0.006": 4.00972676377,
			"0.007": 5.04005074602,
			"0.008": 3.46536435385,
			"0.009": 4.43118914883,
			"0.01": 3.67392956462,
			"0.011": 2.56041448093,
			"0.012": 3.99746939863,
			"0.013": 3.90774988239,
			"0.014": 2.67694284246,
			"0.015": 0.6527746501,
			"0.016": 0.0,
			"0.017": 0.0,
			"0.018": 0.0,
			"0.019": 0.0,
			"0.02": 0.0,
			"0.021": 0.0,
			"0.022": 0.0,
			"0.023": 0.0,
			"0.024": 0.0,
			"0.025": 0.0
		}
	}
}
