{
	 "smiles": "C1COCCOC2=CC=CC=C2OCCO1", 
	 "Tm": 322.15, 
	 "num_atms": 32, 
	 "gaussian": { 
		 "optdone": 1, 
		 "sigma_profile": "yes", 
		 "theory": "DFT", 
		 "functional": "B3LYP", 
		 "basiset": "6-31G**", 
		 "properties": { 
			 "R2extent": 3794.1916, 
			 "electric_dipole_moment_norm": 3.53180734469, 
			 "electric_quadrupole_moment_norm": 12.3569414634, 
			 "total_energy": -767.747806067, 
			 "HOMO_LUMO_gap": 0.21432, 
			 "cosmo_polarized_energy": -12.57, 
			 "cosmo_cavitation_energy": 31.59, 
			 "cosmo_dispersion_energy": -23.31, 
			 "cosmo_repulsion_energy": 1.79, 
			 "cosmo_total_nonelectrostatic_energy": 10.06, 
			 "SMD_solvation_energy": 5.51 
		},
		"coords": [
			{
				"x": -1.4235864288,
				"y": -1.4464872306,
				"z": -0.7079475901,
				"element": "C" 
			},
			{
				"x": -1.2041692974,
				"y": -1.739733669,
				"z": 0.7907719632,
				"element": "C" 
			},
			{
				"x": -0.2072763287,
				"y": -0.9546400236,
				"z": 1.4142744072,
				"element": "O" 
			},
			{
				"x": -0.3749843316,
				"y": 0.4520652317,
				"z": 1.3679325085,
				"element": "C" 
			},
			{
				"x": 0.9615242504,
				"y": 1.0801660507,
				"z": 1.7368413924,
				"element": "C" 
			},
			{
				"x": 1.9802372094,
				"y": 0.8037177253,
				"z": 0.7749251046,
				"element": "O" 
			},
			{
				"x": 1.8857320232,
				"y": 1.3818207931,
				"z": -0.4726849696,
				"element": "C" 
			},
			{
				"x": 1.4904476775,
				"y": 2.7095319278,
				"z": -0.6645519136,
				"element": "C" 
			},
			{
				"x": 1.4920395952,
				"y": 3.2842017359,
				"z": -1.9367188071,
				"element": "C" 
			},
			{
				"x": 1.8985916949,
				"y": 2.5302713744,
				"z": -3.0358263352,
				"element": "C" 
			},
			{
				"x": 2.2840465762,
				"y": 1.2030962579,
				"z": -2.85408498,
				"element": "C" 
			},
			{
				"x": 2.2745739581,
				"y": 0.6088593988,
				"z": -1.5892641089,
				"element": "C" 
			},
			{
				"x": 2.7537468874,
				"y": -0.6755560406,
				"z": -1.5190688131,
				"element": "O" 
			},
			{
				"x": 2.0348765722,
				"y": -1.6986902538,
				"z": -0.8147335634,
				"element": "C" 
			},
			{
				"x": 0.7550536867,
				"y": -2.1228560535,
				"z": -1.5278791099,
				"element": "C" 
			},
			{
				"x": -0.2562106936,
				"y": -1.122803737,
				"z": -1.4341934177,
				"element": "O" 
			},
			{
				"x": -1.9497271682,
				"y": -2.3134027401,
				"z": -1.1436475432,
				"element": "H" 
			},
			{
				"x": -2.0798604241,
				"y": -0.5800169577,
				"z": -0.8374347805,
				"element": "H" 
			},
			{
				"x": -0.8665437941,
				"y": -2.7712611723,
				"z": 0.9339495338,
				"element": "H" 
			},
			{
				"x": -2.1783381582,
				"y": -1.6444407925,
				"z": 1.3017203934,
				"element": "H" 
			},
			{
				"x": -1.1453697338,
				"y": 0.7805587933,
				"z": 2.0863823386,
				"element": "H" 
			},
			{
				"x": -0.669846824,
				"y": 0.7927322368,
				"z": 0.3683402439,
				"element": "H" 
			},
			{
				"x": 1.3295004854,
				"y": 0.6410913506,
				"z": 2.6677488099,
				"element": "H" 
			},
			{
				"x": 0.8336768502,
				"y": 2.1577286714,
				"z": 1.8970513769,
				"element": "H" 
			},
			{
				"x": 1.2038216614,
				"y": 3.3110654402,
				"z": 0.191678333,
				"element": "H" 
			},
			{
				"x": 1.1871347038,
				"y": 4.3193253202,
				"z": -2.0579790489,
				"element": "H" 
			},
			{
				"x": 1.9094339677,
				"y": 2.9655131248,
				"z": -4.0305382103,
				"element": "H" 
			},
			{
				"x": 2.5987123445,
				"y": 0.5879316755,
				"z": -3.6910133477,
				"element": "H" 
			},
			{
				"x": 2.7279739061,
				"y": -2.5468171396,
				"z": -0.7995881782,
				"element": "H" 
			},
			{
				"x": 1.8119899313,
				"y": -1.3933546146,
				"z": 0.2071552541,
				"element": "H" 
			},
			{
				"x": 0.9659470235,
				"y": -2.2868882551,
				"z": -2.5927124401,
				"element": "H" 
			},
			{
				"x": 0.4138521777,
				"y": -3.0784284284,
				"z": -1.1036045018,
				"element": "H" 
			}
		],
		 "valence_orbital": [ 
			{
				"type": "occ",
				"energy": -0.28203,
				"method": "rhf"
			},
			{
				"type": "occ",
				"energy": -0.26354,
				"method": "rhf"
			},
			{
				"type": "occ",
				"energy": -0.24944,
				"method": "rhf"
			},
			{
				"type": "occ",
				"energy": -0.22572,
				"method": "rhf"
			},
			{
				"type": "occ",
				"energy": -0.20243,
				"method": "rhf"
			},
			{
				"type": "unocc",
				"energy": 0.01189,
				"method": "rhf"
			},
			{
				"type": "unocc",
				"energy": 0.02008,
				"method": "rhf"
			},
			{
				"type": "unocc",
				"energy": 0.07308,
				"method": "rhf"
			},
			{
				"type": "unocc",
				"energy": 0.0895,
				"method": "rhf"
			},
			{
				"type": "unocc",
				"energy": 0.10194,
				"method": "rhf"
			}
		],
		"cosmo_sigma_profile": { 
			"-0.025": 0.0,
			"-0.024": 0.0,
			"-0.023": 0.0,
			"-0.022": 0.0,
			"-0.021": 0.0,
			"-0.02": 0.0,
			"-0.019": 0.0,
			"-0.018": 0.0,
			"-0.017": 0.0,
			"-0.016": 0.0,
			"-0.015": 0.0,
			"-0.014": 0.0,
			"-0.013": 0.0,
			"-0.012": 0.0,
			"-0.011": 0.0,
			"-0.01": 0.0,
			"-0.009": 0.0,
			"-0.008": 0.8978091569,
			"-0.007": 2.63721448434,
			"-0.006": 9.59115571973,
			"-0.005": 29.4999778776,
			"-0.004": 37.5608598678,
			"-0.003": 29.3524481844,
			"-0.002": 18.7637551251,
			"-0.001": 13.5663916202,
			"0.0": 10.5774984965,
			"0.001": 9.2173346239,
			"0.002": 9.43441288712,
			"0.003": 10.4784285812,
			"0.004": 12.6687572283,
			"0.005": 12.1984080942,
			"0.006": 11.0175934393,
			"0.007": 6.92081128263,
			"0.008": 6.99620087868,
			"0.009": 4.43400462997,
			"0.01": 4.17556978712,
			"0.011": 4.50728220728,
			"0.012": 2.5658322494,
			"0.013": 0.802759035976,
			"0.014": 0.0258942744251,
			"0.015": 0.0,
			"0.016": 0.0,
			"0.017": 0.00379933865475,
			"0.018": 0.00907491917418,
			"0.019": 0.0770635728115,
			"0.02": 0.028153176613,
			"0.021": 0.0407823517466,
			"0.022": 0.0,
			"0.023": 0.0,
			"0.024": 0.0,
			"0.025": 0.0
		}
	}
}
