{
	 "smiles": "IC1=CC(I)=CC(I)=C1", 
	 "Tm": 457.15, 
	 "num_atms": 12, 
	 "gaussian": { 
		 "optdone": 1, 
		 "sigma_profile": "no", 
		 "theory": "DFT", 
		 "functional": "B3LYP", 
		 "basiset": "6-31G**", 
		 "properties": { 
			 "R2extent": 1728.1955, 
			 "electric_dipole_moment_norm": 0.0, 
			 "electric_quadrupole_moment_norm": 4.62340712138, 
			 "total_energy": -264.597631974, 
			 "HOMO_LUMO_gap": 0.17525, 
			 "cosmo_polarized_energy": -282533.16, 
			 "cosmo_cavitation_energy": 26.15, 
			 "cosmo_dispersion_energy": -23.39, 
			 "cosmo_repulsion_energy": 1.82, 
			 "cosmo_total_nonelectrostatic_energy": 4.58, 
			 "SMD_solvation_energy": 1.76 
		},
		"coords": [
			{
				"x": 0.8223604022,
				"y": 2.1468695945,
				"z": 4.006925193,
				"element": "I" 
			},
			{
				"x": 0.4717822643,
				"y": 1.2773927353,
				"z": 2.1070225685,
				"element": "C" 
			},
			{
				"x": -0.7459489246,
				"y": 1.5138779538,
				"z": 1.4658580298,
				"element": "C" 
			},
			{
				"x": -0.9575238416,
				"y": 0.9315908383,
				"z": 0.2144307546,
				"element": "C" 
			},
			{
				"x": -2.7952832057,
				"y": 1.2716431084,
				"z": -0.7833068059,
				"element": "I" 
			},
			{
				"x": 0.0095449272,
				"y": 0.1310561349,
				"z": -0.3969705797,
				"element": "C" 
			},
			{
				"x": 1.2139294405,
				"y": -0.0809348954,
				"z": 0.2771263339,
				"element": "C" 
			},
			{
				"x": 2.7008782459,
				"y": -1.2909742013,
				"z": -0.6247036004,
				"element": "I" 
			},
			{
				"x": 1.4645935378,
				"y": 0.4831102412,
				"z": 1.5296843395,
				"element": "C" 
			},
			{
				"x": -1.5055600279,
				"y": 2.1319828478,
				"z": 1.9266148219,
				"element": "H" 
			},
			{
				"x": -0.1696269903,
				"y": -0.3132937388,
				"z": -1.3674357362,
				"element": "H" 
			},
			{
				"x": 2.4033541722,
				"y": 0.3092793813,
				"z": 2.0394546809,
				"element": "H" 
			}
		],
		 "valence_orbital": [ 
			{
				"type": "occ",
				"energy": -0.28397,
				"method": "rhf"
			},
			{
				"type": "occ",
				"energy": -0.27921,
				"method": "rhf"
			},
			{
				"type": "occ",
				"energy": -0.27624,
				"method": "rhf"
			},
			{
				"type": "occ",
				"energy": -0.25478,
				"method": "rhf"
			},
			{
				"type": "occ",
				"energy": -0.25478,
				"method": "rhf"
			},
			{
				"type": "unocc",
				"energy": -0.07953,
				"method": "rhf"
			},
			{
				"type": "unocc",
				"energy": -0.04404,
				"method": "rhf"
			},
			{
				"type": "unocc",
				"energy": -0.04404,
				"method": "rhf"
			},
			{
				"type": "unocc",
				"energy": -0.03749,
				"method": "rhf"
			},
			{
				"type": "unocc",
				"energy": -0.03749,
				"method": "rhf"
			}
		],
		"cosmo_sigma_profile": { 
			"0.0": 0.0,
			"0.0": 0.0,
			"0.0": 0.0,
			"0.0": 0.0,
			"0.0": 0.0,
			"0.0": 0.0,
			"0.0": 0.0,
			"0.0": 0.0,
			"0.0": 0.0,
			"0.0": 0.0,
			"0.0": 0.0,
			"0.0": 0.0,
			"0.0": 0.0,
			"0.0": 0.0,
			"0.0": 0.0,
			"0.0": 0.0,
			"0.0": 0.0,
			"0.0": 0.0,
			"0.0": 0.0,
			"0.0": 0.0,
			"0.0": 0.0,
			"0.0": 0.0,
			"0.0": 0.0,
			"0.0": 0.0,
			"0.0": 0.0,
			"0.0": 0.0,
			"0.0": 0.0,
			"0.0": 0.0,
			"0.0": 0.0,
			"0.0": 0.0,
			"0.0": 0.0,
			"0.0": 0.0,
			"0.0": 0.0,
			"0.0": 0.0,
			"0.0": 0.0,
			"0.0": 0.0,
			"0.0": 0.0,
			"0.0": 0.0,
			"0.0": 0.0,
			"0.0": 0.0,
			"0.0": 0.0,
			"0.0": 0.0,
			"0.0": 0.0,
			"0.0": 0.0,
			"0.0": 0.0,
			"0.0": 0.0,
			"0.0": 0.0,
			"0.0": 0.0,
			"0.0": 0.0,
			"0.0": 0.0,
			"0.0": 0.0
		}
	}
}
