{
	 "smiles": "NC1=CC(=C(Cl)C=C1)S(=O)(=O)N1CCCCC1", 
	 "Tm": 367.15, 
	 "num_atms": 32, 
	 "gaussian": { 
		 "optdone": 1, 
		 "sigma_profile": "yes", 
		 "theory": "DFT", 
		 "functional": "B3LYP", 
		 "basiset": "6-31G**", 
		 "properties": { 
			 "R2extent": 5559.5882, 
			 "electric_dipole_moment_norm": 5.99269257763, 
			 "electric_quadrupole_moment_norm": 25.7823646328, 
			 "total_energy": -1546.47782313, 
			 "HOMO_LUMO_gap": 0.18105, 
			 "cosmo_polarized_energy": -17.92, 
			 "cosmo_cavitation_energy": 36.29, 
			 "cosmo_dispersion_energy": -26.12, 
			 "cosmo_repulsion_energy": 1.99, 
			 "cosmo_total_nonelectrostatic_energy": 12.16, 
			 "SMD_solvation_energy": 4.22 
		},
		"coords": [
			{
				"x": -0.7662385421,
				"y": 1.5661173415,
				"z": 4.7016237713,
				"element": "N" 
			},
			{
				"x": -0.1121444554,
				"y": 1.8668360453,
				"z": 3.5137740551,
				"element": "C" 
			},
			{
				"x": 0.2868221124,
				"y": 0.8448859904,
				"z": 2.6371379969,
				"element": "C" 
			},
			{
				"x": 0.9946280423,
				"y": 1.1305593413,
				"z": 1.4695823146,
				"element": "C" 
			},
			{
				"x": 1.3277339265,
				"y": 2.4558145332,
				"z": 1.1522068445,
				"element": "C" 
			},
			{
				"x": 2.220987736,
				"y": 2.9053925483,
				"z": -0.2852975708,
				"element": "Cl" 
			},
			{
				"x": 0.927999433,
				"y": 3.4746717104,
				"z": 2.0184930306,
				"element": "C" 
			},
			{
				"x": 0.2196231496,
				"y": 3.1907412257,
				"z": 3.1806438497,
				"element": "C" 
			},
			{
				"x": 1.4842088841,
				"y": -0.2986581873,
				"z": 0.4726096263,
				"element": "S" 
			},
			{
				"x": 0.8943710196,
				"y": -1.475878899,
				"z": 1.1281343501,
				"element": "O" 
			},
			{
				"x": 2.9252114451,
				"y": -0.2462594336,
				"z": 0.2219164646,
				"element": "O" 
			},
			{
				"x": 0.6988997561,
				"y": 0.0155128681,
				"z": -0.9890272726,
				"element": "N" 
			},
			{
				"x": 1.4479371096,
				"y": -0.3148358194,
				"z": -2.2190024458,
				"element": "C" 
			},
			{
				"x": 0.8029193173,
				"y": 0.4066138808,
				"z": -3.4059374437,
				"element": "C" 
			},
			{
				"x": -0.6884787643,
				"y": 0.0630958329,
				"z": -3.5224231413,
				"element": "C" 
			},
			{
				"x": -1.4100915891,
				"y": 0.3524675336,
				"z": -2.1992341987,
				"element": "C" 
			},
			{
				"x": -0.7273114977,
				"y": -0.3598758908,
				"z": -1.026606682,
				"element": "C" 
			},
			{
				"x": -1.2259290066,
				"y": 0.6680421595,
				"z": 4.74210644,
				"element": "H" 
			},
			{
				"x": -1.314994537,
				"y": 2.3085012154,
				"z": 5.1103949591,
				"element": "H" 
			},
			{
				"x": 0.0598487137,
				"y": -0.1930435477,
				"z": 2.8564624349,
				"element": "H" 
			},
			{
				"x": 1.1797923142,
				"y": 4.5010194252,
				"z": 1.7743785072,
				"element": "H" 
			},
			{
				"x": -0.0721794173,
				"y": 4.0035671098,
				"z": 3.840265143,
				"element": "H" 
			},
			{
				"x": 2.4824846636,
				"y": -0.0014854178,
				"z": -2.0796695693,
				"element": "H" 
			},
			{
				"x": 1.4436447114,
				"y": -1.4031987579,
				"z": -2.3942394274,
				"element": "H" 
			},
			{
				"x": 0.9263423386,
				"y": 1.4876196811,
				"z": -3.2695585431,
				"element": "H" 
			},
			{
				"x": 1.3383974293,
				"y": 0.1278678758,
				"z": -4.3209395277,
				"element": "H" 
			},
			{
				"x": -1.1503846833,
				"y": 0.6272825672,
				"z": -4.3403524684,
				"element": "H" 
			},
			{
				"x": -0.798684391,
				"y": -1.0017898505,
				"z": -3.7716833241,
				"element": "H" 
			},
			{
				"x": -2.4568086815,
				"y": 0.0301686574,
				"z": -2.2476096631,
				"element": "H" 
			},
			{
				"x": -1.4080564337,
				"y": 1.4320422822,
				"z": -2.005658852,
				"element": "H" 
			},
			{
				"x": -0.8377006409,
				"y": -1.4510155194,
				"z": -1.1206558849,
				"element": "H" 
			},
			{
				"x": -1.1913494626,
				"y": -0.065378502,
				"z": -0.0815337731,
				"element": "H" 
			}
		],
		 "valence_orbital": [ 
			{
				"type": "occ",
				"energy": -0.2974,
				"method": "rhf"
			},
			{
				"type": "occ",
				"energy": -0.29087,
				"method": "rhf"
			},
			{
				"type": "occ",
				"energy": -0.27456,
				"method": "rhf"
			},
			{
				"type": "occ",
				"energy": -0.24327,
				"method": "rhf"
			},
			{
				"type": "occ",
				"energy": -0.21641,
				"method": "rhf"
			},
			{
				"type": "unocc",
				"energy": -0.03536,
				"method": "rhf"
			},
			{
				"type": "unocc",
				"energy": -0.00971,
				"method": "rhf"
			},
			{
				"type": "unocc",
				"energy": 0.02208,
				"method": "rhf"
			},
			{
				"type": "unocc",
				"energy": 0.0675,
				"method": "rhf"
			},
			{
				"type": "unocc",
				"energy": 0.07325,
				"method": "rhf"
			}
		],
		"cosmo_sigma_profile": { 
			"-0.025": 0.0,
			"-0.024": 0.0,
			"-0.023": 0.0,
			"-0.022": 0.0,
			"-0.021": 0.0,
			"-0.02": 0.0,
			"-0.019": 0.0,
			"-0.018": 0.0,
			"-0.017": 0.0,
			"-0.016": 0.0,
			"-0.015": 0.0,
			"-0.014": 0.205431912039,
			"-0.013": 2.60147480778,
			"-0.012": 3.56432630935,
			"-0.011": 3.43353464212,
			"-0.01": 2.89109908795,
			"-0.009": 3.42350220474,
			"-0.008": 3.63990681306,
			"-0.007": 5.86414342176,
			"-0.006": 5.8431638329,
			"-0.005": 6.88792548421,
			"-0.004": 17.6921221059,
			"-0.003": 31.0180329081,
			"-0.002": 31.910790524,
			"-0.001": 27.9144119099,
			"0.0": 24.6668664143,
			"0.001": 17.8983360149,
			"0.002": 19.4811944804,
			"0.003": 18.6205185531,
			"0.004": 11.3796023286,
			"0.005": 8.47212482477,
			"0.006": 5.69346332807,
			"0.007": 4.06935757242,
			"0.008": 3.94182857921,
			"0.009": 4.90422380158,
			"0.01": 8.00622901261,
			"0.011": 9.14712643377,
			"0.012": 4.03458891744,
			"0.013": 0.28679408085,
			"0.014": 0.00441719807644,
			"0.015": 0.0,
			"0.016": 0.0,
			"0.017": 0.0,
			"0.018": 0.0,
			"0.019": 0.0,
			"0.02": 0.0,
			"0.021": 0.0,
			"0.022": 0.0,
			"0.023": 0.0,
			"0.024": 0.0,
			"0.025": 0.0
		}
	}
}
